G2POcore-PETIM in water
125381
    1aaa     O1    1   8.867   5.587   5.647  0.1316  0.6201  0.1212
    1aaa     C1    2   8.789   5.706   5.635 -0.0029 -0.0586 -0.2140
    1aaa     H1    3   8.844   5.775   5.569  1.4203  1.4145  2.3466
    1aaa     H2    4   8.780   5.749   5.735  0.0407 -2.2144  0.7616
    1aaa     C2    5   8.988   5.612   5.718  0.2751  0.0468  0.8695
    1aaa     H3    6   8.976   5.695   5.790 -0.9807  1.8062 -1.2317
    1aaa     H4    7   9.071   5.644   5.655  0.1426  1.7813  1.5175
    1aaa     C3    8   8.644   5.677   5.594 -0.2249 -0.4707 -0.2828
    1aaa     H5    9   8.580   5.656   5.680  0.5741 -2.5548 -0.1319
    1aaa     H6   10   8.643   5.584   5.536  0.1575 -0.7436  0.1358
    1aaa     C4   11   9.023   5.487   5.800 -0.0713 -0.1257 -0.5507
    1aaa     H7   12   9.034   5.405   5.727 -0.6843 -1.1346  0.4606
    1aaa     H8   13   8.937   5.465   5.863  0.5071  1.3957  0.8458
    1aaa     C5   14   8.586   5.793   5.510 -1.0374  0.3288  0.3267
    1aaa     H9   15   8.572   5.870   5.585  0.9087 -0.3655  1.4858
    1aaa    H10   16   8.660   5.828   5.438  1.0856 -2.3410  1.0311
    1aaa     C6   17   9.156   5.494   5.874  0.0138  0.1901 -0.1629
    1aaa    H11   18   9.145   5.560   5.960 -1.1040 -0.1268 -0.0557
    1aaa    H12   19   9.226   5.545   5.808 -0.6055  0.1715 -0.8501
    1aaa     N1   20   8.465   5.760   5.424 -0.2526 -0.3447  0.0905
    1aaa     N2   21   9.218   5.362   5.910 -0.4991  0.7426 -0.3845
    1aaa     C7   22   9.138   5.294   6.015 -0.5824  0.1552 -0.1887
    1aaa    H13   23   9.180   5.327   6.111 -0.6921  2.8004 -0.9764
    1aaa    H14   24   9.034   5.323   6.005 -0.7162  0.4632  1.6334
    1aaa     C8   25   9.360   5.367   5.955  0.5810  0.3787  0.0132
    1aaa    H15   26   9.380   5.435   6.037 -1.6961  2.0530 -0.7338
    1aaa    H16   27   9.388   5.265   5.983 -0.5545  0.2358  0.6645
    1aaa     C9   28   8.398   5.893   5.384 -0.7098  0.4570 -0.4011
    1aaa    H17   29   8.474   5.951   5.332  0.8454  2.3529  3.5764
    1aaa    H18   30   8.323   5.867   5.309 -0.8055  1.8576 -0.8093
    1aaa    C10   31   8.511   5.689   5.299 -0.4198 -0.5036  0.4778
    1aaa    H19   32   8.572   5.763   5.248 -1.7342 -0.1721 -0.6700
    1aaa    H20   33   8.577   5.604   5.319 -1.4636 -1.6097 -0.6184
    1aaa    C11   34   9.142   5.143   5.993  0.1410 -0.1905 -0.7534
    1aaa    H21   35   9.117   5.121   5.889 -0.2369  2.1405 -1.2117
    1aaa    H22   36   9.245   5.114   6.015  0.6739  2.5678  0.8422
    1aaa    C12   37   9.451   5.424   5.841  0.0610 -0.7478  0.4598
    1aaa    H23   38   9.458   5.340   5.771 -0.7314 -1.3747  1.0990
    1aaa    H24   39   9.408   5.511   5.792 -1.1931 -1.2960  0.5494
    1aaa    C13   40   8.328   5.971   5.499  0.6867 -0.0651  0.0090
    1aaa    H25   41   8.402   6.024   5.562  0.9839 -0.0913 -0.3163
    1aaa    H26   42   8.272   6.056   5.458 -0.8118 -1.0020  0.0403
    1aaa    C14   43   8.395   5.642   5.206  0.2443  0.0103  0.5876
    1aaa    H27   44   8.338   5.559   5.250 -1.8230  0.5275 -0.9469
    1aaa    H28   45   8.318   5.720   5.193 -0.1041  0.0839  2.7243
    1aaa    C15   46   8.459   5.606   5.066  0.1852 -0.1261 -0.0361
    1aaa    H29   47   8.529   5.683   5.032 -0.3755  0.2409 -0.3805
    1aaa    H30   48   8.526   5.520   5.082 -1.4715 -1.2841  1.0996
    1aaa    C16   49   8.246   5.878   5.596 -0.3531  0.6909  0.2943
    1aaa    H31   50   8.201   5.797   5.537  0.5581 -0.7479  1.5155
    1aaa    H32   51   8.320   5.831   5.661  1.1615  0.8358 -1.2408
    1aaa    C17   52   9.602   5.455   5.878 -0.6454 -0.5053  0.0500
    1aaa    H33   53   9.657   5.496   5.793 -1.3560 -0.0846 -0.2144
    1aaa    H34   54   9.606   5.528   5.961 -1.2247 -0.5402  0.1196
    1aaa    C18   55   9.055   5.086   6.106  0.2184  0.0609  0.4206
    1aaa    H35   56   9.090   5.135   6.198 -0.8925  3.3393 -0.7880
    1aaa    H36   57   8.949   5.107   6.086 -0.2591 -2.7349 -0.4553
    1aaa    H38   58   8.401   5.704   5.482  0.0389 -0.3798  0.3814
    1aaa    H37   59   9.214   5.306   5.824 -0.1523  1.2705 -0.7533
    2bbb     N1   60   8.095   5.536   4.602  0.2906 -0.0270 -0.3693
    2bbb     C1   61   8.076   5.688   4.618 -0.5686  0.5694  0.2527
    2bbb     H1   62   8.130   5.732   4.535  0.1294 -0.2000  0.2874
    2bbb     H2   63   8.134   5.714   4.707  1.5121 -1.0128 -0.5492
    2bbb     C2   64   8.129   5.507   4.459 -0.2514 -0.1351  0.2744
    2bbb     H3   65   8.227   5.547   4.431 -1.7374  2.4545 -1.6971
    2bbb     H4   66   8.057   5.569   4.404 -0.4317  0.0660  0.7327
    2bbb     C3   67   8.206   5.494   4.696 -0.3694  0.0963 -0.7468
    2bbb     H5   68   8.236   5.393   4.669  1.9917  0.0694  1.5220
    2bbb     H6   69   8.176   5.497   4.801  1.6965 -1.7499 -0.0331
    2bbb     C4   70   8.333   5.577   4.716 -0.3405 -0.1406 -0.3202
    2bbb     H7   71   8.312   5.685   4.715  1.6088  0.2856 -0.9822
    2bbb     H8   72   8.393   5.555   4.627 -0.1775 -0.2049 -0.1960
    2bbb     C5   73   7.929   5.724   4.630  0.5301 -0.3888  0.5652
    2bbb     H9   74   7.866   5.653   4.684 -1.6708 -0.4168 -1.8123
    2bbb    H10   75   7.885   5.712   4.530 -0.3304  0.6890  0.7981
    2bbb     C6   76   8.113   5.361   4.421  0.5222 -0.1050 -0.0507
    2bbb    H11   77   8.010   5.327   4.433  0.7633 -1.0678 -0.5956
    2bbb    H12   78   8.183   5.305   4.485  1.2907  1.9117  0.9765
    2bbb     C7   79   8.416   5.544   4.837 -0.2922  0.3200  0.1958
    2bbb    H13   80   8.513   5.593   4.824  1.3070 -2.5388  0.6745
    2bbb    H14   81   8.427   5.435   4.842  0.2440  0.3058 -0.9256
    2bbb     C8   82   8.165   5.334   4.277 -0.0491 -0.1729 -0.5660
    2bbb    H15   83   8.099   5.387   4.208  0.1937 -0.5094 -1.0630
    2bbb    H16   84   8.263   5.383   4.276 -1.4230  2.7414 -0.2891
    2bbb     C9   85   7.908   5.870   4.684  0.2607  0.1211 -0.4529
    2bbb    H17   86   8.006   5.919   4.690  0.9730 -1.2716 -0.2885
    2bbb    H18   87   7.865   5.860   4.785 -1.8061 -1.2083 -1.4131
    2bbb     O1   88   8.362   5.595   4.960 -0.3627 -0.1072  1.0189
    2bbb    H19   89   8.012   5.480   4.627  0.5775 -0.0366  0.6198
    3bbb     N1   90   7.823   6.212   5.775 -0.0874  0.3876 -1.0659
    3bbb     C1   91   7.694   6.149   5.811  0.1456  0.0747  0.0995
    3bbb     H1   92   7.632   6.232   5.846  1.3928  1.0608  0.0780
    3bbb     H2   93   7.716   6.070   5.882  2.0023 -2.0020 -2.5794
    3bbb     C2   94   7.885   6.266   5.900 -0.0403  0.1223  0.3788
    3bbb     H3   95   7.989   6.273   5.868  0.3906 -1.1103  1.4264
    3bbb     H4   96   7.882   6.188   5.977  2.8249 -1.5698 -1.0623
    3bbb     C3   97   7.920   6.106   5.713  0.0248  0.1000 -0.1557
    3bbb     H5   98   8.008   6.166   5.690  0.4906  0.2372  1.8066
    3bbb     H6   99   7.883   6.074   5.616 -2.9992  1.0651  0.5834
    3bbb     C4  100   7.963   5.979   5.801  1.1000  0.4160  0.1424
    3bbb     H7  101   7.869   5.935   5.838 -0.8101  2.0373 -2.4568
    3bbb     H8  102   8.020   6.022   5.884  0.4220  1.4534  0.0921
    3bbb     C5  103   7.624   6.094   5.687  0.0949 -0.0554 -0.1270
    3bbb     H9  104   7.680   6.014   5.637 -1.7944 -0.9008 -0.9634
    3bbb    H10  105   7.606   6.178   5.618 -0.6484  1.1546  1.4731
    3bbb     C6  106   7.830   6.408   5.942  0.2898  0.6949 -0.5166
    3bbb    H11  107   7.724   6.398   5.971  0.6953 -1.0686  0.4816
    3bbb    H12  108   7.832   6.474   5.855  1.9059  2.0721  0.5004
    3bbb     C7  109   8.052   5.874   5.734 -0.3995 -0.1041 -0.4559
    3bbb    H13  110   7.997   5.800   5.675  0.0966 -0.1410 -0.8726
    3bbb    H14  111   8.104   5.823   5.816  0.2403  1.5404  0.2173
    3bbb     C8  112   7.905   6.464   6.067 -0.7639 -0.0505  0.1422
    3bbb    H15  113   7.879   6.409   6.158 -1.0022 -0.6651 -0.2931
    3bbb    H16  114   8.011   6.442   6.054 -1.2022 -1.8510 -0.5829
    3bbb     C9  115   7.475   6.051   5.718 -0.2226 -0.5173  0.3426
    3bbb    H17  116   7.431   6.003   5.630  2.3654  0.7953 -1.8118
    3bbb    H18  117   7.418   6.141   5.744 -0.2674  0.1165 -1.8057
    3bbb     O1  118   8.144   5.958   5.660 -0.0649 -0.4372  0.2756
    3bbb    H19  119   7.800   6.288   5.709 -1.4357 -0.1589 -1.2628
    4bbb     N1  120  10.172   5.420   5.849  0.1873 -0.5842 -0.2087
    4bbb     C1  121  10.187   5.551   5.773  0.4451  0.0434 -0.0017
    4bbb     H1  122  10.287   5.548   5.729  0.6687 -0.9466  0.5552
    4bbb     H2  123  10.173   5.634   5.842  0.9892  0.9895 -0.9887
    4bbb     C2  124  10.291   5.405   5.935  0.1398 -0.0012  0.0117
    4bbb     H3  125  10.293   5.487   6.008  0.6592  1.1920 -1.3096
    4bbb     H4  126  10.377   5.425   5.871  0.4235 -1.1633  0.0175
    4bbb     C3  127  10.043   5.433   5.934  0.0588 -0.4388 -0.3256
    4bbb     H5  128  10.007   5.537   5.931 -1.2871 -0.7996  1.5632
    4bbb     H6  129  10.068   5.418   6.039  1.6370 -2.2200 -0.9015
    4bbb     C4  130   9.915   5.349   5.902 -0.6215 -0.0568  0.9329
    4bbb     H7  131   9.935   5.241   5.903 -1.7740 -0.2907  0.6534
    4bbb     H8  132   9.878   5.371   5.801 -1.0119  3.2302  1.6845
    4bbb     C5  133  10.081   5.570   5.656 -0.0848 -0.4141 -0.6041
    4bbb     H9  134   9.981   5.551   5.696 -0.4151 -0.6496 -1.5252
    4bbb    H10  135  10.089   5.495   5.576 -0.8217  0.8678 -1.9323
    4bbb     C6  136  10.315   5.274   6.008  0.6057 -0.1246 -0.4131
    4bbb    H11  137  10.345   5.203   5.930  1.3240 -0.5964  0.2827
    4bbb    H12  138  10.224   5.232   6.052  1.3481  0.4491  1.7888
    4bbb     C7  139   9.799   5.378   6.001 -0.5015 -0.0679 -0.1882
    4bbb    H13  140   9.798   5.483   6.034 -0.0453 -0.3506  0.7495
    4bbb    H14  141   9.816   5.318   6.091 -0.0451  0.7814  0.3062
    4bbb     C8  142  10.423   5.279   6.118  0.0184 -0.6394 -0.5533
    4bbb    H15  143  10.395   5.358   6.188 -0.3414  0.1817 -1.5893
    4bbb    H16  144  10.447   5.183   6.166  1.9152  0.7787  1.5497
    4bbb     C9  145  10.090   5.716   5.600 -0.1040  0.4369  0.6620
    4bbb    H17  146  10.083   5.786   5.685 -1.0228  1.0542  0.1090
    4bbb    H18  147   9.998   5.733   5.542  0.8953  0.0227 -1.0975
    4bbb     O1  148   9.673   5.344   5.933 -1.1226  1.0104  0.1441
    4bbb    H19  149  10.165   5.337   5.788  0.9474 -0.3286 -0.6691
    5bbb     N1  150   9.142   4.545   6.139  0.1912 -0.1897  0.3021
    5bbb     C1  151   9.123   4.625   6.269 -0.1570 -0.5011 -0.1447
    5bbb     H1  152   9.015   4.633   6.284  0.1533  3.0159  0.8323
    5bbb     H2  153   9.158   4.728   6.268 -1.0334 -0.1932 -0.1374
    5bbb     C2  154   9.062   4.414   6.142  0.9185  0.5744 -0.5747
    5bbb     H3  155   8.958   4.445   6.147  1.1214  1.0904  0.8454
    5bbb     H4  156   9.100   4.358   6.227  0.3792  0.0230 -0.6901
    5bbb     C3  157   9.101   4.642   6.022  0.2034 -0.6170  0.0113
    5bbb     H5  158   9.116   4.594   5.925 -0.7024  2.6963 -1.9182
    5bbb     H6  159   9.184   4.711   6.007  2.3065 -2.6775  1.4316
    5bbb     C4  160   8.965   4.724   6.030  0.2008 -0.5832  0.2433
    5bbb     H7  161   8.919   4.711   6.129 -1.0404 -0.1562 -0.2686
    5bbb     H8  162   8.893   4.683   5.958 -0.2521 -0.2187  0.4898
    5bbb     C5  163   9.185   4.552   6.396  0.1971 -0.2363  0.1027
    5bbb     H9  164   9.293   4.536   6.384 -0.1490 -1.6850 -1.5057
    5bbb    H10  165   9.136   4.456   6.416  1.7072 -1.4979 -1.8641
    5bbb     C6  166   9.066   4.321   6.024  0.6508  0.3800 -0.7350
    5bbb    H11  167   9.002   4.369   5.949 -1.1865 -1.4801 -0.4681
    5bbb    H12  168   9.022   4.224   6.051  0.5010  0.3098 -1.2163
    5bbb     C7  169   8.982   4.877   6.004  0.7150  0.1659  0.3208
    5bbb    H13  170   8.877   4.906   6.007  0.6816  0.0883 -0.1199
    5bbb    H14  171   9.007   4.907   5.902 -2.4562  0.0606 -0.5869
    5bbb     C8  172   9.203   4.279   5.971 -0.6393  0.0602  0.3854
    5bbb    H15  173   9.254   4.368   5.931 -0.6803  0.3770  1.0199
    5bbb    H16  174   9.261   4.241   6.055 -0.8059  0.6985  0.8020
    5bbb     C9  175   9.158   4.644   6.514  0.4012  0.6911  0.0484
    5bbb    H17  176   9.056   4.681   6.502  0.0713 -0.4537 -0.8758
    5bbb    H18  177   9.221   4.734   6.509 -1.3450  2.0408  1.2722
    5bbb     O1  178   9.061   4.939   6.110  0.3888  0.1883 -0.0709
    5bbb    H19  179   9.244   4.529   6.137  1.0530  3.2087  4.1561
    6bbb     N1  180   8.074   4.804   4.037 -0.3912 -0.4997  0.1343
    6bbb     C1  181   7.927   4.772   4.012 -0.0449  0.3148  0.0886
    6bbb     H1  182   7.918   4.671   3.971 -0.5015 -0.0746  1.1280
    6bbb     H2  183   7.884   4.842   3.940  2.2397  0.9159 -0.7647
    6bbb     C2  184   8.153   4.767   3.905 -0.0309  0.6388 -0.8424
    6bbb     H3  185   8.237   4.836   3.902 -0.6766  1.4913  0.1455
    6bbb     H4  186   8.086   4.791   3.823 -1.2218  1.8268  0.4334
    6bbb     C3  187   8.084   4.961   4.048  1.0896 -0.7107 -0.3656
    6bbb     H5  188   8.012   4.989   4.125  1.7679 -0.5238  0.2098
    6bbb     H6  189   8.060   5.020   3.959 -2.3183  1.1522  1.5694
    6bbb     C4  190   8.224   5.009   4.096  0.6992 -0.5156 -0.3308
    6bbb     H7  191   8.300   4.990   4.019  0.1289 -0.2415 -0.9752
    6bbb     H8  192   8.254   4.951   4.184 -0.5577 -2.0317 -0.8524
    6bbb     C5  193   7.827   4.787   4.125 -0.0328 -0.1422 -0.2861
    6bbb     H9  194   7.792   4.891   4.125  0.6274  0.1037 -1.4621
    6bbb    H10  195   7.871   4.777   4.225 -4.6114 -2.2346  1.7941
    6bbb     C6  196   8.203   4.621   3.913  0.0981 -0.0863  0.0665
    6bbb    H11  197   8.114   4.557   3.913 -1.5284  2.0772 -0.1091
    6bbb    H12  198   8.251   4.608   4.011  1.7853  0.2458 -0.6737
    6bbb     C7  199   8.228   5.160   4.120 -0.1611  0.4884 -0.2369
    6bbb    H13  200   8.179   5.217   4.040  0.7727  0.7230 -0.6550
    6bbb    H14  201   8.331   5.196   4.130 -0.5826  0.9924  4.0842
    6bbb     C8  202   8.293   4.573   3.804 -0.3759 -0.1584 -0.0325
    6bbb    H15  203   8.296   4.465   3.782 -0.7859  0.2338 -2.2921
    6bbb    H16  204   8.257   4.601   3.704 -1.2760 -2.5174 -0.4362
    6bbb     C9  205   7.709   4.685   4.108 -1.1860  0.0189 -0.5681
    6bbb    H17  206   7.657   4.692   4.204  0.4870 -1.3595  0.4995
    6bbb    H18  207   7.749   4.583   4.110 -1.2278 -0.0188 -1.3231
    6bbb     O1  208   8.161   5.190   4.246  0.0961 -0.0147  0.1168
    6bbb    H19  209   8.100   4.758   4.126 -0.2093 -0.1520  0.2623
    7bbb     N1  210   7.605   6.169   4.316 -0.9165 -0.1823 -0.1576
    7bbb     C1  211   7.551   6.311   4.321  0.3639  0.5868  0.9489
    7bbb     H1  212   7.640   6.368   4.291  0.8003 -0.2150  0.6844
    7bbb     H2  213   7.532   6.341   4.424 -1.2788  1.3846  0.4421
    7bbb     C2  214   7.659   6.125   4.176 -0.1684 -0.7204  0.1374
    7bbb     H3  215   7.575   6.117   4.107  1.8137 -2.5300 -2.2721
    7bbb     H4  216   7.703   6.026   4.182  2.9463  0.4718 -0.8854
    7bbb     C3  217   7.720   6.156   4.413  0.5537  0.2151  0.1211
    7bbb     H5  218   7.797   6.230   4.392  0.6867  0.4603  1.4179
    7bbb     H6  219   7.767   6.060   4.388 -0.7389 -0.3929 -0.0773
    7bbb     C4  220   7.681   6.149   4.563  0.4916  0.4715 -0.5803
    7bbb     H7  221   7.583   6.099   4.572  0.0400  1.4026 -0.2327
    7bbb     H8  222   7.671   6.253   4.594 -0.7526  0.4035 -0.7018
    7bbb     C5  223   7.416   6.346   4.240  0.0694  0.4172  0.1018
    7bbb     H9  224   7.333   6.310   4.302  0.7087 -0.2240  0.5900
    7bbb    H10  225   7.422   6.292   4.145 -0.2004 -1.6168  1.2026
    7bbb     C6  226   7.765   6.215   4.105  0.7150 -0.9252  0.5369
    7bbb    H11  227   7.844   6.240   4.176 -1.3816 -0.9311  3.0524
    7bbb    H12  228   7.715   6.310   4.080  1.0442 -0.9734 -0.3235
    7bbb     C7  229   7.787   6.083   4.646  0.0802  0.1752  0.0746
    7bbb    H13  230   7.763   6.091   4.753  0.3925 -2.0074  0.3514
    7bbb    H14  231   7.880   6.140   4.639  0.5770 -0.4838  1.1019
    7bbb     C8  232   7.824   6.134   3.988  1.1253 -0.1246 -0.2433
    7bbb    H15  233   7.911   6.190   3.951  0.7846  0.2612 -0.4742
    7bbb    H16  234   7.861   6.038   4.025  0.5830  0.0129  0.6749
    7bbb     C9  235   7.397   6.497   4.199 -0.8018  0.8871 -0.0826
    7bbb    H17  236   7.489   6.539   4.156  0.1475 -0.2001  0.8475
    7bbb    H18  237   7.373   6.560   4.286 -1.8867 -1.0553  1.0905
    7bbb     O1  238   7.808   5.945   4.606 -0.8061 -0.3246 -0.4994
    7bbb    H19  239   7.528   6.105   4.340 -0.2169 -1.1974 -0.5861
    8bbb     N1  240   8.061   6.974   6.194  0.3407  0.0253 -0.2698
    8bbb     C1  241   8.003   7.109   6.215  0.1235 -0.0777 -0.1834
    8bbb     H1  242   8.056   7.157   6.298 -1.4698  2.7546 -0.6823
    8bbb     H2  243   7.900   7.092   6.248  0.4446 -0.4435  0.6648
    8bbb     C2  244   8.074   6.917   6.338  0.5101 -0.1886 -0.9023
    8bbb     H3  245   7.971   6.918   6.371  1.2296 -0.6475  1.5296
    8bbb     H4  246   8.131   6.984   6.403  0.0378  1.3391 -2.0016
    8bbb     C3  247   7.969   6.895   6.109 -0.2312  0.3819 -0.3693
    8bbb     H5  248   7.906   6.962   6.049 -2.5896 -0.2956  1.1786
    8bbb     H6  249   7.898   6.836   6.168 -1.2941 -1.4488 -3.2427
    8bbb     C4  250   8.031   6.791   6.011 -0.4303 -0.5689 -0.5076
    8bbb     H7  251   8.115   6.734   6.052 -1.3085 -0.3443  1.7584
    8bbb     H8  252   8.077   6.840   5.925  1.1116  0.1396  0.6725
    8bbb     C5  253   7.987   7.207   6.095  0.0641  0.4648 -0.5987
    8bbb     H9  254   7.888   7.191   6.052 -1.3524  0.4843  2.4326
    8bbb    H10  255   8.071   7.202   6.024  0.1580  1.8933 -0.6262
    8bbb     C6  256   8.129   6.773   6.352  0.1132  0.7625  0.6667
    8bbb    H11  257   8.235   6.781   6.323  0.3525  0.0635  1.3379
    8bbb    H12  258   8.071   6.699   6.295  0.2982  1.7975 -0.9626
    8bbb     C7  259   7.932   6.687   5.962 -0.5283  0.9049 -0.2227
    8bbb    H13  260   7.987   6.620   5.895 -1.0840  0.1300  0.0863
    8bbb    H14  261   7.841   6.717   5.909 -1.5229 -2.0712 -0.3839
    8bbb     C8  262   8.133   6.738   6.501 -0.8082  0.4795  0.5904
    8bbb    H15  263   8.033   6.716   6.540 -0.9611 -3.1063 -1.4646
    8bbb    H16  264   8.180   6.639   6.501  3.3352  2.2556  0.1781
    8bbb     C9  265   7.982   7.345   6.155  0.3185 -1.0212 -0.2045
    8bbb    H17  266   8.046   7.357   6.244 -0.7909  0.2950  0.4665
    8bbb    H18  267   7.881   7.358   6.197  0.6534 -0.3546  0.4449
    8bbb     O1  268   7.883   6.608   6.079 -0.7372  0.0081 -0.0709
    8bbb    H19  269   8.154   6.984   6.149  0.2925 -0.7277 -0.5417
    9bbb     N1  270   7.259   5.858   5.971  0.5397 -0.3799 -0.6215
    9bbb     C1  271   7.120   5.807   5.934  0.4737 -0.3730 -0.4363
    9bbb     H1  272   7.063   5.898   5.955 -0.9505 -1.0069 -1.4636
    9bbb     H2  273   7.101   5.727   6.005 -0.8673  0.7593  0.5436
    9bbb     C2  274   7.237   5.934   6.102 -0.1480 -1.0036 -1.5823
    9bbb     H3  275   7.338   5.942   6.142 -0.1053 -3.2620 -1.1257
    9bbb     H4  276   7.172   5.872   6.164  1.2085 -2.1853 -1.2946
    9bbb     C3  277   7.354   5.742   5.984 -0.3641 -0.2881  0.3409
    9bbb     H5  278   7.332   5.667   5.908  0.7407 -1.3953  1.0704
    9bbb     H6  279   7.342   5.696   6.082 -0.0936 -0.4162  0.3153
    9bbb     C4  280   7.504   5.791   5.975  0.7824 -0.5093 -0.0186
    9bbb     H7  281   7.572   5.711   6.008 -0.8539 -1.3212  1.5554
    9bbb     H8  282   7.535   5.868   6.047  0.0613  1.4570 -1.7102
    9bbb     C5  283   7.094   5.748   5.787 -0.1382  0.5430 -0.1280
    9bbb     H9  284   6.995   5.704   5.768 -0.5993  1.4217  0.1755
    9bbb    H10  285   7.175   5.678   5.764 -1.2446 -1.8223  2.5437
    9bbb     C6  286   7.189   6.075   6.093 -0.5856 -0.6078  0.2644
    9bbb    H11  287   7.086   6.079   6.056 -1.4784 -0.7032  2.5821
    9bbb    H12  288   7.254   6.133   6.026 -0.8971 -0.4218  0.1193
    9bbb     C7  289   7.527   5.839   5.836 -0.1020 -0.6359 -0.2180
    9bbb    H13  290   7.481   5.775   5.760  0.3888  0.3207 -1.3688
    9bbb    H14  291   7.636   5.845   5.820 -0.1885  1.8244 -0.3021
    9bbb     C8  292   7.197   6.145   6.230  0.1947  0.1946 -0.5593
    9bbb    H15  293   7.297   6.164   6.271 -0.7067  1.4120  1.2094
    9bbb    H16  294   7.159   6.246   6.212 -0.9882 -0.3867 -1.3970
    9bbb     C9  295   7.128   5.853   5.679 -0.0602  0.5557 -0.5405
    9bbb    H17  296   7.088   5.816   5.584  1.2495  1.2312 -1.3884
    9bbb    H18  297   7.238   5.860   5.678 -0.1229  1.8423  0.0502
    9bbb     O1  298   7.477   5.977   5.836 -0.1018 -0.2268  0.0959
    9bbb    H19  299   7.294   5.926   5.901 -2.9007  1.8189 -0.4538
   10bbb     N1  300  10.921   5.186   6.359  0.3566 -1.0939 -0.2963
   10bbb     C1  301  11.078   5.179   6.351 -0.2947 -0.0745 -0.5152
   10bbb     H1  302  11.115   5.124   6.437 -1.4070 -0.5323 -0.3019
   10bbb     H2  303  11.114   5.281   6.364 -0.1709 -0.1196 -0.5114
   10bbb     C2  304  10.877   5.227   6.498 -0.3633 -0.6625  0.9358
   10bbb     H3  305  10.771   5.254   6.489 -0.3898 -0.9565  0.3648
   10bbb     H4  306  10.937   5.310   6.535 -1.6064 -0.0967  1.7875
   10bbb     C3  307  10.861   5.278   6.252  0.0609  0.3708  0.2043
   10bbb     H5  308  10.919   5.273   6.159 -0.1947  1.1338 -0.0057
   10bbb     H6  309  10.861   5.383   6.283 -0.9514  0.4598 -0.0643
   10bbb     C4  310  10.716   5.246   6.206 -0.6192 -0.3033  0.9649
   10bbb     H7  311  10.647   5.226   6.289 -0.6220  2.2702  1.6617
   10bbb     H8  312  10.727   5.155   6.145  1.9643  0.1679  0.6147
   10bbb     C5  313  11.145   5.096   6.236  0.2363 -0.9314  0.6351
   10bbb     H9  314  11.252   5.095   6.258  0.1942  0.8789  1.0665
   10bbb    H10  315  11.132   5.143   6.138  0.5095 -0.6172  0.7487
   10bbb     C6  316  10.894   5.112   6.593  0.3492 -0.0137 -0.3576
   10bbb    H11  317  10.913   5.018   6.541  3.9119  0.1987  0.3056
   10bbb    H12  318  10.797   5.089   6.640 -0.0328  0.9748 -0.6369
   10bbb     C7  319  10.660   5.362   6.122 -0.4242  0.8380 -0.6310
   10bbb    H13  320  10.735   5.400   6.052 -0.3509 -2.8796 -2.8145
   10bbb    H14  321  10.640   5.438   6.199 -0.0178 -1.3064  1.7343
   10bbb     C8  322  11.013   5.128   6.686  0.6845 -0.5696  0.3138
   10bbb    H15  323  11.029   5.029   6.730 -1.0618 -0.6211  0.9222
   10bbb    H16  324  11.100   5.160   6.627 -0.9559  3.3752 -0.3115
   10bbb     C9  325  11.093   4.957   6.238 -0.3190 -0.1343 -0.4898
   10bbb    H17  326  11.155   4.901   6.167  2.1885  2.0892 -0.2441
   10bbb    H18  327  10.991   4.946   6.197 -0.3939 -0.5279 -0.1934
   10bbb     O1  328  10.547   5.320   6.046  0.4350 -0.6846 -0.6565
   10bbb    H19  329  10.896   5.089   6.331  2.7114 -1.5965 -0.9311
   11bbb     N1  330  10.543   5.768   5.215 -0.2309  0.5706 -0.8448
   11bbb     C1  331  10.577   5.701   5.076  0.0623 -0.2275 -0.6796
   11bbb     H1  332  10.534   5.765   4.999 -1.0825  1.4973  1.2703
   11bbb     H2  333  10.516   5.611   5.067  1.0265 -0.9696  0.0309
   11bbb     C2  334  10.601   5.913   5.204 -0.4284  0.2313 -0.0674
   11bbb     H3  335  10.708   5.906   5.182 -0.2677  0.0404  0.7230
   11bbb     H4  336  10.589   5.938   5.310 -0.7371 -1.3263  0.2947
   11bbb     C3  337  10.400   5.772   5.254  0.4951 -0.4244 -0.5030
   11bbb     H5  338  10.365   5.669   5.258  0.2358 -0.3216 -0.1516
   11bbb     H6  339  10.347   5.816   5.170 -0.8492 -0.4321  0.3057
   11bbb     C4  340  10.371   5.838   5.395  0.2171 -0.7046  0.3961
   11bbb     H7  341  10.401   5.943   5.383 -2.5609  0.1861  0.5381
   11bbb     H8  342  10.428   5.795   5.478  1.5120  0.6408  0.2382
   11bbb     C5  343  10.723   5.673   5.051 -0.2950  0.0102 -0.2103
   11bbb     H9  344  10.781   5.644   5.140  2.5557  0.1757 -1.9078
   11bbb    H10  345  10.775   5.763   5.018 -0.1641 -0.7908 -2.3377
   11bbb     C6  346  10.536   6.016   5.106  0.4499  0.5401 -0.0327
   11bbb    H11  347  10.431   6.033   5.132  0.4137 -0.6786  0.6989
   11bbb    H12  348  10.537   5.984   5.001  2.5538  1.7941 -0.4601
   11bbb     C7  349  10.224   5.833   5.435  0.0079 -0.0155  0.3939
   11bbb    H13  350  10.157   5.825   5.349  0.9096  2.6880 -0.6727
   11bbb    H14  351  10.202   5.923   5.494  1.0025  0.7700 -0.4142
   11bbb     C8  352  10.599   6.153   5.131 -0.0615 -0.6016  0.2829
   11bbb    H15  353  10.583   6.164   5.239  1.4977 -1.4050  0.6330
   11bbb    H16  354  10.707   6.171   5.119  0.1778  1.3464  3.8133
   11bbb     C9  355  10.745   5.565   4.946 -0.4932 -0.4699  0.3582
   11bbb    H17  356  10.706   5.603   4.851  0.0149 -0.6163  0.0869
   11bbb    H18  357  10.691   5.471   4.967 -2.4974  0.3956 -0.6256
   11bbb     O1  358  10.210   5.720   5.518 -0.0731  0.3543  0.6185
   11bbb    H19  359  10.596   5.713   5.284 -1.0935  2.2095  1.2313
   12bbb     N1  360   9.224   3.810   5.621  0.2099  0.5478  0.2618
   12bbb     C1  361   9.163   3.872   5.497  0.0971  0.2570  0.0571
   12bbb     H1  362   9.191   3.817   5.408  1.2465 -2.5552  2.0127
   12bbb     H2  363   9.187   3.977   5.483 -1.0086  0.5324  0.0644
   12bbb     C2  364   9.366   3.761   5.587  0.1522  0.1704  0.1960
   12bbb     H3  365   9.437   3.843   5.597  0.3784  0.0568 -0.4306
   12bbb     H4  366   9.377   3.725   5.485  0.3388  1.3575 -0.2135
   12bbb     C3  367   9.238   3.911   5.738 -0.4319 -0.7274  0.1050
   12bbb     H5  368   9.274   3.865   5.830  1.1811  1.1894  0.4875
   12bbb     H6  369   9.138   3.947   5.765 -0.3858 -0.5377  0.0244
   12bbb     C4  370   9.329   4.034   5.716  0.1477 -0.2426 -0.3679
   12bbb     H7  371   9.302   4.087   5.624  0.7332  2.9780  1.1529
   12bbb     H8  372   9.427   3.990   5.697 -0.6420 -0.7813 -3.6588
   12bbb     C5  373   9.004   3.860   5.512  0.1975 -0.5461  0.6268
   12bbb     H9  374   8.954   3.903   5.424  0.7342 -1.8955 -0.3735
   12bbb    H10  375   8.958   3.908   5.599 -0.8873 -1.8578  0.8081
   12bbb     C6  376   9.404   3.659   5.693  0.1315 -0.0405 -0.5293
   12bbb    H11  377   9.339   3.572   5.678 -0.4100  0.4433 -1.1334
   12bbb    H12  378   9.384   3.700   5.793  2.1267  1.4852 -0.6952
   12bbb     C7  379   9.334   4.135   5.834 -0.2674  0.3926  0.2864
   12bbb    H13  380   9.400   4.219   5.808 -0.8665  1.2896  1.5347
   12bbb    H14  381   9.384   4.085   5.917  0.5621  1.3437  0.3777
   12bbb     C8  382   9.552   3.612   5.688 -0.5453 -0.3549 -0.2937
   12bbb    H15  383   9.612   3.674   5.620 -0.5265 -0.8620 -0.7472
   12bbb    H16  384   9.596   3.613   5.789 -2.3232  0.4896  0.5089
   12bbb     C9  385   8.948   3.714   5.529  0.6210 -0.8295 -0.7560
   12bbb    H17  386   8.841   3.728   5.549  0.5899 -0.2481 -1.3110
   12bbb    H18  387   8.994   3.675   5.621 -1.2557  0.4054  0.8027
   12bbb     O1  388   9.198   4.179   5.872  0.4462 -0.1832  0.3252
   12bbb    H19  389   9.161   3.736   5.657 -1.6562  3.1003  2.6822
   13bbb     N1  390   9.303   4.349   7.009 -0.1933  0.0614  0.5625
   13bbb     C1  391   9.449   4.302   7.033  0.2066 -0.3422  0.4071
   13bbb     H1  392   9.472   4.223   6.961 -2.1259 -3.2525  2.6056
   13bbb     H2  393   9.460   4.262   7.133  2.3025 -0.1068  0.3093
   13bbb     C2  394   9.235   4.410   7.132 -0.4187  0.1783  0.7041
   13bbb     H3  395   9.132   4.439   7.109 -0.2079  0.2883 -0.1226
   13bbb     H4  396   9.291   4.502   7.154 -0.4282  0.1286  0.9340
   13bbb     C3  397   9.281   4.443   6.889 -0.0755 -0.8778 -0.6211
   13bbb     H5  398   9.307   4.388   6.799 -1.9346 -1.0346 -1.0992
   13bbb     H6  399   9.352   4.525   6.900  0.6609 -1.4544 -0.9895
   13bbb     C4  400   9.141   4.515   6.863  0.3021 -0.2378  0.4987
   13bbb     H7  401   9.108   4.568   6.953  2.8769  2.6426 -0.0607
   13bbb     H8  402   9.067   4.445   6.824 -1.3159  0.7256  1.7316
   13bbb     C5  403   9.562   4.406   7.023  0.7305 -0.5030 -0.4716
   13bbb     H9  404   9.550   4.461   6.929 -0.1700 -1.6737 -1.0628
   13bbb    H10  405   9.659   4.357   7.017  1.1870  0.2266  0.5718
   13bbb     C6  406   9.217   4.307   7.238  0.0617  0.2602  0.3211
   13bbb    H11  407   9.310   4.257   7.268 -0.0314  0.7603  1.5174
   13bbb    H12  408   9.168   4.227   7.181 -0.1956 -0.2747  1.2550
   13bbb     C7  409   9.142   4.624   6.756 -0.0344  0.2414 -0.5027
   13bbb    H13  410   9.219   4.699   6.779  1.6875 -1.5333 -0.1787
   13bbb    H14  411   9.045   4.674   6.743  0.4158  1.1601 -0.4192
   13bbb     C8  412   9.145   4.350   7.362  0.6567 -0.3813  0.3601
   13bbb    H15  413   9.133   4.259   7.422 -0.2731 -1.5589 -1.4870
   13bbb    H16  414   9.210   4.424   7.410  1.6277 -0.4929 -0.7170
   13bbb     C9  415   9.560   4.502   7.141 -0.0569 -0.0613  0.2641
   13bbb    H17  416   9.474   4.569   7.130 -0.6414 -0.8210  0.1188
   13bbb    H18  417   9.652   4.561   7.149  0.5063 -0.9064  0.2287
   13bbb     O1  418   9.181   4.561   6.627 -0.1848  0.1181 -0.0146
   13bbb    H19  419   9.244   4.266   6.989 -3.1846  2.2392 -0.3606
   14bbb     N1  420   8.854   4.725   3.564 -0.0530  0.1063  0.0184
   14bbb     C1  421   8.942   4.744   3.688  0.0337 -0.3324  0.2668
   14bbb     H1  422   8.890   4.785   3.775 -0.5691 -1.4632  0.4616
   14bbb     H2  423   9.010   4.827   3.668 -0.8488  0.8907  2.0214
   14bbb     C2  424   8.930   4.668   3.440 -0.0346  0.7217 -0.0804
   14bbb     H3  425   8.932   4.560   3.451  0.3654  0.8615  1.4933
   14bbb     H4  426   9.033   4.704   3.442  0.0959  0.3396  1.2078
   14bbb     C3  427   8.742   4.633   3.594  0.6099  0.1707  0.3714
   14bbb     H5  428   8.786   4.535   3.609  0.0463 -0.4535 -1.6259
   14bbb     H6  429   8.678   4.633   3.505 -0.8372 -0.0375  1.3694
   14bbb     C4  430   8.648   4.672   3.709 -0.1971  0.6499 -0.3878
   14bbb     H7  431   8.627   4.780   3.704  1.7333  1.1813  1.6994
   14bbb     H8  432   8.698   4.654   3.805 -3.6372 -1.4242  1.2118
   14bbb     C5  433   9.026   4.622   3.740  0.2273 -0.0349  0.2071
   14bbb     H9  434   9.073   4.575   3.652 -1.6071 -1.0639 -0.2897
   14bbb    H10  435   8.952   4.558   3.789  0.5233  0.1511  0.9002
   14bbb     C6  436   8.872   4.709   3.308  0.1210 -0.4054 -0.3376
   14bbb    H11  437   8.766   4.680   3.305  0.0379 -0.1102 -0.3052
   14bbb    H12  438   8.925   4.641   3.240  0.8355 -0.8239  0.6107
   14bbb     C7  439   8.512   4.602   3.704 -0.6248  0.5043  0.3560
   14bbb    H13  440   8.531   4.494   3.700 -0.7521  0.5112 -1.2120
   14bbb    H14  441   8.458   4.629   3.612 -1.3447 -2.0465 -0.0528
   14bbb     C8  442   8.896   4.864   3.275  0.4887  0.6821 -0.3954
   14bbb    H15  443   8.879   4.870   3.167 -0.3657  0.5094 -0.2720
   14bbb    H16  444   8.822   4.924   3.329  0.8342 -0.9715  2.0953
   14bbb     C9  445   9.131   4.668   3.848 -0.2402 -0.1526  0.8498
   14bbb    H17  446   9.188   4.752   3.806 -0.1452  1.0905  3.2799
   14bbb    H18  447   9.190   4.576   3.850  0.5949  0.2226 -1.9470
   14bbb     O1  448   8.427   4.626   3.817  0.3616  0.0126 -0.2330
   14bbb    H19  449   8.818   4.815   3.529 -0.5754 -0.8583 -2.0861
   15bbb     N1  450   7.323   4.481   3.685  1.0344  0.5772 -0.3634
   15bbb     C1  451   7.378   4.365   3.604 -0.3179 -0.8291  0.7258
   15bbb     H1  452   7.295   4.316   3.553  0.1360  2.5237 -3.9433
   15bbb     H2  453   7.411   4.301   3.685 -2.6499 -0.8115  1.7752
   15bbb     C2  454   7.188   4.444   3.747  0.2675  0.8946  0.4218
   15bbb     H3  455   7.158   4.527   3.812  2.8775  2.3121 -0.0540
   15bbb     H4  456   7.211   4.359   3.811 -1.2907 -0.5705 -0.8599
   15bbb     C3  457   7.418   4.514   3.803  0.0909  0.4544  0.5484
   15bbb     H5  458   7.513   4.528   3.752  0.6724 -0.3661  1.3734
   15bbb     H6  459   7.416   4.427   3.868  2.5386 -1.5759 -1.8776
   15bbb     C4  460   7.403   4.649   3.885  0.2155 -0.2174 -0.6020
   15bbb     H7  461   7.298   4.670   3.908 -0.1673 -2.1144 -0.4879
   15bbb     H8  462   7.441   4.734   3.827  0.1738  1.1277  1.2488
   15bbb     C5  463   7.482   4.418   3.501  0.4016  0.0212 -0.8039
   15bbb     H9  464   7.527   4.330   3.454  0.1363 -0.4980 -0.0996
   15bbb    H10  465   7.562   4.468   3.557 -0.7335 -0.7574  1.6360
   15bbb     C6  466   7.070   4.403   3.652 -0.2787 -0.5755 -0.1592
   15bbb    H11  467   7.100   4.313   3.596  0.4403 -0.5251  0.1320
   15bbb    H12  468   7.052   4.478   3.574  1.1397  0.4872  0.4725
   15bbb     C7  469   7.485   4.656   4.018 -0.1474 -0.4073  0.9126
   15bbb    H13  470   7.480   4.562   4.075  0.0467 -0.5657  0.6752
   15bbb    H14  471   7.434   4.737   4.071 -0.2682 -0.3730  0.7433
   15bbb     C8  472   6.944   4.387   3.728 -0.3013 -0.2320 -0.3248
   15bbb    H15  473   6.859   4.359   3.664  1.1582 -4.2769 -0.7451
   15bbb    H16  474   6.918   4.475   3.788 -1.1413 -0.0644 -0.9119
   15bbb     C9  475   7.434   4.507   3.382 -0.0344 -0.0736  0.3814
   15bbb    H17  476   7.418   4.611   3.410  1.2332 -0.2953  2.1267
   15bbb    H18  477   7.516   4.506   3.309 -1.7490 -0.4602 -1.6394
   15bbb     O1  478   7.621   4.712   3.990 -0.3368  0.2934 -0.7159
   15bbb    H19  479   7.322   4.556   3.615 -2.1714 -1.0968 -2.3365
   16bbb     N1  480   7.754   6.206   3.539 -0.1119 -0.1082 -0.3083
   16bbb     C1  481   7.803   6.103   3.438 -0.1134  0.0425 -0.5403
   16bbb     H1  482   7.821   6.011   3.493 -0.2697 -1.0357 -2.2070
   16bbb     H2  483   7.893   6.151   3.400  0.6958  0.7832  2.1063
   16bbb     C2  484   7.733   6.348   3.481 -0.6755  0.1688 -0.7190
   16bbb     H3  485   7.655   6.341   3.405  0.3799 -0.9393 -1.7423
   16bbb     H4  486   7.834   6.369   3.445  0.5223 -0.7590  1.8555
   16bbb     C3  487   7.623   6.156   3.599  0.6903  0.4801 -0.6087
   16bbb     H5  488   7.558   6.157   3.512  0.4517 -1.2535 -0.4912
   16bbb     H6  489   7.600   6.232   3.674  0.3263 -0.1562 -0.0676
   16bbb     C4  490   7.624   6.021   3.682 -0.4924  0.1010 -0.1032
   16bbb     H7  491   7.636   5.940   3.609 -0.6138  1.9140 -2.2303
   16bbb     H8  492   7.528   6.022   3.735  0.3178 -0.4338  1.4645
   16bbb     C5  493   7.712   6.070   3.315  0.3325 -0.8929  0.1580
   16bbb     H9  494   7.685   6.159   3.257 -1.2910 -2.4104 -1.5338
   16bbb    H10  495   7.622   6.019   3.352 -0.1236 -0.3117 -0.1234
   16bbb     C6  496   7.693   6.456   3.579  0.2232  0.4708  0.0757
   16bbb    H11  497   7.784   6.474   3.638  1.8165  0.7744 -2.3326
   16bbb    H12  498   7.609   6.424   3.642  1.1907 -0.8207  0.7981
   16bbb     C7  499   7.730   6.010   3.798  0.0098 -0.5813  0.6352
   16bbb    H13  500   7.831   6.016   3.757 -0.2708 -0.2085 -0.0259
   16bbb    H14  501   7.700   5.914   3.841 -1.4199 -1.4729 -2.1419
   16bbb     C8  502   7.671   6.596   3.506  0.6739  0.3493  0.1663
   16bbb    H15  503   7.574   6.603   3.454  0.0166 -0.0501  1.2874
   16bbb    H16  504   7.675   6.678   3.578 -0.0577 -0.3245  1.0042
   16bbb     C9  505   7.788   5.982   3.216  0.6438  0.0594 -0.4410
   16bbb    H17  506   7.849   5.912   3.275 -1.0746  1.0596  2.8068
   16bbb    H18  507   7.856   6.045   3.158  1.3332  1.3232  1.6252
   16bbb     O1  508   7.718   6.124   3.887 -0.3016 -0.0943 -0.4608
   16bbb    H19  509   7.832   6.217   3.606  0.6119  1.2237 -1.3362
   17bbb     N1  510   6.943   6.659   3.856 -0.5869  0.0674 -0.3564
   17bbb     C1  511   6.919   6.807   3.831 -0.0165 -0.6066  0.1428
   17bbb     H1  512   6.835   6.815   3.761 -0.5370  1.0303  0.8949
   17bbb     H2  513   7.015   6.844   3.795  0.7981 -2.5593  0.2144
   17bbb     C2  514   6.975   6.607   3.723 -0.0381 -0.4213 -0.5943
   17bbb     H3  515   7.053   6.530   3.729 -0.5186 -0.9658 -1.0822
   17bbb     H4  516   7.009   6.681   3.651  2.4645 -1.4615 -0.5825
   17bbb     C3  517   7.060   6.629   3.952  0.1063  0.3150  0.2001
   17bbb     H5  518   7.042   6.700   4.032 -0.7659  0.3698 -0.0328
   17bbb     H6  519   7.157   6.638   3.901  0.2759 -3.2149 -0.3850
   17bbb     C4  520   7.062   6.491   4.012 -0.0101  0.6666  0.0282
   17bbb     H7  521   7.077   6.415   3.935  2.1053  0.4813  0.5492
   17bbb     H8  522   6.962   6.475   4.054  1.0636  0.0747  2.5678
   17bbb     C5  523   6.871   6.898   3.950 -0.0933  0.6094 -0.6449
   17bbb     H9  524   6.959   6.918   4.014 -0.8434  2.2785 -0.0719
   17bbb    H10  525   6.791   6.862   4.015  0.8910 -0.1017  0.2004
   17bbb     C6  526   6.859   6.546   3.650 -0.6438 -0.5817  0.0060
   17bbb    H11  527   6.775   6.611   3.621 -1.4822 -2.0204 -0.8810
   17bbb    H12  528   6.822   6.468   3.717 -2.5883  0.1962 -0.1024
   17bbb     C7  529   7.157   6.476   4.136 -0.3471  0.0744  0.3733
   17bbb    H13  530   7.131   6.376   4.173 -2.5616  1.1132  1.8058
   17bbb    H14  531   7.133   6.544   4.218 -0.4055  1.4431 -0.7500
   17bbb     C8  532   6.912   6.487   3.517 -0.1874  0.1280  0.0307
   17bbb    H15  533   6.975   6.565   3.473  1.9785 -0.4502  1.9092
   17bbb    H16  534   6.986   6.410   3.542 -0.4909  0.5807  2.6343
   17bbb     C9  535   6.823   7.035   3.908  0.2574 -0.1257  0.6702
   17bbb    H17  536   6.742   7.024   3.835 -0.5152 -0.8346  1.5985
   17bbb    H18  537   6.906   7.084   3.857 -0.9113  1.3703  0.1579
   17bbb     O1  538   7.292   6.497   4.100  0.6803 -0.5613 -0.0877
   17bbb    H19  539   6.859   6.616   3.897 -1.7753  1.7308 -0.9535
   18bbb     N1  540   8.415   7.150   6.763 -0.5701 -0.0723 -0.4832
   18bbb     C1  541   8.521   7.225   6.675 -0.1810  0.9474  0.2119
   18bbb     H1  542   8.470   7.248   6.582  0.3333  1.1110 -0.0336
   18bbb     H2  543   8.606   7.160   6.657 -0.4963  0.2234  1.2375
   18bbb     C2  544   8.298   7.241   6.814 -0.4491  0.1208 -0.8032
   18bbb     H3  545   8.333   7.319   6.881 -0.1983 -1.1424  0.5696
   18bbb     H4  546   8.234   7.183   6.879 -1.2245 -2.2180 -3.4472
   18bbb     C3  547   8.367   7.025   6.694  0.0852  0.2387 -0.1345
   18bbb     H5  548   8.456   6.979   6.652  0.1431 -1.4030  1.6349
   18bbb     H6  549   8.296   7.049   6.615 -0.6190 -1.2437 -0.0025
   18bbb     C4  550   8.299   6.918   6.782 -0.3253 -0.0319  0.3043
   18bbb     H7  551   8.211   6.969   6.823 -0.0020 -0.1401  1.1457
   18bbb     H8  552   8.359   6.885   6.868  1.2395  0.3819 -0.5954
   18bbb     C5  553   8.570   7.360   6.726 -0.2328  0.0423 -0.2658
   18bbb     H9  554   8.573   7.364   6.835 -0.3189 -0.7422 -0.2247
   18bbb    H10  555   8.493   7.432   6.696 -1.2043 -1.9674 -3.0595
   18bbb     C6  556   8.203   7.298   6.715 -0.3275 -0.5909  0.2459
   18bbb    H11  557   8.151   7.213   6.669  1.9881 -0.4848 -2.8658
   18bbb    H12  558   8.259   7.364   6.648  0.1237 -0.6522  0.5533
   18bbb     C7  559   8.234   6.798   6.709 -0.2460  0.3144  0.3055
   18bbb    H13  560   8.149   6.750   6.761 -3.7260  0.8649 -4.1961
   18bbb    H14  561   8.309   6.719   6.699 -0.4947  0.2871 -1.8077
   18bbb     C8  562   8.100   7.387   6.783 -0.2133  0.4587 -0.5965
   18bbb    H15  563   8.035   7.315   6.834  0.8615  1.2317  2.0473
   18bbb    H16  564   8.152   7.451   6.856  0.2823  1.0401 -1.4425
   18bbb     C9  565   8.708   7.414   6.675 -0.0565  0.2013  0.0616
   18bbb    H17  566   8.732   7.502   6.735  0.3155 -0.0934  0.3547
   18bbb    H18  567   8.701   7.426   6.566  0.8470 -1.0587 -0.1640
   18bbb     O1  568   8.203   6.835   6.578  0.3887  0.0617 -0.2055
   18bbb    H19  569   8.478   7.128   6.842  1.1118  2.6835 -0.9087
   19bbb     N1  570   7.644   7.786   6.178  0.3157  0.0472  0.0149
   19bbb     C1  571   7.626   7.943   6.193 -0.2145 -0.5895 -0.5605
   19bbb     H1  572   7.603   7.982   6.094  0.8976 -0.1038 -0.6410
   19bbb     H2  573   7.722   7.988   6.218  0.2758  0.2204 -3.5590
   19bbb     C2  574   7.540   7.730   6.084  0.0947  0.2515 -0.0781
   19bbb     H3  575   7.448   7.767   6.130  0.1299  0.4952 -0.2019
   19bbb     H4  576   7.541   7.621   6.088 -1.4373  0.1960 -0.5675
   19bbb     C3  577   7.782   7.753   6.117 -0.6136 -0.4137 -0.6796
   19bbb     H5  578   7.849   7.799   6.190 -0.8752 -0.1734 -0.5849
   19bbb     H6  579   7.793   7.803   6.020  0.1852 -1.1167 -0.9543
   19bbb     C4  580   7.822   7.607   6.118  0.4850 -0.2167 -0.8714
   19bbb     H7  581   7.763   7.549   6.045  0.1178  0.7927 -1.3977
   19bbb     H8  582   7.801   7.581   6.222 -1.1048  2.1571 -0.5207
   19bbb     C5  583   7.511   7.991   6.290 -0.1199  0.1491 -0.0920
   19bbb     H9  584   7.538   7.952   6.389 -0.7811 -1.6879 -0.6006
   19bbb    H10  585   7.414   7.951   6.260  0.0435  1.1815 -2.2179
   19bbb     C6  586   7.545   7.764   5.935  0.0894  0.7287  0.5252
   19bbb    H11  587   7.640   7.730   5.893  0.3965  3.0456 -0.8289
   19bbb    H12  588   7.547   7.873   5.923  0.0234  0.6417 -0.3186
   19bbb     C7  589   7.977   7.588   6.094 -0.8731 -0.0294 -0.3889
   19bbb    H13  590   8.040   7.602   6.182  1.2486 -1.8136 -1.5432
   19bbb    H14  591   8.006   7.665   6.021 -1.4821  1.8437  1.2453
   19bbb     C8  592   7.436   7.701   5.842  0.3925  0.4694 -0.4999
   19bbb    H15  593   7.472   7.716   5.740  0.4693 -0.3208 -0.5955
   19bbb    H16  594   7.425   7.592   5.851 -0.0391  0.5912  0.7807
   19bbb     C9  595   7.504   8.142   6.288  0.0264  0.5166  0.2317
   19bbb    H17  596   7.399   8.168   6.306 -0.6935 -1.7248 -0.4513
   19bbb    H18  597   7.531   8.180   6.188  2.3536 -0.2683  0.4939
   19bbb     O1  598   8.006   7.449   6.054 -0.2742 -0.2854 -0.5678
   19bbb    H19  599   7.642   7.745   6.272 -0.8742  0.3979  0.1693
   20bbb     N1  600   6.895   5.835   6.630 -0.6575  0.4716  0.6773
   20bbb     C1  601   6.894   5.684   6.616  0.3375 -0.1587 -0.2902
   20bbb     H1  602   6.958   5.634   6.688  0.4536 -1.6411 -1.3559
   20bbb     H2  603   6.940   5.663   6.519 -1.1419  0.4684 -1.1788
   20bbb     C2  604   6.884   5.879   6.771  0.8194  0.3103  0.5594
   20bbb     H3  605   6.804   5.820   6.814  3.0691 -1.7362  2.2430
   20bbb     H4  606   6.856   5.983   6.754 -0.2925 -0.5745 -4.8607
   20bbb     C3  607   7.022   5.890   6.555  0.4010  0.0104 -0.2163
   20bbb     H5  608   7.024   5.850   6.454 -2.0642 -2.7387  0.6850
   20bbb     H6  609   7.116   5.854   6.597  0.0463  0.8852  1.3943
   20bbb     C4  610   7.018   6.043   6.548  0.6256 -0.3429  0.4911
   20bbb     H7  611   7.044   6.088   6.645 -1.7618  0.9430  0.6172
   20bbb     H8  612   6.927   6.089   6.507  2.3396  1.6847 -1.2822
   20bbb     C5  613   6.758   5.620   6.637  0.7510  0.6594 -0.3203
   20bbb     H9  614   6.672   5.662   6.584 -1.2840 -0.4035  1.9001
   20bbb    H10  615   6.740   5.627   6.745 -1.3655  1.7325 -0.6915
   20bbb     C6  616   6.999   5.865   6.872 -0.8561  0.0652  0.0443
   20bbb    H11  617   7.086   5.923   6.839  0.2753 -1.2372  0.6518
   20bbb    H12  618   7.026   5.759   6.879 -0.8325  0.0790  0.1566
   20bbb     C7  619   7.126   6.110   6.462 -0.2633  0.2539  0.0932
   20bbb    H13  620   7.223   6.066   6.487  0.6911  1.3529 -1.4819
   20bbb    H14  621   7.137   6.215   6.488  1.0008  0.1535 -0.0039
   20bbb     C8  622   6.959   5.903   7.020  0.2814 -0.0994 -0.1191
   20bbb    H15  623   6.886   5.835   7.064  1.9360 -0.7454  1.8186
   20bbb    H16  624   7.052   5.896   7.078 -0.4364 -1.5752  0.9300
   20bbb     C9  625   6.768   5.469   6.599 -0.3433  0.0313  0.2574
   20bbb    H17  626   6.852   5.428   6.658 -0.0466 -0.6113 -0.5857
   20bbb    H18  627   6.779   5.452   6.491  1.0246 -1.3254  0.5597
   20bbb     O1  628   7.101   6.090   6.322  0.1141 -0.0110 -0.1257
   20bbb    H19  629   6.817   5.864   6.570 -0.7658  0.7527  0.9531
   21bbb     N1  630   6.754   5.927   5.414 -0.2802 -0.4326  0.1888
   21bbb     C1  631   6.635   5.858   5.474 -0.3979  0.3806  0.5468
   21bbb     H1  632   6.574   5.819   5.392 -0.9972  1.1056  0.6363
   21bbb     H2  633   6.585   5.937   5.531  0.6014  0.7031  0.9998
   21bbb     C2  634   6.715   6.026   5.301 -0.3483  0.4050  0.1167
   21bbb     H3  635   6.805   6.087   5.293  0.7775 -1.4270 -3.4650
   21bbb     H4  636   6.630   6.078   5.345 -0.6349 -0.7788  1.0353
   21bbb     C3  637   6.829   6.006   5.525 -0.5621 -0.0829 -0.4610
   21bbb     H5  638   6.833   5.943   5.614 -0.4122  0.7422  0.1280
   21bbb     H6  639   6.759   6.086   5.553 -1.1639  0.3874 -3.0740
   21bbb     C4  640   6.974   6.059   5.496  0.9104 -0.0691 -0.2378
   21bbb     H7  641   6.974   6.152   5.438  2.3104 -0.2600 -0.5839
   21bbb     H8  642   7.032   5.983   5.443 -0.4426 -2.2903  1.2870
   21bbb     C5  643   6.663   5.737   5.578 -0.1284  0.2367 -0.9261
   21bbb     H9  644   6.724   5.785   5.655  0.0271 -0.4288 -0.6280
   21bbb    H10  645   6.716   5.648   5.542 -1.2068 -1.1227  0.6679
   21bbb     C6  646   6.669   5.979   5.164  0.3779  0.3709 -0.2972
   21bbb    H11  647   6.562   5.955   5.157  0.2728  0.1917  1.3860
   21bbb    H12  648   6.722   5.889   5.133  1.4055  0.9880 -0.3705
   21bbb     C7  649   7.040   6.092   5.633 -1.0835 -0.6640 -0.0707
   21bbb    H13  650   6.986   6.171   5.687 -0.0723  0.0760 -0.1281
   21bbb    H14  651   7.140   6.131   5.611 -2.2266  2.2437 -0.6455
   21bbb     C8  652   6.689   6.088   5.053 -0.3566  0.0130 -0.5458
   21bbb    H15  653   6.798   6.091   5.054 -0.2556 -0.0462  3.3687
   21bbb    H16  654   6.646   6.053   4.958 -0.2855 -0.9139 -0.2560
   21bbb     C9  655   6.530   5.694   5.644 -0.2033 -0.1493 -0.2586
   21bbb    H17  656   6.546   5.597   5.693 -2.0487 -0.5387 -0.3768
   21bbb    H18  657   6.458   5.682   5.562 -0.1773  2.1114 -0.6640
   21bbb     O1  658   7.047   5.967   5.720 -0.1795  0.0799 -0.1978
   21bbb    H19  659   6.816   5.853   5.376 -0.6967 -0.5311 -0.3089
   22bbb     N1  660  10.900   5.453   7.157  0.1344 -0.0498  0.5052
   22bbb     C1  661  11.007   5.462   7.271  0.9394 -0.1894  0.7456
   22bbb     H1  662  10.985   5.544   7.339 -0.1801  0.2873 -0.1657
   22bbb     H2  663  11.096   5.493   7.215 -1.1142  0.8158 -2.2297
   22bbb     C2  664  10.893   5.596   7.096 -0.3353 -1.3171  0.5978
   22bbb     H3  665  10.977   5.611   7.028 -0.4440 -0.9094  0.5495
   22bbb     H4  666  10.903   5.666   7.180 -0.9365  1.0255 -1.1672
   22bbb     C3  667  10.935   5.353   7.046  0.2905  0.3714  0.3419
   22bbb     H5  668  10.847   5.346   6.982 -0.1590  1.5621  0.8069
   22bbb     H6  669  10.942   5.255   7.094 -0.0118  0.0405 -0.2672
   22bbb     C4  670  11.054   5.387   6.955  0.3268 -0.8313  0.1452
   22bbb     H7  671  11.136   5.417   7.021  0.2894 -0.5531  0.0629
   22bbb     H8  672  11.026   5.469   6.889 -0.0724 -1.0191  0.0780
   22bbb     C5  673  11.028   5.331   7.354 -0.2815 -0.7449 -0.4182
   22bbb     H9  674  11.068   5.259   7.281 -0.1557 -1.8029  0.6587
   22bbb    H10  675  10.927   5.301   7.385 -0.5112  1.6900  1.5150
   22bbb     C6  676  10.761   5.645   7.024 -0.3745  0.4631 -0.0758
   22bbb    H11  677  10.679   5.666   7.095  1.3461  0.8405  1.9249
   22bbb    H12  678  10.736   5.569   6.949  1.3057  1.1326 -1.3590
   22bbb     C7  679  11.097   5.270   6.867  0.2935 -0.6706 -0.3926
   22bbb    H13  680  11.137   5.191   6.930 -0.4233  0.7228  1.9198
   22bbb    H14  681  11.170   5.301   6.792  0.2360 -0.1006 -0.2140
   22bbb     C8  682  10.781   5.768   6.941  0.0673 -0.2374  0.2376
   22bbb    H15  683  10.810   5.739   6.839 -2.5097 -1.7249 -0.1631
   22bbb    H16  684  10.681   5.810   6.926 -0.5546 -1.7936 -0.1865
   22bbb     C9  685  11.129   5.341   7.476  0.9074  0.2175  0.5548
   22bbb    H17  686  11.219   5.395   7.443  0.9983 -0.3762 -0.1906
   22bbb    H18  687  11.155   5.240   7.509  1.4645 -0.1028 -0.8153
   22bbb     O1  688  10.983   5.213   6.799  0.1379 -0.6067  0.4011
   22bbb    H19  689  10.809   5.429   7.200 -0.6052 -1.6040 -1.7466
   23bbb     N1  690  11.283   4.525   6.518  0.2818  0.3970 -0.3978
   23bbb     C1  691  11.437   4.499   6.488  0.4620 -0.3201 -0.2739
   23bbb     H1  692  11.445   4.481   6.380 -0.7098 -3.4065  0.0611
   23bbb     H2  693  11.466   4.400   6.523  0.5831 -0.3626 -0.4876
   23bbb     C2  694  11.242   4.489   6.660  0.5643  0.5043  0.0740
   23bbb     H3  695  11.133   4.496   6.665  0.5109 -0.0453 -0.2793
   23bbb     H4  696  11.286   4.559   6.731  1.1764 -0.5583  0.7633
   23bbb     C3  697  11.231   4.662   6.483  0.1804  0.6914 -0.0953
   23bbb     H5  698  11.256   4.683   6.379  0.5584  0.1731 -0.1125
   23bbb     H6  699  11.290   4.738   6.535  2.3318 -0.3783 -0.8626
   23bbb     C4  700  11.078   4.691   6.499 -0.1784 -0.0846 -0.0579
   23bbb     H7  701  11.063   4.735   6.598 -0.9151 -0.4080 -0.0178
   23bbb     H8  702  11.024   4.596   6.506  0.4456 -0.3312  1.8309
   23bbb     C5  703  11.541   4.604   6.542 -0.2636 -0.0007  0.1722
   23bbb     H9  704  11.509   4.707   6.522  0.3952 -0.0354 -1.1385
   23bbb    H10  705  11.637   4.585   6.493  0.6369  0.0443  1.8364
   23bbb     C6  706  11.269   4.345   6.703 -0.1101 -0.4003  0.4013
   23bbb    H11  707  11.262   4.350   6.812 -0.6088  1.1143  0.3261
   23bbb    H12  708  11.375   4.325   6.679  0.0655  1.1705 -0.2380
   23bbb     C7  709  11.022   4.785   6.391 -0.1971  0.0824  0.0074
   23bbb    H13  710  10.924   4.819   6.426  0.3565  1.3383  0.4201
   23bbb    H14  711  11.023   4.724   6.300 -0.6104 -0.2559  0.2279
   23bbb     C8  712  11.186   4.242   6.622  0.3503 -0.1021 -0.2309
   23bbb    H15  713  11.186   4.143   6.668  0.4683 -0.9138 -1.9249
   23bbb    H16  714  11.083   4.276   6.603  1.3546  2.6371 -1.3395
   23bbb     C9  715  11.558   4.589   6.699  0.2514 -0.3572  0.4172
   23bbb    H17  716  11.461   4.610   6.745  0.6085  2.4300  0.0616
   23bbb    H18  717  11.634   4.656   6.742  1.7004  0.0266 -2.4586
   23bbb     O1  718  11.098   4.907   6.371  0.1084 -0.3202 -0.6999
   23bbb    H19  719  11.241   4.450   6.461  2.4083 -1.1193 -0.1120
   24bbb     N1  720  10.327   6.539   4.748 -0.1900  0.0720  0.6598
   24bbb     C1  721  10.329   6.680   4.802 -0.9866 -0.1348  0.1075
   24bbb     H1  722  10.432   6.708   4.820 -0.9874  1.8930 -2.4109
   24bbb     H2  723  10.268   6.672   4.892 -2.0233  0.1074 -0.5424
   24bbb     C2  724  10.437   6.538   4.630  0.6344 -0.2953 -0.6461
   24bbb     H3  725  10.539   6.561   4.661 -0.0595  1.9489  0.1583
   24bbb     H4  726  10.403   6.622   4.568 -1.6291 -0.4695  0.2612
   24bbb     C3  727  10.361   6.445   4.864  0.6940  0.0691 -0.2956
   24bbb     H5  728  10.322   6.351   4.826  0.1901  1.0567 -2.3725
   24bbb     H6  729  10.301   6.475   4.950 -0.1656 -2.9994  0.2701
   24bbb     C4  730  10.510   6.443   4.900  0.1365  0.3362  0.2519
   24bbb     H7  731  10.544   6.547   4.890 -2.3569  1.1272 -0.6890
   24bbb     H8  732  10.557   6.384   4.819 -0.2015 -3.0867  2.3365
   24bbb     C5  733  10.273   6.788   4.705  0.0500 -0.6209 -1.1284
   24bbb     H9  734  10.192   6.750   4.642 -0.7134 -0.0332 -0.5260
   24bbb    H10  735  10.347   6.835   4.640 -1.3982  4.9729  0.7080
   24bbb     C6  736  10.436   6.405   4.549  0.0677  0.1882  0.4690
   24bbb    H11  737  10.456   6.316   4.610  0.1012 -1.9674 -2.4921
   24bbb    H12  738  10.511   6.412   4.469 -0.4920  0.8171 -0.0148
   24bbb     C7  739  10.549   6.380   5.035  0.4806 -0.0019  0.3934
   24bbb    H13  740  10.506   6.441   5.116 -1.5220 -2.1159  1.0407
   24bbb    H14  741  10.656   6.384   5.055  0.2643  1.1414  1.4214
   24bbb     C8  742  10.302   6.380   4.476  0.6254 -0.2270 -0.1158
   24bbb    H15  743  10.321   6.325   4.383 -1.3145 -0.2839 -0.5309
   24bbb    H16  744  10.245   6.309   4.536  1.1977  0.9342  1.8673
   24bbb     C9  745  10.226   6.907   4.793  0.2931 -0.6691  0.2293
   24bbb    H17  746  10.315   6.944   4.846  1.3135 -0.8073 -1.3052
   24bbb    H18  747  10.155   6.857   4.859 -2.3902 -0.3124 -2.1994
   24bbb     O1  748  10.508   6.242   5.050 -0.5337 -0.1244 -0.0801
   24bbb    H19  749  10.231   6.522   4.715 -0.3415  2.8763 -0.6208
   25bbb     N1  750  11.317   5.482   4.809 -0.5278  0.0721  0.2181
   25bbb     C1  751  11.352   5.629   4.841 -0.1840 -0.3404  0.1004
   25bbb     H1  752  11.386   5.636   4.944 -2.7966 -0.5251  1.0558
   25bbb     H2  753  11.255   5.678   4.827 -0.8499 -2.1160 -2.3089
   25bbb     C2  754  11.409   5.392   4.892 -0.7003  0.7053  0.1613
   25bbb     H3  755  11.385   5.404   4.998  0.3675  1.7600  0.3091
   25bbb     H4  756  11.506   5.442   4.887 -0.0847 -0.5483 -2.5054
   25bbb     C3  757  11.168   5.453   4.846 -0.6328 -0.0031 -0.0190
   25bbb     H5  758  11.147   5.502   4.941  1.2080 -2.8675  2.0353
   25bbb     H6  759  11.160   5.347   4.868  2.6237 -0.3020  0.1996
   25bbb     C4  760  11.064   5.488   4.740 -0.4606  0.3491  0.3662
   25bbb     H7  761  11.080   5.421   4.655 -2.6417  0.1457  0.0483
   25bbb     H8  762  11.083   5.589   4.703  3.7010 -1.0464 -2.0121
   25bbb     C5  763  11.460   5.695   4.749 -0.4520 -0.6491 -0.0048
   25bbb     H9  764  11.455   5.640   4.654 -1.2596 -1.2960  0.4060
   25bbb    H10  765  11.559   5.687   4.794 -0.3753  0.9867  0.1958
   25bbb     C6  766  11.426   5.241   4.864  1.2318  0.2177 -0.0609
   25bbb    H11  767  11.408   5.221   4.757 -1.9112  0.9088  0.2362
   25bbb    H12  768  11.343   5.184   4.908  1.1264 -0.0586 -0.6045
   25bbb     C7  769  10.919   5.472   4.793  0.3599 -0.3348 -0.5209
   25bbb    H13  770  10.893   5.370   4.823 -3.1592  0.3863 -0.7150
   25bbb    H14  771  10.839   5.491   4.721 -2.2372 -1.8448  1.7737
   25bbb     C8  772  11.559   5.184   4.906  0.1042  0.4356 -0.4449
   25bbb    H15  773  11.631   5.258   4.869  1.0963  0.3451  1.2013
   25bbb    H16  774  11.571   5.166   5.014 -4.0808 -1.2104 -0.0680
   25bbb     C9  775  11.442   5.848   4.721  0.1034 -0.1826  0.4323
   25bbb    H17  776  11.492   5.901   4.803  0.7604  1.6200 -1.0697
   25bbb    H18  777  11.336   5.875   4.713  0.0041 -0.7417 -0.1675
   25bbb     O1  778  10.890   5.552   4.916  0.2194  0.3260  0.4855
   25bbb    H19  779  11.324   5.451   4.711 -1.9305  0.9773 -0.2006
   26bbb     N1  780   9.895   3.155   5.560 -0.0830 -0.6082  0.7496
   26bbb     C1  781   9.821   3.024   5.587 -0.4832  1.3007  0.0474
   26bbb     H1  782   9.851   2.953   5.510 -1.2614  0.9267  0.0832
   26bbb     H2  783   9.714   3.037   5.572 -0.1329  0.3773 -4.7843
   26bbb     C2  784  10.034   3.127   5.498  0.0530  0.2236  0.2795
   26bbb     H3  785  10.030   3.103   5.391  1.2314  1.4907 -0.0802
   26bbb     H4  786  10.066   3.038   5.554  0.4726 -0.0815 -0.4228
   26bbb     C3  787   9.816   3.243   5.466  0.4096 -0.6142  0.7495
   26bbb     H5  788   9.799   3.188   5.373 -1.4948 -0.3637  0.8992
   26bbb     H6  789   9.883   3.325   5.442  0.1276 -0.3366  0.9151
   26bbb     C4  790   9.675   3.292   5.517  0.3895  0.3004 -0.5518
   26bbb     H7  791   9.630   3.229   5.595  1.3957  0.5353  0.2407
   26bbb     H8  792   9.604   3.285   5.434  0.7817 -1.3410 -0.7748
   26bbb     C5  793   9.851   2.971   5.735 -1.0652 -0.2176 -0.1672
   26bbb     H9  794   9.959   2.958   5.747 -1.1168  0.2270  0.9468
   26bbb    H10  795   9.813   2.871   5.759 -1.8158  0.4914  1.8455
   26bbb     C6  796  10.140   3.243   5.520 -0.2619 -0.2919  0.4426
   26bbb    H11  797  10.164   3.235   5.627 -0.7741  2.2958  0.8184
   26bbb    H12  798  10.107   3.346   5.502 -0.0668 -0.5205 -1.3527
   26bbb     C7  799   9.675   3.431   5.575  0.7319 -0.3061  0.6979
   26bbb    H13  800   9.682   3.495   5.487  1.7316  1.6535  2.1093
   26bbb    H14  801   9.760   3.456   5.641 -0.3513  0.0910  1.9884
   26bbb     C8  802  10.275   3.217   5.438 -0.2729  0.1440 -0.3474
   26bbb    H15  803  10.343   3.303   5.438 -2.4793  2.0045  0.7399
   26bbb    H16  804  10.326   3.127   5.474  2.7978  2.5534  1.8716
   26bbb     C9  805   9.786   3.047   5.852  0.3119  0.6453  0.5066
   26bbb    H17  806   9.817   2.983   5.936 -0.3727  0.9792  1.0176
   26bbb    H18  807   9.677   3.046   5.842  0.3995 -1.2159 -0.7838
   26bbb     O1  808   9.550   3.476   5.638  0.8031 -0.1993 -0.5003
   26bbb    H19  809   9.899   3.206   5.649  0.2592  0.6541  0.0370
   27bbb     N1  810   8.974   3.340   5.087 -0.5973  0.5441 -0.1111
   27bbb     C1  811   8.926   3.363   4.949  0.7917  0.3069 -0.2932
   27bbb     H1  812   9.011   3.379   4.882 -0.6102 -0.2329 -2.2848
   27bbb     H2  813   8.852   3.443   4.948 -1.0896 -1.3167  1.4057
   27bbb     C2  814   9.125   3.319   5.086  0.2561 -0.4299  0.2946
   27bbb     H3  815   9.167   3.344   5.183  3.3765 -3.4567 -0.0480
   27bbb     H4  816   9.169   3.389   5.015  0.7885 -0.5442  0.5067
   27bbb     C3  817   8.942   3.437   5.191 -0.7022 -0.2802 -0.6919
   27bbb     H5  818   8.846   3.485   5.171 -0.7666  0.0842  0.4099
   27bbb     H6  819   9.024   3.508   5.192  0.2739 -1.3840 -0.2950
   27bbb     C4  820   8.933   3.396   5.341 -0.1131  0.1993  0.3356
   27bbb     H7  821   9.033   3.361   5.368 -0.7324 -0.5273  1.8088
   27bbb     H8  822   8.867   3.310   5.359 -0.2767  0.2872  0.1615
   27bbb     C5  823   8.849   3.246   4.881 -0.2850 -0.7393  0.5690
   27bbb     H9  824   8.760   3.232   4.944  1.5155  0.3942  3.5510
   27bbb    H10  825   8.899   3.149   4.886  0.2174 -0.4581  1.0778
   27bbb     C6  826   9.168   3.174   5.061 -0.5128  0.0147 -0.6309
   27bbb    H11  827   9.277   3.164   5.075 -0.7847 -2.9057 -0.0083
   27bbb    H12  828   9.146   3.142   4.959  1.1929 -0.8524 -0.7635
   27bbb     C7  829   8.890   3.513   5.429  0.5579  0.6249  0.2603
   27bbb    H13  830   8.895   3.484   5.535  2.8409 -1.4616 -0.3307
   27bbb    H14  831   8.790   3.554   5.415  1.1364  2.0475  0.0792
   27bbb     C8  832   9.100   3.080   5.159  1.1054  0.5483  0.7599
   27bbb    H15  833   9.095   3.125   5.258  0.4656  2.5354 -0.1178
   27bbb    H16  834   9.161   2.988   5.159 -0.6694 -0.7220 -0.9905
   27bbb     C9  835   8.825   3.283   4.732 -0.5373  0.5332 -0.3956
   27bbb    H17  836   8.923   3.283   4.681 -0.0473  0.5800  0.5280
   27bbb    H18  837   8.761   3.205   4.690  0.6409 -1.1552  0.8161
   27bbb     O1  838   8.970   3.633   5.413 -0.8025  0.4634 -0.4831
   27bbb    H19  839   8.924   3.252   5.103  0.7430 -0.0408  1.0238
   28bbb     N1  840   8.566   4.430   7.355  0.5867 -0.1774 -0.6768
   28bbb     C1  841   8.551   4.446   7.207 -0.8479 -0.2275 -0.0520
   28bbb     H1  842   8.617   4.365   7.174  0.4660 -0.0298  1.9265
   28bbb     H2  843   8.598   4.543   7.190 -1.6752  0.6119  2.1069
   28bbb     C2  844   8.482   4.315   7.403 -0.5986  0.3827 -0.4271
   28bbb     H3  845   8.531   4.220   7.382  1.9242  1.3979  0.5026
   28bbb     H4  846   8.390   4.314   7.345  1.7013  1.5379 -4.4769
   28bbb     C3  847   8.708   4.397   7.391 -0.7680 -0.3127  0.7490
   28bbb     H5  848   8.748   4.326   7.319  0.5055 -0.0482  1.1773
   28bbb     H6  849   8.718   4.349   7.488 -1.0000 -0.6776  0.5937
   28bbb     C4  850   8.799   4.518   7.383 -0.7136  0.3589 -0.0909
   28bbb     H7  851   8.774   4.590   7.462 -0.7410 -0.6073  0.8056
   28bbb     H8  852   8.804   4.556   7.280 -2.2837  0.7872 -0.0273
   28bbb     C5  853   8.418   4.451   7.140 -0.7512  0.1950 -0.7602
   28bbb     H9  854   8.376   4.352   7.159  0.7192  0.0487  2.3072
   28bbb    H10  855   8.441   4.469   7.035  0.6494  0.2556 -0.4686
   28bbb     C6  856   8.458   4.301   7.563  0.0464 -0.0674  0.2776
   28bbb    H11  857   8.438   4.401   7.603  3.0466 -0.0404  2.0944
   28bbb    H12  858   8.554   4.273   7.608  1.0157  1.1108 -0.9857
   28bbb     C7  859   8.947   4.485   7.424 -0.0623 -0.1484 -1.4553
   28bbb    H13  860   8.944   4.419   7.511  2.1056  1.4935 -0.0263
   28bbb    H14  861   9.002   4.578   7.446 -0.0828 -0.4707  0.0699
   28bbb     C8  862   8.361   4.190   7.590 -0.3301 -0.7545 -0.0778
   28bbb    H15  863   8.354   4.178   7.699 -0.7257 -1.2930 -0.1600
   28bbb    H16  864   8.263   4.226   7.557  0.3442  0.6089 -0.6813
   28bbb     C9  865   8.324   4.565   7.187  0.2374 -0.2376 -0.7410
   28bbb    H17  866   8.278   4.549   7.285  0.3504  0.6897 -0.5232
   28bbb    H18  867   8.236   4.568   7.122 -0.7557  0.7652  0.5939
   28bbb     O1  868   9.010   4.405   7.322 -0.6544 -0.1414 -0.6128
   28bbb    H19  869   8.542   4.522   7.396 -0.8366 -0.6390 -0.4070
   29bbb     N1  870   9.606   4.463   7.603  0.0149 -0.8808 -0.0228
   29bbb     C1  871   9.538   4.588   7.548 -0.5015 -0.0031 -0.5017
   29bbb     H1  872   9.445   4.592   7.604 -1.0030  1.6141 -1.3785
   29bbb     H2  873   9.523   4.573   7.442  0.0121  0.5154 -0.6561
   29bbb     C2  874   9.577   4.444   7.750  0.5964  0.2323 -0.8247
   29bbb     H3  875   9.472   4.419   7.767  0.2757  2.2723  0.6029
   29bbb     H4  876   9.582   4.545   7.792 -1.4301 -0.2066  0.6515
   29bbb     C3  877   9.555   4.348   7.526 -0.3360 -0.3797 -0.2299
   29bbb     H5  878   9.478   4.382   7.456 -0.5121  0.6411  0.4329
   29bbb     H6  879   9.514   4.268   7.588 -0.4722 -0.5942 -0.5947
   29bbb     C4  880   9.660   4.286   7.431 -0.0802 -0.4317  0.0496
   29bbb     H7  881   9.627   4.183   7.412  3.1111 -1.4259 -0.7930
   29bbb     H8  882   9.759   4.282   7.479  0.8256 -1.1556 -1.7699
   29bbb     C5  883   9.622   4.712   7.580 -0.1562  0.1705  0.0746
   29bbb     H9  884   9.638   4.718   7.688 -1.8094  0.5777  0.3202
   29bbb    H10  885   9.568   4.801   7.544  1.5125  2.2597  2.4020
   29bbb     C6  886   9.666   4.347   7.835  0.4852  0.0199  0.0586
   29bbb    H11  887   9.772   4.366   7.811  0.8635 -1.0132  0.8195
   29bbb    H12  888   9.639   4.250   7.790  1.9480  0.3504 -1.6747
   29bbb     C7  889   9.672   4.359   7.298  0.2947  0.1131 -0.5386
   29bbb    H13  890   9.696   4.292   7.215  0.5462 -1.3245  0.6485
   29bbb    H14  891   9.743   4.440   7.315 -1.1482  1.0542  1.5373
   29bbb     C8  892   9.633   4.339   7.980  0.4373  0.8892  0.0994
   29bbb    H15  893   9.699   4.259   8.016  0.9469  0.7088 -1.1908
   29bbb    H16  894   9.659   4.431   8.034 -2.4874 -0.8143  5.1699
   29bbb     C9  895   9.760   4.701   7.507  0.8751 -0.0120  0.5893
   29bbb    H17  896   9.809   4.799   7.511  0.3533  0.3911 -1.7542
   29bbb    H18  897   9.760   4.655   7.408  0.4657  0.4528  0.3716
   29bbb     O1  898   9.548   4.427   7.262 -0.3464 -0.1467 -0.0913
   29bbb    H19  899   9.706   4.483   7.585 -0.3988 -1.6973 -4.4008
   30bbb     N1  900   9.381   5.202   3.276 -0.2423 -0.2331  0.6249
   30bbb     C1  901   9.418   5.267   3.143 -0.1377 -0.5224 -0.1925
   30bbb     H1  902   9.339   5.334   3.111 -0.1042 -0.1160  0.5648
   30bbb     H2  903   9.419   5.192   3.064 -1.6243 -0.7146 -0.0572
   30bbb     C2  904   9.356   5.312   3.377 -0.1227  0.6742  0.4258
   30bbb     H3  905   9.444   5.360   3.422 -1.2394  1.5223  1.7912
   30bbb     H4  906   9.304   5.258   3.456 -0.7245  0.8304  0.1367
   30bbb     C3  907   9.251   5.118   3.262 -0.5341 -1.3226 -1.1702
   30bbb     H5  908   9.187   5.160   3.184  0.8458 -0.7471 -2.0189
   30bbb     H6  909   9.189   5.127   3.351  1.4105 -1.8313  0.2912
   30bbb     C4  910   9.265   4.974   3.225 -0.0703 -0.5844  0.0695
   30bbb     H7  911   9.302   4.922   3.314 -1.0838 -1.8664 -0.2284
   30bbb     H8  912   9.331   4.956   3.139 -0.4305  0.6275 -0.4760
   30bbb     C5  913   9.562   5.337   3.142 -0.2920 -0.3639  0.5072
   30bbb     H9  914   9.634   5.281   3.203  0.6376 -1.3920 -1.4362
   30bbb    H10  915   9.547   5.435   3.189 -0.3702  0.1520 -0.5667
   30bbb     C6  916   9.258   5.427   3.335 -0.5008  0.9072 -1.2762
   30bbb    H11  917   9.158   5.393   3.306 -0.9303  0.8806  0.1639
   30bbb    H12  918   9.308   5.485   3.256  1.4268 -0.7031 -1.3130
   30bbb     C7  919   9.127   4.915   3.189 -0.0869  0.4212 -0.1560
   30bbb    H13  920   9.139   4.811   3.157  3.3200  1.1271 -1.5538
   30bbb    H14  921   9.091   4.967   3.100 -0.0089 -1.7894 -1.5620
   30bbb     C8  922   9.247   5.536   3.444  0.7301 -0.0486 -0.0744
   30bbb    H15  923   9.190   5.617   3.397  0.6644 -0.0813 -0.0516
   30bbb    H16  924   9.181   5.495   3.522  1.0737 -0.0993  0.1882
   30bbb     C9  925   9.602   5.358   2.997 -0.5711  0.2997 -0.2588
   30bbb    H17  926   9.705   5.395   3.004 -0.8949  1.5314 -1.3925
   30bbb    H18  927   9.541   5.435   2.947 -1.1485  2.0486  2.9108
   30bbb     O1  928   9.028   4.911   3.303 -0.3041  0.1654 -0.1391
   30bbb    H19  929   9.461   5.146   3.310 -0.0212 -2.2907 -2.7327
   31bbb     N1  930   9.016   4.913   4.422  0.0024 -0.4283 -0.6622
   31bbb     C1  931   9.078   4.836   4.533  0.0198  0.3671 -0.1261
   31bbb     H1  932   9.176   4.881   4.548 -0.1129  0.8158 -0.5899
   31bbb     H2  933   9.079   4.729   4.511  0.2758 -0.4890  3.4844
   31bbb     C2  934   9.012   5.069   4.451  0.4424  0.2424 -0.6025
   31bbb     H3  935   8.938   5.082   4.531  0.5630 -2.6784  0.0810
   31bbb     H4  936   8.981   5.130   4.366  1.6098 -1.7370 -2.5477
   31bbb     C3  937   9.104   4.885   4.303 -0.7233 -0.4209 -0.2266
   31bbb     H5  938   9.198   4.838   4.332 -0.7782  0.2243  1.0706
   31bbb     H6  939   9.125   4.981   4.255 -0.6185  0.2706  1.1656
   31bbb     C4  940   9.039   4.786   4.206  0.0501 -0.3481  0.8154
   31bbb     H7  941   8.942   4.813   4.163  0.5816 -0.8238 -0.7321
   31bbb     H8  942   9.033   4.693   4.263  0.1044  0.4587  2.1942
   31bbb     C5  943   8.996   4.857   4.662  0.3352  0.2812  0.1462
   31bbb     H9  944   8.889   4.844   4.642  0.2502  0.8837  0.1817
   31bbb    H10  945   8.979   4.956   4.706 -0.9891 -1.3514  3.6556
   31bbb     C6  946   9.143   5.137   4.491  0.2850 -0.3799  0.3092
   31bbb    H11  947   9.220   5.107   4.418 -0.2383  0.0590 -0.4293
   31bbb    H12  948   9.179   5.103   4.589  2.5581 -0.6097 -0.5261
   31bbb     C7  949   9.127   4.761   4.078 -0.6134 -0.9984 -0.1224
   31bbb    H13  950   9.214   4.702   4.109 -0.6945 -0.2455  1.6709
   31bbb    H14  951   9.158   4.863   4.053 -0.6934 -0.3249  2.2582
   31bbb     C8  952   9.121   5.294   4.488  0.2941  0.2605  0.1049
   31bbb    H15  953   9.073   5.328   4.396  0.3373  0.8092  0.2770
   31bbb    H16  954   9.059   5.331   4.571  0.3911 -0.9484  0.7392
   31bbb     C9  955   9.042   4.769   4.777 -0.2952  0.1503 -0.3025
   31bbb    H17  956   9.026   4.663   4.754  0.8141 -0.3341  1.0318
   31bbb    H18  957   8.990   4.778   4.873 -2.1079 -2.0570 -0.9795
   31bbb     O1  958   9.054   4.698   3.963  0.1304 -0.3240  0.0124
   31bbb    H19  959   8.919   4.879   4.407 -0.1630  1.0219 -3.6922
   32bbb     N1  960   6.594   4.060   3.740  0.4541 -0.2823  0.2882
   32bbb     C1  961   6.616   3.953   3.639  0.0575  0.5333 -0.0571
   32bbb     H1  962   6.653   3.862   3.689 -0.8033 -0.8478 -1.8208
   32bbb     H2  963   6.698   3.986   3.575  0.1065  0.3197 -0.1072
   32bbb     C2  964   6.499   4.010   3.849 -0.1926 -1.1999 -0.7796
   32bbb     H3  965   6.398   3.985   3.814 -2.8046  2.9600  2.8285
   32bbb     H4  966   6.499   4.089   3.924  1.6081 -2.2405  0.3846
   32bbb     C3  967   6.732   4.107   3.787  0.7087  0.0211  0.1782
   32bbb     H5  968   6.782   4.128   3.692 -1.6303  1.2780 -0.8654
   32bbb     H6  969   6.791   4.038   3.848  2.8083  1.8853  0.4130
   32bbb     C4  970   6.729   4.239   3.868 -0.2196  0.8459 -0.5204
   32bbb     H7  971   6.656   4.225   3.949  0.0676  1.3686 -0.1654
   32bbb     H8  972   6.708   4.329   3.809  2.0870  1.8139  0.0402
   32bbb     C5  973   6.501   3.930   3.542  0.2326  0.0834  0.0342
   32bbb     H9  974   6.472   4.031   3.511  1.7246 -0.2644 -2.8327
   32bbb    H10  975   6.413   3.887   3.590 -0.1247  0.1747 -0.5227
   32bbb     C6  976   6.540   3.886   3.934 -0.4143 -0.9759  0.3245
   32bbb    H11  977   6.639   3.912   3.972 -0.9023  0.6974  0.5308
   32bbb    H12  978   6.546   3.798   3.868  1.8157 -0.9033  0.3765
   32bbb     C7  979   6.870   4.264   3.926 -0.2751 -0.3236  0.0808
   32bbb    H13  980   6.888   4.186   4.002 -1.7962 -1.0690 -0.2880
   32bbb    H14  981   6.866   4.359   3.981 -0.4981 -0.4311  0.2563
   32bbb     C8  982   6.441   3.848   4.046  0.2754 -0.0686  0.6472
   32bbb    H15  983   6.480   3.761   4.101 -0.5766 -1.5009 -0.9110
   32bbb    H16  984   6.415   3.929   4.115 -3.0427  0.3548 -0.9005
   32bbb     C9  985   6.540   3.841   3.423 -0.3269 -0.1910  0.1899
   32bbb    H17  986   6.450   3.831   3.361  0.7756 -0.5978 -1.4180
   32bbb    H18  987   6.578   3.744   3.457 -0.8114 -0.5445 -0.2421
   32bbb     O1  988   6.961   4.275   3.816 -0.5802  0.4387 -0.2404
   32bbb    H19  989   6.552   4.138   3.689  1.3754  1.0680  1.5088
   33bbb     N1  990   7.344   4.302   3.105 -0.6607  0.4341 -0.6753
   33bbb     C1  991   7.323   4.159   3.083 -0.4145 -0.1036  0.3191
   33bbb     H1  992   7.424   4.119   3.087 -0.0324  0.6773 -0.9800
   33bbb     H2  993   7.276   4.145   2.986 -0.2571  0.2358  0.1936
   33bbb     C2  994   7.484   4.341   3.054  0.3370 -0.3378  0.1637
   33bbb     H3  995   7.550   4.262   3.090  0.5606 -0.2061  0.0482
   33bbb     H4  996   7.514   4.429   3.111 -1.7946  0.4260  0.1915
   33bbb     C3  997   7.234   4.387   3.056 -0.1738 -0.6088  0.5639
   33bbb     H5  998   7.188   4.339   2.969 -0.8646  1.2761 -0.1585
   33bbb     H6  999   7.287   4.473   3.014  0.0073 -0.0759  1.8503
   33bbb     C4 1000   7.148   4.453   3.163  0.2496 -0.4252  0.4549
   33bbb     H7 1001   7.095   4.377   3.222 -0.0213 -2.1856 -1.9094
   33bbb     H8 1002   7.072   4.522   3.123  2.9154  2.0591 -0.6595
   33bbb     C5 1003   7.237   4.086   3.189  0.6762 -0.4629 -0.3085
   33bbb     H9 1004   7.228   3.978   3.178 -1.2877 -0.7562  2.9443
   33bbb    H10 1005   7.135   4.124   3.183  1.8797  3.0804 -1.4219
   33bbb     C6 1006   7.504   4.369   2.903  0.7256 -0.0078 -0.5786
   33bbb    H11 1007   7.564   4.460   2.898  0.5254  0.1401 -0.3320
   33bbb    H12 1008   7.404   4.393   2.865  0.3323  0.0727  0.4710
   33bbb     C7 1009   7.228   4.539   3.264  0.3405 -0.4102 -0.5368
   33bbb    H13 1010   7.170   4.599   3.335  0.0519 -0.1685 -0.9720
   33bbb    H14 1011   7.295   4.614   3.223 -0.9855  0.9301 -0.3492
   33bbb     C8 1012   7.572   4.248   2.829  0.2867 -0.1948  0.4762
   33bbb    H15 1013   7.676   4.231   2.859  0.8565  0.3581 -1.0829
   33bbb    H16 1014   7.519   4.158   2.862 -1.8325  0.9194  0.3054
   33bbb     C9 1015   7.288   4.106   3.338 -0.2860 -0.4429  0.0229
   33bbb    H17 1016   7.209   4.078   3.409  0.0666  1.7084  1.3094
   33bbb    H18 1017   7.330   4.206   3.355  1.3910 -1.0037 -0.5882
   33bbb     O1 1018   7.313   4.448   3.334 -0.0858 -0.1596  0.0597
   33bbb    H19 1019   7.340   4.310   3.208 -2.5887 -0.2423 -0.6487
   34bbb     N1 1020   7.939   6.998   3.317  0.1652  0.4794  0.8357
   34bbb     C1 1021   7.988   7.042   3.182 -0.3962  0.6687 -0.7397
   34bbb     H1 1022   7.967   7.149   3.177 -0.1755  0.7052 -0.8857
   34bbb     H2 1023   7.921   6.994   3.110 -0.2640 -0.5786 -0.0576
   34bbb     C2 1024   7.798   7.047   3.335 -0.6815 -0.4114  0.5998
   34bbb     H3 1025   7.744   6.983   3.405 -2.9610  1.5825  0.7784
   34bbb     H4 1026   7.758   7.043   3.234  1.3573  0.4291 -0.3039
   34bbb     C3 1027   7.942   6.844   3.317  0.2771 -0.0465  0.6534
   34bbb     H5 1028   8.041   6.818   3.280 -0.7318  0.0338 -2.3864
   34bbb     H6 1029   7.879   6.796   3.242 -0.6158  2.3380 -0.2320
   34bbb     C4 1030   7.932   6.781   3.456 -0.0023  0.0381 -0.1598
   34bbb     H7 1031   7.855   6.833   3.515  0.9915  0.1266  1.0911
   34bbb     H8 1032   8.026   6.801   3.509 -0.4248 -0.6161  0.8672
   34bbb     C5 1033   8.138   7.005   3.143 -0.3394  0.3878 -0.1814
   34bbb     H9 1034   8.146   6.918   3.076  0.5308  1.8656 -2.1000
   34bbb    H10 1035   8.191   6.989   3.237 -3.0216  0.5694  1.4724
   34bbb     C6 1036   7.805   7.194   3.398  0.4401  0.0634 -0.2650
   34bbb    H11 1037   7.864   7.259   3.331  2.5487 -1.8890 -0.4433
   34bbb    H12 1038   7.860   7.188   3.493 -1.9478 -0.5112  1.1533
   34bbb     C7 1039   7.906   6.626   3.448  0.2359 -0.2637  0.2250
   34bbb    H13 1040   7.921   6.591   3.551 -1.8791  1.6853  1.2857
   34bbb    H14 1041   7.982   6.590   3.378  0.2332 -1.5765  0.8516
   34bbb     C8 1042   7.661   7.253   3.411 -0.4817 -0.8262 -0.0342
   34bbb    H15 1043   7.628   7.291   3.314 -0.1626 -2.3475 -0.7749
   34bbb    H16 1044   7.587   7.185   3.457  0.7228 -0.8984  1.9077
   34bbb     C9 1045   8.195   7.130   3.076  0.0123  0.3198 -0.3192
   34bbb    H17 1046   8.300   7.111   3.052  0.6303  1.6307  1.1927
   34bbb    H18 1047   8.199   7.214   3.147  0.4614  0.4164 -0.4572
   34bbb     O1 1048   7.770   6.609   3.408 -0.3970 -0.1075  0.0201
   34bbb    H19 1049   8.001   7.036   3.390  0.0164  2.4723 -0.0050
   35bbb     N1 1050   7.481   5.954   2.966 -0.2926  0.0577 -0.2326
   35bbb     C1 1051   7.425   6.083   2.905  0.2777  0.3468  0.4067
   35bbb     H1 1052   7.323   6.094   2.942  0.7376 -0.2547  1.9166
   35bbb     H2 1053   7.414   6.067   2.798  1.5999 -2.0283  0.5436
   35bbb     C2 1054   7.378   5.873   3.038  0.2419  0.3315 -0.8265
   35bbb     H3 1055   7.330   5.946   3.102  1.3543  1.8097 -1.6101
   35bbb     H4 1056   7.449   5.809   3.091 -0.2472 -0.1680 -0.7673
   35bbb     C3 1057   7.558   5.869   2.867  0.1802  0.3277 -0.1853
   35bbb     H5 1058   7.619   5.933   2.802 -1.3891 -0.1526 -2.2390
   35bbb     H6 1059   7.489   5.809   2.808  0.2983 -1.3866  1.3098
   35bbb     C4 1060   7.642   5.764   2.937  0.5627 -0.8418  0.1737
   35bbb     H7 1061   7.681   5.707   2.851  0.9149  1.4915 -1.3204
   35bbb     H8 1062   7.580   5.695   2.994 -1.5451  1.0813  0.3587
   35bbb     C5 1063   7.503   6.211   2.929  0.0606 -0.7434  0.0813
   35bbb     H9 1064   7.610   6.191   2.916  0.2985  0.2479  0.4136
   35bbb    H10 1065   7.483   6.236   3.034 -3.0385 -1.0180 -0.3473
   35bbb     C6 1066   7.276   5.788   2.960 -0.1200  0.0995  0.3211
   35bbb    H11 1067   7.331   5.711   2.903 -0.6846 -0.9786  1.1867
   35bbb    H12 1068   7.220   5.846   2.886 -0.6777 -0.0142  0.6457
   35bbb     C7 1069   7.757   5.833   3.023  0.1262 -0.4469  0.1939
   35bbb    H13 1070   7.811   5.900   2.954  1.6622 -0.1969  1.5899
   35bbb    H14 1071   7.820   5.753   3.065 -1.0512 -1.2618  0.4485
   35bbb     C8 1072   7.178   5.708   3.051 -0.2097 -0.6924 -0.0934
   35bbb    H15 1073   7.130   5.775   3.124 -0.5509 -1.4025  0.3478
   35bbb    H16 1074   7.102   5.663   2.986 -0.5575 -1.2923  0.7040
   35bbb     C9 1075   7.470   6.333   2.841  0.0518 -0.1507 -0.6089
   35bbb    H17 1076   7.515   6.422   2.887 -1.3159 -0.2751  1.0984
   35bbb    H18 1077   7.365   6.358   2.824  0.3895  0.1264 -2.4433
   35bbb     O1 1078   7.698   5.905   3.134  0.6097 -0.0086 -0.4949
   35bbb    H19 1079   7.542   5.971   3.048 -1.6245 -0.4694  0.9028
   36bbb     N1 1080   6.565   6.238   3.122 -0.0836 -0.2571 -0.4782
   36bbb     C1 1081   6.471   6.358   3.093 -0.0686  0.2032  0.1164
   36bbb     H1 1082   6.447   6.363   2.987  0.0937  2.1264  0.1331
   36bbb     H2 1083   6.529   6.448   3.115  1.5199 -0.5111 -1.0127
   36bbb     C2 1084   6.639   6.188   2.999 -0.1135  0.1702  0.2850
   36bbb     H3 1085   6.566   6.169   2.921  0.5292  2.9180 -1.1350
   36bbb     H4 1086   6.688   6.098   3.036 -0.8688  0.2408  1.4993
   36bbb     C3 1087   6.672   6.271   3.227 -0.0543 -0.5629 -0.5392
   36bbb     H5 1088   6.726   6.359   3.193  0.1664  0.4773  2.2625
   36bbb     H6 1089   6.745   6.189   3.224  2.3281  1.2395  2.1483
   36bbb     C4 1090   6.624   6.288   3.375 -0.4196  0.3104  0.4472
   36bbb     H7 1091   6.572   6.197   3.408  0.3759  0.1497  1.2909
   36bbb     H8 1092   6.565   6.380   3.380  1.7069  1.7045  1.3425
   36bbb     C5 1093   6.341   6.367   3.173  0.7677  0.0561  0.3906
   36bbb     H9 1094   6.352   6.352   3.281  0.6924 -2.0674  0.1328
   36bbb    H10 1095   6.280   6.283   3.138  1.4974 -0.8083  1.1350
   36bbb     C6 1096   6.752   6.275   2.935  0.6676  0.5262  0.2285
   36bbb    H11 1097   6.822   6.281   3.020 -2.3744  0.8678  2.9138
   36bbb    H12 1098   6.717   6.377   2.915  1.5448  0.6724 -0.6570
   36bbb     C7 1099   6.742   6.324   3.474  0.4864 -0.2561 -0.2910
   36bbb    H13 1100   6.818   6.245   3.474  0.3605 -0.3937 -1.2324
   36bbb    H14 1101   6.703   6.332   3.576 -0.8679  2.0755 -0.9047
   36bbb     C8 1102   6.811   6.225   2.801 -0.3558  0.0883  0.0990
   36bbb    H15 1103   6.878   6.302   2.761  0.4580  0.3411  1.8524
   36bbb    H16 1104   6.873   6.135   2.820 -0.6572 -0.1662 -0.1249
   36bbb     C9 1105   6.273   6.510   3.148  0.8690  0.7206 -0.4551
   36bbb    H17 1106   6.348   6.589   3.137 -0.3613  1.8776 -0.9752
   36bbb    H18 1107   6.201   6.540   3.226 -0.9602 -1.1792 -1.3164
   36bbb     O1 1108   6.803   6.451   3.429 -0.0521  0.2868 -0.1863
   36bbb    H19 1109   6.509   6.161   3.161 -1.2141 -0.0444 -1.6106
   37bbb     N1 1110   6.838   7.451   4.344 -0.0615 -0.0038 -0.1503
   37bbb     C1 1111   6.697   7.417   4.411 -0.4528  0.2949 -0.1088
   37bbb     H1 1112   6.698   7.314   4.446 -0.2869  0.1767 -0.4540
   37bbb     H2 1113   6.624   7.414   4.330  1.0472 -2.2657 -1.4791
   37bbb     C2 1114   6.950   7.455   4.444  0.2495  0.1099  0.2637
   37bbb     H3 1115   6.971   7.355   4.482 -0.4304 -0.3653 -0.5863
   37bbb     H4 1116   6.915   7.526   4.519 -0.0170 -0.0565  0.2992
   37bbb     C3 1117   6.868   7.355   4.230  0.3123  0.4214  0.1842
   37bbb     H5 1118   6.896   7.257   4.269 -1.8832 -1.0100 -1.5626
   37bbb     H6 1119   6.947   7.412   4.181 -0.1567  0.7485 -0.2000
   37bbb     C4 1120   6.755   7.338   4.130  0.0951  0.9734  0.2809
   37bbb     H7 1121   6.725   7.437   4.090 -0.1690 -0.2494 -2.8870
   37bbb     H8 1122   6.667   7.293   4.177  1.0995 -0.9245  0.3994
   37bbb     C5 1123   6.655   7.515   4.520 -0.5972  1.0506  0.3834
   37bbb     H9 1124   6.666   7.621   4.496  5.0446  0.4708 -1.0100
   37bbb    H10 1125   6.720   7.500   4.607  0.5475  1.2439 -0.4106
   37bbb     C6 1126   7.086   7.503   4.381 -0.1055  0.0193 -0.1870
   37bbb    H11 1127   7.059   7.572   4.300 -0.6633  0.4085  0.3213
   37bbb    H12 1128   7.124   7.418   4.324 -2.1744  0.1428 -1.8893
   37bbb     C7 1129   6.789   7.256   3.997 -0.4849  0.1455  0.1788
   37bbb    H13 1130   6.891   7.282   3.965 -0.8134 -1.0643 -2.0337
   37bbb    H14 1131   6.718   7.281   3.917 -0.2859 -0.7717 -0.2954
   37bbb     C8 1132   7.193   7.545   4.489 -0.7482  0.9354  0.4896
   37bbb    H15 1133   7.208   7.462   4.560 -0.1995  0.8400  0.2654
   37bbb    H16 1134   7.291   7.554   4.440 -0.1698 -4.1002  0.2250
   37bbb     C9 1135   6.513   7.484   4.564  0.6408  0.0874  0.2518
   37bbb    H17 1136   6.456   7.510   4.474  1.2086  1.1501  0.1865
   37bbb    H18 1137   6.481   7.548   4.647  0.5789 -0.3678  0.5796
   37bbb     O1 1138   6.776   7.113   4.016 -0.2740 -0.1830  0.3390
   37bbb    H19 1139   6.835   7.544   4.300  1.1602 -0.2022 -0.6954
   38bbb     N1 1140   7.594   7.455   6.794 -0.0805  0.6108  0.2951
   38bbb     C1 1141   7.520   7.584   6.831  0.4584  0.1250  0.2405
   38bbb     H1 1142   7.573   7.642   6.907  0.5734  1.4363 -0.8162
   38bbb     H2 1143   7.430   7.538   6.873 -0.6458  1.1368 -0.9394
   38bbb     C2 1144   7.497   7.368   6.705 -0.1254  1.0437 -0.3172
   38bbb     H3 1145   7.500   7.414   6.606  1.1480  0.8756 -0.3842
   38bbb     H4 1146   7.399   7.378   6.751  0.1833  1.9526  0.1771
   38bbb     C3 1147   7.724   7.480   6.721  0.1168  0.4873 -0.0136
   38bbb     H5 1148   7.702   7.532   6.627 -1.1017  0.4786  0.2570
   38bbb     H6 1149   7.759   7.380   6.695 -2.5190 -0.6706  0.6092
   38bbb     C4 1150   7.833   7.562   6.802  0.4814 -0.1495 -0.6492
   38bbb     H7 1151   7.861   7.518   6.899  2.6520 -0.4052 -1.3298
   38bbb     H8 1152   7.793   7.664   6.809  0.0328  0.0480 -4.1972
   38bbb     C5 1153   7.485   7.690   6.721  0.6125  0.3680 -0.5416
   38bbb     H9 1154   7.438   7.630   6.641  1.4143 -2.1070  0.7314
   38bbb    H10 1155   7.580   7.719   6.675  1.0214  0.6222  0.4586
   38bbb     C6 1156   7.527   7.217   6.682 -0.3381 -0.7546 -0.6383
   38bbb    H11 1157   7.525   7.170   6.781 -2.7060  0.1044 -0.2018
   38bbb    H12 1158   7.627   7.198   6.640 -0.7838  1.4099 -2.9232
   38bbb     C7 1159   7.967   7.578   6.724  0.1972 -0.1949  0.7010
   38bbb    H13 1160   8.037   7.640   6.781  1.7818 -0.1877 -1.1605
   38bbb    H14 1161   7.939   7.634   6.634 -2.1481  0.1604  1.5890
   38bbb     C8 1162   7.415   7.150   6.602 -0.2330  0.7564  0.9320
   38bbb    H15 1163   7.409   7.194   6.502 -1.5483 -0.7165  0.3211
   38bbb    H16 1164   7.438   7.045   6.581 -1.8089  0.7896 -1.2802
   38bbb     C9 1165   7.409   7.814   6.751 -0.2259 -0.3712  0.3518
   38bbb    H17 1166   7.301   7.796   6.765 -0.6343  1.3927 -0.3434
   38bbb    H18 1167   7.417   7.885   6.668  0.2167 -1.7024 -0.7931
   38bbb     O1 1168   8.032   7.455   6.678 -0.6284 -0.4717  0.4228
   38bbb    H19 1169   7.621   7.406   6.881  1.3459  2.6848  1.1051
   39bbb     N1 1170   9.143   7.029   6.793  0.1076 -0.7625 -0.2307
   39bbb     C1 1171   9.084   6.892   6.794 -0.0542 -0.4935 -0.1987
   39bbb     H1 1172   8.996   6.907   6.855  0.0962  0.0262 -0.1085
   39bbb     H2 1173   9.153   6.824   6.844 -0.6033  0.7689  2.4505
   39bbb     C2 1174   9.286   7.024   6.722 -0.3306 -0.5143 -0.0499
   39bbb     H3 1175   9.278   7.050   6.617 -1.6208 -1.7459 -0.2918
   39bbb     H4 1176   9.331   6.924   6.731 -0.7020 -0.7344 -0.5912
   39bbb     C3 1177   9.035   7.123   6.734 -0.5859 -0.3993  0.4443
   39bbb     H5 1178   8.936   7.093   6.767 -1.3560  1.1214 -0.3720
   39bbb     H6 1179   9.037   7.106   6.626 -0.2590 -1.2522  0.5762
   39bbb     C4 1180   9.052   7.280   6.765 -0.3998 -0.1042  0.0392
   39bbb     H7 1181   9.158   7.308   6.758 -0.0056  0.6148  5.0833
   39bbb     H8 1182   9.043   7.294   6.874  1.2743 -1.8074  0.4657
   39bbb     C5 1183   9.047   6.846   6.652 -0.6574  0.0255 -0.0216
   39bbb     H9 1184   9.128   6.863   6.580  1.7770 -1.2059  2.2413
   39bbb    H10 1185   8.960   6.899   6.611  0.4237  0.3264 -2.0929
   39bbb     C6 1186   9.379   7.128   6.777 -0.4485 -0.1164  0.2761
   39bbb    H11 1187   9.354   7.145   6.883 -1.3460  0.4846 -0.0243
   39bbb    H12 1188   9.351   7.223   6.731 -1.6185 -0.8356 -0.5595
   39bbb     C7 1189   8.948   7.369   6.703  0.6452  0.0133 -0.2064
   39bbb    H13 1190   8.977   7.390   6.600 -1.6057  0.5630 -0.7699
   39bbb    H14 1191   8.961   7.462   6.761  0.4946  1.7741 -2.8263
   39bbb     C8 1192   9.523   7.110   6.745 -0.1412 -0.2657  0.1459
   39bbb    H15 1193   9.556   7.010   6.776  1.2954  0.6767  1.9055
   39bbb    H16 1194   9.531   7.136   6.639 -4.0403  0.9579 -0.0107
   39bbb     C9 1195   9.021   6.694   6.636 -0.3731  0.3152  0.4618
   39bbb    H17 1196   9.099   6.620   6.657 -1.1907 -1.8422 -3.1851
   39bbb    H18 1197   9.006   6.680   6.528 -1.8198 -0.9277  0.7779
   39bbb     O1 1198   8.815   7.316   6.714  0.4743 -0.0475  0.0763
   39bbb    H19 1199   9.169   7.052   6.891  0.4212  0.9125 -0.6758
   40bbb     N1 1200   6.959   8.021   5.811  0.0909  0.0615 -0.5458
   40bbb     C1 1201   6.950   8.054   5.960 -0.4741 -0.2019 -1.2240
   40bbb     H1 1202   6.891   8.144   5.979  1.6147  0.7365  1.5423
   40bbb     H2 1203   7.050   8.081   5.994 -1.3882  2.8693 -0.6927
   40bbb     C2 1204   6.984   8.151   5.740  0.4282 -0.2346 -0.0004
   40bbb     H3 1205   7.083   8.180   5.775 -0.6067  2.4180  0.9913
   40bbb     H4 1206   6.917   8.228   5.780  0.2905 -0.6770  0.6466
   40bbb     C3 1207   7.083   7.934   5.796 -0.5413  0.1609 -0.2901
   40bbb     H5 1208   7.166   7.974   5.853 -0.9113  0.8867 -0.2551
   40bbb     H6 1209   7.113   7.941   5.691 -0.4157 -1.4329 -0.3904
   40bbb     C4 1210   7.062   7.783   5.827 -0.8317  0.3593 -0.0779
   40bbb     H7 1211   6.980   7.748   5.762  0.5093  1.3570 -2.4511
   40bbb     H8 1212   7.030   7.769   5.931  3.4202  2.8058  1.8130
   40bbb     C5 1213   6.885   7.950   6.061 -0.0636 -0.2832 -0.9248
   40bbb     H9 1214   6.967   7.892   6.105  0.5941  1.6786  0.5620
   40bbb    H10 1215   6.813   7.885   6.010 -0.9935  0.3434 -0.4274
   40bbb     C6 1216   6.971   8.145   5.586 -0.9878  0.3805 -0.2486
   40bbb    H11 1217   6.867   8.147   5.551 -1.1185  2.0252  0.1371
   40bbb    H12 1218   6.999   8.044   5.554  1.2314  1.4658 -2.0463
   40bbb     C7 1219   7.191   7.702   5.799  0.4324  0.5098  0.5471
   40bbb    H13 1220   7.212   7.703   5.691  2.7714 -0.8624  0.9218
   40bbb    H14 1221   7.182   7.595   5.821  2.0399 -0.2124 -1.9347
   40bbb     C8 1222   7.048   8.252   5.506  0.7288  0.4283 -0.9820
   40bbb    H15 1223   7.028   8.253   5.398 -1.0302  1.7360 -0.6942
   40bbb    H16 1224   7.021   8.356   5.528  3.1816  1.4186 -2.2344
   40bbb     C9 1225   6.814   8.012   6.183  0.0744  0.8514  0.1232
   40bbb    H17 1226   6.884   8.087   6.222 -0.7544  0.7286  1.9345
   40bbb    H18 1227   6.792   7.939   6.262 -2.3731  1.7976  0.3921
   40bbb     O1 1228   7.308   7.760   5.868  0.2695 -0.5640 -0.5527
   40bbb    H19 1229   6.873   7.975   5.777  0.5610 -0.4232 -1.1160
   41bbb     N1 1230   7.933   8.304   6.656  0.0195  0.5789 -0.0048
   41bbb     C1 1231   7.870   8.239   6.769  0.1106 -0.1518  0.2666
   41bbb     H1 1232   7.906   8.136   6.762 -0.9522 -0.5409  0.3908
   41bbb     H2 1233   7.764   8.241   6.744  0.1919 -0.5389 -0.1301
   41bbb     C2 1234   8.082   8.277   6.654 -0.4758 -0.5041  0.1846
   41bbb     H3 1235   8.098   8.175   6.688  0.0339 -0.6687 -0.5181
   41bbb     H4 1236   8.124   8.337   6.735 -2.3071 -0.2524  0.9806
   41bbb     C3 1237   7.859   8.252   6.534  0.3713  0.5765  0.9957
   41bbb     H5 1238   7.803   8.161   6.553 -1.3162  1.1677 -0.7974
   41bbb     H6 1239   7.930   8.226   6.455 -0.6677  1.5706 -0.3240
   41bbb     C4 1240   7.760   8.356   6.472  0.4544 -0.2913  0.3640
   41bbb     H7 1241   7.814   8.440   6.428 -1.0298  0.3651 -0.2586
   41bbb     H8 1242   7.702   8.395   6.557  1.3099 -0.4900  1.0572
   41bbb     C5 1243   7.900   8.309   6.898  0.1003 -0.0556 -0.2378
   41bbb     H9 1244   7.872   8.415   6.904 -1.4094 -0.5027  2.9015
   41bbb    H10 1245   8.008   8.313   6.918  0.1123 -2.7877  0.7593
   41bbb     C6 1246   8.159   8.309   6.520  0.2213 -0.3422  0.4030
   41bbb    H11 1247   8.257   8.352   6.543  0.6702 -1.6386  1.0802
   41bbb    H12 1248   8.096   8.376   6.460  1.8255  0.2415 -0.6777
   41bbb     C7 1249   7.673   8.303   6.355 -0.2124  0.3836 -0.0551
   41bbb    H13 1250   7.745   8.268   6.279 -0.3476  0.4096 -0.1962
   41bbb    H14 1251   7.612   8.384   6.313 -0.1455 -0.9443 -2.9610
   41bbb     C8 1252   8.188   8.169   6.452 -0.5628 -0.1509  0.4209
   41bbb    H15 1253   8.240   8.105   6.524 -2.1526 -1.0198  0.8618
   41bbb    H16 1254   8.096   8.111   6.433 -0.3467 -0.1463 -0.6740
   41bbb     C9 1255   7.822   8.251   7.025 -0.0747  0.3559  0.6049
   41bbb    H17 1256   7.839   8.143   7.038 -2.1808 -0.0610  0.2940
   41bbb    H18 1257   7.714   8.266   7.016  0.0247  0.5696 -0.3586
   41bbb     O1 1258   7.582   8.200   6.399  0.3035  0.0402  0.3289
   41bbb    H19 1259   7.913   8.405   6.664  2.8077  1.3477 -1.5862
   42bbb     N1 1260   6.770   6.191   7.231  0.1641  1.0838 -0.3694
   42bbb     C1 1261   6.832   6.142   7.366 -1.1004  0.2328 -0.7347
   42bbb     H1 1262   6.764   6.071   7.414 -0.1603  0.3189  0.7831
   42bbb     H2 1263   6.841   6.229   7.431  0.9491 -0.6716  0.3128
   42bbb     C2 1264   6.631   6.243   7.252 -0.2087  0.3302  0.2321
   42bbb     H3 1265   6.636   6.327   7.322 -2.6786  2.3984 -1.8448
   42bbb     H4 1266   6.580   6.167   7.311 -0.0815  1.2268  1.5448
   42bbb     C3 1267   6.873   6.294   7.174  0.4633 -0.2656  0.1998
   42bbb     H5 1268   6.960   6.295   7.240 -1.0602 -0.4539  2.3380
   42bbb     H6 1269   6.821   6.389   7.187 -1.4849 -1.5041  2.2980
   42bbb     C4 1270   6.919   6.279   7.031  0.5508  0.1177 -0.0945
   42bbb     H7 1271   6.995   6.356   7.010 -0.8479  0.8358 -3.1894
   42bbb     H8 1272   6.847   6.308   6.952  1.9219  0.6428 -1.1959
   42bbb     C5 1273   6.976   6.084   7.363 -0.3958 -0.1703  0.8835
   42bbb     H9 1274   7.047   6.167   7.352 -0.9958  0.0305 -2.3314
   42bbb    H10 1275   6.997   6.019   7.277  0.4622  0.0523  0.9153
   42bbb     C6 1276   6.546   6.268   7.129  0.5765 -0.0164  0.9234
   42bbb    H11 1277   6.563   6.184   7.060  1.7932  1.2421 -0.3643
   42bbb    H12 1278   6.583   6.355   7.074  0.6615 -0.7749 -0.2423
   42bbb     C7 1279   6.996   6.147   7.007 -0.1599  0.0562  0.3531
   42bbb    H13 1280   7.088   6.143   7.068  0.7737  2.8758 -0.6920
   42bbb    H14 1281   7.032   6.141   6.904  1.7544 -0.8363  1.0034
   42bbb     C8 1282   6.393   6.293   7.173 -0.4733 -0.2442 -0.4160
   42bbb    H15 1283   6.396   6.365   7.256  1.6614 -1.3093  0.5275
   42bbb    H16 1284   6.323   6.329   7.097  0.7438  0.5544 -1.1908
   42bbb     C9 1285   7.011   5.993   7.483  0.0870 -0.3464  0.6166
   42bbb    H17 1286   6.983   6.048   7.574  0.8836  1.4632 -0.1654
   42bbb    H18 1287   7.118   5.970   7.490 -0.1770 -1.2441  2.3230
   42bbb     O1 1288   6.903   6.038   7.030  0.5355 -0.8262 -0.0544
   42bbb    H19 1289   6.773   6.106   7.174 -0.1485  1.0244 -0.2966
   43bbb     N1 1290   6.403   4.987   6.777 -0.5738 -0.1784  0.0356
   43bbb     C1 1291   6.278   4.987   6.700  0.1590 -0.3390  0.1120
   43bbb     H1 1292   6.291   4.904   6.630 -0.8879 -0.7238  0.3665
   43bbb     H2 1293   6.263   5.083   6.649 -1.9467 -0.6323  0.0924
   43bbb     C2 1294   6.437   4.844   6.821 -0.3236 -0.2344 -0.0452
   43bbb     H3 1295   6.487   4.792   6.739  2.2208 -0.3478  1.4732
   43bbb     H4 1296   6.346   4.788   6.846 -1.6981  1.7890 -0.2626
   43bbb     C3 1297   6.526   5.044   6.702 -0.2905  0.0372 -0.2431
   43bbb     H5 1298   6.552   4.979   6.619  0.0844  1.4146 -1.2360
   43bbb     H6 1299   6.611   5.039   6.770 -0.4527 -1.7373 -0.1204
   43bbb     C4 1300   6.522   5.198   6.682  0.0842 -0.1902  0.2082
   43bbb     H7 1301   6.486   5.248   6.773 -0.6815 -1.0393  0.3946
   43bbb     H8 1302   6.449   5.226   6.605 -1.0218 -2.0743  0.4959
   43bbb     C5 1303   6.145   4.976   6.771  0.2421 -0.6445 -0.0289
   43bbb     H9 1304   6.136   4.901   6.851 -1.5659  0.4933  0.9256
   43bbb    H10 1305   6.067   4.937   6.704 -1.1327 -1.5643  1.9903
   43bbb     C6 1306   6.532   4.833   6.944 -0.0016 -0.0922  0.1090
   43bbb    H11 1307   6.479   4.852   7.038  0.9593  0.3581  0.5818
   43bbb    H12 1308   6.608   4.912   6.941 -1.0890  1.0024  0.5462
   43bbb     C7 1309   6.655   5.250   6.633 -0.9909 -0.2212  0.1747
   43bbb    H13 1310   6.669   5.210   6.532 -0.7328  1.0507 -0.3147
   43bbb    H14 1311   6.737   5.215   6.697 -0.3954 -0.2550 -0.5926
   43bbb     C8 1312   6.580   4.693   6.956 -0.0843 -0.2158  0.2038
   43bbb    H15 1313   6.639   4.694   7.048  0.2388 -2.2107  0.0641
   43bbb    H16 1314   6.495   4.625   6.970 -2.4221  2.0471 -1.8599
   43bbb     C9 1315   6.090   5.105   6.835  0.4784 -0.1688  0.5868
   43bbb    H17 1316   5.981   5.096   6.844 -0.2153  2.5164 -2.6957
   43bbb    H18 1317   6.103   5.192   6.769  0.5698  0.5101  1.4940
   43bbb     O1 1318   6.648   5.397   6.643 -0.4674  0.2591  0.4524
   43bbb    H19 1319   6.380   5.038   6.863 -1.9567 -2.1542  0.9152
   44bbb     N1 1320   6.380   6.576   5.040  0.8607  0.8372 -0.3697
   44bbb     C1 1321   6.239   6.566   4.989 -0.2399  0.0561 -0.0071
   44bbb     H1 1322   6.183   6.644   5.039 -0.1671  0.5238 -0.6371
   44bbb     H2 1323   6.193   6.474   5.025 -0.2094 -0.0439 -0.2211
   44bbb     C2 1324   6.389   6.592   5.190  0.0513  0.0611  0.0752
   44bbb     H3 1325   6.490   6.563   5.220 -0.3076 -1.0308  0.2625
   44bbb     H4 1326   6.329   6.519   5.243 -0.1892 -0.4809 -0.9326
   44bbb     C3 1327   6.448   6.448   5.002 -0.4140 -0.0993 -0.0724
   44bbb     H5 1328   6.416   6.425   4.900 -0.9867 -1.4391  0.3940
   44bbb     H6 1329   6.410   6.364   5.060 -2.1382 -1.7860 -3.3666
   44bbb     C4 1330   6.603   6.452   5.018  0.2041  0.0257  0.5309
   44bbb     H7 1331   6.632   6.488   5.117  2.1955  0.1879 -0.0549
   44bbb     H8 1332   6.646   6.518   4.941  0.3044  0.6851  1.1497
   44bbb     C5 1333   6.221   6.575   4.837  0.3312 -0.4191 -0.3993
   44bbb     H9 1334   6.249   6.478   4.795 -2.4846 -1.8665  0.8116
   44bbb    H10 1335   6.290   6.649   4.794  1.8202 -2.6059 -2.0192
   44bbb     C6 1336   6.370   6.739   5.236  0.0243 -0.0728 -0.2124
   44bbb    H11 1337   6.266   6.769   5.220  0.8054  1.7710 -2.1761
   44bbb    H12 1338   6.443   6.808   5.194  0.8620  0.0699  1.3965
   44bbb     C7 1339   6.669   6.313   4.996  0.6147 -0.2047  0.5638
   44bbb    H13 1340   6.777   6.332   5.005  0.4884  1.4508 -0.8440
   44bbb    H14 1341   6.653   6.269   4.897 -0.0166 -2.7091  1.7079
   44bbb     C8 1342   6.387   6.755   5.391 -0.4886  0.5063  0.7525
   44bbb    H15 1343   6.451   6.676   5.432  0.4227  1.0734  0.4548
   44bbb    H16 1344   6.417   6.856   5.419 -2.9078  1.8607 -1.1463
   44bbb     C9 1345   6.071   6.602   4.799 -0.6601  0.2577  0.4310
   44bbb    H17 1346   6.073   6.653   4.701 -0.8255  0.9705  0.7923
   44bbb    H18 1347   6.031   6.669   4.876 -0.1364 -0.4264  1.3148
   44bbb     O1 1348   6.630   6.211   5.098  0.0675  0.0339  0.2705
   44bbb    H19 1349   6.436   6.652   4.999  1.6416  0.7771  0.5395
   45bbb     N1 1350   6.238   6.091   5.971 -1.0176 -0.0261 -0.2084
   45bbb     C1 1351   6.096   6.068   6.007 -0.1581 -0.5437  0.3695
   45bbb     H1 1352   6.081   6.131   6.095  1.7023  2.8524 -1.5450
   45bbb     H2 1353   6.081   5.962   6.029 -1.1571 -0.9251 -1.8976
   45bbb     C2 1354   6.325   6.056   6.094  0.2823  0.3405  0.1337
   45bbb     H3 1355   6.307   5.948   6.100  0.6666  0.2212 -0.6511
   45bbb     H4 1356   6.281   6.100   6.183  0.4714  0.3781  0.2099
   45bbb     C3 1357   6.285   6.006   5.854  0.1518  0.2045  0.2292
   45bbb     H5 1358   6.384   6.041   5.825  0.1770 -0.2753 -0.2884
   45bbb     H6 1359   6.220   6.033   5.770  0.5877  1.8214  0.3825
   45bbb     C4 1360   6.274   5.847   5.871 -0.1819 -0.1285  0.1307
   45bbb     H7 1361   6.168   5.827   5.887  0.1614 -0.8148  1.6839
   45bbb     H8 1362   6.330   5.816   5.960 -0.3077 -1.4214 -0.2319
   45bbb     C5 1363   5.997   6.107   5.895  0.2210  0.1940 -0.5282
   45bbb     H9 1364   6.006   6.046   5.804 -0.8953  0.4625 -0.8364
   45bbb    H10 1365   6.012   6.211   5.863  2.1794 -0.6725 -2.7376
   45bbb     C6 1366   6.470   6.112   6.086  0.4461 -0.4300 -0.2660
   45bbb    H11 1367   6.459   6.216   6.052  1.5597 -0.0327  0.5448
   45bbb    H12 1368   6.522   6.074   5.998 -0.8607  0.7617 -1.6180
   45bbb     C7 1369   6.323   5.774   5.746 -0.3265 -0.1479 -0.1167
   45bbb    H13 1370   6.262   5.819   5.667  0.2378  0.3647 -0.2735
   45bbb    H14 1371   6.308   5.668   5.770  3.2852 -1.0609 -1.2449
   45bbb     C8 1372   6.554   6.102   6.211  0.7457  0.3018 -0.4688
   45bbb    H15 1373   6.564   5.995   6.235  1.6167  0.3930 -0.3799
   45bbb    H16 1374   6.657   6.131   6.185  1.4379 -1.5148  0.0994
   45bbb     C9 1375   5.856   6.078   5.940 -0.0146 -0.7228 -0.3512
   45bbb    H17 1376   5.784   6.139   5.885  0.3477 -0.3586 -0.4339
   45bbb    H18 1377   5.848   6.106   6.046  0.8702 -0.8162 -0.2485
   45bbb     O1 1378   6.468   5.789   5.739 -0.3289  0.3987 -0.1226
   45bbb    H19 1379   6.245   6.191   5.949 -1.5654 -0.1491 -0.9740
   46bbb     N1 1380  10.756   6.167   7.237  0.1383 -0.0955  0.2099
   46bbb     C1 1381  10.719   6.153   7.379 -0.1447 -0.2161  0.5890
   46bbb     H1 1382  10.652   6.236   7.402  0.5488  0.6649 -0.4493
   46bbb     H2 1383  10.814   6.154   7.434  1.1630 -2.1442 -1.4305
   46bbb     C2 1384  10.772   6.315   7.203 -0.5213  0.2640 -0.3630
   46bbb     H3 1385  10.676   6.366   7.215  0.0619  1.4681 -0.5922
   46bbb     H4 1386  10.783   6.318   7.095 -2.3510 -0.7124 -0.6197
   46bbb     C3 1387  10.883   6.086   7.220  0.7420  0.9486 -0.0348
   46bbb     H5 1388  10.869   5.982   7.251 -0.6773  0.7222 -1.2747
   46bbb     H6 1389  10.963   6.119   7.286  2.0475 -1.8252 -0.0700
   46bbb     C4 1390  10.946   6.077   7.075  0.0175 -0.1828  0.1045
   46bbb     H7 1391  11.043   6.027   7.083 -1.2241 -3.0631 -1.5549
   46bbb     H8 1392  10.967   6.173   7.025 -0.7511  0.1196  0.3389
   46bbb     C5 1393  10.658   6.017   7.420  0.5153 -0.4494  0.0874
   46bbb     H9 1394  10.722   5.935   7.385 -0.1717 -0.6566 -0.7217
   46bbb    H10 1395  10.564   5.994   7.368  1.0932  1.6624 -2.0976
   46bbb     C6 1396  10.885   6.392   7.266  0.0739  0.5885  0.5059
   46bbb    H11 1397  10.990   6.364   7.252  0.3824  1.0284  1.7993
   46bbb    H12 1398  10.861   6.397   7.373 -1.9251  2.5720  0.0478
   46bbb     C7 1399  10.852   6.001   6.970 -0.8500 -0.1045  0.1709
   46bbb    H13 1400  10.891   6.017   6.869  1.8458 -0.0366  1.1147
   46bbb    H14 1401  10.751   6.043   6.974 -1.5379 -1.7499  1.5098
   46bbb     C8 1402  10.887   6.540   7.217  1.0061  0.6320 -0.3822
   46bbb    H15 1403  10.799   6.597   7.250  1.3713  0.8285  0.2811
   46bbb    H16 1404  10.962   6.599   7.271 -0.0138  0.5667  1.2000
   46bbb     C9 1405  10.641   6.003   7.578 -0.3546  0.1251  0.0148
   46bbb    H17 1406  10.586   5.909   7.592 -1.2927  0.5145 -0.8912
   46bbb    H18 1407  10.578   6.084   7.617  1.6029  2.2405 -0.9496
   46bbb     O1 1408  10.869   5.859   7.005 -0.6815 -0.0805  0.1803
   46bbb    H19 1409  10.675   6.144   7.178  0.8607  0.9409 -1.2466
   47bbb     N1 1410  10.760   5.311   7.878 -0.0529 -0.0826  0.2270
   47bbb     C1 1411  10.674   5.190   7.854 -0.7376  0.0607 -0.0570
   47bbb     H1 1412  10.609   5.172   7.940 -1.1675  3.5075  0.4871
   47bbb     H2 1413  10.738   5.102   7.846 -0.7870  0.0317 -0.1409
   47bbb     C2 1414  10.786   5.333   8.031 -0.2848 -0.2841 -0.1911
   47bbb     H3 1415  10.853   5.419   8.018 -2.0463  0.8625 -2.4189
   47bbb     H4 1416  10.833   5.245   8.074 -1.6916 -1.6450 -1.3344
   47bbb     C3 1417  10.897   5.286   7.820  0.2244 -0.1892 -0.2322
   47bbb     H5 1418  10.877   5.259   7.716 -0.4900 -1.3036  0.1748
   47bbb     H6 1419  10.942   5.202   7.874  0.4350 -0.4373 -0.7852
   47bbb     C4 1420  11.007   5.393   7.817 -0.5769 -0.3440 -0.0619
   47bbb     H7 1421  11.059   5.391   7.914  0.6119 -1.7230 -0.6929
   47bbb     H8 1422  10.962   5.492   7.807 -1.2776 -0.5756  0.5908
   47bbb     C5 1423  10.595   5.184   7.724 -0.0579  0.1418 -0.2326
   47bbb     H9 1424  10.657   5.142   7.644 -0.2598 -1.4184  0.3937
   47bbb    H10 1425  10.578   5.284   7.684  0.3870  0.8239  1.2220
   47bbb     C6 1426  10.655   5.377   8.106 -0.1577  0.3469  0.2702
   47bbb    H11 1427  10.574   5.304   8.120 -1.5508  1.8142  0.1453
   47bbb    H12 1428  10.606   5.454   8.045 -2.3992 -1.8631 -0.8929
   47bbb     C7 1429  11.125   5.375   7.720 -0.2224 -0.2056 -0.0528
   47bbb    H13 1430  11.174   5.277   7.732 -0.9564 -0.6995 -0.9539
   47bbb    H14 1431  11.208   5.440   7.749 -0.0338 -0.2013 -0.6048
   47bbb     C8 1432  10.707   5.442   8.233 -0.3295 -0.0023  0.3146
   47bbb    H15 1433  10.808   5.477   8.209  0.6746 -2.4062  0.6899
   47bbb    H16 1434  10.635   5.514   8.273  2.9389  2.9127  1.4600
   47bbb     C9 1435  10.474   5.096   7.741  0.2357 -0.4504 -0.1338
   47bbb    H17 1436  10.519   4.997   7.761  0.5617 -0.5944 -1.5213
   47bbb    H18 1437  10.418   5.085   7.647 -2.7334 -1.1145  1.5758
   47bbb     O1 1438  11.072   5.413   7.587  0.2696  0.7809  0.2464
   47bbb    H19 1439  10.715   5.388   7.828  2.7506  0.7808 -1.1217
   48bbb     N1 1440  11.397   4.130   6.096 -0.0139  0.1159  0.1827
   48bbb     C1 1441  11.520   4.043   6.086 -0.4419  1.3744 -0.2218
   48bbb     H1 1442  11.518   4.002   5.985  0.4098  2.1130 -0.5521
   48bbb     H2 1443  11.496   3.961   6.154  2.9133 -2.3460 -3.0308
   48bbb     C2 1444  11.301   4.086   5.987  0.7187 -0.1894  0.6844
   48bbb     H3 1445  11.349   4.101   5.890 -0.3023 -0.3368  0.1443
   48bbb     H4 1446  11.218   4.157   5.978 -0.1170 -1.2922 -0.6687
   48bbb     C3 1447  11.336   4.120   6.238 -0.3253 -0.4613  0.5437
   48bbb     H5 1448  11.417   4.155   6.303 -0.8635  2.8568 -0.3511
   48bbb     H6 1449  11.329   4.014   6.260 -0.3566 -0.8851 -1.3924
   48bbb     C4 1450  11.195   4.187   6.257 -0.7416 -0.1379 -0.4584
   48bbb     H7 1451  11.120   4.140   6.193 -2.0448  0.4184  0.6248
   48bbb     H8 1452  11.209   4.295   6.239  3.1697 -0.4211 -0.0843
   48bbb     C5 1453  11.659   4.093   6.123  0.8188  0.1479  0.2569
   48bbb     H9 1454  11.734   4.013   6.134  2.1648  1.2581 -0.4823
   48bbb    H10 1455  11.657   4.137   6.224  0.0545 -2.4370  1.4609
   48bbb     C6 1456  11.251   3.943   5.996 -0.4177  0.1049 -0.2900
   48bbb    H11 1457  11.184   3.932   6.082 -2.6253 -0.4209 -1.9923
   48bbb    H12 1458  11.329   3.866   5.995 -0.0353  0.4648 -1.9563
   48bbb     C7 1459  11.152   4.172   6.401 -1.0757  0.0272  0.0841
   48bbb    H13 1460  11.148   4.065   6.425 -1.6514  0.1679  0.6325
   48bbb    H14 1461  11.048   4.206   6.399 -0.6218  1.7196  1.7180
   48bbb     C8 1462  11.168   3.916   5.865  0.3496  0.0778  0.2621
   48bbb    H15 1463  11.238   3.890   5.786  1.3334  0.5676  0.9530
   48bbb    H16 1464  11.100   3.835   5.895 -0.0730  0.1940 -0.3691
   48bbb     C9 1465  11.712   4.197   6.018  0.0907  0.0227  0.0104
   48bbb    H17 1466  11.646   4.285   6.022  1.5012  1.0693  2.2019
   48bbb    H18 1467  11.710   4.143   5.923 -0.0424 -0.9072  0.5274
   48bbb     O1 1468  11.232   4.245   6.489 -0.2870  0.3236  0.3517
   48bbb    H19 1469  11.434   4.223   6.075  0.8831  0.0331  1.3248
   49bbb     N1 1470  11.865   4.500   7.143 -0.1982 -0.1481  0.6223
   49bbb     C1 1471  11.849   4.506   7.296  0.0162 -0.7031  0.3102
   49bbb     H1 1472  11.942   4.547   7.335  0.9112  0.5814 -2.8654
   49bbb     H2 1473  11.842   4.402   7.326 -0.1072 -0.8341 -0.1634
   49bbb     C2 1474  11.983   4.418   7.108 -0.3440 -0.3586 -0.2152
   49bbb     H3 1475  11.973   4.387   7.004 -0.2139  0.0129 -0.3409
   49bbb     H4 1476  11.990   4.332   7.174 -0.6207 -1.1378 -1.1820
   49bbb     C3 1477  11.735   4.443   7.076 -0.0100 -0.4166  0.2416
   49bbb     H5 1478  11.645   4.470   7.131 -0.2064  0.1996 -0.3620
   49bbb     H6 1479  11.749   4.334   7.082  1.8856 -0.2630 -0.5853
   49bbb     C4 1480  11.723   4.481   6.929  0.4742 -0.8282 -0.4310
   49bbb     H7 1481  11.812   4.456   6.869  0.3692  2.2544 -2.0608
   49bbb     H8 1482  11.716   4.590   6.936 -0.1850 -0.8342 -0.8546
   49bbb     C5 1483  11.727   4.575   7.353  0.3030  0.6465  0.1645
   49bbb     H9 1484  11.632   4.532   7.319  0.5329  0.3902 -0.1549
   49bbb    H10 1485  11.725   4.684   7.343 -1.8311  0.4458 -3.6807
   49bbb     C6 1486  12.117   4.502   7.113 -0.4213  0.1437  0.9090
   49bbb    H11 1487  12.138   4.536   7.215 -0.4187 -0.2107  1.0293
   49bbb    H12 1488  12.123   4.591   7.048  1.6529 -0.2357  0.4930
   49bbb     C7 1489  11.592   4.418   6.868  0.0750 -0.1184 -0.6470
   49bbb    H13 1490  11.505   4.466   6.915  1.2675  1.0987  0.4092
   49bbb    H14 1491  11.586   4.310   6.884  0.8533 -0.1213 -0.3581
   49bbb     C8 1492  12.247   4.419   7.086  0.4978  0.0117  0.2782
   49bbb    H15 1493  12.261   4.415   6.977 -0.1820 -1.8155  0.2312
   49bbb    H16 1494  12.333   4.471   7.130  0.4445 -0.6023  1.1302
   49bbb     C9 1495  11.726   4.548   7.501  0.3848  1.0636  0.2847
   49bbb    H17 1496  11.780   4.456   7.526 -0.5129  0.6075  0.6033
   49bbb    H18 1497  11.622   4.532   7.533  1.0684 -3.1875  0.9505
   49bbb     O1 1498  11.593   4.449   6.727  0.7098 -0.3599  0.4953
   49bbb    H19 1499  11.879   4.597   7.110 -2.5187  1.3450  3.5805
   50bbb     N1 1500  10.257   6.719   4.271 -0.0367 -0.2463  0.2627
   50bbb     C1 1501  10.336   6.753   4.148 -0.5495  0.1270 -0.1194
   50bbb     H1 1502  10.429   6.793   4.189 -0.4760  1.0040 -1.1037
   50bbb     H2 1503  10.288   6.832   4.090 -0.9719  0.1624  0.2706
   50bbb     C2 1504  10.267   6.836   4.361  0.3628 -0.2879 -0.7235
   50bbb     H3 1505  10.368   6.847   4.401  0.1653  0.3204 -0.3762
   50bbb     H4 1506  10.204   6.803   4.444  1.6064 -2.9303 -0.7543
   50bbb     C3 1507  10.110   6.689   4.236 -0.1873  0.2668  0.0377
   50bbb     H5 1508  10.106   6.632   4.143  1.1576  1.2802 -0.6768
   50bbb     H6 1509  10.064   6.786   4.216  2.0033  1.7615  1.7992
   50bbb     C4 1510  10.027   6.620   4.353 -0.8023  0.4516  0.3107
   50bbb     H7 1511   9.935   6.602   4.296 -0.3661  1.6349 -0.8411
   50bbb     H8 1512  10.002   6.688   4.435  2.4344  1.0188  0.9832
   50bbb     C5 1513  10.376   6.627   4.061  0.4951  0.6425  0.0144
   50bbb     H9 1514  10.423   6.658   3.966 -0.0619  0.2670 -0.3876
   50bbb    H10 1515  10.288   6.573   4.026  2.3014 -3.3788  1.1298
   50bbb     C6 1516  10.217   6.977   4.307  0.3098 -0.6164 -0.1498
   50bbb    H11 1517  10.108   6.976   4.315  0.3805 -2.3364  1.4178
   50bbb    H12 1518  10.242   6.994   4.202  1.3520 -0.4836  0.1075
   50bbb     C7 1519  10.091   6.483   4.399  0.1606 -0.0330  0.5110
   50bbb    H13 1520  10.089   6.416   4.313  1.8272  0.7108 -0.1651
   50bbb    H14 1521  10.041   6.451   4.491  1.2294  1.5178  1.6844
   50bbb     C8 1522  10.262   7.097   4.393  0.2540  0.4038  0.8319
   50bbb    H15 1523  10.235   7.190   4.342 -1.5304 -0.3894  0.2463
   50bbb    H16 1524  10.206   7.086   4.487 -2.7614 -0.0608 -0.9063
   50bbb     C9 1525  10.462   6.522   4.136  0.3190 -0.3547 -0.0421
   50bbb    H17 1526  10.424   6.494   4.234 -0.8620  1.5520  0.1061
   50bbb    H18 1527  10.565   6.556   4.148 -0.2621  1.2641  0.6200
   50bbb     O1 1528  10.237   6.504   4.437 -0.3054  0.0039 -0.3888
   50bbb    H19 1529  10.294   6.644   4.331  0.5955  0.8647  1.3208
   51bbb     N1 1530   9.797   7.317   4.668 -0.0918  0.4251  0.3793
   51bbb     C1 1531   9.654   7.263   4.636  0.6819 -0.4660  0.4705
   51bbb     H1 1532   9.595   7.353   4.621  1.6702  0.0304 -0.6547
   51bbb     H2 1533   9.623   7.222   4.732 -0.8832 -0.5029 -0.0315
   51bbb     C2 1534   9.776   7.439   4.751 -0.8522 -0.4467 -0.8110
   51bbb     H3 1535   9.685   7.483   4.710 -1.2856 -0.7869 -0.2185
   51bbb     H4 1536   9.862   7.507   4.746 -2.0677  1.3028  0.6855
   51bbb     C3 1537   9.882   7.205   4.736 -0.3836  0.0647  0.6550
   51bbb     H5 1538   9.852   7.106   4.701  3.5064 -1.2853  0.6863
   51bbb     H6 1539   9.850   7.203   4.840  0.7392 -1.7649  1.0016
   51bbb     C4 1540  10.038   7.223   4.708  0.2402 -0.5583 -0.5969
   51bbb     H7 1541  10.072   7.326   4.729  0.5880 -0.5230 -1.2929
   51bbb     H8 1542  10.058   7.221   4.600  2.9050 -0.5623 -0.1797
   51bbb     C5 1543   9.633   7.160   4.518 -0.4164 -0.5815 -0.6542
   51bbb     H9 1544   9.534   7.111   4.512  0.6841 -2.9914 -0.3268
   51bbb    H10 1545   9.707   7.084   4.545  0.3302  0.4544  0.2929
   51bbb     C6 1546   9.751   7.425   4.905  1.0599 -0.4870 -0.2262
   51bbb    H11 1547   9.829   7.364   4.951  1.0656 -0.3268 -0.0206
   51bbb    H12 1548   9.662   7.367   4.931  1.8354 -2.1042 -1.0640
   51bbb     C7 1549  10.131   7.130   4.786 -0.1507 -0.1593 -0.1082
   51bbb    H13 1550  10.086   7.117   4.885  0.6222  0.2773  0.3078
   51bbb    H14 1551  10.223   7.186   4.800  1.4054 -2.5429 -0.2162
   51bbb     C8 1552   9.755   7.568   4.970  0.7853 -0.1777  0.0053
   51bbb    H15 1553   9.761   7.543   5.076  1.0956  2.4333  0.6597
   51bbb    H16 1554   9.837   7.630   4.933 -1.9060  2.4470 -2.1212
   51bbb     C9 1555   9.675   7.218   4.380 -0.2054 -0.0651  0.0552
   51bbb    H17 1556   9.781   7.193   4.363  0.1939  0.9730  0.9349
   51bbb    H18 1557   9.667   7.327   4.377  0.8579  0.0929  1.7635
   51bbb     O1 1558  10.156   7.011   4.712 -0.2950  0.8736 -0.3992
   51bbb    H19 1559   9.841   7.345   4.579  0.4789 -0.8934  0.2243
   52bbb     N1 1560  11.896   4.683   4.854  0.5817 -0.1023 -0.2032
   52bbb     C1 1561  11.814   4.549   4.816  0.0527  0.2324  0.0859
   52bbb     H1 1562  11.822   4.532   4.709 -0.0791  0.7968 -0.0159
   52bbb     H2 1563  11.709   4.566   4.838 -0.7622 -2.4871 -1.3936
   52bbb     C2 1564  12.049   4.677   4.838  0.8315  0.4708 -0.2227
   52bbb     H3 1565  12.092   4.604   4.907  1.7693  0.6714 -0.5882
   52bbb     H4 1566  12.089   4.771   4.874  1.6496 -0.2779  0.8761
   52bbb     C3 1567  11.854   4.796   4.750  0.2344  0.1683 -0.4853
   52bbb     H5 1568  11.861   4.748   4.653  0.2428 -2.9352  0.9074
   52bbb     H6 1569  11.927   4.878   4.754  0.1296  0.2556 -0.3420
   52bbb     C4 1570  11.710   4.852   4.781 -0.6944  0.2171 -0.3080
   52bbb     H7 1571  11.643   4.776   4.824 -1.0710  0.3902 -0.5903
   52bbb     H8 1572  11.668   4.858   4.680  0.3236 -1.6729 -0.8818
   52bbb     C5 1573  11.852   4.419   4.888 -0.1607  0.1111 -0.7468
   52bbb     H9 1574  11.852   4.436   4.996  1.1212 -1.2083 -0.5085
   52bbb    H10 1575  11.950   4.381   4.857 -0.8522 -1.5592 -0.9894
   52bbb     C6 1576  12.108   4.656   4.691 -0.3216 -0.0881 -0.0672
   52bbb    H11 1577  12.087   4.734   4.616  0.4916  1.3716  1.1740
   52bbb    H12 1578  12.059   4.563   4.660  0.1153 -0.8850  1.5471
   52bbb     C7 1579  11.713   4.992   4.844  0.0024  0.0096  0.5156
   52bbb    H13 1580  11.789   5.049   4.789  2.7739 -1.6973  2.3136
   52bbb    H14 1581  11.747   4.995   4.948 -1.0600  0.2899  0.8619
   52bbb     C8 1582  12.256   4.620   4.710  0.1772 -0.5866  0.0441
   52bbb    H15 1583  12.320   4.701   4.745 -0.6294  0.0214  0.1403
   52bbb    H16 1584  12.258   4.537   4.782 -0.5269 -1.0673 -0.4758
   52bbb     C9 1585  11.738   4.313   4.855 -0.0558 -0.2619 -0.4014
   52bbb    H17 1586  11.738   4.295   4.747 -2.8581 -2.2410 -0.1882
   52bbb    H18 1587  11.641   4.353   4.887  0.4365  1.8326 -1.3122
   52bbb     O1 1588  11.581   5.061   4.832  1.2012  0.2489  0.2769
   52bbb    H19 1589  11.877   4.715   4.950 -0.1124 -0.3802 -0.2426
   53bbb     N1 1590  11.761   5.881   4.474  0.1473 -0.4242  0.0389
   53bbb     C1 1591  11.801   5.794   4.359 -0.1965  0.3078  1.4946
   53bbb     H1 1592  11.883   5.836   4.301 -0.4447 -2.9518 -1.5300
   53bbb     H2 1593  11.712   5.787   4.297  0.2302 -1.9772  1.0536
   53bbb     C2 1594  11.881   5.903   4.562  0.2496 -0.2828 -0.2544
   53bbb     H3 1595  11.952   5.967   4.510  1.0661  0.7795  2.0143
   53bbb     H4 1596  11.938   5.810   4.573  2.5975  1.0123 -0.7553
   53bbb     C3 1597  11.710   6.011   4.412 -0.1906 -0.5812  0.1624
   53bbb     H5 1598  11.751   6.035   4.314  1.1795  1.1745  1.1106
   53bbb     H6 1599  11.751   6.096   4.467 -0.4056 -0.8628  0.7779
   53bbb     C4 1600  11.556   6.021   4.414 -0.1326  0.0728  0.2126
   53bbb     H7 1601  11.516   5.959   4.333  0.1350  0.3558 -0.1361
   53bbb     H8 1602  11.534   6.120   4.373 -0.7874 -0.1786 -0.0571
   53bbb     C5 1603  11.842   5.648   4.402 -0.3836 -0.2739  0.4399
   53bbb     H9 1604  11.768   5.610   4.473 -1.3791 -0.2595 -0.5703
   53bbb    H10 1605  11.945   5.647   4.439  1.2047 -3.5432 -3.3987
   53bbb     C6 1606  11.848   5.962   4.698  0.7841 -0.3518  0.2884
   53bbb    H11 1607  11.807   5.876   4.752 -0.0471 -0.1977 -0.0689
   53bbb    H12 1608  11.769   6.038   4.692  1.5226  0.4509  0.5034
   53bbb     C7 1609  11.494   6.007   4.554  0.1589  0.8127  0.2457
   53bbb    H13 1610  11.389   6.038   4.557  0.2160  0.9474  1.2201
   53bbb    H14 1611  11.546   6.074   4.624 -2.8135  2.0811  1.3787
   53bbb     C8 1612  11.970   6.030   4.760  0.3403  0.1436  0.9688
   53bbb    H15 1613  11.950   6.069   4.860 -2.1443 -0.1532  0.6321
   53bbb    H16 1614  12.043   5.952   4.786 -2.9701 -3.6338 -0.0862
   53bbb     C9 1615  11.843   5.557   4.278 -0.1068  0.4072  0.6120
   53bbb    H17 1616  11.856   5.455   4.317 -0.5714  0.3683  0.6725
   53bbb    H18 1617  11.916   5.590   4.202 -0.0727 -1.2941 -0.1369
   53bbb     O1 1618  11.505   5.868   4.597  0.7443 -0.3998 -0.1538
   53bbb    H19 1619  11.686   5.845   4.534 -1.6805  1.6337 -0.8698
   54bbb     N1 1620  10.270   2.872   5.008 -1.1296  0.1313 -0.1164
   54bbb     C1 1621  10.308   2.728   5.048  0.3995  0.6865 -0.3732
   54bbb     H1 1622  10.262   2.668   4.970  0.8633  1.2855 -1.1114
   54bbb     H2 1623  10.254   2.695   5.138  0.8713 -1.0938 -0.7043
   54bbb     C2 1624  10.135   2.867   4.941 -0.5229  0.3575 -0.1683
   54bbb     H3 1625  10.088   2.958   4.979 -0.9698 -0.5527  1.5847
   54bbb     H4 1626  10.077   2.784   4.981  0.1321 -0.3250 -0.6234
   54bbb     C3 1627  10.269   2.960   5.125  0.1080 -0.2037 -0.5053
   54bbb     H5 1628  10.354   2.919   5.181 -0.0219 -1.1519 -0.9826
   54bbb     H6 1629  10.182   2.952   5.191  0.8994  0.0148  0.5932
   54bbb     C4 1630  10.291   3.110   5.090 -0.0163  0.2714  1.1983
   54bbb     H7 1631  10.202   3.156   5.045  0.5995  1.5860  1.2646
   54bbb     H8 1632  10.369   3.114   5.014 -1.8970 -1.2368 -0.9581
   54bbb     C5 1633  10.457   2.700   5.059  0.1787 -0.7964 -0.1375
   54bbb     H9 1634  10.503   2.780   5.119  0.0707 -0.1863 -0.8511
   54bbb    H10 1635  10.500   2.704   4.959 -1.0851 -0.7958 -0.7034
   54bbb     C6 1636  10.131   2.877   4.786 -0.4117  0.4001  0.1606
   54bbb    H11 1637  10.163   2.780   4.744  0.8567  1.0382 -0.4139
   54bbb    H12 1638  10.198   2.956   4.750  2.4254 -1.5413  0.7906
   54bbb     C7 1639  10.339   3.188   5.211 -0.1282 -0.3155  0.4848
   54bbb    H13 1640  10.365   3.293   5.189 -0.7651 -0.2692 -0.0633
   54bbb    H14 1641  10.428   3.146   5.259 -0.8126 -2.4529 -0.0543
   54bbb     C8 1642   9.992   2.917   4.725 -0.2146  0.2950  0.2765
   54bbb    H15 1643   9.988   2.896   4.617  0.1081  1.0301  0.1186
   54bbb    H16 1644   9.913   2.851   4.764 -0.9737 -0.7201 -2.6987
   54bbb     C9 1645  10.496   2.560   5.110  0.1276  0.2998 -0.0941
   54bbb    H17 1646  10.432   2.538   5.197  1.5644 -1.4009  0.6124
   54bbb    H18 1647  10.600   2.547   5.143  0.6592  0.9160 -1.4566
   54bbb     O1 1648  10.232   3.186   5.302 -0.0955  0.3595  0.1433
   54bbb    H19 1649  10.333   2.911   4.937 -0.6837  1.3677  0.9314
   55bbb     N1 1650   9.857   3.131   6.287  0.3501 -0.2331  0.4076
   55bbb     C1 1651   9.995   3.101   6.337  1.4074 -0.4794 -0.0613
   55bbb     H1 1652   9.977   3.030   6.417 -2.0814 -1.6184 -1.6930
   55bbb     H2 1653  10.041   3.192   6.376  0.0559 -0.2866  1.1694
   55bbb     C2 1654   9.784   3.217   6.392 -0.2580  0.0888  0.0338
   55bbb     H3 1655   9.794   3.153   6.480  0.9748 -2.0918 -1.5912
   55bbb     H4 1656   9.681   3.239   6.364  0.2708  2.6364 -0.1251
   55bbb     C3 1657   9.864   3.212   6.161  0.0975 -0.1767  0.0807
   55bbb     H5 1658   9.917   3.156   6.083 -0.8622  1.1318 -1.5835
   55bbb     H6 1659   9.919   3.306   6.170  0.0767  0.1696 -2.5764
   55bbb     C4 1660   9.734   3.251   6.091 -0.1179  0.2266 -0.2282
   55bbb     H7 1661   9.684   3.332   6.145  2.4130  3.2998 -2.1170
   55bbb     H8 1662   9.663   3.167   6.095  0.2451 -0.1977 -1.8763
   55bbb     C5 1663  10.096   3.043   6.237 -0.5378  0.5648 -0.0024
   55bbb     H9 1664  10.112   3.099   6.144  2.8121 -0.8241 -0.4138
   55bbb    H10 1665  10.049   2.949   6.206  0.6167 -0.2432  0.6172
   55bbb     C6 1666   9.854   3.350   6.428  0.3946  0.6457 -0.0741
   55bbb    H11 1667   9.868   3.412   6.338  0.7009  0.0679 -0.4345
   55bbb    H12 1668   9.956   3.331   6.462  0.0257 -0.2765  0.5423
   55bbb     C7 1669   9.764   3.287   5.945 -0.0719 -0.0898 -0.4742
   55bbb    H13 1670   9.811   3.385   5.935  0.5857 -0.4389 -0.8592
   55bbb    H14 1671   9.668   3.293   5.891  0.6616 -1.8739 -2.1121
   55bbb     C8 1672   9.764   3.410   6.542  0.1656 -0.5734  0.2747
   55bbb    H15 1673   9.690   3.336   6.576 -1.5820  0.6980 -0.6343
   55bbb    H16 1674   9.826   3.430   6.631 -0.4460 -0.0253  0.5824
   55bbb     C9 1675  10.233   3.020   6.303 -0.4061  0.6127  0.4159
   55bbb    H17 1676  10.265   3.115   6.348  0.3616  1.3157 -1.5372
   55bbb    H18 1677  10.304   2.991   6.225 -1.1289 -1.8270  0.5839
   55bbb     O1 1678   9.836   3.181   5.865 -0.3962  0.1106 -0.6904
   55bbb    H19 1679   9.804   3.043   6.275 -0.8413  0.4042  0.7860
   56bbb     N1 1680   8.600   2.708   5.185  0.6200 -0.4496 -0.2014
   56bbb     C1 1681   8.668   2.605   5.089 -0.2215  0.1929  0.3881
   56bbb     H1 1682   8.749   2.576   5.156 -0.0884  1.9051  1.0262
   56bbb     H2 1683   8.696   2.670   5.006 -0.4410  1.5449  1.3436
   56bbb     C2 1684   8.528   2.648   5.306  0.1521 -0.2532  0.0435
   56bbb     H3 1685   8.606   2.606   5.369 -0.4237 -2.5571 -0.7079
   56bbb     H4 1686   8.463   2.564   5.283  0.2027 -0.5310  0.8916
   56bbb     C3 1687   8.705   2.801   5.241  0.5392 -1.0323 -0.0136
   56bbb     H5 1688   8.784   2.731   5.271  1.4691 -0.0139 -0.0259
   56bbb     H6 1689   8.661   2.862   5.319  0.3853 -2.3188  0.9387
   56bbb     C4 1690   8.775   2.897   5.135 -0.1618  0.0718 -0.1650
   56bbb     H7 1691   8.711   2.973   5.089  0.2563 -0.1357 -1.1289
   56bbb     H8 1692   8.817   2.840   5.050  2.0403 -1.5312  1.8450
   56bbb     C5 1693   8.583   2.485   5.039 -0.6253  0.7367 -0.0478
   56bbb     H9 1694   8.509   2.518   4.966 -0.1517  2.0468  0.0403
   56bbb    H10 1695   8.543   2.429   5.124  0.5333  0.7523  0.5344
   56bbb     C6 1696   8.456   2.744   5.407 -0.2720  0.6024  0.8501
   56bbb    H11 1697   8.532   2.806   5.455  2.2643 -2.4515  1.0589
   56bbb    H12 1698   8.416   2.676   5.484  1.6506 -0.8864  0.6072
   56bbb     C7 1699   8.897   2.965   5.213  0.3203 -0.5720  0.0203
   56bbb    H13 1700   8.962   2.884   5.250  0.9022 -0.8941 -1.6052
   56bbb    H14 1701   8.867   3.022   5.301  1.4265  1.2765 -0.7412
   56bbb     C8 1702   8.352   2.829   5.346 -0.7277  0.0443  0.3140
   56bbb    H15 1703   8.310   2.895   5.422 -0.1663  0.9169 -0.1181
   56bbb    H16 1704   8.400   2.889   5.268  0.2762 -1.7532 -0.5252
   56bbb     C9 1705   8.674   2.383   4.966 -0.6139  0.6385 -0.2031
   56bbb    H17 1706   8.722   2.431   4.880 -1.4129 -1.1748 -1.7213
   56bbb    H18 1707   8.613   2.298   4.936 -0.9992  0.4755  0.9830
   56bbb     O1 1708   8.963   3.049   5.119  0.5031  0.4000  0.7665
   56bbb    H19 1709   8.524   2.755   5.133  0.4864 -1.3614 -0.8621
   57bbb     N1 1710   8.589   3.786   4.661  0.5437  0.6147 -1.2937
   57bbb     C1 1711   8.640   3.869   4.779  0.2553 -0.5028  0.1787
   57bbb     H1 1712   8.576   3.957   4.778  1.4901  0.4695 -2.3208
   57bbb     H2 1713   8.741   3.896   4.748  0.3109 -1.8231 -0.9145
   57bbb     C2 1714   8.579   3.865   4.531 -0.6105 -0.3020 -0.2090
   57bbb     H3 1715   8.543   3.794   4.457 -1.0197 -1.8204  1.3788
   57bbb     H4 1716   8.682   3.892   4.510 -1.6191  1.9019 -2.9775
   57bbb     C3 1717   8.689   3.670   4.645  0.2223 -1.0096  0.0229
   57bbb     H5 1718   8.732   3.625   4.735 -0.3678  2.1489  2.0261
   57bbb     H6 1719   8.776   3.718   4.601 -0.1846  0.1875  0.4811
   57bbb     C4 1720   8.641   3.558   4.553 -0.8753  0.1332 -0.3121
   57bbb     H7 1721   8.620   3.588   4.449 -0.5206  0.7129 -0.2207
   57bbb     H8 1722   8.542   3.533   4.595 -0.4274 -0.9400  0.1386
   57bbb     C5 1723   8.637   3.797   4.918 -0.6894  0.0438 -0.1903
   57bbb     H9 1724   8.714   3.719   4.921 -0.4684  0.2745  1.2083
   57bbb    H10 1725   8.547   3.738   4.940 -0.7423  0.7360  1.6121
   57bbb     C6 1726   8.481   3.986   4.545  0.4640 -0.2584 -0.1373
   57bbb    H11 1727   8.504   4.056   4.627  0.9676 -1.0294  0.3923
   57bbb    H12 1728   8.385   3.937   4.564  0.9066 -1.8694 -1.7531
   57bbb     C7 1729   8.736   3.434   4.568 -0.8621  0.1094  0.1321
   57bbb    H13 1730   8.827   3.471   4.518 -1.5484  1.4729 -0.1577
   57bbb    H14 1731   8.690   3.351   4.513 -0.7466 -0.9185  1.5315
   57bbb     C8 1732   8.461   4.069   4.422  0.9528  0.6975 -0.0127
   57bbb    H15 1733   8.385   4.148   4.432  0.3190  0.7846 -3.9278
   57bbb    H16 1734   8.552   4.124   4.395 -0.2623  2.3566 -0.9063
   57bbb     C9 1735   8.672   3.890   5.031 -0.7059 -0.1644  0.2615
   57bbb    H17 1736   8.764   3.944   5.008  1.8981 -3.2173  2.7348
   57bbb    H18 1737   8.707   3.847   5.125  2.3008  1.0709 -0.1786
   57bbb     O1 1738   8.758   3.406   4.709  0.4521  0.0772  0.2120
   57bbb    H19 1739   8.502   3.740   4.691  1.2836  0.6800  1.2017
   58bbb     N1 1740   8.433   3.671   7.351 -0.7121  0.1375  0.0512
   58bbb     C1 1741   8.290   3.618   7.373  0.2772  0.3998 -0.4208
   58bbb     H1 1742   8.217   3.679   7.318  0.3703  2.1645  1.3121
   58bbb     H2 1743   8.261   3.640   7.476 -0.5588  0.8019 -0.7295
   58bbb     C2 1744   8.470   3.683   7.205 -0.2605 -0.0717  0.2725
   58bbb     H3 1745   8.480   3.581   7.168 -0.3929  0.7222 -2.1583
   58bbb     H4 1746   8.572   3.722   7.198  1.4652 -4.1099 -0.2411
   58bbb     C3 1747   8.432   3.808   7.399  0.6892 -0.5254  0.5741
   58bbb     H5 1748   8.332   3.850   7.380  0.9247 -1.2431 -2.9591
   58bbb     H6 1749   8.494   3.878   7.342  0.2749  2.0093  3.0261
   58bbb     C4 1750   8.461   3.830   7.548  0.6097 -0.2007 -0.0178
   58bbb     H7 1751   8.549   3.776   7.583  0.8751 -0.6040 -1.2468
   58bbb     H8 1752   8.378   3.790   7.607 -1.6564  1.0672 -2.1335
   58bbb     C5 1753   8.275   3.468   7.336 -0.0680 -0.1996 -0.8376
   58bbb     H9 1754   8.337   3.410   7.405  0.3552  0.1016 -0.9556
   58bbb    H10 1755   8.301   3.444   7.232  0.7803  3.6701 -1.6967
   58bbb     C6 1756   8.371   3.760   7.110 -0.6739  0.1563 -0.6797
   58bbb    H11 1757   8.364   3.860   7.155  1.3334 -0.1595  0.4670
   58bbb    H12 1758   8.268   3.724   7.113 -1.6596  2.7356 -0.7688
   58bbb     C7 1759   8.481   3.977   7.586 -0.5958 -0.3005 -0.5627
   58bbb    H13 1760   8.587   3.993   7.562 -0.1263 -2.6139 -0.3153
   58bbb    H14 1761   8.486   3.991   7.695 -0.7943  0.1018 -0.6050
   58bbb     C8 1762   8.410   3.751   6.963 -0.3399 -0.5075 -0.5192
   58bbb    H15 1763   8.330   3.808   6.915  2.6379  2.2119 -2.6625
   58bbb    H16 1764   8.509   3.797   6.950 -0.3111  0.3280  2.0166
   58bbb     C9 1765   8.127   3.430   7.367 -0.2090 -0.1177  0.3647
   58bbb    H17 1766   8.103   3.442   7.474  0.3798  3.4837  0.1927
   58bbb    H18 1767   8.113   3.327   7.332  2.2195  0.2158 -1.8631
   58bbb     O1 1768   8.391   4.073   7.516  0.1194 -0.0046  0.5210
   58bbb    H19 1769   8.497   3.600   7.390 -2.1634 -2.6841 -2.2888
   59bbb     N1 1770   8.453   5.093   7.358 -0.2449 -0.0718  0.7409
   59bbb     C1 1771   8.450   5.113   7.506  0.2187  0.1839 -0.2775
   59bbb     H1 1772   8.509   5.201   7.532 -0.1163  0.1160  0.7585
   59bbb     H2 1773   8.498   5.025   7.549 -0.0371 -0.8348 -1.9786
   59bbb     C2 1774   8.594   5.113   7.302  0.3129  0.0560  0.2223
   59bbb     H3 1775   8.585   5.100   7.194  0.1799 -0.2747  0.2740
   59bbb     H4 1776   8.660   5.030   7.325 -0.1995 -0.7123 -0.9692
   59bbb     C3 1777   8.403   4.958   7.325 -1.0099  0.1423 -0.0787
   59bbb     H5 1778   8.333   4.926   7.402  0.8830 -1.6407  0.9651
   59bbb     H6 1779   8.488   4.892   7.337 -0.0070  1.6526  1.6665
   59bbb     C4 1780   8.358   4.939   7.183 -0.2293 -0.2038  0.7018
   59bbb     H7 1781   8.439   4.953   7.111 -0.4928  1.3909  0.6809
   59bbb     H8 1782   8.287   5.018   7.156  0.6235 -0.4822 -2.7227
   59bbb     C5 1783   8.313   5.119   7.578 -0.4732  0.3576 -0.3035
   59bbb     H9 1784   8.312   5.100   7.686 -2.1090  0.5258 -0.2591
   59bbb    H10 1785   8.248   5.037   7.547 -1.2343  0.3255  1.2756
   59bbb     C6 1786   8.652   5.253   7.326 -0.3582 -0.7147 -0.1051
   59bbb    H11 1787   8.666   5.268   7.434 -1.4846 -1.3487  0.1395
   59bbb    H12 1788   8.597   5.342   7.295  0.6562  0.1895  0.6172
   59bbb     C7 1789   8.297   4.799   7.173 -0.4599  0.1431  0.2806
   59bbb    H13 1790   8.268   4.795   7.067 -1.9701  0.7459  0.6412
   59bbb    H14 1791   8.210   4.795   7.240 -0.9428  1.5304 -0.2138
   59bbb     C8 1792   8.790   5.261   7.249  0.3460 -0.8549  0.3863
   59bbb    H15 1793   8.851   5.346   7.282 -0.3091  0.2791 -1.1634
   59bbb    H16 1794   8.847   5.170   7.272  1.6378 -0.2851 -0.4690
   59bbb     C9 1795   8.243   5.256   7.550 -0.0536  0.9176 -0.5832
   59bbb    H17 1796   8.146   5.253   7.601 -0.1122  1.0931 -0.6817
   59bbb    H18 1797   8.226   5.249   7.441  2.2171 -1.6799 -0.8891
   59bbb     O1 1798   8.395   4.689   7.197  0.1271 -0.3406  0.2454
   59bbb    H19 1799   8.396   5.168   7.317 -0.6143 -0.2639  0.8960
   60bbb     N1 1800   9.073   4.387   8.086  0.1085 -0.1465 -0.1596
   60bbb     C1 1801   9.006   4.331   8.222 -0.9334 -1.0564  0.1457
   60bbb     H1 1802   9.007   4.413   8.294  0.5864 -2.4461  1.8036
   60bbb     H2 1803   9.066   4.246   8.255  1.0422  0.2275  0.0161
   60bbb     C2 1804   9.023   4.526   8.051  0.1347 -0.4136 -0.2437
   60bbb     H3 1805   9.098   4.568   7.983  2.1038 -0.2853  1.8703
   60bbb     H4 1806   9.022   4.588   8.140 -1.4617 -0.4046 -0.2522
   60bbb     C3 1807   9.225   4.393   8.096 -0.1076  0.4349  0.0381
   60bbb     H5 1808   9.253   4.456   8.180 -2.3487 -0.0654  1.2238
   60bbb     H6 1809   9.268   4.435   8.005  1.3632 -0.7321  0.1468
   60bbb     C4 1810   9.296   4.255   8.111 -0.4979  0.4929  0.1255
   60bbb     H7 1811   9.269   4.182   8.034 -0.5405 -0.0620  0.6601
   60bbb     H8 1812   9.257   4.197   8.195 -0.8551  1.6510  0.7923
   60bbb     C5 1813   8.862   4.274   8.210  0.1695  0.2149  0.2781
   60bbb     H9 1814   8.843   4.244   8.106 -0.5222 -0.3101  0.5446
   60bbb    H10 1815   8.796   4.357   8.237  0.8604 -0.0224  3.0707
   60bbb     C6 1816   8.887   4.529   7.984 -0.6848 -1.0889 -0.0191
   60bbb    H11 1817   8.811   4.493   8.054 -1.5767 -2.2856 -1.5616
   60bbb    H12 1818   8.874   4.465   7.897  1.5792 -0.0751 -1.1919
   60bbb     C7 1819   9.449   4.271   8.130  0.2765  0.0648  0.4503
   60bbb    H13 1820   9.484   4.172   8.162 -1.4407  0.1859  2.9799
   60bbb    H14 1821   9.482   4.343   8.205  2.3589  1.5173 -1.7158
   60bbb     C8 1822   8.835   4.676   7.968 -0.0748 -0.0671  0.2406
   60bbb    H15 1823   8.894   4.728   7.892 -0.1449  0.4673  0.5470
   60bbb    H16 1824   8.729   4.669   7.940  0.4016  0.5982 -1.8733
   60bbb     C9 1825   8.828   4.164   8.309 -0.4073  0.3572  0.1762
   60bbb    H17 1826   8.847   4.190   8.414  2.3408 -2.3920  0.5024
   60bbb    H18 1827   8.908   4.092   8.287 -0.2033  0.1929  1.3928
   60bbb     O1 1828   9.492   4.307   7.998  0.7767 -0.0600  0.2400
   60bbb    H19 1829   9.041   4.335   8.004 -2.7651  1.9779 -0.5518
   61bbb     N1 1830  10.121   4.377   7.866  0.3664  0.3629  0.4732
   61bbb     C1 1831  10.270   4.391   7.870  0.8265  0.0131 -0.2719
   61bbb     H1 1832  10.306   4.312   7.936  0.7352  0.9383  0.9044
   61bbb     H2 1833  10.297   4.487   7.914 -0.6181  0.1992  0.2323
   61bbb     C2 1834  10.068   4.376   8.009 -0.7776 -0.1415  0.3694
   61bbb     H3 1835   9.961   4.397   8.000 -0.8547 -0.1640  1.1452
   61bbb     H4 1836  10.117   4.455   8.066 -1.5523  0.7864 -0.2108
   61bbb     C3 1837  10.058   4.492   7.791  0.1707  0.3826  0.2213
   61bbb     H5 1838  10.129   4.574   7.802  2.4552 -1.5284  0.5931
   61bbb     H6 1839   9.969   4.523   7.846  0.3376  0.6611  0.3397
   61bbb     C4 1840  10.030   4.458   7.640 -0.0806 -0.1659  0.2948
   61bbb     H7 1841   9.964   4.371   7.632  2.5054 -2.2740  0.3247
   61bbb     H8 1842  10.129   4.442   7.595  1.2323  3.0156  1.7030
   61bbb     C5 1843  10.361   4.364   7.741  0.0512 -0.4402 -0.1188
   61bbb     H9 1844  10.350   4.442   7.664 -0.8982 -0.9604 -0.5183
   61bbb    H10 1845  10.324   4.272   7.695 -2.1751  0.7580 -0.8619
   61bbb     C6 1846  10.087   4.251   8.095 -0.3884  0.0624 -0.6275
   61bbb    H11 1847  10.189   4.215   8.078 -0.6378 -1.1533  0.4235
   61bbb    H12 1848  10.020   4.175   8.052 -0.3555 -0.2520 -0.1170
   61bbb     C7 1849   9.968   4.579   7.566 -0.2226 -0.1278  0.3024
   61bbb    H13 1850   9.962   4.542   7.463 -0.3120 -1.3800  0.7336
   61bbb    H14 1851  10.031   4.668   7.556 -2.3699  1.3013 -1.7576
   61bbb     C8 1852  10.061   4.266   8.243  0.5737 -0.7547  0.1941
   61bbb    H15 1853  10.067   4.168   8.292 -0.9576 -2.0056 -1.9240
   61bbb    H16 1854  10.128   4.346   8.275  0.2415  0.4019 -1.8311
   61bbb     C9 1855  10.507   4.339   7.764  0.1298 -0.0231 -0.3402
   61bbb    H17 1856  10.567   4.426   7.794 -0.3290 -0.3810  1.8169
   61bbb    H18 1857  10.543   4.303   7.667 -1.5565 -0.1654 -0.9334
   61bbb     O1 1858   9.834   4.612   7.601  0.4744  0.1409  0.1484
   61bbb    H19 1859  10.093   4.284   7.832 -0.6359  0.9910 -0.5099
   62ccc     C1 1860   9.540   5.816   3.545  0.3818  0.5757  0.3066
   62ccc     H1 1861   9.456   5.884   3.560 -0.7533 -0.6989 -0.1677
   62ccc     H2 1862   9.543   5.776   3.443  1.1977  2.1756 -0.3469
   62ccc     C2 1863   9.509   5.722   3.649  0.3114  0.3531  0.0290
   62ccc     H3 1864   9.588   5.646   3.662  0.6104  0.3017 -1.8237
   62ccc     H4 1865   9.504   5.761   3.752  1.7914 -0.6466  0.5106
   62ccc     C3 1866   9.371   5.650   3.619  0.1835  0.0453  0.5504
   62ccc     H5 1867   9.292   5.725   3.606 -1.4237 -1.6649 -0.1119
   62ccc     H6 1868   9.351   5.579   3.701 -0.2620  0.4433  0.7895
   62ccc     N1 1869   9.666   5.894   3.586  0.2176 -0.0748 -0.4092
   62ccc     H7 1870   9.698   5.973   3.527  0.9690 -0.2661 -0.2672
   62ccc     H8 1871   9.640   5.931   3.679  0.0533 -2.1188  0.4113
   62ccc     O1 1872   9.376   5.574   3.498  0.0356  0.1734  0.1391
   62ccc    H17 1873   9.745   5.828   3.591  1.4606  1.4141  1.5633
   63ccc     C1 1874   9.588   4.944   2.872  0.0602 -0.5410 -0.6681
   63ccc     H1 1875   9.494   4.997   2.887 -0.1573 -1.1538  0.2141
   63ccc     H2 1876   9.617   4.893   2.964 -0.3506  1.0273  0.3757
   63ccc     C2 1877   9.706   5.034   2.831 -0.3448 -0.3890 -0.4811
   63ccc     H3 1878   9.800   4.977   2.828  0.3655  0.6504  0.8803
   63ccc     H4 1879   9.684   5.071   2.730 -1.2519  1.2419  0.2831
   63ccc     C3 1880   9.729   5.156   2.924  0.1262 -0.0793 -0.3698
   63ccc     H5 1881   9.805   5.224   2.885  0.0638  1.3004  1.7307
   63ccc     H6 1882   9.752   5.129   3.028  0.0470 -2.0938 -0.8204
   63ccc     N1 1883   9.559   4.838   2.759 -0.1415 -0.0574 -0.0748
   63ccc     H7 1884   9.635   4.773   2.737 -0.8502 -0.8740 -0.1553
   63ccc     H8 1885   9.478   4.776   2.774  1.3373 -2.9046 -2.7730
   63ccc     O1 1886   9.606   5.232   2.920 -0.1534 -0.2415 -0.5854
   63ccc    H17 1887   9.553   4.889   2.669 -1.3928  0.1959  0.1328
   64ccc     C1 1888   9.524   5.451   4.448  0.5536  0.5203 -0.0970
   64ccc     H1 1889   9.531   5.471   4.341 -2.3290 -0.2909 -0.5431
   64ccc     H2 1890   9.486   5.349   4.457 -0.7387  0.7679 -2.0809
   64ccc     C2 1891   9.414   5.537   4.517 -0.0237 -0.6719  0.2860
   64ccc     H3 1892   9.427   5.541   4.625  2.4437 -3.3969  0.2270
   64ccc     H4 1893   9.434   5.639   4.482 -0.5607 -0.1477  1.4717
   64ccc     C3 1894   9.272   5.492   4.485  0.2145 -0.3408 -0.1045
   64ccc     H5 1895   9.240   5.515   4.383 -1.7421 -0.9648  0.3336
   64ccc     H6 1896   9.207   5.562   4.539  0.0009 -0.1207 -0.6455
   64ccc     N1 1897   9.662   5.450   4.508 -0.0756  0.4438  0.0925
   64ccc     H7 1898   9.724   5.374   4.478 -0.7136 -0.2565  0.5072
   64ccc     H8 1899   9.714   5.537   4.491  0.9256  0.4360  2.6708
   64ccc     O1 1900   9.252   5.354   4.503 -0.6277 -0.2214 -0.9224
   64ccc    H17 1901   9.650   5.453   4.610  1.2487 -0.0625  0.2746
   65ccc     C1 1902   9.484   4.740   4.773  0.4058  0.4089  0.2472
   65ccc     H1 1903   9.441   4.804   4.696 -0.6773 -3.1831 -2.3736
   65ccc     H2 1904   9.495   4.635   4.746  2.7905 -0.0908  2.6939
   65ccc     C2 1905   9.398   4.755   4.898  0.0421  0.1764  0.3165
   65ccc     H3 1906   9.444   4.705   4.984  0.7278 -1.0893 -0.7426
   65ccc     H4 1907   9.378   4.862   4.909 -0.2441  0.2307 -0.6018
   65ccc     C3 1908   9.257   4.696   4.875 -0.3466  0.2878 -0.3723
   65ccc     H5 1909   9.198   4.700   4.968  0.3806  0.8293  0.0781
   65ccc     H6 1910   9.261   4.592   4.840 -0.4271  0.2128 -0.1642
   65ccc     N1 1911   9.623   4.791   4.802  0.1492  0.4105 -0.2681
   65ccc     H7 1912   9.688   4.770   4.725  0.2386 -2.0396  0.3606
   65ccc     H8 1913   9.619   4.883   4.848 -0.2376 -0.0776  0.6987
   65ccc     O1 1914   9.186   4.776   4.778 -0.2743  0.2764  0.5770
   65ccc    H17 1915   9.662   4.725   4.872 -1.5227 -0.2924  0.0550
   66ccc     C1 1916   5.976   3.712   4.133  1.1712  0.3941  0.1124
   66ccc     H1 1917   5.934   3.813   4.138  0.2727  0.1933 -2.2573
   66ccc     H2 1918   6.009   3.689   4.234  2.8376 -1.9595 -0.8681
   66ccc     C2 1919   6.094   3.707   4.030  0.1800  0.1661  0.2690
   66ccc     H3 1920   6.129   3.603   4.018  0.2474  0.3021 -0.8226
   66ccc     H4 1921   6.051   3.744   3.936 -2.1599  2.6755  2.1788
   66ccc     C3 1922   6.212   3.789   4.088 -0.5618 -0.5579  0.3062
   66ccc     H5 1923   6.254   3.737   4.174  3.2296  1.8692  0.1368
   66ccc     H6 1924   6.177   3.889   4.114 -1.8712  0.2522 -3.7539
   66ccc     N1 1925   5.861   3.617   4.110  0.0296 -0.2231 -0.1036
   66ccc     H7 1926   5.803   3.658   4.035  0.4437  1.3511  0.4161
   66ccc     H8 1927   5.894   3.522   4.086  2.2231  1.0293 -2.4504
   66ccc     O1 1928   6.316   3.806   3.995 -0.4102  0.1339  0.1931
   66ccc    H17 1929   5.803   3.618   4.196  1.0530 -2.4824  0.6940
   67ccc     C1 1930   6.752   3.937   3.057  0.3156 -0.1741 -0.2026
   67ccc     H1 1931   6.811   4.009   3.001 -0.6726  0.7244 -0.1187
   67ccc     H2 1932   6.652   3.972   3.085  1.4315  2.0679  1.2015
   67ccc     C2 1933   6.834   3.898   3.186  0.0886  0.4630  0.5436
   67ccc     H3 1934   6.911   3.830   3.147  0.0070  0.7046 -0.0392
   67ccc     H4 1935   6.884   3.987   3.227  0.4256  1.1668 -1.2898
   67ccc     C3 1936   6.753   3.827   3.293 -0.2456  0.4030  0.9458
   67ccc     H5 1937   6.810   3.791   3.379  0.4457 -1.7252 -0.3294
   67ccc     H6 1938   6.710   3.740   3.242 -1.9997  1.0958  1.1671
   67ccc     N1 1939   6.731   3.825   2.962 -0.0338  0.1185  0.6898
   67ccc     H7 1940   6.676   3.859   2.882  0.9190  1.1713  0.4561
   67ccc     H8 1941   6.820   3.793   2.923 -0.2136 -0.0702  0.4345
   67ccc     O1 1942   6.643   3.909   3.347  0.3049  0.1933  0.2833
   67ccc    H17 1943   6.679   3.742   2.994  1.0310 -1.2269 -0.9053
   68ccc     C1 1944   7.533   4.218   2.385 -0.7742  0.2799 -0.0223
   68ccc     H1 1945   7.441   4.269   2.413 -1.9883 -1.1448 -1.2937
   68ccc     H2 1946   7.509   4.111   2.390  2.1053 -0.4780 -0.6072
   68ccc     C2 1947   7.662   4.237   2.472  0.0700  0.6787  0.3503
   68ccc     H3 1948   7.749   4.198   2.418 -1.4691 -0.5982 -1.3447
   68ccc     H4 1949   7.673   4.345   2.487  1.3760  0.4237  1.3963
   68ccc     C3 1950   7.642   4.170   2.609 -0.3110 -0.0863  0.0224
   68ccc     H5 1951   7.748   4.156   2.629 -0.2727 -0.2775 -0.3011
   68ccc     H6 1952   7.588   4.075   2.602 -1.0523  0.3586 -0.4969
   68ccc     N1 1953   7.572   4.261   2.244  0.4774  0.3356 -0.2704
   68ccc     H7 1954   7.499   4.246   2.173  1.4558 -0.9076 -1.0543
   68ccc     H8 1955   7.586   4.363   2.247  0.5795  0.2958  1.7347
   68ccc     O1 1956   7.570   4.266   2.686 -0.0240 -0.4303 -0.6520
   68ccc    H17 1957   7.655   4.209   2.212  0.0250  0.0233 -0.9665
   69ccc     C1 1958   7.534   3.756   3.445 -0.5836 -0.0933 -0.2326
   69ccc     H1 1959   7.506   3.752   3.339 -0.5798 -0.3308 -0.2248
   69ccc     H2 1960   7.454   3.718   3.509  0.0645  0.0724  0.6832
   69ccc     C2 1961   7.574   3.896   3.491  0.5521  0.7562 -0.3111
   69ccc     H3 1962   7.623   3.893   3.589 -0.5415  0.3772  0.2481
   69ccc     H4 1963   7.650   3.928   3.419  0.7210 -0.0167 -0.4872
   69ccc     C3 1964   7.447   3.991   3.487 -0.4764  0.4088 -0.0749
   69ccc     H5 1965   7.468   4.085   3.538 -4.4760  1.5158 -0.0833
   69ccc     H6 1966   7.369   3.939   3.545 -1.4553  2.0186  0.1228
   69ccc     N1 1967   7.652   3.664   3.460 -0.0287  0.1318 -0.0014
   69ccc     H7 1968   7.623   3.567   3.437 -3.3618  0.8087  0.7898
   69ccc     H8 1969   7.729   3.703   3.404 -1.5307  1.1954 -1.4217
   69ccc     O1 1970   7.398   4.015   3.355 -0.2631  0.5298 -0.2498
   69ccc    H17 1971   7.684   3.656   3.557  0.7333 -1.5094 -0.3513
   70ccc     C1 1972   7.720   7.670   3.515 -0.3177  0.2166 -0.0797
   70ccc     H1 1973   7.674   7.725   3.432 -0.4460  2.0129  1.1287
   70ccc     H2 1974   7.793   7.595   3.486 -1.0500 -0.2693 -0.7353
   70ccc     C2 1975   7.602   7.595   3.580 -0.7979  0.5308 -0.1745
   70ccc     H3 1976   7.620   7.558   3.681 -2.6568  1.9372  0.7382
   70ccc     H4 1977   7.514   7.661   3.575  0.8793  3.0293  1.0608
   70ccc     C3 1978   7.572   7.472   3.492  0.1454 -0.1880  0.1939
   70ccc     H5 1979   7.571   7.501   3.386  4.3588  0.7137  0.2033
   70ccc     H6 1980   7.478   7.420   3.511  0.5071 -0.3333  1.7789
   70ccc     N1 1981   7.780   7.780   3.593  0.6193 -0.4892  0.7821
   70ccc     H7 1982   7.852   7.754   3.663  0.8713 -1.6175  0.1191
   70ccc     H8 1983   7.822   7.854   3.536  1.4256 -0.6186  1.1880
   70ccc     O1 1984   7.684   7.372   3.487  0.4643  0.1203  0.2056
   70ccc    H17 1985   7.700   7.826   3.638 -1.8414 -0.8403 -2.8319
   71ccc     C1 1986   8.100   7.142   2.660 -0.2072  0.4333 -0.5022
   71ccc     H1 1987   8.041   7.158   2.570  1.3952  0.8726 -1.5192
   71ccc     H2 1988   8.053   7.056   2.708  1.0751 -1.4741 -2.4972
   71ccc     C2 1989   8.075   7.260   2.748  0.1766  0.0923 -0.0610
   71ccc     H3 1990   8.107   7.344   2.684  1.9297  0.1825  0.8628
   71ccc     H4 1991   7.967   7.273   2.756  0.1717  1.2617 -1.5598
   71ccc     C3 1992   8.155   7.264   2.876  0.2346  0.2869  0.7601
   71ccc     H5 1993   8.129   7.360   2.922  0.8174  1.8593 -1.9915
   71ccc     H6 1994   8.261   7.255   2.848  0.0025  0.8220 -0.3350
   71ccc     N1 1995   8.245   7.112   2.620 -0.3964  0.8100 -0.1552
   71ccc     H7 1996   8.298   7.195   2.590  0.1387 -0.3380 -2.6318
   71ccc     H8 1997   8.299   7.054   2.685 -0.0365 -0.5523 -1.5934
   71ccc     O1 1998   8.122   7.150   2.952 -0.1868 -0.2799  0.0191
   71ccc    H17 1999   8.239   7.066   2.528 -0.8153  1.8057 -0.6503
   72ccc     C1 2000   7.275   5.589   3.433  0.0717 -0.0980  0.2874
   72ccc     H1 2001   7.173   5.622   3.451 -0.1273 -1.3108  1.5646
   72ccc     H2 2002   7.336   5.668   3.389 -0.7514  0.6251  0.4257
   72ccc     C2 2003   7.254   5.475   3.329  0.0358 -0.1567  0.2371
   72ccc     H3 2004   7.353   5.433   3.306 -0.4822 -1.2089 -0.1211
   72ccc     H4 2005   7.207   5.385   3.370 -3.9109 -0.6742 -4.4966
   72ccc     C3 2006   7.185   5.507   3.195 -0.1593 -0.0825  0.2122
   72ccc     H5 2007   7.078   5.521   3.210 -0.0950 -0.3257  0.9322
   72ccc     H6 2008   7.181   5.415   3.136 -1.0990  1.0397 -1.5790
   72ccc     N1 2009   7.327   5.545   3.565  0.0714 -0.6052  0.3569
   72ccc     H7 2010   7.423   5.507   3.568  1.3384  2.2693 -0.2391
   72ccc     H8 2011   7.336   5.624   3.631  1.1542 -0.2383 -0.2129
   72ccc     O1 2012   7.255   5.614   3.123 -0.5077  0.5021  0.0294
   72ccc    H17 2013   7.272   5.474   3.616 -0.6645 -0.0537  0.3471
   73ccc     C1 2014   7.567   6.478   2.372 -0.2763  0.8217  0.8682
   73ccc     H1 2015   7.627   6.458   2.283 -2.1508  0.1748 -0.3079
   73ccc     H2 2016   7.591   6.580   2.402 -0.5932  0.9893  0.5718
   73ccc     C2 2017   7.604   6.395   2.496 -0.0904  0.7151 -0.1304
   73ccc     H3 2018   7.607   6.288   2.472  0.8691  0.3649  1.3845
   73ccc     H4 2019   7.709   6.424   2.510  0.2639 -0.0510 -1.0995
   73ccc     C3 2020   7.517   6.419   2.624  1.0546 -0.5685  0.1597
   73ccc     H5 2021   7.413   6.430   2.592  1.3713  1.5792 -0.2463
   73ccc     H6 2022   7.554   6.509   2.675  2.4282 -1.7584  1.3637
   73ccc     N1 2023   7.421   6.476   2.339  0.8849  1.0106  0.1224
   73ccc     H7 2024   7.365   6.531   2.406  1.0159  0.6109  0.5725
   73ccc     H8 2025   7.406   6.523   2.249  2.5005 -0.0897 -0.7669
   73ccc     O1 2026   7.532   6.308   2.713  0.0891  0.7971 -0.5338
   73ccc    H17 2027   7.384   6.380   2.335  1.0955  0.9707 -1.2463
   74ccc     C1 2028   6.676   6.024   2.370  0.2281 -0.4934 -0.1291
   74ccc     H1 2029   6.682   5.925   2.414 -2.2819  0.1300  1.8543
   74ccc     H2 2030   6.763   6.079   2.335  0.8010  0.6371  2.8372
   74ccc     C2 2031   6.632   6.106   2.488  0.4030 -0.5686  0.3281
   74ccc     H3 2032   6.595   6.201   2.448  3.9015  0.1435 -1.6947
   74ccc     H4 2033   6.552   6.055   2.542  0.2723 -0.3807  0.3121
   74ccc     C3 2034   6.745   6.137   2.585 -0.3095 -0.0471 -0.4116
   74ccc     H5 2035   6.824   6.201   2.543 -0.4859 -0.2610 -1.0869
   74ccc     H6 2036   6.792   6.040   2.606  0.9346  0.5146 -0.5074
   74ccc     N1 2037   6.564   6.015   2.269  0.3699  0.5892 -0.2954
   74ccc     H7 2038   6.592   5.946   2.198 -0.0209 -1.2848  1.2733
   74ccc     H8 2039   6.471   5.992   2.305  0.1147 -2.2428 -2.4752
   74ccc     O1 2040   6.701   6.199   2.715  0.5994  0.5229  0.5812
   74ccc    H17 2041   6.550   6.109   2.229 -0.5824  0.3383 -0.5708
   75ccc     C1 2042   5.992   6.451   2.828 -0.2777  0.5969  0.8750
   75ccc     H1 2043   6.035   6.374   2.892 -0.0669 -1.8285 -1.9778
   75ccc     H2 2044   5.991   6.405   2.729 -1.1434  0.7242  0.8198
   75ccc     C2 2045   6.076   6.578   2.839  0.4468 -1.2780  0.7308
   75ccc     H3 2046   6.164   6.561   2.776  0.6349 -0.4890  0.7715
   75ccc     H4 2047   6.019   6.662   2.796  1.4942  0.5128  2.6978
   75ccc     C3 2048   6.119   6.609   2.986  0.0922 -0.3698  0.3888
   75ccc     H5 2049   6.044   6.644   3.058  0.3882 -0.0407  0.5403
   75ccc     H6 2050   6.187   6.694   2.973 -0.0319 -0.4361 -0.7672
   75ccc     N1 2051   5.852   6.454   2.874  0.0796  0.1285 -0.5609
   75ccc     H7 2052   5.800   6.367   2.853 -1.3970  1.4932 -3.0471
   75ccc     H8 2053   5.862   6.468   2.976  2.1136  0.0626 -0.7135
   75ccc     O1 2054   6.198   6.493   3.026  0.2143 -0.6554  0.0113
   75ccc    H17 2055   5.804   6.542   2.850 -1.2669  0.5458  2.9947
   76ccc     C1 2056   7.483   7.715   4.569  0.0981 -0.5220  0.2773
   76ccc     H1 2057   7.463   7.637   4.495 -0.9939 -0.4004  0.4217
   76ccc     H2 2058   7.502   7.672   4.668 -0.8957 -2.5813 -0.3632
   76ccc     C2 2059   7.356   7.798   4.585  0.3488  0.6492  0.1250
   76ccc     H3 2060   7.385   7.876   4.657  0.7703 -0.8153  1.6187
   76ccc     H4 2061   7.324   7.839   4.489  2.7961  2.2451 -0.0911
   76ccc     C3 2062   7.233   7.724   4.641 -0.0162  0.0797 -0.1950
   76ccc     H5 2063   7.181   7.799   4.702  0.9924 -0.0440  0.8551
   76ccc     H6 2064   7.267   7.652   4.716  0.2431 -0.8443 -1.1670
   76ccc     N1 2065   7.603   7.797   4.514 -0.2277 -0.3626 -0.0501
   76ccc     H7 2066   7.688   7.743   4.538 -1.0930 -1.2402  1.1389
   76ccc     H8 2067   7.609   7.829   4.416  0.7131  1.4682  0.5778
   76ccc     O1 2068   7.142   7.663   4.546  0.0210  0.1142  0.2043
   76ccc    H17 2069   7.618   7.882   4.569 -1.1308 -0.6571  0.6635
   77ccc     C1 2070   6.450   7.055   4.631 -0.0972  0.4080 -1.1140
   77ccc     H1 2071   6.452   6.966   4.695 -0.2249 -1.1173 -3.1350
   77ccc     H2 2072   6.553   7.079   4.606  0.4069 -1.1186 -0.5813
   77ccc     C2 2073   6.377   7.169   4.703 -0.0941  0.0639 -0.0836
   77ccc     H3 2074   6.275   7.141   4.729  0.8115  0.0439  4.1053
   77ccc     H4 2075   6.428   7.182   4.799 -2.9897  2.8446  1.2611
   77ccc     C3 2076   6.365   7.306   4.631 -0.4561 -0.3646  0.2684
   77ccc     H5 2077   6.319   7.384   4.693  1.1509 -1.0061  2.3835
   77ccc     H6 2078   6.311   7.290   4.536 -0.0337 -0.3574  0.0261
   77ccc     N1 2079   6.379   7.007   4.508 -0.7386 -0.3477 -0.1528
   77ccc     H7 2080   6.280   6.980   4.524 -1.1400  1.0134 -0.1827
   77ccc     H8 2081   6.374   7.078   4.434  1.4542 -0.6299 -0.6276
   77ccc     O1 2082   6.505   7.346   4.602  0.0902 -0.4676  0.0940
   77ccc    H17 2083   6.424   6.917   4.485 -0.0457 -0.6016  1.9939
   78ccc     C1 2084   6.934   7.026   6.688  0.4704 -0.1939 -0.7858
   78ccc     H1 2085   6.910   6.997   6.585 -0.4692  0.1259 -0.6678
   78ccc     H2 2086   6.851   7.091   6.719 -0.2983 -1.3491 -0.3406
   78ccc     C2 2087   7.063   7.119   6.698  0.0842 -0.2189  0.0263
   78ccc     H3 2088   7.037   7.220   6.662  5.0365  1.1757 -0.3889
   78ccc     H4 2089   7.086   7.142   6.802  0.0189 -1.8035  0.4082
   78ccc     C3 2090   7.190   7.077   6.625 -0.2445  0.2341  0.1649
   78ccc     H5 2091   7.174   7.083   6.517 -3.2236  0.2754  0.4986
   78ccc     H6 2092   7.205   6.973   6.656 -2.1787 -0.2581 -0.3760
   78ccc     N1 2093   6.942   6.898   6.760 -0.1187  0.4568 -0.0314
   78ccc     H7 2094   6.932   6.902   6.863  0.4197 -0.3360  0.0669
   78ccc     H8 2095   6.869   6.832   6.728  0.5458 -0.6447  0.6353
   78ccc     O1 2096   7.296   7.157   6.673 -0.7132 -0.2069  0.2127
   78ccc    H17 2097   7.027   6.843   6.738  0.7300  1.2993  1.0251
   79ccc     C1 2098   7.240   8.064   7.114 -0.1900 -0.1148  0.3739
   79ccc     H1 2099   7.213   8.152   7.056 -1.1789 -1.4043 -1.2289
   79ccc     H2 2100   7.316   8.095   7.185 -0.4199 -1.5363  1.2970
   79ccc     C2 2101   7.288   7.952   7.017  0.2317  0.6493 -0.9292
   79ccc     H3 2102   7.313   7.860   7.072 -0.0316  1.1650  0.0850
   79ccc     H4 2103   7.210   7.917   6.949 -1.1772 -1.7607  1.6887
   79ccc     C3 2104   7.410   7.988   6.935 -0.5603 -0.0467 -0.0472
   79ccc     H5 2105   7.486   8.046   6.988  1.7086 -1.6438 -1.3599
   79ccc     H6 2106   7.377   8.054   6.853 -0.8228 -1.3066 -0.9962
   79ccc     N1 2107   7.119   8.036   7.201 -0.0175 -0.8542  0.4619
   79ccc     H7 2108   7.041   7.996   7.148 -1.2209 -0.7186  2.0860
   79ccc     H8 2109   7.131   7.979   7.286 -1.1633  0.0604  1.2555
   79ccc     O1 2110   7.472   7.873   6.873 -0.1144  0.5001  0.6714
   79ccc    H17 2111   7.077   8.126   7.227  1.5567  1.0543 -2.8851
   80ccc     C1 2112   9.757   7.295   7.040 -0.2996 -0.0400  0.2681
   80ccc     H1 2113   9.798   7.197   7.068  0.9771  0.4856  0.2995
   80ccc     H2 2114   9.648   7.297   7.048 -0.4538  0.7587 -1.5685
   80ccc     C2 2115   9.785   7.336   6.897  0.3660  0.2959  0.1439
   80ccc     H3 2116   9.736   7.431   6.874 -2.0585 -0.3551  2.1760
   80ccc     H4 2117   9.894   7.346   6.893  0.5141 -0.7493  1.0820
   80ccc     C3 2118   9.745   7.223   6.796  0.1201  0.2004  0.5314
   80ccc     H5 2119   9.809   7.134   6.792 -0.7982 -0.4512 -0.3021
   80ccc     H6 2120   9.761   7.264   6.695 -1.2710  1.1711  0.6822
   80ccc     N1 2121   9.816   7.393   7.143 -0.0086  0.3368  0.0386
   80ccc     H7 2122   9.809   7.489   7.105 -1.0910  0.0247 -0.5667
   80ccc     H8 2123   9.764   7.395   7.232 -1.4415  0.0261 -0.7570
   80ccc     O1 2124   9.602   7.202   6.824  0.0439 -0.2505  0.7043
   80ccc    H17 2125   9.915   7.366   7.152 -0.1438 -1.2680 -2.5262
   81ccc     C1 2126   8.640   6.560   6.784 -0.6415 -0.3131  0.0225
   81ccc     H1 2127   8.539   6.546   6.746  0.5233 -1.5295 -2.9648
   81ccc     H2 2128   8.665   6.665   6.797 -1.4731 -0.2485  1.3447
   81ccc     C2 2129   8.711   6.512   6.655 -0.1626  0.1006 -0.0462
   81ccc     H3 2130   8.693   6.407   6.628  3.7923 -1.1571  1.4721
   81ccc     H4 2131   8.674   6.572   6.571  1.1997 -0.1953 -0.8987
   81ccc     C3 2132   8.860   6.526   6.660  0.2343  0.5769  0.2544
   81ccc     H5 2133   8.903   6.478   6.571  0.6109 -0.3547  0.9154
   81ccc     H6 2134   8.898   6.469   6.746  0.9838  0.6568 -0.0143
   81ccc     N1 2135   8.663   6.481   6.911  0.5253 -0.2966  0.5861
   81ccc     H7 2136   8.677   6.381   6.893 -1.2903 -0.7470  1.4955
   81ccc     H8 2137   8.758   6.504   6.945 -0.1015  1.9068  1.0306
   81ccc     O1 2138   8.895   6.661   6.682 -0.1233 -0.0541 -0.0560
   81ccc    H17 2139   8.589   6.489   6.982 -0.3878 -0.3460 -0.3444
   82ccc     C1 2140   7.443   8.353   5.599 -0.3521  0.4290 -0.0541
   82ccc     H1 2141   7.384   8.302   5.675  1.8340 -3.0513 -0.4763
   82ccc     H2 2142   7.428   8.462   5.598  1.5149  0.8137 -3.5726
   82ccc     C2 2143   7.415   8.289   5.465  0.1680 -0.5106 -0.1427
   82ccc     H3 2144   7.469   8.330   5.379 -0.3913 -0.9143 -0.6898
   82ccc     H4 2145   7.437   8.181   5.464  1.3013 -0.2917 -1.0934
   82ccc     C3 2146   7.260   8.292   5.428 -0.7086 -0.5081  0.0052
   82ccc     H5 2147   7.240   8.236   5.336 -0.9105  0.2986 -0.4460
   82ccc     H6 2148   7.238   8.396   5.404  1.3410 -0.0430 -0.1075
   82ccc     N1 2149   7.590   8.328   5.647  0.4624 -0.1666  0.6728
   82ccc     H7 2150   7.653   8.384   5.588  0.2041  1.8958  2.2208
   82ccc     H8 2151   7.592   8.348   5.748 -0.9421 -2.7280  1.2940
   82ccc     O1 2152   7.185   8.231   5.526  0.1957 -0.1363 -0.0827
   82ccc    H17 2153   7.609   8.227   5.638  0.1314 -0.2772  1.1980
   83ccc     C1 2154   6.478   8.345   6.280 -0.0044  0.7379 -0.8861
   83ccc     H1 2155   6.521   8.335   6.380 -0.3254 -0.0286 -0.8135
   83ccc     H2 2156   6.372   8.334   6.303  0.0853  0.6521 -0.5022
   83ccc     C2 2157   6.521   8.220   6.203  0.2045  0.0749 -0.1353
   83ccc     H3 2158   6.480   8.130   6.250  0.1841 -0.8920 -1.9020
   83ccc     H4 2159   6.482   8.215   6.100  0.0225 -0.5000 -0.0452
   83ccc     C3 2160   6.671   8.201   6.214 -0.8315  0.1991 -0.0119
   83ccc     H5 2161   6.695   8.188   6.321 -0.3072  3.5213  0.3723
   83ccc     H6 2162   6.728   8.286   6.175 -0.6511  0.3533  0.5658
   83ccc     N1 2163   6.504   8.482   6.224  0.6502  0.2175  0.2365
   83ccc     H7 2164   6.468   8.553   6.290 -0.0512 -2.0702  2.5030
   83ccc     H8 2165   6.605   8.501   6.222  0.6594  0.2110 -2.0043
   83ccc     O1 2166   6.705   8.087   6.141  0.2362  0.2586 -0.1379
   83ccc    H17 2167   6.464   8.491   6.129  0.4887  1.8015  0.4206
   84ccc     C1 2168   8.529   8.178   6.177  0.7419 -1.3452 -0.2654
   84ccc     H1 2169   8.596   8.124   6.244  0.8483  0.9087  1.5895
   84ccc     H2 2170   8.508   8.275   6.222  1.0765 -0.7491 -1.3456
   84ccc     C2 2171   8.396   8.112   6.151 -0.3997  0.0296 -0.1603
   84ccc     H3 2172   8.332   8.179   6.093  0.6960  0.8367 -0.4561
   84ccc     H4 2173   8.400   8.024   6.084 -1.8371  0.0639 -0.3147
   84ccc     C3 2174   8.330   8.071   6.280  0.0023 -0.1151 -0.3159
   84ccc     H5 2175   8.406   8.021   6.342 -0.1887  0.5589  0.4823
   84ccc     H6 2176   8.245   8.006   6.256 -0.3216  0.0663  0.3027
   84ccc     N1 2177   8.599   8.205   6.049 -0.3587  0.1892  0.0140
   84ccc     H7 2178   8.625   8.122   5.995 -3.3531 -0.4786 -0.6211
   84ccc     H8 2179   8.542   8.259   5.982 -0.3124 -0.7860 -0.8351
   84ccc     O1 2180   8.274   8.190   6.342  0.1929 -0.2188  0.9073
   84ccc    H17 2181   8.691   8.250   6.060 -0.0102 -0.0217 -1.7543
   85ccc     C1 2182   7.841   8.529   7.354 -0.2644  0.7396  0.1497
   85ccc     H1 2183   7.739   8.548   7.319 -1.1740 -1.4630  1.3576
   85ccc     H2 2184   7.928   8.538   7.290  0.7395 -1.9225  0.9881
   85ccc     C2 2185   7.838   8.377   7.380  1.0698  0.1268 -0.1469
   85ccc     H3 2186   7.943   8.348   7.391  1.2825  1.1116  0.4735
   85ccc     H4 2187   7.783   8.359   7.473  0.1158  0.3527 -0.6592
   85ccc     C3 2188   7.781   8.294   7.257  0.2185 -0.0548 -0.6292
   85ccc     H5 2189   7.673   8.315   7.249  0.0809  0.3625  1.6791
   85ccc     H6 2190   7.798   8.189   7.282  0.8370  0.0324 -0.6791
   85ccc     N1 2191   7.870   8.615   7.477 -0.4094 -0.1163  0.1422
   85ccc     H7 2192   7.784   8.629   7.532 -1.4839  0.0020 -1.5095
   85ccc     H8 2193   7.940   8.570   7.538  0.9073  1.6883  0.0437
   85ccc     O1 2194   7.857   8.325   7.142  0.1288 -0.3115  0.4454
   85ccc    H17 2195   7.908   8.709   7.457 -0.9896 -0.3288 -2.3030
   86ccc     C1 2196   6.147   5.943   7.204 -0.1494 -1.5670 -0.0910
   86ccc     H1 2197   6.242   5.917   7.156  0.9807 -0.7679  1.6185
   86ccc     H2 2198   6.087   6.006   7.138  1.4545  0.1726  0.0156
   86ccc     C2 2199   6.162   6.023   7.336 -0.6872 -0.4816  0.4848
   86ccc     H3 2200   6.066   6.032   7.389 -1.2042  0.5778 -0.5750
   86ccc     H4 2201   6.228   5.966   7.403 -1.0635 -2.4534 -0.7690
   86ccc     C3 2202   6.227   6.168   7.312  0.1851 -0.0398  0.1004
   86ccc     H5 2203   6.250   6.225   7.403  0.9375  0.0629 -0.1464
   86ccc     H6 2204   6.147   6.210   7.251  1.5237 -0.4908 -2.0617
   86ccc     N1 2205   6.094   5.812   7.231 -0.3947 -0.2687  0.1281
   86ccc     H7 2206   6.063   5.773   7.141 -2.4137 -0.7127  0.9637
   86ccc     H8 2207   6.170   5.752   7.267 -0.8196 -0.8680  0.0458
   86ccc     O1 2208   6.345   6.162   7.226 -0.5071 -0.1532  0.1774
   86ccc    H17 2209   6.010   5.805   7.289 -0.5419 -0.5169 -0.1119
   87ccc     C1 2210   6.707   5.688   7.457  0.3332  0.6815 -0.1555
   87ccc     H1 2211   6.715   5.770   7.385  1.4313  1.5796  0.9480
   87ccc     H2 2212   6.617   5.708   7.515  0.8524  1.8699  0.2745
   87ccc     C2 2213   6.834   5.681   7.545 -0.1441 -0.2136 -0.5178
   87ccc     H3 2214   6.827   5.616   7.633 -0.2797 -0.9618 -1.0710
   87ccc     H4 2215   6.912   5.630   7.487  0.7589  1.5426 -0.8944
   87ccc     C3 2216   6.893   5.814   7.601  0.4392 -0.0106  0.3990
   87ccc     H5 2217   6.974   5.789   7.671  2.9502  0.6246 -2.0800
   87ccc     H6 2218   6.807   5.861   7.651 -0.2050  0.9308 -1.5017
   87ccc     N1 2219   6.669   5.564   7.381  0.4486 -0.3275 -0.0770
   87ccc     H7 2220   6.601   5.581   7.305  0.7119  1.0002 -0.0513
   87ccc     H8 2221   6.758   5.531   7.342  0.9912  1.0757 -0.1019
   87ccc     O1 2222   6.926   5.881   7.481 -0.0375 -0.1224 -1.0830
   87ccc    H17 2223   6.625   5.495   7.443 -0.5154  0.1285 -0.2306
   88ccc     C1 2224   6.943   4.622   6.892  0.4885  0.2830  0.1552
   88ccc     H1 2225   7.023   4.632   6.966  1.1491  1.8424 -0.7200
   88ccc     H2 2226   6.885   4.712   6.875 -0.3312 -0.1719  0.4754
   88ccc     C2 2227   6.836   4.528   6.938 -0.0350  0.7396 -0.0344
   88ccc     H3 2228   6.877   4.427   6.942 -1.0717  0.3411  0.8997
   88ccc     H4 2229   6.809   4.546   7.043  0.9871  1.0916  0.1785
   88ccc     C3 2230   6.718   4.527   6.842  0.2867  0.4257  0.4126
   88ccc     H5 2231   6.653   4.447   6.879  1.2577 -0.3454  0.4820
   88ccc     H6 2232   6.758   4.506   6.742  1.2444  0.4552  0.7797
   88ccc     N1 2233   7.018   4.580   6.760 -0.3928 -0.0062  0.0849
   88ccc     H7 2234   7.063   4.488   6.762  0.4308  0.2095 -2.9167
   88ccc     H8 2235   6.947   4.581   6.685  0.2436 -1.2519 -0.5649
   88ccc     O1 2236   6.659   4.659   6.840  0.1355 -0.4586  0.1225
   88ccc    H17 2237   7.088   4.651   6.734 -0.6794 -0.0447 -0.8579
   89ccc     C1 2238   6.196   5.424   7.202 -0.0522 -0.1180 -0.5938
   89ccc     H1 2239   6.092   5.440   7.234  0.2733 -1.3403  1.2102
   89ccc     H2 2240   6.220   5.501   7.128  1.9315  0.6705  0.8107
   89ccc     C2 2241   6.212   5.287   7.133 -0.2323  0.6020  0.4613
   89ccc     H3 2242   6.310   5.270   7.089 -1.0680  1.8821 -2.1153
   89ccc     H4 2243   6.192   5.205   7.203  1.6127 -1.1024 -0.9149
   89ccc     C3 2244   6.115   5.262   7.017 -0.4084 -0.3523 -0.1288
   89ccc     H5 2245   6.121   5.337   6.938  1.2912 -0.9325 -0.5951
   89ccc     H6 2246   6.011   5.258   7.051  0.6432 -0.0463  3.5841
   89ccc     N1 2247   6.293   5.450   7.321 -0.3524  0.6720 -0.6948
   89ccc     H7 2248   6.254   5.407   7.407 -2.2651  0.2024 -1.7306
   89ccc     H8 2249   6.384   5.405   7.309  0.1956  0.8705  1.9584
   89ccc     O1 2250   6.146   5.133   6.969 -0.6361  0.4888  0.3069
   89ccc    H17 2251   6.311   5.549   7.343  0.7731  0.2685  0.3487
   90ccc     C1 2252   6.033   6.845   5.618 -0.3194 -0.2822 -1.3955
   90ccc     H1 2253   6.001   6.836   5.514 -0.3454  1.2292 -1.5524
   90ccc     H2 2254   6.080   6.944   5.621  0.0342 -0.4198 -2.2507
   90ccc     C2 2255   6.135   6.735   5.662  0.1533 -0.3250 -0.4766
   90ccc     H3 2256   6.156   6.741   5.769  0.7741 -1.1807 -0.5359
   90ccc     H4 2257   6.099   6.633   5.641 -0.5050 -0.3850  0.8634
   90ccc     C3 2258   6.272   6.752   5.593  0.3448 -0.2903  0.2820
   90ccc     H5 2259   6.340   6.677   5.635 -0.8134 -1.6133 -0.1141
   90ccc     H6 2260   6.312   6.851   5.617 -1.4389 -0.1103  2.9065
   90ccc     N1 2261   5.909   6.851   5.701 -0.2143  0.4925 -0.2459
   90ccc     H7 2262   5.845   6.773   5.681  0.1499 -0.1222  0.8518
   90ccc     H8 2263   5.938   6.858   5.800 -2.0154  0.6674  0.3026
   90ccc     O1 2264   6.255   6.735   5.451  0.6290 -0.9680 -0.3511
   90ccc    H17 2265   5.868   6.942   5.676 -0.7389 -0.1596 -1.8584
   91ccc     C1 2266   5.820   6.268   4.842  0.2870 -0.9915  0.0555
   91ccc     H1 2267   5.772   6.306   4.932  0.9532 -0.8627  0.3552
   91ccc     H2 2268   5.928   6.256   4.845  0.5914  1.0278 -1.0627
   91ccc     C2 2269   5.796   6.363   4.720  0.4426  0.2452 -0.4318
   91ccc     H3 2270   5.824   6.314   4.626 -2.3709 -1.0892 -0.6591
   91ccc     H4 2271   5.694   6.399   4.701  0.3111  0.4162  0.5440
   91ccc     C3 2272   5.865   6.501   4.753 -0.3279 -0.0575  0.3179
   91ccc     H5 2273   5.806   6.555   4.827  0.2127  1.4978 -0.3334
   91ccc     H6 2274   5.872   6.564   4.663  2.3186 -1.1390 -0.3555
   91ccc     N1 2275   5.766   6.128   4.829 -0.2209  0.2331 -0.1139
   91ccc     H7 2276   5.781   6.071   4.914 -2.2984  0.0372  0.1942
   91ccc     H8 2277   5.668   6.126   4.798 -0.6602  0.7133  1.1385
   91ccc     O1 2278   5.998   6.482   4.798 -0.4667  0.0465  0.3117
   91ccc    H17 2279   5.823   6.080   4.759  1.3159 -0.7607  1.7173
   92ccc     C1 2280   6.442   6.526   6.417 -0.5549  0.1250 -0.1275
   92ccc     H1 2281   6.425   6.562   6.315 -0.6613  2.1238  0.5665
   92ccc     H2 2282   6.538   6.564   6.451 -0.3078 -1.8871  1.6066
   92ccc     C2 2283   6.421   6.377   6.424 -0.7283  0.2432  0.2789
   92ccc     H3 2284   6.456   6.328   6.516 -0.8973 -1.5671 -0.5897
   92ccc     H4 2285   6.323   6.338   6.395 -1.0127  1.4809 -0.4931
   92ccc     C3 2286   6.516   6.315   6.322 -0.4548 -0.0354 -0.4321
   92ccc     H5 2287   6.618   6.348   6.343 -0.3096  0.2435 -1.5171
   92ccc     H6 2288   6.495   6.351   6.221 -0.0449 -1.1824 -0.9384
   92ccc     N1 2289   6.341   6.599   6.501  0.4615  0.1803  0.1615
   92ccc     H7 2290   6.345   6.558   6.596 -1.9083 -0.3901  0.0753
   92ccc     H8 2291   6.355   6.700   6.508  0.0567  0.1971  0.7566
   92ccc     O1 2292   6.491   6.177   6.322 -0.5620  0.0638  0.1519
   92ccc    H17 2293   6.246   6.584   6.464  1.7955 -0.0169 -3.6309
   93ccc     C1 2294   5.706   5.695   6.039  0.0849 -0.3149 -0.0737
   93ccc     H1 2295   5.654   5.735   6.126  0.6042 -1.3558  0.7458
   93ccc     H2 2296   5.813   5.712   6.055  0.1731 -0.5807 -0.3678
   93ccc     C2 2297   5.647   5.769   5.911 -0.1529 -0.0808  0.2785
   93ccc     H3 2298   5.697   5.728   5.823 -0.5432  1.1137 -0.5121
   93ccc     H4 2299   5.541   5.746   5.900 -0.0473 -0.5072  0.1292
   93ccc     C3 2300   5.676   5.921   5.925 -0.0140 -0.4216  0.5387
   93ccc     H5 2301   5.641   5.952   6.024 -0.3199 -4.2063  1.7861
   93ccc     H6 2302   5.630   5.981   5.845  0.0350  2.0738  2.2847
   93ccc     N1 2303   5.690   5.545   6.029 -0.5629  0.4755 -0.1953
   93ccc     H7 2304   5.592   5.522   6.006 -1.2794  2.6724  0.4103
   93ccc     H8 2305   5.744   5.496   5.956 -0.9620  1.2703 -1.0407
   93ccc     O1 2306   5.821   5.942   5.920  0.7336  0.2349  0.2859
   93ccc    H17 2307   5.716   5.497   6.117  0.2784 -1.2379 -1.3154
   94ccc     C1 2308  10.905   6.789   6.808 -0.2509 -0.4746 -0.7807
   94ccc     H1 2309  10.829   6.845   6.862  0.2157 -0.2213 -0.3707
   94ccc     H2 2310  10.879   6.788   6.702 -1.3006  1.2184 -0.5731
   94ccc     C2 2311  10.923   6.650   6.868 -1.0251 -0.3153  0.1331
   94ccc     H3 2312  10.829   6.597   6.851 -2.4253  2.3194 -0.8639
   94ccc     H4 2313  11.008   6.590   6.831  0.7491  1.6210  0.8619
   94ccc     C3 2314  10.947   6.659   7.017 -0.0495  0.2885  0.3231
   94ccc     H5 2315  10.876   6.736   7.052  0.4265  0.3897  1.0796
   94ccc     H6 2316  11.053   6.677   7.038  0.6910 -1.3501 -1.7145
   94ccc     N1 2317  11.032   6.869   6.826 -0.4376  0.1884 -0.2593
   94ccc     H7 2318  11.049   6.927   6.743  1.9135 -0.2220 -0.1512
   94ccc     H8 2319  11.039   6.927   6.911 -1.0006 -0.4767  0.2539
   94ccc     O1 2320  10.899   6.532   7.077  0.1420 -0.7402 -0.1472
   94ccc    H17 2321  11.111   6.803   6.824  0.0763  0.7912 -0.1714
   95ccc     C1 2322  10.942   6.104   7.899  0.1671 -0.4915  0.1258
   95ccc     H1 2323  10.988   6.152   7.813  0.9859 -0.7739  0.3981
   95ccc     H2 2324  11.023   6.097   7.972  0.9933  0.6985 -0.6494
   95ccc     C2 2325  10.895   5.964   7.841  0.1763 -0.7003 -0.4605
   95ccc     H3 2326  10.983   5.929   7.785 -0.1970  1.0112 -2.2130
   95ccc     H4 2327  10.892   5.898   7.929  0.1750  1.0557  0.9064
   95ccc     C3 2328  10.761   5.953   7.773 -0.0094  0.0278  0.0867
   95ccc     H5 2329  10.679   5.991   7.836  0.6601 -0.6502  1.3987
   95ccc     H6 2330  10.747   5.845   7.769 -0.4483  0.0760  0.2305
   95ccc     N1 2331  10.827   6.195   7.952  0.2188 -0.2758  0.1255
   95ccc     H7 2332  10.790   6.159   8.042  0.6507  0.3278  0.5463
   95ccc     H8 2333  10.870   6.288   7.959 -1.7733  0.8932 -1.8210
   95ccc     O1 2334  10.776   5.999   7.639 -0.1708 -0.6380 -0.3085
   95ccc    H17 2335  10.749   6.205   7.885 -0.8558  1.4284  1.5536
   96ccc     C1 2336  10.810   5.223   8.676 -0.5049  0.1705  0.4105
   96ccc     H1 2337  10.752   5.291   8.739 -2.7012 -0.5101 -0.7670
   96ccc     H2 2338  10.911   5.264   8.667 -0.4816  0.1410  0.5454
   96ccc     C2 2339  10.762   5.222   8.529  0.4268 -0.0814  0.1309
   96ccc     H3 2340  10.834   5.165   8.469 -0.1163  1.5989 -2.2558
   96ccc     H4 2341  10.667   5.169   8.518  0.9232 -0.8275 -0.6610
   96ccc     C3 2342  10.752   5.362   8.465 -0.1222  0.4855  0.8093
   96ccc     H5 2343  10.842   5.425   8.471  0.3823 -0.0272 -0.7272
   96ccc     H6 2344  10.657   5.409   8.492 -2.1647 -1.9482 -1.5720
   96ccc     N1 2345  10.821   5.088   8.739 -0.0828 -0.2178 -0.1560
   96ccc     H7 2346  10.884   5.023   8.688  1.2060  0.2730  0.7497
   96ccc     H8 2347  10.852   5.090   8.837  0.6042 -0.1805 -0.3663
   96ccc     O1 2348  10.727   5.336   8.327  0.6227  0.4033  0.0431
   96ccc    H17 2349  10.728   5.044   8.742 -1.2811  2.1641 -0.0502
   97ccc     C1 2350  10.248   5.041   8.094 -0.0467 -0.5706  0.4834
   97ccc     H1 2351  10.347   5.087   8.094 -1.1176  1.9586 -0.5674
   97ccc     H2 2352  10.247   4.933   8.077  1.1847 -0.3919 -0.8928
   97ccc     C2 2353  10.172   5.096   7.973 -1.1033 -0.0561 -0.1626
   97ccc     H3 2354  10.072   5.053   7.957 -0.2693 -1.1494 -3.0224
   97ccc     H4 2355  10.163   5.203   7.995  0.0315  0.2895 -1.3076
   97ccc     C3 2356  10.259   5.071   7.841  0.5372 -0.6774 -0.7145
   97ccc     H5 2357  10.190   5.093   7.759  1.1677  0.6952 -0.9015
   97ccc     H6 2358  10.285   4.964   7.840 -1.7470 -1.2900  0.0805
   97ccc     N1 2359  10.171   5.079   8.220  0.1615  0.5701 -0.0857
   97ccc     H7 2360  10.079   5.035   8.212  0.6577 -0.3482 -0.9453
   97ccc     H8 2361  10.208   5.029   8.303 -0.0691  0.6855  0.0891
   97ccc     O1 2362  10.379   5.149   7.838 -0.2140  0.8857  0.1096
   97ccc    H17 2363  10.167   5.181   8.233  3.7746  0.6949  1.3657
   98ccc     C1 2364  11.006   4.004   5.449 -0.3494 -0.5647  0.0707
   98ccc     H1 2365  10.985   3.898   5.442  0.2165 -0.5887 -2.4597
   98ccc     H2 2366  11.079   4.025   5.370  0.2276 -2.5602  0.0306
   98ccc     C2 2367  11.073   4.040   5.585  0.0643 -0.2394  0.2473
   98ccc     H3 2368  11.174   3.998   5.594  0.6118  0.8293 -0.7195
   98ccc     H4 2369  11.089   4.148   5.584 -1.8778  0.0927  0.9065
   98ccc     C3 2370  10.997   4.021   5.717  0.1367 -1.0912 -0.5507
   98ccc     H5 2371  10.937   3.930   5.710 -0.1037 -1.0868  1.0673
   98ccc     H6 2372  10.919   4.098   5.727  0.0868 -0.8025 -2.6709
   98ccc     N1 2373  10.880   4.075   5.408 -0.1775 -0.0562  0.0361
   98ccc     H7 2374  10.810   4.037   5.473  0.0605  0.7478  0.7857
   98ccc     H8 2375  10.885   4.178   5.405 -0.3116 -0.0584 -0.2308
   98ccc     O1 2376  11.092   4.031   5.825  0.7545  0.1366 -0.1397
   98ccc    H17 2377  10.863   4.043   5.312  2.8429 -1.2113 -0.2058
   99ccc     C1 2378  12.159   4.343   5.982 -0.5111 -0.0147 -0.3511
   99ccc     H1 2379  12.175   4.417   5.904  0.4106 -0.9237 -1.0659
   99ccc     H2 2380  12.146   4.250   5.927  2.1635  0.5401 -2.1026
   99ccc     C2 2381  12.038   4.370   6.079 -0.2524 -0.4361 -0.0558
   99ccc     H3 2382  12.044   4.308   6.170 -0.1687 -3.3956 -1.9499
   99ccc     H4 2383  12.043   4.474   6.112 -0.3985 -0.6767  0.7470
   99ccc     C3 2384  11.896   4.365   6.019  0.1245 -0.5484  0.8718
   99ccc     H5 2385  11.918   4.374   5.912  1.9428 -0.7193  1.1915
   99ccc     H6 2386  11.837   4.454   6.045  1.9832  0.9609  0.1970
   99ccc     N1 2387  12.292   4.341   6.052  0.0954  0.3104 -0.0761
   99ccc     H7 2388  12.321   4.435   6.083  0.0210 -0.0876  1.2665
   99ccc     H8 2389  12.289   4.284   6.138  2.7761  3.0411  2.0020
   99ccc     O1 2390  11.843   4.237   6.062 -0.6039 -0.6068  0.0047
   99ccc    H17 2391  12.370   4.300   6.000 -0.6582 -0.5880 -0.5354
  100ccc     C1 2392  12.251   4.072   7.339  0.4884 -0.3748 -0.7581
  100ccc     H1 2393  12.157   4.127   7.346  0.6839  0.2987 -2.9167
  100ccc     H2 2394  12.321   4.137   7.392  1.0449 -0.1838 -1.7180
  100ccc     C2 2395  12.287   4.070   7.190 -0.2899 -0.2092  0.1517
  100ccc     H3 2396  12.370   3.999   7.186  0.5840  0.8553 -1.8499
  100ccc     H4 2397  12.207   4.022   7.134 -0.5581  1.0460 -0.5778
  100ccc     C3 2398  12.337   4.205   7.130 -0.0131 -0.3534 -0.8947
  100ccc     H5 2399  12.370   4.202   7.025  0.3459  3.4408 -1.0330
  100ccc     H6 2400  12.415   4.239   7.200 -0.7637  0.3090 -0.3675
  100ccc     N1 2401  12.248   3.939   7.418 -0.0384  0.1992 -0.0387
  100ccc     H7 2402  12.340   3.901   7.444 -1.6097 -2.6634  1.9040
  100ccc     H8 2403  12.205   3.955   7.511 -0.5070  3.1440 -0.6619
  100ccc     O1 2404  12.228   4.291   7.146  0.1547  0.6107  0.0471
  100ccc    H17 2405  12.189   3.868   7.372  0.2636 -0.2951  0.3229
  101ccc     C1 2406  11.809   4.921   7.623 -0.3074 -0.6900  0.5991
  101ccc     H1 2407  11.712   4.934   7.576 -0.1803 -1.6607  0.0443
  101ccc     H2 2408  11.871   4.877   7.545 -0.8218  1.1611 -0.9353
  101ccc     C2 2409  11.792   4.829   7.734 -0.3164  0.7554 -0.5718
  101ccc     H3 2410  11.885   4.811   7.789 -1.8145  0.5489  2.0560
  101ccc     H4 2411  11.725   4.877   7.806 -0.7578 -1.1948  0.3649
  101ccc     C3 2412  11.732   4.695   7.698 -0.0358 -0.4385  0.6891
  101ccc     H5 2413  11.625   4.704   7.722  0.1858  2.4670  0.9741
  101ccc     H6 2414  11.779   4.629   7.771 -1.0050 -0.1609  1.5820
  101ccc     N1 2415  11.876   5.055   7.662  0.1503  0.2636  0.0339
  101ccc     H7 2416  11.977   5.043   7.679  0.1451  0.6019  0.3137
  101ccc     H8 2417  11.868   5.123   7.585 -0.1736  1.4327  1.0673
  101ccc     O1 2418  11.771   4.662   7.564  0.4094  0.1502  0.4136
  101ccc    H17 2419  11.822   5.092   7.742  0.1907  0.0968  0.1400
  102ccc     C1 2420  10.670   7.277   4.182  0.2546 -0.7661 -0.1638
  102ccc     H1 2421  10.583   7.334   4.149  0.0912  1.6555  3.8504
  102ccc     H2 2422  10.696   7.207   4.101  1.3729 -0.1681 -0.3475
  102ccc     C2 2423  10.613   7.215   4.312  0.1041  0.1573 -0.1684
  102ccc     H3 2424  10.695   7.172   4.372  0.2718 -1.1842 -1.3182
  102ccc     H4 2425  10.575   7.302   4.368  0.9862 -0.6992  1.8504
  102ccc     C3 2426  10.495   7.116   4.292  0.2877  0.7872 -0.2825
  102ccc     H5 2427  10.531   7.019   4.257  0.0147  0.6094 -0.0818
  102ccc     H6 2428  10.430   7.153   4.212 -2.7426  1.2588  2.1737
  102ccc     N1 2429  10.781   7.379   4.187 -0.4644  0.2471 -0.2538
  102ccc     H7 2430  10.864   7.323   4.211 -1.6771 -0.3859  3.0577
  102ccc     H8 2431  10.800   7.410   4.091  0.5889 -0.8325 -0.4101
  102ccc     O1 2432  10.405   7.102   4.409 -0.4283 -0.3391 -0.0459
  102ccc    H17 2433  10.776   7.460   4.250  0.4826 -0.7410  1.1422
  103ccc     C1 2434  10.453   6.077   4.045 -0.4267 -0.5436  0.0566
  103ccc     H1 2435  10.361   6.082   3.987  0.5012 -0.0146 -1.4374
  103ccc     H2 2436  10.426   6.092   4.150 -0.8273 -2.5773  0.2919
  103ccc     C2 2437  10.558   6.185   3.994 -0.3889  0.1315  0.0404
  103ccc     H3 2438  10.661   6.148   4.003 -0.9781 -1.4486  0.6418
  103ccc     H4 2439  10.534   6.216   3.891 -0.7254 -0.3682 -0.0333
  103ccc     C3 2440  10.546   6.304   4.087  0.2047 -0.4856 -0.0933
  103ccc     H5 2441  10.648   6.347   4.088  0.0945 -0.2232  0.0883
  103ccc     H6 2442  10.516   6.260   4.183 -2.0939  0.2230 -0.4436
  103ccc     N1 2443  10.495   5.930   4.032  0.8981 -0.7218  0.4514
  103ccc     H7 2444  10.562   5.909   4.107 -0.4105 -2.0293  1.3144
  103ccc     H8 2445  10.408   5.877   4.044 -0.0989 -0.1936 -3.0609
  103ccc     O1 2446  10.457   6.405   4.052  0.1627 -0.3363  0.6886
  103ccc    H17 2447  10.537   5.917   3.939  0.2833  1.4620 -0.2030
  104ccc     C1 2448   9.622   7.779   5.222  0.2689  0.2041 -0.3957
  104ccc     H1 2449   9.654   7.675   5.222  1.1055  0.4487 -0.6056
  104ccc     H2 2450   9.514   7.774   5.210 -0.0673  0.1070  2.1725
  104ccc     C2 2451   9.693   7.835   5.107 -0.9182 -0.2332  0.8416
  104ccc     H3 2452   9.699   7.944   5.101  2.9040 -0.3277  0.0683
  104ccc     H4 2453   9.800   7.814   5.121 -0.6333  1.0958  0.7617
  104ccc     C3 2454   9.636   7.781   4.969  0.1757  0.0076 -0.3830
  104ccc     H5 2455   9.702   7.830   4.897 -0.0956  0.5682 -0.2544
  104ccc     H6 2456   9.542   7.829   4.941  0.3358 -0.7637 -2.4339
  104ccc     N1 2457   9.640   7.847   5.351 -0.0939  0.6857  0.2192
  104ccc     H7 2458   9.626   7.781   5.428  0.3553 -0.1939 -0.4227
  104ccc     H8 2459   9.736   7.886   5.351  0.7550 -1.2724 -0.1496
  104ccc     O1 2460   9.628   7.638   4.944 -0.3379  0.3266  0.0379
  104ccc    H17 2461   9.576   7.927   5.358 -4.3218 -2.1471 -1.6910
  105ccc     C1 2462   9.481   7.143   3.969 -1.3868  0.3530 -0.1586
  105ccc     H1 2463   9.521   7.231   3.917 -1.3139 -0.7235 -2.0268
  105ccc     H2 2464   9.407   7.165   4.045  1.1222  1.1650  2.1971
  105ccc     C2 2465   9.599   7.069   4.043 -0.0608  0.4119 -0.1694
  105ccc     H3 2466   9.571   6.969   4.078  0.4253 -1.1425 -3.8197
  105ccc     H4 2467   9.676   7.042   3.970 -0.4945 -1.5353  0.0334
  105ccc     C3 2468   9.664   7.160   4.145  0.3279  0.1182 -0.4879
  105ccc     H5 2469   9.660   7.265   4.114  0.9146  0.4656  0.5517
  105ccc     H6 2470   9.771   7.136   4.146  0.1280 -0.8657 -0.9696
  105ccc     N1 2471   9.412   7.071   3.856  0.6852 -0.5692 -0.8425
  105ccc     H7 2472   9.320   7.115   3.839  0.6636  0.4799  1.5512
  105ccc     H8 2473   9.455   7.053   3.764 -2.0926 -1.0162 -2.1512
  105ccc     O1 2474   9.598   7.147   4.275  0.1554 -0.1075 -0.1558
  105ccc    H17 2475   9.395   6.975   3.891 -2.8813  0.9279  2.1634
  106ccc     C1 2476  12.483   4.638   4.354  0.1843  0.0102  0.4077
  106ccc     H1 2477  12.549   4.633   4.267  0.7175  0.4177  0.7794
  106ccc     H2 2478  12.528   4.712   4.420 -0.3959 -0.8851  1.8424
  106ccc     C2 2479  12.470   4.504   4.432  0.3123  0.1930 -0.2054
  106ccc     H3 2480  12.395   4.445   4.378 -1.4460  0.2701  2.0199
  106ccc     H4 2481  12.559   4.441   4.420 -0.7737 -1.3444 -0.4310
  106ccc     C3 2482  12.429   4.526   4.573  0.2055  0.2430 -0.2459
  106ccc     H5 2483  12.495   4.604   4.613 -1.0160  1.0203  0.3077
  106ccc     H6 2484  12.435   4.431   4.629 -2.5520  0.6296  0.8708
  106ccc     N1 2485  12.340   4.686   4.300 -0.3616  0.2376 -0.0409
  106ccc     H7 2486  12.272   4.609   4.305  1.8213 -1.7712  0.4428
  106ccc     H8 2487  12.301   4.755   4.366 -0.5913 -0.9949  1.1621
  106ccc     O1 2488  12.297   4.569   4.581 -0.3145 -0.6754 -0.4543
  106ccc    H17 2489  12.350   4.724   4.205  0.9888  0.4986  0.1878
  107ccc     C1 2490  11.941   3.874   4.873  0.8386  0.4211 -0.7070
  107ccc     H1 2491  12.038   3.921   4.857  0.7300  0.6403 -0.7306
  107ccc     H2 2492  11.906   3.844   4.775  0.0056 -0.3662 -0.1911
  107ccc     C2 2493  11.849   3.978   4.934 -0.0566  0.4939 -0.0722
  107ccc     H3 2494  11.752   3.930   4.954  0.2225 -0.4009 -0.8054
  107ccc     H4 2495  11.892   4.013   5.029 -1.7318 -0.7269  1.2037
  107ccc     C3 2496  11.842   4.100   4.836 -0.1203  0.0267  0.0005
  107ccc     H5 2497  11.797   4.077   4.739 -0.5795 -0.5779  0.3503
  107ccc     H6 2498  11.943   4.139   4.820 -0.3689  0.2842 -1.0088
  107ccc     N1 2499  11.943   3.745   4.943 -0.1117 -0.0215  0.1623
  107ccc     H7 2500  11.980   3.746   5.039 -1.0991 -3.1558  0.7075
  107ccc     H8 2501  11.848   3.706   4.937  0.1643 -0.4713 -2.6345
  107ccc     O1 2502  11.763   4.189   4.914  0.1003  0.6760  0.3129
  107ccc    H17 2503  12.005   3.679   4.894  0.3443  1.2097 -0.9809
  108ccc     C1 2504  12.049   6.378   4.837  0.2271  0.5617 -0.2164
  108ccc     H1 2505  12.070   6.310   4.920  1.3481 -0.0202 -0.9572
  108ccc     H2 2506  11.953   6.358   4.790  1.6999  0.0228 -3.2543
  108ccc     C2 2507  12.140   6.343   4.725 -0.3462 -0.5814 -0.3758
  108ccc     H3 2508  12.131   6.401   4.632 -0.4421 -1.0826 -0.6884
  108ccc     H4 2509  12.237   6.371   4.765 -0.3125 -1.7395  0.4095
  108ccc     C3 2510  12.150   6.186   4.706  0.6130 -0.2023 -1.0585
  108ccc     H5 2511  12.193   6.143   4.797  0.4956  0.9255 -0.4562
  108ccc     H6 2512  12.227   6.154   4.634  1.2202  0.4655 -0.7243
  108ccc     N1 2513  12.048   6.519   4.885 -0.1267  0.1826 -0.9807
  108ccc     H7 2514  11.965   6.550   4.937  1.5218  0.4337  1.7186
  108ccc     H8 2515  12.113   6.525   4.965 -0.4654  2.5795 -0.8207
  108ccc     O1 2516  12.016   6.134   4.670  0.8594 -0.1169  0.4584
  108ccc    H17 2517  12.074   6.589   4.813 -1.8648 -0.3862 -2.2179
  109ccc     C1 2518  11.477   5.670   4.072 -0.0942 -0.1826  0.1901
  109ccc     H1 2519  11.531   5.692   3.980 -0.4199 -0.5779 -0.1000
  109ccc     H2 2520  11.529   5.732   4.146  2.4321 -2.4700  0.5126
  109ccc     C2 2521  11.514   5.521   4.096 -0.2169 -0.2451 -0.5555
  109ccc     H3 2522  11.460   5.489   4.185  0.2065  1.1514  0.2385
  109ccc     H4 2523  11.472   5.456   4.018  1.5262 -2.0205 -0.0927
  109ccc     C3 2524  11.663   5.495   4.120 -0.8705  0.4028 -0.7689
  109ccc     H5 2525  11.723   5.514   4.029  0.2415  2.0686  0.2559
  109ccc     H6 2526  11.674   5.387   4.137  1.1435  0.6942  0.0930
  109ccc     N1 2527  11.329   5.685   4.051  0.0937  0.2315 -0.0156
  109ccc     H7 2528  11.281   5.681   4.142  0.0265 -2.1310 -0.1041
  109ccc     H8 2529  11.314   5.781   4.016  1.8076  1.2579  1.8645
  109ccc     O1 2530  11.708   5.569   4.236 -0.1219 -0.3272  0.6562
  109ccc    H17 2531  11.283   5.621   3.985 -1.7095 -0.1663  1.5414
  110ccc     C1 2532   9.820   3.289   4.881  0.6482  0.1655 -0.2554
  110ccc     H1 2533   9.896   3.258   4.953 -0.6028 -1.3861  0.4580
  110ccc     H2 2534   9.733   3.326   4.936 -0.6594  0.2625 -2.2951
  110ccc     C2 2535   9.762   3.180   4.788  1.1095  0.1589 -0.1406
  110ccc     H3 2536   9.713   3.104   4.851 -0.0382  0.4889 -0.6017
  110ccc     H4 2537   9.683   3.233   4.732  1.3461 -0.2297 -0.8555
  110ccc     C3 2538   9.865   3.113   4.689  0.2014 -0.4620 -0.1024
  110ccc     H5 2539   9.889   3.191   4.615 -0.1598  0.4269  0.6991
  110ccc     H6 2540   9.813   3.037   4.629  0.5974 -1.4011  0.7134
  110ccc     N1 2541   9.864   3.417   4.819 -0.3063  0.7055  0.6167
  110ccc     H7 2542   9.956   3.406   4.773 -0.9959  3.7371 -1.8070
  110ccc     H8 2543   9.796   3.459   4.754  0.0146  0.3788  0.0632
  110ccc     O1 2544   9.974   3.060   4.756 -0.0618  0.0348  0.6060
  110ccc    H17 2545   9.882   3.481   4.899  1.1394 -0.8983  1.6522
  111ccc     C1 2546  10.570   2.287   4.773 -0.1509 -0.2021  1.1203
  111ccc     H1 2547  10.560   2.395   4.788 -1.8488 -0.0398 -0.8465
  111ccc     H2 2548  10.511   2.252   4.689  0.6586  2.5889 -0.7628
  111ccc     C2 2549  10.508   2.239   4.906  0.1323 -0.2140  0.2698
  111ccc     H3 2550  10.402   2.233   4.878  0.5233  2.7198 -2.4973
  111ccc     H4 2551  10.549   2.139   4.925  2.3011  0.3429 -1.0152
  111ccc     C3 2552  10.531   2.340   5.027  0.8558 -0.4309 -0.1198
  111ccc     H5 2553  10.638   2.362   5.027  0.3488  2.5042 -0.0572
  111ccc     H6 2554  10.492   2.286   5.114  0.8666 -1.2020 -0.5830
  111ccc     N1 2555  10.721   2.277   4.725 -0.8610  0.3836 -0.6349
  111ccc     H7 2556  10.731   2.313   4.629 -0.6614  0.9255 -0.4146
  111ccc     H8 2557  10.778   2.346   4.776  0.0999 -1.6896  1.2351
  111ccc     O1 2558  10.466   2.465   5.006 -0.8767 -0.4523  0.2658
  111ccc    H17 2559  10.757   2.180   4.726 -0.1295  0.6519 -0.5382
  112ccc     C1 2560   9.586   3.763   6.340 -0.1286  0.6224  0.2423
  112ccc     H1 2561   9.598   3.750   6.233  0.2785 -0.0102  0.3595
  112ccc     H2 2562   9.689   3.763   6.376  0.9447  1.6781 -2.5638
  112ccc     C2 2563   9.503   3.639   6.396  0.2853  0.4216  0.3229
  112ccc     H3 2564   9.447   3.661   6.488 -0.7959 -2.9062  0.5870
  112ccc     H4 2565   9.418   3.629   6.327  1.9848  1.8212 -2.1552
  112ccc     C3 2566   9.580   3.510   6.406 -0.6669 -0.0007  0.1724
  112ccc     H5 2567   9.620   3.484   6.307  0.3606  0.7173  0.3935
  112ccc     H6 2568   9.507   3.434   6.437  2.0025 -2.1522  1.5962
  112ccc     N1 2569   9.528   3.902   6.368 -0.1035  0.4341  0.3752
  112ccc     H7 2570   9.563   3.931   6.460 -0.0021 -0.5611  0.6603
  112ccc     H8 2571   9.573   3.972   6.307 -0.7503 -0.2334 -0.9084
  112ccc     O1 2572   9.692   3.528   6.494  0.9173  0.1738 -0.3338
  112ccc    H17 2573   9.426   3.911   6.371 -0.1170  0.0623  1.1717
  113ccc     C1 2574  10.249   2.993   6.682  0.1445 -0.0315 -0.6915
  113ccc     H1 2575  10.162   3.023   6.624 -0.7325 -1.3974 -0.1425
  113ccc     H2 2576  10.316   3.078   6.673 -0.4814  0.3231 -2.1543
  113ccc     C2 2577  10.304   2.858   6.621 -0.0342 -0.3644 -0.2367
  113ccc     H3 2578  10.400   2.835   6.670  0.6742  1.3295 -0.7581
  113ccc     H4 2579  10.239   2.770   6.632  1.4597 -1.4219  0.5082
  113ccc     C3 2580  10.337   2.870   6.470 -0.5682 -0.4675 -0.1565
  113ccc     H5 2581  10.363   2.773   6.425 -0.5167 -0.3124 -0.4580
  113ccc     H6 2582  10.426   2.932   6.458 -0.2593 -1.2069 -1.9285
  113ccc     N1 2583  10.225   2.971   6.832  0.1485 -0.5881 -0.5347
  113ccc     H7 2584  10.191   3.059   6.873  1.0404  0.4403 -1.9155
  113ccc     H8 2585  10.161   2.893   6.852  0.0299 -0.2518  0.4280
  113ccc     O1 2586  10.219   2.917   6.401  0.5943 -0.5785 -0.2040
  113ccc    H17 2587  10.314   2.948   6.879  0.0797 -0.5372 -0.3802
  114ccc     C1 2588   8.010   2.661   5.368 -0.1151  0.1049 -0.4933
  114ccc     H1 2589   7.983   2.747   5.430  1.2841  1.8358 -2.2018
  114ccc     H2 2590   8.099   2.618   5.413 -0.2924  1.0930  0.8674
  114ccc     C2 2591   8.048   2.713   5.218 -0.4665  0.5421 -0.6715
  114ccc     H3 2592   8.075   2.617   5.173 -1.9804 -0.4888  0.5127
  114ccc     H4 2593   7.956   2.748   5.168 -1.2938 -1.5191 -0.6997
  114ccc     C3 2594   8.160   2.813   5.225  0.2050 -0.6586  1.2393
  114ccc     H5 2595   8.138   2.910   5.272  1.7607  0.2251  0.2167
  114ccc     H6 2596   8.196   2.843   5.126  2.2925  0.5188  2.2719
  114ccc     N1 2597   7.910   2.552   5.391 -0.0195  0.0768  0.0041
  114ccc     H7 2598   7.878   2.559   5.489  1.0165 -1.6912  0.5171
  114ccc     H8 2599   7.834   2.575   5.326 -2.0051 -1.2305  1.7080
  114ccc     O1 2600   8.262   2.738   5.287 -0.7224  0.0863 -0.7143
  114ccc    H17 2601   7.949   2.460   5.362  0.5957 -0.5925  2.6667
  115ccc     C1 2602   8.981   2.249   5.257 -0.0110 -0.4970 -0.5103
  115ccc     H1 2603   8.920   2.332   5.293 -0.1369 -0.4383 -0.8583
  115ccc     H2 2604   9.072   2.295   5.219 -0.1308 -0.0704 -0.2875
  115ccc     C2 2605   8.914   2.168   5.144  0.0973  0.2467 -0.0167
  115ccc     H3 2606   8.978   2.081   5.125 -0.3424  0.0633 -0.6782
  115ccc     H4 2607   8.825   2.120   5.185  0.3544  0.0604  0.3332
  115ccc     C3 2608   8.872   2.250   5.013 -0.1106 -0.6782 -0.9951
  115ccc     H5 2609   8.824   2.175   4.949  0.0169 -2.2238  0.6344
  115ccc     H6 2610   8.957   2.293   4.960  0.9532 -1.6339 -0.1219
  115ccc     N1 2611   9.027   2.161   5.366 -0.2176  0.2872 -0.3396
  115ccc     H7 2612   9.081   2.078   5.341  0.7961  0.0003  2.4824
  115ccc     H8 2613   9.083   2.209   5.438 -2.1230  2.3464 -0.0976
  115ccc     O1 2614   8.779   2.345   5.060  0.5507 -0.3024 -0.5302
  115ccc    H17 2615   8.946   2.131   5.422  1.0362 -0.3151  1.2288
  116ccc     C1 2616   8.217   3.901   4.095  0.2786  0.5146 -0.6122
  116ccc     H1 2617   8.146   3.965   4.147 -0.7523 -0.1574 -1.1477
  116ccc     H2 2618   8.214   3.817   4.164  1.1026  1.4390  0.5936
  116ccc     C2 2619   8.351   3.971   4.082 -0.0938  0.0410  0.4666
  116ccc     H3 2620   8.439   3.907   4.064 -1.0665 -1.1961 -0.0878
  116ccc     H4 2621   8.352   4.030   3.990  1.5193 -0.6380  0.0230
  116ccc     C3 2622   8.380   4.057   4.206 -0.1784 -0.1665  0.0154
  116ccc     H5 2623   8.305   4.131   4.235  1.4724  1.3260  0.6382
  116ccc     H6 2624   8.467   4.107   4.162  0.7739 -1.4393  0.3663
  116ccc     N1 2625   8.160   3.848   3.972  0.1030 -0.2812  0.3070
  116ccc     H7 2626   8.070   3.798   3.979  0.4377 -0.8680  0.4594
  116ccc     H8 2627   8.159   3.913   3.892  2.4957 -1.1711 -0.5240
  116ccc     O1 2628   8.411   3.979   4.321 -0.0548 -0.8068 -0.3563
  116ccc    H17 2629   8.216   3.768   3.940 -2.2692 -2.6248  1.6198
  117ccc     C1 2630   8.385   4.129   5.268  0.1484  0.0594  1.1770
  117ccc     H1 2631   8.458   4.139   5.349  1.6958  1.1768 -0.2868
  117ccc     H2 2632   8.360   4.024   5.251  2.9359 -0.4986  0.0108
  117ccc     C2 2633   8.462   4.178   5.146 -0.0182 -0.9868  0.5097
  117ccc     H3 2634   8.385   4.168   5.068 -4.0185  0.5662  3.8773
  117ccc     H4 2635   8.493   4.281   5.165  0.8366 -0.9787 -0.8032
  117ccc     C3 2636   8.591   4.104   5.112  0.2568  1.0127 -0.1212
  117ccc     H5 2637   8.637   4.079   5.208  2.1976  0.5921 -1.1100
  117ccc     H6 2638   8.667   4.155   5.053 -0.1630  0.3154 -1.3035
  117ccc     N1 2639   8.263   4.210   5.304  0.4452  0.3306 -0.8244
  117ccc     H7 2640   8.279   4.312   5.293 -1.0059  0.3835 -3.0722
  117ccc     H8 2641   8.185   4.190   5.241  0.1713  2.3151 -1.1991
  117ccc     O1 2642   8.560   3.973   5.050 -0.2263 -0.4249  0.0654
  117ccc    H17 2643   8.227   4.187   5.398 -1.0493  0.8006 -1.2566
  118ccc     C1 2644   8.315   3.478   6.646  0.0030  0.4297 -0.2774
  118ccc     H1 2645   8.325   3.547   6.562  3.5710  0.8790  0.3962
  118ccc     H2 2646   8.228   3.504   6.707 -0.7585 -1.3659 -0.5188
  118ccc     C2 2647   8.453   3.483   6.708  0.5536  0.2203 -0.1870
  118ccc     H3 2648   8.459   3.400   6.780 -2.3656 -0.2302 -0.3527
  118ccc     H4 2649   8.525   3.475   6.625  0.9447 -3.4195  0.3445
  118ccc     C3 2650   8.471   3.612   6.778 -0.0036 -0.4251  0.2028
  118ccc     H5 2651   8.409   3.677   6.715  1.7685  2.2506  0.9997
  118ccc     H6 2652   8.575   3.646   6.776  0.7244 -2.3383  1.8132
  118ccc     N1 2653   8.277   3.339   6.585  0.0785 -0.3762  0.1696
  118ccc     H7 2654   8.296   3.264   6.653  0.9492 -1.5634 -1.3185
  118ccc     H8 2655   8.178   3.329   6.558  0.1351 -0.1095 -0.1501
  118ccc     O1 2656   8.411   3.617   6.910  0.5219  0.4704 -0.1418
  118ccc    H17 2657   8.333   3.316   6.502 -1.3577 -1.5289 -0.5316
  119ccc     C1 2658   7.685   3.522   7.165  0.5967  0.2174 -0.7355
  119ccc     H1 2659   7.623   3.513   7.254 -0.9636  2.8270 -1.4470
  119ccc     H2 2660   7.712   3.425   7.123  1.5574  0.2383 -0.1849
  119ccc     C2 2661   7.823   3.583   7.198  0.2729  0.1821  0.1877
  119ccc     H3 2662   7.872   3.627   7.110  1.4755 -0.4317  0.5234
  119ccc     H4 2663   7.816   3.665   7.270 -0.2365 -0.5359  0.9715
  119ccc     C3 2664   7.916   3.474   7.255  1.2598 -0.2068 -0.7773
  119ccc     H5 2665   7.928   3.392   7.184  1.4194  0.0463 -1.0407
  119ccc     H6 2666   7.873   3.438   7.350  1.7607  3.2602  0.9240
  119ccc     N1 2667   7.600   3.593   7.061 -0.2661 -0.6960 -0.3782
  119ccc     H7 2668   7.580   3.687   7.098  0.9828 -1.0494  1.3439
  119ccc     H8 2669   7.658   3.595   6.975  1.0724  0.8944  0.5170
  119ccc     O1 2670   8.048   3.526   7.289  0.1178 -0.1186 -0.6966
  119ccc    H17 2671   7.514   3.541   7.041 -1.9411  1.5723  0.5069
  120ccc     C1 2672   8.766   5.367   6.834  1.4547 -0.3657  0.0638
  120ccc     H1 2673   8.834   5.449   6.859  1.0948 -0.6660  2.2077
  120ccc     H2 2674   8.676   5.390   6.892  1.1776  0.2774 -0.6053
  120ccc     C2 2675   8.839   5.243   6.881 -0.0895  0.4722  0.3674
  120ccc     H3 2676   8.774   5.156   6.870  2.6294 -1.5849 -0.6266
  120ccc     H4 2677   8.931   5.226   6.824 -0.6933  0.5067 -0.6312
  120ccc     C3 2678   8.884   5.263   7.029  0.2026 -0.2305  0.1605
  120ccc     H5 2679   8.958   5.343   7.042 -1.0760  1.0147 -0.0513
  120ccc     H6 2680   8.942   5.172   7.051  0.1667 -0.8082 -1.8948
  120ccc     N1 2681   8.713   5.363   6.694 -0.6176 -0.0934  0.3046
  120ccc     H7 2682   8.660   5.449   6.673 -0.1526  0.1853  0.2530
  120ccc     H8 2683   8.789   5.385   6.628 -1.4809  1.7406 -0.1639
  120ccc     O1 2684   8.762   5.285   7.109  0.9129 -0.2087 -0.0332
  120ccc    H17 2685   8.660   5.277   6.674  1.1522 -1.0632 -0.4426
  121ccc     C1 2686   8.440   5.734   7.561  0.4211  0.2538 -0.5560
  121ccc     H1 2687   8.378   5.793   7.628 -0.2624 -0.6910 -0.3341
  121ccc     H2 2688   8.410   5.753   7.458  0.0331  4.3408  0.1517
  121ccc     C2 2689   8.446   5.586   7.601 -0.0104  0.9226 -0.1754
  121ccc     H3 2690   8.547   5.549   7.581  0.0713  0.2491  1.3107
  121ccc     H4 2691   8.442   5.586   7.711 -0.7515  0.8450 -0.2028
  121ccc     C3 2692   8.325   5.498   7.546 -0.3968  0.1373 -0.4293
  121ccc     H5 2693   8.338   5.491   7.437  3.2536 -1.3209 -0.0675
  121ccc     H6 2694   8.224   5.530   7.574 -0.2148 -0.8866  1.6558
  121ccc     N1 2695   8.579   5.801   7.570  0.1727 -0.0065 -0.0557
  121ccc     H7 2696   8.609   5.808   7.668  1.0221  0.3711 -0.3281
  121ccc     H8 2697   8.653   5.746   7.523  1.7815  1.6752  0.3881
  121ccc     O1 2698   8.345   5.357   7.581 -0.1590 -0.5539 -0.5548
  121ccc    H17 2699   8.583   5.889   7.518  0.4912 -2.0866 -3.9571
  122ccc     C1 2700   8.918   4.937   8.310 -0.7227  0.3671 -0.2551
  122ccc     H1 2701   8.997   5.001   8.269  0.4410 -0.3890  0.7149
  122ccc     H2 2702   8.958   4.836   8.295  0.2982  0.7057  0.0579
  122ccc     C2 2703   8.795   4.949   8.222  0.5230  0.4866 -0.2973
  122ccc     H3 2704   8.710   4.894   8.263  0.7452  0.3694  0.0130
  122ccc     H4 2705   8.769   5.055   8.219 -0.5912  0.2060 -1.3534
  122ccc     C3 2706   8.832   4.893   8.085  0.0233 -0.5265  0.5175
  122ccc     H5 2707   8.916   4.951   8.045 -0.8209  2.2579  2.4860
  122ccc     H6 2708   8.745   4.921   8.023 -0.4661  2.3995  2.3410
  122ccc     N1 2709   8.891   4.970   8.457  0.5645 -0.4914  0.1116
  122ccc     H7 2710   8.882   5.073   8.461  1.1732 -0.3302 -1.5913
  122ccc     H8 2711   8.811   4.920   8.497  0.3291 -1.0172 -0.9728
  122ccc     O1 2712   8.851   4.747   8.095  0.1421  0.0199 -0.2701
  122ccc    H17 2713   8.975   4.956   8.515  1.1258 -1.2773 -0.8620
  123ccc     C1 2714   8.509   3.900   8.236  0.2594  0.0089  0.2557
  123ccc     H1 2715   8.532   3.797   8.262  0.4755 -0.3194 -1.1288
  123ccc     H2 2716   8.570   3.944   8.156 -2.4265  1.5395 -1.1025
  123ccc     C2 2717   8.513   3.979   8.364 -0.5426 -1.2400 -0.1414
  123ccc     H3 2718   8.450   4.069   8.360  1.4241  0.2143  0.3388
  123ccc     H4 2719   8.476   3.913   8.443 -0.9300 -0.6638  0.1623
  123ccc     C3 2720   8.659   4.014   8.390 -0.1820 -0.0741 -1.6600
  123ccc     H5 2721   8.717   3.923   8.372  0.2324 -0.4965  1.2902
  123ccc     H6 2722   8.666   4.057   8.491 -2.8040  1.0041 -1.8553
  123ccc     N1 2723   8.374   3.890   8.168  0.4456  0.3087  0.0235
  123ccc     H7 2724   8.366   3.818   8.095 -0.2349  1.5753 -1.2032
  123ccc     H8 2725   8.301   3.867   8.236 -1.6199 -0.0707 -2.2036
  123ccc     O1 2726   8.699   4.113   8.287  0.4921 -0.5016 -0.0580
  123ccc    H17 2727   8.347   3.979   8.122  1.2894  1.0061  0.8473
  124ccc     C1 2728   9.687   4.473   8.503 -0.1135 -0.0590  0.5192
  124ccc     H1 2729   9.720   4.576   8.487 -1.2735  0.4565  1.3775
  124ccc     H2 2730   9.739   4.442   8.594  1.8692 -1.8596 -1.1268
  124ccc     C2 2731   9.748   4.400   8.375  0.1397  0.2560  0.0038
  124ccc     H3 2732   9.698   4.303   8.365 -1.8458  1.0518  1.4882
  124ccc     H4 2733   9.728   4.455   8.283 -0.2743 -1.3420 -0.8949
  124ccc     C3 2734   9.896   4.378   8.377 -0.0668  0.5233 -0.2370
  124ccc     H5 2735   9.913   4.302   8.455  0.4267 -0.1755 -1.0116
  124ccc     H6 2736   9.949   4.470   8.402  1.9838 -0.4425 -0.8243
  124ccc     N1 2737   9.533   4.464   8.496  0.2647  0.7639 -0.3211
  124ccc     H7 2738   9.493   4.514   8.577  0.2776 -0.8076  0.7117
  124ccc     H8 2739   9.493   4.502   8.409 -1.9202 -1.3172 -0.3302
  124ccc     O1 2740   9.928   4.322   8.255 -0.1207 -0.4767  0.3755
  124ccc    H17 2741   9.504   4.367   8.518 -0.1078  1.0689  0.6008
  125ccc     C1 2742  10.634   4.185   8.143 -0.3150  0.0337 -0.0231
  125ccc     H1 2743  10.527   4.210   8.138 -0.9279 -2.5272 -1.1309
  125ccc     H2 2744  10.693   4.277   8.152 -0.3911  0.2560 -1.4864
  125ccc     C2 2745  10.667   4.106   8.018 -0.8720  0.3198  0.3606
  125ccc     H3 2746  10.767   4.063   8.018 -0.1328  1.8246 -2.0973
  125ccc     H4 2747  10.604   4.017   8.017 -0.9432  0.3381  1.9266
  125ccc     C3 2748  10.657   4.194   7.894 -0.2261  0.6446  0.0915
  125ccc     H5 2749  10.693   4.144   7.803 -3.0845 -0.1505 -0.6939
  125ccc     H6 2750  10.721   4.282   7.903  0.5373  0.2476 -1.0970
  125ccc     N1 2751  10.638   4.098   8.268 -0.1496 -0.2585 -0.0328
  125ccc     H7 2752  10.614   4.000   8.244 -1.3885  0.4942 -2.2221
  125ccc     H8 2753  10.735   4.094   8.300 -0.8196 -2.0853  1.9801
  125ccc     O1 2754  10.520   4.241   7.875 -0.3280  0.4091  0.1033
  125ccc    H17 2755  10.576   4.136   8.341  1.8226  1.0495  1.0207
  126SOL     OW 2756   7.953   0.306   5.545 -0.4142  0.1066 -0.2576
  126SOL    HW1 2757   7.941   0.213   5.525  2.1298 -1.0600  2.7644
  126SOL    HW2 2758   8.036   0.328   5.502 -0.2867  0.5618  0.2242
  127SOL     OW 2759   2.158   6.037   9.081 -0.2624  0.3932 -0.4503
  127SOL    HW1 2760   2.120   5.982   9.150  0.0475  0.3169 -0.3374
  127SOL    HW2 2761   2.250   6.045   9.105  0.7011 -2.4903 -2.6648
  128SOL     OW 2762   5.697   6.828   6.160  0.6967  0.4527 -0.3279
  128SOL    HW1 2763   5.643   6.890   6.110  0.4152  0.5265  0.0630
  128SOL    HW2 2764   5.635   6.760   6.187  1.2283 -0.6590 -1.7926
  129SOL     OW 2765   0.946  10.211   5.946  0.3958  0.5370 -0.3077
  129SOL    HW1 2766   0.900  10.143   5.995  1.6093 -1.0871 -1.3186
  129SOL    HW2 2767   1.013  10.243   6.006 -0.3361  1.0339  0.2574
  130SOL     OW 2768   3.120   1.794   0.646  0.2951  0.1891 -0.3458
  130SOL    HW1 2769   3.205   1.758   0.672  1.3221  1.8520 -1.2226
  130SOL    HW2 2770   3.125   1.887   0.671 -0.9316  0.4968 -1.1761
  131SOL     OW 2771   9.270  10.248   1.461  0.0151 -0.1418 -0.9173
  131SOL    HW1 2772   9.319  10.319   1.503 -2.0268  0.6429  0.3131
  131SOL    HW2 2773   9.320  10.226   1.383  2.2548  0.6255  0.2310
  132SOL     OW 2774   6.337   8.883   9.651  0.3047 -0.4007  0.2081
  132SOL    HW1 2775   6.275   8.955   9.663  0.2523 -0.2917 -0.6556
  132SOL    HW2 2776   6.415   8.910   9.700  0.8576  0.9706 -1.3334
  133SOL     OW 2777   6.674   4.494   6.456 -0.4859 -0.2193 -0.2739
  133SOL    HW1 2778   6.749   4.446   6.491  0.9067  1.0441 -1.4157
  133SOL    HW2 2779   6.675   4.578   6.503  0.4898  0.8790 -2.1438
  134SOL     OW 2780   6.768   8.442   7.070  0.0906  0.3242 -0.1902
  134SOL    HW1 2781   6.751   8.506   7.000 -1.7593  1.1586  0.9256
  134SOL    HW2 2782   6.770   8.357   7.025 -1.7178  0.7703 -1.2220
  135SOL     OW 2783   6.444   3.286   1.904 -0.3457  0.3535 -0.0231
  135SOL    HW1 2784   6.424   3.223   1.835 -0.4690 -1.0750  1.2672
  135SOL    HW2 2785   6.537   3.306   1.893  0.1034 -1.2932  0.4824
  136SOL     OW 2786   3.416  10.074   8.772 -0.1614  0.5745  0.3957
  136SOL    HW1 2787   3.470  10.147   8.742 -0.0006 -0.0799 -1.0171
  136SOL    HW2 2788   3.466  10.035   8.844 -0.2831  1.8658  1.2083
  137SOL     OW 2789   3.104   6.154   9.621 -0.3958 -0.5753 -0.1005
  137SOL    HW1 2790   3.032   6.135   9.561 -1.9122  0.0865  1.4311
  137SOL    HW2 2791   3.089   6.244   9.649  1.4462 -0.1729 -0.2434
  138SOL     OW 2792   8.868   0.491   3.353 -0.6375 -0.4579  0.1770
  138SOL    HW1 2793   8.879   0.405   3.314  0.1752 -0.5427  0.5667
  138SOL    HW2 2794   8.936   0.545   3.312 -0.4365 -0.2893  0.7086
  139SOL     OW 2795   9.914   2.216   5.088  0.7607 -0.2741  0.0166
  139SOL    HW1 2796   9.994   2.269   5.100  1.3368 -1.1045 -0.0738
  139SOL    HW2 2797   9.901   2.215   4.993 -0.5721  1.5875  0.1227
  140SOL     OW 2798  10.551   6.131   6.376  0.1104 -0.6977  0.6862
  140SOL    HW1 2799  10.514   6.140   6.288  0.7071  1.1952  0.5903
  140SOL    HW2 2800  10.524   6.044   6.405 -2.4789 -0.2959 -0.2670
  141SOL     OW 2801   6.287   6.051   1.218  0.0640  0.0619 -0.5310
  141SOL    HW1 2802   6.196   6.069   1.192  0.1378  1.3888  0.0661
  141SOL    HW2 2803   6.301   5.960   1.192 -0.8243  0.4076 -2.3591
  142SOL     OW 2804  10.550   6.360   5.537  0.3268  0.8012 -0.7733
  142SOL    HW1 2805  10.642   6.361   5.564 -0.2143  2.1944  1.2562
  142SOL    HW2 2806  10.524   6.268   5.544  1.3719  0.5068 -0.6464
  143SOL     OW 2807   9.503   9.653   9.513  0.6414 -0.0420 -0.1365
  143SOL    HW1 2808   9.481   9.705   9.435 -1.9219  0.0644  0.5690
  143SOL    HW2 2809   9.495   9.714   9.586  0.8162 -0.6739  0.4201
  144SOL     OW 2810   0.830   3.923   0.201 -0.5387  0.1595 -0.2202
  144SOL    HW1 2811   0.738   3.898   0.195 -0.4414 -0.3096  0.1431
  144SOL    HW2 2812   0.877   3.840   0.212 -0.2124  0.4847  1.1087
  145SOL     OW 2813   3.194   8.964   8.185  0.0322 -0.3823  0.4081
  145SOL    HW1 2814   3.280   8.942   8.148 -0.7138 -0.3133 -1.4825
  145SOL    HW2 2815   3.147   8.880   8.187 -0.2337 -0.2325  0.3845
  146SOL     OW 2816   7.458   1.181   7.537  0.2663  0.0419 -0.4707
  146SOL    HW1 2817   7.368   1.156   7.556  0.9008 -0.5357  2.1200
  146SOL    HW2 2818   7.455   1.218   7.449 -2.4821  0.0234 -0.4497
  147SOL     OW 2819   4.616   6.842   4.486  0.2622 -0.1675  0.0132
  147SOL    HW1 2820   4.582   6.844   4.575 -0.1536  0.8323 -0.1566
  147SOL    HW2 2821   4.624   6.934   4.461 -0.3277 -0.4329 -1.2441
  148SOL     OW 2822   9.300   9.098  10.280 -0.3186  0.4701  0.0529
  148SOL    HW1 2823   9.292   9.121  10.373 -2.0542  0.9374 -0.1749
  148SOL    HW2 2824   9.374   9.037  10.277  1.4634  2.4385  1.3380
  149SOL     OW 2825   1.870   5.741  10.649  0.0036  0.1325  0.1548
  149SOL    HW1 2826   1.864   5.835  10.633 -0.7233  0.2587  1.0824
  149SOL    HW2 2827   1.782   5.716  10.677  0.1840 -0.8318 -0.1093
  150SOL     OW 2828   5.743   1.301   3.539 -1.0571 -0.1145  0.3713
  150SOL    HW1 2829   5.708   1.293   3.628  0.2617 -1.0877  0.8288
  150SOL    HW2 2830   5.712   1.223   3.494 -2.2582  0.6851 -0.2543
  151SOL     OW 2831   3.691   0.338   0.839  0.0703  0.4019 -0.1787
  151SOL    HW1 2832   3.715   0.245   0.849  0.8622  0.6053 -0.1092
  151SOL    HW2 2833   3.617   0.337   0.779 -2.0827 -0.5392  2.2863
  152SOL     OW 2834  10.717   2.292   8.074  0.0323  0.0513  1.1338
  152SOL    HW1 2835  10.800   2.245   8.060  0.8628  1.9909 -1.1615
  152SOL    HW2 2836  10.742   2.374   8.115 -0.5485  1.1571 -0.6159
  153SOL     OW 2837   0.082   9.879   5.236  0.0406 -0.0243 -0.0691
  153SOL    HW1 2838   0.074   9.917   5.149 -0.9287 -0.4077 -0.1477
  153SOL    HW2 2839   0.007   9.821   5.245 -0.4385  0.7884  1.4103
  154SOL     OW 2840   4.521   6.362   9.447 -0.0716 -0.1473 -0.4139
  154SOL    HW1 2841   4.477   6.346   9.364 -2.9584 -1.7460  1.2671
  154SOL    HW2 2842   4.610   6.328   9.435 -0.1278  0.4463 -3.0356
  155SOL     OW 2843   6.842   9.698   5.420  0.1613 -0.3200  0.3382
  155SOL    HW1 2844   6.840   9.783   5.464  0.5791 -0.5741  0.8718
  155SOL    HW2 2845   6.769   9.650   5.458 -0.8880  0.2409 -0.9148
  156SOL     OW 2846   3.153   0.471   3.322 -0.4074  0.0559 -0.0228
  156SOL    HW1 2847   3.237   0.491   3.281 -0.9082  0.6867 -0.7683
  156SOL    HW2 2848   3.100   0.548   3.306 -1.7793 -1.0901 -1.3256
  157SOL     OW 2849   4.740   8.173   4.299  0.9508 -1.1279  0.2194
  157SOL    HW1 2850   4.704   8.085   4.308  0.7992 -1.1006 -0.1306
  157SOL    HW2 2851   4.676   8.230   4.343  0.5102 -1.0661 -0.4925
  158SOL     OW 2852   1.539   0.556   4.146  0.1166 -0.3198  0.3947
  158SOL    HW1 2853   1.556   0.524   4.235  1.5359 -0.8352 -0.0274
  158SOL    HW2 2854   1.487   0.486   4.106 -0.1543 -0.2856  0.6807
  159SOL     OW 2855   3.798   8.410   2.898  1.1425  0.2649  0.1878
  159SOL    HW1 2856   3.716   8.447   2.866  0.1173 -1.1278  1.1133
  159SOL    HW2 2857   3.865   8.444   2.838  0.5095  4.4542  1.5697
  160SOL     OW 2858   4.043   5.108   2.583 -0.2376 -0.0758 -0.0614
  160SOL    HW1 2859   4.060   5.164   2.658  0.3721  0.9269 -0.9249
  160SOL    HW2 2860   3.970   5.052   2.611  0.2206  0.0093  1.3929
  161SOL     OW 2861   7.804   9.659   5.664 -0.4843 -0.8279 -0.5705
  161SOL    HW1 2862   7.784   9.699   5.580  1.1289  0.2558 -0.4898
  161SOL    HW2 2863   7.838   9.572   5.643 -1.2104 -1.0207 -0.9522
  162SOL     OW 2864   7.049   8.336   1.825 -0.3121  0.2227  0.1497
  162SOL    HW1 2865   6.996   8.267   1.785 -0.0261  0.5300 -0.7998
  162SOL    HW2 2866   7.061   8.308   1.916 -0.2869 -0.9135 -0.1899
  163SOL     OW 2867   2.193   4.001   8.499  0.5399  0.2511  0.2045
  163SOL    HW1 2868   2.175   4.087   8.461 -0.5338  0.2047  0.5778
  163SOL    HW2 2869   2.140   3.999   8.579 -1.0089 -1.5336 -0.8129
  164SOL     OW 2870   4.799   1.230   6.807 -0.3919 -0.4055  0.3767
  164SOL    HW1 2871   4.812   1.151   6.859  1.1053 -1.2515 -1.1747
  164SOL    HW2 2872   4.774   1.198   6.721  2.4520  0.6153 -0.9455
  165SOL     OW 2873   3.290   9.277   9.768  0.4545 -0.3427 -0.8169
  165SOL    HW1 2874   3.273   9.371   9.759 -0.1930 -0.2383  1.1293
  165SOL    HW2 2875   3.383   9.272   9.791 -0.3028  0.1686  2.8308
  166SOL     OW 2876   2.228   1.298   3.965  0.4841  0.0570  0.8540
  166SOL    HW1 2877   2.159   1.233   3.948 -1.0685  1.4600  1.5426
  166SOL    HW2 2878   2.309   1.247   3.965 -0.4317 -1.5106 -0.8950
  167SOL     OW 2879   3.465   0.708   6.334 -0.0962  0.1284  0.1356
  167SOL    HW1 2880   3.444   0.740   6.422  0.5501 -1.1659  0.7852
  167SOL    HW2 2881   3.482   0.788   6.283  1.8751  0.8801  1.7966
  168SOL     OW 2882   5.749   0.771   8.005  0.3736 -0.3161  0.8087
  168SOL    HW1 2883   5.699   0.782   8.086 -2.9215 -0.8339 -0.9728
  168SOL    HW2 2884   5.745   0.857   7.963  1.3714 -0.2607  0.8061
  169SOL     OW 2885   2.865   7.161   4.353 -0.1036 -0.0436 -0.1036
  169SOL    HW1 2886   2.805   7.176   4.426 -0.4143  0.6318 -0.4901
  169SOL    HW2 2887   2.950   7.146   4.395 -0.2407  0.5463  0.3973
  170SOL     OW 2888   6.841  10.180   4.457  0.1398 -0.6335  0.1223
  170SOL    HW1 2889   6.807  10.213   4.373  0.6354 -0.6086 -0.0745
  170SOL    HW2 2890   6.923  10.137   4.433  0.3292 -0.5431  0.6113
  171SOL     OW 2891   2.193   4.279   5.599 -0.3637 -0.3318 -0.1190
  171SOL    HW1 2892   2.116   4.306   5.547  0.5014 -0.5169 -1.5466
  171SOL    HW2 2893   2.253   4.240   5.535  1.8664  1.7540  0.5707
  172SOL     OW 2894   6.753   2.507  10.187  0.0446  0.0988 -0.0073
  172SOL    HW1 2895   6.796   2.580  10.141 -0.2670  1.5275  1.8630
  172SOL    HW2 2896   6.816   2.479  10.252 -0.0174 -1.0584 -0.4152
  173SOL     OW 2897  10.381   8.788   3.628 -0.4411  0.2312  0.6222
  173SOL    HW1 2898  10.429   8.708   3.605 -1.1291  0.4301 -1.8107
  173SOL    HW2 2899  10.294   8.757   3.652 -1.2870  0.2358 -2.0629
  174SOL     OW 2900   3.682   4.311   1.042  0.0983 -0.6435 -0.2743
  174SOL    HW1 2901   3.700   4.339   0.953  0.4794 -0.7716 -0.2407
  174SOL    HW2 2902   3.596   4.270   1.038 -0.5736  0.6961 -0.2834
  175SOL     OW 2903  10.514   9.942  10.651  0.5189  0.2473 -0.4787
  175SOL    HW1 2904  10.457   9.987  10.713  1.0495  1.0697 -0.5718
  175SOL    HW2 2905  10.505   9.992  10.570  0.3766 -0.3944 -0.8611
  176SOL     OW 2906   1.532   6.906   7.637  0.4094 -0.1557  0.3121
  176SOL    HW1 2907   1.611   6.865   7.673  1.1972  1.7284  0.8500
  176SOL    HW2 2908   1.563   6.987   7.596 -1.1335  0.1657 -0.3068
  177SOL     OW 2909   0.461   2.984   3.103  0.2374  0.5662  0.1800
  177SOL    HW1 2910   0.540   2.958   3.057 -0.9122 -2.8732 -0.1288
  177SOL    HW2 2911   0.415   3.042   3.041 -0.0995 -1.9701 -2.1466
  178SOL     OW 2912   8.210   7.002   5.696 -0.1139 -0.0334 -0.2387
  178SOL    HW1 2913   8.158   7.081   5.684  2.0063  1.8109  1.6832
  178SOL    HW2 2914   8.194   6.951   5.617 -0.6074  2.9255 -2.2284
  179SOL     OW 2915   9.155  10.780  10.564  0.2534  0.3348  0.3184
  179SOL    HW1 2916   9.103  10.721  10.510  1.5658 -0.4306 -0.1542
  179SOL    HW2 2917   9.241  10.780  10.523  0.8442  0.9666  1.5147
  180SOL     OW 2918   1.059   9.434   7.293  0.2441  0.3906  0.0119
  180SOL    HW1 2919   0.974   9.392   7.307  0.3120  0.2861  0.1020
  180SOL    HW2 2920   1.113   9.366   7.254  0.5684  0.1878  0.8112
  181SOL     OW 2921   3.436   0.324   0.227 -0.4909  0.4118 -0.0820
  181SOL    HW1 2922   3.510   0.381   0.250 -0.7579 -0.0439  2.1669
  181SOL    HW2 2923   3.474   0.259   0.168  0.5207  1.1367 -0.2715
  182SOL     OW 2924   6.614   4.574   1.647  0.0761  0.1937  0.5561
  182SOL    HW1 2925   6.618   4.479   1.643 -3.0829 -0.0724  0.9881
  182SOL    HW2 2926   6.595   4.601   1.557 -1.2744  0.1647  0.8055
  183SOL     OW 2927   7.271   1.879   1.343 -0.1903  0.0435 -0.0062
  183SOL    HW1 2928   7.263   1.972   1.364  0.3774  0.2649 -0.7574
  183SOL    HW2 2929   7.353   1.872   1.294  0.5598 -1.0840  1.3422
  184SOL     OW 2930   5.859   3.378   1.194  0.3930  0.1013  0.1471
  184SOL    HW1 2931   5.848   3.340   1.281  0.8422 -0.6300 -0.1012
  184SOL    HW2 2932   5.925   3.322   1.152 -0.7593 -0.3771 -1.1230
  185SOL     OW 2933   0.216   8.487   3.765  0.8889 -0.1172  0.5280
  185SOL    HW1 2934   0.161   8.410   3.753 -2.5929  2.4216 -1.7630
  185SOL    HW2 2935   0.263   8.497   3.682  1.5900  0.0605  0.9332
  186SOL     OW 2936   5.907  10.293   3.871 -0.1980 -0.1800  0.0015
  186SOL    HW1 2937   5.854  10.218   3.845 -1.7392  1.3682 -1.6060
  186SOL    HW2 2938   5.855  10.338   3.938 -0.2653  0.5241 -0.5029
  187SOL     OW 2939   9.996   2.118   2.609  0.2142 -0.7546 -0.0696
  187SOL    HW1 2940   9.921   2.174   2.629 -0.2831 -1.5642  0.3706
  187SOL    HW2 2941  10.062   2.178   2.573  0.2946  0.3717  1.8235
  188SOL     OW 2942   2.070   2.946   9.852  0.5051  0.0089 -0.2560
  188SOL    HW1 2943   2.110   2.937   9.939  1.3837 -1.3017 -0.7586
  188SOL    HW2 2944   2.104   3.028   9.817  0.8246  0.1103  0.2854
  189SOL     OW 2945   0.249   2.822   4.901 -0.1668 -0.1792  0.1271
  189SOL    HW1 2946   0.329   2.867   4.928 -0.7061  0.0272  1.4912
  189SOL    HW2 2947   0.252   2.738   4.948 -0.3607 -0.5041 -0.4372
  190SOL     OW 2948   3.747   7.002   6.744  0.5071  0.9736  0.0201
  190SOL    HW1 2949   3.780   6.992   6.833 -1.1327 -1.0865  0.4716
  190SOL    HW2 2950   3.652   7.010   6.755  0.0828 -1.0528 -1.5820
  191SOL     OW 2951  10.318   9.209   4.655 -0.2920  0.2720  0.0416
  191SOL    HW1 2952  10.295   9.177   4.742 -0.6258  2.0774  0.6595
  191SOL    HW2 2953  10.256   9.279   4.638 -1.3547 -1.1657 -2.4250
  192SOL     OW 2954   0.541   8.257   0.272  0.2555 -0.5323  0.2777
  192SOL    HW1 2955   0.590   8.300   0.342  0.3437 -0.8069  0.3823
  192SOL    HW2 2956   0.599   8.187   0.242  1.1245  0.8066 -1.4379
  193SOL     OW 2957   4.423   6.571  10.580 -0.0986  0.6905 -0.4417
  193SOL    HW1 2958   4.330   6.549  10.583  0.4554 -1.8615 -0.2588
  193SOL    HW2 2959   4.437   6.603  10.490 -0.8827 -0.2141 -0.9043
  194SOL     OW 2960   6.160  10.283   0.604  0.1099  0.1123 -0.1147
  194SOL    HW1 2961   6.232  10.321   0.655  0.4996 -0.3828 -0.2923
  194SOL    HW2 2962   6.087  10.280   0.665  0.1861  0.7666  0.0235
  195SOL     OW 2963  10.392   9.850   6.674  0.2863  0.4299 -0.0531
  195SOL    HW1 2964  10.332   9.776   6.665 -0.5576  0.9812  0.8081
  195SOL    HW2 2965  10.446   9.829   6.750 -1.4968  1.6627  1.6675
  196SOL     OW 2966   3.032   2.370   5.684 -0.1011 -0.0544 -0.1490
  196SOL    HW1 2967   3.063   2.397   5.598 -0.6492 -0.5269 -0.4978
  196SOL    HW2 2968   3.043   2.448   5.739  1.3324 -0.0890 -0.3511
  197SOL     OW 2969   6.265   0.038  10.547 -0.4997 -0.8461  0.2248
  197SOL    HW1 2970   6.171   0.053  10.535 -0.4281  0.6772  1.2101
  197SOL    HW2 2971   6.294   0.112  10.601  1.5519 -0.4436 -1.2901
  198SOL     OW 2972   5.771   7.071   5.006 -0.2081  0.3028 -0.5067
  198SOL    HW1 2973   5.716   7.145   5.032 -1.8467 -0.1850 -2.3472
  198SOL    HW2 2974   5.848   7.112   4.966 -1.3025  1.0920 -1.9262
  199SOL     OW 2975   8.461   0.895   4.776  0.2226  0.3258 -0.1870
  199SOL    HW1 2976   8.449   0.900   4.681 -1.5115  1.7900  0.0404
  199SOL    HW2 2977   8.373   0.878   4.810  0.4082  1.9077  1.2409
  200SOL     OW 2978   0.260   9.809   8.479 -0.1770 -0.4680  0.2814
  200SOL    HW1 2979   0.195   9.746   8.450  0.5925 -0.5855 -1.3301
  200SOL    HW2 2980   0.274   9.865   8.403  1.1386 -0.0624  0.7932
  201SOL     OW 2981   2.300   2.468   3.296 -0.1194  0.2611 -0.3193
  201SOL    HW1 2982   2.224   2.456   3.353  1.6719 -1.4033  1.9074
  201SOL    HW2 2983   2.335   2.380   3.284  2.0625  1.0760 -0.3992
  202SOL     OW 2984   7.729   1.017   8.239 -0.6361  0.1444  0.2592
  202SOL    HW1 2985   7.638   0.991   8.225 -0.7334 -0.3171  1.6028
  202SOL    HW2 2986   7.750   0.985   8.326  0.8358  0.2297 -0.0356
  203SOL     OW 2987   1.126   3.438   3.098 -0.0220 -0.1783  0.0420
  203SOL    HW1 2988   1.062   3.510   3.094 -0.1698 -0.3612 -2.0089
  203SOL    HW2 2989   1.200   3.470   3.047 -0.1870 -1.5396 -1.1042
  204SOL     OW 2990   5.973   1.640   8.286  0.7619  0.0056 -0.1356
  204SOL    HW1 2991   6.047   1.591   8.320  1.4308  0.8383 -0.3818
  204SOL    HW2 2992   5.896   1.590   8.315  1.4090 -0.9190  0.0246
  205SOL     OW 2993   1.124   9.992   0.976 -0.0843 -0.5909  0.3728
  205SOL    HW1 2994   1.072   9.973   0.897  1.3505 -3.7494  0.0529
  205SOL    HW2 2995   1.060   9.990   1.047 -0.7532 -2.5734 -0.2182
  206SOL     OW 2996   5.890   4.727   9.652  0.4825 -1.1125  0.6676
  206SOL    HW1 2997   5.965   4.777   9.684  0.6918  0.6560 -2.2709
  206SOL    HW2 2998   5.819   4.750   9.713  1.4340  0.0744  1.3819
  207SOL     OW 2999   0.701   5.396   1.767  0.7163  0.2639  0.5690
  207SOL    HW1 3000   0.671   5.487   1.779 -1.8279 -0.4287  0.2049
  207SOL    HW2 3001   0.717   5.388   1.673  1.4413  0.4547  0.6714
  208SOL     OW 3002   6.455   2.210   7.197 -0.3677  0.0088 -0.4282
  208SOL    HW1 3003   6.546   2.237   7.207  0.1394 -1.4853 -0.7038
  208SOL    HW2 3004   6.408   2.259   7.265  0.3911  1.8077 -1.1422
  209SOL     OW 3005   2.234   2.397   4.263 -0.1528 -0.1008  0.1065
  209SOL    HW1 3006   2.211   2.348   4.184  0.3442 -0.3041  0.0860
  209SOL    HW2 3007   2.150   2.418   4.303 -0.6376  2.7409 -2.0718
  210SOL     OW 3008   4.340   5.342   4.589  0.2500 -0.0939 -0.2287
  210SOL    HW1 3009   4.431   5.370   4.577 -0.2246  1.0642 -1.3894
  210SOL    HW2 3010   4.320   5.290   4.512  0.3503 -1.6112  0.7308
  211SOL     OW 3011   7.564   1.594   3.146  0.0011 -0.6861  0.0733
  211SOL    HW1 3012   7.607   1.545   3.216 -1.0846 -0.2360  1.0844
  211SOL    HW2 3013   7.483   1.626   3.185 -0.2476  0.2606 -1.1556
  212SOL     OW 3014   1.803   0.124   9.107 -0.0357  0.5739 -0.4629
  212SOL    HW1 3015   1.741   0.057   9.077  1.2530  0.3874 -2.9989
  212SOL    HW2 3016   1.764   0.158   9.188 -3.1298  0.0650 -1.5955
  213SOL     OW 3017   6.196   4.537   2.686 -0.6624 -0.2999  0.3095
  213SOL    HW1 3018   6.139   4.550   2.762 -0.4022 -0.8066  0.5959
  213SOL    HW2 3019   6.260   4.607   2.692 -0.5039 -0.4755  0.6876
  214SOL     OW 3020   9.201  10.159   1.107 -0.7488  0.5865 -0.0602
  214SOL    HW1 3021   9.141  10.231   1.128 -1.3648 -0.1909  0.9415
  214SOL    HW2 3022   9.160  10.082   1.146  1.0523  0.0854  0.9564
  215SOL     OW 3023   1.367   9.722   7.997  0.1872  0.4315 -0.1192
  215SOL    HW1 3024   1.368   9.626   8.002  1.1266  0.3542 -1.3241
  215SOL    HW2 3025   1.410   9.751   8.077  1.1524 -0.2078 -0.3888
  216SOL     OW 3026   8.835   3.128   6.757 -0.5392 -0.1225 -0.0552
  216SOL    HW1 3027   8.887   3.148   6.835  0.8318 -0.3364 -0.8864
  216SOL    HW2 3028   8.747   3.160   6.778  0.0593  0.8070  1.1489
  217SOL     OW 3029   7.709   1.884  10.004 -0.1674  0.5341 -0.0542
  217SOL    HW1 3030   7.668   1.810   9.960 -0.9034  1.9761 -1.9223
  217SOL    HW2 3031   7.668   1.961   9.965  3.7926  2.1160 -1.7087
  218SOL     OW 3032   2.256   0.154  10.536 -0.2791  0.2071  0.2527
  218SOL    HW1 3033   2.218   0.186  10.618  1.4170 -2.7986  2.4447
  218SOL    HW2 3034   2.350   0.169  10.546 -0.0425 -0.0917 -1.2556
  219SOL     OW 3035   4.553  10.532   4.426 -0.0236 -0.1086 -0.2813
  219SOL    HW1 3036   4.477  10.591   4.422  0.4106  0.5139  0.3747
  219SOL    HW2 3037   4.586  10.542   4.515  0.2490 -1.1216 -0.2656
  220SOL     OW 3038   6.499   9.693   7.655 -0.6792 -0.2002 -0.2262
  220SOL    HW1 3039   6.433   9.626   7.636 -0.6007 -0.1364 -0.7339
  220SOL    HW2 3040   6.577   9.643   7.681 -0.4129 -0.3326 -1.2581
  221SOL     OW 3041   5.214   8.279  10.018 -0.0234 -0.0493  0.0468
  221SOL    HW1 3042   5.198   8.243  10.105  1.3462 -0.7582  0.0338
  221SOL    HW2 3043   5.167   8.362  10.017 -2.2057 -1.2185  0.5336
  222SOL     OW 3044   1.537   7.458   6.343  0.0893  0.1809 -0.5115
  222SOL    HW1 3045   1.457   7.416   6.376 -0.6882  3.2585  2.0542
  222SOL    HW2 3046   1.608   7.417   6.393 -0.6893  1.8411  2.1953
  223SOL     OW 3047   0.451   4.480   0.992  0.0813 -0.5325  0.3880
  223SOL    HW1 3048   0.489   4.485   0.904 -1.6385 -1.0692 -0.4329
  223SOL    HW2 3049   0.504   4.540   1.045  1.0878 -0.1201 -1.0349
  224SOL     OW 3050   5.827   0.730   6.509 -0.4739  0.4267  0.3878
  224SOL    HW1 3051   5.832   0.645   6.554 -0.0876  0.2057 -0.0745
  224SOL    HW2 3052   5.909   0.736   6.460 -1.0569  0.4986 -0.5954
  225SOL     OW 3053   1.644   8.417   4.551  0.1753  0.4512 -0.4248
  225SOL    HW1 3054   1.697   8.337   4.544 -0.2407  0.1826 -0.5256
  225SOL    HW2 3055   1.708   8.486   4.569  0.9268  0.6308 -3.3512
  226SOL     OW 3056  10.792   0.004   1.131 -0.0197 -0.1852 -0.5972
  226SOL    HW1 3057  10.746  -0.045   1.063  1.4707 -0.5016 -1.4058
  226SOL    HW2 3058  10.751   0.090   1.130 -0.4594 -0.3935 -1.4247
  227SOL     OW 3059   4.189  10.181   9.548 -0.1906  0.4859 -0.0300
  227SOL    HW1 3060   4.119  10.119   9.530  0.9647 -0.8407 -0.1018
  227SOL    HW2 3061   4.183  10.198   9.642  0.1876 -0.6565  0.2150
  228SOL     OW 3062   4.184   5.725   5.010  0.0304 -0.1961 -0.2814
  228SOL    HW1 3063   4.143   5.713   4.925 -1.3627 -1.4943  0.5058
  228SOL    HW2 3064   4.166   5.817   5.033  0.5057  0.1860 -1.4099
  229SOL     OW 3065   9.262   9.789   4.401 -0.2358  0.3102 -0.4096
  229SOL    HW1 3066   9.225   9.848   4.336 -1.5219  0.2159  0.1991
  229SOL    HW2 3067   9.231   9.823   4.485  0.9471  0.1197  0.1243
  230SOL     OW 3068   5.344   8.800   2.138  0.0642 -0.5825  0.4273
  230SOL    HW1 3069   5.264   8.791   2.087 -0.2849 -0.4021  0.9258
  230SOL    HW2 3070   5.313   8.821   2.227  0.6770  0.1087  0.4892
  231SOL     OW 3071  10.217   5.158   8.665 -0.2472  0.2168 -0.5216
  231SOL    HW1 3072  10.245   5.097   8.596  0.9372  0.3622 -0.1839
  231SOL    HW2 3073  10.196   5.239   8.618  1.8055  0.7464 -0.6373
  232SOL     OW 3074   6.137   0.668   6.868  0.1431  0.2814 -0.2680
  232SOL    HW1 3075   6.043   0.679   6.854 -0.2097  0.0553  1.7160
  232SOL    HW2 3076   6.173   0.655   6.780 -1.9251 -1.6129 -0.9246
  233SOL     OW 3077   7.076   3.912   9.674  0.1997  0.0846 -0.0812
  233SOL    HW1 3078   7.067   3.964   9.754  1.1675 -1.2479  0.9374
  233SOL    HW2 3079   7.170   3.916   9.654  0.3335 -1.4294  0.1532
  234SOL     OW 3080   0.761   9.623   7.066  0.1523 -0.3150 -0.1422
  234SOL    HW1 3081   0.699   9.579   7.007  0.1903  0.1645 -0.5497
  234SOL    HW2 3082   0.731   9.598   7.154  0.4459 -1.5123 -0.3578
  235SOL     OW 3083   4.117   6.856   9.531  0.7216  0.3674 -0.4285
  235SOL    HW1 3084   4.108   6.867   9.437  2.1362  1.9036 -0.4391
  235SOL    HW2 3085   4.184   6.788   9.541 -0.3090 -0.6951 -0.4773
  236SOL     OW 3086   6.144   1.304   0.288 -0.0420  0.5002 -0.8265
  236SOL    HW1 3087   6.143   1.208   0.298  2.1686  0.5011 -0.0483
  236SOL    HW2 3088   6.055   1.331   0.306 -0.4377 -1.3138  0.1695
  237SOL     OW 3089   7.912   4.437   1.370  0.3434  0.0929 -0.3508
  237SOL    HW1 3090   7.884   4.521   1.334 -0.6870 -0.8526 -1.8566
  237SOL    HW2 3091   7.995   4.457   1.415  0.2360  1.8527 -0.8455
  238SOL     OW 3092   3.129   4.479   2.302  0.0275 -0.2594 -0.1300
  238SOL    HW1 3093   3.102   4.465   2.393  3.0617 -0.6738  0.8265
  238SOL    HW2 3094   3.146   4.573   2.296 -1.5185  0.0205 -0.7650
  239SOL     OW 3095   5.979   2.712   0.991  0.7393  0.2811  0.5436
  239SOL    HW1 3096   6.039   2.649   0.952 -2.2058 -1.0357 -2.2644
  239SOL    HW2 3097   5.916   2.659   1.040 -1.2767  0.9829 -1.1352
  240SOL     OW 3098   6.792   9.905   0.428 -0.6489  0.2427  0.0072
  240SOL    HW1 3099   6.874   9.927   0.473  0.1191 -0.4037 -1.0396
  240SOL    HW2 3100   6.816   9.902   0.335 -2.0272  0.7687 -0.3891
  241SOL     OW 3101   0.731   2.167   7.098  0.4247  0.3433 -0.3049
  241SOL    HW1 3102   0.750   2.197   7.187 -0.0542  1.3691 -0.5297
  241SOL    HW2 3103   0.635   2.168   7.092  0.3829 -1.2433 -0.3428
  242SOL     OW 3104   7.647   7.589   5.603 -0.4476  0.0362 -0.6706
  242SOL    HW1 3105   7.724   7.628   5.645 -0.9155  0.3680 -0.1076
  242SOL    HW2 3106   7.647   7.498   5.632 -1.8622  0.7192  1.6971
  243SOL     OW 3107   7.581   4.591   6.117 -0.0769 -0.4954 -0.0847
  243SOL    HW1 3108   7.578   4.512   6.171  1.3201 -0.5490 -0.0586
  243SOL    HW2 3109   7.585   4.663   6.181  0.1260 -0.4817 -0.1132
  244SOL     OW 3110   6.232   2.986   7.640 -0.3856  0.1500  0.6272
  244SOL    HW1 3111   6.189   3.022   7.717 -0.2838 -0.0540  0.7816
  244SOL    HW2 3112   6.195   3.035   7.566  0.0742  0.8760  0.8686
  245SOL     OW 3113   8.512   7.290   8.811 -0.2922 -0.2379  0.2279
  245SOL    HW1 3114   8.431   7.262   8.768  0.0775 -1.1844  0.1161
  245SOL    HW2 3115   8.537   7.216   8.866  0.6548 -0.0814  0.0331
  246SOL     OW 3116   3.579   4.461   5.670  0.5798  0.0242  0.0377
  246SOL    HW1 3117   3.609   4.533   5.726 -1.6824  0.4195  0.8482
  246SOL    HW2 3118   3.554   4.504   5.588 -1.6897  0.4355  0.8478
  247SOL     OW 3119   5.703   4.192   9.252 -0.4665 -0.5160 -0.0631
  247SOL    HW1 3120   5.648   4.256   9.297 -1.6956 -0.8307 -1.0309
  247SOL    HW2 3121   5.773   4.172   9.314 -0.7854  0.7826  0.7545
  248SOL     OW 3122   4.931   2.529   2.732  0.1885 -0.6467  0.6111
  248SOL    HW1 3123   4.880   2.556   2.655 -0.1861 -0.3332  0.9594
  248SOL    HW2 3124   4.867   2.485   2.789  0.6125 -1.4926  0.4387
  249SOL     OW 3125   7.778  10.621   3.215  0.3359 -0.8001  0.2260
  249SOL    HW1 3126   7.826  10.595   3.294  1.4917 -0.9662 -0.5055
  249SOL    HW2 3127   7.829  10.584   3.143 -3.0723 -4.7466 -0.5731
  250SOL     OW 3128   8.709   2.758   3.159 -0.0169  0.5990 -0.3169
  250SOL    HW1 3129   8.705   2.803   3.244 -0.3020  0.9127 -0.4936
  250SOL    HW2 3130   8.617   2.740   3.138  0.1509 -2.8450  1.2136
  251SOL     OW 3131   2.255   8.824   2.039 -0.1447 -0.1165  0.0496
  251SOL    HW1 3132   2.279   8.913   2.016 -1.3754 -0.0755 -1.1852
  251SOL    HW2 3133   2.216   8.788   1.959 -0.3083 -1.5305  0.7348
  252SOL     OW 3134   0.893   0.186   8.720  0.0782  0.2081 -0.2269
  252SOL    HW1 3135   0.957   0.235   8.667  0.9768  0.6630  1.2242
  252SOL    HW2 3136   0.814   0.240   8.719  0.5193  0.8680 -0.0328
  253SOL     OW 3137  10.157   0.077   6.609 -0.2543  0.1877  0.2094
  253SOL    HW1 3138  10.082   0.096   6.553 -1.4177 -3.6853  0.1323
  253SOL    HW2 3139  10.233   0.084   6.551 -0.3873  3.9063  0.2327
  254SOL     OW 3140   1.421   9.094   0.092 -0.1264  0.0909  0.2123
  254SOL    HW1 3141   1.462   9.178   0.112  0.1628 -0.2792  1.2730
  254SOL    HW2 3142   1.327   9.111   0.099 -0.0519  0.1765  1.1340
  255SOL     OW 3143   0.576   9.151   7.323  0.2229 -0.5969  0.6094
  255SOL    HW1 3144   0.481   9.144   7.309  0.1293 -0.2132  1.0397
  255SOL    HW2 3145   0.591   9.105   7.405  0.1656  0.7949  1.4155
  256SOL     OW 3146   0.203   4.268   0.338 -0.1160 -0.7863  0.0009
  256SOL    HW1 3147   0.288   4.310   0.354 -0.9035  0.1643  1.9151
  256SOL    HW2 3148   0.185   4.286   0.245  0.4237  1.6085  0.3030
  257SOL     OW 3149   2.144  10.746   8.873  0.2941  0.5502 -0.1762
  257SOL    HW1 3150   2.094  10.799   8.811 -1.5631 -0.2311  0.5769
  257SOL    HW2 3151   2.125  10.784   8.959  1.8500  0.8683  0.0492
  258SOL     OW 3152   5.705   8.767   9.128  0.5978 -0.5245  0.1148
  258SOL    HW1 3153   5.749   8.826   9.067  0.0030 -1.6386 -1.4537
  258SOL    HW2 3154   5.680   8.823   9.201  0.8177  0.9874 -0.9151
  259SOL     OW 3155   5.034   9.678   4.574  0.3694  0.1275  0.5834
  259SOL    HW1 3156   5.124   9.694   4.545 -0.1020  1.2546 -0.3415
  259SOL    HW2 3157   5.022   9.583   4.567  0.3953  0.2640 -2.7037
  260SOL     OW 3158   7.836  10.585   8.147  0.0259 -0.4139 -0.5692
  260SOL    HW1 3159   7.859  10.621   8.061  1.0661  0.3636  0.0178
  260SOL    HW2 3160   7.780  10.510   8.127 -0.1255  0.0277 -1.9106
  261SOL     OW 3161   0.674   9.155   4.089 -0.4465  0.0490  0.0033
  261SOL    HW1 3162   0.722   9.228   4.127 -0.9647  0.5111 -0.2106
  261SOL    HW2 3163   0.701   9.154   3.997  0.3434 -0.6826  0.2366
  262SOL     OW 3164   9.672   4.602   5.067 -0.3927 -0.0142 -0.1035
  262SOL    HW1 3165   9.629   4.643   5.142 -0.5414 -0.0343 -0.1761
  262SOL    HW2 3166   9.762   4.588   5.095 -0.5048 -0.2291  0.1523
  263SOL     OW 3167   0.141   5.562   4.406 -0.6587  0.7964  0.2321
  263SOL    HW1 3168   0.121   5.483   4.455 -1.8558  0.7477 -0.2984
  263SOL    HW2 3169   0.060   5.614   4.411 -0.3913  1.3116 -0.6880
  264SOL     OW 3170   9.241   5.508   2.718 -0.2216  0.1339 -0.2337
  264SOL    HW1 3171   9.280   5.505   2.631  1.1786 -1.6729  0.3881
  264SOL    HW2 3172   9.203   5.421   2.729  0.2290  0.1007  1.2069
  265SOL     OW 3173   6.441   6.570   3.591  0.1840  0.3303 -0.0026
  265SOL    HW1 3174   6.475   6.639   3.533 -1.2137  0.0258 -1.2195
  265SOL    HW2 3175   6.488   6.585   3.674  0.7522  2.0301 -0.5712
  266SOL     OW 3176   2.278   2.297   9.840 -0.5340  0.3202 -0.4707
  266SOL    HW1 3177   2.201   2.337   9.880 -0.1561 -0.7012  1.3985
  266SOL    HW2 3178   2.350   2.318   9.900  1.1081  2.8737 -3.1071
  267SOL     OW 3179  10.129   5.372   8.556  0.0153  0.4796  0.5851
  267SOL    HW1 3180  10.060   5.367   8.490 -0.7956 -0.2938  1.4597
  267SOL    HW2 3181  10.131   5.465   8.581 -0.3320  0.6033  0.1695
  268SOL     OW 3182   8.106  10.009   2.701  0.0615  0.3915  0.2076
  268SOL    HW1 3183   8.155   9.980   2.624 -0.4708 -1.6141  0.5635
  268SOL    HW2 3184   8.016  10.020   2.669 -0.1205 -0.2602  0.4682
  269SOL     OW 3185  10.096   1.669   6.545  0.2977  0.0151 -0.3569
  269SOL    HW1 3186  10.093   1.690   6.452 -0.0940 -0.6376 -0.4984
  269SOL    HW2 3187  10.017   1.617   6.560  0.9444 -0.8653  0.0869
  270SOL     OW 3188   9.669   4.653   6.318  0.4976  0.3864  0.3496
  270SOL    HW1 3189   9.700   4.573   6.361  1.5527  0.7282  0.2603
  270SOL    HW2 3190   9.690   4.639   6.225  0.4182  0.6431  0.2937
  271SOL     OW 3191   4.800   9.151   2.610  0.2890 -0.0696 -0.4695
  271SOL    HW1 3192   4.789   9.075   2.553 -2.2444 -0.3642  0.2973
  271SOL    HW2 3193   4.711   9.186   2.622  0.9748  1.1551  1.6827
  272SOL     OW 3194   3.322   4.740   5.858  0.4344 -0.4982 -0.3324
  272SOL    HW1 3195   3.321   4.685   5.780  1.8121  0.9450 -1.4355
  272SOL    HW2 3196   3.377   4.815   5.834  0.2160  0.4023  1.7506
  273SOL     OW 3197   3.523   3.417  10.532  0.1332 -0.0715  0.2803
  273SOL    HW1 3198   3.551   3.330  10.562  1.2841  0.1652 -0.0730
  273SOL    HW2 3199   3.493   3.461  10.612 -1.6731 -1.1959  0.2920
  274SOL     OW 3200   2.594   4.936   2.413 -0.3719  0.2859 -0.1101
  274SOL    HW1 3201   2.658   4.946   2.484  0.2214 -0.3823 -0.5333
  274SOL    HW2 3202   2.599   5.019   2.365  1.8840 -0.5207 -1.4791
  275SOL     OW 3203   0.068  10.629   4.484  0.0903 -0.3091  0.5622
  275SOL    HW1 3204   0.026  10.674   4.411 -0.0553  1.8307  1.8839
  275SOL    HW2 3205   0.000  10.572   4.520  0.0311 -1.0462 -0.6307
  276SOL     OW 3206   4.166   2.496  10.617  0.0047 -0.2828  0.2489
  276SOL    HW1 3207   4.115   2.576  10.605  0.6267  0.0013 -0.6195
  276SOL    HW2 3208   4.226   2.494  10.542  1.6496 -0.3132  1.5105
  277SOL     OW 3209   1.143   1.230  10.727  0.4380  0.0764 -0.0910
  277SOL    HW1 3210   1.112   1.299  10.669  0.0703  1.4781  1.6824
  277SOL    HW2 3211   1.234   1.254  10.746  1.4953 -1.8938 -2.1911
  278SOL     OW 3212   1.263   1.911   7.728 -0.7194 -0.3460  0.5741
  278SOL    HW1 3213   1.208   1.847   7.773 -0.1599 -1.2496  0.0032
  278SOL    HW2 3214   1.352   1.888   7.752 -0.2213 -2.1852 -2.5308
  279SOL     OW 3215   2.968   6.368   0.295 -0.2688  0.0475 -0.4688
  279SOL    HW1 3216   3.058   6.394   0.273 -0.6227  0.2088 -1.8202
  279SOL    HW2 3217   2.969   6.272   0.290 -0.4539  0.0976 -1.7370
  280SOL     OW 3218   2.262   9.015   5.477  0.9090  0.1955  0.6253
  280SOL    HW1 3219   2.219   9.100   5.470 -0.2964 -0.3954  0.4539
  280SOL    HW2 3220   2.189   8.952   5.476  1.7452 -0.8074  1.1874
  281SOL     OW 3221   7.915   3.471   7.975  0.2392 -0.4363  0.4213
  281SOL    HW1 3222   7.934   3.560   8.002 -0.4019  0.1951 -1.0691
  281SOL    HW2 3223   7.920   3.419   8.055 -1.0367  1.2151  1.6357
  282SOL     OW 3224   8.508   0.650   5.031 -0.5535  0.7112 -0.6470
  282SOL    HW1 3225   8.600   0.664   5.050 -0.5318 -0.9392  0.7029
  282SOL    HW2 3226   8.507   0.595   4.952 -0.3359  0.0288 -0.1822
  283SOL     OW 3227   7.045   0.910   1.756 -0.1496 -0.0608 -0.0127
  283SOL    HW1 3228   7.026   0.861   1.836 -0.2664  1.1007  0.7027
  283SOL    HW2 3229   6.979   0.979   1.753  1.0995  1.2089  0.0459
  284SOL     OW 3230   2.510   5.687   3.828  0.3388  0.2987 -0.0993
  284SOL    HW1 3231   2.536   5.731   3.748  1.8262 -0.0943  0.1309
  284SOL    HW2 3232   2.493   5.758   3.890 -0.6072  0.5956 -0.6878
  285SOL     OW 3233   2.818   3.185   2.824 -0.0029 -0.0799 -0.9494
  285SOL    HW1 3234   2.829   3.104   2.774 -0.7919  1.0313 -3.0653
  285SOL    HW2 3235   2.741   3.170   2.878  1.3829 -1.6292  0.7521
  286SOL     OW 3236   7.724   9.004   1.482  0.2015  0.2455 -0.5898
  286SOL    HW1 3237   7.640   8.983   1.523 -0.6796  1.5468 -1.6496
  286SOL    HW2 3238   7.763   9.068   1.542  0.3868 -0.2505 -0.1708
  287SOL     OW 3239   2.536   5.843   9.955  0.0404 -0.1982  0.4878
  287SOL    HW1 3240   2.588   5.857   9.876  0.5807 -3.5205  0.1339
  287SOL    HW2 3241   2.600   5.845  10.026 -0.0983  0.4116  0.6041
  288SOL     OW 3242   3.719   1.594   5.460 -0.4233 -0.3946 -0.2436
  288SOL    HW1 3243   3.693   1.685   5.475  1.2827  0.1448 -0.3630
  288SOL    HW2 3244   3.721   1.555   5.547  0.7336  0.2370  0.0284
  289SOL     OW 3245   6.044  10.261   5.632  0.3125 -0.0882 -0.0336
  289SOL    HW1 3246   6.015  10.187   5.579 -0.2412  0.4558 -0.5149
  289SOL    HW2 3247   5.964  10.291   5.676  0.3065  0.8405 -0.6331
  290SOL     OW 3248  10.799   9.050   0.377 -0.4143  0.9730  0.3183
  290SOL    HW1 3249  10.809   9.008   0.292  2.0859  2.5662 -0.2679
  290SOL    HW2 3250  10.713   9.021   0.408 -0.3876 -1.5728 -1.6301
  291SOL     OW 3251   3.575   0.136   9.547  0.5560  0.4126  0.1269
  291SOL    HW1 3252   3.643   0.171   9.490 -1.1871  0.3191 -2.1510
  291SOL    HW2 3253   3.578   0.041   9.533  1.2548  0.1656  1.6370
  292SOL     OW 3254   0.818   0.155   2.865 -0.1955 -0.4971  0.1952
  292SOL    HW1 3255   0.728   0.187   2.877  0.6283  2.3940 -0.4624
  292SOL    HW2 3256   0.864   0.183   2.944  0.2866 -1.3173  0.2109
  293SOL     OW 3257   3.874   5.157   5.111 -0.3821 -0.3041 -0.2042
  293SOL    HW1 3258   3.934   5.082   5.112  1.2786  0.9333 -2.1080
  293SOL    HW2 3259   3.927   5.231   5.082 -2.5864  1.0933 -0.9016
  294SOL     OW 3260   7.104   0.430   2.748 -0.2430 -0.2857  0.8586
  294SOL    HW1 3261   7.138   0.455   2.834  2.4295  1.4641 -0.5967
  294SOL    HW2 3262   7.178   0.392   2.702 -1.7780 -1.7801 -0.5340
  295SOL     OW 3263   5.241   7.841   1.435 -0.4794 -0.2457  0.5639
  295SOL    HW1 3264   5.189   7.874   1.507  1.6168 -0.2196  2.1648
  295SOL    HW2 3265   5.232   7.746   1.439  0.7287 -0.3292  1.7864
  296SOL     OW 3266   1.751   4.723   6.830 -0.3390 -0.5740 -0.6384
  296SOL    HW1 3267   1.824   4.719   6.892 -1.2895  2.6127  0.9187
  296SOL    HW2 3268   1.784   4.777   6.758 -0.9421  0.5639 -0.1039
  297SOL     OW 3269   2.743   3.365   6.478 -0.1774 -0.4173 -0.6235
  297SOL    HW1 3270   2.830   3.377   6.517  0.2691 -3.3903 -0.4312
  297SOL    HW2 3271   2.761   3.331   6.390 -1.1089 -1.2091 -0.5240
  298SOL     OW 3272   1.364  10.698   1.067 -0.1291 -0.5123  0.3677
  298SOL    HW1 3273   1.397  10.621   1.114 -2.8496 -2.0234  0.0153
  298SOL    HW2 3274   1.280  10.716   1.108  0.6778  2.7587  0.8322
  299SOL     OW 3275   9.060   8.975   9.895  0.1561 -0.0860 -0.1527
  299SOL    HW1 3276   9.117   9.027   9.951 -0.2446  2.0228 -1.5931
  299SOL    HW2 3277   8.974   9.016   9.902  0.6081  2.1443 -4.2655
  300SOL     OW 3278   4.645   8.483   0.287  0.3207  0.1718 -0.1435
  300SOL    HW1 3279   4.621   8.449   0.201 -0.1884 -1.1046  0.4707
  300SOL    HW2 3280   4.568   8.532   0.316  0.1789 -0.0730 -0.0963
  301SOL     OW 3281   8.315   3.870   9.615  0.3201  0.4016  0.3211
  301SOL    HW1 3282   8.253   3.873   9.542 -1.2504  0.4014  1.6262
  301SOL    HW2 3283   8.367   3.950   9.605 -0.4024  0.8028 -0.3409
  302SOL     OW 3284   7.760   2.646   4.095  0.1735 -0.3322  0.2887
  302SOL    HW1 3285   7.821   2.572   4.095 -0.2012 -0.6422  0.1592
  302SOL    HW2 3286   7.730   2.653   4.005  1.3259  0.9166 -0.0289
  303SOL     OW 3287   6.032   2.233   9.948 -0.6988  0.5824 -0.4470
  303SOL    HW1 3288   6.122   2.210   9.975 -1.0015  0.4408  0.4808
  303SOL    HW2 3289   6.036   2.326   9.929  0.0300  0.2628 -2.0762
  304SOL     OW 3290   1.371   5.436   2.347  0.2231 -0.3600  0.1741
  304SOL    HW1 3291   1.407   5.420   2.434 -1.5917  0.4150  1.1086
  304SOL    HW2 3292   1.419   5.513   2.315  0.0683  0.0928  0.9986
  305SOL     OW 3293   7.558   6.945   3.055 -0.3380  0.1058  0.3483
  305SOL    HW1 3294   7.473   6.920   3.019 -0.5181 -0.3770  1.0784
  305SOL    HW2 3295   7.557   6.910   3.144  0.3297  0.7470  0.6164
  306SOL     OW 3296   5.652   9.709   5.445 -0.1670  0.0145  0.0531
  306SOL    HW1 3297   5.622   9.723   5.535  0.0798 -0.2579  0.1792
  306SOL    HW2 3298   5.714   9.781   5.429 -2.3531  1.7974 -0.9081
  307SOL     OW 3299   9.032   9.162   3.994 -0.6693 -0.1591 -0.0830
  307SOL    HW1 3300   9.017   9.079   4.039 -0.4078 -0.0262  0.2533
  307SOL    HW2 3301   8.955   9.173   3.938  0.0177 -1.4299 -1.3672
  308SOL     OW 3302   8.846   0.010  10.621  0.1780  0.4491 -0.4164
  308SOL    HW1 3303   8.813  -0.075  10.652  1.3011  0.5383  1.1692
  308SOL    HW2 3304   8.782   0.039  10.556 -1.4749 -0.5312  0.7060
  309SOL     OW 3305   4.682   4.095   2.672 -0.0255  0.0542  0.5959
  309SOL    HW1 3306   4.695   4.190   2.666  0.5894  0.1771  2.8418
  309SOL    HW2 3307   4.591   4.082   2.646 -1.2110  1.7601  3.3879
  310SOL     OW 3308   7.095   6.942   1.452 -0.0895  0.2179  0.2224
  310SOL    HW1 3309   7.170   6.933   1.512 -0.7665 -2.5262  0.8082
  310SOL    HW2 3310   7.134   6.967   1.369  1.4950 -0.7367  0.6182
  311SOL     OW 3311   0.737   9.473   8.403  0.1097 -0.7290 -0.4008
  311SOL    HW1 3312   0.697   9.477   8.490 -0.0601 -1.4495 -0.4386
  311SOL    HW2 3313   0.711   9.387   8.369  0.4174 -0.5691 -1.0444
  312SOL     OW 3314   2.723   6.558   0.809  0.1574 -0.3260  0.4880
  312SOL    HW1 3315   2.637   6.522   0.788 -0.0334 -0.3784  1.3367
  312SOL    HW2 3316   2.784   6.488   0.787 -0.0181 -0.3170 -0.0441
  313SOL     OW 3317   3.450   9.622   0.777  0.6871  0.1017 -0.2026
  313SOL    HW1 3318   3.539   9.610   0.744  0.4668 -0.5102 -0.5654
  313SOL    HW2 3319   3.424   9.536   0.810 -0.2743 -0.0605 -1.3247
  314SOL     OW 3320   4.954  10.259   8.760 -0.0671 -0.4142 -0.1895
  314SOL    HW1 3321   4.886  10.232   8.822  0.9065  1.4628  1.8422
  314SOL    HW2 3322   4.918  10.336   8.717  0.3129 -0.0338  0.1477
  315SOL     OW 3323   8.032  10.417   6.922  0.1115  0.1618 -0.2047
  315SOL    HW1 3324   8.066  10.356   6.987  0.6872 -0.1382 -0.7698
  315SOL    HW2 3325   7.955  10.457   6.963 -0.0566 -0.6758  0.3114
  316SOL     OW 3326   1.370   3.462   0.882  0.4147 -0.0977 -0.0219
  316SOL    HW1 3327   1.395   3.385   0.831 -0.4056  0.0587 -0.6762
  316SOL    HW2 3328   1.443   3.523   0.869  1.3759 -0.9884  1.0303
  317SOL     OW 3329   2.373  10.728   7.069 -0.0383 -0.0695  0.2604
  317SOL    HW1 3330   2.363  10.813   7.112  0.0280 -0.2311  0.5995
  317SOL    HW2 3331   2.365  10.747   6.976  1.1043  0.4851  0.2582
  318SOL     OW 3332   9.755  10.287   8.348  0.2504  0.0171 -0.1082
  318SOL    HW1 3333   9.730  10.270   8.257  1.5945  1.0458 -0.7020
  318SOL    HW2 3334   9.671  10.297   8.394 -0.4702 -1.4751 -1.0105
  319SOL     OW 3335   2.366   3.889   3.505  0.0936 -0.2355 -0.0751
  319SOL    HW1 3336   2.329   3.907   3.419 -0.4452  0.7630  0.3494
  319SOL    HW2 3337   2.447   3.841   3.487 -1.1911 -2.2136 -1.0419
  320SOL     OW 3338   7.605   7.895   9.442 -0.1156 -0.2237 -0.3764
  320SOL    HW1 3339   7.550   7.888   9.364 -1.0658  1.8647  0.0083
  320SOL    HW2 3340   7.587   7.815   9.492 -0.9541 -0.7028 -1.4174
  321SOL     OW 3341   8.289   6.164   3.930 -0.9759  0.5438 -0.6025
  321SOL    HW1 3342   8.379   6.131   3.935 -1.5435 -0.8995  0.8550
  321SOL    HW2 3343   8.277   6.183   3.837 -0.0838 -2.0072 -1.3265
  322SOL     OW 3344   9.859   9.057   7.188  0.2604 -0.6855 -0.1942
  322SOL    HW1 3345   9.837   8.969   7.219 -1.4667  0.1441  1.1161
  322SOL    HW2 3346   9.777   9.089   7.149 -0.1023  1.4207  2.0729
  323SOL     OW 3347   4.635   6.242   3.669  0.0569  0.0903  0.2519
  323SOL    HW1 3348   4.679   6.167   3.708  0.6591  0.5513  0.4702
  323SOL    HW2 3349   4.646   6.312   3.733 -2.0913 -0.0948  0.9279
  324SOL     OW 3350   3.765  10.162   0.834 -0.0732  0.3431 -0.2337
  324SOL    HW1 3351   3.838  10.106   0.863  0.3332  0.0862 -1.6822
  324SOL    HW2 3352   3.784  10.247   0.874  0.6902  0.1172 -0.0816
  325SOL     OW 3353   6.873   2.893   6.525  0.1097  0.1148 -0.2697
  325SOL    HW1 3354   6.783   2.907   6.496  0.2954  0.5775 -0.6204
  325SOL    HW2 3355   6.882   2.798   6.526 -0.4867  0.0521  0.0937
  326SOL     OW 3356   2.811   5.486   0.608  0.1972  0.4522 -0.3424
  326SOL    HW1 3357   2.804   5.392   0.597  0.1774  0.4168 -0.0170
  326SOL    HW2 3358   2.726   5.513   0.642 -0.6171  0.8923 -2.5176
  327SOL     OW 3359   0.029   0.924   3.207 -0.2915 -0.3503 -0.1905
  327SOL    HW1 3360   0.104   0.926   3.267 -0.9598  0.7611  0.6434
  327SOL    HW2 3361   0.045   0.996   3.146  1.1551 -2.3812 -2.4140
  328SOL     OW 3362   7.186   1.174   5.753  0.0079  0.8542  0.5150
  328SOL    HW1 3363   7.114   1.192   5.814  0.6518  0.7708  1.3130
  328SOL    HW2 3364   7.252   1.241   5.773 -0.4976  1.9708 -1.3258
  329SOL     OW 3365  10.028   4.517   4.803  0.2387  0.3963 -0.5500
  329SOL    HW1 3366  10.052   4.600   4.843  1.3654 -1.0013  1.9139
  329SOL    HW2 3367   9.937   4.503   4.829  0.1810  0.6415 -0.6167
  330SOL     OW 3368   3.434  10.185  10.569 -0.0294  0.1025 -0.1213
  330SOL    HW1 3369   3.506  10.147  10.620  0.5189  0.3875 -0.6806
  330SOL    HW2 3370   3.436  10.137  10.486 -1.1089 -0.5648  0.2150
  331SOL     OW 3371   3.798   6.085   6.704  0.2889 -0.9521 -0.2970
  331SOL    HW1 3372   3.839   6.069   6.789 -2.0951 -1.1650  0.8739
  331SOL    HW2 3373   3.707   6.105   6.724 -0.2125 -0.4045 -2.7821
  332SOL     OW 3374   9.063   5.104   9.096  0.4216 -0.1894  0.1853
  332SOL    HW1 3375   9.151   5.081   9.067 -0.3232 -1.7694 -0.9427
  332SOL    HW2 3376   9.028   5.022   9.133 -1.3988 -0.2915 -1.5714
  333SOL     OW 3377   7.216   9.494   1.130  0.3875 -0.0762  0.4091
  333SOL    HW1 3378   7.268   9.448   1.065  1.0174  1.0029  0.1311
  333SOL    HW2 3379   7.263   9.481   1.212 -0.3019 -1.2709  0.6337
  334SOL     OW 3380   9.457   1.101   9.052 -0.1063 -0.5191  0.0307
  334SOL    HW1 3381   9.443   1.194   9.033 -0.2326 -0.6984 -0.7907
  334SOL    HW2 3382   9.415   1.055   8.980  0.7271 -1.1923 -0.0408
  335SOL     OW 3383   0.360   3.725   3.325 -0.0168  0.5172  0.3239
  335SOL    HW1 3384   0.296   3.667   3.284 -1.3866  1.6536  0.7727
  335SOL    HW2 3385   0.409   3.763   3.253  0.5731 -0.8030  0.0027
  336SOL     OW 3386   0.094  10.636   9.778 -0.1066  0.3040 -0.5589
  336SOL    HW1 3387   0.023  10.684   9.736  0.4375  0.8177 -0.9099
  336SOL    HW2 3388   0.055  10.599   9.856 -0.8449  0.3076 -0.9202
  337SOL     OW 3389   0.486   3.872   6.726  0.4942  0.5000  0.2333
  337SOL    HW1 3390   0.459   3.808   6.791  2.7716  0.5749  1.3330
  337SOL    HW2 3391   0.454   3.837   6.643 -0.0029 -1.0325  1.0404
  338SOL     OW 3392   4.542   5.926   1.143  0.5439  0.3580  0.3338
  338SOL    HW1 3393   4.572   5.942   1.232  1.0333  2.7100 -0.1721
  338SOL    HW2 3394   4.616   5.954   1.088 -0.2443  0.2260 -0.8185
  339SOL     OW 3395   6.347   6.000  10.039 -0.2038 -0.0412 -0.5396
  339SOL    HW1 3396   6.388   5.947   9.971  0.5714  0.6457 -0.6307
  339SOL    HW2 3397   6.255   6.007  10.013  0.2284  0.8028 -1.9072
  340SOL     OW 3398   8.270   2.436   1.341 -0.2141  0.6947 -0.3791
  340SOL    HW1 3399   8.194   2.473   1.295  0.2268  2.2170  0.0368
  340SOL    HW2 3400   8.316   2.385   1.274 -0.2795  1.8017 -1.3039
  341SOL     OW 3401   6.907   4.964   9.194  0.5906 -0.4177  0.3420
  341SOL    HW1 3402   6.910   4.930   9.284  5.1826  3.1452  1.9080
  341SOL    HW2 3403   6.989   4.934   9.155 -0.5796 -0.5411 -2.2026
  342SOL     OW 3404   0.681   4.421   4.498 -0.3287 -0.6453 -0.0629
  342SOL    HW1 3405   0.751   4.446   4.437  0.1576 -1.1251  0.2805
  342SOL    HW2 3406   0.709   4.335   4.532  0.1562  0.2431  1.9289
  343SOL     OW 3407   0.373   5.628   5.721 -0.1414 -0.5497  0.3233
  343SOL    HW1 3408   0.438   5.696   5.736  0.2838 -0.1354 -2.6843
  343SOL    HW2 3409   0.367   5.581   5.804  0.9006  1.9872  1.9397
  344SOL     OW 3410   2.145  10.770   0.194 -0.1377 -0.6863 -0.0194
  344SOL    HW1 3411   2.238  10.757   0.211 -0.1150 -0.6398 -0.1082
  344SOL    HW2 3412   2.111  10.681   0.179  0.5107 -0.5111 -3.1653
  345SOL     OW 3413   1.356   9.207   3.010  0.0602 -0.0269 -0.3530
  345SOL    HW1 3414   1.327   9.298   3.020  1.1564  0.5349 -1.8840
  345SOL    HW2 3415   1.275   9.157   3.001 -0.5831  0.6739  1.1331
  346SOL     OW 3416   6.013  10.037   4.942  0.1378 -0.1640 -0.2468
  346SOL    HW1 3417   5.928  10.041   4.985 -0.1824  0.3884 -0.9123
  346SOL    HW2 3418   6.041  10.128   4.934 -0.3523 -0.1464 -2.2262
  347SOL     OW 3419   1.465   2.465  10.512 -0.6120 -0.0654  0.7317
  347SOL    HW1 3420   1.476   2.529  10.583 -0.2162  0.3721  0.2788
  347SOL    HW2 3421   1.395   2.408  10.543 -1.5996  1.1206  0.7687
  348SOL     OW 3422   6.915   3.033   4.699 -0.2570  0.2010 -0.4667
  348SOL    HW1 3423   6.972   3.089   4.647 -0.3597  1.1700  0.4455
  348SOL    HW2 3424   6.870   3.092   4.759  1.1054 -1.0469  1.9084
  349SOL     OW 3425   9.453   4.104   9.369  0.1802  0.5451 -0.2999
  349SOL    HW1 3426   9.360   4.125   9.357 -0.2500 -1.0011  0.1176
  349SOL    HW2 3427   9.481   4.071   9.283  0.6255  1.8902 -0.7028
  350SOL     OW 3428   5.937   8.234   9.688 -0.2130 -0.2221  0.2152
  350SOL    HW1 3429   5.957   8.159   9.632 -0.3085  0.8108 -1.2687
  350SOL    HW2 3430   5.993   8.304   9.655  0.2210  0.2502  1.8753
  351SOL     OW 3431   6.349   4.029   5.027 -0.3872  0.1697  0.3292
  351SOL    HW1 3432   6.317   4.118   5.019  0.3818  0.3461 -1.4176
  351SOL    HW2 3433   6.362   4.000   4.936  3.9055  0.0009  0.7551
  352SOL     OW 3434   0.684   1.860   3.875 -0.6346  0.2078 -0.2014
  352SOL    HW1 3435   0.730   1.943   3.887 -0.2018 -0.0652  0.0470
  352SOL    HW2 3436   0.719   1.802   3.943 -1.4022  0.0128  0.0398
  353SOL     OW 3437   1.620  10.144   1.639  0.2389  0.4041  0.0930
  353SOL    HW1 3438   1.593  10.052   1.630 -2.0027  0.8746  1.2656
  353SOL    HW2 3439   1.673  10.146   1.718  1.5671 -0.0910 -0.7523
  354SOL     OW 3440   6.781   8.553   1.394 -0.6781 -0.1568  0.1847
  354SOL    HW1 3441   6.692   8.586   1.410 -0.7826  0.0148 -0.6508
  354SOL    HW2 3442   6.775   8.512   1.307 -0.3182 -1.5702  0.8028
  355SOL     OW 3443  10.759  10.021   5.796 -0.1591  0.6363 -0.2583
  355SOL    HW1 3444  10.712   9.943   5.824  0.5912  0.0896 -0.4913
  355SOL    HW2 3445  10.819  10.040   5.868  0.1178  0.6094 -0.4804
  356SOL     OW 3446   4.934   9.197   3.440  0.4712  0.8491 -0.6138
  356SOL    HW1 3447   4.882   9.257   3.387 -1.6471 -0.1042  0.3105
  356SOL    HW2 3448   4.940   9.118   3.387 -1.0292  0.1535  0.2004
  357SOL     OW 3449   7.459   5.007   7.395 -0.2775 -0.2567  0.3025
  357SOL    HW1 3450   7.391   5.074   7.385  0.4949  0.6235  0.8298
  357SOL    HW2 3451   7.498   4.999   7.308 -1.2532 -1.0023 -0.0811
  358SOL     OW 3452   9.104   0.334   4.446 -0.3993  0.3144 -0.0100
  358SOL    HW1 3453   9.082   0.365   4.358 -0.9106 -0.8181 -0.3086
  358SOL    HW2 3454   9.138   0.411   4.491 -0.3672  0.9753 -1.1195
  359SOL     OW 3455   9.390   1.968   8.848 -0.0382 -0.0554  0.1469
  359SOL    HW1 3456   9.309   1.921   8.826 -1.0446 -0.0008  3.2648
  359SOL    HW2 3457   9.367   2.060   8.840 -0.6034 -0.0220  1.8249
  360SOL     OW 3458   4.566   8.208   1.806  0.0721 -0.4628  0.1363
  360SOL    HW1 3459   4.579   8.261   1.727 -0.2023 -1.9438 -0.9377
  360SOL    HW2 3460   4.589   8.267   1.878 -0.9676  1.3896 -0.9423
  361SOL     OW 3461   0.547   8.750   1.710 -0.0688  0.0993 -0.0350
  361SOL    HW1 3462   0.535   8.675   1.769  1.4142 -0.6116 -0.5846
  361SOL    HW2 3463   0.472   8.807   1.728 -0.1546 -0.5313  1.8697
  362SOL     OW 3464   5.841   8.253   1.771 -0.5435  0.0775  0.0115
  362SOL    HW1 3465   5.901   8.178   1.764  0.5229  1.0484 -1.6438
  362SOL    HW2 3466   5.754   8.215   1.759 -0.0747 -0.9925 -0.1018
  363SOL     OW 3467   6.202  10.042   5.191 -0.1573 -0.2520  0.6806
  363SOL    HW1 3468   6.194   9.983   5.116 -0.0958  0.2641  0.2634
  363SOL    HW2 3469   6.125  10.099   5.185  1.8466  2.5207 -1.4133
  364SOL     OW 3470   6.448   5.619   2.296 -0.5427 -0.2204 -0.0809
  364SOL    HW1 3471   6.539   5.646   2.280 -0.1652 -0.7874  0.9730
  364SOL    HW2 3472   6.409   5.614   2.209 -0.1774  2.0498 -0.4327
  365SOL     OW 3473  10.294   4.104   0.596  0.1636 -0.2768  0.3499
  365SOL    HW1 3474  10.248   4.073   0.674 -0.5835 -1.4173 -0.5158
  365SOL    HW2 3475  10.383   4.068   0.605 -0.3463 -1.7271 -0.0355
  366SOL     OW 3476   2.718   0.349   4.996  0.3715 -0.1755  0.1544
  366SOL    HW1 3477   2.755   0.283   4.937 -1.0003 -0.8316 -0.0145
  366SOL    HW2 3478   2.652   0.301   5.046 -1.1409  1.2045 -0.4462
  367SOL     OW 3479   9.786   0.269   1.440  0.3248  1.0259  0.5140
  367SOL    HW1 3480   9.721   0.309   1.497 -0.9178  1.0357 -0.8668
  367SOL    HW2 3481   9.776   0.315   1.357  1.7715  0.6865  0.1225
  368SOL     OW 3482   6.859   4.672   3.578  0.5283  0.5433  0.0244
  368SOL    HW1 3483   6.785   4.613   3.588  0.1523  0.6607 -1.7827
  368SOL    HW2 3484   6.855   4.728   3.655 -0.8822  0.1369  0.2814
  369SOL     OW 3485   3.262   4.583  10.794  0.1801 -0.2212  0.2844
  369SOL    HW1 3486   3.175   4.583  10.834 -0.3497  1.5058 -0.7269
  369SOL    HW2 3487   3.319   4.622  10.861  0.1707 -1.2517  0.9076
  370SOL     OW 3488   8.914   5.388   0.915 -0.3537 -0.2061 -0.4441
  370SOL    HW1 3489   8.988   5.346   0.871  0.1896  0.4469 -0.1702
  370SOL    HW2 3490   8.930   5.482   0.905  0.9018  0.0701  2.8595
  371SOL     OW 3491   9.540  10.462   6.278  0.3164 -0.1941 -0.8059
  371SOL    HW1 3492   9.553  10.377   6.320 -2.1879  0.1978  1.0459
  371SOL    HW2 3493   9.479  10.444   6.207  2.1916 -0.3576 -2.4561
  372SOL     OW 3494   3.511   1.289   2.700 -0.1553  0.5349 -0.0297
  372SOL    HW1 3495   3.497   1.222   2.633 -3.1826 -0.6748  1.6002
  372SOL    HW2 3496   3.554   1.242   2.772  0.0371  0.9566  0.1312
  373SOL     OW 3497   2.909   5.676   8.152 -0.4640  0.4748 -0.1682
  373SOL    HW1 3498   2.884   5.592   8.114 -0.1516 -0.0125  0.6901
  373SOL    HW2 3499   2.985   5.704   8.100 -0.3532  0.0572 -0.2291
  374SOL     OW 3500   3.078   5.418   0.539 -0.4179  0.1183  0.0627
  374SOL    HW1 3501   3.011   5.475   0.577  1.4379  3.7298 -1.5913
  374SOL    HW2 3502   3.132   5.392   0.613 -0.0819  2.3916  0.6825
  375SOL     OW 3503   7.675   9.303  10.516  0.0509 -0.1769  0.2379
  375SOL    HW1 3504   7.713   9.217  10.535  0.8311  0.1185  0.0596
  375SOL    HW2 3505   7.609   9.316  10.584 -2.0659 -2.0953 -1.2802
  376SOL     OW 3506   7.237   7.010  10.274 -0.5742 -0.1348  0.1063
  376SOL    HW1 3507   7.230   6.967  10.360  0.4841 -0.6674 -0.0619
  376SOL    HW2 3508   7.216   7.102  10.292  1.5963  0.1952  1.3588
  377SOL     OW 3509   9.159   4.067   6.715 -0.0015  0.2389  0.2145
  377SOL    HW1 3510   9.162   4.059   6.810  1.6088 -0.7325  0.1169
  377SOL    HW2 3511   9.104   4.144   6.699 -1.6411 -0.5295  1.8551
  378SOL     OW 3512   6.988   3.618   8.116 -0.5225 -0.4966  0.4019
  378SOL    HW1 3513   7.027   3.546   8.067 -1.3670 -0.3063 -0.5711
  378SOL    HW2 3514   7.041   3.624   8.196  0.7998 -0.8981 -0.4068
  379SOL     OW 3515   1.133   9.101   3.244  0.2419 -0.0526  0.4079
  379SOL    HW1 3516   1.201   9.037   3.264 -0.9603 -1.4905  0.0981
  379SOL    HW2 3517   1.097   9.124   3.330 -0.3001 -0.9348  0.4274
  380SOL     OW 3518   8.159   7.695   3.486  0.0519 -0.7298 -0.1787
  380SOL    HW1 3519   8.083   7.728   3.535 -0.6131 -2.5956  0.1238
  380SOL    HW2 3520   8.159   7.746   3.405 -1.0926 -0.2077  0.1219
  381SOL     OW 3521  10.693   2.638   0.655  0.1852  0.3841  0.5443
  381SOL    HW1 3522  10.739   2.612   0.735  0.3050 -1.3523 -0.0392
  381SOL    HW2 3523  10.601   2.645   0.681  0.1918 -0.3786  0.8010
  382SOL     OW 3524   6.104   5.195   8.634 -0.4046 -0.0841 -0.2289
  382SOL    HW1 3525   6.197   5.217   8.644 -0.7603  1.5610 -0.1914
  382SOL    HW2 3526   6.097   5.104   8.665  0.7491  0.5961  2.3623
  383SOL     OW 3527   8.236   0.828  10.580  0.3901 -0.3692  0.5099
  383SOL    HW1 3528   8.314   0.828  10.635 -0.0750 -1.0030  1.1796
  383SOL    HW2 3529   8.164   0.846  10.640  0.0025  0.1691 -0.0954
  384SOL     OW 3530   3.802   7.084   9.625 -0.5848  0.0780  0.1286
  384SOL    HW1 3531   3.746   7.159   9.649 -1.7072 -0.6043 -0.2514
  384SOL    HW2 3532   3.782   7.070   9.532  0.8442  0.3118 -0.2296
  385SOL     OW 3533   6.242   7.754   0.630 -0.0004  0.3716 -0.2229
  385SOL    HW1 3534   6.176   7.687   0.648  1.1846 -0.3936  1.5945
  385SOL    HW2 3535   6.300   7.713   0.564  0.5916 -0.3618  0.7164
  386SOL     OW 3536   1.547   3.527   8.708 -0.2298  0.0811 -0.1820
  386SOL    HW1 3537   1.615   3.487   8.762 -1.4096 -1.3631  0.3079
  386SOL    HW2 3538   1.503   3.453   8.667 -1.0574  1.0223 -1.0335
  387SOL     OW 3539   9.772   4.410   1.585  0.1468 -0.1201  0.1169
  387SOL    HW1 3540   9.863   4.391   1.564  0.1074 -0.0937 -0.0752
  387SOL    HW2 3541   9.740   4.331   1.629 -0.5049 -1.2073 -2.1610
  388SOL     OW 3542   1.486  10.042   8.174  0.0791  0.3351 -0.3942
  388SOL    HW1 3543   1.468  10.096   8.251  1.3591 -0.4674  0.5306
  388SOL    HW2 3544   1.495   9.954   8.209  1.0813  0.0140 -1.4029
  389SOL     OW 3545   0.552   7.652   7.084  0.6166  0.2861 -0.3519
  389SOL    HW1 3546   0.603   7.587   7.036 -1.2023 -0.5299 -1.2692
  389SOL    HW2 3547   0.547   7.727   7.026  0.4864  0.2282 -0.4168
  390SOL     OW 3548   9.387   8.286   4.672 -0.2699 -0.3582 -0.1114
  390SOL    HW1 3549   9.479   8.311   4.665 -0.0425 -0.4345  1.9285
  390SOL    HW2 3550   9.346   8.359   4.720 -1.2043 -0.4724 -0.7147
  391SOL     OW 3551   3.109   9.538   4.875 -0.0594  0.2001  0.1723
  391SOL    HW1 3552   3.103   9.611   4.814 -0.7015 -0.0336 -0.0548
  391SOL    HW2 3553   3.075   9.463   4.826 -0.2909 -0.0533  0.7074
  392SOL     OW 3554   0.852   1.029   3.156 -0.2706 -0.4270  0.0357
  392SOL    HW1 3555   0.789   0.979   3.103 -1.5264 -0.7491  1.7358
  392SOL    HW2 3556   0.803   1.107   3.183  0.6924  0.2424 -0.1073
  393SOL     OW 3557   5.568  10.069   6.785  0.3892  0.5133  0.7019
  393SOL    HW1 3558   5.611  10.137   6.733  2.1089 -0.0473  1.3588
  393SOL    HW2 3559   5.569   9.991   6.729 -1.0898  0.8329  0.1684
  394SOL     OW 3560   7.026   6.118  10.602  0.3535  0.4044 -0.2920
  394SOL    HW1 3561   6.982   6.144  10.683  0.3077  1.7425 -0.7267
  394SOL    HW2 3562   6.955   6.089  10.544  0.2149  0.9903 -0.4170
  395SOL     OW 3563   4.013   8.809   1.071 -0.1142  0.0966  0.2698
  395SOL    HW1 3564   3.958   8.750   1.122  0.3395  0.2508  0.9481
  395SOL    HW2 3565   4.074   8.846   1.135 -1.3911  2.5221  0.2305
  396SOL     OW 3566   2.769   0.924   8.545 -0.0695  0.2934 -0.1113
  396SOL    HW1 3567   2.726   0.864   8.606 -0.5752 -0.8517 -1.5330
  396SOL    HW2 3568   2.847   0.877   8.515  0.4374  1.0395  0.0074
  397SOL     OW 3569   9.917   7.478   7.498  0.1284  0.2935 -0.0358
  397SOL    HW1 3570   9.833   7.505   7.459  0.7881  1.0976 -0.9669
  397SOL    HW2 3571   9.983   7.512   7.437  1.1136 -1.1731  0.1533
  398SOL     OW 3572   1.018   6.799   6.443  0.5803 -0.0218 -0.2050
  398SOL    HW1 3573   0.967   6.788   6.523 -1.1514  1.2323 -1.0763
  398SOL    HW2 3574   1.041   6.892   6.442  1.2716 -0.1907 -0.7659
  399SOL     OW 3575   8.219   6.387   5.057 -0.5891  0.2383 -0.2152
  399SOL    HW1 3576   8.193   6.406   5.147  0.6262 -0.5940  0.3340
  399SOL    HW2 3577   8.146   6.338   5.021 -0.0130 -1.7666  1.1873
  400SOL     OW 3578   5.226   1.797   2.421 -0.2754  0.0106  0.7792
  400SOL    HW1 3579   5.199   1.759   2.504 -2.4107 -0.7010 -0.1702
  400SOL    HW2 3580   5.144   1.811   2.373  0.8761  0.5528 -1.1464
  401SOL     OW 3581   0.030   5.415   1.995  0.1118 -0.3484 -0.0281
  401SOL    HW1 3582   0.045   5.507   2.017  2.9249 -0.5084 -0.8782
  401SOL    HW2 3583   0.005   5.375   2.078 -3.0319  1.4112  0.0330
  402SOL     OW 3584   5.586   9.510   3.806 -0.2416  0.0525  0.2389
  402SOL    HW1 3585   5.496   9.479   3.815 -0.9600  2.2495  1.1502
  402SOL    HW2 3586   5.639   9.432   3.822 -1.9329 -1.4981 -1.1276
  403SOL     OW 3587   0.092   4.719   5.084 -0.1434  0.2792 -0.7383
  403SOL    HW1 3588   0.089   4.642   5.027  1.1787  2.1545 -3.6202
  403SOL    HW2 3589   0.160   4.774   5.045 -0.8149  2.7757  1.3560
  404SOL     OW 3590   9.988   2.376   8.581  0.0247  0.0685 -0.0504
  404SOL    HW1 3591  10.061   2.431   8.550 -0.6235  1.8031  1.3174
  404SOL    HW2 3592   9.949   2.340   8.501  1.2499  0.5990 -0.9131
  405SOL     OW 3593   1.481   8.442   1.837  0.2485  1.0251  0.2809
  405SOL    HW1 3594   1.574   8.439   1.812  0.2762 -1.0295  0.4793
  405SOL    HW2 3595   1.442   8.366   1.794 -1.5421  2.2958 -0.4335
  406SOL     OW 3596   7.895   3.766   3.995 -0.0530  0.2981 -0.0228
  406SOL    HW1 3597   7.865   3.833   4.056  1.3883 -0.0146  1.0856
  406SOL    HW2 3598   7.838   3.691   4.011  0.6304  0.0414  1.3472
  407SOL     OW 3599   7.696   1.831   1.557 -1.1537  0.2783 -0.4043
  407SOL    HW1 3600   7.654   1.878   1.630  1.3432  1.1845  0.5688
  407SOL    HW2 3601   7.757   1.895   1.519  0.0504 -1.2008 -1.0968
  408SOL     OW 3602   1.655   9.466   2.417  0.0371  0.2857 -0.2390
  408SOL    HW1 3603   1.635   9.522   2.492  1.5131  0.8907 -0.2800
  408SOL    HW2 3604   1.595   9.495   2.348 -1.4107 -0.3439  0.7005
  409SOL     OW 3605   6.648   3.550   3.014 -0.1204  0.5228 -0.4050
  409SOL    HW1 3606   6.702   3.482   2.975  0.9668  1.6442 -0.9418
  409SOL    HW2 3607   6.666   3.545   3.108  0.6447  0.6364 -0.5393
  410SOL     OW 3608   8.232   8.099   8.609  0.3785 -0.0186 -0.6114
  410SOL    HW1 3609   8.186   8.016   8.598 -0.0520 -0.0059  0.9612
  410SOL    HW2 3610   8.269   8.117   8.522  0.6971 -1.9548 -0.9246
  411SOL     OW 3611   0.340   9.051   5.202 -0.0283 -0.4239  0.1556
  411SOL    HW1 3612   0.420   9.073   5.153 -0.4647 -0.6712 -0.6998
  411SOL    HW2 3613   0.269   9.072   5.141 -0.5733 -1.1107  0.5441
  412SOL     OW 3614   6.568   8.464   5.944  0.8843 -0.9283 -0.2202
  412SOL    HW1 3615   6.563   8.547   5.897  1.5915 -1.6820 -1.6833
  412SOL    HW2 3616   6.497   8.411   5.909 -0.5765 -0.4617  1.8234
  413SOL     OW 3617   4.564   1.157   3.144  0.2035 -0.6471  0.2742
  413SOL    HW1 3618   4.521   1.103   3.078 -0.4821 -1.2195  1.1632
  413SOL    HW2 3619   4.614   1.094   3.197  0.5037 -0.2392  0.4772
  414SOL     OW 3620   7.686   5.434   5.667 -0.5720  0.5373  0.9384
  414SOL    HW1 3621   7.679   5.490   5.589  0.3568  0.6684  0.9369
  414SOL    HW2 3622   7.596   5.409   5.686 -0.7868  0.1786 -0.4187
  415SOL     OW 3623   1.717   6.711   4.455  0.4168 -0.1505  0.0210
  415SOL    HW1 3624   1.626   6.685   4.443  0.5124 -0.0019 -1.1750
  415SOL    HW2 3625   1.752   6.716   4.366  2.3968 -3.0763  0.4867
  416SOL     OW 3626   0.929   6.348   3.828 -0.2570 -0.0644 -0.3234
  416SOL    HW1 3627   0.949   6.378   3.740 -0.2945  1.2673  0.0914
  416SOL    HW2 3628   0.941   6.254   3.825  2.9574  0.2553 -0.9253
  417SOL     OW 3629   7.431   5.576   5.536 -0.5202 -0.5520 -0.4033
  417SOL    HW1 3630   7.403   5.556   5.626 -1.4382 -1.0543 -0.7854
  417SOL    HW2 3631   7.378   5.518   5.481 -0.4103  0.1895 -1.3126
  418SOL     OW 3632   5.793   4.760   3.099 -0.5802  0.3951  0.0044
  418SOL    HW1 3633   5.704   4.726   3.091 -1.0482  1.7261 -0.6930
  418SOL    HW2 3634   5.803   4.819   3.024  0.3010  1.5017  0.9496
  419SOL     OW 3635   3.470   1.877   3.163  0.5377  0.2739 -0.2419
  419SOL    HW1 3636   3.452   1.947   3.100 -1.3784 -0.0259 -0.1033
  419SOL    HW2 3637   3.454   1.917   3.248 -4.1840 -1.0137 -0.2024
  420SOL     OW 3638   5.266   8.642   2.876  0.3470  0.0940 -0.4467
  420SOL    HW1 3639   5.303   8.681   2.956  0.9097  0.2602 -0.7806
  420SOL    HW2 3640   5.337   8.649   2.812 -0.7385  1.7676 -1.5296
  421SOL     OW 3641   7.713   8.616   4.640 -0.1958  0.2540 -0.4099
  421SOL    HW1 3642   7.731   8.537   4.691  0.4375  0.9637  0.5106
  421SOL    HW2 3643   7.710   8.587   4.549  1.6198 -0.6031 -0.2483
  422SOL     OW 3644  10.401   6.457   6.174 -0.1653  0.0358  0.1896
  422SOL    HW1 3645  10.473   6.513   6.144  1.0106 -1.0230  0.8944
  422SOL    HW2 3646  10.348   6.513   6.229 -0.6912  1.2114 -1.4286
  423SOL     OW 3647   8.975   1.430   3.556  0.4376  0.0781 -0.1236
  423SOL    HW1 3648   8.927   1.353   3.526  1.2884 -0.2523 -0.6753
  423SOL    HW2 3649   9.027   1.457   3.480 -0.2339  1.5155 -0.1104
  424SOL     OW 3650   6.173   5.643   3.987 -0.5088  0.0232 -0.0200
  424SOL    HW1 3651   6.267   5.624   3.986 -0.4766  0.1610 -1.1486
  424SOL    HW2 3652   6.143   5.615   3.901 -1.8727 -1.8196  0.9853
  425SOL     OW 3653   2.343   1.289   4.866  0.1126 -0.0536 -0.0900
  425SOL    HW1 3654   2.421   1.345   4.869 -0.1114  0.2068  1.8000
  425SOL    HW2 3655   2.276   1.343   4.823  0.1527  0.8119  0.9157
  426SOL     OW 3656   7.003   0.751   9.251  0.4144 -0.1531  0.1346
  426SOL    HW1 3657   7.034   0.778   9.165 -1.0694  0.1791 -0.3072
  426SOL    HW2 3658   6.929   0.808   9.270 -0.5183 -1.5087  0.7618
  427SOL     OW 3659   4.441   6.210   3.464  0.0739  0.6233  0.4898
  427SOL    HW1 3660   4.521   6.200   3.516  0.6871 -0.0510 -0.5536
  427SOL    HW2 3661   4.371   6.219   3.529  0.6814 -1.2576  1.4843
  428SOL     OW 3662   0.788   9.368   0.275  0.1356 -0.1163 -0.1878
  428SOL    HW1 3663   0.838   9.449   0.277  0.5266 -0.3455 -0.5402
  428SOL    HW2 3664   0.840   9.309   0.220  1.4058 -1.6166  2.4322
  429SOL     OW 3665   3.488   8.695   8.737  0.8710 -0.3119  0.2155
  429SOL    HW1 3666   3.442   8.718   8.656 -0.2578 -0.2537  0.8459
  429SOL    HW2 3667   3.423   8.645   8.788  1.3962  0.0582  1.2753
  430SOL     OW 3668   3.004   8.146   5.754  0.2133 -0.0946 -0.1995
  430SOL    HW1 3669   2.961   8.193   5.826  1.6555 -0.4124  0.8972
  430SOL    HW2 3670   3.020   8.059   5.788  0.1503 -0.5210 -1.2292
  431SOL     OW 3671  10.114   9.057   7.759 -0.6781 -0.2564 -0.3641
  431SOL    HW1 3672  10.131   9.143   7.797 -1.1942 -0.6044  0.6784
  431SOL    HW2 3673  10.183   9.001   7.794 -1.1519 -0.5774  0.0631
  432SOL     OW 3674   0.840   0.288   0.574 -0.1659  0.2719 -0.1020
  432SOL    HW1 3675   0.746   0.272   0.571 -1.1953  4.5850  1.2505
  432SOL    HW2 3676   0.867   0.292   0.482 -1.1384 -1.3897 -0.4983
  433SOL     OW 3677   2.124   6.273   2.444  0.7151  0.9169 -0.9200
  433SOL    HW1 3678   2.173   6.303   2.368  1.0166 -0.3527 -1.2480
  433SOL    HW2 3679   2.034   6.301   2.428  0.9237  1.3147 -1.3863
  434SOL     OW 3680   7.670   8.313   0.340  0.2232 -0.3022 -0.0514
  434SOL    HW1 3681   7.750   8.359   0.363 -0.9899  1.6361  0.5453
  434SOL    HW2 3682   7.686   8.222   0.365  1.9793  0.1605  0.6261
  435SOL     OW 3683   1.971   6.175   3.322  0.2920  0.1503 -0.0117
  435SOL    HW1 3684   1.931   6.088   3.327 -0.3944  0.5140  1.0778
  435SOL    HW2 3685   2.061   6.159   3.294  0.2038 -0.9168  0.2906
  436SOL     OW 3686  10.762   2.536   4.000 -0.3976 -0.1556  0.6509
  436SOL    HW1 3687  10.718   2.609   4.044 -0.2337 -0.6127  1.6047
  436SOL    HW2 3688  10.695   2.499   3.943 -0.7501  0.1968  0.8274
  437SOL     OW 3689   0.024   2.637   2.034  0.3826 -0.0348  0.1121
  437SOL    HW1 3690   0.115   2.641   2.064  0.1390  0.5385  0.7976
  437SOL    HW2 3691   0.019   2.556   1.982  0.9363 -0.8206  1.2397
  438SOL     OW 3692   1.282   0.502   4.879 -0.5526 -0.5366 -0.0408
  438SOL    HW1 3693   1.275   0.524   4.786  0.2234  2.7990  0.5766
  438SOL    HW2 3694   1.360   0.549   4.910  0.1809 -2.8872  1.9977
  439SOL     OW 3695   4.154   6.046   5.615 -0.2890  0.0749  0.3411
  439SOL    HW1 3696   4.061   6.032   5.597 -0.1524 -0.1245 -0.2096
  439SOL    HW2 3697   4.163   6.027   5.709 -0.5484 -1.2473  0.1096
  440SOL     OW 3698   9.187   6.012   5.886  0.1408  0.3600  0.0897
  440SOL    HW1 3699   9.247   6.056   5.946 -1.6359  2.7014  0.3324
  440SOL    HW2 3700   9.165   6.079   5.821 -4.8020  1.0079  1.9994
  441SOL     OW 3701   7.164   9.148   8.500 -0.1857  0.5335  0.5663
  441SOL    HW1 3702   7.250   9.191   8.505 -0.6545  1.4868  0.6391
  441SOL    HW2 3703   7.124   9.162   8.586  0.3173 -1.5648  1.2115
  442SOL     OW 3704   8.217   0.312   7.720  0.4433  0.1982  0.2123
  442SOL    HW1 3705   8.288   0.374   7.737  0.8443  0.1673 -1.2087
  442SOL    HW2 3706   8.255   0.248   7.660 -0.3618 -0.6622  0.6067
  443SOL     OW 3707   5.166   5.864   7.088  0.2211  0.1355  0.1164
  443SOL    HW1 3708   5.223   5.852   7.012  2.1858 -0.5466  1.6096
  443SOL    HW2 3709   5.194   5.948   7.126  1.5349 -1.0162  1.8471
  444SOL     OW 3710   6.987   2.855   7.362  0.0281 -0.3989 -0.2831
  444SOL    HW1 3711   7.013   2.894   7.279 -0.0908 -2.3294 -1.2650
  444SOL    HW2 3712   7.030   2.770   7.363 -0.7886 -0.8190  1.1894
  445SOL     OW 3713   0.037   4.600   4.738  0.4006 -0.5008 -0.4708
  445SOL    HW1 3714   0.103   4.558   4.684  0.4008 -2.6139  1.0751
  445SOL    HW2 3715   0.033   4.548   4.818 -0.8627  1.4564  0.8502
  446SOL     OW 3716   9.068   5.144   5.215 -0.6383 -0.5291  0.1860
  446SOL    HW1 3717   9.063   5.089   5.293 -0.3128  0.0132  0.5996
  446SOL    HW2 3718   9.157   5.179   5.217 -1.3519  1.3378  0.8495
  447SOL     OW 3719   0.856   1.995   0.561 -0.1412  0.4647  0.6782
  447SOL    HW1 3720   0.787   1.947   0.517  0.1270  0.6535  0.0472
  447SOL    HW2 3721   0.875   1.944   0.640  2.2787 -2.2179 -1.3988
  448SOL     OW 3722   2.020   8.946   2.157  0.3996  0.3267 -0.5474
  448SOL    HW1 3723   2.073   8.906   2.088  1.3319  3.7881 -2.0959
  448SOL    HW2 3724   2.066   8.926   2.238  1.0040 -1.2724 -1.2431
  449SOL     OW 3725   0.052   8.668   3.199  0.2140 -0.3757  0.3523
  449SOL    HW1 3726   0.121   8.733   3.185 -3.0727  3.2917 -0.5745
  449SOL    HW2 3727   0.041   8.664   3.294  1.3343 -0.6311  0.4827
  450SOL     OW 3728   9.230   6.555   3.282  0.3924  0.4314  0.4144
  450SOL    HW1 3729   9.324   6.565   3.297  0.9147 -0.9219 -1.5489
  450SOL    HW2 3730   9.218   6.461   3.268 -1.1686  0.6418  0.1499
  451SOL     OW 3731   3.178   6.916   6.898  0.1713  0.0369  0.8803
  451SOL    HW1 3732   3.147   7.006   6.903 -1.6417 -0.3273 -1.6449
  451SOL    HW2 3733   3.184   6.898   6.804  0.1379 -2.5723  1.3057
  452SOL     OW 3734  10.741   9.633   2.866  0.3110  0.1541  0.0293
  452SOL    HW1 3735  10.744   9.565   2.934 -1.0929  0.0900  0.0629
  452SOL    HW2 3736  10.813   9.611   2.807  0.4922 -0.7822  0.5749
  453SOL     OW 3737   5.467   6.290   2.201  0.8621 -0.0098  0.2686
  453SOL    HW1 3738   5.376   6.320   2.194  0.9340 -0.1012 -1.5866
  453SOL    HW2 3739   5.462   6.195   2.190  1.1706 -0.0281  0.2667
  454SOL     OW 3740   8.622   5.590   3.973 -0.0281 -0.3095  0.0626
  454SOL    HW1 3741   8.668   5.657   4.023 -2.0403  2.0945 -1.1153
  454SOL    HW2 3742   8.530   5.612   3.982 -0.7222 -2.3676 -1.2143
  455SOL     OW 3743   0.108   9.338   2.357 -0.3579 -0.1891  0.1707
  455SOL    HW1 3744   0.066   9.422   2.376  1.0421  0.9942 -1.5884
  455SOL    HW2 3745   0.176   9.329   2.424 -2.3467 -1.4208  2.1508
  456SOL     OW 3746   2.352   1.492   3.171 -0.3971  0.1705 -0.4279
  456SOL    HW1 3747   2.371   1.555   3.240  2.5425  0.3179 -1.2190
  456SOL    HW2 3748   2.339   1.409   3.216 -2.6209  0.9406  0.4993
  457SOL     OW 3749   4.455  10.414   6.437 -0.2207 -0.9781  0.5173
  457SOL    HW1 3750   4.534  10.411   6.384 -2.2196  1.2406 -3.0261
  457SOL    HW2 3751   4.473  10.479   6.505  1.4279 -1.6407  0.7524
  458SOL     OW 3752   1.975   6.445   8.786  0.0280  0.4906 -0.2203
  458SOL    HW1 3753   2.012   6.363   8.819  0.0047  0.7198  0.3969
  458SOL    HW2 3754   1.881   6.437   8.804  0.0887  0.8426  0.2601
  459SOL     OW 3755   5.471   8.715   1.494 -0.6609  0.4468  0.0569
  459SOL    HW1 3756   5.508   8.745   1.577 -0.6199  0.7904 -0.0841
  459SOL    HW2 3757   5.507   8.627   1.482  3.0316  2.0116 -1.8201
  460SOL     OW 3758   7.152  10.315   3.092 -0.3554  0.6956 -0.0322
  460SOL    HW1 3759   7.247  10.313   3.081 -0.2575  1.1388  0.6046
  460SOL    HW2 3760   7.139  10.347   3.182 -1.1041  0.5706 -0.0836
  461SOL     OW 3761   0.203   3.650   7.027 -0.2908 -0.0471 -0.2077
  461SOL    HW1 3762   0.125   3.700   7.047 -0.7149 -0.8481  0.2131
  461SOL    HW2 3763   0.180   3.598   6.950 -0.1821 -0.2931 -0.0774
  462SOL     OW 3764   3.880   3.795   2.134 -0.0549 -0.8118 -0.2432
  462SOL    HW1 3765   3.954   3.754   2.178  1.1213  0.0227 -1.3613
  462SOL    HW2 3766   3.898   3.889   2.140 -1.8557 -0.4830  0.8447
  463SOL     OW 3767  10.145   3.009   8.808  0.2813 -0.4807  0.2576
  463SOL    HW1 3768  10.099   3.084   8.771  0.8101  0.3546  1.2197
  463SOL    HW2 3769  10.237   3.035   8.806  0.2884 -0.0047  2.8690
  464SOL     OW 3770   6.247   6.203   8.425  0.0475 -0.5884 -0.1604
  464SOL    HW1 3771   6.264   6.181   8.516 -1.1799 -1.4810 -0.1250
  464SOL    HW2 3772   6.301   6.280   8.408 -0.5350  0.2760  1.6516
  465SOL     OW 3773   1.127   2.434   3.581 -0.0618  0.1673 -0.1788
  465SOL    HW1 3774   1.198   2.478   3.533  0.0161 -0.0870 -0.2972
  465SOL    HW2 3775   1.150   2.341   3.578 -1.1607 -0.0828 -1.4965
  466SOL     OW 3776   4.946   6.632   8.580 -0.4572  0.3025  0.2994
  466SOL    HW1 3777   4.852   6.620   8.588 -0.1846 -2.1756  0.6854
  466SOL    HW2 3778   4.968   6.601   8.492  0.2197 -1.4187  1.0197
  467SOL     OW 3779   2.298   8.636   3.560  0.3310  0.1276  0.4277
  467SOL    HW1 3780   2.342   8.556   3.589  0.0315 -0.5012 -0.7352
  467SOL    HW2 3781   2.366   8.703   3.558  1.0160 -0.5637 -0.3280
  468SOL     OW 3782   2.945   9.811   1.248 -0.1049  0.4600  0.1216
  468SOL    HW1 3783   2.954   9.873   1.320 -0.5223  0.5014  0.1383
  468SOL    HW2 3784   2.878   9.849   1.191 -0.1836  0.1492  0.0036
  469SOL     OW 3785   1.942   7.330   8.044  0.1577  0.2518 -0.3240
  469SOL    HW1 3786   1.888   7.402   8.011 -1.3996 -1.7654 -2.4664
  469SOL    HW2 3787   2.031   7.367   8.047 -0.5635  2.2465 -1.3555
  470SOL     OW 3788   6.279   8.614   9.912  0.1308 -0.1044  0.2046
  470SOL    HW1 3789   6.302   8.699   9.947 -1.6498  0.1375  0.8778
  470SOL    HW2 3790   6.253   8.631   9.821  1.3960 -0.2132 -0.1982
  471SOL     OW 3791   1.141   3.444   1.654 -0.3697 -0.0935  0.0322
  471SOL    HW1 3792   1.135   3.473   1.563  0.5539  0.6827  0.2093
  471SOL    HW2 3793   1.110   3.518   1.705 -1.9591 -0.9123  0.3309
  472SOL     OW 3794  10.450   7.774   7.043 -0.5500  0.3952 -0.2567
  472SOL    HW1 3795  10.402   7.855   7.060 -2.2883 -0.3364 -1.4366
  472SOL    HW2 3796  10.518   7.799   6.981 -1.1098  0.9476 -0.6530
  473SOL     OW 3797   6.113   4.908   1.505  0.2743 -0.9001  0.2141
  473SOL    HW1 3798   6.062   4.857   1.568 -0.1716 -1.4730 -0.5954
  473SOL    HW2 3799   6.072   4.995   1.506 -1.0274 -1.4588 -0.7262
  474SOL     OW 3800   0.599   5.529  10.231  0.1958 -0.2064  0.2572
  474SOL    HW1 3801   0.680   5.566  10.197  0.2742  0.0504  0.7126
  474SOL    HW2 3802   0.603   5.546  10.325 -0.1451 -0.6551  0.3553
  475SOL     OW 3803   9.732   6.393   8.034 -0.0888  0.3566  0.0916
  475SOL    HW1 3804   9.652   6.364   8.078  0.0007 -1.6236 -0.9576
  475SOL    HW2 3805   9.703   6.463   7.975 -0.7276  0.8591  0.9733
  476SOL     OW 3806   6.765   7.175   6.103  0.5532  0.4340 -0.5187
  476SOL    HW1 3807   6.672   7.157   6.090  0.4079  1.5708 -1.2081
  476SOL    HW2 3808   6.808   7.091   6.087 -0.2511  0.1889 -1.5378
  477SOL     OW 3809   4.841   4.171   4.571 -0.1568  0.3104  0.4217
  477SOL    HW1 3810   4.827   4.078   4.587 -1.4055  0.4285  0.1047
  477SOL    HW2 3811   4.805   4.215   4.648  1.3966  0.5109  1.0780
  478SOL     OW 3812   3.012   9.659   6.649  0.0793  0.4825 -0.0761
  478SOL    HW1 3813   2.939   9.613   6.608  0.9743  0.3897 -1.6659
  478SOL    HW2 3814   2.978   9.746   6.669 -0.3946  0.5290 -1.0461
  479SOL     OW 3815   2.842  10.299   5.300 -0.0382 -0.4420  0.1258
  479SOL    HW1 3816   2.928  10.339   5.286  0.4574 -1.2969  0.5899
  479SOL    HW2 3817   2.791  10.321   5.222  1.3473 -1.8274 -1.2425
  480SOL     OW 3818  10.259   5.219   0.936  0.4244 -0.2973 -0.4021
  480SOL    HW1 3819  10.333   5.230   0.877  0.0200  0.3273 -0.8095
  480SOL    HW2 3820  10.191   5.178   0.881  0.3400 -0.5231 -0.1319
  481SOL     OW 3821  10.726   4.910  10.596  0.1195 -0.1151  0.3593
  481SOL    HW1 3822  10.693   4.841  10.654 -0.3604 -0.7964 -0.6978
  481SOL    HW2 3823  10.680   4.896  10.513 -0.2377  1.6802  0.2009
  482SOL     OW 3824   3.834   1.431   2.519 -0.2550 -0.5694  0.0862
  482SOL    HW1 3825   3.833   1.482   2.600 -1.3712  1.1100 -0.9151
  482SOL    HW2 3826   3.922   1.393   2.516  2.0334  4.0690 -0.6640
  483SOL     OW 3827   0.417   9.920   4.110  0.0359 -0.2079  0.3030
  483SOL    HW1 3828   0.458   9.938   4.194  2.6557  0.2608 -0.9831
  483SOL    HW2 3829   0.341   9.979   4.107 -1.0722 -1.3463  2.9010
  484SOL     OW 3830  10.422   8.318   0.699  0.4536  0.2360  0.5227
  484SOL    HW1 3831  10.359   8.300   0.629  0.2557 -1.0939  1.0213
  484SOL    HW2 3832  10.501   8.345   0.653  0.0003  0.4086 -0.1767
  485SOL     OW 3833   5.075   1.563   7.876  0.2066  0.6799  0.2210
  485SOL    HW1 3834   5.098   1.489   7.932  0.5091 -0.9786 -1.9229
  485SOL    HW2 3835   5.057   1.635   7.936 -2.1771 -1.6406  2.5699
  486SOL     OW 3836   4.131   4.400   5.072 -0.4391 -0.1813  0.4419
  486SOL    HW1 3837   4.133   4.357   4.986 -1.9214  0.9421 -0.1827
  486SOL    HW2 3838   4.204   4.360   5.120  0.3617 -0.8977 -1.2930
  487SOL     OW 3839   3.927   1.900   7.955 -0.1496  0.3459 -0.1311
  487SOL    HW1 3840   3.945   1.993   7.939 -1.4452  0.6833  0.2445
  487SOL    HW2 3841   3.832   1.893   7.951 -0.1011 -0.8688  0.3864
  488SOL     OW 3842   6.103  10.062  10.259  0.2074 -0.0464  0.3904
  488SOL    HW1 3843   6.019  10.041  10.218  1.2476  1.2283 -2.6844
  488SOL    HW2 3844   6.105  10.158  10.260  0.6294 -0.0133  2.8325
  489SOL     OW 3845   6.341   1.062   9.104  0.5187 -0.5878  0.2788
  489SOL    HW1 3846   6.404   0.992   9.123  0.5209 -0.6343  0.1030
  489SOL    HW2 3847   6.265   1.017   9.068  0.7488 -0.4535 -0.3987
  490SOL     OW 3848   3.697   0.197  10.525 -0.0979  1.0075  0.3959
  490SOL    HW1 3849   3.762   0.266  10.512 -0.0501  0.9338  0.2436
  490SOL    HW2 3850   3.620   0.243  10.559  0.0679  1.0805  0.6794
  491SOL     OW 3851   1.010   2.160   0.147 -0.1644 -0.0146  0.1760
  491SOL    HW1 3852   0.960   2.174   0.227  1.0516 -0.8000  1.0999
  491SOL    HW2 3853   0.964   2.212   0.081 -0.4293  1.7451  1.6565
  492SOL     OW 3854   1.418   7.734   3.704  0.3384  0.4137 -0.2799
  492SOL    HW1 3855   1.395   7.827   3.707  3.7602  1.4558 -1.6253
  492SOL    HW2 3856   1.473   7.721   3.781 -1.4330 -1.0214  0.8298
  493SOL     OW 3857   1.598   7.543   0.114 -0.2120 -0.0927 -0.3853
  493SOL    HW1 3858   1.557   7.464   0.150  2.4098 -1.3647  0.0856
  493SOL    HW2 3859   1.616   7.598   0.190 -0.9739  0.4280 -0.5790
  494SOL     OW 3860   9.368   1.349   7.707 -0.1297  0.3623 -0.1109
  494SOL    HW1 3861   9.451   1.342   7.755  0.7199  1.3084 -1.3673
  494SOL    HW2 3862   9.305   1.379   7.772  0.6296  0.1329  0.7570
  495SOL     OW 3863  10.424   7.783   0.373  0.0206 -0.3355  0.4825
  495SOL    HW1 3864  10.332   7.800   0.392 -0.3910 -1.0245 -0.7791
  495SOL    HW2 3865  10.443   7.699   0.416 -0.2499 -0.7183 -0.1277
  496SOL     OW 3866   2.764   4.424   1.527 -0.3451  0.1565 -0.0305
  496SOL    HW1 3867   2.669   4.437   1.523 -0.0958  2.3605 -0.3213
  496SOL    HW2 3868   2.789   4.456   1.613  0.4425  2.5677 -1.0712
  497SOL     OW 3869   2.530   6.445   4.437  0.0883 -0.2477 -0.1797
  497SOL    HW1 3870   2.548   6.530   4.477 -0.8738 -0.1892  0.1556
  497SOL    HW2 3871   2.580   6.445   4.355  1.2718  0.0375  0.5292
  498SOL     OW 3872   1.429   1.780   2.038 -0.5626  0.1852 -0.7902
  498SOL    HW1 3873   1.462   1.870   2.028 -1.0432  0.5044  0.3110
  498SOL    HW2 3874   1.491   1.740   2.100  0.0082 -0.4495 -1.7500
  499SOL     OW 3875   7.521  10.182   6.823  0.4553  0.2755 -0.3426
  499SOL    HW1 3876   7.582  10.130   6.771 -0.4656  0.3578 -1.5518
  499SOL    HW2 3877   7.524  10.142   6.910  1.7504 -0.1061 -0.5355
  500SOL     OW 3878   1.658   8.266   3.613  0.1846  0.0775  0.1637
  500SOL    HW1 3879   1.752   8.271   3.597  0.2044 -0.5270  0.0784
  500SOL    HW2 3880   1.646   8.309   3.698  1.0333 -2.8266  1.8925
  501SOL     OW 3881   1.120   6.486   9.333 -0.1779 -0.4420  0.0314
  501SOL    HW1 3882   1.052   6.429   9.370 -2.5798  0.8383 -2.1157
  501SOL    HW2 3883   1.100   6.573   9.368  0.8980 -0.1699  0.0053
  502SOL     OW 3884   0.113   5.514   0.358 -0.0591 -0.4234  0.4063
  502SOL    HW1 3885   0.110   5.431   0.407  3.5391 -0.4636  0.8220
  502SOL    HW2 3886   0.073   5.493   0.274  2.9927 -3.5049 -0.5097
  503SOL     OW 3887  10.202   6.317   7.940 -0.2186  0.2941  0.0314
  503SOL    HW1 3888  10.220   6.402   7.901 -0.0638  0.5904  0.7338
  503SOL    HW2 3889  10.270   6.306   8.007 -0.1554 -0.4414 -0.1404
  504SOL     OW 3890   8.215   3.160   8.812 -0.2741 -0.1563 -0.4137
  504SOL    HW1 3891   8.143   3.221   8.830  0.5647  1.1334 -1.2611
  504SOL    HW2 3892   8.288   3.194   8.865 -0.1388 -1.1978  0.1030
  505SOL     OW 3893   5.761   8.359   2.034 -0.6261 -0.7212 -0.1826
  505SOL    HW1 3894   5.713   8.296   2.088  0.3495 -2.0495 -0.8120
  505SOL    HW2 3895   5.776   8.313   1.951 -1.2220  0.9069 -1.2555
  506SOL     OW 3896   3.814   8.514  10.488  0.5468 -0.3471  0.3627
  506SOL    HW1 3897   3.812   8.605  10.519 -0.0867 -0.3201  0.2603
  506SOL    HW2 3898   3.886   8.512  10.425  0.4190  0.1425  0.1926
  507SOL     OW 3899  10.180   8.394   3.021  0.1654  0.1409 -0.6635
  507SOL    HW1 3900  10.162   8.474   3.071 -1.7320 -0.2664 -0.6184
  507SOL    HW2 3901  10.127   8.403   2.942 -3.5084 -2.7690  1.1491
  508SOL     OW 3902   6.520   0.791   7.594 -0.2973  0.0531 -0.2588
  508SOL    HW1 3903   6.602   0.780   7.643 -1.4198 -0.1564  1.6862
  508SOL    HW2 3904   6.460   0.832   7.657 -1.5953  0.5212 -1.7410
  509SOL     OW 3905  10.552   2.805   5.545 -0.0258  0.4202  0.2555
  509SOL    HW1 3906  10.560   2.713   5.520 -0.8127  0.1292  0.9907
  509SOL    HW2 3907  10.565   2.804   5.640  0.1357  1.0913  0.2396
  510SOL     OW 3908   2.972   5.847   9.531  0.2966 -0.2458 -0.0992
  510SOL    HW1 3909   3.003   5.815   9.446  1.8119 -0.4606  0.4869
  510SOL    HW2 3910   2.992   5.940   9.530  1.1311 -0.4036  0.3201
  511SOL     OW 3911   3.922   8.895   5.325  0.1344  0.2311 -0.8322
  511SOL    HW1 3912   4.003   8.853   5.296 -0.3206 -0.5879 -0.9627
  511SOL    HW2 3913   3.859   8.873   5.256  0.1367  2.0710 -1.4759
  512SOL     OW 3914   9.716  10.046   0.417 -0.4378  0.1713  0.1909
  512SOL    HW1 3915   9.700  10.102   0.341 -2.2177 -2.1296 -1.2516
  512SOL    HW2 3916   9.658  10.082   0.485 -0.5273  0.8951 -0.2515
  513SOL     OW 3917   3.656   7.010   2.857  0.2243  0.6529  0.2902
  513SOL    HW1 3918   3.714   6.946   2.815 -0.8032  0.0390 -0.2146
  513SOL    HW2 3919   3.711   7.088   2.866  1.1156  0.1113 -0.2526
  514SOL     OW 3920   1.998   8.672   9.419  0.6080 -0.9090 -0.3670
  514SOL    HW1 3921   1.908   8.697   9.396  1.0227  0.5204 -0.5020
  514SOL    HW2 3922   2.011   8.708   9.507  1.6449  0.5592 -1.0752
  515SOL     OW 3923   3.347   8.549  10.169 -0.2843  0.5563 -0.0124
  515SOL    HW1 3924   3.410   8.594  10.112 -0.7424  0.7044 -0.4046
  515SOL    HW2 3925   3.265   8.597  10.157 -0.7616 -0.3123 -0.3705
  516SOL     OW 3926   7.087   4.564   8.224  0.1198  0.4029  0.8668
  516SOL    HW1 3927   7.097   4.648   8.179  0.4501 -1.3234 -2.5411
  516SOL    HW2 3928   6.994   4.543   8.216  0.2192 -0.0315  0.8259
  517SOL     OW 3929   4.684   3.464   6.414  0.4616  0.6447  0.1081
  517SOL    HW1 3930   4.692   3.545   6.364 -2.0988 -0.4494 -2.3595
  517SOL    HW2 3931   4.706   3.395   6.352 -2.1050 -0.7391  0.5775
  518SOL     OW 3932   6.584   2.285   6.598 -0.2226  0.1988  0.5056
  518SOL    HW1 3933   6.532   2.365   6.608  1.1715  1.5004 -1.7725
  518SOL    HW2 3934   6.636   2.280   6.677 -1.5432  0.5813  1.4384
  519SOL     OW 3935   6.836   2.625   9.782  0.6874  0.4610  0.3471
  519SOL    HW1 3936   6.791   2.708   9.767 -0.4150 -0.2907 -0.8401
  519SOL    HW2 3937   6.848   2.620   9.876  1.3192  2.2268  0.3777
  520SOL     OW 3938   7.569   2.301   1.391  0.2453 -0.5827 -0.1105
  520SOL    HW1 3939   7.504   2.339   1.332 -1.0926  0.0167  1.6660
  520SOL    HW2 3940   7.563   2.207   1.375 -1.4528 -0.5840  0.3771
  521SOL     OW 3941   4.168   2.183   5.129 -0.3093 -0.5572 -0.0851
  521SOL    HW1 3942   4.166   2.136   5.212 -0.6150  0.2973  0.4023
  521SOL    HW2 3943   4.260   2.179   5.101 -0.3329 -1.4279 -0.0544
  522SOL     OW 3944   1.146   1.147   4.575 -0.4620  0.0625  0.2261
  522SOL    HW1 3945   1.172   1.239   4.567 -1.9267  0.6411  1.4807
  522SOL    HW2 3946   1.051   1.148   4.558 -0.4514 -1.2556  0.0013
  523SOL     OW 3947   3.225   0.058  10.467  0.0427 -0.3493 -0.0874
  523SOL    HW1 3948   3.257   0.078  10.555 -1.2934  1.7904 -0.0291
  523SOL    HW2 3949   3.284   0.106  10.408 -0.3299 -0.0445 -0.2201
  524SOL     OW 3950   9.747   6.720  10.793 -0.3280 -0.1942 -0.3686
  524SOL    HW1 3951   9.784   6.638  10.759 -0.3864 -0.5902  0.5140
  524SOL    HW2 3952   9.653   6.711  10.779 -0.3591 -0.3878 -0.0344
  525SOL     OW 3953   4.485   1.443   9.250  0.0734 -0.0656 -0.0668
  525SOL    HW1 3954   4.439   1.466   9.169 -1.3008 -1.7695  0.1755
  525SOL    HW2 3955   4.567   1.404   9.221  0.1424  0.4437 -0.5853
  526SOL     OW 3956   0.303   2.381   6.460 -0.2599  0.0378 -0.0067
  526SOL    HW1 3957   0.398   2.386   6.457 -0.0565 -1.2969  2.3259
  526SOL    HW2 3958   0.277   2.362   6.370  1.7747 -0.9215 -0.4438
  527SOL     OW 3959   9.682   2.824   9.957  0.3941 -0.1981 -0.2758
  527SOL    HW1 3960   9.708   2.831  10.049 -1.0004  1.4899  0.0451
  527SOL    HW2 3961   9.724   2.898   9.914 -0.3694  0.0472 -0.6195
  528SOL     OW 3962   2.231   6.081   2.124 -0.2186 -0.2176 -0.2126
  528SOL    HW1 3963   2.147   6.080   2.079  0.1939  0.0463 -1.0035
  528SOL    HW2 3964   2.242   6.171   2.153  0.2450 -0.0208 -0.9859
  529SOL     OW 3965   1.752   1.991   0.646  0.3320 -0.3766 -0.6971
  529SOL    HW1 3966   1.697   1.958   0.574 -1.6480  1.2702 -0.0333
  529SOL    HW2 3967   1.705   1.965   0.725 -0.7004  2.7971 -0.1317
  530SOL     OW 3968   1.120   4.134   8.310 -0.0488  0.4885 -0.2673
  530SOL    HW1 3969   1.210   4.119   8.280 -0.1933  0.9190 -0.9405
  530SOL    HW2 3970   1.089   4.207   8.257 -1.2364 -0.4803 -0.9685
  531SOL     OW 3971   7.452   8.673   0.873  0.4231  0.3215 -0.4755
  531SOL    HW1 3972   7.408   8.699   0.953 -0.4905 -1.6416 -0.3066
  531SOL    HW2 3973   7.498   8.592   0.895  1.0402  0.3206 -1.6530
  532SOL     OW 3974   9.465  10.081   6.563  0.2479  0.7017 -0.3633
  532SOL    HW1 3975   9.444  10.117   6.477  0.9536  0.5411 -0.6108
  532SOL    HW2 3976   9.550  10.119   6.584  0.2169  0.5014  0.1320
  533SOL     OW 3977   1.383   7.386   3.217 -0.0644  0.1422  0.3787
  533SOL    HW1 3978   1.423   7.457   3.166  0.7454  0.3314  1.2565
  533SOL    HW2 3979   1.291   7.412   3.225 -0.4964 -0.4540 -1.9378
  534SOL     OW 3980   1.397   2.324   1.869 -0.3330  0.4702  0.4598
  534SOL    HW1 3981   1.383   2.417   1.886 -1.3089  0.3049  0.6071
  534SOL    HW2 3982   1.309   2.287   1.864  0.0406 -0.3834  0.0413
  535SOL     OW 3983   0.252   1.140   8.115 -0.3352  0.2246  0.0876
  535SOL    HW1 3984   0.327   1.173   8.065  0.4498 -0.7289  0.6253
  535SOL    HW2 3985   0.273   1.049   8.134 -2.0890 -0.3690 -0.6245
  536SOL     OW 3986   5.889   7.026   7.758  0.2075  0.1687  0.3194
  536SOL    HW1 3987   5.976   7.057   7.784  0.9695 -1.9964  0.5348
  536SOL    HW2 3988   5.872   7.070   7.675  1.7057  0.2931  0.0528
  537SOL     OW 3989   4.654   1.807   8.125  0.1647  0.4330 -0.2889
  537SOL    HW1 3990   4.728   1.746   8.129 -1.9207 -2.2962 -0.0012
  537SOL    HW2 3991   4.631   1.823   8.217 -0.2617  0.3352 -0.3744
  538SOL     OW 3992   5.865   3.723   0.639  0.2968 -0.1541 -0.0187
  538SOL    HW1 3993   5.852   3.664   0.713 -0.4737 -1.6543 -1.2826
  538SOL    HW2 3994   5.940   3.686   0.592  1.6396  1.5476  0.6779
  539SOL     OW 3995   5.227   7.729   4.775 -0.5575  0.4543 -0.2538
  539SOL    HW1 3996   5.294   7.720   4.708  0.0819  0.1495  0.4193
  539SOL    HW2 3997   5.258   7.800   4.831 -0.3065 -0.3344  0.6232
  540SOL     OW 3998   5.575   7.351   8.940  0.2924  0.3556  0.1549
  540SOL    HW1 3999   5.586   7.278   8.879 -1.9538 -0.6078  0.8251
  540SOL    HW2 4000   5.626   7.422   8.901 -0.1195 -0.5649 -2.2431
  541SOL     OW 4001   6.492   2.863   8.035 -0.4182 -0.0569 -0.7300
  541SOL    HW1 4002   6.543   2.868   7.955  0.0562 -1.1585 -0.5136
  541SOL    HW2 4003   6.525   2.786   8.081 -1.2446  0.0702  0.1359
  542SOL     OW 4004   7.831   1.703   7.445  0.5853  0.0139 -0.1939
  542SOL    HW1 4005   7.778   1.769   7.490  0.6856  0.1849 -0.3276
  542SOL    HW2 4006   7.831   1.730   7.353 -0.5311 -0.9424 -0.4993
  543SOL     OW 4007   2.595   8.907   8.437  0.3468  0.4488  0.1237
  543SOL    HW1 4008   2.534   8.941   8.503 -1.4897 -0.3474 -1.0674
  543SOL    HW2 4009   2.538   8.864   8.373  2.2041 -0.3312 -1.0648
  544SOL     OW 4010   8.275   9.700   3.425  0.0044 -0.4148 -0.6360
  544SOL    HW1 4011   8.191   9.664   3.398  0.0480  0.0225 -1.4033
  544SOL    HW2 4012   8.338   9.629   3.407 -0.1236 -0.5424 -0.5851
  545SOL     OW 4013   9.134   1.551   6.122 -0.3329 -0.1969  0.0283
  545SOL    HW1 4014   9.120   1.603   6.201 -1.2710 -0.8213  0.2944
  545SOL    HW2 4015   9.136   1.615   6.051 -2.8282  0.1770  0.1794
  546SOL     OW 4016  10.748  10.570   9.989  0.1026 -0.0801 -1.1350
  546SOL    HW1 4017  10.816  10.513  10.026 -0.0033  0.7579  0.4434
  546SOL    HW2 4018  10.668  10.544  10.034 -0.2165  0.3479 -1.4460
  547SOL     OW 4019   7.834   2.075   1.540 -0.2973  0.0491 -0.5108
  547SOL    HW1 4020   7.829   2.138   1.612  0.3538 -1.7019  1.1158
  547SOL    HW2 4021   7.870   2.126   1.467  0.5252  1.4890  0.8346
  548SOL     OW 4022   5.603   3.910   6.389  0.2343  0.0204 -0.2483
  548SOL    HW1 4023   5.678   3.955   6.428 -0.6816  0.2702  1.3064
  548SOL    HW2 4024   5.527   3.959   6.420 -0.7900 -2.2608  1.1510
  549SOL     OW 4025   8.044   5.201   8.925  0.1666 -0.4393  0.1592
  549SOL    HW1 4026   7.997   5.256   8.863  1.5758  0.3226 -0.2885
  549SOL    HW2 4027   7.979   5.137   8.955 -0.4713 -1.1559 -2.4760
  550SOL     OW 4028  10.120   9.061   7.118  0.0467  0.3721 -0.4121
  550SOL    HW1 4029  10.026   9.047   7.125  0.0013  1.1682  0.8536
  550SOL    HW2 4030  10.136   9.069   7.024 -1.0134 -0.6084 -0.6901
  551SOL     OW 4031   7.345   4.241   4.953 -0.1077  0.1670 -0.1188
  551SOL    HW1 4032   7.252   4.262   4.939 -0.2752  0.3880  1.2029
  551SOL    HW2 4033   7.361   4.263   5.045  1.0570 -0.6199 -0.1165
  552SOL     OW 4034   6.627   4.866  10.043 -0.2899 -0.1621  0.2191
  552SOL    HW1 4035   6.580   4.787  10.069 -2.1281  1.0767  0.9288
  552SOL    HW2 4036   6.580   4.898   9.966  1.0568 -0.2684 -0.6753
  553SOL     OW 4037   8.306  10.670   6.505  0.1732  0.7800  0.1885
  553SOL    HW1 4038   8.246  10.739   6.477 -0.0041  0.8190  0.6515
  553SOL    HW2 4039   8.380  10.717   6.544  1.1708  0.7824 -1.6206
  554SOL     OW 4040   1.589   1.798   6.318  0.1975 -0.1306 -0.9821
  554SOL    HW1 4041   1.625   1.881   6.289 -0.9175  0.0949 -1.8232
  554SOL    HW2 4042   1.653   1.764   6.380  0.1755  1.8443  0.2000
  555SOL     OW 4043   5.966   6.407   9.500 -0.0657  0.4669  0.2305
  555SOL    HW1 4044   5.900   6.471   9.523  0.1786  0.3889  1.1813
  555SOL    HW2 4045   6.049   6.454   9.505 -0.0554  0.6921 -1.4179
  556SOL     OW 4046   6.067   0.742   6.395 -0.2934  0.4920 -0.3743
  556SOL    HW1 4047   6.147   0.750   6.447  0.1929  0.7140 -1.1389
  556SOL    HW2 4048   6.096   0.749   6.305 -1.2785  1.5558 -0.6436
  557SOL     OW 4049  10.667   0.288   6.516  0.1193 -0.3614  0.0854
  557SOL    HW1 4050  10.586   0.302   6.565 -0.8708  0.6538 -1.7251
  557SOL    HW2 4051  10.730   0.347   6.558  0.0571 -1.4166  1.7355
  558SOL     OW 4052   9.516   6.544   3.292 -0.1301  0.0426 -1.3728
  558SOL    HW1 4053   9.526   6.464   3.241  0.3597 -1.3597  0.7579
  558SOL    HW2 4054   9.606   6.571   3.311 -0.2672  1.7556 -2.9491
  559SOL     OW 4055   4.149   3.724   1.815  0.4706 -0.0974  0.1793
  559SOL    HW1 4056   4.172   3.638   1.849  0.8394 -0.3065 -0.5705
  559SOL    HW2 4057   4.233   3.766   1.798  0.2926  0.3627  0.4087
  560SOL     OW 4058  10.142   5.905   9.768 -0.3451  0.9035  0.0345
  560SOL    HW1 4059  10.079   5.868   9.706 -1.1334  0.8101  0.8693
  560SOL    HW2 4060  10.091   5.921   9.848  1.4078 -2.6791  2.0997
  561SOL     OW 4061   4.450   0.494   8.102  0.2630  0.0946  0.2222
  561SOL    HW1 4062   4.494   0.541   8.173 -1.5001  0.5398  1.0742
  561SOL    HW2 4063   4.359   0.523   8.107 -0.0516 -0.3802 -1.8126
  562SOL     OW 4064   7.534   0.751   3.783  0.0234 -0.2948 -0.2585
  562SOL    HW1 4065   7.458   0.734   3.838  0.3773  0.1174  0.3549
  562SOL    HW2 4066   7.563   0.838   3.807 -0.2498  0.2014 -1.6109
  563SOL     OW 4067   8.144   7.873   3.196 -0.0992 -0.8750  0.6411
  563SOL    HW1 4068   8.056   7.870   3.232 -0.3502  0.5761  0.2250
  563SOL    HW2 4069   8.132   7.901   3.105  0.7964 -0.3508  0.6673
  564SOL     OW 4070   8.320   5.157   0.726  0.0365 -0.0299 -0.2188
  564SOL    HW1 4071   8.319   5.251   0.710 -1.1999  0.1537  0.8006
  564SOL    HW2 4072   8.274   5.119   0.651  1.4005  0.0702 -1.1272
  565SOL     OW 4073   3.504   9.963   9.019  0.0587 -0.1718 -0.4800
  565SOL    HW1 4074   3.567   9.952   9.089 -0.3617  0.2687 -0.0256
  565SOL    HW2 4075   3.424   9.993   9.063 -1.3884 -3.3865 -0.6318
  566SOL     OW 4076   5.763   1.586   6.106  0.1904  0.6911  1.0342
  566SOL    HW1 4077   5.751   1.626   6.192  1.7113 -0.6410  1.9141
  566SOL    HW2 4078   5.850   1.547   6.109 -0.5283 -1.1854 -0.3612
  567SOL     OW 4079   6.356   6.579   7.396 -0.0475 -0.1629 -0.1833
  567SOL    HW1 4080   6.404   6.650   7.439 -1.0098  0.6627 -0.4155
  567SOL    HW2 4081   6.321   6.526   7.467  0.3347 -0.1600  0.0048
  568SOL     OW 4082   7.406   8.857   5.854 -0.5315  0.1376 -0.1466
  568SOL    HW1 4083   7.472   8.900   5.799  0.0497 -0.8173 -0.2175
  568SOL    HW2 4084   7.358   8.930   5.894 -0.5588  0.8587 -1.4177
  569SOL     OW 4085   9.156   3.692   6.570 -0.0711 -0.1019 -0.0520
  569SOL    HW1 4086   9.079   3.637   6.582 -0.9325  0.3304 -2.8471
  569SOL    HW2 4087   9.167   3.698   6.475  1.1265  2.9363  0.1544
  570SOL     OW 4088   8.587  10.752   4.786 -0.1101  0.1895 -0.0967
  570SOL    HW1 4089   8.637  10.711   4.716  2.9991  1.7137  1.0655
  570SOL    HW2 4090   8.591  10.690   4.859  1.1654  0.7672  0.3589
  571SOL     OW 4091   3.889   1.869  10.720  0.5396 -0.1492  0.0266
  571SOL    HW1 4092   3.800   1.903  10.711  1.1575  2.2698  2.0607
  571SOL    HW2 4093   3.934   1.898  10.641 -0.4396 -1.4601 -1.0554
  572SOL     OW 4094   1.824   4.389   3.973  0.3939  0.4805 -0.3216
  572SOL    HW1 4095   1.759   4.331   4.013  3.4107 -2.3310  0.9286
  572SOL    HW2 4096   1.814   4.471   4.021 -1.3285 -0.2725  0.7440
  573SOL     OW 4097   5.347   9.617   4.080  0.3706 -0.0424  0.2751
  573SOL    HW1 4098   5.264   9.627   4.126 -0.0124  1.1067 -0.6202
  573SOL    HW2 4099   5.388   9.541   4.121 -1.3088 -0.8933  0.4486
  574SOL     OW 4100   5.456   4.235   7.217  0.6188  0.7817  0.1648
  574SOL    HW1 4101   5.418   4.152   7.190  1.8352  0.7520 -1.5715
  574SOL    HW2 4102   5.388   4.300   7.196  0.7133  0.5129 -1.0287
  575SOL     OW 4103   7.532  10.278   4.139 -0.3236  0.4505  0.0750
  575SOL    HW1 4104   7.551  10.321   4.222 -2.3192 -0.5766  1.1366
  575SOL    HW2 4105   7.437  10.286   4.129 -0.5256 -1.9737 -0.5948
  576SOL     OW 4106   2.516   4.584   3.139 -0.0912  0.4570  0.2739
  576SOL    HW1 4107   2.506   4.638   3.217  0.3724  1.2227 -0.1824
  576SOL    HW2 4108   2.438   4.528   3.139  0.3852 -0.2537  1.7940
  577SOL     OW 4109   2.786   9.357   0.533  0.3711  0.2384  0.2584
  577SOL    HW1 4110   2.810   9.425   0.470 -1.5010  0.6461 -0.0490
  577SOL    HW2 4111   2.695   9.335   0.512  0.9128 -2.4372  0.2759
  578SOL     OW 4112   6.075   7.101   4.497  0.4358 -0.5517 -0.1025
  578SOL    HW1 4113   6.066   7.147   4.413  0.9304  1.4965  0.8893
  578SOL    HW2 4114   6.034   7.159   4.560 -3.0944 -3.6065  0.7380
  579SOL     OW 4115   5.155   4.011   4.203  0.3497 -0.5221 -0.6840
  579SOL    HW1 4116   5.235   3.967   4.232  0.0949  0.2025  1.2352
  579SOL    HW2 4117   5.089   3.987   4.268 -0.9280 -0.8476 -2.0599
  580SOL     OW 4118  10.205   7.571   0.492 -0.2767 -0.0268 -0.0754
  580SOL    HW1 4119  10.227   7.646   0.548 -0.6532  0.8977 -1.1400
  580SOL    HW2 4120  10.186   7.501   0.554  1.4014  0.3521  0.9360
  581SOL     OW 4121   6.662   9.012   8.319  0.1451  0.2112  0.0285
  581SOL    HW1 4122   6.735   9.034   8.262 -1.5694  0.7527 -2.0586
  581SOL    HW2 4123   6.655   8.916   8.313 -0.4677  0.3157 -1.3200
  582SOL     OW 4124   2.148  10.205   8.040  0.4028 -0.5926  0.1918
  582SOL    HW1 4125   2.056  10.178   8.049 -0.4422  2.2022  0.7299
  582SOL    HW2 4126   2.174  10.231   8.128  1.0990  0.4069 -0.2943
  583SOL     OW 4127   2.369   6.270   2.636 -0.2371 -0.3638  0.2159
  583SOL    HW1 4128   2.369   6.363   2.612 -0.2043  0.0190  1.6397
  583SOL    HW2 4129   2.447   6.260   2.691 -0.6330 -1.0779  0.6544
  584SOL     OW 4130   7.647   7.369   5.047  0.0442  0.3502  0.5985
  584SOL    HW1 4131   7.712   7.438   5.031 -1.7297  2.1009  0.3908
  584SOL    HW2 4132   7.596   7.401   5.122 -0.1365 -1.3068  1.2165
  585SOL     OW 4133   9.250   1.232   8.617  0.3649  0.4058  0.2952
  585SOL    HW1 4134   9.290   1.207   8.533  0.7919  0.7569  0.3870
  585SOL    HW2 4135   9.293   1.315   8.639 -2.2464  2.2367 -0.8959
  586SOL     OW 4136   7.701   7.484   7.280 -0.7412 -0.1083  0.2850
  586SOL    HW1 4137   7.749   7.412   7.240  0.9153 -0.2347  2.3249
  586SOL    HW2 4138   7.677   7.452   7.367 -3.9802  0.2403 -0.3739
  587SOL     OW 4139   9.529   5.364   8.584 -0.8532 -0.5075 -0.0001
  587SOL    HW1 4140   9.506   5.420   8.509  0.2015 -1.3156 -0.9531
  587SOL    HW2 4141   9.592   5.302   8.549  0.1566 -0.5098  1.7241
  588SOL     OW 4142   2.790   4.404  10.255 -0.3262 -0.0992 -0.3463
  588SOL    HW1 4143   2.797   4.308  10.262 -2.9395 -0.7366 -3.6101
  588SOL    HW2 4144   2.715   4.426  10.310 -0.3769 -0.1038 -0.4129
  589SOL     OW 4145   2.392   1.131   9.421 -0.7531  0.6102  0.3276
  589SOL    HW1 4146   2.426   1.043   9.434 -2.0709 -0.0308 -0.3607
  589SOL    HW2 4147   2.466   1.189   9.439  0.3241 -0.6605  0.0691
  590SOL     OW 4148   6.362   4.614   4.773  0.2528  0.1740  0.2874
  590SOL    HW1 4149   6.427   4.676   4.740  0.2708 -0.0618 -0.1262
  590SOL    HW2 4150   6.280   4.641   4.732  0.2038  0.1020  0.3377
  591SOL     OW 4151   6.161  10.417   6.904 -0.8684 -0.8698  0.1681
  591SOL    HW1 4152   6.204  10.364   6.836  2.6118 -1.0425  2.2464
  591SOL    HW2 4153   6.185  10.507   6.883 -3.0146 -0.4887 -0.8613
  592SOL     OW 4154   0.880   8.001   3.971 -0.4113  0.7232  1.3770
  592SOL    HW1 4155   0.867   8.089   3.936  0.0169  0.1599 -0.2936
  592SOL    HW2 4156   0.850   7.943   3.902  1.6989 -0.4739  1.3876
  593SOL     OW 4157   9.159   1.366   5.190 -0.1726 -0.5105 -0.1743
  593SOL    HW1 4158   9.198   1.335   5.272 -0.7249  2.4251  1.3250
  593SOL    HW2 4159   9.223   1.428   5.155 -0.2771 -1.1893 -1.6424
  594SOL     OW 4160  10.155   5.676   8.231  0.5834 -0.3244 -0.3053
  594SOL    HW1 4161  10.080   5.638   8.185 -0.1623  1.5240 -0.7080
  594SOL    HW2 4162  10.128   5.677   8.323  0.2401  0.0637 -0.4098
  595SOL     OW 4163   6.363   5.686   6.755 -0.0567 -0.5313 -0.2629
  595SOL    HW1 4164   6.422   5.698   6.829 -1.7982  1.2339  0.9683
  595SOL    HW2 4165   6.296   5.625   6.787  0.0347 -1.0259 -0.9740
  596SOL     OW 4166   2.856   4.459   4.125  0.2082  0.2965  0.1227
  596SOL    HW1 4167   2.881   4.372   4.092  1.6121 -0.3206  2.5292
  596SOL    HW2 4168   2.940   4.500   4.149 -0.4793  2.0980 -0.4124
  597SOL     OW 4169   1.350   4.445   5.125 -0.5064 -0.1903 -0.0386
  597SOL    HW1 4170   1.388   4.429   5.211  0.3556 -0.1899 -0.4128
  597SOL    HW2 4171   1.304   4.529   5.134 -1.2935 -0.6770  0.6948
  598SOL     OW 4172   9.926   1.121   9.619  0.1969 -0.0716 -0.1265
  598SOL    HW1 4173   9.939   1.036   9.577 -2.1302 -1.5005  1.7779
  598SOL    HW2 4174   9.983   1.120   9.695  2.0062  1.1898 -1.3763
  599SOL     OW 4175   2.267   6.029   0.585 -0.0040 -0.3264  0.2845
  599SOL    HW1 4176   2.335   5.965   0.604 -0.7626 -1.2373 -0.0026
  599SOL    HW2 4177   2.187   5.978   0.579 -0.4045  0.4277 -1.4813
  600SOL     OW 4178   1.010   5.836   2.605 -0.0713  0.0031 -0.2258
  600SOL    HW1 4179   1.004   5.834   2.509  2.5484  1.7688 -0.5387
  600SOL    HW2 4180   1.099   5.805   2.624 -0.2594  0.4675  1.5749
  601SOL     OW 4181   0.775   6.001   7.050 -0.6064  0.0546  0.1745
  601SOL    HW1 4182   0.847   6.018   6.989 -1.1569  1.6212 -0.0839
  601SOL    HW2 4183   0.789   5.911   7.080  1.6596  0.4478  0.4234
  602SOL     OW 4184   1.322   5.083   4.657 -0.0793 -0.1677  0.0512
  602SOL    HW1 4185   1.312   5.118   4.745 -0.1828 -2.1896  0.8975
  602SOL    HW2 4186   1.403   5.122   4.624  0.1360  0.3514  1.1576
  603SOL     OW 4187   1.231   6.757   9.932  0.5148  0.1003 -0.3360
  603SOL    HW1 4188   1.236   6.711   9.848  2.7075  1.4609 -1.0215
  603SOL    HW2 4189   1.163   6.823   9.920 -0.2906 -0.7427 -0.4769
  604SOL     OW 4190   0.289   6.589   2.609 -0.5218  0.4181 -0.2636
  604SOL    HW1 4191   0.217   6.551   2.659  0.5145 -0.0990  0.8869
  604SOL    HW2 4192   0.350   6.620   2.676  1.7423 -1.8624 -1.1653
  605SOL     OW 4193   7.079   0.405   1.849  0.1257 -0.3539 -0.0692
  605SOL    HW1 4194   7.065   0.320   1.807  0.5171  1.1670 -3.7349
  605SOL    HW2 4195   7.120   0.459   1.781  0.3333  2.6667  2.2031
  606SOL     OW 4196   3.990   2.811   0.919  0.0575 -0.2059 -0.2946
  606SOL    HW1 4197   4.069   2.759   0.932  0.2463 -0.4440 -2.1483
  606SOL    HW2 4198   3.919   2.746   0.921 -0.2229  0.0852  2.0461
  607SOL     OW 4199   3.059   7.628   9.642 -0.4296  0.4215  0.1145
  607SOL    HW1 4200   2.995   7.568   9.679 -1.0736 -0.0269 -1.6277
  607SOL    HW2 4201   3.143   7.585   9.654 -0.7846 -0.3935 -0.2291
  608SOL     OW 4202   4.206   3.731   4.465  0.0392 -0.0265 -0.3099
  608SOL    HW1 4203   4.176   3.652   4.511  0.6737 -1.2103 -1.8676
  608SOL    HW2 4204   4.128   3.763   4.420 -0.9355  1.8872  2.4413
  609SOL     OW 4205   1.270   2.783   3.942  0.0372  0.0461 -0.1256
  609SOL    HW1 4206   1.292   2.846   4.011 -1.5043 -1.5918  2.0207
  609SOL    HW2 4207   1.198   2.732   3.978  0.3670 -2.1415 -2.2400
  610SOL     OW 4208  10.582   2.248   0.226  0.1705 -0.4909 -0.2413
  610SOL    HW1 4209  10.527   2.325   0.210 -1.3630 -1.6820 -1.0009
  610SOL    HW2 4210  10.608   2.256   0.317  0.5075  1.2003 -0.4470
  611SOL     OW 4211   1.916   4.229   3.036  0.4377 -0.0645  0.5262
  611SOL    HW1 4212   1.854   4.156   3.031  0.7694 -0.3906  1.0315
  611SOL    HW2 4213   1.921   4.249   3.129 -1.0272  1.8212  0.2479
  612SOL     OW 4214   4.850   8.679   5.652 -0.1923  0.2890  0.3222
  612SOL    HW1 4215   4.813   8.766   5.639  0.7469  0.5179 -0.9815
  612SOL    HW2 4216   4.800   8.643   5.726 -1.8824  1.2005 -0.3034
  613SOL     OW 4217   6.856   1.668   6.653 -0.0146 -0.3008 -0.4039
  613SOL    HW1 4218   6.761   1.679   6.649 -0.1656 -1.2933  0.0315
  613SOL    HW2 4219   6.881   1.706   6.737 -0.1542 -0.7661 -0.1445
  614SOL     OW 4220   8.447   1.331   3.162 -0.1984  0.0700 -0.1137
  614SOL    HW1 4221   8.402   1.262   3.211  1.5125 -0.1301  1.2848
  614SOL    HW2 4222   8.457   1.296   3.074  0.1582 -1.2691  0.4388
  615SOL     OW 4223   0.801   6.507   2.673 -0.2623  0.1928 -0.1322
  615SOL    HW1 4224   0.851   6.589   2.676  2.0168 -1.1325  0.8292
  615SOL    HW2 4225   0.804   6.480   2.581 -0.9971  1.1451 -0.4465
  616SOL     OW 4226   4.883   2.693   6.882 -0.2291 -0.7660 -0.0293
  616SOL    HW1 4227   4.936   2.698   6.962 -1.0605 -2.1733  0.6436
  616SOL    HW2 4228   4.815   2.759   6.894  0.1342 -0.3984  0.0397
  617SOL     OW 4229   6.594   3.627  10.623  0.4075 -0.0777 -0.2922
  617SOL    HW1 4230   6.570   3.549  10.573 -3.3831  0.9479 -0.4124
  617SOL    HW2 4231   6.599   3.596  10.714  0.7494 -0.7591 -0.5337
  618SOL     OW 4232   7.967   9.452   7.177 -0.1868  0.0244  0.3109
  618SOL    HW1 4233   7.941   9.545   7.171 -3.4623 -0.7368  0.3975
  618SOL    HW2 4234   7.935   9.425   7.263  1.5474 -1.0181  0.6614
  619SOL     OW 4235   3.487   9.551   5.960  0.0877  0.5927  0.0351
  619SOL    HW1 4236   3.472   9.638   5.922 -1.7027  0.4190  0.2453
  619SOL    HW2 4237   3.412   9.538   6.017  1.4118 -0.2259  1.6650
  620SOL     OW 4238   6.322   6.696   0.905 -0.4066 -0.7465 -0.2331
  620SOL    HW1 4239   6.352   6.785   0.891 -1.6317 -0.0390  1.3440
  620SOL    HW2 4240   6.301   6.663   0.817 -0.9775  0.8931 -0.7385
  621SOL     OW 4241   0.913   4.834   9.773  0.0105 -0.3064 -0.3049
  621SOL    HW1 4242   0.829   4.829   9.817 -0.0141  0.9702 -0.1727
  621SOL    HW2 4243   0.898   4.795   9.687 -0.9435  0.6751 -0.5974
  622SOL     OW 4244   9.799   9.708   6.073  0.0884 -0.3924  0.1819
  622SOL    HW1 4245   9.851   9.700   5.993 -0.7054 -2.6215 -0.2065
  622SOL    HW2 4246   9.851   9.763   6.131  0.9202  0.8660 -1.6720
  623SOL     OW 4247   0.971   2.294   1.062  0.1348 -0.5511 -0.2080
  623SOL    HW1 4248   0.888   2.333   1.034 -0.9234 -0.7241  2.3729
  623SOL    HW2 4249   1.032   2.367   1.063 -0.4591 -0.0422 -0.4105
  624SOL     OW 4250   2.268   9.638   7.274 -0.3964 -0.0420  0.0442
  624SOL    HW1 4251   2.254   9.545   7.256  0.3946 -0.4438  1.3134
  624SOL    HW2 4252   2.266   9.680   7.188 -3.0552 -0.8678 -0.4007
  625SOL     OW 4253   2.573   7.307   6.557  0.1704  0.2696 -0.4861
  625SOL    HW1 4254   2.657   7.264   6.543 -0.6642 -1.9432  0.7470
  625SOL    HW2 4255   2.581   7.349   6.642 -0.5115 -1.5359  0.5196
  626SOL     OW 4256   4.071   9.620   3.171 -0.3459 -0.1827  0.0353
  626SOL    HW1 4257   4.008   9.671   3.120  0.1401  0.2105 -0.1720
  626SOL    HW2 4258   4.020   9.547   3.205 -0.7737 -0.2150 -0.6573
  627SOL     OW 4259   9.111   8.413  10.153 -0.2803 -0.0495  0.0581
  627SOL    HW1 4260   9.070   8.499  10.153 -1.2491 -0.4989 -0.7823
  627SOL    HW2 4261   9.148   8.403  10.066 -0.0945 -0.4535  0.1793
  628SOL     OW 4262   2.840   8.357   9.847 -0.2527 -0.5343  0.2517
  628SOL    HW1 4263   2.838   8.278   9.792  1.6401 -0.5213  0.0854
  628SOL    HW2 4264   2.927   8.355   9.887 -0.0398  1.6279  0.0025
  629SOL     OW 4265   3.519   4.522   9.894  0.1170 -0.6861 -0.5642
  629SOL    HW1 4266   3.571   4.505   9.973 -0.6462 -0.4935 -0.0146
  629SOL    HW2 4267   3.449   4.457   9.897 -0.2098 -0.3473 -0.8206
  630SOL     OW 4268   3.901   6.523  10.177 -0.5055  0.4821  0.3974
  630SOL    HW1 4269   3.857   6.490  10.099 -1.9479 -0.4250  1.5306
  630SOL    HW2 4270   3.884   6.617  10.177  1.8075  1.0264 -1.7317
  631SOL     OW 4271   7.711   9.241   9.704 -0.0416 -0.2363 -0.3834
  631SOL    HW1 4272   7.792   9.216   9.747 -0.8351 -0.0798  1.2618
  631SOL    HW2 4273   7.659   9.284   9.772 -0.6796  1.5646 -1.8854
  632SOL     OW 4274   5.387   4.993   4.202  0.0737  0.3317 -0.3771
  632SOL    HW1 4275   5.364   5.068   4.257  0.3688  0.0124  0.1935
  632SOL    HW2 4276   5.473   5.015   4.166 -1.2210  1.7522 -2.9145
  633SOL     OW 4277   9.479   7.703   7.034  0.1058  0.1510  0.0458
  633SOL    HW1 4278   9.504   7.784   7.078  1.2204  0.5583 -1.3084
  633SOL    HW2 4279   9.524   7.705   6.950 -0.6030 -1.4333 -0.4160
  634SOL     OW 4280   9.435   5.849   2.552  0.3108  0.1449  0.0550
  634SOL    HW1 4281   9.508   5.789   2.542  0.2770 -0.1503  1.4057
  634SOL    HW2 4282   9.469   5.921   2.605  0.1651  1.0211 -0.9842
  635SOL     OW 4283   1.915   7.722   0.376  0.1593  0.2108  0.2911
  635SOL    HW1 4284   1.862   7.712   0.455  0.8596 -0.0285  0.7458
  635SOL    HW2 4285   1.891   7.807   0.341  0.2846  0.5946  1.1119
  636SOL     OW 4286   1.068   5.364   1.553  0.1195  0.0712  0.5455
  636SOL    HW1 4287   0.976   5.374   1.574  0.1794 -0.5484  1.1282
  636SOL    HW2 4288   1.070   5.348   1.459 -0.2463  1.6177  0.2548
  637SOL     OW 4289   2.659   0.665   7.876 -0.5759  0.1053 -0.3354
  637SOL    HW1 4290   2.694   0.666   7.965 -0.0771  0.8673 -0.5304
  637SOL    HW2 4291   2.668   0.574   7.847 -0.8793 -0.1801  0.4366
  638SOL     OW 4292   1.285   0.034   3.190 -0.0882  0.2658  0.0163
  638SOL    HW1 4293   1.284   0.120   3.148 -1.3586  0.7148  0.9027
  638SOL    HW2 4294   1.194   0.004   3.185  0.2772 -0.8929  0.0130
  639SOL     OW 4295   7.364   8.643   6.965 -0.1938 -0.4178 -0.5040
  639SOL    HW1 4296   7.414   8.724   6.972 -0.8844 -0.0705  0.7205
  639SOL    HW2 4297   7.326   8.645   6.877 -1.1452  1.1706 -0.0941
  640SOL     OW 4298   9.531   0.096   1.865 -1.0220  0.6407 -0.0823
  640SOL    HW1 4299   9.513   0.166   1.928 -2.0322 -0.7170  1.2013
  640SOL    HW2 4300   9.487   0.019   1.901  0.3370 -0.7589 -1.2787
  641SOL     OW 4301   0.397   2.923   2.473  0.0505 -0.3822 -0.3957
  641SOL    HW1 4302   0.443   2.862   2.414 -0.5232 -0.2322 -1.0160
  641SOL    HW2 4303   0.312   2.935   2.432  0.2938  1.1471 -0.4844
  642SOL     OW 4304   0.468   7.424   0.562 -0.0643 -0.1244  0.2007
  642SOL    HW1 4305   0.382   7.453   0.531 -0.9462 -0.8077  1.8767
  642SOL    HW2 4306   0.523   7.502   0.556 -0.6965  0.2524 -1.1744
  643SOL     OW 4307   9.171   7.593   6.570  0.6264 -0.4972  0.2771
  643SOL    HW1 4308   9.257   7.553   6.581  0.8674  0.0080  0.2747
  643SOL    HW2 4309   9.152   7.634   6.655  1.2659  1.0576 -0.2892
  644SOL     OW 4310   8.311   5.715   0.634 -0.3418  0.1271  0.2386
  644SOL    HW1 4311   8.262   5.796   0.650 -0.4819 -0.5178  3.9036
  644SOL    HW2 4312   8.402   5.743   0.623 -0.2842  0.8068  2.1505
  645SOL     OW 4313   1.185   7.605   3.628 -0.4475 -0.0107  0.3065
  645SOL    HW1 4314   1.215   7.542   3.694 -0.5786  1.1024  1.4713
  645SOL    HW2 4315   1.255   7.670   3.624 -0.8414  0.3971 -0.0190
  646SOL     OW 4316   1.882   0.460   2.886  0.1289 -0.0960 -0.1894
  646SOL    HW1 4317   1.923   0.461   2.972  0.4509  0.1781 -0.3422
  646SOL    HW2 4318   1.818   0.531   2.889 -0.4786 -0.6510  0.1153
  647SOL     OW 4319   3.692   9.577   5.462 -0.4947  0.2048  0.5491
  647SOL    HW1 4320   3.691   9.616   5.375 -2.6323 -0.4647  0.2160
  647SOL    HW2 4321   3.750   9.634   5.513  0.4135  0.8850 -1.1629
  648SOL     OW 4322   4.011   5.463   6.569 -0.2524 -0.2487  0.0813
  648SOL    HW1 4323   4.011   5.430   6.480  0.0157 -0.8781  0.3100
  648SOL    HW2 4324   4.085   5.525   6.571  1.9524 -2.6949  0.7203
  649SOL     OW 4325   2.162   3.723   1.728  0.4624  0.4269  0.1409
  649SOL    HW1 4326   2.195   3.650   1.676  0.0688  0.9798 -0.9019
  649SOL    HW2 4327   2.195   3.801   1.684 -0.6371  0.9325  0.1807
  650SOL     OW 4328   1.913   5.731   0.483 -0.4751 -0.2033 -0.1977
  650SOL    HW1 4329   1.956   5.673   0.420  1.3321  0.8152  0.0282
  650SOL    HW2 4330   1.851   5.782   0.431 -1.5516 -1.7646 -0.5209
  651SOL     OW 4331   7.672   6.551   3.927 -0.3650 -0.4570 -0.0559
  651SOL    HW1 4332   7.689   6.586   4.015 -0.7364 -0.5610  0.0587
  651SOL    HW2 4333   7.722   6.608   3.869  0.5400 -0.8735  0.2858
  652SOL     OW 4334   9.301   3.059   2.452 -0.0053  0.4196  0.6496
  652SOL    HW1 4335   9.327   3.146   2.423 -1.1495  0.2776 -0.9226
  652SOL    HW2 4336   9.355   2.999   2.400  0.5343  0.1765  1.4782
  653SOL     OW 4337   9.333   1.928  10.588 -0.1326 -0.4445  0.2438
  653SOL    HW1 4338   9.388   1.932  10.510 -0.2895  0.0707  0.1596
  653SOL    HW2 4339   9.354   1.843  10.628  0.1969 -0.5588 -0.1709
  654SOL     OW 4340   1.327   1.848   0.616  0.8131  0.6917 -0.2580
  654SOL    HW1 4341   1.417   1.817   0.629  0.9328  0.3876 -1.6536
  654SOL    HW2 4342   1.329   1.894   0.532 -0.1302  1.5349  0.1548
  655SOL     OW 4343   9.300   7.765   2.783 -0.0169 -0.6084 -0.1570
  655SOL    HW1 4344   9.249   7.837   2.747  0.3194 -0.7417 -0.9089
  655SOL    HW2 4345   9.259   7.747   2.868 -0.1021  0.4583  0.0406
  656SOL     OW 4346   7.981   7.980   0.076 -0.3163  0.7451  0.4458
  656SOL    HW1 4347   8.061   8.012   0.035 -0.4973  0.8264  0.1556
  656SOL    HW2 4348   8.011   7.924   0.148  0.0435 -1.1121 -1.0768
  657SOL     OW 4349   5.404   7.914   5.652 -0.5071  0.5881  0.0167
  657SOL    HW1 4350   5.349   7.929   5.575  0.2962  0.2393 -0.6424
  657SOL    HW2 4351   5.370   7.975   5.718  0.0903  2.3970 -1.2657
  658SOL     OW 4352   7.665   8.664   1.105 -0.0677 -0.2769 -0.4373
  658SOL    HW1 4353   7.649   8.627   1.018  0.9409  2.8099 -2.0931
  658SOL    HW2 4354   7.754   8.635   1.127 -1.3459 -3.5173  1.0725
  659SOL     OW 4355  10.222   3.406   2.632 -0.0387  0.1534  0.4603
  659SOL    HW1 4356  10.185   3.494   2.631  0.0198  0.1801  0.5981
  659SOL    HW2 4357  10.257   3.396   2.721 -2.8699 -1.2066  1.5259
  660SOL     OW 4358   9.027   2.026   3.215  0.1211 -0.0406  0.4004
  660SOL    HW1 4359   8.996   1.953   3.269 -0.5138 -0.3823 -0.3991
  660SOL    HW2 4360   8.947   2.070   3.186  0.5084  1.2679  1.2440
  661SOL     OW 4361  10.105   5.691   4.942  0.1260 -0.4904 -0.2732
  661SOL    HW1 4362  10.075   5.707   4.852 -1.6413  1.0371  0.5331
  661SOL    HW2 4363  10.188   5.738   4.948 -0.4310  0.5679 -0.7105
  662SOL     OW 4364   6.215   5.136   5.494  0.0344 -0.8650  0.1211
  662SOL    HW1 4365   6.310   5.144   5.505 -0.2560  0.6858  1.9202
  662SOL    HW2 4366   6.182   5.117   5.581 -1.3194 -1.6724 -0.5348
  663SOL     OW 4367   1.147   8.076   1.316 -0.4087 -0.0042 -0.8798
  663SOL    HW1 4368   1.165   7.994   1.363 -2.0584  0.8431  1.4344
  663SOL    HW2 4369   1.229   8.099   1.273  0.7863 -1.5969  0.4581
  664SOL     OW 4370   1.598  10.239   2.550 -0.2780  0.3646  0.2374
  664SOL    HW1 4371   1.537  10.308   2.525 -0.6488 -0.7483 -2.2230
  664SOL    HW2 4372   1.653  10.279   2.617 -0.2858  3.1551 -1.2628
  665SOL     OW 4373   4.182  10.709   7.945 -0.2161 -0.8215 -0.3738
  665SOL    HW1 4374   4.150  10.675   7.861  0.2601 -1.8910 -0.1419
  665SOL    HW2 4375   4.163  10.639   8.008  0.3241 -0.4420  0.2258
  666SOL     OW 4376   2.218   9.463   1.778  0.1964 -0.1455  0.3873
  666SOL    HW1 4377   2.301   9.443   1.821  0.0568  0.8465  1.1785
  666SOL    HW2 4378   2.205   9.556   1.796 -0.4667  0.0114 -0.8173
  667SOL     OW 4379   1.946   7.258   7.188 -0.2054 -0.3059  0.3062
  667SOL    HW1 4380   2.003   7.333   7.169  0.2291 -0.2412  1.7486
  667SOL    HW2 4381   1.987   7.184   7.143  1.9420 -0.5816  2.5051
  668SOL     OW 4382   4.166   9.832   9.865 -0.1077  0.0203 -0.2658
  668SOL    HW1 4383   4.245   9.864   9.909 -0.8881  1.8080 -0.0896
  668SOL    HW2 4384   4.176   9.736   9.864  0.3945 -0.0676  2.9831
  669SOL     OW 4385   1.428   5.229   0.544  0.2695 -0.2446 -0.1797
  669SOL    HW1 4386   1.424   5.199   0.453  0.2504 -0.7461 -0.0207
  669SOL    HW2 4387   1.429   5.324   0.538  1.2776 -0.2715 -0.7454
  670SOL     OW 4388   3.443   5.051   4.389  0.0190 -0.0077  0.2345
  670SOL    HW1 4389   3.426   5.086   4.476 -1.0688  0.3529 -0.1002
  670SOL    HW2 4390   3.405   4.963   4.391  2.6269 -1.2125  1.0305
  671SOL     OW 4391   1.922   9.124   2.604  0.0819  0.1958 -0.0286
  671SOL    HW1 4392   2.017   9.135   2.600  0.1793 -0.8602 -1.7059
  671SOL    HW2 4393   1.893   9.134   2.513 -1.0560 -2.2638 -0.0041
  672SOL     OW 4394   6.277   7.681   3.323 -0.4532  0.3914  0.3076
  672SOL    HW1 4395   6.308   7.772   3.321  1.2192 -0.1694 -0.5351
  672SOL    HW2 4396   6.183   7.689   3.340 -0.5094  2.3175 -0.6091
  673SOL     OW 4397   8.782   4.121   4.708  0.0524 -0.7147 -0.1409
  673SOL    HW1 4398   8.746   4.145   4.623  0.0640  0.7590  0.2439
  673SOL    HW2 4399   8.782   4.203   4.758 -1.2514 -1.8144  1.7534
  674SOL     OW 4400   2.919   6.911   0.539  0.3273 -0.7817 -0.1750
  674SOL    HW1 4401   2.854   6.848   0.572 -0.2210 -0.9930 -1.6019
  674SOL    HW2 4402   2.872   6.961   0.473  0.8249  1.0021  0.7621
  675SOL     OW 4403   6.353   9.915   0.353  0.1979  0.6800 -0.2743
  675SOL    HW1 4404   6.301   9.934   0.431 -0.3345 -1.2508 -0.1091
  675SOL    HW2 4405   6.295   9.935   0.280  0.6337  2.3131 -0.2121
  676SOL     OW 4406   0.369   5.667  10.194 -0.4889  0.0558  0.7669
  676SOL    HW1 4407   0.402   5.718  10.120 -0.7557  0.6412  1.0422
  676SOL    HW2 4408   0.442   5.610  10.218  0.8470  2.1825  2.1545
  677SOL     OW 4409   4.591   3.149   8.799  0.5976  1.3042  0.4036
  677SOL    HW1 4410   4.642   3.229   8.791  2.0495  0.2666 -1.8371
  677SOL    HW2 4411   4.643   3.093   8.856  1.1259  0.8950 -0.4566
  678SOL     OW 4412   9.021  10.330   9.726  0.1125 -0.0750  0.0128
  678SOL    HW1 4413   9.022  10.295   9.637  1.7885  1.7966 -0.7545
  678SOL    HW2 4414   8.991  10.420   9.717  0.9348  0.3532  1.2632
  679SOL     OW 4415   1.072   0.896   1.149  0.3460 -0.8837  0.6612
  679SOL    HW1 4416   1.081   0.824   1.211 -0.7530 -0.0386  1.8788
  679SOL    HW2 4417   1.154   0.944   1.156  1.9749 -3.0509 -1.6786
  680SOL     OW 4418   5.854  10.641   1.586 -0.2152 -0.7214 -0.2178
  680SOL    HW1 4419   5.810  10.559   1.563  0.8726 -1.7406  1.1288
  680SOL    HW2 4420   5.944  10.629   1.557 -0.5436  0.9898 -2.1484
  681SOL     OW 4421   2.533   6.239   4.656  0.6336 -0.3664  0.3950
  681SOL    HW1 4422   2.614   6.290   4.659  0.4369 -0.0163 -0.0559
  681SOL    HW2 4423   2.547   6.167   4.717  1.2164 -0.2083  0.4503
  682SOL     OW 4424   1.112   2.719   4.266  0.1385  0.4525  0.0523
  682SOL    HW1 4425   1.084   2.691   4.179  1.0135  1.2159 -0.4839
  682SOL    HW2 4426   1.182   2.658   4.289  1.6987  1.8275 -0.9028
  683SOL     OW 4427   3.066  10.641   7.291  0.0638  0.3727 -0.0456
  683SOL    HW1 4428   3.041  10.644   7.199 -1.8913  0.5495  0.4510
  683SOL    HW2 4429   3.082  10.548   7.309  1.4828  0.4412 -0.7693
  684SOL     OW 4430  10.474   8.744   2.754  0.2036  0.6010 -0.2865
  684SOL    HW1 4431  10.505   8.810   2.816  0.3512 -0.5984  0.9691
  684SOL    HW2 4432  10.452   8.669   2.809 -0.4963 -0.1997 -1.6218
  685SOL     OW 4433   5.915   1.170   6.073 -0.2117 -0.2129  0.2541
  685SOL    HW1 4434   5.973   1.165   6.150  0.8113  1.1786 -0.3922
  685SOL    HW2 4435   5.838   1.119   6.098  0.4747 -0.5138  1.8765
  686SOL     OW 4436   5.461   1.997   4.551  0.3034  0.1768  0.3130
  686SOL    HW1 4437   5.491   2.035   4.634 -0.4528 -1.4615  1.3850
  686SOL    HW2 4438   5.541   1.982   4.501  0.7659  1.2742  0.6893
  687SOL     OW 4439   0.885   7.990   7.976  0.1153  0.2143  0.3524
  687SOL    HW1 4440   0.887   8.066   7.917  1.6234 -0.8972 -1.1116
  687SOL    HW2 4441   0.968   7.945   7.961 -0.7537 -1.7760  1.1293
  688SOL     OW 4442   2.780  10.598   7.693  0.2412 -0.3411  0.4740
  688SOL    HW1 4443   2.739  10.561   7.615 -1.6318 -0.6003  1.5225
  688SOL    HW2 4444   2.866  10.555   7.698 -0.4220 -1.8370 -0.3345
  689SOL     OW 4445   7.964   7.025   0.151 -0.1233 -0.2138 -0.5320
  689SOL    HW1 4446   7.893   7.082   0.179  0.6229  0.1603  0.6741
  689SOL    HW2 4447   7.939   6.938   0.182  0.1671  0.0057  0.3505
  690SOL     OW 4448   2.715   8.420   3.591 -0.3615 -0.7130 -0.1343
  690SOL    HW1 4449   2.724   8.510   3.558  0.7430  0.3248  2.6706
  690SOL    HW2 4450   2.622   8.410   3.607 -0.9009 -1.1447 -2.9755
  691SOL     OW 4451   7.743  10.513   8.409  0.0261  0.1829 -0.1911
  691SOL    HW1 4452   7.756  10.590   8.464  0.3133  1.4728 -2.0003
  691SOL    HW2 4453   7.764  10.542   8.321 -0.5487 -1.7898 -1.0321
  692SOL     OW 4454   7.166   4.626   1.873 -0.3432 -0.6909 -0.4899
  692SOL    HW1 4455   7.094   4.650   1.930 -0.4019  0.1364 -0.8978
  692SOL    HW2 4456   7.220   4.567   1.926 -1.2359 -1.2168 -0.1385
  693SOL     OW 4457   9.392   8.587   6.070 -1.1994  0.2102  0.1139
  693SOL    HW1 4458   9.451   8.535   6.014 -1.1074 -0.3207  0.6875
  693SOL    HW2 4459   9.305   8.550   6.054 -1.5497  1.6046 -1.4364
  694SOL     OW 4460  10.769   5.376   4.510 -0.3126 -0.0637  0.1071
  694SOL    HW1 4461  10.750   5.283   4.498  0.3840 -0.5367  2.2220
  694SOL    HW2 4462  10.686   5.420   4.492 -0.3851 -0.9402 -2.0122
  695SOL     OW 4463   9.974   5.562   7.293  0.3892  0.0600  0.0433
  695SOL    HW1 4464  10.068   5.562   7.311  0.3416  1.8650  0.5089
  695SOL    HW2 4465   9.943   5.645   7.330 -0.9361  0.7037 -2.3048
  696SOL     OW 4466   1.986   2.503   4.384 -0.5852  0.0216  0.5464
  696SOL    HW1 4467   1.912   2.521   4.326 -1.2824  0.5742  1.5872
  696SOL    HW2 4468   2.053   2.566   4.357  0.0421 -1.3069 -1.2559
  697SOL     OW 4469   7.716   4.630   8.197 -0.3154 -0.8540  0.4264
  697SOL    HW1 4470   7.777   4.587   8.137 -0.9112 -1.1658  0.0375
  697SOL    HW2 4471   7.772   4.672   8.262  0.3435 -0.3876 -0.4262
  698SOL     OW 4472   0.547   6.366   7.637  0.0961 -0.3101  0.4019
  698SOL    HW1 4473   0.595   6.444   7.664 -0.0276  0.5832 -1.7769
  698SOL    HW2 4474   0.523   6.323   7.719  0.3935  1.7923  1.6516
  699SOL     OW 4475   2.743   7.846   1.328  0.1334 -0.6204 -0.4437
  699SOL    HW1 4476   2.726   7.898   1.249  0.6371  1.4445  0.7242
  699SOL    HW2 4477   2.679   7.878   1.391  1.4793 -0.2626  0.7912
  700SOL     OW 4478   0.133  10.117   3.787 -0.0760 -0.3505 -0.4646
  700SOL    HW1 4479   0.113  10.049   3.852 -4.0160  0.7502 -0.2717
  700SOL    HW2 4480   0.063  10.181   3.798  3.7929  4.3016 -0.0740
  701SOL     OW 4481   2.595   3.530  10.006 -0.1662  0.0058  0.5586
  701SOL    HW1 4482   2.547   3.583   9.942 -1.8801 -1.3591  0.6268
  701SOL    HW2 4483   2.527   3.480  10.051  1.2158 -0.8050  1.8354
  702SOL     OW 4484   5.022   8.483   3.637  0.0015  0.4605  0.2665
  702SOL    HW1 4485   4.998   8.390   3.628  1.5674 -0.0104  0.7352
  702SOL    HW2 4486   4.995   8.522   3.554  2.4186 -1.1406 -1.4217
  703SOL     OW 4487   8.443   1.376   6.658 -1.1577 -0.5671 -0.4220
  703SOL    HW1 4488   8.406   1.441   6.598 -0.1202 -0.4981 -0.9974
  703SOL    HW2 4489   8.473   1.305   6.602 -0.8957 -0.8551  0.0805
  704SOL     OW 4490   7.525   2.682  10.022 -0.3700 -0.3931 -0.3583
  704SOL    HW1 4491   7.583   2.612   9.991 -1.9452 -2.2138  0.5763
  704SOL    HW2 4492   7.573   2.763  10.004  2.3126 -1.7668  0.1309
  705SOL     OW 4493  10.606   6.786   7.758  0.1433 -0.0012  0.2750
  705SOL    HW1 4494  10.567   6.835   7.685  0.7202 -1.0956 -0.8225
  705SOL    HW2 4495  10.692   6.827   7.770 -1.2604  2.5348  2.8203
  706SOL     OW 4496   8.761  10.120   2.400 -0.2802 -0.6769  0.1143
  706SOL    HW1 4497   8.678  10.166   2.386  0.0656  0.0238  0.3024
  706SOL    HW2 4498   8.736  10.029   2.416 -1.1110 -0.2655  1.3109
  707SOL     OW 4499   7.048   3.917   9.197 -0.4945 -0.2982 -0.3255
  707SOL    HW1 4500   7.041   3.832   9.155 -2.8292 -1.1830  1.6257
  707SOL    HW2 4501   7.121   3.908   9.259  0.5271 -0.1864 -1.4763
  708SOL     OW 4502   9.488   5.934  10.448 -0.6217 -0.1885  0.4520
  708SOL    HW1 4503   9.402   5.966  10.420 -0.7987 -0.6689  0.4466
  708SOL    HW2 4504   9.544   5.945  10.371 -0.6103  0.3644  0.5334
  709SOL     OW 4505   6.733   4.851   2.189  0.8051  0.1945 -0.1141
  709SOL    HW1 4506   6.751   4.906   2.113  1.2736  1.7126  1.0578
  709SOL    HW2 4507   6.722   4.763   2.153  1.7679  0.7538 -1.8499
  710SOL     OW 4508   8.468   9.745   4.287  0.4502 -0.8517 -0.1510
  710SOL    HW1 4509   8.478   9.822   4.232 -4.1276  0.6981  0.7477
  710SOL    HW2 4510   8.463   9.671   4.226  3.3768 -0.4163 -1.1025
  711SOL     OW 4511   7.162   2.050   3.517  0.0837  0.1329  0.1629
  711SOL    HW1 4512   7.147   1.970   3.567  2.1496 -0.4311 -0.0454
  711SOL    HW2 4513   7.130   2.121   3.574  1.5041 -0.5594  1.8939
  712SOL     OW 4514   1.003   8.919   8.052 -0.1547 -0.0162  0.2190
  712SOL    HW1 4515   0.945   8.923   7.976  0.8113 -1.4311 -0.6540
  712SOL    HW2 4516   0.997   9.006   8.093 -1.4660  0.4344 -0.8856
  713SOL     OW 4517   4.081   3.457   3.363 -0.3203  0.0196 -0.4149
  713SOL    HW1 4518   4.074   3.374   3.316 -2.5499 -0.6071  0.8752
  713SOL    HW2 4519   4.091   3.431   3.455  0.3537  1.1910 -0.1439
  714SOL     OW 4520   1.397   8.673   1.311  0.0297  0.3668 -0.0891
  714SOL    HW1 4521   1.374   8.598   1.256 -0.2564  0.4920 -0.1428
  714SOL    HW2 4522   1.332   8.740   1.289 -1.3347 -0.2549  1.8198
  715SOL     OW 4523   8.836   3.811   2.140 -0.6324  0.2504 -0.3983
  715SOL    HW1 4524   8.916   3.860   2.119 -0.0707 -1.5065 -2.9173
  715SOL    HW2 4525   8.852   3.774   2.227 -0.0262  2.3645  0.4502
  716SOL     OW 4526   8.680   5.749   4.557  0.0261  0.3305 -0.2097
  716SOL    HW1 4527   8.747   5.689   4.588 -0.3615  0.2257  0.4612
  716SOL    HW2 4528   8.728   5.820   4.514  0.4812 -0.4585 -1.0130
  717SOL     OW 4529   5.765   9.134   5.743 -0.2136 -0.2174 -0.1966
  717SOL    HW1 4530   5.778   9.225   5.768 -0.0302 -0.5900  1.1089
  717SOL    HW2 4531   5.770   9.135   5.647  1.7744  0.8418 -0.1317
  718SOL     OW 4532   0.975   6.466   8.098 -0.3041 -0.4112  0.4984
  718SOL    HW1 4533   0.984   6.415   8.178  0.7312 -1.3525 -0.1906
  718SOL    HW2 4534   0.986   6.557   8.125 -0.3128 -0.6971  1.4681
  719SOL     OW 4535   5.866   5.323   0.470 -0.2829  0.3913  0.5759
  719SOL    HW1 4536   5.773   5.301   0.481 -0.4516  0.4527 -0.6007
  719SOL    HW2 4537   5.902   5.319   0.559 -1.0342 -1.3008  0.8471
  720SOL     OW 4538   0.242   9.161   6.361 -0.1872  0.2938  0.4405
  720SOL    HW1 4539   0.166   9.143   6.306  0.5196 -0.6971 -0.2620
  720SOL    HW2 4540   0.226   9.112   6.442 -0.9502  1.2682  0.8987
  721SOL     OW 4541   1.601  10.552   8.576 -0.0896 -0.2500 -0.5576
  721SOL    HW1 4542   1.593  10.458   8.591  0.8616 -0.4420 -1.1724
  721SOL    HW2 4543   1.651  10.559   8.494  3.1547  0.7635  1.3337
  722SOL     OW 4544   4.113   8.741   7.336  0.3165 -0.4482  0.2865
  722SOL    HW1 4545   4.032   8.724   7.288  0.1874  1.2752 -0.1889
  722SOL    HW2 4546   4.170   8.784   7.273  0.7975  0.2849  1.1913
  723SOL     OW 4547   2.310   3.199  10.294 -0.2007  0.1540  0.7142
  723SOL    HW1 4548   2.335   3.184  10.385 -3.0026  1.0979  1.7320
  723SOL    HW2 4549   2.222   3.236  10.298 -0.7698 -0.5155 -2.4268
  724SOL     OW 4550   7.477   9.765   9.272  0.2765 -0.5024 -0.2628
  724SOL    HW1 4551   7.526   9.796   9.349 -1.2755  0.7766  0.2776
  724SOL    HW2 4552   7.437   9.845   9.236 -2.1078 -1.5571 -0.1277
  725SOL     OW 4553   1.480   4.752   9.118  0.7341  0.2889 -0.2097
  725SOL    HW1 4554   1.555   4.702   9.148  2.9851  2.5512 -1.6155
  725SOL    HW2 4555   1.468   4.725   9.027 -0.6978 -0.5819  0.2057
  726SOL     OW 4556  10.293   3.535   9.427  0.0954  0.5021 -0.1088
  726SOL    HW1 4557  10.331   3.567   9.508  1.9233  0.7084 -0.9977
  726SOL    HW2 4558  10.256   3.613   9.386  0.6612  0.7109 -0.2342
  727SOL     OW 4559   1.658   7.884   0.311 -0.6004 -0.3222  0.6858
  727SOL    HW1 4560   1.582   7.862   0.256  1.1738 -2.0620 -1.2138
  727SOL    HW2 4561   1.648   7.830   0.389 -1.9382  0.4477  1.0882
  728SOL     OW 4562   4.954   7.063   3.136 -0.0731 -0.2517  0.2065
  728SOL    HW1 4563   4.873   7.106   3.110  0.7611  0.9953 -0.4560
  728SOL    HW2 4564   4.960   6.986   3.078 -0.8137 -0.4089  0.3331
  729SOL     OW 4565   0.209   9.946   2.338 -0.2190  0.0351  0.1007
  729SOL    HW1 4566   0.174   9.875   2.284 -2.5563 -0.1067  1.6516
  729SOL    HW2 4567   0.195  10.025   2.287 -0.4109 -0.3110 -0.3849
  730SOL     OW 4568   7.673   1.973   2.355 -0.6106  0.0265 -0.0072
  730SOL    HW1 4569   7.722   2.055   2.359  0.2103 -0.4629  0.4089
  730SOL    HW2 4570   7.629   1.974   2.270  1.3252 -0.1663 -1.0800
  731SOL     OW 4571   8.322   4.591   6.509 -0.4005  0.1700  0.2320
  731SOL    HW1 4572   8.235   4.620   6.481 -0.6498 -0.3131  0.4963
  731SOL    HW2 4573   8.326   4.614   6.602 -1.2938 -2.1801  0.9249
  732SOL     OW 4574   1.406   9.839   7.259  0.0838 -0.3040 -0.0683
  732SOL    HW1 4575   1.351   9.763   7.244  1.4211 -1.1929 -0.6234
  732SOL    HW2 4576   1.355   9.894   7.319 -1.2968 -1.1777 -0.3991
  733SOL     OW 4577   5.979   6.398   7.295 -0.2678  0.6256 -0.0599
  733SOL    HW1 4578   5.954   6.471   7.238  1.9601  0.1365 -1.8024
  733SOL    HW2 4579   5.972   6.321   7.239 -0.1522 -0.1871  1.0156
  734SOL     OW 4580   7.009   1.302   5.044 -0.2641 -0.0952 -0.2302
  734SOL    HW1 4581   6.963   1.315   5.127  2.0342  0.9697  0.9413
  734SOL    HW2 4582   7.090   1.351   5.053  0.3134 -0.3987 -2.9293
  735SOL     OW 4583   8.818   9.366   7.551  0.1666  0.0166  0.6275
  735SOL    HW1 4584   8.821   9.440   7.490  0.0372  0.1669  0.8011
  735SOL    HW2 4585   8.794   9.291   7.496 -4.5740  0.8874  1.1058
  736SOL     OW 4586   3.178   1.877   6.330 -0.6550 -0.1847 -0.3883
  736SOL    HW1 4587   3.226   1.943   6.280 -0.3674  0.7229  1.0236
  736SOL    HW2 4588   3.120   1.928   6.387  0.3750 -1.0790  1.5312
  737SOL     OW 4589   3.213  10.167   1.256  0.1273 -0.0534  0.2163
  737SOL    HW1 4590   3.146  10.140   1.194  0.2215  1.0856 -0.4100
  737SOL    HW2 4591   3.247  10.085   1.292 -1.5454 -0.6574  0.5156
  738SOL     OW 4592   8.453  10.759   8.550 -0.5253 -0.5148 -0.0377
  738SOL    HW1 4593   8.541  10.727   8.531 -0.1368  0.3011  0.3645
  738SOL    HW2 4594   8.447  10.842   8.503 -1.7346 -1.4040 -1.5562
  739SOL     OW 4595   2.276   4.902   1.583  0.3578 -0.2107  0.3894
  739SOL    HW1 4596   2.292   4.996   1.592  2.1628 -0.2369 -1.7942
  739SOL    HW2 4597   2.193   4.896   1.535  1.3203  0.3696 -1.4215
  740SOL     OW 4598   3.351   8.360   3.992 -0.7394  0.6521  0.4281
  740SOL    HW1 4599   3.257   8.367   3.973 -0.4461  2.1820 -0.6276
  740SOL    HW2 4600   3.364   8.413   4.071 -0.6916  0.7488  0.3548
  741SOL     OW 4601   7.409   0.583   9.934 -0.2826  0.2560 -0.2785
  741SOL    HW1 4602   7.468   0.643   9.979  0.5714 -1.9395  1.7730
  741SOL    HW2 4603   7.465   0.538   9.870  0.5347 -2.0609  1.8908
  742SOL     OW 4604   4.358   4.561   0.351 -0.2104  0.1354 -0.0121
  742SOL    HW1 4605   4.359   4.523   0.439  2.8125  0.8303  0.3620
  742SOL    HW2 4606   4.407   4.643   0.360  1.2875 -0.3847 -2.5915
  743SOL     OW 4607   0.923   9.807   0.120 -0.0599 -0.1159  0.6550
  743SOL    HW1 4608   0.881   9.885   0.083 -1.8984 -1.2571  0.1965
  743SOL    HW2 4609   0.980   9.775   0.050 -0.8376 -0.2857  0.0771
  744SOL     OW 4610   5.006   4.020   9.604 -0.0564 -0.1007  0.4936
  744SOL    HW1 4611   4.960   3.996   9.524 -1.0445 -1.5935  1.4486
  744SOL    HW2 4612   4.949   3.988   9.675  0.7665  1.1829  1.8019
  745SOL     OW 4613   3.635   9.850   0.543 -1.0123  0.0677 -0.5023
  745SOL    HW1 4614   3.652   9.769   0.592 -0.4190 -0.4200 -1.4799
  745SOL    HW2 4615   3.719   9.871   0.502 -1.2424  1.0234 -0.4940
  746SOL     OW 4616   0.295  10.027   9.218  0.2142 -0.1348 -0.1463
  746SOL    HW1 4617   0.235   9.988   9.155  0.5587 -1.6716  0.4384
  746SOL    HW2 4618   0.322   9.954   9.275 -0.0880  1.1811  1.7904
  747SOL     OW 4619   6.938   3.307   7.375 -0.5113 -0.5113  0.1752
  747SOL    HW1 4620   7.011   3.245   7.385 -1.2833 -1.4166  0.3101
  747SOL    HW2 4621   6.875   3.261   7.320 -1.2142  0.0655  0.4848
  748SOL     OW 4622   1.650   9.974   0.695 -0.4274 -0.1086 -0.2116
  748SOL    HW1 4623   1.745   9.969   0.703 -0.4661  0.5175  0.7894
  748SOL    HW2 4624   1.616   9.945   0.780 -1.2008 -1.7678 -1.0309
  749SOL     OW 4625   4.047   1.274   7.774 -0.3204  0.1241  0.5614
  749SOL    HW1 4626   4.121   1.299   7.830 -0.1908  3.5889 -0.9110
  749SOL    HW2 4627   4.087   1.242   7.693 -0.4596  0.4930  0.3471
  750SOL     OW 4628   6.430   0.677  10.099  0.7597 -0.1186  0.1223
  750SOL    HW1 4629   6.430   0.721  10.184 -2.2278 -0.5619  0.4558
  750SOL    HW2 4630   6.446   0.585  10.119 -1.6936 -0.5362  0.5346
  751SOL     OW 4631   8.374   5.495   3.049 -0.3746  0.3212  0.2365
  751SOL    HW1 4632   8.384   5.495   3.145  1.6783 -1.9795  0.1102
  751SOL    HW2 4633   8.412   5.578   3.021 -1.2857  1.1682  1.4132
  752SOL     OW 4634   5.759  10.784  10.162  0.3016 -0.3082 -0.0168
  752SOL    HW1 4635   5.746  10.785  10.257 -0.6843  1.5413 -0.1294
  752SOL    HW2 4636   5.839  10.835  10.148  0.1669 -0.1530 -0.2168
  753SOL     OW 4637   4.639   9.643   6.621 -0.1362 -0.2737 -0.5824
  753SOL    HW1 4638   4.683   9.597   6.692  0.8835 -1.3705 -1.8623
  753SOL    HW2 4639   4.619   9.730   6.657  0.6428 -0.6800  0.9093
  754SOL     OW 4640   7.092   9.662   0.988 -0.3236 -0.7895 -0.0411
  754SOL    HW1 4641   7.152   9.603   1.034 -2.0083 -2.4043  0.2093
  754SOL    HW2 4642   7.005   9.635   1.018 -1.2300  0.9703 -0.9615
  755SOL     OW 4643   9.684   7.600   9.308 -0.0516 -0.1046 -0.2794
  755SOL    HW1 4644   9.684   7.664   9.238 -0.9175  0.3177  0.0848
  755SOL    HW2 4645   9.661   7.650   9.387  0.1311 -0.7008  0.1617
  756SOL     OW 4646   4.207   2.129  10.202 -0.5555  0.3808  0.1614
  756SOL    HW1 4647   4.113   2.137  10.185 -0.4037  1.0981 -0.4054
  756SOL    HW2 4648   4.247   2.198  10.148  0.3165 -0.0743  0.2066
  757SOL     OW 4649  10.699   2.650  10.172 -0.1514  0.0003 -0.6397
  757SOL    HW1 4650  10.613   2.649  10.130 -0.6972 -0.6237  0.4526
  757SOL    HW2 4651  10.683   2.684  10.260  0.6233 -0.6184 -0.2448
  758SOL     OW 4652   6.510   6.406   5.461 -0.2737  0.2781  0.5732
  758SOL    HW1 4653   6.593   6.396   5.414 -0.2943  1.5102  0.2420
  758SOL    HW2 4654   6.531   6.386   5.552  0.5669  1.2994  0.6174
  759SOL     OW 4655   9.470   1.337   4.095 -0.2440 -0.0176  0.6920
  759SOL    HW1 4656   9.503   1.248   4.104  0.5193  0.1129 -0.5254
  759SOL    HW2 4657   9.465   1.351   4.000 -0.4486  1.1967  0.8668
  760SOL     OW 4658   2.733   2.800   5.018 -0.3043  0.1465 -0.2187
  760SOL    HW1 4659   2.750   2.793   4.924 -0.2536  2.2806 -0.4258
  760SOL    HW2 4660   2.800   2.745   5.059  0.4115  0.0986 -1.4014
  761SOL     OW 4661   7.973   7.950   7.284 -0.2593  0.1027  0.0367
  761SOL    HW1 4662   8.040   7.940   7.217 -0.1664 -1.9700  0.3681
  761SOL    HW2 4663   7.897   7.904   7.248 -0.9592  0.9784  0.3754
  762SOL     OW 4664   0.238   9.072   7.863  0.1059 -0.0437  0.2212
  762SOL    HW1 4665   0.199   8.996   7.905  0.3315 -0.9418 -1.1477
  762SOL    HW2 4666   0.221   9.144   7.923 -0.9603 -0.9920  1.0880
  763SOL     OW 4667   0.533   7.372   8.932 -0.2528 -0.0263 -0.3297
  763SOL    HW1 4668   0.594   7.323   8.988 -1.1841  0.2196  0.9536
  763SOL    HW2 4669   0.514   7.312   8.860  0.1497 -0.7804  0.1719
  764SOL     OW 4670   3.543   7.610   3.704 -0.5258 -0.5522 -0.1447
  764SOL    HW1 4671   3.636   7.631   3.713 -0.8832  1.2875 -0.3639
  764SOL    HW2 4672   3.527   7.542   3.769  1.3957 -2.3984 -1.4595
  765SOL     OW 4673   1.464   5.456   3.792 -0.0091 -0.3064  0.3438
  765SOL    HW1 4674   1.484   5.547   3.768  0.8869 -0.8775 -1.2619
  765SOL    HW2 4675   1.369   5.454   3.801 -0.1987  0.4954 -1.0542
  766SOL     OW 4676   8.796   0.794   9.839 -0.0750 -0.7226  0.4835
  766SOL    HW1 4677   8.712   0.786   9.883 -0.2253 -3.3701 -0.0798
  766SOL    HW2 4678   8.848   0.721   9.874  1.2301 -0.3903 -0.6815
  767SOL     OW 4679  10.382   5.762   8.084 -0.0173 -0.1886 -0.3980
  767SOL    HW1 4680  10.296   5.740   8.121  0.1454 -0.5596 -0.2406
  767SOL    HW2 4681  10.369   5.756   7.990  0.5891 -3.2268 -0.3656
  768SOL     OW 4682   3.151  10.526   2.315 -0.0827  0.1993  0.4293
  768SOL    HW1 4683   3.166  10.620   2.319 -0.4914  0.3149 -0.5880
  768SOL    HW2 4684   3.238  10.488   2.309  0.1167  0.4687  1.4536
  769SOL     OW 4685   8.442   6.124   9.955 -0.2582 -0.3408 -0.6040
  769SOL    HW1 4686   8.468   6.095  10.042 -1.1936 -1.4714 -0.6684
  769SOL    HW2 4687   8.522   6.120   9.902  0.3395  0.4727  0.2135
  770SOL     OW 4688   0.245   0.458   2.047 -0.1181  0.1386 -0.3009
  770SOL    HW1 4689   0.261   0.391   2.114 -1.3589  1.2109  1.1535
  770SOL    HW2 4690   0.173   0.423   1.995  1.7413 -1.3199 -2.0541
  771SOL     OW 4691   7.203   4.006   6.957  0.5268 -0.1157  0.2700
  771SOL    HW1 4692   7.137   3.962   6.904  0.0843  0.6497  0.1737
  771SOL    HW2 4693   7.285   3.993   6.910  0.5314 -1.4787  0.6298
  772SOL     OW 4694   0.752   1.782   3.085 -0.0097  0.3088 -0.2940
  772SOL    HW1 4695   0.665   1.757   3.118  1.1417 -1.1839  1.8910
  772SOL    HW2 4696   0.787   1.702   3.046  0.5048  0.8172 -0.8975
  773SOL     OW 4697   7.447   5.534   2.300  0.2691 -0.3913 -0.2423
  773SOL    HW1 4698   7.475   5.548   2.209 -2.1502  1.3068 -0.8348
  773SOL    HW2 4699   7.521   5.565   2.352  2.0866 -2.2639 -1.5681
  774SOL     OW 4700   5.878   8.780  10.073  0.0185 -0.6517  0.4844
  774SOL    HW1 4701   5.845   8.785  10.163 -0.3954  1.0332  0.2732
  774SOL    HW2 4702   5.816   8.722  10.028 -1.7724  1.1163  0.5186
  775SOL     OW 4703   9.887   5.881   7.039 -0.1726 -0.4290 -0.7851
  775SOL    HW1 4704   9.867   5.931   6.960  1.8096  2.1445  0.2210
  775SOL    HW2 4705   9.982   5.885   7.047 -0.2590 -1.2448  1.3521
  776SOL     OW 4706  10.248   4.750   0.024  0.0337 -0.0521  0.1125
  776SOL    HW1 4707  10.333   4.768  -0.016  0.9016  1.0471  2.3119
  776SOL    HW2 4708  10.189   4.814  -0.016  0.0491 -1.1372 -1.7844
  777SOL     OW 4709   8.297   9.679   6.356  0.0673 -0.0242  0.2193
  777SOL    HW1 4710   8.312   9.620   6.431  0.1083  0.8016  0.8728
  777SOL    HW2 4711   8.376   9.733   6.353  0.4727 -0.6531 -1.0020
  778SOL     OW 4712   6.882   5.673   7.891  0.0363 -0.8054  0.5933
  778SOL    HW1 4713   6.890   5.760   7.931  0.6007 -0.6048  0.0433
  778SOL    HW2 4714   6.797   5.676   7.847 -0.7318 -1.1228  1.9724
  779SOL     OW 4715   4.162   8.588   1.975  0.0079  0.3356  0.2062
  779SOL    HW1 4716   4.127   8.645   1.907  0.1786  1.3563  0.9554
  779SOL    HW2 4717   4.104   8.601   2.050 -0.0149 -0.5673  0.3594
  780SOL     OW 4718   9.787   3.858   9.048  0.3658 -0.1529  0.1364
  780SOL    HW1 4719   9.784   3.790   8.981  0.9597  1.1818 -1.2909
  780SOL    HW2 4720   9.769   3.811   9.130 -0.3007 -1.8333 -0.9198
  781SOL     OW 4721   6.757   3.795   6.890 -0.6476 -0.3852 -0.5125
  781SOL    HW1 4722   6.830   3.792   6.828  1.3563  0.1467  1.6834
  781SOL    HW2 4723   6.698   3.862   6.854  0.9526  0.6581 -1.3126
  782SOL     OW 4724   8.290   8.571   9.191  0.6107  0.4766  0.3392
  782SOL    HW1 4725   8.258   8.640   9.132 -0.3008 -1.4677 -1.5566
  782SOL    HW2 4726   8.385   8.575   9.181  0.4627 -0.1629 -1.7729
  783SOL     OW 4727   3.268   2.538   0.255  0.2293 -0.1432  0.0266
  783SOL    HW1 4728   3.220   2.605   0.205 -0.4966  0.3150  1.2926
  783SOL    HW2 4729   3.251   2.560   0.346 -1.6580 -3.1663  0.5260
  784SOL     OW 4730   9.604   9.888   5.930  0.2431 -0.0989  0.0814
  784SOL    HW1 4731   9.664   9.846   5.991  1.9803 -0.7688 -1.9627
  784SOL    HW2 4732   9.659   9.916   5.857 -1.9421 -1.2584 -2.1733
  785SOL     OW 4733   8.278   4.447   6.764  0.0157 -0.5071  0.2420
  785SOL    HW1 4734   8.282   4.542   6.753 -0.8624 -0.3555  1.0132
  785SOL    HW2 4735   8.369   4.418   6.764  0.3971  0.5526  1.6253
  786SOL     OW 4736   9.046   4.197   4.228  0.1956 -0.0955 -0.0269
  786SOL    HW1 4737   9.074   4.136   4.160  0.0317 -0.9018  0.6235
  786SOL    HW2 4738   9.115   4.264   4.229 -0.2221  0.4081 -1.5631
  787SOL     OW 4739   0.716   5.491   3.732 -0.3350  0.3492  0.0097
  787SOL    HW1 4740   0.725   5.472   3.639 -1.5413 -0.6526  0.0854
  787SOL    HW2 4741   0.689   5.583   3.735  0.3820  0.5946 -0.5788
  788SOL     OW 4742   7.025   7.822   8.571  0.0259  0.3956 -0.4017
  788SOL    HW1 4743   7.056   7.891   8.630  1.7779 -0.7182  0.0518
  788SOL    HW2 4744   7.065   7.742   8.604 -0.5869 -0.5904 -1.9300
  789SOL     OW 4745   4.958  10.277   7.204  0.2339 -0.6696  0.1376
  789SOL    HW1 4746   4.871  10.308   7.228 -0.0448 -0.4405 -1.1119
  789SOL    HW2 4747   4.952  10.182   7.214  0.0885 -0.5942  0.8178
  790SOL     OW 4748   3.272   9.226   1.396 -0.5898  0.4801  0.1894
  790SOL    HW1 4749   3.194   9.171   1.402  0.2186 -0.6409  0.6983
  790SOL    HW2 4750   3.344   9.168   1.418  0.1901  2.0525  2.0639
  791SOL     OW 4751   2.412   7.634   3.296  0.6034 -0.3729  0.5391
  791SOL    HW1 4752   2.345   7.678   3.349 -0.4480 -0.0733 -0.9993
  791SOL    HW2 4753   2.403   7.542   3.318 -0.0295 -0.2847  0.6590
  792SOL     OW 4754   5.812   4.302   3.204  0.0710  0.8293  0.1493
  792SOL    HW1 4755   5.821   4.226   3.261 -0.5268  0.1746 -0.6051
  792SOL    HW2 4756   5.897   4.310   3.161 -0.2613 -0.2166 -0.7341
  793SOL     OW 4757   0.071  10.141  10.467 -0.1682 -0.0557 -0.6702
  793SOL    HW1 4758   0.068  10.226  10.513  0.7458  0.6596 -1.8746
  793SOL    HW2 4759  -0.021  10.117  10.457 -0.4580 -1.3094  3.3246
  794SOL     OW 4760   0.029   1.205   3.411  0.4683  0.7556  0.0267
  794SOL    HW1 4761   0.123   1.221   3.404  0.8739 -0.6531  1.4423
  794SOL    HW2 4762  -0.007   1.286   3.448  1.2966  0.9720  0.3784
  795SOL     OW 4763   8.420   9.066   6.421  0.0940  0.6500  0.1576
  795SOL    HW1 4764   8.461   9.023   6.346  0.4726 -1.1858  1.3496
  795SOL    HW2 4765   8.488   9.068   6.488 -0.7349  0.6860  1.0262
  796SOL     OW 4766   5.609   2.727   0.131  0.1048  0.2917  0.1484
  796SOL    HW1 4767   5.576   2.808   0.091  0.9797 -0.2898 -1.8682
  796SOL    HW2 4768   5.556   2.658   0.092  1.5534 -0.3725 -0.7246
  797SOL     OW 4769   0.993   0.436   0.750 -0.2062  0.2228 -0.1713
  797SOL    HW1 4770   0.933   0.404   0.683 -0.6804 -0.4380  0.5377
  797SOL    HW2 4771   0.965   0.526   0.767  0.6347  0.7798 -1.6385
  798SOL     OW 4772  10.453   7.612  10.111 -0.4830 -0.4553 -0.2676
  798SOL    HW1 4773  10.419   7.696  10.081  0.5711 -0.0102 -0.2731
  798SOL    HW2 4774  10.419   7.548  10.048 -0.9921  0.0165 -0.4751
  799SOL     OW 4775   0.505   0.939   4.176  0.1645 -0.6109  0.6391
  799SOL    HW1 4776   0.542   0.937   4.264 -2.3851  0.5286  1.8313
  799SOL    HW2 4777   0.506   1.031   4.151  0.9016 -0.9280 -0.5666
  800SOL     OW 4778   2.609   6.735   2.994  0.4866 -0.1621 -0.2661
  800SOL    HW1 4779   2.536   6.677   3.016  1.2943 -0.1928  2.9283
  800SOL    HW2 4780   2.586   6.773   2.910 -2.1691 -1.7672 -0.3724
  801SOL     OW 4781   5.522   0.753   2.454  0.0954 -0.1183  0.1638
  801SOL    HW1 4782   5.465   0.826   2.429 -2.3076 -1.2638  1.8733
  801SOL    HW2 4783   5.593   0.793   2.503 -0.4944  1.1976 -0.0211
  802SOL     OW 4784   6.076   2.700   3.465 -0.2814 -0.1913 -0.0711
  802SOL    HW1 4785   6.132   2.638   3.512  0.1590 -0.0729 -0.4319
  802SOL    HW2 4786   6.004   2.718   3.526 -0.2255 -0.7763  0.1748
  803SOL     OW 4787   1.613  10.304   6.796  0.3664 -0.4583  0.1216
  803SOL    HW1 4788   1.644  10.383   6.753  0.3142 -0.8127 -0.5807
  803SOL    HW2 4789   1.550  10.335   6.861 -0.1040  0.0333 -0.5556
  804SOL     OW 4790   3.185   9.321   7.939  0.6382 -0.0944  0.2546
  804SOL    HW1 4791   3.269   9.284   7.912  0.9987  0.7871  0.1486
  804SOL    HW2 4792   3.196   9.416   7.931  0.4418  0.1764  2.6253
  805SOL     OW 4793   2.204   0.728   8.262  0.0862  0.4720  0.4184
  805SOL    HW1 4794   2.130   0.733   8.323 -0.8869  2.0259 -0.8099
  805SOL    HW2 4795   2.172   0.672   8.191  1.0688 -0.9838  1.0659
  806SOL     OW 4796   5.635   7.572   6.455  0.1698 -0.3174  0.3727
  806SOL    HW1 4797   5.692   7.627   6.509  1.1828  0.4852 -1.4178
  806SOL    HW2 4798   5.689   7.547   6.381 -1.8471  0.7669 -1.6057
  807SOL     OW 4799   8.958   0.562   8.169  0.0374  0.3357  0.0587
  807SOL    HW1 4800   8.868   0.556   8.138 -0.2657  1.3057  0.7249
  807SOL    HW2 4801   9.001   0.484   8.133 -1.6456 -1.4438  1.7503
  808SOL     OW 4802   8.792   2.623   1.014  0.2863  0.3952  0.3703
  808SOL    HW1 4803   8.805   2.695   0.952 -0.6420 -0.0292 -0.3497
  808SOL    HW2 4804   8.832   2.548   0.972 -0.7727 -0.0033  0.0426
  809SOL     OW 4805   4.263   0.633   8.280  0.7874 -0.2700 -0.0207
  809SOL    HW1 4806   4.325   0.660   8.348  0.5854  0.7656 -0.2326
  809SOL    HW2 4807   4.178   0.662   8.312  0.6412 -0.1288 -0.5221
  810SOL     OW 4808   2.148   4.870  10.510  0.4664  0.1505  0.0314
  810SOL    HW1 4809   2.061   4.853  10.472  1.6718 -0.7616 -2.5390
  810SOL    HW2 4810   2.150   4.965  10.521 -1.0881  0.1258  0.7662
  811SOL     OW 4811  10.215   9.409   3.846  0.2651  0.5645  0.0517
  811SOL    HW1 4812  10.241   9.385   3.757 -0.6688  0.7468 -0.2778
  811SOL    HW2 4813  10.278   9.477   3.871  1.5236 -0.6100  0.1550
  812SOL     OW 4814   4.724   5.407   7.153 -0.5418 -0.0336  0.2974
  812SOL    HW1 4815   4.675   5.326   7.143  0.7894 -0.5947 -2.7488
  812SOL    HW2 4816   4.669   5.474   7.114 -1.1553  0.3864  1.8100
  813SOL     OW 4817   5.704   6.840   3.814  0.7141  0.2960 -0.0886
  813SOL    HW1 4818   5.740   6.929   3.814  0.9044  0.2250 -0.5377
  813SOL    HW2 4819   5.663   6.831   3.900 -0.3399  1.2348 -0.4584
  814SOL     OW 4820   5.860   2.522   4.755 -0.0258  0.0715  0.1401
  814SOL    HW1 4821   5.856   2.463   4.680  0.6184  1.6494 -1.1875
  814SOL    HW2 4822   5.769   2.527   4.785 -0.1941 -1.0552 -0.1258
  815SOL     OW 4823   4.289   7.680   9.968 -0.1939  0.1933  0.1127
  815SOL    HW1 4824   4.368   7.671  10.021  0.7002  0.9411 -1.0231
  815SOL    HW2 4825   4.315   7.649   9.881 -2.3871 -3.6727  0.5977
  816SOL     OW 4826   1.221   5.578   7.172 -0.0962 -0.6762  0.2719
  816SOL    HW1 4827   1.238   5.560   7.265 -1.1504 -2.1336  0.2213
  816SOL    HW2 4828   1.143   5.526   7.152  0.5606 -0.9923 -1.6320
  817SOL     OW 4829   5.312   4.215   4.337  0.4063  0.0315  0.0725
  817SOL    HW1 4830   5.240   4.170   4.292  0.0197 -0.8341  1.5081
  817SOL    HW2 4831   5.363   4.145   4.376  1.0922  0.7372  0.4610
  818SOL     OW 4832   6.782   5.113   0.475 -0.5485 -0.6126 -0.2220
  818SOL    HW1 4833   6.740   5.058   0.541 -2.9993  1.3050 -0.0429
  818SOL    HW2 4834   6.785   5.059   0.397  0.2613 -2.1316  0.8277
  819SOL     OW 4835  10.705   0.283   1.211  0.2710 -0.1653  0.0171
  819SOL    HW1 4836  10.703   0.347   1.282  0.1106 -0.6587  0.4589
  819SOL    HW2 4837  10.794   0.290   1.176 -0.2560  1.5792 -1.1375
  820SOL     OW 4838   1.137   5.989   2.132 -0.2156  0.0570  0.5961
  820SOL    HW1 4839   1.205   6.028   2.187  0.4884  0.3505 -0.4697
  820SOL    HW2 4840   1.158   6.016   2.043 -1.0943 -0.7705  0.1091
  821SOL     OW 4841  10.743   7.649   1.621 -0.2036  0.3346 -0.0438
  821SOL    HW1 4842  10.710   7.561   1.600  0.9176  0.0498 -0.6814
  821SOL    HW2 4843  10.830   7.652   1.582 -0.3232  1.8305 -0.2449
  822SOL     OW 4844   4.993   9.252   1.050  0.7521 -0.3251 -0.1014
  822SOL    HW1 4845   4.900   9.274   1.051  0.9527  1.3122  4.0989
  822SOL    HW2 4846   5.034   9.326   1.006  0.2165 -0.2934 -0.5642
  823SOL     OW 4847   0.522   9.001   6.464  0.0230  0.2899 -0.2998
  823SOL    HW1 4848   0.498   9.021   6.373  1.2471  1.1220 -0.4497
  823SOL    HW2 4849   0.617   9.002   6.465  0.0251  0.1454  0.9793
  824SOL     OW 4850   4.405   8.874   9.568  0.5274  0.5926 -0.5056
  824SOL    HW1 4851   4.380   8.957   9.529  0.4671  0.5707 -0.5146
  824SOL    HW2 4852   4.500   8.876   9.570  0.5151  1.0949  0.4097
  825SOL     OW 4853   2.426   4.554   8.882  0.0306 -0.8443  0.0022
  825SOL    HW1 4854   2.479   4.494   8.933  1.3693 -0.0027 -0.3628
  825SOL    HW2 4855   2.489   4.604   8.830 -1.0049  1.1604  0.5922
  826SOL     OW 4856   4.665   6.201  10.760 -0.0179  0.0755  0.4684
  826SOL    HW1 4857   4.754   6.221  10.790 -0.3335  1.7373  0.3857
  826SOL    HW2 4858   4.651   6.259  10.686 -1.0357 -0.4662  0.2126
  827SOL     OW 4859   8.097   6.284   4.103  0.0969  0.5223  0.1066
  827SOL    HW1 4860   8.155   6.258   4.031  0.7481  0.6560  0.5732
  827SOL    HW2 4861   8.074   6.202   4.146  0.2814  0.5108  0.1810
  828SOL     OW 4862   3.186   0.518   2.783 -0.4378  0.2642  0.2444
  828SOL    HW1 4863   3.197   0.424   2.774 -0.7022  0.4044 -2.2318
  828SOL    HW2 4864   3.275   0.552   2.794 -0.3773 -0.2590  1.6433
  829SOL     OW 4865   9.171   9.424   5.654  0.1499  0.0471  0.2544
  829SOL    HW1 4866   9.118   9.465   5.722  0.8668  0.4842  0.5637
  829SOL    HW2 4867   9.260   9.453   5.673  0.2319  1.1518 -1.5383
  830SOL     OW 4868   7.426   4.202   4.029  0.4732 -0.3555 -0.0697
  830SOL    HW1 4869   7.419   4.236   4.118  2.5459 -0.7510  0.2922
  830SOL    HW2 4870   7.385   4.115   4.032  2.5685 -1.3731  1.1468
  831SOL     OW 4871   6.862   0.494   2.530 -0.2163  0.1088 -0.0779
  831SOL    HW1 4872   6.898   0.424   2.586  2.5309  1.5254  0.0843
  831SOL    HW2 4873   6.901   0.478   2.444  1.5120  2.1183  0.2719
  832SOL     OW 4874   5.117   7.387   3.864  0.2647 -0.4723 -0.0140
  832SOL    HW1 4875   5.190   7.370   3.804  0.4226 -0.2535  0.1138
  832SOL    HW2 4876   5.127   7.479   3.889  0.2744 -0.5982  0.4489
  833SOL     OW 4877   6.881   6.608   1.305  0.1841 -0.1316  0.5393
  833SOL    HW1 4878   6.853   6.699   1.304  1.2998  0.3418  3.0958
  833SOL    HW2 4879   6.807   6.559   1.267 -0.0146  1.8565 -1.8687
  834SOL     OW 4880   8.252   6.486  10.485  0.4689 -0.5239 -0.1081
  834SOL    HW1 4881   8.176   6.501  10.540  0.7859 -2.3986  0.9264
  834SOL    HW2 4882   8.246   6.394  10.459  0.3350  0.2670 -3.2836
  835SOL     OW 4883   2.734   3.086  10.299  0.6372 -0.1421 -0.1075
  835SOL    HW1 4884   2.643   3.098  10.273  0.6788 -1.3914 -0.9075
  835SOL    HW2 4885   2.778   3.166  10.272  0.0867 -0.2026 -1.2343
  836SOL     OW 4886   8.509   8.927   9.947 -0.2106  0.3972 -0.3700
  836SOL    HW1 4887   8.511   8.834   9.966  0.1727 -0.0416 -2.2924
  836SOL    HW2 4888   8.522   8.970  10.031 -2.4020 -1.2204  0.8833
  837SOL     OW 4889  10.656   3.462   9.261 -0.0374  0.1046 -0.5488
  837SOL    HW1 4890  10.710   3.494   9.189 -0.6929  1.7617 -0.3341
  837SOL    HW2 4891  10.586   3.412   9.217  0.0899  0.3148 -1.0030
  838SOL     OW 4892   1.837   4.015   4.171  0.3781  0.3067 -0.7975
  838SOL    HW1 4893   1.886   4.018   4.253 -0.9189 -1.9057  0.1654
  838SOL    HW2 4894   1.903   4.004   4.103  1.3681 -0.3874  0.2417
  839SOL     OW 4895   6.798   4.109  10.355  0.0652  0.1127  0.1491
  839SOL    HW1 4896   6.837   4.171  10.416  0.7848  0.8055 -0.9845
  839SOL    HW2 4897   6.847   4.028  10.368  0.2343  0.2623  0.4629
  840SOL     OW 4898   6.154   1.465   5.710 -0.0769  0.1145  0.7185
  840SOL    HW1 4899   6.117   1.546   5.746 -0.9887 -0.4258  1.0260
  840SOL    HW2 4900   6.249   1.481   5.708 -0.1494  0.7971  1.7618
  841SOL     OW 4901   0.832  10.754   5.177 -0.2070  0.3399  0.0011
  841SOL    HW1 4902   0.822  10.841   5.138 -1.3151 -0.0925 -0.7320
  841SOL    HW2 4903   0.915  10.722   5.143 -0.8865  0.1916 -1.6307
  842SOL     OW 4904   7.590   5.004   1.786 -0.0864  0.6922  0.5587
  842SOL    HW1 4905   7.500   4.975   1.769  1.0679 -1.6465 -2.4263
  842SOL    HW2 4906   7.629   4.934   1.837  0.2564  1.4516  1.3742
  843SOL     OW 4907   4.266   7.942   9.591  0.0018  0.4788 -0.8390
  843SOL    HW1 4908   4.172   7.949   9.578  0.1491  1.5841 -1.4083
  843SOL    HW2 4909   4.298   8.032   9.593  1.1841  0.1151 -1.7544
  844SOL     OW 4910   6.880   9.910   6.522 -0.0125 -0.0956  0.2264
  844SOL    HW1 4911   6.937   9.920   6.446  0.6102 -0.1340  0.6869
  844SOL    HW2 4912   6.825   9.988   6.520 -0.7540 -0.6224 -0.8843
  845SOL     OW 4913   9.069   8.233   2.627 -0.2064 -0.5512 -0.4276
  845SOL    HW1 4914   9.016   8.225   2.548 -0.6476  0.0467 -0.1936
  845SOL    HW2 4915   9.021   8.293   2.683  1.0965  0.6265 -0.5140
  846SOL     OW 4916   8.316   6.463   7.352  0.3856  0.2215 -0.8700
  846SOL    HW1 4917   8.293   6.510   7.272 -1.5731  2.1001  0.6894
  846SOL    HW2 4918   8.377   6.521   7.397  2.2426 -1.2551 -1.3398
  847SOL     OW 4919   2.588   2.377  10.616  0.4004  0.2220  0.5983
  847SOL    HW1 4920   2.571   2.463  10.578  1.4639 -0.4657 -1.6204
  847SOL    HW2 4921   2.652   2.393  10.685  1.3860  1.1324 -0.4782
  848SOL     OW 4922  10.038   0.819   7.162 -0.3814  0.3217  0.3639
  848SOL    HW1 4923  10.032   0.837   7.256  2.2549  0.1275  0.6488
  848SOL    HW2 4924  10.086   0.893   7.126 -1.6434  0.5493 -0.9197
  849SOL     OW 4925   4.045   8.801   2.922 -0.3323 -0.4220  0.2309
  849SOL    HW1 4926   3.994   8.881   2.914 -1.2112 -1.0652 -0.8440
  849SOL    HW2 4927   4.136   8.831   2.921 -0.6477  0.5865  0.1718
  850SOL     OW 4928   5.013   0.935   6.821  0.3585 -0.7633 -0.3301
  850SOL    HW1 4929   5.038   1.007   6.879  0.8354 -0.9073 -0.3500
  850SOL    HW2 4930   4.917   0.933   6.825  0.2966  0.3858 -0.9543
  851SOL     OW 4931   2.512   1.656   2.291 -0.4368  0.6899  0.0868
  851SOL    HW1 4932   2.435   1.607   2.317  1.4270 -2.3560  0.4018
  851SOL    HW2 4933   2.503   1.667   2.196  0.1925 -2.7256 -0.5010
  852SOL     OW 4934   8.422   4.186   9.456  0.4121 -0.5870 -0.2763
  852SOL    HW1 4935   8.490   4.118   9.465  1.0617 -0.0498 -0.9434
  852SOL    HW2 4936   8.404   4.214   9.545  0.9744 -0.8318 -0.0796
  853SOL     OW 4937  10.658   8.348   8.652 -0.0926  0.2346 -0.6821
  853SOL    HW1 4938  10.743   8.315   8.621 -1.6000 -2.4531 -2.2942
  853SOL    HW2 4939  10.659   8.332   8.746  0.5371 -1.5059 -0.9470
  854SOL     OW 4940  10.152   7.768   5.438 -0.2507 -0.1646 -0.5535
  854SOL    HW1 4941  10.174   7.693   5.382  1.1638 -0.1197 -0.0973
  854SOL    HW2 4942  10.223   7.771   5.503 -1.0572  0.7029  0.3102
  855SOL     OW 4943   6.224   3.207   7.186  0.1100  0.0068  0.4214
  855SOL    HW1 4944   6.309   3.166   7.167  0.3266  0.3628  0.6173
  855SOL    HW2 4945   6.241   3.301   7.179  0.3394  0.2108  2.8677
  856SOL     OW 4946   2.164   5.871   5.806 -0.1774  0.1709  0.4244
  856SOL    HW1 4947   2.239   5.869   5.865 -0.2132 -0.2077  0.4645
  856SOL    HW2 4948   2.173   5.952   5.757  0.6619 -0.2274 -0.0905
  857SOL     OW 4949   2.727   6.368   1.219 -0.0293 -0.6076  0.4090
  857SOL    HW1 4950   2.645   6.352   1.172  0.6748 -0.2046 -1.0041
  857SOL    HW2 4951   2.705   6.438   1.281 -0.2743  0.9922 -1.4102
  858SOL     OW 4952  10.559   1.461   4.726  0.5958 -0.3885  0.2748
  858SOL    HW1 4953  10.508   1.515   4.666  0.9473  0.4342  0.6908
  858SOL    HW2 4954  10.530   1.372   4.709  0.6656 -0.1698 -1.0809
  859SOL     OW 4955   1.593   9.919   7.520 -0.5578  0.4156  0.1218
  859SOL    HW1 4956   1.513   9.935   7.570 -0.8574  0.2823 -0.3130
  859SOL    HW2 4957   1.605   9.824   7.522 -0.5466  0.4143 -0.0270
  860SOL     OW 4958   8.181   7.008  10.565 -0.0250  0.2095 -0.5250
  860SOL    HW1 4959   8.194   6.998  10.471 -3.0075  0.0944 -1.0278
  860SOL    HW2 4960   8.133   7.090  10.575  0.8944  0.6115  1.0152
  861SOL     OW 4961   1.969   3.827   1.029 -0.0373  0.1790 -0.2032
  861SOL    HW1 4962   2.026   3.904   1.022  1.6282 -0.8294  1.3190
  861SOL    HW2 4963   2.030   3.755   1.046 -1.6966 -1.1917  0.1286
  862SOL     OW 4964   4.524  10.296   6.996  0.0630 -0.0191  0.1538
  862SOL    HW1 4965   4.493  10.347   6.921  0.2061  1.6697  1.1882
  862SOL    HW2 4966   4.558  10.215   6.958 -0.1804  0.6489 -1.5611
  863SOL     OW 4967   2.832   1.729   2.155  0.0652 -0.5226 -0.5082
  863SOL    HW1 4968   2.750   1.721   2.106 -0.2453  0.4035 -0.1571
  863SOL    HW2 4969   2.864   1.817   2.134  1.3447 -1.1219 -1.2054
  864SOL     OW 4970   5.948   3.540   0.149 -0.2128 -0.5023  0.4869
  864SOL    HW1 4971   5.999   3.486   0.089  1.2040  0.2766  0.9358
  864SOL    HW2 4972   5.916   3.612   0.094  0.1855 -0.3543  0.4458
  865SOL     OW 4973   6.793   2.167   8.267  0.1280 -0.4613 -0.3570
  865SOL    HW1 4974   6.718   2.222   8.291  0.2382 -0.4578 -0.0153
  865SOL    HW2 4975   6.860   2.229   8.239  0.3587 -0.4016  0.3216
  866SOL     OW 4976   3.172   2.862   9.108  0.2074  0.8812 -0.0898
  866SOL    HW1 4977   3.185   2.776   9.148 -1.2855 -0.0291 -1.3925
  866SOL    HW2 4978   3.101   2.848   9.045 -1.3007  3.4601  0.8653
  867SOL     OW 4979   9.739   6.340   1.914 -0.0666  0.1279  0.2503
  867SOL    HW1 4980   9.692   6.257   1.907 -0.1793  0.2788 -1.0634
  867SOL    HW2 4981   9.815   6.321   1.968 -1.0120 -0.4018  1.4277
  868SOL     OW 4982   5.105   7.028   8.220  0.5088 -0.0740  0.3642
  868SOL    HW1 4983   5.015   7.000   8.234  0.7684  0.1892  2.9382
  868SOL    HW2 4984   5.157   6.948   8.228  0.6543  0.0464  0.6196
  869SOL     OW 4985   3.649   8.505   8.335  0.0273  0.1165  0.4079
  869SOL    HW1 4986   3.557   8.526   8.318  0.0075 -0.5293 -0.2982
  869SOL    HW2 4987   3.656   8.412   8.318  0.5719 -0.0669  1.5725
  870SOL     OW 4988   9.169   0.584   4.552  0.2312  0.1351 -0.3363
  870SOL    HW1 4989   9.239   0.556   4.610 -0.2371 -0.4363 -0.0340
  870SOL    HW2 4990   9.184   0.677   4.538  1.0453  0.0151 -0.2731
  871SOL     OW 4991   0.100   4.439   1.820 -0.0141  0.6186  0.2173
  871SOL    HW1 4992   0.154   4.478   1.751  1.2255 -1.1622  0.0962
  871SOL    HW2 4993   0.027   4.399   1.774 -1.0134  2.2322  0.2982
  872SOL     OW 4994   2.316   1.113  10.278  0.1466 -0.3682  0.1502
  872SOL    HW1 4995   2.309   1.023  10.312 -0.8133  0.1772  1.5001
  872SOL    HW2 4996   2.234   1.126  10.230  0.0822 -0.0793  0.3353
  873SOL     OW 4997   3.386   2.271   2.105 -0.6587 -0.5957 -0.2952
  873SOL    HW1 4998   3.453   2.203   2.109 -1.7899 -1.7443 -0.0387
  873SOL    HW2 4999   3.354   2.269   2.015  0.5442  0.8909 -0.7958
  874SOL     OW 5000   7.578   7.721   9.654  0.3585 -0.1800 -0.0891
  874SOL    HW1 5001   7.619   7.635   9.655  1.5093  0.3525  0.4974
  874SOL    HW2 5002   7.581   7.750   9.745 -0.1580  0.4125 -0.2553
  875SOL     OW 5003   1.137   9.753   6.302  0.1437  0.1923 -0.1953
  875SOL    HW1 5004   1.215   9.778   6.253  1.0498  0.6010  1.4081
  875SOL    HW2 5005   1.113   9.667   6.266  0.4168  0.7215 -1.7238
  876SOL     OW 5006   2.188   9.409   9.678 -0.3277  0.1787  0.4387
  876SOL    HW1 5007   2.197   9.437   9.769  0.1732  0.8349  0.1898
  876SOL    HW2 5008   2.119   9.465   9.643  0.1589  0.5930  0.1440
  877SOL     OW 5009   9.256   5.942   9.156 -0.3570  0.0675  0.0288
  877SOL    HW1 5010   9.319   5.996   9.204  1.3180  0.2444 -2.1751
  877SOL    HW2 5011   9.237   5.869   9.215  2.3586 -0.2724  0.6278
  878SOL     OW 5012  10.728   3.955   1.804 -0.2674 -0.0320 -0.0532
  878SOL    HW1 5013  10.644   3.912   1.820  0.7757 -2.7930 -1.4294
  878SOL    HW2 5014  10.723   3.985   1.713 -0.3567  1.4113  0.3946
  879SOL     OW 5015   9.375   5.441   4.907 -0.1235 -0.0885  0.3069
  879SOL    HW1 5016   9.291   5.408   4.874  0.5477 -1.5841  0.0527
  879SOL    HW2 5017   9.387   5.396   4.991 -0.9435  2.3208  1.8239
  880SOL     OW 5018   1.543   3.376   2.314 -0.5746 -0.4218 -0.2619
  880SOL    HW1 5019   1.628   3.335   2.299 -0.5255 -0.4759  0.1325
  880SOL    HW2 5020   1.493   3.311   2.364 -1.2612 -0.8499 -1.4628
  881SOL     OW 5021   4.756   7.380   7.019  0.1870  0.2368 -0.1754
  881SOL    HW1 5022   4.789   7.399   7.107  0.7973  1.7813 -0.6999
  881SOL    HW2 5023   4.676   7.432   7.012 -1.0106 -1.5022  0.1786
  882SOL     OW 5024   9.409   4.618   1.860  0.0348 -0.0636 -0.2185
  882SOL    HW1 5025   9.490   4.587   1.902 -0.4117 -0.0157  0.6887
  882SOL    HW2 5026   9.385   4.547   1.800 -0.6776 -1.2974  1.4308
  883SOL     OW 5027   5.774   8.454   8.266  0.2520 -0.0162 -0.0317
  883SOL    HW1 5028   5.812   8.406   8.340  0.4804 -1.6074 -1.1239
  883SOL    HW2 5029   5.807   8.408   8.189 -0.1124  1.5063 -1.1331
  884SOL     OW 5030   2.452   0.564   1.435  0.0869  0.1572  0.1017
  884SOL    HW1 5031   2.471   0.508   1.360  1.9509 -0.6373  1.1035
  884SOL    HW2 5032   2.429   0.649   1.397  2.6184  0.2671 -1.3648
  885SOL     OW 5033   7.079   9.613   2.300  0.1124 -0.1934 -0.0443
  885SOL    HW1 5034   7.094   9.614   2.394  0.1410 -1.2283 -0.0205
  885SOL    HW2 5035   7.153   9.661   2.263  1.1662 -1.4544  0.3523
  886SOL     OW 5036   2.213  10.482   2.080 -0.6430 -0.0705 -0.1206
  886SOL    HW1 5037   2.284  10.541   2.056  0.4587 -0.9980  0.7354
  886SOL    HW2 5038   2.253  10.418   2.139 -1.6107 -2.1010 -1.5500
  887SOL     OW 5039   8.432   2.852   4.991  0.0972 -0.1653  0.0899
  887SOL    HW1 5040   8.431   2.945   5.014  2.4663 -0.1983  0.5529
  887SOL    HW2 5041   8.497   2.845   4.921  0.6659 -1.5809  0.7144
  888SOL     OW 5042   0.808   2.141   0.801  0.2270 -0.4794  0.2469
  888SOL    HW1 5043   0.789   2.235   0.797 -0.8498 -0.7034 -0.4806
  888SOL    HW2 5044   0.789   2.109   0.713  1.1742 -1.2867  0.3208
  889SOL     OW 5045   7.850   9.067   3.154 -0.1014 -0.2423  0.4285
  889SOL    HW1 5046   7.806   9.128   3.095 -0.3151 -0.2543  0.5717
  889SOL    HW2 5047   7.808   9.081   3.239  0.3424 -0.0789  0.6274
  890SOL     OW 5048   7.114   8.523   5.668 -0.6653  0.4815 -0.3712
  890SOL    HW1 5049   7.067   8.572   5.601 -1.4964  1.5243  0.9450
  890SOL    HW2 5050   7.202   8.562   5.669 -1.0254  1.3064 -0.0126
  891SOL     OW 5051   4.530   7.791   7.923  0.5415  0.3449  0.1601
  891SOL    HW1 5052   4.561   7.814   8.011  0.0836  0.4992  0.2804
  891SOL    HW2 5053   4.610   7.764   7.877  0.7022 -0.3009  0.7965
  892SOL     OW 5054   0.115   2.726   3.033  0.0282 -0.5432  0.3638
  892SOL    HW1 5055   0.051   2.780   3.079  0.1684  1.1356 -1.2907
  892SOL    HW2 5056   0.089   2.731   2.941  2.1640 -0.3048 -0.2786
  893SOL     OW 5057   3.650   8.473   3.929 -0.1429  0.2247 -0.6261
  893SOL    HW1 5058   3.648   8.428   4.013  1.1689  2.5569  0.7433
  893SOL    HW2 5059   3.741   8.504   3.921 -0.5080  0.9226 -2.4234
  894SOL     OW 5060  10.685   0.821   8.947  0.5536 -0.0057 -0.4328
  894SOL    HW1 5061  10.659   0.860   9.030  1.4992  0.4193 -0.3224
  894SOL    HW2 5062  10.631   0.865   8.881  0.4331  0.2921 -0.1360
  895SOL     OW 5063   4.543   7.885   3.556  0.5887  0.0395  0.0918
  895SOL    HW1 5064   4.502   7.920   3.635 -1.2287  1.3839 -1.3667
  895SOL    HW2 5065   4.622   7.938   3.545  0.7159  0.0172  0.8384
  896SOL     OW 5066  10.699   2.245   7.481 -0.1863 -0.0161 -0.3063
  896SOL    HW1 5067  10.671   2.336   7.471  0.3924  0.0803 -1.2145
  896SOL    HW2 5068  10.691   2.226   7.574 -1.9540  0.4253 -0.3360
  897SOL     OW 5069   3.771   2.101   2.732 -0.0668 -0.1666 -0.1175
  897SOL    HW1 5070   3.764   2.187   2.691  0.5593 -0.7282 -1.4278
  897SOL    HW2 5071   3.839   2.111   2.798 -1.2695  0.8130  1.0411
  898SOL     OW 5072   8.358   2.951  10.294  0.1758  0.1554 -0.5155
  898SOL    HW1 5073   8.453   2.944  10.295  0.3914  2.1476  1.6820
  898SOL    HW2 5074   8.331   2.919  10.380 -1.1937 -0.6485 -1.2086
  899SOL     OW 5075   4.933   1.002   8.932 -0.5239 -0.1796  0.2676
  899SOL    HW1 5076   5.008   1.056   8.907 -0.8143  1.6717  2.9382
  899SOL    HW2 5077   4.970   0.916   8.953  1.0004  0.8095  1.9189
  900SOL     OW 5078   2.933   0.117   8.775  0.5022 -0.2617  0.9999
  900SOL    HW1 5079   2.981   0.200   8.776  1.2916 -0.6952  0.2156
  900SOL    HW2 5080   2.999   0.051   8.753 -0.6918 -0.6715 -1.7726
  901SOL     OW 5081   7.431   8.596   3.967 -0.5504 -0.1957 -0.2855
  901SOL    HW1 5082   7.369   8.615   3.896 -1.4104  0.9425  0.7198
  901SOL    HW2 5083   7.380   8.543   4.029 -0.5142  0.6966  0.5188
  902SOL     OW 5084   0.242   7.912   7.298  0.3133  0.0426 -0.4012
  902SOL    HW1 5085   0.252   7.853   7.224 -2.3459 -0.5852 -0.3843
  902SOL    HW2 5086   0.174   7.871   7.352 -2.1309  3.2725 -0.6752
  903SOL     OW 5087   2.370   1.521   6.224  0.6268 -0.1293  0.1851
  903SOL    HW1 5088   2.356   1.593   6.163  0.1861  0.7578  1.2952
  903SOL    HW2 5089   2.395   1.447   6.169  2.1480  1.1318 -0.9143
  904SOL     OW 5090   7.321   1.636   6.735  0.3033  0.3358  0.5218
  904SOL    HW1 5091   7.304   1.665   6.646 -0.4388  1.1821  0.9230
  904SOL    HW2 5092   7.373   1.556   6.725  0.8354  0.8078 -0.6454
  905SOL     OW 5093  10.436   8.283   7.719  0.2785  0.0860 -0.5152
  905SOL    HW1 5094  10.465   8.194   7.738  0.2779  0.2481  0.3082
  905SOL    HW2 5095  10.369   8.273   7.651 -0.1064 -0.5961 -0.0541
  906SOL     OW 5096   2.436   7.349   7.114 -0.2717  0.3209 -0.0563
  906SOL    HW1 5097   2.422   7.334   7.207  0.8828 -2.6857 -0.2470
  906SOL    HW2 5098   2.526   7.321   7.099 -0.1180  1.6229 -1.9657
  907SOL     OW 5099   4.548   4.125   4.930  0.1716  0.0331  0.2962
  907SOL    HW1 5100   4.458   4.120   4.898  0.3724 -2.8194 -0.1004
  907SOL    HW2 5101   4.543   4.098   5.021  0.7723 -1.8395 -0.1887
  908SOL     OW 5102   8.111   8.518   1.169 -0.3121 -0.9644  0.0393
  908SOL    HW1 5103   8.107   8.459   1.244  0.0925 -0.2080  0.6644
  908SOL    HW2 5104   8.038   8.578   1.181 -0.5936 -1.2006 -0.4820
  909SOL     OW 5105   9.783   0.785   7.971 -0.1914 -0.5999 -0.3764
  909SOL    HW1 5106   9.758   0.749   7.885 -1.1826  0.2954 -0.4854
  909SOL    HW2 5107   9.705   0.771   8.025  0.7671 -2.0658  0.6989
  910SOL     OW 5108   7.681   5.050   8.340 -0.2785  0.4515  0.0084
  910SOL    HW1 5109   7.646   5.092   8.419 -2.0529  0.7261 -0.8772
  910SOL    HW2 5110   7.648   4.960   8.345  2.2539 -0.5028  1.1354
  911SOL     OW 5111   3.504   6.467   2.045  0.4918  0.7812 -0.4559
  911SOL    HW1 5112   3.492   6.562   2.042  1.8534  1.0057  0.6557
  911SOL    HW2 5113   3.586   6.453   2.092  0.1037 -0.9727 -0.2015
  912SOL     OW 5114   0.820   6.669   5.184  0.2796 -0.4116 -0.6996
  912SOL    HW1 5115   0.753   6.673   5.252  0.6209 -1.0648 -0.3163
  912SOL    HW2 5116   0.784   6.720   5.112  0.3283  1.1566  0.3241
  913SOL     OW 5117   9.196   3.193   7.446 -0.6035  0.0465 -0.3079
  913SOL    HW1 5118   9.278   3.186   7.397 -0.3284 -3.0866  0.3674
  913SOL    HW2 5119   9.153   3.109   7.432 -2.2069  0.4055  1.9437
  914SOL     OW 5120   2.208   6.556  10.520 -0.5377 -0.1858 -0.5413
  914SOL    HW1 5121   2.278   6.585  10.579  0.7754 -0.8291 -1.7171
  914SOL    HW2 5122   2.157   6.494  10.572  0.4070 -0.5123  0.0217
  915SOL     OW 5123   1.362   4.643   0.182  0.0856 -0.1349 -0.1424
  915SOL    HW1 5124   1.296   4.597   0.130  1.4789 -0.7243 -1.4787
  915SOL    HW2 5125   1.330   4.639   0.272 -2.0627  0.2945 -0.8364
  916SOL     OW 5126   4.816   4.296   5.826 -0.3301 -0.9777  0.4086
  916SOL    HW1 5127   4.909   4.311   5.812 -0.5891  0.3437 -0.0865
  916SOL    HW2 5128   4.801   4.318   5.918 -0.0526 -1.7645  0.6442
  917SOL     OW 5129   9.783   8.902   0.096  0.4430 -0.8642  1.0449
  917SOL    HW1 5130   9.764   8.985   0.052 -0.9399 -1.2478  0.8638
  917SOL    HW2 5131   9.865   8.871   0.056  1.0965  0.5111  1.2838
  918SOL     OW 5132   1.283   5.137   5.447  0.4154 -0.0710  0.5704
  918SOL    HW1 5133   1.278   5.191   5.526 -0.0863  0.4229  0.2181
  918SOL    HW2 5134   1.308   5.199   5.378  0.1396 -0.3512  0.2155
  919SOL     OW 5135   3.452   9.615   4.394  0.4069 -0.4782  0.2077
  919SOL    HW1 5136   3.468   9.710   4.393  0.1340 -0.4315 -0.6051
  919SOL    HW2 5137   3.385   9.603   4.461 -0.9342  0.1582 -0.9594
  920SOL     OW 5138   6.294   1.480   0.449 -0.3243 -0.1552 -0.0492
  920SOL    HW1 5139   6.251   1.436   0.377 -0.3567 -0.7996  0.3613
  920SOL    HW2 5140   6.272   1.429   0.526 -0.9518  0.9740  0.5530
  921SOL     OW 5141   4.960   5.659   8.477  0.1162 -0.6231 -0.3693
  921SOL    HW1 5142   5.002   5.700   8.553 -0.2513 -2.2930  0.7904
  921SOL    HW2 5143   4.922   5.732   8.428  1.3548  0.6017  0.4223
  922SOL     OW 5144   6.767   1.217   9.357  0.2099 -0.4373  0.3530
  922SOL    HW1 5145   6.694   1.278   9.363  0.1633 -0.0464 -2.4761
  922SOL    HW2 5146   6.740   1.155   9.289  1.9605 -1.1038  0.2237
  923SOL     OW 5147   6.418   0.904   6.067 -0.4295  0.0167 -0.1429
  923SOL    HW1 5148   6.367   0.902   5.985 -0.4801 -2.2839 -0.1093
  923SOL    HW2 5149   6.507   0.884   6.040 -0.1714  0.6674  0.2131
  924SOL     OW 5150  10.798   1.015   1.189  0.8320 -0.1094 -0.1065
  924SOL    HW1 5151  10.847   0.956   1.246  1.6222 -0.9803 -1.6305
  924SOL    HW2 5152  10.861   1.083   1.166  0.6261  0.0308 -0.2555
  925SOL     OW 5153   5.782  10.137   8.387 -0.0228 -0.1014  0.1974
  925SOL    HW1 5154   5.866  10.178   8.363 -1.4375  2.3603 -0.9931
  925SOL    HW2 5155   5.782  10.053   8.342  1.4354  0.2416 -0.4994
  926SOL     OW 5156   5.864   1.037   1.552 -0.5941  0.1010 -0.5438
  926SOL    HW1 5157   5.790   1.052   1.494 -0.1362 -1.0180 -1.4569
  926SOL    HW2 5158   5.890   1.124   1.582 -1.8044  0.5594 -0.7949
  927SOL     OW 5159   1.434   9.537   7.047  0.3829  0.7590 -0.2802
  927SOL    HW1 5160   1.367   9.573   7.106 -0.1643 -0.5308 -0.0756
  927SOL    HW2 5161   1.384   9.490   6.980  1.0733 -0.1237 -0.1900
  928SOL     OW 5162   3.758   9.694   9.971  0.5665 -0.6187 -0.2733
  928SOL    HW1 5163   3.811   9.698  10.051 -1.7255  2.3035  1.3103
  928SOL    HW2 5164   3.676   9.654   9.999 -0.5541  1.1275 -0.9327
  929SOL     OW 5165   3.343   6.905   3.848  0.6157  0.4373 -0.3521
  929SOL    HW1 5166   3.408   6.954   3.899 -1.6023  1.9702  1.1676
  929SOL    HW2 5167   3.286   6.866   3.914  0.6012 -1.8578 -1.6270
  930SOL     OW 5168   9.112   2.341   1.501  0.1388  0.7514 -0.3585
  930SOL    HW1 5169   9.119   2.400   1.426 -0.4113  0.6179 -0.5190
  930SOL    HW2 5170   9.024   2.304   1.494 -0.1661  1.2477  0.7348
  931SOL     OW 5171   2.746   7.551   8.735 -0.5333  0.3014  0.0421
  931SOL    HW1 5172   2.737   7.487   8.806 -1.7825 -0.2468 -0.5904
  931SOL    HW2 5173   2.811   7.613   8.768 -0.9919 -0.0058  1.6197
  932SOL     OW 5174   3.771   8.349   4.259  0.1391 -0.1158  0.1685
  932SOL    HW1 5175   3.681   8.322   4.280  0.4405 -0.7905  0.6022
  932SOL    HW2 5176   3.808   8.275   4.212 -0.0436  0.8003 -1.5125
  933SOL     OW 5177   6.507  10.753   6.266  0.2957  0.1180 -0.4002
  933SOL    HW1 5178   6.550  10.720   6.187 -0.3313 -0.3972 -0.5321
  933SOL    HW2 5179   6.579  10.766   6.328  0.6541 -0.6693 -0.6344
  934SOL     OW 5180   2.224   2.417   9.571 -0.4319  0.1755 -0.0568
  934SOL    HW1 5181   2.258   2.373   9.649  1.6024  1.7990  0.0641
  934SOL    HW2 5182   2.156   2.475   9.605  0.1951  0.6089  0.4961
  935SOL     OW 5183   8.661   4.129  10.477 -0.5657  0.8798 -0.1441
  935SOL    HW1 5184   8.613   4.057  10.438 -0.9619  0.1485  1.5731
  935SOL    HW2 5185   8.707   4.171  10.404 -0.7697 -0.7500 -1.2531
  936SOL     OW 5186   7.015   0.113   1.899  0.3835  0.6122 -0.5308
  936SOL    HW1 5187   7.099   0.092   1.857  1.1571 -1.1738  1.6909
  936SOL    HW2 5188   6.950   0.063   1.848  1.1353 -0.5540 -0.3982
  937SOL     OW 5189   4.141   0.914   6.008  0.0404  0.5810  0.0269
  937SOL    HW1 5190   4.218   0.928   5.954  0.9193  0.4092  1.2042
  937SOL    HW2 5191   4.088   0.993   5.995 -1.3547 -0.7456 -3.5016
  938SOL     OW 5192   3.862   9.360   5.665  0.2601  0.1994  0.0695
  938SOL    HW1 5193   3.886   9.309   5.742  1.2335  1.1222  0.4143
  938SOL    HW2 5194   3.767   9.370   5.670  0.2564 -0.2065  0.8560
  939SOL     OW 5195   5.912   7.450   7.101  0.7045  0.1615  0.1704
  939SOL    HW1 5196   5.854   7.387   7.059  0.2793 -0.0450  1.0402
  939SOL    HW2 5197   6.000   7.420   7.079  0.5052  0.4986 -1.1958
  940SOL     OW 5198   0.942   0.014  10.444  0.6474 -0.1150 -0.7818
  940SOL    HW1 5199   0.875   0.019  10.512  0.6535 -2.0348 -0.5756
  940SOL    HW2 5200   0.910   0.070  10.374 -0.3235  0.3405  0.0061
  941SOL     OW 5201   8.025   8.385   3.871 -0.1892  0.6005 -0.4076
  941SOL    HW1 5202   8.112   8.367   3.838  0.4546  0.2084  1.3925
  941SOL    HW2 5203   7.966   8.353   3.802  1.0196 -2.2750 -0.2361
  942SOL     OW 5204   7.410   9.179   2.778 -0.1064  0.5256  0.2315
  942SOL    HW1 5205   7.331   9.224   2.748  1.8324  2.8950 -1.6383
  942SOL    HW2 5206   7.389   9.086   2.768 -2.4366  1.0743 -0.7760
  943SOL     OW 5207   7.327   5.207   1.275  0.2345  0.2853  0.4793
  943SOL    HW1 5208   7.398   5.200   1.212 -2.0573  2.0137 -2.5085
  943SOL    HW2 5209   7.282   5.288   1.254 -3.0366 -0.9974  1.7508
  944SOL     OW 5210   0.685   6.383   1.672 -0.9816 -0.3330 -0.0230
  944SOL    HW1 5211   0.616   6.323   1.644 -0.7147 -0.8678  0.4439
  944SOL    HW2 5212   0.717   6.422   1.591 -1.1088 -0.8732 -0.3393
  945SOL     OW 5213   4.700   5.982   6.909 -0.6328 -0.1518 -0.1749
  945SOL    HW1 5214   4.750   5.974   6.990 -1.6043  0.1665  0.4679
  945SOL    HW2 5215   4.755   5.939   6.843  0.0199 -0.7019  0.7016
  946SOL     OW 5216   8.397   2.997   6.971  0.5777 -0.0087  0.5242
  946SOL    HW1 5217   8.457   2.922   6.966  2.2427  1.3555 -1.9087
  946SOL    HW2 5218   8.413   3.034   7.058 -0.2999 -2.3886  1.8068
  947SOL     OW 5219   0.135   3.303   9.828  0.0285 -0.9126 -0.2342
  947SOL    HW1 5220   0.069   3.234   9.828 -0.0406 -0.8487  0.1655
  947SOL    HW2 5221   0.218   3.257   9.821 -0.0562 -0.9898 -0.8512
  948SOL     OW 5222   4.367   2.823  10.096 -0.0370 -0.0611  0.1352
  948SOL    HW1 5223   4.410   2.813  10.011 -1.1507  0.8510 -0.5619
  948SOL    HW2 5224   4.343   2.915  10.101  0.5273  0.0364  1.7147
  949SOL     OW 5225   2.856   3.583  10.394  0.1600  0.4459 -0.0796
  949SOL    HW1 5226   2.826   3.657  10.446 -3.6899 -2.9350  3.2783
  949SOL    HW2 5227   2.923   3.540  10.447 -0.6658 -0.6676  0.1109
  950SOL     OW 5228   3.999   2.260   7.577  0.0370  0.1595  0.3052
  950SOL    HW1 5229   4.031   2.345   7.607 -0.7333  0.2322  0.9597
  950SOL    HW2 5230   3.904   2.268   7.580 -0.0458 -0.8578  0.7711
  951SOL     OW 5231   6.237  10.313   3.356 -0.3731 -0.2829 -0.3718
  951SOL    HW1 5232   6.258  10.331   3.448 -1.4927 -1.2368  0.1039
  951SOL    HW2 5233   6.162  10.369   3.337 -0.2225 -0.1787 -0.6663
  952SOL     OW 5234   4.629   2.985   8.560 -0.0778 -0.7885  0.1971
  952SOL    HW1 5235   4.581   3.028   8.630  0.8820  0.4721  0.1201
  952SOL    HW2 5236   4.721   3.002   8.580  0.3127 -2.2428 -0.2286
  953SOL     OW 5237   5.239   7.639   3.810 -0.2413 -0.1517  0.3372
  953SOL    HW1 5238   5.271   7.681   3.890 -0.7586 -0.2695  0.6098
  953SOL    HW2 5239   5.143   7.649   3.814 -0.2640 -0.0113 -0.3494
  954SOL     OW 5240   6.093   0.578   6.067  0.2547  0.3609 -0.1234
  954SOL    HW1 5241   6.043   0.511   6.021  0.3309  0.1654  0.0802
  954SOL    HW2 5242   6.061   0.661   6.029 -1.8101  0.3935  1.4747
  955SOL     OW 5243   5.500   4.500   8.224 -0.2494  0.0800  0.1482
  955SOL    HW1 5244   5.582   4.547   8.213  0.2880 -0.2698  2.1883
  955SOL    HW2 5245   5.499   4.475   8.317 -1.5685 -1.9352 -0.3416
  956SOL     OW 5246   4.052   0.666   5.720  0.2703 -0.1423  0.3872
  956SOL    HW1 5247   3.966   0.632   5.695 -0.0443  1.2691 -0.5900
  956SOL    HW2 5248   4.112   0.593   5.708 -0.7999 -1.2049  1.2622
  957SOL     OW 5249   2.651  10.466   3.022 -0.4562  0.4097  0.1251
  957SOL    HW1 5250   2.685  10.479   3.111  1.9584 -1.2137 -0.4684
  957SOL    HW2 5251   2.679  10.543   2.974 -0.5320  0.6378  0.4409
  958SOL     OW 5252   5.275  10.786   2.107 -0.3200 -0.3769 -0.1476
  958SOL    HW1 5253   5.289  10.875   2.139 -1.4876 -0.0568 -0.4897
  958SOL    HW2 5254   5.191  10.761   2.144 -0.4018 -1.0181 -0.7632
  959SOL     OW 5255   2.427   0.130  10.271 -0.0106  0.1462  0.9118
  959SOL    HW1 5256   2.448   0.205  10.214 -1.5955 -1.3827 -1.8923
  959SOL    HW2 5257   2.506   0.076  10.268 -0.2614 -0.1938 -0.3981
  960SOL     OW 5258   9.565   6.019   8.525  0.4524  0.4378 -0.3828
  960SOL    HW1 5259   9.512   6.001   8.448  0.4142 -0.8720 -0.0816
  960SOL    HW2 5260   9.506   6.005   8.599  0.1901  2.6991 -0.0884
  961SOL     OW 5261   0.714   3.394   1.664 -0.0843 -0.1048 -0.0602
  961SOL    HW1 5262   0.781   3.331   1.639 -1.6752 -0.8281 -2.8277
  961SOL    HW2 5263   0.665   3.351   1.734  1.1751 -0.3003  0.7245
  962SOL     OW 5264   2.065   2.803   0.600 -0.7287 -0.0882 -0.1868
  962SOL    HW1 5265   2.022   2.750   0.667 -0.8433 -0.7262 -0.7514
  962SOL    HW2 5266   2.064   2.747   0.522 -0.8392  0.7453 -0.7893
  963SOL     OW 5267   9.748   4.805   6.942  0.3721 -1.0274  0.0824
  963SOL    HW1 5268   9.770   4.790   7.033  0.6248 -0.4677  0.1176
  963SOL    HW2 5269   9.822   4.770   6.893  0.5557 -0.7025  0.1252
  964SOL     OW 5270   6.967   7.366   5.715 -0.0965  0.7354 -0.1887
  964SOL    HW1 5271   7.003   7.359   5.803 -1.6796  1.3996  0.5340
  964SOL    HW2 5272   7.032   7.322   5.659  1.0198  0.4846  1.2600
  965SOL     OW 5273   8.646   8.403   7.015 -0.1818  0.4276 -0.1085
  965SOL    HW1 5274   8.607   8.471   7.070 -0.9448 -0.0080 -0.1023
  965SOL    HW2 5275   8.615   8.423   6.927  0.4871  0.7233 -0.2852
  966SOL     OW 5276   2.316   5.107   0.520  0.3145  0.1144  0.2598
  966SOL    HW1 5277   2.232   5.064   0.499 -0.2788  1.3845 -0.0482
  966SOL    HW2 5278   2.351   5.056   0.593 -1.3062  0.2639  1.1855
  967SOL     OW 5279   1.548   8.132  10.462 -0.2297  0.2949 -0.1447
  967SOL    HW1 5280   1.641   8.113  10.456 -0.3533 -0.0712 -1.2057
  967SOL    HW2 5281   1.514   8.111  10.375 -1.9081 -2.8698  1.1133
  968SOL     OW 5282   2.889   9.848   1.814  0.2512  0.3189  0.0244
  968SOL    HW1 5283   2.898   9.753   1.821  1.1537 -0.0158 -3.6102
  968SOL    HW2 5284   2.978   9.881   1.809 -0.0623  1.1460 -0.3571
  969SOL     OW 5285   7.367   0.737   6.608  0.3783  0.2431  0.2964
  969SOL    HW1 5286   7.306   0.810   6.612 -0.1883 -0.2571  0.9403
  969SOL    HW2 5287   7.417   0.744   6.690 -0.1491 -0.4893  0.6871
  970SOL     OW 5288   4.647   8.163   5.140 -0.3584  0.0384  0.6838
  970SOL    HW1 5289   4.690   8.231   5.191  1.0062 -1.2912  1.3788
  970SOL    HW2 5290   4.633   8.091   5.201 -0.2719 -0.9334 -0.3895
  971SOL     OW 5291   2.734   0.547   2.920 -0.4241 -0.4688  0.4677
  971SOL    HW1 5292   2.801   0.595   2.968 -1.3957  0.9437  0.4587
  971SOL    HW2 5293   2.657   0.549   2.978 -0.9005 -0.8149 -0.1351
  972SOL     OW 5294   6.822   2.753   4.415  0.1771  0.3369 -0.1868
  972SOL    HW1 5295   6.783   2.698   4.347 -0.1842 -0.7898  0.8904
  972SOL    HW2 5296   6.882   2.810   4.367 -0.1590 -0.3267 -1.4670
  973SOL     OW 5297   9.894   8.282   1.021  0.8839  0.4480  0.3889
  973SOL    HW1 5298   9.975   8.240   0.995 -0.3041 -0.2105 -2.7410
  973SOL    HW2 5299   9.921   8.367   1.057  2.9534 -0.1173  0.2930
  974SOL     OW 5300   6.726   9.863   8.682 -0.5679  0.1543 -0.0623
  974SOL    HW1 5301   6.674   9.866   8.601  0.6721  1.4840 -0.8709
  974SOL    HW2 5302   6.675   9.809   8.742 -2.2330  0.3363 -1.2488
  975SOL     OW 5303   4.279   5.200   7.633  0.0844  0.2512 -0.8178
  975SOL    HW1 5304   4.257   5.181   7.724  2.2262 -1.2052 -0.5373
  975SOL    HW2 5305   4.196   5.228   7.593 -0.5030  3.1298  2.0461
  976SOL     OW 5306   3.886   7.191   6.619 -0.1639 -0.2256  0.3957
  976SOL    HW1 5307   3.952   7.135   6.577 -0.4098 -0.4168  0.2626
  976SOL    HW2 5308   3.820   7.130   6.651 -1.2299  0.0828 -1.1261
  977SOL     OW 5309   3.571   0.994   2.596 -0.2121 -0.6830 -0.5000
  977SOL    HW1 5310   3.625   0.924   2.559  1.0701 -0.7703  1.3943
  977SOL    HW2 5311   3.618   1.021   2.675 -1.8416  0.7771  0.0275
  978SOL     OW 5312   5.215   0.941   6.574  0.2840  0.0013 -0.1945
  978SOL    HW1 5313   5.169   0.976   6.498  0.3674 -1.2392 -0.8452
  978SOL    HW2 5314   5.146   0.907   6.631  0.3119 -1.2422 -0.8564
  979SOL     OW 5315  10.703   6.403   6.165  0.0638 -0.2423 -0.1178
  979SOL    HW1 5316  10.796   6.393   6.184  0.6344  2.5062 -0.9525
  979SOL    HW2 5317  10.659   6.395   6.250  1.3465  0.7884  0.6808
  980SOL     OW 5318   9.667   0.096   2.248 -0.1972  0.0264 -0.4774
  980SOL    HW1 5319   9.583   0.125   2.214 -0.5309 -1.4984 -1.0228
  980SOL    HW2 5320   9.648   0.065   2.336  0.0323  0.7628 -0.1566
  981SOL     OW 5321  10.057   8.432   2.763  0.3516  0.3437 -0.1471
  981SOL    HW1 5322   9.989   8.457   2.700  0.3485  2.4037  0.6007
  981SOL    HW2 5323  10.104   8.361   2.720 -0.6742  0.5871 -1.7765
  982SOL     OW 5324  10.425   1.041   7.070  0.2138  0.4297  0.1108
  982SOL    HW1 5325  10.336   1.013   7.091  0.8396 -0.8441  1.1921
  982SOL    HW2 5326  10.413   1.120   7.018 -1.5647 -0.3091 -0.6802
  983SOL     OW 5327   3.503   3.484   9.469 -0.3633  0.1318  0.1806
  983SOL    HW1 5328   3.434   3.490   9.535 -0.4864 -0.2790  0.0901
  983SOL    HW2 5329   3.583   3.466   9.518 -0.5783 -0.9194  0.1614
  984SOL     OW 5330   4.626   2.528   6.820 -0.1340  0.4690 -0.2347
  984SOL    HW1 5331   4.687   2.471   6.866 -0.9419  1.7849  2.7582
  984SOL    HW2 5332   4.679   2.601   6.789  0.0658  1.0640  1.3912
  985SOL     OW 5333   2.074   4.892   4.896 -0.2804 -0.4726 -0.4529
  985SOL    HW1 5334   2.167   4.870   4.890 -0.3175 -0.8781  0.2799
  985SOL    HW2 5335   2.072   4.987   4.884  0.0995 -0.5905 -1.5792
  986SOL     OW 5336   9.509   0.894   1.970  0.2585 -0.1047 -0.1940
  986SOL    HW1 5337   9.424   0.851   1.962 -0.6311  1.5871 -0.2438
  986SOL    HW2 5338   9.572   0.822   1.980 -1.1762 -1.3791 -0.0687
  987SOL     OW 5339   4.130   5.975  10.447 -0.0981 -0.2292 -0.0648
  987SOL    HW1 5340   4.103   5.888  10.478 -1.5797 -0.2480 -1.2729
  987SOL    HW2 5341   4.066   6.035  10.484  1.8233  0.6445  2.0793
  988SOL     OW 5342   8.572   0.619   8.886 -0.3317  0.4309 -0.5619
  988SOL    HW1 5343   8.554   0.527   8.902  0.6899  0.4801  1.0653
  988SOL    HW2 5344   8.664   0.630   8.908 -0.5298  1.9132 -0.3627
  989SOL     OW 5345   5.762   1.099   0.191  0.2874  0.6957 -0.5520
  989SOL    HW1 5346   5.772   1.008   0.162 -0.0933  0.6755 -0.6314
  989SOL    HW2 5347   5.700   1.137   0.129 -1.2346  0.4073  0.7309
  990SOL     OW 5348   6.630   5.706   6.954  0.4462 -0.8735  0.3722
  990SOL    HW1 5349   6.574   5.711   7.032  1.3755 -2.7152  1.2133
  990SOL    HW2 5350   6.625   5.615   6.926  0.9994 -0.4888 -1.1071
  991SOL     OW 5351   9.807   7.962   1.064 -0.1145 -0.4151  0.3016
  991SOL    HW1 5352   9.876   8.009   1.018 -0.6413 -0.6745 -0.7961
  991SOL    HW2 5353   9.736   8.026   1.073 -0.1248 -0.4522  0.4836
  992SOL     OW 5354   5.767   1.978   4.081 -1.0344  0.8250  0.3453
  992SOL    HW1 5355   5.761   2.032   4.160 -0.4551 -0.7391  1.5004
  992SOL    HW2 5356   5.796   1.892   4.112  3.9120  1.3132 -1.9736
  993SOL     OW 5357   3.225   9.056   5.502  0.2534  0.2497  0.0495
  993SOL    HW1 5358   3.263   9.039   5.416  0.7261 -0.1171  0.3304
  993SOL    HW2 5359   3.291   9.109   5.547  0.2500 -0.0369  0.3902
  994SOL     OW 5360   4.283   7.830   7.809 -0.0597 -0.4456 -0.5521
  994SOL    HW1 5361   4.366   7.845   7.855 -0.1242 -0.5449 -0.4018
  994SOL    HW2 5362   4.262   7.915   7.769  0.1429 -0.4356 -0.6379
  995SOL     OW 5363   2.614   2.095   8.240 -0.2327 -0.3584  0.0493
  995SOL    HW1 5364   2.625   2.188   8.257 -1.6553 -0.2969  0.8187
  995SOL    HW2 5365   2.520   2.079   8.252  0.2103 -2.2112  1.6584
  996SOL     OW 5366   7.649   7.377   8.449  0.5363 -0.2418 -0.4712
  996SOL    HW1 5367   7.669   7.390   8.356  2.0363 -0.7297 -0.2314
  996SOL    HW2 5368   7.731   7.394   8.494 -0.4084  0.9876  0.8862
  997SOL     OW 5369   5.568   3.674   0.612 -0.3161 -0.2070 -0.3598
  997SOL    HW1 5370   5.641   3.717   0.567  1.3826 -2.1996  0.3390
  997SOL    HW2 5371   5.570   3.710   0.700 -1.5495  1.2541 -0.8845
  998SOL     OW 5372   5.619   3.772   4.201 -0.4185  0.5378  0.2857
  998SOL    HW1 5373   5.555   3.761   4.130 -1.4207  1.3774  1.0385
  998SOL    HW2 5374   5.578   3.832   4.262  0.6982  0.3248  1.2915
  999SOL     OW 5375   7.035   7.955  10.481  0.2577 -0.1300 -0.1359
  999SOL    HW1 5376   6.972   7.883  10.484  0.7674 -0.5899 -0.4818
  999SOL    HW2 5377   7.108   7.921  10.430 -0.1396  1.1495 -1.6189
 1000SOL     OW 5378   5.283   6.694   9.643  0.4528 -0.0073  0.0712
 1000SOL    HW1 5379   5.234   6.768   9.607 -1.3356 -0.6098  1.1532
 1000SOL    HW2 5380   5.224   6.620   9.634  1.2116 -0.7986  1.3381
 1001SOL     OW 5381   5.760   7.947   7.858  0.0129 -0.1637 -0.0005
 1001SOL    HW1 5382   5.834   7.887   7.854 -0.8781 -1.4714  1.7934
 1001SOL    HW2 5383   5.765   7.986   7.946 -1.2044 -0.0085  0.0241
 1002SOL     OW 5384   4.842   4.327   8.724  0.7329 -0.2154 -0.0868
 1002SOL    HW1 5385   4.756   4.292   8.703  0.1031  2.3879 -2.3119
 1002SOL    HW2 5386   4.851   4.311   8.818 -1.3357 -2.1674 -0.1237
 1003SOL     OW 5387   3.051   2.154   8.070 -0.4754  0.4003 -0.3619
 1003SOL    HW1 5388   3.130   2.130   8.119 -0.4032 -1.7209 -1.3918
 1003SOL    HW2 5389   3.000   2.073   8.066 -2.0196  1.3582 -0.9928
 1004SOL     OW 5390   3.451   1.519   4.015 -0.0050  0.3282 -0.6638
 1004SOL    HW1 5391   3.437   1.427   4.037  0.3955  0.3193 -0.4414
 1004SOL    HW2 5392   3.513   1.516   3.942  1.8476  0.4872  0.8450
 1005SOL     OW 5393   2.794   2.166   4.856 -0.0127  0.1375  0.2177
 1005SOL    HW1 5394   2.703   2.184   4.830 -0.3663  0.4070  1.5598
 1005SOL    HW2 5395   2.801   2.203   4.944  1.8564  1.4960 -0.4369
 1006SOL     OW 5396  10.079  10.164   6.421  0.3924 -0.1253 -0.0443
 1006SOL    HW1 5397  10.136  10.230   6.460  1.7529 -1.2926 -0.0005
 1006SOL    HW2 5398  10.109  10.157   6.330 -1.3564  1.0288 -0.7701
 1007SOL     OW 5399   0.775   2.804   6.973  0.1584  0.7502 -0.5121
 1007SOL    HW1 5400   0.824   2.883   6.992 -0.2032  1.0153 -0.6675
 1007SOL    HW2 5401   0.693   2.813   7.022  1.1772 -0.7375  1.6208
 1008SOL     OW 5402   2.770   4.556   9.328 -0.0259  0.1386 -0.0570
 1008SOL    HW1 5403   2.848   4.500   9.332  0.1141  0.3109 -0.3224
 1008SOL    HW2 5404   2.697   4.495   9.331  0.1265 -0.1821 -1.8476
 1009SOL     OW 5405   3.899   7.978   8.574 -0.3489  0.3888  0.1036
 1009SOL    HW1 5406   3.923   8.033   8.500  1.3138  0.7471  0.8549
 1009SOL    HW2 5407   3.822   8.020   8.612  0.0866  1.4391 -0.1412
 1010SOL     OW 5408   7.983   3.083   4.253  0.1086  0.0613  0.0576
 1010SOL    HW1 5409   8.055   3.022   4.244 -1.3498 -1.5929 -1.2166
 1010SOL    HW2 5410   7.905   3.028   4.257 -1.1932  1.8044  0.0774
 1011SOL     OW 5411   7.910   8.323   4.104  0.0687 -0.1136  0.1913
 1011SOL    HW1 5412   7.940   8.389   4.167 -0.5397 -0.1041  0.4735
 1011SOL    HW2 5413   7.938   8.358   4.019  2.0545 -0.7389  0.5228
 1012SOL     OW 5414   0.133   8.881  10.256 -0.2284 -0.3020 -0.6353
 1012SOL    HW1 5415   0.083   8.949  10.302 -2.7956 -1.7432 -1.0819
 1012SOL    HW2 5416   0.225   8.904  10.271 -0.9729  1.4812  1.8734
 1013SOL     OW 5417   2.077   0.220   4.945  0.1062  0.0034 -0.6583
 1013SOL    HW1 5418   2.116   0.145   4.988  1.9241  0.2503 -1.7827
 1013SOL    HW2 5419   2.010   0.182   4.887  1.5471 -0.8720 -1.8103
 1014SOL     OW 5420   7.939   0.165   1.090  0.4307  0.9124 -0.0224
 1014SOL    HW1 5421   8.015   0.109   1.106 -0.4937  0.0294  1.5037
 1014SOL    HW2 5422   7.975   0.253   1.083  1.4154  0.9821  3.6642
 1015SOL     OW 5423   7.043   4.214   9.346 -0.2305  0.0167 -0.1377
 1015SOL    HW1 5424   7.037   4.165   9.264  0.7601 -0.1852 -0.0945
 1015SOL    HW2 5425   6.960   4.196   9.390 -1.1428  0.8239 -1.4716
 1016SOL     OW 5426   6.658   5.719   9.003 -1.0020  0.2192  0.5695
 1016SOL    HW1 5427   6.674   5.630   9.034 -0.0313  0.3770  0.5796
 1016SOL    HW2 5428   6.597   5.709   8.930 -2.4459 -0.2629  1.7961
 1017SOL     OW 5429   4.371  10.418   6.783  0.3177 -0.5143  0.2998
 1017SOL    HW1 5430   4.422  10.493   6.754  1.0242 -0.9927  0.2809
 1017SOL    HW2 5431   4.285  10.430   6.744  0.5517  0.0708 -0.0341
 1018SOL     OW 5432   4.970   0.894   5.223  0.0709 -0.2669  0.6170
 1018SOL    HW1 5433   4.986   0.802   5.204 -0.6603 -0.4586  0.9046
 1018SOL    HW2 5434   4.877   0.907   5.203  0.1074  0.3431  0.8252
 1019SOL     OW 5435   8.625   4.361   0.833  0.3579  0.3904  0.0063
 1019SOL    HW1 5436   8.561   4.312   0.885  1.1682  0.0214  0.6738
 1019SOL    HW2 5437   8.663   4.296   0.774  0.8884  0.3582  0.3705
 1020SOL     OW 5438   4.372   8.660   8.871  0.4269 -0.0011 -0.2926
 1020SOL    HW1 5439   4.414   8.679   8.787  0.9755 -0.6737 -0.1739
 1020SOL    HW2 5440   4.371   8.565   8.877 -0.7971 -0.0003 -0.1223
 1021SOL     OW 5441   2.568   3.315   3.351 -0.1421  0.0841  0.0911
 1021SOL    HW1 5442   2.550   3.246   3.288  0.1572  1.0182 -1.0535
 1021SOL    HW2 5443   2.491   3.372   3.348  0.6307  1.1345 -0.8285
 1022SOL     OW 5444   7.591   8.954   4.602  0.3719 -0.4061  0.3237
 1022SOL    HW1 5445   7.573   8.875   4.652 -0.4614 -0.2501  0.2826
 1022SOL    HW2 5446   7.562   9.025   4.659 -0.7645 -0.2361 -0.4383
 1023SOL     OW 5447   5.260   8.276   9.017 -0.0836  0.6401  0.2961
 1023SOL    HW1 5448   5.230   8.185   9.019 -0.9552  0.8980 -0.3006
 1023SOL    HW2 5449   5.213   8.314   8.943  0.6363  1.4560  0.2536
 1024SOL     OW 5450   4.175   6.345   0.148 -0.4325  0.5294  0.5161
 1024SOL    HW1 5451   4.238   6.310   0.085  0.6092  1.8194  0.7873
 1024SOL    HW2 5452   4.214   6.326   0.234 -0.7986  0.6518  0.7127
 1025SOL     OW 5453   3.697   4.757   4.117 -0.1444 -0.9876  0.1818
 1025SOL    HW1 5454   3.726   4.666   4.118 -2.6028 -1.8506  1.1416
 1025SOL    HW2 5455   3.630   4.760   4.049 -1.4933 -0.4498  1.4783
 1026SOL     OW 5456   2.606   8.186  10.011  0.0067 -0.4781  0.3892
 1026SOL    HW1 5457   2.513   8.187  10.033 -0.6098  0.3953 -1.9213
 1026SOL    HW2 5458   2.646   8.250  10.070 -0.2720 -2.8607  3.3431
 1027SOL     OW 5459   8.905   7.869  10.173 -0.2608 -0.1510  0.3499
 1027SOL    HW1 5460   8.859   7.950  10.195 -0.1551 -0.2219  0.8468
 1027SOL    HW2 5461   8.895   7.813  10.250  0.3125 -0.3213  0.3101
 1028SOL     OW 5462   7.188   2.255   0.107  0.1272 -0.4420 -0.3887
 1028SOL    HW1 5463   7.115   2.273   0.166  2.1305  1.1972  1.7680
 1028SOL    HW2 5464   7.169   2.168   0.071 -1.8029 -0.9997  1.7414
 1029SOL     OW 5465   1.065   5.545   6.249 -0.1373 -0.1044 -0.4246
 1029SOL    HW1 5466   1.048   5.631   6.210  0.6524  0.1208 -0.2935
 1029SOL    HW2 5467   1.151   5.520   6.214 -0.0278 -0.5035  0.1240
 1030SOL     OW 5468   7.749   9.317   7.371  0.2707 -0.8802  0.3299
 1030SOL    HW1 5469   7.837   9.340   7.399  0.3823 -1.7072  0.6805
 1030SOL    HW2 5470   7.696   9.395   7.391  0.9354 -0.3184 -0.0327
 1031SOL     OW 5471   4.244   0.154   3.106  0.0557 -0.6390  0.3168
 1031SOL    HW1 5472   4.212   0.149   3.196 -1.4764 -0.2235 -0.1716
 1031SOL    HW2 5473   4.258   0.063   3.081  1.5159 -0.7123  1.3020
 1032SOL     OW 5474   1.046   2.407   0.652  0.4361  0.3102 -0.0607
 1032SOL    HW1 5475   1.053   2.354   0.732 -0.4417  2.2227  1.3371
 1032SOL    HW2 5476   1.133   2.402   0.613  0.0915 -3.1525 -0.7111
 1033SOL     OW 5477   5.279   9.288   6.824  0.2778 -0.4235 -0.1479
 1033SOL    HW1 5478   5.185   9.299   6.817 -0.3337 -3.4813  1.4358
 1033SOL    HW2 5479   5.310   9.368   6.866 -1.9816 -0.3036  1.4480
 1034SOL     OW 5480   1.315   3.762   0.287  0.1654  0.2046 -0.6047
 1034SOL    HW1 5481   1.229   3.778   0.248  0.5653 -0.4436 -1.7891
 1034SOL    HW2 5482   1.318   3.820   0.363 -0.8214  1.1579 -1.2711
 1035SOL     OW 5483   5.914   5.089   9.761 -0.4742  0.0367  0.0053
 1035SOL    HW1 5484   5.820   5.070   9.757 -0.7484  0.8203  1.8464
 1035SOL    HW2 5485   5.919   5.184   9.769  0.4839 -0.0083  0.0654
 1036SOL     OW 5486   8.740   1.733   5.719  0.4374 -0.2605  0.2021
 1036SOL    HW1 5487   8.749   1.813   5.669 -2.3934 -0.5748 -0.9946
 1036SOL    HW2 5488   8.813   1.678   5.690 -0.6143 -0.1247 -3.0920
 1037SOL     OW 5489   3.171   3.338   8.393 -0.1868  0.1076 -0.0738
 1037SOL    HW1 5490   3.255   3.304   8.426 -0.5644 -0.6578  0.1261
 1037SOL    HW2 5491   3.189   3.360   8.301  0.2667  0.0708  0.0022
 1038SOL     OW 5492   0.503   7.112  10.279 -0.0989 -0.0667 -0.0492
 1038SOL    HW1 5493   0.553   7.038  10.245 -1.4660 -0.4060 -1.4323
 1038SOL    HW2 5494   0.487   7.089  10.371 -0.2247 -1.3429 -0.3713
 1039SOL     OW 5495   5.498   7.114   4.529 -0.3775  0.6672  0.1948
 1039SOL    HW1 5496   5.569   7.178   4.531 -2.0282  2.6155 -0.2786
 1039SOL    HW2 5497   5.510   7.068   4.446  1.1065 -0.0079  0.7573
 1040SOL     OW 5498   6.274   6.073   9.456 -0.8124  0.0273  0.0280
 1040SOL    HW1 5499   6.311   5.988   9.479 -1.4333 -0.0155  0.9123
 1040SOL    HW2 5500   6.220   6.097   9.531 -1.8004  0.5406 -0.8191
 1041SOL     OW 5501   3.486  10.578   5.437 -0.2321 -0.8316 -0.1024
 1041SOL    HW1 5502   3.442  10.656   5.470 -1.2299 -0.6907 -1.6675
 1041SOL    HW2 5503   3.509  10.599   5.347 -1.0668 -2.5246 -0.7556
 1042SOL     OW 5504   5.971  10.076   9.184 -0.2225  0.3491  0.4811
 1042SOL    HW1 5505   6.033  10.005   9.166  1.9378  1.3623  3.2943
 1042SOL    HW2 5506   5.919  10.082   9.104  1.1822 -2.6739 -0.8315
 1043SOL     OW 5507   9.651   4.685   2.192  0.2108  0.1742 -0.0852
 1043SOL    HW1 5508   9.639   4.592   2.172 -0.3120  0.3346 -0.5703
 1043SOL    HW2 5509   9.719   4.714   2.131  0.3456  0.1146  0.0391
 1044SOL     OW 5510   6.729   3.208   9.882 -0.1798 -0.8479  0.1411
 1044SOL    HW1 5511   6.710   3.292   9.839  1.1842 -1.5035 -1.8853
 1044SOL    HW2 5512   6.799   3.228   9.944 -1.8468  0.0186  1.8476
 1045SOL     OW 5513   7.967   3.934   5.750 -0.7486 -1.0067  0.4548
 1045SOL    HW1 5514   7.887   3.893   5.782 -1.5219  1.2461  1.6574
 1045SOL    HW2 5515   7.951   4.028   5.759  1.5237 -0.4426 -0.5648
 1046SOL     OW 5516   2.405   3.379   7.424  0.1985 -0.4791 -0.0073
 1046SOL    HW1 5517   2.494   3.369   7.392 -0.0087 -0.9785 -0.4531
 1046SOL    HW2 5518   2.415   3.406   7.516  0.8030 -0.7678  0.0180
 1047SOL     OW 5519   5.634   4.976   6.326 -0.0927 -0.0224 -0.1346
 1047SOL    HW1 5520   5.629   4.942   6.237  3.4127  1.9594 -1.3012
 1047SOL    HW2 5521   5.659   4.900   6.380 -2.4092 -1.2715 -0.6910
 1048SOL     OW 5522   4.819   1.532   9.038  0.1988  0.0132  0.5021
 1048SOL    HW1 5523   4.875   1.501   8.967  1.0080  0.8331  0.7535
 1048SOL    HW2 5524   4.752   1.585   8.994  0.8147  0.6857  0.3412
 1049SOL     OW 5525   1.383   3.773   4.098 -0.3780  0.4633 -0.2029
 1049SOL    HW1 5526   1.294   3.808   4.097 -0.8652 -0.6969  0.5649
 1049SOL    HW2 5527   1.419   3.802   4.182 -0.6279 -0.4639  0.2338
 1050SOL     OW 5528   1.156   0.786   8.449 -0.2405 -0.6595  0.0747
 1050SOL    HW1 5529   1.169   0.790   8.354  0.9564  0.1773  0.2340
 1050SOL    HW2 5530   1.227   0.840   8.484 -1.2590 -0.1250  1.3999
 1051SOL     OW 5531   0.193   7.018   8.645  0.8180 -0.1107 -0.1214
 1051SOL    HW1 5532   0.149   7.019   8.559  0.4006 -0.3477  0.0855
 1051SOL    HW2 5533   0.180   7.106   8.680  0.3676 -0.2264  0.0068
 1052SOL     OW 5534   1.754   1.013   3.925 -0.1331 -0.0326  0.4471
 1052SOL    HW1 5535   1.717   1.077   3.986 -0.3100  1.0032 -0.7010
 1052SOL    HW2 5536   1.711   0.931   3.948 -1.2724  0.6339  0.7847
 1053SOL     OW 5537   2.619   3.423   1.970  0.1160  0.1460  0.2403
 1053SOL    HW1 5538   2.664   3.492   2.019  0.9681 -1.1186  1.3059
 1053SOL    HW2 5539   2.680   3.400   1.900  0.5904 -0.6916  0.9182
 1054SOL     OW 5540   6.483   7.623   2.745 -0.9108 -0.0862  0.3165
 1054SOL    HW1 5541   6.463   7.700   2.798  0.2993 -0.3529  1.1799
 1054SOL    HW2 5542   6.407   7.615   2.687 -1.3610  1.3606  0.6521
 1055SOL     OW 5543   9.432   5.408   0.255  0.6496 -0.1595  0.1157
 1055SOL    HW1 5544   9.356   5.361   0.291  0.8487 -0.2436  0.4274
 1055SOL    HW2 5545   9.410   5.421   0.162  0.8174 -1.3346 -0.1030
 1056SOL     OW 5546   6.483   9.284   4.348  0.2432  0.1073 -0.0467
 1056SOL    HW1 5547   6.519   9.372   4.352  1.1586 -0.3008  1.7523
 1056SOL    HW2 5548   6.410   9.285   4.411  2.3628 -1.2416  2.6488
 1057SOL     OW 5549   2.945   1.336   7.941  0.1894  0.8182 -0.3995
 1057SOL    HW1 5550   3.016   1.331   8.005  0.5679  0.5762 -0.8340
 1057SOL    HW2 5551   2.865   1.336   7.994  0.3700 -1.9766  0.0177
 1058SOL     OW 5552   0.948   9.061   5.355 -0.3919 -0.1249  0.6680
 1058SOL    HW1 5553   1.001   9.053   5.275 -0.1470 -1.6025  0.9566
 1058SOL    HW2 5554   0.867   9.102   5.325 -0.2318 -0.4953 -0.3128
 1059SOL     OW 5555   8.929   9.293   4.262 -0.4067 -0.1861  0.6502
 1059SOL    HW1 5556   8.887   9.213   4.294 -0.6154 -0.3632 -0.0334
 1059SOL    HW2 5557   9.023   9.277   4.273 -0.4393 -0.5940  0.3819
 1060SOL     OW 5558   8.995   9.247   2.696 -0.2675  0.6060  0.2309
 1060SOL    HW1 5559   8.955   9.219   2.614 -0.3462 -0.8098  0.7126
 1060SOL    HW2 5560   8.996   9.342   2.692 -1.3056  0.5881 -0.9155
 1061SOL     OW 5561   7.524   6.462   0.607  0.3751 -0.9947  0.5931
 1061SOL    HW1 5562   7.528   6.372   0.641  0.1768 -0.3147  2.5434
 1061SOL    HW2 5563   7.615   6.486   0.593  0.5177 -1.1085  1.2541
 1062SOL     OW 5564   0.229   5.785   4.991 -0.4005 -0.2484 -0.1898
 1062SOL    HW1 5565   0.178   5.859   4.958  1.7886  0.3561 -2.5566
 1062SOL    HW2 5566   0.184   5.708   4.957  0.5692  0.3023 -3.0191
 1063SOL     OW 5567   3.383   1.666   0.666 -0.0425 -0.3928 -0.4452
 1063SOL    HW1 5568   3.359   1.598   0.729  0.7193 -1.3640 -1.1622
 1063SOL    HW2 5569   3.441   1.725   0.714 -0.8634 -0.1417  0.2401
 1064SOL     OW 5570   1.462   6.970   0.628 -0.2410 -0.4572  0.1566
 1064SOL    HW1 5571   1.480   6.965   0.722  1.2524  0.3312 -0.0724
 1064SOL    HW2 5572   1.499   6.889   0.593  0.5290 -0.0662  0.0526
 1065SOL     OW 5573   4.008   1.947  10.498  0.2723 -0.5743 -0.0069
 1065SOL    HW1 5574   4.061   1.876  10.461 -0.6864 -1.4650  0.2814
 1065SOL    HW2 5575   4.064   2.024  10.492  1.2844 -1.3202 -0.4749
 1066SOL     OW 5576   2.028   1.195   0.955  0.1250 -0.6348 -0.1273
 1066SOL    HW1 5577   2.037   1.215   0.861  0.2788  0.6177  0.1363
 1066SOL    HW2 5578   2.103   1.140   0.974  0.1278 -0.8537 -0.7351
 1067SOL     OW 5579   1.919   9.031   7.484  0.2815  0.3176 -0.1784
 1067SOL    HW1 5580   1.933   9.009   7.392  0.7600  0.9020 -0.2500
 1067SOL    HW2 5581   1.954   8.956   7.533  1.4490  0.6851 -0.4281
 1068SOL     OW 5582   9.208   4.321   0.419 -0.6164  0.6920  0.1233
 1068SOL    HW1 5583   9.254   4.237   0.415  0.7659  1.4479 -1.2425
 1068SOL    HW2 5584   9.198   4.338   0.513  0.2170 -0.4070  0.4355
 1069SOL     OW 5585   7.650   0.823   9.325  0.2974 -0.0374 -0.2248
 1069SOL    HW1 5586   7.608   0.808   9.410  0.8347 -2.6510 -0.3278
 1069SOL    HW2 5587   7.738   0.787   9.336 -0.7438 -4.0777 -2.8507
 1070SOL     OW 5588   3.888   1.038   9.779 -0.6310 -0.1343 -0.5585
 1070SOL    HW1 5589   3.938   1.106   9.735 -0.3787 -0.0879 -0.2045
 1070SOL    HW2 5590   3.923   1.036   9.868 -0.9620 -0.3998 -0.4313
 1071SOL     OW 5591   8.510   3.620   3.642  0.4841 -0.0654 -0.1163
 1071SOL    HW1 5592   8.563   3.592   3.568 -1.4123  0.2316 -1.6581
 1071SOL    HW2 5593   8.445   3.550   3.652 -0.1975  0.6177  0.2868
 1072SOL     OW 5594   5.933   4.493   3.997  0.4636  0.2260  0.4680
 1072SOL    HW1 5595   5.996   4.564   4.009  0.7608 -0.1723  1.3719
 1072SOL    HW2 5596   5.953   4.458   3.910 -0.6354  2.1465 -0.6439
 1073SOL     OW 5597   4.893   9.367   1.795 -0.4091 -0.1733  0.6321
 1073SOL    HW1 5598   4.830   9.309   1.753 -0.8298  0.7224 -0.0250
 1073SOL    HW2 5599   4.843   9.412   1.863 -0.8025  1.2709 -0.5362
 1074SOL     OW 5600   4.137  10.593   7.701 -0.4083  0.0114 -0.2480
 1074SOL    HW1 5601   4.158  10.500   7.685 -0.1964  0.0494 -0.1919
 1074SOL    HW2 5602   4.069  10.613   7.636  0.5618  0.2044 -1.2379
 1075SOL     OW 5603   6.155   3.351   7.554  0.1585  0.7051 -0.4525
 1075SOL    HW1 5604   6.088   3.306   7.503 -0.5999  2.4503 -1.0766
 1075SOL    HW2 5605   6.236   3.337   7.505 -0.0185 -0.1068 -0.5284
 1076SOL     OW 5606   8.608   9.849   9.087 -0.1774  0.5111  0.7149
 1076SOL    HW1 5607   8.618   9.777   9.149  0.8945  1.5811  1.8398
 1076SOL    HW2 5608   8.555   9.914   9.132 -2.0826  0.0427 -0.7002
 1077SOL     OW 5609   8.335   4.173   0.405  0.2281  0.3130  0.0492
 1077SOL    HW1 5610   8.356   4.179   0.312  1.6182 -0.5295  0.2631
 1077SOL    HW2 5611   8.340   4.079   0.424 -1.3534  0.3305  0.7139
 1078SOL     OW 5612   0.263   4.589   7.136 -0.2918  0.3580 -0.0968
 1078SOL    HW1 5613   0.269   4.494   7.130 -1.5933  0.2350  0.1041
 1078SOL    HW2 5614   0.353   4.619   7.145  0.0360 -0.9967  1.7274
 1079SOL     OW 5615  10.613  10.067   3.063  0.4455  0.3301  0.1611
 1079SOL    HW1 5616  10.599   9.972   3.067 -0.1643  0.4058 -0.0848
 1079SOL    HW2 5617  10.700  10.077   3.023  1.3070 -0.1526  1.8131
 1080SOL     OW 5618   9.993   0.918   8.045  0.2484  0.4928  0.0005
 1080SOL    HW1 5619   9.925   0.854   8.025  0.3139 -0.1678  1.6689
 1080SOL    HW2 5620   9.958   1.001   8.013 -1.1339  0.0793  0.3502
 1081SOL     OW 5621   1.557   1.251   3.832 -0.1772  0.1002 -0.7083
 1081SOL    HW1 5622   1.619   1.321   3.850 -0.8914  1.1846 -2.2217
 1081SOL    HW2 5623   1.597   1.201   3.761 -0.4464  0.0246 -0.8078
 1082SOL     OW 5624   8.039   6.716   4.542 -0.2411 -0.2106  0.2879
 1082SOL    HW1 5625   7.962   6.716   4.599  0.2548 -2.1916  1.0405
 1082SOL    HW2 5626   8.108   6.676   4.596  1.5928  2.2875 -0.0490
 1083SOL     OW 5627   5.058   3.384  10.379 -0.1962 -0.2643  0.2665
 1083SOL    HW1 5628   5.074   3.447  10.449 -2.2537  0.0960  0.4705
 1083SOL    HW2 5629   5.068   3.299  10.422  0.7845 -0.0761  0.4310
 1084SOL     OW 5630   4.583   4.214   6.308  0.1751  0.6135  0.2827
 1084SOL    HW1 5631   4.648   4.242   6.374  1.4439  0.3002 -0.7891
 1084SOL    HW2 5632   4.508   4.184   6.359  0.8130  1.1253  1.5658
 1085SOL     OW 5633   2.695   9.764   5.087  0.4007 -0.7340 -0.1180
 1085SOL    HW1 5634   2.631   9.787   5.155  1.5218 -1.0818  1.1109
 1085SOL    HW2 5635   2.718   9.673   5.105  0.5208 -0.9111 -1.1359
 1086SOL     OW 5636   6.676   3.229   8.653 -0.1212  0.5053 -0.3423
 1086SOL    HW1 5637   6.583   3.252   8.654  0.2456  2.2629 -1.5340
 1086SOL    HW2 5638   6.704   3.239   8.744 -1.0825 -0.0641  0.0349
 1087SOL     OW 5639   3.849   6.288   8.482 -0.4885 -0.0501 -0.7488
 1087SOL    HW1 5640   3.822   6.242   8.403 -0.0945  0.4728 -1.1942
 1087SOL    HW2 5641   3.939   6.315   8.464 -0.3495 -0.0375 -0.0695
 1088SOL     OW 5642   6.103   9.915   0.755  0.4221  0.3309 -0.7168
 1088SOL    HW1 5643   6.104   9.887   0.846  0.5657  0.1768 -0.7654
 1088SOL    HW2 5644   6.109   9.833   0.705  2.2982  0.5096 -0.8561
 1089SOL     OW 5645   6.123   0.042   7.114  0.1479  0.0905  0.2127
 1089SOL    HW1 5646   6.096   0.126   7.152  0.6810  0.4745 -0.2356
 1089SOL    HW2 5647   6.219   0.045   7.116  0.1722 -0.2626 -0.3286
 1090SOL     OW 5648   9.258   9.445  10.452  0.2047  0.4243  0.0436
 1090SOL    HW1 5649   9.224   9.446  10.542  1.0041 -1.5273  0.4103
 1090SOL    HW2 5650   9.337   9.499  10.456  0.3434  0.1919  0.5590
 1091SOL     OW 5651   3.206   6.552   3.909  0.1528 -0.9375  0.1081
 1091SOL    HW1 5652   3.228   6.622   3.971 -1.8707  0.1360 -0.2805
 1091SOL    HW2 5653   3.144   6.593   3.848 -1.1859 -3.0703 -0.0877
 1092SOL     OW 5654   7.247   7.708   2.903 -0.8215 -0.2160 -0.0952
 1092SOL    HW1 5655   7.192   7.662   2.839 -2.8292  0.1792  1.2572
 1092SOL    HW2 5656   7.242   7.800   2.876 -2.5044  0.0971  1.1255
 1093SOL     OW 5657   9.012   9.343   7.749  0.4842 -0.7277 -0.7072
 1093SOL    HW1 5658   8.943   9.339   7.683 -0.5072 -1.1454  0.3358
 1093SOL    HW2 5659   8.973   9.306   7.828  1.6683 -0.2956  0.1134
 1094SOL     OW 5660   6.905   6.329   2.283 -0.0991 -0.3844 -0.3860
 1094SOL    HW1 5661   6.869   6.321   2.195  0.7734 -0.7600 -0.7193
 1094SOL    HW2 5662   6.948   6.245   2.299 -0.4962 -0.4273  0.5218
 1095SOL     OW 5663   2.245   9.999   1.065  0.3472 -0.4105 -0.5723
 1095SOL    HW1 5664   2.294  10.072   1.026  2.0715 -1.0380  0.3271
 1095SOL    HW2 5665   2.259   9.926   1.005  1.9374 -1.0268  0.4747
 1096SOL     OW 5666   2.458   8.125   0.902 -0.0558 -0.3814  0.5950
 1096SOL    HW1 5667   2.405   8.076   0.839 -0.0930 -1.1364  1.2095
 1096SOL    HW2 5668   2.394   8.157   0.966  0.0984 -0.3458  0.7293
 1097SOL     OW 5669   1.022   6.802   2.526 -0.5337  0.5464  0.4017
 1097SOL    HW1 5670   1.049   6.894   2.529 -2.4197  1.1334  0.7501
 1097SOL    HW2 5671   0.968   6.795   2.448 -0.9702 -0.1077  0.7522
 1098SOL     OW 5672   2.039   9.618   7.825 -0.3252  0.5047  0.4589
 1098SOL    HW1 5673   2.062   9.709   7.804  1.2835 -0.6149 -3.9384
 1098SOL    HW2 5674   1.959   9.602   7.775  0.7018 -1.0005 -0.8136
 1099SOL     OW 5675   4.738   4.958   0.123  0.2206  0.5479 -0.0591
 1099SOL    HW1 5676   4.820   4.959   0.074 -0.1271 -0.6709 -0.7140
 1099SOL    HW2 5677   4.726   5.048   0.152  1.9584  0.6799  0.3555
 1100SOL     OW 5678   2.386   1.266   3.297  0.5778  0.4410 -0.1961
 1100SOL    HW1 5679   2.348   1.207   3.232  1.3850  0.0015 -0.2851
 1100SOL    HW2 5680   2.420   1.207   3.365  0.8358  0.8399  0.0182
 1101SOL     OW 5681   5.566   1.857   1.544  0.7420  0.6170 -0.5488
 1101SOL    HW1 5682   5.485   1.904   1.567  0.9512 -0.2096  2.2237
 1101SOL    HW2 5683   5.536   1.781   1.493 -0.2651  0.3384  0.4209
 1102SOL     OW 5684   9.379   0.967   8.814  0.1539  0.3164  0.1030
 1102SOL    HW1 5685   9.416   0.995   8.731 -0.7570  0.5993 -0.2113
 1102SOL    HW2 5686   9.372   0.872   8.807  0.9549  0.2383  0.2311
 1103SOL     OW 5687   5.816   1.034   8.263  0.4200 -0.3339 -0.2742
 1103SOL    HW1 5688   5.839   1.119   8.301 -0.6620  0.6056 -1.6079
 1103SOL    HW2 5689   5.893   1.007   8.214  0.6008  0.1079 -0.2324
 1104SOL     OW 5690   9.459   6.686   6.844 -0.4831 -0.3180  0.4611
 1104SOL    HW1 5691   9.385   6.641   6.804  0.1249 -2.4918  1.6374
 1104SOL    HW2 5692   9.483   6.632   6.920  1.0758  1.3629  1.2654
 1105SOL     OW 5693   2.598   5.793   8.464  0.1940  0.5767 -0.0220
 1105SOL    HW1 5694   2.621   5.874   8.419  0.6117  0.8309  0.6167
 1105SOL    HW2 5695   2.572   5.732   8.395 -0.7105  1.4417 -0.4584
 1106SOL     OW 5696   2.984   5.381   1.557 -0.1888  0.3383  0.0933
 1106SOL    HW1 5697   3.069   5.426   1.554 -0.1393  0.2054 -1.9748
 1106SOL    HW2 5698   3.007   5.288   1.564 -0.2303  0.3967  1.2332
 1107SOL     OW 5699   4.554  10.749   3.216 -0.4528  0.5125 -0.1218
 1107SOL    HW1 5700   4.543  10.664   3.172  1.0915 -0.1554  0.7087
 1107SOL    HW2 5701   4.505  10.740   3.298  0.6729 -0.0444  0.5159
 1108SOL     OW 5702   1.871   0.325   6.635  0.3188  0.1808  0.3633
 1108SOL    HW1 5703   1.948   0.320   6.578 -1.5637 -1.2291 -2.2584
 1108SOL    HW2 5704   1.841   0.416   6.628  1.1070  0.4686  0.5814
 1109SOL     OW 5705   3.752   5.751   4.550  0.4263 -0.4574 -0.7528
 1109SOL    HW1 5706   3.667   5.792   4.530  0.0060 -1.2000 -0.5202
 1109SOL    HW2 5707   3.730   5.677   4.607  1.1275 -1.2700 -1.5109
 1110SOL     OW 5708   9.563   9.272   5.851 -0.3339  0.3611 -0.4906
 1110SOL    HW1 5709   9.588   9.206   5.915 -0.3745  0.6384 -0.1888
 1110SOL    HW2 5710   9.515   9.223   5.784 -0.4115  0.0945 -0.2424
 1111SOL     OW 5711   0.987   9.501   5.748  0.0608 -0.0574 -0.6982
 1111SOL    HW1 5712   1.067   9.510   5.799  0.0428  0.0453 -0.6871
 1111SOL    HW2 5713   1.017   9.492   5.657  0.0801  0.1709 -0.7170
 1112SOL     OW 5714   4.536   4.205   9.218  0.5218  0.4500  0.1206
 1112SOL    HW1 5715   4.444   4.200   9.242  0.0566 -0.1148 -1.6475
 1112SOL    HW2 5716   4.570   4.277   9.270 -1.0060  0.8993  0.5491
 1113SOL     OW 5717   6.266   2.102   1.353  0.2209 -0.0370 -0.4994
 1113SOL    HW1 5718   6.282   2.012   1.324 -1.1341 -0.3390 -0.3570
 1113SOL    HW2 5719   6.172   2.105   1.371  0.6252  0.7139  1.8690
 1114SOL     OW 5720   9.647   0.480   4.718 -0.1015 -0.2655 -0.1602
 1114SOL    HW1 5721   9.671   0.395   4.756 -0.5397  0.3561  1.5796
 1114SOL    HW2 5722   9.703   0.543   4.762  1.2559  0.2655 -2.4772
 1115SOL     OW 5723   9.366   7.063   4.771  0.2582 -0.2027 -0.4378
 1115SOL    HW1 5724   9.407   7.041   4.855  1.3382  0.1995 -0.8388
 1115SOL    HW2 5725   9.378   6.985   4.717  1.4701  0.2859 -0.9011
 1116SOL     OW 5726   0.825   3.446   2.804 -0.0264 -0.1475 -0.0410
 1116SOL    HW1 5727   0.750   3.386   2.799  0.3256 -0.5704 -0.4755
 1116SOL    HW2 5728   0.786   3.533   2.804 -0.6471 -0.3526  2.3704
 1117SOL     OW 5729   0.181   2.881   2.305  0.1153 -0.1789 -0.1889
 1117SOL    HW1 5730   0.205   2.968   2.271 -1.5698  0.5188  0.2769
 1117SOL    HW2 5731   0.132   2.840   2.234 -0.9631  0.1516  0.3323
 1118SOL     OW 5732   5.630   0.077   8.008  0.2894 -0.6547  0.0036
 1118SOL    HW1 5733   5.576   0.122   7.943 -0.8715 -1.9068  0.0537
 1118SOL    HW2 5734   5.711   0.058   7.962 -0.0620 -0.4744 -0.7123
 1119SOL     OW 5735   0.610   8.521   2.377  0.5482 -0.0115  0.4540
 1119SOL    HW1 5736   0.581   8.561   2.459 -0.5080 -1.2205  0.6835
 1119SOL    HW2 5737   0.548   8.553   2.311 -1.1715 -2.2521  0.8713
 1120SOL     OW 5738   1.181   6.962   5.042 -0.5900  0.3282  0.3396
 1120SOL    HW1 5739   1.158   7.039   5.094 -0.7523  0.7503 -0.3420
 1120SOL    HW2 5740   1.246   6.915   5.095 -1.2585  0.3792  1.2266
 1121SOL     OW 5741   2.554   1.749   6.599 -0.3174  0.6316 -0.4464
 1121SOL    HW1 5742   2.588   1.704   6.676  2.2167  0.6346 -1.4824
 1121SOL    HW2 5743   2.574   1.842   6.615 -1.6116  0.8892 -0.2362
 1122SOL     OW 5744   6.101   6.891   0.178  0.0048  0.4416  0.2002
 1122SOL    HW1 5745   6.050   6.947   0.120  0.7958  1.6776  0.6570
 1122SOL    HW2 5746   6.069   6.802   0.160 -0.3071  0.8673 -1.5617
 1123SOL     OW 5747   4.681   2.454   7.738 -0.2692  0.5463 -0.5776
 1123SOL    HW1 5748   4.758   2.402   7.713 -0.3591  0.0867  0.0911
 1123SOL    HW2 5749   4.717   2.533   7.777 -0.1085 -0.3677  1.2059
 1124SOL     OW 5750   5.111   1.062   8.702  0.1107  0.2614 -0.0362
 1124SOL    HW1 5751   5.176   1.036   8.768  0.9417  0.6360 -0.6885
 1124SOL    HW2 5752   5.163   1.098   8.631 -0.8921  1.8286 -0.0189
 1125SOL     OW 5753   1.798   3.742   2.476 -0.0528 -0.1193  0.1483
 1125SOL    HW1 5754   1.750   3.661   2.489  0.4057 -0.4187  0.0139
 1125SOL    HW2 5755   1.856   3.724   2.402  0.5005  0.1185  0.5133
 1126SOL     OW 5756   9.473   9.436   6.158  0.3660 -0.0988  0.0233
 1126SOL    HW1 5757   9.402   9.373   6.169 -3.6549  2.8859 -4.6290
 1126SOL    HW2 5758   9.453   9.505   6.222 -0.5832  0.3814 -0.7656
 1127SOL     OW 5759   8.036   3.588   4.336  0.2576  0.2178 -0.0591
 1127SOL    HW1 5760   8.007   3.497   4.327  0.5127  0.0393  0.7762
 1127SOL    HW2 5761   7.961   3.640   4.306  0.4870 -0.2621 -1.5317
 1128SOL     OW 5762   7.090   2.187   6.365 -0.1546  0.1632  0.2449
 1128SOL    HW1 5763   7.092   2.152   6.276  1.4889  0.0378  0.2996
 1128SOL    HW2 5764   7.027   2.131   6.411 -0.6999 -0.0388 -0.7185
 1129SOL     OW 5765   9.712   7.001   2.968  0.2290  0.1708  0.4395
 1129SOL    HW1 5766   9.626   7.036   2.946  0.5045  0.6047  0.0590
 1129SOL    HW2 5767   9.767   7.019   2.892  0.9064  0.7357  1.0475
 1130SOL     OW 5768  10.392   2.032   3.706  0.0084 -0.5465 -0.4013
 1130SOL    HW1 5769  10.454   1.984   3.652  0.2828  0.3823 -0.9338
 1130SOL    HW2 5770  10.362   2.104   3.651  0.2281  0.3702  0.6405
 1131SOL     OW 5771   0.035  10.733   3.693 -0.4512 -0.0055  0.0171
 1131SOL    HW1 5772   0.094  10.676   3.743 -0.5058 -1.0720 -1.1103
 1131SOL    HW2 5773  -0.053  10.698   3.710 -0.7413  1.1795  1.1619
 1132SOL     OW 5774  10.048   3.465   4.215  0.5886 -0.6238 -0.4493
 1132SOL    HW1 5775  10.133   3.503   4.239  0.0571  1.2241 -1.3066
 1132SOL    HW2 5776  10.053   3.453   4.120 -0.6512  1.0957 -0.7873
 1133SOL     OW 5777  10.484   3.597   5.622 -0.3713 -0.1514  0.0317
 1133SOL    HW1 5778  10.444   3.653   5.555 -2.5782 -1.1993  0.3618
 1133SOL    HW2 5779  10.419   3.593   5.692  1.4938  0.1809  1.8695
 1134SOL     OW 5780   5.046   6.853   9.047 -0.2452 -0.0307 -0.2631
 1134SOL    HW1 5781   5.081   6.937   9.077 -1.2246  0.6393 -0.9287
 1134SOL    HW2 5782   4.993   6.823   9.121 -0.9711  0.6005 -0.5126
 1135SOL     OW 5783   4.218   7.906   8.541  0.9835 -0.5295  0.2422
 1135SOL    HW1 5784   4.223   7.988   8.590  0.4056 -0.4663  0.2004
 1135SOL    HW2 5785   4.206   7.933   8.450  1.3230 -0.6586  0.1560
 1136SOL     OW 5786   7.926   2.795   1.603 -0.3697  0.3577 -0.8156
 1136SOL    HW1 5787   8.006   2.839   1.576 -0.1169  0.1850 -0.3564
 1136SOL    HW2 5788   7.865   2.810   1.531 -0.3112  1.5041 -0.6524
 1137SOL     OW 5789   4.884   2.201   0.421 -0.2141  0.2409  0.5179
 1137SOL    HW1 5790   4.866   2.239   0.507  0.0528 -0.9849  1.1490
 1137SOL    HW2 5791   4.851   2.111   0.427 -1.4772  0.5490 -1.1568
 1138SOL     OW 5792   3.312   4.624   8.370 -0.0023 -0.1736 -0.2362
 1138SOL    HW1 5793   3.227   4.581   8.373  0.0435 -0.2317  0.5243
 1138SOL    HW2 5794   3.291   4.717   8.360 -0.2294 -0.0101  1.4303
 1139SOL     OW 5795   4.779   3.662   3.398 -0.3029 -0.4624  0.2493
 1139SOL    HW1 5796   4.705   3.646   3.457 -1.6086  0.7243 -0.9952
 1139SOL    HW2 5797   4.754   3.618   3.317 -1.0392  2.3013 -1.1296
 1140SOL     OW 5798   1.423   0.748   1.279  0.2354 -0.3983  0.3269
 1140SOL    HW1 5799   1.482   0.809   1.325 -1.4639  1.6150  0.0028
 1140SOL    HW2 5800   1.424   0.778   1.188 -0.1122 -1.3071  0.0168
 1141SOL     OW 5801   9.839   4.182   3.543  0.0197  0.2058  0.1415
 1141SOL    HW1 5802   9.814   4.262   3.495  2.0899 -0.5241 -2.3741
 1141SOL    HW2 5803   9.786   4.113   3.503  0.7080 -0.1928 -0.0919
 1142SOL     OW 5804   1.196   0.172   7.368  0.6161  0.0909  0.5737
 1142SOL    HW1 5805   1.191   0.190   7.462 -1.9106 -0.0314  0.5291
 1142SOL    HW2 5806   1.109   0.138   7.345  1.5160 -0.9561 -1.6066
 1143SOL     OW 5807   0.780   1.619   6.323  0.4559  0.6909  0.4128
 1143SOL    HW1 5808   0.777   1.686   6.254  1.2716  0.5046  0.1824
 1143SOL    HW2 5809   0.818   1.542   6.279  0.5848  0.4385  0.9604
 1144SOL     OW 5810   8.541   9.187   2.415 -0.2176  0.1342 -0.4627
 1144SOL    HW1 5811   8.509   9.114   2.363  0.7670 -0.3651 -0.4021
 1144SOL    HW2 5812   8.622   9.214   2.372  1.4374 -1.2433  1.5451
 1145SOL     OW 5813   1.469   7.126   5.046 -0.6653  0.1026 -0.1557
 1145SOL    HW1 5814   1.401   7.186   5.077  0.3596  0.8382  0.7420
 1145SOL    HW2 5815   1.521   7.106   5.124  0.1255 -0.4690 -0.8098
 1146SOL     OW 5816  10.232   4.580   5.877 -0.0917 -0.0035 -0.1703
 1146SOL    HW1 5817  10.188   4.515   5.932 -0.9881  0.6021 -0.1583
 1146SOL    HW2 5818  10.251   4.533   5.796 -2.1464  0.1190 -0.7723
 1147SOL     OW 5819   5.037   2.581   1.573 -0.1286  0.1091  0.4702
 1147SOL    HW1 5820   4.965   2.524   1.598 -1.4503  1.6719  0.3315
 1147SOL    HW2 5821   4.996   2.660   1.538  1.5607 -0.6156 -3.7680
 1148SOL     OW 5822   4.210   6.550   4.797 -0.2299 -0.1093 -0.3921
 1148SOL    HW1 5823   4.181   6.482   4.858  0.2338  0.0872  0.0589
 1148SOL    HW2 5824   4.235   6.503   4.718 -2.9125 -0.1962 -1.2718
 1149SOL     OW 5825   8.955   0.031  10.060 -0.0929 -0.0536  0.0235
 1149SOL    HW1 5826   8.896   0.107  10.062 -0.5856 -0.4352  0.0739
 1149SOL    HW2 5827   8.899  -0.042  10.036 -0.2298 -0.9595  2.8023
 1150SOL     OW 5828   3.675   6.523   4.609  0.3647  0.5267  0.5708
 1150SOL    HW1 5829   3.738   6.526   4.681  1.9910  0.0954 -0.7512
 1150SOL    HW2 5830   3.692   6.438   4.567 -0.0954  1.0359 -0.6851
 1151SOL     OW 5831  10.414   6.596   5.309 -0.2626  0.1736  0.0784
 1151SOL    HW1 5832  10.469   6.592   5.387 -1.1252  1.3326  0.7832
 1151SOL    HW2 5833  10.472   6.628   5.240  0.3680 -0.3170  0.3676
 1152SOL     OW 5834   5.644   3.453   1.067 -0.1003 -0.7523  0.4557
 1152SOL    HW1 5835   5.720   3.414   1.109 -0.8640 -1.4071  1.2783
 1152SOL    HW2 5836   5.595   3.494   1.139  0.3271  1.1649 -0.2905
 1153SOL     OW 5837  10.131   5.820   1.559  0.3031  0.4046  0.1588
 1153SOL    HW1 5838  10.075   5.830   1.482  0.4472  2.3201  0.2639
 1153SOL    HW2 5839  10.071   5.794   1.629 -0.0911  0.2644 -0.2282
 1154SOL     OW 5840   1.504   5.102   1.772 -0.3356  0.0791  0.1243
 1154SOL    HW1 5841   1.426   5.149   1.799 -0.2417 -0.0245  0.5803
 1154SOL    HW2 5842   1.483   5.010   1.788  1.0328  0.2044  3.3882
 1155SOL     OW 5843   8.881  10.467  10.335  0.6921  0.1605 -0.7575
 1155SOL    HW1 5844   8.916  10.555  10.342  0.8481  0.0068  0.7151
 1155SOL    HW2 5845   8.947  10.419  10.285  1.8612  0.2704  0.6220
 1156SOL     OW 5846   8.683   0.301   5.018 -0.1978  0.2096  0.1238
 1156SOL    HW1 5847   8.770   0.266   4.999 -1.2388 -2.2890 -0.3310
 1156SOL    HW2 5848   8.656   0.343   4.937  0.0123 -0.2821 -0.2084
 1157SOL     OW 5849   0.643   4.644   5.171  0.3292  0.0071 -0.2087
 1157SOL    HW1 5850   0.642   4.553   5.201 -1.0944 -0.8691 -2.6365
 1157SOL    HW2 5851   0.566   4.684   5.213  0.2148 -0.2742 -0.1502
 1158SOL     OW 5852   5.804   9.976   0.741 -0.0767 -0.2333 -0.2919
 1158SOL    HW1 5853   5.781   9.889   0.708 -0.2819 -0.0027 -0.7656
 1158SOL    HW2 5854   5.896   9.969   0.765 -0.5424 -1.0988  1.4010
 1159SOL     OW 5855   9.637   9.641   6.854  0.0771 -0.0401  0.3414
 1159SOL    HW1 5856   9.729   9.633   6.880  0.3894  0.1396 -0.6465
 1159SOL    HW2 5857   9.636   9.615   6.761 -0.9056 -0.2494  0.3963
 1160SOL     OW 5858   5.628   7.191   4.060  0.3065  0.0165  0.1122
 1160SOL    HW1 5859   5.588   7.140   4.130 -0.1979 -0.5238 -0.5493
 1160SOL    HW2 5860   5.655   7.125   3.995 -0.6829  0.5971 -0.9278
 1161SOL     OW 5861   5.706   2.581   0.343  0.2060  0.3652 -0.0881
 1161SOL    HW1 5862   5.801   2.590   0.335  0.1697  2.6563  1.1904
 1161SOL    HW2 5863   5.670   2.639   0.276 -0.2520  1.3600  0.9937
 1162SOL     OW 5864   4.084   0.956   4.640 -0.4653  0.0812 -0.4508
 1162SOL    HW1 5865   4.017   0.976   4.575 -1.3124  0.0925  0.3991
 1162SOL    HW2 5866   4.086   1.033   4.697 -0.6602 -0.4480  0.2895
 1163SOL     OW 5867   5.793  10.147   2.673 -0.6159 -0.0020  0.0124
 1163SOL    HW1 5868   5.837  10.159   2.757 -0.0911 -0.9080 -0.1145
 1163SOL    HW2 5869   5.745  10.228   2.659 -1.4882 -0.2057  1.6269
 1164SOL     OW 5870   0.094   3.855   2.380  0.4177 -0.4506  0.8665
 1164SOL    HW1 5871   0.051   3.786   2.331 -1.3308  0.6296  0.8071
 1164SOL    HW2 5872   0.084   3.830   2.472 -0.0688 -0.3619  0.8380
 1165SOL     OW 5873   8.722   4.432   1.553  0.0691  0.8645 -1.1835
 1165SOL    HW1 5874   8.752   4.466   1.637  0.4093  0.3325 -1.0857
 1165SOL    HW2 5875   8.640   4.480   1.536 -0.7594 -0.0183  0.1346
 1166SOL     OW 5876   6.414   6.226   5.238  0.5806 -0.0789 -0.6372
 1166SOL    HW1 5877   6.487   6.192   5.186  1.1743  0.1853  0.0171
 1166SOL    HW2 5878   6.455   6.264   5.316 -0.1445  1.1622 -0.8243
 1167SOL     OW 5879   4.097   9.377   7.622 -0.0033 -0.0928  0.7716
 1167SOL    HW1 5880   4.147   9.365   7.541 -0.4129 -0.9047  0.6267
 1167SOL    HW2 5881   4.029   9.441   7.599 -1.3428 -1.7558 -0.1181
 1168SOL     OW 5882   3.746   1.772   8.641  0.1773 -0.4086  0.5280
 1168SOL    HW1 5883   3.766   1.815   8.558 -0.8422  0.9170  0.9313
 1168SOL    HW2 5884   3.684   1.703   8.619 -0.7329  0.4660  0.2670
 1169SOL     OW 5885   1.583   6.927   9.503 -0.1810 -0.0712  0.3162
 1169SOL    HW1 5886   1.668   6.967   9.523 -0.9120  1.7523 -0.0445
 1169SOL    HW2 5887   1.545   6.907   9.588  0.5591 -0.8672  0.4839
 1170SOL     OW 5888   9.441   7.517   3.019  0.4997  0.5914 -0.0414
 1170SOL    HW1 5889   9.536   7.523   3.014  0.4245  1.4358 -0.6930
 1170SOL    HW2 5890   9.418   7.557   3.102  0.8687 -1.9581  1.3962
 1171SOL     OW 5891   7.287   5.746   6.999  0.1707  0.1058 -0.3632
 1171SOL    HW1 5892   7.232   5.693   6.941  0.2743 -0.8323  0.3606
 1171SOL    HW2 5893   7.233   5.762   7.076  0.1738  0.9991 -0.5405
 1172SOL     OW 5894   6.684   4.820   2.608  0.8288  0.1057  0.4663
 1172SOL    HW1 5895   6.671   4.914   2.610 -0.3100  0.0081 -0.9186
 1172SOL    HW2 5896   6.643   4.791   2.526  1.4530 -1.5452  0.6864
 1173SOL     OW 5897   0.276   7.755   3.108 -0.3760  0.1234  0.2854
 1173SOL    HW1 5898   0.247   7.785   3.022  0.2723 -0.3816 -0.1208
 1173SOL    HW2 5899   0.368   7.780   3.113  0.1737 -1.7167 -0.0549
 1174SOL     OW 5900   3.247   5.552   4.597  0.2837 -0.5743  0.5949
 1174SOL    HW1 5901   3.218   5.503   4.520 -0.4353  3.0072 -1.6525
 1174SOL    HW2 5902   3.317   5.608   4.564 -1.0397  2.1667  2.1329
 1175SOL     OW 5903   8.955   8.780   1.714  0.6683  0.1689 -0.1626
 1175SOL    HW1 5904   8.999   8.738   1.640  1.9138  0.4749  0.3876
 1175SOL    HW2 5905   8.869   8.738   1.717  1.4303 -1.4714 -0.3698
 1176SOL     OW 5906   1.668   0.479   2.063  0.6286 -0.0736  0.2284
 1176SOL    HW1 5907   1.760   0.504   2.060  0.4224  0.6501 -0.5349
 1176SOL    HW2 5908   1.662   0.399   2.010  0.7247  0.2031 -0.2015
 1177SOL     OW 5909   3.038   8.499   4.434  0.1079 -0.1179  0.4660
 1177SOL    HW1 5910   2.957   8.537   4.400 -0.7028 -1.5383  0.7434
 1177SOL    HW2 5911   3.016   8.470   4.523  1.2028  0.3542  0.9145
 1178SOL     OW 5912  10.187   1.307   2.702  0.3684  0.3577 -0.6630
 1178SOL    HW1 5913  10.135   1.236   2.667 -1.9682  0.8393  1.5451
 1178SOL    HW2 5914  10.140   1.387   2.677 -0.7800  0.7562  2.3999
 1179SOL     OW 5915   0.029   2.836   3.985  0.0209 -0.0229  0.1855
 1179SOL    HW1 5916  -0.040   2.815   3.922 -0.3371  1.9085 -0.1143
 1179SOL    HW2 5917   0.110   2.832   3.934 -0.3468  2.5461 -0.7644
 1180SOL     OW 5918  10.573   7.224   9.158 -0.5457 -0.4592  0.5742
 1180SOL    HW1 5919  10.635   7.201   9.227  0.0974 -3.6951 -0.8881
 1180SOL    HW2 5920  10.488   7.195   9.192 -0.2910 -1.6493  0.2613
 1181SOL     OW 5921   0.152   9.785   2.601  0.2162  0.3164 -0.3442
 1181SOL    HW1 5922   0.177   9.705   2.646  0.6960  1.8511  2.3209
 1181SOL    HW2 5923   0.225   9.805   2.542  0.5196 -0.6576 -0.3007
 1182SOL     OW 5924   5.230   4.343   9.356 -0.6640 -0.0984  0.4009
 1182SOL    HW1 5925   5.223   4.293   9.437 -1.7928 -0.0603  0.3466
 1182SOL    HW2 5926   5.280   4.421   9.380  1.1168 -1.2059  0.4905
 1183SOL     OW 5927   3.476   8.917   8.001 -0.0120  0.0668  0.3851
 1183SOL    HW1 5928   3.473   9.003   8.043 -0.2879 -0.1498  0.8225
 1183SOL    HW2 5929   3.540   8.927   7.930 -1.6791  1.2910 -1.0424
 1184SOL     OW 5930   0.513   6.190  10.800  0.3072  0.0276  0.5207
 1184SOL    HW1 5931   0.452   6.251  10.841  1.0013  0.9285  0.2272
 1184SOL    HW2 5932   0.571   6.162  10.871  2.0564  2.2491  0.0662
 1185SOL     OW 5933   5.397   6.150  10.626 -0.6432 -0.6562 -0.2182
 1185SOL    HW1 5934   5.403   6.106  10.711  2.3923  0.9520  0.5434
 1185SOL    HW2 5935   5.345   6.228  10.643  0.6930  0.1255  0.4603
 1186SOL     OW 5936   9.812   9.102   5.138  0.8356  0.0731  0.2205
 1186SOL    HW1 5937   9.760   9.022   5.149  2.5387 -1.7475 -3.1331
 1186SOL    HW2 5938   9.902   9.071   5.133  1.8528  2.5801  1.2644
 1187SOL     OW 5939   8.625   1.728   4.281  0.6054  0.0176 -0.0972
 1187SOL    HW1 5940   8.573   1.681   4.347  1.0980 -0.8818 -0.3293
 1187SOL    HW2 5941   8.642   1.662   4.213  0.3217  0.8621 -1.0033
 1188SOL     OW 5942   5.306  10.304   9.371  0.6623 -0.4093 -0.2179
 1188SOL    HW1 5943   5.216  10.330   9.392  1.0224  0.8088 -0.1130
 1188SOL    HW2 5944   5.334  10.367   9.305  1.7974 -0.1374  0.5086
 1189SOL     OW 5945  10.543   6.338   1.668  0.1993  0.2721 -0.1230
 1189SOL    HW1 5946  10.550   6.406   1.735  1.4532  0.6952 -0.6444
 1189SOL    HW2 5947  10.453   6.307   1.674  0.3505  0.1150  1.9323
 1190SOL     OW 5948   7.672   8.053   8.835  0.2688 -0.2536 -0.1229
 1190SOL    HW1 5949   7.606   8.010   8.782 -0.9721  1.0552  0.2989
 1190SOL    HW2 5950   7.745   7.991   8.838 -2.4736 -3.8230  2.9512
 1191SOL     OW 5951   9.702   8.840   7.950 -0.1736  0.0939 -0.2330
 1191SOL    HW1 5952   9.658   8.758   7.928  1.4194 -0.8288 -0.1882
 1191SOL    HW2 5953   9.777   8.813   8.003  0.4769  1.5740 -0.3428
 1192SOL     OW 5954   3.344   7.833   9.186  0.1365 -0.1282  0.5890
 1192SOL    HW1 5955   3.256   7.863   9.164  0.3326  0.8062  1.0277
 1192SOL    HW2 5956   3.384   7.907   9.231  0.4355 -1.2741  2.2901
 1193SOL     OW 5957   7.537   0.588   4.883 -0.0879  0.2693  0.3225
 1193SOL    HW1 5958   7.566   0.672   4.846  0.2953 -0.4463 -1.0551
 1193SOL    HW2 5959   7.610   0.529   4.867 -0.4116 -0.3689  1.1642
 1194SOL     OW 5960   9.654   1.324   5.351  0.1995 -0.4198  0.5284
 1194SOL    HW1 5961   9.666   1.398   5.292  0.8172  0.2054  1.4132
 1194SOL    HW2 5962   9.559   1.322   5.368  0.1640  0.0855  0.3941
 1195SOL     OW 5963   3.288  10.161   7.122 -0.0445 -0.6148  0.5879
 1195SOL    HW1 5964   3.354  10.097   7.148  1.3899  0.8608  0.7297
 1195SOL    HW2 5965   3.258  10.131   7.036  0.3224 -1.6531  0.8051
 1196SOL     OW 5966   8.905   0.126   7.629  0.3624  0.3088 -0.5144
 1196SOL    HW1 5967   8.894   0.075   7.710  0.4702  0.4263 -0.4253
 1196SOL    HW2 5968   8.968   0.075   7.578  1.7286  1.1480  0.2590
 1197SOL     OW 5969   5.145   1.713  10.024 -0.6114 -0.1601  0.4054
 1197SOL    HW1 5970   5.201   1.707   9.947  0.5490  0.6055  1.1479
 1197SOL    HW2 5971   5.169   1.636  10.076  0.1375  0.4138  0.9422
 1198SOL     OW 5972   5.610   8.667   0.321 -0.1421  0.1157 -0.3716
 1198SOL    HW1 5973   5.696   8.701   0.295  0.7610 -0.4312  1.6714
 1198SOL    HW2 5974   5.564   8.652   0.238  2.7263 -2.1349 -1.7580
 1199SOL     OW 5975   7.506   6.398  10.557 -0.0897  0.1556  0.1150
 1199SOL    HW1 5976   7.560   6.477  10.558  1.3395 -0.6652 -2.3274
 1199SOL    HW2 5977   7.420   6.427  10.526 -0.0069  0.9452  0.6063
 1200SOL     OW 5978   4.097   2.920  10.545 -0.0701  0.4572  0.5657
 1200SOL    HW1 5979   4.066   3.006  10.514 -1.2419 -0.2573 -0.3648
 1200SOL    HW2 5980   4.165   2.941  10.609 -0.5501  2.0876  0.6118
 1201SOL     OW 5981   5.755   9.350  10.397 -0.1747  0.0596 -0.4049
 1201SOL    HW1 5982   5.762   9.393  10.312  0.5743  0.2238 -0.2680
 1201SOL    HW2 5983   5.821   9.394  10.451 -1.5257  0.8527  0.6431
 1202SOL     OW 5984   4.325   8.708   4.121  0.4760  0.1957 -0.2578
 1202SOL    HW1 5985   4.259   8.773   4.147 -0.0383 -0.1160 -0.7581
 1202SOL    HW2 5986   4.409   8.753   4.131  0.1503  0.8061 -0.2198
 1203SOL     OW 5987   8.718   2.090   9.865 -0.4202  0.0208 -0.5297
 1203SOL    HW1 5988   8.806   2.128   9.855 -1.2074  1.6241 -1.6936
 1203SOL    HW2 5989   8.701   2.096   9.959  0.4835  0.2570 -0.3686
 1204SOL     OW 5990   0.874   9.975  10.397  0.2797  0.2799  0.1935
 1204SOL    HW1 5991   0.809   9.972  10.326 -1.6022  0.2876  1.8132
 1204SOL    HW2 5992   0.848  10.052  10.449  0.9488 -0.3334  1.4628
 1205SOL     OW 5993  10.679   8.102   5.665  0.1852 -0.3524 -0.4591
 1205SOL    HW1 5994  10.655   8.013   5.688  0.4177 -0.3317 -0.1357
 1205SOL    HW2 5995  10.768   8.112   5.697  0.2551 -0.0907 -0.7318
 1206SOL     OW 5996   9.523   3.400   1.884 -0.3089 -0.0647 -0.3136
 1206SOL    HW1 5997   9.489   3.444   1.962  0.5388 -0.9303  0.5693
 1206SOL    HW2 5998   9.525   3.307   1.906 -1.8048 -0.5664 -2.0604
 1207SOL     OW 5999   1.526   9.255   1.074  0.3426 -0.2822 -0.3558
 1207SOL    HW1 6000   1.598   9.192   1.068  1.1404  0.6111 -0.4676
 1207SOL    HW2 6001   1.458   9.209   1.123  0.9630 -1.1768 -0.3053
 1208SOL     OW 6002   0.957   7.684   1.211 -0.3817 -0.6209  0.0732
 1208SOL    HW1 6003   0.987   7.726   1.292 -1.1239  0.9922 -0.4442
 1208SOL    HW2 6004   0.861   7.689   1.216 -0.4431  0.6738 -1.4401
 1209SOL     OW 6005   8.000   9.330   1.514  0.5064  0.2653 -0.2046
 1209SOL    HW1 6006   7.924   9.315   1.458  0.7354  0.0193 -0.4505
 1209SOL    HW2 6007   8.074   9.295   1.464  0.7512  0.3057  0.1270
 1210SOL     OW 6008   5.252   3.829   0.606 -0.5895  0.3783  0.8861
 1210SOL    HW1 6009   5.193   3.864   0.672 -1.5251  0.0822  0.2280
 1210SOL    HW2 6010   5.301   3.760   0.651 -0.7019  0.6645  1.4539
 1211SOL     OW 6011   9.277   1.879   2.681  0.1459 -0.5559  1.0534
 1211SOL    HW1 6012   9.352   1.889   2.740  1.4488 -1.2915 -0.4025
 1211SOL    HW2 6013   9.270   1.964   2.637  0.1441 -0.5089  1.1423
 1212SOL     OW 6014   2.613  10.771   1.918 -0.5151  0.0622  0.0066
 1212SOL    HW1 6015   2.607  10.734   1.830  1.7517 -1.2598  0.3334
 1212SOL    HW2 6016   2.698  10.814   1.920 -0.5557  0.1260  1.5289
 1213SOL     OW 6017   7.247   6.663   8.981 -0.0989 -0.0724 -0.2237
 1213SOL    HW1 6018   7.204   6.737   8.938 -1.4437 -1.2217 -0.9505
 1213SOL    HW2 6019   7.324   6.645   8.925 -1.0800 -0.6936 -1.4277
 1214SOL     OW 6020  10.351   3.004   2.020  0.3169 -0.5259 -0.2283
 1214SOL    HW1 6021  10.320   3.017   1.930 -2.3831  0.3434  0.7112
 1214SOL    HW2 6022  10.329   3.086   2.065  2.5162 -0.5660  1.0381
 1215SOL     OW 6023   5.854   8.402   4.347 -0.1802 -0.4229 -0.2360
 1215SOL    HW1 6024   5.933   8.375   4.301  1.0021 -0.3458  1.6276
 1215SOL    HW2 6025   5.796   8.326   4.342  0.9241 -1.3318  0.2752
 1216SOL     OW 6026   3.732   1.534   6.913 -0.5880 -0.6663  0.2263
 1216SOL    HW1 6027   3.772   1.449   6.934 -0.9976 -0.7569  0.6718
 1216SOL    HW2 6028   3.648   1.532   6.959 -0.4813  0.0949  0.4634
 1217SOL     OW 6029   7.044   7.918   4.898 -0.1687 -0.5935 -0.0088
 1217SOL    HW1 6030   6.973   7.882   4.846  0.9251 -2.0773 -0.5657
 1217SOL    HW2 6031   7.046   7.864   4.978  0.7869 -1.0832 -0.3429
 1218SOL     OW 6032   5.236   4.177   0.448  0.1272  0.2745  0.1080
 1218SOL    HW1 6033   5.189   4.094   0.453  2.1689 -0.9099  0.7646
 1218SOL    HW2 6034   5.184   4.237   0.501  0.0269 -1.3445  1.9719
 1219SOL     OW 6035   2.500   7.668   4.936  0.9234  0.1265 -0.5191
 1219SOL    HW1 6036   2.522   7.699   5.023  0.9112 -1.6225  0.1567
 1219SOL    HW2 6037   2.585   7.652   4.894  0.9284  0.7800 -0.7663
 1220SOL     OW 6038  10.521   8.933   7.612 -0.0370 -0.1242  0.1283
 1220SOL    HW1 6039  10.465   8.973   7.679  0.2587 -1.0838  0.9540
 1220SOL    HW2 6040  10.475   8.853   7.587 -0.7534  0.7950 -1.7041
 1221SOL     OW 6041   4.709   0.250   6.699  0.2768 -0.2032 -0.4007
 1221SOL    HW1 6042   4.737   0.160   6.684 -1.6976 -0.9498  0.1229
 1221SOL    HW2 6043   4.614   0.245   6.709  0.1456  1.9024 -0.0517
 1222SOL     OW 6044   3.912   2.847   2.062 -0.6848 -0.3900 -0.1077
 1222SOL    HW1 6045   3.910   2.767   2.009 -1.7615  0.9407 -2.2404
 1222SOL    HW2 6046   3.885   2.916   2.001  0.1402  1.5970  1.6691
 1223SOL     OW 6047   4.205   8.924   1.635 -0.0149  0.2080 -0.4425
 1223SOL    HW1 6048   4.132   8.865   1.616  0.0078  0.1302 -0.2923
 1223SOL    HW2 6049   4.171   8.983   1.702  0.7626 -1.2826  1.3504
 1224SOL     OW 6050   6.373   8.156   2.639 -0.5584 -0.1256 -0.3342
 1224SOL    HW1 6051   6.318   8.162   2.561 -1.3740  2.5457  0.3241
 1224SOL    HW2 6052   6.325   8.100   2.699 -0.9283 -0.5258 -1.0017
 1225SOL     OW 6053   3.064   6.885   1.954 -0.3705 -0.1930 -0.0176
 1225SOL    HW1 6054   3.035   6.955   1.896 -0.0293 -0.1188 -0.1021
 1225SOL    HW2 6055   3.033   6.911   2.041  0.8111  0.6964  0.1675
 1226SOL     OW 6056   9.109   3.156   0.338  0.1988  0.7864  0.1766
 1226SOL    HW1 6057   9.186   3.140   0.392  0.4775  2.5650  0.3552
 1226SOL    HW2 6058   9.125   3.241   0.296 -0.6318  0.1267 -1.6111
 1227SOL     OW 6059   5.213  10.638   4.098  0.5381 -0.3605  0.8574
 1227SOL    HW1 6060   5.128  10.610   4.064 -0.1338  0.9438  1.3883
 1227SOL    HW2 6061   5.234  10.573   4.165  0.3220 -1.1012  0.2280
 1228SOL     OW 6062  10.031   2.454   0.655 -0.2764  0.4626 -0.2925
 1228SOL    HW1 6063  10.056   2.373   0.700  1.0330  1.3059  0.5563
 1228SOL    HW2 6064  10.021   2.428   0.563 -1.2395 -0.9249  0.1703
 1229SOL     OW 6065   1.993   4.406   2.858  0.1209 -0.1682 -0.8194
 1229SOL    HW1 6066   1.919   4.381   2.913  0.0450  1.0552 -0.3179
 1229SOL    HW2 6067   2.036   4.324   2.836 -0.1253 -0.7393  0.6929
 1230SOL     OW 6068   9.043   8.139   8.904 -0.2952 -0.3900  0.3417
 1230SOL    HW1 6069   9.032   8.213   8.965  0.6032 -0.6357  0.8216
 1230SOL    HW2 6070   8.978   8.075   8.931  0.8579 -0.9853  1.8192
 1231SOL     OW 6071   7.287   7.318   2.945 -0.8070 -0.0699  0.3936
 1231SOL    HW1 6072   7.374   7.336   2.980  0.1432 -0.8581 -1.4244
 1231SOL    HW2 6073   7.285   7.364   2.860 -2.5348  0.7285  0.8130
 1232SOL     OW 6074   6.319   2.567   7.518 -0.1125  0.2813 -0.2349
 1232SOL    HW1 6075   6.359   2.489   7.480 -1.1932 -0.0060 -0.8080
 1232SOL    HW2 6076   6.336   2.560   7.612  1.4027  0.3119 -0.4815
 1233SOL     OW 6077   8.382   0.166   0.359  0.3616 -0.2613  0.4897
 1233SOL    HW1 6078   8.329   0.246   0.356 -0.3075 -0.6369  1.7987
 1233SOL    HW2 6079   8.468   0.194   0.328  0.3940  1.1916  1.7698
 1234SOL     OW 6080  10.004   7.325   2.597 -0.1886 -0.7282  0.1137
 1234SOL    HW1 6081  10.095   7.347   2.581 -0.5699  1.4526  0.7453
 1234SOL    HW2 6082  10.000   7.298   2.688 -0.0786 -1.5559 -0.1133
 1235SOL     OW 6083  10.799   9.216   0.069 -0.0461 -0.3373 -0.3430
 1235SOL    HW1 6084  10.855   9.211   0.147  1.3776 -2.0048 -1.3901
 1235SOL    HW2 6085  10.804   9.307   0.041  1.2835 -0.2243  0.2047
 1236SOL     OW 6086   5.257   6.755   0.534  0.3869  0.6732  0.1775
 1236SOL    HW1 6087   5.324   6.700   0.574  0.8237  1.6898  0.8743
 1236SOL    HW2 6088   5.227   6.704   0.458  0.6554 -0.5880  0.8896
 1237SOL     OW 6089   8.285   1.298   1.578 -0.6492 -0.3684 -0.5582
 1237SOL    HW1 6090   8.311   1.250   1.499 -0.1954 -0.8694 -0.1147
 1237SOL    HW2 6091   8.205   1.344   1.553 -1.2400 -1.5396 -0.9363
 1238SOL     OW 6092   7.603   7.987   3.620 -0.0268 -0.0212 -0.1324
 1238SOL    HW1 6093   7.577   8.054   3.684 -0.7315  0.7527 -1.1962
 1238SOL    HW2 6094   7.602   8.032   3.536  2.6045 -0.5484 -0.5475
 1239SOL     OW 6095   6.968   2.434   1.574 -0.5166  0.1112 -0.4437
 1239SOL    HW1 6096   6.943   2.526   1.563 -2.0892 -0.2833 -0.4643
 1239SOL    HW2 6097   6.902   2.386   1.523 -0.1088 -1.0550  0.1091
 1240SOL     OW 6098   5.559   2.940  10.738 -0.2162 -0.4426  0.0780
 1240SOL    HW1 6099   5.546   2.885  10.660 -0.4247  1.5029 -1.3304
 1240SOL    HW2 6100   5.579   3.027  10.703  3.2600 -0.2045  2.1628
 1241SOL     OW 6101   5.428   4.815   0.044  0.1658  0.3702 -0.7894
 1241SOL    HW1 6102   5.467   4.767  -0.029  0.9682  0.3732 -0.3742
 1241SOL    HW2 6103   5.427   4.906   0.015 -4.1800 -0.0497 -2.8773
 1242SOL     OW 6104  10.252   6.752   5.755  0.1701  0.2999  0.0524
 1242SOL    HW1 6105  10.302   6.802   5.691  0.0967  2.5230  1.6474
 1242SOL    HW2 6106  10.308   6.676   5.775  1.3824  0.9827 -0.6512
 1243SOL     OW 6107   2.338   4.439   2.320 -0.1837 -0.4679 -0.2250
 1243SOL    HW1 6108   2.276   4.451   2.248 -1.8204 -0.7880  1.0571
 1243SOL    HW2 6109   2.395   4.369   2.291 -0.2257  0.0211 -1.5710
 1244SOL     OW 6110   2.872   5.414  10.117 -0.2846  0.9984  0.2873
 1244SOL    HW1 6111   2.965   5.394  10.129  0.0154  1.6483 -0.8732
 1244SOL    HW2 6112   2.847   5.364  10.040 -0.7440  1.3335  0.2177
 1245SOL     OW 6113   5.269   4.469   4.224  0.9542 -0.1112 -0.1331
 1245SOL    HW1 6114   5.256   4.409   4.298  1.4963  0.3492  0.3505
 1245SOL    HW2 6115   5.184   4.472   4.181  0.1368  0.8755  1.4486
 1246SOL     OW 6116   2.011   9.306   0.050 -0.4520  0.5940  0.6615
 1246SOL    HW1 6117   2.074   9.258   0.105 -0.7446 -0.7090 -0.0937
 1246SOL    HW2 6118   2.058   9.322  -0.031 -1.3597 -1.3107 -0.3108
 1247SOL     OW 6119  10.143   9.800  10.048 -0.4284 -0.1917  0.1294
 1247SOL    HW1 6120  10.110   9.711  10.039  0.4751 -0.4571 -0.7243
 1247SOL    HW2 6121  10.145   9.815  10.143 -0.1834 -1.2338  0.3041
 1248SOL     OW 6122   2.598   3.196   0.067 -0.0602  0.6256  0.2096
 1248SOL    HW1 6123   2.559   3.159  -0.012 -1.5402  2.1086  0.1753
 1248SOL    HW2 6124   2.692   3.194   0.051 -0.3406  2.2594 -2.3058
 1249SOL     OW 6125   9.070   7.835   6.485 -0.0242 -0.1675 -0.3003
 1249SOL    HW1 6126   9.046   7.811   6.395  1.0523 -0.9863 -0.3817
 1249SOL    HW2 6127   9.120   7.760   6.518 -1.1043 -0.2425  1.2873
 1250SOL     OW 6128   6.702  10.736   3.716  0.4602  0.0479 -0.5430
 1250SOL    HW1 6129   6.741  10.653   3.688  0.6999 -0.9210  2.3342
 1250SOL    HW2 6130   6.766  10.772   3.777 -1.9897 -0.4649  2.5428
 1251SOL     OW 6131   3.007   8.808   9.085  0.3795  0.5149  0.2827
 1251SOL    HW1 6132   2.948   8.787   9.157  0.2565  3.2414  1.1094
 1251SOL    HW2 6133   3.094   8.795   9.122  0.3021  0.7929  0.5788
 1252SOL     OW 6134   6.572   8.897   6.575  0.3454  0.0950 -0.0095
 1252SOL    HW1 6135   6.478   8.907   6.593  0.3371 -1.0593  0.6555
 1252SOL    HW2 6136   6.601   8.830   6.636  1.2155 -0.9711 -1.5405
 1253SOL     OW 6137   6.169   6.686   8.604  0.2615  0.4197  0.3860
 1253SOL    HW1 6138   6.249   6.726   8.637  1.8751 -0.5743 -2.0257
 1253SOL    HW2 6139   6.199   6.608   8.556 -2.0650  0.3724 -1.1590
 1254SOL     OW 6140   5.343   7.202   2.687 -0.2073 -0.2522 -0.0490
 1254SOL    HW1 6141   5.359   7.108   2.679 -1.6840 -0.7410  1.9818
 1254SOL    HW2 6142   5.276   7.210   2.754  0.6984  2.3436  0.6978
 1255SOL     OW 6143   6.196   8.916   0.256 -0.5578  0.4473  0.0595
 1255SOL    HW1 6144   6.210   9.011   0.255  1.3006  0.2148 -0.2950
 1255SOL    HW2 6145   6.169   8.895   0.167  0.3084  0.4954 -0.2220
 1256SOL     OW 6146   9.714   3.781   4.531 -0.3737 -0.1873 -0.8250
 1256SOL    HW1 6147   9.806   3.767   4.557 -0.6506 -0.3593  0.1267
 1256SOL    HW2 6148   9.666   3.713   4.578 -1.1200  0.6218 -0.3840
 1257SOL     OW 6149   0.646   7.290   4.392  0.0854 -0.0466  0.5165
 1257SOL    HW1 6150   0.712   7.340   4.440  0.6826 -1.4770  1.2405
 1257SOL    HW2 6151   0.688   7.271   4.307 -0.4695  1.3690 -0.0941
 1258SOL     OW 6152   9.997   3.750   0.872 -0.2964  0.8992 -0.1337
 1258SOL    HW1 6153   9.948   3.827   0.902 -2.9862 -0.5829 -0.3942
 1258SOL    HW2 6154  10.083   3.758   0.914 -0.8226  3.4969  0.6261
 1259SOL     OW 6155  10.001   4.428   3.117 -0.0999  0.0674 -0.0819
 1259SOL    HW1 6156  10.086   4.442   3.075 -0.4316  2.3390 -0.1108
 1259SOL    HW2 6157  10.021   4.380   3.198  1.3836  1.6225  0.5181
 1260SOL     OW 6158   0.175   0.571   6.509 -0.3206  0.4924 -0.2762
 1260SOL    HW1 6159   0.127   0.637   6.559 -2.1817 -1.1434  0.1783
 1260SOL    HW2 6160   0.227   0.525   6.574 -1.2752 -0.3833 -0.1170
 1261SOL     OW 6161   8.039   4.566   5.713  0.0562  0.7898 -0.0126
 1261SOL    HW1 6162   8.101   4.625   5.671 -1.1975  2.8574  0.8659
 1261SOL    HW2 6163   8.090   4.525   5.783  0.8066  1.3851 -0.1890
 1262SOL     OW 6164   1.483   6.508  10.788 -0.5383  0.0902 -0.4560
 1262SOL    HW1 6165   1.453   6.425  10.748 -0.8280 -0.4991  0.9195
 1262SOL    HW2 6166   1.453   6.502  10.879  0.0282  1.4293 -0.1688
 1263SOL     OW 6167   9.827   3.571   7.326 -0.7129 -0.1254 -0.5689
 1263SOL    HW1 6168   9.898   3.586   7.263 -2.0634  1.3616 -1.8392
 1263SOL    HW2 6169   9.783   3.493   7.294 -0.8018  0.0614 -0.9089
 1264SOL     OW 6170   9.661   6.178   6.629 -0.3697 -0.4108 -0.7957
 1264SOL    HW1 6171   9.616   6.097   6.607  0.1366 -1.4806  1.7632
 1264SOL    HW2 6172   9.754   6.155   6.628 -0.1039  0.6027 -1.6578
 1265SOL     OW 6173   7.616   2.456   0.193 -0.6861 -0.1806 -0.2994
 1265SOL    HW1 6174   7.695   2.477   0.142  1.1804  1.3598  2.9515
 1265SOL    HW2 6175   7.566   2.538   0.194 -0.1138  0.1740  1.2415
 1266SOL     OW 6176   5.676   8.258   0.812  0.1387 -0.1369  0.3649
 1266SOL    HW1 6177   5.727   8.334   0.840  0.7208  0.1960 -1.5014
 1266SOL    HW2 6178   5.604   8.252   0.876  0.9866  0.9959  1.4575
 1267SOL     OW 6179   7.145   8.460   3.370 -0.3402  0.4197 -0.6791
 1267SOL    HW1 6180   7.071   8.508   3.332 -1.7371 -1.7379 -0.8269
 1267SOL    HW2 6181   7.179   8.406   3.298 -0.5046 -0.7848  0.1216
 1268SOL     OW 6182   3.431   9.100   0.118  0.0499 -0.9031  0.7117
 1268SOL    HW1 6183   3.424   9.004   0.123 -1.4771 -0.7537  2.2260
 1268SOL    HW2 6184   3.448   9.118   0.026  0.5766 -2.6312  0.4311
 1269SOL     OW 6185   4.865   3.692   3.709 -0.5122  0.1403  0.0835
 1269SOL    HW1 6186   4.940   3.633   3.696 -0.2995  0.0572  1.5433
 1269SOL    HW2 6187   4.807   3.672   3.636  0.8369  0.1430 -1.0423
 1270SOL     OW 6188   9.665   6.817   6.706 -0.4875 -0.3325 -0.2006
 1270SOL    HW1 6189   9.705   6.766   6.635  1.2393 -2.0463  1.8514
 1270SOL    HW2 6190   9.584   6.769   6.727 -0.1673 -0.7705  0.0466
 1271SOL     OW 6191  10.338   9.663   1.377 -0.4525 -0.3801 -0.0597
 1271SOL    HW1 6192  10.392   9.593   1.415  0.5562  0.9027  0.9371
 1271SOL    HW2 6193  10.383   9.688   1.297 -0.9037 -0.9503 -0.5059
 1272SOL     OW 6194   3.479   3.860   3.661 -0.2398 -0.4611  0.2602
 1272SOL    HW1 6195   3.447   3.818   3.581  0.6786  1.8872 -1.4680
 1272SOL    HW2 6196   3.571   3.832   3.667 -0.8335 -2.3133  1.7736
 1273SOL     OW 6197   0.430   3.629   1.697 -0.0892 -0.5313  0.0736
 1273SOL    HW1 6198   0.358   3.569   1.679  0.3717 -0.6676 -1.4738
 1273SOL    HW2 6199   0.459   3.605   1.785 -0.7093 -1.7502 -0.0244
 1274SOL     OW 6200   5.242   6.143   4.464 -0.0542  0.5577 -0.5203
 1274SOL    HW1 6201   5.228   6.120   4.556 -1.1685 -0.4040 -0.9015
 1274SOL    HW2 6202   5.249   6.059   4.419 -0.6352  0.9944 -1.4612
 1275SOL     OW 6203   1.528   8.256   2.974  0.0154 -0.0112 -0.6709
 1275SOL    HW1 6204   1.512   8.172   3.018 -0.9912  0.6522  0.3030
 1275SOL    HW2 6205   1.553   8.233   2.885 -1.0420 -1.3267 -0.6537
 1276SOL     OW 6206   0.667   1.860   2.702 -0.0431  0.4149  0.0278
 1276SOL    HW1 6207   0.674   1.774   2.744  0.5213  0.4812  0.0764
 1276SOL    HW2 6208   0.662   1.840   2.608 -3.7920  0.1179  0.1536
 1277SOL     OW 6209   6.976   8.786   3.677  0.4824 -0.3070  0.3451
 1277SOL    HW1 6210   6.904   8.777   3.613  0.1161  0.6894  0.6064
 1277SOL    HW2 6211   6.946   8.736   3.753  0.9394 -1.5403 -0.2507
 1278SOL     OW 6212   1.503   6.342   6.819  0.5138 -0.2281 -0.3339
 1278SOL    HW1 6213   1.581   6.288   6.803  0.3585 -0.5066 -0.1541
 1278SOL    HW2 6214   1.495   6.396   6.741  0.0728 -1.1935 -0.9757
 1279SOL     OW 6215   3.674   3.955   7.721  0.0719  0.1356  0.2095
 1279SOL    HW1 6216   3.660   3.923   7.810 -1.9232 -1.0239 -0.4632
 1279SOL    HW2 6217   3.635   4.043   7.721 -0.6990 -0.1940  0.2918
 1280SOL     OW 6218   3.437  10.220   8.378  0.9441  0.4132 -0.9454
 1280SOL    HW1 6219   3.528  10.195   8.361  1.6231  1.5134  0.8238
 1280SOL    HW2 6220   3.443  10.306   8.420 -0.5591 -1.2113  3.0910
 1281SOL     OW 6221   0.680   2.534   8.385  0.0662 -0.1435 -0.3691
 1281SOL    HW1 6222   0.735   2.607   8.414 -0.5164  0.4677 -0.7823
 1281SOL    HW2 6223   0.689   2.535   8.289 -1.5737  0.7103 -0.5466
 1282SOL     OW 6224   7.414   0.207   7.723  0.1946  0.1057  0.0549
 1282SOL    HW1 6225   7.491   0.219   7.777  0.9128  3.2478 -1.4377
 1282SOL    HW2 6226   7.350   0.270   7.758 -0.9247 -0.9276 -0.0664
 1283SOL     OW 6227   6.848   8.313   4.040  0.5421  0.1797 -0.3698
 1283SOL    HW1 6228   6.875   8.375   4.107  1.9074 -0.3516 -0.3928
 1283SOL    HW2 6229   6.758   8.337   4.019  0.6317  1.3441  0.5118
 1284SOL     OW 6230   2.852  10.177   6.897 -0.6753 -0.1009 -0.0199
 1284SOL    HW1 6231   2.853  10.237   6.972  0.8534 -0.6308  0.4162
 1284SOL    HW2 6232   2.760  10.152   6.887 -1.1895  1.4976  0.4386
 1285SOL     OW 6233   1.184   8.753   2.935  0.0796 -0.0281 -0.0804
 1285SOL    HW1 6234   1.248   8.714   2.994 -0.1061  0.5797  0.5257
 1285SOL    HW2 6235   1.114   8.688   2.929  0.6377 -0.6001 -0.5735
 1286SOL     OW 6236   6.769   8.890   7.035 -0.3955  0.1636  0.2454
 1286SOL    HW1 6237   6.710   8.941   7.091 -1.4620  1.1575 -1.6999
 1286SOL    HW2 6238   6.849   8.943   7.032  0.1320 -0.4930  1.7499
 1287SOL     OW 6239   9.332   4.180   4.958  0.3224  0.4317  0.2699
 1287SOL    HW1 6240   9.315   4.106   4.901  0.6220  0.5915 -0.0271
 1287SOL    HW2 6241   9.294   4.155   5.042  1.0695 -0.3534  0.3753
 1288SOL     OW 6242   2.547   3.352   5.300 -0.2774 -0.2429  0.1779
 1288SOL    HW1 6243   2.487   3.343   5.374  0.9954 -2.3639  1.0387
 1288SOL    HW2 6244   2.623   3.298   5.324  0.4983 -0.3781 -2.3388
 1289SOL     OW 6245   9.946   5.014   4.387  0.0971  0.2917 -0.1948
 1289SOL    HW1 6246   9.974   5.002   4.477  1.3254  0.1918 -0.5706
 1289SOL    HW2 6247  10.026   5.002   4.335 -0.8965 -1.3919 -1.4328
 1290SOL     OW 6248   9.281   6.222   5.381  0.3428 -0.1179  0.2396
 1290SOL    HW1 6249   9.345   6.279   5.338 -0.6113  0.0366 -1.0359
 1290SOL    HW2 6250   9.273   6.257   5.469  0.1641  1.4340 -0.3606
 1291SOL     OW 6251   7.239   7.656   1.614  0.4226  0.2266  0.3077
 1291SOL    HW1 6252   7.158   7.661   1.664 -0.7922 -0.5735 -1.4645
 1291SOL    HW2 6253   7.262   7.747   1.596 -1.9877  0.5080 -1.9716
 1292SOL     OW 6254   6.276   8.578   0.882 -0.0756  0.4843 -0.4992
 1292SOL    HW1 6255   6.369   8.563   0.899 -0.7857 -2.4287  1.4597
 1292SOL    HW2 6256   6.252   8.649   0.941  0.7747  1.0134 -0.7572
 1293SOL     OW 6257   1.319   2.894   8.086  0.1848  0.2387  0.1249
 1293SOL    HW1 6258   1.412   2.905   8.106 -0.1356  2.0973  0.8136
 1293SOL    HW2 6259   1.289   2.823   8.142  0.9001  0.5252  0.8756
 1294SOL     OW 6260  10.147   5.007   3.365 -0.0292  0.4247 -0.3411
 1294SOL    HW1 6261  10.171   4.921   3.332  2.3660  0.0589  1.9649
 1294SOL    HW2 6262  10.118   4.992   3.455 -0.9123  1.8877 -0.3394
 1295SOL     OW 6263   0.802   3.847   3.489 -1.0216 -0.7500 -0.5570
 1295SOL    HW1 6264   0.841   3.934   3.495 -3.1281  0.2571 -0.7413
 1295SOL    HW2 6265   0.870   3.794   3.448  0.6035  0.5911  0.2636
 1296SOL     OW 6266   5.188   7.634   3.462 -0.0155  0.2833 -0.0792
 1296SOL    HW1 6267   5.120   7.666   3.521  1.1841  0.1637  1.4158
 1296SOL    HW2 6268   5.269   7.673   3.494  1.0610 -1.8302 -0.0424
 1297SOL     OW 6269   0.932   7.456   8.234  0.2554  0.9489 -0.2804
 1297SOL    HW1 6270   0.877   7.524   8.272 -0.2534  0.6896 -0.5401
 1297SOL    HW2 6271   0.966   7.495   8.153  1.2937  1.4801  0.3950
 1298SOL     OW 6272   8.569   1.834   6.144  0.0847  0.0234 -0.2027
 1298SOL    HW1 6273   8.511   1.830   6.067  0.9610 -2.9317 -0.8594
 1298SOL    HW2 6274   8.635   1.767   6.127  1.1910  0.3161  2.4945
 1299SOL     OW 6275   4.687  10.683   1.904  0.4726 -0.4108 -0.4889
 1299SOL    HW1 6276   4.620  10.746   1.931  0.3077 -0.9440  0.4004
 1299SOL    HW2 6277   4.764  10.737   1.886 -0.0985  0.1801 -1.2346
 1300SOL     OW 6278   1.817   0.933   6.031 -0.3924 -0.3198 -0.6237
 1300SOL    HW1 6279   1.791   0.843   6.017  1.1845 -1.1184  1.0961
 1300SOL    HW2 6280   1.874   0.954   5.957  0.1428 -1.1370 -0.4567
 1301SOL     OW 6281   6.019   8.806   7.376  0.1103  0.3099  0.2502
 1301SOL    HW1 6282   5.965   8.875   7.336 -0.6791  0.3637  1.3547
 1301SOL    HW2 6283   6.104   8.815   7.333  0.2582  2.4687  0.8407
 1302SOL     OW 6284   1.086   5.533   0.285 -0.5351  0.0550 -0.0129
 1302SOL    HW1 6285   1.151   5.596   0.316  0.5693 -1.8256  1.8031
 1302SOL    HW2 6286   1.061   5.564   0.198  1.8829  1.5446 -0.2602
 1303SOL     OW 6287   8.156   3.244   7.926 -0.1896 -0.3008 -0.0460
 1303SOL    HW1 6288   8.223   3.242   7.857 -0.5154  1.2578 -0.4455
 1303SOL    HW2 6289   8.076   3.213   7.883 -0.3168  0.3620 -0.3066
 1304SOL     OW 6290   1.360   9.304   8.490 -0.3421 -0.2366  0.4955
 1304SOL    HW1 6291   1.406   9.230   8.529 -1.2719 -0.3014  1.5038
 1304SOL    HW2 6292   1.402   9.316   8.404  1.1876 -0.6071  1.1678
 1305SOL     OW 6293   0.548   9.624   9.323  0.1568 -0.4252 -0.0412
 1305SOL    HW1 6294   0.531   9.630   9.229 -2.1583 -0.1881  0.3391
 1305SOL    HW2 6295   0.618   9.687   9.338 -0.1785  0.3279 -1.4664
 1306SOL     OW 6296   7.042  10.762   5.460  0.2748  0.2460  0.1450
 1306SOL    HW1 6297   7.029  10.856   5.451  1.5580  0.3261 -1.4935
 1306SOL    HW2 6298   6.955  10.726   5.475 -0.2950  1.6488  0.2614
 1307SOL     OW 6299   3.689   5.224   2.115  0.1227  0.8344 -0.5124
 1307SOL    HW1 6300   3.736   5.250   2.036 -0.2153  1.0471 -0.6482
 1307SOL    HW2 6301   3.725   5.279   2.184  1.1966 -0.1083 -0.2833
 1308SOL     OW 6302   6.368   7.688  10.365  0.2146 -0.0260  0.2368
 1308SOL    HW1 6303   6.385   7.594  10.370  0.4493 -0.0302 -0.4985
 1308SOL    HW2 6304   6.326   7.709  10.448 -0.8442 -0.9985 -0.0150
 1309SOL     OW 6305   4.602   0.213   3.177  0.1165 -0.0703  0.4430
 1309SOL    HW1 6306   4.570   0.125   3.159 -0.4437  0.1355  0.4136
 1309SOL    HW2 6307   4.686   0.217   3.133 -0.1950 -0.3435 -0.1929
 1310SOL     OW 6308   1.027   7.929   9.087  0.1837  0.0667 -0.0251
 1310SOL    HW1 6309   1.007   7.957   9.176  0.2518 -0.6975  0.2426
 1310SOL    HW2 6310   1.096   7.863   9.097 -0.3654 -0.6173 -0.5648
 1311SOL     OW 6311   2.696   8.482   8.669 -0.0760  0.1547 -0.4173
 1311SOL    HW1 6312   2.623   8.494   8.729 -0.5192  1.3859 -1.1641
 1311SOL    HW2 6313   2.738   8.568   8.665  0.5184 -0.1585 -1.1254
 1312SOL     OW 6314   3.060  10.660   8.691  0.0675  0.5137  0.6857
 1312SOL    HW1 6315   3.098  10.606   8.760  0.5097  1.0841  0.8926
 1312SOL    HW2 6316   2.968  10.634   8.689  0.1529  0.1502  1.1592
 1313SOL     OW 6317  10.157   0.404   3.245  0.4007  0.6079  0.1269
 1313SOL    HW1 6318  10.101   0.331   3.217  1.0327  0.4358 -0.7511
 1313SOL    HW2 6319  10.129   0.478   3.191  2.3112  0.0205 -1.8563
 1314SOL     OW 6320   6.549   4.938   3.935  0.1270 -0.0995 -0.2492
 1314SOL    HW1 6321   6.638   4.936   3.900 -0.1598  0.6045 -1.0540
 1314SOL    HW2 6322   6.558   4.912   4.027  1.0975 -0.4850 -0.4456
 1315SOL     OW 6323   7.641   5.225   4.324  0.1635 -0.1893 -0.7154
 1315SOL    HW1 6324   7.724   5.209   4.279  1.1684  0.4147  0.8172
 1315SOL    HW2 6325   7.635   5.155   4.389 -1.1784 -0.9650 -1.6585
 1316SOL     OW 6326   0.612   8.422   7.636  0.4228  0.6573 -0.2771
 1316SOL    HW1 6327   0.639   8.404   7.726  0.2283 -0.1885 -0.3791
 1316SOL    HW2 6328   0.526   8.463   7.646  0.4289  0.6240 -0.0697
 1317SOL     OW 6329   9.552   1.042   4.095 -0.0398 -0.2432 -0.4927
 1317SOL    HW1 6330   9.511   0.956   4.094  1.0035 -0.7486 -1.6589
 1317SOL    HW2 6331   9.552   1.070   4.004 -0.5667  1.1123 -0.1083
 1318SOL     OW 6332   6.997   4.116   6.338 -0.5457  0.4321  0.1858
 1318SOL    HW1 6333   7.085   4.140   6.310 -1.1052 -0.0927 -2.2544
 1318SOL    HW2 6334   7.009   4.039   6.394  0.5679  0.6972  0.3233
 1319SOL     OW 6335   4.444   2.178   5.234  0.3172  0.3298  0.4076
 1319SOL    HW1 6336   4.515   2.185   5.298 -0.6091 -0.8567  1.6182
 1319SOL    HW2 6337   4.393   2.258   5.246  0.1945  0.1531  1.1265
 1320SOL     OW 6338   3.157   5.351   4.323 -0.4999 -0.3848  0.5277
 1320SOL    HW1 6339   3.096   5.390   4.260 -1.6044 -0.7877  1.3157
 1320SOL    HW2 6340   3.237   5.334   4.273 -0.7500  0.8990 -0.3355
 1321SOL     OW 6341   1.271   2.037  10.131 -0.6878  0.0736  0.0593
 1321SOL    HW1 6342   1.316   2.122  10.133 -1.1418  0.3549 -1.0576
 1321SOL    HW2 6343   1.258   2.019  10.038 -2.5533 -0.1669  0.3382
 1322SOL     OW 6344   2.536   6.884   1.590 -0.1770  0.2957  0.3182
 1322SOL    HW1 6345   2.616   6.927   1.559  0.9432 -2.0116 -0.1787
 1322SOL    HW2 6346   2.567   6.816   1.650 -1.7330 -0.8180 -0.0839
 1323SOL     OW 6347   8.751   5.945   5.166  0.2450 -0.2226  0.3395
 1323SOL    HW1 6348   8.774   5.943   5.258 -2.3496 -0.0946  1.0732
 1323SOL    HW2 6349   8.777   5.859   5.133  1.8902  0.0022  0.9590
 1324SOL     OW 6350   5.978   8.499   6.334  0.1575  0.3625 -0.4159
 1324SOL    HW1 6351   5.915   8.554   6.380  0.1957 -1.0574  1.4931
 1324SOL    HW2 6352   5.924   8.442   6.279 -0.0682  0.6113 -0.4554
 1325SOL     OW 6353   3.890  10.213   0.574  0.1605  0.3499 -0.0632
 1325SOL    HW1 6354   3.817  10.232   0.516 -0.3181 -1.8421 -0.2605
 1325SOL    HW2 6355   3.854  10.222   0.662 -0.1922 -0.0921 -0.1563
 1326SOL     OW 6356   1.891   1.736  10.704 -0.4809  0.0529 -0.3565
 1326SOL    HW1 6357   1.860   1.762  10.791 -1.8225  1.2040 -1.1368
 1326SOL    HW2 6358   1.947   1.808  10.676  0.3445 -0.5437 -0.2578
 1327SOL     OW 6359   1.168   6.049   5.764  0.3006  0.1948 -0.3344
 1327SOL    HW1 6360   1.197   5.998   5.687 -0.5901 -0.4093 -0.2805
 1327SOL    HW2 6361   1.117   5.987   5.815 -2.0498  1.4971 -0.9670
 1328SOL     OW 6362   3.494  10.360   9.537  0.3642  0.2358  0.8818
 1328SOL    HW1 6363   3.430  10.304   9.493  0.5975  0.1806  0.6063
 1328SOL    HW2 6364   3.442  10.421   9.588  0.0907 -1.4847  2.8077
 1329SOL     OW 6365   0.297   3.743   9.943 -0.0750 -0.0619  0.0109
 1329SOL    HW1 6366   0.221   3.705   9.987 -1.6708  1.4071 -1.2989
 1329SOL    HW2 6367   0.335   3.803  10.007 -0.5456 -0.1665  0.3889
 1330SOL     OW 6368   9.579   5.674   6.491 -0.3226  0.2149  0.2365
 1330SOL    HW1 6369   9.598   5.589   6.452  2.0516  0.8873 -0.2511
 1330SOL    HW2 6370   9.492   5.664   6.530 -0.0937 -2.4292  0.2476
 1331SOL     OW 6371   5.045   4.770   7.953  0.4024  0.2318  0.3395
 1331SOL    HW1 6372   5.006   4.825   8.021 -1.3698 -0.3939 -0.0997
 1331SOL    HW2 6373   5.123   4.732   7.994  0.3011  1.1728  1.4410
 1332SOL     OW 6374   6.638   5.844   4.817 -0.4114  0.1452 -0.0578
 1332SOL    HW1 6375   6.726   5.854   4.854 -0.1304  0.2356 -0.7379
 1332SOL    HW2 6376   6.611   5.756   4.845  0.5117 -0.5027 -1.0739
 1333SOL     OW 6377   5.438   8.657   0.868  0.2451  0.5151  0.1396
 1333SOL    HW1 6378   5.486   8.729   0.827 -1.0071  2.2170  1.4574
 1333SOL    HW2 6379   5.382   8.623   0.799  0.4493  1.2083 -0.3831
 1334SOL     OW 6380   0.358   1.531   0.782 -0.4485 -0.4793 -0.2508
 1334SOL    HW1 6381   0.375   1.437   0.782 -1.5787 -0.7187 -1.1890
 1334SOL    HW2 6382   0.304   1.546   0.859 -0.7312 -0.7091 -0.4001
 1335SOL     OW 6383   0.319   1.683   7.977 -0.6407  0.0918  0.2248
 1335SOL    HW1 6384   0.349   1.624   8.046 -0.3677 -0.2549 -0.1839
 1335SOL    HW2 6385   0.352   1.644   7.896 -2.5632 -0.5392 -0.3019
 1336SOL     OW 6386   4.308   9.758   6.589 -0.4050 -0.5363 -0.2617
 1336SOL    HW1 6387   4.356   9.828   6.632 -1.3683  1.4052 -2.1644
 1336SOL    HW2 6388   4.220   9.763   6.625 -0.1660 -1.6454  0.5195
 1337SOL     OW 6389   7.147   5.592   4.157 -0.4528  0.2192  0.2390
 1337SOL    HW1 6390   7.111   5.678   4.135 -1.6295  0.1039  1.5380
 1337SOL    HW2 6391   7.115   5.534   4.088 -2.6618  0.1796  1.2128
 1338SOL     OW 6392   1.141   6.948   7.492 -0.2685  0.3068  0.0041
 1338SOL    HW1 6393   1.196   6.890   7.439  1.2390  0.9237  0.8134
 1338SOL    HW2 6394   1.164   7.036   7.462  1.3478  0.7361  2.2236
 1339SOL     OW 6395   3.934   7.039   8.467  0.6080 -0.0460 -0.0906
 1339SOL    HW1 6396   3.981   7.117   8.437  1.2157 -0.4669 -0.2581
 1339SOL    HW2 6397   3.892   7.067   8.548 -0.0591  0.7589 -0.6914
 1340SOL     OW 6398   1.109   7.777   7.345  0.1819 -0.4435 -0.0452
 1340SOL    HW1 6399   1.035   7.763   7.285 -0.4234 -0.4493  0.6888
 1340SOL    HW2 6400   1.078   7.745   7.429  1.4376 -1.5379  0.0400
 1341SOL     OW 6401   3.969   1.993   0.836  0.2764  0.1683 -0.0765
 1341SOL    HW1 6402   4.013   1.934   0.775  1.4038 -0.4766  1.2992
 1341SOL    HW2 6403   3.877   1.994   0.808  0.5464 -1.0350 -1.0457
 1342SOL     OW 6404   4.416   3.643   2.366 -0.0726  0.7636  0.0805
 1342SOL    HW1 6405   4.494   3.598   2.334 -0.5818 -0.3498  0.3524
 1342SOL    HW2 6406   4.392   3.705   2.297 -0.5748 -0.8708 -1.2675
 1343SOL     OW 6407   9.911   0.103   6.412  0.4210  0.1981 -1.2180
 1343SOL    HW1 6408   9.885   0.154   6.335  1.1247 -1.4525 -2.6097
 1343SOL    HW2 6409   9.851   0.028   6.413 -0.1143  0.6015  0.3557
 1344SOL     OW 6410   4.154   1.750   6.768  0.0007 -0.3366  0.2551
 1344SOL    HW1 6411   4.166   1.655   6.777  0.9858 -0.2727 -0.2269
 1344SOL    HW2 6412   4.060   1.762   6.760 -0.2047 -1.2039  1.1460
 1345SOL     OW 6413   7.079   1.532   6.429  0.0001  0.2966  0.6974
 1345SOL    HW1 6414   7.143   1.581   6.480  1.5991 -1.0093  0.0169
 1345SOL    HW2 6415   7.026   1.487   6.494  0.3245  0.7030  1.2519
 1346SOL     OW 6416   5.511   5.047   1.473 -0.1940  0.2337 -0.3095
 1346SOL    HW1 6417   5.578   4.978   1.475  1.1018  1.4532  1.5587
 1346SOL    HW2 6418   5.523   5.089   1.387 -0.4966 -1.3199 -1.1529
 1347SOL     OW 6419   7.534  10.191   5.140  0.0120  0.1804 -0.2569
 1347SOL    HW1 6420   7.542  10.205   5.234 -0.2077 -1.1038 -0.0229
 1347SOL    HW2 6421   7.447  10.222   5.117 -0.6545 -1.1707  0.3258
 1348SOL     OW 6422   9.346   3.945   8.046  0.2063  0.5687 -0.0521
 1348SOL    HW1 6423   9.262   3.965   8.087 -0.0132 -1.9632  0.8652
 1348SOL    HW2 6424   9.324   3.896   7.967  0.7828 -1.1695  0.8131
 1349SOL     OW 6425   6.923   5.882   2.929 -0.1927  0.9558 -0.6535
 1349SOL    HW1 6426   6.835   5.895   2.967  1.0304 -0.9805  3.4468
 1349SOL    HW2 6427   6.930   5.788   2.917  1.5075  0.9892 -0.2188
 1350SOL     OW 6428   3.473   0.375   0.627 -0.1131  1.1658  0.3908
 1350SOL    HW1 6429   3.473   0.286   0.592 -0.0764  0.7576  1.3847
 1350SOL    HW2 6430   3.504   0.429   0.555 -2.3122  0.7021 -1.0110
 1351SOL     OW 6431   9.639   5.959   8.080  0.2358  0.1577 -0.1511
 1351SOL    HW1 6432   9.716   6.013   8.098 -0.1026  1.1232 -1.4147
 1351SOL    HW2 6433   9.570   5.996   8.135  0.8168 -1.2124  1.5903
 1352SOL     OW 6434   4.943   8.242   5.145  0.0191  0.9863 -0.0445
 1352SOL    HW1 6435   4.962   8.215   5.235 -2.0641 -0.4965  0.0183
 1352SOL    HW2 6436   4.918   8.334   5.153 -0.8389  0.6870  1.0453
 1353SOL     OW 6437  10.081   7.554   2.850 -0.6378 -0.0635  0.1462
 1353SOL    HW1 6438  10.036   7.472   2.869  0.7815 -1.0087 -0.4328
 1353SOL    HW2 6439  10.089   7.597   2.935 -1.5775 -0.3994  0.4208
 1354SOL     OW 6440   1.289   6.040   5.272 -0.3638  0.0415 -0.2769
 1354SOL    HW1 6441   1.243   5.984   5.334 -0.5466 -0.7237 -1.0743
 1354SOL    HW2 6442   1.342   6.099   5.326 -1.3675  0.1480  0.6229
 1355SOL     OW 6443   2.666   7.808   6.097  0.5734  0.5774 -0.2861
 1355SOL    HW1 6444   2.678   7.717   6.124  0.0795  0.2736 -1.0679
 1355SOL    HW2 6445   2.632   7.851   6.176  0.9838  0.1370  0.1431
 1356SOL     OW 6446   7.896   5.484   2.764  0.4757 -0.2412 -0.1985
 1356SOL    HW1 6447   7.977   5.493   2.714 -0.3889  0.0672 -1.5686
 1356SOL    HW2 6448   7.848   5.565   2.747  1.3886  1.2967  3.5012
 1357SOL     OW 6449   3.657   5.227  10.468 -0.3205 -0.3301 -0.0797
 1357SOL    HW1 6450   3.674   5.196  10.557  1.3393 -0.6157 -0.4491
 1357SOL    HW2 6451   3.610   5.155  10.426  1.8269 -1.6687 -0.3693
 1358SOL     OW 6452   7.796   5.764   5.002  0.0513 -0.7847 -0.2723
 1358SOL    HW1 6453   7.713   5.766   5.050  0.2317  1.5004  0.0600
 1358SOL    HW2 6454   7.863   5.753   5.069  0.2590  1.7804  0.0414
 1359SOL     OW 6455   7.971   1.924   8.140 -0.4389  0.2903  0.0181
 1359SOL    HW1 6456   7.999   2.016   8.139 -2.7651  1.0718 -2.1894
 1359SOL    HW2 6457   8.047   1.876   8.107  0.2682  1.6118 -0.3476
 1360SOL     OW 6458   7.590   8.518   5.231  0.0305  0.2090  0.2361
 1360SOL    HW1 6459   7.582   8.583   5.300 -0.5231  0.5057 -0.1002
 1360SOL    HW2 6460   7.680   8.530   5.198  0.0290  0.6124  0.3671
 1361SOL     OW 6461   5.832   1.964   1.586 -0.4294  0.3151  0.2362
 1361SOL    HW1 6462   5.883   1.960   1.506 -0.7900  1.4060 -0.0637
 1361SOL    HW2 6463   5.758   1.906   1.570 -0.4475  0.4512 -0.1861
 1362SOL     OW 6464   7.424   3.193   0.095 -0.0776 -0.0422  0.0513
 1362SOL    HW1 6465   7.420   3.105   0.058  0.0658  0.7055 -1.8455
 1362SOL    HW2 6466   7.373   3.247   0.034  2.0762  1.6736 -0.3419
 1363SOL     OW 6467   8.176   3.864   7.746  0.4130  0.0905 -0.1481
 1363SOL    HW1 6468   8.159   3.920   7.821 -0.9782 -1.2890  0.6136
 1363SOL    HW2 6469   8.163   3.920   7.670  1.7578  1.4831  0.5973
 1364SOL     OW 6470   5.292  10.538   3.845  0.7877 -0.0348 -0.0379
 1364SOL    HW1 6471   5.199  10.532   3.820  1.1765  0.1754 -1.6329
 1364SOL    HW2 6472   5.290  10.575   3.933 -0.6840 -1.0413  0.4000
 1365SOL     OW 6473   1.771   7.574   6.738 -0.1718  0.2468  0.0820
 1365SOL    HW1 6474   1.828   7.506   6.774  0.1341 -0.8405 -2.2433
 1365SOL    HW2 6475   1.685   7.533   6.734 -0.4727  0.8062  0.7597
 1366SOL     OW 6476   1.122   0.103   4.984 -0.2971 -0.0744 -0.6346
 1366SOL    HW1 6477   1.195   0.164   4.992  0.7633 -1.5441  3.3324
 1366SOL    HW2 6478   1.045   0.157   5.004  0.2246  0.6306 -0.4537
 1367SOL     OW 6479   9.729   4.790   0.587  0.6966  0.0073 -0.2144
 1367SOL    HW1 6480   9.817   4.821   0.563  0.6385 -0.9190 -1.7958
 1367SOL    HW2 6481   9.670   4.835   0.526  0.4314 -1.6752 -1.2802
 1368SOL     OW 6482   3.669   0.776   8.763  0.0472  0.0289  0.2947
 1368SOL    HW1 6483   3.749   0.743   8.722 -0.2042  0.5015 -0.6050
 1368SOL    HW2 6484   3.638   0.703   8.817  1.4626  0.0896  1.2426
 1369SOL     OW 6485   5.680   2.364   5.822  0.5896 -0.0224 -0.3236
 1369SOL    HW1 6486   5.683   2.458   5.804 -0.0022 -0.3437 -2.3464
 1369SOL    HW2 6487   5.735   2.325   5.754 -1.6902 -1.3409 -1.5436
 1370SOL     OW 6488   5.288   6.816   8.295  0.3126  0.3670  0.0738
 1370SOL    HW1 6489   5.270   6.727   8.267  0.2131 -0.1417  1.6626
 1370SOL    HW2 6490   5.372   6.837   8.254  0.5571 -0.6295  0.0376
 1371SOL     OW 6491   0.307   9.627   1.124 -0.0812 -0.0015  0.5978
 1371SOL    HW1 6492   0.372   9.561   1.100  0.6216  1.1718 -0.9447
 1371SOL    HW2 6493   0.252   9.635   1.046  0.4924  1.9360  0.3318
 1372SOL     OW 6494   4.092   5.994   2.347  0.0080 -0.1945 -0.2023
 1372SOL    HW1 6495   4.167   6.033   2.302 -0.1277 -0.3969 -0.6078
 1372SOL    HW2 6496   4.072   5.914   2.297  0.0887 -0.6216  0.4347
 1373SOL     OW 6497   2.950   1.531   5.104 -0.4089  0.2046 -0.2182
 1373SOL    HW1 6498   2.936   1.625   5.098  1.3741  0.4809 -0.3803
 1373SOL    HW2 6499   2.998   1.508   5.024  1.1517 -0.4402  0.8663
 1374SOL     OW 6500   7.940   6.986   1.987 -0.1944 -0.2928 -0.0941
 1374SOL    HW1 6501   7.990   6.982   2.068 -2.2344 -0.4131  1.2297
 1374SOL    HW2 6502   7.957   7.074   1.953 -0.4650  0.3139  1.2712
 1375SOL     OW 6503   3.676   1.857   8.177 -0.2803  0.7785 -0.1527
 1375SOL    HW1 6504   3.685   1.780   8.232  0.7962  0.1911 -1.1219
 1375SOL    HW2 6505   3.590   1.847   8.136  0.3129 -0.5271 -1.1583
 1376SOL     OW 6506   9.710   1.674   8.185 -0.0937 -0.1676 -0.3057
 1376SOL    HW1 6507   9.665   1.732   8.246  0.9638  0.0198  0.3373
 1376SOL    HW2 6508   9.690   1.586   8.216 -0.3991 -0.0974 -0.3060
 1377SOL     OW 6509   6.905   7.307  10.312  0.1730 -0.0786 -0.0445
 1377SOL    HW1 6510   6.825   7.355  10.287 -0.0660  1.0723  2.6075
 1377SOL    HW2 6511   6.883   7.266  10.395  1.9020 -0.9939 -0.0018
 1378SOL     OW 6512   9.349   3.007   2.957 -0.0799  0.4292  0.1243
 1378SOL    HW1 6513   9.302   2.926   2.977 -0.6176  1.1221  1.8526
 1378SOL    HW2 6514   9.358   3.007   2.862 -2.9468 -0.1209 -0.2427
 1379SOL     OW 6515   4.830   0.188   0.193 -0.1644  0.9698 -0.0867
 1379SOL    HW1 6516   4.918   0.212   0.223 -0.0466  0.6335 -0.1593
 1379SOL    HW2 6517   4.775   0.195   0.271 -0.1272  1.4555 -0.1035
 1380SOL     OW 6518   9.545   0.119   4.091  0.2135  0.1293 -0.3354
 1380SOL    HW1 6519   9.516   0.043   4.141 -1.1588 -0.2509 -1.6468
 1380SOL    HW2 6520   9.597   0.083   4.020 -0.6448  0.3638 -1.1044
 1381SOL     OW 6521   5.325   2.578  10.074 -0.4058 -0.1861  0.5659
 1381SOL    HW1 6522   5.385   2.524  10.127  0.3231  0.7978  0.7702
 1381SOL    HW2 6523   5.383   2.635  10.023 -1.0832 -1.3146 -1.5643
 1382SOL     OW 6524   2.396   5.902   1.041 -0.1720 -0.3676  0.4901
 1382SOL    HW1 6525   2.373   5.836   1.107 -0.2739 -0.0403  0.7865
 1382SOL    HW2 6526   2.315   5.916   0.992 -0.0267 -0.8111  0.1088
 1383SOL     OW 6527   0.160   8.501   1.073 -0.3290 -0.1129  0.8658
 1383SOL    HW1 6528   0.182   8.448   1.150 -0.1415  0.2097  1.0349
 1383SOL    HW2 6529   0.171   8.441   0.999  0.4071 -0.1616  1.0081
 1384SOL     OW 6530   7.906   1.776   2.404  0.2143 -0.1544 -0.4741
 1384SOL    HW1 6531   7.815   1.805   2.395  0.8565  1.9152 -0.7933
 1384SOL    HW2 6532   7.899   1.691   2.447 -1.8199  0.7352  1.1766
 1385SOL     OW 6533   9.028   5.435   6.253  0.4285  0.3922 -0.4861
 1385SOL    HW1 6534   9.040   5.361   6.314 -0.3096  1.7155  1.3703
 1385SOL    HW2 6535   8.955   5.408   6.197  1.5549 -1.1306 -1.2962
 1386SOL     OW 6536   2.540   2.256   2.101  0.0350 -0.1936 -0.4146
 1386SOL    HW1 6537   2.517   2.285   2.189  1.2487 -2.0197  0.5553
 1386SOL    HW2 6538   2.633   2.277   2.092  0.1088 -0.7130 -0.9460
 1387SOL     OW 6539   8.668   2.930   5.984 -0.0669  0.4712 -0.0547
 1387SOL    HW1 6540   8.608   2.920   5.910 -1.1662  2.5947  0.4712
 1387SOL    HW2 6541   8.741   2.981   5.948 -0.8042  1.8729  0.3903
 1388SOL     OW 6542   4.157   0.839   0.289  0.3231 -0.9267 -0.2574
 1388SOL    HW1 6543   4.206   0.820   0.370  1.3638 -0.5944 -0.7904
 1388SOL    HW2 6544   4.098   0.910   0.313  1.6384  0.1712 -0.1274
 1389SOL     OW 6545   5.801   8.584  10.615  0.2889  0.1694  0.1176
 1389SOL    HW1 6546   5.832   8.527  10.685  2.0322 -0.1876 -0.8996
 1389SOL    HW2 6547   5.765   8.524  10.549  0.4213  0.3717 -0.1424
 1390SOL     OW 6548   1.914   0.889   7.655 -0.0362 -0.4172  0.4247
 1390SOL    HW1 6549   1.980   0.927   7.597 -0.0502 -0.9007  0.0898
 1390SOL    HW2 6550   1.900   0.800   7.622 -0.1575 -0.6493  1.0768
 1391SOL     OW 6551   6.287   8.976   9.202  0.6515 -0.6357  0.2597
 1391SOL    HW1 6552   6.326   8.891   9.180  1.0865 -0.3285 -0.1924
 1391SOL    HW2 6553   6.337   9.007   9.278 -0.1373 -1.2045  1.0356
 1392SOL     OW 6554   4.301   0.741   3.612 -0.2901  0.2376 -0.5971
 1392SOL    HW1 6555   4.221   0.751   3.663  1.0281  0.6699  1.5009
 1392SOL    HW2 6556   4.338   0.829   3.606  0.2326 -0.0108 -1.2322
 1393SOL     OW 6557   2.854   3.748   1.020 -0.1801 -0.1381 -0.2638
 1393SOL    HW1 6558   2.898   3.824   1.057 -0.5853 -0.2752  0.5269
 1393SOL    HW2 6559   2.802   3.713   1.092 -0.8927 -0.4970 -0.9372
 1394SOL     OW 6560   2.608   3.288   7.249 -0.4271  0.1940  0.3839
 1394SOL    HW1 6561   2.634   3.197   7.262  2.1903  0.1370 -3.5749
 1394SOL    HW2 6562   2.584   3.293   7.156  1.5342  3.9051 -0.1020
 1395SOL     OW 6563   6.103   4.837   2.507  0.4057 -0.1463  0.3420
 1395SOL    HW1 6564   6.032   4.796   2.556 -0.3858  1.3751  0.5245
 1395SOL    HW2 6565   6.061   4.874   2.429  0.3548  3.2994  1.8393
 1396SOL     OW 6566   6.357   2.859   1.695 -0.1514 -0.0991  0.0573
 1396SOL    HW1 6567   6.402   2.819   1.770 -1.8630 -1.5561  0.3997
 1396SOL    HW2 6568   6.412   2.838   1.620  0.5023 -0.5112  0.6378
 1397SOL     OW 6569   4.496   8.550   1.240 -0.0555  0.0519  0.6374
 1397SOL    HW1 6570   4.554   8.484   1.203  0.4003  0.6286  0.3300
 1397SOL    HW2 6571   4.454   8.591   1.165 -1.2085 -0.6523  0.8634
 1398SOL     OW 6572   2.647   4.043   7.077 -0.4569 -0.4606  0.6995
 1398SOL    HW1 6573   2.706   3.970   7.060  0.5077  0.5536 -0.5969
 1398SOL    HW2 6574   2.620   4.072   6.990 -0.4200  1.0160  1.1465
 1399SOL     OW 6575   1.885   1.716   9.232  0.2766  0.2778 -0.2141
 1399SOL    HW1 6576   1.795   1.694   9.209 -0.1088  0.9690  0.5991
 1399SOL    HW2 6577   1.926   1.632   9.251  0.5043 -0.3067 -2.9019
 1400SOL     OW 6578   6.375   8.469   8.634  0.6468  0.4134  0.4991
 1400SOL    HW1 6579   6.425   8.475   8.552  0.1545 -2.8365 -0.1839
 1400SOL    HW2 6580   6.439   8.481   8.703  1.3195  1.8184 -0.3274
 1401SOL     OW 6581   2.286   6.707   9.988 -0.0437 -0.3343  0.2614
 1401SOL    HW1 6582   2.236   6.693   9.907  0.0366  0.9381 -0.0255
 1401SOL    HW2 6583   2.331   6.624  10.002 -1.3335 -1.1369 -0.0965
 1402SOL     OW 6584   5.184   7.236   2.902  0.4478  0.0637  0.1747
 1402SOL    HW1 6585   5.197   7.240   2.997  0.0216  1.9352  0.1920
 1402SOL    HW2 6586   5.105   7.286   2.886  0.7278  0.1053 -1.2142
 1403SOL     OW 6587   6.892  10.556   8.682 -0.5906 -0.0335 -0.3788
 1403SOL    HW1 6588   6.918  10.496   8.612  0.4256  0.9375 -0.8648
 1403SOL    HW2 6589   6.797  10.546   8.688 -0.4205 -1.8268 -0.2954
 1404SOL     OW 6590   6.287   0.573   8.140  0.1931  0.5682 -0.6440
 1404SOL    HW1 6591   6.348   0.646   8.148 -0.3724  1.2299 -1.9327
 1404SOL    HW2 6592   6.205   0.606   8.175  0.5870 -0.3988  1.3045
 1405SOL     OW 6593   6.940   2.593   2.307  0.2663  0.1326  0.4293
 1405SOL    HW1 6594   7.010   2.543   2.350 -1.0094 -2.4955 -0.3457
 1405SOL    HW2 6595   6.886   2.625   2.379  0.8888  0.0346  0.9484
 1406SOL     OW 6596   5.703   8.599   2.190  0.5404  0.5444 -0.5823
 1406SOL    HW1 6597   5.707   8.523   2.132 -0.7654  1.2884 -1.7406
 1406SOL    HW2 6598   5.794   8.628   2.199  0.7969  0.3732 -2.2735
 1407SOL     OW 6599  10.423   3.635   8.944  0.5302 -0.2144  0.4531
 1407SOL    HW1 6600  10.400   3.721   8.982 -1.8580 -1.1191  1.2727
 1407SOL    HW2 6601  10.404   3.573   9.014  1.5614 -1.5022 -0.3695
 1408SOL     OW 6602   9.114   1.762   4.632  0.2695 -0.0765  0.3324
 1408SOL    HW1 6603   9.045   1.732   4.573 -1.6939  2.3831  1.2395
 1408SOL    HW2 6604   9.156   1.681   4.662  0.1103 -1.5246 -2.8563
 1409SOL     OW 6605  10.212   9.949   0.462 -0.0949 -0.6469  0.2955
 1409SOL    HW1 6606  10.126   9.979   0.491 -0.4015 -1.1158 -0.1059
 1409SOL    HW2 6607  10.272   9.978   0.530 -0.4090  0.6319  0.0722
 1410SOL     OW 6608   6.478   9.811   5.300  0.0969  0.9837 -0.3489
 1410SOL    HW1 6609   6.565   9.775   5.287 -0.4378  0.0470 -1.4487
 1410SOL    HW2 6610   6.418   9.744   5.267 -1.1239  1.0167  1.6290
 1411SOL     OW 6611   4.027   9.667   4.384 -0.2042  0.1945 -0.3870
 1411SOL    HW1 6612   4.089   9.596   4.400  0.4377  0.5173 -1.3470
 1411SOL    HW2 6613   4.012   9.705   4.471 -0.8711 -1.3448  0.1991
 1412SOL     OW 6614   5.960   6.381   5.089 -0.6807  0.0679 -0.5263
 1412SOL    HW1 6615   6.040   6.353   5.134 -0.7341 -1.8635 -1.5281
 1412SOL    HW2 6616   5.889   6.338   5.138 -0.9510  0.1608 -0.8331
 1413SOL     OW 6617   5.793   5.464   2.539 -0.4525 -0.4394  0.5952
 1413SOL    HW1 6618   5.879   5.501   2.562 -0.2858 -0.4046 -0.0790
 1413SOL    HW2 6619   5.804   5.370   2.552 -0.0435 -0.5253 -0.3207
 1414SOL     OW 6620   1.519   2.093   7.329 -0.6759 -0.3841 -0.0877
 1414SOL    HW1 6621   1.562   2.167   7.287  0.8114 -1.3143 -0.2688
 1414SOL    HW2 6622   1.447   2.070   7.270  0.2650 -0.5169 -1.2213
 1415SOL     OW 6623   9.892   7.213   7.758  0.5531  0.0884 -0.3450
 1415SOL    HW1 6624   9.824   7.263   7.714  1.1215  2.4193  1.2445
 1415SOL    HW2 6625   9.867   7.214   7.851  2.1109 -0.0471  0.1021
 1416SOL     OW 6626   4.168   8.200   7.860  0.0489  0.1041  0.1546
 1416SOL    HW1 6627   4.238   8.189   7.924  0.1233 -0.7694 -0.0686
 1416SOL    HW2 6628   4.207   8.174   7.776 -0.8915 -1.7120  0.2244
 1417SOL     OW 6629   3.210   2.082   2.585 -0.7998  0.0710 -0.5279
 1417SOL    HW1 6630   3.297   2.070   2.549  0.1206  0.9770  1.2409
 1417SOL    HW2 6631   3.172   1.995   2.587  0.6953 -0.5903  0.1343
 1418SOL     OW 6632   2.196  10.656   5.475  0.2199 -0.5182 -0.7456
 1418SOL    HW1 6633   2.106  10.634   5.451 -0.1221 -0.1449  0.1297
 1418SOL    HW2 6634   2.236  10.688   5.395 -0.9683  1.0403 -0.7694
 1419SOL     OW 6635   2.667   6.160   5.063  0.0903 -0.0875  0.1921
 1419SOL    HW1 6636   2.641   6.070   5.044  1.4483 -1.6218  4.3877
 1419SOL    HW2 6637   2.763   6.155   5.072  0.1846  1.7538  0.4903
 1420SOL     OW 6638   6.013   8.707   7.618 -0.2239 -0.0422  0.2910
 1420SOL    HW1 6639   6.021   8.748   7.532 -1.8134 -0.6326 -0.1745
 1420SOL    HW2 6640   5.964   8.770   7.671 -1.3758 -0.6929  0.0177
 1421SOL     OW 6641   9.510   2.159   2.280  0.0988  0.3426 -0.1444
 1421SOL    HW1 6642   9.489   2.067   2.295 -0.1139  0.6643  1.7716
 1421SOL    HW2 6643   9.596   2.171   2.320  0.6134  0.7736 -1.3064
 1422SOL     OW 6644   6.563   3.573   9.008 -0.0231 -0.2393 -0.0687
 1422SOL    HW1 6645   6.503   3.544   8.940 -0.7794 -1.4337  1.0504
 1422SOL    HW2 6646   6.513   3.564   9.089  0.6689  1.6312  0.6203
 1423SOL     OW 6647   8.713   1.757   9.117 -0.5817  0.2224 -0.1421
 1423SOL    HW1 6648   8.645   1.690   9.119  0.0193 -0.5783 -2.7053
 1423SOL    HW2 6649   8.795   1.708   9.109 -0.1194  1.1993 -1.8961
 1424SOL     OW 6650  10.293   1.594   0.926  0.5619 -0.5661 -0.0382
 1424SOL    HW1 6651  10.256   1.580   0.838  0.1599 -2.1733  0.3616
 1424SOL    HW2 6652  10.303   1.689   0.932  1.4323 -0.4714 -2.1533
 1425SOL     OW 6653   8.942   1.281   4.091 -0.7986  0.3962 -0.4198
 1425SOL    HW1 6654   8.970   1.315   4.006  0.0200  0.1530 -0.2585
 1425SOL    HW2 6655   8.974   1.191   4.093 -2.2315 -0.1393 -0.5080
 1426SOL     OW 6656  10.309   5.425   9.781 -0.0316 -0.3164 -0.0712
 1426SOL    HW1 6657  10.265   5.501   9.819  0.5891  0.5928 -1.1172
 1426SOL    HW2 6658  10.340   5.375   9.857 -0.9660  0.1593  0.6353
 1427SOL     OW 6659   2.566   8.194   5.705  0.0667  0.5306  0.3070
 1427SOL    HW1 6660   2.479   8.215   5.739 -0.9324 -1.2586 -0.9719
 1427SOL    HW2 6661   2.570   8.098   5.707  1.7965  0.5598 -0.1885
 1428SOL     OW 6662   2.028   8.461   6.904 -0.6038 -0.1221  0.0143
 1428SOL    HW1 6663   1.961   8.481   6.839  2.3648  0.1415 -3.2718
 1428SOL    HW2 6664   2.061   8.547   6.932  1.3961 -0.1365 -2.0057
 1429SOL     OW 6665   2.224   0.448   9.607 -0.1240 -0.1115 -0.9232
 1429SOL    HW1 6666   2.197   0.479   9.521  0.8680 -0.8253 -1.5162
 1429SOL    HW2 6667   2.180   0.506   9.669 -0.8222  0.4340 -1.9098
 1430SOL     OW 6668  10.491   6.138   1.971  0.2817 -0.1026  0.3283
 1430SOL    HW1 6669  10.468   6.159   1.880 -0.0948 -0.4812  0.3359
 1430SOL    HW2 6670  10.408   6.124   2.015  0.4798 -0.3381  0.6361
 1431SOL     OW 6671   9.678   8.486   2.927 -0.4760  0.0630 -0.2981
 1431SOL    HW1 6672   9.756   8.450   2.885 -0.2067  1.4065 -0.9874
 1431SOL    HW2 6673   9.644   8.550   2.864 -2.3166 -0.6921 -0.1583
 1432SOL     OW 6674   9.623   8.540   0.482  0.3872  0.1131  0.5070
 1432SOL    HW1 6675   9.676   8.466   0.452  0.6285 -0.0574  1.3104
 1432SOL    HW2 6676   9.630   8.605   0.412  1.7515  0.1327  0.6353
 1433SOL     OW 6677   7.770   9.415   8.512 -0.4537 -0.2294 -0.2169
 1433SOL    HW1 6678   7.767   9.458   8.598 -1.6714 -1.3068  0.3121
 1433SOL    HW2 6679   7.855   9.441   8.475  0.1989  0.0624  1.4068
 1434SOL     OW 6680  10.579  10.390   0.341  0.3326 -0.5271  0.3991
 1434SOL    HW1 6681  10.609  10.370   0.252  0.4646  1.1307  0.0431
 1434SOL    HW2 6682  10.654  10.370   0.397 -0.4299 -3.7286  0.4921
 1435SOL     OW 6683  10.421  10.262   5.143 -0.5132  0.1348 -0.1345
 1435SOL    HW1 6684  10.490  10.327   5.135 -0.5614  0.3542  0.9718
 1435SOL    HW2 6685  10.464  10.187   5.185 -0.5123 -0.4633 -1.1820
 1436SOL     OW 6686   5.733  10.308  10.448 -0.4851 -0.5716 -0.4217
 1436SOL    HW1 6687   5.683  10.353  10.380  1.6175  0.9872 -1.0652
 1436SOL    HW2 6688   5.669  10.287  10.516 -1.7964  2.9158 -0.3711
 1437SOL     OW 6689   9.938   0.852   4.711  0.2889  0.0678 -0.6285
 1437SOL    HW1 6690  10.033   0.841   4.713  0.1124 -1.5503 -0.1189
 1437SOL    HW2 6691   9.911   0.808   4.630 -0.0956 -0.0709 -0.4243
 1438SOL     OW 6692   6.326   2.330   4.820  0.4567 -0.1680 -0.1257
 1438SOL    HW1 6693   6.230   2.331   4.830  0.5171 -0.0589  0.4585
 1438SOL    HW2 6694   6.340   2.282   4.738 -0.0440 -1.4873  0.5190
 1439SOL     OW 6695   0.547   0.790   3.623  0.1944  0.1796  0.4175
 1439SOL    HW1 6696   0.573   0.846   3.550 -0.2722  0.3308  0.3589
 1439SOL    HW2 6697   0.463   0.753   3.595  1.5406 -2.3850 -0.5649
 1440SOL     OW 6698   9.693  10.696   4.642  0.7093 -0.6767  0.4128
 1440SOL    HW1 6699   9.623  10.652   4.594  0.1740 -1.3861  1.7960
 1440SOL    HW2 6700   9.648  10.742   4.713  1.2839  1.8351 -0.7193
 1441SOL     OW 6701   1.583   4.525   2.204 -0.2068 -0.3757 -0.4089
 1441SOL    HW1 6702   1.492   4.514   2.175 -0.2734  0.9175 -0.7569
 1441SOL    HW2 6703   1.609   4.438   2.234 -1.1684 -1.0509 -1.4345
 1442SOL     OW 6704   1.928   8.977   3.101  0.1269  0.7799 -0.2051
 1442SOL    HW1 6705   1.987   9.033   3.051  0.0136  1.1346  0.0490
 1442SOL    HW2 6706   1.865   9.038   3.141  0.5532  0.5641  0.8155
 1443SOL     OW 6707   5.940   6.449   6.136  0.0085  0.2478  0.4049
 1443SOL    HW1 6708   5.847   6.430   6.142  0.0089 -0.1173 -0.5734
 1443SOL    HW2 6709   5.944   6.541   6.109 -0.0874  0.0742 -0.2159
 1444SOL     OW 6710   3.815   5.417   7.790 -0.4373  0.4877  0.1848
 1444SOL    HW1 6711   3.893   5.441   7.742  1.2173 -1.8404  1.4842
 1444SOL    HW2 6712   3.816   5.472   7.868  0.2623  0.0485  0.4921
 1445SOL     OW 6713   8.485   6.236   2.423 -0.1480 -0.1447 -0.4036
 1445SOL    HW1 6714   8.482   6.237   2.327  0.1969 -0.2752 -0.4176
 1445SOL    HW2 6715   8.568   6.278   2.445  1.2713 -2.7738 -0.2555
 1446SOL     OW 6716  10.795   9.033   6.510 -0.1462  0.4546 -0.1222
 1446SOL    HW1 6717  10.714   9.072   6.477 -0.7805 -0.1653  0.6606
 1446SOL    HW2 6718  10.822   8.972   6.441 -0.8414  0.0124 -0.0201
 1447SOL     OW 6719   9.696   6.923   9.146  0.5547  0.6933  0.0675
 1447SOL    HW1 6720   9.742   6.988   9.093 -1.2895  1.4891 -0.6259
 1447SOL    HW2 6721   9.615   6.905   9.098 -0.0846 -0.3411  1.4572
 1448SOL     OW 6722   0.200   9.509   8.265 -0.1502 -0.0319 -0.1542
 1448SOL    HW1 6723   0.127   9.464   8.223 -0.7234 -1.0781  1.8113
 1448SOL    HW2 6724   0.169   9.527   8.354  1.3001  1.2873  0.1289
 1449SOL     OW 6725   1.447   0.871   2.838 -0.0008 -0.1860  0.3724
 1449SOL    HW1 6726   1.378   0.932   2.864  0.7051  1.6582 -1.8033
 1449SOL    HW2 6727   1.454   0.881   2.744  1.6939 -2.0355  0.2470
 1450SOL     OW 6728   2.364   6.848   8.748 -0.1432 -0.6162 -0.0594
 1450SOL    HW1 6729   2.331   6.851   8.838  3.2391  0.6258  1.3000
 1450SOL    HW2 6730   2.411   6.765   8.743  2.7167  0.8046  0.6929
 1451SOL     OW 6731   5.337  10.118   4.292 -0.0868  0.0235 -0.0532
 1451SOL    HW1 6732   5.365  10.030   4.318 -1.2552 -0.2195  0.4462
 1451SOL    HW2 6733   5.265  10.139   4.352  1.0619  1.8943  0.7468
 1452SOL     OW 6734   0.930   6.269   3.047  0.0748 -0.4227  0.1888
 1452SOL    HW1 6735   0.834   6.264   3.045  0.0169  0.2582 -2.3606
 1452SOL    HW2 6736   0.951   6.293   3.137 -2.2787  1.4420  0.3432
 1453SOL     OW 6737   5.028   6.338   3.549 -0.8303 -0.4497  0.3500
 1453SOL    HW1 6738   5.088   6.413   3.552 -1.3442 -0.0525  1.1305
 1453SOL    HW2 6739   4.962   6.358   3.616 -2.0628 -0.6806 -0.7529
 1454SOL     OW 6740   1.920   1.376   3.662  0.0412  0.2999 -0.7154
 1454SOL    HW1 6741   1.885   1.288   3.650  0.9096 -0.0651 -0.7111
 1454SOL    HW2 6742   1.884   1.405   3.745  1.5754 -1.0099  0.4931
 1455SOL     OW 6743   9.560   8.148   4.161 -0.4207 -0.0334 -0.1852
 1455SOL    HW1 6744   9.534   8.235   4.190  0.9060 -0.1057  1.3284
 1455SOL    HW2 6745   9.490   8.090   4.192  0.3598  0.0619  1.8930
 1456SOL     OW 6746  10.715   8.805   4.438 -0.3415  0.3250  0.2103
 1456SOL    HW1 6747  10.661   8.883   4.448 -0.3902  0.4647 -1.0599
 1456SOL    HW2 6748  10.663   8.746   4.383  1.0406  0.7630 -1.6712
 1457SOL     OW 6749   6.428   5.413  10.704  0.4158  0.1005  0.1632
 1457SOL    HW1 6750   6.449   5.322  10.724  0.8910  0.4975  1.6907
 1457SOL    HW2 6751   6.410   5.452  10.790  1.0476  1.6287 -0.3667
 1458SOL     OW 6752   6.312   8.442   9.246 -0.4345  0.4634 -0.7759
 1458SOL    HW1 6753   6.396   8.424   9.287 -0.9426 -2.1801 -0.6801
 1458SOL    HW2 6754   6.334   8.483   9.163  0.9439  0.1619 -0.5834
 1459SOL     OW 6755   9.592   0.796  10.212 -0.1182 -0.1229  0.0068
 1459SOL    HW1 6756   9.631   0.829  10.292  0.6996  0.8264 -0.7540
 1459SOL    HW2 6757   9.571   0.874  10.161  1.8979 -0.6871 -1.8521
 1460SOL     OW 6758   1.301   2.811   2.214 -0.4356 -0.1198 -0.2049
 1460SOL    HW1 6759   1.374   2.786   2.270 -1.2275 -0.7166  0.5856
 1460SOL    HW2 6760   1.308   2.907   2.206  1.2543 -0.2821 -1.3369
 1461SOL     OW 6761   5.514   1.869   6.445 -0.6397 -0.1389  0.4461
 1461SOL    HW1 6762   5.514   1.946   6.502  1.3433  0.5495 -0.3943
 1461SOL    HW2 6763   5.465   1.897   6.367  2.5570  1.4586 -1.1878
 1462SOL     OW 6764   7.344   1.317   7.804 -0.4432  0.0925  0.2278
 1462SOL    HW1 6765   7.407   1.286   7.738 -0.3321  0.1939  0.2843
 1462SOL    HW2 6766   7.377   1.281   7.887 -1.0655 -0.7522  0.1144
 1463SOL     OW 6767   0.054  10.594   9.327  0.3897 -0.1250 -0.4021
 1463SOL    HW1 6768   0.108  10.573   9.403  0.9813  0.6802 -0.5751
 1463SOL    HW2 6769   0.058  10.516   9.272 -2.0157 -1.6760  1.4411
 1464SOL     OW 6770  10.465   5.505   3.976 -0.3101 -0.6769 -0.8763
 1464SOL    HW1 6771  10.557   5.531   3.984 -0.2040 -1.4652  1.1813
 1464SOL    HW2 6772  10.416   5.587   3.988  0.1080 -0.3854 -1.1235
 1465SOL     OW 6773  10.547   2.810   3.348 -0.2324 -0.3010  0.1077
 1465SOL    HW1 6774  10.483   2.875   3.320  0.9351  1.5649  1.5213
 1465SOL    HW2 6775  10.505   2.764   3.420 -0.4109  0.1140  0.2682
 1466SOL     OW 6776   8.741   8.892   3.136  0.0046 -0.0777  0.0392
 1466SOL    HW1 6777   8.661   8.841   3.116  0.7168 -0.8768 -0.9063
 1466SOL    HW2 6778   8.720   8.940   3.216 -1.1741 -0.8398  0.2127
 1467SOL     OW 6779   5.307   4.773   1.053 -0.2793 -0.3560  0.0847
 1467SOL    HW1 6780   5.364   4.737   0.985  0.4540  0.6983  0.1209
 1467SOL    HW2 6781   5.346   4.858   1.075 -1.4604  0.0649  0.6291
 1468SOL     OW 6782   9.342   3.323   2.411  0.1201 -0.4817  0.0354
 1468SOL    HW1 6783   9.253   3.308   2.378  0.1800  0.6280 -0.6927
 1468SOL    HW2 6784   9.331   3.372   2.492  0.0767  0.1560 -0.3523
 1469SOL     OW 6785   3.135   6.815   6.033  0.3982  0.0096 -0.2992
 1469SOL    HW1 6786   3.224   6.822   5.999  0.5105  0.0946  0.0097
 1469SOL    HW2 6787   3.086   6.773   5.963  0.4818  0.7671 -0.8139
 1470SOL     OW 6788   5.427   8.331   3.612 -0.6362  0.3695 -0.3235
 1470SOL    HW1 6789   5.351   8.367   3.658 -0.5723 -0.3571  0.3628
 1470SOL    HW2 6790   5.411   8.236   3.610  0.7913  0.0813  0.8137
 1471SOL     OW 6791   3.845   0.885   5.363 -0.3056 -1.1566  0.4545
 1471SOL    HW1 6792   3.791   0.955   5.397  0.5556 -1.1584  1.9172
 1471SOL    HW2 6793   3.813   0.870   5.274 -2.7752 -1.2753  1.3024
 1472SOL     OW 6794   0.161   8.306   6.526  0.1824 -0.4179 -0.0707
 1472SOL    HW1 6795   0.198   8.286   6.440 -0.4437 -0.8967 -0.2267
 1472SOL    HW2 6796   0.216   8.257   6.587  0.5671 -0.1537 -0.1974
 1473SOL     OW 6797   4.972   7.216   8.061  0.2407 -0.1049  0.0145
 1473SOL    HW1 6798   4.914   7.154   8.015  0.9728  0.7095 -2.1214
 1473SOL    HW2 6799   5.056   7.171   8.065  0.5902  0.4462 -0.9086
 1474SOL     OW 6800   4.194   9.465   8.974 -0.3021 -0.3690  0.8140
 1474SOL    HW1 6801   4.217   9.388   8.922 -0.9243 -1.0380  1.5128
 1474SOL    HW2 6802   4.248   9.458   9.053 -1.5680 -1.0096  1.6532
 1475SOL     OW 6803   5.709   9.093   9.710  0.2684 -0.3390 -0.2416
 1475SOL    HW1 6804   5.647   9.034   9.668  0.5396 -0.8455  0.0639
 1475SOL    HW2 6805   5.713   9.064   9.801 -0.6866  1.0691  0.2729
 1476SOL     OW 6806   8.026  10.723   7.132 -0.1968  0.0251 -0.1429
 1476SOL    HW1 6807   7.971  10.682   7.199 -0.6251 -0.3847 -0.7386
 1476SOL    HW2 6808   7.977  10.712   7.051  1.3644 -1.5084 -0.9219
 1477SOL     OW 6809   8.768   7.879   0.875  0.3393 -0.4992  0.2483
 1477SOL    HW1 6810   8.674   7.895   0.861  0.4201 -1.7041 -2.2676
 1477SOL    HW2 6811   8.771   7.803   0.934 -0.2539 -0.2376  0.6242
 1478SOL     OW 6812   5.388   5.418   5.426 -0.4012 -0.1849  0.4224
 1478SOL    HW1 6813   5.410   5.338   5.378  2.6855  0.9569 -0.2569
 1478SOL    HW2 6814   5.333   5.468   5.366 -1.4624 -1.2892  0.4404
 1479SOL     OW 6815   7.604   3.872   7.116 -0.0104 -0.0879  0.4878
 1479SOL    HW1 6816   7.577   3.904   7.030  0.1572 -0.4367  0.3048
 1479SOL    HW2 6817   7.542   3.912   7.177  1.1071  1.8423  0.4525
 1480SOL     OW 6818   8.967   2.856   2.297  0.7280  0.3701 -0.4558
 1480SOL    HW1 6819   8.993   2.936   2.253  2.6078  0.3459  0.4832
 1480SOL    HW2 6820   8.985   2.872   2.390 -2.2274  0.0940  0.2782
 1481SOL     OW 6821   1.178  10.050   3.310  0.4239 -0.1519  0.0897
 1481SOL    HW1 6822   1.218   9.964   3.300  1.0358  0.1317 -0.0125
 1481SOL    HW2 6823   1.251  10.111   3.300 -0.1512  0.4151 -0.8161
 1482SOL     OW 6824   1.108   1.869   3.348 -0.5108  0.2338 -0.6470
 1482SOL    HW1 6825   1.098   1.951   3.299 -0.4050  1.2558  0.9701
 1482SOL    HW2 6826   1.198   1.870   3.379  0.1230 -1.4885 -2.2248
 1483SOL     OW 6827   1.937  10.216   1.609  0.6270  0.4091  0.1440
 1483SOL    HW1 6828   1.869  10.163   1.650  1.3017 -0.2320  0.4415
 1483SOL    HW2 6829   1.990  10.154   1.559  0.5264  1.0108 -0.7527
 1484SOL     OW 6830   2.901  10.619   8.205  0.5043 -0.1436 -0.1978
 1484SOL    HW1 6831   2.908  10.527   8.232  0.6749 -0.2368 -0.5463
 1484SOL    HW2 6832   2.808  10.629   8.181  0.1432  0.1854  1.2524
 1485SOL     OW 6833   7.251   7.380   2.664 -0.3073 -0.6064 -0.3865
 1485SOL    HW1 6834   7.221   7.374   2.573 -0.7742 -0.6859 -0.2313
 1485SOL    HW2 6835   7.343   7.404   2.658  0.2011 -2.4936 -0.9275
 1486SOL     OW 6836   0.794   2.473   5.016 -0.1061 -0.7758  0.6237
 1486SOL    HW1 6837   0.844   2.531   5.073 -0.8012  1.7741 -1.1756
 1486SOL    HW2 6838   0.707   2.470   5.055 -0.4655  0.6163 -0.0320
 1487SOL     OW 6839   2.466   8.307   5.404 -0.2350  0.3584 -0.1637
 1487SOL    HW1 6840   2.426   8.231   5.445 -1.6737  0.6853 -0.9047
 1487SOL    HW2 6841   2.560   8.297   5.421 -0.3484 -1.7715 -0.5769
 1488SOL     OW 6842   7.760   9.488   9.362 -0.5267 -0.0105 -0.2701
 1488SOL    HW1 6843   7.768   9.500   9.457 -0.4541  0.8864 -0.3792
 1488SOL    HW2 6844   7.833   9.538   9.326 -0.9698  0.2403 -0.8310
 1489SOL     OW 6845  10.523   9.563   7.859  0.5754 -0.1632  0.3361
 1489SOL    HW1 6846  10.485   9.482   7.894  0.0930  0.4741  1.3333
 1489SOL    HW2 6847  10.616   9.557   7.880  0.2791  0.2546  1.8750
 1490SOL     OW 6848   2.668   8.688   0.753 -0.7185  0.4163 -0.2012
 1490SOL    HW1 6849   2.600   8.742   0.792 -0.5133 -0.3008  1.2457
 1490SOL    HW2 6850   2.749   8.715   0.798 -0.6624 -1.2334  0.7928
 1491SOL     OW 6851   4.751   5.080   7.416  0.5193 -0.2132  0.3986
 1491SOL    HW1 6852   4.746   4.988   7.441 -1.8903 -0.2230  0.1308
 1491SOL    HW2 6853   4.787   5.124   7.493  1.3979 -1.3240  0.6465
 1492SOL     OW 6854   4.573   6.983   0.429 -0.2483  0.1460  0.0862
 1492SOL    HW1 6855   4.563   7.003   0.522 -0.2838  0.5307  0.0010
 1492SOL    HW2 6856   4.668   6.979   0.415 -0.2441 -0.0306  0.1625
 1493SOL     OW 6857   6.842   6.758   4.242 -0.0367  0.5773 -0.2277
 1493SOL    HW1 6858   6.810   6.727   4.326  1.7541 -1.3909 -0.1743
 1493SOL    HW2 6859   6.881   6.844   4.261  2.1479 -0.6847  1.4591
 1494SOL     OW 6860   4.053   7.695   4.451  0.1592 -0.2128 -0.0165
 1494SOL    HW1 6861   4.119   7.709   4.519 -0.5254  0.8657  0.4450
 1494SOL    HW2 6862   3.970   7.691   4.498 -0.2515 -0.2027 -0.7148
 1495SOL     OW 6863   0.464   5.138   1.158  0.3690 -0.4074 -0.3423
 1495SOL    HW1 6864   0.390   5.150   1.218  0.9264  0.6952  0.1715
 1495SOL    HW2 6865   0.503   5.055   1.184  0.2685 -0.2113  0.4637
 1496SOL     OW 6866   0.580   6.585   1.818  0.3049  0.2581 -0.5407
 1496SOL    HW1 6867   0.489   6.568   1.843 -0.0808  1.4180 -1.0949
 1496SOL    HW2 6868   0.604   6.510   1.763 -0.5247  0.2629 -0.9190
 1497SOL     OW 6869   2.618   8.900   1.549 -0.1179  0.5857  0.3116
 1497SOL    HW1 6870   2.660   8.815   1.563  1.9883  1.7765  1.6917
 1497SOL    HW2 6871   2.563   8.913   1.627 -1.8688 -0.2286 -0.7222
 1498SOL     OW 6872   5.413   6.935   7.088 -0.0841 -0.0993  0.3348
 1498SOL    HW1 6873   5.319   6.916   7.082 -0.2327  0.5174  0.6102
 1498SOL    HW2 6874   5.442   6.888   7.166 -0.4505  0.7851  1.0188
 1499SOL     OW 6875   4.190   4.066   1.664 -0.6025  0.1417 -0.5053
 1499SOL    HW1 6876   4.156   4.018   1.588 -0.0178 -1.5724  0.2516
 1499SOL    HW2 6877   4.136   4.035   1.737  0.6658 -0.4304  0.2231
 1500SOL     OW 6878   4.463   4.397   1.800  0.3343  0.4065 -0.3678
 1500SOL    HW1 6879   4.510   4.400   1.717  2.1130 -0.2406  0.5711
 1500SOL    HW2 6880   4.526   4.363   1.862 -1.4303 -0.5908  0.9617
 1501SOL     OW 6881   6.038   5.547  10.308  0.2003  0.0708 -0.1652
 1501SOL    HW1 6882   6.042   5.462  10.265 -2.0741 -0.8525  1.2855
 1501SOL    HW2 6883   6.105   5.599  10.264  2.0857 -2.6094 -0.7102
 1502SOL     OW 6884   8.522   0.642  10.552 -0.0869 -0.3449  0.2024
 1502SOL    HW1 6885   8.609   0.604  10.559 -0.0521 -0.1524  0.8314
 1502SOL    HW2 6886   8.509   0.690  10.633 -0.4005  0.4289 -0.2858
 1503SOL     OW 6887   5.789   3.394   5.713 -0.1314  0.1565 -0.2011
 1503SOL    HW1 6888   5.760   3.464   5.773  0.0161 -0.2853  0.3980
 1503SOL    HW2 6889   5.723   3.394   5.643 -1.2716 -0.4204  0.8210
 1504SOL     OW 6890   5.468  10.091   6.194 -0.1825 -0.3444 -0.4366
 1504SOL    HW1 6891   5.414  10.159   6.235 -0.1052 -0.5471  0.0055
 1504SOL    HW2 6892   5.473  10.021   6.259  1.6999  0.2003  0.0707
 1505SOL     OW 6893   8.201   3.824   2.274 -0.0900  0.1242  0.0154
 1505SOL    HW1 6894   8.173   3.770   2.201 -1.5755 -0.1252  0.7177
 1505SOL    HW2 6895   8.150   3.905   2.265  0.4585  0.4982  0.2160
 1506SOL     OW 6896   0.312   9.351   2.610  0.3683  0.5356  0.0367
 1506SOL    HW1 6897   0.379   9.351   2.679 -0.7124 -0.1377  1.1209
 1506SOL    HW2 6898   0.362   9.352   2.528  1.7625 -1.6108  0.7749
 1507SOL     OW 6899   0.085   7.961   6.648 -0.1092 -0.2766 -0.2096
 1507SOL    HW1 6900   0.011   8.012   6.681 -0.1336  0.4925 -1.4009
 1507SOL    HW2 6901   0.154   7.973   6.715 -0.9345 -0.7655  0.7595
 1508SOL     OW 6902   8.278   4.068   7.282  0.5347 -0.2629 -0.2033
 1508SOL    HW1 6903   8.213   3.999   7.266 -0.8282  0.9858 -0.2022
 1508SOL    HW2 6904   8.310   4.050   7.371 -0.1199 -0.6479 -0.0402
 1509SOL     OW 6905   4.289   4.903   4.435  0.0431 -0.2649 -0.4800
 1509SOL    HW1 6906   4.278   4.816   4.397 -1.3728 -0.4166  0.2101
 1509SOL    HW2 6907   4.330   4.887   4.520 -0.9515 -0.3483 -0.0045
 1510SOL     OW 6908   2.785   7.678   5.813 -0.0397  0.4302  0.0264
 1510SOL    HW1 6909   2.862   7.622   5.816 -1.2188 -1.3576 -1.3639
 1510SOL    HW2 6910   2.779   7.715   5.902  2.4368  0.7290  0.1433
 1511SOL     OW 6911   1.952   9.938   0.745  0.1480  0.2676  0.2502
 1511SOL    HW1 6912   2.004   9.878   0.692 -0.7489 -0.5147  0.2393
 1511SOL    HW2 6913   2.009  10.015   0.756  1.0811 -0.3298 -0.2285
 1512SOL     OW 6914   5.703   4.585   7.539 -0.7432  0.3422  0.8202
 1512SOL    HW1 6915   5.709   4.509   7.481  1.2420  1.1737 -0.1468
 1512SOL    HW2 6916   5.636   4.640   7.500  0.5649  0.8958 -0.7627
 1513SOL     OW 6917  10.594   8.962   8.910  0.1574  1.2763  0.1875
 1513SOL    HW1 6918  10.527   8.944   8.844  0.9680  0.3191 -0.4032
 1513SOL    HW2 6919  10.553   8.938   8.993 -0.2988  0.8877 -0.1453
 1514SOL     OW 6920   8.640   9.261   3.756 -0.0515 -0.6140 -0.3497
 1514SOL    HW1 6921   8.667   9.285   3.667 -2.0452  2.0343 -0.3596
 1514SOL    HW2 6922   8.546   9.243   3.749  0.2569 -3.1273  0.8058
 1515SOL     OW 6923   3.459   4.683   6.231  0.1753  0.0328  0.2736
 1515SOL    HW1 6924   3.548   4.649   6.232  0.1622 -0.0203  1.7310
 1515SOL    HW2 6925   3.435   4.691   6.323 -1.4125 -0.1853 -0.0822
 1516SOL     OW 6926   8.058   1.722   1.831 -0.1608 -0.0921  0.4256
 1516SOL    HW1 6927   8.133   1.672   1.862 -0.6607  0.7355  3.2990
 1516SOL    HW2 6928   7.997   1.656   1.798  1.0110 -0.9276 -0.1561
 1517SOL     OW 6929   3.317   9.722   4.999  0.2637 -0.5438 -0.2398
 1517SOL    HW1 6930   3.292   9.808   5.033  1.3624 -1.2489  2.6317
 1517SOL    HW2 6931   3.382   9.741   4.930  0.5195  0.9319  0.3830
 1518SOL     OW 6932   3.101   9.062   8.662  0.4255  0.3879  0.4027
 1518SOL    HW1 6933   3.161   9.114   8.716  1.3033  0.8701 -0.9947
 1518SOL    HW2 6934   3.101   9.106   8.577 -0.9177 -0.3624 -0.0083
 1519SOL     OW 6935   8.574   3.378   2.832 -0.1083  0.5614 -0.1224
 1519SOL    HW1 6936   8.611   3.367   2.919  0.3974 -0.0929 -0.4068
 1519SOL    HW2 6937   8.511   3.306   2.823 -1.0917  1.3641  0.1647
 1520SOL     OW 6938   2.130   1.236   2.318 -0.3309 -0.3160  0.5967
 1520SOL    HW1 6939   2.216   1.194   2.317 -0.3002 -0.3451  2.0819
 1520SOL    HW2 6940   2.068   1.166   2.295  0.0956  0.0070 -1.8644
 1521SOL     OW 6941   3.398  10.184   6.831 -0.1473  0.0216  0.0368
 1521SOL    HW1 6942   3.352  10.100   6.825  0.9484 -0.6332  0.4614
 1521SOL    HW2 6943   3.329  10.249   6.822 -1.4711 -0.9069  2.3764
 1522SOL     OW 6944   6.623   3.815   1.885  0.4191 -0.2322 -0.2562
 1522SOL    HW1 6945   6.683   3.874   1.839 -0.5861 -0.0354 -1.3720
 1522SOL    HW2 6946   6.540   3.861   1.887 -0.4610 -1.6737 -1.3922
 1523SOL     OW 6947   6.413   2.623   9.882  0.5689 -0.7275  0.1378
 1523SOL    HW1 6948   6.325   2.653   9.906  0.5408 -1.4552  0.9626
 1523SOL    HW2 6949   6.462   2.623   9.964  0.9957 -1.4641 -0.1089
 1524SOL     OW 6950   6.580   6.651   9.491  0.0742  0.4808 -0.1290
 1524SOL    HW1 6951   6.527   6.650   9.570 -0.1924  1.0963 -0.2953
 1524SOL    HW2 6952   6.537   6.589   9.433  0.7152 -0.5630  0.4830
 1525SOL     OW 6953   9.009   0.193   1.319 -0.3140 -0.8841  0.4385
 1525SOL    HW1 6954   8.954   0.115   1.325  0.5504 -1.4366  1.5435
 1525SOL    HW2 6955   9.057   0.182   1.237 -0.0806 -1.6084  0.6641
 1526SOL     OW 6956   5.205   1.587   3.567  0.0946  0.3901 -0.3868
 1526SOL    HW1 6957   5.185   1.680   3.575 -0.4882  0.4448 -2.0319
 1526SOL    HW2 6958   5.130   1.551   3.520  0.6015 -0.7941 -0.3155
 1527SOL     OW 6959   3.456   1.564   0.953  0.2157  0.3187  0.0414
 1527SOL    HW1 6960   3.520   1.494   0.944 -0.1335 -0.0835  0.6103
 1527SOL    HW2 6961   3.426   1.558   1.044 -0.1791  0.8908 -0.0433
 1528SOL     OW 6962  10.753   0.775  10.604  0.7490 -1.1806  0.3524
 1528SOL    HW1 6963  10.768   0.813  10.691  1.9329 -0.9260  0.0569
 1528SOL    HW2 6964  10.835   0.730  10.583  0.9602 -0.1547 -1.1757
 1529SOL     OW 6965   9.032   9.047   3.143 -0.2230  0.0651  1.0234
 1529SOL    HW1 6966   8.941   9.064   3.167 -0.4064 -0.8045  0.9746
 1529SOL    HW2 6967   9.036   9.063   3.049 -0.8791 -1.9893  0.5819
 1530SOL     OW 6968   2.958   8.850   5.244  0.2062 -0.4925  0.0450
 1530SOL    HW1 6969   2.977   8.918   5.180 -0.7262 -0.1616  0.1068
 1530SOL    HW2 6970   2.871   8.818   5.220  0.2483 -1.0216  0.5745
 1531SOL     OW 6971   1.571   3.010   2.261  0.1291  0.0285  0.5107
 1531SOL    HW1 6972   1.541   2.939   2.318  1.7460  0.2970  1.7427
 1531SOL    HW2 6973   1.586   3.084   2.319  0.2298  0.8316 -0.4999
 1532SOL     OW 6974   5.256   5.801   5.560  0.4129  0.1594 -0.3155
 1532SOL    HW1 6975   5.316   5.788   5.486  0.6942  0.2588 -0.1040
 1532SOL    HW2 6976   5.181   5.846   5.521  0.5226  0.1358 -0.5609
 1533SOL     OW 6977   3.623   8.745   5.847 -0.1338  0.1039 -0.0685
 1533SOL    HW1 6978   3.700   8.719   5.796  2.7810 -0.1495  3.9805
 1533SOL    HW2 6979   3.615   8.839   5.832  0.9418  0.1261 -0.5689
 1534SOL     OW 6980   0.671   4.781   7.470 -0.4999 -0.4581  0.1148
 1534SOL    HW1 6981   0.658   4.836   7.547  0.6646  0.9077 -0.6066
 1534SOL    HW2 6982   0.684   4.844   7.399  4.4683 -1.4914 -0.1943
 1535SOL     OW 6983   5.915  10.334   2.118  0.0766  0.3047 -0.5706
 1535SOL    HW1 6984   5.954  10.415   2.085 -1.1968  0.7642 -1.0375
 1535SOL    HW2 6985   5.848  10.312   2.054 -2.1831  0.9788  1.4019
 1536SOL     OW 6986   1.617   4.045   1.881  0.0527  0.1089  0.1615
 1536SOL    HW1 6987   1.568   4.026   1.960  1.3088  1.9740  1.4655
 1536SOL    HW2 6988   1.697   3.993   1.890  0.4741  0.7935  0.4482
 1537SOL     OW 6989   2.685   0.455   2.315 -0.5738  0.2776  0.9747
 1537SOL    HW1 6990   2.761   0.403   2.290  1.0447  3.1762 -0.5715
 1537SOL    HW2 6991   2.634   0.462   2.234  0.0648  2.3062  0.6924
 1538SOL     OW 6992   3.650  10.163   4.506 -0.4315 -0.0589 -0.3880
 1538SOL    HW1 6993   3.699  10.242   4.530  0.3703 -0.4329 -0.7540
 1538SOL    HW2 6994   3.709  10.116   4.447 -1.1008 -0.6955 -0.5549
 1539SOL     OW 6995   7.454   9.606   4.208 -0.2598 -0.4546 -0.0822
 1539SOL    HW1 6996   7.517   9.638   4.143 -1.6850 -1.2573 -1.9599
 1539SOL    HW2 6997   7.508   9.568   4.277  1.3237 -0.0143 -1.0222
 1540SOL     OW 6998   5.186   6.789  10.353 -0.5386 -0.3030 -0.4530
 1540SOL    HW1 6999   5.115   6.836  10.309 -1.1021 -0.5803  0.1460
 1540SOL    HW2 7000   5.236   6.749  10.282 -0.3890  0.7154 -0.9397
 1541SOL     OW 7001   4.965  10.038   1.824  0.0892  0.0241 -0.0827
 1541SOL    HW1 7002   4.941   9.945   1.824 -0.3583  0.1363  0.2776
 1541SOL    HW2 7003   4.938  10.070   1.910  2.2878 -0.0155  0.6683
 1542SOL     OW 7004   2.306   7.738   3.020 -0.2309 -0.2189  0.1809
 1542SOL    HW1 7005   2.241   7.670   3.040 -0.2892 -0.8534 -1.9417
 1542SOL    HW2 7006   2.255   7.809   2.980  0.0873  0.3022  0.6840
 1543SOL     OW 7007   3.586   5.239   5.875  0.0301  0.7145  0.4485
 1543SOL    HW1 7008   3.519   5.195   5.927 -0.9193 -0.3119 -1.5569
 1543SOL    HW2 7009   3.618   5.309   5.932 -1.6281  0.2557  2.0299
 1544SOL     OW 7010   1.040   0.754   4.150 -0.1537 -0.0996  0.2132
 1544SOL    HW1 7011   1.129   0.727   4.173  0.6931  0.9135 -1.6592
 1544SOL    HW2 7012   1.037   0.847   4.173 -0.4454  0.0669 -0.4848
 1545SOL     OW 7013   7.052  10.523   7.309 -0.0927  0.1205 -0.6969
 1545SOL    HW1 7014   6.969  10.528   7.260 -0.8787  1.9266  0.7174
 1545SOL    HW2 7015   7.039  10.580   7.384  1.7078 -1.2257  0.7308
 1546SOL     OW 7016   4.093   3.767   7.421 -0.3536 -0.0091 -0.1835
 1546SOL    HW1 7017   4.113   3.812   7.504  0.6076 -0.4911 -0.1420
 1546SOL    HW2 7018   4.008   3.803   7.395  0.3807  1.8503 -0.1610
 1547SOL     OW 7019   8.106   1.666   6.646  0.5463 -0.3057  0.0470
 1547SOL    HW1 7020   8.103   1.580   6.688  0.1013 -0.7669 -0.8889
 1547SOL    HW2 7021   8.129   1.727   6.716  0.9435 -1.1983  0.7086
 1548SOL     OW 7022   6.761  10.507   3.622  0.0222 -0.3167  0.1224
 1548SOL    HW1 7023   6.848  10.469   3.628 -0.0125 -0.4439 -0.1808
 1548SOL    HW2 7024   6.705  10.436   3.593 -0.5820 -0.8094  2.2689
 1549SOL     OW 7025   4.480   6.148   2.015 -0.3250  0.0324  0.1655
 1549SOL    HW1 7026   4.487   6.151   1.919 -1.5646  0.3530  0.0767
 1549SOL    HW2 7027   4.526   6.226   2.045  0.3204 -0.2199 -0.1484
 1550SOL     OW 7028   1.801   3.673   3.102 -0.5716  0.0656  0.6142
 1550SOL    HW1 7029   1.801   3.709   3.191 -0.8404 -3.0426  2.0233
 1550SOL    HW2 7030   1.889   3.635   3.092 -0.5472  0.3734 -0.4622
 1551SOL     OW 7031   4.672  10.618   8.230 -0.6799 -0.7920  0.9665
 1551SOL    HW1 7032   4.599  10.619   8.168  1.1664 -2.3671 -1.4090
 1551SOL    HW2 7033   4.648  10.552   8.295 -0.6662 -2.6851 -0.8393
 1552SOL     OW 7034   0.104   2.384   3.173  0.3751 -0.6738  0.6946
 1552SOL    HW1 7035   0.030   2.444   3.164 -0.0898 -1.0013  2.0233
 1552SOL    HW2 7036   0.170   2.436   3.219  0.3727 -0.8512  0.9003
 1553SOL     OW 7037   3.113   3.224   9.488 -0.0660 -0.3328 -0.0304
 1553SOL    HW1 7038   3.133   3.303   9.437 -0.5391 -0.8208 -1.0050
 1553SOL    HW2 7039   3.018   3.228   9.500 -0.1534 -0.9837 -0.4815
 1554SOL     OW 7040   6.260   1.485   6.819 -0.4085 -0.0035  0.0653
 1554SOL    HW1 7041   6.310   1.482   6.738  1.0190 -0.3292  0.9128
 1554SOL    HW2 7042   6.326   1.476   6.888 -1.8130 -2.7296  1.2229
 1555SOL     OW 7043   8.644   2.283   8.104  0.3059 -0.5544  0.0195
 1555SOL    HW1 7044   8.707   2.354   8.118  1.3658 -1.7839  1.8442
 1555SOL    HW2 7045   8.558   2.326   8.106  0.9925  1.3259 -3.5841
 1556SOL     OW 7046   3.060   9.133   0.377 -0.1880  0.1078  0.3666
 1556SOL    HW1 7047   2.974   9.123   0.338  0.3280  1.3082 -1.1641
 1556SOL    HW2 7048   3.076   9.227   0.378  0.5698 -0.0050  1.8627
 1557SOL     OW 7049   7.352   3.179   6.333  0.1345 -0.2088  0.2136
 1557SOL    HW1 7050   7.350   3.216   6.421  1.8649 -1.6790  0.9159
 1557SOL    HW2 7051   7.321   3.089   6.343  0.6712 -0.5008 -0.6159
 1558SOL     OW 7052   8.541   5.125   1.750 -0.1207 -0.9772 -0.3651
 1558SOL    HW1 7053   8.564   5.182   1.823 -0.6312 -1.3731  0.1112
 1558SOL    HW2 7054   8.586   5.042   1.768 -3.1325 -2.3839  1.5014
 1559SOL     OW 7055   1.950   8.328   0.916 -0.0548  0.1252  0.0706
 1559SOL    HW1 7056   2.035   8.293   0.890  0.4145  1.4794 -0.3045
 1559SOL    HW2 7057   1.922   8.273   0.989  0.0347 -1.8349 -1.2713
 1560SOL     OW 7058   4.620   4.034   0.502  0.2213  0.8273  0.3183
 1560SOL    HW1 7059   4.541   4.088   0.498 -0.2805  0.0732 -0.5124
 1560SOL    HW2 7060   4.662   4.047   0.417  1.3482  1.7156  0.9878
 1561SOL     OW 7061   8.241   9.281  10.118  0.0398 -0.1177  0.1959
 1561SOL    HW1 7062   8.304   9.331  10.067  2.0853 -0.5607  2.1723
 1561SOL    HW2 7063   8.263   9.189  10.101 -0.0342 -0.2813  0.9340
 1562SOL     OW 7064  10.493   0.729  10.527  0.2655 -0.5622 -0.1671
 1562SOL    HW1 7065  10.431   0.801  10.536 -0.3410 -1.0661 -0.2851
 1562SOL    HW2 7066  10.569   0.757  10.579  0.0258  0.1416 -0.1808
 1563SOL     OW 7067   6.634   8.707   5.535 -0.3815 -0.2051  0.4220
 1563SOL    HW1 7068   6.553   8.702   5.484  0.5542 -1.1078 -1.0405
 1563SOL    HW2 7069   6.654   8.800   5.540 -0.6781 -0.0826 -0.5536
 1564SOL     OW 7070   1.567   7.766   1.379 -0.5501 -0.0382 -0.1600
 1564SOL    HW1 7071   1.622   7.813   1.316  0.3708 -1.7419 -0.6867
 1564SOL    HW2 7072   1.628   7.737   1.447 -1.0759 -0.5016  0.1224
 1565SOL     OW 7073   9.501   0.993   6.013 -0.1836  0.0939 -0.2971
 1565SOL    HW1 7074   9.414   1.032   6.022  0.1981  0.5029  2.6734
 1565SOL    HW2 7075   9.545   1.047   5.948 -2.5348 -1.0018 -2.9731
 1566SOL     OW 7076   1.554   2.047   1.005 -0.0216  0.2423  0.5060
 1566SOL    HW1 7077   1.536   2.063   0.912 -0.6199 -1.1466  0.3648
 1566SOL    HW2 7078   1.519   2.124   1.050  0.1083  0.8410 -0.3931
 1567SOL     OW 7079  10.740   4.608   9.463  0.4715  0.9524  0.3615
 1567SOL    HW1 7080  10.812   4.660   9.428  2.7435 -0.5968  2.4602
 1567SOL    HW2 7081  10.673   4.673   9.486  1.0635  2.4262 -1.7676
 1568SOL     OW 7082   3.897   7.213   4.804 -0.1885 -0.1872  0.0984
 1568SOL    HW1 7083   3.848   7.283   4.761  1.5920  0.4099 -1.0714
 1568SOL    HW2 7084   3.952   7.176   4.735  0.4359 -1.3428  1.1678
 1569SOL     OW 7085   3.090   2.249  10.369 -0.0105 -0.1964 -0.5347
 1569SOL    HW1 7086   3.090   2.153  10.364  3.1830 -0.3756  0.7047
 1569SOL    HW2 7087   3.103   2.277  10.278 -1.3423 -0.8616 -0.9678
 1570SOL     OW 7088   2.277   5.950   0.328  0.0297  0.4259 -0.2563
 1570SOL    HW1 7089   2.241   5.983   0.411  1.9959 -1.3476  1.4087
 1570SOL    HW2 7090   2.279   6.027   0.271 -0.5255  1.9280  1.6462
 1571SOL     OW 7091   0.970   7.444   5.211 -0.2074 -0.0888  0.3557
 1571SOL    HW1 7092   1.014   7.495   5.280  1.0823 -2.2758  1.2613
 1571SOL    HW2 7093   0.956   7.507   5.140  0.6059  1.6869  1.6795
 1572SOL     OW 7094   4.844   6.741   5.060  0.2195 -0.1874 -0.3891
 1572SOL    HW1 7095   4.859   6.738   4.966  0.2761 -0.4511 -0.3719
 1572SOL    HW2 7096   4.848   6.835   5.082 -0.1577 -0.0980 -0.7039
 1573SOL     OW 7097   2.949   1.447   4.375  0.3836 -0.0150 -0.4604
 1573SOL    HW1 7098   2.883   1.517   4.375 -2.0999 -2.1516 -2.4465
 1573SOL    HW2 7099   3.032   1.494   4.376 -1.1182  2.9734 -1.3496
 1574SOL     OW 7100   8.270   2.977   2.142 -0.1732  0.4621  0.4300
 1574SOL    HW1 7101   8.186   2.939   2.116 -0.7205  1.5891  0.4855
 1574SOL    HW2 7102   8.301   3.022   2.064 -0.4948  1.5421  0.8998
 1575SOL     OW 7103   2.447   1.554   9.474  0.1558  0.2730  0.0759
 1575SOL    HW1 7104   2.391   1.545   9.550  0.8534 -1.2796  0.4295
 1575SOL    HW2 7105   2.484   1.643   9.482 -1.4547  0.9496  0.3338
 1576SOL     OW 7106   0.864   5.916   2.832  0.2345 -0.6879  0.8416
 1576SOL    HW1 7107   0.915   5.856   2.778 -0.2688  0.3710 -0.8993
 1576SOL    HW2 7108   0.822   5.975   2.769  0.3886  1.2406  2.4498
 1577SOL     OW 7109   8.916   4.934  10.554  0.5580  0.7262  0.4804
 1577SOL    HW1 7110   8.863   4.909  10.477  2.7780  0.1236 -0.9559
 1577SOL    HW2 7111   8.961   4.853  10.579  1.7305  1.4690  0.8530
 1578SOL     OW 7112   6.808   1.080  10.382 -0.3098 -0.8808  0.4522
 1578SOL    HW1 7113   6.827   1.122  10.466 -1.4735 -1.5757  1.1083
 1578SOL    HW2 7114   6.713   1.093  10.370 -0.0578 -0.2614 -1.0721
 1579SOL     OW 7115   0.096   4.319   0.097 -0.3568 -0.2846 -0.1287
 1579SOL    HW1 7116   0.141   4.238   0.073  0.7020  0.0010  0.7950
 1579SOL    HW2 7117   0.010   4.312   0.056 -0.5825 -2.2538  0.5789
 1580SOL     OW 7118   5.873   3.993   6.748  0.0158  0.0105  0.0467
 1580SOL    HW1 7119   5.837   4.004   6.836 -0.7657 -1.7990 -0.0009
 1580SOL    HW2 7120   5.800   3.960   6.696  0.5308  0.8217 -1.2343
 1581SOL     OW 7121   0.019  10.801   6.417 -0.2538  0.0896  0.0379
 1581SOL    HW1 7122  -0.009  10.714   6.388 -1.2769  0.6201 -0.6579
 1581SOL    HW2 7123  -0.025  10.814   6.501  1.0959 -0.6400  0.8913
 1582SOL     OW 7124   6.116   9.932   7.939  0.0841 -0.0152 -0.1846
 1582SOL    HW1 7125   6.060  10.006   7.962  0.0893 -0.4885  1.4739
 1582SOL    HW2 7126   6.204   9.960   7.963  0.2883 -0.0700 -0.8299
 1583SOL     OW 7127   2.453   5.162   7.443 -0.2008  0.6327 -0.8713
 1583SOL    HW1 7128   2.497   5.233   7.397 -0.5233  0.9519 -0.6918
 1583SOL    HW2 7129   2.363   5.166   7.412  0.3683 -1.5211 -3.0695
 1584SOL     OW 7130   4.944   1.468   9.789 -0.0393 -0.3148 -0.4471
 1584SOL    HW1 7131   4.884   1.542   9.800  0.3989  0.1655 -1.1406
 1584SOL    HW2 7132   5.013   1.482   9.854  0.6925  0.5780 -1.3879
 1585SOL     OW 7133   2.077   0.069   9.127  0.6748 -0.5924 -0.0081
 1585SOL    HW1 7134   2.108   0.072   9.218 -0.1362  2.3139  0.2508
 1585SOL    HW2 7135   1.982   0.060   9.135  0.3271  1.9975 -0.4079
 1586SOL     OW 7136   2.415   7.474   2.311 -0.1521 -0.4202  0.4135
 1586SOL    HW1 7137   2.427   7.396   2.364 -0.8818 -1.0255 -0.2804
 1586SOL    HW2 7138   2.448   7.450   2.224  0.3668  0.3171  0.3980
 1587SOL     OW 7139   9.422   7.590   5.926 -0.0921  0.4550 -0.0820
 1587SOL    HW1 7140   9.364   7.632   5.862  0.9971 -0.1363 -1.4913
 1587SOL    HW2 7141   9.475   7.661   5.961 -0.3093  0.6963 -0.2403
 1588SOL     OW 7142  10.452   2.512   0.513 -0.4811  0.4258  0.3072
 1588SOL    HW1 7143  10.444   2.585   0.453  0.0239  0.1145 -0.1471
 1588SOL    HW2 7144  10.403   2.539   0.591 -0.1190  1.3318  0.2296
 1589SOL     OW 7145   8.875   1.650   7.425 -0.4421 -0.1174 -0.5900
 1589SOL    HW1 7146   8.930   1.610   7.357  0.2017  1.6615 -1.1626
 1589SOL    HW2 7147   8.787   1.649   7.388 -0.4551 -1.0564 -0.5595
 1590SOL     OW 7148   2.141   3.144   5.167 -0.3431 -0.1344 -0.3859
 1590SOL    HW1 7149   2.127   3.084   5.241  0.5965 -2.2645 -1.8461
 1590SOL    HW2 7150   2.236   3.146   5.155 -0.3635  1.5766 -0.4783
 1591SOL     OW 7151   0.352  10.011   6.866 -0.1659  0.3031 -0.3093
 1591SOL    HW1 7152   0.428  10.010   6.924 -0.9003 -2.1838  0.7589
 1591SOL    HW2 7153   0.337  10.104   6.848  0.7752  1.1366  2.6074
 1592SOL     OW 7154   5.073   2.509   5.980 -0.4071 -0.1677  0.2422
 1592SOL    HW1 7155   5.064   2.448   5.906  1.9202  0.0593 -0.2867
 1592SOL    HW2 7156   4.982   2.531   6.003 -1.2652 -2.0857 -0.9811
 1593SOL     OW 7157   8.017   1.499   0.140  0.4820 -0.0957  0.1579
 1593SOL    HW1 7158   7.977   1.459   0.063 -0.1593  0.6759  0.0766
 1593SOL    HW2 7159   8.079   1.563   0.104  0.4677 -0.0093  0.2838
 1594SOL     OW 7160   5.274   9.578   5.197  0.1216  0.1857 -0.2381
 1594SOL    HW1 7161   5.367   9.557   5.182  0.0012  0.1106 -0.9186
 1594SOL    HW2 7162   5.247   9.519   5.267  1.2437  1.9572  1.8083
 1595SOL     OW 7163   9.536   8.127   7.327 -0.2102 -0.2271 -0.3008
 1595SOL    HW1 7164   9.575   8.214   7.318  0.4597 -0.6472 -1.6229
 1595SOL    HW2 7165   9.502   8.126   7.417  2.2529  0.4008  0.7284
 1596SOL     OW 7166   3.199   2.985   0.926  0.0946  0.4621  0.4325
 1596SOL    HW1 7167   3.213   3.079   0.910  0.5076  0.5819  1.4095
 1596SOL    HW2 7168   3.280   2.944   0.896 -0.5867  0.2317 -1.2440
 1597SOL     OW 7169   7.660   9.690   3.228  0.2136 -0.7123  0.1757
 1597SOL    HW1 7170   7.694   9.638   3.155  1.3023  1.2906 -0.8271
 1597SOL    HW2 7171   7.566   9.674   3.227  0.3968 -1.9193 -0.6674
 1598SOL     OW 7172   0.911   2.220   8.193 -0.4162 -0.2302  0.5496
 1598SOL    HW1 7173   0.931   2.295   8.136 -0.7742 -0.4635  0.1086
 1598SOL    HW2 7174   0.858   2.257   8.263 -1.9046 -0.3145 -0.4816
 1599SOL     OW 7175   5.935   7.192   2.926  0.2629 -0.4131 -0.1921
 1599SOL    HW1 7176   5.860   7.231   2.882  0.6007  1.6170  0.8860
 1599SOL    HW2 7177   6.007   7.198   2.863  0.2001  0.3629 -0.1960
 1600SOL     OW 7178   3.583   1.524   0.276 -0.5467  0.0633 -0.0636
 1600SOL    HW1 7179   3.634   1.474   0.213 -1.0893 -0.1803 -0.3173
 1600SOL    HW2 7180   3.514   1.565   0.225 -0.2440  0.8994  0.1805
 1601SOL     OW 7181   5.740  10.307   7.001 -0.2327  0.3098 -0.0950
 1601SOL    HW1 7182   5.798  10.239   6.967  0.2598  0.5126  0.3171
 1601SOL    HW2 7183   5.799  10.368   7.046 -0.8640 -0.0628  1.3136
 1602SOL     OW 7184   0.199   4.283  10.223 -0.1356  0.1378  0.0269
 1602SOL    HW1 7185   0.146   4.228  10.282  0.1157 -0.1432 -0.0084
 1602SOL    HW2 7186   0.241   4.221  10.164 -1.2770  0.4891 -1.1930
 1603SOL     OW 7187   7.917   4.181   9.251 -0.4292 -0.3185 -0.4253
 1603SOL    HW1 7188   7.951   4.254   9.200  0.4840 -0.8614 -0.6124
 1603SOL    HW2 7189   7.911   4.109   9.189  0.3784 -0.8922  0.1376
 1604SOL     OW 7190  10.377   0.135   8.030 -0.3519 -0.2709  0.0476
 1604SOL    HW1 7191  10.432   0.057   8.029 -1.4055 -1.2514  3.4907
 1604SOL    HW2 7192  10.289   0.102   8.012 -1.0187 -0.2628  2.7775
 1605SOL     OW 7193   2.942  10.245   1.708 -0.1972 -0.5829 -0.1827
 1605SOL    HW1 7194   2.893  10.177   1.661 -0.1059 -0.9978  0.3013
 1605SOL    HW2 7195   2.986  10.295   1.640 -1.2024 -0.2672 -0.6248
 1606SOL     OW 7196   1.080  10.641   0.811 -0.0909 -0.2390  0.1218
 1606SOL    HW1 7197   1.113  10.601   0.731 -1.1070 -0.0630 -0.4031
 1606SOL    HW2 7198   1.073  10.734   0.791 -0.4143 -0.2034  0.3829
 1607SOL     OW 7199  10.742   8.170   8.146 -0.1833  1.2173 -0.4802
 1607SOL    HW1 7200  10.682   8.103   8.178  0.5622  1.5189  1.6615
 1607SOL    HW2 7201  10.795   8.194   8.222  1.3593  2.3411 -1.8420
 1608SOL     OW 7202   0.664   3.724   4.146 -0.3062  0.3577  0.0743
 1608SOL    HW1 7203   0.684   3.638   4.109 -0.5627  0.6646 -0.7817
 1608SOL    HW2 7204   0.596   3.706   4.211  0.1418 -0.1770  0.4065
 1609SOL     OW 7205   6.223   7.733   6.102 -0.3035  0.0682  0.9244
 1609SOL    HW1 7206   6.212   7.750   6.195 -0.8089  0.8093  0.7467
 1609SOL    HW2 7207   6.316   7.748   6.085 -0.1683 -0.3005  1.3526
 1610SOL     OW 7208   5.934   7.082   9.524 -0.3032 -0.2784  0.2093
 1610SOL    HW1 7209   5.912   6.998   9.483 -0.5581 -0.4942  0.7726
 1610SOL    HW2 7210   5.867   7.142   9.492 -0.3552 -0.3871  0.1126
 1611SOL     OW 7211   5.950  10.510   2.468 -0.1457 -0.6572  0.1739
 1611SOL    HW1 7212   5.951  10.572   2.541  1.2889 -1.2644  0.7124
 1611SOL    HW2 7213   6.041  10.481   2.461 -0.2828 -0.6903 -1.7984
 1612SOL     OW 7214   4.868  10.149   4.233  0.0937 -0.4882 -0.2043
 1612SOL    HW1 7215   4.898  10.135   4.323  1.4927  2.7512 -0.0402
 1612SOL    HW2 7216   4.793  10.207   4.242  1.2591  1.2299 -1.1461
 1613SOL     OW 7217   6.726   6.010   3.575 -0.0557  0.9216 -0.4882
 1613SOL    HW1 7218   6.708   5.922   3.608 -0.3374  0.6061 -1.4724
 1613SOL    HW2 7219   6.675   6.018   3.495  1.8812  1.0506 -1.7917
 1614SOL     OW 7220   1.019   6.466   1.613 -0.2857 -0.4386  0.2850
 1614SOL    HW1 7221   1.055   6.389   1.570 -0.4042 -0.8386  0.8840
 1614SOL    HW2 7222   0.928   6.471   1.583 -0.4324 -0.8443  0.6436
 1615SOL     OW 7223   8.575   9.396   7.864  0.2640  0.0085  0.0738
 1615SOL    HW1 7224   8.508   9.352   7.916  1.8749 -1.8096  0.7387
 1615SOL    HW2 7225   8.627   9.444   7.928  0.7098 -0.1273 -0.1843
 1616SOL     OW 7226   3.789   7.470  10.461 -0.2001  0.3175 -0.3161
 1616SOL    HW1 7227   3.845   7.394  10.475 -0.1112  0.3214 -0.6377
 1616SOL    HW2 7228   3.708   7.435  10.425  0.1459  0.4427 -1.2523
 1617SOL     OW 7229   0.641   8.639   5.934  0.3552  0.4053 -0.0666
 1617SOL    HW1 7230   0.651   8.667   6.024  1.4434 -0.8757  0.2503
 1617SOL    HW2 7231   0.726   8.657   5.893 -0.2160  1.2544 -0.9360
 1618SOL     OW 7232   4.014   3.196   1.478  0.5379 -0.6137  0.2958
 1618SOL    HW1 7233   3.978   3.109   1.496 -0.3923 -0.3776 -0.3273
 1618SOL    HW2 7234   3.948   3.257   1.512 -1.7755 -0.1022 -4.2734
 1619SOL     OW 7235   7.436   9.987   3.900 -0.3744 -0.1204 -0.3950
 1619SOL    HW1 7236   7.408   9.895   3.903 -1.6549  0.1417 -2.5350
 1619SOL    HW2 7237   7.356  10.036   3.880  0.5794  1.2946 -0.9036
 1620SOL     OW 7238   2.356   0.752   7.516 -0.4580 -0.3305  0.5215
 1620SOL    HW1 7239   2.349   0.657   7.525 -2.4418 -0.1501  1.4119
 1620SOL    HW2 7240   2.357   0.766   7.421 -0.5335 -1.2138  0.3751
 1621SOL     OW 7241   0.831  10.430   7.631  0.5302  0.4716 -0.2414
 1621SOL    HW1 7242   0.825  10.353   7.688  2.3519 -2.1109 -3.1731
 1621SOL    HW2 7243   0.878  10.495   7.683 -0.6872 -0.5077  2.2277
 1622SOL     OW 7244   0.890   7.952   2.097  0.7270 -0.3945  0.0625
 1622SOL    HW1 7245   0.843   7.915   2.172  1.7969  0.7907  1.3631
 1622SOL    HW2 7246   0.830   8.017   2.061  0.6318 -0.2024  0.5645
 1623SOL     OW 7247  10.097   4.589   8.700 -0.4538 -0.0946 -0.3282
 1623SOL    HW1 7248  10.070   4.627   8.616  0.5408  1.4634  0.0128
 1623SOL    HW2 7249  10.193   4.597   8.700 -0.4844  0.4764  1.2095
 1624SOL     OW 7250   1.503   8.268   4.128 -0.1470 -0.0852  0.1522
 1624SOL    HW1 7251   1.492   8.360   4.149 -0.9269 -0.0733 -0.2703
 1624SOL    HW2 7252   1.489   8.263   4.033  1.4402 -0.4100 -0.0986
 1625SOL     OW 7253   0.372  10.460   4.601  0.3651  0.0001 -0.0026
 1625SOL    HW1 7254   0.366  10.511   4.681 -0.3035 -1.3840  0.8820
 1625SOL    HW2 7255   0.442  10.501   4.551  0.3330  1.3129  0.9726
 1626SOL     OW 7256   0.246   6.516   4.642 -0.0626 -0.5508 -0.1103
 1626SOL    HW1 7257   0.268   6.535   4.551 -0.7249 -0.9530 -0.3675
 1626SOL    HW2 7258   0.330   6.517   4.688  0.0768  1.7991 -0.2938
 1627SOL     OW 7259   3.192   0.255   2.714 -0.3674  0.4369  0.5764
 1627SOL    HW1 7260   3.103   0.249   2.749 -0.1594 -2.7648  0.8342
 1627SOL    HW2 7261   3.182   0.236   2.621  0.1563 -1.9651  0.9426
 1628SOL     OW 7262   1.319   3.389   5.860  0.2218 -0.3157 -0.1573
 1628SOL    HW1 7263   1.382   3.400   5.931 -0.8558  1.9107  0.5401
 1628SOL    HW2 7264   1.349   3.450   5.792  0.0314 -0.8340 -0.7129
 1629SOL     OW 7265   9.875   3.189   6.691  0.6441 -0.3941 -0.4726
 1629SOL    HW1 7266   9.791   3.196   6.735  0.4589 -0.0504 -0.8766
 1629SOL    HW2 7267   9.940   3.204   6.760  0.4351 -2.0793  0.1405
 1630SOL     OW 7268   5.615   8.176   3.976 -0.5409  0.3901  0.2945
 1630SOL    HW1 7269   5.627   8.081   3.973  0.5982  0.4773  1.1157
 1630SOL    HW2 7270   5.617   8.197   4.070  3.4653  1.6218  0.1242
 1631SOL     OW 7271   7.904   2.522   6.618  0.5407 -0.6382  0.2450
 1631SOL    HW1 7272   7.821   2.493   6.654  0.5871 -2.0312 -0.6674
 1631SOL    HW2 7273   7.889   2.527   6.523  1.4062 -0.6545  0.0918
 1632SOL     OW 7274   6.176   8.011   7.173  0.3217 -0.1092  0.6129
 1632SOL    HW1 7275   6.086   7.995   7.203  0.7073 -0.5119  1.6122
 1632SOL    HW2 7276   6.179   8.104   7.154 -1.2205 -0.6020 -2.6746
 1633SOL     OW 7277   9.443   9.207   7.967 -0.0811  0.1771  0.3844
 1633SOL    HW1 7278   9.349   9.223   7.975 -0.0865 -0.5586  2.3684
 1633SOL    HW2 7279   9.449   9.126   7.916 -0.5078  0.3743  0.0147
 1634SOL     OW 7280  10.374   6.773   2.080 -0.6667 -0.2169  0.1615
 1634SOL    HW1 7281  10.398   6.794   1.990 -0.5585  0.1056  0.2652
 1634SOL    HW2 7282  10.356   6.858   2.121 -1.8411 -0.4261  0.1325
 1635SOL     OW 7283   0.755   9.721   8.095  0.2892 -0.7576  0.0936
 1635SOL    HW1 7284   0.678   9.750   8.046  0.3084  1.1259  1.0951
 1635SOL    HW2 7285   0.809   9.677   8.029 -0.2343  0.6490 -1.3560
 1636SOL     OW 7286   1.812   9.075   3.855 -0.4209 -0.2522  0.4023
 1636SOL    HW1 7287   1.906   9.079   3.872 -0.5083 -2.4312  1.7493
 1636SOL    HW2 7288   1.773   9.124   3.927 -0.3547  1.4586 -0.6547
 1637SOL     OW 7289   8.377   4.559   0.350 -0.5898  0.0672 -0.0438
 1637SOL    HW1 7290   8.334   4.543   0.266  1.0474 -0.1526 -0.8767
 1637SOL    HW2 7291   8.378   4.654   0.358 -0.8421  0.0863 -0.2078
 1638SOL     OW 7292  10.302   5.873   4.889 -0.0788  0.3871 -0.4687
 1638SOL    HW1 7293  10.243   5.948   4.899 -0.9853 -0.2903 -0.6357
 1638SOL    HW2 7294  10.321   5.869   4.796  0.5318  0.8160 -0.3705
 1639SOL     OW 7295   9.305   0.327   7.594 -0.2197  0.3188 -0.8488
 1639SOL    HW1 7296   9.300   0.264   7.522 -0.0095 -0.0543 -0.5447
 1639SOL    HW2 7297   9.217   0.363   7.601  0.1593  1.6171 -2.3961
 1640SOL     OW 7298   6.668  10.069   2.611 -0.0348  0.5409  0.1297
 1640SOL    HW1 7299   6.660   9.984   2.568 -0.5915 -0.0421  1.3279
 1640SOL    HW2 7300   6.700  10.128   2.543 -0.1090 -0.5195 -0.8481
 1641SOL     OW 7301   3.344   1.696   7.820 -0.7641  0.1303  0.0366
 1641SOL    HW1 7302   3.287   1.621   7.803  0.3728 -0.7886  0.1363
 1641SOL    HW2 7303   3.408   1.664   7.883  0.2400  0.9452 -0.5361
 1642SOL     OW 7304   6.089   3.766   9.703 -0.0867  0.2084 -0.6231
 1642SOL    HW1 7305   6.149   3.817   9.756 -0.0011  0.9897 -1.4502
 1642SOL    HW2 7306   6.114   3.675   9.720 -0.3673  0.4100  1.0048
 1643SOL     OW 7307   6.085   2.594   7.748 -0.3946  0.0560 -0.2127
 1643SOL    HW1 7308   6.052   2.639   7.826 -0.0622  1.0269 -0.6140
 1643SOL    HW2 7309   6.180   2.602   7.755 -0.3486 -0.2389 -0.4943
 1644SOL     OW 7310   8.275   7.624   9.724  0.2269  0.3253  0.5347
 1644SOL    HW1 7311   8.187   7.626   9.763 -0.2947  0.5001 -0.5928
 1644SOL    HW2 7312   8.282   7.536   9.686  0.6776  0.1974  0.9121
 1645SOL     OW 7313   7.051   6.126   1.146 -0.4245  0.0965  0.3309
 1645SOL    HW1 7314   7.147   6.123   1.150 -0.4731 -0.1427  2.1500
 1645SOL    HW2 7315   7.030   6.220   1.147 -0.2228  0.1405  0.5836
 1646SOL     OW 7316   6.062   6.219   1.211 -0.7724  0.2413  0.1463
 1646SOL    HW1 7317   6.046   6.307   1.176  2.3024  0.8405 -0.0131
 1646SOL    HW2 7318   6.061   6.230   1.306 -1.9271  0.1001  0.1616
 1647SOL     OW 7319   8.104   1.031   5.081  0.2621 -0.8295  0.9772
 1647SOL    HW1 7320   8.181   0.989   5.121  2.1775  1.7594  0.2783
 1647SOL    HW2 7321   8.139   1.109   5.039 -2.9889  1.3917  2.0098
 1648SOL     OW 7322   0.564   1.988   8.814 -0.0417 -0.1877  0.0751
 1648SOL    HW1 7323   0.472   2.012   8.801  0.2565 -0.0941 -2.3067
 1648SOL    HW2 7324   0.564   1.932   8.892 -2.0240  0.2468  0.4345
 1649SOL     OW 7325   6.793  10.712   2.925  0.2513 -0.2353  0.4220
 1649SOL    HW1 7326   6.855  10.642   2.946  1.2015 -0.1623 -1.8691
 1649SOL    HW2 7327   6.846  10.780   2.886 -0.7314  1.6429  2.1776
 1650SOL     OW 7328   7.281   2.934   3.294  0.1945 -0.2173  0.2178
 1650SOL    HW1 7329   7.271   2.880   3.216  0.4371 -1.3999  0.9827
 1650SOL    HW2 7330   7.212   2.904   3.353  0.1093  0.5605  0.5211
 1651SOL     OW 7331   7.951   7.193   2.213  0.2974  0.0281 -0.3603
 1651SOL    HW1 7332   8.010   7.117   2.212  0.0764 -0.1690  0.5705
 1651SOL    HW2 7333   8.010   7.268   2.213  0.5149 -0.0837 -2.7282
 1652SOL     OW 7334  10.007   8.504   5.249 -0.5251  0.0513  0.4586
 1652SOL    HW1 7335  10.087   8.501   5.198  0.2549 -0.8938  1.6618
 1652SOL    HW2 7336   9.991   8.412   5.273 -2.4642  0.0941 -0.4868
 1653SOL     OW 7337   9.372   9.867   2.320 -0.2671  0.6728 -0.2232
 1653SOL    HW1 7338   9.276   9.876   2.317 -0.2919  0.3327 -0.3659
 1653SOL    HW2 7339   9.387   9.782   2.361 -0.0746 -1.2911 -4.0286
 1654SOL     OW 7340   7.043   6.361  10.434 -0.2389 -0.3094 -0.1381
 1654SOL    HW1 7341   7.030   6.286  10.491 -1.8138  0.4643  0.5862
 1654SOL    HW2 7342   7.057   6.324  10.348 -0.6426 -1.4401  0.2674
 1655SOL     OW 7343   7.452   2.805   0.920  0.2010 -0.0471  0.2751
 1655SOL    HW1 7344   7.400   2.882   0.942  0.9005  0.5455 -0.1197
 1655SOL    HW2 7345   7.466   2.810   0.826 -0.6388 -1.2328  0.0627
 1656SOL     OW 7346   5.729   1.900   9.962 -0.3959  0.2018  0.1276
 1656SOL    HW1 7347   5.809   1.903   9.910  0.3076 -0.7023  1.0966
 1656SOL    HW2 7348   5.713   1.991   9.987  0.3983  0.3780  0.0142
 1657SOL     OW 7349   3.620   5.075   3.138  0.4716  0.5259  0.1636
 1657SOL    HW1 7350   3.561   5.035   3.202  0.1340  1.3626  0.3904
 1657SOL    HW2 7351   3.561   5.113   3.073  0.7992  0.1897 -0.3336
 1658SOL     OW 7352   5.620   8.479   1.513  0.0516 -0.2927  0.0561
 1658SOL    HW1 7353   5.715   8.480   1.503  0.0975 -1.0353  0.3365
 1658SOL    HW2 7354   5.597   8.387   1.522 -0.8241 -0.2075 -1.0720
 1659SOL     OW 7355   0.208   0.031   5.987 -0.5106 -0.3576  0.2970
 1659SOL    HW1 7356   0.139  -0.012   5.936 -2.9756  1.9663  1.4500
 1659SOL    HW2 7357   0.224  -0.029   6.060 -0.4733 -1.4470 -0.5800
 1660SOL     OW 7358   5.238   7.536  10.552 -0.1896  0.3091 -0.0320
 1660SOL    HW1 7359   5.258   7.488  10.472  1.2245  0.9203 -0.0777
 1660SOL    HW2 7360   5.163   7.590  10.530 -0.4688 -0.3165 -0.6213
 1661SOL     OW 7361   2.034   4.439   5.464 -0.4233  0.2990  0.3230
 1661SOL    HW1 7362   2.116   4.485   5.449 -0.8368  1.1689  0.6739
 1661SOL    HW2 7363   1.990   4.489   5.534 -0.5707 -1.0229  1.2170
 1662SOL     OW 7364   8.901   7.183  10.270  0.1612 -0.2693 -0.3467
 1662SOL    HW1 7365   8.991   7.165  10.244 -0.0266 -0.4864 -0.8753
 1662SOL    HW2 7366   8.896   7.155  10.361  0.6071 -0.3308 -0.3394
 1663SOL     OW 7367   7.449   3.881   4.435 -0.5602 -0.6356 -0.3057
 1663SOL    HW1 7368   7.387   3.812   4.412  2.1823 -2.6230 -2.3253
 1663SOL    HW2 7369   7.515   3.837   4.490  1.6285  0.0654 -2.1977
 1664SOL     OW 7370   0.810   9.827   5.118 -0.5209 -0.6731 -0.4747
 1664SOL    HW1 7371   0.850   9.743   5.139 -1.2305 -1.3339 -1.6471
 1664SOL    HW2 7372   0.796   9.869   5.203  1.4459 -0.9522  0.0354
 1665SOL     OW 7373   7.364   0.891   7.545 -0.0569 -0.4044 -0.5420
 1665SOL    HW1 7374   7.404   0.808   7.519  0.9258 -0.7492  1.8356
 1665SOL    HW2 7375   7.430   0.957   7.526 -0.0085 -0.4426 -0.5067
 1666SOL     OW 7376   8.316   0.841   5.135  0.0474  0.1494 -0.0182
 1666SOL    HW1 7377   8.372   0.792   5.075 -0.2598 -0.1515 -0.0662
 1666SOL    HW2 7378   8.373   0.907   5.174  0.8099 -1.0323  0.9700
 1667SOL     OW 7379   3.118   1.427   0.831 -0.0374  0.2072  0.6004
 1667SOL    HW1 7380   3.085   1.450   0.918 -2.0788 -1.7732  0.4290
 1667SOL    HW2 7381   3.191   1.368   0.848 -0.2845  0.0057  0.9756
 1668SOL     OW 7382   4.769   0.741   8.470  0.1534  0.3440 -0.7460
 1668SOL    HW1 7383   4.698   0.722   8.532  1.5056 -1.0220  0.4838
 1668SOL    HW2 7384   4.805   0.824   8.499  0.6277 -0.1757  0.1785
 1669SOL     OW 7385   9.668   5.365   1.096  0.4660  0.7545 -0.1313
 1669SOL    HW1 7386   9.686   5.315   1.016 -2.0680 -0.4717 -0.0300
 1669SOL    HW2 7387   9.677   5.457   1.069  3.1339  0.3885 -0.8468
 1670SOL     OW 7388   4.051   2.387   0.544  0.5244  0.1826 -0.3074
 1670SOL    HW1 7389   4.120   2.356   0.487  0.4336 -0.4878 -0.0657
 1670SOL    HW2 7390   3.978   2.409   0.485 -0.6068 -3.1449 -0.3532
 1671SOL     OW 7391   5.628   1.094   8.084  0.6779  0.3487 -0.5572
 1671SOL    HW1 7392   5.693   1.068   8.149  1.1519  1.8486 -0.3781
 1671SOL    HW2 7393   5.671   1.078   7.999  0.2710 -1.0874 -0.5072
 1672SOL     OW 7394   3.006   2.669   0.508  0.3885  0.0920 -0.3023
 1672SOL    HW1 7395   3.074   2.603   0.495  0.3055  0.3051 -1.9271
 1672SOL    HW2 7396   3.006   2.684   0.603  0.8255 -1.7772  0.0362
 1673SOL     OW 7397   7.043   3.281   9.205 -0.5776  0.2973  0.5223
 1673SOL    HW1 7398   7.112   3.300   9.268 -0.8059  0.3149  0.7677
 1673SOL    HW2 7399   7.007   3.197   9.234  1.7829 -1.6501 -1.7147
 1674SOL     OW 7400   7.981  10.647   1.735 -0.2521  0.8198 -0.2654
 1674SOL    HW1 7401   8.054  10.604   1.692  0.3000  0.2904  1.1439
 1674SOL    HW2 7402   7.915  10.579   1.745 -0.7431  1.1662 -1.0575
 1675SOL     OW 7403   7.633   1.064   4.225  0.4093 -0.9107 -0.5585
 1675SOL    HW1 7404   7.580   0.985   4.209  1.0416 -1.1639 -1.5297
 1675SOL    HW2 7405   7.607   1.093   4.312 -1.2232 -1.1136 -0.9342
 1676SOL     OW 7406   1.828   3.905   5.785  0.1384 -0.2105 -0.4476
 1676SOL    HW1 7407   1.853   3.897   5.693  0.5183 -0.4247 -0.3314
 1676SOL    HW2 7408   1.847   3.818   5.822  0.3211 -0.0177 -0.0909
 1677SOL     OW 7409   5.775   7.341  10.381  0.7232 -0.0497 -0.7404
 1677SOL    HW1 7410   5.825   7.336  10.300  2.4890  0.3178  0.2761
 1677SOL    HW2 7411   5.764   7.435  10.397  0.8352 -0.1118 -0.2912
 1678SOL     OW 7412   1.492   2.239   5.437 -0.0669 -0.3430 -0.0882
 1678SOL    HW1 7413   1.518   2.317   5.485  0.1210  0.4052 -1.3741
 1678SOL    HW2 7414   1.458   2.180   5.504  2.0236 -0.1333  1.2721
 1679SOL     OW 7415   3.173   7.404   6.625  0.1552  0.0547 -0.3637
 1679SOL    HW1 7416   3.133   7.361   6.700  0.7202  0.2143  0.0420
 1679SOL    HW2 7417   3.266   7.380   6.631  0.3125  0.5805 -0.6474
 1680SOL     OW 7418   0.636   9.891   2.342  0.0370 -0.0666  0.0466
 1680SOL    HW1 7419   0.692   9.947   2.396  0.7002 -0.8109  0.1422
 1680SOL    HW2 7420   0.690   9.871   2.265 -1.3521  2.0918 -1.6225
 1681SOL     OW 7421   5.069   3.690   7.982  0.0531 -0.0743  0.0885
 1681SOL    HW1 7422   5.148   3.737   7.957  0.3058 -0.4090  0.2509
 1681SOL    HW2 7423   5.075   3.606   7.936  0.6648 -0.8157  1.4450
 1682SOL     OW 7424   0.887   0.019   4.341  0.0587 -0.0638 -0.0720
 1682SOL    HW1 7425   0.936  -0.063   4.343 -0.2330 -0.2752 -1.2226
 1682SOL    HW2 7426   0.832   0.013   4.263 -0.4688  0.9418  0.2017
 1683SOL     OW 7427   3.321   1.257   0.850  0.3138  0.0884  0.0071
 1683SOL    HW1 7428   3.408   1.253   0.890  0.9721  1.3018 -1.2315
 1683SOL    HW2 7429   3.317   1.179   0.794  1.0960  0.6407 -0.8465
 1684SOL     OW 7430  10.574   9.118   5.810  0.1464  0.0258  0.0776
 1684SOL    HW1 7431  10.502   9.055   5.803  1.3429 -1.4638  0.5261
 1684SOL    HW2 7432  10.582   9.154   5.721  0.7108 -1.9772 -0.7426
 1685SOL     OW 7433   4.535  10.241   9.245 -0.1544  0.0168 -0.5330
 1685SOL    HW1 7434   4.453  10.266   9.289  0.3434 -0.2862  0.6065
 1685SOL    HW2 7435   4.597  10.310   9.269  0.1674 -0.2313 -0.6378
 1686SOL     OW 7436  10.612   8.379   6.783  0.1202 -0.1465 -0.1235
 1686SOL    HW1 7437  10.614   8.343   6.872 -0.0977  0.5558  0.1666
 1686SOL    HW2 7438  10.536   8.436   6.782 -0.2965 -0.7023 -0.9861
 1687SOL     OW 7439   6.019   9.905   9.798  0.4354 -0.2221  0.3789
 1687SOL    HW1 7440   6.046   9.940   9.883  3.0304 -1.3684  0.1240
 1687SOL    HW2 7441   6.030   9.979   9.738  0.5358  0.0320  0.7000
 1688SOL     OW 7442   3.898   7.250   2.522  0.0628  0.6987 -0.1728
 1688SOL    HW1 7443   3.979   7.300   2.508  1.2846 -1.2723 -0.5512
 1688SOL    HW2 7444   3.831   7.300   2.477  0.9666  2.6151  0.4955
 1689SOL     OW 7445   8.018   1.867   7.767 -0.2405  0.1212  0.1488
 1689SOL    HW1 7446   7.998   1.795   7.707 -0.4439 -0.1732  0.5693
 1689SOL    HW2 7447   8.075   1.829   7.834 -2.5325 -0.3641  1.9300
 1690SOL     OW 7448   9.771   6.757   6.194  0.5994 -0.1511  0.4268
 1690SOL    HW1 7449   9.774   6.661   6.186  1.5295 -0.0034 -1.8799
 1690SOL    HW2 7450   9.795   6.789   6.107 -0.1126  2.2029  1.0161
 1691SOL     OW 7451   8.547   8.190   9.596 -0.4321  0.1436 -0.4838
 1691SOL    HW1 7452   8.467   8.181   9.648  0.2808  0.6330  0.7050
 1691SOL    HW2 7453   8.592   8.106   9.607 -1.1363 -0.4600 -1.8313
 1692SOL     OW 7454   2.867   6.057   8.703 -0.0290  0.3670  0.0923
 1692SOL    HW1 7455   2.913   6.124   8.651 -1.5499  0.4563 -1.2306
 1692SOL    HW2 7456   2.816   6.108   8.767  0.2973  0.3644  0.3555
 1693SOL     OW 7457   9.749  10.054   9.511 -0.1006  0.0132 -0.0786
 1693SOL    HW1 7458   9.767  10.071   9.419  2.4913  0.9408  0.5089
 1693SOL    HW2 7459   9.802   9.976   9.532 -0.9588 -0.4271  0.5591
 1694SOL     OW 7460   7.828   1.574   7.833  0.1716  0.1079  0.0685
 1694SOL    HW1 7461   7.906   1.602   7.785  0.9518  1.9045  2.1559
 1694SOL    HW2 7462   7.851   1.488   7.868  1.6720  0.9936  1.4061
 1695SOL     OW 7463   7.178  10.783   3.394 -0.5485 -0.6062  0.2180
 1695SOL    HW1 7464   7.200  10.698   3.431 -2.4669 -0.5776  1.5538
 1695SOL    HW2 7465   7.100  10.767   3.340 -1.0036  0.3014  0.5741
 1696SOL     OW 7466   8.743   4.253   8.672  0.3784  0.0983 -0.5538
 1696SOL    HW1 7467   8.722   4.199   8.749 -1.5892  1.7918  0.1943
 1696SOL    HW2 7468   8.834   4.279   8.685  0.4600 -0.6518  0.5635
 1697SOL     OW 7469   5.183   8.526   0.183 -0.2628 -0.1362  0.1803
 1697SOL    HW1 7470   5.255   8.586   0.201 -0.1122 -0.3263  0.2135
 1697SOL    HW2 7471   5.181   8.466   0.257 -1.2431  0.6105  0.7911
 1698SOL     OW 7472   4.870   9.837   3.490 -0.3701 -0.2634 -0.7227
 1698SOL    HW1 7473   4.810   9.852   3.417 -0.5943 -0.6895 -0.6241
 1698SOL    HW2 7474   4.914   9.755   3.468  0.7217  0.4194 -1.1654
 1699SOL     OW 7475   1.130   0.959   8.729 -0.0110  0.8982 -0.4001
 1699SOL    HW1 7476   1.209   0.905   8.733 -0.3116  0.4724 -0.1348
 1699SOL    HW2 7477   1.065   0.903   8.687  0.1503  1.6586 -1.7339
 1700SOL     OW 7478   7.188   2.442   2.380  0.0779 -0.0833  0.2117
 1700SOL    HW1 7479   7.241   2.508   2.335  1.5911  0.1334  2.1881
 1700SOL    HW2 7480   7.232   2.359   2.362 -1.7354 -0.6492 -2.1413
 1701SOL     OW 7481   6.434   7.429   2.170 -0.8921 -0.0453 -0.0967
 1701SOL    HW1 7482   6.441   7.467   2.258 -2.0750  1.0437 -0.4440
 1701SOL    HW2 7483   6.514   7.457   2.125  0.8357 -2.4052  1.2100
 1702SOL     OW 7484   2.116   4.256   8.478  0.0276 -0.0775  0.2379
 1702SOL    HW1 7485   2.069   4.303   8.547  1.5921  1.8102  0.1198
 1702SOL    HW2 7486   2.070   4.281   8.397  0.2300  0.4436  0.2800
 1703SOL     OW 7487   1.925   8.181   5.122  0.5841 -0.1299  0.1370
 1703SOL    HW1 7488   1.845   8.233   5.112  0.2767 -0.0113  2.6422
 1703SOL    HW2 7489   1.938   8.141   5.036 -0.5811  2.0595 -1.1492
 1704SOL     OW 7490   9.824   9.745   4.167 -0.5328  0.0781  0.2113
 1704SOL    HW1 7491   9.751   9.711   4.116  0.0725 -0.9253 -0.0116
 1704SOL    HW2 7492   9.849   9.826   4.122 -1.4854  0.4269  0.2859
 1705SOL     OW 7493   4.295   4.160   4.907  0.0144 -0.2606  0.1152
 1705SOL    HW1 7494   4.235   4.143   4.835  0.1375 -0.8438  0.1448
 1705SOL    HW2 7495   4.251   4.126   4.985  0.3283 -0.5855  0.1541
 1706SOL     OW 7496   0.462   7.420   9.425 -0.3151 -0.8283 -0.5531
 1706SOL    HW1 7497   0.558   7.423   9.426 -0.2057 -1.2086 -3.3501
 1706SOL    HW2 7498   0.440   7.353   9.490  1.0790  1.2892  2.3258
 1707SOL     OW 7499   4.235   1.070   0.525  0.1210 -0.2094  0.4140
 1707SOL    HW1 7500   4.141   1.067   0.507  0.2128  0.2325 -0.1654
 1707SOL    HW2 7501   4.265   0.980   0.515 -0.0151 -0.1444 -0.6977
 1708SOL     OW 7502   7.866   7.946   5.860 -0.3914 -0.0567  0.2384
 1708SOL    HW1 7503   7.856   7.863   5.814 -1.1027  1.4885 -2.6745
 1708SOL    HW2 7504   7.922   7.999   5.802 -2.0235  2.3228  0.6948
 1709SOL     OW 7505   2.113   2.207   0.084 -0.1351 -0.3535  0.7158
 1709SOL    HW1 7506   2.044   2.263   0.049  1.1484  1.0389  0.3164
 1709SOL    HW2 7507   2.128   2.142   0.015  1.0100  1.1747 -0.5505
 1710SOL     OW 7508   0.676   3.449   8.865 -0.8633  0.1576 -0.0410
 1710SOL    HW1 7509   0.736   3.476   8.936 -2.7590  0.9882  1.3319
 1710SOL    HW2 7510   0.653   3.358   8.887  1.0885 -0.7575 -1.4944
 1711SOL     OW 7511   4.977   2.267   7.783  0.3152 -0.4235  0.3279
 1711SOL    HW1 7512   5.000   2.268   7.876  0.8791 -0.3225  0.1946
 1711SOL    HW2 7513   5.015   2.348   7.748  0.5388 -0.7010 -0.0888
 1712SOL     OW 7514   6.991   7.965   7.447  0.0677 -0.4657 -0.2634
 1712SOL    HW1 7515   6.922   7.899   7.440 -1.2845  1.0191 -1.8539
 1712SOL    HW2 7516   6.953   8.034   7.501  0.7404 -0.0971 -0.2447
 1713SOL     OW 7517   2.673   4.786   1.765 -0.1139 -0.7042 -0.3179
 1713SOL    HW1 7518   2.622   4.797   1.846 -0.1799  1.4612 -0.5851
 1713SOL    HW2 7519   2.737   4.857   1.769  0.8804 -1.5156 -1.4611
 1714SOL     OW 7520   7.215   1.923   8.067  0.1317  0.4704  0.4050
 1714SOL    HW1 7521   7.226   1.987   7.997 -1.5531 -0.1680 -0.5003
 1714SOL    HW2 7522   7.304   1.903   8.096  0.7350  2.5661  0.1380
 1715SOL     OW 7523   9.969   8.896   2.789 -0.2917 -0.0876 -0.5082
 1715SOL    HW1 7524  10.037   8.851   2.839 -0.8113 -0.8671 -0.4776
 1715SOL    HW2 7525   9.907   8.926   2.856 -2.3895 -3.4316 -0.6899
 1716SOL     OW 7526   9.574   0.944   6.564 -0.1561  0.1696 -0.4509
 1716SOL    HW1 7527   9.504   0.884   6.538 -1.4807  0.7683  1.5350
 1716SOL    HW2 7528   9.581   1.006   6.491 -0.6746 -0.7412 -1.2978
 1717SOL     OW 7529   1.943   1.278   2.069  0.6380 -0.1188 -0.0932
 1717SOL    HW1 7530   1.928   1.184   2.077 -0.4014 -0.1287 -1.7366
 1717SOL    HW2 7531   1.889   1.317   2.138  0.2788 -0.6876 -0.0485
 1718SOL     OW 7532   5.984   3.972   5.504 -0.3548  0.0056  0.0392
 1718SOL    HW1 7533   5.914   3.910   5.484 -0.8583  1.0607 -1.7505
 1718SOL    HW2 7534   6.064   3.919   5.504 -1.1375 -1.3499  2.8359
 1719SOL     OW 7535   4.654   1.396   3.056 -0.0387  0.2329 -0.1588
 1719SOL    HW1 7536   4.624   1.315   3.097 -0.1419 -0.4166 -1.4634
 1719SOL    HW2 7537   4.575   1.446   3.040 -0.0585  0.2096 -0.1336
 1720SOL     OW 7538   0.759   2.839   8.456 -0.2152 -0.0815  0.1693
 1720SOL    HW1 7539   0.833   2.790   8.491  0.2617  0.0097 -0.6604
 1720SOL    HW2 7540   0.772   2.928   8.488  2.2174  0.8945 -2.9149
 1721SOL     OW 7541   3.474   0.200   4.527  0.1305 -0.3486 -0.3950
 1721SOL    HW1 7542   3.389   0.240   4.547  0.9159  1.2242 -0.0833
 1721SOL    HW2 7543   3.515   0.260   4.466  1.5018 -0.4678  0.3768
 1722SOL     OW 7544   7.483   1.735   8.908 -0.1067 -0.1345 -0.4758
 1722SOL    HW1 7545   7.391   1.711   8.904 -0.2983  0.5639 -0.4588
 1722SOL    HW2 7546   7.520   1.678   8.975 -0.8548  0.5653  0.5691
 1723SOL     OW 7547   0.129   8.779   5.477  0.2215  0.4788 -0.3726
 1723SOL    HW1 7548   0.207   8.804   5.526  1.0604  0.4606 -1.6342
 1723SOL    HW2 7549   0.088   8.710   5.529 -0.5659  2.4282  1.7575
 1724SOL     OW 7550   7.988   1.691   4.665  0.1184  0.3099 -0.0486
 1724SOL    HW1 7551   8.025   1.763   4.715 -1.3463  1.1106 -0.0497
 1724SOL    HW2 7552   7.938   1.640   4.729  0.7360 -0.4419 -0.1444
 1725SOL     OW 7553   0.402   4.740   2.715 -0.0674  0.1526  0.1475
 1725SOL    HW1 7554   0.351   4.682   2.772  0.7203 -0.0319  0.6816
 1725SOL    HW2 7555   0.342   4.811   2.693 -0.1201  0.6987  1.9392
 1726SOL     OW 7556   4.159   2.681   4.597 -0.4291 -0.0981 -0.4279
 1726SOL    HW1 7557   4.201   2.766   4.604 -1.1890  0.2168  0.7542
 1726SOL    HW2 7558   4.157   2.662   4.503  0.7732  0.6467 -0.6222
 1727SOL     OW 7559   1.923   7.132   6.525 -0.2327 -0.2487  0.4535
 1727SOL    HW1 7560   1.981   7.206   6.544  0.2594 -0.8033  1.1618
 1727SOL    HW2 7561   1.899   7.098   6.611 -2.8004  0.8457  0.2549
 1728SOL     OW 7562   3.944   6.987   5.663 -0.4906  0.1992  0.5146
 1728SOL    HW1 7563   3.944   6.931   5.585  1.0138  0.1136  0.5490
 1728SOL    HW2 7564   3.974   6.929   5.733  0.8094  0.9461  0.6026
 1729SOL     OW 7565   6.643  10.102   6.120  0.1000  0.0816 -0.2073
 1729SOL    HW1 7566   6.716  10.161   6.103  0.7404  0.0083  1.9807
 1729SOL    HW2 7567   6.622  10.115   6.212 -1.9301 -0.7325 -0.4865
 1730SOL     OW 7568   7.260   9.865   2.213  0.6229 -0.5456 -0.1378
 1730SOL    HW1 7569   7.297   9.803   2.150 -0.1788 -1.5412  0.3362
 1730SOL    HW2 7570   7.281   9.828   2.298 -0.4078 -0.5210  0.1455
 1731SOL     OW 7571   3.713   2.586   8.209  0.6239  0.4535  0.2250
 1731SOL    HW1 7572   3.721   2.496   8.241  1.3131 -0.4930 -2.3974
 1731SOL    HW2 7573   3.799   2.606   8.171  0.4719  2.2446  0.7059
 1732SOL     OW 7574   9.516   2.352   7.771  0.0402 -0.2413  0.0075
 1732SOL    HW1 7575   9.513   2.277   7.831 -1.5698  1.3354  2.0574
 1732SOL    HW2 7576   9.447   2.333   7.707  0.1600 -0.8604  0.0550
 1733SOL     OW 7577   4.001   9.155   9.394 -0.4328 -0.4589 -0.4781
 1733SOL    HW1 7578   3.908   9.177   9.402 -0.5875 -0.8991 -0.9892
 1733SOL    HW2 7579   4.027   9.191   9.309 -0.0166  0.0464 -0.1455
 1734SOL     OW 7580   4.792   5.167   3.161 -0.5827 -0.0736 -0.2843
 1734SOL    HW1 7581   4.849   5.130   3.229 -1.3929  0.5713  0.7660
 1734SOL    HW2 7582   4.717   5.108   3.159 -0.1824 -0.5758 -1.2428
 1735SOL     OW 7583   0.448   8.151   7.577 -0.3551  0.3999 -0.1109
 1735SOL    HW1 7584   0.496   8.183   7.501 -1.4926 -1.7745 -1.8692
 1735SOL    HW2 7585   0.488   8.196   7.652  1.9979  1.3054 -1.8021
 1736SOL     OW 7586   5.549   7.520   0.471  0.4569  0.2949 -0.1726
 1736SOL    HW1 7587   5.620   7.542   0.530 -0.8359  1.9041  0.8697
 1736SOL    HW2 7588   5.519   7.434   0.500 -0.5601  1.3089  2.0288
 1737SOL     OW 7589   2.846   0.653   9.671  0.7022 -0.5481 -0.2333
 1737SOL    HW1 7590   2.806   0.567   9.658  1.3101 -0.9391  0.4142
 1737SOL    HW2 7591   2.874   0.653   9.763  1.0916  0.1788 -0.3445
 1738SOL     OW 7592   0.368   9.896   1.780  0.0943 -0.2593 -0.4387
 1738SOL    HW1 7593   0.338   9.809   1.753  2.9727 -1.5570  0.1427
 1738SOL    HW2 7594   0.355   9.897   1.875  0.0083  0.0148 -0.4508
 1739SOL     OW 7595  10.753   8.960   1.267  0.5759 -0.3994  0.6037
 1739SOL    HW1 7596  10.714   8.994   1.187  2.6520 -0.9959 -0.7564
 1739SOL    HW2 7597  10.726   8.868   1.271  1.4581 -0.6982 -0.1017
 1740SOL     OW 7598   7.210  10.316   7.814  0.3056 -0.4114  0.2409
 1740SOL    HW1 7599   7.171  10.274   7.891 -1.5990  0.1226 -0.3737
 1740SOL    HW2 7600   7.174  10.405   7.815 -0.5664 -0.6977 -1.8073
 1741SOL     OW 7601   0.393   3.152   7.393  0.3263 -0.5877 -0.6989
 1741SOL    HW1 7602   0.354   3.240   7.388  0.7725 -0.4515 -2.6462
 1741SOL    HW2 7603   0.477   3.166   7.437 -0.7553 -0.5092  1.4234
 1742SOL     OW 7604   6.318   2.681   5.919  0.5175  0.2967 -0.0028
 1742SOL    HW1 7605   6.303   2.714   5.830  1.6862  1.7473  0.2858
 1742SOL    HW2 7606   6.393   2.621   5.910  0.6978  0.5180  0.0076
 1743SOL     OW 7607   5.367   3.363   4.047 -0.1504  0.5616 -0.1100
 1743SOL    HW1 7608   5.336   3.428   4.110  0.5587  0.5263  0.2820
 1743SOL    HW2 7609   5.416   3.300   4.100  0.4824  0.5499 -0.6910
 1744SOL     OW 7610   5.172   2.564   5.687 -0.1981 -0.9355  0.1229
 1744SOL    HW1 7611   5.214   2.622   5.623  0.3307 -1.3203  0.1108
 1744SOL    HW2 7612   5.099   2.615   5.722 -0.2132 -0.5542 -0.4555
 1745SOL     OW 7613   8.592   5.638   2.802  0.0046  0.1896  0.3038
 1745SOL    HW1 7614   8.556   5.550   2.796 -2.2649  0.8211  2.6754
 1745SOL    HW2 7615   8.544   5.689   2.737 -0.7360  0.2355  0.8734
 1746SOL     OW 7616   4.336   4.601   2.708  0.1685  0.1644  0.2569
 1746SOL    HW1 7617   4.358   4.656   2.783 -0.0198  1.8973 -0.8970
 1746SOL    HW2 7618   4.387   4.638   2.636 -0.2871 -0.9367 -0.6604
 1747SOL     OW 7619   5.455   8.237   4.232  0.2255  0.3678  0.1161
 1747SOL    HW1 7620   5.409   8.312   4.194  0.6294  0.4230 -0.2656
 1747SOL    HW2 7621   5.387   8.188   4.278  0.0511  1.3094  0.9149
 1748SOL     OW 7622   8.313   0.179   0.854 -0.1373 -0.5305 -0.3535
 1748SOL    HW1 7623   8.266   0.098   0.878 -1.4986  0.0081 -1.0805
 1748SOL    HW2 7624   8.384   0.150   0.797 -1.0201 -1.1731 -1.1540
 1749SOL     OW 7625   7.995   0.060   7.535  0.1829  0.1380  0.0916
 1749SOL    HW1 7626   7.967   0.088   7.622  0.1175  0.5146 -0.0465
 1749SOL    HW2 7627   7.950   0.120   7.475  1.8166  1.1942 -0.1102
 1750SOL     OW 7628   2.027   0.400   4.382 -0.0485 -0.0405 -0.2356
 1750SOL    HW1 7629   2.122   0.411   4.391  0.1141 -2.0040  1.0348
 1750SOL    HW2 7630   2.002   0.463   4.315  2.2482  0.1204 -1.0369
 1751SOL     OW 7631   3.914   3.858   1.048  0.0638  0.6974 -0.0706
 1751SOL    HW1 7632   3.918   3.847   0.953  0.2598 -0.7298  0.0874
 1751SOL    HW2 7633   3.972   3.790   1.083 -0.9088  0.4473  1.1235
 1752SOL     OW 7634   3.714   0.086   0.696 -0.5103  0.6855 -0.7182
 1752SOL    HW1 7635   3.700   0.035   0.616 -2.0202  0.1712 -0.1707
 1752SOL    HW2 7636   3.712   0.020   0.766  0.6924  1.1390 -0.2270
 1753SOL     OW 7637   2.501   5.427   1.558  0.5356 -0.4424  0.3381
 1753SOL    HW1 7638   2.419   5.459   1.520  1.9272  3.2847  0.0690
 1753SOL    HW2 7639   2.495   5.450   1.651  0.6353 -1.7228  0.6828
 1754SOL     OW 7640   7.359   3.161   8.742  0.1423 -0.1760 -0.2176
 1754SOL    HW1 7641   7.368   3.076   8.785  0.3690 -0.7687 -1.4012
 1754SOL    HW2 7642   7.445   3.178   8.704  0.2072  0.7711  0.3138
 1755SOL     OW 7643   7.240  10.033   4.187 -0.0236 -0.1530 -0.5985
 1755SOL    HW1 7644   7.268  10.096   4.121  1.2174  0.4883  0.4975
 1755SOL    HW2 7645   7.257   9.947   4.148  1.0524  0.2208 -0.9697
 1756SOL     OW 7646  10.308   3.915   7.314 -0.0864  0.1417 -0.2099
 1756SOL    HW1 7647  10.251   3.907   7.391  0.9088 -2.6605  0.3366
 1756SOL    HW2 7648  10.250   3.951   7.246 -1.7163  0.1346  1.1030
 1757SOL     OW 7649   5.148   0.476   5.671 -0.6345 -0.1333  0.2725
 1757SOL    HW1 7650   5.098   0.541   5.621 -1.0592  0.5440  1.5233
 1757SOL    HW2 7651   5.201   0.431   5.606 -0.5159  1.3054 -0.6667
 1758SOL     OW 7652   4.563   9.098   9.499  0.0472 -0.4168 -0.3477
 1758SOL    HW1 7653   4.615   9.154   9.556 -0.4666  0.6421 -0.8917
 1758SOL    HW2 7654   4.622   9.076   9.427 -0.6395  2.1504 -1.8448
 1759SOL     OW 7655   7.428   1.432   9.057 -0.2966 -0.3644  0.2224
 1759SOL    HW1 7656   7.369   1.365   9.091 -1.3159  0.3162 -0.1592
 1759SOL    HW2 7657   7.434   1.497   9.127 -0.6744 -0.0188 -0.0643
 1760SOL     OW 7658   6.735   0.267  10.564  0.4468  0.2458  0.2612
 1760SOL    HW1 7659   6.786   0.226  10.634 -0.8026 -1.4301  0.2706
 1760SOL    HW2 7660   6.781   0.242  10.483  1.0264  0.8711  0.3924
 1761SOL     OW 7661   6.261   4.086   3.168 -0.0734  0.1260 -0.1804
 1761SOL    HW1 7662   6.178   4.086   3.119 -1.1159 -1.3749  1.4713
 1761SOL    HW2 7663   6.235   4.071   3.259  2.0998 -2.2477  0.1447
 1762SOL     OW 7664   6.990   8.829  10.654 -0.2676 -0.2843 -0.0252
 1762SOL    HW1 7665   6.975   8.811  10.562 -1.5288  1.7165 -0.2698
 1762SOL    HW2 7666   6.931   8.902  10.674  2.0371  1.2522  1.6351
 1763SOL     OW 7667   6.092   2.826   3.249  0.1882  0.1713  0.1406
 1763SOL    HW1 7668   6.091   2.773   3.329 -2.6034  0.4303  0.3985
 1763SOL    HW2 7669   6.017   2.794   3.198  0.4104  1.6596 -1.2226
 1764SOL     OW 7670   1.148   9.315   4.667  0.2715 -0.0004 -0.2328
 1764SOL    HW1 7671   1.135   9.279   4.754  1.2220  0.8523  0.2869
 1764SOL    HW2 7672   1.084   9.386   4.661  1.9855  1.7608  0.8907
 1765SOL     OW 7673   9.273   0.658   3.557 -0.5053  0.5110 -0.3635
 1765SOL    HW1 7674   9.223   0.578   3.573 -0.7110  0.5549 -0.7711
 1765SOL    HW2 7675   9.230   0.724   3.611  0.7300 -0.0216  1.3462
 1766SOL     OW 7676   3.850   5.435   2.281 -0.0853  0.5404 -0.2448
 1766SOL    HW1 7677   3.840   5.503   2.348 -2.4136 -0.9297  1.0044
 1766SOL    HW2 7678   3.837   5.482   2.198  1.1896  2.0886  0.3741
 1767SOL     OW 7679   2.086   9.584   0.423 -0.1902 -0.3039  0.4754
 1767SOL    HW1 7680   2.058   9.596   0.332 -0.2914  0.6215  0.6182
 1767SOL    HW2 7681   2.011   9.613   0.475 -0.4658 -1.6510  0.8673
 1768SOL     OW 7682   8.170   8.924   6.563 -0.3386 -0.0267 -0.1376
 1768SOL    HW1 7683   8.230   8.969   6.622 -3.0130  0.2821  2.6426
 1768SOL    HW2 7684   8.202   8.943   6.475  1.3343  3.3781  1.0488
 1769SOL     OW 7685  10.655   9.606   4.463 -0.3081 -0.0550 -0.2256
 1769SOL    HW1 7686  10.580   9.646   4.418 -0.5422  2.2215  1.9567
 1769SOL    HW2 7687  10.715   9.581   4.393 -1.1474  2.2286 -1.8798
 1770SOL     OW 7688   8.966   1.882   8.191 -0.1265  0.6109  0.6462
 1770SOL    HW1 7689   9.056   1.901   8.163 -0.6181  1.7761 -0.2735
 1770SOL    HW2 7690   8.951   1.940   8.266 -1.0921  2.8791 -1.1572
 1771SOL     OW 7691   3.776   6.016   2.145 -0.3359 -0.1473  0.7873
 1771SOL    HW1 7692   3.827   6.096   2.131 -1.1955  0.4808  1.1921
 1771SOL    HW2 7693   3.768   5.978   2.057 -0.5406  0.5946  0.4748
 1772SOL     OW 7694  10.685   1.439   2.467 -0.3257 -0.0373  0.3705
 1772SOL    HW1 7695  10.598   1.476   2.482 -0.1533 -0.1813  1.8827
 1772SOL    HW2 7696  10.745   1.497   2.515 -0.0415 -2.1156  2.7381
 1773SOL     OW 7697   9.608   0.723   5.365  0.0527 -0.0832 -0.1179
 1773SOL    HW1 7698   9.673   0.746   5.431 -1.8985  1.6964  1.2902
 1773SOL    HW2 7699   9.593   0.629   5.378  1.4344 -0.2704  0.3055
 1774SOL     OW 7700  10.499   1.184   4.737  0.0011  0.4707 -0.0104
 1774SOL    HW1 7701  10.575   1.161   4.683 -0.1762 -1.0149  0.3327
 1774SOL    HW2 7702  10.424   1.152   4.687 -0.2000 -0.4853  0.8635
 1775SOL     OW 7703   5.059   2.865   1.104  0.8341  0.1258 -0.0143
 1775SOL    HW1 7704   5.123   2.795   1.090 -0.0640 -1.5514  3.2824
 1775SOL    HW2 7705   5.106   2.930   1.156  1.0427  1.0573 -1.3051
 1776SOL     OW 7706   5.953   4.180   3.626 -0.3732 -0.4429 -0.3036
 1776SOL    HW1 7707   5.868   4.203   3.663  0.1643  0.5982  0.3358
 1776SOL    HW2 7708   5.934   4.157   3.535 -1.1930  1.0017 -0.5326
 1777SOL     OW 7709   4.895   3.919   5.590  0.3064 -0.0056 -0.0058
 1777SOL    HW1 7710   4.851   4.003   5.600 -1.1627 -0.9190  1.8852
 1777SOL    HW2 7711   4.954   3.931   5.516 -1.5769  1.9532 -1.2981
 1778SOL     OW 7712   9.805   4.041   8.109 -0.9273  0.3815  0.3920
 1778SOL    HW1 7713   9.880   3.982   8.107 -0.7187  0.6239  0.8038
 1778SOL    HW2 7714   9.742   4.004   8.047 -0.5637  0.0460  0.2265
 1779SOL     OW 7715   9.704   4.054   0.274  0.3252 -0.3075  0.5146
 1779SOL    HW1 7716   9.642   4.007   0.218 -0.8576  0.1633  1.3916
 1779SOL    HW2 7717   9.789   4.018   0.249 -0.4216 -2.1156  0.3661
 1780SOL     OW 7718   9.330   4.878   7.972  0.4604 -0.1569 -0.5153
 1780SOL    HW1 7719   9.298   4.893   8.061 -1.5153  0.5330 -1.2820
 1780SOL    HW2 7720   9.367   4.962   7.945  1.2635 -0.4291 -0.2839
 1781SOL     OW 7721   0.365   7.513   0.905  0.0944 -0.1548 -0.2204
 1781SOL    HW1 7722   0.438   7.573   0.889 -0.7844  1.2967  1.0023
 1781SOL    HW2 7723   0.405   7.426   0.903  2.1212  0.6395  1.5864
 1782SOL     OW 7724   6.716   6.619   4.026  0.0353 -0.2523  0.3126
 1782SOL    HW1 7725   6.699   6.531   4.059  0.5252 -1.0808 -1.5100
 1782SOL    HW2 7726   6.758   6.664   4.099 -0.5635 -1.3957  1.4090
 1783SOL     OW 7727   9.473   0.906   0.783  0.0739 -0.0132 -0.5584
 1783SOL    HW1 7728   9.492   0.930   0.874  0.4642  3.3391 -1.4005
 1783SOL    HW2 7729   9.558   0.893   0.743 -0.0784 -0.8104 -0.6459
 1784SOL     OW 7730   8.327   1.450   8.474 -0.2745  0.5964  0.1454
 1784SOL    HW1 7731   8.243   1.465   8.516 -0.3557  2.0898 -0.4855
 1784SOL    HW2 7732   8.328   1.511   8.400  0.6420 -0.6292 -0.8960
 1785SOL     OW 7733   6.864   3.743   7.866 -0.4300  0.1509  0.2046
 1785SOL    HW1 7734   6.901   3.678   7.926 -2.6594  0.4566  2.0570
 1785SOL    HW2 7735   6.938   3.797   7.840  0.5855  0.5797  3.4646
 1786SOL     OW 7736   4.524   4.946   8.522 -0.3809  0.4318 -0.6237
 1786SOL    HW1 7737   4.607   4.994   8.524 -0.3142  0.4474  3.0845
 1786SOL    HW2 7738   4.463   5.005   8.478  0.5859  2.3181  0.4725
 1787SOL     OW 7739   1.359   4.031  10.329 -0.0609 -0.2537  0.3039
 1787SOL    HW1 7740   1.268   4.037  10.357 -0.5904 -1.8141 -0.8755
 1787SOL    HW2 7741   1.375   3.936  10.323  0.6211 -0.0478 -2.4955
 1788SOL     OW 7742   7.431   3.386   7.481 -0.3992 -0.4653  0.3882
 1788SOL    HW1 7743   7.337   3.400   7.495 -0.2224  1.9864 -0.4035
 1788SOL    HW2 7744   7.438   3.295   7.454 -2.4437 -0.9392  1.2477
 1789SOL     OW 7745   0.683   1.008   2.480  0.1040  0.5209  0.1976
 1789SOL    HW1 7746   0.706   1.100   2.494  1.0747  0.2605  0.3495
 1789SOL    HW2 7747   0.587   1.008   2.481  0.0875  1.5139  0.3035
 1790SOL     OW 7748   7.632   4.500   7.534 -0.3656  0.3138 -0.2820
 1790SOL    HW1 7749   7.650   4.587   7.570 -0.2062 -0.5184  1.8255
 1790SOL    HW2 7750   7.539   4.503   7.510 -0.5020  0.9232  0.2763
 1791SOL     OW 7751   1.301   3.185   8.939  0.2509 -0.2281 -0.3479
 1791SOL    HW1 7752   1.359   3.258   8.921  0.2808 -0.1583  0.0440
 1791SOL    HW2 7753   1.213   3.223   8.938  0.2519 -0.2259 -0.3468
 1792SOL     OW 7754   4.367   0.615   8.951 -0.2932  0.4708  0.3923
 1792SOL    HW1 7755   4.377   0.699   8.906 -0.0986  0.2018 -0.0786
 1792SOL    HW2 7756   4.303   0.568   8.897 -0.7935  0.5076  0.9380
 1793SOL     OW 7757   5.822   9.020   3.057  0.1351 -0.3100 -0.0381
 1793SOL    HW1 7758   5.895   9.020   3.119  0.2805  1.9589 -0.1309
 1793SOL    HW2 7759   5.747   8.991   3.109  0.4108  0.7958  1.0115
 1794SOL     OW 7760   0.049   1.624   7.811 -0.5183 -0.1742 -0.2912
 1794SOL    HW1 7761   0.069   1.640   7.903 -0.3894  1.5109 -0.5768
 1794SOL    HW2 7762   0.046   1.711   7.772  0.2779 -0.8949 -2.0565
 1795SOL     OW 7763   6.571   5.094   2.628 -0.6883 -0.1267 -0.0574
 1795SOL    HW1 7764   6.575   5.070   2.536 -1.3646 -0.4837 -0.0052
 1795SOL    HW2 7765   6.649   5.148   2.643 -0.3279 -0.4542 -0.7197
 1796SOL     OW 7766   7.290   0.263   1.636  0.2776  0.2789  0.3421
 1796SOL    HW1 7767   7.356   0.308   1.688  0.1790  0.0457  0.6747
 1796SOL    HW2 7768   7.237   0.333   1.598  0.0329  0.4535  0.9766
 1797SOL     OW 7769   7.968   1.568   3.865  0.1786  0.4102 -0.1250
 1797SOL    HW1 7770   7.883   1.574   3.910  0.0176 -0.1906 -0.3455
 1797SOL    HW2 7771   7.974   1.477   3.837  1.1566  0.3086  0.3835
 1798SOL     OW 7772   4.158   0.875   9.860  0.5160  0.3409  0.5628
 1798SOL    HW1 7773   4.113   0.894   9.777  0.8992  0.6690  0.4283
 1798SOL    HW2 7774   4.236   0.930   9.858  1.2860 -0.7197  0.4895
 1799SOL     OW 7775   0.085   8.054   2.071  0.5535  0.1802 -0.3815
 1799SOL    HW1 7776   0.132   8.034   2.152 -0.3204  0.1363  0.1308
 1799SOL    HW2 7777   0.151   8.092   2.014  0.9740  1.1932  0.7297
 1800SOL     OW 7778   5.427   9.033   9.424  0.0113  0.2905 -0.1452
 1800SOL    HW1 7779   5.431   9.128   9.422  1.4925  0.2861  0.8780
 1800SOL    HW2 7780   5.338   9.014   9.454 -0.1674  1.3674  0.0561
 1801SOL     OW 7781   5.537   6.165   7.886  0.5701  0.0078 -0.1771
 1801SOL    HW1 7782   5.573   6.210   7.810 -1.6684  1.1921 -0.6415
 1801SOL    HW2 7783   5.505   6.082   7.851  0.7921 -0.0515 -0.2391
 1802SOL     OW 7784   1.755   9.943   9.631  0.0890  0.5600  0.3963
 1802SOL    HW1 7785   1.671   9.901   9.611  0.8533  0.1723 -2.5482
 1802SOL    HW2 7786   1.739  10.036   9.620  0.1197  0.4477 -0.8014
 1803SOL     OW 7787   9.375   4.612   7.900 -0.1132 -0.7912 -0.1833
 1803SOL    HW1 7788   9.346   4.701   7.922 -1.4511 -0.8384 -1.6342
 1803SOL    HW2 7789   9.471   4.617   7.902 -0.1759  0.5852  0.1316
 1804SOL     OW 7790   3.952   2.798   2.543 -0.3037  0.1730  0.0959
 1804SOL    HW1 7791   3.891   2.860   2.583 -1.9876 -0.7014 -1.0114
 1804SOL    HW2 7792   3.914   2.780   2.457  0.7313 -1.5677 -0.0324
 1805SOL     OW 7793   2.235   9.225   7.570  0.4533 -0.1705  0.2299
 1805SOL    HW1 7794   2.247   9.298   7.630  0.1513  0.7396 -0.7841
 1805SOL    HW2 7795   2.168   9.170   7.612 -0.5006  0.9807  0.2655
 1806SOL     OW 7796   4.623   3.426   7.888 -0.3538 -0.2159 -0.1387
 1806SOL    HW1 7797   4.625   3.384   7.802 -1.0946  0.9029 -0.7288
 1806SOL    HW2 7798   4.702   3.481   7.890 -1.5855  1.7027 -1.1702
 1807SOL     OW 7799   8.806  10.453   1.016 -0.0095 -0.4495  0.1521
 1807SOL    HW1 7800   8.724  10.491   1.046 -0.5047 -0.7300 -0.8141
 1807SOL    HW2 7801   8.801  10.456   0.921  1.8000  1.0341  0.0513
 1808SOL     OW 7802   8.651   5.031   1.227  0.3292  0.0516 -0.3356
 1808SOL    HW1 7803   8.681   5.087   1.155  1.9982 -1.2547 -0.7335
 1808SOL    HW2 7804   8.686   5.072   1.306  1.1290 -0.1403 -0.5803
 1809SOL     OW 7805  10.581   9.607   3.373 -0.2684 -0.6806 -0.3215
 1809SOL    HW1 7806  10.630   9.642   3.448  0.2011  1.1601 -1.4210
 1809SOL    HW2 7807  10.604   9.514   3.371  1.8932 -0.2245  0.1951
 1810SOL     OW 7808   7.836   4.587   5.207  0.1336 -0.4412 -0.7918
 1810SOL    HW1 7809   7.880   4.509   5.173  2.0398  0.5012 -0.6233
 1810SOL    HW2 7810   7.871   4.597   5.296  0.3883  0.9273 -1.0276
 1811SOL     OW 7811   5.748   0.072   9.048 -0.3610 -0.8390  0.2155
 1811SOL    HW1 7812   5.800   0.011   8.996 -0.8238 -2.2513  1.3217
 1811SOL    HW2 7813   5.678   0.018   9.084 -1.5288  0.6321  0.2406
 1812SOL     OW 7814   3.672   1.383   0.766 -0.1491 -0.5839 -0.3605
 1812SOL    HW1 7815   3.694   1.299   0.724  1.0226  0.1849 -1.3583
 1812SOL    HW2 7816   3.614   1.425   0.703 -0.5989 -0.5746  0.0634
 1813SOL     OW 7817   5.895   9.372   9.574  0.1377  0.2014 -0.0289
 1813SOL    HW1 7818   5.823   9.393   9.633  0.0048  2.3348 -0.8894
 1813SOL    HW2 7819   5.952   9.315   9.626 -1.1753  0.0417  1.3103
 1814SOL     OW 7820   9.794   9.367   7.953 -0.0473 -0.5288  0.1042
 1814SOL    HW1 7821   9.718   9.315   7.925 -0.4703 -0.4053  1.0074
 1814SOL    HW2 7822   9.844   9.381   7.872 -0.9114 -0.7251 -0.4803
 1815SOL     OW 7823   8.580   8.246   3.583 -0.1731  0.2770 -0.5181
 1815SOL    HW1 7824   8.669   8.217   3.565 -0.2761  0.3455 -1.1849
 1815SOL    HW2 7825   8.584   8.341   3.577 -0.0754  0.3424  0.5135
 1816SOL     OW 7826   1.568   1.952   5.999  0.5671 -0.2652  0.1876
 1816SOL    HW1 7827   1.636   1.995   5.946  0.2765  2.2988  1.7152
 1816SOL    HW2 7828   1.611   1.934   6.083  0.5168 -2.6469 -0.2421
 1817SOL     OW 7829   2.160   5.088   2.403 -0.6983 -0.0001  0.3187
 1817SOL    HW1 7830   2.140   5.029   2.331  2.4219 -0.2821 -0.4894
 1817SOL    HW2 7831   2.141   5.176   2.369 -0.7675 -0.2471 -0.2839
 1818SOL     OW 7832   4.415   9.835   9.988  0.1444  0.2217  0.0975
 1818SOL    HW1 7833   4.490   9.889   9.963  0.5186  0.6451  1.9857
 1818SOL    HW2 7834   4.362   9.891  10.045 -0.8506 -0.5569 -0.0271
 1819SOL     OW 7835   3.785   0.511   0.639 -0.4287 -0.1639  0.1674
 1819SOL    HW1 7836   3.849   0.454   0.597  0.8094  0.6983  0.8479
 1819SOL    HW2 7837   3.746   0.456   0.708  0.2220 -0.4121  0.3396
 1820SOL     OW 7838   9.569   8.657   4.515  0.2374 -0.5844  0.2287
 1820SOL    HW1 7839   9.636   8.661   4.447 -0.4163  1.2316 -0.3638
 1820SOL    HW2 7840   9.617   8.673   4.596  0.5706  0.6253 -0.1807
 1821SOL     OW 7841   4.141   8.010   8.271  0.1063  0.1035  0.3316
 1821SOL    HW1 7842   4.174   8.020   8.182 -0.3561 -3.1590 -0.3537
 1821SOL    HW2 7843   4.055   8.053   8.269  0.0450 -0.0231 -0.8538
 1822SOL     OW 7844   9.820   4.053   8.372  0.2601 -0.4302 -0.4152
 1822SOL    HW1 7845   9.738   4.021   8.408  0.7384 -0.4993  0.6364
 1822SOL    HW2 7846   9.808   4.048   8.277  0.5567 -4.4454 -0.3958
 1823SOL     OW 7847   1.878  10.224   8.716  0.0264  0.0071  0.0149
 1823SOL    HW1 7848   1.954  10.238   8.773 -0.3855 -2.0337  1.1601
 1823SOL    HW2 7849   1.914  10.180   8.638  0.2419  0.5899 -0.2206
 1824SOL     OW 7850   0.835   4.086   4.104  0.1556 -0.1536 -0.5746
 1824SOL    HW1 7851   0.834   4.053   4.194  0.8359 -1.0268 -0.8779
 1824SOL    HW2 7852   0.756   4.141   4.099  0.8396  1.0630  0.9526
 1825SOL     OW 7853   1.902   2.523   2.232  0.4345  0.4044  0.2264
 1825SOL    HW1 7854   1.876   2.587   2.166 -0.4646 -0.8582 -0.6763
 1825SOL    HW2 7855   1.990   2.496   2.206  0.4036  0.4987  0.0211
 1826SOL     OW 7856   9.180   2.714  10.106  0.1905 -0.1580  0.1632
 1826SOL    HW1 7857   9.237   2.737  10.179 -1.1305  1.6600  0.6936
 1826SOL    HW2 7858   9.139   2.631  10.132  1.4649 -0.7170  0.4208
 1827SOL     OW 7859   1.708   6.545   8.571 -0.1021 -0.3761 -0.1349
 1827SOL    HW1 7860   1.770   6.607   8.533  0.4163 -0.5387  0.4372
 1827SOL    HW2 7861   1.753   6.461   8.568 -0.4566 -0.5700 -0.0883
 1828SOL     OW 7862  10.561   1.878   2.009 -0.3408  0.0623  0.4971
 1828SOL    HW1 7863  10.465   1.881   2.014 -0.4067 -1.1941  0.3308
 1828SOL    HW2 7864  10.582   1.925   1.928 -1.0004 -1.6314 -0.7122
 1829SOL     OW 7865   5.628   5.651   2.685  0.1493  0.2096  0.1672
 1829SOL    HW1 7866   5.580   5.581   2.730  0.1607 -0.3718 -0.6891
 1829SOL    HW2 7867   5.704   5.607   2.647  0.1543  0.6890 -0.3887
 1830SOL     OW 7868   5.958   5.119   3.522  0.1503  0.1899  0.3683
 1830SOL    HW1 7869   6.038   5.136   3.472 -0.9249  3.1479 -0.5498
 1830SOL    HW2 7870   5.889   5.113   3.456 -0.7011 -0.2948  1.2642
 1831SOL     OW 7871   6.547  10.197   8.235 -0.3757 -0.1055  0.1020
 1831SOL    HW1 7872   6.561  10.283   8.195  0.8017 -0.2331  0.1953
 1831SOL    HW2 7873   6.452  10.184   8.232 -0.3170 -0.6651 -3.8284
 1832SOL     OW 7874   2.560   9.599   9.139  0.2731 -0.2387  0.5171
 1832SOL    HW1 7875   2.517   9.543   9.204 -1.6668  0.7405  0.1490
 1832SOL    HW2 7876   2.535   9.688   9.163  2.0820  0.3913  0.2167
 1833SOL     OW 7877   6.649   1.038   2.810 -0.2996  0.6772  0.8721
 1833SOL    HW1 7878   6.650   1.130   2.837  0.1483  0.5218  1.4040
 1833SOL    HW2 7879   6.726   1.029   2.753 -0.0851  0.5222  1.1887
 1834SOL     OW 7880   2.199   9.802  10.222 -0.3107 -0.0111  0.1735
 1834SOL    HW1 7881   2.233   9.824  10.134 -1.6698  0.3995 -0.2638
 1834SOL    HW2 7882   2.144   9.725  10.208 -1.0039  0.4036  0.5597
 1835SOL     OW 7883   0.382   0.063   7.483 -0.5077 -0.4002  0.8872
 1835SOL    HW1 7884   0.447  -0.002   7.455 -1.1953 -0.9646  0.5571
 1835SOL    HW2 7885   0.307   0.048   7.425 -0.6133  0.8235  0.6813
 1836SOL     OW 7886   3.412   2.773   2.150 -0.8393 -0.3180  0.3915
 1836SOL    HW1 7887   3.352   2.823   2.204 -1.3300  0.0983 -0.5121
 1836SOL    HW2 7888   3.496   2.820   2.157 -1.5090  1.2060 -1.1600
 1837SOL     OW 7889   1.052   9.204   8.005 -0.6169 -0.5061 -0.4592
 1837SOL    HW1 7890   1.012   9.221   8.091  1.0378  1.9549 -0.0748
 1837SOL    HW2 7891   1.128   9.262   8.003  0.9923 -2.5617 -2.5002
 1838SOL     OW 7892   1.748   1.148   6.197  0.0259 -0.3839  0.1703
 1838SOL    HW1 7893   1.821   1.191   6.241  0.6090  1.7375 -2.5624
 1838SOL    HW2 7894   1.788   1.081   6.142 -0.1982  0.0119 -0.4834
 1839SOL     OW 7895   5.002   8.970   7.972 -0.0648  0.1981 -0.1341
 1839SOL    HW1 7896   4.957   8.916   7.907 -0.2199 -1.6833  1.4147
 1839SOL    HW2 7897   4.973   9.059   7.954 -2.7905 -0.6553 -0.5433
 1840SOL     OW 7898  10.751   3.818   9.800 -0.1042 -0.3734 -0.2346
 1840SOL    HW1 7899  10.779   3.828   9.891  0.1889  0.4872 -0.4090
 1840SOL    HW2 7900  10.659   3.792   9.807 -0.2378  0.2031  0.3081
 1841SOL     OW 7901  10.693   8.295   0.986 -0.6966  0.0145  0.0194
 1841SOL    HW1 7902  10.692   8.199   0.991 -0.9979  0.0705  2.6853
 1841SOL    HW2 7903  10.777   8.316   0.944 -0.9617 -1.3996 -1.3073
 1842SOL     OW 7904  10.429   4.135   3.368 -0.2121 -0.1956 -0.0113
 1842SOL    HW1 7905  10.444   4.091   3.452  0.9921 -1.4722 -0.8510
 1842SOL    HW2 7906  10.338   4.116   3.347 -0.0983 -1.1471  0.3115
 1843SOL     OW 7907  10.667   8.865   5.149  0.3670 -0.5509  0.2096
 1843SOL    HW1 7908  10.744   8.843   5.097  1.9293  1.1350  1.6706
 1843SOL    HW2 7909  10.627   8.939   5.103 -0.0620 -1.0650 -0.2482
 1844SOL     OW 7910   8.048   5.084   7.001  0.2255 -1.1237 -0.4705
 1844SOL    HW1 7911   7.969   5.034   6.982 -0.4602 -0.3715  0.3212
 1844SOL    HW2 7912   8.036   5.115   7.091  0.6661  0.3685 -0.8979
 1845SOL     OW 7913   8.858   3.812   3.089 -0.3664  0.4372  0.5933
 1845SOL    HW1 7914   8.903   3.855   3.161 -0.0693  1.4023 -0.1413
 1845SOL    HW2 7915   8.899   3.848   3.010  1.3278 -2.6353 -0.1356
 1846SOL     OW 7916   1.503   3.618   4.517  0.0678  0.1607 -0.0006
 1846SOL    HW1 7917   1.543   3.531   4.512  0.7744  0.4006  1.1665
 1846SOL    HW2 7918   1.559   3.673   4.461  0.4794  0.1619  0.4027
 1847SOL     OW 7919  10.719  10.258   2.303 -0.5721  0.3698 -0.0414
 1847SOL    HW1 7920  10.713  10.353   2.294 -0.9475  0.2184 -1.5686
 1847SOL    HW2 7921  10.660  10.237   2.375  1.1583  1.4739  1.8322
 1848SOL     OW 7922   6.199   6.354   6.044  0.0314 -0.0862  0.4496
 1848SOL    HW1 7923   6.261   6.424   6.066  0.5400 -0.8424  1.5500
 1848SOL    HW2 7924   6.123   6.371   6.100 -0.3195  0.2392 -0.1247
 1849SOL     OW 7925   0.391   0.653   6.316  0.0454  0.3576  0.6611
 1849SOL    HW1 7926   0.386   0.748   6.306 -0.1599  0.3483  0.6545
 1849SOL    HW2 7927   0.344   0.635   6.398  1.6549  0.4256  1.6335
 1850SOL     OW 7928   1.865   0.517   8.159  0.4674  0.2335 -0.0618
 1850SOL    HW1 7929   1.881   0.612   8.162 -0.4479  0.4317 -0.7725
 1850SOL    HW2 7930   1.804   0.501   8.231 -0.6132  0.4700 -0.8958
 1851SOL     OW 7931   4.721   2.070   2.370  0.0558  0.0555 -0.7152
 1851SOL    HW1 7932   4.721   2.081   2.466 -1.5874  1.6825 -0.8364
 1851SOL    HW2 7933   4.805   2.105   2.341 -0.0474  0.9437  0.0218
 1852SOL     OW 7934   7.374   7.404  10.801  0.3094  0.4357 -0.4889
 1852SOL    HW1 7935   7.292   7.449  10.820 -0.6292 -1.8423  1.3715
 1852SOL    HW2 7936   7.351   7.341  10.732  0.8590  0.7260 -0.9461
 1853SOL     OW 7937   8.914   8.296   9.718  0.1189 -0.0282  0.2707
 1853SOL    HW1 7938   8.953   8.261   9.798  1.9592 -1.1743 -1.0470
 1853SOL    HW2 7939   8.968   8.261   9.647 -0.7960  1.7871 -1.4427
 1854SOL     OW 7940   7.549   0.141   9.794 -0.2612 -0.3895  0.4477
 1854SOL    HW1 7941   7.556   0.128   9.888  0.7810  0.8967  0.5737
 1854SOL    HW2 7942   7.609   0.213   9.775 -0.6008 -0.4957 -1.1726
 1855SOL     OW 7943   7.345   5.914   4.555 -0.2216 -0.3196 -0.2116
 1855SOL    HW1 7944   7.275   5.885   4.613 -0.6192  0.2119 -0.4170
 1855SOL    HW2 7945   7.314   5.998   4.521  0.9348  0.3848  0.4279
 1856SOL     OW 7946   1.205   1.353   5.900  0.4737 -0.2111 -0.0220
 1856SOL    HW1 7947   1.123   1.352   5.850  0.6436  0.7176 -0.3391
 1856SOL    HW2 7948   1.266   1.402   5.845  0.5980  1.0452  1.1781
 1857SOL     OW 7949   0.470  10.133   8.091  0.0438  0.7169 -0.4922
 1857SOL    HW1 7950   0.550  10.132   8.143 -0.1405  1.6118 -0.1602
 1857SOL    HW2 7951   0.442  10.042   8.086  1.2770  0.3413 -0.9272
 1858SOL     OW 7952   7.841   0.083   9.312  0.3331 -0.1478  0.3285
 1858SOL    HW1 7953   7.818   0.165   9.357  1.1826 -0.1786  0.8502
 1858SOL    HW2 7954   7.937   0.079   9.318  0.2658 -1.4746  0.8294
 1859SOL     OW 7955   8.056   1.130   1.717 -0.1863  0.2854 -0.1567
 1859SOL    HW1 7956   8.099   1.088   1.791 -0.0025  0.1562 -0.3369
 1859SOL    HW2 7957   8.125   1.180   1.673 -0.2511  0.1999 -0.3585
 1860SOL     OW 7958   6.458   0.846   6.641 -0.1610  0.0790  0.2961
 1860SOL    HW1 7959   6.374   0.886   6.618 -0.5358 -0.5828  0.4886
 1860SOL    HW2 7960   6.517   0.871   6.569 -0.6767  0.0696 -0.1369
 1861SOL     OW 7961  10.585   5.076   4.988 -0.2002 -0.3316 -0.2705
 1861SOL    HW1 7962  10.512   5.015   4.976 -0.4501 -0.0648 -0.1216
 1861SOL    HW2 7963  10.603   5.074   5.082  0.6009 -1.0966 -0.4238
 1862SOL     OW 7964   8.924   9.190   6.052 -0.0417 -0.4410  0.8006
 1862SOL    HW1 7965   8.853   9.151   6.001  1.5409 -1.2780 -0.8718
 1862SOL    HW2 7966   8.884   9.265   6.096 -1.7538 -0.3263 -0.8271
 1863SOL     OW 7967   6.584   4.270   8.252 -0.1414 -0.2870 -0.3339
 1863SOL    HW1 7968   6.619   4.346   8.205 -0.2216 -0.0212  0.0318
 1863SOL    HW2 7969   6.638   4.197   8.223 -0.0094 -0.0748 -0.6267
 1864SOL     OW 7970   9.247   9.668   2.101  0.2229 -0.4873  0.1711
 1864SOL    HW1 7971   9.334   9.703   2.121 -0.9407  1.0152  3.3590
 1864SOL    HW2 7972   9.200   9.742   2.063  0.0316 -0.9739 -0.5366
 1865SOL     OW 7973   1.725   1.557   6.793 -0.0305 -0.2791  0.4910
 1865SOL    HW1 7974   1.700   1.479   6.744 -0.2657 -1.0966  1.8897
 1865SOL    HW2 7975   1.656   1.621   6.773 -0.2345 -0.6636 -0.0531
 1866SOL     OW 7976   8.373   4.471   2.467  0.1550  0.0253  0.3696
 1866SOL    HW1 7977   8.345   4.562   2.465  1.7667  0.5843  1.5188
 1866SOL    HW2 7978   8.297   4.422   2.435 -0.4450  1.8045 -1.0792
 1867SOL     OW 7979   1.091   0.853   0.894  0.3598 -0.3600 -0.1650
 1867SOL    HW1 7980   1.166   0.911   0.881  1.0575 -1.2140 -0.1290
 1867SOL    HW2 7981   1.076   0.852   0.988 -1.2458  1.6543 -0.3482
 1868SOL     OW 7982   2.899   6.369   0.704 -0.0018 -0.2526 -0.1015
 1868SOL    HW1 7983   2.866   6.290   0.747 -0.1746  0.4631  1.1282
 1868SOL    HW2 7984   2.994   6.364   0.715 -0.1533  2.0787  4.5542
 1869SOL     OW 7985   3.134   9.090   4.531  0.3415 -0.4225 -0.0582
 1869SOL    HW1 7986   3.165   9.143   4.457  0.2783 -0.0402  0.1860
 1869SOL    HW2 7987   3.106   9.008   4.491  2.2146 -1.0249 -0.2286
 1870SOL     OW 7988   4.557   0.917   0.790 -0.1624 -0.1364 -0.2678
 1870SOL    HW1 7989   4.644   0.948   0.762  0.2425  1.8137  2.6751
 1870SOL    HW2 7990   4.531   0.856   0.722  3.5313 -0.8391 -1.3127
 1871SOL     OW 7991   1.775   8.749   8.770  0.2080 -0.0637  0.2045
 1871SOL    HW1 7992   1.851   8.774   8.717 -0.2856 -0.5028 -0.7500
 1871SOL    HW2 7993   1.752   8.661   8.738 -0.6156  0.0118  0.5595
 1872SOL     OW 7994   1.639   4.617   0.712  0.1646 -0.7292  0.3805
 1872SOL    HW1 7995   1.626   4.573   0.796 -1.1453  1.0869  1.1712
 1872SOL    HW2 7996   1.551   4.632   0.678  0.6548 -0.9395 -1.1004
 1873SOL     OW 7997   1.818   4.061   4.804  0.2369  0.0516  0.3911
 1873SOL    HW1 7998   1.873   4.053   4.881 -0.1112  0.8266  0.7353
 1873SOL    HW2 7999   1.833   4.150   4.773  0.5481 -0.3277 -0.5797
 1874SOL     OW 8000   1.740   0.875   2.646 -0.5350  0.6545  0.0404
 1874SOL    HW1 8001   1.648   0.879   2.620 -0.3741  0.5843 -0.5456
 1874SOL    HW2 8002   1.778   0.806   2.593  0.1564  1.5391 -0.6622
 1875SOL     OW 8003   4.381   9.312   9.754  0.1130 -0.1161  0.4813
 1875SOL    HW1 8004   4.326   9.360   9.815 -1.0296  0.9618 -1.2878
 1875SOL    HW2 8005   4.320   9.254   9.707  1.0263 -1.2783  0.6714
 1876SOL     OW 8006  10.695   2.320   9.398  0.1714  0.0881  0.0161
 1876SOL    HW1 8007  10.717   2.363   9.315 -0.7207  0.2118 -0.1721
 1876SOL    HW2 8008  10.734   2.233   9.391  1.7772  0.7634  0.2950
 1877SOL     OW 8009   5.878   2.624   5.019  0.2038 -0.1950  0.2962
 1877SOL    HW1 8010   5.950   2.573   5.056  0.1089 -0.7100 -0.2188
 1877SOL    HW2 8011   5.857   2.580   4.936 -1.0020 -0.3285  0.6499
 1878SOL     OW 8012   9.889   8.854   6.236  0.1354 -0.5612  0.3956
 1878SOL    HW1 8013   9.905   8.803   6.316 -0.1253  0.8675  1.3963
 1878SOL    HW2 8014   9.840   8.795   6.179 -0.7474 -1.2149  1.7867
 1879SOL     OW 8015   9.480   2.206   1.522  0.9024  0.5465  0.4396
 1879SOL    HW1 8016   9.434   2.287   1.546  0.4356  1.0337 -1.7978
 1879SOL    HW2 8017   9.429   2.170   1.450  2.7214 -0.1633 -0.5702
 1880SOL     OW 8018   5.442   5.833   2.733 -0.9220  0.2791  0.0915
 1880SOL    HW1 8019   5.515   5.774   2.715 -1.5634 -0.1844 -1.1630
 1880SOL    HW2 8020   5.418   5.816   2.824  0.1946  0.0629  0.3485
 1881SOL     OW 8021   5.245   3.316   1.032  0.0346 -0.6647 -0.2142
 1881SOL    HW1 8022   5.215   3.229   1.060 -2.1942 -0.4843 -1.7408
 1881SOL    HW2 8023   5.199   3.377   1.090  1.1915 -0.4511  0.5134
 1882SOL     OW 8024   2.325   6.343   1.375  0.2660 -0.5554  0.7721
 1882SOL    HW1 8025   2.238   6.355   1.338  0.9236  1.5353 -0.2293
 1882SOL    HW2 8026   2.330   6.408   1.446  1.1396 -0.3766  0.5584
 1883SOL     OW 8027   3.697   9.392   4.911  0.1497  0.3938 -0.6509
 1883SOL    HW1 8028   3.731   9.481   4.902  1.1326  0.1568  0.4783
 1883SOL    HW2 8029   3.645   9.378   4.832  0.3087  1.8208 -1.0333
 1884SOL     OW 8030  10.763   1.455   8.625 -0.5309  0.5114  0.3845
 1884SOL    HW1 8031  10.776   1.459   8.720 -1.8041  0.9815  0.5663
 1884SOL    HW2 8032  10.674   1.487   8.612  0.4864  2.9344 -1.2034
 1885SOL     OW 8033   9.610   6.756   9.562 -0.5827  0.2489 -0.6309
 1885SOL    HW1 8034   9.643   6.840   9.529  0.6266 -0.0642 -0.2579
 1885SOL    HW2 8035   9.603   6.701   9.484 -2.5649  1.0352 -1.0713
 1886SOL     OW 8036   9.427   8.117  10.543  0.5164 -0.1017 -0.1144
 1886SOL    HW1 8037   9.462   8.051  10.603  1.2801  0.8674  0.5374
 1886SOL    HW2 8038   9.437   8.200  10.590  0.5821  0.6130 -1.3503
 1887SOL     OW 8039   4.157   7.634  10.531  0.1257 -0.2909 -0.0547
 1887SOL    HW1 8040   4.080   7.660  10.581  0.0275  0.0442 -0.3819
 1887SOL    HW2 8041   4.195   7.716  10.500  0.3565 -0.4790 -0.2746
 1888SOL     OW 8042  10.402   9.364   7.266  0.1186 -0.1380  0.3192
 1888SOL    HW1 8043  10.475   9.339   7.322 -0.3730  0.4472  1.2501
 1888SOL    HW2 8044  10.324   9.352   7.321 -0.3500  0.7348 -0.1262
 1889SOL     OW 8045   5.411   3.695   9.234 -0.3137 -0.1063  1.0925
 1889SOL    HW1 8046   5.357   3.677   9.312  0.0472 -1.7926  0.9794
 1889SOL    HW2 8047   5.362   3.655   9.162 -0.1121  0.5149  0.6058
 1890SOL     OW 8048   1.106   8.124   8.908 -0.1841  0.3554  0.2732
 1890SOL    HW1 8049   1.097   8.040   8.952  0.4817  1.0103  1.7417
 1890SOL    HW2 8050   1.075   8.188   8.972 -0.9318  1.2195 -0.9128
 1891SOL     OW 8051   7.255  10.728   8.720 -0.0731  0.0408  0.2130
 1891SOL    HW1 8052   7.261  10.637   8.751 -1.3889 -0.2552 -0.3591
 1891SOL    HW2 8053   7.321  10.733   8.650  0.1819 -0.3878  0.4145
 1892SOL     OW 8054   9.971   2.904   5.309  0.2807  0.0803 -0.4530
 1892SOL    HW1 8055  10.040   2.844   5.338 -0.9414 -0.2451  2.0534
 1892SOL    HW2 8056   9.890   2.854   5.316 -0.4015  0.9009 -1.9359
 1893SOL     OW 8057   9.862   3.502   0.836  0.6698 -0.5029  0.5471
 1893SOL    HW1 8058   9.930   3.558   0.873  1.1151 -0.9358  0.3938
 1893SOL    HW2 8059   9.801   3.563   0.794  2.4500 -0.2187 -1.8196
 1894SOL     OW 8060  10.618   0.183   8.478 -0.1925  0.2150 -0.2103
 1894SOL    HW1 8061  10.675   0.226   8.414  0.2309 -1.5713 -1.0764
 1894SOL    HW2 8062  10.649   0.215   8.562  0.2078  1.4553 -0.7979
 1895SOL     OW 8063   7.009  10.044   6.284  0.2423  0.6223  0.1828
 1895SOL    HW1 8064   6.990  10.076   6.196 -0.7251 -1.9434 -0.6231
 1895SOL    HW2 8065   7.079   9.979   6.271 -1.4698 -1.4936  0.8651
 1896SOL     OW 8066  10.552   7.362   6.992  0.5674 -0.0109 -0.2703
 1896SOL    HW1 8067  10.634   7.330   7.029  0.2077 -0.7193 -0.0473
 1896SOL    HW2 8068  10.536   7.446   7.035 -0.0701 -1.0096  1.5774
 1897SOL     OW 8069   7.052   9.713   9.185 -0.1113 -0.2366  0.2322
 1897SOL    HW1 8070   7.146   9.696   9.174  0.4115  1.9263  0.7482
 1897SOL    HW2 8071   7.044   9.807   9.171 -2.2062 -0.3697  0.3240
 1898SOL     OW 8072   3.431   3.290   6.291 -0.1995 -0.2289 -0.2616
 1898SOL    HW1 8073   3.474   3.295   6.205  2.6606 -0.0208  1.0855
 1898SOL    HW2 8074   3.416   3.196   6.304  0.6681 -0.4029 -0.4184
 1899SOL     OW 8075   6.944   9.457   4.486 -0.1048 -0.2427  0.1683
 1899SOL    HW1 8076   7.007   9.396   4.524  0.6820 -0.0560 -0.7914
 1899SOL    HW2 8077   6.862   9.437   4.530  1.0046  0.9035  2.9918
 1900SOL     OW 8078   9.043  10.283   3.158  0.1934 -0.6915  0.2350
 1900SOL    HW1 8079   8.992  10.304   3.080  0.2988 -0.5709  0.1996
 1900SOL    HW2 8080   9.029  10.356   3.218  2.2558  0.5627 -0.7068
 1901SOL     OW 8081   2.853   9.069   8.764 -0.8913  0.1800  0.1739
 1901SOL    HW1 8082   2.851   8.988   8.813  1.2905  0.9454  1.7029
 1901SOL    HW2 8083   2.940   9.069   8.722 -1.7856  0.6414 -1.7853
 1902SOL     OW 8084   9.422   2.052   2.018  0.2486 -0.4832  0.6241
 1902SOL    HW1 8085   9.360   2.072   1.948  1.7273  0.0057 -0.6028
 1902SOL    HW2 8086   9.379   2.082   2.098 -1.4802 -1.0463 -0.0599
 1903SOL     OW 8087   1.077   7.711   6.181  0.0319  0.0958 -0.8498
 1903SOL    HW1 8088   1.116   7.791   6.146 -0.4261  0.5638 -0.3220
 1903SOL    HW2 8089   1.099   7.713   6.274 -0.7479  0.0785 -0.6562
 1904SOL     OW 8090   6.965   3.779   4.812 -0.0494  0.2695 -0.5652
 1904SOL    HW1 8091   6.998   3.715   4.748  2.1145  0.2217  0.4911
 1904SOL    HW2 8092   6.974   3.734   4.897  2.4145  2.2163  0.3117
 1905SOL     OW 8093   4.069   7.543   1.597 -0.1758  0.1974  0.1325
 1905SOL    HW1 8094   4.001   7.604   1.568  0.6894  0.9586 -0.3195
 1905SOL    HW2 8095   4.078   7.482   1.524  1.8414  1.9807 -1.2198
 1906SOL     OW 8096   8.188   3.099  10.709  0.2790  0.2584  0.7326
 1906SOL    HW1 8097   8.104   3.100  10.755  0.2715  0.7902  0.7174
 1906SOL    HW2 8098   8.233   3.176  10.742 -0.4883  1.7923 -1.5433
 1907SOL     OW 8099   5.629   0.656   9.946 -0.0014 -0.4563 -0.5066
 1907SOL    HW1 8100   5.553   0.696   9.987 -0.0387 -0.0172 -0.9989
 1907SOL    HW2 8101   5.600   0.569   9.919 -0.9995  0.4557 -2.6177
 1908SOL     OW 8102   5.023   2.879   9.601  0.0922  0.1213 -0.3252
 1908SOL    HW1 8103   5.043   2.970   9.622  1.0227 -0.3719  1.1454
 1908SOL    HW2 8104   5.084   2.856   9.531  3.0761 -0.5644  2.2496
 1909SOL     OW 8105   2.760   1.778   6.062 -0.4331 -0.1939  0.3326
 1909SOL    HW1 8106   2.785   1.738   5.978  1.6138  0.6690  0.4684
 1909SOL    HW2 8107   2.671   1.810   6.048  0.5317  1.7133 -2.2275
 1910SOL     OW 8108   2.565   8.103   0.173 -0.6696  0.5066  0.1287
 1910SOL    HW1 8109   2.557   8.142   0.260 -2.3066  0.0257  0.2240
 1910SOL    HW2 8110   2.654   8.067   0.171 -0.0549  1.8927  1.0014
 1911SOL     OW 8111   9.887   4.580   2.407 -0.4490 -0.5913 -0.0679
 1911SOL    HW1 8112   9.917   4.589   2.317 -4.5077 -4.4423 -2.1565
 1911SOL    HW2 8113   9.926   4.499   2.438 -0.1791 -0.0074  1.2054
 1912SOL     OW 8114   2.955   3.514   8.755  0.1521  0.3264  0.4998
 1912SOL    HW1 8115   3.043   3.521   8.719  0.4887 -1.0534  1.0081
 1912SOL    HW2 8116   2.912   3.596   8.729  0.8491  0.0460 -1.7407
 1913SOL     OW 8117   8.095   8.974  10.762  0.4745  0.2307  0.3335
 1913SOL    HW1 8118   8.065   8.898  10.712  2.5130  0.5154 -1.4734
 1913SOL    HW2 8119   8.015   9.015  10.795 -0.6830 -2.7758  1.5840
 1914SOL     OW 8120   9.304   3.615   4.642  0.5332  0.1908 -0.2073
 1914SOL    HW1 8121   9.397   3.597   4.655  0.6290  1.2343  0.7086
 1914SOL    HW2 8122   9.292   3.612   4.547  1.5625  0.3614 -0.3538
 1915SOL     OW 8123   3.266   8.815   1.146 -0.2347 -0.2416 -0.6839
 1915SOL    HW1 8124   3.239   8.898   1.105 -0.4490 -0.6877 -1.4692
 1915SOL    HW2 8125   3.199   8.799   1.213  0.5819  0.9236  0.4607
 1916SOL     OW 8126   5.951   1.217   3.860  0.0694 -0.2272 -0.2913
 1916SOL    HW1 8127   5.865   1.175   3.852  0.5692 -1.3211 -0.0726
 1916SOL    HW2 8128   5.931   1.310   3.868 -1.0611 -0.3778 -1.0583
 1917SOL     OW 8129   3.366   3.382   7.014  0.5562 -0.3748 -0.1759
 1917SOL    HW1 8130   3.318   3.452   7.059  0.5223  0.5474 -1.5842
 1917SOL    HW2 8131   3.306   3.353   6.945  0.5772 -1.8146  0.3839
 1918SOL     OW 8132   9.345   3.746   7.826 -0.6430  0.1239  0.1767
 1918SOL    HW1 8133   9.309   3.706   7.747  0.8914 -0.6543 -0.1689
 1918SOL    HW2 8134   9.331   3.680   7.895  2.0379 -1.2173 -0.4274
 1919SOL     OW 8135   3.994   3.278   0.859 -0.2117 -0.2052 -0.1732
 1919SOL    HW1 8136   3.899   3.267   0.870 -0.2608 -0.1800 -0.5510
 1919SOL    HW2 8137   4.005   3.373   0.850  0.0614 -0.0220  1.7357
 1920SOL     OW 8138   6.648   6.204  10.007 -0.8311 -0.0363 -0.2165
 1920SOL    HW1 8139   6.564   6.158  10.000 -1.4645  0.7268  1.6414
 1920SOL    HW2 8140   6.635   6.283   9.954 -0.7349 -0.6155 -1.1305
 1921SOL     OW 8141   6.845   2.545   5.169  0.0308  0.0567 -1.0800
 1921SOL    HW1 8142   6.898   2.601   5.114  0.1384 -0.0199 -1.0544
 1921SOL    HW2 8143   6.902   2.471   5.191 -0.2351 -0.2568 -1.4303
 1922SOL     OW 8144   7.715   3.983   2.914  0.2945 -0.1131 -0.7874
 1922SOL    HW1 8145   7.766   3.908   2.881  1.3824 -0.3379  1.2645
 1922SOL    HW2 8146   7.781   4.047   2.940 -0.6176  1.3837 -1.9796
 1923SOL     OW 8147   9.012   1.771  10.009 -0.0849  0.2027  0.1861
 1923SOL    HW1 8148   8.943   1.718  10.049 -0.1850  0.2296  0.0503
 1923SOL    HW2 8149   9.050   1.820  10.083 -0.6450  0.6766  0.1711
 1924SOL     OW 8150   0.622  10.554   5.011 -0.6976  0.3679  0.2051
 1924SOL    HW1 8151   0.706  10.581   5.046 -0.7715  1.0039 -0.1119
 1924SOL    HW2 8152   0.624  10.578   4.919 -1.5924  1.2720  0.4061
 1925SOL     OW 8153   5.890   6.988  10.797 -0.3061 -0.5373 -0.4656
 1925SOL    HW1 8154   5.811   7.012  10.846  1.4072  0.9091  1.8024
 1925SOL    HW2 8155   5.888   7.045  10.719 -0.1804  1.5910  0.9904
 1926SOL     OW 8156   0.843   1.455   6.709 -0.1773  0.3420  0.3185
 1926SOL    HW1 8157   0.785   1.459   6.634 -0.5309 -0.1614  0.5575
 1926SOL    HW2 8158   0.865   1.546   6.728 -1.0575  0.5565  0.3510
 1927SOL     OW 8159   2.764   3.751   9.994  0.1434 -0.1555  0.5072
 1927SOL    HW1 8160   2.768   3.762  10.089  0.7707 -2.1722  0.7664
 1927SOL    HW2 8161   2.699   3.682   9.980  1.0412 -0.8584 -0.4003
 1928SOL     OW 8162   1.062   0.506   0.257  0.2161  0.0799 -0.3090
 1928SOL    HW1 8163   0.990   0.556   0.218  0.5629 -0.2393 -1.4140
 1928SOL    HW2 8164   1.106   0.569   0.314 -0.5853  0.4436 -0.0718
 1929SOL     OW 8165   5.148   8.167   4.225  0.1712  0.4460  0.1682
 1929SOL    HW1 8166   5.074   8.205   4.274 -0.4263 -0.2954 -0.1315
 1929SOL    HW2 8167   5.179   8.238   4.170 -0.3469  0.7602  0.2693
 1930SOL     OW 8168   9.164   7.225   2.451 -0.3304 -0.1628  0.1731
 1930SOL    HW1 8169   9.186   7.315   2.475  1.9867 -0.3101 -1.1533
 1930SOL    HW2 8170   9.069   7.228   2.435 -0.8635  1.3205  2.8945
 1931SOL     OW 8171   5.640   0.687   8.634 -0.2568  0.4214 -0.1719
 1931SOL    HW1 8172   5.577   0.654   8.698 -1.5045 -0.9091 -1.9993
 1931SOL    HW2 8173   5.595   0.681   8.550  1.5470  1.5202 -1.2895
 1932SOL     OW 8174   1.693   6.049   5.086 -0.7844 -0.0309 -0.1308
 1932SOL    HW1 8175   1.711   6.016   5.174 -1.4921  1.2708  0.5346
 1932SOL    HW2 8176   1.774   6.092   5.060 -0.7035 -0.0766  0.0426
 1933SOL     OW 8177   6.047   3.535   0.587  0.1951  0.0172 -0.1527
 1933SOL    HW1 8178   6.080   3.461   0.536  0.6606  1.6037 -2.2566
 1933SOL    HW2 8179   6.114   3.603   0.578  0.1412  0.4972  2.3610
 1934SOL     OW 8180   7.645   5.399   7.628  0.4735  0.3521 -0.2599
 1934SOL    HW1 8181   7.668   5.492   7.636  1.4307  0.0641  0.4785
 1934SOL    HW2 8182   7.664   5.362   7.714 -1.0159 -0.3057 -0.1866
 1935SOL     OW 8183  10.225   3.011   1.388  0.2552  0.3548 -0.0011
 1935SOL    HW1 8184  10.154   3.043   1.444 -0.2759  0.5793 -0.7821
 1935SOL    HW2 8185  10.248   3.086   1.334 -0.6428 -0.3820 -1.4863
 1936SOL     OW 8186   9.911   7.575   1.167 -0.0504 -0.7769 -0.3666
 1936SOL    HW1 8187   9.824   7.583   1.130  1.0359  0.8314 -2.8638
 1936SOL    HW2 8188   9.926   7.658   1.212  0.9806 -0.0445 -1.9734
 1937SOL     OW 8189   8.444  10.585   9.237 -0.1798  0.2808 -0.1437
 1937SOL    HW1 8190   8.447  10.628   9.151  1.0500 -0.4360 -0.4862
 1937SOL    HW2 8191   8.428  10.656   9.299 -2.6691  0.6386 -1.0485
 1938SOL     OW 8192   2.197   0.495   6.337 -0.1937  0.0511 -0.4029
 1938SOL    HW1 8193   2.232   0.424   6.284 -0.8857 -0.7328  0.1757
 1938SOL    HW2 8194   2.266   0.515   6.400  0.2930  0.4147 -1.0297
 1939SOL     OW 8195   7.038   6.162   3.064 -0.7277  0.1291 -0.8212
 1939SOL    HW1 8196   7.049   6.155   3.159  0.4927 -1.5549 -1.0393
 1939SOL    HW2 8197   6.976   6.092   3.042 -0.9823  0.4882 -1.2841
 1940SOL     OW 8198   5.961   4.010   7.493 -0.4939  0.6427  0.3573
 1940SOL    HW1 8199   6.000   4.096   7.507 -2.5444  1.7241 -0.1088
 1940SOL    HW2 8200   5.980   3.989   7.402  1.3025 -0.1295  0.8842
 1941SOL     OW 8201   6.583   3.088   5.849  0.0243  0.1530  0.0001
 1941SOL    HW1 8202   6.598   3.073   5.942 -1.1275  1.2735  0.4120
 1941SOL    HW2 8203   6.491   3.064   5.835  0.4448 -0.9202 -1.0717
 1942SOL     OW 8204   9.848   2.977   7.902  0.3072 -0.0261  0.6185
 1942SOL    HW1 8205   9.827   2.910   7.967 -0.5120 -0.2811  0.1062
 1942SOL    HW2 8206   9.915   2.935   7.847 -0.5288 -0.6142  0.0232
 1943SOL     OW 8207   9.587   0.150  10.334  0.2996  0.4126 -0.1476
 1943SOL    HW1 8208   9.647   0.216  10.370  0.9316  0.7659 -1.7658
 1943SOL    HW2 8209   9.607   0.148  10.240  0.3360 -2.1130 -0.1530
 1944SOL     OW 8210   9.479   3.051   6.482  0.5260 -0.1699  0.5938
 1944SOL    HW1 8211   9.444   2.973   6.526  0.0629 -0.8784 -0.9441
 1944SOL    HW2 8212   9.472   3.121   6.547  0.4826 -1.2988  1.8463
 1945SOL     OW 8213   6.958   6.356   4.812  0.0781  0.0732  0.3331
 1945SOL    HW1 8214   6.942   6.435   4.761 -0.2941 -0.4230 -0.3265
 1945SOL    HW2 8215   6.967   6.387   4.902 -0.6872  0.7974  0.1670
 1946SOL     OW 8216   3.941   2.554   9.490  0.0364  0.6946  0.2139
 1946SOL    HW1 8217   3.974   2.467   9.514 -2.1584 -1.6221 -4.0849
 1946SOL    HW2 8218   4.016   2.598   9.451  0.6423 -0.2273  0.3031
 1947SOL     OW 8219   3.551   0.874   9.238 -0.0453  0.1535 -0.4055
 1947SOL    HW1 8220   3.537   0.913   9.151 -2.5790 -1.5301 -0.8682
 1947SOL    HW2 8221   3.621   0.810   9.225 -0.8284 -0.5349 -1.4301
 1948SOL     OW 8222   9.297   2.373   9.372  0.3897 -0.7511 -0.0649
 1948SOL    HW1 8223   9.208   2.338   9.365  0.3774 -0.4686 -2.3340
 1948SOL    HW2 8224   9.288   2.466   9.351  1.1632 -0.6563 -0.0160
 1949SOL     OW 8225   4.160   4.708   1.116 -0.0910  0.3187  0.3159
 1949SOL    HW1 8226   4.119   4.763   1.050 -1.8734 -1.8574 -0.5540
 1949SOL    HW2 8227   4.092   4.695   1.183 -0.0484 -1.4004  0.0842
 1950SOL     OW 8228   7.824   9.797   7.808 -0.1817  0.1416 -0.2563
 1950SOL    HW1 8229   7.783   9.745   7.877  1.4522 -2.1972 -0.9057
 1950SOL    HW2 8230   7.908   9.823   7.845  0.5860 -0.8935 -1.1887
 1951SOL     OW 8231   2.007   9.359   1.638 -0.4778  0.1031 -0.1259
 1951SOL    HW1 8232   1.941   9.382   1.704 -0.1803  1.6146 -0.3227
 1951SOL    HW2 8233   2.078   9.422   1.652 -0.2046  0.1405 -1.5833
 1952SOL     OW 8234   6.907   1.064   1.177  0.1165 -0.3591 -0.4513
 1952SOL    HW1 8235   6.814   1.055   1.155  0.0729 -1.5161  0.1158
 1952SOL    HW2 8236   6.924   1.158   1.172 -1.1623 -0.0978 -0.2620
 1953SOL     OW 8237   0.011   2.803   0.488  0.2529  0.5417  0.5945
 1953SOL    HW1 8238  -0.035   2.768   0.564  1.6503  0.2746  1.3573
 1953SOL    HW2 8239  -0.056   2.849   0.437 -1.1452 -1.1966  0.8028
 1954SOL     OW 8240   8.016   6.636   7.224  0.3488 -0.0297  0.1101
 1954SOL    HW1 8241   8.022   6.674   7.312  0.7245 -0.5204  0.3001
 1954SOL    HW2 8242   7.968   6.701   7.173 -0.3689  0.0026  0.8200
 1955SOL     OW 8243   3.332   6.013   3.267 -0.2393 -0.0034 -0.0384
 1955SOL    HW1 8244   3.277   5.977   3.197  0.6481 -0.3473 -0.5748
 1955SOL    HW2 8245   3.330   5.946   3.335  0.8601 -0.8196 -0.7573
 1956SOL     OW 8246   4.355   5.604   4.787 -0.1974 -0.4027 -0.0015
 1956SOL    HW1 8247   4.371   5.520   4.743 -0.3284 -1.1196  1.2728
 1956SOL    HW2 8248   4.260   5.609   4.796 -0.1741 -0.2472  0.1686
 1957SOL     OW 8249   5.550   7.294   1.248 -0.0751 -0.3510 -0.0828
 1957SOL    HW1 8250   5.585   7.356   1.312 -1.1429 -0.5062  0.6812
 1957SOL    HW2 8251   5.595   7.316   1.166  1.4360 -0.2449  0.7331
 1958SOL     OW 8252   4.284   4.212   9.290 -0.0908 -0.3963 -0.4606
 1958SOL    HW1 8253   4.260   4.301   9.265 -0.7978 -0.1085  1.1146
 1958SOL    HW2 8254   4.238   4.197   9.372  2.1389 -1.2417  0.7105
 1959SOL     OW 8255   8.456   4.104   7.987 -0.1942 -0.1051 -0.2405
 1959SOL    HW1 8256   8.479   4.017   7.954 -1.2402  0.1827 -1.8205
 1959SOL    HW2 8257   8.512   4.164   7.938  0.1912  0.1628  0.5083
 1960SOL     OW 8258  10.190   0.175   1.445 -0.3530 -0.8471 -0.4613
 1960SOL    HW1 8259  10.128   0.168   1.372 -2.0282 -0.4939  0.8510
 1960SOL    HW2 8260  10.134   0.191   1.521  1.3481 -1.0850  0.8824
 1961SOL     OW 8261   6.585   8.838   1.050 -0.5076  0.3707 -0.0006
 1961SOL    HW1 8262   6.643   8.821   1.124  0.1519  0.9905 -0.3647
 1961SOL    HW2 8263   6.614   8.922   1.015 -1.1383  0.3289 -0.6572
 1962SOL     OW 8264   1.110   4.287   2.120  0.0467  0.4207 -0.5057
 1962SOL    HW1 8265   1.072   4.316   2.203 -0.5470 -3.0826  0.6259
 1962SOL    HW2 8266   1.038   4.293   2.058  0.3993  2.7418 -0.7898
 1963SOL     OW 8267   7.555   2.053   7.677 -0.2805 -0.0727  0.4104
 1963SOL    HW1 8268   7.589   2.037   7.589  0.0213  2.1079  0.0550
 1963SOL    HW2 8269   7.487   2.120   7.664  0.1138  0.6394  1.8528
 1964SOL     OW 8270   9.838   4.116   4.354 -0.0836  0.0941 -0.5095
 1964SOL    HW1 8271   9.756   4.069   4.335  0.6700 -0.4522 -2.6709
 1964SOL    HW2 8272   9.892   4.052   4.401 -0.6234  0.2381  0.3313
 1965SOL     OW 8273   2.669   9.190   9.153  0.1367  0.1023  0.0386
 1965SOL    HW1 8274   2.762   9.168   9.163  0.3152  0.8652  0.1727
 1965SOL    HW2 8275   2.645   9.157   9.067  0.0031 -1.8675  0.7997
 1966SOL     OW 8276  10.059   8.567   0.353 -0.0387 -0.0167 -0.1984
 1966SOL    HW1 8277   9.997   8.496   0.367  0.3322 -0.4452 -0.6680
 1966SOL    HW2 8278  10.120   8.560   0.427 -0.1806 -0.0045 -0.0826
 1967SOL     OW 8279   2.307   7.927   4.717 -0.1001  0.9977 -0.0957
 1967SOL    HW1 8280   2.331   8.020   4.719 -1.5683  1.3869  1.6095
 1967SOL    HW2 8281   2.272   7.909   4.804 -2.5387 -0.3911 -1.2365
 1968SOL     OW 8282   8.755   9.809   9.528 -0.3256  0.3537  0.9112
 1968SOL    HW1 8283   8.712   9.723   9.527 -0.2143  0.2944 -0.2202
 1968SOL    HW2 8284   8.696   9.865   9.578 -0.8221 -0.1764  0.9282
 1969SOL     OW 8285   4.823   0.023   5.709 -0.1676  0.6632  0.3447
 1969SOL    HW1 8286   4.868  -0.041   5.764 -0.0822  1.6725  1.4992
 1969SOL    HW2 8287   4.847   0.108   5.747 -0.1912  1.4011 -1.1953
 1970SOL     OW 8288   6.591   4.329   2.489  0.4392  0.2405  0.1764
 1970SOL    HW1 8289   6.639   4.247   2.497 -0.6242 -0.2247  2.7766
 1970SOL    HW2 8290   6.503   4.309   2.520  0.0612  2.2799  0.6121
 1971SOL     OW 8291   1.487   0.540   1.486  0.7544  0.0349 -0.7828
 1971SOL    HW1 8292   1.466   0.452   1.518  2.4487 -0.3954 -0.7259
 1971SOL    HW2 8293   1.454   0.541   1.396  1.1786 -0.8650 -0.9632
 1972SOL     OW 8294   0.529  10.005   7.072  0.2044 -0.2144  1.0783
 1972SOL    HW1 8295   0.456  10.039   7.124  1.1127  0.3488  2.0331
 1972SOL    HW2 8296   0.585   9.959   7.135 -0.2341 -2.2761  0.0628
 1973SOL     OW 8297   2.549   0.213  10.675 -0.5293  0.0416  0.5851
 1973SOL    HW1 8298   2.562   0.305  10.695 -1.7141 -0.1650  2.5753
 1973SOL    HW2 8299   2.528   0.172  10.759 -2.7519 -1.5312 -0.6000
 1974SOL     OW 8300   9.108   9.443   7.326  0.4589 -0.8448  0.1927
 1974SOL    HW1 8301   9.102   9.357   7.285  1.1517 -0.7760 -0.0600
 1974SOL    HW2 8302   9.131   9.425   7.417  1.4423 -0.9069 -0.0547
 1975SOL     OW 8303   7.599   3.181   5.675  0.5013 -0.1021  0.0045
 1975SOL    HW1 8304   7.542   3.178   5.752  1.1964 -0.1560  0.5227
 1975SOL    HW2 8305   7.540   3.166   5.601  0.0247 -1.3505  0.6203
 1976SOL     OW 8306  10.430   9.319   8.703 -0.1839 -0.4486 -0.1652
 1976SOL    HW1 8307  10.339   9.291   8.704 -0.1865 -0.4208  0.9967
 1976SOL    HW2 8308  10.472   9.266   8.771  0.3880  0.4529  0.2004
 1977SOL     OW 8309   5.887  10.419   5.368  0.6908  0.1631  0.2358
 1977SOL    HW1 8310   5.935  10.376   5.296  0.5542 -0.6319  0.6116
 1977SOL    HW2 8311   5.955  10.439   5.433  1.0582  2.1682 -0.6758
 1978SOL     OW 8312   1.393   8.767  10.462 -0.0035  0.0660  0.1941
 1978SOL    HW1 8313   1.391   8.684  10.509  1.7010 -0.0713  0.0852
 1978SOL    HW2 8314   1.314   8.813  10.491  0.7334 -0.1768  2.8775
 1979SOL     OW 8315   1.851   8.760   3.442 -0.1002 -0.3232 -0.5742
 1979SOL    HW1 8316   1.943   8.745   3.419  0.5258 -1.8712  2.4246
 1979SOL    HW2 8317   1.803   8.743   3.360  2.2476  0.8716 -2.3139
 1980SOL     OW 8318   0.159   4.769   6.875  0.1363 -0.2273 -0.1095
 1980SOL    HW1 8319   0.254   4.776   6.880  0.3646 -0.2138 -2.8153
 1980SOL    HW2 8320   0.127   4.856   6.897  0.9322  0.4403 -1.4676
 1981SOL     OW 8321   0.794   7.975  10.714  0.0777  0.0249 -0.1825
 1981SOL    HW1 8322   0.741   7.937  10.784 -0.0958 -1.4647 -1.0730
 1981SOL    HW2 8323   0.731   7.996  10.645  0.2111  1.7138  0.1639
 1982SOL     OW 8324   8.344   5.406   1.589  0.1872 -0.0594  0.5566
 1982SOL    HW1 8325   8.305   5.354   1.519 -0.0265  3.3635 -2.1240
 1982SOL    HW2 8326   8.431   5.366   1.601 -0.3804 -1.7439 -0.4643
 1983SOL     OW 8327   3.887   3.118   6.429  0.2152 -0.2215 -0.1155
 1983SOL    HW1 8328   3.877   3.162   6.345  1.6883  2.6794  1.0988
 1983SOL    HW2 8329   3.981   3.121   6.446  0.0071 -1.2632  1.4010
 1984SOL     OW 8330   2.005   0.138   8.711  0.0870  0.2278  0.4828
 1984SOL    HW1 8331   2.039   0.098   8.630 -0.3154 -0.6325  0.7312
 1984SOL    HW2 8332   1.973   0.224   8.683  0.8620  0.3537 -0.0842
 1985SOL     OW 8333   8.096   1.769   1.204  0.0862  0.1585  0.1387
 1985SOL    HW1 8334   8.122   1.834   1.269 -1.2191  1.2638 -0.4065
 1985SOL    HW2 8335   8.108   1.813   1.120 -1.6374  0.0486 -0.2076
 1986SOL     OW 8336   0.102   1.782   5.131  0.3063  0.2273 -0.4766
 1986SOL    HW1 8337   0.019   1.814   5.095  0.1768  0.7208  0.2327
 1986SOL    HW2 8338   0.111   1.828   5.215  0.8933 -0.4418 -0.1622
 1987SOL     OW 8339   2.572   3.450   5.045  0.2876 -0.1642  0.3767
 1987SOL    HW1 8340   2.555   3.447   5.139  0.6898 -0.1635  0.4487
 1987SOL    HW2 8341   2.506   3.392   5.006 -0.9473  1.0718  0.5073
 1988SOL     OW 8342   6.788   3.712   0.390  0.1070 -0.3008 -0.6374
 1988SOL    HW1 8343   6.808   3.788   0.443  1.7657 -0.7371 -0.6010
 1988SOL    HW2 8344   6.793   3.638   0.451 -0.1826 -0.5858 -0.9505
 1989SOL     OW 8345   9.975   0.438   4.772 -0.2516 -0.2962 -0.0840
 1989SOL    HW1 8346   9.983   0.420   4.678 -0.6081 -1.0859  0.0293
 1989SOL    HW2 8347  10.062   0.466   4.799 -0.5233  1.6170 -0.9876
 1990SOL     OW 8348   6.543   9.862  10.220  0.2570 -0.9609 -0.4188
 1990SOL    HW1 8349   6.616   9.909  10.260 -2.0574  1.5010  1.2422
 1990SOL    HW2 8350   6.550   9.773  10.255  1.1090 -0.1499  1.6243
 1991SOL     OW 8351   7.567   7.012   5.743  0.1561  0.1215  0.3552
 1991SOL    HW1 8352   7.540   7.035   5.654  1.6741  0.8193  0.0465
 1991SOL    HW2 8353   7.639   6.950   5.731  0.6702  0.5727  1.0839
 1992SOL     OW 8354   3.602   7.267   8.422 -0.0053  0.0898 -0.0901
 1992SOL    HW1 8355   3.635   7.218   8.347  0.9726  0.7219 -0.0857
 1992SOL    HW2 8356   3.584   7.355   8.387 -0.5980  0.0785  0.1734
 1993SOL     OW 8357   6.914   6.164   0.581  0.1597 -0.2216  0.0758
 1993SOL    HW1 8358   6.920   6.208   0.666  0.6305  0.5912 -0.3619
 1993SOL    HW2 8359   6.866   6.083   0.598  0.8390 -0.3886  1.2344
 1994SOL     OW 8360   4.605   3.354   7.604 -0.2890 -0.2225 -0.0821
 1994SOL    HW1 8361   4.574   3.431   7.556  0.5507 -1.7140 -3.2741
 1994SOL    HW2 8362   4.645   3.299   7.537  2.9101 -1.5974  2.6835
 1995SOL     OW 8363   4.442   9.035   0.872  0.2644 -0.0451  0.2246
 1995SOL    HW1 8364   4.477   9.006   0.957  2.2872  0.9629 -0.1944
 1995SOL    HW2 8365   4.350   9.010   0.875  0.9387 -2.8735  1.4652
 1996SOL     OW 8366   3.409   0.092   3.705 -0.0717 -0.2490 -0.5835
 1996SOL    HW1 8367   3.370   0.144   3.634 -2.3605 -0.4166  0.4440
 1996SOL    HW2 8368   3.380   0.136   3.785 -0.2722 -1.8830  0.2840
 1997SOL     OW 8369   9.704   2.215   7.432 -0.0247 -0.1421  0.2275
 1997SOL    HW1 8370   9.717   2.153   7.503 -1.3313 -0.7673 -0.0393
 1997SOL    HW2 8371   9.789   2.258   7.420  0.4287 -0.6266  1.5869
 1998SOL     OW 8372   0.536   0.602   0.617 -0.2919 -0.2624  0.2967
 1998SOL    HW1 8373   0.498   0.662   0.553 -0.4963 -0.1596  0.5162
 1998SOL    HW2 8374   0.501   0.516   0.594 -4.2349  0.3490  3.1158
 1999SOL     OW 8375   2.206   8.311   4.544 -0.2159 -0.4084 -0.2439
 1999SOL    HW1 8376   2.299   8.287   4.547 -0.2734 -0.5765  0.2609
 1999SOL    HW2 8377   2.180   8.294   4.453  0.6882  1.3614 -0.8829
 2000SOL     OW 8378   4.465   7.579   2.950 -0.2320  0.1490 -0.3856
 2000SOL    HW1 8379   4.543   7.533   2.919 -0.6000 -0.9587  0.2690
 2000SOL    HW2 8380   4.458   7.656   2.893  0.7361 -0.2921 -1.1260
 2001SOL     OW 8381   9.382   0.355   4.213  0.0626  0.7194  0.0883
 2001SOL    HW1 8382   9.442   0.280   4.202  1.1690  1.8277 -2.3173
 2001SOL    HW2 8383   9.419   0.405   4.285  0.4117 -0.0529  0.4587
 2002SOL     OW 8384   8.434   0.008   3.867  0.1912 -0.8985  0.0467
 2002SOL    HW1 8385   8.509   0.005   3.807 -0.3933  0.8046 -0.8540
 2002SOL    HW2 8386   8.449   0.086   3.920  0.6671 -2.3589  2.1507
 2003SOL     OW 8387   9.110   1.065   3.940 -0.7603  0.5253 -0.3286
 2003SOL    HW1 8388   9.143   1.080   3.851 -0.7690  1.4022 -0.1918
 2003SOL    HW2 8389   9.076   0.976   3.938  0.9654 -0.1606 -0.6837
 2004SOL     OW 8390   6.671   6.164   8.370 -0.2319 -0.4377  0.2821
 2004SOL    HW1 8391   6.707   6.091   8.421  0.4593 -0.8501 -0.7665
 2004SOL    HW2 8392   6.682   6.240   8.427 -0.9581 -1.1433  1.3883
 2005SOL     OW 8393   0.654   5.479   6.646  0.2293 -0.8185 -0.7720
 2005SOL    HW1 8394   0.578   5.476   6.587 -0.2130 -0.5177 -0.2249
 2005SOL    HW2 8395   0.728   5.499   6.589 -0.3794  0.7369 -1.0596
 2006SOL     OW 8396   2.131   6.229   6.840  0.5812  0.3563  0.0695
 2006SOL    HW1 8397   2.197   6.164   6.862 -0.6489 -0.9640  0.0209
 2006SOL    HW2 8398   2.179   6.312   6.832  2.2513 -0.6212 -0.3171
 2007SOL     OW 8399   7.236   9.714   8.517  0.8404  0.6815 -0.1473
 2007SOL    HW1 8400   7.223   9.804   8.486 -0.6953  0.3164 -0.6852
 2007SOL    HW2 8401   7.171   9.704   8.587  1.0331  0.0062 -0.0603
 2008SOL     OW 8402   9.002   3.200   2.802  0.9359  0.2765 -0.6171
 2008SOL    HW1 8403   9.026   3.138   2.733  0.5978 -0.2770 -0.2452
 2008SOL    HW2 8404   8.910   3.181   2.820 -0.2057  3.0361 -2.7313
 2009SOL     OW 8405   6.802   4.516  10.682 -0.1655  0.0332 -0.3820
 2009SOL    HW1 8406   6.730   4.570  10.649 -0.4379 -0.0718  0.0239
 2009SOL    HW2 8407   6.814   4.546  10.772 -2.4292 -2.6448  0.9665
 2010SOL     OW 8408   1.281   5.329  10.801 -0.6816 -0.7311 -0.3228
 2010SOL    HW1 8409   1.333   5.363  10.873 -2.0893 -0.3671  0.5651
 2010SOL    HW2 8410   1.318   5.242  10.783 -0.3491 -0.8587  0.8874
 2011SOL     OW 8411   0.134   2.894   0.831 -0.3256  0.1769 -0.1377
 2011SOL    HW1 8412   0.062   2.834   0.810 -2.0344  1.9163  0.4851
 2011SOL    HW2 8413   0.129   2.904   0.926  1.4882 -0.5100  0.0683
 2012SOL     OW 8414  10.601   6.088   2.345 -0.1044  0.2561 -0.2908
 2012SOL    HW1 8415  10.639   6.065   2.260 -2.2062  0.2279 -1.2882
 2012SOL    HW2 8416  10.515   6.045   2.345  0.0125 -0.1173  2.0587
 2013SOL     OW 8417   7.550   5.430   8.275  0.2573  0.3001  0.2366
 2013SOL    HW1 8418   7.544   5.335   8.286  0.7595  0.3236  0.7947
 2013SOL    HW2 8419   7.555   5.464   8.365  0.3494  0.8332  0.0350
 2014SOL     OW 8420   7.187   9.306  10.116  0.3720 -0.3008 -0.1412
 2014SOL    HW1 8421   7.169   9.273  10.028  0.6238 -2.5554  0.5734
 2014SOL    HW2 8422   7.267   9.260  10.143 -0.1251 -0.2615  1.5317
 2015SOL     OW 8423   6.671   2.983   4.490 -0.3780 -0.4207 -1.0189
 2015SOL    HW1 8424   6.722   2.914   4.446  1.7157  0.4465 -0.1061
 2015SOL    HW2 8425   6.656   2.949   4.578  0.5401  0.1761 -0.6110
 2016SOL     OW 8426   9.346   0.748   5.309 -0.7817 -0.2478  0.0038
 2016SOL    HW1 8427   9.436   0.716   5.305 -0.0400  1.6045  0.6112
 2016SOL    HW2 8428   9.316   0.726   5.397 -1.1079 -1.2773 -0.3540
 2017SOL     OW 8429   0.902   1.548   9.951  0.1814 -0.0068  0.6532
 2017SOL    HW1 8430   0.970   1.522   9.890  0.6123 -0.8313  1.4514
 2017SOL    HW2 8431   0.893   1.642   9.939 -0.9506 -0.3498 -1.8786
 2018SOL     OW 8432   9.773   6.145   8.392  0.3844  0.0148 -0.3260
 2018SOL    HW1 8433   9.714   6.102   8.453 -0.8824  0.3998 -1.2109
 2018SOL    HW2 8434   9.769   6.238   8.416 -1.0809  0.3639 -1.6458
 2019SOL     OW 8435   7.477   2.091   3.894 -0.2713  0.4413  0.1435
 2019SOL    HW1 8436   7.556   2.038   3.894 -0.4652  0.1523  0.2359
 2019SOL    HW2 8437   7.443   2.085   3.805 -2.1758 -2.4212  0.9163
 2020SOL     OW 8438   0.158   3.486  10.520  0.1453 -0.2395 -0.6223
 2020SOL    HW1 8439   0.078   3.440  10.545  0.9815 -0.5145  1.7597
 2020SOL    HW2 8440   0.194   3.435  10.447  0.3572 -2.6553  1.0573
 2021SOL     OW 8441   6.544   8.619   0.899 -0.3016 -0.2121  0.0988
 2021SOL    HW1 8442   6.616   8.579   0.949 -1.1416 -1.0235  0.6888
 2021SOL    HW2 8443   6.560   8.713   0.905  1.0739 -0.3850 -0.3369
 2022SOL     OW 8444   4.090  10.376   9.728  0.0084 -0.2378  0.3849
 2022SOL    HW1 8445   4.071  10.343   9.815 -0.5490 -0.8252  0.0525
 2022SOL    HW2 8446   4.021  10.441   9.711  1.3699  1.5132  1.2248
 2023SOL     OW 8447   4.643   8.964   8.782 -0.3758 -0.0530  0.4158
 2023SOL    HW1 8448   4.568   9.017   8.752 -0.5848 -0.3595  0.3916
 2023SOL    HW2 8449   4.645   8.890   8.721  0.9670  0.8029 -0.6243
 2024SOL     OW 8450  10.567   8.242   4.772  0.5177  0.1174  0.1742
 2024SOL    HW1 8451  10.480   8.206   4.755  0.0345  1.6119 -0.7170
 2024SOL    HW2 8452  10.556   8.295   4.851  0.2237  1.5063 -0.7676
 2025SOL     OW 8453  10.428   4.673   6.052 -0.3791 -0.1096  0.4548
 2025SOL    HW1 8454  10.355   4.665   5.991  1.4011 -1.3302 -1.6932
 2025SOL    HW2 8455  10.404   4.619   6.127 -0.9663 -1.9960 -1.0093
 2026SOL     OW 8456   0.422   7.822   8.369 -0.6226 -0.1482  0.2932
 2026SOL    HW1 8457   0.508   7.836   8.408  0.1582 -1.3246 -0.9167
 2026SOL    HW2 8458   0.395   7.909   8.339  0.8551  0.0003 -0.6905
 2027SOL     OW 8459   6.994   2.958   4.315 -0.4481 -0.2596 -0.1473
 2027SOL    HW1 8460   7.048   2.934   4.240 -2.3768 -1.9207 -1.0986
 2027SOL    HW2 8461   7.057   2.981   4.383  1.3794  0.6872 -2.0297
 2028SOL     OW 8462   6.558   9.774   9.780  0.3772  0.1807 -0.3027
 2028SOL    HW1 8463   6.494   9.749   9.846  0.4133 -0.6539 -0.5666
 2028SOL    HW2 8464   6.566   9.869   9.788 -0.6361  0.2549 -0.0345
 2029SOL     OW 8465   0.007   7.874   4.711 -0.1424 -0.3098 -0.2164
 2029SOL    HW1 8466  -0.029   7.790   4.739 -0.8543 -0.3681 -1.2253
 2029SOL    HW2 8467  -0.005   7.932   4.786  1.1827 -1.3151  0.8286
 2030SOL     OW 8468   7.687   6.033   0.534  1.0117 -0.5852 -0.4279
 2030SOL    HW1 8469   7.726   5.987   0.459  1.5231 -1.4321  0.3315
 2030SOL    HW2 8470   7.605   5.987   0.551  0.7675 -0.2281 -0.6167
 2031SOL     OW 8471   7.328   7.265  10.547  0.2504 -0.5698  0.1849
 2031SOL    HW1 8472   7.360   7.179  10.572  0.3721 -0.7055 -0.4333
 2031SOL    HW2 8473   7.263   7.248  10.479 -0.9163 -0.2763  1.1805
 2032SOL     OW 8474   6.215   0.436   3.014  0.1506 -0.0690  0.2209
 2032SOL    HW1 8475   6.277   0.499   2.976 -0.6210  2.0892  2.2448
 2032SOL    HW2 8476   6.141   0.490   3.044 -1.4607 -2.2126  0.3584
 2033SOL     OW 8477   4.135   1.203   6.151 -0.1127 -0.5054  0.1650
 2033SOL    HW1 8478   4.140   1.244   6.237  1.0012  0.9426 -0.5555
 2033SOL    HW2 8479   4.048   1.226   6.119 -0.1156 -0.1330  0.4382
 2034SOL     OW 8480  10.644   6.309   0.648 -0.0235 -0.5398 -0.0498
 2034SOL    HW1 8481  10.667   6.303   0.741 -1.8670  5.2056  1.2319
 2034SOL    HW2 8482  10.719   6.354   0.608 -1.4254  2.2918  0.2102
 2035SOL     OW 8483   8.119   8.588  10.418 -0.4428  0.2661 -0.4665
 2035SOL    HW1 8484   8.151   8.645  10.348  0.0927  1.3525  0.6220
 2035SOL    HW2 8485   8.027   8.573  10.396 -0.0842 -0.1018 -1.8268
 2036SOL     OW 8486  10.701   3.118   8.270 -0.3486 -0.0641 -0.2167
 2036SOL    HW1 8487  10.634   3.179   8.239 -0.0040  0.3815 -0.0966
 2036SOL    HW2 8488  10.749   3.166   8.338  0.4694 -0.1668 -0.7071
 2037SOL     OW 8489  10.649   6.796   4.824  0.2302 -0.2796  0.5108
 2037SOL    HW1 8490  10.694   6.841   4.895  1.5318 -0.7984  0.0514
 2037SOL    HW2 8491  10.712   6.731   4.792 -0.1328  0.2320 -1.4118
 2038SOL     OW 8492   6.869   6.796   6.007  0.1292  0.1497 -0.3196
 2038SOL    HW1 8493   6.862   6.766   5.917 -0.0504 -1.1634  0.1119
 2038SOL    HW2 8494   6.784   6.778   6.046  0.4700 -0.0839  0.3366
 2039SOL     OW 8495   9.291   8.289   0.361 -0.7945 -0.9988  0.1308
 2039SOL    HW1 8496   9.242   8.209   0.341 -5.1079  1.1240  0.9876
 2039SOL    HW2 8497   9.249   8.356   0.307  1.1889  1.0990  1.0497
 2040SOL     OW 8498   3.608   1.437   5.970 -0.0534 -0.1812 -0.3173
 2040SOL    HW1 8499   3.608   1.479   6.056  1.1001  0.4964 -0.6238
 2040SOL    HW2 8500   3.520   1.453   5.936 -1.0475 -1.7276  1.3003
 2041SOL     OW 8501   3.197   3.745   8.305  0.9959 -0.1082 -0.1360
 2041SOL    HW1 8502   3.115   3.723   8.349  1.1941  1.0393  0.8374
 2041SOL    HW2 8503   3.171   3.777   8.219  0.5974 -2.2669 -0.8792
 2042SOL     OW 8504   1.253   1.417   8.684 -0.0015 -0.1354  0.0529
 2042SOL    HW1 8505   1.299   1.490   8.725  0.9021 -1.6727  1.9756
 2042SOL    HW2 8506   1.160   1.438   8.692  0.2608  1.2796 -0.4362
 2043SOL     OW 8507   2.403   4.614   0.175 -0.7513  0.3023  0.0540
 2043SOL    HW1 8508   2.397   4.549   0.245  1.5942 -0.1352 -0.0819
 2043SOL    HW2 8509   2.387   4.697   0.219 -0.4016 -0.0658  0.9000
 2044SOL     OW 8510   2.010   1.025   6.282 -0.3630 -0.7325 -0.2953
 2044SOL    HW1 8511   2.065   1.075   6.222 -0.0592 -1.6633 -0.8027
 2044SOL    HW2 8512   1.977   0.952   6.230 -1.4214 -0.6468  0.2295
 2045SOL     OW 8513   3.734   3.347   0.056  0.1304 -0.1460  0.0668
 2045SOL    HW1 8514   3.752   3.264   0.099 -0.8522 -0.1830  0.4228
 2045SOL    HW2 8515   3.671   3.390   0.112 -0.8672 -0.0159 -1.1150
 2046SOL     OW 8516   2.355   5.363   9.271  0.7533  0.6134 -0.6890
 2046SOL    HW1 8517   2.346   5.273   9.239 -0.6917  0.7165 -0.6587
 2046SOL    HW2 8518   2.427   5.400   9.219  1.9371 -0.7943 -0.1096
 2047SOL     OW 8519   8.583   2.383   6.501  0.4938  0.0729  0.3933
 2047SOL    HW1 8520   8.675   2.408   6.506  0.4041  0.2831  1.3574
 2047SOL    HW2 8521   8.547   2.436   6.430  1.3052 -0.6843 -0.6067
 2048SOL     OW 8522   5.180   7.188   3.516  0.0478 -0.4954  0.1033
 2048SOL    HW1 8523   5.136   7.117   3.469 -0.1272 -0.4165  0.1459
 2048SOL    HW2 8524   5.262   7.150   3.547 -0.1942 -0.7702  0.4061
 2049SOL     OW 8525   3.419   4.776   7.233  0.2945  0.0138 -0.5694
 2049SOL    HW1 8526   3.417   4.718   7.309 -1.2253 -0.6475 -1.0761
 2049SOL    HW2 8527   3.424   4.864   7.271  1.2124 -0.3647  0.2340
 2050SOL     OW 8528   4.253   2.818   5.664  0.0294 -0.3758  0.5375
 2050SOL    HW1 8529   4.343   2.834   5.692 -0.1923  0.9779  0.5795
 2050SOL    HW2 8530   4.223   2.903   5.632 -0.9168 -1.0409 -0.3938
 2051SOL     OW 8531   4.655   4.018   7.677 -0.5948 -0.4437 -0.0037
 2051SOL    HW1 8532   4.607   4.038   7.757  0.5540 -2.0307  1.1590
 2051SOL    HW2 8533   4.607   3.944   7.639 -2.5324  1.7685 -2.1502
 2052SOL     OW 8534   5.855   7.723   6.588 -0.0316 -0.2941 -1.0469
 2052SOL    HW1 8535   5.898   7.650   6.633 -1.9503 -0.9390 -0.1495
 2052SOL    HW2 8536   5.924   7.761   6.532  1.7753 -1.0135  0.5656
 2053SOL     OW 8537   5.101   5.743   6.247  0.3699 -0.3148  0.3952
 2053SOL    HW1 8538   5.080   5.822   6.197  1.4516 -0.6011 -0.5432
 2053SOL    HW2 8539   5.054   5.673   6.202 -0.8941 -0.1856  1.4476
 2054SOL     OW 8540   7.404   8.393   0.525 -0.1480 -0.0748  0.0183
 2054SOL    HW1 8541   7.352   8.330   0.476 -0.8715  0.7734 -0.3412
 2054SOL    HW2 8542   7.475   8.417   0.466  0.9267 -1.5517  0.6690
 2055SOL     OW 8543   7.212   5.624   9.197  0.5362 -0.0833 -0.4520
 2055SOL    HW1 8544   7.250   5.562   9.259  1.5700  1.1465  0.1967
 2055SOL    HW2 8545   7.156   5.571   9.140  1.2613 -1.5660  0.1784
 2056SOL     OW 8546   6.093   2.584   2.506  0.0808  0.2645  0.2591
 2056SOL    HW1 8547   6.115   2.663   2.457 -1.5192  1.0991  0.8090
 2056SOL    HW2 8548   6.063   2.616   2.591 -0.5800 -0.9320  0.5002
 2057SOL     OW 8549   0.250   2.609   1.158 -0.3150 -0.2179 -0.2191
 2057SOL    HW1 8550   0.196   2.534   1.133 -0.8098 -0.2576  0.8828
 2057SOL    HW2 8551   0.222   2.629   1.248  2.6197 -1.2436  1.0169
 2058SOL     OW 8552   9.656   8.370   8.598 -0.1944 -0.2683  0.3931
 2058SOL    HW1 8553   9.580   8.397   8.650  0.4262  0.6234  0.8662
 2058SOL    HW2 8554   9.662   8.276   8.612 -0.6645 -0.2010  1.0927
 2059SOL     OW 8555   1.011   0.583   3.881  0.7818 -0.0355  0.5833
 2059SOL    HW1 8556   0.926   0.540   3.887 -0.2021  1.5895 -0.8921
 2059SOL    HW2 8557   1.006   0.655   3.944  1.4758 -0.5417  1.2353
 2060SOL     OW 8558   8.134   5.834   7.720 -0.1995 -0.1005  0.0832
 2060SOL    HW1 8559   8.071   5.848   7.649  1.5733 -0.8708 -1.7710
 2060SOL    HW2 8560   8.168   5.921   7.740 -0.1519  0.0520 -0.6225
 2061SOL     OW 8561   0.301  10.640   4.134 -0.2881 -0.2214  0.4876
 2061SOL    HW1 8562   0.329  10.707   4.197  0.3509  0.0057 -0.0228
 2061SOL    HW2 8563   0.206  10.638   4.141 -0.1679 -1.2090  2.4889
 2062SOL     OW 8564   9.145   2.792   7.222 -0.1026  0.2390 -0.0046
 2062SOL    HW1 8565   9.212   2.725   7.235 -0.8210 -0.3880  0.5988
 2062SOL    HW2 8566   9.162   2.857   7.290 -0.0455  0.1372  0.0783
 2063SOL     OW 8567   8.376   1.729   1.696  0.0306  0.4824 -0.2061
 2063SOL    HW1 8568   8.365   1.646   1.743  3.5808 -0.8731 -1.4326
 2063SOL    HW2 8569   8.342   1.795   1.757 -2.8096 -1.7529  0.8807
 2064SOL     OW 8570   5.051   3.477   3.952 -0.4215 -0.2021  0.1376
 2064SOL    HW1 8571   5.047   3.473   3.857  0.0594  0.4150  0.0878
 2064SOL    HW2 8572   4.984   3.541   3.977 -0.6161 -0.4368  0.2207
 2065SOL     OW 8573  10.754   7.505   7.542  0.0994  0.2078 -0.0622
 2065SOL    HW1 8574  10.812   7.439   7.580 -0.8738 -1.8016 -1.8201
 2065SOL    HW2 8575  10.802   7.587   7.549  1.2982 -0.5912  2.4014
 2066SOL     OW 8576   5.771   0.467   6.652 -0.5741 -0.3582  0.5203
 2066SOL    HW1 8577   5.699   0.407   6.638 -1.0139  0.4269 -0.7624
 2066SOL    HW2 8578   5.849   0.412   6.650 -0.9422 -0.8823 -0.9294
 2067SOL     OW 8579   4.933   4.531   1.574 -0.2416  0.2744 -0.1324
 2067SOL    HW1 8580   4.840   4.535   1.554 -0.0284  0.0316 -1.2803
 2067SOL    HW2 8581   4.945   4.446   1.617 -0.4875  0.1089 -0.3865
 2068SOL     OW 8582   2.837   4.326   6.815  0.1253 -0.0984  0.1193
 2068SOL    HW1 8583   2.913   4.384   6.821 -0.7408  1.5848 -2.9440
 2068SOL    HW2 8584   2.783   4.350   6.890  0.7606  1.6187  0.0848
 2069SOL     OW 8585   3.650   6.690   5.329  0.0452  0.2480 -0.3568
 2069SOL    HW1 8586   3.607   6.651   5.405  0.9148  0.0375  0.0298
 2069SOL    HW2 8587   3.606   6.651   5.254 -0.2111 -0.2240  0.0348
 2070SOL     OW 8588   8.880   5.877   2.832 -0.4356 -0.6397 -0.0372
 2070SOL    HW1 8589   8.951   5.940   2.818 -0.3056 -0.9188 -0.6858
 2070SOL    HW2 8590   8.924   5.792   2.841 -0.6385 -0.7070  0.3416
 2071SOL     OW 8591   3.786   9.499   6.761 -0.2231 -0.3089 -0.1571
 2071SOL    HW1 8592   3.804   9.421   6.708  0.1810 -0.5167  0.2823
 2071SOL    HW2 8593   3.692   9.495   6.778 -0.6155  0.4089 -1.8683
 2072SOL     OW 8594   6.280   0.809   2.396  0.0051 -0.0574 -0.0919
 2072SOL    HW1 8595   6.265   0.717   2.370 -1.3451  0.3007 -0.6724
 2072SOL    HW2 8596   6.327   0.847   2.321  1.0728 -0.3945  0.3862
 2073SOL     OW 8597   9.997   6.026   7.410  0.2744  0.4895 -0.8056
 2073SOL    HW1 8598   9.959   6.069   7.486  0.6752 -0.8171  0.1529
 2073SOL    HW2 8599  10.085   5.999   7.438  0.8215  0.8555 -2.0521
 2074SOL     OW 8600   3.520   5.106   7.098  0.6609 -0.6542 -0.3399
 2074SOL    HW1 8601   3.485   5.099   7.187 -0.5709  0.5046 -0.7048
 2074SOL    HW2 8602   3.605   5.147   7.109  1.9086 -3.2324  0.5439
 2075SOL     OW 8603   7.788   0.484   0.597 -0.3738 -0.0540 -0.3524
 2075SOL    HW1 8604   7.858   0.418   0.599  0.6800  0.8546 -2.8730
 2075SOL    HW2 8605   7.713   0.439   0.635  1.3949 -1.2424  2.0185
 2076SOL     OW 8606   2.532   3.918   6.722  0.4484  0.1158 -0.6208
 2076SOL    HW1 8607   2.486   3.858   6.781  1.0588 -0.0768 -0.3317
 2076SOL    HW2 8608   2.472   3.930   6.648  0.3138 -0.8330 -0.6736
 2077SOL     OW 8609   0.137   4.935   8.522 -0.2580  0.1002  0.0906
 2077SOL    HW1 8610   0.196   4.861   8.509  0.6024  0.6304  0.8587
 2077SOL    HW2 8611   0.189   5.012   8.497 -0.1365  0.7005  1.9893
 2078SOL     OW 8612   9.497   5.740   1.437  0.6698  0.2729  0.3659
 2078SOL    HW1 8613   9.568   5.798   1.468  1.1707 -0.4065  0.5120
 2078SOL    HW2 8614   9.418   5.792   1.450  0.7270 -0.2519  3.6905
 2079SOL     OW 8615   4.770   3.640  10.530 -0.1492  0.0737  0.4484
 2079SOL    HW1 8616   4.775   3.575  10.599 -1.5030  0.5176  1.0034
 2079SOL    HW2 8617   4.853   3.688  10.535 -0.0421 -0.2068  1.4547
 2080SOL     OW 8618   5.391   9.005   1.492  0.3753 -0.7302  0.2107
 2080SOL    HW1 8619   5.308   9.035   1.457 -0.5839  0.1498  2.9564
 2080SOL    HW2 8620   5.403   8.918   1.455 -1.4729 -0.6490 -0.6765
 2081SOL     OW 8621   3.935   4.172  10.738  0.0074  0.5722  0.5593
 2081SOL    HW1 8622   4.021   4.170  10.780 -0.4623  1.0287  1.5967
 2081SOL    HW2 8623   3.885   4.104  10.784 -0.7206  1.5321  1.2482
 2082SOL     OW 8624   2.257   8.110   2.355 -0.1523 -0.1460  0.0456
 2082SOL    HW1 8625   2.293   8.158   2.280 -0.5382 -0.7679 -0.5500
 2082SOL    HW2 8626   2.249   8.176   2.424  2.0394  0.0223  0.1933
 2083SOL     OW 8627   5.902   7.448   5.403  0.2029  0.6954  0.6989
 2083SOL    HW1 8628   5.861   7.376   5.355  0.7323 -0.5598  2.0701
 2083SOL    HW2 8629   5.835   7.517   5.404  0.3464  1.0226 -2.2292
 2084SOL     OW 8630   5.166   4.908  10.715 -0.2772  0.0063 -0.4691
 2084SOL    HW1 8631   5.206   4.828  10.682 -0.6268 -0.1239 -0.5788
 2084SOL    HW2 8632   5.186   4.974  10.649 -1.2148 -0.3157 -1.0900
 2085SOL     OW 8633   2.320   2.358  10.515 -0.3415 -0.0949 -0.5111
 2085SOL    HW1 8634   2.399   2.323  10.555  0.5453  0.3212 -1.8187
 2085SOL    HW2 8635   2.266   2.281  10.496 -0.6945 -0.3040  1.2452
 2086SOL     OW 8636   7.910   4.100   4.407 -0.0925 -0.6867  0.9798
 2086SOL    HW1 8637   7.956   4.176   4.372 -0.7762  0.9355  3.3219
 2086SOL    HW2 8638   7.972   4.062   4.470 -0.3950 -1.0220  1.0797
 2087SOL     OW 8639   9.679   0.340  10.514  0.6695  0.7180  0.2038
 2087SOL    HW1 8640   9.645   0.429  10.500  1.2338  0.8676 -0.2231
 2087SOL    HW2 8641   9.605   0.292  10.552  0.1355  1.1737 -0.2515
 2088SOL     OW 8642   0.767   7.137   3.326 -0.2894  0.6529 -0.1120
 2088SOL    HW1 8643   0.779   7.209   3.388 -2.3379  1.2878 -0.4002
 2088SOL    HW2 8644   0.823   7.160   3.252  1.5107  0.3166  1.0812
 2089SOL     OW 8645   0.881   7.773   7.187  0.1197 -0.4617  0.0607
 2089SOL    HW1 8646   0.792   7.806   7.179  0.2215 -0.5300 -1.7310
 2089SOL    HW2 8647   0.886   7.702   7.122  1.0863 -1.3563  1.0680
 2090SOL     OW 8648   3.345  10.697   8.609 -0.0821  0.5886 -0.4915
 2090SOL    HW1 8649   3.261  10.653   8.595  0.7903 -1.0702 -0.8485
 2090SOL    HW2 8650   3.406  10.650   8.552  1.2821  1.1104  0.4794
 2091SOL     OW 8651   2.140  10.321   8.591 -0.5181  0.3991 -0.1605
 2091SOL    HW1 8652   2.125  10.270   8.670  0.3716  2.1793  1.2374
 2091SOL    HW2 8653   2.236  10.327   8.585 -0.5434 -0.2301 -1.7671
 2092SOL     OW 8654   1.619   1.223   1.402  0.2123 -0.3467 -0.2724
 2092SOL    HW1 8655   1.640   1.131   1.418 -0.9264 -0.5167  0.3209
 2092SOL    HW2 8656   1.524   1.225   1.391  0.2139  0.7638 -0.2325
 2093SOL     OW 8657   3.147   8.023   0.911 -0.0853 -0.2748  0.1359
 2093SOL    HW1 8658   3.158   8.044   1.004  0.3207 -0.5282  0.1489
 2093SOL    HW2 8659   3.107   8.101   0.873  1.3441  0.5157  0.1942
 2094SOL     OW 8660   1.513  10.268   7.123 -0.4289 -0.4525 -0.3421
 2094SOL    HW1 8661   1.433  10.225   7.092 -0.7460 -0.2266  0.1527
 2094SOL    HW2 8662   1.537  10.221   7.203  0.5000 -1.1578 -1.0026
 2095SOL     OW 8663   8.336   6.123   9.678 -0.2507 -0.5101 -0.4298
 2095SOL    HW1 8664   8.314   6.116   9.770  0.1169  0.5142 -0.2541
 2095SOL    HW2 8665   8.334   6.217   9.659 -0.2103 -0.6926 -1.4339
 2096SOL     OW 8666   4.043   3.971   8.852  0.3599  0.1087  0.3342
 2096SOL    HW1 8667   4.096   3.996   8.927  1.6792  2.0251 -1.1438
 2096SOL    HW2 8668   3.958   4.013   8.867  0.2000 -0.5207  1.2868
 2097SOL     OW 8669   1.833   1.136   5.234  0.1752  1.0264 -0.6326
 2097SOL    HW1 8670   1.905   1.192   5.262  1.0500  0.7715 -2.2691
 2097SOL    HW2 8671   1.842   1.130   5.139 -1.4449  0.2085 -0.7753
 2098SOL     OW 8672   2.781   5.768   5.168 -0.3936 -0.2695 -0.1551
 2098SOL    HW1 8673   2.733   5.780   5.250 -0.5986  0.0975 -0.3264
 2098SOL    HW2 8674   2.716   5.784   5.100 -0.0929 -0.0456 -0.3889
 2099SOL     OW 8675   9.031   4.785   9.745  0.0127  0.2322  0.5640
 2099SOL    HW1 8676   8.977   4.757   9.671  0.2368  1.0451  0.0678
 2099SOL    HW2 8677   9.119   4.753   9.724  0.2523  1.1872  0.0369
 2100SOL     OW 8678   2.065   7.737   6.944 -0.1641 -0.0722 -0.1651
 2100SOL    HW1 8679   2.107   7.725   6.859  1.5250  0.4012  0.5626
 2100SOL    HW2 8680   2.053   7.832   6.952 -0.6345 -0.1392 -0.0114
 2101SOL     OW 8681   5.615   5.052   4.115 -0.2403 -0.8709  0.3280
 2101SOL    HW1 8682   5.701   5.087   4.139 -0.7978  1.2792 -0.5416
 2101SOL    HW2 8683   5.619   5.043   4.019 -1.0171 -0.6240  0.2667
 2102SOL     OW 8684   5.383   8.576   6.708  0.0861  0.0039 -0.5082
 2102SOL    HW1 8685   5.460   8.613   6.751  0.0736  0.4915 -0.8913
 2102SOL    HW2 8686   5.309   8.624   6.746 -0.2023 -1.5866  1.0672
 2103SOL     OW 8687   8.194   1.136  10.569  0.5894  0.0395 -0.0950
 2103SOL    HW1 8688   8.172   1.076  10.498 -1.4847 -0.5740  0.9668
 2103SOL    HW2 8689   8.154   1.219  10.543 -2.2376 -0.7577  1.2612
 2104SOL     OW 8690   4.808   8.404   8.431  0.1711 -0.1459 -0.2927
 2104SOL    HW1 8691   4.823   8.309   8.431 -1.6381 -0.5204  2.0430
 2104SOL    HW2 8692   4.774   8.423   8.343  0.4875 -1.6477 -0.7721
 2105SOL     OW 8693   7.633   3.573   2.047  0.2007 -0.0722  0.5846
 2105SOL    HW1 8694   7.625   3.665   2.022  0.4800  0.1074  1.1390
 2105SOL    HW2 8695   7.543   3.541   2.051  0.1389 -0.0220 -0.3397
 2106SOL     OW 8696   0.896   7.653   0.205 -0.0416  0.1390  0.0768
 2106SOL    HW1 8697   0.936   7.598   0.272 -2.0855 -1.1312  0.3120
 2106SOL    HW2 8698   0.853   7.723   0.254  0.9971  0.9495 -0.1248
 2107SOL     OW 8699   3.836   5.904   7.431  0.2125 -0.1480  0.0845
 2107SOL    HW1 8700   3.924   5.942   7.427  0.4276 -0.7461 -1.4124
 2107SOL    HW2 8701   3.779   5.977   7.454  0.8041  0.8039 -1.3469
 2108SOL     OW 8702  10.165   0.962   7.372 -0.0047 -0.4364 -0.4958
 2108SOL    HW1 8703  10.193   0.969   7.280 -2.5576  2.2571 -1.2299
 2108SOL    HW2 8704  10.222   1.023   7.419  1.0061 -1.4795 -0.3359
 2109SOL     OW 8705   1.157   7.114   0.120 -0.3345 -0.2870 -0.0749
 2109SOL    HW1 8706   1.077   7.166   0.111 -0.1146  0.0652 -0.0129
 2109SOL    HW2 8707   1.127   7.029   0.152 -0.6823 -0.1532 -0.0409
 2110SOL     OW 8708   1.999   9.837   6.379  0.1797 -0.4361 -0.0352
 2110SOL    HW1 8709   2.058   9.798   6.315 -0.1449  1.8291 -1.8060
 2110SOL    HW2 8710   2.021   9.792   6.461  0.4329 -3.6244 -1.6903
 2111SOL     OW 8711   9.133   2.803   3.919 -0.3009 -0.2762  0.6078
 2111SOL    HW1 8712   9.051   2.776   3.960 -1.3375  0.3275 -0.9368
 2111SOL    HW2 8713   9.170   2.722   3.884 -0.7254 -0.4428  0.5312
 2112SOL     OW 8714  10.109   1.724   7.648  0.7952 -0.2182  0.7161
 2112SOL    HW1 8715  10.149   1.781   7.714  1.2392  0.6933 -0.3257
 2112SOL    HW2 8716  10.015   1.728   7.668  0.7114  1.6830  0.0618
 2113SOL     OW 8717   1.967   9.098   7.810  0.1605  0.6854 -0.2202
 2113SOL    HW1 8718   1.919   9.087   7.892  1.7137  1.1388  0.7910
 2113SOL    HW2 8719   1.954   9.015   7.764 -1.3974  0.7280  0.1068
 2114SOL     OW 8720   3.103   2.205   0.472  0.0975  0.2478  0.2179
 2114SOL    HW1 8721   3.189   2.245   0.460  0.9722 -1.1071  1.6407
 2114SOL    HW2 8722   3.101   2.134   0.407 -0.5612  1.1548 -0.7908
 2115SOL     OW 8723   0.902   7.256   9.210 -0.1046  0.7192 -0.5533
 2115SOL    HW1 8724   0.889   7.305   9.129  0.7058 -0.0157 -1.1371
 2115SOL    HW2 8725   0.982   7.294   9.248  1.1078 -0.7591 -1.5070
 2116SOL     OW 8726   4.349   7.581   5.987 -0.3199 -0.1188 -0.2465
 2116SOL    HW1 8727   4.399   7.660   6.007  0.2012 -0.4552 -0.2067
 2116SOL    HW2 8728   4.409   7.527   5.935 -0.6769 -0.4853 -0.2866
 2117SOL     OW 8729   7.338  10.325   7.581 -0.1716 -0.2285  0.6010
 2117SOL    HW1 8730   7.254  10.312   7.538  0.3898 -1.5653 -0.1578
 2117SOL    HW2 8731   7.324  10.295   7.671 -0.3456 -1.0815  0.2983
 2118SOL     OW 8732  10.664   1.115   4.358  0.3531  1.7892  0.4224
 2118SOL    HW1 8733  10.734   1.094   4.419  1.1477  0.0487 -0.9997
 2118SOL    HW2 8734  10.704   1.108   4.271 -1.6126  0.4807 -0.4583
 2119SOL     OW 8735   5.697   5.917   7.645  0.4224 -0.7276 -0.3646
 2119SOL    HW1 8736   5.743   5.982   7.699  1.9480 -2.0443  0.0225
 2119SOL    HW2 8737   5.609   5.913   7.682  0.1052  1.4742 -0.7519
 2120SOL     OW 8738  10.273   9.896   3.411  0.3485 -0.0592  0.2881
 2120SOL    HW1 8739  10.216   9.947   3.469 -1.3108 -0.5533 -0.8487
 2120SOL    HW2 8740  10.284   9.812   3.456  1.5620  0.5810  1.2705
 2121SOL     OW 8741   9.032   8.743   4.799  0.3617 -0.0603 -0.3374
 2121SOL    HW1 8742   9.094   8.814   4.816 -0.2378  0.3327  0.2746
 2121SOL    HW2 8743   9.004   8.714   4.886 -0.7808  0.1952 -0.6005
 2122SOL     OW 8744  10.123   1.345   0.535 -0.1613  0.0188  0.4961
 2122SOL    HW1 8745  10.139   1.259   0.496 -0.1883  0.6475 -0.9701
 2122SOL    HW2 8746  10.028   1.349   0.546 -0.1355 -0.2425  0.8003
 2123SOL     OW 8747   2.467   0.667   8.290  0.6274 -0.0310 -0.0305
 2123SOL    HW1 8748   2.456   0.697   8.380  0.3837  0.4294 -0.2131
 2123SOL    HW2 8749   2.383   0.687   8.248  0.8595  0.0584 -0.4471
 2124SOL     OW 8750   2.244   2.488   7.794  0.2098 -0.0846 -0.3237
 2124SOL    HW1 8751   2.294   2.407   7.789  1.7939  0.8181  0.2467
 2124SOL    HW2 8752   2.164   2.470   7.744  1.0845 -1.5825 -1.2613
 2125SOL     OW 8753   8.058   9.661   2.728 -0.5715  0.6351  0.1172
 2125SOL    HW1 8754   8.108   9.582   2.708 -0.2245  0.7640  0.4595
 2125SOL    HW2 8755   8.116   9.734   2.705 -0.0846  0.7912  1.6880
 2126SOL     OW 8756   4.158   5.700   9.232 -0.1781 -0.2554  0.7295
 2126SOL    HW1 8757   4.107   5.728   9.157  2.4471  0.3405 -0.9574
 2126SOL    HW2 8758   4.144   5.606   9.237  0.8753 -0.5978 -1.6160
 2127SOL     OW 8759   0.108   0.820   8.780  0.0059  0.3047 -0.2927
 2127SOL    HW1 8760   0.073   0.803   8.692 -2.1001  0.0394  0.5280
 2127SOL    HW2 8761   0.033   0.807   8.838  1.1303  1.3069  1.4765
 2128SOL     OW 8762   9.569   0.411   2.407  0.2286  0.3838 -0.5676
 2128SOL    HW1 8763   9.508   0.337   2.404 -0.0281  0.3857  2.1341
 2128SOL    HW2 8764   9.655   0.372   2.395 -0.0221 -0.0813 -0.9300
 2129SOL     OW 8765   8.410   5.503   0.813  0.2660 -0.3427 -0.1404
 2129SOL    HW1 8766   8.492   5.545   0.838  0.3804 -1.0616  0.7184
 2129SOL    HW2 8767   8.402   5.519   0.718  0.7778  0.7729 -0.0065
 2130SOL     OW 8768   0.518   9.564   2.998  0.0335 -0.1414 -0.1016
 2130SOL    HW1 8769   0.437   9.611   3.018  0.1674 -0.3289  0.9089
 2130SOL    HW2 8770   0.586   9.608   3.048  0.5369 -0.0899 -0.8160
 2131SOL     OW 8771   9.643   1.971   3.272  0.3391 -0.1643 -0.4208
 2131SOL    HW1 8772   9.564   1.947   3.320 -0.5665  2.0284 -0.6920
 2131SOL    HW2 8773   9.686   1.888   3.254 -2.3600 -1.5440 -1.0680
 2132SOL     OW 8774   0.486   8.550   6.241 -0.9304 -0.3551 -0.3160
 2132SOL    HW1 8775   0.564   8.606   6.240 -2.4090  1.9999  2.5273
 2132SOL    HW2 8776   0.417   8.603   6.201 -2.0883 -0.5877  1.3002
 2133SOL     OW 8777   9.244   2.588   0.776  0.0927 -0.5076  0.2924
 2133SOL    HW1 8778   9.333   2.578   0.742  0.6670  0.4622  1.4625
 2133SOL    HW2 8779   9.201   2.648   0.714  0.2440 -0.9528 -0.2542
 2134SOL     OW 8780   9.878   1.491   7.800  0.5789  0.5218  0.3162
 2134SOL    HW1 8781   9.834   1.463   7.880 -2.0681  2.2855 -0.3908
 2134SOL    HW2 8782   9.828   1.567   7.771  2.0376  0.5175 -2.5077
 2135SOL     OW 8783   3.667   2.380   7.306  0.2468  0.3121 -0.0189
 2135SOL    HW1 8784   3.696   2.424   7.225  0.5154  1.2535  0.5766
 2135SOL    HW2 8785   3.588   2.427   7.332  0.4906  0.3956  0.5828
 2136SOL     OW 8786   6.093   7.090   6.357 -0.4912  0.2074 -0.5643
 2136SOL    HW1 8787   6.055   7.158   6.413 -0.6885  0.5562 -1.1143
 2136SOL    HW2 8788   6.026   7.021   6.355 -0.1837 -0.1198  0.2003
 2137SOL     OW 8789   2.963   7.629   6.315  0.4267  0.0674  0.2111
 2137SOL    HW1 8790   3.043   7.637   6.262  0.9857  2.2296  1.2209
 2137SOL    HW2 8791   2.892   7.622   6.251  1.3638 -1.3691 -0.7215
 2138SOL     OW 8792  10.151   5.004   2.361 -1.0367  0.1120  0.2004
 2138SOL    HW1 8793  10.136   5.096   2.381 -0.3009  0.5306 -1.0754
 2138SOL    HW2 8794  10.172   4.964   2.446 -0.2560  1.3478  0.6202
 2139SOL     OW 8795  10.743   2.894   7.472  0.0321  0.0552 -0.2843
 2139SOL    HW1 8796  10.828   2.930   7.498  0.6413 -1.5636  0.1047
 2139SOL    HW2 8797  10.751   2.878   7.378  0.4360 -0.7175 -0.1338
 2140SOL     OW 8798   6.097   2.326   4.183 -0.3573 -0.0967  0.4211
 2140SOL    HW1 8799   6.156   2.250   4.177 -1.1192 -0.6043 -1.0994
 2140SOL    HW2 8800   6.100   2.351   4.275  2.6520  0.2356  0.3347
 2141SOL     OW 8801   1.183   6.616   4.339 -0.3578  0.7800  0.0058
 2141SOL    HW1 8802   1.136   6.548   4.387 -0.0085 -0.3789 -1.2108
 2141SOL    HW2 8803   1.124   6.691   4.338 -1.5089 -0.1032 -0.1223
 2142SOL     OW 8804   1.406   6.088   1.489 -0.1069 -0.3522 -0.0455
 2142SOL    HW1 8805   1.442   6.049   1.568  0.2604 -1.0062 -0.5231
 2142SOL    HW2 8806   1.396   6.014   1.428  1.0363  0.3436 -1.1319
 2143SOL     OW 8807   5.735   5.845   2.083  0.4534 -0.1156  0.7582
 2143SOL    HW1 8808   5.797   5.831   2.011 -0.0133 -0.6141  0.4397
 2143SOL    HW2 8809   5.777   5.805   2.159 -0.2739 -2.1758  0.1397
 2144SOL     OW 8810   6.110   2.684   7.144 -0.1143  0.7997 -0.3749
 2144SOL    HW1 8811   6.179   2.628   7.180 -1.7037 -0.3550  1.0105
 2144SOL    HW2 8812   6.124   2.769   7.186 -1.4210 -0.2958  2.5141
 2145SOL     OW 8813   5.483  10.336   6.876 -0.4652  0.8261  0.7170
 2145SOL    HW1 8814   5.459  10.259   6.825 -0.0219  1.3176 -0.2710
 2145SOL    HW2 8815   5.571  10.318   6.907 -0.4955  0.7943  0.7860
 2146SOL     OW 8816   5.335   1.180   4.444 -0.0422  0.3209 -0.1795
 2146SOL    HW1 8817   5.301   1.163   4.356  0.4533  0.1405 -0.3385
 2146SOL    HW2 8818   5.350   1.274   4.446 -1.4072  0.5517  0.2067
 2147SOL     OW 8819   1.369   8.454   6.441  0.0858  0.1806  0.1172
 2147SOL    HW1 8820   1.349   8.547   6.450 -1.5593 -0.1738  0.3989
 2147SOL    HW2 8821   1.332   8.429   6.357 -0.9156 -0.5534  0.7519
 2148SOL     OW 8822   6.082   2.829   1.647  0.2373 -0.2394 -0.3017
 2148SOL    HW1 8823   6.173   2.843   1.673 -0.1312  0.6920  0.5413
 2148SOL    HW2 8824   6.050   2.761   1.706  0.5119 -0.9105 -0.9131
 2149SOL     OW 8825   2.660   6.802   0.594  0.3619  0.1730  0.5797
 2149SOL    HW1 8826   2.603   6.857   0.647  0.9665  1.1065  0.2823
 2149SOL    HW2 8827   2.692   6.735   0.655  1.3005  1.4225  1.5005
 2150SOL     OW 8828   7.740   6.347   1.770  0.0814 -0.1157 -0.4761
 2150SOL    HW1 8829   7.718   6.427   1.721 -1.5493 -1.3154 -1.8325
 2150SOL    HW2 8830   7.800   6.299   1.713  2.3010  0.7510  0.9915
 2151SOL     OW 8831   6.694   6.776   6.740 -0.6116  0.0347 -0.2288
 2151SOL    HW1 8832   6.647   6.698   6.710  0.0801 -0.1945 -0.7305
 2151SOL    HW2 8833   6.662   6.847   6.683 -0.2502 -0.1477 -0.6614
 2152SOL     OW 8834   0.789   6.133   4.927 -0.1579 -0.3529  0.2867
 2152SOL    HW1 8835   0.759   6.186   5.001 -1.8520 -2.8906  1.5880
 2152SOL    HW2 8836   0.831   6.057   4.968  0.5965 -0.8900 -1.4186
 2153SOL     OW 8837   5.145   1.173   2.717 -0.1439  0.2097  0.2015
 2153SOL    HW1 8838   5.172   1.228   2.643  0.2998  0.2899  0.4214
 2153SOL    HW2 8839   5.200   1.094   2.709 -1.7892 -0.8882 -0.9796
 2154SOL     OW 8840   2.425   1.824  10.135 -0.5476 -0.4559 -0.5502
 2154SOL    HW1 8841   2.414   1.793  10.225  0.8333 -1.2805 -0.6382
 2154SOL    HW2 8842   2.404   1.747  10.082 -0.2934 -0.2825 -0.8975
 2155SOL     OW 8843   7.626   7.774   1.772  0.5144 -0.5062  0.3355
 2155SOL    HW1 8844   7.565   7.725   1.828  1.2833 -1.6569  0.2080
 2155SOL    HW2 8845   7.605   7.866   1.787 -1.0947 -0.8738  0.4595
 2156SOL     OW 8846   4.638   8.137   5.981  0.8125 -0.2438 -0.0093
 2156SOL    HW1 8847   4.674   8.155   6.068  0.6262 -0.0943  0.0366
 2156SOL    HW2 8848   4.711   8.156   5.921  0.6120  0.6901  0.0352
 2157SOL     OW 8849   8.805  10.281   0.496  0.2811 -0.0063 -0.2453
 2157SOL    HW1 8850   8.760  10.284   0.581 -0.6633 -0.4419 -0.7040
 2157SOL    HW2 8851   8.885  10.232   0.513 -0.0245 -0.3159  0.3531
 2158SOL     OW 8852   1.039   6.234   8.244  0.0123  0.1581 -0.1767
 2158SOL    HW1 8853   1.114   6.224   8.303 -0.9837  0.0436  1.0958
 2158SOL    HW2 8854   1.009   6.145   8.228 -0.1226  0.2330 -0.3395
 2159SOL     OW 8855   0.645   5.743   3.308 -0.0351 -0.0370  0.3500
 2159SOL    HW1 8856   0.585   5.693   3.252  0.5213 -1.2351  0.7909
 2159SOL    HW2 8857   0.699   5.792   3.246 -0.6921  0.1578 -0.0886
 2160SOL     OW 8858   0.869   3.633   8.689 -0.3288  0.0977  0.2141
 2160SOL    HW1 8859   0.780   3.617   8.658 -0.0602  0.3790 -0.7615
 2160SOL    HW2 8860   0.907   3.692   8.623  1.0481 -1.1861 -0.2051
 2161SOL     OW 8861   9.521   1.365   8.899  0.1726  0.3353  0.2567
 2161SOL    HW1 8862   9.453   1.432   8.905  0.5994  1.0550 -2.0521
 2161SOL    HW2 8863   9.602   1.414   8.890  0.5617 -0.4816 -0.8782
 2162SOL     OW 8864   0.903   0.874   7.498 -0.3574  0.0520  0.6195
 2162SOL    HW1 8865   0.983   0.835   7.531 -0.9629 -1.6682  0.1864
 2162SOL    HW2 8866   0.911   0.967   7.517  1.4637 -0.1745  1.1084
 2163SOL     OW 8867   0.805  10.659   1.211  0.1548 -0.2003  0.0355
 2163SOL    HW1 8868   0.735  10.602   1.243 -0.0266 -0.6117 -1.0519
 2163SOL    HW2 8869   0.834  10.707   1.288 -2.7765  1.6180  0.1636
 2164SOL     OW 8870   4.952   9.605   3.819 -0.1591  0.9692  0.5849
 2164SOL    HW1 8871   4.986   9.569   3.901 -1.9392 -0.3686  0.7958
 2164SOL    HW2 8872   5.015   9.577   3.753 -0.5501 -1.0319  1.0133
 2165SOL     OW 8873   3.936   4.182   4.052 -0.3119  0.0228  0.4217
 2165SOL    HW1 8874   4.017   4.137   4.074 -0.1620  0.6355  1.1388
 2165SOL    HW2 8875   3.962   4.248   3.988  0.2500  1.9641  2.5440
 2166SOL     OW 8876   9.036   5.886   9.024  0.1815  0.1839  0.1840
 2166SOL    HW1 8877   9.122   5.887   9.065  1.1343 -1.7276 -1.5767
 2166SOL    HW2 8878   8.974   5.886   9.097  1.7050 -0.2076  1.5303
 2167SOL     OW 8879   8.513   9.958   4.129 -0.0562  0.5157 -0.0464
 2167SOL    HW1 8880   8.501   9.973   4.035 -2.2902  0.7516  0.2293
 2167SOL    HW2 8881   8.564  10.034   4.159  1.9809 -0.2921 -1.2659
 2168SOL     OW 8882   4.655   9.773  10.743  0.8796  0.8018 -0.5748
 2168SOL    HW1 8883   4.749   9.786  10.757  0.8316  0.7203 -0.1871
 2168SOL    HW2 8884   4.634   9.694  10.792  0.6456  0.7119 -0.8184
 2169SOL     OW 8885   6.050   2.814   8.680 -0.0412 -0.4168  0.0536
 2169SOL    HW1 8886   5.975   2.852   8.727  0.2674 -1.2726  1.2905
 2169SOL    HW2 8887   6.099   2.766   8.747  0.8700 -1.0211 -1.0003
 2170SOL     OW 8888   5.473   1.046   2.720  0.0451 -0.0522  0.4490
 2170SOL    HW1 8889   5.535   1.082   2.657  1.9215 -2.6456  0.6619
 2170SOL    HW2 8890   5.501   1.082   2.804  2.0655 -1.9719  0.6968
 2171SOL     OW 8891   3.263   3.974   1.778 -0.1005 -0.2891  0.1784
 2171SOL    HW1 8892   3.247   3.955   1.870  0.6725 -2.6627 -0.1095
 2171SOL    HW2 8893   3.192   3.930   1.731 -0.9255  1.5347 -0.3680
 2172SOL     OW 8894  10.593   1.991   0.876 -0.1800  0.2838  0.6478
 2172SOL    HW1 8895  10.611   2.085   0.883 -0.5031  0.4524 -0.5808
 2172SOL    HW2 8896  10.626   1.955   0.958  0.8838  1.3216  0.7113
 2173SOL     OW 8897   7.391   5.880   2.302  0.1661 -0.0299 -0.6613
 2173SOL    HW1 8898   7.356   5.969   2.308  1.9617  0.6480  0.9139
 2173SOL    HW2 8899   7.363   5.839   2.384 -0.4695 -0.8735 -1.2881
 2174SOL     OW 8900   3.150  10.524   2.992 -0.0487  0.2413  0.2066
 2174SOL    HW1 8901   3.113  10.611   2.978 -1.2814 -0.4501 -1.0548
 2174SOL    HW2 8902   3.080  10.463   2.966  0.5039 -1.1432  1.7836
 2175SOL     OW 8903   9.983   5.096   0.840 -0.3758 -0.3017 -0.4638
 2175SOL    HW1 8904  10.023   5.118   0.756 -0.5991 -0.6092 -0.6539
 2175SOL    HW2 8905  10.017   5.008   0.861  0.2169  0.0532  0.1030
 2176SOL     OW 8906   5.969   8.439   4.055  0.2463 -0.0581  0.6798
 2176SOL    HW1 8907   5.909   8.396   3.994  1.9528 -0.4333 -0.8278
 2176SOL    HW2 8908   6.032   8.372   4.079  0.0063  0.2740  2.3859
 2177SOL     OW 8909   4.720   4.996  10.385 -0.2736  0.4477 -0.0240
 2177SOL    HW1 8910   4.715   5.067  10.449  1.9187  0.3232  0.3699
 2177SOL    HW2 8911   4.672   4.923  10.425 -1.9395  1.4435 -0.1229
 2178SOL     OW 8912  10.551   4.444   2.341 -0.6575  0.1669 -0.3973
 2178SOL    HW1 8913  10.567   4.489   2.258  0.1839  1.1277  0.2576
 2178SOL    HW2 8914  10.517   4.513   2.399  4.9692  1.4454  2.1015
 2179SOL     OW 8915   5.820   3.388   8.069  0.1084 -0.0566  0.6062
 2179SOL    HW1 8916   5.902   3.346   8.045  0.4842  0.0824  1.5751
 2179SOL    HW2 8917   5.765   3.316   8.100  0.4508  0.0376  1.4688
 2180SOL     OW 8918   8.555   6.702   9.752  0.0465  0.0282  0.5684
 2180SOL    HW1 8919   8.649   6.706   9.764 -0.0891  1.6506  1.4343
 2180SOL    HW2 8920   8.543   6.692   9.657  1.0791 -0.0863  0.4427
 2181SOL     OW 8921   2.676  10.360   0.120 -0.0464 -0.4304 -0.3491
 2181SOL    HW1 8922   2.739  10.430   0.102  0.3974 -1.0286 -1.2335
 2181SOL    HW2 8923   2.616  10.362   0.045 -0.4680 -0.5227 -0.0177
 2182SOL     OW 8924   6.685   2.567   9.550  0.2918 -0.0795 -0.6078
 2182SOL    HW1 8925   6.610   2.623   9.530 -0.2306 -0.2694  0.7057
 2182SOL    HW2 8926   6.710   2.591   9.639  0.8087 -1.1007 -0.4602
 2183SOL     OW 8927   0.353  10.713   8.691  0.1695 -0.1277 -0.0418
 2183SOL    HW1 8928   0.423  10.670   8.739 -0.2215 -1.1180 -0.3304
 2183SOL    HW2 8929   0.321  10.646   8.630 -0.7769  0.4185 -0.1683
 2184SOL     OW 8930   2.524   1.381   8.263 -0.6158 -0.1972 -0.7758
 2184SOL    HW1 8931   2.430   1.391   8.252 -0.8684 -0.5285  0.7919
 2184SOL    HW2 8932   2.533   1.301   8.315  0.4869  0.2012 -0.3263
 2185SOL     OW 8933   0.504  10.533   9.215 -0.1968 -0.4376 -0.0076
 2185SOL    HW1 8934   0.423  10.529   9.164 -0.4801  0.9535  0.2990
 2185SOL    HW2 8935   0.572  10.503   9.154 -0.8226 -0.8327 -0.5222
 2186SOL     OW 8936   8.097   1.483   8.650 -0.3596  0.5890 -0.4433
 2186SOL    HW1 8937   8.056   1.554   8.700 -1.4696 -0.2098 -0.1681
 2186SOL    HW2 8938   8.127   1.422   8.717 -0.4367  0.2603 -0.7091
 2187SOL     OW 8939   7.046   5.452   7.967 -0.0470  0.3283  0.3914
 2187SOL    HW1 8940   6.976   5.397   8.004 -0.0506  0.9050  1.2790
 2187SOL    HW2 8941   7.005   5.537   7.953  0.1721  0.3380 -0.2144
 2188SOL     OW 8942   3.593   9.405   0.331 -0.2651  0.5606  0.0255
 2188SOL    HW1 8943   3.610   9.363   0.416  0.2190  0.3765 -0.1595
 2188SOL    HW2 8944   3.498   9.419   0.330 -0.3166  0.2679  0.4620
 2189SOL     OW 8945  10.184   7.651   6.025 -0.1148 -0.3807 -0.0324
 2189SOL    HW1 8946  10.278   7.637   6.029 -0.1814 -0.6444  0.7153
 2189SOL    HW2 8947  10.149   7.602   6.099 -0.6396  1.3474  0.9286
 2190SOL     OW 8948   4.017  10.662   0.182  0.6847  0.0703  0.0835
 2190SOL    HW1 8949   4.055  10.700   0.102  1.4750 -2.6088 -0.9195
 2190SOL    HW2 8950   4.034  10.727   0.250  1.6436  1.6206 -1.5539
 2191SOL     OW 8951   8.694   2.751   8.419  0.1327 -0.2447 -0.3924
 2191SOL    HW1 8952   8.777   2.755   8.466 -0.2458 -1.0324  0.3840
 2191SOL    HW2 8953   8.695   2.828   8.361  2.4533 -1.5495 -2.2445
 2192SOL     OW 8954   6.734   1.089   7.292 -0.1344 -0.0796 -0.7104
 2192SOL    HW1 8955   6.708   1.005   7.329  0.5375  0.4106  0.9371
 2192SOL    HW2 8956   6.781   1.065   7.211  0.4589 -1.3205 -0.0321
 2193SOL     OW 8957   9.594   0.264   0.743  0.2364 -0.5656 -0.9218
 2193SOL    HW1 8958   9.680   0.268   0.784 -0.1690  1.2197 -0.1281
 2193SOL    HW2 8959   9.538   0.318   0.800 -1.0448 -0.4375 -2.2316
 2194SOL     OW 8960  10.333   8.627   0.205 -0.4892 -0.1827  0.3202
 2194SOL    HW1 8961  10.240   8.631   0.181 -0.4805 -1.0894  0.0650
 2194SOL    HW2 8962  10.379   8.655   0.126 -0.5536  0.5764  0.5525
 2195SOL     OW 8963   4.937   0.116   8.489  0.4772 -0.2088 -0.0568
 2195SOL    HW1 8964   4.907   0.203   8.462  0.0676 -1.1047 -2.7623
 2195SOL    HW2 8965   5.017   0.101   8.439  1.6433 -0.6844  1.8298
 2196SOL     OW 8966   0.025   8.703   0.408 -0.4185  0.1881  0.0097
 2196SOL    HW1 8967  -0.017   8.685   0.324  0.2230  0.7787 -0.4417
 2196SOL    HW2 8968  -0.044   8.740   0.463 -1.0486 -0.9735  0.0283
 2197SOL     OW 8969   6.400   7.381   6.072 -0.3219  0.5022  0.7886
 2197SOL    HW1 8970   6.372   7.469   6.047 -0.9449 -0.0585 -0.5901
 2197SOL    HW2 8971   6.368   7.325   6.002  0.9159 -0.7046  1.1501
 2198SOL     OW 8972   4.954   8.787   9.232 -0.0957  0.2217  0.5156
 2198SOL    HW1 8973   4.864   8.818   9.238 -0.2444  0.3251 -1.4979
 2198SOL    HW2 8974   4.973   8.751   9.319 -2.2350 -0.2537  0.8370
 2199SOL     OW 8975   2.117   1.677   9.864  0.0838 -0.2231 -0.1202
 2199SOL    HW1 8976   2.069   1.649   9.786 -0.2618  0.6682 -0.2325
 2199SOL    HW2 8977   2.061   1.652   9.937  0.1724 -0.5874 -0.1713
 2200SOL     OW 8978   0.393   5.175   9.583  0.0317  0.6693  0.6276
 2200SOL    HW1 8979   0.455   5.239   9.548  0.9642 -0.6468 -0.2186
 2200SOL    HW2 8980   0.402   5.182   9.678  0.7118  1.2180  0.5334
 2201SOL     OW 8981   1.028   8.433   3.442  0.0844  0.6097 -0.2052
 2201SOL    HW1 8982   1.121   8.430   3.463  0.2551  0.8974 -0.8801
 2201SOL    HW2 8983   1.017   8.368   3.373 -0.6155 -0.8985  1.2631
 2202SOL     OW 8984   3.917   0.578   7.773 -0.3065 -0.0615  0.0180
 2202SOL    HW1 8985   3.913   0.575   7.677 -1.5862 -0.8689  0.0674
 2202SOL    HW2 8986   3.982   0.512   7.796  1.5497  1.5648 -0.3311
 2203SOL     OW 8987   9.347   0.411   0.859 -0.0563 -0.0102  0.4583
 2203SOL    HW1 8988   9.343   0.500   0.826 -2.8843 -0.3190 -0.2841
 2203SOL    HW2 8989   9.345   0.420   0.954 -0.4288  0.7160  0.3840
 2204SOL     OW 8990   4.723   4.982   9.072  0.1298  0.5811  0.4753
 2204SOL    HW1 8991   4.774   5.057   9.102  1.6130  0.1740 -0.8987
 2204SOL    HW2 8992   4.745   4.911   9.133  1.2967  0.3910 -0.1451
 2205SOL     OW 8993   2.970   0.230   3.219 -0.1754  0.7571  0.3869
 2205SOL    HW1 8994   3.059   0.204   3.195 -0.8665 -0.6490 -0.8580
 2205SOL    HW2 8995   2.919   0.217   3.139 -1.8455 -0.1781  1.5437
 2206SOL     OW 8996   0.697   1.070  10.461  0.1673 -0.2148 -0.1947
 2206SOL    HW1 8997   0.771   1.126  10.438  1.0891 -1.4000 -0.2173
 2206SOL    HW2 8998   0.692   1.075  10.556  0.3077 -0.1617 -0.1894
 2207SOL     OW 8999   3.064   3.907   9.963 -0.1378  0.2385  0.1090
 2207SOL    HW1 9000   3.131   3.845   9.991  1.3071  1.2778 -0.8968
 2207SOL    HW2 9001   3.097   3.941   9.880 -1.5076  1.4242  0.0258
 2208SOL     OW 9002   8.714   4.377   6.066 -0.8756 -0.2993 -0.0443
 2208SOL    HW1 9003   8.739   4.336   5.983 -1.2569  0.2032 -0.4114
 2208SOL    HW2 9004   8.680   4.463   6.041 -0.3806  0.1200  0.6875
 2209SOL     OW 9005  10.735   8.910   6.027 -0.1358 -0.5110  0.1361
 2209SOL    HW1 9006  10.713   8.818   6.042  0.5857 -0.4880  1.4337
 2209SOL    HW2 9007  10.825   8.909   5.994 -0.1612 -0.2607  0.0533
 2210SOL     OW 9008   3.468   0.507   2.312 -0.0072  0.0519 -0.3840
 2210SOL    HW1 9009   3.452   0.598   2.338 -0.0925 -0.1111  0.1422
 2210SOL    HW2 9010   3.506   0.514   2.224 -1.4339  0.5190 -0.9876
 2211SOL     OW 9011   9.117   4.176   9.542 -0.0555  0.1774 -0.1514
 2211SOL    HW1 9012   9.166   4.151   9.620  0.0548 -2.0071 -0.8627
 2211SOL    HW2 9013   9.033   4.209   9.575  0.3630  0.2195  0.9040
 2212SOL     OW 9014   9.331   6.946   0.686  0.3384 -0.0120 -0.3252
 2212SOL    HW1 9015   9.252   6.973   0.639 -1.9155 -1.9555  2.0439
 2212SOL    HW2 9016   9.385   7.025   0.689 -0.4479  0.8504 -3.8348
 2213SOL     OW 9017   9.422   3.789   9.453 -0.5163 -0.3425 -0.4076
 2213SOL    HW1 9018   9.419   3.876   9.491 -0.0259  0.0473 -1.2186
 2213SOL    HW2 9019   9.495   3.746   9.498 -1.5942 -0.8270  0.9503
 2214SOL     OW 9020   7.799   5.593   1.947 -0.3503 -0.0502 -0.7708
 2214SOL    HW1 9021   7.863   5.653   1.907  0.4295 -0.8380 -0.7349
 2214SOL    HW2 9022   7.806   5.513   1.896 -0.2965 -0.6199  0.1002
 2215SOL     OW 9023   4.694   5.209   1.955  0.7442 -0.2708  0.4807
 2215SOL    HW1 9024   4.711   5.292   1.911  2.2941 -0.4156  0.7611
 2215SOL    HW2 9025   4.781   5.172   1.973  0.0948 -1.8574  0.5549
 2216SOL     OW 9026   5.452   6.675   5.590 -0.6552  0.3479 -0.2429
 2216SOL    HW1 9027   5.380   6.677   5.654 -0.9010  0.1810 -0.5105
 2216SOL    HW2 9028   5.430   6.744   5.527 -0.2521  0.7226  0.0236
 2217SOL     OW 9029   1.111   9.235   8.899 -0.5900 -0.1695 -0.2511
 2217SOL    HW1 9030   1.093   9.277   8.815 -0.8293 -1.2961 -0.7720
 2217SOL    HW2 9031   1.182   9.288   8.936 -0.7878  0.6147 -0.9470
 2218SOL     OW 9032  10.537   0.610   6.263  0.1272  0.1349  0.5457
 2218SOL    HW1 9033  10.619   0.585   6.222  0.2622  2.7228 -0.9834
 2218SOL    HW2 9034  10.560   0.680   6.324 -1.0086  1.9706 -0.9971
 2219SOL     OW 9035   7.003   0.396  10.514  0.1845 -0.4684 -0.4564
 2219SOL    HW1 9036   6.956   0.455  10.572  0.1279 -1.6774  0.7728
 2219SOL    HW2 9037   6.945   0.383  10.440  0.1729  0.9363 -0.7220
 2220SOL     OW 9038   4.888   7.021   7.902 -0.1075 -0.2881 -0.0115
 2220SOL    HW1 9039   4.954   6.972   7.853 -1.0152 -1.2343 -0.3298
 2220SOL    HW2 9040   4.829   7.056   7.835 -0.2904  0.0130  0.3022
 2221SOL     OW 9041   0.044   1.281   9.200 -0.4250  0.4702  0.4765
 2221SOL    HW1 9042   0.016   1.272   9.292  0.0995 -0.0008  0.5951
 2221SOL    HW2 9043   0.133   1.246   9.199 -1.0731 -1.2770 -0.5744
 2222SOL     OW 9044   2.670   2.606   1.953  0.5482  0.5447 -0.4224
 2222SOL    HW1 9045   2.642   2.567   1.871 -0.8127  0.6372 -0.0282
 2222SOL    HW2 9046   2.589   2.631   1.997  1.2926  1.6012  0.4142
 2223SOL     OW 9047   5.493   4.647   0.894 -0.3719  0.0405 -0.8044
 2223SOL    HW1 9048   5.486   4.713   0.826 -0.4640 -0.4847 -1.3094
 2223SOL    HW2 9049   5.487   4.563   0.848  0.5542 -0.3368 -0.2801
 2224SOL     OW 9050   7.654   9.206   2.876  0.2382 -0.5027  0.4433
 2224SOL    HW1 9051   7.680   9.120   2.843 -1.9857 -1.2549  0.5161
 2224SOL    HW2 9052   7.561   9.213   2.855  0.6621  2.5783 -0.9859
 2225SOL     OW 9053   6.091   4.219   7.761 -0.1139  0.0918 -0.4415
 2225SOL    HW1 9054   6.174   4.172   7.768 -0.4442 -0.4288  0.0408
 2225SOL    HW2 9055   6.101   4.295   7.819 -0.2416 -0.3658  0.1802
 2226SOL     OW 9056   1.641   3.062  10.212 -0.0978  0.4884 -0.5350
 2226SOL    HW1 9057   1.558   3.080  10.169  0.4993 -0.0014 -1.9572
 2226SOL    HW2 9058   1.687   3.004  10.152  0.0416 -1.8165  1.6221
 2227SOL     OW 9059   9.321   1.997   3.445  0.2659  0.3348  0.1486
 2227SOL    HW1 9060   9.352   2.046   3.521  0.8741  0.8252 -0.4070
 2227SOL    HW2 9061   9.248   2.049   3.412  0.9558  0.9210 -0.4825
 2228SOL     OW 9062   4.441   2.676   0.878  0.7645  0.1590 -0.1306
 2228SOL    HW1 9063   4.347   2.688   0.864  0.8847  1.2251 -0.1178
 2228SOL    HW2 9064   4.455   2.582   0.871 -0.1050  0.1019 -1.3950
 2229SOL     OW 9065   3.698   1.083   5.464 -0.1155 -0.1442 -0.7377
 2229SOL    HW1 9066   3.703   1.114   5.554 -1.1539 -0.8666 -0.4119
 2229SOL    HW2 9067   3.610   1.107   5.435  0.2392  0.1632 -1.6034
 2230SOL     OW 9068   3.333   6.108   8.849  0.5457  0.1482  0.6430
 2230SOL    HW1 9069   3.358   6.199   8.867 -1.4022  0.6470  1.0109
 2230SOL    HW2 9070   3.315   6.106   8.755  0.2852  0.2138  0.6926
 2231SOL     OW 9071   1.306   6.915   1.134 -0.3288 -0.2156 -0.1117
 2231SOL    HW1 9072   1.213   6.899   1.152  0.5385 -2.5050  3.2547
 2231SOL    HW2 9073   1.349   6.831   1.151  2.6330  1.3763  1.0445
 2232SOL     OW 9074   1.618   3.846   5.267  0.5350  0.2638 -0.8716
 2232SOL    HW1 9075   1.602   3.927   5.315  1.6061  0.2908 -0.5312
 2232SOL    HW2 9076   1.601   3.776   5.331  1.4490  0.2858 -0.5876
 2233SOL     OW 9077   2.284   1.615  10.369 -0.0452 -0.1733 -0.2140
 2233SOL    HW1 9078   2.296   1.524  10.339  0.0290  0.0365 -0.8365
 2233SOL    HW2 9079   2.190   1.631  10.360 -0.2202 -0.5233  0.8909
 2234SOL     OW 9080   3.466   4.720   9.194  0.5527 -0.2102  0.4364
 2234SOL    HW1 9081   3.481   4.634   9.155  1.3715 -0.3482  1.0371
 2234SOL    HW2 9082   3.512   4.717   9.278  0.8543  0.9181  0.3284
 2235SOL     OW 9083   4.995   0.672   7.382 -0.0207  0.1203  0.1900
 2235SOL    HW1 9084   5.062   0.680   7.314  0.7444 -2.2524  0.5517
 2235SOL    HW2 9085   5.041   0.695   7.463 -0.1947  0.4272  0.2001
 2236SOL     OW 9086   1.329   8.002   3.819  0.9742  0.3513  0.6949
 2236SOL    HW1 9087   1.258   8.048   3.775  0.7666  0.3811  1.0521
 2236SOL    HW2 9088   1.285   7.937   3.874  1.1971  0.6619  1.2547
 2237SOL     OW 9089   9.341   0.674   8.737 -0.1186 -0.6350  0.5261
 2237SOL    HW1 9090   9.329   0.681   8.642  1.4094 -1.1200  0.2685
 2237SOL    HW2 9091   9.410   0.608   8.747  0.9380  0.6123  1.8892
 2238SOL     OW 9092   6.409  10.152   6.838  0.2927  0.6718  0.1369
 2238SOL    HW1 9093   6.496  10.113   6.850 -0.2324 -0.7601 -0.5664
 2238SOL    HW2 9094   6.377  10.165   6.927  0.6659 -0.0946  0.3919
 2239SOL     OW 9095   8.217   8.516   7.878  0.0350  0.2501 -0.1007
 2239SOL    HW1 9096   8.245   8.497   7.967 -5.2598 -0.4859  1.7518
 2239SOL    HW2 9097   8.192   8.608   7.880  1.5326  0.7410 -1.4854
 2240SOL     OW 9098   4.157   7.402   9.407 -0.3931 -0.4752  0.3552
 2240SOL    HW1 9099   4.195   7.384   9.321  0.6299  1.8232  0.2529
 2240SOL    HW2 9100   4.225   7.451   9.453 -0.5439 -2.4211  2.8799
 2241SOL     OW 9101   2.415   5.425  10.004 -0.1695  0.4369  0.3942
 2241SOL    HW1 9102   2.375   5.432   9.917  0.5663 -0.2616 -0.0073
 2241SOL    HW2 9103   2.503   5.393   9.988 -0.7582 -1.9758  1.5364
 2242SOL     OW 9104   5.672   6.958   1.886  0.1264  0.7348  0.0482
 2242SOL    HW1 9105   5.713   7.037   1.921  0.3309  1.0740 -0.9319
 2242SOL    HW2 9106   5.737   6.889   1.899  0.8116  1.1579 -0.9827
 2243SOL     OW 9107  10.090   5.802   0.142  0.1435 -0.1384 -0.5112
 2243SOL    HW1 9108  10.057   5.849   0.066  1.2095 -0.1105 -0.9770
 2243SOL    HW2 9109  10.037   5.723   0.147  0.9458 -0.8075 -2.1074
 2244SOL     OW 9110   9.660   9.831   9.903  0.3212  0.1929  0.1699
 2244SOL    HW1 9111   9.669   9.897   9.835 -0.9858  0.7594  0.5145
 2244SOL    HW2 9112   9.735   9.772   9.890  0.5050  0.7105 -1.2680
 2245SOL     OW 9113   0.621   4.549   8.338 -0.2576  0.1399 -0.0455
 2245SOL    HW1 9114   0.580   4.530   8.254  2.9855  0.0647 -1.7547
 2245SOL    HW2 9115   0.664   4.467   8.363  0.5784  0.7662  0.6139
 2246SOL     OW 9116   5.679   8.999   8.316  0.1223  0.6241  0.1282
 2246SOL    HW1 9117   5.603   8.951   8.283  0.7258  0.1989 -0.6909
 2246SOL    HW2 9118   5.751   8.935   8.312  0.4078  0.8145  1.4987
 2247SOL     OW 9119   8.491   1.781   2.561  0.7181  0.3406 -0.1146
 2247SOL    HW1 9120   8.447   1.828   2.632  1.5006  1.8887 -0.6302
 2247SOL    HW2 9121   8.531   1.705   2.605  0.1967  0.6179  0.8830
 2248SOL     OW 9122   0.203   1.214   1.105 -0.1957  0.3300  0.2834
 2248SOL    HW1 9123   0.173   1.283   1.046  1.0697  0.8093  0.1749
 2248SOL    HW2 9124   0.289   1.189   1.071 -0.3296 -0.7981  0.7444
 2249SOL     OW 9125   5.949   4.161   1.763 -0.2330 -0.1314  0.1570
 2249SOL    HW1 9126   5.862   4.146   1.727  0.0081 -1.4042  0.0775
 2249SOL    HW2 9127   5.957   4.098   1.835  0.1916  0.7687  0.9212
 2250SOL     OW 9128   8.800   1.225   6.857  0.5962 -0.0855  0.0551
 2250SOL    HW1 9129   8.808   1.136   6.891  1.2768  0.8877  2.6639
 2250SOL    HW2 9130   8.876   1.235   6.799 -0.3038 -1.6162 -1.5013
 2251SOL     OW 9131   7.944   6.406   1.142 -0.0258  0.1847  0.2243
 2251SOL    HW1 9132   7.964   6.444   1.227  0.0241 -0.1954  0.3840
 2251SOL    HW2 9133   7.970   6.314   1.150  0.9598  0.3810 -0.5341
 2252SOL     OW 9134   7.766  10.728   7.318 -0.5515  0.8865 -0.1596
 2252SOL    HW1 9135   7.818  10.776   7.383  1.8327 -1.3933 -0.2136
 2252SOL    HW2 9136   7.819  10.652   7.296 -1.9337  0.7401 -3.6975
 2253SOL     OW 9137   1.488   2.836   6.171  0.1828  0.3871 -0.4661
 2253SOL    HW1 9138   1.504   2.751   6.211 -0.3268  0.7495  0.5542
 2253SOL    HW2 9139   1.573   2.880   6.171 -0.0112  0.8450  1.3907
 2254SOL     OW 9140   3.691   5.533   4.681 -0.6597 -0.4313 -0.1912
 2254SOL    HW1 9141   3.753   5.483   4.734  0.5652  1.3919  0.2089
 2254SOL    HW2 9142   3.607   5.523   4.726 -0.1659 -1.0255  0.6303
 2255SOL     OW 9143   2.973   5.146   1.214 -0.0489  0.2435  0.2067
 2255SOL    HW1 9144   2.973   5.240   1.232  3.3396  0.2802  0.6830
 2255SOL    HW2 9145   2.987   5.140   1.119 -3.9968  0.0505 -0.5618
 2256SOL     OW 9146   3.103   6.894   8.396 -0.0730  0.1529  0.1287
 2256SOL    HW1 9147   3.098   6.799   8.391 -0.3945  0.2218 -1.1547
 2256SOL    HW2 9148   3.105   6.923   8.305 -1.1055  1.4263  0.4787
 2257SOL     OW 9149   4.403   6.005   0.498 -0.4856  0.1821  0.1184
 2257SOL    HW1 9150   4.308   5.992   0.489 -1.3760  3.6765  2.3502
 2257SOL    HW2 9151   4.426   6.062   0.425 -0.0518 -0.5992 -0.3733
 2258SOL     OW 9152   1.374   2.508   0.147 -0.2919 -0.0520  0.5252
 2258SOL    HW1 9153   1.368   2.595   0.187 -0.4440 -0.7814  2.1215
 2258SOL    HW2 9154   1.312   2.512   0.073  1.2150  1.8353 -0.7441
 2259SOL     OW 9155   5.790   8.507   0.799  0.1342  0.2681  0.2685
 2259SOL    HW1 9156   5.720   8.530   0.738 -0.4466  1.5998  1.3799
 2259SOL    HW2 9157   5.867   8.554   0.765  0.2666 -0.4369 -0.4263
 2260SOL     OW 9158   6.065   7.552   5.694 -0.2226 -0.2536 -0.2842
 2260SOL    HW1 9159   5.980   7.563   5.653  0.2175 -0.1873 -1.2079
 2260SOL    HW2 9160   6.114   7.631   5.670  0.6567 -1.0476 -1.2013
 2261SOL     OW 9161   5.081   1.859   2.083 -0.1423 -0.5647  0.0428
 2261SOL    HW1 9162   5.162   1.909   2.090 -1.3026  1.5446 -0.5734
 2261SOL    HW2 9163   5.032   1.880   2.162 -0.1798 -1.6960  0.3389
 2262SOL     OW 9164   1.310   1.993   1.631 -0.8954  0.2483 -0.2827
 2262SOL    HW1 9165   1.271   1.919   1.677 -0.6563  1.7215  2.4904
 2262SOL    HW2 9166   1.236   2.034   1.586 -1.4605 -0.3366  0.0835
 2263SOL     OW 9167   4.501   7.057   2.874  0.1279  0.3001 -0.6475
 2263SOL    HW1 9168   4.480   6.999   2.802  0.5628  0.0800 -0.5990
 2263SOL    HW2 9169   4.490   7.145   2.838 -1.3647  0.2150 -0.4859
 2264SOL     OW 9170   6.002   0.666   2.438  0.0975  0.0851  0.6656
 2264SOL    HW1 9171   6.047   0.603   2.382 -1.7516 -0.0575 -0.7665
 2264SOL    HW2 9172   6.071   0.723   2.471  1.5308 -1.2772  0.1479
 2265SOL     OW 9173   2.932   9.129   9.382 -0.0526  0.1465  0.1789
 2265SOL    HW1 9174   3.017   9.164   9.409  0.3195 -0.8997  0.4151
 2265SOL    HW2 9175   2.937   9.126   9.286  1.0198 -1.8322  0.2302
 2266SOL     OW 9176   9.006   1.553   7.873  0.2514 -0.5684 -0.7030
 2266SOL    HW1 9177   8.911   1.558   7.858 -0.2172 -0.1379  1.8515
 2266SOL    HW2 9178   9.043   1.615   7.811 -1.4869  1.6807  0.3516
 2267SOL     OW 9179   9.161   2.446   5.043 -0.6391  0.3633 -0.0863
 2267SOL    HW1 9180   9.159   2.473   4.951  0.5007 -0.2554 -0.3072
 2267SOL    HW2 9181   9.253   2.432   5.063 -0.9364 -0.3248  0.9151
 2268SOL     OW 9182   7.124   7.917   3.662  0.5773  0.7583  0.4058
 2268SOL    HW1 9183   7.049   7.897   3.717  0.7766  2.1694  1.2542
 2268SOL    HW2 9184   7.121   7.853   3.592  0.1350 -0.9230  1.8980
 2269SOL     OW 9185   5.142   8.799  10.238  1.5190 -0.0324 -0.2414
 2269SOL    HW1 9186   5.146   8.705  10.258  1.0027  0.0869  0.4767
 2269SOL    HW2 9187   5.126   8.841  10.323 -0.8524  0.4935 -0.8592
 2270SOL     OW 9188   6.573   7.823   9.096  0.6637 -0.0733  0.1894
 2270SOL    HW1 9189   6.607   7.786   9.014 -0.2627  1.6424 -1.0440
 2270SOL    HW2 9190   6.517   7.754   9.132  2.2057 -1.4063  0.1826
 2271SOL     OW 9191   5.259  10.034  10.430 -0.1012 -0.0268  0.0730
 2271SOL    HW1 9192   5.302  10.119  10.441  0.9316 -0.1967 -2.2284
 2271SOL    HW2 9193   5.321   9.971  10.466  0.1479  0.0189 -0.2647
 2272SOL     OW 9194   7.900   0.564  10.293 -0.3620 -0.1625  0.3448
 2272SOL    HW1 9195   7.976   0.507  10.282 -0.0411  0.1305  0.9652
 2272SOL    HW2 9196   7.903   0.623  10.218  0.1671  0.0005  0.4882
 2273SOL     OW 9197   9.842   0.133  10.135  0.2918 -0.1792 -0.2476
 2273SOL    HW1 9198   9.842   0.228  10.144  0.8387 -0.3011  1.3417
 2273SOL    HW2 9199   9.770   0.115  10.075  0.0201  1.2236 -0.3765
 2274SOL     OW 9200   6.454   4.726   3.578  0.0621 -0.1598 -0.4315
 2274SOL    HW1 9201   6.389   4.755   3.515  0.6550  0.3706 -0.8060
 2274SOL    HW2 9202   6.488   4.807   3.617  0.7529 -0.4116 -0.4990
 2275SOL     OW 9203   2.187   1.414  10.629 -0.2369  0.0893  0.4026
 2275SOL    HW1 9204   2.119   1.407  10.562 -0.3336  2.0385  0.2396
 2275SOL    HW2 9205   2.139   1.418  10.712 -0.3352  1.1288  0.3112
 2276SOL     OW 9206   4.628   3.451   3.223 -0.2329 -0.7134  0.2569
 2276SOL    HW1 9207   4.579   3.530   3.201 -0.3124 -1.0934 -1.0028
 2276SOL    HW2 9208   4.563   3.393   3.263 -0.6342 -0.8679 -0.5872
 2277SOL     OW 9209   6.897   8.500   4.236 -0.2724  0.3300  0.1709
 2277SOL    HW1 9210   6.850   8.480   4.317  0.2541 -0.1674  0.3618
 2277SOL    HW2 9211   6.936   8.586   4.252 -0.7920  0.5722  0.1561
 2278SOL     OW 9212   1.711   7.361   4.585  0.1924  0.4310  0.3347
 2278SOL    HW1 9213   1.653   7.335   4.513  2.0224 -1.7671 -0.4641
 2278SOL    HW2 9214   1.769   7.427   4.547  1.2991 -0.8856 -0.3409
 2279SOL     OW 9215   6.991   2.266   7.631  0.1474 -0.0541  0.3816
 2279SOL    HW1 9216   6.963   2.175   7.635 -0.0744  0.0369  2.6692
 2279SOL    HW2 9217   7.086   2.261   7.617 -0.0093 -0.5816 -0.5642
 2280SOL     OW 9218   7.725  10.799   0.430  0.1128 -0.3633  0.0887
 2280SOL    HW1 9219   7.808  10.774   0.470  2.6348  1.4658 -3.4221
 2280SOL    HW2 9220   7.709  10.731   0.364  1.6082  1.6423 -2.5526
 2281SOL     OW 9221   2.665   0.997   7.684  0.5448 -0.5518  1.1046
 2281SOL    HW1 9222   2.587   0.940   7.681  0.5458 -0.5482 -1.3910
 2281SOL    HW2 9223   2.738   0.937   7.699  0.4552 -1.2014 -0.7087
 2282SOL     OW 9224   2.271   0.478   3.862  0.4637 -0.0322 -0.0498
 2282SOL    HW1 9225   2.319   0.554   3.831 -0.0522  0.1973 -0.2827
 2282SOL    HW2 9226   2.183   0.487   3.825 -0.0640  0.0693  1.1801
 2283SOL     OW 9227   5.963   1.131  10.423  0.4240 -0.2463 -0.0668
 2283SOL    HW1 9228   5.908   1.210  10.415 -0.7474 -0.8440  1.6181
 2283SOL    HW2 9229   6.002   1.137  10.510  0.4392 -1.4621  0.0239
 2284SOL     OW 9230   4.876   7.737  10.536 -0.4598 -0.1420  1.1364
 2284SOL    HW1 9231   4.868   7.768  10.626 -2.1516 -0.0231  0.9801
 2284SOL    HW2 9232   4.828   7.654  10.536 -2.3874  0.9154 -0.1231
 2285SOL     OW 9233   0.037   4.866   2.873 -0.0737  0.1641  0.3642
 2285SOL    HW1 9234   0.093   4.807   2.922 -1.2203 -0.5826  0.8162
 2285SOL    HW2 9235  -0.049   4.825   2.874 -1.0069  2.0027  0.9898
 2286SOL     OW 9236   3.232   8.410   4.248  0.2865 -0.8457 -0.0598
 2286SOL    HW1 9237   3.163   8.400   4.183  1.5702  3.4001 -2.4036
 2286SOL    HW2 9238   3.187   8.443   4.326 -0.5103  2.4487 -1.7421
 2287SOL     OW 9239   6.403  10.342   3.148 -0.2365  0.2309 -0.6013
 2287SOL    HW1 9240   6.351  10.315   3.223  2.6107 -0.1574  1.3928
 2287SOL    HW2 9241   6.424  10.434   3.165  1.9593 -0.3466  0.1578
 2288SOL     OW 9242   2.178   5.641   0.334  0.0336 -0.9348 -0.0837
 2288SOL    HW1 9243   2.246   5.588   0.376  0.4488  1.1112  1.9867
 2288SOL    HW2 9244   2.220   5.725   0.318 -1.4239 -0.3029 -0.7357
 2289SOL     OW 9245   1.086   4.335   2.402 -0.2025 -0.0773  0.3340
 2289SOL    HW1 9246   1.045   4.340   2.489  0.0784 -0.8330  0.5135
 2289SOL    HW2 9247   1.052   4.412   2.356 -1.2482 -0.2830  0.7296
 2290SOL     OW 9248   4.324  10.253   4.039  0.6421 -0.3056  0.3035
 2290SOL    HW1 9249   4.252  10.213   3.989 -0.3046  0.0326  1.3631
 2290SOL    HW2 9250   4.281  10.316   4.097  1.8952  0.5739  0.3102
 2291SOL     OW 9251   4.516   0.260   4.557 -0.1264 -0.0893  0.0832
 2291SOL    HW1 9252   4.587   0.198   4.543  0.1516 -0.0028  1.0563
 2291SOL    HW2 9253   4.466   0.224   4.629  0.3541  1.0792  1.0350
 2292SOL     OW 9254   9.811   9.559  10.249 -0.3497  0.7289  0.4854
 2292SOL    HW1 9255   9.846   9.473  10.270 -1.1329  0.5515  1.1424
 2292SOL    HW2 9256   9.766   9.548  10.165  0.2164  0.7006  0.1792
 2293SOL     OW 9257   0.578   2.416   0.323 -0.2570 -0.0893 -0.4570
 2293SOL    HW1 9258   0.635   2.452   0.391 -0.0565  1.0390 -1.1956
 2293SOL    HW2 9259   0.510   2.482   0.311 -1.7467 -1.4041  0.3924
 2294SOL     OW 9260   1.088   2.644   1.144  0.3509  0.1073 -0.2214
 2294SOL    HW1 9261   1.144   2.601   1.079  1.8189 -1.1597  1.7352
 2294SOL    HW2 9262   1.145   2.710   1.184  0.0914 -0.3861  1.0014
 2295SOL     OW 9263   3.933   8.548   0.714 -0.1716 -0.1072  0.1932
 2295SOL    HW1 9264   4.011   8.591   0.750 -0.6443  0.1060  0.9810
 2295SOL    HW2 9265   3.950   8.543   0.619  0.9265 -0.3361  0.3826
 2296SOL     OW 9266  10.325   2.370   2.736  0.0707 -0.5403 -0.5697
 2296SOL    HW1 9267  10.352   2.458   2.709 -2.0172  0.8603  1.5478
 2296SOL    HW2 9268  10.352   2.363   2.828 -1.5705 -1.2862 -0.0963
 2297SOL     OW 9269   1.897   6.432   9.434  0.1057 -0.2788  0.2829
 2297SOL    HW1 9270   1.819   6.478   9.464  1.4148  3.1718 -1.0081
 2297SOL    HW2 9271   1.941   6.403   9.514 -0.7918  0.8319  1.2113
 2298SOL     OW 9272   1.826   7.107   6.762 -0.1105 -0.4961  0.0973
 2298SOL    HW1 9273   1.849   7.063   6.844 -1.8074 -2.1523 -0.2552
 2298SOL    HW2 9274   1.731   7.119   6.767 -0.0604  0.5154 -1.1024
 2299SOL     OW 9275   0.437   2.155   1.783 -0.0768  0.5054 -0.0597
 2299SOL    HW1 9276   0.452   2.146   1.877  0.9214 -2.3924 -0.3729
 2299SOL    HW2 9277   0.524   2.171   1.747 -0.1916 -0.0175 -0.5866
 2300SOL     OW 9278   0.638   2.401   5.816 -0.2710  0.4351 -0.8824
 2300SOL    HW1 9279   0.614   2.446   5.735 -2.6314  0.3634 -0.3130
 2300SOL    HW2 9280   0.562   2.415   5.874  0.1342 -1.8750  0.3130
 2301SOL     OW 9281   3.982   4.644   4.888  0.0097  0.1133  0.4874
 2301SOL    HW1 9282   4.029   4.727   4.879 -0.5407  0.4928  0.9983
 2301SOL    HW2 9283   4.038   4.579   4.845 -0.0350  0.9265 -0.8740
 2302SOL     OW 9284   9.296  10.050   5.065 -0.4191 -0.0991 -0.1975
 2302SOL    HW1 9285   9.295   9.990   4.990  2.8303  0.6244 -0.9796
 2302SOL    HW2 9286   9.283  10.137   5.026 -3.0026  0.0070  0.6900
 2303SOL     OW 9287   1.622   2.656   3.277 -0.0356 -0.0947 -0.9533
 2303SOL    HW1 9288   1.589   2.580   3.229  0.2103 -1.1187  0.4078
 2303SOL    HW2 9289   1.676   2.618   3.347  2.0413  1.4289 -1.6451
 2304SOL     OW 9290   2.221   9.317   3.803 -0.3653 -0.3327 -0.2205
 2304SOL    HW1 9291   2.135   9.338   3.766 -0.6363  0.1118  0.6355
 2304SOL    HW2 9292   2.211   9.230   3.842 -0.5234 -0.1550  0.1438
 2305SOL     OW 9293   6.373   2.360   9.721 -0.1217 -0.1842  0.4851
 2305SOL    HW1 9294   6.454   2.365   9.671 -0.4491  0.5114  0.0066
 2305SOL    HW2 9295   6.381   2.428   9.787 -0.3381 -0.0775  0.4027
 2306SOL     OW 9296   7.950   0.595   8.607  0.1230 -0.4935 -1.1624
 2306SOL    HW1 9297   7.897   0.656   8.658  1.5185 -0.3652  0.2179
 2306SOL    HW2 9298   7.906   0.511   8.616 -0.2113 -0.2631 -0.5898
 2307SOL     OW 9299   4.362   1.906   1.331 -0.2523 -0.3304  0.7633
 2307SOL    HW1 9300   4.421   1.849   1.381  0.7336 -0.0558 -0.0383
 2307SOL    HW2 9301   4.419   1.947   1.265 -1.0491  1.0969  0.9118
 2308SOL     OW 9302   2.015   8.106   4.877 -0.2832  0.2767  0.5118
 2308SOL    HW1 9303   2.073   8.181   4.864  0.6126 -0.7398 -1.8134
 2308SOL    HW2 9304   2.073   8.037   4.909 -0.9418  0.2533  1.7397
 2309SOL     OW 9305   9.644   3.193   6.838 -0.0042  1.1042 -0.1624
 2309SOL    HW1 9306   9.618   3.260   6.900 -0.0393  1.3978 -0.4945
 2309SOL    HW2 9307   9.570   3.133   6.835  0.1066  0.9379  0.2818
 2310SOL     OW 9308   6.703   6.323   8.823  0.4453  0.2328  0.4142
 2310SOL    HW1 9309   6.779   6.352   8.874  0.2973  1.8574 -0.2271
 2310SOL    HW2 9310   6.632   6.317   8.886  1.1666 -1.6479  1.0851
 2311SOL     OW 9311   0.947   4.792   0.863 -0.1742  0.7219  0.6568
 2311SOL    HW1 9312   0.949   4.730   0.790 -0.7743  1.0417  0.3632
 2311SOL    HW2 9313   0.904   4.870   0.827  0.8312  1.4342  0.9205
 2312SOL     OW 9314   3.335  10.557   9.677 -0.1554 -1.1033 -0.5941
 2312SOL    HW1 9315   3.257  10.600   9.643  0.7225 -0.1143 -1.4377
 2312SOL    HW2 9316   3.313  10.535   9.768 -1.0448  0.0753 -0.5067
 2313SOL     OW 9317   7.700  10.627   1.825  0.5397  0.0019  0.4707
 2313SOL    HW1 9318   7.713  10.721   1.839 -1.4470  0.1968  1.4058
 2313SOL    HW2 9319   7.618  10.622   1.774  1.5078 -1.1946 -1.0737
 2314SOL     OW 9320   5.442   9.753  10.185  0.0370  0.1791  0.5580
 2314SOL    HW1 9321   5.417   9.777  10.274  2.2765  0.4116  1.2002
 2314SOL    HW2 9322   5.438   9.834  10.135 -1.2270  0.0476  0.4283
 2315SOL     OW 9323  10.536   0.817   5.633  0.4841 -0.0313 -0.2491
 2315SOL    HW1 9324  10.502   0.870   5.705  0.8632 -0.9787  0.6574
 2315SOL    HW2 9325  10.626   0.796   5.659 -0.2809 -2.8825  0.5316
 2316SOL     OW 9326   0.023   7.658   0.644 -0.4538  0.3803  0.0369
 2316SOL    HW1 9327   0.023   7.577   0.696  2.2176 -0.3915 -0.9920
 2316SOL    HW2 9328  -0.066   7.664   0.609 -0.9317 -1.7005  0.7488
 2317SOL     OW 9329  10.507   6.916   9.433 -0.3193  0.0532  0.1440
 2317SOL    HW1 9330  10.560   6.925   9.355 -0.0951 -0.2143  0.2664
 2317SOL    HW2 9331  10.523   6.827   9.464  0.5931  0.5618  1.2129
 2318SOL     OW 9332   8.053   3.536   6.845 -0.1325 -0.0975 -0.0242
 2318SOL    HW1 9333   8.029   3.606   6.905 -0.4390  0.2858 -0.5840
 2318SOL    HW2 9334   8.008   3.557   6.763 -0.5009 -1.1182 -0.1081
 2319SOL     OW 9335   0.279   8.398   9.017 -0.3733  0.1529  1.2405
 2319SOL    HW1 9336   0.345   8.438   8.960 -0.3921 -3.0987 -1.3872
 2319SOL    HW2 9337   0.213   8.466   9.030 -0.0012  1.3316 -2.1489
 2320SOL     OW 9338   7.413   5.397   0.187  0.3085  0.2217 -0.7054
 2320SOL    HW1 9339   7.344   5.407   0.121 -0.0863  0.4676 -0.2649
 2320SOL    HW2 9340   7.418   5.303   0.203 -1.7980  0.3304  1.1701
 2321SOL     OW 9341   3.393   1.385   7.237 -0.1854  0.3327 -0.7580
 2321SOL    HW1 9342   3.411   1.427   7.153 -0.2217  0.3313 -0.7667
 2321SOL    HW2 9343   3.314   1.333   7.220  0.8004 -1.0826 -1.2090
 2322SOL     OW 9344   6.148   5.556   3.723 -0.8225 -0.0285 -0.4859
 2322SOL    HW1 9345   6.127   5.506   3.644 -0.0789 -1.5957  0.2650
 2322SOL    HW2 9346   6.210   5.622   3.694 -1.2339 -0.0167 -1.3645
 2323SOL     OW 9347   3.553   6.459  10.488  0.0583  0.0068  0.0080
 2323SOL    HW1 9348   3.465   6.493  10.504 -0.1674 -0.4726 -0.1920
 2323SOL    HW2 9349   3.550   6.426  10.399  1.2112  2.3764 -1.0155
 2324SOL     OW 9350   7.763   0.314   9.751  0.3078  0.2132 -0.4041
 2324SOL    HW1 9351   7.835   0.321   9.688  0.2197  1.8731 -0.3529
 2324SOL    HW2 9352   7.777   0.386   9.812 -2.4177  1.7900 -1.4860
 2325SOL     OW 9353   8.822   2.683   5.806  0.5500  0.1828  0.8887
 2325SOL    HW1 9354   8.791   2.652   5.891 -1.3732  2.6552  1.1967
 2325SOL    HW2 9355   8.875   2.760   5.825  0.5211  0.4739 -0.1092
 2326SOL     OW 9356   1.519   4.849   6.889  0.0913  0.2276 -0.1906
 2326SOL    HW1 9357   1.602   4.801   6.889  0.0612  0.1311  1.0070
 2326SOL    HW2 9358   1.478   4.828   6.806 -0.3427 -2.5933  0.6495
 2327SOL     OW 9359   6.340   5.677   2.062  0.0034 -0.5979 -0.3401
 2327SOL    HW1 9360   6.325   5.593   2.018  0.9879 -0.3465 -1.1789
 2327SOL    HW2 9361   6.348   5.740   1.991  1.4262 -0.1525  0.1930
 2328SOL     OW 9362  10.418   3.720   7.157  0.3448 -0.1778 -0.3447
 2328SOL    HW1 9363  10.389   3.735   7.067 -0.3654  1.0481  0.0648
 2328SOL    HW2 9364  10.421   3.807   7.196 -0.0898 -0.7536  1.0456
 2329SOL     OW 9365   2.336   8.728   5.052 -0.5663  0.3872  0.4496
 2329SOL    HW1 9366   2.394   8.677   5.108 -0.8594  0.1578  0.5442
 2329SOL    HW2 9367   2.254   8.680   5.052  0.0340 -0.7708 -1.8541
 2330SOL     OW 9368   5.030   4.355   4.508  0.0493  0.3107 -0.9511
 2330SOL    HW1 9369   5.060   4.363   4.599  1.1281  1.6908 -1.3808
 2330SOL    HW2 9370   4.968   4.282   4.509  0.4611 -0.0623  0.7781
 2331SOL     OW 9371   6.256   2.181   7.831 -0.2462 -0.0967 -0.0470
 2331SOL    HW1 9372   6.318   2.122   7.787 -0.5263 -0.0897 -0.4536
 2331SOL    HW2 9373   6.179   2.181   7.775 -0.0866  1.0028 -0.2802
 2332SOL     OW 9374   5.784   5.184   0.156 -0.3030  0.3191 -0.1211
 2332SOL    HW1 9375   5.759   5.277   0.158  0.3208  0.5130 -0.9507
 2332SOL    HW2 9376   5.834   5.174   0.075 -0.0290 -0.6616  0.1554
 2333SOL     OW 9377   8.600   0.310   0.292  0.0120  0.5821  0.0221
 2333SOL    HW1 9378   8.522   0.365   0.288 -0.4161 -0.1002 -1.6391
 2333SOL    HW2 9379   8.673   0.369   0.274 -0.4015  0.7125 -1.2908
 2334SOL     OW 9380   0.372   5.896   3.933 -0.4499  0.6701  0.3161
 2334SOL    HW1 9381   0.402   5.935   3.850 -1.2169  0.9131  0.1460
 2334SOL    HW2 9382   0.341   5.970   3.984 -1.7034  0.3280  0.0847
 2335SOL     OW 9383   3.201   8.713   5.843 -0.2816 -0.1326  0.8075
 2335SOL    HW1 9384   3.206   8.753   5.756  0.7424 -0.6346  0.6277
 2335SOL    HW2 9385   3.108   8.693   5.855 -0.2867 -1.1724 -0.6922
 2336SOL     OW 9386   7.597   7.147   1.901  0.1451  0.2278 -0.6544
 2336SOL    HW1 9387   7.552   7.141   1.985  0.7325 -0.4177 -0.3812
 2336SOL    HW2 9388   7.567   7.230   1.864  0.6609  1.0227  0.6419
 2337SOL     OW 9389   8.263   2.582   3.659  0.6893  0.1995 -0.0490
 2337SOL    HW1 9390   8.309   2.608   3.739 -0.2500 -0.2359  0.6430
 2337SOL    HW2 9391   8.290   2.491   3.645 -0.3317 -0.2266  0.6475
 2338SOL     OW 9392   7.762   5.289   1.345  0.5620  0.0779 -0.5846
 2338SOL    HW1 9393   7.715   5.301   1.427 -0.8354 -2.4116 -0.9186
 2338SOL    HW2 9394   7.848   5.254   1.370 -0.1262 -1.3829 -0.1410
 2339SOL     OW 9395   1.039   6.718   9.424  0.1938  0.7433 -0.0156
 2339SOL    HW1 9396   0.964   6.725   9.483 -0.5421 -1.6274 -0.5401
 2339SOL    HW2 9397   1.090   6.797   9.440 -2.2548  2.3183  0.5636
 2340SOL     OW 9398   7.337   7.301   3.250  0.4844 -0.0770  0.6215
 2340SOL    HW1 9399   7.328   7.394   3.231  1.3555  0.0222  0.6937
 2340SOL    HW2 9400   7.315   7.293   3.343 -2.3841 -0.3660  0.0218
 2341SOL     OW 9401   2.725   6.947   5.541  0.1080  0.2013 -0.0610
 2341SOL    HW1 9402   2.769   7.002   5.607 -1.2352 -0.0286  1.0742
 2341SOL    HW2 9403   2.718   6.861   5.583 -2.0401  0.4158  0.0858
 2342SOL     OW 9404   5.173   0.796   1.769 -0.1455 -0.0735 -0.7191
 2342SOL    HW1 9405   5.107   0.858   1.737 -1.0716 -1.2117 -1.1028
 2342SOL    HW2 9406   5.229   0.778   1.693  0.6481  0.9116 -0.3868
 2343SOL     OW 9407   2.428  10.653   8.393 -0.9351 -0.3584 -0.3478
 2343SOL    HW1 9408   2.479  10.572   8.402 -1.9406 -0.9609  0.1163
 2343SOL    HW2 9409   2.494  10.722   8.387 -0.0593 -1.1706 -0.3661
 2344SOL     OW 9410   3.712   9.071   0.290  0.1549  0.5114 -0.1290
 2344SOL    HW1 9411   3.675   8.985   0.270 -0.9920 -0.0476  3.5290
 2344SOL    HW2 9412   3.657   9.105   0.360  2.5018  2.8008  0.7983
 2345SOL     OW 9413   4.700   8.539   2.486  0.1176  0.1263 -0.2942
 2345SOL    HW1 9414   4.748   8.556   2.567  1.5042  1.6150 -1.3615
 2345SOL    HW2 9415   4.688   8.444   2.485  0.1018  0.0628  1.5996
 2346SOL     OW 9416   6.102   3.933   4.706 -0.2044 -0.0822  0.4081
 2346SOL    HW1 9417   6.030   3.985   4.739 -1.6904 -1.3689 -0.6574
 2346SOL    HW2 9418   6.167   3.997   4.677 -0.6881  1.0881  1.8143
 2347SOL     OW 9419   9.777   9.333   6.458  0.6990 -0.4354  0.0933
 2347SOL    HW1 9420   9.805   9.371   6.374  0.3612  0.2199  0.2663
 2347SOL    HW2 9421   9.788   9.239   6.447  0.8642 -0.3384 -0.6144
 2348SOL     OW 9422   3.011   8.980   3.695 -0.0339  0.7609 -0.4320
 2348SOL    HW1 9423   2.954   8.938   3.759 -0.0153  2.4961  0.7820
 2348SOL    HW2 9424   3.020   9.070   3.726  2.3432  0.8814 -1.3067
 2349SOL     OW 9425   6.392  10.455   9.599  0.8454  0.0970  0.2819
 2349SOL    HW1 9426   6.436  10.439   9.683  0.8267 -0.7361  0.1413
 2349SOL    HW2 9427   6.355  10.370   9.574  0.9337  0.3039 -0.6164
 2350SOL     OW 9428   7.337  10.467   9.975  0.5520  0.0423  0.1241
 2350SOL    HW1 9429   7.247  10.492   9.994  1.3157  3.0770  0.1833
 2350SOL    HW2 9430   7.363  10.525   9.903  1.5534 -2.8914 -2.0884
 2351SOL     OW 9431   5.074   6.561   6.327  0.6862 -0.2196  0.1383
 2351SOL    HW1 9432   5.099   6.646   6.362  0.1946 -0.3862  0.9188
 2351SOL    HW2 9433   5.041   6.580   6.239 -1.9871  0.8227  1.2480
 2352SOL     OW 9434   3.652   9.088   8.689 -0.0164 -0.0943 -0.0684
 2352SOL    HW1 9435   3.630   9.048   8.605 -0.1114  0.5149 -0.3382
 2352SOL    HW2 9436   3.641   9.182   8.675 -1.2014 -0.0544  0.9671
 2353SOL     OW 9437   2.395  10.688   2.976  0.4449 -0.1255  0.3373
 2353SOL    HW1 9438   2.332  10.618   2.960  1.3564 -0.9446  0.2338
 2353SOL    HW2 9439   2.344  10.768   2.970 -0.3448 -0.6950 -1.1059
 2354SOL     OW 9440   8.584   8.817   7.249  0.3050  0.1899  0.5643
 2354SOL    HW1 9441   8.598   8.867   7.169  2.7485  0.4073  1.0263
 2354SOL    HW2 9442   8.559   8.729   7.218  1.3996  0.2119 -0.4735
 2355SOL     OW 9443   9.445   7.371   5.336  0.3662 -0.4702 -0.4402
 2355SOL    HW1 9444   9.437   7.367   5.431  2.2685  0.2743 -0.2048
 2355SOL    HW2 9445   9.451   7.465   5.316  0.5227 -0.6398 -1.2347
 2356SOL     OW 9446   8.450   5.078   3.803 -0.1780  0.1730  0.4242
 2356SOL    HW1 9447   8.472   5.170   3.816  1.0649  0.0797 -0.7383
 2356SOL    HW2 9448   8.363   5.079   3.764 -0.3264  0.8229  0.7568
 2357SOL     OW 9449  10.778   9.316  10.267  0.1332  0.5678  0.2441
 2357SOL    HW1 9450  10.744   9.405  10.251 -0.2718  0.4155  0.2405
 2357SOL    HW2 9451  10.767   9.304  10.361  1.4815  1.0431  0.4846
 2358SOL     OW 9452   6.730   5.900   6.414 -0.0741  0.1386 -0.2147
 2358SOL    HW1 9453   6.644   5.867   6.391 -0.6731  2.2090 -1.1744
 2358SOL    HW2 9454   6.774   5.916   6.330  1.2135 -0.7633  0.2517
 2359SOL     OW 9455   7.492  10.257   9.929  0.1688 -0.0253 -0.7834
 2359SOL    HW1 9456   7.436  10.324   9.967  1.0967  0.6233 -0.5401
 2359SOL    HW2 9457   7.518  10.201  10.002 -0.5372 -0.6227 -0.9722
 2360SOL     OW 9458  10.773   6.233   4.431 -0.2219  0.1482 -0.2606
 2360SOL    HW1 9459  10.698   6.174   4.422 -0.3771  0.6525 -3.0385
 2360SOL    HW2 9460  10.850   6.177   4.420 -0.2631  0.0279  0.0499
 2361SOL     OW 9461   3.615   9.527   2.122 -0.6165 -0.6918  0.4267
 2361SOL    HW1 9462   3.686   9.521   2.186 -0.9017 -1.8903  0.6437
 2361SOL    HW2 9463   3.535   9.517   2.174 -1.0391  1.4075  0.3054
 2362SOL     OW 9464   1.385   3.758   7.194  0.2025 -0.1264  0.2702
 2362SOL    HW1 9465   1.306   3.758   7.141 -0.2578 -2.1307  0.8526
 2362SOL    HW2 9466   1.455   3.732   7.134  0.1815  0.2966  0.0597
 2363SOL     OW 9467   7.286   2.782   9.092  0.0369 -0.1412  0.5517
 2363SOL    HW1 9468   7.350   2.809   9.158 -0.1180 -0.2960  0.7643
 2363SOL    HW2 9469   7.269   2.690   9.111 -0.8648  0.1061  1.0121
 2364SOL     OW 9470   6.492   1.435   1.199  0.4046  0.7129 -0.1432
 2364SOL    HW1 9471   6.484   1.419   1.105  3.1673  0.3733 -0.4021
 2364SOL    HW2 9472   6.423   1.381   1.238  1.0079 -1.4508 -1.8478
 2365SOL     OW 9473   5.617   1.511   3.172  0.1234  0.2559  0.1995
 2365SOL    HW1 9474   5.645   1.534   3.260 -3.0802 -1.7432  1.9490
 2365SOL    HW2 9475   5.559   1.582   3.145 -1.6085 -0.6717  1.2663
 2366SOL     OW 9476   0.002   0.119   2.888 -0.4653  0.0718 -0.7156
 2366SOL    HW1 9477  -0.077   0.079   2.851  0.3885 -1.5732 -0.8625
 2366SOL    HW2 9478   0.019   0.069   2.968 -0.1453  1.0991 -0.1168
 2367SOL     OW 9479   2.500   4.070   3.015 -0.2829 -1.2425  1.0436
 2367SOL    HW1 9480   2.448   4.002   2.974 -2.2769  0.4560  0.5892
 2367SOL    HW2 9481   2.438   4.140   3.033  1.8578  0.9812  0.3497
 2368SOL     OW 9482   0.048   9.405   6.006  0.1949  0.8405 -0.3032
 2368SOL    HW1 9483   0.087   9.417   5.919  1.1490 -0.4010 -0.0650
 2368SOL    HW2 9484   0.059   9.312   6.025  0.9048  1.2690  1.5780
 2369SOL     OW 9485   6.525   0.101   1.322 -0.3216 -0.3532  0.2783
 2369SOL    HW1 9486   6.507   0.055   1.241 -3.3028 -0.2910  0.8171
 2369SOL    HW2 9487   6.504   0.193   1.304  2.4172  0.3680  0.1804
 2370SOL     OW 9488   2.444   7.983   2.822  0.1485 -0.2069 -0.3237
 2370SOL    HW1 9489   2.441   8.062   2.876  0.7779 -1.0366  0.9831
 2370SOL    HW2 9490   2.355   7.947   2.828 -0.4336  0.9078 -1.7661
 2371SOL     OW 9491   6.991   9.085   7.027  0.1417  0.4425 -0.1617
 2371SOL    HW1 9492   6.994   9.162   7.083  0.5551  0.3495 -0.0562
 2371SOL    HW2 9493   7.079   9.077   6.992 -0.1081  0.4812 -0.8069
 2372SOL     OW 9494   0.882   9.593   8.655  0.3618  0.3246 -0.2445
 2372SOL    HW1 9495   0.876   9.514   8.601  2.9897  0.0427 -0.2460
 2372SOL    HW2 9496   0.794   9.604   8.691 -0.7675 -1.0546 -2.3524
 2373SOL     OW 9497   0.455   6.115   6.066 -0.4325 -0.0998  0.3875
 2373SOL    HW1 9498   0.389   6.134   6.133  1.3145  0.0021  2.1865
 2373SOL    HW2 9499   0.467   6.020   6.071 -0.3826 -0.1059  0.1409
 2374SOL     OW 9500   7.735   7.380   7.975  0.7770  0.3630 -0.9237
 2374SOL    HW1 9501   7.804   7.440   7.945 -0.0369  0.5969 -2.4243
 2374SOL    HW2 9502   7.673   7.437   8.022  1.7997  0.0756  0.8648
 2375SOL     OW 9503   8.523   5.516  10.652  0.0061 -0.1455  0.1802
 2375SOL    HW1 9504   8.583   5.445  10.630  0.6425 -0.0140  1.4236
 2375SOL    HW2 9505   8.456   5.513  10.584  2.0620  0.5089 -1.9970
 2376SOL     OW 9506   8.385   7.816  10.521 -0.1880  0.7144 -0.5862
 2376SOL    HW1 9507   8.428   7.873  10.458  3.9078 -0.1000  1.1455
 2376SOL    HW2 9508   8.393   7.862  10.604 -0.5665 -0.5640  0.1918
 2377SOL     OW 9509   2.712   8.298  10.241  0.2046 -0.5125  0.4965
 2377SOL    HW1 9510   2.734   8.389  10.259  0.6643 -1.1551  3.9174
 2377SOL    HW2 9511   2.765   8.248  10.303 -0.4471 -3.1006 -0.8985
 2378SOL     OW 9512   4.692   4.902   3.401 -0.2523 -0.2118  0.5787
 2378SOL    HW1 9513   4.784   4.927   3.390 -0.4802  0.4758  0.1534
 2378SOL    HW2 9514   4.695   4.815   3.440  0.5814 -0.1964  0.5636
 2379SOL     OW 9515   8.677   6.035   7.003 -0.4217  0.2176  0.2345
 2379SOL    HW1 9516   8.628   5.964   6.962  0.0963  0.2883 -0.5479
 2379SOL    HW2 9517   8.737   5.991   7.063 -1.5563  0.1463  1.3409
 2380SOL     OW 9518  10.760   7.857   9.564 -0.4223  0.4245  0.7427
 2380SOL    HW1 9519  10.762   7.762   9.574 -2.0843  0.4163  1.4232
 2380SOL    HW2 9520  10.731   7.889   9.650 -1.6276  1.3996  0.0114
 2381SOL     OW 9521   6.948   8.103   9.553  0.1626  0.0366 -0.2356
 2381SOL    HW1 9522   6.959   8.109   9.648 -1.3920  1.8826 -0.1161
 2381SOL    HW2 9523   6.958   8.009   9.534  1.1326 -0.2836  1.6374
 2382SOL     OW 9524   7.389   6.591   3.873  0.2657  0.5391  0.2438
 2382SOL    HW1 9525   7.475   6.549   3.879 -0.1425 -0.4495 -0.4276
 2382SOL    HW2 9526   7.339   6.553   3.945  0.2422  0.7264  0.3246
 2383SOL     OW 9527   9.179   8.532   4.673 -0.1530 -0.3652 -0.5306
 2383SOL    HW1 9528   9.125   8.610   4.689 -0.7028 -0.4327 -1.9015
 2383SOL    HW2 9529   9.115   8.462   4.660  0.3072 -0.7687 -0.6265
 2384SOL     OW 9530   6.108   0.150   1.112  0.0320 -0.1938  0.2853
 2384SOL    HW1 9531   6.093   0.183   1.200 -0.8173  0.3303 -0.0498
 2384SOL    HW2 9532   6.044   0.195   1.058  1.2359  0.2881 -0.7906
 2385SOL     OW 9533   1.099   5.801  10.131 -0.4968  0.2038 -0.5188
 2385SOL    HW1 9534   1.175   5.851  10.103 -1.6467  2.1848 -0.2711
 2385SOL    HW2 9535   1.111   5.715  10.091  1.6805  0.5688 -0.7601
 2386SOL     OW 9536   3.238   5.443   0.307  0.5173 -0.1806  0.2492
 2386SOL    HW1 9537   3.280   5.366   0.270 -0.0404  0.2514 -1.3352
 2386SOL    HW2 9538   3.176   5.408   0.371  0.3956 -1.0375 -0.3255
 2387SOL     OW 9539   3.552   6.638   9.760 -0.2469 -0.1138  0.5383
 2387SOL    HW1 9540   3.497   6.689   9.819 -0.4256  1.4335 -0.8847
 2387SOL    HW2 9541   3.638   6.681   9.764 -0.3182  0.1548 -0.4576
 2388SOL     OW 9542   2.200   4.753   1.949  0.3705  0.5730 -0.4397
 2388SOL    HW1 9543   2.151   4.759   1.867 -1.3280 -2.4468  0.1946
 2388SOL    HW2 9544   2.141   4.707   2.009  2.6302  0.0789  1.5747
 2389SOL     OW 9545   1.525   4.279   6.735 -0.1366  0.3624  0.1364
 2389SOL    HW1 9546   1.493   4.281   6.644 -0.1541 -1.4887  0.0457
 2389SOL    HW2 9547   1.482   4.203   6.773  1.8265 -0.4383  0.9110
 2390SOL     OW 9548   0.968   9.452   1.390  0.1122 -0.1894 -0.2939
 2390SOL    HW1 9549   0.901   9.484   1.329 -0.0273  1.6554  0.7485
 2390SOL    HW2 9550   1.019   9.390   1.339 -1.6993 -0.8071 -1.4462
 2391SOL     OW 9551   3.665   6.038   8.601 -0.1375  0.0001 -0.5677
 2391SOL    HW1 9552   3.669   6.001   8.690  0.9428 -0.5345 -0.8173
 2391SOL    HW2 9553   3.630   5.967   8.548  0.5087 -0.1636 -0.7895
 2392SOL     OW 9554   4.618   9.455   0.672  0.1054  0.3052 -0.1961
 2392SOL    HW1 9555   4.630   9.426   0.581  0.2682 -1.2111  0.2888
 2392SOL    HW2 9556   4.631   9.377   0.724  0.7589  1.3155  1.2163
 2393SOL     OW 9557   9.258   3.939   6.448  0.5855  0.2506  1.0428
 2393SOL    HW1 9558   9.191   3.877   6.420  1.4120  0.1269 -0.8151
 2393SOL    HW2 9559   9.232   3.964   6.537 -1.8594  0.1378  0.4482
 2394SOL     OW 9560   7.144   1.440   8.677  0.0627 -0.2442 -0.1258
 2394SOL    HW1 9561   7.144   1.400   8.764  1.9576  0.1221  0.0850
 2394SOL    HW2 9562   7.054   1.429   8.646 -0.0936 -2.4255  0.9321
 2395SOL     OW 9563   4.094   3.146   6.799 -0.0214  0.2817 -0.6165
 2395SOL    HW1 9564   4.062   3.064   6.762 -1.3086 -0.1545  1.2732
 2395SOL    HW2 9565   4.018   3.182   6.846  1.2245  1.2093  0.7894
 2396SOL     OW 9566   2.010   6.683   7.008  0.2362 -0.4414  0.1158
 2396SOL    HW1 9567   2.036   6.608   7.061 -1.3313  0.5145  2.3957
 2396SOL    HW2 9568   1.963   6.645   6.934  0.3556 -1.7245  0.6790
 2397SOL     OW 9569   4.405  10.053   8.701  0.0858  0.0821  0.6315
 2397SOL    HW1 9570   4.425   9.962   8.722  0.6526  0.1857  0.5501
 2397SOL    HW2 9571   4.471  10.078   8.637 -0.1395  0.5167  0.5657
 2398SOL     OW 9572   6.845   6.023   8.580  0.1203 -0.1529  0.4113
 2398SOL    HW1 9573   6.875   6.037   8.670 -2.6749  0.3088  1.3965
 2398SOL    HW2 9574   6.845   5.927   8.570  2.6141 -0.1656  0.0070
 2399SOL     OW 9575   8.597   8.449   9.473  0.1474  1.1249  0.2077
 2399SOL    HW1 9576   8.595   8.354   9.477  0.4654  1.0064 -1.6964
 2399SOL    HW2 9577   8.660   8.474   9.541 -2.9237  0.3160  3.6650
 2400SOL     OW 9578   5.802   6.807   9.214 -0.3678  0.1393 -0.1698
 2400SOL    HW1 9579   5.796   6.879   9.152 -0.5628  0.1601 -0.1298
 2400SOL    HW2 9580   5.711   6.782   9.230 -0.2458 -1.3377 -1.5834
 2401SOL     OW 9581   6.790   7.154   7.755 -0.1964 -0.4951  0.0210
 2401SOL    HW1 9582   6.710   7.177   7.708 -0.0136  0.6115  0.2270
 2401SOL    HW2 9583   6.807   7.063   7.730 -1.2316 -0.5810 -0.4248
 2402SOL     OW 9584   2.768   2.053   4.479 -0.2521 -0.1465 -0.0602
 2402SOL    HW1 9585   2.679   2.065   4.511  0.2845  1.6710  0.8921
 2402SOL    HW2 9586   2.817   2.020   4.554  0.7031  2.7683  0.7280
 2403SOL     OW 9587   8.260   2.939   7.892  0.4943 -0.2544  0.1881
 2403SOL    HW1 9588   8.193   2.998   7.927  1.5798  0.3998  1.2504
 2403SOL    HW2 9589   8.270   2.966   7.801  1.1355  1.4234  0.7122
 2404SOL     OW 9590   6.113   2.295   9.287 -0.3915 -0.5823 -0.0569
 2404SOL    HW1 9591   6.054   2.221   9.270 -0.3586 -0.5127 -0.4858
 2404SOL    HW2 9592   6.141   2.283   9.378 -0.8352 -0.7805  0.0560
 2405SOL     OW 9593   9.699   5.119   6.882  0.1617  0.2267  0.1659
 2405SOL    HW1 9594   9.652   5.084   6.806 -0.5290  2.0968 -0.3348
 2405SOL    HW2 9595   9.744   5.044   6.920 -1.7696 -1.2931 -0.4181
 2406SOL     OW 9596   8.138   2.050   0.652 -0.3107 -0.1356  0.5636
 2406SOL    HW1 9597   8.173   2.081   0.569  0.2497 -0.5799  0.6327
 2406SOL    HW2 9598   8.205   1.992   0.687  0.0404  1.0671  1.9685
 2407SOL     OW 9599   1.236   2.307   2.884 -0.1793 -0.3799  0.0233
 2407SOL    HW1 9600   1.238   2.212   2.877  1.3007 -0.3263 -0.6820
 2407SOL    HW2 9601   1.328   2.333   2.880 -0.5847  1.1145 -0.2020
 2408SOL     OW 9602   9.734   0.254   9.814  0.1673 -0.5026  0.3397
 2408SOL    HW1 9603   9.689   0.291   9.738 -1.3060  1.7444  2.1727
 2408SOL    HW2 9604   9.664   0.228   9.873  1.2745 -1.3131  1.3376
 2409SOL     OW 9605  10.214   2.662  10.025  0.2262  0.7144 -0.6826
 2409SOL    HW1 9606  10.189   2.677   9.934  1.4127  1.2425 -0.9425
 2409SOL    HW2 9607  10.304   2.631  10.020 -1.5823 -6.2463 -0.1951
 2410SOL     OW 9608   4.790   3.677   4.356  0.4363  0.1365 -0.3714
 2410SOL    HW1 9609   4.747   3.695   4.273  0.2412  0.7301 -0.1420
 2410SOL    HW2 9610   4.723   3.636   4.410  0.8260 -1.1427 -0.8263
 2411SOL     OW 9611   7.768   3.491   2.886  0.5125  0.0365 -0.6269
 2411SOL    HW1 9612   7.745   3.471   2.795 -0.9904  0.0842 -0.2855
 2411SOL    HW2 9613   7.833   3.425   2.909  0.9492  0.0534 -1.7499
 2412SOL     OW 9614   9.172   4.841   0.714 -0.0137  0.1706  0.0661
 2412SOL    HW1 9615   9.146   4.825   0.804  1.9122 -0.1859  0.6116
 2412SOL    HW2 9616   9.105   4.799   0.661 -0.4205 -0.8621  1.3562
 2413SOL     OW 9617   7.749   7.267   3.879 -0.4422  0.1044  0.3879
 2413SOL    HW1 9618   7.710   7.355   3.880  0.8105  0.6911  1.8920
 2413SOL    HW2 9619   7.837   7.280   3.915  0.7854 -1.3587 -1.8836
 2414SOL     OW 9620   5.416   4.110  10.778  0.9172 -0.1091  0.0987
 2414SOL    HW1 9621   5.442   4.035  10.831  1.4828 -1.1156 -1.5371
 2414SOL    HW2 9622   5.434   4.084  10.688  1.3421  2.0757 -0.5216
 2415SOL     OW 9623   0.152   7.214   0.506  0.2469  0.5261  0.2942
 2415SOL    HW1 9624   0.158   7.181   0.416  0.7079 -1.3188  0.9409
 2415SOL    HW2 9625   0.156   7.309   0.498  0.1037  0.4023 -1.6380
 2416SOL     OW 9626   4.614   8.830   9.965 -0.4671  0.0714  0.1537
 2416SOL    HW1 9627   4.567   8.912   9.980 -0.1510  0.3379 -0.2974
 2416SOL    HW2 9628   4.549   8.773   9.924 -0.0096  0.9497 -1.9095
 2417SOL     OW 9629   6.341   2.273  10.670 -0.1715  0.4197  0.0497
 2417SOL    HW1 9630   6.287   2.196  10.650  0.8126 -0.2983  0.1198
 2417SOL    HW2 9631   6.371   2.258  10.760 -0.7137  1.3429  0.4039
 2418SOL     OW 9632   0.562   1.705   1.128  0.6017 -0.1003 -0.3473
 2418SOL    HW1 9633   0.512   1.625   1.112 -1.3374  1.4210 -2.7712
 2418SOL    HW2 9634   0.626   1.708   1.057 -0.2558  1.1073 -1.1046
 2419SOL     OW 9635  10.354   7.797   1.178 -0.2149 -0.0486  0.3611
 2419SOL    HW1 9636  10.409   7.758   1.109 -2.1519  0.0379 -1.3431
 2419SOL    HW2 9637  10.411   7.860   1.221  1.8345 -1.9017  0.5754
 2420SOL     OW 9638   9.908   0.504   1.717 -0.1672  0.3774 -0.0910
 2420SOL    HW1 9639   9.999   0.525   1.696  0.2495 -1.9589 -0.9586
 2420SOL    HW2 9640   9.911   0.475   1.808  0.6265 -2.6879 -0.9829
 2421SOL     OW 9641   1.887   7.901  10.778 -0.0364 -0.5781  0.7070
 2421SOL    HW1 9642   1.976   7.880  10.751 -0.5881 -2.1319 -0.0515
 2421SOL    HW2 9643   1.864   7.830  10.839  0.3604  1.5825  3.5724
 2422SOL     OW 9644   9.693   8.055   2.850 -0.5359 -0.4405  0.7001
 2422SOL    HW1 9645   9.745   8.043   2.771 -0.3931 -0.2596  0.7658
 2422SOL    HW2 9646   9.739   8.123   2.900  0.2468 -1.6475  1.6794
 2423SOL     OW 9647   8.857   0.870   7.469 -0.3166 -0.0084 -0.1596
 2423SOL    HW1 9648   8.821   0.803   7.412  1.3567 -0.6367 -0.5320
 2423SOL    HW2 9649   8.788   0.936   7.476 -1.9073 -1.6252  0.0179
 2424SOL     OW 9650   9.465   8.703   8.016  0.1547 -0.0389  0.3551
 2424SOL    HW1 9651   9.432   8.627   8.063  2.0123 -2.2815 -1.7259
 2424SOL    HW2 9652   9.389   8.737   7.968 -0.3370 -1.7487 -0.1369
 2425SOL     OW 9653   8.982   2.928   1.621 -0.1730  0.0651  0.5036
 2425SOL    HW1 9654   8.986   2.966   1.533 -1.0330 -0.3966  0.2617
 2425SOL    HW2 9655   8.889   2.927   1.643 -0.0289 -0.5147  1.1127
 2426SOL     OW 9656   8.063   4.631   6.381 -0.4517 -0.0175 -0.7019
 2426SOL    HW1 9657   8.058   4.657   6.473  0.1995 -1.4809 -0.2249
 2426SOL    HW2 9658   7.973   4.631   6.351 -0.5192  2.3055 -0.6235
 2427SOL     OW 9659   2.110   9.832   2.348  0.5036 -0.0897 -0.3201
 2427SOL    HW1 9660   2.052   9.761   2.319  0.1643 -0.2812  0.7775
 2427SOL    HW2 9661   2.061   9.912   2.332  0.6474 -0.1399 -1.0178
 2428SOL     OW 9662   3.964   2.428   0.788 -0.0708  0.1708  0.5042
 2428SOL    HW1 9663   3.974   2.400   0.697 -0.3308  1.2626  0.1281
 2428SOL    HW2 9664   3.988   2.351   0.839 -0.7901 -0.7459 -0.4903
 2429SOL     OW 9665   7.018   5.402   3.980  0.1969  0.2918 -0.3444
 2429SOL    HW1 9666   7.025   5.319   4.027  0.7328 -0.8430 -2.3530
 2429SOL    HW2 9667   6.924   5.422   3.982  0.3689  1.5408  3.1557
 2430SOL     OW 9668   6.441   9.194   0.021  0.0911  0.0282  0.1685
 2430SOL    HW1 9669   6.485   9.276   0.045  1.1169 -0.8416  1.4242
 2430SOL    HW2 9670   6.479   9.170  -0.063 -2.3424  2.2818 -1.7328
 2431SOL     OW 9671  10.754   7.975   3.567  0.1383  0.0177 -0.1129
 2431SOL    HW1 9672  10.840   8.018   3.570  0.2958 -0.2944  0.0302
 2431SOL    HW2 9673  10.753   7.930   3.483 -1.1458  2.5064 -1.5449
 2432SOL     OW 9674   5.287   8.354   2.930 -0.6174 -0.2304 -0.1821
 2432SOL    HW1 9675   5.376   8.384   2.914 -0.4298 -2.0276 -3.3624
 2432SOL    HW2 9676   5.233   8.432   2.917  0.4027  0.7648  1.2653
 2433SOL     OW 9677   9.098   0.133   6.507 -0.2019  0.1108 -0.7060
 2433SOL    HW1 9678   9.148   0.190   6.565 -0.3544  0.0232 -0.4886
 2433SOL    HW2 9679   9.047   0.078   6.565  0.0388 -0.3385 -0.9125
 2434SOL     OW 9680   1.690   2.953   6.792  0.0780 -0.2517  0.2267
 2434SOL    HW1 9681   1.633   2.889   6.835  2.5829 -1.0607  2.7151
 2434SOL    HW2 9682   1.748   2.900   6.737 -0.6996  0.4287 -1.3094
 2435SOL     OW 9683   5.762   6.662   0.621  0.1384 -0.1738 -0.6646
 2435SOL    HW1 9684   5.718   6.616   0.692 -0.2888  0.9392 -0.1758
 2435SOL    HW2 9685   5.731   6.619   0.541 -2.1388  0.7364 -0.3615
 2436SOL     OW 9686   7.192   7.141   4.650  0.3963 -0.4726  0.3542
 2436SOL    HW1 9687   7.111   7.150   4.600  0.5195 -0.0392  0.2320
 2436SOL    HW2 9688   7.179   7.062   4.703  0.5194 -1.3313 -0.8417
 2437SOL     OW 9689   3.312   7.550   3.524  0.4476 -0.5037  0.3481
 2437SOL    HW1 9690   3.394   7.557   3.573  0.2598 -2.0206  0.9244
 2437SOL    HW2 9691   3.255   7.497   3.580  0.3610 -2.6445 -1.6147
 2438SOL     OW 9692   9.432   6.259   1.736  0.5905  0.4056  0.4353
 2438SOL    HW1 9693   9.358   6.313   1.763  0.4159  1.4745 -1.9211
 2438SOL    HW2 9694   9.497   6.321   1.704  1.7112 -0.6239  0.6411
 2439SOL     OW 9695   6.229   2.396   7.218  0.4127  0.2716 -0.2004
 2439SOL    HW1 9696   6.188   2.316   7.187 -1.6377  1.3004 -0.3122
 2439SOL    HW2 9697   6.169   2.429   7.285  2.2022  0.7325  1.2596
 2440SOL     OW 9698   7.327   5.093   0.452 -0.1489  0.0427  0.3908
 2440SOL    HW1 9699   7.352   5.186   0.460 -0.2031  0.0569  0.3913
 2440SOL    HW2 9700   7.239   5.088   0.490  0.3807 -0.2559  1.6560
 2441SOL     OW 9701   0.184   3.014   7.575 -0.0538  0.2046 -0.3097
 2441SOL    HW1 9702   0.201   3.100   7.613 -1.9707  0.5525 -0.1580
 2441SOL    HW2 9703   0.237   3.013   7.495 -0.5030  1.7874 -0.6629
 2442SOL     OW 9704  10.073   7.830   8.370  0.1722  0.2368  0.4041
 2442SOL    HW1 9705  10.108   7.893   8.308 -1.0689 -0.1610 -0.7582
 2442SOL    HW2 9706  10.036   7.883   8.441  1.5142  0.6989  0.7739
 2443SOL     OW 9707   5.281   2.979   6.812 -0.2276  0.6572 -0.0266
 2443SOL    HW1 9708   5.345   2.926   6.859  1.7474  0.7095 -2.4593
 2443SOL    HW2 9709   5.330   3.056   6.784 -1.7711  1.4393 -0.6811
 2444SOL     OW 9710   3.875   0.844   7.891 -0.2001 -0.2815 -0.0501
 2444SOL    HW1 9711   3.868   0.883   7.804 -0.8470 -0.1049  0.0773
 2444SOL    HW2 9712   3.822   0.764   7.886  2.3600 -2.0754 -0.7905
 2445SOL     OW 9713   6.039   7.949   0.170  0.1140 -0.3297  0.0331
 2445SOL    HW1 9714   6.072   7.871   0.123  1.0952  0.4918 -0.6922
 2445SOL    HW2 9715   6.078   7.943   0.257 -1.0315 -1.4176  0.5135
 2446SOL     OW 9716   3.762   1.896   4.100 -0.2812 -0.2932  0.1887
 2446SOL    HW1 9717   3.789   1.975   4.147  0.3368 -0.0955 -0.4831
 2446SOL    HW2 9718   3.668   1.889   4.117 -0.4703  0.9482 -0.2552
 2447SOL     OW 9719   1.007   9.373   3.193  0.0561 -0.4424  0.5912
 2447SOL    HW1 9720   1.064   9.403   3.264  0.3089  1.2470 -0.2727
 2447SOL    HW2 9721   1.026   9.280   3.186  0.5719 -0.5086  2.2386
 2448SOL     OW 9722   9.939   3.581  10.763 -0.4018 -0.0529  0.4261
 2448SOL    HW1 9723   9.905   3.656  10.715 -0.9351 -0.4534  0.1716
 2448SOL    HW2 9724   9.876   3.511  10.747  1.1754 -1.1945 -1.1035
 2449SOL     OW 9725   6.232   1.932   0.998  0.3102 -0.3636 -0.8611
 2449SOL    HW1 9726   6.258   1.841   1.013  1.7227  0.3262  1.3692
 2449SOL    HW2 9727   6.314   1.981   1.000 -0.5356  1.0953 -0.7735
 2450SOL     OW 9728   0.185   6.418   6.212  0.2293  0.4047 -0.5124
 2450SOL    HW1 9729   0.199   6.324   6.224  1.6824  0.5627 -0.8377
 2450SOL    HW2 9730   0.258   6.447   6.159  1.1534  2.1552  1.5650
 2451SOL     OW 9731   0.488   5.968   1.325  0.0300  0.0281  0.0598
 2451SOL    HW1 9732   0.443   5.898   1.373  0.0229  0.2339  0.3542
 2451SOL    HW2 9733   0.533   5.923   1.254 -1.2667 -0.1090 -0.7099
 2452SOL     OW 9734   7.645   4.509  10.191 -0.1879  0.1707 -0.0094
 2452SOL    HW1 9735   7.552   4.530  10.200 -0.2889 -0.7039  1.1820
 2452SOL    HW2 9736   7.672   4.481  10.278  0.3769 -2.8079 -1.0401
 2453SOL     OW 9737   4.407   8.724   2.986  0.3554 -0.3034  0.0940
 2453SOL    HW1 9738   4.384   8.764   2.902  2.1494 -0.7392 -0.6394
 2453SOL    HW2 9739   4.449   8.641   2.964  1.2582 -0.2300  1.3895
 2454SOL     OW 9740   6.919   8.170   7.623  0.2481 -0.7485 -0.6741
 2454SOL    HW1 9741   6.988   8.217   7.670  1.2293 -0.6471 -2.1505
 2454SOL    HW2 9742   6.869   8.238   7.579 -0.8575 -0.8208  0.4031
 2455SOL     OW 9743   5.895  10.189   0.028  0.1518 -0.2041 -0.3673
 2455SOL    HW1 9744   5.945  10.110   0.046  0.6843 -0.3013 -2.1352
 2455SOL    HW2 9745   5.934  10.255   0.086  2.3706 -0.2832 -1.6601
 2456SOL     OW 9746   3.634   0.952   6.199 -0.2168 -0.2844 -0.5849
 2456SOL    HW1 9747   3.729   0.941   6.199 -0.3673 -1.8837 -1.6688
 2456SOL    HW2 9748   3.620   1.032   6.249  1.5911 -0.9161  1.0793
 2457SOL     OW 9749   5.036   9.554   0.926 -0.1305 -0.6365  0.9845
 2457SOL    HW1 9750   5.122   9.588   0.903  0.7594 -3.3186 -0.0932
 2457SOL    HW2 9751   4.981   9.576   0.851  0.5703 -1.9217  0.0496
 2458SOL     OW 9752   6.067   9.801   3.369  0.6926  0.1755  0.1104
 2458SOL    HW1 9753   6.147   9.794   3.421  1.9239  0.1518 -1.6860
 2458SOL    HW2 9754   6.076   9.884   3.323 -0.1864  0.0406 -0.3249
 2459SOL     OW 9755   4.102   1.800   1.805 -0.0712  0.7354 -0.7025
 2459SOL    HW1 9756   4.079   1.842   1.887 -1.0806  0.4272 -0.8061
 2459SOL    HW2 9757   4.194   1.822   1.790  0.7295 -0.7990  1.4693
 2460SOL     OW 9758   1.268   8.475   5.426  0.4656  0.2911  0.6322
 2460SOL    HW1 9759   1.342   8.453   5.484 -0.2749  1.1737  1.9555
 2460SOL    HW2 9760   1.200   8.506   5.485 -0.7760  0.0531 -0.6273
 2461SOL     OW 9761  10.461   9.759  10.305  0.6551 -0.2474 -0.3757
 2461SOL    HW1 9762  10.467   9.830  10.240 -0.4283  0.0704 -0.1669
 2461SOL    HW2 9763  10.444   9.681  10.253 -1.7313  0.2381 -0.4621
 2462SOL     OW 9764  10.556   6.530   6.726 -0.2327 -0.2088 -0.4336
 2462SOL    HW1 9765  10.505   6.467   6.674 -0.7362  1.3329 -1.8758
 2462SOL    HW2 9766  10.634   6.480   6.753 -1.2672 -1.8505 -0.3245
 2463SOL     OW 9767   9.863   6.578   6.849 -0.1619 -0.6620  0.2461
 2463SOL    HW1 9768   9.813   6.649   6.808  1.2819  0.8839  1.0587
 2463SOL    HW2 9769   9.940   6.569   6.794  1.0952  0.4578  1.7422
 2464SOL     OW 9770   2.654   9.200   5.950 -0.1160  0.0507  0.0232
 2464SOL    HW1 9771   2.732   9.189   6.004  0.0959  1.4942  0.0298
 2464SOL    HW2 9772   2.600   9.123   5.970  1.3433 -1.0322 -0.0849
 2465SOL     OW 9773   4.857   2.588  10.395 -0.4581  0.0876 -0.0892
 2465SOL    HW1 9774   4.850   2.506  10.442  0.4827  0.3912  0.6179
 2465SOL    HW2 9775   4.942   2.583  10.352 -1.1080  0.0053 -1.4154
 2466SOL     OW 9776   0.680   6.687   9.252 -0.0901 -0.3141 -0.0541
 2466SOL    HW1 9777   0.764   6.674   9.208 -0.9446 -0.7275 -1.6495
 2466SOL    HW2 9778   0.620   6.629   9.206 -1.1649 -0.3741  1.3657
 2467SOL     OW 9779   0.730   0.723   8.830  0.1477 -0.0656 -0.3091
 2467SOL    HW1 9780   0.811   0.773   8.844  0.5618 -0.9324  0.4695
 2467SOL    HW2 9781   0.672   0.753   8.900 -0.4908  1.0868 -1.2956
 2468SOL     OW 9782   6.515  10.455   9.828  0.1383  0.0418  0.4198
 2468SOL    HW1 9783   6.580  10.386   9.813  2.1553  2.2838 -2.3849
 2468SOL    HW2 9784   6.550  10.506   9.901 -0.2351 -0.6372  1.0819
 2469SOL     OW 9785   5.490   4.488   3.249  0.2252  0.1752 -0.2452
 2469SOL    HW1 9786   5.413   4.471   3.305  0.5071 -1.9311 -0.4211
 2469SOL    HW2 9787   5.501   4.408   3.199  1.9606  0.8239 -0.9642
 2470SOL     OW 9788   1.665   3.682  10.599 -0.1498  0.3605 -0.2671
 2470SOL    HW1 9789   1.662   3.606  10.657 -2.1009 -0.2690 -1.1310
 2470SOL    HW2 9790   1.741   3.667  10.543 -0.6286 -1.0627 -0.5561
 2471SOL     OW 9791   6.471   9.343  10.312 -0.5692  0.3169 -0.0360
 2471SOL    HW1 9792   6.551   9.337  10.259 -0.0155 -1.2366  0.9122
 2471SOL    HW2 9793   6.427   9.259  10.298 -1.7947  0.9592 -0.1363
 2472SOL     OW 9794   5.740   9.043   8.926 -0.2306 -0.0829  0.1409
 2472SOL    HW1 9795   5.711   9.079   9.010 -1.3266 -0.2225 -0.1562
 2472SOL    HW2 9796   5.678   8.972   8.908  1.4355 -1.6770  0.3639
 2473SOL     OW 9797   9.723   3.147   4.118  0.1153  0.2321 -0.1913
 2473SOL    HW1 9798   9.667   3.076   4.150 -0.2358  0.5650 -0.0517
 2473SOL    HW2 9799   9.686   3.169   4.032 -1.0165  1.5501  0.5831
 2474SOL     OW 9800   4.226   0.994   2.128 -0.3313  0.1988 -0.0193
 2474SOL    HW1 9801   4.269   0.968   2.209  0.2446  0.4422 -0.2438
 2474SOL    HW2 9802   4.146   0.941   2.126 -0.8540  0.8898  1.1858
 2475SOL     OW 9803   8.300  10.355   1.759 -0.4042  0.6093  0.3770
 2475SOL    HW1 9804   8.390  10.324   1.751 -0.5556  0.5476 -1.4421
 2475SOL    HW2 9805   8.268  10.313   1.839  0.5396 -1.0249 -0.0483
 2476SOL     OW 9806   8.634   4.879   2.286  0.1495  0.1167  0.3928
 2476SOL    HW1 9807   8.685   4.917   2.358  0.0349 -0.1479  0.6167
 2476SOL    HW2 9808   8.669   4.921   2.208  1.0329 -0.3769  0.4990
 2477SOL     OW 9809   9.368   4.657  10.667 -0.0620  0.0105 -0.4614
 2477SOL    HW1 9810   9.455   4.696  10.672  0.2780 -0.8507  1.6031
 2477SOL    HW2 9811   9.367   4.593  10.738 -2.2016 -0.3984 -0.7920
 2478SOL     OW 9812   7.915   4.113   6.898 -0.7865 -0.3720 -0.0001
 2478SOL    HW1 9813   7.940   4.021   6.894  1.0695  0.1543 -2.2463
 2478SOL    HW2 9814   7.849   4.123   6.829 -1.7415 -0.1822  0.9111
 2479SOL     OW 9815   3.051   7.941   1.844 -0.2979 -0.4800 -0.1725
 2479SOL    HW1 9816   3.104   8.009   1.803 -2.1311  0.8852 -0.3918
 2479SOL    HW2 9817   3.112   7.895   1.902  1.0245  1.2926 -0.0677
 2480SOL     OW 9818   4.257   9.666   9.447  0.2674 -0.1218  0.4899
 2480SOL    HW1 9819   4.192   9.720   9.493  0.6684 -0.3959  1.4140
 2480SOL    HW2 9820   4.334   9.667   9.505  0.5549 -1.0233  0.1446
 2481SOL     OW 9821   8.650   0.536   8.163 -0.0007 -0.2827 -0.8936
 2481SOL    HW1 9822   8.577   0.531   8.224  1.0602  0.5511  0.5095
 2481SOL    HW2 9823   8.692   0.450   8.167 -0.4488 -0.5194 -1.1484
 2482SOL     OW 9824   7.523  10.016   5.562 -0.0735 -0.1590  0.4485
 2482SOL    HW1 9825   7.597   9.981   5.512  0.3992  1.0511  0.2643
 2482SOL    HW2 9826   7.446   9.974   5.524  0.3099  0.4282 -1.0472
 2483SOL     OW 9827   5.772   1.408   1.132  0.1619  0.4289  0.0490
 2483SOL    HW1 9828   5.713   1.338   1.105  0.4189  0.5477 -0.8623
 2483SOL    HW2 9829   5.832   1.419   1.058  3.0688 -1.4857  1.9092
 2484SOL     OW 9830   4.043  10.370   4.017 -0.4589  0.1989  0.4538
 2484SOL    HW1 9831   3.949  10.364   4.030 -0.7194  2.5857  0.2170
 2484SOL    HW2 9832   4.073  10.432   4.084  0.7425  0.3728 -0.2064
 2485SOL     OW 9833   4.139   4.028   1.058  0.1246 -0.0365 -0.6858
 2485SOL    HW1 9834   4.060   3.974   1.059  0.3788 -0.4596 -1.8816
 2485SOL    HW2 9835   4.193   3.990   0.990 -0.0228  2.1895 -2.1460
 2486SOL     OW 9836   5.357   9.134   3.265  0.2897  0.6112 -0.0137
 2486SOL    HW1 9837   5.445   9.127   3.302 -0.8274  0.7782  3.0264
 2486SOL    HW2 9838   5.328   9.044   3.254  0.7586  0.5570 -0.8446
 2487SOL     OW 9839   2.277   1.607   0.316  0.4656  0.7650 -0.5255
 2487SOL    HW1 9840   2.245   1.590   0.405  2.8073 -1.7484 -0.0057
 2487SOL    HW2 9841   2.322   1.691   0.322  0.0524  0.9269  0.5019
 2488SOL     OW 9842   9.178   1.076   5.905 -0.2217  1.1643 -0.3491
 2488SOL    HW1 9843   9.152   1.046   5.992  3.4144  0.2608  0.6359
 2488SOL    HW2 9844   9.178   1.171   5.910  0.3875  1.1146  0.8320
 2489SOL     OW 9845   3.087   6.603   5.140  0.1741  0.0720  0.0436
 2489SOL    HW1 9846   3.150   6.673   5.159  0.8574 -0.1964 -1.1466
 2489SOL    HW2 9847   3.136   6.522   5.154 -0.4357 -0.1724  0.8252
 2490SOL     OW 9848   0.063  10.684   4.753  0.0592  0.7164  0.2241
 2490SOL    HW1 9849  -0.008  10.748   4.753 -1.5020 -0.9476  0.0063
 2490SOL    HW2 9850   0.060  10.644   4.666  2.3493  1.7012 -0.3919
 2491SOL     OW 9851   7.344   2.261   6.458 -0.0051  0.4675  0.2299
 2491SOL    HW1 9852   7.407   2.242   6.387 -0.0539 -0.6258  0.4566
 2491SOL    HW2 9853   7.258   2.245   6.418 -0.0573  0.3868  0.3732
 2492SOL     OW 9854   4.759   6.637   2.754  0.0530  0.5101 -0.2402
 2492SOL    HW1 9855   4.770   6.716   2.700 -1.8226  0.8386 -0.1936
 2492SOL    HW2 9856   4.681   6.655   2.806 -0.2641 -1.2914 -0.0582
 2493SOL     OW 9857   7.153   5.309   3.607 -0.9881 -0.4412  0.0172
 2493SOL    HW1 9858   7.224   5.246   3.592 -1.3979 -1.0436  0.6067
 2493SOL    HW2 9859   7.076   5.256   3.623 -1.4129  0.2144  0.1777
 2494SOL     OW 9860   7.322   9.919   4.724 -0.0957 -0.4052  0.0573
 2494SOL    HW1 9861   7.275   9.848   4.681 -1.6937  1.5311 -1.5966
 2494SOL    HW2 9862   7.346   9.978   4.652 -0.5510  1.6729  1.5505
 2495SOL     OW 9863   4.654   7.622   8.842  0.4983 -0.4221 -0.4904
 2495SOL    HW1 9864   4.700   7.691   8.890 -1.0164 -1.1930  2.2069
 2495SOL    HW2 9865   4.628   7.664   8.760  2.7035  1.1092 -0.5010
 2496SOL     OW 9866   1.123   1.124   9.284  0.2249 -0.5479 -0.1343
 2496SOL    HW1 9867   1.183   1.078   9.343 -0.7100 -2.1229 -0.3463
 2496SOL    HW2 9868   1.058   1.164   9.341  0.5858 -0.1478  0.0063
 2497SOL     OW 9869   4.343   1.267   3.257 -0.1632 -0.5577 -0.6334
 2497SOL    HW1 9870   4.287   1.320   3.200  0.7668 -0.8256 -1.8494
 2497SOL    HW2 9871   4.419   1.247   3.202  0.2271 -1.8079  0.3403
 2498SOL     OW 9872   4.865   4.892   3.794 -0.1130 -0.2996 -0.3137
 2498SOL    HW1 9873   4.790   4.880   3.853 -0.6361 -0.0165 -0.9022
 2498SOL    HW2 9874   4.899   4.979   3.816 -0.3438 -0.1700 -0.4569
 2499SOL     OW 9875   3.852   0.122  10.048  0.0773  0.1475 -0.1703
 2499SOL    HW1 9876   3.788   0.054  10.026  0.6006 -0.0703 -1.0762
 2499SOL    HW2 9877   3.884   0.152   9.963 -1.9695  3.3501  0.0137
 2500SOL     OW 9878   9.728   1.200   3.332 -0.0306  0.3141 -0.3680
 2500SOL    HW1 9879   9.669   1.135   3.294 -0.2814 -0.1234  0.7238
 2500SOL    HW2 9880   9.816   1.166   3.316 -0.1376  0.0439 -0.3833
 2501SOL     OW 9881   9.364   7.197   0.094  0.1078 -0.0120  0.1194
 2501SOL    HW1 9882   9.302   7.162   0.030  0.5335 -0.3831 -0.0964
 2501SOL    HW2 9883   9.449   7.185   0.054  0.5376 -1.8161  1.4591
 2502SOL     OW 9884   5.856   9.646   5.000 -0.1927  0.8170  0.2396
 2502SOL    HW1 9885   5.828   9.557   5.021  0.6780  1.0211  2.5396
 2502SOL    HW2 9886   5.881   9.642   4.908 -1.2975 -1.0007 -0.0373
 2503SOL     OW 9887   7.558   1.435   0.063  0.5334  0.1248 -0.1139
 2503SOL    HW1 9888   7.573   1.346   0.031  0.2750  0.5461 -1.4696
 2503SOL    HW2 9889   7.592   1.434   0.152  1.6730 -0.9934 -0.5238
 2504SOL     OW 9890   8.795   9.372   6.234 -0.4179 -0.1529  0.7637
 2504SOL    HW1 9891   8.707   9.335   6.241 -0.2496 -0.8068 -0.3922
 2504SOL    HW2 9892   8.784   9.464   6.258 -1.2635 -0.4079  1.4173
 2505SOL     OW 9893   6.421   8.731   2.507 -0.2338  0.3888 -0.1734
 2505SOL    HW1 9894   6.447   8.813   2.548  0.7261 -0.5677  1.2428
 2505SOL    HW2 9895   6.496   8.673   2.521 -0.5064 -0.4746 -1.9518
 2506SOL     OW 9896   2.853   7.458   6.841 -0.3662 -0.4034 -0.0065
 2506SOL    HW1 9897   2.848   7.492   6.751 -1.5410 -0.1358  0.1447
 2506SOL    HW2 9898   2.925   7.395   6.839  0.8929  0.9716 -0.6720
 2507SOL     OW 9899   3.349  10.029   9.966  0.7227  0.0339  0.3065
 2507SOL    HW1 9900   3.395  10.012   9.884 -0.1352 -1.2176  0.0536
 2507SOL    HW2 9901   3.348   9.945  10.011 -1.3389 -0.0133  0.2654
 2508SOL     OW 9902   1.036  10.393   6.679 -0.1054  0.0237 -0.6759
 2508SOL    HW1 9903   0.994  10.475   6.655 -1.8340 -0.8206 -0.7091
 2508SOL    HW2 9904   1.006  10.330   6.612  1.1995 -0.6481 -0.6730
 2509SOL     OW 9905   5.067   9.623   6.771 -0.0569 -0.4622  0.0674
 2509SOL    HW1 9906   5.143   9.653   6.822  0.4974 -0.7124 -0.6092
 2509SOL    HW2 9907   5.061   9.530   6.790  0.5710 -0.7049 -0.8380
 2510SOL     OW 9908   3.429   0.324   9.681 -0.0813  0.6958 -0.1202
 2510SOL    HW1 9909   3.506   0.293   9.633 -0.1190  1.8823 -0.9726
 2510SOL    HW2 9910   3.358   0.268   9.650  0.2896  0.0956  0.1003
 2511SOL     OW 9911   4.743   6.684   1.038 -0.0915  0.0777  0.4421
 2511SOL    HW1 9912   4.821   6.693   0.984  1.0810 -0.5189  1.9686
 2511SOL    HW2 9913   4.688   6.621   0.991  0.1548  0.7651 -0.8196
 2512SOL     OW 9914   0.229   9.529   1.427 -0.7678  0.2354  0.0561
 2512SOL    HW1 9915   0.182   9.562   1.351 -0.4094 -0.3252 -0.4221
 2512SOL    HW2 9916   0.242   9.436   1.408  1.1057  0.5049 -0.1366
 2513SOL     OW 9917   4.657   2.139   4.449  0.4049 -0.4374  0.2430
 2513SOL    HW1 9918   4.608   2.132   4.531  1.6023 -1.7472  0.8839
 2513SOL    HW2 9919   4.714   2.215   4.462 -0.6667  0.4432 -0.0936
 2514SOL     OW 9920   9.265   5.119   4.884 -0.2221 -0.0826  0.3258
 2514SOL    HW1 9921   9.287   5.158   4.969 -1.0510  1.5363 -0.1648
 2514SOL    HW2 9922   9.348   5.085   4.851  0.8513  2.3782  0.2545
 2515SOL     OW 9923   1.924   2.072   0.376 -0.4051 -0.4876 -0.2785
 2515SOL    HW1 9924   1.940   1.987   0.335  0.3085 -0.3683 -0.2573
 2515SOL    HW2 9925   1.881   2.051   0.459 -1.3110 -0.7609 -0.7970
 2516SOL     OW 9926   9.314   8.405   8.079 -0.0937 -0.2649  0.1133
 2516SOL    HW1 9927   9.325   8.360   7.996 -0.6589  0.9823 -0.6773
 2516SOL    HW2 9928   9.396   8.391   8.126  0.6726 -0.0366 -1.1384
 2517SOL     OW 9929  10.437   3.813   0.038  0.4775 -0.6295  0.1667
 2517SOL    HW1 9930  10.460   3.867   0.113  1.2743 -1.3144  0.4337
 2517SOL    HW2 9931  10.419   3.875  -0.033  0.3119 -0.0021  0.7556
 2518SOL     OW 9932   5.401   4.849  10.322  0.9203 -0.8513 -0.0577
 2518SOL    HW1 9933   5.312   4.838  10.357  0.8028  1.4757  0.5803
 2518SOL    HW2 9934   5.434   4.760  10.312 -0.6138 -1.7384  1.9414
 2519SOL     OW 9935   6.093  10.778   8.806 -0.4420 -0.1175 -0.2131
 2519SOL    HW1 9936   6.166  10.738   8.760 -0.9830 -1.6980  0.2468
 2519SOL    HW2 9937   6.127  10.861   8.839  1.5263 -1.3471  1.0135
 2520SOL     OW 9938   8.085   1.712   7.992  0.5634 -0.1494 -0.3715
 2520SOL    HW1 9939   8.165   1.668   7.962  1.4147  0.0745  1.4314
 2520SOL    HW2 9940   8.056   1.659   8.066 -0.0706  0.6548 -0.0365
 2521SOL     OW 9941   3.341   7.836   5.923 -0.1906 -0.0760 -0.3270
 2521SOL    HW1 9942   3.366   7.743   5.921 -0.7686 -0.2374 -1.1578
 2521SOL    HW2 9943   3.369   7.867   6.009 -0.5854 -1.2001  0.2361
 2522SOL     OW 9944   9.493   1.413   7.441 -0.1439  0.5156 -0.2669
 2522SOL    HW1 9945   9.447   1.373   7.515 -0.4495 -0.0094 -0.7251
 2522SOL    HW2 9946   9.539   1.340   7.400  0.5326  0.9167 -0.2266
 2523SOL     OW 9947   7.637   2.004   2.098 -0.4994  0.3674 -0.6788
 2523SOL    HW1 9948   7.594   2.072   2.046 -2.0237  0.4421  0.5996
 2523SOL    HW2 9949   7.721   1.989   2.054 -1.8444  0.1162 -3.4068
 2524SOL     OW 9950   6.758   8.281   1.194  0.1294  0.1046 -0.0289
 2524SOL    HW1 9951   6.755   8.248   1.284 -0.3419  0.7892  0.2150
 2524SOL    HW2 9952   6.832   8.235   1.154  0.0032 -0.6124  0.5418
 2525SOL     OW 9953   4.088   3.474   7.990 -0.3362 -0.0841 -0.4295
 2525SOL    HW1 9954   4.116   3.513   8.073 -1.2863 -0.7177  0.2124
 2525SOL    HW2 9955   4.027   3.537   7.953  0.0141  0.1545 -0.6104
 2526SOL     OW 9956   9.083   5.205   2.074  0.0136 -0.0445 -0.2376
 2526SOL    HW1 9957   9.171   5.179   2.101 -0.7759 -2.6079  0.1980
 2526SOL    HW2 9958   9.048   5.128   2.029 -2.1018  0.8074 -0.1789
 2527SOL     OW 9959   2.142   1.736   5.974 -0.4466  0.0046  0.2040
 2527SOL    HW1 9960   2.212   1.758   5.912  0.9151 -1.6309  1.0777
 2527SOL    HW2 9961   2.121   1.645   5.955 -0.2100 -0.4378  1.9086
 2528SOL     OW 9962   2.915   1.442   7.119  0.2350 -0.1633 -0.2371
 2528SOL    HW1 9963   2.842   1.500   7.140 -0.8764 -2.0007  1.3556
 2528SOL    HW2 9964   2.887   1.394   7.041  0.9166  0.9942 -1.2197
 2529SOL     OW 9965   3.696  10.618   1.883 -0.2993  0.0247 -0.1719
 2529SOL    HW1 9966   3.642  10.639   1.808 -0.9788  1.4441  0.6926
 2529SOL    HW2 9967   3.645  10.645   1.959  1.6134  1.4809  0.6762
 2530SOL     OW 9968   8.792   5.025   3.574 -0.5152  0.5175 -0.2336
 2530SOL    HW1 9969   8.789   5.085   3.649 -0.9311  1.9764 -1.3609
 2530SOL    HW2 9970   8.727   5.060   3.513  1.0870  0.4926 -2.0486
 2531SOL     OW 9971   5.373   9.971   1.271 -0.0583 -0.0381 -0.2697
 2531SOL    HW1 9972   5.371   9.972   1.367  0.7836 -1.0494 -0.2231
 2531SOL    HW2 9973   5.298  10.024   1.245  0.1916  0.9464  0.9469
 2532SOL     OW 9974   7.972   5.648   3.188 -0.2041 -0.0919 -0.7821
 2532SOL    HW1 9975   8.014   5.566   3.160  0.5844 -0.3118  0.9126
 2532SOL    HW2 9976   7.922   5.623   3.266  2.1509  1.4482  1.3814
 2533SOL     OW 9977  10.546   8.819   4.025 -0.2458 -0.1043 -0.3412
 2533SOL    HW1 9978  10.535   8.804   4.119 -1.3794 -0.5546 -0.5363
 2533SOL    HW2 9979  10.463   8.858   3.997  0.8467  2.0744 -0.7697
 2534SOL     OW 9980   4.714   2.256   3.416 -0.2338 -0.3898  0.0022
 2534SOL    HW1 9981   4.728   2.300   3.332 -0.7626 -0.2971 -0.0405
 2534SOL    HW2 9982   4.619   2.262   3.430 -0.2762 -1.2907  0.1164
 2535SOL     OW 9983   4.357   6.300   5.416  0.9889 -0.2159 -0.0386
 2535SOL    HW1 9984   4.263   6.307   5.433  0.3598 -0.5048 -2.7727
 2535SOL    HW2 9985   4.393   6.384   5.444 -0.3776  0.5047 -0.3311
 2536SOL     OW 9986   5.827   3.306   6.999  0.5638  0.5977 -0.2423
 2536SOL    HW1 9987   5.812   3.229   6.944 -1.6291 -0.5704  1.7655
 2536SOL    HW2 9988   5.797   3.379   6.946 -2.2857 -0.5772 -0.4645
 2537SOL     OW 9989  10.174   9.295   9.772 -0.2000  0.0602  0.4865
 2537SOL    HW1 9990  10.140   9.303   9.683  1.2236 -0.2610 -0.1224
 2537SOL    HW2 9991  10.229   9.216   9.769  0.6503  0.6036  1.3679
 2538SOL     OW 9992   3.528   1.437   9.504 -0.3623 -0.3838 -0.3972
 2538SOL    HW1 9993   3.534   1.347   9.537 -2.3056 -0.2757  0.3679
 2538SOL    HW2 9994   3.500   1.427   9.413 -3.5396 -0.5969  0.4866
 2539SOL     OW 9995   6.077   3.485   2.502 -0.2837  0.2419  0.1042
 2539SOL    HW1 9996   6.141   3.414   2.490  0.2067  0.7351 -0.2232
 2539SOL    HW2 9997   6.034   3.493   2.417  0.8548  1.4730 -0.3895
 2540SOL     OW 9998  10.635   8.017   0.951 -1.0564  0.3033  0.7282
 2540SOL    HW1 9999  10.560   8.022   0.892 -0.3828 -0.0813 -0.1905
 2540SOL    HW210000  10.623   7.935   0.999  0.3361 -1.4566 -1.6901
 2541SOL     OW10001  10.577   6.606   0.934 -0.2675  0.1105 -0.3738
 2541SOL    HW110002  10.581   6.667   0.861  0.0195 -0.0047 -0.4553
 2541SOL    HW210003  10.629   6.531   0.905  1.7655  0.9883  0.8230
 2542SOL     OW10004   4.850   1.830   8.823  0.3100 -0.0094 -0.4099
 2542SOL    HW110005   4.869   1.922   8.804 -0.4233  0.0886 -0.7061
 2542SOL    HW210006   4.822   1.831   8.915 -0.0627  0.1248 -0.5218
 2543SOL     OW10007   5.775   3.821   8.347 -0.0418  0.0570 -0.1563
 2543SOL    HW110008   5.750   3.787   8.432 -0.4274 -0.5541 -0.5036
 2543SOL    HW210009   5.800   3.743   8.296  1.0712  0.4909 -0.3179
 2544SOL     OW10010  10.028   7.205   4.098 -0.0002  0.0430 -0.2862
 2544SOL    HW110011  10.026   7.230   4.005  2.0785 -0.2968 -0.4589
 2544SOL    HW210012  10.021   7.288   4.145  2.3430  0.6013 -0.8185
 2545SOL     OW10013   1.498   9.696   9.123  0.0801 -0.3225  0.3757
 2545SOL    HW110014   1.510   9.782   9.165 -2.2014  1.2931 -1.9195
 2545SOL    HW210015   1.539   9.706   9.037  0.5071 -1.8433  0.3870
 2546SOL     OW10016  10.158   7.996   9.413  0.5338 -0.1492  0.1921
 2546SOL    HW110017  10.101   8.060   9.371  1.8602 -1.0600 -3.3690
 2546SOL    HW210018  10.245   8.037   9.410  1.1133 -1.3889 -0.6218
 2547SOL     OW10019   9.365   9.606   3.196  0.2406  0.2899  0.1521
 2547SOL    HW110020   9.287   9.661   3.202  1.5369  2.0949  1.8807
 2547SOL    HW210021   9.357   9.546   3.271  0.7028  0.7810  0.6023
 2548SOL     OW10022   8.839   1.216   7.904 -0.2172  0.2575 -0.5264
 2548SOL    HW110023   8.800   1.288   7.954 -0.5432 -0.6928  0.6108
 2548SOL    HW210024   8.792   1.138   7.934  1.9174 -0.8035  0.2191
 2549SOL     OW10025   3.968   5.985   6.926 -0.5390  0.1881  0.3849
 2549SOL    HW110026   3.962   5.889   6.924 -1.0228  0.2279 -0.9063
 2549SOL    HW210027   4.001   6.005   7.014 -0.3255 -1.1646  0.6349
 2550SOL     OW10028  10.279   4.711   7.753  0.1499  0.0193  0.0803
 2550SOL    HW110029  10.264   4.757   7.671  0.3628  1.8360  1.0089
 2550SOL    HW210030  10.373   4.692   7.754  0.2087  0.3206  0.0750
 2551SOL     OW10031   7.532   3.697   5.670 -0.1913  0.1873 -0.3856
 2551SOL    HW110032   7.602   3.727   5.611 -1.2556  0.5488 -1.5064
 2551SOL    HW210033   7.478   3.774   5.686 -0.3393 -0.0851  0.4794
 2552SOL     OW10034   5.489   8.354   6.565  0.2867 -0.5754 -0.1585
 2552SOL    HW110035   5.443   8.425   6.609 -1.4792 -1.0880 -1.0800
 2552SOL    HW210036   5.529   8.304   6.636 -0.0127  0.2819  0.6289
 2553SOL     OW10037   4.448   9.060   4.375  0.1487 -0.1594  0.1175
 2553SOL    HW110038   4.400   9.089   4.298  0.6309 -0.5685 -0.3404
 2553SOL    HW210039   4.499   9.136   4.402  2.7131 -0.9697 -2.0721
 2554SOL     OW10040   2.043   9.171   9.496 -0.0811 -0.0806 -0.0848
 2554SOL    HW110041   2.104   9.116   9.446 -2.3776 -0.6441 -2.5117
 2554SOL    HW210042   2.066   9.261   9.470  0.8592 -0.1425  0.4793
 2555SOL     OW10043   2.367   7.511   9.927 -0.8677  0.2563  0.0549
 2555SOL    HW110044   2.329   7.590   9.889  0.2329  0.0511 -1.5977
 2555SOL    HW210045   2.356   7.444   9.859  1.1066 -0.1469  0.0501
 2556SOL     OW10046   4.050   0.177  10.578 -0.0206  0.2832 -0.3321
 2556SOL    HW110047   3.981   0.141  10.522 -1.7372  1.2042  1.1282
 2556SOL    HW210048   4.116   0.209  10.516  0.1126 -2.3699 -1.7421
 2557SOL     OW10049   0.742   4.446   0.012 -0.2680 -0.8837 -0.0863
 2557SOL    HW110050   0.733   4.351   0.020 -1.3174 -0.8416 -0.6147
 2557SOL    HW210051   0.652   4.478   0.004  0.1509 -0.0792 -2.2809
 2558SOL     OW10052   7.578   9.800   5.731 -0.1712 -0.1047 -0.0975
 2558SOL    HW110053   7.661   9.758   5.711 -0.6501 -0.2172 -2.0194
 2558SOL    HW210054   7.592   9.892   5.710  0.2743  0.4424  2.2507
 2559SOL     OW10055   6.580   6.956   7.211 -0.8026  0.0574 -0.0174
 2559SOL    HW110056   6.586   6.914   7.297 -2.2388 -3.1432 -1.3150
 2559SOL    HW210057   6.561   7.048   7.231 -0.5898 -0.4436  3.0645
 2560SOL     OW10058   2.976   7.116   9.481 -0.6778 -0.6512 -0.0119
 2560SOL    HW110059   2.972   7.073   9.566 -0.1976 -2.8312 -1.0191
 2560SOL    HW210060   2.910   7.185   9.486 -1.9716 -1.9104  1.5235
 2561SOL     OW10061   6.634   5.072   4.287 -0.1376  0.5104 -0.1885
 2561SOL    HW110062   6.703   5.079   4.352 -0.0071  0.6243 -0.3415
 2561SOL    HW210063   6.670   5.110   4.208 -0.5485  1.0166 -0.1361
 2562SOL     OW10064   1.569   8.455   5.302 -0.1942 -0.3455  0.1664
 2562SOL    HW110065   1.532   8.409   5.377 -2.9306 -0.4002 -1.1042
 2562SOL    HW210066   1.495   8.502   5.264  1.3785  0.7116 -1.7701
 2563SOL     OW10067   2.699   2.869   5.327  0.4146  0.4838  0.5378
 2563SOL    HW110068   2.647   2.791   5.342  1.3510  0.1897  2.6541
 2563SOL    HW210069   2.696   2.882   5.232 -1.3125 -1.0004  0.3358
 2564SOL     OW10070   2.903   5.158   9.939  0.0348  0.1764 -1.1151
 2564SOL    HW110071   2.958   5.236   9.951  0.4235 -0.2145 -0.2570
 2564SOL    HW210072   2.965   5.087   9.925 -0.1791 -0.4176  0.7179
 2565SOL     OW10073   2.932  10.749   4.546  0.0266 -0.1328  0.0949
 2565SOL    HW110074   2.904  10.666   4.508  0.1165  0.6128 -1.7237
 2565SOL    HW210075   2.989  10.788   4.479 -0.8742  1.8743  0.4025
 2566SOL     OW10076   0.080   9.666   9.620 -0.4413 -0.1812 -0.6914
 2566SOL    HW110077   0.160   9.625   9.654 -1.1214 -0.2556  0.8999
 2566SOL    HW210078   0.010   9.631   9.675 -1.2475  1.8571 -0.3426
 2567SOL     OW10079   9.519   3.590   3.024  0.5415 -0.1982  0.2603
 2567SOL    HW110080   9.455   3.580   3.094  0.1980  0.6503  0.0817
 2567SOL    HW210081   9.546   3.682   3.028  0.3121 -0.0644 -0.8829
 2568SOL     OW10082   8.109   2.239   6.494  0.0493  0.0136 -0.1192
 2568SOL    HW110083   8.128   2.232   6.401  1.4756 -0.2076  0.1754
 2568SOL    HW210084   8.193   2.230   6.537 -0.7304 -1.0759  1.2614
 2569SOL     OW10085   7.734   0.570   4.107  0.1582 -0.0084 -0.3559
 2569SOL    HW110086   7.770   0.553   4.020 -0.7468  1.1193 -0.9887
 2569SOL    HW210087   7.797   0.629   4.148  0.3716 -0.1910 -0.4203
 2570SOL     OW10088   0.441   1.689   8.459  0.5116 -0.0936 -0.0822
 2570SOL    HW110089   0.389   1.631   8.515 -1.2105  0.1241 -1.4162
 2570SOL    HW210090   0.393   1.771   8.458  1.5827  0.5498 -0.3011
 2571SOL     OW10091  10.688   5.164  10.470 -0.9888  0.5243  0.4069
 2571SOL    HW110092  10.726   5.092  10.519 -0.0023  0.4414 -0.4504
 2571SOL    HW210093  10.594   5.152  10.478 -0.8564 -1.4332 -0.5361
 2572SOL     OW10094   3.153   2.927   6.397 -0.1989  0.2175  0.4200
 2572SOL    HW110095   3.102   2.874   6.336  0.2665 -0.4817  0.6199
 2572SOL    HW210096   3.102   3.007   6.408 -1.3752 -0.5527  0.8095
 2573SOL     OW10097   1.691   5.749   1.493 -0.1917  0.3248  0.2395
 2573SOL    HW110098   1.777   5.791   1.495 -1.3862  2.9352  0.9817
 2573SOL    HW210099   1.680   5.723   1.401  1.4776 -0.4003  0.1949
 2574SOL     OW10100   8.963   8.824   0.032 -0.1789  0.0033  0.2838
 2574SOL    HW110101   9.017   8.828  -0.047  0.1590  1.9486  0.5694
 2574SOL    HW210102   8.887   8.879   0.012  0.4345  1.4101  1.6571
 2575SOL     OW10103   0.163   4.561   2.336 -0.1103 -0.2301  0.2739
 2575SOL    HW110104   0.084   4.553   2.389 -0.5241  0.5823 -0.2019
 2575SOL    HW210105   0.135   4.534   2.248 -0.1075  0.9216 -0.0986
 2576SOL     OW10106  10.083   1.262   2.981 -0.1852  0.0110  0.0081
 2576SOL    HW110107  10.052   1.272   2.892  0.0866 -0.1622 -0.1092
 2576SOL    HW210108  10.009   1.224   3.029 -0.7668  1.2867  0.1550
 2577SOL     OW10109   1.422   5.026   3.851 -0.2056 -0.4149 -0.5529
 2577SOL    HW110110   1.449   5.097   3.908 -2.3785 -0.0267  0.0932
 2577SOL    HW210111   1.406   5.067   3.766 -2.8634  0.2555  0.1790
 2578SOL     OW10112   3.703   4.648   5.795 -0.1175  0.5149  0.2422
 2578SOL    HW110113   3.768   4.718   5.788 -0.7652  1.1705  0.6383
 2578SOL    HW210114   3.676   4.650   5.887 -0.2376 -0.1658  0.2230
 2579SOL     OW10115   9.136   9.563   9.122 -0.0975 -0.3605  0.1075
 2579SOL    HW110116   9.126   9.567   9.217 -2.1919 -0.9431 -0.0531
 2579SOL    HW210117   9.157   9.653   9.096 -2.9282  0.5930  0.8052
 2580SOL     OW10118   7.205   4.333   0.554  0.1897 -0.4347 -0.0661
 2580SOL    HW110119   7.253   4.284   0.487  0.9428  0.5685 -0.2832
 2580SOL    HW210120   7.114   4.326   0.528  0.5488  0.9692 -1.9462
 2581SOL     OW10121   8.234   2.524   2.445 -0.5949 -0.3059  0.0052
 2581SOL    HW110122   8.224   2.533   2.540 -0.1715 -2.3532  0.3025
 2581SOL    HW210123   8.328   2.528   2.430 -0.7360  1.8881 -0.6119
 2582SOL     OW10124   4.718   7.854   1.851 -0.0231  0.2336  0.2782
 2582SOL    HW110125   4.702   7.929   1.909  0.1413  0.6500 -0.2119
 2582SOL    HW210126   4.700   7.887   1.763  2.7479  0.5436 -0.2649
 2583SOL     OW10127   6.042   7.489   7.979  0.5961  0.4330 -0.3901
 2583SOL    HW110128   5.954   7.493   8.017 -0.0188  2.7087 -1.8404
 2583SOL    HW210129   6.044   7.405   7.932 -0.5476  0.0393  0.2281
 2584SOL     OW10130   3.387   5.488   5.212  0.3081  0.8862 -0.1960
 2584SOL    HW110131   3.358   5.451   5.296 -0.1432 -1.2189 -1.2143
 2584SOL    HW210132   3.392   5.412   5.153  1.1144  2.2382 -1.9430
 2585SOL     OW10133   0.860   7.728   4.483  0.5159 -0.0571 -0.1503
 2585SOL    HW110134   0.893   7.715   4.394  2.2701 -1.0379  0.5735
 2585SOL    HW210135   0.867   7.823   4.497 -0.7554  0.2513 -1.3664
 2586SOL     OW10136   4.132   9.678   1.032  0.3243  0.0637 -0.5123
 2586SOL    HW110137   4.172   9.708   1.114  0.7516 -0.5169 -0.5040
 2586SOL    HW210138   4.043   9.713   1.036 -0.5032 -1.9739  1.4027
 2587SOL     OW10139   2.976   4.551  10.620  0.0551  0.4089  0.3306
 2587SOL    HW110140   2.888   4.576  10.590 -2.7429 -2.6932  4.7001
 2587SOL    HW210141   2.995   4.470  10.573  0.5727  0.9476 -0.4263
 2588SOL     OW10142   0.961   3.926   8.284 -0.4705  0.2617 -0.3120
 2588SOL    HW110143   1.033   3.866   8.263 -0.5100  0.3373 -0.6799
 2588SOL    HW210144   1.005   4.005   8.315 -0.4329 -0.2113  0.9180
 2589SOL     OW10145   7.766   4.184   3.340  0.2101 -0.3320  0.0772
 2589SOL    HW110146   7.796   4.251   3.401  1.4341 -0.0780 -0.7565
 2589SOL    HW210147   7.772   4.226   3.254  1.1092 -1.5203 -0.4733
 2590SOL     OW10148   9.685   7.389   3.168  0.1081 -0.2832 -0.0221
 2590SOL    HW110149   9.651   7.301   3.187 -0.4052 -0.2613 -0.8122
 2590SOL    HW210150   9.663   7.404   3.077 -0.6708  1.0659  0.3658
 2591SOL     OW10151   2.506   7.223   2.655  0.1796 -0.4669  0.2155
 2591SOL    HW110152   2.447   7.197   2.584 -0.6367 -2.6800  1.5963
 2591SOL    HW210153   2.530   7.313   2.635 -0.9738 -0.6349 -2.2086
 2592SOL     OW10154   7.041   5.177   0.251  0.0243 -0.4706  0.2472
 2592SOL    HW110155   7.100   5.104   0.232 -0.9280 -1.2250  0.0896
 2592SOL    HW210156   6.954   5.143   0.229 -0.4002  0.8219 -0.1141
 2593SOL     OW10157   3.024  10.679  10.380 -0.0366  0.0307  0.2779
 2593SOL    HW110158   3.016  10.704  10.288  1.8016  2.1533  0.6127
 2593SOL    HW210159   3.117  10.689  10.399 -0.2558 -1.1719  2.1853
 2594SOL     OW10160   6.517  10.652   8.286  0.0695 -0.1423 -0.3799
 2594SOL    HW110161   6.507  10.747   8.293  0.5290 -0.1842  1.2142
 2594SOL    HW210162   6.433  10.622   8.250 -0.8306  0.7037  0.9141
 2595SOL     OW10163   0.437   0.932  10.547  0.1196  0.3538  0.4773
 2595SOL    HW110164   0.392   0.849  10.561  0.7241  0.2342  1.9207
 2595SOL    HW210165   0.388   0.995  10.601  0.5841  0.6003  0.6229
 2596SOL     OW10166   3.774   8.647   9.375 -0.4371 -0.4596  0.7359
 2596SOL    HW110167   3.795   8.703   9.300 -0.2344 -2.5843 -0.8979
 2596SOL    HW210168   3.680   8.632   9.369 -0.2772 -1.3825  0.3077
 2597SOL     OW10169   1.948   5.061   6.101  0.2502 -0.1196  0.8233
 2597SOL    HW110170   1.859   5.074   6.068 -0.1796 -1.0383  1.5971
 2597SOL    HW210171   1.979   4.981   6.058  1.1272  0.7746 -0.2798
 2598SOL     OW10172   5.831   3.817   9.581  0.2065  0.1161  0.2091
 2598SOL    HW110173   5.873   3.839   9.498  0.4636  0.1530  0.3480
 2598SOL    HW210174   5.897   3.838   9.647 -0.0414  0.1947  0.4303
 2599SOL     OW10175   2.734   2.335   8.639 -0.2551  0.0295 -0.3945
 2599SOL    HW110176   2.799   2.386   8.687  0.9230 -1.9395  0.2161
 2599SOL    HW210177   2.778   2.310   8.557 -1.0823  0.5998 -1.0318
 2600SOL     OW10178   9.534   1.580   3.129  0.5148  0.1793 -0.4468
 2600SOL    HW110179   9.577   1.666   3.136  0.6721  0.1906 -1.4769
 2600SOL    HW210180   9.542   1.543   3.217  5.4047 -1.1000 -1.0997
 2601SOL     OW10181   1.425   1.256   4.587  0.2258 -0.3621  0.3094
 2601SOL    HW110182   1.433   1.165   4.617  1.4648 -0.9433 -1.6123
 2601SOL    HW210183   1.482   1.261   4.510  1.2986  2.4298  1.1782
 2602SOL     OW10184   6.850   6.695   2.698 -0.1542  0.2526  0.3341
 2602SOL    HW110185   6.787   6.753   2.743  0.9223  1.9900 -0.3018
 2602SOL    HW210186   6.903   6.754   2.645 -0.1573 -1.5414 -1.7882
 2603SOL     OW10187  10.745   2.702   5.304 -0.5609  0.1583  0.1883
 2603SOL    HW110188  10.684   2.658   5.363  0.7399 -3.4085 -0.8826
 2603SOL    HW210189  10.826   2.708   5.355 -0.3812  0.2061 -0.1020
 2604SOL     OW10190   6.920   3.876  10.384 -0.5736 -0.1980 -0.5978
 2604SOL    HW110191   6.998   3.845  10.339 -0.8013 -0.5872 -0.7240
 2604SOL    HW210192   6.918   3.826  10.466 -0.4706  0.1003 -0.4111
 2605SOL     OW10193   4.636   5.354   6.229 -0.3656 -0.4749 -0.1692
 2605SOL    HW110194   4.611   5.446   6.216  0.5256 -0.2731 -0.5592
 2605SOL    HW210195   4.722   5.359   6.271  1.1586 -1.0862 -3.0016
 2606SOL     OW10196   6.453   2.536   4.563  0.7945 -0.0637 -0.2698
 2606SOL    HW110197   6.438   2.604   4.497 -0.5694  0.0205  0.1110
 2606SOL    HW210198   6.452   2.454   4.513 -0.4105 -0.0138 -0.3384
 2607SOL     OW10199   5.382   4.998   1.875  0.1544 -0.1138 -0.4456
 2607SOL    HW110200   5.420   4.947   1.946  0.2125 -1.3765 -1.3567
 2607SOL    HW210201   5.288   4.987   1.884  0.1870 -1.0924 -1.1175
 2608SOL     OW10202   7.468   3.650   1.375  0.4133  0.8245  0.7165
 2608SOL    HW110203   7.554   3.608   1.375  0.2164  0.3412 -0.9717
 2608SOL    HW210204   7.407   3.580   1.351 -0.5139  1.1104  2.0765
 2609SOL     OW10205   3.057   2.967   4.112 -0.6319  0.0435 -0.0661
 2609SOL    HW110206   3.051   3.062   4.121  0.6437  0.3460 -1.8267
 2609SOL    HW210207   2.986   2.943   4.052 -1.6285 -0.3033  1.2025
 2610SOL     OW10208   1.191   3.126   7.714 -1.3320  0.2104  0.7552
 2610SOL    HW110209   1.161   3.163   7.797 -0.7263  0.5308  0.8294
 2610SOL    HW210210   1.154   3.038   7.713 -0.2304 -0.2948  1.9970
 2611SOL     OW10211   1.691   8.632   8.259 -0.4468 -0.1000  0.1107
 2611SOL    HW110212   1.691   8.622   8.164 -0.9017 -1.1520  0.2032
 2611SOL    HW210213   1.769   8.684   8.277 -0.9751  1.1119 -0.9131
 2612SOL     OW10214   5.861   0.980   1.847  0.0505 -0.0326  0.2867
 2612SOL    HW110215   5.892   0.986   1.756  1.6520  3.2697  0.8756
 2612SOL    HW210216   5.766   0.972   1.840  0.2571 -1.9530 -1.6035
 2613SOL     OW10217   7.879   4.775   7.959  0.5467 -0.1276  0.0109
 2613SOL    HW110218   7.974   4.762   7.955  0.6182  0.7147 -2.4576
 2613SOL    HW210219   7.868   4.869   7.971 -0.0700 -0.5006  3.8255
 2614SOL     OW10220   0.073   9.155   7.624 -0.3571 -0.1605  0.2811
 2614SOL    HW110221   0.056   9.073   7.578 -1.4353 -0.9476  1.9396
 2614SOL    HW210222   0.137   9.131   7.692 -0.3394  0.4700  0.4927
 2615SOL     OW10223   5.960   6.813   0.438 -0.5685 -0.2650  0.1306
 2615SOL    HW110224   6.052   6.792   0.453 -0.2744 -1.4024 -2.6459
 2615SOL    HW210225   5.913   6.770   0.509  0.8285 -2.4686 -0.1854
 2616SOL     OW10226  10.226   3.491   7.085  0.5329 -0.2390  0.0795
 2616SOL    HW110227  10.261   3.439   7.158  0.2505  1.3905  1.4366
 2616SOL    HW210228  10.162   3.433   7.044  1.4650 -1.5868  0.4194
 2617SOL     OW10229  10.177   0.756   1.502 -0.2803 -0.2531  0.5924
 2617SOL    HW110230  10.244   0.822   1.521 -1.0224  1.2304 -1.5504
 2617SOL    HW210231  10.096   0.792   1.539 -0.2682 -1.1450  1.5272
 2618SOL     OW10232   9.013   5.073   3.850 -0.2245  0.3150  0.4012
 2618SOL    HW110233   9.023   4.993   3.901  0.5552  0.7608  0.9710
 2618SOL    HW210234   8.918   5.085   3.842 -0.3481 -0.2870  0.9076
 2619SOL     OW10235  10.287   8.304   9.786  0.1837  0.3398 -0.2714
 2619SOL    HW110236  10.219   8.237   9.783 -0.0290  0.5816 -1.4601
 2619SOL    HW210237  10.358   8.265   9.836 -0.3131 -0.4078 -0.1408
 2620SOL     OW10238   4.117   5.107   1.188  0.5647  0.3014  0.0006
 2620SOL    HW110239   4.065   5.030   1.164 -2.4989  2.5060 -1.0940
 2620SOL    HW210240   4.154   5.138   1.106  2.4249 -0.3363  0.5473
 2621SOL     OW10241   7.995   4.366   8.843 -0.1658  0.2278  0.2589
 2621SOL    HW110242   7.933   4.422   8.796 -0.4133  1.1185  1.6120
 2621SOL    HW210243   8.075   4.418   8.849 -0.3081  0.3378  1.2790
 2622SOL     OW10244   0.121   6.506   9.925 -0.0814 -0.6743  0.4020
 2622SOL    HW110245   0.118   6.602   9.926  0.1861 -0.6683  0.9412
 2622SOL    HW210246   0.194   6.486   9.867  1.1073 -0.5011  1.7773
 2623SOL     OW10247   9.007   3.041   7.763  0.3604 -0.0580  0.1268
 2623SOL    HW110248   9.095   3.056   7.729  0.5336  0.5292  0.7944
 2623SOL    HW210249   8.953   3.109   7.721  0.5903  0.7198  1.0423
 2624SOL     OW10250   1.902   2.545   7.853 -0.0176 -0.3486  0.0352
 2624SOL    HW110251   1.853   2.463   7.852  0.6837 -0.8006  1.2866
 2624SOL    HW210252   1.914   2.566   7.760  0.4209 -2.0440 -0.3375
 2625SOL     OW10253   6.582   2.584   8.385  0.2025  0.3659  0.3733
 2625SOL    HW110254   6.622   2.662   8.347  1.4545 -0.8978 -1.0467
 2625SOL    HW210255   6.539   2.541   8.311  0.8058 -1.0296  0.8054
 2626SOL     OW10256   6.323   0.599   0.342 -0.2228 -0.1432 -0.3476
 2626SOL    HW110257   6.261   0.527   0.354 -0.2720  0.0655  0.7599
 2626SOL    HW210258   6.322   0.645   0.426  1.5286 -0.2128 -0.2564
 2627SOL     OW10259   9.978   1.935   1.392 -0.5641  0.0757  0.9065
 2627SOL    HW110260  10.058   1.901   1.351  0.4162  1.3122  1.7313
 2627SOL    HW210261   9.907   1.901   1.338  0.5369 -0.8097 -0.0199
 2628SOL     OW10262   0.422   7.162   5.625 -0.1942  0.5942 -0.0768
 2628SOL    HW110263   0.477   7.234   5.656  0.2297 -0.0534  0.7174
 2628SOL    HW210264   0.347   7.162   5.685 -0.6258  0.9028 -0.6046
 2629SOL     OW10265   8.117   6.414   7.890  1.0651  0.1912  0.4354
 2629SOL    HW110266   8.093   6.472   7.962  0.8378  0.3948  0.1972
 2629SOL    HW210267   8.189   6.459   7.847 -0.6534  1.4920 -1.2087
 2630SOL     OW10268   8.745   6.650   0.121 -0.4342 -0.7325  0.0271
 2630SOL    HW110269   8.840   6.639   0.119 -0.3615 -0.3414  0.9723
 2630SOL    HW210270   8.726   6.701   0.042  0.2065 -0.3435  0.1124
 2631SOL     OW10271   3.151   6.441   6.943 -0.2871 -0.4080  0.0020
 2631SOL    HW110272   3.099   6.399   6.874  1.0893 -2.7955  0.3117
 2631SOL    HW210273   3.098   6.433   7.022  0.3078 -2.4680  0.2354
 2632SOL     OW10274   9.111   3.782   1.983  0.4280  0.2601  0.1945
 2632SOL    HW110275   9.021   3.770   1.952  0.1106  1.2333  0.6974
 2632SOL    HW210276   9.133   3.872   1.958  0.3430  0.9084  2.2513
 2633SOL     OW10277   1.191   3.714  10.395  0.5377  0.0898 -0.2729
 2633SOL    HW110278   1.192   3.810  10.397  1.1195  0.0988  2.1749
 2633SOL    HW210279   1.102   3.690  10.422  1.2012 -0.0139  1.9372
 2634SOL     OW10280   3.908  10.718   8.515 -0.4962 -0.0276 -0.2515
 2634SOL    HW110281   3.882  10.740   8.604 -0.3858  1.4796 -0.5633
 2634SOL    HW210282   3.948  10.798   8.481  0.0063 -0.7591 -1.4563
 2635SOL     OW10283   8.008   5.845   6.155  0.3279  0.1765  0.1191
 2635SOL    HW110284   8.043   5.828   6.243 -0.7944 -0.2905  0.4878
 2635SOL    HW210285   8.029   5.766   6.105  0.8135  0.3727 -0.0008
 2636SOL     OW10286   3.902   5.013   4.707  0.1894 -0.4490 -0.0250
 2636SOL    HW110287   3.967   4.972   4.765  0.3297  0.2254  0.3096
 2636SOL    HW210288   3.949   5.027   4.625  0.0790 -1.1382 -0.2098
 2637SOL     OW10289   7.633   8.963   3.747 -0.0784 -0.2793  0.2771
 2637SOL    HW110290   7.541   8.985   3.758  0.2795  1.0649  0.7664
 2637SOL    HW210291   7.635   8.904   3.672 -1.2039  0.7085 -0.5669
 2638SOL     OW10292   8.523   6.217   6.456  0.3771 -0.7289  0.3114
 2638SOL    HW110293   8.441   6.185   6.418  0.1585  0.5275 -0.3278
 2638SOL    HW210294   8.592   6.175   6.404  0.0870  0.4243 -1.1046
 2639SOL     OW10295  10.509   9.076   1.844  0.2606  0.3977 -0.6893
 2639SOL    HW110296  10.425   9.103   1.809 -0.4119 -1.2487 -0.4406
 2639SOL    HW210297  10.550   9.027   1.773  0.1955 -0.3721 -0.2080
 2640SOL     OW10298   8.995   2.869   5.936 -0.2726  0.1081  0.3930
 2640SOL    HW110299   9.010   2.963   5.948  1.3460 -0.2087  1.0804
 2640SOL    HW210300   8.987   2.834   6.024  1.7905 -0.7742  0.2727
 2641SOL     OW10301   5.804   6.746   8.199  0.0159 -0.6524  0.5813
 2641SOL    HW110302   5.827   6.725   8.290  0.3516 -2.0805  0.1866
 2641SOL    HW210303   5.853   6.683   8.146 -1.7897 -1.2333 -0.4862
 2642SOL     OW10304   9.979   0.598   2.216  0.5733 -0.5369 -0.1000
 2642SOL    HW110305   9.891   0.635   2.208  0.8039 -0.3013 -2.0120
 2642SOL    HW210306  10.035   0.660   2.171  1.6896 -0.8517  0.8168
 2643SOL     OW10307   9.162  10.195   6.584 -0.5466 -0.8840  0.1817
 2643SOL    HW110308   9.205  10.142   6.652  0.2632 -0.7067 -0.1753
 2643SOL    HW210309   9.220  10.188   6.509  0.0541  1.2030  0.3788
 2644SOL     OW10310   7.928   1.527  10.398 -0.6242  0.4136  0.1633
 2644SOL    HW110311   7.915   1.450  10.453 -1.6295  0.6340  0.2436
 2644SOL    HW210312   7.928   1.601  10.459  0.9366  0.4643  0.1634
 2645SOL     OW10313   7.888   5.891   4.319  1.2186 -0.0982  0.0455
 2645SOL    HW110314   7.809   5.847   4.289  1.6410 -1.3284  0.6626
 2645SOL    HW210315   7.864   5.926   4.405  0.3298  2.5272 -1.1522
 2646SOL     OW10316   1.087   2.751   6.021  0.1619 -0.2983 -0.0147
 2646SOL    HW110317   1.088   2.664   5.981  2.3758 -0.0764 -0.5497
 2646SOL    HW210318   1.131   2.739   6.105 -0.3611  0.1334  0.3281
 2647SOL     OW10319   2.766   2.022   1.203  0.0891 -0.4490  0.3030
 2647SOL    HW110320   2.735   1.932   1.216 -1.4238  0.0846  0.6204
 2647SOL    HW210321   2.832   2.035   1.271 -1.0393 -0.7242  1.5015
 2648SOL     OW10322   3.697   4.818   3.100  0.4467  0.1308  0.0836
 2648SOL    HW110323   3.664   4.905   3.121 -0.7287 -0.3238  0.1788
 2648SOL    HW210324   3.786   4.817   3.135  0.4790  1.3015  0.0538
 2649SOL     OW10325   5.439   4.515   9.700  0.1579  0.0452 -0.0958
 2649SOL    HW110326   5.531   4.498   9.720 -0.1049 -2.2400 -0.5121
 2649SOL    HW210327   5.439   4.554   9.613  0.6697 -2.2060 -1.1692
 2650SOL     OW10328   6.398   2.521   7.777  0.2968  0.3230  0.7425
 2650SOL    HW110329   6.475   2.471   7.751  0.1581  0.9053 -0.9013
 2650SOL    HW210330   6.386   2.501   7.870  1.3304 -1.2048  0.5693
 2651SOL     OW10331   1.033   7.554   1.593  0.0969  0.2432  0.0017
 2651SOL    HW110332   1.074   7.468   1.594 -0.2557  0.0738  0.9890
 2651SOL    HW210333   0.972   7.553   1.667 -2.0307  0.3285 -1.6343
 2652SOL     OW10334   7.075   8.841   0.276  0.2297  0.0965  0.0213
 2652SOL    HW110335   7.076   8.934   0.253  0.3859 -0.1428 -0.9602
 2652SOL    HW210336   7.039   8.797   0.199  3.9333 -1.0782 -1.2454
 2653SOL     OW10337   1.596   3.713   1.146 -0.0344  0.7180 -0.4048
 2653SOL    HW110338   1.592   3.617   1.148  0.9508  0.6543 -0.8480
 2653SOL    HW210339   1.673   3.734   1.199 -0.4024  1.2850 -0.0866
 2654SOL     OW10340   4.588   1.698   9.353 -0.3562 -0.1407  0.2101
 2654SOL    HW110341   4.543   1.614   9.364 -2.0262  0.6061 -0.5528
 2654SOL    HW210342   4.525   1.753   9.307  0.5775  1.6475  0.9653
 2655SOL     OW10343   2.659   8.877   7.245 -0.0014 -0.8253  0.2796
 2655SOL    HW110344   2.731   8.830   7.203  0.9360 -0.3337  1.2690
 2655SOL    HW210345   2.698   8.915   7.324 -1.2777 -0.2819  0.6825
 2656SOL     OW10346   7.141   6.579   9.571  0.5762 -0.3928 -0.1274
 2656SOL    HW110347   7.153   6.500   9.520  1.2225 -0.2728 -0.1630
 2656SOL    HW210348   7.108   6.643   9.509 -0.6543 -0.8262  0.0518
 2657SOL     OW10349   2.476   8.755   8.802 -0.7110 -0.3127 -0.6149
 2657SOL    HW110350   2.483   8.818   8.731 -1.2735 -0.2934 -0.6633
 2657SOL    HW210351   2.382   8.747   8.817 -0.6204 -0.7348 -0.2484
 2658SOL     OW10352   4.372   6.978   4.228 -0.6509  0.2133 -0.0474
 2658SOL    HW110353   4.453   6.968   4.178  0.3218 -0.0485  1.5092
 2658SOL    HW210354   4.365   7.072   4.244  0.4020  0.0879  1.3995
 2659SOL     OW10355   4.143   6.210   2.637  0.2026  0.3736 -0.3533
 2659SOL    HW110356   4.178   6.245   2.719  0.4125 -3.2224  1.2892
 2659SOL    HW210357   4.213   6.157   2.601 -1.3919 -1.9839 -0.2277
 2660SOL     OW10358   1.173   1.478   7.356 -0.1356  0.3623 -0.9859
 2660SOL    HW110359   1.082   1.470   7.327  0.1279 -0.0240 -1.7216
 2660SOL    HW210360   1.205   1.388   7.358 -0.1062  0.3733  0.4244
 2661SOL     OW10361   3.114   4.414   5.082  0.3428 -0.3400 -0.5180
 2661SOL    HW110362   3.044   4.431   5.146  0.4116 -0.2617 -0.4633
 2661SOL    HW210363   3.136   4.322   5.095  0.4228 -0.3004 -0.3627
 2662SOL     OW10364   2.548   6.668   4.610 -0.0677  0.0454  0.0060
 2662SOL    HW110365   2.562   6.749   4.561 -2.0905  1.3384  1.4189
 2662SOL    HW210366   2.544   6.696   4.702 -0.5946 -1.6935  0.5456
 2663SOL     OW10367   3.653  10.014   9.993 -0.1092  0.2549  0.4046
 2663SOL    HW110368   3.727   9.988   9.938 -0.4971  1.2107 -0.5966
 2663SOL    HW210369   3.620  10.093   9.952 -1.9548 -0.3776  0.5964
 2664SOL     OW10370   6.931   8.209   0.458 -0.2625 -0.3040 -0.3175
 2664SOL    HW110371   6.930   8.113   0.463  1.2713 -0.2669  2.1194
 2664SOL    HW210372   6.918   8.228   0.365  0.1631 -2.8821 -0.9838
 2665SOL     OW10373   9.946   9.721   8.750  0.3758 -0.8184  0.1701
 2665SOL    HW110374  10.007   9.764   8.690 -0.1585 -1.3772 -0.7910
 2665SOL    HW210375   9.970   9.755   8.837  3.3756 -2.4638  0.1375
 2666SOL     OW10376   0.199   1.609   1.039 -0.3892  0.5250 -0.2135
 2666SOL    HW110377   0.201   1.703   1.021 -0.0461  0.5747  0.0787
 2666SOL    HW210378   0.177   1.602   1.132 -0.0598  0.3301 -0.1472
 2667SOL     OW10379  10.649   4.319   1.930 -0.5418  0.5765 -0.1069
 2667SOL    HW110380  10.588   4.245   1.937 -1.3197  1.3513  2.7765
 2667SOL    HW210381  10.735   4.281   1.948 -0.5544 -0.0110 -1.1803
 2668SOL     OW10382   9.195   6.232   1.265  0.0171 -0.3847  0.0207
 2668SOL    HW110383   9.204   6.245   1.360 -0.9826  0.3921  0.0186
 2668SOL    HW210384   9.102   6.218   1.252  0.1783 -0.6830 -0.8364
 2669SOL     OW10385   6.891   7.688  10.501 -0.1222 -0.1680 -0.4561
 2669SOL    HW110386   6.802   7.722  10.510  0.4527  1.3388 -0.1602
 2669SOL    HW210387   6.899   7.621  10.569 -0.8078  0.1968 -0.0125
 2670SOL     OW10388   4.963   8.317   4.354  0.0694 -0.0227 -0.2209
 2670SOL    HW110389   4.891   8.254   4.358 -1.0555  1.2151 -0.3803
 2670SOL    HW210390   4.983   8.336   4.446  0.5911 -0.8007 -0.1692
 2671SOL     OW10391   2.162   5.765   7.801 -0.7371 -0.2960  0.6799
 2671SOL    HW110392   2.142   5.701   7.733  0.3204 -1.1176  1.1190
 2671SOL    HW210393   2.233   5.818   7.764 -1.3563  0.3954  0.4642
 2672SOL     OW10394   8.248   0.801   8.370  0.1631 -0.0014  0.2286
 2672SOL    HW110395   8.157   0.830   8.369  0.4325  0.8308 -0.8140
 2672SOL    HW210396   8.248   0.719   8.321  0.2227  0.8344 -1.2293
 2673SOL     OW10397   3.107   0.876   2.099  0.2846 -0.3482 -0.2909
 2673SOL    HW110398   3.053   0.932   2.156 -0.7613 -2.3900  0.8282
 2673SOL    HW210399   3.193   0.918   2.100 -0.7396  1.9350 -0.5536
 2674SOL     OW10400   0.994   4.877   4.047  0.2189  0.4570  0.1339
 2674SOL    HW110401   1.042   4.882   4.129 -0.4935  1.1929  0.5169
 2674SOL    HW210402   1.045   4.816   3.993 -0.2016 -1.3822  1.7073
 2675SOL     OW10403   9.755   2.556   0.096 -0.1177 -0.2662 -0.1052
 2675SOL    HW110404   9.712   2.472   0.080 -0.6523 -0.1800  0.8080
 2675SOL    HW210405   9.684   2.615   0.121  0.0310  0.8811 -2.2002
 2676SOL     OW10406   1.355   8.457   9.227  0.0538  0.1118 -0.3905
 2676SOL    HW110407   1.327   8.547   9.208  0.7512  0.2929 -0.6015
 2676SOL    HW210408   1.276   8.404   9.214 -0.0951  0.5527 -1.3474
 2677SOL     OW10409   9.903   8.544   9.111  0.1596  0.8799  0.2302
 2677SOL    HW110410   9.824   8.586   9.146 -0.7828 -1.2996  0.9006
 2677SOL    HW210411   9.972   8.568   9.173 -0.7362  0.0537  1.6171
 2678SOL     OW10412   9.165   4.414   1.792 -0.5330  0.5375 -0.3883
 2678SOL    HW110413   9.183   4.463   1.873  1.2736 -0.9996  0.2036
 2678SOL    HW210414   9.081   4.372   1.808  0.4356 -0.8627  1.3089
 2679SOL     OW10415   8.648   0.264   7.098  0.1715 -0.5579  0.0789
 2679SOL    HW110416   8.596   0.237   7.022  0.2644  0.2526 -0.2796
 2679SOL    HW210417   8.584   0.303   7.157  0.3228  0.1950 -0.2465
 2680SOL     OW10418   0.526   7.518   5.460 -0.0883  0.4405 -0.0170
 2680SOL    HW110419   0.596   7.583   5.460 -1.0632  1.5254 -0.5310
 2680SOL    HW210420   0.506   7.505   5.367  1.0854 -1.7482 -0.0474
 2681SOL     OW10421   4.160   4.168   9.557  0.7677  0.5047 -0.2313
 2681SOL    HW110422   4.137   4.229   9.628 -1.4539 -0.4475 -0.0610
 2681SOL    HW210423   4.228   4.113   9.596 -1.3434 -0.8909  1.7601
 2682SOL     OW10424   3.311   4.854   6.091  0.2545 -0.1421 -0.7294
 2682SOL    HW110425   3.310   4.828   5.999  0.5221  0.0705 -0.7929
 2682SOL    HW210426   3.347   4.778   6.137 -0.6377 -0.5589 -0.6999
 2683SOL     OW10427   2.137   3.576   8.912 -0.0287  0.0601 -0.2639
 2683SOL    HW110428   2.151   3.505   8.975  0.4572  0.9576  0.6719
 2683SOL    HW210429   2.161   3.538   8.828 -1.1824 -1.3213 -0.0066
 2684SOL     OW10430   4.099   3.629   5.748 -0.0974  0.3391  0.2058
 2684SOL    HW110431   4.054   3.679   5.681 -3.2462  0.2322  2.0374
 2684SOL    HW210432   4.124   3.547   5.705 -0.3342  1.0253 -1.2737
 2685SOL     OW10433   7.032  10.552   4.456  0.3410  0.4065 -0.2074
 2685SOL    HW110434   6.986  10.510   4.529 -0.9261 -0.3821 -1.4274
 2685SOL    HW210435   6.965  10.564   4.389  1.4034  1.4717 -1.1163
 2686SOL     OW10436   5.130   7.367   5.576  0.1520  0.7409  0.1329
 2686SOL    HW110437   5.144   7.411   5.492 -2.3358  0.1609 -0.6606
 2686SOL    HW210438   5.046   7.400   5.607 -0.6067 -1.5540  0.7222
 2687SOL     OW10439   4.182   1.899   0.209  0.4852  0.3640 -0.2408
 2687SOL    HW110440   4.106   1.890   0.152  0.0179 -0.4888  0.4974
 2687SOL    HW210441   4.180   1.990   0.238  0.3055  0.6029 -0.9841
 2688SOL     OW10442   2.544   6.450   2.932 -0.0196  0.1754  0.9179
 2688SOL    HW110443   2.591   6.421   3.011  0.0364  0.4935  1.0060
 2688SOL    HW210444   2.561   6.382   2.867  0.8709  0.4624  0.8360
 2689SOL     OW10445   9.482   7.301   9.163  0.1497 -0.0266 -0.0543
 2689SOL    HW110446   9.564   7.327   9.120  0.2232  0.3974  0.3318
 2689SOL    HW210447   9.502   7.306   9.257  0.0857 -1.2203  0.0486
 2690SOL     OW10448   1.356   5.397   8.353 -0.9725  0.5918  0.6670
 2690SOL    HW110449   1.423   5.423   8.290 -1.7880  1.8223  0.2760
 2690SOL    HW210450   1.361   5.302   8.355  0.3699  0.6337  0.1900
 2691SOL     OW10451   2.669   2.026   9.004  0.3953 -0.1603 -0.1664
 2691SOL    HW110452   2.757   2.026   9.042 -0.0940  1.2716  1.0751
 2691SOL    HW210453   2.684   2.036   8.910  1.5791 -1.3814 -0.1402
 2692SOL     OW10454   4.678   0.708   1.746 -0.3439  0.2563  0.3138
 2692SOL    HW110455   4.606   0.721   1.807 -0.7514 -0.7315  0.0637
 2692SOL    HW210456   4.653   0.632   1.694  0.1339  0.8834 -0.8907
 2693SOL     OW10457  10.409   4.343   9.767 -0.0770 -0.0815 -0.1573
 2693SOL    HW110458  10.353   4.408   9.809  0.4502 -0.7275  1.6477
 2693SOL    HW210459  10.430   4.380   9.682 -1.1820  1.3092  0.1496
 2694SOL     OW10460   3.631   8.989   2.694 -0.1109 -0.0979 -0.2419
 2694SOL    HW110461   3.579   9.069   2.704 -1.8945 -1.2755  0.5366
 2694SOL    HW210462   3.652   8.964   2.784 -1.7179 -1.7832 -0.2733
 2695SOL     OW10463   7.712   2.467   1.060 -0.6748  0.1759  0.1539
 2695SOL    HW110464   7.767   2.436   0.988  0.1486  1.3338  0.2560
 2695SOL    HW210465   7.654   2.532   1.020  0.3942  1.4926  0.6496
 2696SOL     OW10466   2.058   3.124   5.682  0.4613  0.5302 -0.0461
 2696SOL    HW110467   2.150   3.124   5.708 -0.0498 -0.7362  2.0589
 2696SOL    HW210468   2.019   3.194   5.736 -0.3181 -0.9896  1.4494
 2697SOL     OW10469   5.261   7.159   6.492  0.4242 -0.4712 -0.1095
 2697SOL    HW110470   5.227   7.124   6.575  0.4681  0.3249  0.2569
 2697SOL    HW210471   5.330   7.219   6.519 -0.3615  0.7019 -0.6533
 2698SOL     OW10472   9.416   9.101   5.676 -0.0814  0.4795  0.0292
 2698SOL    HW110473   9.486   9.115   5.612 -1.3016  2.6993 -0.9340
 2698SOL    HW210474   9.335   9.114   5.626 -1.0963  1.4271  1.8391
 2699SOL     OW10475   7.680   4.849  10.536  0.7791 -0.1535 -0.1718
 2699SOL    HW110476   7.755   4.800  10.570 -0.8648 -2.5702  0.2735
 2699SOL    HW210477   7.677   4.828  10.443 -0.7489 -2.2695  0.2671
 2700SOL     OW10478   0.190  10.714   0.027  0.1731  0.4528 -0.0567
 2700SOL    HW110479   0.118  10.720  -0.036 -0.2506 -0.1305  0.3686
 2700SOL    HW210480   0.149  10.693   0.110  0.8810 -0.5496  0.0657
 2701SOL     OW10481   9.385   9.201   4.386  0.6281  0.9442 -0.2467
 2701SOL    HW110482   9.351   9.259   4.453 -0.9222 -0.0617 -0.1110
 2701SOL    HW210483   9.341   9.228   4.306 -0.2477 -0.1119 -0.1480
 2702SOL     OW10484  10.539   0.521   0.448 -0.2437 -0.5570  0.3731
 2702SOL    HW110485  10.578   0.605   0.472  0.6217 -0.5139 -1.0566
 2702SOL    HW210486  10.566   0.507   0.357 -0.7880 -2.1500  0.4220
 2703SOL     OW10487   0.834  10.285   0.219 -0.1556  0.3299  0.0578
 2703SOL    HW110488   0.918  10.323   0.192  0.6661  0.1209  2.0932
 2703SOL    HW210489   0.769  10.351   0.196  0.6040  0.7281 -1.0856
 2704SOL     OW10490   0.629   1.853   3.532  0.7283  0.0683  0.2693
 2704SOL    HW110491   0.656   1.892   3.616  1.7520 -2.0990  1.0106
 2704SOL    HW210492   0.695   1.884   3.469  0.7775  0.5635  0.5589
 2705SOL     OW10493   1.891   6.649   8.206 -0.9056  0.2056 -0.1966
 2705SOL    HW110494   1.929   6.679   8.124  0.9665 -2.4013 -0.4289
 2705SOL    HW210495   1.880   6.554   8.194  1.6251 -0.7182  3.2239
 2706SOL     OW10496   1.814   4.706   2.208 -0.2638 -0.0972 -0.1905
 2706SOL    HW110497   1.871   4.644   2.163  1.1998  0.3047  0.9972
 2706SOL    HW210498   1.728   4.665   2.207  0.0591 -0.8175 -1.8937
 2707SOL     OW10499   7.171   0.547   6.559 -0.1738  0.0210  0.2044
 2707SOL    HW110500   7.238   0.610   6.585 -1.7545  1.8766  0.0232
 2707SOL    HW210501   7.208   0.462   6.583  1.7692  1.0369  1.0981
 2708SOL     OW10502   6.146   9.425   9.076  0.2770 -0.1607 -0.2475
 2708SOL    HW110503   6.163   9.339   9.036  1.2181  0.2102 -0.6587
 2708SOL    HW210504   6.088   9.405   9.150 -0.4952 -0.9995 -1.0572
 2709SOL     OW10505   2.591   1.844  10.781  0.0747  0.2585 -0.5562
 2709SOL    HW110506   2.506   1.884  10.798 -0.0048 -0.8279  2.0497
 2709SOL    HW210507   2.572   1.768  10.727 -0.3249  1.1508 -1.6977
 2710SOL     OW10508   3.321   9.618   3.457 -0.4213  0.2826 -0.5383
 2710SOL    HW110509   3.396   9.661   3.416 -0.5932  1.4981  0.3657
 2710SOL    HW210510   3.359   9.567   3.529 -0.1328 -1.7561 -2.0582
 2711SOL     OW10511   5.357   8.567   5.648  0.0593 -0.5320  0.2630
 2711SOL    HW110512   5.268   8.603   5.655 -0.5588 -1.3517 -2.1690
 2711SOL    HW210513   5.344   8.474   5.632  1.5825 -1.6778  4.5393
 2712SOL     OW10514   7.750   9.852   8.790  0.3429 -0.2651 -0.3004
 2712SOL    HW110515   7.842   9.825   8.783 -0.1167 -1.5920 -1.7687
 2712SOL    HW210516   7.750   9.920   8.857  2.7797  1.6373 -2.0669
 2713SOL     OW10517  10.164   4.156   1.233 -0.1932 -0.5775 -0.3534
 2713SOL    HW110518  10.095   4.105   1.192 -1.2808 -1.4374  2.3327
 2713SOL    HW210519  10.223   4.090   1.270  1.9195  0.1456 -2.1903
 2714SOL     OW10520   2.102   0.716   0.385 -0.3226  0.5105 -0.4728
 2714SOL    HW110521   2.181   0.770   0.382  1.0923 -1.5201 -1.3096
 2714SOL    HW210522   2.085   0.704   0.478  1.3157 -0.3371 -0.2488
 2715SOL     OW10523   7.658   7.489   9.709  0.1422 -0.3054  0.3449
 2715SOL    HW110524   7.734   7.481   9.652 -0.3854 -1.0675 -0.2758
 2715SOL    HW210525   7.692   7.473   9.797  0.9177  0.6364  0.2316
 2716SOL     OW10526   8.884   2.040   4.252  0.0924 -0.0737 -0.5183
 2716SOL    HW110527   8.951   2.063   4.188 -0.5601  1.0748 -0.8143
 2716SOL    HW210528   8.927   1.978   4.311  0.6080 -1.4489 -2.2717
 2717SOL     OW10529   1.309   4.940   1.933  0.0367 -0.0309 -0.4289
 2717SOL    HW110530   1.356   4.869   1.978  0.6138 -0.0076 -0.9711
 2717SOL    HW210531   1.281   4.999   2.003 -2.5763 -1.9792  0.2891
 2718SOL     OW10532   5.708   8.051   6.940  0.6522 -0.3318 -0.3229
 2718SOL    HW110533   5.797   8.020   6.921  0.6950 -0.0009 -0.6645
 2718SOL    HW210534   5.675   8.084   6.856  0.3850 -0.0072 -0.0951
 2719SOL     OW10535   4.720   5.888  10.663 -0.2523  0.1825 -0.3455
 2719SOL    HW110536   4.686   5.805  10.630  0.6998  0.1354 -1.2899
 2719SOL    HW210537   4.646   5.948  10.660 -1.1632 -0.8141  1.0972
 2720SOL     OW10538   5.359   4.582   9.431 -0.0512 -0.3173  0.4086
 2720SOL    HW110539   5.449   4.611   9.412  0.4611 -1.4237  1.0601
 2720SOL    HW210540   5.304   4.656   9.404  0.7923 -0.6674 -2.6520
 2721SOL     OW10541   5.734   6.797   7.622 -0.2274  0.4378 -0.0575
 2721SOL    HW110542   5.646   6.793   7.659  0.2729 -1.9437  1.0058
 2721SOL    HW210543   5.782   6.856   7.680 -0.1716 -1.1605  1.5934
 2722SOL     OW10544   4.277  10.414   7.948 -0.1298  0.0835 -0.0780
 2722SOL    HW110545   4.338  10.340   7.941  0.9540  0.7593  1.5170
 2722SOL    HW210546   4.226  10.411   7.868  1.7155 -0.8086 -1.2876
 2723SOL     OW10547   5.917   9.812   6.421  0.0413  0.1079  0.0366
 2723SOL    HW110548   5.928   9.795   6.515  0.2049 -1.0749 -0.1729
 2723SOL    HW210549   5.970   9.745   6.379 -0.2054  0.4913 -0.9096
 2724SOL     OW10550   3.514   3.241   6.626 -0.1400  0.2484  0.7898
 2724SOL    HW110551   3.558   3.236   6.711  3.6718  0.2084 -0.9645
 2724SOL    HW210552   3.535   3.329   6.593  0.3015 -0.4556 -0.9301
 2725SOL     OW10553   3.662  10.184   6.426 -0.1871  0.2764  0.3506
 2725SOL    HW110554   3.606  10.243   6.376 -0.1727 -0.2247 -0.2680
 2725SOL    HW210555   3.675  10.108   6.368 -0.8538 -0.6994  1.4326
 2726SOL     OW10556   5.127   7.906   4.210  0.4443 -0.3051 -0.3233
 2726SOL    HW110557   5.126   8.001   4.223 -0.0301 -0.0788 -1.8112
 2726SOL    HW210558   5.220   7.884   4.198  0.5647 -0.0431  0.1285
 2727SOL     OW10559   6.689   8.945   0.709  0.5897 -0.3196  0.3234
 2727SOL    HW110560   6.736   8.861   0.709  0.2345 -0.5370  1.2758
 2727SOL    HW210561   6.733   8.997   0.642  1.3238 -0.9886  0.2620
 2728SOL     OW10562   8.822   4.707   5.444 -0.5583  0.3160 -0.6860
 2728SOL    HW110563   8.732   4.726   5.469 -0.0080 -0.0372  1.8376
 2728SOL    HW210564   8.830   4.612   5.450  0.1691  0.4023 -0.1494
 2729SOL     OW10565   9.724   4.798   2.561  0.3967  0.0662 -0.3779
 2729SOL    HW110566   9.715   4.824   2.469 -1.3674 -0.6807 -0.4547
 2729SOL    HW210567   9.808   4.752   2.564  0.6463  0.4106 -1.5372
 2730SOL     OW10568   2.556   8.630   8.093 -0.1078 -0.5178 -0.2481
 2730SOL    HW110569   2.625   8.581   8.138 -0.3769 -2.4459 -1.7649
 2730SOL    HW210570   2.602   8.680   8.025  0.0591  0.5629  0.6352
 2731SOL     OW10571   9.519   8.693   7.205 -0.0901 -0.4477 -0.4090
 2731SOL    HW110572   9.457   8.683   7.133 -1.1180 -0.8170  0.4877
 2731SOL    HW210573   9.477   8.648   7.279  1.8254 -1.8055 -0.0859
 2732SOL     OW10574   9.409   4.558   3.538  0.4412 -0.2005 -0.1557
 2732SOL    HW110575   9.392   4.561   3.444  1.6090 -0.6305 -0.4059
 2732SOL    HW210576   9.443   4.470   3.553  1.9088  0.4180  0.3492
 2733SOL     OW10577   1.014   1.322   5.691  0.4564  0.5341  0.3832
 2733SOL    HW110578   1.075   1.342   5.620  0.7829  0.4550  0.6390
 2733SOL    HW210579   0.927   1.327   5.650  0.5611  1.8126  0.2862
 2734SOL     OW10580   6.504   9.980   0.716  0.2897  0.0469  0.4592
 2734SOL    HW110581   6.445  10.032   0.770  0.8183  0.0608  1.0242
 2734SOL    HW210582   6.516  10.033   0.636 -0.3308  0.1132  0.4029
 2735SOL     OW10583   0.880  10.238   7.842 -0.0071 -0.1849  0.4554
 2735SOL    HW110584   0.965  10.226   7.884 -0.2801 -1.5090  0.6585
 2735SOL    HW210585   0.854  10.151   7.814 -0.9635  0.3181 -0.2780
 2736SOL     OW10586   1.378   5.827   1.349  0.4447  0.2947  0.6130
 2736SOL    HW110587   1.300   5.772   1.341 -0.9931  2.0066  1.8960
 2736SOL    HW210588   1.450   5.765   1.357 -1.1082 -1.4491  2.1878
 2737SOL     OW10589   3.638   4.317   8.077 -0.0783 -0.8406 -0.1689
 2737SOL    HW110590   3.588   4.381   8.127 -1.6688 -0.9243 -1.5600
 2737SOL    HW210591   3.573   4.272   8.023  1.2994 -2.0949 -0.8623
 2738SOL     OW10592   8.700   7.424   4.439  0.0505 -0.0875  0.0733
 2738SOL    HW110593   8.685   7.447   4.531 -0.5701  1.4045 -0.3608
 2738SOL    HW210594   8.655   7.493   4.390 -1.1887 -1.8390 -1.3770
 2739SOL     OW10595   7.742   1.098  10.096  0.0900 -0.2150  0.2510
 2739SOL    HW110596   7.785   1.138  10.172  1.7050 -1.7189  0.1874
 2739SOL    HW210597   7.707   1.015  10.129  1.0183 -0.9946 -0.6813
 2740SOL     OW10598   6.314   5.933   3.872 -0.4741 -0.0308 -0.2996
 2740SOL    HW110599   6.388   5.885   3.834 -1.8463 -2.1079 -0.5571
 2740SOL    HW210600   6.310   5.904   3.963 -0.7679  0.3154 -0.1993
 2741SOL     OW10601   8.365   5.885   8.468 -0.1250 -0.3180  0.2927
 2741SOL    HW110602   8.304   5.908   8.539 -0.7538  0.4959 -0.4844
 2741SOL    HW210603   8.430   5.955   8.470  0.3448 -0.7627  0.6148
 2742SOL     OW10604   9.376   1.648   6.761 -0.2299 -0.3176 -0.4845
 2742SOL    HW110605   9.444   1.681   6.703 -0.9411  2.9439  0.3000
 2742SOL    HW210606   9.422   1.630   6.843 -0.2105  2.0393  0.1004
 2743SOL     OW10607   3.624   4.420   4.571  0.2766  0.6207  0.1303
 2743SOL    HW110608   3.577   4.396   4.492  1.2139 -0.3264 -0.1675
 2743SOL    HW210609   3.576   4.376   4.642  0.7643 -0.4384 -0.1830
 2744SOL     OW10610   4.997   0.360   5.194 -0.1078  0.2641 -0.3670
 2744SOL    HW110611   4.983   0.438   5.141 -2.1286  0.0533 -0.2348
 2744SOL    HW210612   4.916   0.309   5.183  1.0930 -1.7642 -0.3714
 2745SOL     OW10613   7.364   4.932   1.238  0.4762  0.6659  0.3608
 2745SOL    HW110614   7.329   5.012   1.277 -1.1726  0.1361  0.0341
 2745SOL    HW210615   7.347   4.863   1.302  0.0794  0.2408 -0.1859
 2746SOL     OW10616   5.129   1.407  10.442  0.0178  0.8730  0.4496
 2746SOL    HW110617   5.078   1.374  10.516 -1.8016  0.4146 -0.9186
 2746SOL    HW210618   5.095   1.496  10.429  1.2017  1.4093  0.8964
 2747SOL     OW10619  10.484   8.154   2.585 -0.0114  0.0552  0.7244
 2747SOL    HW110620  10.470   8.103   2.506 -0.3735  1.8807 -0.4459
 2747SOL    HW210621  10.578   8.146   2.602 -0.1652 -1.5065  0.9692
 2748SOL     OW10622   8.056   7.637   2.958  0.1670 -0.7999 -0.0973
 2748SOL    HW110623   8.100   7.636   2.873 -0.0163 -1.2969 -0.1899
 2748SOL    HW210624   8.069   7.726   2.991  0.4608 -0.6810 -0.5291
 2749SOL     OW10625   1.160   6.981   1.620  0.4835 -0.8692  0.6420
 2749SOL    HW110626   1.076   7.025   1.637  0.1220 -0.2549 -2.1376
 2749SOL    HW210627   1.162   6.907   1.680 -0.8397  0.5742  2.5741
 2750SOL     OW10628   4.806   1.060   3.808  0.1851 -0.1556 -0.0529
 2750SOL    HW110629   4.782   1.073   3.900 -2.2711 -2.2084 -0.3238
 2750SOL    HW210630   4.737   1.104   3.759  1.1600  0.4124 -0.9477
 2751SOL     OW10631   3.106   1.805   1.102 -0.4942  0.1514 -0.0889
 2751SOL    HW110632   3.077   1.847   1.022  0.2692  1.4574  0.2944
 2751SOL    HW210633   3.198   1.830   1.111 -0.2039 -1.0480  0.5205
 2752SOL     OW10634  10.610  10.742   2.721 -0.1178  0.6109 -0.1057
 2752SOL    HW110635  10.539  10.712   2.665  0.7460  0.1480 -0.9804
 2752SOL    HW210636  10.613  10.678   2.792  1.6682 -1.4942 -1.9159
 2753SOL     OW10637   5.949   3.430  10.582 -0.4103  0.2651 -0.0599
 2753SOL    HW110638   5.928   3.368  10.652  0.9329 -0.0309  0.1095
 2753SOL    HW210639   5.911   3.513  10.611  1.9007  0.6823  2.1058
 2754SOL     OW10640   6.715   6.348   6.647  0.8739 -0.3049  0.1882
 2754SOL    HW110641   6.756   6.395   6.574  0.5611 -1.0238 -0.4639
 2754SOL    HW210642   6.725   6.255   6.625  0.4973 -0.5273  0.9111
 2755SOL     OW10643   5.681   2.863  10.190  0.4133  0.0572 -0.0278
 2755SOL    HW110644   5.702   2.815  10.111  0.9736  1.6682 -0.9130
 2755SOL    HW210645   5.587   2.852  10.202  0.8000 -2.9866  1.0541
 2756SOL     OW10646   9.706   1.677   2.595 -0.8139  0.1984  0.0388
 2756SOL    HW110647   9.794   1.679   2.632 -0.7254  3.1663 -0.0765
 2756SOL    HW210648   9.661   1.607   2.643  2.1465 -3.0494 -1.4943
 2757SOL     OW10649   7.376   3.643   9.416  0.1015  0.2617  0.5532
 2757SOL    HW110650   7.403   3.694   9.492  1.3617  0.4629 -0.0034
 2757SOL    HW210651   7.442   3.663   9.349 -0.4339 -0.6615 -0.2779
 2758SOL     OW10652   6.995   5.490   4.369 -0.4771 -0.0549  0.3204
 2758SOL    HW110653   6.917   5.458   4.323 -0.2058  0.0782 -0.2535
 2758SOL    HW210654   7.049   5.528   4.299 -0.5255  1.1105  0.8861
 2759SOL     OW10655   0.626   5.565   1.399  0.2856  0.4581 -0.0413
 2759SOL    HW110656   0.541   5.597   1.432  2.4929  3.5631  3.4290
 2759SOL    HW210657   0.649   5.628   1.330 -0.2290 -0.5278 -1.1539
 2760SOL     OW10658  10.007   5.069  10.480 -0.4660 -0.1071  0.7401
 2760SOL    HW110659  10.067   5.103  10.414 -0.5296  0.3264  0.9025
 2760SOL    HW210660   9.932   5.129  10.476 -2.2119 -2.2299 -1.4912
 2761SOL     OW10661   5.292  10.421   4.502 -0.0392 -0.1082 -0.1599
 2761SOL    HW110662   5.342  10.349   4.542 -0.3305 -0.1043  0.2166
 2761SOL    HW210663   5.329  10.500   4.540  1.2644  0.0576 -1.6449
 2762SOL     OW10664   2.449   3.818   7.484  0.6488  0.0505 -0.1979
 2762SOL    HW110665   2.498   3.815   7.566  2.1041 -0.7110 -1.0437
 2762SOL    HW210666   2.434   3.726   7.462  0.8185  0.2272 -1.0876
 2763SOL     OW10667   8.731   9.950   6.470 -0.0947 -0.3199 -0.5929
 2763SOL    HW110668   8.710  10.043   6.478  1.2891  0.0170 -0.5973
 2763SOL    HW210669   8.799   9.935   6.536  1.7506 -0.6376 -2.4618
 2764SOL     OW10670   6.811   8.510   8.489  0.0393  0.0269 -0.1192
 2764SOL    HW110671   6.877   8.458   8.536  2.8396  2.0643 -1.4799
 2764SOL    HW210672   6.853   8.533   8.406 -3.0203  0.2519 -1.7519
 2765SOL     OW10673   1.201   8.874   2.360 -0.1159 -0.2479  0.2016
 2765SOL    HW110674   1.253   8.947   2.327  0.4366  0.4377  2.4000
 2765SOL    HW210675   1.263   8.822   2.411 -1.1574 -0.4895  1.2681
 2766SOL     OW10676   9.517   5.415   4.126  0.3019  0.0983  0.2165
 2766SOL    HW110677   9.468   5.412   4.044  0.4771 -3.2193  0.1174
 2766SOL    HW210678   9.608   5.426   4.098  0.2299  0.2823  0.0514
 2767SOL     OW10679   3.301   9.307  10.091  0.2286 -0.3518 -0.0984
 2767SOL    HW110680   3.284   9.235  10.151 -1.1843 -1.3771 -1.6653
 2767SOL    HW210681   3.397   9.309  10.083  0.5923  0.6925  3.1351
 2768SOL     OW10682   3.089   8.568   2.292  0.0970 -0.1619  0.4316
 2768SOL    HW110683   3.129   8.649   2.322 -0.2462 -0.1170  0.7718
 2768SOL    HW210684   3.162   8.506   2.286  0.2695  0.0134  0.7103
 2769SOL     OW10685   9.212   6.655   4.457 -0.2698 -0.4205 -0.2136
 2769SOL    HW110686   9.261   6.587   4.411  2.7099  0.0577  1.9043
 2769SOL    HW210687   9.222   6.632   4.550  0.0126  2.3243  0.5218
 2770SOL     OW10688   2.068   3.267   4.816 -0.0108  0.5108  0.4021
 2770SOL    HW110689   2.012   3.198   4.851 -1.2034  1.2793  0.0648
 2770SOL    HW210690   2.031   3.348   4.851 -0.1129  1.1562 -1.1346
 2771SOL     OW10691   2.153   4.286   3.297 -0.0887 -0.3773  0.6687
 2771SOL    HW110692   2.183   4.276   3.207 -2.0985 -0.3767 -0.0593
 2771SOL    HW210693   2.174   4.377   3.320  1.9114 -0.8491  0.8180
 2772SOL     OW10694   0.731   1.346  10.022 -0.0366 -0.4003  0.1043
 2772SOL    HW110695   0.780   1.272   9.985 -0.8836 -0.7112 -0.4298
 2772SOL    HW210696   0.778   1.423   9.992 -0.5025 -0.6548 -1.3878
 2773SOL     OW10697   1.311   7.317   0.247 -0.4141  0.7277 -0.1831
 2773SOL    HW110698   1.242   7.257   0.219 -0.2820  0.7139 -0.4771
 2773SOL    HW210699   1.278   7.404   0.222  0.5459  0.5731 -2.1628
 2774SOL     OW10700   2.382   3.291   4.927 -0.4357 -0.2194  0.6308
 2774SOL    HW110701   2.287   3.301   4.941 -0.9126 -2.1588 -0.7667
 2774SOL    HW210702   2.389   3.214   4.870  1.9941 -0.0272  0.6007
 2775SOL     OW10703   9.152   6.521   9.758 -0.2214 -0.2422  0.3216
 2775SOL    HW110704   9.103   6.481   9.830 -1.6073 -0.7723 -0.8644
 2775SOL    HW210705   9.088   6.530   9.688  1.2886 -0.5571 -1.1588
 2776SOL     OW10706   6.784   1.724   1.670  0.3675 -0.1591  0.5476
 2776SOL    HW110707   6.823   1.679   1.745  2.7877  0.5000 -0.2216
 2776SOL    HW210708   6.856   1.773   1.632 -1.3553  1.4165 -0.8354
 2777SOL     OW10709   9.707  10.154   6.116  0.1143  0.2877  0.0307
 2777SOL    HW110710   9.780  10.095   6.092  0.3358  0.0273  1.2880
 2777SOL    HW210711   9.740  10.204   6.190 -1.4933 -0.9416  1.6794
 2778SOL     OW10712   6.478   0.414  10.545 -0.0735 -0.4400 -0.6371
 2778SOL    HW110713   6.561   0.368  10.532 -0.1944 -0.8629  0.0584
 2778SOL    HW210714   6.499   0.485  10.607 -0.5073 -1.4085  0.6633
 2779SOL     OW10715   2.906   7.285   0.375  0.0503  0.1462 -0.3304
 2779SOL    HW110716   2.962   7.292   0.298 -0.8432 -1.6627 -1.2238
 2779SOL    HW210717   2.961   7.245   0.442 -0.5616 -3.5833 -1.8289
 2780SOL     OW10718   6.846   4.526   2.350 -0.0227 -0.1301  0.2463
 2780SOL    HW110719   6.797   4.467   2.406 -0.1940 -0.7169 -0.5074
 2780SOL    HW210720   6.792   4.535   2.271  0.7177 -0.1732 -0.2748
 2781SOL     OW10721  10.254   5.404   2.814 -0.2724  0.1487 -0.2068
 2781SOL    HW110722  10.302   5.414   2.896  0.9586  0.0561 -0.9029
 2781SOL    HW210723  10.278   5.480   2.762 -0.9415  0.1362 -0.5441
 2782SOL     OW10724   6.611   2.284   3.487 -0.0895  0.0674  0.6370
 2782SOL    HW110725   6.580   2.373   3.471 -0.7820 -0.2826 -0.0297
 2782SOL    HW210726   6.702   2.285   3.460  0.1381  0.7729  1.3861
 2783SOL     OW10727   3.296   9.218   8.757 -0.3687 -0.2859 -0.7086
 2783SOL    HW110728   3.379   9.215   8.710  0.3980  0.8084  0.4924
 2783SOL    HW210729   3.321   9.238   8.848 -1.9652  0.5048 -0.4091
 2784SOL     OW10730   2.768   6.375   4.709 -0.6052  0.4905  0.5145
 2784SOL    HW110731   2.833   6.316   4.671 -0.6029  0.8960 -0.1218
 2784SOL    HW210732   2.813   6.458   4.718 -0.7093  0.4863  1.1065
 2785SOL     OW10733   0.896   5.157  10.567 -0.1977  0.1652  0.0794
 2785SOL    HW110734   0.889   5.062  10.581  0.5431 -0.2735 -2.1470
 2785SOL    HW210735   0.940   5.189  10.646 -0.4219 -1.3460  0.8644
 2786SOL     OW10736  10.198   9.633   9.585 -0.0678 -0.5662 -0.5544
 2786SOL    HW110737  10.189   9.539   9.569  0.3064 -0.7415  0.2168
 2786SOL    HW210738  10.186   9.673   9.499  0.1223 -1.3453 -0.9523
 2787SOL     OW10739   9.901   2.887   1.770 -0.6079  0.0534 -0.1954
 2787SOL    HW110740   9.835   2.889   1.839  1.0869 -0.6257  1.5502
 2787SOL    HW210741   9.977   2.847   1.812  0.6747  0.1294 -2.3331
 2788SOL     OW10742  10.729   8.824   0.655 -0.6709  0.2759 -0.1999
 2788SOL    HW110743  10.703   8.814   0.747 -1.3659 -2.3491 -0.6103
 2788SOL    HW210744  10.721   8.919   0.639 -1.1420  0.7342  2.2454
 2789SOL     OW10745   3.182   0.539   4.808 -0.1743 -0.4300  0.6261
 2789SOL    HW110746   3.103   0.537   4.863  0.8794 -0.0363  2.2131
 2789SOL    HW210747   3.190   0.630   4.782 -0.0968 -0.4235  0.6742
 2790SOL     OW10748   8.714   1.144   1.414 -0.0897 -0.1307 -0.1005
 2790SOL    HW110749   8.755   1.180   1.493 -1.9619  0.2857  0.7421
 2790SOL    HW210750   8.781   1.151   1.347  0.7122  1.9766  0.8268
 2791SOL     OW10751   5.184   7.499   8.740 -0.2766 -0.0702  0.3472
 2791SOL    HW110752   5.107   7.442   8.743 -0.5551  0.3352  1.1887
 2791SOL    HW210753   5.243   7.463   8.806 -0.5008  0.6737  0.9614
 2792SOL     OW10754   1.601   9.937   4.186  0.1449 -0.0485 -0.4399
 2792SOL    HW110755   1.555   9.907   4.265 -0.8907 -2.7476 -1.9240
 2792SOL    HW210756   1.685   9.891   4.189 -0.0322 -0.4282 -1.0252
 2793SOL     OW10757   5.106   1.105   7.557  0.5792  0.1994 -0.4638
 2793SOL    HW110758   5.043   1.044   7.519 -0.6961  0.6298  0.8849
 2793SOL    HW210759   5.123   1.169   7.487 -2.5609  1.6278 -0.0818
 2794SOL     OW10760   2.305   1.033   8.974 -0.2163  0.3414  0.2223
 2794SOL    HW110761   2.393   0.999   8.989  0.6637  2.0222 -0.8795
 2794SOL    HW210762   2.281   1.074   9.057 -0.6863 -1.5597  1.0738
 2795SOL     OW10763   4.012   1.414   9.525 -0.4469 -0.3503  0.6097
 2795SOL    HW110764   4.015   1.479   9.595  1.4719 -0.4566  0.6578
 2795SOL    HW210765   4.072   1.448   9.459  0.2693 -1.8773  0.4560
 2796SOL     OW10766   3.922   1.245   8.701 -0.5521 -0.6848  0.4537
 2796SOL    HW110767   3.913   1.176   8.636 -0.0474 -0.9534  0.6618
 2796SOL    HW210768   3.906   1.202   8.785  0.9104 -0.8183  0.6866
 2797SOL     OW10769  10.625   3.282   2.704 -0.0518  0.6340 -0.0756
 2797SOL    HW110770  10.706   3.256   2.747 -0.6633  1.4012  1.6441
 2797SOL    HW210771  10.557   3.230   2.746 -0.9763  3.0910  1.7009
 2798SOL     OW10772   5.282  10.322   9.778 -0.3900 -0.1912 -0.0751
 2798SOL    HW110773   5.353  10.340   9.716 -1.7984 -1.4276 -2.1872
 2798SOL    HW210774   5.323  10.268   9.846  0.8387 -0.3854 -0.9288
 2799SOL     OW10775   1.599   9.713   4.881  0.4291  0.1829  0.5718
 2799SOL    HW110776   1.539   9.642   4.904  0.8492 -0.0909  0.8366
 2799SOL    HW210777   1.617   9.701   4.788  1.6267 -0.9322  0.9232
 2800SOL     OW10778   7.377   8.483   7.535 -0.5084  0.2309 -0.1091
 2800SOL    HW110779   7.379   8.398   7.579 -0.1107  1.1047  1.6760
 2800SOL    HW210780   7.469   8.510   7.531 -0.3757 -0.3547 -2.7021
 2801SOL     OW10781   9.831   8.095   8.224  0.0248 -0.0967  0.2365
 2801SOL    HW110782   9.915   8.066   8.259  0.6365  1.6023  0.2925
 2801SOL    HW210783   9.800   8.159   8.288 -1.4013 -0.7986  0.2886
 2802SOL     OW10784   8.053  10.054   3.624  0.8301  0.7541 -0.4821
 2802SOL    HW110785   8.072  10.037   3.716 -0.3556 -0.3993 -0.4182
 2802SOL    HW210786   7.967  10.096   3.624  0.8323  0.7748 -1.0583
 2803SOL     OW10787   3.588   3.084   9.236  0.2102  0.3209 -0.8538
 2803SOL    HW110788   3.550   3.045   9.157 -0.3784 -0.3179 -0.2611
 2803SOL    HW210789   3.513   3.117   9.285  0.4822 -0.1743 -0.0910
 2804SOL     OW10790   1.698   9.970   6.654  0.3519  0.7286  0.1645
 2804SOL    HW110791   1.740   9.993   6.737  0.5721  0.6495  0.0741
 2804SOL    HW210792   1.633   9.904   6.678  0.4664  0.6516  0.2626
 2805SOL     OW10793   3.241   7.349   4.500 -0.1882  0.3713  0.1160
 2805SOL    HW110794   3.226   7.344   4.406  0.6157  0.4412 -0.0226
 2805SOL    HW210795   3.256   7.442   4.517  3.7032 -0.0015 -0.3793
 2806SOL     OW10796   2.547   9.002   6.529 -0.1383  0.2931  0.2692
 2806SOL    HW110797   2.482   9.067   6.554 -0.0464  0.0706  1.1443
 2806SOL    HW210798   2.503   8.918   6.540  0.0572  0.1734  0.1479
 2807SOL     OW10799   0.484   9.205   9.113  0.3981  0.1064 -0.0554
 2807SOL    HW110800   0.468   9.111   9.101  1.6037 -0.1102 -0.1243
 2807SOL    HW210801   0.425   9.230   9.184 -0.9859 -0.3671 -0.9871
 2808SOL     OW10802   3.195   8.859   3.535 -0.2864 -0.4893 -0.4276
 2808SOL    HW110803   3.151   8.884   3.616 -2.0843 -2.5689 -0.6849
 2808SOL    HW210804   3.220   8.767   3.549  1.6375 -0.1505 -1.3230
 2809SOL     OW10805   1.611   3.569   2.545  0.3774  0.0395  0.0436
 2809SOL    HW110806   1.653   3.504   2.602 -1.0356 -0.5232  0.4871
 2809SOL    HW210807   1.549   3.518   2.493  0.9464  0.7042 -1.3228
 2810SOL     OW10808   0.444   2.359   3.278 -0.2420  0.1843 -0.2910
 2810SOL    HW110809   0.520   2.373   3.334 -1.1107 -3.8289  2.3121
 2810SOL    HW210810   0.385   2.432   3.300  1.6195  1.7270 -0.1710
 2811SOL     OW10811   1.698   6.115   9.647 -0.0545 -0.0502  0.5020
 2811SOL    HW110812   1.684   6.038   9.592  0.8413 -0.4387  0.8050
 2811SOL    HW210813   1.788   6.142   9.629 -0.1134  0.4735  0.9625
 2812SOL     OW10814   5.517  10.736   4.316 -0.2053 -0.2502  0.2652
 2812SOL    HW110815   5.488  10.645   4.316 -0.8944 -0.0396  1.1414
 2812SOL    HW210816   5.457  10.780   4.376 -0.1145  0.8642 -0.4538
 2813SOL     OW10817   5.281  10.643   8.457 -0.5268 -0.2157  0.1243
 2813SOL    HW110818   5.354  10.598   8.500 -1.2051 -1.1546  0.3276
 2813SOL    HW210819   5.282  10.609   8.367 -1.2667 -0.9347  0.3778
 2814SOL     OW10820   3.141   9.465   3.692 -0.2532  0.4443  0.2160
 2814SOL    HW110821   3.096   9.403   3.750 -0.9300  1.6599  1.0283
 2814SOL    HW210822   3.230   9.470   3.727 -0.3797  0.4170  0.5470
 2815SOL     OW10823   7.369   3.602   7.746 -1.3014  0.7687 -0.4056
 2815SOL    HW110824   7.344   3.658   7.672  0.0361  2.2165  0.1705
 2815SOL    HW210825   7.447   3.556   7.715  0.4857  2.8729  0.6708
 2816SOL     OW10826   4.882   5.513   2.534  0.5628  0.1027  0.7088
 2816SOL    HW110827   4.940   5.512   2.458 -0.1841  0.6038  0.1176
 2816SOL    HW210828   4.875   5.421   2.559  0.5815 -0.1035 -0.0185
 2817SOL     OW10829   2.578   3.251   6.672 -0.3045  0.0247  0.0257
 2817SOL    HW110830   2.631   3.282   6.599  0.4152 -0.9054  0.1309
 2817SOL    HW210831   2.489   3.278   6.651  0.2330  1.9276  0.0076
 2818SOL     OW10832   5.777   6.831   8.807 -0.1386 -0.0486  0.2353
 2818SOL    HW110833   5.754   6.902   8.867  0.9270 -0.5713  1.3161
 2818SOL    HW210834   5.868   6.848   8.784 -0.1861 -0.5052 -0.3011
 2819SOL     OW10835  10.606   1.007   1.725 -0.0480 -0.0388  0.0105
 2819SOL    HW110836  10.644   1.075   1.669  1.8175 -0.1634  1.0486
 2819SOL    HW210837  10.676   0.985   1.787 -1.6818 -0.6659  1.7043
 2820SOL     OW10838   3.838   9.128   6.969  0.4899  0.5326  0.0744
 2820SOL    HW110839   3.848   9.036   6.993  0.8631  0.5634  0.0459
 2820SOL    HW210840   3.756   9.155   7.011  0.2414  0.1201 -0.1399
 2821SOL     OW10841   0.552  10.010   9.519 -0.2158  0.5489 -0.6940
 2821SOL    HW110842   0.476  10.040   9.470  0.5423  3.8942 -0.1012
 2821SOL    HW210843   0.522  10.005   9.610  0.0507  1.0141 -0.5790
 2822SOL     OW10844   8.674  10.208   6.010 -0.1175  0.2973 -0.2152
 2822SOL    HW110845   8.686  10.186   5.917 -0.9150 -0.1955 -0.2030
 2822SOL    HW210846   8.763  10.225   6.041  0.1265  0.8880 -1.1689
 2823SOL     OW10847   8.300   2.211   2.491 -0.4761 -0.0263 -0.0088
 2823SOL    HW110848   8.348   2.284   2.531 -0.7245 -0.3710  0.9472
 2823SOL    HW210849   8.365   2.141   2.483 -0.6530 -0.2761  0.6867
 2824SOL     OW10850   9.027   5.272   3.052 -0.5638  0.5577 -0.2294
 2824SOL    HW110851   9.098   5.222   3.012 -0.1621  0.7208  0.2601
 2824SOL    HW210852   9.067   5.357   3.072 -0.8639  0.6068  0.1626
 2825SOL     OW10853   3.514   1.620   3.246 -0.1068 -0.6431 -0.3965
 2825SOL    HW110854   3.513   1.709   3.211  0.9800 -1.1903 -1.9181
 2825SOL    HW210855   3.554   1.628   3.333 -0.8981  0.4581 -0.1125
 2826SOL     OW10856   9.216   6.733   8.828 -0.5505  0.4622 -0.3927
 2826SOL    HW110857   9.200   6.819   8.867  2.0128  0.3235  1.2127
 2826SOL    HW210858   9.288   6.697   8.880  0.5253 -1.3777 -2.9736
 2827SOL     OW10859   0.625   0.933  10.228 -0.4517  0.2270  0.1475
 2827SOL    HW110860   0.651   0.982  10.306 -0.2469  0.3743 -0.0119
 2827SOL    HW210861   0.532   0.912  10.242 -0.1373 -0.7217  0.9385
 2828SOL     OW10862   8.415   8.462   4.207  0.6751 -0.3116  0.0646
 2828SOL    HW110863   8.410   8.367   4.195 -0.8143 -0.7165  2.9153
 2828SOL    HW210864   8.341   8.497   4.158 -0.0975 -0.8951  0.7852
 2829SOL     OW10865   6.995   9.637   6.596 -0.1537  0.3475  0.2080
 2829SOL    HW110866   6.938   9.694   6.647 -0.8328 -0.4364  0.3489
 2829SOL    HW210867   7.069   9.692   6.572  0.3793  0.6356  2.3622
 2830SOL     OW10868   7.152   1.077   4.424 -0.2756  0.0085 -0.2041
 2830SOL    HW110869   7.135   1.072   4.518 -0.6298  0.7861 -0.2161
 2830SOL    HW210870   7.230   1.131   4.417 -1.1047  1.2264 -0.4086
 2831SOL     OW10871   1.236   2.836  10.299  0.4196  0.1193 -0.4427
 2831SOL    HW110872   1.241   2.904  10.366 -0.6065  0.0632 -0.2814
 2831SOL    HW210873   1.193   2.762  10.343 -0.1504  0.0343 -1.1064
 2832SOL     OW10874   7.277   8.951   5.465  0.0057 -0.0181  0.1068
 2832SOL    HW110875   7.261   9.045   5.461 -0.0617 -0.0122  0.5245
 2832SOL    HW210876   7.359   8.939   5.417  0.1061  0.2756  0.2026
 2833SOL     OW10877   3.735   2.775   1.666  0.0457  0.4992 -0.3409
 2833SOL    HW110878   3.668   2.808   1.726  0.8745  2.0194 -0.2143
 2833SOL    HW210879   3.766   2.694   1.708  0.2403  1.2507  1.0305
 2834SOL     OW10880   0.872   4.288   7.683 -0.1343  0.0837 -0.4986
 2834SOL    HW110881   0.803   4.326   7.739 -0.7977  1.3636 -2.1076
 2834SOL    HW210882   0.954   4.321   7.720 -0.5234  0.3879  0.1103
 2835SOL     OW10883   4.692   2.055   3.182 -0.1832 -0.4033  0.2236
 2835SOL    HW110884   4.781   2.087   3.195  0.3914 -1.4298 -0.9447
 2835SOL    HW210885   4.643   2.132   3.153  0.2778  0.2000  1.0004
 2836SOL     OW10886   8.959   4.096   0.394 -0.7589  0.3993 -0.0967
 2836SOL    HW110887   9.022   4.056   0.454 -1.2369  0.7069  0.6187
 2836SOL    HW210888   9.013   4.140   0.328 -0.2095 -1.4450 -0.9565
 2837SOL     OW10889   7.642   3.366   3.424 -0.1019 -0.2483  0.7244
 2837SOL    HW110890   7.697   3.314   3.365  1.6601  1.2153  0.9871
 2837SOL    HW210891   7.599   3.300   3.479  3.3862 -1.5440  2.2414
 2838SOL     OW10892   2.504   9.598   0.509  0.3246  0.4258  0.4046
 2838SOL    HW110893   2.417   9.631   0.534 -0.1396 -0.5630  0.1402
 2838SOL    HW210894   2.554   9.598   0.591  0.0425  0.8924  0.5819
 2839SOL     OW10895   4.434   9.688   9.650 -0.1893  0.6183 -0.0338
 2839SOL    HW110896   4.499   9.697   9.580 -1.2018  1.0984 -0.9355
 2839SOL    HW210897   4.486   9.670   9.728  1.0312  0.9811 -0.7320
 2840SOL     OW10898   6.614  10.262   8.656 -0.1599 -0.2850  0.5184
 2840SOL    HW110899   6.570  10.342   8.626  0.2851  0.9755  2.9080
 2840SOL    HW210900   6.644  10.219   8.576 -2.0935  0.9327 -0.9618
 2841SOL     OW10901   0.960   8.830   1.449 -0.0441 -0.5064 -0.2536
 2841SOL    HW110902   0.876   8.789   1.468  0.8179 -2.1492  0.1739
 2841SOL    HW210903   0.951   8.920   1.481 -1.5713 -0.7041 -0.0732
 2842SOL     OW10904   3.047   0.714   3.204 -0.3897 -0.3371 -0.0945
 2842SOL    HW110905   3.099   0.792   3.183  2.0393 -1.4574  1.4001
 2842SOL    HW210906   3.055   0.658   3.126  2.0845 -1.1660  0.6771
 2843SOL     OW10907   2.414   8.477   4.856 -0.1333 -0.0177  0.2405
 2843SOL    HW110908   2.453   8.553   4.813 -1.3313  1.2129  1.2628
 2843SOL    HW210909   2.332   8.509   4.892 -0.4583 -1.6966  1.0951
 2844SOL     OW10910   7.067   9.532   7.890  0.2127 -0.6025 -0.5359
 2844SOL    HW110911   7.126   9.462   7.860  1.9854  0.5443  0.0685
 2844SOL    HW210912   6.988   9.487   7.919  0.4781 -2.1605 -2.0977
 2845SOL     OW10913   0.152   2.652   5.882  0.8227  0.0296  0.1623
 2845SOL    HW110914   0.199   2.670   5.800  0.4064  1.9801  0.3036
 2845SOL    HW210915   0.071   2.610   5.854  1.8266 -1.7401 -0.2060
 2846SOL     OW10916   4.262   3.791   5.185 -0.1412 -0.3204 -0.6213
 2846SOL    HW110917   4.250   3.736   5.262 -0.2405 -0.0276 -0.4273
 2846SOL    HW210918   4.203   3.865   5.199  0.9478  0.4973 -0.2572
 2847SOL     OW10919  10.121   0.770   0.970 -0.3233 -0.3624 -0.5953
 2847SOL    HW110920  10.169   0.718   0.905  2.8395  0.4343  0.9233
 2847SOL    HW210921  10.140   0.727   1.053 -1.2333  0.7563  0.2138
 2848SOL     OW10922   5.790   4.096   8.306  0.3027  0.1604  0.3345
 2848SOL    HW110923   5.776   4.002   8.315  0.4382  0.0099 -0.8801
 2848SOL    HW210924   5.866   4.114   8.361  0.9292 -0.6405 -0.2398
 2849SOL     OW10925   1.830   9.682   3.370  0.1862 -0.6373 -0.1155
 2849SOL    HW110926   1.879   9.614   3.417  1.9725  0.6755  0.0152
 2849SOL    HW210927   1.898   9.735   3.328 -1.1332  1.3722  0.2022
 2850SOL     OW10928   9.737  10.554   8.774 -0.5585 -0.2045 -0.2942
 2850SOL    HW110929   9.712  10.618   8.707 -1.9914 -0.1931  0.2312
 2850SOL    HW210930   9.754  10.606   8.852  0.2492 -0.3011 -0.3982
 2851SOL     OW10931   4.409   4.106  10.560  0.0762  0.0358 -0.2150
 2851SOL    HW110932   4.427   4.133  10.470  0.8013 -0.2237 -0.1623
 2851SOL    HW210933   4.389   4.187  10.607  1.7888  0.4637 -0.1489
 2852SOL     OW10934  10.366   4.381   0.798  0.5320 -0.1857 -0.2319
 2852SOL    HW110935  10.425   4.350   0.866  0.0084  2.4740  1.5851
 2852SOL    HW210936  10.363   4.476   0.809 -0.6185  0.2494 -3.1553
 2853SOL     OW10937   9.430   6.871   3.634 -0.4964  0.3641 -0.6894
 2853SOL    HW110938   9.456   6.832   3.551 -0.2318  0.0560 -0.4679
 2853SOL    HW210939   9.390   6.799   3.683 -0.9661  0.6232 -0.6793
 2854SOL     OW10940   9.331  10.363   2.994 -0.2326  0.3515 -0.2087
 2854SOL    HW110941   9.306  10.274   3.016  0.3600 -0.2517 -1.8116
 2854SOL    HW210942   9.420  10.355   2.960  0.9464  1.9578  2.2141
 2855SOL     OW10943   4.718   6.276   4.344 -0.3002 -0.3215  0.3836
 2855SOL    HW110944   4.792   6.264   4.404  1.8221  2.0638 -1.5296
 2855SOL    HW210945   4.676   6.356   4.375 -1.3088 -0.9276  0.6323
 2856SOL     OW10946   4.244   7.848   5.336 -0.1456  0.7732 -0.2563
 2856SOL    HW110947   4.276   7.780   5.277 -0.1941  0.3024  0.2567
 2856SOL    HW210948   4.153   7.825   5.352 -0.0027  0.6242  0.3761
 2857SOL     OW10949   1.171   3.791   7.029 -0.8451 -0.3791 -0.5532
 2857SOL    HW110950   1.128   3.731   6.968 -1.4020  0.2741 -0.8176
 2857SOL    HW210951   1.114   3.868   7.030 -1.5427 -0.8514  1.7464
 2858SOL     OW10952   9.902   6.385   0.234  0.1732  0.0914 -0.3308
 2858SOL    HW110953   9.968   6.414   0.297 -0.1083  0.8164 -0.3565
 2858SOL    HW210954   9.912   6.445   0.160 -0.1338 -0.1573 -0.5770
 2859SOL     OW10955   5.787   1.165   5.609 -0.6126 -0.1279 -0.0880
 2859SOL    HW110956   5.867   1.185   5.561  0.4237 -1.4369  1.0402
 2859SOL    HW210957   5.764   1.246   5.654  0.8644 -0.1113  0.6734
 2860SOL     OW10958   9.440   7.243   0.547 -0.4319 -0.3776 -0.3366
 2860SOL    HW110959   9.486   7.324   0.569 -0.3215 -0.1536 -1.3636
 2860SOL    HW210960   9.349   7.259   0.571 -0.1144 -0.6182  1.1706
 2861SOL     OW10961   3.528   9.337   0.818 -0.2948 -0.3623 -1.1280
 2861SOL    HW110962   3.454   9.330   0.878  1.1977 -2.3764  0.6313
 2861SOL    HW210963   3.527   9.256   0.768  1.6071 -1.2371  0.1129
 2862SOL     OW10964   1.150   3.290   6.480  0.2359 -0.0388 -0.3120
 2862SOL    HW110965   1.165   3.365   6.423  0.2368  0.6204  0.5484
 2862SOL    HW210966   1.212   3.300   6.551 -0.1838 -0.5306  0.1325
 2863SOL     OW10967   4.314   3.016   8.191 -0.1443  0.0717  0.1410
 2863SOL    HW110968   4.321   2.946   8.126 -0.2571 -0.3796  0.6062
 2863SOL    HW210969   4.396   3.064   8.183 -0.6393  0.7471 -1.1403
 2864SOL     OW10970   4.560   1.487  10.264 -0.2576 -0.0822 -0.5291
 2864SOL    HW110971   4.576   1.437  10.345  0.5706 -2.4672 -2.0334
 2864SOL    HW210972   4.469   1.467  10.241  0.0951 -1.0675 -1.1692
 2865SOL     OW10973   1.492   6.345   5.296 -0.6054  0.1612 -0.3004
 2865SOL    HW110974   1.511   6.274   5.357 -2.0465  1.1463  1.4087
 2865SOL    HW210975   1.573   6.395   5.291 -0.2213 -0.4034  0.1910
 2866SOL     OW10976   1.385   0.596   3.288  0.1160  0.8355  0.8431
 2866SOL    HW110977   1.419   0.641   3.210 -1.9945  0.7263 -0.2167
 2866SOL    HW210978   1.381   0.665   3.355  0.8310  1.2092  0.5198
 2867SOL     OW10979   2.321   6.640  10.772 -0.2174 -0.5631 -0.0462
 2867SOL    HW110980   2.323   6.632  10.867 -0.0258 -0.1727 -0.0150
 2867SOL    HW210981   2.314   6.550  10.740 -1.6376 -0.6142  0.3700
 2868SOL     OW10982   5.753   1.610   7.802  0.1017 -0.3643  0.0262
 2868SOL    HW110983   5.819   1.666   7.844  0.0985 -0.1851 -0.2012
 2868SOL    HW210984   5.681   1.607   7.865  1.0864 -2.1285  1.1175
 2869SOL     OW10985   4.804   2.520   5.616  0.0853  0.3291 -0.4512
 2869SOL    HW110986   4.729   2.569   5.582 -0.0068  0.9598  0.6388
 2869SOL    HW210987   4.855   2.584   5.666 -0.7131 -0.9089  2.1064
 2870SOL     OW10988   3.957   0.008   4.451 -0.4060 -0.1589 -0.8727
 2870SOL    HW110989   3.997   0.093   4.431  0.9559 -0.1203  1.5900
 2870SOL    HW210990   3.865   0.029   4.469 -0.1415  0.7661 -0.5347
 2871SOL     OW10991   3.431   7.318   1.373  0.1475  0.0601  1.0884
 2871SOL    HW110992   3.356   7.335   1.315  1.2874  1.5598 -0.0275
 2871SOL    HW210993   3.459   7.229   1.351  1.1483  0.9190 -1.4654
 2872SOL     OW10994   2.631   0.527   1.642  0.5428  0.5323 -0.3339
 2872SOL    HW110995   2.594   0.553   1.557  0.4333 -0.0307 -0.4574
 2872SOL    HW210996   2.562   0.546   1.705  0.5432  0.7408 -0.3924
 2873SOL     OW10997   4.760   6.355   9.770 -0.6133 -0.5406 -0.8890
 2873SOL    HW110998   4.849   6.381   9.794 -0.4415 -0.9765 -1.0420
 2873SOL    HW210999   4.756   6.261   9.789 -0.2195 -1.0934 -3.2356
 2874SOL     OW11000   6.615   7.389   8.489 -0.9036  0.1944  0.0104
 2874SOL    HW111001   6.653   7.302   8.498 -0.8188 -0.1036 -2.4827
 2874SOL    HW211002   6.522   7.377   8.511 -1.3994 -1.1018 -2.4420
 2875SOL     OW11003   4.631   9.238   0.820 -0.0552  0.6007  0.5713
 2875SOL    HW111004   4.549   9.191   0.833  1.0476 -0.7565  3.8509
 2875SOL    HW211005   4.687   9.177   0.772  0.3578 -0.3110  2.1257
 2876SOL     OW11006   7.443   8.896   6.278  0.3429  0.2355  0.4938
 2876SOL    HW111007   7.362   8.934   6.313 -0.5722 -1.1675  0.0053
 2876SOL    HW211008   7.492   8.868   6.355  0.7559  1.7917  0.8337
 2877SOL     OW11009   2.465   2.286   3.590  0.7569 -0.5556  0.6689
 2877SOL    HW111010   2.518   2.362   3.566 -1.4687  0.7510 -0.4251
 2877SOL    HW211011   2.487   2.220   3.524  0.6425  0.1600 -0.1033
 2878SOL     OW11012   3.418  10.694   8.322  0.1474 -0.1358  0.6140
 2878SOL    HW111013   3.418  10.721   8.231  0.0836  1.3055  1.0034
 2878SOL    HW211014   3.494  10.737   8.360  0.7445 -1.5148  1.0405
 2879SOL     OW11015   8.341   8.901   0.420  0.4316  0.3799 -0.5555
 2879SOL    HW111016   8.340   8.924   0.327 -0.9351  2.9202 -0.0025
 2879SOL    HW211017   8.293   8.818   0.424 -1.2129  1.1979 -1.9415
 2880SOL     OW11018  10.284   5.475   5.389 -0.0716 -0.0335 -0.0935
 2880SOL    HW111019  10.275   5.569   5.404 -1.9421 -0.1246 -0.2916
 2880SOL    HW211020  10.323   5.441   5.469 -1.6941  0.6086  1.0258
 2881SOL     OW11021   3.364   9.587   4.694  0.3535  0.1587  0.4159
 2881SOL    HW111022   3.362   9.524   4.766 -1.5029  0.9523  1.1173
 2881SOL    HW211023   3.272   9.600   4.671  0.6883  2.3986  0.1071
 2882SOL     OW11024   0.929   3.502   6.699  0.0827  0.5993  0.4677
 2882SOL    HW111025   0.940   3.577   6.758 -0.4107 -0.0096  1.3609
 2882SOL    HW211026   0.911   3.428   6.758 -0.3405 -0.0396 -0.4459
 2883SOL     OW11027   8.690   7.504   4.950  0.8028  0.0959 -0.4466
 2883SOL    HW111028   8.755   7.567   4.982  1.2416 -1.0541  1.0684
 2883SOL    HW211029   8.692   7.433   5.014 -1.9768  0.0048 -0.3386
 2884SOL     OW11030   6.633   6.681   3.410  0.4919  0.0901 -0.1881
 2884SOL    HW111031   6.688   6.609   3.440 -0.1620 -0.1168  0.5368
 2884SOL    HW211032   6.659   6.694   3.318  2.1824  0.4132  0.2967
 2885SOL     OW11033   3.500   8.025   5.803  0.2238  0.3896  0.0985
 2885SOL    HW111034   3.473   8.099   5.857  1.0293 -0.2991  1.5049
 2885SOL    HW211035   3.456   7.949   5.842  0.3587 -0.0484 -0.5806
 2886SOL     OW11036   8.107   6.538   5.261 -0.0396  0.6602 -0.2872
 2886SOL    HW111037   8.056   6.613   5.230 -0.1673  0.9499  0.5820
 2886SOL    HW211038   8.146   6.569   5.343  2.4389  0.8449 -1.4325
 2887SOL     OW11039   8.660   5.613   6.309 -0.2911 -0.3990 -0.5854
 2887SOL    HW111040   8.682   5.527   6.346  0.6658  0.0338 -0.0948
 2887SOL    HW211041   8.571   5.603   6.277 -0.6032 -1.2530  0.4696
 2888SOL     OW11042   0.753   2.564   7.223  0.8012 -0.0967  0.3231
 2888SOL    HW111043   0.805   2.642   7.244  0.3372 -0.1343  1.6932
 2888SOL    HW211044   0.814   2.491   7.232  1.2779  0.0877 -1.1164
 2889SOL     OW11045   7.511   8.208   3.801  0.0597 -0.2099 -0.4511
 2889SOL    HW111046   7.539   8.242   3.886 -0.3788  0.1933 -0.4599
 2889SOL    HW211047   7.415   8.207   3.806  0.0549 -0.9577 -0.6463
 2890SOL     OW11048   3.521   8.540   1.477 -0.2392 -0.4009  0.2258
 2890SOL    HW111049   3.507   8.478   1.548  3.9821 -0.2520  1.4294
 2890SOL    HW211050   3.529   8.485   1.399 -0.2401 -1.0155  0.6543
 2891SOL     OW11051   0.643   2.988   0.377  0.0064  0.0112 -0.0734
 2891SOL    HW111052   0.653   3.073   0.418  1.5969 -1.3068  2.4686
 2891SOL    HW211053   0.556   2.958   0.404 -0.7616  0.9754 -1.3813
 2892SOL     OW11054   5.985   7.222   4.036  0.5627 -0.1451  0.0615
 2892SOL    HW111055   6.075   7.192   4.027  0.6748 -0.0960  0.9314
 2892SOL    HW211056   5.986   7.312   4.003  1.0137  0.1358  0.8275
 2893SOL     OW11057   1.405   3.187   2.450  0.6396 -0.5612  0.0153
 2893SOL    HW111058   1.327   3.143   2.418  2.3359 -3.5338 -0.4258
 2893SOL    HW211059   1.408   3.166   2.543  0.1854  0.8274  0.3694
 2894SOL     OW11060   4.415   3.149   6.067  0.1113 -0.4607  0.3763
 2894SOL    HW111061   4.387   3.115   5.982 -2.1758  2.5890 -0.2652
 2894SOL    HW211062   4.420   3.071   6.123 -1.5271 -2.2090 -1.7174
 2895SOL     OW11063   4.269   2.855   3.034 -0.5655  0.4248 -0.1029
 2895SOL    HW111064   4.343   2.888   2.983  0.3310 -0.0346  0.8636
 2895SOL    HW211065   4.194   2.863   2.975  0.2600  0.8211 -1.1361
 2896SOL     OW11066   9.445   8.798   1.038 -0.2970  0.3561  0.0508
 2896SOL    HW111067   9.394   8.752   0.971  1.4267 -2.9343  0.7940
 2896SOL    HW211068   9.513   8.844   0.988 -0.1581 -0.5143 -0.5858
 2897SOL     OW11069   8.954   5.189  10.482 -0.0116 -0.5073 -0.0526
 2897SOL    HW111070   8.968   5.178  10.387 -2.5517  0.6672 -0.6490
 2897SOL    HW211071   8.948   5.099  10.514  1.3717 -0.9411 -0.8738
 2898SOL     OW11072   9.257   6.678   0.606 -0.4276  0.0339 -0.0894
 2898SOL    HW111073   9.313   6.613   0.647  1.3209  0.8904 -1.0256
 2898SOL    HW211074   9.286   6.762   0.642 -0.9448  0.5204 -0.7729
 2899SOL     OW11075   7.598   1.185   9.351  0.1177  0.5442 -0.1576
 2899SOL    HW111076   7.625   1.113   9.294  2.7666  1.4440 -0.1677
 2899SOL    HW211077   7.644   1.262   9.316  0.5246  1.4423  2.1909
 2900SOL     OW11078   4.016   3.445   0.611  0.1994 -0.2911 -0.1104
 2900SOL    HW111079   4.037   3.457   0.519  1.4075 -0.2172  0.1634
 2900SOL    HW211080   3.967   3.362   0.614  0.6603 -0.5880 -0.7420
 2901SOL     OW11081   5.817   7.086   3.876  0.2255 -0.1920  0.3504
 2901SOL    HW111082   5.883   7.128   3.931 -0.9409 -0.7813  2.2806
 2901SOL    HW211083   5.808   7.145   3.801 -1.0367  2.9112  2.7246
 2902SOL     OW11084   1.569  10.007   0.434 -0.3790 -0.2922  0.2455
 2902SOL    HW111085   1.615   9.994   0.517 -1.0385  0.4597  0.7483
 2902SOL    HW211086   1.623  10.072   0.387 -0.2015 -0.4439  0.2359
 2903SOL     OW11087   3.823   3.985   3.712 -0.2064 -0.6199  0.0398
 2903SOL    HW111088   3.781   3.915   3.662 -0.2824 -0.7512  0.2882
 2903SOL    HW211089   3.912   3.990   3.675 -0.4739 -0.2517 -0.5725
 2904SOL     OW11090   6.240   3.403   0.044  0.1141  0.2068  0.3089
 2904SOL    HW111091   6.274   3.442  -0.037  1.7851 -1.7730 -0.0451
 2904SOL    HW211092   6.315   3.402   0.103 -0.6547  0.1356  1.3133
 2905SOL     OW11093  10.194   6.739   9.649 -0.4770  0.1038  0.0373
 2905SOL    HW111094  10.125   6.677   9.672 -0.9241 -0.3264 -2.1881
 2905SOL    HW211095  10.181   6.755   9.555  2.2531  0.2448 -0.3891
 2906SOL     OW11096   4.604   8.220   9.755  0.3871  0.4484 -0.2281
 2906SOL    HW111097   4.659   8.146   9.728  0.0024 -0.4327  1.2650
 2906SOL    HW211098   4.665   8.289   9.778  0.8642 -0.2626  0.6937
 2907SOL     OW11099   2.904   9.388   1.042  0.1529  0.4021  0.4863
 2907SOL    HW111100   2.934   9.393   0.951  0.0863  1.3626  0.5020
 2907SOL    HW211101   2.985   9.376   1.093  0.2076  0.0420  0.3164
 2908SOL     OW11102   7.184   5.287   1.662  0.4718 -0.6255  0.6381
 2908SOL    HW111103   7.163   5.274   1.755  1.2434  1.1617  1.1254
 2908SOL    HW211104   7.118   5.349   1.631  0.7139 -0.5651  0.2340
 2909SOL     OW11105  10.054   7.703   7.382 -0.3102 -0.5596  0.3133
 2909SOL    HW111106  10.098   7.726   7.300  0.3134 -2.0481  0.2075
 2909SOL    HW211107   9.971   7.750   7.378  1.1799  2.3040  0.4949
 2910SOL     OW11108   8.161   5.927   4.034  0.0612 -0.3768 -0.2010
 2910SOL    HW111109   8.210   6.007   4.013  0.1393 -0.1504  0.7977
 2910SOL    HW211110   8.149   5.931   4.129 -0.2797 -1.3607 -0.1983
 2911SOL     OW11111   4.829   5.538   0.804 -0.2355 -0.3837  0.2789
 2911SOL    HW111112   4.899   5.583   0.755 -1.4919  1.6419  0.2316
 2911SOL    HW211113   4.752   5.594   0.791 -2.7254 -3.9353 -2.1123
 2912SOL     OW11114   8.165   9.319   9.226 -0.3709  0.0661  0.4010
 2912SOL    HW111115   8.189   9.241   9.276  1.7863 -0.1759 -0.8452
 2912SOL    HW211116   8.174   9.391   9.288  5.0478  0.1537  0.0411
 2913SOL     OW11117   4.537   0.797  10.575 -0.6908 -0.0026  0.0084
 2913SOL    HW111118   4.490   0.736  10.631 -1.1149  0.6580  0.3740
 2913SOL    HW211119   4.619   0.751  10.555 -1.7726 -1.4826 -1.2633
 2914SOL     OW11120  10.253   8.674   9.415  0.0595  0.4807 -0.3306
 2914SOL    HW111121  10.283   8.621   9.489  1.8613 -2.1398 -2.7561
 2914SOL    HW211122  10.305   8.754   9.421  0.9399 -0.1426  0.6464
 2915SOL     OW11123   8.506   6.951   1.318 -0.3173  0.2904 -0.4115
 2915SOL    HW111124   8.532   7.034   1.279 -2.8157  1.7613  0.7875
 2915SOL    HW211125   8.416   6.938   1.288 -0.1421 -1.7569 -0.1710
 2916SOL     OW11126   9.384   7.446   0.227 -0.3258  0.4680 -0.3073
 2916SOL    HW111127   9.321   7.453   0.299  0.5138 -1.1362  0.6419
 2916SOL    HW211128   9.376   7.355   0.197 -0.4717  1.0316 -2.1032
 2917SOL     OW11129   2.748   6.017   2.460  0.0610  0.1438 -1.3343
 2917SOL    HW111130   2.742   6.013   2.365  1.5168 -1.6364 -1.4226
 2917SOL    HW211131   2.763   6.109   2.480  0.2140  0.4738 -2.8746
 2918SOL     OW11132   3.963   1.164   1.395  0.3534  0.0592  0.0952
 2918SOL    HW111133   3.947   1.142   1.487 -1.0196  0.6138  0.0202
 2918SOL    HW211134   4.007   1.087   1.359  0.0873 -0.5321  1.0075
 2919SOL     OW11135   2.095   8.076   1.293 -0.3970  0.0630  0.2886
 2919SOL    HW111136   2.145   8.114   1.365 -0.8602  0.3603  0.4553
 2919SOL    HW211137   2.046   8.004   1.333 -0.7197  0.2817  0.2910
 2920SOL     OW11138   3.001   0.848   8.121  0.2891 -0.5884 -0.2652
 2920SOL    HW111139   2.987   0.882   8.033  1.2135 -0.1741 -0.2608
 2920SOL    HW211140   3.096   0.835   8.127  0.4072  0.7066  1.1459
 2921SOL     OW11141   2.927   9.098   9.094 -0.2323  0.3435 -0.5580
 2921SOL    HW111142   2.946   9.007   9.072  0.5453  0.4315 -0.2728
 2921SOL    HW211143   3.012   9.141   9.095 -0.4620  0.8165  0.4926
 2922SOL     OW11144  10.229   0.307   5.082  0.3021 -0.0997 -0.6403
 2922SOL    HW111145  10.219   0.230   5.139  2.4925  1.5853  2.2858
 2922SOL    HW211146  10.141   0.344   5.077 -0.3532 -1.5200 -0.1767
 2923SOL     OW11147   6.043   3.273   3.180 -0.2898  0.0380  0.1721
 2923SOL    HW111148   5.974   3.243   3.238  1.2113 -2.8835  0.6619
 2923SOL    HW211149   6.045   3.209   3.109 -0.2225  1.9351 -1.6371
 2924SOL     OW11150   4.086   5.374   8.035  0.0875 -0.0299 -0.0426
 2924SOL    HW111151   4.018   5.328   8.084  0.1682  0.6294  0.7115
 2924SOL    HW211152   4.043   5.454   8.003  0.4378  0.2680  0.2250
 2925SOL     OW11153   0.402   1.856   3.886 -0.4761 -0.0386 -0.2930
 2925SOL    HW111154   0.493   1.880   3.869 -0.5059 -0.4819 -1.1120
 2925SOL    HW211155   0.406   1.795   3.959  0.0689 -1.5168 -1.5120
 2926SOL     OW11156   9.776   2.446   1.928 -0.1820 -0.3448 -0.5943
 2926SOL    HW111157   9.688   2.440   1.889  0.2739 -0.4661 -1.6354
 2926SOL    HW211158   9.828   2.492   1.862  0.5278 -0.2086  0.0464
 2927SOL     OW11159   6.868   1.013   5.100  0.0654 -0.1209 -0.1436
 2927SOL    HW111160   6.898   0.986   5.013  1.6864  0.6513  0.1447
 2927SOL    HW211161   6.945   1.004   5.156 -1.0168 -0.8724  1.3095
 2928SOL     OW11162   7.924  10.592  10.285  0.0288  0.1123 -0.0507
 2928SOL    HW111163   7.871  10.609  10.207  0.7147 -0.9329 -0.7718
 2928SOL    HW211164   8.004  10.552  10.252  1.0994  1.2327  1.0561
 2929SOL     OW11165   1.525   1.074   3.551 -0.4370  0.0557  0.0653
 2929SOL    HW111166   1.551   1.099   3.463  1.3936  1.4024  0.9157
 2929SOL    HW211167   1.514   0.978   3.547  1.2071 -0.1203 -1.2436
 2930SOL     OW11168   8.355   8.437   8.139  0.2451 -0.1981 -0.0161
 2930SOL    HW111169   8.373   8.525   8.173  1.0280 -0.3119 -0.1226
 2930SOL    HW211170   8.309   8.393   8.210  0.0026  0.2440  0.1043
 2931SOL     OW11171   4.704   9.586   4.528  0.3389 -0.5525 -0.4439
 2931SOL    HW111172   4.779   9.635   4.561  0.4141 -0.7696 -0.2888
 2931SOL    HW211173   4.695   9.512   4.588  1.3658 -1.7565 -1.6750
 2932SOL     OW11174   9.255   5.691   9.313 -0.4257  0.2734 -0.3376
 2932SOL    HW111175   9.252   5.595   9.316 -1.5480  0.2757 -0.8413
 2932SOL    HW211176   9.171   5.718   9.351  0.2515  1.0921  0.6288
 2933SOL     OW11177   6.618   9.638   2.731 -0.0281 -0.0383  0.0329
 2933SOL    HW111178   6.650   9.584   2.803 -0.1375  0.0406  0.1405
 2933SOL    HW211179   6.532   9.668   2.759 -0.5672 -0.9285 -0.6134
 2934SOL     OW11180   8.498   6.395   9.671  0.3572  0.0311 -0.1571
 2934SOL    HW111181   8.411   6.380   9.636  0.9448  0.2420 -1.7893
 2934SOL    HW211182   8.528   6.475   9.628  0.6680  1.0161  1.7789
 2935SOL     OW11183   5.706   3.828   1.466  0.0642  0.2542 -0.2312
 2935SOL    HW111184   5.797   3.798   1.467  0.1220  0.3339 -1.7529
 2935SOL    HW211185   5.709   3.914   1.509  0.4200 -0.4306  1.1929
 2936SOL     OW11186   2.077   5.471  10.126 -0.5347 -0.7311  0.5151
 2936SOL    HW111187   2.132   5.461  10.204  1.2840 -0.2123 -0.6359
 2936SOL    HW211188   1.993   5.502  10.159  0.0201 -1.0516  2.3052
 2937SOL     OW11189   4.922   6.735   3.425  0.0483  0.3562 -0.3012
 2937SOL    HW111190   5.010   6.715   3.456  0.5734  0.8702 -1.3690
 2937SOL    HW211191   4.911   6.680   3.347  0.0446  1.3993 -1.0610
 2938SOL     OW11192   7.655   4.875   6.273 -0.3420  0.1675 -0.5518
 2938SOL    HW111193   7.672   4.969   6.266 -0.4261  0.3146  0.9484
 2938SOL    HW211194   7.585   4.868   6.338 -0.5638 -0.9264 -0.8808
 2939SOL     OW11195   1.608   2.256   4.961  0.1098  0.7733 -0.6991
 2939SOL    HW111196   1.658   2.325   5.004 -0.2963  1.1457 -0.8059
 2939SOL    HW211197   1.586   2.293   4.875  0.8430  0.0698 -1.1907
 2940SOL     OW11198   6.567   6.061   0.204 -0.3687 -0.4457 -0.5577
 2940SOL    HW111199   6.633   6.107   0.255  0.8737 -0.4380 -2.1117
 2940SOL    HW211200   6.484   6.088   0.243  0.5002 -0.2063  1.2347
 2941SOL     OW11201   0.919   0.463   2.707  0.6490 -0.4301  0.0018
 2941SOL    HW111202   0.967   0.381   2.720  0.9762 -0.1492  0.6420
 2941SOL    HW211203   0.975   0.516   2.651  1.4550  0.1767  1.3269
 2942SOL     OW11204   4.440  10.186   7.983 -0.6489  0.2564  0.5463
 2942SOL    HW111205   4.404  10.105   8.019 -2.1732  0.0162 -1.3727
 2942SOL    HW211206   4.483  10.159   7.902  2.5714  0.8025  1.8852
 2943SOL     OW11207   4.136   3.711   1.142 -0.8199  0.2541 -0.4729
 2943SOL    HW111208   4.211   3.730   1.086 -0.8570 -0.0038 -0.6138
 2943SOL    HW211209   4.136   3.615   1.150  0.8359  0.4010  2.2709
 2944SOL     OW11210   9.505   2.430   0.490 -0.3369  0.3083  0.3093
 2944SOL    HW111211   9.495   2.481   0.571 -0.5300  2.0007 -0.7447
 2944SOL    HW211212   9.567   2.361   0.513 -0.8181  0.3931  2.0536
 2945SOL     OW11213   4.461   5.745   8.027 -0.0966  0.1481  0.3645
 2945SOL    HW111214   4.409   5.680   8.074  1.0872 -0.3687  1.0179
 2945SOL    HW211215   4.399   5.812   8.000 -1.0851 -0.4487  1.1109
 2946SOL     OW11216   6.653   0.782   5.991  0.4976  0.1609 -0.2304
 2946SOL    HW111217   6.628   0.784   5.899 -0.8786  0.2158  0.1239
 2946SOL    HW211218   6.660   0.689   6.012 -1.6624  0.0505  0.2102
 2947SOL     OW11219   7.221   1.231   0.176 -0.2283  0.2079 -0.0254
 2947SOL    HW111220   7.257   1.143   0.189 -0.9908 -0.0791  0.2441
 2947SOL    HW211221   7.175   1.249   0.258  1.3417  1.5652  0.5933
 2948SOL     OW11222   5.455   5.198   5.269  0.2515 -0.6486 -0.1923
 2948SOL    HW111223   5.538   5.219   5.226  0.3494  1.4686  0.8623
 2948SOL    HW211224   5.400   5.162   5.199  0.7236  1.7463 -1.9383
 2949SOL     OW11225   9.643   3.714   9.233  0.1009  0.9213  0.0986
 2949SOL    HW111226   9.718   3.696   9.289 -0.4484  1.5617  1.0737
 2949SOL    HW211227   9.575   3.745   9.293 -0.0728  2.9523 -1.0602
 2950SOL     OW11228   7.517   6.191   8.905 -0.5643 -0.4030 -0.1219
 2950SOL    HW111229   7.491   6.160   8.992  0.3961  0.4609  0.4791
 2950SOL    HW211230   7.612   6.194   8.907 -0.5347 -0.1322 -1.1346
 2951SOL     OW11231   2.739   9.611   1.066 -0.0583 -0.0633  0.1059
 2951SOL    HW111232   2.690   9.587   1.145 -2.0347 -0.4318 -1.1545
 2951SOL    HW211233   2.809   9.546   1.061  1.2800  1.0530  2.4923
 2952SOL     OW11234   0.407   3.007   3.565  0.0730 -0.2628 -0.0659
 2952SOL    HW111235   0.453   2.972   3.642  1.0556  1.5742  0.2628
 2952SOL    HW211236   0.344   3.069   3.602  1.3199  1.4730 -0.7182
 2953SOL     OW11237   4.493   9.045   4.742 -0.4234 -0.1654 -0.2386
 2953SOL    HW111238   4.530   9.088   4.665  0.8637  2.2532  1.6018
 2953SOL    HW211239   4.400   9.035   4.721 -0.0516  0.1107 -2.2211
 2954SOL     OW11240   0.995   4.851   1.129  0.1631 -1.0878 -0.6281
 2954SOL    HW111241   0.971   4.856   1.037  1.0682 -0.0437 -0.8349
 2954SOL    HW211242   1.024   4.761   1.142  1.0721 -0.9704 -1.6582
 2955SOL     OW11243   6.562  10.486   5.825  0.2284  0.4860 -0.4042
 2955SOL    HW111244   6.509  10.412   5.796  0.1074  1.0391 -1.6981
 2955SOL    HW211245   6.648  10.448   5.843 -0.2705 -0.2239  0.5723
 2956SOL     OW11246   3.345   2.853   1.525  0.0607  0.3088  0.3970
 2956SOL    HW111247   3.290   2.930   1.513  0.2829  0.3774 -0.2099
 2956SOL    HW211248   3.308   2.788   1.466  0.9539  0.5357 -0.4416
 2957SOL     OW11249   1.089   5.808   6.181 -0.1736 -0.3169 -0.0460
 2957SOL    HW111250   1.086   5.851   6.095  1.6671  2.1048  0.9841
 2957SOL    HW211251   1.074   5.879   6.243  0.3806 -1.6776  1.7092
 2958SOL     OW11252   4.674   2.585   9.715 -0.0977 -0.5243 -0.8894
 2958SOL    HW111253   4.701   2.644   9.644  0.4013 -0.2751 -0.4976
 2958SOL    HW211254   4.738   2.514   9.714  0.6789  0.1299  0.1174
 2959SOL     OW11255   0.120   9.525   2.689 -0.4271 -0.3491 -0.0367
 2959SOL    HW111256   0.101   9.431   2.689  0.1077 -0.4665  0.6472
 2959SOL    HW211257   0.215   9.530   2.675 -0.6459  0.1483 -1.4353
 2960SOL     OW11258   7.973   4.797   9.591  0.4646  0.5035 -0.6200
 2960SOL    HW111259   8.025   4.877   9.582 -0.7059  1.1998 -1.3957
 2960SOL    HW211260   7.919   4.811   9.669  0.7032  0.1966 -0.3943
 2961SOL     OW11261   7.284   4.248   7.061  0.0043 -0.5798  0.4730
 2961SOL    HW111262   7.360   4.260   7.004  1.0388 -0.2343  1.8562
 2961SOL    HW211263   7.259   4.156   7.049  1.1506 -0.9189  0.5958
 2962SOL     OW11264   0.270   4.708   0.870  0.0291  0.5256 -0.2179
 2962SOL    HW111265   0.196   4.660   0.833 -0.4088  1.1669 -0.1926
 2962SOL    HW211266   0.319   4.642   0.921 -1.6708  0.5120  1.4908
 2963SOL     OW11267   1.095   6.073   3.660  0.2241  0.0958 -1.1911
 2963SOL    HW111268   1.132   6.078   3.571  1.1898  1.4049 -0.7454
 2963SOL    HW211269   1.168   6.046   3.715 -0.3763 -0.7195 -0.7716
 2964SOL     OW11270   5.506   9.922   2.866  0.2854 -0.1923 -0.1413
 2964SOL    HW111271   5.474  10.012   2.873 -0.1997 -0.2022 -1.7981
 2964SOL    HW211272   5.427   9.870   2.851  0.7529 -0.6158 -1.2263
 2965SOL     OW11273   1.572   7.790   9.970 -0.6961 -0.2001  0.2777
 2965SOL    HW111274   1.516   7.843   9.914 -1.8160 -0.0219  1.5142
 2965SOL    HW211275   1.512   7.741  10.026  0.3661 -0.4705  1.2367
 2966SOL     OW11276   1.650   8.658   1.586  0.2517  0.7357 -0.0448
 2966SOL    HW111277   1.682   8.593   1.649  1.5874  1.0255 -0.3981
 2966SOL    HW211278   1.582   8.612   1.537  0.4638 -0.0664  0.3993
 2967SOL     OW11279   4.520   0.489   1.170  0.2764 -0.0747 -0.1781
 2967SOL    HW111280   4.522   0.579   1.202 -1.1009  0.0801 -0.4773
 2967SOL    HW211281   4.613   0.467   1.156  0.5926  1.7637 -1.4558
 2968SOL     OW11282   5.147   3.414   5.527 -0.3396 -0.3591  0.5107
 2968SOL    HW111283   5.175   3.330   5.492  1.0582 -0.0498  0.8334
 2968SOL    HW211284   5.128   3.397   5.619  0.5690 -0.2049  0.7359
 2969SOL     OW11285   7.184   7.129   7.882  0.2846 -0.6284  0.0553
 2969SOL    HW111286   7.103   7.155   7.927  0.2709 -2.3890  1.0860
 2969SOL    HW211287   7.163   7.141   7.789 -0.2739  1.3444  0.3742
 2970SOL     OW11288   9.955   3.723   4.894  0.4681  0.1476 -0.4236
 2970SOL    HW111289   9.864   3.746   4.911  0.2625  0.5477 -1.8947
 2970SOL    HW211290   9.964   3.730   4.799  2.1479  0.5404 -0.2738
 2971SOL     OW11291   8.943   9.708   4.530 -0.2657  0.2022 -0.2819
 2971SOL    HW111292   8.868   9.675   4.480 -0.3321 -1.4380  0.8210
 2971SOL    HW211293   9.015   9.649   4.508 -0.3704 -0.7511  1.7161
 2972SOL     OW11294  10.730   9.826   6.146  0.1267 -0.2574  0.4105
 2972SOL    HW111295  10.712   9.769   6.072  1.2426 -0.4372  0.2559
 2972SOL    HW211296  10.758   9.767   6.216 -0.5903 -0.0597  0.8719
 2973SOL     OW11297   2.797   0.487   3.239  0.3517 -0.4823  0.3793
 2973SOL    HW111298   2.717   0.440   3.220  0.8456 -0.5870 -1.6635
 2973SOL    HW211299   2.858   0.420   3.270  0.5477 -0.9188 -0.9238
 2974SOL     OW11300   1.327   8.624   6.081 -0.0404  0.2647 -0.3116
 2974SOL    HW111301   1.399   8.657   6.026  1.7571 -1.1359  1.0792
 2974SOL    HW211302   1.325   8.684   6.156 -0.1314  0.1503 -0.2229
 2975SOL     OW11303   2.137   5.499   1.825 -0.0917  0.3341 -0.0918
 2975SOL    HW111304   2.118   5.519   1.916  1.3403  0.0067  0.3094
 2975SOL    HW211305   2.120   5.405   1.817  1.2965  0.0222  0.2909
 2976SOL     OW11306   0.545   6.701   1.170 -0.2894  0.4421  0.2760
 2976SOL    HW111307   0.496   6.668   1.245 -0.4606  0.9110  0.3737
 2976SOL    HW211308   0.487   6.684   1.095  0.8440 -2.2069 -0.1163
 2977SOL     OW11309   7.316   4.531  10.542 -0.3075 -0.3798  0.5019
 2977SOL    HW111310   7.242   4.479  10.514  0.0988 -0.9359  0.4458
 2977SOL    HW211311   7.376   4.469  10.583  0.1129  0.0635  0.5776
 2978SOL     OW11312   9.059  10.280   8.427 -0.4119  0.0503 -0.0506
 2978SOL    HW111313   8.985  10.335   8.401  1.0126  1.5810 -1.1068
 2978SOL    HW211314   9.106  10.263   8.346  0.1647 -1.2968  0.5296
 2979SOL     OW11315   4.268   6.913   8.985 -0.7784 -0.0231 -0.1751
 2979SOL    HW111316   4.183   6.947   8.955 -0.9715  1.3440  1.7053
 2979SOL    HW211317   4.326   6.989   8.982 -0.4964 -0.1221  1.5734
 2980SOL     OW11318   1.586   2.611  10.128 -0.4081 -0.4610  0.3443
 2980SOL    HW111319   1.511   2.595  10.071 -0.0577 -1.4398  0.1481
 2980SOL    HW211320   1.547   2.630  10.213 -0.9341  1.0299 -0.1911
 2981SOL     OW11321   1.290   9.389   6.614 -0.1078  0.1116 -0.4390
 2981SOL    HW111322   1.317   9.439   6.537 -3.0688  0.1911 -1.5420
 2981SOL    HW211323   1.262   9.456   6.677 -1.4874 -0.0573 -0.8615
 2982SOL     OW11324   1.644   5.495   7.638 -0.3190  0.2259 -0.0669
 2982SOL    HW111325   1.557   5.456   7.629 -0.6582  0.6154  1.2569
 2982SOL    HW211326   1.663   5.533   7.553 -0.7625 -1.2211 -0.8404
 2983SOL     OW11327   1.442   5.750   6.538 -0.3646 -0.0064  0.1878
 2983SOL    HW111328   1.510   5.807   6.501  0.0178 -0.4458  0.2024
 2983SOL    HW211329   1.432   5.781   6.629  1.2161 -1.1657  0.8022
 2984SOL     OW11330   1.380   7.169  10.278  0.0492 -0.4694  0.0700
 2984SOL    HW111331   1.361   7.075  10.283 -0.6460 -0.3618 -0.4335
 2984SOL    HW211332   1.389   7.197  10.369 -0.3944 -0.8965  0.2495
 2985SOL     OW11333   1.718   6.221   7.127  0.6249  0.4978 -0.1104
 2985SOL    HW111334   1.646   6.159   7.111  1.2633 -0.7531  1.5907
 2985SOL    HW211335   1.674   6.305   7.137 -0.6056 -0.1718  0.4613
 2986SOL     OW11336   0.643   8.484   5.446  0.9843 -0.8162  0.2254
 2986SOL    HW111337   0.590   8.475   5.367  1.3302 -2.4691  0.1460
 2986SOL    HW211338   0.730   8.452   5.420  1.4666 -0.1094  0.9222
 2987SOL     OW11339   6.896   1.378   6.638 -0.2918  0.2702 -0.5543
 2987SOL    HW111340   6.892   1.473   6.638 -2.0811  0.2604 -1.8584
 2987SOL    HW211341   6.842   1.351   6.712  1.5872  0.2373  0.8577
 2988SOL     OW11342   3.559   1.221   6.969  0.4329 -0.4471 -0.0766
 2988SOL    HW111343   3.541   1.299   6.917 -1.4045 -0.7259  0.0725
 2988SOL    HW211344   3.491   1.159   6.943 -0.4461 -0.6696  2.4793
 2989SOL     OW11345   5.381   5.907   4.676  0.2501  0.0328 -0.3429
 2989SOL    HW111346   5.367   5.898   4.582  0.3334 -0.8416 -0.2726
 2989SOL    HW211347   5.309   5.964   4.705 -0.8754 -1.1870 -0.6394
 2990SOL     OW11348   6.502   6.679  10.143  0.0038 -0.4368 -0.8843
 2990SOL    HW111349   6.540   6.610  10.196 -1.3943  0.0718  0.8741
 2990SOL    HW211350   6.550   6.758  10.168 -0.3522 -0.2696 -0.7322
 2991SOL     OW11351   6.763   3.971   4.239 -0.0226  0.3341  0.0254
 2991SOL    HW111352   6.782   3.954   4.332 -0.2682 -0.2412 -0.0256
 2991SOL    HW211353   6.731   4.061   4.237  0.6330  0.5764  0.4072
 2992SOL     OW11354  10.648   8.898  10.162 -0.2810  0.1119  0.4041
 2992SOL    HW111355  10.697   8.816  10.172 -1.4553 -0.4795  1.6153
 2992SOL    HW211356  10.711   8.966  10.187  0.1248 -0.5727  1.3075
 2993SOL     OW11357   5.033   2.513   8.549  0.1054  0.0757  0.0939
 2993SOL    HW111358   5.075   2.446   8.495 -1.2183  0.1340 -1.0655
 2993SOL    HW211359   5.014   2.584   8.488  1.5797  1.6111  1.3227
 2994SOL     OW11360   8.239   1.274   0.651  0.9747  0.6063 -0.3779
 2994SOL    HW111361   8.146   1.252   0.641  1.2782 -0.5527 -0.8603
 2994SOL    HW211362   8.239   1.356   0.700 -0.2650 -0.2059  1.0569
 2995SOL     OW11363   5.056   6.877   8.622 -0.2041 -0.3407 -0.6041
 2995SOL    HW111364   4.980   6.934   8.608 -0.7200 -1.1999 -1.4510
 2995SOL    HW211365   5.027   6.791   8.592  0.8977 -0.8294 -0.3215
 2996SOL     OW11366   0.335   4.928   9.844 -0.2342 -0.3893 -0.1143
 2996SOL    HW111367   0.306   4.894   9.759  1.0523 -0.8249 -0.3936
 2996SOL    HW211368   0.297   4.868   9.908  0.7341 -1.4432 -0.5192
 2997SOL     OW11369   0.500   2.036   6.245  0.0170  0.5482 -0.6749
 2997SOL    HW111370   0.565   2.069   6.184 -0.0546 -1.6498 -2.0810
 2997SOL    HW211371   0.456   1.965   6.197 -1.6405  0.2543  1.1306
 2998SOL     OW11372   8.020   0.366   5.184 -0.1800 -0.4721  0.1504
 2998SOL    HW111373   8.045   0.277   5.161 -3.7774 -1.3426 -1.0801
 2998SOL    HW211374   8.046   0.419   5.109 -0.2079 -0.9602 -0.2039
 2999SOL     OW11375   3.785   9.849  10.368  0.1692 -0.8056  0.2152
 2999SOL    HW111376   3.738   9.816  10.444 -2.1236 -1.0073 -1.1759
 2999SOL    HW211377   3.748   9.936  10.353  0.7481 -0.6774 -0.5282
 3000SOL     OW11378   4.429   9.660   1.466 -0.1737  0.1756 -0.0347
 3000SOL    HW111379   4.493   9.674   1.536 -1.7096  1.9375  1.1230
 3000SOL    HW211380   4.361   9.605   1.507 -0.0535 -0.5683 -0.8210
 3001SOL     OW11381   8.464   6.574   6.235 -0.1212  0.9220  0.1726
 3001SOL    HW111382   8.517   6.618   6.169  1.1274 -0.6493  0.0581
 3001SOL    HW211383   8.467   6.632   6.311 -1.8897  2.9404 -1.1957
 3002SOL     OW11384   7.871   8.616  10.321 -0.3307 -0.3666 -0.1234
 3002SOL    HW111385   7.907   8.671  10.251 -2.0993  0.2388 -0.6264
 3002SOL    HW211386   7.776   8.627  10.313 -0.5881  0.0252  2.6461
 3003SOL     OW11387   5.000   1.311  10.683 -0.0853  0.1908  0.0276
 3003SOL    HW111388   5.002   1.343  10.774  0.8283 -0.2345  0.1610
 3003SOL    HW211389   4.915   1.342  10.650 -0.4786  0.2724  1.0493
 3004SOL     OW11390   5.753   9.327   9.319 -0.0188 -0.2422 -0.1613
 3004SOL    HW111391   5.785   9.367   9.400  0.1721 -2.0368  0.7158
 3004SOL    HW211392   5.673   9.375   9.298  1.1341  1.7626 -0.2184
 3005SOL     OW11393   4.098   2.572   6.101 -0.0960  0.2646  0.1030
 3005SOL    HW111394   4.022   2.597   6.049  0.5127  1.4563 -0.2589
 3005SOL    HW211395   4.173   2.595   6.046  0.5410 -1.0122  0.3942
 3006SOL     OW11396   9.198   9.102   1.094 -0.0121 -0.0154  0.6332
 3006SOL    HW111397   9.272   9.133   1.147  0.0192  2.6246 -0.7724
 3006SOL    HW211398   9.130   9.168   1.106 -0.8372 -0.5541 -0.7942
 3007SOL     OW11399   0.566   4.146   1.277 -0.3011  0.0374 -0.0884
 3007SOL    HW111400   0.599   4.061   1.307  1.3549  1.3074  1.9902
 3007SOL    HW211401   0.641   4.188   1.236 -0.0155  1.7831  1.9864
 3008SOL     OW11402   3.475   2.920   0.926  1.4094 -0.9389 -0.0968
 3008SOL    HW111403   3.468   2.849   0.990 -0.1543 -1.2888 -0.6132
 3008SOL    HW211404   3.531   2.986   0.969  2.9452 -2.4691  0.3642
 3009SOL     OW11405   5.257   7.996   2.460 -0.0663 -0.4733  0.3497
 3009SOL    HW111406   5.205   7.923   2.429  1.1008 -1.3731  0.4277
 3009SOL    HW211407   5.346   7.961   2.466  0.6447  1.1419 -0.2546
 3010SOL     OW11408   7.925   1.164   7.309 -0.4376 -0.2688  0.1433
 3010SOL    HW111409   8.017   1.168   7.283 -0.7567  0.1035 -1.0065
 3010SOL    HW211410   7.912   1.242   7.363 -0.3718  0.3909 -0.7676
 3011SOL     OW11411   8.138   8.488   2.382 -0.4592 -0.1198  0.3121
 3011SOL    HW111412   8.116   8.548   2.310  0.1499 -1.3321 -0.9165
 3011SOL    HW211413   8.073   8.508   2.450  0.0407  2.2882  0.1713
 3012SOL     OW11414  10.697   4.042   5.873  0.4956 -0.0284 -0.0658
 3012SOL    HW111415  10.689   4.086   5.958 -0.2571 -0.9194  0.3398
 3012SOL    HW211416  10.639   3.966   5.880  1.1941 -0.6658 -1.0241
 3013SOL     OW11417   9.869   3.077   5.151 -0.0917 -0.1326  0.2386
 3013SOL    HW111418   9.913   3.035   5.225  0.7653  0.6773  0.1989
 3013SOL    HW211419   9.832   3.004   5.101  1.3306 -0.8439  0.1933
 3014SOL     OW11420   2.284   5.922   4.562 -0.3409  0.4352 -0.2481
 3014SOL    HW111421   2.317   5.965   4.641 -0.7696  1.0480 -0.3899
 3014SOL    HW211422   2.361   5.910   4.506  0.0146 -0.2941  0.3947
 3015SOL     OW11423   3.488   8.005   1.884 -0.0979 -0.4960  0.6347
 3015SOL    HW111424   3.468   8.001   1.978 -0.7169 -0.6406  0.5006
 3015SOL    HW211425   3.471   7.916   1.853  0.5237 -0.5615  0.4598
 3016SOL     OW11426   5.828   0.324   9.624  0.4351  0.2494  0.3051
 3016SOL    HW111427   5.805   0.308   9.715 -0.2332 -2.2976 -0.2342
 3016SOL    HW211428   5.839   0.419   9.618  1.1968  0.4214  3.1658
 3017SOL     OW11429   2.240   6.386   4.569  0.1421  0.4726  0.6495
 3017SOL    HW111430   2.146   6.385   4.587  0.2331 -0.6728  1.1346
 3017SOL    HW211431   2.273   6.460   4.620 -0.5084  0.9761  0.3580
 3018SOL     OW11432   4.118   1.604   8.266 -0.5782 -0.0856 -0.0620
 3018SOL    HW111433   4.063   1.553   8.205 -0.9287 -0.8290  0.8600
 3018SOL    HW211434   4.197   1.552   8.276 -0.2985  0.2953 -0.2881
 3019SOL     OW11435   8.712   3.216   2.045  0.1900 -0.1998  0.4308
 3019SOL    HW111436   8.794   3.238   2.000 -0.6204  1.5960 -0.2526
 3019SOL    HW211437   8.645   3.225   1.978 -0.4237 -3.9324  0.3588
 3020SOL     OW11438   4.102  10.300   6.005  0.3640  0.7753 -0.3322
 3020SOL    HW111439   4.181  10.264   5.965 -0.2786  0.6947 -1.5787
 3020SOL    HW211440   4.112  10.395   5.998  0.5589  0.7709 -0.0842
 3021SOL     OW11441   2.120   8.121   1.967 -0.0271  0.1899  0.1827
 3021SOL    HW111442   2.112   8.153   1.877 -0.1148 -1.5106 -0.4518
 3021SOL    HW211443   2.032   8.132   2.003  0.4538  2.7702  0.7993
 3022SOL     OW11444   6.580  10.154   1.329  0.2127 -0.0007 -0.1962
 3022SOL    HW111445   6.573  10.177   1.422 -2.4032 -0.2815 -0.2473
 3022SOL    HW211446   6.607  10.063   1.329  0.0369 -0.0565  0.3079
 3023SOL     OW11447   0.028   5.106   3.411 -0.3422 -0.3729  0.5942
 3023SOL    HW111448  -0.010   5.092   3.498 -0.8194  0.1274  0.4721
 3023SOL    HW211449   0.117   5.139   3.429  0.2889 -2.1133  0.8776
 3024SOL     OW11450   3.822   2.668   7.724  0.0300  0.2112 -0.2339
 3024SOL    HW111451   3.820   2.606   7.797 -0.8620 -1.3123 -1.4851
 3024SOL    HW211452   3.812   2.614   7.646  2.1933  1.6547 -1.6241
 3025SOL     OW11453   9.454   6.623   6.403  0.2980  0.2826  0.0871
 3025SOL    HW111454   9.543   6.590   6.420  0.7748  0.8292 -1.2058
 3025SOL    HW211455   9.442   6.611   6.309 -0.5519  1.3389  0.0479
 3026SOL     OW11456   3.070  10.517   0.955  0.5696 -0.1472 -0.5013
 3026SOL    HW111457   3.087  10.593   1.011 -0.1271 -0.2896 -0.0921
 3026SOL    HW211458   3.106  10.542   0.870  3.0680 -0.5303  0.3589
 3027SOL     OW11459   1.270   6.514   5.371 -0.0158  0.2716 -0.3183
 3027SOL    HW111460   1.219   6.537   5.294  0.1421 -0.6554 -0.7115
 3027SOL    HW211461   1.327   6.443   5.342 -2.5202 -2.7327  1.4729
 3028SOL     OW11462   1.341   1.383   8.119  0.1071 -0.1677  0.1755
 3028SOL    HW111463   1.355   1.376   8.214 -0.3891 -0.5795  0.2253
 3028SOL    HW211464   1.425   1.360   8.080  0.0168 -1.0766  0.4961
 3029SOL     OW11465  10.268   2.541   7.835 -0.0390  0.1429 -0.4856
 3029SOL    HW111466  10.238   2.450   7.843  1.8752 -0.5000 -0.0738
 3029SOL    HW211467  10.235   2.571   7.751 -0.5293 -1.0036 -0.7102
 3030SOL     OW11468   2.984   5.743   1.766  0.5102 -0.0873 -0.1159
 3030SOL    HW111469   3.005   5.833   1.740 -1.9014  0.6056  0.0652
 3030SOL    HW211470   2.928   5.710   1.696  0.8702 -1.2437  0.1209
 3031SOL     OW11471   3.565   6.496   1.500 -0.1453  0.5009  0.5156
 3031SOL    HW111472   3.480   6.533   1.475 -0.4410 -0.9442 -0.7705
 3031SOL    HW211473   3.613   6.488   1.417  0.3152 -0.9241  0.9038
 3032SOL     OW11474   5.299   3.079   1.528 -0.3706  0.5234  0.0028
 3032SOL    HW111475   5.249   3.085   1.447  0.1509  1.5925 -0.2593
 3032SOL    HW211476   5.254   3.012   1.579 -2.3332  1.7187 -0.0452
 3033SOL     OW11477   3.545   2.784   1.865  0.2031  0.5072 -0.2792
 3033SOL    HW111478   3.517   2.806   1.954  1.2231  1.3858 -0.1542
 3033SOL    HW211479   3.464   2.770   1.817 -0.3725  0.4916  0.6664
 3034SOL     OW11480   0.605   4.574  10.281 -0.1568  0.7288  0.0795
 3034SOL    HW111481   0.568   4.654  10.318  0.0709  0.9183 -0.1048
 3034SOL    HW211482   0.547   4.505  10.313 -1.5769  1.1620 -1.4107
 3035SOL     OW11483   0.335   8.765   1.324 -0.1135  0.1668  0.0664
 3035SOL    HW111484   0.397   8.834   1.348  0.6723 -0.1688 -0.8850
 3035SOL    HW211485   0.250   8.795   1.356  0.4168  1.0010  0.7227
 3036SOL     OW11486   2.076   3.489   9.527 -0.4972 -0.1821 -0.3822
 3036SOL    HW111487   2.094   3.578   9.496 -1.2187  0.2330  0.3423
 3036SOL    HW211488   2.086   3.435   9.449 -0.1840  0.5496 -0.8694
 3037SOL     OW11489   4.693   6.566  10.081  0.4689 -0.4334 -0.4272
 3037SOL    HW111490   4.689   6.637  10.016 -0.2864 -0.6579 -0.6324
 3037SOL    HW211491   4.602   6.537  10.090  0.7289 -1.1522 -0.0952
 3038SOL     OW11492   0.382   3.396   1.141  0.1879  0.1143  0.2506
 3038SOL    HW111493   0.386   3.352   1.056 -2.0613  1.7561 -0.8279
 3038SOL    HW211494   0.473   3.402   1.169  0.9767 -0.7706 -1.8995
 3039SOL     OW11495   0.286   2.434   5.690 -0.1821 -0.4134  0.0627
 3039SOL    HW111496   0.190   2.434   5.694 -0.1655  1.2458  0.9623
 3039SOL    HW211497   0.306   2.472   5.604 -0.3573  2.1171  1.0710
 3040SOL     OW11498   6.628   8.527   2.017  0.3581 -0.2701 -0.0073
 3040SOL    HW111499   6.533   8.518   2.027  0.4877 -0.1594  1.6511
 3040SOL    HW211500   6.644   8.621   2.014  0.4145 -0.2860 -0.2060
 3041SOL     OW11501   1.846   1.034   8.291  0.0755 -0.0397  0.4476
 3041SOL    HW111502   1.864   1.124   8.267  0.4414 -0.1371  0.3461
 3041SOL    HW211503   1.897   1.019   8.371  0.4546 -0.3154  0.1617
 3042SOL     OW11504   4.943   2.180   2.622  0.5108 -0.3096 -0.4841
 3042SOL    HW111505   4.885   2.237   2.672 -0.1329 -1.2504 -0.1312
 3042SOL    HW211506   5.026   2.183   2.669  0.0237 -0.8815  0.4407
 3043SOL     OW11507   5.086   8.530  10.302 -0.2296  0.0967 -0.2207
 3043SOL    HW111508   5.161   8.491  10.347 -0.3051  0.1838 -0.0168
 3043SOL    HW211509   5.014   8.521  10.364 -0.8984 -1.8624 -1.2016
 3044SOL     OW11510  10.041   1.053   9.884  0.0190 -0.0665  0.1267
 3044SOL    HW111511   9.962   1.091   9.922  0.2767  0.2654  0.3367
 3044SOL    HW211512  10.029   0.959   9.893 -0.6243 -0.0381 -0.4006
 3045SOL     OW11513  10.718   7.417   3.450  0.4807 -0.4261  0.2096
 3045SOL    HW111514  10.797   7.404   3.397  0.7108 -0.7166  0.6095
 3045SOL    HW211515  10.646   7.389   3.394  0.5810  0.6062 -0.4511
 3046SOL     OW11516   6.654   7.657   8.172  0.4062 -0.0319 -0.3077
 3046SOL    HW111517   6.640   7.644   8.266 -0.6874  0.6129 -0.3593
 3046SOL    HW211518   6.662   7.752   8.162 -0.5235 -0.0075 -0.9767
 3047SOL     OW11519   8.521   5.255   0.475  0.8252 -0.2590 -0.1698
 3047SOL    HW111520   8.527   5.160   0.463 -0.5400 -0.2620 -1.0080
 3047SOL    HW211521   8.591   5.290   0.420  0.5040 -0.7324 -0.8912
 3048SOL     OW11522   7.449   1.159   8.041  0.1725  0.6114 -1.1192
 3048SOL    HW111523   7.466   1.078   8.088 -1.6866  1.1042  0.5465
 3048SOL    HW211524   7.520   1.165   7.977  1.6892 -1.1112  0.2813
 3049SOL     OW11525   0.756   3.669   9.328 -0.1084  0.0371  0.3703
 3049SOL    HW111526   0.704   3.718   9.265  0.9268  0.7796  0.0530
 3049SOL    HW211527   0.757   3.724   9.407  0.0815 -0.0270  0.4151
 3050SOL     OW11528   2.124   9.797   4.000 -0.0099  0.0550  0.1843
 3050SOL    HW111529   2.062   9.810   3.929  0.0635 -1.1387 -0.1272
 3050SOL    HW211530   2.153   9.885   4.024 -2.1724  0.6719  0.6801
 3051SOL     OW11531   9.412   2.495   2.607 -0.0215 -0.3320 -0.1138
 3051SOL    HW111532   9.328   2.539   2.621 -0.3548 -0.6735 -1.0171
 3051SOL    HW211533   9.389   2.407   2.576  0.6633 -0.4513 -0.3007
 3052SOL     OW11534   3.537   4.622   2.749 -0.3427  0.7472 -0.3433
 3052SOL    HW111535   3.472   4.643   2.682 -1.7709  0.6016  0.9490
 3052SOL    HW211536   3.494   4.644   2.832  1.6069  1.5303  0.5208
 3053SOL     OW11537   3.193   8.073   1.171 -0.0326  0.0680 -0.4878
 3053SOL    HW111538   3.206   8.162   1.205 -0.0602 -0.3952  0.8062
 3053SOL    HW211539   3.272   8.026   1.198 -1.0073 -0.8655  0.8672
 3054SOL     OW11540   4.733   7.006   6.087 -0.4726  0.0493 -0.6139
 3054SOL    HW111541   4.749   7.019   6.180 -0.2286  1.0906 -0.7867
 3054SOL    HW211542   4.817   6.980   6.051 -0.5815 -0.4140 -0.5341
 3055SOL     OW11543   5.315   8.832   4.697 -0.3972  0.2204 -0.6131
 3055SOL    HW111544   5.323   8.856   4.605 -0.8782  2.5569 -0.1052
 3055SOL    HW211545   5.300   8.737   4.696 -1.2702  0.3222 -2.9846
 3056SOL     OW11546   7.922   9.584   1.608 -0.0664 -0.0049 -0.5955
 3056SOL    HW111547   7.920   9.569   1.703  1.3633  2.0623 -0.1752
 3056SOL    HW211548   7.964   9.505   1.573 -0.0137 -0.5131  0.5645
 3057SOL     OW11549   2.511   6.800   7.655 -0.0621 -0.1969  0.4799
 3057SOL    HW111550   2.577   6.868   7.659  0.6533 -0.9374  1.7789
 3057SOL    HW211551   2.469   6.801   7.741 -1.2090 -0.2721 -0.0553
 3058SOL     OW11552   7.667   1.992   7.455 -0.4348 -0.3261 -0.2456
 3058SOL    HW111553   7.636   2.015   7.367 -0.3909 -1.5817 -0.6121
 3058SOL    HW211554   7.761   1.975   7.443 -0.3434 -0.1030  0.1359
 3059SOL     OW11555   6.472   2.823   7.082 -0.1907 -0.4458 -0.1556
 3059SOL    HW111556   6.472   2.834   6.987  0.2562 -1.0144 -0.2274
 3059SOL    HW211557   6.428   2.739   7.096 -0.1807 -0.4031  0.1367
 3060SOL     OW11558   3.953   2.250   2.900  0.6764  0.2619 -0.0307
 3060SOL    HW111559   3.957   2.196   2.979 -0.1528  0.5305  0.2050
 3060SOL    HW211560   3.885   2.315   2.919  1.6266  1.3762 -0.3143
 3061SOL     OW11561   7.477   2.056   5.299 -0.5037 -0.0039 -0.2443
 3061SOL    HW111562   7.453   2.104   5.220  0.1825 -0.4538 -0.7413
 3061SOL    HW211563   7.427   1.974   5.294 -0.8852  0.2086  0.0738
 3062SOL     OW11564   2.762   1.410   6.831  0.6057  0.5942 -0.4091
 3062SOL    HW111565   2.684   1.354   6.822  1.6038 -0.8119 -0.6469
 3062SOL    HW211566   2.729   1.499   6.819 -0.8358 -0.0284 -1.4138
 3063SOL     OW11567   8.854   3.400   1.551 -0.0976  0.3274 -0.9166
 3063SOL    HW111568   8.899   3.464   1.606 -0.7482 -0.4124  0.5293
 3063SOL    HW211569   8.923   3.338   1.527  0.1355  0.4943 -0.6914
 3064SOL     OW11570   5.091   0.259   7.421  0.5303  0.5545  0.7711
 3064SOL    HW111571   5.113   0.318   7.350 -0.3823  0.7552  0.6378
 3064SOL    HW211572   5.175   0.223   7.450  0.7968 -0.9202 -1.5803
 3065SOL     OW11573   1.558   2.325   8.273 -0.1357  0.4329 -0.3848
 3065SOL    HW111574   1.654   2.328   8.283  0.0808 -0.2842 -1.9146
 3065SOL    HW211575   1.545   2.300   8.181 -1.8141  1.5188 -0.4704
 3066SOL     OW11576   2.491   7.341   4.026  0.6116 -0.0553 -0.2151
 3066SOL    HW111577   2.427   7.320   3.959 -0.8630  0.8550  0.8472
 3066SOL    HW211578   2.494   7.437   4.028  0.5841 -0.0558  1.0299
 3067SOL     OW11579   5.187  10.655   3.081 -0.4972 -0.1304  0.2605
 3067SOL    HW111580   5.218  10.705   3.005 -2.9330  1.2788  0.1037
 3067SOL    HW211581   5.101  10.623   3.055 -0.2417 -1.9432  1.4915
 3068SOL     OW11582   2.976   5.740   6.586 -0.6193 -0.0315  0.1279
 3068SOL    HW111583   3.056   5.741   6.533 -0.4081 -3.9075  0.1071
 3068SOL    HW211584   3.005   5.763   6.674  0.7505 -2.0095  0.2558
 3069SOL     OW11585   3.224   0.153  10.043  0.5303 -0.2195  0.2825
 3069SOL    HW111586   3.252   0.132   9.954 -0.0325  2.1191 -0.5236
 3069SOL    HW211587   3.158   0.087  10.063  0.9990 -1.0619 -0.8438
 3070SOL     OW11588   6.127   0.030   9.220 -0.2573 -0.3702  0.2540
 3070SOL    HW111589   6.164  -0.053   9.191  0.8046  0.7253 -1.6625
 3070SOL    HW211590   6.200   0.077   9.260  0.0020  0.9240 -1.6114
 3071SOL     OW11591   2.056   4.838   1.447  0.4696 -0.2800  0.0277
 3071SOL    HW111592   1.985   4.900   1.429  0.7063  0.4230  1.3951
 3071SOL    HW211593   2.049   4.773   1.376 -0.9526  0.2707 -0.3838
 3072SOL     OW11594   4.337   1.133   2.959 -0.5719 -0.6136 -0.2810
 3072SOL    HW111595   4.283   1.210   2.978 -0.5557 -0.6357 -0.1443
 3072SOL    HW211596   4.402   1.165   2.897 -0.2697 -0.3952  0.1414
 3073SOL     OW11597   7.326   2.330  10.301 -0.1047 -0.4770  0.0001
 3073SOL    HW111598   7.278   2.397  10.254  0.2048  1.3060  2.0779
 3073SOL    HW211599   7.413   2.367  10.313 -0.6084 -0.1051  3.2747
 3074SOL     OW11600   6.078   0.409   6.298 -0.0394  0.4023 -0.3260
 3074SOL    HW111601   6.161   0.421   6.344 -0.5258 -0.2224  0.7750
 3074SOL    HW211602   6.076   0.479   6.233  2.0773 -0.5398 -1.5132
 3075SOL     OW11603   4.700   4.980   4.746  1.0070 -0.1939 -0.0949
 3075SOL    HW111604   4.711   4.954   4.655  1.6960  1.6183 -0.5642
 3075SOL    HW211605   4.696   5.076   4.744  3.7524  0.1083  1.9964
 3076SOL     OW11606   8.831   1.749   6.931  0.7416 -0.0669 -0.1868
 3076SOL    HW111607   8.755   1.805   6.947 -0.3687 -1.3614 -0.7974
 3076SOL    HW211608   8.831   1.687   7.004  0.2715 -1.0617 -1.0134
 3077SOL     OW11609   8.936  10.764   6.659 -0.2197 -0.0589 -0.3545
 3077SOL    HW111610   8.899  10.758   6.748  0.2372 -0.1970 -0.1688
 3077SOL    HW211611   8.974  10.677   6.644  1.1128  0.4416 -0.0500
 3078SOL     OW11612   7.343   7.734   7.281 -0.3069  0.4563 -0.0109
 3078SOL    HW111613   7.428   7.759   7.245  0.8984 -3.2540 -0.1743
 3078SOL    HW211614   7.353   7.743   7.376  0.1194  0.3918 -0.0502
 3079SOL     OW11615   9.455   5.478   8.310  0.2214 -0.6517  0.3658
 3079SOL    HW111616   9.401   5.527   8.248  0.6574  1.2108  1.3909
 3079SOL    HW211617   9.428   5.387   8.299 -3.0362  0.1586  0.7228
 3080SOL     OW11618   5.644   5.994  10.279  0.2674 -0.2585 -0.2384
 3080SOL    HW111619   5.727   5.986  10.233  1.3511 -0.0093  1.5578
 3080SOL    HW211620   5.654   6.074  10.332 -1.5719  0.4229 -0.8661
 3081SOL     OW11621   3.520   9.926   8.237 -0.0649  0.0130  0.1193
 3081SOL    HW111622   3.574  10.004   8.240  1.2244 -0.8524  0.0528
 3081SOL    HW211623   3.486   9.916   8.326  2.1105 -0.9414  0.8879
 3082SOL     OW11624   2.933   1.130   7.659 -0.3775  0.1924  0.0034
 3082SOL    HW111625   2.838   1.135   7.665 -0.3265 -0.4836  1.8889
 3082SOL    HW211626   2.956   1.197   7.594 -2.0390  1.0724  0.2555
 3083SOL     OW11627   9.803   0.383   3.233  0.2383 -0.1688  0.0408
 3083SOL    HW111628   9.879   0.326   3.249  1.3692  0.8580 -1.4400
 3083SOL    HW211629   9.812   0.411   3.142 -1.8166  0.1787 -0.1080
 3084SOL     OW11630   1.070   2.579   5.388  0.5826  0.3124  0.1710
 3084SOL    HW111631   1.162   2.556   5.400 -0.1100 -2.3709  0.7827
 3084SOL    HW211632   1.072   2.649   5.322  2.9191 -1.4437 -1.8192
 3085SOL     OW11633   9.652   7.599   1.083 -0.1973  0.1253 -0.2071
 3085SOL    HW111634   9.621   7.527   1.028 -3.1707  1.2370 -0.1536
 3085SOL    HW211635   9.576   7.657   1.092  1.2933  1.9108  1.9752
 3086SOL     OW11636   1.556   4.311   0.442  0.2219 -0.2649 -0.4528
 3086SOL    HW111637   1.643   4.348   0.456  0.1719 -0.1695 -0.3855
 3086SOL    HW211638   1.528   4.347   0.358  0.2947 -0.3895 -0.5307
 3087SOL     OW11639   1.760   9.337   2.174  0.0614  0.0601 -0.2525
 3087SOL    HW111640   1.751   9.352   2.268 -2.5808  1.8926 -0.7172
 3087SOL    HW211641   1.719   9.251   2.160  2.2771 -1.2137  0.4331
 3088SOL     OW11642   1.820  10.650   0.004  0.6615  0.6768 -0.2173
 3088SOL    HW111643   1.915  10.651   0.007  0.6512 -0.0128  0.8237
 3088SOL    HW211644   1.798  10.686  -0.082  1.9054 -0.8358 -1.2115
 3089SOL     OW11645   6.422   3.360   5.038  0.3096 -0.0570  0.4056
 3089SOL    HW111646   6.503   3.389   5.080  0.9537  0.1827 -0.9412
 3089SOL    HW211647   6.352   3.407   5.086  0.9260 -0.4231  1.7101
 3090SOL     OW11648   8.276   5.573   3.737  0.0818 -0.3312  0.3287
 3090SOL    HW111649   8.336   5.498   3.744 -0.4627 -0.6907  1.2490
 3090SOL    HW211650   8.334   5.647   3.716  0.9965 -0.5079  2.0026
 3091SOL     OW11651   8.789   3.657   3.789  0.2902  0.3866  0.4767
 3091SOL    HW111652   8.735   3.669   3.711 -1.8579  1.5803  2.0157
 3091SOL    HW211653   8.849   3.732   3.789  0.7552  0.0278 -0.3292
 3092SOL     OW11654   9.321   8.066   4.224 -0.4677  0.1581 -0.9370
 3092SOL    HW111655   9.322   8.161   4.207  1.9993  0.0557 -1.7141
 3092SOL    HW211656   9.285   8.028   4.144 -0.9800  0.3932 -0.8240
 3093SOL     OW11657   0.888   6.142   1.157 -0.2585 -0.3905 -0.0647
 3093SOL    HW111658   0.957   6.076   1.166 -0.1179 -0.6851 -2.5216
 3093SOL    HW211659   0.828   6.124   1.230  2.7267  0.6144  2.9074
 3094SOL     OW11660   6.457  10.678   1.792  0.1988 -0.3736 -0.2532
 3094SOL    HW111661   6.458  10.598   1.740  1.4051 -1.3577  1.2076
 3094SOL    HW211662   6.545  10.685   1.828 -0.3253  0.7930  0.8888
 3095SOL     OW11663   6.524   8.708  10.504  0.1633  0.0144  0.5741
 3095SOL    HW111664   6.602   8.654  10.498 -0.6701 -1.3046  0.9984
 3095SOL    HW211665   6.453   8.645  10.518 -0.9586  1.1769  0.2960
 3096SOL     OW11666   6.562   7.855   1.035 -0.4018 -0.0991  0.9321
 3096SOL    HW111667   6.542   7.828   0.945  1.5849 -0.8311  0.6578
 3096SOL    HW211668   6.633   7.797   1.062  0.0414  1.0951  2.4489
 3097SOL     OW11669  10.653   8.821   6.693 -0.9734  0.3071 -0.1836
 3097SOL    HW111670  10.658   8.894   6.631 -1.0460 -0.1398 -0.7216
 3097SOL    HW211671  10.697   8.749   6.649 -2.0716 -0.3618 -0.2214
 3098SOL     OW11672  10.765  10.159   7.292  0.1286  0.3128 -0.6389
 3098SOL    HW111673  10.686  10.206   7.317  0.0531 -0.4012  0.5350
 3098SOL    HW211674  10.824  10.228   7.261 -0.1683  1.1459  0.5379
 3099SOL     OW11675   3.967   0.242   8.424 -0.0743 -0.0627 -0.3146
 3099SOL    HW111676   4.046   0.292   8.403 -0.7012  0.4580 -1.5332
 3099SOL    HW211677   3.895   0.300   8.399 -0.8216 -1.3426 -1.2659
 3100SOL     OW11678   1.729  10.243   5.163 -0.1135  0.6243 -0.4212
 3100SOL    HW111679   1.816  10.240   5.124 -0.6712  0.2770 -1.6793
 3100SOL    HW211680   1.715  10.154   5.196 -1.0138 -0.1237 -2.6151
 3101SOL     OW11681   9.800   6.192   6.272 -0.0561  0.3810 -0.2895
 3101SOL    HW111682   9.825   6.129   6.205  1.7272  1.2978 -0.5576
 3101SOL    HW211683   9.873   6.190   6.335 -0.2914  1.6451  0.0580
 3102SOL     OW11684   7.862   6.356  10.108  0.1439 -0.7477  0.3732
 3102SOL    HW111685   7.919   6.400  10.171  0.5581  0.4278 -0.7659
 3102SOL    HW211686   7.883   6.263  10.116  1.8514 -0.3975  0.3711
 3103SOL     OW11687   2.473   7.160   1.082 -0.2319 -0.2070  0.0252
 3103SOL    HW111688   2.456   7.254   1.085 -1.8643 -0.4139 -1.2392
 3103SOL    HW211689   2.512   7.146   0.995  0.1682 -0.6750  0.2759
 3104SOL     OW11690  10.533   9.203   4.258 -0.4534 -0.2024  0.4756
 3104SOL    HW111691  10.503   9.155   4.181 -0.0687 -0.5664  0.5516
 3104SOL    HW211692  10.627   9.185   4.263  0.1602  2.2349 -0.7302
 3105SOL     OW11693   7.603   8.912   0.915  0.3717  0.0919 -0.3795
 3105SOL    HW111694   7.593   8.817   0.912 -2.5378  0.3027 -0.2368
 3105SOL    HW211695   7.622   8.932   1.006  0.1220 -0.2937 -0.2420
 3106SOL     OW11696   9.236   8.848   5.798 -0.4544  0.1778 -0.3864
 3106SOL    HW111697   9.283   8.767   5.779 -0.5699 -0.4003  1.6375
 3106SOL    HW211698   9.301   8.905   5.838 -1.0784 -0.0616  1.0185
 3107SOL     OW11699   1.245  10.550   3.442  0.3722  0.4577  0.4797
 3107SOL    HW111700   1.173  10.609   3.461  0.0887  1.1756 -2.3463
 3107SOL    HW211701   1.324  10.598   3.469 -0.0813 -0.0066  2.8291
 3108SOL     OW11702   0.490   4.303   2.710 -0.1237 -0.4700 -0.7344
 3108SOL    HW111703   0.439   4.311   2.630 -0.3584 -0.7715 -0.6188
 3108SOL    HW211704   0.501   4.209   2.723  1.1976 -0.3991 -1.2115
 3109SOL     OW11705   5.550   8.340   9.743 -0.0506 -0.0612  0.3308
 3109SOL    HW111706   5.536   8.252   9.777  1.5217 -0.1103  0.9120
 3109SOL    HW211707   5.622   8.330   9.681  1.2054  1.0485  1.5548
 3110SOL     OW11708   4.987   9.435   5.097  0.1386  0.4206  0.0555
 3110SOL    HW111709   5.005   9.350   5.056  0.0674  0.5488 -0.2506
 3110SOL    HW211710   5.030   9.431   5.182 -0.9549 -0.4184  0.6037
 3111SOL     OW11711   3.526   8.538   9.749  0.1863  0.5321  0.7534
 3111SOL    HW111712   3.614   8.502   9.736 -0.0822  0.0434  0.2928
 3111SOL    HW211713   3.467   8.467   9.726 -0.3483  1.3734 -0.5458
 3112SOL     OW11714   4.485   9.415   7.199 -0.6232 -0.2366  0.4047
 3112SOL    HW111715   4.544   9.393   7.127 -1.0960  0.5697 -0.2429
 3112SOL    HW211716   4.505   9.506   7.220 -1.7150  0.0914  0.0926
 3113SOL     OW11717   1.578   6.171   8.470 -0.2826 -0.1738  0.4312
 3113SOL    HW111718   1.621   6.112   8.531 -1.9072 -0.3071  1.5028
 3113SOL    HW211719   1.528   6.231   8.525 -1.9941 -0.4407 -0.7383
 3114SOL     OW11720   0.632   8.984   8.166 -0.2876  0.2498  0.4909
 3114SOL    HW111721   0.655   8.961   8.076  0.3433  0.8691  0.4875
 3114SOL    HW211722   0.670   8.914   8.219 -0.0018  0.2832  0.3349
 3115SOL     OW11723   0.286   0.679   1.778  0.3562 -0.0844 -0.2279
 3115SOL    HW111724   0.233   0.605   1.807 -0.5599  1.0537  1.1484
 3115SOL    HW211725   0.226   0.754   1.778  1.4697  0.8478 -0.6688
 3116SOL     OW11726   5.048   1.049   6.389 -0.2568 -0.2209 -0.4339
 3116SOL    HW111727   5.083   0.995   6.318 -0.5851 -0.5888 -0.3234
 3116SOL    HW211728   4.995   1.115   6.345  0.4577  0.2550 -0.5941
 3117SOL     OW11729   9.574   8.118   4.917  0.5207  0.2963 -0.0360
 3117SOL    HW111730   9.495   8.169   4.897 -0.2572 -0.7281  0.3252
 3117SOL    HW211731   9.625   8.175   4.974  0.2977  1.1799 -0.6948
 3118SOL     OW11732   7.117   7.488   3.631  0.4817 -0.1779  0.1127
 3118SOL    HW111733   7.177   7.513   3.701 -0.0923  0.4110  0.3991
 3118SOL    HW211734   7.030   7.509   3.665  0.2883  1.9496 -1.4973
 3119SOL     OW11735   7.823   7.634  10.061 -0.5465 -0.1128  0.2663
 3119SOL    HW111736   7.758   7.590  10.117 -1.1372  0.5858  0.1347
 3119SOL    HW211737   7.907   7.599  10.092 -1.0178 -1.7896 -0.2253
 3120SOL     OW11738   1.115   8.631  10.801 -0.2220 -0.9527 -0.1068
 3120SOL    HW111739   1.116   8.721  10.768 -1.1593 -1.2611 -1.0281
 3120SOL    HW211740   1.121   8.640  10.896  0.1911  0.0563 -0.2141
 3121SOL     OW11741   7.881   2.066   4.680  0.2548 -0.6198  0.2808
 3121SOL    HW111742   7.852   2.006   4.611  0.9487  1.0882 -1.5888
 3121SOL    HW211743   7.939   2.014   4.735 -1.3782 -2.3952  0.4175
 3122SOL     OW11744   3.701   1.097   4.012 -0.1595 -0.3311  0.3730
 3122SOL    HW111745   3.761   1.130   4.080  0.4015 -0.3455 -0.0988
 3122SOL    HW211746   3.751   1.108   3.931 -0.4630 -1.1691  0.0661
 3123SOL     OW11747   6.136   1.845   7.597  0.1638  0.2507  0.0872
 3123SOL    HW111748   6.150   1.773   7.658 -0.1468 -0.4297 -0.6223
 3123SOL    HW211749   6.042   1.865   7.604 -0.2778 -1.0811 -1.4801
 3124SOL     OW11750   2.362   3.003   0.954 -0.0293 -0.0830 -0.5355
 3124SOL    HW111751   2.284   2.988   0.901  0.1258  0.7656 -1.0144
 3124SOL    HW211752   2.340   2.965   1.039 -0.4870 -0.9729 -1.0264
 3125SOL     OW11753   2.192   0.752  10.798 -0.1043  0.0204 -0.2823
 3125SOL    HW111754   2.236   0.692  10.858 -2.2674 -2.2062 -0.8122
 3125SOL    HW211755   2.116   0.783  10.847 -0.3964  0.3372 -0.9352
 3126SOL     OW11756   9.055   3.868   7.847  0.1796 -0.0266  0.4111
 3126SOL    HW111757   9.058   3.876   7.942 -2.8131  1.2608  0.5221
 3126SOL    HW211758   9.029   3.955   7.816 -1.6346 -1.0685 -1.3073
 3127SOL     OW11759   2.173   7.912  10.705 -0.8409  0.4082 -0.2286
 3127SOL    HW111760   2.187   7.823  10.737 -4.1542 -0.1988 -0.0966
 3127SOL    HW211761   2.201   7.910  10.613 -1.0469 -0.8135 -0.2725
 3128SOL     OW11762   3.242   5.077   0.972  0.4121 -0.2145 -0.0587
 3128SOL    HW111763   3.266   5.144   1.036 -0.0742  0.1373 -0.2361
 3128SOL    HW211764   3.321   5.066   0.919  1.0815 -1.0895  1.0890
 3129SOL     OW11765   3.335   1.752   4.003 -0.6786  0.6211 -0.0188
 3129SOL    HW111766   3.370   1.664   3.990 -0.2884  0.7425  0.1694
 3129SOL    HW211767   3.241   1.739   4.017 -0.3499  0.0025  2.0869
 3130SOL     OW11768   1.053   2.053   4.900  0.5349  0.2388 -0.4265
 3130SOL    HW111769   1.072   2.138   4.860  0.1119  0.3351 -0.4324
 3130SOL    HW211770   1.095   1.990   4.842 -0.7769  0.3217 -1.5102
 3131SOL     OW11771   0.675   6.280   6.015  0.3978 -0.0848  0.1073
 3131SOL    HW111772   0.641   6.366   5.990 -0.5821 -0.7046 -0.8137
 3131SOL    HW211773   0.602   6.220   5.997  0.8416 -1.0340  1.3183
 3132SOL     OW11774   7.687   2.882   0.524 -0.6281 -0.5386 -0.1033
 3132SOL    HW111775   7.719   2.850   0.440  0.4395 -0.0967  0.1083
 3132SOL    HW211776   7.765   2.918   0.567 -1.4233  0.6191  0.4363
 3133SOL     OW11777   9.494   0.265   3.296 -0.1774  0.1371  0.0250
 3133SOL    HW111778   9.568   0.312   3.336  0.4079 -0.1402 -0.6984
 3133SOL    HW211779   9.484   0.186   3.349 -0.7434  0.7440  0.8511
 3134SOL     OW11780   3.355   2.482   7.241 -0.3949  0.1958  0.3572
 3134SOL    HW111781   3.281   2.539   7.216  0.5689  0.2083 -3.0106
 3134SOL    HW211782   3.346   2.406   7.183  0.9959 -0.8530  1.4776
 3135SOL     OW11783   2.974   7.054   9.199  0.1026  0.1453  0.0278
 3135SOL    HW111784   3.032   6.978   9.188  1.7610  1.3213  0.2938
 3135SOL    HW211785   2.980   7.076   9.292 -0.2031  0.7172 -0.0833
 3136SOL     OW11786  10.197   7.099  10.002 -0.0743  0.6745  0.5256
 3136SOL    HW111787  10.140   7.172   9.977  1.9316  2.6037  1.2542
 3136SOL    HW211788  10.219   7.056   9.919  0.9054  2.6614 -0.3277
 3137SOL     OW11789   2.555   0.827   2.098 -0.1844 -0.0968 -0.2722
 3137SOL    HW111790   2.610   0.749   2.100  1.6286  1.1362  0.6345
 3137SOL    HW211791   2.466   0.794   2.111  0.4275 -2.0652 -0.7471
 3138SOL     OW11792   4.476   5.061   2.342  0.3757 -1.0079  0.3711
 3138SOL    HW111793   4.478   4.984   2.399 -0.1269 -1.1622  0.1898
 3138SOL    HW211794   4.496   5.027   2.255  1.1470 -0.7716  0.4478
 3139SOL     OW11795   9.167   2.632   5.877  0.4775  0.5798 -0.6744
 3139SOL    HW111796   9.137   2.584   5.800 -3.3169 -0.1506  1.0709
 3139SOL    HW211797   9.114   2.712   5.878 -0.6920 -0.1132  1.8645
 3140SOL     OW11798   4.900   5.993   7.119 -0.0405  0.1333 -0.1623
 3140SOL    HW111799   4.908   6.023   7.210  0.4764  0.8525 -0.4328
 3140SOL    HW211800   4.986   5.958   7.098 -0.5007 -1.1241 -0.0109
 3141SOL     OW11801   8.212   6.249   9.291 -0.0116  0.7335  0.4316
 3141SOL    HW111802   8.140   6.293   9.336 -2.3539 -0.7938 -1.5176
 3141SOL    HW211803   8.197   6.267   9.199  2.2708  0.4727 -0.0475
 3142SOL     OW11804   5.393   3.096   6.407  0.3495 -0.2814  0.2052
 3142SOL    HW111805   5.483   3.077   6.433  0.2933 -0.8807 -0.0421
 3142SOL    HW211806   5.381   3.051   6.323 -0.9470 -2.2966  1.3791
 3143SOL     OW11807   7.502   5.192   4.919 -0.1051  0.4697 -0.6375
 3143SOL    HW111808   7.509   5.109   4.873 -0.6100 -0.1141  0.3247
 3143SOL    HW211809   7.528   5.173   5.009 -1.7819  0.9913 -0.0131
 3144SOL     OW11810   1.263   0.584   0.908 -0.4420  0.1120 -0.5065
 3144SOL    HW111811   1.213   0.518   0.859 -0.1916 -0.1382 -0.4284
 3144SOL    HW211812   1.214   0.665   0.896 -1.1838 -0.2462  0.0485
 3145SOL     OW11813   4.528   9.163   9.114 -0.5286  0.1626  0.4278
 3145SOL    HW111814   4.606   9.140   9.165  0.4576  0.9141 -0.6843
 3145SOL    HW211815   4.457   9.165   9.178  0.1404 -1.5977  1.2957
 3146SOL     OW11816   2.552   1.495   8.544 -1.2968  0.4106 -0.4177
 3146SOL    HW111817   2.460   1.520   8.556 -1.8326 -1.1804 -1.0165
 3146SOL    HW211818   2.554   1.453   8.459 -0.1063 -0.0778 -0.1631
 3147SOL     OW11819   3.959   4.843   3.159 -0.4412 -0.3375 -0.1102
 3147SOL    HW111820   4.001   4.863   3.076  0.9575  1.8099  1.0243
 3147SOL    HW211821   4.015   4.777   3.200 -0.3939 -0.4075 -0.2881
 3148SOL     OW11822   5.569   5.242   6.334  0.5138 -0.1754  0.0324
 3148SOL    HW111823   5.652   5.273   6.298  0.9689 -1.7939 -0.3934
 3148SOL    HW211824   5.571   5.147   6.321 -1.0738 -0.3356  0.7142
 3149SOL     OW11825   5.928   5.878  10.191  0.0753  0.6021  0.2197
 3149SOL    HW111826   6.016   5.859  10.223  0.8476  2.8152 -0.3882
 3149SOL    HW211827   5.942   5.937  10.117 -1.9031  0.5338 -0.2562
 3150SOL     OW11828   8.296   1.773   4.841 -0.0841  0.2688  0.1396
 3150SOL    HW111829   8.344   1.793   4.921 -0.9358 -1.1834  1.0435
 3150SOL    HW211830   8.363   1.772   4.772  0.9212 -0.1428  1.1050
 3151SOL     OW11831   7.355   1.638   8.278  0.2987 -0.4116  0.0304
 3151SOL    HW111832   7.385   1.587   8.354  1.2685  0.2181  0.0952
 3151SOL    HW211833   7.283   1.691   8.312 -2.1222 -3.0927 -0.4993
 3152SOL     OW11834   4.963   4.026   3.016 -0.4276 -0.1635 -0.4704
 3152SOL    HW111835   4.959   3.975   2.935 -2.2396  0.2184 -0.6524
 3152SOL    HW211836   4.989   3.962   3.082 -0.9058 -0.9302 -1.0042
 3153SOL     OW11837   5.657   0.689   7.131 -0.4212  0.3554 -0.2423
 3153SOL    HW111838   5.601   0.632   7.078 -2.2469  0.4697  1.4701
 3153SOL    HW211839   5.624   0.777   7.113 -0.2187  0.5075  0.1355
 3154SOL     OW11840   5.072   2.117   4.919 -0.1710  0.4982 -0.2016
 3154SOL    HW111841   5.045   2.193   4.971  1.3608  0.6437  0.4155
 3154SOL    HW211842   5.083   2.151   4.831 -0.5595  0.7426 -0.1613
 3155SOL     OW11843   7.770   4.114   6.683  0.3732 -0.0429 -0.0041
 3155SOL    HW111844   7.679   4.089   6.692  0.6460 -1.0634  0.0329
 3155SOL    HW211845   7.768   4.203   6.646 -0.6089 -0.6384 -1.4604
 3156SOL     OW11846   3.171   8.661   5.206  0.1931  0.3709 -0.0231
 3156SOL    HW111847   3.231   8.695   5.272  0.2037 -1.7462  1.1418
 3156SOL    HW211848   3.088   8.705   5.224  0.2407 -0.0342  1.3293
 3157SOL     OW11849   4.089   2.689   7.912 -0.2001  0.0820  0.2012
 3157SOL    HW111850   4.089   2.611   7.857 -0.2492  0.1091  0.1627
 3157SOL    HW211851   4.055   2.758   7.856 -1.8441 -0.2399  0.7534
 3158SOL     OW11852  10.353   9.636   4.399 -0.0797  0.4757 -0.1679
 3158SOL    HW111853  10.380   9.548   4.373  2.0868  0.9191  0.3589
 3158SOL    HW211854  10.341   9.683   4.317  0.0973  0.0578 -0.4366
 3159SOL     OW11855   3.824   1.514   8.905 -0.4584  0.5333  0.3891
 3159SOL    HW111856   3.863   1.599   8.926  1.5413 -0.4207  0.7244
 3159SOL    HW211857   3.767   1.533   8.830  0.4145  2.0715  0.0573
 3160SOL     OW11858   0.049   2.422   9.969  0.3133  0.4170 -0.7309
 3160SOL    HW111859   0.018   2.505  10.004  0.3274  0.1219 -0.0096
 3160SOL    HW211860   0.143   2.434   9.957  0.2270  0.6900 -1.1730
 3161SOL     OW11861   8.373  10.140   4.742  0.1664 -0.3767  0.0826
 3161SOL    HW111862   8.384  10.045   4.730 -0.6655 -0.8010  2.1560
 3161SOL    HW211863   8.318  10.147   4.820 -0.7057  1.8197 -0.6583
 3162SOL     OW11864   7.846   6.507   8.660  0.5380  0.0555  0.3678
 3162SOL    HW111865   7.803   6.509   8.745  0.9261 -1.6409  0.6279
 3162SOL    HW211866   7.785   6.459   8.604  0.3537  1.0307 -0.2991
 3163SOL     OW11867   3.919   4.946   8.035 -0.1788 -0.0958  0.2607
 3163SOL    HW111868   4.009   4.916   8.050 -0.1158  0.0059  0.0791
 3163SOL    HW211869   3.876   4.873   7.991  0.2254  0.4117 -1.0220
 3164SOL     OW11870   3.097   0.260   3.505  0.0979  0.5623  0.2537
 3164SOL    HW111871   3.076   0.313   3.429  1.5384  0.9440  0.0802
 3164SOL    HW211872   3.189   0.280   3.524  0.2050 -0.6286  1.1900
 3165SOL     OW11873   5.720   8.800   3.549  0.4657  0.0878 -0.2606
 3165SOL    HW111874   5.635   8.792   3.593  0.0830  0.4991 -0.9018
 3165SOL    HW211875   5.758   8.712   3.554  0.4985  0.1559  0.9969
 3166SOL     OW11876   5.584   4.698   1.917 -0.6357  0.2280 -0.7549
 3166SOL    HW111877   5.491   4.714   1.901 -0.7331 -0.7650 -1.2248
 3166SOL    HW211878   5.628   4.731   1.839 -0.4691  1.7027 -0.0774
 3167SOL     OW11879   9.784   9.494  10.585 -0.2667  0.1576  0.0437
 3167SOL    HW111880   9.840   9.493  10.662 -1.7791  3.5432  1.4446
 3167SOL    HW211881   9.837   9.535  10.517 -0.6883  2.9502  1.2371
 3168SOL     OW11882   9.418   2.131   4.114 -0.1514  0.7088 -0.0846
 3168SOL    HW111883   9.471   2.175   4.181 -1.2066  0.8620  0.6827
 3168SOL    HW211884   9.390   2.201   4.056  1.1605  0.5132 -1.0119
 3169SOL     OW11885  10.347  10.052   1.984 -0.8125  0.5257 -0.0947
 3169SOL    HW111886  10.435  10.060   1.948 -0.2571  0.1667  1.1546
 3169SOL    HW211887  10.358  10.004   2.066 -2.1824  0.3979  0.0434
 3170SOL     OW11888   9.531   2.440   8.493 -0.2929 -0.1969  0.1699
 3170SOL    HW111889   9.453   2.492   8.510 -0.8795 -1.4028  1.4077
 3170SOL    HW211890   9.595   2.472   8.557 -0.3508 -0.3478  0.3057
 3171SOL     OW11891   3.304   9.075   5.839 -0.3957  0.7048 -0.1905
 3171SOL    HW111892   3.377   9.127   5.873  0.2954 -0.5496  0.3243
 3171SOL    HW211893   3.308   8.994   5.889 -0.5432 -0.4418 -1.9542
 3172SOL     OW11894   4.970   9.254   5.907  0.2274 -0.3244  0.0930
 3172SOL    HW111895   4.988   9.260   5.813  2.6753  0.3531  0.5613
 3172SOL    HW211896   5.012   9.172   5.934  0.9529  0.3046  0.8866
 3173SOL     OW11897   1.737   5.288   0.326 -0.1058 -0.5710 -0.0554
 3173SOL    HW111898   1.712   5.377   0.300  0.8101 -0.6157 -1.1817
 3173SOL    HW211899   1.830   5.283   0.307 -0.0825 -1.6742  0.2944
 3174SOL     OW11900   5.439   2.826   2.130  0.3189 -0.1172 -0.3676
 3174SOL    HW111901   5.452   2.743   2.176  1.6750  0.1810 -0.1850
 3174SOL    HW211902   5.477   2.892   2.187  1.5318  0.3346 -1.6357
 3175SOL     OW11903   2.962   8.052   3.906 -0.2821 -0.0746  0.5378
 3175SOL    HW111904   2.975   8.075   3.813 -1.2322  0.3371  0.4961
 3175SOL    HW211905   2.892   7.987   3.905  0.0954 -0.4931  0.9337
 3176SOL     OW11906   3.365   8.866   2.612 -0.5119  0.1692  0.4138
 3176SOL    HW111907   3.431   8.909   2.667 -0.4719 -0.8964  1.2524
 3176SOL    HW211908   3.349   8.783   2.657 -0.7808 -0.5622 -0.9909
 3177SOL     OW11909   1.611   8.274   7.176  0.1153 -0.4245 -0.1021
 3177SOL    HW111910   1.641   8.364   7.191 -0.1422 -0.2110 -0.8011
 3177SOL    HW211911   1.635   8.257   7.085 -1.5490 -0.3731 -0.5782
 3178SOL     OW11912   7.230   8.396   7.280 -0.0979  0.0490 -0.1795
 3178SOL    HW111913   7.215   8.312   7.324 -0.2415 -0.8700 -1.8776
 3178SOL    HW211914   7.270   8.451   7.346  1.1464 -1.7655  0.6613
 3179SOL     OW11915   4.536   5.700   4.967  0.4291 -0.3019 -0.5047
 3179SOL    HW111916   4.507   5.780   5.010  0.3710 -0.9273  0.6607
 3179SOL    HW211917   4.461   5.672   4.914  0.2270  0.0689 -0.4164
 3180SOL     OW11918   3.990   1.665   2.608  0.1340 -0.1112 -0.3112
 3180SOL    HW111919   4.052   1.671   2.536 -0.1785 -0.4862 -0.6147
 3180SOL    HW211920   3.927   1.735   2.592  1.7382  1.7929  1.2407
 3181SOL     OW11921   1.394   0.567   8.665  1.2996  1.0332  0.2279
 3181SOL    HW111922   1.442   0.489   8.693 -0.9858 -0.6170 -0.1514
 3181SOL    HW211923   1.417   0.579   8.573  0.6277 -0.0335 -0.0844
 3182SOL     OW11924  10.726   2.786   0.952  0.1679 -0.8000 -0.5539
 3182SOL    HW111925  10.651   2.736   0.985 -1.2838  1.6902  0.2131
 3182SOL    HW211926  10.761   2.831   1.030  0.8079  0.0971 -1.3327
 3183SOL     OW11927   1.844   3.296   8.871  0.0531  0.4286  0.2256
 3183SOL    HW111928   1.874   3.208   8.848 -0.9584  1.0834 -4.5033
 3183SOL    HW211929   1.750   3.296   8.852 -0.1076  2.3833  0.7292
 3184SOL     OW11930  10.216  10.469   0.143 -0.0394  0.6644 -0.2042
 3184SOL    HW111931  10.139  10.412   0.146  1.2707 -1.1977  0.1086
 3184SOL    HW211932  10.203  10.523   0.065 -0.6528 -1.1989 -1.4691
 3185SOL     OW11933   4.372   7.100   1.610  0.0621  0.5544 -0.2400
 3185SOL    HW111934   4.309   7.029   1.619  0.1967  0.1996 -1.8192
 3185SOL    HW211935   4.433   7.070   1.544 -0.6568  2.6706 -1.9984
 3186SOL     OW11936   8.981   1.541   0.086  0.0868  0.0325  0.0465
 3186SOL    HW111937   9.062   1.581   0.056 -0.0069  0.0778 -0.1468
 3186SOL    HW211938   9.008   1.459   0.128  0.2828  0.3264  0.4966
 3187SOL     OW11939   1.680   8.849  10.449 -0.0464 -0.4251  0.5206
 3187SOL    HW111940   1.700   8.900  10.527 -0.4722 -0.9144  0.9500
 3187SOL    HW211941   1.599   8.803  10.469 -0.4954 -0.0854 -0.4337
 3188SOL     OW11942   5.381  10.662   4.637  0.3468  0.8593  0.5635
 3188SOL    HW111943   5.358  10.750   4.608  2.7930  1.1044 -0.9359
 3188SOL    HW211944   5.464  10.674   4.684  0.9240 -0.6725 -0.0218
 3189SOL     OW11945   1.888   2.383  10.739 -0.2199 -0.1575  0.8718
 3189SOL    HW111946   1.880   2.328  10.661 -0.5562 -1.6029  1.9034
 3189SOL    HW211947   1.799   2.393  10.771 -0.0461  0.1532  1.2629
 3190SOL     OW11948   4.398   1.816   5.795 -0.1154  0.0657 -0.9255
 3190SOL    HW111949   4.388   1.722   5.783 -1.3266  0.2612 -1.7598
 3190SOL    HW211950   4.431   1.827   5.884 -1.2426 -1.0988 -0.3381
 3191SOL     OW11951  10.164   7.881   5.827 -0.5690  0.3423 -0.4370
 3191SOL    HW111952  10.242   7.830   5.805  1.1357  2.8611 -0.6869
 3191SOL    HW211953  10.134   7.844   5.910  0.1615 -1.4613 -0.9263
 3192SOL     OW11954  10.154   4.807  10.365  0.5767  0.0368 -0.3876
 3192SOL    HW111955  10.078   4.860  10.389  1.1299  0.3988  0.6307
 3192SOL    HW211956  10.119   4.719  10.354 -0.5639  0.6889 -3.1254
 3193SOL     OW11957   1.341   0.682   2.378  0.5155 -0.3829 -0.2992
 3193SOL    HW111958   1.290   0.723   2.308 -1.1813 -3.0422 -0.7580
 3193SOL    HW211959   1.400   0.622   2.332  1.2994 -0.1900  0.4384
 3194SOL     OW11960   6.311   0.981   8.831  0.9282  0.2693 -0.6916
 3194SOL    HW111961   6.311   0.900   8.881  3.1292  0.1057 -0.8917
 3194SOL    HW211962   6.334   0.955   8.742  0.7937  1.0238 -0.9565
 3195SOL     OW11963   7.148   0.818   5.391  0.4155  0.2873 -0.9525
 3195SOL    HW111964   7.184   0.729   5.384 -2.4663 -0.9033 -2.6217
 3195SOL    HW211965   7.065   0.806   5.438 -0.4964  1.8996 -2.0524
 3196SOL     OW11966   2.853  10.296   3.721 -0.3539  0.9493 -0.3886
 3196SOL    HW111967   2.858  10.324   3.630  0.5580 -1.5608 -1.1736
 3196SOL    HW211968   2.919  10.228   3.730 -1.2022  0.3025  1.8544
 3197SOL     OW11969   4.696   1.620   7.211 -0.0254 -0.6900 -0.4256
 3197SOL    HW111970   4.633   1.601   7.281 -1.4408  1.5851 -0.9550
 3197SOL    HW211971   4.641   1.640   7.135  1.4627 -2.0986 -1.9299
 3198SOL     OW11972   4.677   2.168   0.858  0.2585  0.9500  0.0799
 3198SOL    HW111973   4.688   2.145   0.766 -0.4559  0.9827 -0.0176
 3198SOL    HW211974   4.583   2.185   0.868  0.4470  1.7884  0.6125
 3199SOL     OW11975   7.745   0.613   3.200 -0.3963 -0.5162  0.1308
 3199SOL    HW111976   7.729   0.561   3.279 -0.5032 -0.4116  0.1793
 3199SOL    HW211977   7.689   0.575   3.133  2.7597 -3.3790 -1.1419
 3200SOL     OW11978   6.735   4.321   8.758 -0.2771  0.0646  0.3846
 3200SOL    HW111979   6.789   4.275   8.693 -1.2326  0.8660 -1.0410
 3200SOL    HW211980   6.694   4.251   8.808  0.4670 -0.5797  0.1285
 3201SOL     OW11981   4.730   0.309   5.353 -0.5656 -0.0704  0.5794
 3201SOL    HW111982   4.762   0.220   5.366 -0.8000 -0.0769  1.1855
 3201SOL    HW211983   4.726   0.320   5.258 -0.0567 -0.5288  0.4997
 3202SOL     OW11984   4.956   3.401   9.955  0.4404 -0.0744  0.5436
 3202SOL    HW111985   5.037   3.388  10.004  2.4659  1.5082 -2.1078
 3202SOL    HW211986   4.949   3.324   9.898  0.0556 -0.2113  0.7700
 3203SOL     OW11987   5.599   9.885   1.106 -0.3644  0.7644  0.0555
 3203SOL    HW111988   5.679   9.851   1.146 -0.6687  0.9635  0.8643
 3203SOL    HW211989   5.548   9.918   1.180 -1.3272  0.3644 -0.4185
 3204SOL     OW11990   0.412   6.739   2.086 -0.0983 -0.3293  0.0849
 3204SOL    HW111991   0.401   6.646   2.067  0.7226 -0.4928  0.3783
 3204SOL    HW211992   0.332   6.780   2.052 -0.3834 -1.1126 -0.2106
 3205SOL     OW11993   4.131   5.037   9.828 -0.8166  0.0786 -0.5021
 3205SOL    HW111994   4.209   5.092   9.821 -0.7308 -0.0009 -0.1914
 3205SOL    HW211995   4.161   4.958   9.872 -0.2729 -1.5502 -3.5524
 3206SOL     OW11996   9.147   7.935   8.284 -0.3633  0.0349  0.0448
 3206SOL    HW111997   9.191   7.871   8.227  1.9227 -1.1025  2.8385
 3206SOL    HW211998   9.073   7.888   8.321 -0.8702  0.2404 -0.6890
 3207SOL     OW11999   4.691   8.499   4.158  0.4440  0.3197  0.0553
 3207SOL    HW112000   4.774   8.488   4.113  0.2646 -0.9069 -0.0061
 3207SOL    HW212001   4.635   8.430   4.124  0.0754 -0.2115  1.6278
 3208SOL     OW12002   4.220   6.344   3.879  0.0020 -0.6062 -0.2721
 3208SOL    HW112003   4.259   6.425   3.846  0.2163  0.6581  2.7597
 3208SOL    HW212004   4.125   6.358   3.871  0.0461 -0.2448 -0.1733
 3209SOL     OW12005   9.360   5.474   7.038 -0.2547 -0.3561 -0.2218
 3209SOL    HW112006   9.399   5.388   7.054  0.0504 -0.3666 -0.9916
 3209SOL    HW212007   9.430   5.525   6.997  0.5991  1.2593  2.8830
 3210SOL     OW12008   5.520   8.340   0.554  0.4221 -0.1973 -0.0895
 3210SOL    HW112009   5.589   8.280   0.523  1.1102 -0.5777  2.0133
 3210SOL    HW212010   5.565   8.423   0.567  0.1071 -0.0017 -0.2519
 3211SOL     OW12011   1.785   6.678   2.486 -0.2257  0.6526  0.4547
 3211SOL    HW112012   1.734   6.728   2.423 -0.7987  0.6897  0.9435
 3211SOL    HW212013   1.722   6.648   2.551  0.2734  0.1720  0.7315
 3212SOL     OW12014   2.900   1.797   0.464 -0.1481 -0.1960 -0.7713
 3212SOL    HW112015   2.988   1.767   0.485  0.6461  1.6209 -1.3031
 3212SOL    HW212016   2.886   1.768   0.373  0.2579  0.2711 -0.9851
 3213SOL     OW12017   0.704   4.346   4.038 -0.3312 -0.3960  0.1507
 3213SOL    HW112018   0.649   4.345   3.960  1.1628  0.6897 -0.9780
 3213SOL    HW212019   0.674   4.422   4.088  1.2379  1.2973 -1.3543
 3214SOL     OW12020   5.128   6.537  10.582  0.3516 -0.0727 -0.0066
 3214SOL    HW112021   5.149   6.446  10.604  1.0602  0.2478  0.7112
 3214SOL    HW212022   5.102   6.576  10.666 -0.7766  0.1724 -0.4618
 3215SOL     OW12023   5.440   0.652   5.169 -0.2202 -0.1728 -0.5795
 3215SOL    HW112024   5.418   0.655   5.262  1.5558 -0.7904 -0.0865
 3215SOL    HW212025   5.356   0.660   5.123 -1.0886  0.5636  1.0543
 3216SOL     OW12026   5.608   6.402   3.756 -0.3927  0.3699 -0.3820
 3216SOL    HW112027   5.581   6.312   3.772 -0.4048  0.3780 -0.3548
 3216SOL    HW212028   5.534   6.455   3.784 -0.6027  0.3645 -0.9177
 3217SOL     OW12029   3.272   4.125   0.794 -0.3257 -0.5724 -0.6953
 3217SOL    HW112030   3.291   4.184   0.867  0.1642 -0.1144 -1.1807
 3217SOL    HW212031   3.245   4.183   0.723  1.4219 -0.8053 -1.5900
 3218SOL     OW12032   8.273  10.253   5.284  0.1612  0.1720 -0.3869
 3218SOL    HW112033   8.272  10.326   5.345 -2.0475 -0.1631  0.0611
 3218SOL    HW212034   8.188  10.210   5.297 -0.4993  0.1822 -3.7751
 3219SOL     OW12035  10.224   8.813   1.004  0.0013 -0.4010 -0.5102
 3219SOL    HW112036  10.134   8.835   1.027 -0.4760  1.2875 -3.4459
 3219SOL    HW212037  10.277   8.856   1.071 -1.3007 -1.4036  1.2600
 3220SOL     OW12038   3.322   0.895   5.853 -0.0163 -0.3721 -0.3372
 3220SOL    HW112039   3.324   0.990   5.854 -2.1846 -0.2691 -0.3186
 3220SOL    HW212040   3.253   0.873   5.791  0.2024 -1.9211 -0.0825
 3221SOL     OW12041   5.464  10.683   5.045 -0.2848  0.3254 -0.5162
 3221SOL    HW112042   5.520  10.746   5.091 -1.3077  0.4666  0.5619
 3221SOL    HW212043   5.508  10.599   5.058 -0.9980  0.2260  1.4974
 3222SOL     OW12044   9.750   1.945   8.464  0.3049  0.3602  0.3232
 3222SOL    HW112045   9.696   1.962   8.541 -2.6503 -1.4398 -1.1888
 3222SOL    HW212046   9.690   1.908   8.400  3.1275 -0.5511 -2.0090
 3223SOL     OW12047   0.095   9.570   9.131 -0.0858  0.1174  0.1071
 3223SOL    HW112048   0.072   9.630   9.202 -1.2575  0.9657 -0.9424
 3223SOL    HW212049   0.105   9.485   9.173  0.1619  0.7845  1.4181
 3224SOL     OW12050   0.158   1.010   4.822  0.3013 -0.1923 -0.4344
 3224SOL    HW112051   0.193   1.098   4.841 -0.5317  0.0797 -0.1282
 3224SOL    HW212052   0.200   0.985   4.739  2.3140 -0.4807  0.6097
 3225SOL     OW12053   5.437   4.157   8.706  0.0132 -0.2502 -0.7844
 3225SOL    HW112054   5.504   4.223   8.720 -0.6385  0.4066 -0.7091
 3225SOL    HW212055   5.355   4.206   8.703 -0.4820 -1.0552 -0.7147
 3226SOL     OW12056   9.268   1.469   8.823 -0.0847  0.0682  0.0068
 3226SOL    HW112057   9.222   1.550   8.847 -0.5262 -0.0196 -0.5420
 3226SOL    HW212058   9.318   1.492   8.745 -0.4605 -0.2738 -0.3375
 3227SOL     OW12059   9.238   8.806   7.851  0.6827 -0.0440 -0.1591
 3227SOL    HW112060   9.164   8.852   7.891  0.9133 -0.4354  0.7375
 3227SOL    HW212061   9.207   8.784   7.763 -0.1140  0.1818  0.0546
 3228SOL     OW12062   5.147   6.057   2.221  0.4921 -0.0344 -0.7894
 3228SOL    HW112063   5.209   5.985   2.231  0.1411 -0.5282 -2.0431
 3228SOL    HW212064   5.075   6.036   2.281 -0.0853 -1.2643 -1.8871
 3229SOL     OW12065   2.394   0.439   4.986  0.5024  0.5993  0.2781
 3229SOL    HW112066   2.313   0.474   4.947 -0.4168 -0.6742  0.9543
 3229SOL    HW212067   2.366   0.358   5.029  1.9699  0.6426  1.3796
 3230SOL     OW12068   6.308   1.264   6.398 -0.1913 -0.3056  0.3623
 3230SOL    HW112069   6.263   1.348   6.407 -0.8386 -0.4473 -1.2295
 3230SOL    HW212070   6.241   1.204   6.366  0.3913 -1.3077  0.9681
 3231SOL     OW12071   4.196   7.371   2.975  0.4633 -0.6893 -1.0257
 3231SOL    HW112072   4.133   7.444   2.977  0.0001 -1.1010 -0.3397
 3231SOL    HW212073   4.230   7.372   2.886 -0.0515 -0.0613 -1.2248
 3232SOL     OW12074   5.944   8.949   0.055  0.0378 -0.7167  0.1193
 3232SOL    HW112075   6.021   8.976   0.004 -1.3498  0.4618 -1.4611
 3232SOL    HW212076   5.883   8.914  -0.011 -2.0260  1.3308  0.7911
 3233SOL     OW12077   2.371   7.833   0.401  0.6630 -0.0118  0.2289
 3233SOL    HW112078   2.395   7.753   0.448 -3.4922 -0.8613  1.3785
 3233SOL    HW212079   2.380   7.810   0.309  0.9110 -1.3532  0.5662
 3234SOL     OW12080  10.506   0.962   0.679 -0.0728  0.5221  0.7250
 3234SOL    HW112081  10.458   0.992   0.602  1.7693  1.7113 -0.0426
 3234SOL    HW212082  10.443   0.911   0.729 -2.0849  1.9458 -0.2345
 3235SOL     OW12083   3.475   8.116   3.808 -0.2430  0.0403  0.2100
 3235SOL    HW112084   3.453   8.186   3.869 -0.8564 -0.6460  0.7914
 3235SOL    HW212085   3.400   8.056   3.811  0.9207 -1.4525  0.9269
 3236SOL     OW12086   2.163   6.722   1.234  0.6209  0.3117 -0.8111
 3236SOL    HW112087   2.254   6.694   1.222  0.5125 -1.1471  1.2212
 3236SOL    HW212088   2.170   6.805   1.281  0.8934  2.7519 -4.7433
 3237SOL     OW12089   9.233   5.813   4.061 -0.4397  0.5153 -0.0881
 3237SOL    HW112090   9.218   5.728   4.019  0.7695 -1.6399  3.4223
 3237SOL    HW212091   9.329   5.823   4.062 -0.5757  2.4312 -1.2101
 3238SOL     OW12092   3.120   9.415   0.364  0.3198 -0.1872  0.5387
 3238SOL    HW112093   3.089   9.503   0.387 -0.0120 -0.1834  0.0994
 3238SOL    HW212094   3.212   9.427   0.341 -0.0153  0.2581 -0.6488
 3239SOL     OW12095   6.704   4.897   1.294 -0.7504  0.2990  0.2726
 3239SOL    HW112096   6.710   4.899   1.390  0.6322  0.2483  0.2052
 3239SOL    HW212097   6.683   4.988   1.270 -1.6134  0.2008  0.6481
 3240SOL     OW12098   7.633   3.613   3.111 -0.3541  0.1441 -0.4500
 3240SOL    HW112099   7.629   3.551   3.038  0.2606 -0.5164  0.0690
 3240SOL    HW212100   7.725   3.616   3.135 -0.4887  0.6931  0.0190
 3241SOL     OW12101   9.298   3.269   7.688  0.1083  0.4150  0.1498
 3241SOL    HW112102   9.381   3.305   7.656 -0.0022 -1.1072 -2.0918
 3241SOL    HW212103   9.265   3.217   7.615 -2.8734  0.9964  0.9690
 3242SOL     OW12104  10.329   6.781   8.722  0.2089  0.3369  0.1474
 3242SOL    HW112105  10.347   6.821   8.637  0.2939  1.4080  0.6575
 3242SOL    HW212106  10.233   6.780   8.727  0.1875 -0.3103 -0.2164
 3243SOL     OW12107   1.338   8.622   8.512  0.1297  0.0891 -0.1784
 3243SOL    HW112108   1.364   8.556   8.448 -1.3654  0.2668 -1.0085
 3243SOL    HW212109   1.385   8.597   8.592  0.6940 -1.1335 -0.8555
 3244SOL     OW12110   7.239   2.499   0.062 -0.1172 -0.0284 -0.3277
 3244SOL    HW112111   7.236   2.406   0.085  1.5746 -0.0998 -0.2746
 3244SOL    HW212112   7.265   2.543   0.144 -0.5584  0.4520 -0.4399
 3245SOL     OW12113   7.754   3.471   9.943  0.2637  0.1419  0.1329
 3245SOL    HW112114   7.769   3.467  10.037 -1.4832 -1.7457  0.3833
 3245SOL    HW212115   7.801   3.396   9.907 -2.2948 -1.5256  0.0587
 3246SOL     OW12116   4.428   7.615   6.507  0.4587  0.1177 -0.1637
 3246SOL    HW112117   4.422   7.533   6.459 -0.5073  0.0253  0.1066
 3246SOL    HW212118   4.465   7.591   6.592  1.5826  0.1935 -0.6048
 3247SOL     OW12119   5.873   0.568  10.145  0.6734  0.2082 -0.8554
 3247SOL    HW112120   5.817   0.623  10.091 -0.9772 -2.4907 -2.1198
 3247SOL    HW212121   5.814   0.501  10.179  2.5281 -0.7293  0.6937
 3248SOL     OW12122   3.268   1.209   4.762  0.2563 -0.3890  0.2355
 3248SOL    HW112123   3.244   1.129   4.808  1.0703 -1.7636 -1.5623
 3248SOL    HW212124   3.233   1.197   4.673  2.1539  0.2501 -0.6727
 3249SOL     OW12125   9.968   2.705   7.131 -0.0739  0.1806 -0.1844
 3249SOL    HW112126   9.996   2.615   7.147  3.4807  1.5736  2.7825
 3249SOL    HW212127   9.880   2.710   7.169  0.5949 -1.5095  1.7301
 3250SOL     OW12128   9.482   1.518   0.685 -0.3918 -0.4198 -0.3420
 3250SOL    HW112129   9.482   1.564   0.769 -2.4016  0.4365 -0.7553
 3250SOL    HW212130   9.498   1.587   0.620 -0.1523 -0.8638 -0.7647
 3251SOL     OW12131   5.143   9.269   8.657  0.3912 -0.0402 -0.7945
 3251SOL    HW112132   5.230   9.262   8.698 -1.0662 -0.9412  2.4912
 3251SOL    HW212133   5.135   9.188   8.606  0.4277 -1.5188  1.3743
 3252SOL     OW12134   0.945   8.721   7.730  0.7555 -0.0531  0.3513
 3252SOL    HW112135   1.007   8.662   7.773 -0.6684 -2.7565 -1.1161
 3252SOL    HW212136   0.997   8.765   7.663  1.7765  0.2394  1.2882
 3253SOL     OW12137   1.507   2.393   0.900  0.0004 -0.3509 -0.7346
 3253SOL    HW112138   1.566   2.359   0.832  0.7060 -0.3747 -0.1314
 3253SOL    HW212139   1.542   2.480   0.920  0.4697 -0.7713  0.3533
 3254SOL     OW12140   0.410   0.940   7.834  0.6540 -0.4663 -0.3234
 3254SOL    HW112141   0.494   0.941   7.788  0.1613 -0.6262 -1.2424
 3254SOL    HW212142   0.400   1.029   7.867  1.5964 -0.6668  0.5923
 3255SOL     OW12143   9.234   1.994   7.748 -0.0050 -0.1351  0.0172
 3255SOL    HW112144   9.213   1.928   7.814 -0.0098  0.4489  0.6166
 3255SOL    HW212145   9.181   1.969   7.672  0.3944 -1.1118  0.0471
 3256SOL     OW12146   8.291   8.991   5.000  0.0021 -0.4106 -0.0161
 3256SOL    HW112147   8.219   8.989   5.063  0.3787 -1.0699  0.4056
 3256SOL    HW212148   8.370   9.003   5.053  0.2517 -0.2066 -0.4281
 3257SOL     OW12149  10.409   5.697   3.483  0.2693 -0.2695  0.1755
 3257SOL    HW112150  10.457   5.724   3.561  1.4414 -0.1733 -0.5578
 3257SOL    HW212151  10.349   5.769   3.465  0.5931  0.0816  0.4929
 3258SOL     OW12152   4.698   8.294   0.768  0.6318 -0.0762 -0.0360
 3258SOL    HW112153   4.769   8.306   0.832 -0.0779 -0.8937  0.9506
 3258SOL    HW212154   4.716   8.210   0.728  0.1224 -0.3981  0.3835
 3259SOL     OW12155   2.625   1.526   7.181  0.2075 -0.1456  0.5638
 3259SOL    HW112156   2.580   1.542   7.098  1.8781 -0.6084 -0.4961
 3259SOL    HW212157   2.652   1.434   7.175  1.8516  0.2973  0.8440
 3260SOL     OW12158   6.068   7.276   4.285 -0.0346  0.3578  0.0074
 3260SOL    HW112159   6.029   7.363   4.293  0.5349  0.7090 -0.9358
 3260SOL    HW212160   6.046   7.247   4.197  0.7716  0.0462 -0.1075
 3261SOL     OW12161   0.126   6.458   7.879  0.5167  0.0005  0.7090
 3261SOL    HW112162   0.195   6.484   7.818  0.6059 -0.3813  0.6427
 3261SOL    HW212163   0.140   6.511   7.957  0.3910  0.5089  0.3896
 3262SOL     OW12164   8.538   6.552   2.705 -0.1517  0.4967  0.1985
 3262SOL    HW112165   8.550   6.644   2.729  0.0621  0.1865  1.3525
 3262SOL    HW212166   8.625   6.512   2.716  0.1974  0.4925 -2.0164
 3263SOL     OW12167   3.526   9.512   1.358 -0.6128  0.1346  0.0197
 3263SOL    HW112168   3.553   9.421   1.346  0.2471  0.2400  0.9893
 3263SOL    HW212169   3.489   9.537   1.273  2.8538  0.1342 -1.6822
 3264SOL     OW12170   5.617   7.252   7.738  0.2441 -0.0676 -0.2705
 3264SOL    HW112171   5.541   7.310   7.748 -0.1107 -0.5252 -0.2982
 3264SOL    HW212172   5.589   7.168   7.774  1.0279 -0.0129  0.5185
 3265SOL     OW12173   7.618   2.101   6.948 -0.4662 -0.5263  0.0811
 3265SOL    HW112174   7.605   2.047   6.870 -1.8952  1.8730 -1.4517
 3265SOL    HW212175   7.535   2.147   6.960  0.2606  0.3766  2.1029
 3266SOL     OW12176   3.543   0.108  10.087  0.2147  0.0267 -0.2588
 3266SOL    HW112177   3.484   0.083  10.017  2.4347 -1.0960 -1.8404
 3266SOL    HW212178   3.569   0.198  10.066  0.1043  0.0459 -0.3121
 3267SOL     OW12179   9.622   8.986   9.998 -0.1474  0.0678  0.9161
 3267SOL    HW112180   9.584   8.909  10.040  1.7188 -0.8775  1.0083
 3267SOL    HW212181   9.550   9.048   9.989 -1.4797 -1.3111  1.7518
 3268SOL     OW12182   4.100   8.359   9.283  0.3226 -0.0542 -0.3421
 3268SOL    HW112183   4.102   8.455   9.281  3.0987  0.0414  1.7299
 3268SOL    HW212184   4.121   8.332   9.194 -0.6244  1.2281 -0.9803
 3269SOL     OW12185   4.606   6.471   8.580 -0.7838 -0.2173  0.1184
 3269SOL    HW112186   4.541   6.541   8.577 -1.4351 -0.7657  0.8139
 3269SOL    HW212187   4.557   6.395   8.612 -0.2898 -1.2154 -1.3665
 3270SOL     OW12188   1.622   8.404   3.331  0.1046 -0.2317  0.3997
 3270SOL    HW112189   1.711   8.422   3.361  0.0870 -0.5856  0.6657
 3270SOL    HW212190   1.589   8.338   3.392 -0.8229  0.8842  1.1399
 3271SOL     OW12191   4.664   1.976   3.481  0.0976 -0.4752 -0.5613
 3271SOL    HW112192   4.602   1.981   3.408 -0.5938  0.7732  0.0772
 3271SOL    HW212193   4.695   2.066   3.493  1.0947 -0.8667 -0.0608
 3272SOL     OW12194   2.566   2.069   3.378  0.1546 -0.0558 -0.4932
 3272SOL    HW112195   2.560   1.989   3.430  1.6126 -0.1304 -0.4037
 3272SOL    HW212196   2.657   2.099   3.390 -0.2055  1.3099 -0.9654
 3273SOL     OW12197   9.062   7.578   5.208 -0.0835 -0.7333 -0.2792
 3273SOL    HW112198   8.979   7.529   5.215 -1.3701  1.0962 -1.5755
 3273SOL    HW212199   9.095   7.556   5.121  1.5319 -2.4354  0.6983
 3274SOL     OW12200   5.379   0.783  10.241 -0.0061 -0.2254 -0.0292
 3274SOL    HW112201   5.303   0.739  10.204  0.6162 -2.2020  0.8412
 3274SOL    HW212202   5.415   0.835  10.170  0.2383 -2.6173 -1.7972
 3275SOL     OW12203   8.228  10.406   2.116 -0.4371 -0.1236  0.5502
 3275SOL    HW112204   8.174  10.463   2.062 -0.5846 -0.5199  0.2757
 3275SOL    HW212205   8.228  10.448   2.203 -0.7147  0.1778  0.4046
 3276SOL     OW12206   7.313  10.683   9.792  0.1396  0.6044  0.2339
 3276SOL    HW112207   7.293  10.744   9.721 -0.1029  0.0945 -0.1473
 3276SOL    HW212208   7.329  10.739   9.868 -2.6343  1.1235  0.5551
 3277SOL     OW12209   0.059   9.113   5.788  0.1044  0.2236 -0.2112
 3277SOL    HW112210  -0.032   9.083   5.790 -0.1910  0.7213 -2.8847
 3277SOL    HW212211   0.110   9.038   5.820 -1.1881 -0.0658  1.2922
 3278SOL     OW12212   1.770  10.448   9.573 -0.1037 -0.2892 -0.4481
 3278SOL    HW112213   1.679  10.465   9.597  0.1353  0.0193  0.2500
 3278SOL    HW212214   1.813  10.533   9.578 -0.0455 -0.1943 -2.0342
 3279SOL     OW12215   4.212   6.409   9.024  0.0583  0.7485 -0.0897
 3279SOL    HW112216   4.129   6.435   8.985 -0.6244  0.8783  1.3958
 3279SOL    HW212217   4.253   6.492   9.051  1.0687  0.7591 -1.5002
 3280SOL     OW12218   1.466   2.547   8.387 -0.1725 -0.3359 -0.0740
 3280SOL    HW112219   1.524   2.617   8.356 -0.7362 -0.0238 -0.4531
 3280SOL    HW212220   1.506   2.466   8.357 -0.2230 -0.0909 -0.8251
 3281SOL     OW12221   1.123   0.610   2.559  0.1834  0.1772 -0.5299
 3281SOL    HW112222   1.191   0.659   2.512 -0.5417 -0.0840 -1.8956
 3281SOL    HW212223   1.149   0.616   2.651  1.5873  0.8072 -0.9337
 3282SOL     OW12224   2.346   1.330   7.081 -0.2151  0.1099  0.6532
 3282SOL    HW112225   2.326   1.261   7.144 -0.6960 -2.3584 -1.9998
 3282SOL    HW212226   2.261   1.360   7.050  0.0188 -0.2712 -0.3845
 3283SOL     OW12227  10.054   4.372   1.374 -0.3476  0.1125 -0.7597
 3283SOL    HW112228  10.104   4.297   1.343  1.1920  1.0221 -0.6137
 3283SOL    HW212229  10.048   4.360   1.469  1.7152  1.1388 -0.4384
 3284SOL     OW12230   3.134   1.425  10.696 -0.2155  0.0688 -0.0934
 3284SOL    HW112231   3.127   1.517  10.721 -2.0753 -0.0250 -0.1453
 3284SOL    HW212232   3.082   1.378  10.761  1.1786 -1.0283  0.2642
 3285SOL     OW12233   7.956   8.913   7.502 -0.1883  0.0987  0.1325
 3285SOL    HW112234   8.035   8.965   7.514 -0.5199  0.9928 -1.3537
 3285SOL    HW212235   7.898   8.941   7.573  0.4138  0.2297  0.5801
 3286SOL     OW12236   6.707   2.307   7.200 -0.1825  0.0480 -0.2363
 3286SOL    HW112237   6.713   2.401   7.187  1.0041  0.3655  2.1345
 3286SOL    HW212238   6.779   2.285   7.259 -0.2460 -2.4057 -0.9323
 3287SOL     OW12239   1.440   5.721   2.333  0.3999 -0.2836  0.1019
 3287SOL    HW112240   1.489   5.741   2.253 -0.7572  0.0057 -0.5542
 3287SOL    HW212241   1.359   5.771   2.325  0.3415 -0.0771  1.5702
 3288SOL     OW12242   5.717   4.630   8.730 -0.7440 -0.1077  0.2238
 3288SOL    HW112243   5.745   4.721   8.742 -0.7423  0.0149 -0.6554
 3288SOL    HW212244   5.797   4.579   8.743 -0.4089  0.1366 -0.7929
 3289SOL     OW12245   5.103   0.871   3.657  0.5659 -0.1425 -0.4513
 3289SOL    HW112246   5.136   0.852   3.745  1.2937 -1.2409 -0.9294
 3289SOL    HW212247   5.168   0.832   3.599  0.2996  0.9138 -1.4927
 3290SOL     OW12248   7.178  10.107   3.827  0.0086  0.1179  0.4706
 3290SOL    HW112249   7.137  10.129   3.743 -0.5998 -0.7849  0.5041
 3290SOL    HW212250   7.107  10.065   3.877  0.8288 -0.9787  0.7445
 3291SOL     OW12251   6.240   4.481   7.702  0.4677 -0.4151 -0.1004
 3291SOL    HW112252   6.324   4.525   7.688  1.2889 -1.3001  1.6771
 3291SOL    HW212253   6.178   4.530   7.648  1.7197  1.6067  0.1786
 3292SOL     OW12254   6.732   5.337   4.272 -0.6797 -0.2199 -0.6864
 3292SOL    HW112255   6.739   5.288   4.355  0.6503  0.7058 -0.2247
 3292SOL    HW212256   6.639   5.330   4.249 -1.3282  0.4205  1.4735
 3293SOL     OW12257   0.292   3.324   5.897 -0.2800  0.3363 -0.2067
 3293SOL    HW112258   0.199   3.312   5.918 -0.7208  2.0398 -1.0190
 3293SOL    HW212259   0.310   3.257   5.831 -1.4125  1.0059 -1.2603
 3294SOL     OW12260   3.655   5.421   3.753 -0.6158 -0.0874  0.6253
 3294SOL    HW112261   3.622   5.395   3.839  0.3993 -0.6535  0.8576
 3294SOL    HW212262   3.732   5.366   3.738 -1.2430 -0.5970 -1.0203
 3295SOL     OW12263   1.648   9.531   5.708  0.1906 -0.1699  0.3946
 3295SOL    HW112264   1.715   9.492   5.765 -0.5841 -1.4664  0.4442
 3295SOL    HW212265   1.695   9.551   5.627  1.0072  0.4930  1.0095
 3296SOL     OW12266   1.056   1.787   7.570 -0.5902 -0.2883 -0.4260
 3296SOL    HW112267   1.126   1.823   7.623 -1.0807 -1.3491  1.0176
 3296SOL    HW212268   1.024   1.860   7.517  0.3634  0.6348  0.2568
 3297SOL     OW12269  10.646   3.825   8.275  0.2105  0.1761  0.2291
 3297SOL    HW112270  10.597   3.773   8.339  1.6357 -0.5575  0.7600
 3297SOL    HW212271  10.733   3.784   8.272 -0.0330 -0.3593 -2.7950
 3298SOL     OW12272  10.705   6.893   9.221 -0.2174 -0.2299  0.3157
 3298SOL    HW112273  10.729   6.801   9.224 -0.5466 -0.4753 -2.2366
 3298SOL    HW212274  10.746   6.926   9.141 -3.5698  0.6823 -1.2160
 3299SOL     OW12275   4.232   7.799   5.849 -0.0169 -0.0631  0.1629
 3299SOL    HW112276   4.278   7.790   5.765  3.1052  2.3874  1.3906
 3299SOL    HW212277   4.275   7.736   5.907 -0.5468 -0.1035  0.5202
 3300SOL     OW12278   7.774   3.901   9.636  0.1127 -0.6187 -0.0409
 3300SOL    HW112279   7.845   3.962   9.655 -0.8615  1.0142 -1.2670
 3300SOL    HW212280   7.807   3.815   9.662  2.0761  0.2397  0.4612
 3301SOL     OW12281   7.341   5.699   0.691  0.7640 -0.4808 -0.6206
 3301SOL    HW112282   7.332   5.740   0.777  0.7166 -1.6024 -0.0725
 3301SOL    HW212283   7.257   5.655   0.677  1.1836 -1.2693 -0.7078
 3302SOL     OW12284   7.072   3.026  10.766  0.1366 -0.1000 -0.0309
 3302SOL    HW112285   7.107   3.108  10.802  0.4141  0.1151 -0.7813
 3302SOL    HW212286   6.989   3.013  10.812 -0.8492  1.6018 -1.2569
 3303SOL     OW12287   3.362   3.993  10.162  0.2631  0.2635  0.5426
 3303SOL    HW112288   3.300   3.958  10.099 -0.8626  2.1401  0.5363
 3303SOL    HW212289   3.401   3.916  10.203 -0.5112 -0.9713 -0.9419
 3304SOL     OW12290   0.471   8.166   5.702  0.0076  0.8370  0.0789
 3304SOL    HW112291   0.481   8.238   5.764  0.0455  0.6243  0.3187
 3304SOL    HW212292   0.544   8.176   5.642 -0.3502  1.3857 -0.2798
 3305SOL     OW12293   7.579   8.641   8.929 -0.4425 -0.2276 -0.4022
 3305SOL    HW112294   7.490   8.605   8.938 -1.1391  1.4976 -0.0885
 3305SOL    HW212295   7.576   8.723   8.977  1.7624 -0.8082  0.8501
 3306SOL     OW12296   7.325   5.345   8.777 -0.4912  0.5591  0.0613
 3306SOL    HW112297   7.234   5.370   8.789 -0.7234 -0.5575  0.8060
 3306SOL    HW212298   7.375   5.416   8.817 -0.9521  1.9343 -1.6808
 3307SOL     OW12299   3.646   2.651   5.293  0.0655 -0.0084 -0.0865
 3307SOL    HW112300   3.681   2.585   5.354  0.5182 -0.0261 -0.3649
 3307SOL    HW212301   3.574   2.691   5.341  0.7437  0.3354  0.6774
 3308SOL     OW12302   5.179   6.907   3.764  0.5171  0.2498  0.7646
 3308SOL    HW112303   5.145   6.846   3.699 -0.3377  0.1494  1.2859
 3308SOL    HW212304   5.274   6.907   3.750  0.3640  0.0979 -0.3477
 3309SOL     OW12305   8.215   8.410   3.663  0.2435  0.1587 -0.2674
 3309SOL    HW112306   8.282   8.428   3.597 -0.4049  0.3205 -0.8961
 3309SOL    HW212307   8.147   8.475   3.648 -1.0366 -1.2728 -1.0325
 3310SOL     OW12308   6.533   4.998   9.823 -0.4271  0.7484 -0.0392
 3310SOL    HW112309   6.576   5.084   9.824 -1.4361  1.2713 -0.5008
 3310SOL    HW212310   6.447   5.014   9.786 -1.4157 -0.0992  1.7291
 3311SOL     OW12311   3.604   1.779   2.581  0.4510 -0.0029  0.1097
 3311SOL    HW112312   3.557   1.863   2.584 -0.4116 -0.3341 -2.1202
 3311SOL    HW212313   3.574   1.732   2.660 -3.3603 -0.3145 -1.2880
 3312SOL     OW12314   0.225   8.680   9.170 -0.1751  0.3539  0.0371
 3312SOL    HW112315   0.250   8.770   9.192  0.3901  0.0720  0.6123
 3312SOL    HW212316   0.305   8.629   9.184 -0.9341 -0.5163  1.4562
 3313SOL     OW12317   5.625   7.780   2.663 -0.1244  0.6600 -0.2321
 3313SOL    HW112318   5.540   7.791   2.622 -0.4177 -2.2709 -0.6325
 3313SOL    HW212319   5.611   7.806   2.755 -0.5065  3.3209 -0.9561
 3314SOL     OW12320   4.710   5.494   2.160 -0.2841  0.9367 -0.4023
 3314SOL    HW112321   4.636   5.554   2.149 -1.1194  0.0753  0.3210
 3314SOL    HW212322   4.674   5.421   2.209  0.5195 -0.4971 -1.8443
 3315SOL     OW12323   3.048  10.697  10.676 -0.3132 -0.3289  0.2857
 3315SOL    HW112324   3.127  10.644  10.664  2.1115  2.8355  0.9809
 3315SOL    HW212325   3.029  10.733  10.589  0.5153  0.8075  0.5591
 3316SOL     OW12326   7.308   7.897   0.281 -0.4797  0.2379 -0.2621
 3316SOL    HW112327   7.240   7.833   0.304 -0.4530  0.4136  0.3415
 3316SOL    HW212328   7.337   7.932   0.366  1.1213 -0.5956 -0.4223
 3317SOL     OW12329   4.289   7.734   8.126 -0.2616 -0.2785 -0.1437
 3317SOL    HW112330   4.347   7.797   8.168 -1.9313 -0.0289  1.9523
 3317SOL    HW212331   4.258   7.778   8.047  1.3035  0.0955 -0.5828
 3318SOL     OW12332   6.200   1.338   7.864  0.2044 -0.1577  0.0642
 3318SOL    HW112333   6.158   1.342   7.950 -0.1113  0.2512 -0.1030
 3318SOL    HW212334   6.238   1.426   7.852 -0.2391 -0.0349 -0.4514
 3319SOL     OW12335   2.375   9.541   1.032 -0.1509 -0.0086 -0.5724
 3319SOL    HW112336   2.414   9.546   1.119 -0.1651  0.1980 -0.5790
 3319SOL    HW212337   2.416   9.464   0.993 -1.0603 -0.8534  0.0720
 3320SOL     OW12338   1.068   5.862   1.862  0.1690  0.3201  0.6172
 3320SOL    HW112339   1.096   5.928   1.798 -0.1638 -0.3838 -0.2777
 3320SOL    HW212340   1.135   5.795   1.859  0.4523  0.5556  1.4515
 3321SOL     OW12341   5.463   4.361   4.506  0.1566  0.4301 -0.5871
 3321SOL    HW112342   5.407   4.308   4.448 -0.8137  1.1531 -0.3421
 3321SOL    HW212343   5.449   4.451   4.476  2.3345  0.5327 -1.4741
 3322SOL     OW12344   8.720   6.363   4.618 -0.3797  0.5785 -0.1982
 3322SOL    HW112345   8.659   6.299   4.580  0.4431  0.4145 -1.2584
 3322SOL    HW212346   8.721   6.341   4.712 -0.8190 -0.3613 -0.3991
 3323SOL     OW12347   4.635   2.069   2.035 -0.0550 -0.0007 -0.2824
 3323SOL    HW112348   4.603   2.083   2.125 -2.2777  0.4544 -1.0814
 3323SOL    HW212349   4.672   1.981   2.037 -1.3502 -0.5718  0.7758
 3324SOL     OW12350   3.484   1.626   8.066 -0.4407 -0.0272 -0.1463
 3324SOL    HW112351   3.397   1.644   8.101 -1.1634  0.8503 -2.2619
 3324SOL    HW212352   3.490   1.530   8.068 -1.3000 -0.0883  0.3512
 3325SOL     OW12353   3.028   7.176   8.287  0.5447  0.0450 -0.5234
 3325SOL    HW112354   3.033   7.102   8.225  2.1608 -0.5582  0.2843
 3325SOL    HW212355   3.111   7.174   8.334 -0.7072  0.3715  1.8233
 3326SOL     OW12356   9.646   9.115   4.179  0.3540  0.2991  0.2317
 3326SOL    HW112357   9.717   9.083   4.122  2.1509  1.4271  1.7360
 3326SOL    HW212358   9.638   9.208   4.156 -0.9434  0.1088 -0.1739
 3327SOL     OW12359   8.963   2.397   5.921 -0.4328 -0.2345 -0.4312
 3327SOL    HW112360   9.000   2.467   5.867  0.3399 -0.4841 -0.2380
 3327SOL    HW212361   8.876   2.383   5.886 -0.2085  0.1145 -1.1390
 3328SOL     OW12362   9.956   6.175   5.430  0.1389  0.2555  0.2327
 3328SOL    HW112363  10.008   6.136   5.500  0.2163 -1.2536 -0.6118
 3328SOL    HW212364   9.986   6.130   5.351  0.1797  2.0295 -0.8128
 3329SOL     OW12365   5.527   2.782   1.307 -0.0486  0.4662  0.4882
 3329SOL    HW112366   5.618   2.792   1.333 -0.2805 -0.6800  1.8485
 3329SOL    HW212367   5.494   2.709   1.359 -0.5851 -2.0944 -3.0987
 3330SOL     OW12368   5.845   7.136   7.504 -0.0136 -0.6438 -0.3239
 3330SOL    HW112369   5.925   7.157   7.457  0.3483 -0.1396  0.4992
 3330SOL    HW212370   5.785   7.208   7.484  0.5625  0.2126  0.9479
 3331SOL     OW12371   0.269   6.227   8.176  0.0874 -0.0141 -0.1985
 3331SOL    HW112372   0.185   6.220   8.219  0.7634  0.0464  1.1780
 3331SOL    HW212373   0.321   6.155   8.212  1.0804  0.8020  0.0635
 3332SOL     OW12374   7.539   1.921   3.690  0.0006  0.3858  0.5808
 3332SOL    HW112375   7.624   1.886   3.719  0.2572  0.5948  0.1020
 3332SOL    HW212376   7.550   1.934   3.596  0.1142  2.2400  0.7970
 3333SOL     OW12377   3.949   3.075   2.311  0.1224  0.5980  0.5033
 3333SOL    HW112378   3.860   3.042   2.325  0.0824  0.6539  0.3848
 3333SOL    HW212379   4.005   2.998   2.321 -0.1482 -0.0025 -1.9722
 3334SOL     OW12380   9.029   2.448   4.246 -0.5586  0.2280  0.2413
 3334SOL    HW112381   8.961   2.408   4.300 -1.1210 -0.2050 -0.7627
 3334SOL    HW212382   9.022   2.404   4.161  0.1227  1.0796 -0.2757
 3335SOL     OW12383   9.153   4.209   0.959 -0.1488 -0.5526  0.6367
 3335SOL    HW112384   9.218   4.168   1.018 -0.1995 -2.0379 -0.2867
 3335SOL    HW212385   9.136   4.142   0.893 -1.9004  0.1944  0.2942
 3336SOL     OW12386   2.977   0.967   1.647  0.4523  0.1811 -0.3708
 3336SOL    HW112387   2.943   1.026   1.581  0.2353 -0.5836 -0.9596
 3336SOL    HW212388   2.922   0.889   1.640  1.3248 -0.4588 -0.2557
 3337SOL     OW12389   0.935   8.423   3.702 -0.2503 -0.1838  0.7734
 3337SOL    HW112390   0.975   8.418   3.615 -0.3121 -0.5678  0.7632
 3337SOL    HW212391   0.969   8.504   3.740 -0.5195  0.1810  0.2429
 3338SOL     OW12392  10.025   4.003  10.599 -0.1977  0.1016 -0.3749
 3338SOL    HW112393  10.116   4.023  10.620  0.5609 -0.4881 -2.7572
 3338SOL    HW212394   9.974   4.074  10.639  1.2335  0.2589  1.2922
 3339SOL     OW12395   5.259   9.780   7.122 -0.5573  0.1887 -0.2944
 3339SOL    HW112396   5.248   9.701   7.069  1.6234  0.2383 -0.9152
 3339SOL    HW212397   5.316   9.837   7.070  0.7476  0.7124  1.5774
 3340SOL     OW12398   1.094   3.809   3.438 -0.0534  0.0533 -0.3169
 3340SOL    HW112399   1.081   3.765   3.523 -1.1237  0.5199 -0.2129
 3340SOL    HW212400   1.188   3.820   3.431  0.1017 -0.5736  0.5188
 3341SOL     OW12401   3.230   9.598   2.097 -0.3559  0.0998  0.6932
 3341SOL    HW112402   3.206   9.586   2.005 -0.9101  0.6555  0.7604
 3341SOL    HW212403   3.238   9.509   2.132  0.8016 -0.1341 -0.1220
 3342SOL     OW12404  10.485   0.608   5.051 -0.3544  0.4338  0.4483
 3342SOL    HW112405  10.539   0.687   5.055 -1.5311  1.3224 -0.5374
 3342SOL    HW212406  10.447   0.610   4.963 -0.4639 -1.1963  0.4370
 3343SOL     OW12407   0.626  10.461   6.664  0.4394 -0.1013  0.2145
 3343SOL    HW112408   0.556  10.396   6.660 -0.5413  0.9710 -1.5394
 3343SOL    HW212409   0.703  10.417   6.628  0.1111 -0.6391  0.1670
 3344SOL     OW12410   4.039   3.175   0.026 -0.1212  0.0051  0.7367
 3344SOL    HW112411   4.042   3.084   0.055  0.5777 -0.5936 -1.0802
 3344SOL    HW212412   4.037   3.226   0.107 -0.4464 -1.6171  1.7873
 3345SOL     OW12413   4.867   0.029   1.767  0.5003 -0.6549 -0.2615
 3345SOL    HW112414   4.909   0.106   1.730 -0.7508 -0.1365 -0.6719
 3345SOL    HW212415   4.869  -0.036   1.696 -0.9576 -0.0130 -0.9476
 3346SOL     OW12416   7.047   9.064   3.055 -0.0556 -0.0788  0.5062
 3346SOL    HW112417   7.031   8.985   3.002 -0.6830 -1.4969  2.6541
 3346SOL    HW212418   7.128   9.045   3.102 -1.1428 -0.2549  2.3772
 3347SOL     OW12419   2.907   1.927   4.228  0.1453 -0.3427  0.6446
 3347SOL    HW112420   2.862   1.993   4.280 -0.7540 -2.1330  2.2639
 3347SOL    HW212421   2.854   1.918   4.149  0.1019  0.6250  0.5517
 3348SOL     OW12422   2.952   2.909   5.981 -0.3250 -0.2674  0.0674
 3348SOL    HW112423   2.998   2.850   5.921 -0.0193  0.7242 -0.7034
 3348SOL    HW212424   2.969   2.997   5.946  1.1383  0.4929  2.4411
 3349SOL     OW12425  10.606   4.414   6.165  0.2159  0.5103 -0.2340
 3349SOL    HW112426  10.562   4.449   6.088 -1.7302 -0.0867  0.5201
 3349SOL    HW212427  10.545   4.432   6.237  0.1410 -2.3546  0.5350
 3350SOL     OW12428  10.549   2.870   2.696 -0.2324 -0.5237  0.4581
 3350SOL    HW112429  10.629   2.891   2.647 -0.9369 -0.1445 -0.5594
 3350SOL    HW212430  10.479   2.873   2.631 -1.0489 -1.1321  1.2812
 3351SOL     OW12431   0.266   6.725   5.082  0.7606  0.1833  0.1935
 3351SOL    HW112432   0.353   6.757   5.107 -0.1432  2.1520  1.0218
 3351SOL    HW212433   0.205   6.789   5.119 -1.0216 -0.6634 -1.1221
 3352SOL     OW12434   0.539   3.957   9.970  0.3254 -0.4864  0.1768
 3352SOL    HW112435   0.598   4.025  10.003 -1.0330  0.5806  0.4694
 3352SOL    HW212436   0.542   3.967   9.875 -0.6154  0.6600  0.2499
 3353SOL     OW12437   9.967   8.382   9.607  0.1147 -0.1910  0.1664
 3353SOL    HW112438   9.917   8.373   9.526  0.7059  0.0236 -0.2313
 3353SOL    HW212439   9.991   8.475   9.609 -1.2918  0.1686  1.4293
 3354SOL     OW12440   3.269   7.373   8.159  0.1257 -0.5484  0.0634
 3354SOL    HW112441   3.253   7.437   8.228 -0.1856 -0.6410  0.0748
 3354SOL    HW212442   3.279   7.290   8.204  0.5265 -0.5134  0.0484
 3355SOL     OW12443   6.433  10.572   2.704  0.3445  0.3128 -0.0774
 3355SOL    HW112444   6.487  10.522   2.765  0.5545  0.0349 -0.4871
 3355SOL    HW212445   6.434  10.661   2.739  0.5011  0.1639  0.2992
 3356SOL     OW12446   8.621  10.190   8.114 -0.1872  0.0031  0.0678
 3356SOL    HW112447   8.614  10.108   8.163 -0.5944  0.7952  1.4032
 3356SOL    HW212448   8.578  10.255   8.170 -0.9975  0.9015 -1.5149
 3357SOL     OW12449  10.521   5.234   4.384 -0.4240 -1.0241  0.2240
 3357SOL    HW112450  10.449   5.271   4.332  0.2717 -0.7842 -0.6089
 3357SOL    HW212451  10.530   5.144   4.352 -2.1856 -2.0447  2.3238
 3358SOL     OW12452   2.333   8.680   2.236 -0.3586 -0.0061 -0.5926
 3358SOL    HW112453   2.304   8.711   2.151  0.0621  1.3618 -0.2518
 3358SOL    HW212454   2.377   8.755   2.276 -0.5192 -0.6342  0.8207
 3359SOL     OW12455   9.752   2.291   2.604 -0.4795  0.0397  0.0994
 3359SOL    HW112456   9.743   2.386   2.606 -0.3564  0.1024 -1.1368
 3359SOL    HW212457   9.676   2.258   2.652 -0.1840  0.7654  1.0844
 3360SOL     OW12458   9.539   0.041   6.144  0.7403 -0.2267 -0.5756
 3360SOL    HW112459   9.464  -0.009   6.174 -0.0586  2.1706  1.7010
 3360SOL    HW212460   9.504   0.103   6.080  1.3893 -1.1242 -1.8681
 3361SOL     OW12461   1.415   5.532  10.251 -0.1412 -0.3995  0.2887
 3361SOL    HW112462   1.451   5.493  10.330  1.0628  0.8757  0.3891
 3361SOL    HW212463   1.381   5.617  10.279 -0.6156 -0.3554 -0.3840
 3362SOL     OW12464   7.175   3.787  10.281 -0.4633  0.4677  0.3065
 3362SOL    HW112465   7.219   3.872  10.276  0.0399  0.1687 -1.0239
 3362SOL    HW212466   7.181   3.762  10.373  0.6526  1.2324  0.4656
 3363SOL     OW12467   4.244   7.645   8.654 -0.2760 -0.2427 -0.0975
 3363SOL    HW112468   4.238   7.733   8.615 -1.2296  0.1671  0.9351
 3363SOL    HW212469   4.170   7.597   8.616 -1.5397  0.3222  1.5434
 3364SOL     OW12470   4.861   7.392   0.738 -0.1287  0.3307 -0.4214
 3364SOL    HW112471   4.920   7.376   0.665  0.4524  0.7302 -0.0511
 3364SOL    HW212472   4.919   7.394   0.815 -0.4509  1.9122 -0.1875
 3365SOL     OW12473   8.889   1.690   0.767  0.1677  0.9901 -0.2294
 3365SOL    HW112474   8.891   1.627   0.695 -0.4605 -0.8321  1.2598
 3365SOL    HW212475   8.971   1.740   0.758  1.5742 -1.2381 -0.4501
 3366SOL     OW12476   7.001   5.654   1.503 -0.0943 -0.0568  0.0302
 3366SOL    HW112477   6.938   5.726   1.513 -2.9787 -2.4795  0.9758
 3366SOL    HW212478   6.994   5.629   1.411 -0.2661 -0.0705  0.0452
 3367SOL     OW12479   3.705   1.207   1.689 -0.0543  0.1732  0.5866
 3367SOL    HW112480   3.720   1.134   1.629  0.0437  0.9062 -0.3038
 3367SOL    HW212481   3.613   1.198   1.715  0.5364 -1.5853  2.3375
 3368SOL     OW12482   4.061   9.973   5.281  0.6308 -0.1702 -0.2046
 3368SOL    HW112483   4.040  10.062   5.311  1.1055  0.7197 -2.3043
 3368SOL    HW212484   3.979   9.940   5.245  0.3294 -0.8087  1.0298
 3369SOL     OW12485   4.745   9.581   3.505  0.0025  0.2369  0.2124
 3369SOL    HW112486   4.733   9.571   3.411 -2.5739 -0.9418  0.5775
 3369SOL    HW212487   4.690   9.656   3.528 -0.8700 -0.6279  1.0103
 3370SOL     OW12488   3.372   5.071   7.984  0.2802  0.2093 -0.2425
 3370SOL    HW112489   3.450   5.122   8.008  0.1007  1.0440 -1.3862
 3370SOL    HW212490   3.406   4.996   7.935  0.3896  0.3444 -0.3724
 3371SOL     OW12491   8.444   3.476  10.484 -0.5437 -0.0880 -0.0354
 3371SOL    HW112492   8.513   3.414  10.459 -0.1139 -0.2083  1.3179
 3371SOL    HW212493   8.471   3.507  10.571 -1.4311  1.0058 -0.1325
 3372SOL     OW12494   9.253   4.413   8.603 -0.4610 -0.1720 -0.2434
 3372SOL    HW112495   9.238   4.502   8.633 -0.8927 -0.5568  0.7033
 3372SOL    HW212496   9.274   4.364   8.682  2.3758 -0.4080 -1.0454
 3373SOL     OW12497   0.484   5.016   4.291  0.5124  0.6531 -0.0378
 3373SOL    HW112498   0.505   5.109   4.298  2.1017  0.3291 -0.1366
 3373SOL    HW212499   0.558   4.971   4.333 -1.1692 -0.5350  1.8484
 3374SOL     OW12500  10.338   8.707   4.989 -0.1965 -0.2876  0.1361
 3374SOL    HW112501  10.350   8.786   4.935  0.2272 -0.6506 -0.3110
 3374SOL    HW212502  10.397   8.643   4.950 -2.2257 -1.5623 -0.9662
 3375SOL     OW12503   6.537   5.756   6.175 -0.0404  0.9037  0.0587
 3375SOL    HW112504   6.441   5.756   6.186 -0.6522 -0.6245 -3.8151
 3375SOL    HW212505   6.563   5.667   6.195  0.4089  0.9964 -0.1125
 3376SOL     OW12506   4.048   8.020   0.943  0.3803 -0.1267 -0.1381
 3376SOL    HW112507   3.988   8.081   0.900 -0.3930 -0.0793  0.9844
 3376SOL    HW212508   4.124   8.073   0.967 -0.1590  0.3303  0.5649
 3377SOL     OW12509  10.105   6.948   3.861  0.4518 -0.1344 -0.4419
 3377SOL    HW112510  10.074   6.905   3.941 -0.1619  0.3298 -0.4185
 3377SOL    HW212511  10.027   6.990   3.825  0.9421  0.6094 -0.6770
 3378SOL     OW12512   4.893  10.657   9.043 -0.0965  0.4088  0.0745
 3378SOL    HW112513   4.867  10.748   9.058  1.4050  0.8552  0.1278
 3378SOL    HW212514   4.853  10.609   9.116 -2.7447  0.6011 -1.1203
 3379SOL     OW12515   2.448   5.570   8.325 -0.3508  0.4264 -0.5298
 3379SOL    HW112516   2.360   5.547   8.295  0.0616 -0.2462 -1.2839
 3379SOL    HW212517   2.500   5.576   8.244  0.4437  0.1197 -0.0591
 3380SOL     OW12518   6.039  10.636   8.090  0.0290 -0.2132  0.5879
 3380SOL    HW112519   5.977  10.663   8.157  0.6471 -0.6792  1.3647
 3380SOL    HW212520   6.066  10.717   8.048  0.0375  0.1393  1.2650
 3381SOL     OW12521   0.666   4.114   7.092 -0.2494 -0.4390  0.5101
 3381SOL    HW112522   0.640   4.095   7.002  0.5160 -1.5086  0.4956
 3381SOL    HW212523   0.638   4.204   7.107  1.6377  0.5643 -1.5428
 3382SOL     OW12524   7.815   8.098   5.217  0.3984 -0.0323 -0.0335
 3382SOL    HW112525   7.882   8.115   5.151  1.6362 -1.1653  0.8786
 3382SOL    HW212526   7.846   8.142   5.295  1.0639 -2.0470  0.9082
 3383SOL     OW12527   2.545   5.758   6.504  0.3194  0.0532  0.3330
 3383SOL    HW112528   2.473   5.781   6.562  0.7710 -1.4394  1.5755
 3383SOL    HW212529   2.517   5.786   6.417 -1.8327 -0.6484  0.7521
 3384SOL     OW12530   9.976   5.369   7.830  0.6710 -0.4834 -0.3443
 3384SOL    HW112531  10.056   5.421   7.833 -0.0964  0.7129  0.3999
 3384SOL    HW212532   9.971   5.338   7.739  1.0318  0.9720 -0.8934
 3385SOL     OW12533   0.151   7.177   4.312 -0.0490  0.0808 -0.1335
 3385SOL    HW112534   0.247   7.177   4.320  0.1447 -0.8278 -1.9165
 3385SOL    HW212535   0.124   7.094   4.349 -0.2372  0.6044  0.9445
 3386SOL     OW12536   9.184   9.958   8.909  0.0004  0.6674  0.4138
 3386SOL    HW112537   9.098   9.950   8.867 -0.0997 -2.0482  0.9989
 3386SOL    HW212538   9.246   9.946   8.838 -0.1410 -0.1272  0.4174
 3387SOL     OW12539   8.502   5.668   1.030 -0.1329 -0.1476 -0.3023
 3387SOL    HW112540   8.466   5.714   1.106 -1.4144 -0.1354 -0.8942
 3387SOL    HW212541   8.440   5.597   1.013 -1.2655  1.3042 -2.8012
 3388SOL     OW12542   2.327   6.044   2.474 -0.4278 -0.0622  0.5362
 3388SOL    HW112543   2.249   6.054   2.420  1.7033  1.1745 -2.5581
 3388SOL    HW212544   2.331   6.124   2.527 -0.6539  0.4098 -0.1502
 3389SOL     OW12545   3.896   2.076   6.919  0.0065 -0.3039  0.4347
 3389SOL    HW112546   3.913   1.985   6.945 -1.4560 -0.5899  0.4589
 3389SOL    HW212547   3.953   2.090   6.843  1.2576 -0.7870  1.2604
 3390SOL     OW12548   6.257   3.127  10.579 -0.3137  0.1129 -0.5373
 3390SOL    HW112549   6.256   3.218  10.548 -0.5330 -0.6437 -2.9170
 3390SOL    HW212550   6.349   3.110  10.599 -0.2806  0.8584  0.0012
 3391SOL     OW12551   9.074   3.349   5.635 -0.1438 -0.6365  0.0698
 3391SOL    HW112552   9.011   3.277   5.636  0.4567 -1.2142 -1.0095
 3391SOL    HW212553   9.159   3.306   5.620 -0.1251  0.4035 -4.2834
 3392SOL     OW12554   6.666   6.655   8.892  0.1689  0.1302 -0.3472
 3392SOL    HW112555   6.703   6.743   8.889  1.3554 -0.3542 -0.4100
 3392SOL    HW212556   6.714   6.606   8.826 -0.6118 -0.5223 -0.4480
 3393SOL     OW12557   9.192   4.046   6.996  0.3114  0.1682 -0.7532
 3393SOL    HW112558   9.150   4.022   7.078  1.7369 -0.2083 -0.1017
 3393SOL    HW212559   9.262   3.981   6.985  0.6890  0.7345 -1.8200
 3394SOL     OW12560   2.551   1.431   4.522 -0.1484  0.5821 -0.0684
 3394SOL    HW112561   2.577   1.499   4.461  2.7789 -1.2059 -1.0297
 3394SOL    HW212562   2.526   1.357   4.466  1.2953 -0.6505  0.8346
 3395SOL     OW12563   8.296   2.979   0.420 -0.1353  0.1557  0.0486
 3395SOL    HW112564   8.280   2.893   0.380 -1.2419  0.6420 -0.5899
 3395SOL    HW212565   8.271   2.967   0.511 -1.6186  0.1515 -0.3352
 3396SOL     OW12566   5.433   1.802   2.825  0.0850  0.3374 -0.3551
 3396SOL    HW112567   5.470   1.758   2.902 -0.9559 -1.0183 -0.6094
 3396SOL    HW212568   5.459   1.747   2.751  0.2451  1.1110 -0.8896
 3397SOL     OW12569   9.496   9.011   0.154 -0.3809  0.0806  0.2285
 3397SOL    HW112570   9.469   9.097   0.122  0.9214  0.5120  0.2008
 3397SOL    HW212571   9.527   9.027   0.243 -0.1491 -0.3571  0.2332
 3398SOL     OW12572   0.931  10.262   9.256  0.5332  0.5951 -0.0520
 3398SOL    HW112573   0.874  10.195   9.221  0.3144  0.3901  0.6742
 3398SOL    HW212574   0.900  10.276   9.346  0.7544  1.4581 -0.0961
 3399SOL     OW12575  10.347   7.232   2.638 -0.5835 -0.3307 -0.0110
 3399SOL    HW112576  10.427   7.219   2.689  0.6149  3.3003 -0.6898
 3399SOL    HW212577  10.318   7.143   2.615  2.7346 -1.8160  0.9725
 3400SOL     OW12578   3.054   7.903   5.839  0.1456  0.4836 -0.4681
 3400SOL    HW112579   3.040   7.859   5.756  1.0831 -1.5234  0.3797
 3400SOL    HW212580   3.143   7.881   5.864 -0.7341 -0.6775  1.9905
 3401SOL     OW12581   3.088   9.118   2.074 -0.3473  0.0456  0.4365
 3401SOL    HW112582   3.068   9.209   2.097 -0.3425  0.2155 -0.2169
 3401SOL    HW212583   3.003   9.078   2.058 -0.5133 -0.6151  2.6472
 3402SOL     OW12584   1.342   0.755   0.257 -0.3135  0.3689 -0.0914
 3402SOL    HW112585   1.282   0.741   0.331 -1.1299 -0.3133 -0.8636
 3402SOL    HW212586   1.425   0.779   0.298 -0.9501  0.7441  1.0245
 3403SOL     OW12587   8.389   6.114   7.860 -0.9226 -0.5240 -0.0373
 3403SOL    HW112588   8.441   6.163   7.797 -0.9846 -0.4462 -0.0282
 3403SOL    HW212589   8.308   6.093   7.813 -1.1519 -0.0894  0.1572
 3404SOL     OW12590   7.707   7.549   9.000  0.2981  0.3181  0.2802
 3404SOL    HW112591   7.720   7.631   9.046  0.1466 -0.1825  1.2464
 3404SOL    HW212592   7.626   7.513   9.037 -0.4083  0.3898 -1.1314
 3405SOL     OW12593   2.938   7.797   4.376 -0.3411 -0.0820 -0.0921
 3405SOL    HW112594   2.954   7.785   4.283  2.6958  1.9380  0.0545
 3405SOL    HW212595   2.993   7.731   4.419 -0.0208  0.4491  0.3212
 3406SOL     OW12596   6.473   2.041   0.966  0.3654 -0.0154  0.1921
 3406SOL    HW112597   6.516   1.962   0.935  0.7954 -0.1703  1.1307
 3406SOL    HW212598   6.516   2.060   1.050 -0.7942  0.3228  0.7298
 3407SOL     OW12599   6.037   2.928   0.261 -0.2806  0.8695 -0.3220
 3407SOL    HW112600   5.967   2.992   0.270  1.3941  2.6841  0.6917
 3407SOL    HW212601   6.095   2.946   0.335  1.5438 -0.1492 -1.4320
 3408SOL     OW12602   3.075   2.090   6.493  0.1336 -0.0017 -0.0125
 3408SOL    HW112603   3.122   2.173   6.495  2.0272 -1.0120  1.7019
 3408SOL    HW212604   2.987   2.110   6.525  0.5520  1.3130  0.3413
 3409SOL     OW12605   8.799   4.541   1.268 -0.0383 -0.1143  0.0369
 3409SOL    HW112606   8.779   4.528   1.175 -0.0774  2.2297 -0.3237
 3409SOL    HW212607   8.827   4.632   1.274  1.0435 -0.5324  2.1648
 3410SOL     OW12608   5.464   0.872   5.896 -0.2943  0.1096 -0.0107
 3410SOL    HW112609   5.417   0.813   5.838 -0.2081  0.0154  0.0154
 3410SOL    HW212610   5.430   0.852   5.983 -0.1779  0.0157  0.0127
 3411SOL     OW12611   3.295   4.047  10.779 -0.4395  0.0162  0.2222
 3411SOL    HW112612   3.213   4.026  10.734 -0.1027 -1.7219  0.3658
 3411SOL    HW212613   3.301   4.142  10.773 -2.4572  0.1979  0.2035
 3412SOL     OW12614   7.957   1.454   1.762 -0.4204 -0.8572 -0.1121
 3412SOL    HW112615   8.017   1.488   1.696  0.2867 -1.2545  0.3174
 3412SOL    HW212616   7.872   1.454   1.718 -0.4694  1.4289 -0.1532
 3413SOL     OW12617   5.585   1.036   1.988  0.3979  0.3930 -0.3500
 3413SOL    HW112618   5.537   1.103   1.939 -0.7001 -0.5085 -0.5390
 3413SOL    HW212619   5.519   0.993   2.041  1.2912  0.2064  0.6323
 3414SOL     OW12620   9.148   6.080  10.614 -0.4684 -0.2510  0.5480
 3414SOL    HW112621   9.180   6.106  10.700 -0.7021  0.2395  0.4946
 3414SOL    HW212622   9.219   6.102  10.554 -1.3243  2.0050  0.2648
 3415SOL     OW12623   0.550   5.438   4.530  0.7292  0.0157 -0.4055
 3415SOL    HW112624   0.644   5.426   4.516  0.6872  0.5552 -1.2444
 3415SOL    HW212625   0.509   5.396   4.454  0.3174  0.2093 -0.2909
 3416SOL     OW12626   5.817   0.939  10.125 -0.6559  0.0067 -0.2080
 3416SOL    HW112627   5.812   0.919  10.219 -2.1985 -1.0212 -0.4766
 3416SOL    HW212628   5.900   0.901  10.097  1.0149  2.3529  1.1377
 3417SOL     OW12629   1.146   0.551   8.738  0.7781  0.9349  0.3656
 3417SOL    HW112630   1.099   0.484   8.690  2.1074 -1.1990  1.8370
 3417SOL    HW212631   1.233   0.553   8.698  0.8281  1.6625  0.4805
 3418SOL     OW12632   9.154   9.545   5.125  0.2831  0.1833 -0.1730
 3418SOL    HW112633   9.147   9.561   5.219 -2.0272 -0.2258 -0.2160
 3418SOL    HW212634   9.109   9.620   5.085  0.8160  0.1002 -0.9319
 3419SOL     OW12635   3.952   0.535   7.218  0.2703 -0.0266 -0.3861
 3419SOL    HW112636   4.017   0.592   7.177 -0.4141  1.3708  0.3927
 3419SOL    HW212637   3.935   0.466   7.154  2.2194 -0.2116 -0.7508
 3420SOL     OW12638   0.907   6.559  10.312 -0.1614 -0.1646  0.3210
 3420SOL    HW112639   0.957   6.516  10.381  0.0790  0.6472  0.6581
 3420SOL    HW212640   0.817   6.562  10.344 -0.2003 -0.5029  0.2490
 3421SOL     OW12641   5.738   7.234   5.311  0.5168 -0.2138  0.0680
 3421SOL    HW112642   5.799   7.161   5.298  0.0185 -0.3545 -1.7840
 3421SOL    HW212643   5.692   7.242   5.227 -0.6583  1.1291  0.7946
 3422SOL     OW12644   8.748   7.934  10.584  0.2658 -0.1794  0.3421
 3422SOL    HW112645   8.718   7.915  10.495  0.5764 -0.7171  0.3484
 3422SOL    HW212646   8.803   8.012  10.574 -1.5918  1.2157  0.4242
 3423SOL     OW12647   1.460   7.958   9.284  0.3707 -0.3938 -0.0024
 3423SOL    HW112648   1.479   8.043   9.245 -1.1896 -0.2614 -0.5525
 3423SOL    HW212649   1.393   7.920   9.226  0.2081 -1.4956  0.8733
 3424SOL     OW12650   6.983   2.547  10.745  0.2321  0.4845  0.0489
 3424SOL    HW112651   7.069   2.539  10.787  0.3793  0.3555 -0.2810
 3424SOL    HW212652   7.003   2.571  10.655 -0.0889  0.7433  0.0452
 3425SOL     OW12653   1.567   8.213   0.877 -0.3730  0.1860 -0.2173
 3425SOL    HW112654   1.507   8.284   0.903 -0.5218  0.4783 -1.3185
 3425SOL    HW212655   1.610   8.188   0.959 -0.0628  1.7819  0.1471
 3426SOL     OW12656   1.598   5.460   6.602  0.4808  0.2797  0.3287
 3426SOL    HW112657   1.547   5.409   6.665  0.5751 -2.5342 -1.7103
 3426SOL    HW212658   1.533   5.516   6.559 -0.3322 -0.7390  0.1751
 3427SOL     OW12659   2.921   2.957   3.878 -0.4171  0.0750 -0.2756
 3427SOL    HW112660   2.968   3.007   3.811 -1.6228  0.4504 -0.8639
 3427SOL    HW212661   2.848   2.917   3.831 -1.7781  1.0252  0.9491
 3428SOL     OW12662   9.420   8.114   1.934  0.2970 -0.0616  0.2605
 3428SOL    HW112663   9.413   8.052   1.861 -1.5925 -1.5471  1.6121
 3428SOL    HW212664   9.484   8.073   1.993 -1.3524 -1.0890  1.4117
 3429SOL     OW12665   2.360   1.511   5.740 -0.4973 -0.0602  0.3264
 3429SOL    HW112666   2.415   1.589   5.732 -0.4825 -0.1134 -0.1012
 3429SOL    HW212667   2.319   1.501   5.655  0.9185 -1.5604 -0.2394
 3430SOL     OW12668   0.572   6.128   4.170 -0.3383  0.2807  0.5209
 3430SOL    HW112669   0.536   6.043   4.193 -0.8195  0.0786 -0.8534
 3430SOL    HW212670   0.656   6.107   4.128  0.1703  0.5840  1.3596
 3431SOL     OW12671   6.108   9.314  10.625 -0.0831 -0.1745 -0.3927
 3431SOL    HW112672   6.089   9.287  10.535 -0.3056  0.5709 -0.5769
 3431SOL    HW212673   6.098   9.409  10.624  1.3069 -0.0016  0.0784
 3432SOL     OW12674   0.793   3.626   5.077 -0.1075 -0.2816  0.4054
 3432SOL    HW112675   0.875   3.615   5.126 -0.0233  0.9827  0.5668
 3432SOL    HW212676   0.758   3.537   5.070  1.5000 -0.9149 -0.0540
 3433SOL     OW12677   8.604   0.667   7.909  0.4629  0.2466  0.1064
 3433SOL    HW112678   8.632   0.593   7.961  0.8388 -1.9999 -2.9850
 3433SOL    HW212679   8.686   0.707   7.879  0.3868 -0.8910 -1.7826
 3434SOL     OW12680   5.683   3.203   6.186 -0.4113  0.3255  0.0916
 3434SOL    HW112681   5.663   3.219   6.094 -0.5345  0.5061  0.1478
 3434SOL    HW212682   5.597   3.208   6.230 -0.4230 -0.2623  0.1443
 3435SOL     OW12683   7.761   6.282   6.915  0.0485  0.0749  0.2644
 3435SOL    HW112684   7.784   6.362   6.962 -0.3948 -0.4360  1.3724
 3435SOL    HW212685   7.837   6.264   6.859  1.1011  0.0432  1.6629
 3436SOL     OW12686  10.035   9.804   6.363 -0.4426 -0.6294  0.2558
 3436SOL    HW112687  10.014   9.897   6.353 -1.9501 -1.0756 -1.0595
 3436SOL    HW212688   9.975   9.773   6.431 -2.1833 -1.2706 -1.4818
 3437SOL     OW12689   6.086   9.599   3.793 -0.1487 -0.9638 -0.1346
 3437SOL    HW112690   6.106   9.536   3.862 -0.2341 -1.8354 -0.8829
 3437SOL    HW212691   6.091   9.685   3.836  1.7133 -1.3540  0.4883
 3438SOL     OW12692   3.445   7.279   2.082  0.8188 -0.0122 -0.0267
 3438SOL    HW112693   3.432   7.320   2.168 -1.6195  2.7246 -1.4963
 3438SOL    HW212694   3.537   7.254   2.081  1.2433  0.9888  2.9193
 3439SOL     OW12695   7.854   3.194   5.024  0.5737 -0.2195  0.6532
 3439SOL    HW112696   7.908   3.157   4.953 -0.2680 -2.5243  1.1335
 3439SOL    HW212697   7.910   3.262   5.062  2.3088 -1.0666 -0.2179
 3440SOL     OW12698   2.119   7.612   0.082 -0.2141  0.0118 -0.4826
 3440SOL    HW112699   2.024   7.624   0.086  0.0153  1.9333  0.7923
 3440SOL    HW212700   2.141   7.566   0.163 -0.0608 -0.5285 -0.8269
 3441SOL     OW12701   7.799   0.839   1.692 -0.5607  0.6229 -0.0388
 3441SOL    HW112702   7.803   0.777   1.765  0.4289  0.7152  0.0041
 3441SOL    HW212703   7.712   0.827   1.655 -1.1301  0.6578  1.2328
 3442SOL     OW12704   6.945   1.446   1.426 -0.1285  0.2565 -0.2731
 3442SOL    HW112705   6.849   1.441   1.420 -0.0152 -1.6186 -1.1927
 3442SOL    HW212706   6.964   1.540   1.423 -1.9986  0.7554  1.3096
 3443SOL     OW12707   6.196   8.840   6.408 -0.2923 -0.1028 -0.0614
 3443SOL    HW112708   6.202   8.744   6.406 -0.9528 -0.1390 -0.8236
 3443SOL    HW212709   6.232   8.864   6.493 -0.2859 -1.0383  0.2163
 3444SOL     OW12710   1.238   1.313   6.313 -0.1116  0.0603  0.6204
 3444SOL    HW112711   1.279   1.241   6.359  0.5396 -1.6663 -2.3701
 3444SOL    HW212712   1.309   1.355   6.265 -1.0590  0.2000 -0.7342
 3445SOL     OW12713   3.969   6.779   6.265  0.0745  0.3784 -0.0467
 3445SOL    HW112714   3.878   6.775   6.235  0.1725 -1.3178 -0.2419
 3445SOL    HW212715   4.019   6.805   6.187 -0.0204 -0.9193 -0.5673
 3446SOL     OW12716   2.783   6.749   0.995  0.0092  0.1136  0.8038
 3446SOL    HW112717   2.759   6.719   1.082  0.3979 -0.4456  0.7244
 3446SOL    HW212718   2.739   6.688   0.935  1.8682 -1.1726  0.6624
 3447SOL     OW12719   5.848   5.316   5.915  0.7953 -0.3825  0.1821
 3447SOL    HW112720   5.813   5.297   5.828 -1.5313 -0.8412  1.1422
 3447SOL    HW212721   5.837   5.234   5.963  3.1479 -0.5005  0.6345
 3448SOL     OW12722   7.652   6.542   3.182 -0.3630  0.5639  0.1581
 3448SOL    HW112723   7.713   6.504   3.119 -1.7248 -1.2262 -0.1560
 3448SOL    HW212724   7.707   6.567   3.256  0.8250 -0.6154 -0.2773
 3449SOL     OW12725   0.611   9.865   3.314  0.0849 -0.1647  0.4648
 3449SOL    HW112726   0.662   9.814   3.251  0.3692 -0.9822  1.3182
 3449SOL    HW212727   0.677   9.918   3.360  0.1317 -0.8888  1.2634
 3450SOL     OW12728   3.074   1.486   5.892  0.3395  0.5877  0.2716
 3450SOL    HW112729   3.108   1.514   5.977  1.3338  2.5690 -0.6897
 3450SOL    HW212730   3.144   1.431   5.856 -1.5961 -3.4636  2.1410
 3451SOL     OW12731   9.001   2.453   3.273 -0.5038  1.3479 -0.5170
 3451SOL    HW112732   8.911   2.421   3.284 -0.5803  2.0897  1.3398
 3451SOL    HW212733   9.010   2.523   3.338  1.6964  0.7381 -0.0901
 3452SOL     OW12734   0.486   9.893   2.611 -0.0623 -0.0507  0.1956
 3452SOL    HW112735   0.549   9.873   2.541  0.5196  0.3162  0.6077
 3452SOL    HW212736   0.446   9.976   2.585 -0.1650 -0.1361  0.0800
 3453SOL     OW12737   6.997   5.164   8.388  0.2134  0.3820  0.1308
 3453SOL    HW112738   6.992   5.238   8.448 -0.8112  0.5904 -0.1941
 3453SOL    HW212739   7.049   5.099   8.434  0.8314  1.1598  0.5674
 3454SOL     OW12740   5.230   1.058   1.427  0.1718 -0.1355  0.0830
 3454SOL    HW112741   5.197   0.975   1.462 -0.8037  0.6691  1.1658
 3454SOL    HW212742   5.219   1.120   1.499  2.3705  0.6110 -0.1664
 3455SOL     OW12743   2.945   0.847   2.749  0.4481  0.3367 -0.1909
 3455SOL    HW112744   2.924   0.882   2.662  0.3502 -0.3096 -0.4355
 3455SOL    HW212745   2.990   0.919   2.794 -0.5897  1.0977 -0.3316
 3456SOL     OW12746   0.038   6.471   0.520  0.1953 -0.9477 -0.0761
 3456SOL    HW112747   0.065   6.525   0.594  1.5790 -1.2537 -0.3282
 3456SOL    HW212748   0.113   6.472   0.461 -0.5365 -1.4738 -1.0443
 3457SOL     OW12749   2.315   8.079   5.182  0.4411 -0.2495 -0.2290
 3457SOL    HW112750   2.265   8.148   5.224  0.8003  0.1411 -0.4278
 3457SOL    HW212751   2.316   8.007   5.245 -0.9041 -0.5142 -0.4778
 3458SOL     OW12752   6.709   7.024   4.401  0.4348  0.1771  0.3569
 3458SOL    HW112753   6.697   6.932   4.426  0.3368  0.3012  0.7663
 3458SOL    HW212754   6.781   7.022   4.337 -0.8718 -0.4126 -1.1527
 3459SOL     OW12755   6.076   7.504   9.554  0.2549 -0.5491  0.2131
 3459SOL    HW112756   5.993   7.534   9.516  1.2856  1.7894 -0.3910
 3459SOL    HW212757   6.092   7.419   9.513 -1.1076 -0.3403 -0.8173
 3460SOL     OW12758   6.722   6.620   7.406  0.3013 -0.4723 -0.6863
 3460SOL    HW112759   6.811   6.626   7.440 -0.4425  1.1550  1.1661
 3460SOL    HW212760   6.683   6.546   7.452  0.5173 -0.8133 -1.0520
 3461SOL     OW12761   6.942   9.130   8.098  0.3392  0.2538  0.4411
 3461SOL    HW112762   7.017   9.071   8.085  0.4938  0.0553  2.0830
 3461SOL    HW212763   6.970   9.189   8.168 -0.5776  0.9913  0.1979
 3462SOL     OW12764   4.909   9.544   3.002 -0.0815  0.1189  1.0504
 3462SOL    HW112765   4.892   9.620   2.947  1.3904  0.5041  1.0789
 3462SOL    HW212766   4.878   9.469   2.951  1.1143  0.4763 -0.2701
 3463SOL     OW12767   0.710   3.473  10.117 -1.0586 -0.1693 -0.2551
 3463SOL    HW112768   0.676   3.433  10.197  0.5840 -0.1010  0.5228
 3463SOL    HW212769   0.655   3.550  10.103  0.5044  1.6612  2.6385
 3464SOL     OW12770   0.319   0.183   2.183  0.0763  0.1794  0.7123
 3464SOL    HW112771   0.258   0.135   2.239  0.0986 -1.0531 -0.2691
 3464SOL    HW212772   0.289   0.164   2.094  0.0490  2.0686  0.2716
 3465SOL     OW12773   7.120   3.106   7.447 -0.2395  0.0224  0.3686
 3465SOL    HW112774   7.163   3.124   7.531  2.1430  0.0222 -0.7680
 3465SOL    HW212775   7.098   3.013   7.451 -0.3691  0.0718  1.0654
 3466SOL     OW12776   4.421   7.541  10.745  0.5162  0.3909 -0.4833
 3466SOL    HW112777   4.365   7.588  10.683 -1.0702  0.0686  0.6422
 3466SOL    HW212778   4.393   7.450  10.737 -0.4202  0.4832  1.3902
 3467SOL     OW12779   7.246   3.104   2.505 -0.3862 -0.3029  0.2626
 3467SOL    HW112780   7.246   3.028   2.447  0.0816 -0.3170  0.2768
 3467SOL    HW212781   7.336   3.109   2.538 -0.0007  1.1933 -0.9383
 3468SOL     OW12782   0.668   5.449   3.446 -0.3753 -0.4360 -0.3056
 3468SOL    HW112783   0.680   5.538   3.412 -0.7889 -0.3817 -0.3096
 3468SOL    HW212784   0.584   5.421   3.409  1.5713 -2.3860 -3.8166
 3469SOL     OW12785   0.244   7.144  10.216 -0.5078  0.3354  0.3801
 3469SOL    HW112786   0.340   7.136  10.221 -0.2984  0.8359 -1.7925
 3469SOL    HW212787   0.212   7.055  10.227  0.0471  0.3484  2.7645
 3470SOL     OW12788   5.693   4.024   4.622  0.1256 -0.0904  0.2062
 3470SOL    HW112789   5.635   4.018   4.698 -0.0378  0.1273  0.0981
 3470SOL    HW212790   5.780   4.038   4.660  0.0128  0.2216  0.3462
 3471SOL     OW12791   9.680   4.104   2.117 -0.1336  0.1983  0.1931
 3471SOL    HW112792   9.769   4.129   2.142 -0.2865  0.3861  0.5617
 3471SOL    HW212793   9.624   4.146   2.183 -0.6735  2.0217 -1.3314
 3472SOL     OW12794   9.189   8.454   7.386 -0.3010 -0.0330  0.2163
 3472SOL    HW112795   9.131   8.449   7.310  0.4593  0.2968 -0.4045
 3472SOL    HW212796   9.134   8.432   7.461 -1.0817 -0.2816 -0.4249
 3473SOL     OW12797   0.203   0.422   0.030 -0.1042 -0.5156  0.1388
 3473SOL    HW112798   0.278   0.364   0.016 -1.9646 -2.6929 -1.4474
 3473SOL    HW212799   0.156   0.384   0.104 -1.0163 -0.7357 -0.5313
 3474SOL     OW12800   5.479   4.410   9.036  0.2519  0.7560  0.2498
 3474SOL    HW112801   5.532   4.420   8.956  0.5422  0.2585  0.3768
 3474SOL    HW212802   5.518   4.473   9.097 -1.7624  3.2902 -0.8761
 3475SOL     OW12803   4.566  10.071   1.044  0.5185  0.1474  0.0695
 3475SOL    HW112804   4.510  10.076   1.121 -0.1098  0.1667 -0.3903
 3475SOL    HW212805   4.601  10.159   1.034  0.2773  0.2458  0.0910
 3476SOL     OW12806   0.350   3.994   0.650  0.4734  0.5296 -0.3421
 3476SOL    HW112807   0.428   3.987   0.705 -0.2311  0.0636  0.6180
 3476SOL    HW212808   0.281   3.951   0.700  0.1328 -1.3552 -2.2626
 3477SOL     OW12809   9.398  10.680   1.945 -0.1550 -0.4124  0.3546
 3477SOL    HW112810   9.374  10.659   2.035 -1.1536 -1.5813 -0.1599
 3477SOL    HW212811   9.334  10.635   1.891 -1.5536  2.8007 -0.9420
 3478SOL     OW12812  10.238   4.123   9.201 -0.2662  0.5798  0.2330
 3478SOL    HW112813  10.273   4.141   9.114 -0.1538  0.6341  0.2892
 3478SOL    HW212814  10.144   4.113   9.188 -0.5094  2.4120  0.3772
 3479SOL     OW12815   3.493   2.040   9.839  0.1005 -0.1525 -0.1428
 3479SOL    HW112816   3.434   2.014   9.768 -0.7953 -0.9189  0.8558
 3479SOL    HW212817   3.450   2.115   9.880  0.1975 -0.2439  0.1280
 3480SOL     OW12818   6.668   3.542   2.057 -0.1427  0.7520 -0.1126
 3480SOL    HW112819   6.637   3.614   2.003 -2.3087 -0.1618 -0.1821
 3480SOL    HW212820   6.692   3.473   1.995 -1.7089  0.0616 -0.0039
 3481SOL     OW12821   0.889   7.992   4.629 -0.3411  0.6484  0.3988
 3481SOL    HW112822   0.953   8.040   4.681  2.0814 -0.3168 -1.4673
 3481SOL    HW212823   0.849   7.931   4.691  1.3782  0.5214  1.4541
 3482SOL     OW12824   8.525   3.844   7.888  0.1221  0.5147 -0.2861
 3482SOL    HW112825   8.601   3.830   7.832  1.2071  2.3138  0.6572
 3482SOL    HW212826   8.473   3.764   7.877  1.5077 -0.2433 -1.9040
 3483SOL     OW12827   3.700   2.740   0.634  0.0370  0.2239  0.2730
 3483SOL    HW112828   3.677   2.830   0.612 -0.1436  0.4181  1.2152
 3483SOL    HW212829   3.624   2.706   0.682  0.7329  0.0998  1.3230
 3484SOL     OW12830   1.150   0.662   0.445  0.7170  0.1094  0.1947
 3484SOL    HW112831   1.172   0.600   0.515  1.4303  0.6315  0.4437
 3484SOL    HW212832   1.087   0.721   0.484  0.5197 -0.0738  0.1538
 3485SOL     OW12833   3.690   0.344   2.289  0.0103 -0.7659  0.5759
 3485SOL    HW112834   3.647   0.337   2.203 -1.5469 -0.7326  1.3126
 3485SOL    HW212835   3.635   0.405   2.338  2.3646  1.3172  0.7686
 3486SOL     OW12836   0.700   7.834   9.915  0.4135 -0.0021 -0.4869
 3486SOL    HW112837   0.660   7.921   9.920  0.0296  0.1574 -4.1368
 3486SOL    HW212838   0.792   7.852   9.896  0.9906 -0.4618  1.5935
 3487SOL     OW12839   7.043   6.405   0.214 -0.4666 -0.2184 -0.2383
 3487SOL    HW112840   7.025   6.311   0.214 -0.4053 -0.2336 -0.6103
 3487SOL    HW212841   7.059   6.427   0.306  2.3918 -1.1123 -0.4220
 3488SOL     OW12842   4.396   2.743   9.436 -0.1590 -0.2144  0.1278
 3488SOL    HW112843   4.343   2.696   9.371  1.5794  1.6866 -2.9402
 3488SOL    HW212844   4.437   2.674   9.488 -2.8940 -1.7997  0.3825
 3489SOL     OW12845   3.201   3.436   7.805  0.5767  0.1017  0.3342
 3489SOL    HW112846   3.192   3.440   7.710  0.3771  0.2204  0.3574
 3489SOL    HW212847   3.176   3.523   7.836 -0.0752 -0.1555  0.5477
 3490SOL     OW12848   5.681   1.610   7.077  0.6372 -0.0133 -0.1905
 3490SOL    HW112849   5.689   1.541   7.011  2.0610  1.2713 -1.4411
 3490SOL    HW212850   5.771   1.639   7.092 -0.0110  2.4757 -0.7355
 3491SOL     OW12851   9.198  10.600   1.738  1.0538 -0.0900 -0.1796
 3491SOL    HW112852   9.149  10.674   1.774  2.9151  1.2815 -0.2971
 3491SOL    HW212853   9.135  10.528   1.737 -2.0362  2.2982 -3.4518
 3492SOL     OW12854   6.578   0.571   5.503 -0.1768 -0.0351  0.0473
 3492SOL    HW112855   6.612   0.482   5.495  0.9489  0.4715 -1.1649
 3492SOL    HW212856   6.549   0.594   5.415 -0.3867  0.8396  0.3301
 3493SOL     OW12857   6.886   4.341   6.619 -0.5594  0.4330  0.7780
 3493SOL    HW112858   6.890   4.261   6.672  0.6081 -0.5956 -0.7709
 3493SOL    HW212859   6.946   4.325   6.546  0.7896  3.3006  1.1310
 3494SOL     OW12860   4.244   6.748  10.106 -0.0994 -0.1083  0.0954
 3494SOL    HW112861   4.205   6.664  10.082 -0.6887  0.4787 -1.1010
 3494SOL    HW212862   4.255   6.794  10.023  0.9166  0.7016  0.6565
 3495SOL     OW12863   3.339   2.941   8.036 -0.1365  0.2473  0.1632
 3495SOL    HW112864   3.363   2.924   8.127 -0.6566 -0.4198  0.1771
 3495SOL    HW212865   3.332   2.855   7.996  0.5306  0.5466 -0.6355
 3496SOL     OW12866   8.838   0.635   1.861 -0.2949 -0.3612  0.5160
 3496SOL    HW112867   8.795   0.631   1.947 -0.2397 -1.9506  0.5103
 3496SOL    HW212868   8.902   0.563   1.863 -0.4651 -0.5878 -0.9342
 3497SOL     OW12869   4.077   5.065   8.366 -0.1235 -0.3461  0.0502
 3497SOL    HW112870   4.166   5.093   8.388 -1.1832  2.9969  0.7239
 3497SOL    HW212871   4.069   4.978   8.404  1.8159  0.6200  3.0507
 3498SOL     OW12872   4.515   4.612   6.105  0.2930 -0.9039 -0.4248
 3498SOL    HW112873   4.454   4.554   6.151 -0.5057 -0.3530 -0.7646
 3498SOL    HW212874   4.550   4.670   6.173  0.8939 -1.5976 -0.1290
 3499SOL     OW12875   0.182   1.469   5.409  0.0890  0.2677 -0.1814
 3499SOL    HW112876   0.092   1.442   5.393  0.9332 -2.3446 -1.1600
 3499SOL    HW212877   0.219   1.399   5.464  1.7987  0.6632 -0.7398
 3500SOL     OW12878   3.494   3.625   2.974 -0.2407 -0.3746  0.1039
 3500SOL    HW112879   3.431   3.596   2.908  1.0117 -0.0417 -1.2890
 3500SOL    HW212880   3.578   3.623   2.930  0.4268  1.5831  1.1417
 3501SOL     OW12881   1.279   8.455   2.481  0.5708 -0.3837 -0.2348
 3501SOL    HW112882   1.192   8.415   2.491 -0.0525  1.0052  0.0477
 3501SOL    HW212883   1.328   8.423   2.557  0.1586 -0.7739 -0.1228
 3502SOL     OW12884   9.894   5.367   4.274 -0.4553 -0.6164  0.2211
 3502SOL    HW112885   9.876   5.360   4.180  1.5088 -1.3633 -0.1435
 3502SOL    HW212886   9.856   5.288   4.312 -0.8806 -0.5202  0.0072
 3503SOL     OW12887  10.696   7.959   2.604 -0.2155  0.5814  0.0882
 3503SOL    HW112888  10.672   7.867   2.593  2.0506 -0.0347 -0.1186
 3503SOL    HW212889  10.766   7.974   2.540  0.5833  1.9984  1.2408
 3504SOL     OW12890   0.322   4.980   7.734  0.5171 -0.0781  0.1075
 3504SOL    HW112891   0.402   4.962   7.685  0.3520  0.9562 -0.5743
 3504SOL    HW212892   0.260   4.913   7.704  1.4252 -1.6060  1.4763
 3505SOL     OW12893   9.189   4.914   3.557  0.5029  0.1001  0.1723
 3505SOL    HW112894   9.146   4.917   3.471  0.8196 -0.0196  0.0102
 3505SOL    HW212895   9.156   4.991   3.603 -0.1928 -0.1980  0.1916
 3506SOL     OW12896   0.529   6.482   6.903  0.0564  0.3024 -0.0608
 3506SOL    HW112897   0.515   6.455   6.812 -2.9936  0.8914  0.1294
 3506SOL    HW212898   0.605   6.431   6.931  1.4322  0.4716 -3.0422
 3507SOL     OW12899   8.683  10.434  10.520 -0.0721  0.3661  0.0100
 3507SOL    HW112900   8.735  10.453  10.443 -0.1519 -0.0441 -0.1478
 3507SOL    HW212901   8.662  10.341  10.513 -0.2321  0.3661  0.4318
 3508SOL     OW12902   9.201   2.548   8.807  0.0862  0.1641 -0.3715
 3508SOL    HW112903   9.125   2.606   8.807  0.1668  0.2747 -0.8162
 3508SOL    HW212904   9.249   2.571   8.887  0.0092  0.5674 -0.4386
 3509SOL     OW12905   2.092   0.356   8.227  0.1776  0.2389  0.1983
 3509SOL    HW112906   2.016   0.402   8.192  0.7851 -0.2947 -1.9526
 3509SOL    HW212907   2.104   0.392   8.315 -1.2729  1.8433 -0.2168
 3510SOL     OW12908   6.640   5.931   2.008  0.0839 -0.1648  0.1753
 3510SOL    HW112909   6.735   5.941   2.012  0.0408 -0.0226  0.9034
 3510SOL    HW212910   6.627   5.841   1.977  0.4703 -1.1859  2.7621
 3511SOL     OW12911   3.983   3.728   7.016  0.3319  0.6708  0.1526
 3511SOL    HW112912   3.933   3.658   7.059  1.8089 -0.1770  0.5435
 3511SOL    HW212913   4.042   3.682   6.956 -0.7361  1.7539 -1.8384
 3512SOL     OW12914   7.078   5.640   9.971 -0.1536  0.3143  0.3178
 3512SOL    HW112915   7.116   5.728   9.978 -1.9695  1.3084 -1.2975
 3512SOL    HW212916   7.148   5.587   9.933  1.4631  0.6368  2.6534
 3513SOL     OW12917   6.846   7.081   1.989 -0.2257 -0.2269 -0.1457
 3513SOL    HW112918   6.885   7.025   2.055 -1.4085  1.0137  1.7015
 3513SOL    HW212919   6.918   7.136   1.958  0.0402  0.2228  1.2430
 3514SOL     OW12920   8.369   9.609   1.584 -0.1324  0.4636  0.1426
 3514SOL    HW112921   8.414   9.606   1.500 -1.5559  1.5895 -0.7286
 3514SOL    HW212922   8.374   9.701   1.611 -0.5920  0.3175  0.7566
 3515SOL     OW12923   7.904   5.215   9.457 -0.3054 -0.0620  0.0648
 3515SOL    HW112924   7.859   5.270   9.393 -1.2123 -0.4008  0.3892
 3515SOL    HW212925   7.837   5.195   9.523  0.2092 -0.9087  0.3522
 3516SOL     OW12926  10.066   5.320   8.885  0.5531 -0.2183  0.3252
 3516SOL    HW112927  10.120   5.251   8.846  1.8876 -0.0802  1.8040
 3516SOL    HW212928  10.106   5.402   8.854 -0.0769 -0.0938 -0.1860
 3517SOL     OW12929  10.658   7.938   6.943  0.2905 -0.0865  0.0229
 3517SOL    HW112930  10.662   7.985   7.027  2.9923 -0.1486  0.0128
 3517SOL    HW212931  10.658   8.007   6.877 -1.7614 -0.0404 -0.0069
 3518SOL     OW12932   7.867   0.585   1.241 -0.1250  0.3903 -0.1925
 3518SOL    HW112933   7.830   0.502   1.272 -0.0322 -0.1872 -1.5263
 3518SOL    HW212934   7.945   0.559   1.191  0.8079  1.4200  0.6852
 3519SOL     OW12935   1.494   0.446  10.310 -0.0106 -0.2435 -0.2849
 3519SOL    HW112936   1.496   0.493  10.393  2.7421 -1.9636  0.7726
 3519SOL    HW212937   1.544   0.502  10.250  1.3255 -0.7327  0.3419
 3520SOL     OW12938   8.539   2.614   0.161  0.0524 -0.5054  0.4858
 3520SOL    HW112939   8.577   2.527   0.174  4.3327  0.8412 -1.1379
 3520SOL    HW212940   8.528   2.648   0.249  0.6377 -1.8385  1.1173
 3521SOL     OW12941   3.171   4.155   6.824  0.2054  0.2255 -0.4230
 3521SOL    HW112942   3.196   4.199   6.742 -1.3051  2.5555  0.2737
 3521SOL    HW212943   3.198   4.216   6.893  1.8620 -1.8880  0.9499
 3522SOL     OW12944   7.936   6.627  10.305 -0.3779 -0.2449 -0.0906
 3522SOL    HW112945   7.957   6.536  10.323  1.3548 -0.3446 -2.2154
 3522SOL    HW212946   7.911   6.628  10.212  1.3307  1.6446 -0.6044
 3523SOL     OW12947   2.443   9.019   9.898 -0.0041 -0.4295 -0.3591
 3523SOL    HW112948   2.518   9.076   9.879 -1.2684  0.7993 -2.0295
 3523SOL    HW212949   2.449   8.949   9.833  0.1193 -0.7591  0.0064
 3524SOL     OW12950   5.097   6.545   0.742 -0.6731 -0.0075  0.3838
 3524SOL    HW112951   5.065   6.615   0.685 -0.2233  0.2407  0.4231
 3524SOL    HW212952   5.047   6.468   0.717 -2.1597  0.6282  1.2799
 3525SOL     OW12953   1.782   3.520   7.235  0.5650  0.1921  0.1586
 3525SOL    HW112954   1.783   3.436   7.190  1.1771  0.0663  0.3982
 3525SOL    HW212955   1.797   3.499   7.327  0.8462  0.5716  0.2052
 3526SOL     OW12956   0.798   5.426   4.467 -0.3377 -0.7061 -0.0318
 3526SOL    HW112957   0.863   5.428   4.397  0.7637 -0.3849  0.9786
 3526SOL    HW212958   0.818   5.347   4.517  0.5446  0.3951  1.4275
 3527SOL     OW12959   0.677   1.265   8.816 -0.4819  0.7175  0.3923
 3527SOL    HW112960   0.603   1.325   8.830 -1.1672 -0.2399  1.0223
 3527SOL    HW212961   0.659   1.190   8.874  0.2743 -0.1548 -0.4550
 3528SOL     OW12962   4.379   8.351   7.035 -0.1737  0.4171  0.5902
 3528SOL    HW112963   4.384   8.415   6.965 -0.3798  1.4009  1.4501
 3528SOL    HW212964   4.323   8.391   7.101  1.2778  0.2255  2.0258
 3529SOL     OW12965   1.553   9.946   7.042  0.6733 -0.1489 -0.3460
 3529SOL    HW112966   1.532   9.920   7.132 -1.2152  1.3058 -0.3057
 3529SOL    HW212967   1.473   9.989   7.010  2.5716  2.8977 -1.3847
 3530SOL     OW12968   8.290   9.300   0.329  0.0105 -0.3836  0.0117
 3530SOL    HW112969   8.301   9.387   0.369 -0.3802  0.0599 -0.8239
 3530SOL    HW212970   8.369   9.289   0.275 -0.1892 -0.3149 -0.2967
 3531SOL     OW12971   4.684   3.132   7.147 -0.4745 -0.3051  0.3595
 3531SOL    HW112972   4.775   3.149   7.172 -0.5948  1.2234 -0.1643
 3531SOL    HW212973   4.689   3.114   7.053 -0.7042 -0.3594  0.3574
 3532SOL     OW12974   6.379   2.720   2.110 -0.3364 -0.0979 -0.3389
 3532SOL    HW112975   6.430   2.797   2.086 -1.7116  0.7962 -0.4952
 3532SOL    HW212976   6.420   2.688   2.190  0.2226  0.8316 -0.2369
 3533SOL     OW12977   5.693   4.353  10.641 -0.1769 -0.0716  0.1467
 3533SOL    HW112978   5.755   4.312  10.701 -0.3149  0.6690  0.8112
 3533SOL    HW212979   5.617   4.372  10.696 -0.6351 -0.1390 -0.4553
 3534SOL     OW12980   2.661   5.048   1.490 -0.1411 -0.0281  0.2888
 3534SOL    HW112981   2.595   4.978   1.490  0.6029 -0.7459  1.2268
 3534SOL    HW212982   2.641   5.100   1.568 -1.3919  1.5395 -0.9843
 3535SOL     OW12983   3.601   5.474   9.482 -0.5235  0.1254  0.2309
 3535SOL    HW112984   3.561   5.552   9.442 -0.7300 -0.9538 -1.8125
 3535SOL    HW212985   3.527   5.430   9.524 -0.4365  0.9279  1.2535
 3536SOL     OW12986   8.686   9.107   6.551  0.2159  0.1603 -0.4368
 3536SOL    HW112987   8.753   9.172   6.530  1.7163 -0.9793  0.5366
 3536SOL    HW212988   8.731   9.023   6.543 -1.2462 -0.6857 -0.2074
 3537SOL     OW12989   1.110   0.762   7.601 -0.1777  0.7042  0.0403
 3537SOL    HW112990   1.065   0.716   7.672  0.9782 -2.0240 -0.8909
 3537SOL    HW212991   1.202   0.742   7.614  0.2107  1.4582 -1.3556
 3538SOL     OW12992   2.442   6.601   2.041 -0.4399  0.4642 -0.1697
 3538SOL    HW112993   2.396   6.560   1.967 -1.3780  0.1997  0.5453
 3538SOL    HW212994   2.393   6.682   2.057 -0.7133  0.1421  0.6515
 3539SOL     OW12995   4.179   5.617   3.292  0.5658  0.1436  0.2851
 3539SOL    HW112996   4.182   5.712   3.276  0.4297 -0.0622 -1.0690
 3539SOL    HW212997   4.098   5.604   3.341  1.5909  0.9489  2.3274
 3540SOL     OW12998   4.551  10.106   8.476 -0.0062 -0.4744 -0.0215
 3540SOL    HW112999   4.490  10.150   8.416 -1.4392 -0.7884  1.1374
 3540SOL    HW213000   4.624  10.079   8.421 -1.3960 -0.9825 -1.6890
 3541SOL     OW13001  10.408   5.361   5.605  0.4604  0.4323  0.5508
 3541SOL    HW113002  10.398   5.267   5.616  0.4166  0.4237  0.4313
 3541SOL    HW213003  10.477   5.385   5.668  0.1323  0.3960  0.9316
 3542SOL     OW13004   4.114   0.166   4.747 -0.1457  0.1726 -0.2619
 3542SOL    HW113005   4.207   0.175   4.728 -0.2997 -1.6362 -2.2105
 3542SOL    HW213006   4.071   0.180   4.663 -1.4748 -1.0378  0.1702
 3543SOL     OW13007   6.867   4.389   5.996  0.0589 -0.8482  0.3680
 3543SOL    HW113008   6.805   4.418   6.063 -0.3911  0.3576 -0.5479
 3543SOL    HW213009   6.953   4.401   6.037 -0.2444 -1.2276  1.1376
 3544SOL     OW13010   8.465  10.630   3.378  0.6945 -0.3004 -0.0056
 3544SOL    HW113011   8.469  10.590   3.465 -0.9238 -1.9439 -0.6257
 3544SOL    HW213012   8.390  10.690   3.383 -0.7345 -1.9241 -0.7836
 3545SOL     OW13013   0.904   9.432   6.035 -0.2999 -0.6430 -0.4024
 3545SOL    HW113014   0.836   9.494   6.011  1.2548  0.9216 -0.9940
 3545SOL    HW213015   0.924   9.385   5.954  0.1077 -0.2903 -0.5089
 3546SOL     OW13016  10.010   3.302   5.234 -0.4110  0.2496 -0.2898
 3546SOL    HW113017   9.980   3.214   5.211 -0.4481 -0.0785  0.9282
 3546SOL    HW213018  10.102   3.290   5.259 -0.6603  0.3894  0.7337
 3547SOL     OW13019   7.647   3.092   9.779  0.2814 -0.1958 -0.0386
 3547SOL    HW113020   7.595   3.104   9.699  0.2792  1.3031  0.1590
 3547SOL    HW213021   7.584   3.103   9.850  0.6055  0.2049  0.1853
 3548SOL     OW13022   3.611   0.244   6.737  0.4034  0.4755 -0.1428
 3548SOL    HW113023   3.587   0.247   6.644  0.4499 -0.7091 -0.2080
 3548SOL    HW213024   3.558   0.312   6.778 -2.3397 -1.3490 -0.4481
 3549SOL     OW13025   1.762   3.849   6.070 -0.0219  0.1854  0.6303
 3549SOL    HW113026   1.799   3.786   6.007  0.1948 -0.6134  1.5354
 3549SOL    HW213027   1.820   3.925   6.064 -1.0796  0.9266 -1.4966
 3550SOL     OW13028   6.249   6.645   1.672  0.2330  0.4045  0.1536
 3550SOL    HW113029   6.328   6.662   1.724  0.7097 -2.3352  0.4505
 3550SOL    HW213030   6.208   6.731   1.663  2.0373  1.5499  1.9549
 3551SOL     OW13031   2.114   5.604   7.076 -0.5356  0.1005  0.4339
 3551SOL    HW113032   2.199   5.639   7.102  0.5089 -1.2436 -0.9729
 3551SOL    HW213033   2.089   5.546   7.148  0.3188 -0.3953  0.3464
 3552SOL     OW13034   6.281   9.863   6.974  0.3398  0.1473  0.1523
 3552SOL    HW113035   6.297   9.957   6.976  0.6882  0.0875  0.2234
 3552SOL    HW213036   6.198   9.854   6.928 -0.2531  0.5589  1.1132
 3553SOL     OW13037   8.665   3.040   5.650 -0.2549  0.5809 -0.5154
 3553SOL    HW113038   8.692   2.984   5.578  0.8283  0.6454 -0.1722
 3553SOL    HW213039   8.592   2.994   5.691 -0.8750  0.5454 -1.6400
 3554SOL     OW13040   9.925   4.253   2.147  0.6234 -0.3347  0.4996
 3554SOL    HW113041   9.919   4.267   2.241 -0.1616  0.2702  0.3717
 3554SOL    HW213042  10.017   4.233   2.131  1.4519  2.5445  1.0250
 3555SOL     OW13043   7.174   6.640  10.111  0.1359 -0.0993  0.2571
 3555SOL    HW113044   7.250   6.699  10.112 -0.6915  0.9956  0.2456
 3555SOL    HW213045   7.111   6.682  10.052 -0.1476 -1.4447 -0.4466
 3556SOL     OW13046   9.974   2.648   6.058  0.5584 -0.0791 -0.1781
 3556SOL    HW113047   9.977   2.583   5.988 -0.6866 -0.0597 -0.2707
 3556SOL    HW213048   9.881   2.671   6.066  0.5543 -0.6174  1.9559
 3557SOL     OW13049   9.001   8.106   4.220  0.1624  0.6205 -0.1921
 3557SOL    HW113050   9.034   8.194   4.234  1.7591  0.1351 -0.7583
 3557SOL    HW213051   9.027   8.084   4.130 -0.3294 -0.3774 -0.1067
 3558SOL     OW13052   1.777   4.320   6.193 -0.2280 -0.3475  0.4253
 3558SOL    HW113053   1.837   4.388   6.164 -1.4436  1.2041  1.4025
 3558SOL    HW213054   1.745   4.350   6.278 -0.3642 -2.4481  1.1735
 3559SOL     OW13055   9.597   7.391   0.894  0.3244  0.3118 -0.3878
 3559SOL    HW113056   9.595   7.299   0.917 -0.0527  0.6785  1.1679
 3559SOL    HW213057   9.593   7.392   0.798  0.1919 -1.2633 -0.4234
 3560SOL     OW13058   7.788   2.647   4.972  0.6167 -0.5911 -0.9130
 3560SOL    HW113059   7.755   2.604   5.051  1.8303 -0.7034 -0.4426
 3560SOL    HW213060   7.803   2.738   4.998  0.8638 -0.5913 -1.0506
 3561SOL     OW13061   0.931   5.274   8.474  0.0979 -0.2388  0.3024
 3561SOL    HW113062   0.954   5.366   8.488 -0.6244 -0.1019  0.6056
 3561SOL    HW213063   0.910   5.270   8.381  0.7061 -0.2330  0.1568
 3562SOL     OW13064   7.991   0.302   8.727 -0.6456 -0.3364  0.0213
 3562SOL    HW113065   8.051   0.264   8.664 -1.1893 -0.4959 -0.4125
 3562SOL    HW213066   7.911   0.318   8.677 -1.5410 -1.6583  0.9441
 3563SOL     OW13067   2.225   9.819   2.761 -0.6162 -0.2818  0.6214
 3563SOL    HW113068   2.255   9.728   2.773  0.7862  0.0109 -0.4630
 3563SOL    HW213069   2.132   9.810   2.740 -0.2311 -1.5820 -0.7303
 3564SOL     OW13070   9.023   8.366   5.544  0.6676  0.4545  0.0448
 3564SOL    HW113071   9.075   8.329   5.473  0.7534 -1.8348  1.1965
 3564SOL    HW213072   8.938   8.386   5.504  0.8881 -0.2826 -0.8126
 3565SOL     OW13073   8.671  10.710   8.295  0.3268  0.3370  0.3514
 3565SOL    HW113074   8.719  10.717   8.378  2.5302 -0.3597 -0.7801
 3565SOL    HW213075   8.586  10.673   8.320  0.8312  0.3678  2.3167
 3566SOL     OW13076   9.206   6.891  10.001  0.0481  0.0858 -0.3597
 3566SOL    HW113077   9.261   6.815   9.981  0.6446  0.5510 -0.5332
 3566SOL    HW213078   9.124   6.854  10.032 -0.0883 -0.6475 -1.5338
 3567SOL     OW13079   9.299   6.991   7.544 -0.4453 -0.2362 -0.3566
 3567SOL    HW113080   9.333   6.933   7.476  1.2159  3.8885 -3.5412
 3567SOL    HW213081   9.237   7.048   7.498  1.3387  3.2998  1.2220
 3568SOL     OW13082   7.524   5.236   1.083 -0.2127 -0.4553  0.7001
 3568SOL    HW113083   7.619   5.237   1.071  0.0827  1.0686  2.6797
 3568SOL    HW213084   7.489   5.256   0.997  1.2581 -0.6166  0.0301
 3569SOL     OW13085   5.787   5.438   6.548 -0.4125 -0.5142 -0.5989
 3569SOL    HW113086   5.695   5.451   6.570 -0.2879 -1.2498  0.3878
 3569SOL    HW213087   5.803   5.345   6.562  0.7918 -0.1819  0.4834
 3570SOL     OW13088   2.261   4.031  10.020  0.0327 -0.0016  0.2653
 3570SOL    HW113089   2.190   4.092  10.037 -0.4439 -0.9629  2.0154
 3570SOL    HW213090   2.272   3.984  10.103 -0.0658 -2.7484 -1.1608
 3571SOL     OW13091  10.271   6.807   0.199  0.0859 -0.4591 -0.0494
 3571SOL    HW113092  10.235   6.762   0.276 -2.0786  1.1085 -0.0857
 3571SOL    HW213093  10.346   6.753   0.174  0.0687 -1.7595  2.3456
 3572SOL     OW13094   7.659   0.176   0.678 -0.3358 -0.1082 -0.6316
 3572SOL    HW113095   7.587   0.133   0.632  1.1426 -1.4566 -1.8069
 3572SOL    HW213096   7.733   0.169   0.618  1.0347  0.3426  0.9282
 3573SOL     OW13097   9.846   6.937   7.702 -0.7451 -0.4525 -0.0086
 3573SOL    HW113098   9.884   6.917   7.616 -1.3631  0.3762 -0.4868
 3573SOL    HW213099   9.899   7.010   7.734 -0.8997 -0.3677  0.0507
 3574SOL     OW13100   4.983   0.450   4.914  0.3145 -0.5314  0.0092
 3574SOL    HW113101   5.023   0.364   4.928 -0.9351 -1.0484  0.5022
 3574SOL    HW213102   4.904   0.432   4.864  0.2965  0.3946 -0.3133
 3575SOL     OW13103   7.894   9.009   8.383  0.4215  0.0549  0.0481
 3575SOL    HW113104   7.925   9.080   8.326 -0.0205 -0.2004 -0.5216
 3575SOL    HW213105   7.839   8.955   8.326 -0.4866  0.0958  0.8697
 3576SOL     OW13106   3.132   6.705   2.247 -0.3654  0.1714  0.1619
 3576SOL    HW113107   3.171   6.791   2.262  0.2305 -0.2036  0.8416
 3576SOL    HW213108   3.169   6.675   2.164 -0.6629  0.6173 -0.1317
 3577SOL     OW13109   5.212   0.695   2.874 -0.2638 -0.1834 -0.1124
 3577SOL    HW113110   5.130   0.702   2.924 -0.3506 -1.0353 -0.1361
 3577SOL    HW213111   5.192   0.737   2.790 -0.4857  0.1706  0.1130
 3578SOL     OW13112   5.483   7.842   2.388  0.1817 -0.0255 -0.1950
 3578SOL    HW113113   5.516   7.842   2.298 -0.1279  1.2998 -0.3234
 3578SOL    HW213114   5.446   7.754   2.399 -0.6625  0.1026 -1.6943
 3579SOL     OW13115   9.478   8.944   7.814  0.1767 -0.0278 -0.6558
 3579SOL    HW113116   9.404   8.887   7.834  1.0560 -0.9932 -0.0782
 3579SOL    HW213117   9.553   8.903   7.857  0.5596  2.4934  1.3073
 3580SOL     OW13118   6.308   3.098   9.906  0.3687  0.1344 -0.1295
 3580SOL    HW113119   6.327   3.099   9.812 -0.4293 -0.6102 -0.3082
 3580SOL    HW213120   6.222   3.058   9.913  0.3153  0.3985  0.9131
 3581SOL     OW13121   5.699   0.000   4.637  0.5187  0.1139 -0.0422
 3581SOL    HW113122   5.648   0.020   4.715 -1.4731  1.7298 -1.6169
 3581SOL    HW213123   5.681  -0.092   4.618 -2.1789  0.6968 -0.6944
 3582SOL     OW13124   5.551   8.175   3.416  0.3864 -0.0655  0.0830
 3582SOL    HW113125   5.541   8.216   3.330  1.3173  2.0912  0.9242
 3582SOL    HW213126   5.557   8.249   3.477  0.0901 -1.5210  1.9773
 3583SOL     OW13127   5.151   3.649   8.267 -0.0513 -0.3239  0.1091
 3583SOL    HW113128   5.191   3.561   8.266  0.7175  0.0105  0.6408
 3583SOL    HW213129   5.215   3.704   8.312 -0.5339  0.5158 -0.2069
 3584SOL     OW13130   3.149   4.414   2.780  0.6312 -0.5580 -0.1943
 3584SOL    HW113131   3.109   4.352   2.841  2.9113 -0.8192  1.1211
 3584SOL    HW213132   3.167   4.492   2.833 -1.4785  1.0355 -1.6437
 3585SOL     OW13133   9.158   8.621   0.494  0.7209  0.0180  0.1855
 3585SOL    HW113134   9.252   8.621   0.512  0.5962  2.7783  1.3783
 3585SOL    HW213135   9.150   8.657   0.406  0.7699  1.2555  0.6664
 3586SOL     OW13136   2.135   1.052   9.481 -0.4985  0.1509 -0.2619
 3586SOL    HW113137   2.077   1.123   9.510 -0.1630  0.1317  0.4637
 3586SOL    HW213138   2.211   1.097   9.444 -1.2053  0.1884 -1.7665
 3587SOL     OW13139   1.397   4.705   5.413 -0.1221  0.0305  0.2138
 3587SOL    HW113140   1.420   4.624   5.367 -1.8354  1.1163 -2.9002
 3587SOL    HW213141   1.461   4.712   5.483  2.7511 -1.8690 -1.9979
 3588SOL     OW13142   3.005   7.457   2.290 -0.1829 -0.3456 -0.2529
 3588SOL    HW113143   2.911   7.442   2.303 -0.5667  0.8469 -1.3935
 3588SOL    HW213144   3.012   7.552   2.277  1.0818 -0.5162 -0.9358
 3589SOL     OW13145   3.407   9.175   8.999 -0.3631 -0.6396 -0.2515
 3589SOL    HW113146   3.444   9.114   8.934  0.5529  0.7638 -1.0882
 3589SOL    HW213147   3.479   9.233   9.021 -1.3867  0.5404  0.0735
 3590SOL     OW13148   4.023   8.498   2.332 -0.7400 -0.0111  0.2259
 3590SOL    HW113149   3.989   8.529   2.416 -2.7863  2.0786 -1.2515
 3590SOL    HW213150   4.087   8.564   2.306  0.0246 -0.7489  0.1760
 3591SOL     OW13151   1.656   3.564   4.812 -0.4685 -0.4018  0.1191
 3591SOL    HW113152   1.703   3.595   4.735 -2.5056 -0.7683 -1.3561
 3591SOL    HW213153   1.656   3.469   4.804 -1.6380 -0.4096 -0.0882
 3592SOL     OW13154   0.177   8.537   6.305 -0.1169  0.6897  0.3264
 3592SOL    HW113155   0.159   8.589   6.227  1.2568  0.4718 -0.1553
 3592SOL    HW213156   0.217   8.457   6.273 -0.5867  0.0874  1.1854
 3593SOL     OW13157   4.759   3.617   1.084 -0.3834 -0.2783 -0.0402
 3593SOL    HW113158   4.700   3.546   1.110  0.5713 -1.3252 -0.6239
 3593SOL    HW213159   4.755   3.679   1.157 -2.8069  0.1038 -0.4261
 3594SOL     OW13160   7.371   4.055   8.228  0.1932 -0.1588  0.7032
 3594SOL    HW113161   7.317   4.118   8.275 -0.8027 -1.6328  1.6471
 3594SOL    HW213162   7.370   4.083   8.137  2.0936  2.7450  1.4467
 3595SOL     OW13163   6.356   5.775   3.576  0.5042  0.6450 -0.4152
 3595SOL    HW113164   6.356   5.870   3.589  1.1456  0.4175  1.5599
 3595SOL    HW213165   6.448   5.752   3.566  0.6508 -0.0340  1.8643
 3596SOL     OW13166   6.161   1.152   4.893  0.6306 -0.7388  0.3183
 3596SOL    HW113167   6.118   1.189   4.816 -0.5909 -2.3904  0.1483
 3596SOL    HW213168   6.205   1.073   4.861  1.8656 -0.3421  0.9488
 3597SOL     OW13169   6.843   1.923   2.351  0.3583  0.3632 -0.1699
 3597SOL    HW113170   6.919   1.965   2.391  1.1343  0.0515 -1.2540
 3597SOL    HW213171   6.831   1.843   2.402 -1.8346  2.2987  2.6393
 3598SOL     OW13172   8.074   3.013   9.090  0.0254 -0.0600  0.4448
 3598SOL    HW113173   7.990   3.014   9.136 -0.7994 -0.7413 -0.9817
 3598SOL    HW213174   8.100   3.105   9.087 -2.0500  0.5583 -1.4460
 3599SOL     OW13175   4.207   3.392  10.798  0.7734  0.1657  0.3892
 3599SOL    HW113176   4.174   3.440  10.722  0.5671 -0.2382  0.2234
 3599SOL    HW213177   4.134   3.336  10.825  0.7293  0.5474  1.0866
 3600SOL     OW13178   4.737  10.288   1.663  0.6875 -0.4028  0.4844
 3600SOL    HW113179   4.718  10.210   1.611  0.3004 -0.0132  0.0364
 3600SOL    HW213180   4.806  10.333   1.614 -0.9647  0.9372 -0.7171
 3601SOL     OW13181   7.749   5.710   8.223 -0.2040 -0.8982 -0.1085
 3601SOL    HW113182   7.735   5.715   8.317  1.6844  1.1582  0.1364
 3601SOL    HW213183   7.841   5.686   8.213  0.1950  0.9763 -1.3769
 3602SOL     OW13184   0.859   2.344   7.880 -0.2111 -0.1772 -0.3090
 3602SOL    HW113185   0.846   2.249   7.874 -1.9781 -0.0029  0.2684
 3602SOL    HW213186   0.824   2.378   7.798  0.7000 -0.0142 -0.6522
 3603SOL     OW13187   0.371   4.366   4.233 -0.4096  0.1971 -0.2659
 3603SOL    HW113188   0.402   4.452   4.261 -0.0371 -0.0426  0.0762
 3603SOL    HW213189   0.289   4.353   4.280  0.8883 -0.7992  1.8984
 3604SOL     OW13190   8.856   3.263   7.726  0.4171  0.1440 -0.1582
 3604SOL    HW113191   8.860   3.278   7.821  1.0909 -1.5211  0.1028
 3604SOL    HW213192   8.762   3.262   7.706  0.2196 -0.7304  0.7283
 3605SOL     OW13193   9.843   4.732   6.555 -0.2106  0.3545 -0.1005
 3605SOL    HW113194   9.925   4.691   6.583 -1.7790 -1.5633  1.9949
 3605SOL    HW213195   9.814   4.678   6.481  1.4568  2.4685 -2.4981
 3606SOL     OW13196  10.669   2.109   6.372 -0.0850 -0.1076  0.3096
 3606SOL    HW113197  10.598   2.088   6.311 -0.5397 -1.3209  1.2148
 3606SOL    HW213198  10.627   2.112   6.457  0.9413 -0.8435  0.8679
 3607SOL     OW13199   6.213   0.847  10.605 -0.0033 -0.1812 -0.2360
 3607SOL    HW113200   6.197   0.821  10.696  2.3368  3.4062  1.4278
 3607SOL    HW213201   6.308   0.856  10.599 -0.1700  0.7717 -2.7174
 3608SOL     OW13202   1.906   1.597   2.117  0.0700 -0.7453  0.1081
 3608SOL    HW113203   1.902   1.580   2.023  1.8419 -0.9613  0.0465
 3608SOL    HW213204   1.983   1.549   2.147  0.0605  0.0640  1.5182
 3609SOL     OW13205   1.717   7.903   8.085 -0.3350  0.0680  0.0892
 3609SOL    HW113206   1.735   7.975   8.024 -0.6740  0.7804  0.8201
 3609SOL    HW213207   1.798   7.852   8.087  0.4776  1.3520  0.8008
 3610SOL     OW13208   5.600   6.419   9.350  0.0097 -0.3230  0.8283
 3610SOL    HW113209   5.565   6.492   9.400  0.4778  1.2713 -1.0398
 3610SOL    HW213210   5.525   6.380   9.306  0.1187  1.1968 -0.8014
 3611SOL     OW13211   9.105   0.736   3.279 -0.3934  0.0234  0.2099
 3611SOL    HW113212   9.188   0.761   3.239 -1.1872  0.3651 -1.2982
 3611SOL    HW213213   9.129   0.668   3.343  0.9230 -0.6245 -0.9131
 3612SOL     OW13214   1.812   0.171   0.431  0.3774  0.0320 -0.4447
 3612SOL    HW113215   1.850   0.157   0.518 -2.2719 -0.7183  0.6701
 3612SOL    HW213216   1.813   0.085   0.390 -1.7431 -0.4316  0.3545
 3613SOL     OW13217  10.356   7.456   8.348  0.1748  0.6573 -0.1022
 3613SOL    HW113218  10.329   7.380   8.295  0.4328  0.3234  0.2388
 3613SOL    HW213219  10.350   7.425   8.439 -2.9276  2.0431  0.3009
 3614SOL     OW13220   3.509   2.644   1.358  0.6952  0.3930 -0.5708
 3614SOL    HW113221   3.586   2.634   1.302  0.9327 -0.6855 -0.0660
 3614SOL    HW213222   3.533   2.711   1.422  1.4110 -0.3012 -0.1010
 3615SOL     OW13223   7.406   9.172   9.492  0.0450  0.0347 -0.4950
 3615SOL    HW113224   7.332   9.232   9.504 -1.0223 -1.4707  0.8675
 3615SOL    HW213225   7.408   9.121   9.573 -0.0653 -2.8181 -2.1534
 3616SOL     OW13226   6.269   4.762  10.495 -0.5305 -0.0429 -0.2550
 3616SOL    HW113227   6.298   4.849  10.523  1.3249 -1.6009  3.4249
 3616SOL    HW213228   6.205   4.735  10.562  1.6771 -2.8132  0.9609
 3617SOL     OW13229   8.413   3.083   1.938  0.8367 -0.4823 -0.1140
 3617SOL    HW113230   8.460   3.039   1.867 -1.2874  0.2475 -2.1041
 3617SOL    HW213231   8.435   3.175   1.929  1.5997 -0.5358  1.0594
 3618SOL     OW13232   6.035  10.471   3.274  0.4371  0.0971 -0.2822
 3618SOL    HW113233   5.996  10.519   3.346  1.4373 -0.4917  0.6875
 3618SOL    HW213234   5.964  10.460   3.211 -1.0818 -1.2611  1.5589
 3619SOL     OW13235   4.764   3.709   0.065  0.1981  0.4628 -0.6130
 3619SOL    HW113236   4.760   3.619   0.032 -0.6395  0.7158 -1.2164
 3619SOL    HW213237   4.846   3.712   0.115  0.5157 -0.4773 -1.0496
 3620SOL     OW13238   6.562   3.057   3.686 -0.2520  0.1354  0.0566
 3620SOL    HW113239   6.590   3.106   3.764  0.7131 -1.3453  0.6716
 3620SOL    HW213240   6.637   3.061   3.627  0.9070 -2.6934  1.1610
 3621SOL     OW13241   6.513   5.587   0.429 -0.1166  0.3019 -0.3442
 3621SOL    HW113242   6.432   5.607   0.476  0.0796 -0.1706  0.1942
 3621SOL    HW213243   6.552   5.673   0.411  0.1579  0.4709  0.9686
 3622SOL     OW13244   4.456   5.038   9.906  0.2588 -0.1275 -0.0142
 3622SOL    HW113245   4.389   4.972   9.921 -1.8061  1.5069 -1.4643
 3622SOL    HW213246   4.506   5.041   9.988  0.2972 -3.2129  0.1962
 3623SOL     OW13247   0.455   8.339  10.280 -0.3863 -0.6016  0.3324
 3623SOL    HW113248   0.379   8.385  10.314 -0.7666 -0.2848 -0.8777
 3623SOL    HW213249   0.527   8.365  10.337 -0.8331  0.5532  0.3980
 3624SOL     OW13250   4.835   0.645   7.814  0.7255  0.0832 -0.3150
 3624SOL    HW113251   4.884   0.592   7.877 -1.1841  0.8367  1.9568
 3624SOL    HW213252   4.753   0.598   7.803 -0.5853  1.9196  0.9567
 3625SOL     OW13253   9.222   9.785   0.863  0.2802 -0.0219  0.6614
 3625SOL    HW113254   9.222   9.693   0.834  2.9272  0.7311 -2.3253
 3625SOL    HW213255   9.295   9.791   0.924  2.2443  0.5341 -1.5520
 3626SOL     OW13256   1.061   1.099   7.258 -0.0732 -0.5558 -0.0103
 3626SOL    HW113257   1.030   1.120   7.346  0.2817 -1.3372  0.3098
 3626SOL    HW213258   1.156   1.098   7.266 -0.0062  0.1809 -0.6006
 3627SOL     OW13259   4.351   0.887   4.683  0.2083 -0.2097 -0.2914
 3627SOL    HW113260   4.259   0.906   4.667 -0.1444 -1.6165 -0.1004
 3627SOL    HW213261   4.350   0.826   4.756  1.2323 -0.9337 -0.8581
 3628SOL     OW13262   7.771   3.022  10.192  0.0061 -0.0634  0.3458
 3628SOL    HW113263   7.760   2.965  10.116  2.8555 -0.3656  0.0315
 3628SOL    HW213264   7.724   3.102  10.170 -2.7109 -1.6240  0.0958
 3629SOL     OW13265   8.335   2.170   9.117 -0.2170  0.1300  0.0445
 3629SOL    HW113266   8.349   2.239   9.182  2.4124 -0.9757  0.8241
 3629SOL    HW213267   8.358   2.210   9.033  0.0801  0.5582  0.3265
 3630SOL     OW13268   3.330   3.171   7.320 -0.4195 -0.0484  0.0040
 3630SOL    HW113269   3.250   3.213   7.288 -1.1114 -0.8142  0.6971
 3630SOL    HW213270   3.314   3.156   7.413  0.6385  0.0209  0.2080
 3631SOL     OW13271   5.022   5.071   5.888  0.6750  0.2517  0.3208
 3631SOL    HW113272   4.965   5.139   5.852 -1.2555 -2.2589 -1.7375
 3631SOL    HW213273   4.966   5.021   5.947  1.5764 -0.5748  0.5075
 3632SOL     OW13274   7.977  10.114   8.904 -0.1595  0.1996 -0.2947
 3632SOL    HW113275   8.037  10.039   8.904  0.7649  0.8838  1.1292
 3632SOL    HW213276   7.984  10.150   8.816  0.3434 -0.6659 -0.6210
 3633SOL     OW13277   6.350   0.512   6.397  0.2658 -0.3837  0.2262
 3633SOL    HW113278   6.439   0.483   6.413 -0.2257 -1.2281  1.6759
 3633SOL    HW213279   6.344   0.526   6.303  2.0837  0.2718  0.1793
 3634SOL     OW13280   9.630   9.559   8.063 -0.8807 -0.2165  0.6832
 3634SOL    HW113281   9.708   9.527   8.018 -0.5992  1.1088  0.1550
 3634SOL    HW213282   9.602   9.487   8.119  0.5543 -0.8196  0.6591
 3635SOL     OW13283   0.391   3.908   4.938  0.0513  0.4416 -0.7318
 3635SOL    HW113284   0.479   3.945   4.937  0.1338  0.2827  0.1034
 3635SOL    HW213285   0.338   3.973   4.892  0.2890  1.3654  0.2552
 3636SOL     OW13286   1.401   9.486  10.156 -0.2464 -0.6348  0.1297
 3636SOL    HW113287   1.351   9.527  10.226  1.2295  0.5790  0.5162
 3636SOL    HW213288   1.489   9.476  10.191 -0.1857 -2.8337 -0.4987
 3637SOL     OW13289   2.513   4.135   6.114  0.0195 -0.0281  0.0206
 3637SOL    HW113290   2.568   4.114   6.189 -1.7266 -1.1407  1.0647
 3637SOL    HW213291   2.574   4.165   6.046  2.0241 -2.2822  0.6960
 3638SOL     OW13292   8.667   0.099   7.869 -0.0504  0.5055 -0.0098
 3638SOL    HW113293   8.671   0.190   7.841  0.3489  1.1367  1.9076
 3638SOL    HW213294   8.593   0.062   7.822  1.1401  1.1494 -2.5602
 3639SOL     OW13295   5.710   5.914  10.558  0.1806  0.7439 -0.2522
 3639SOL    HW113296   5.755   5.991  10.521 -1.5367  1.7537 -0.3227
 3639SOL    HW213297   5.689   5.940  10.648  2.5931 -0.9735  0.9327
 3640SOL     OW13298   4.974   7.530   0.460 -0.0374 -0.1194 -0.1753
 3640SOL    HW113299   4.987   7.438   0.482  0.3095  0.0549  0.3896
 3640SOL    HW213300   5.060   7.570   0.473 -0.4226  0.4855  0.6435
 3641SOL     OW13301   7.324   3.250   5.209 -0.2361 -0.2961 -0.3666
 3641SOL    HW113302   7.381   3.188   5.254 -0.6524 -2.1800 -2.2639
 3641SOL    HW213303   7.383   3.302   5.154  0.0029  0.3683  0.4871
 3642SOL     OW13304   7.425   6.413   3.205 -0.0237 -0.8813 -0.4207
 3642SOL    HW113305   7.500   6.472   3.200 -0.1040 -0.8610 -1.6497
 3642SOL    HW213306   7.359   6.454   3.149 -1.6831  0.0939  2.0877
 3643SOL     OW13307   7.725   6.000  10.049 -0.0325  0.3096 -0.3999
 3643SOL    HW113308   7.802   6.019  10.103  0.0919 -2.3738  0.5283
 3643SOL    HW213309   7.651   6.002  10.110 -0.4490  1.0185 -0.9127
 3644SOL     OW13310   9.786   5.354   9.834  0.3307  0.0951 -0.3299
 3644SOL    HW113311   9.861   5.298   9.812  0.2893  0.6002 -1.8263
 3644SOL    HW213312   9.750   5.315   9.914  2.7977  0.4244  1.0425
 3645SOL     OW13313   1.939   0.890   1.919 -1.0194 -0.2202 -0.4744
 3645SOL    HW113314   1.989   0.927   1.846 -1.3661 -0.4736 -0.8485
 3645SOL    HW213315   1.848   0.887   1.887 -1.4332  0.9852  0.4833
 3646SOL     OW13316  10.081   8.644   4.653 -0.6788 -0.0548  0.0385
 3646SOL    HW113317  10.120   8.726   4.683 -1.3718  0.7510 -1.1722
 3646SOL    HW213318  10.155   8.587   4.637 -0.1611  0.4588  0.5651
 3647SOL     OW13319   5.310   7.740   0.249 -0.6766  0.2382 -0.4698
 3647SOL    HW113320   5.278   7.658   0.286 -1.4097  0.1556 -1.2614
 3647SOL    HW213321   5.301   7.730   0.154 -2.6738  1.9489 -0.5312
 3648SOL     OW13322   4.598   5.698   0.738 -0.8669 -0.1092  0.7114
 3648SOL    HW113323   4.604   5.712   0.644  0.1029 -0.7776  0.6584
 3648SOL    HW213324   4.526   5.753   0.766 -0.3713  1.0615 -0.2326
 3649SOL     OW13325  10.619   9.108   8.323 -0.0458  0.2681 -0.0089
 3649SOL    HW113326  10.679   9.045   8.283 -0.1498  0.8735 -1.1694
 3649SOL    HW213327  10.571   9.057   8.389 -0.2410 -0.9262 -1.0283
 3650SOL     OW13328   1.009   3.955   9.969 -0.3764  0.1279 -0.3826
 3650SOL    HW113329   1.102   3.939   9.986 -0.3082  1.1432  0.3022
 3650SOL    HW213330   0.976   3.872   9.934  0.8487 -0.1565 -0.9085
 3651SOL     OW13331  10.372   8.483   5.377 -0.0804  0.2037 -0.4018
 3651SOL    HW113332  10.395   8.564   5.423 -0.2748  0.8931 -1.4989
 3651SOL    HW213333  10.342   8.424   5.447 -0.1669  1.1480  0.3851
 3652SOL     OW13334   4.633  10.438   8.413 -0.3029  0.1877  0.2545
 3652SOL    HW113335   4.576  10.398   8.347  1.1033  0.3536 -1.1083
 3652SOL    HW213336   4.575  10.497   8.462 -1.4675 -0.2495 -0.5508
 3653SOL     OW13337  10.094   9.711  10.692 -0.0932 -0.4327 -0.1128
 3653SOL    HW113338  10.004   9.739  10.676  0.4949  2.0783  0.5353
 3653SOL    HW213339  10.137   9.717  10.607 -0.4732 -1.5741 -0.4097
 3654SOL     OW13340   1.358   5.975   5.013 -0.3830 -0.1051  0.7080
 3654SOL    HW113341   1.341   5.994   5.106  0.0912  1.0143  0.5858
 3654SOL    HW213342   1.297   5.906   4.991 -2.1619  1.2169  1.2559
 3655SOL     OW13343   5.847   0.241   8.631  0.5390 -0.1428 -0.9448
 3655SOL    HW113344   5.834   0.328   8.593  1.0230 -0.6055 -2.2047
 3655SOL    HW213345   5.942   0.231   8.635  0.5105 -0.0595  0.5350
 3656SOL     OW13346   5.894   0.212   1.990  0.0683  0.0800 -0.1277
 3656SOL    HW113347   5.836   0.137   2.005  0.0363  0.3687  1.3323
 3656SOL    HW213348   5.930   0.232   2.076 -0.0321  1.8340 -0.4536
 3657SOL     OW13349   3.206   3.092   5.715  0.8817  0.0055  0.4173
 3657SOL    HW113350   3.111   3.108   5.710  0.7174 -0.7043  0.9921
 3657SOL    HW213351   3.236   3.097   5.625  0.0640 -0.9840  0.0647
 3658SOL     OW13352   2.199   9.046   1.871 -0.4742 -0.4582  0.2683
 3658SOL    HW113353   2.203   9.130   1.916  0.1913  0.0664 -0.7368
 3658SOL    HW213354   2.124   9.054   1.813 -1.1419 -1.0211  1.0201
 3659SOL     OW13355   4.025   3.753   4.711  0.3747 -0.1799 -0.4748
 3659SOL    HW113356   3.945   3.805   4.720 -0.8443 -1.9944 -0.4559
 3659SOL    HW213357   4.094   3.818   4.696 -0.7416  1.6066  1.5260
 3660SOL     OW13358  10.683   3.491   3.190  0.3805  0.0855 -0.1086
 3660SOL    HW113359  10.644   3.503   3.103  0.8651  0.2598 -0.3082
 3660SOL    HW213360  10.615   3.518   3.251 -0.0091 -0.1564 -0.4331
 3661SOL     OW13361   9.576   3.866   3.094  0.1859  0.3876 -0.2943
 3661SOL    HW113362   9.648   3.929   3.088  0.5970 -0.0458  0.0525
 3661SOL    HW213363   9.567   3.849   3.188  0.3286 -0.3635 -0.4146
 3662SOL     OW13364   7.824   9.184   5.546 -0.1774  0.4109 -0.1806
 3662SOL    HW113365   7.795   9.109   5.494 -1.2445  1.3113 -0.9501
 3662SOL    HW213366   7.789   9.260   5.500 -0.7215  1.2902  1.5690
 3663SOL     OW13367   5.592   0.564   6.199 -0.5045  0.2120  0.0699
 3663SOL    HW113368   5.534   0.618   6.253  2.2325  1.9804  1.5295
 3663SOL    HW213369   5.633   0.626   6.139  0.4395 -0.8059 -0.3767
 3664SOL     OW13370   4.573  10.343   1.099  0.3721 -0.4415 -0.4552
 3664SOL    HW113371   4.502  10.407   1.091  1.6577  1.0847 -0.1466
 3664SOL    HW213372   4.576  10.322   1.192 -0.4620 -1.5016 -0.6392
 3665SOL     OW13373   0.824   2.985   5.592  0.0773 -0.0238 -0.0474
 3665SOL    HW113374   0.833   3.067   5.640  0.1051 -0.0963  0.0714
 3665SOL    HW213375   0.915   2.959   5.572  0.2297 -1.1964  1.8921
 3666SOL     OW13376   7.511   8.018   0.807 -0.0401  0.3934  0.0333
 3666SOL    HW113377   7.512   8.114   0.816 -0.4295  0.4389 -0.3837
 3666SOL    HW213378   7.593   7.990   0.847  0.2853  0.9384 -0.2314
 3667SOL     OW13379   2.698  10.483   7.013  0.1353 -0.2354  0.5218
 3667SOL    HW113380   2.782  10.480   7.058  1.4941 -0.3251 -1.8556
 3667SOL    HW213381   2.633  10.474   7.083  2.0162  1.3777  2.6165
 3668SOL     OW13382   8.705   8.840   3.487 -0.4178  0.4131  0.3211
 3668SOL    HW113383   8.691   8.925   3.445  0.7917  0.1147 -0.7300
 3668SOL    HW213384   8.794   8.815   3.462 -0.2560 -0.5424  1.7344
 3669SOL     OW13385   9.562   3.441   1.588 -0.2260  0.2245 -0.4913
 3669SOL    HW113386   9.548   3.360   1.539  0.1278  0.2355 -0.6148
 3669SOL    HW213387   9.562   3.413   1.680 -2.1543  0.3871 -0.4088
 3670SOL     OW13388   6.996   0.764   3.075  0.3157 -0.7095  0.2985
 3670SOL    HW113389   6.918   0.742   3.024 -0.2379 -1.3616  1.3952
 3670SOL    HW213390   6.996   0.702   3.147  0.4026  0.9608  1.7872
 3671SOL     OW13391   0.099  10.081   8.648  0.3939 -0.6197  0.2693
 3671SOL    HW113392   0.171  10.085   8.585  1.2461 -1.6861  1.1192
 3671SOL    HW213393   0.105  10.164   8.696  1.1385 -0.7312  0.3928
 3672SOL     OW13394   5.050   4.080   0.217 -0.0244  0.3540  0.2039
 3672SOL    HW113395   5.098   4.157   0.248 -0.0090  0.7865 -0.8461
 3672SOL    HW213396   5.097   4.005   0.255  0.1889  0.8353  0.9197
 3673SOL     OW13397   1.232   2.710   8.248 -0.1333  0.3744 -0.4878
 3673SOL    HW113398   1.292   2.642   8.217  0.1788  0.9956 -1.3001
 3673SOL    HW213399   1.215   2.688   8.339 -1.6697 -1.9572 -1.2506
 3674SOL     OW13400   0.766   8.739   1.929  0.7071  0.1749 -0.3341
 3674SOL    HW113401   0.853   8.756   1.896  0.8594 -2.3854 -1.4798
 3674SOL    HW213402   0.716   8.710   1.853 -0.6724 -0.0273  0.6065
 3675SOL     OW13403   0.945   2.183   3.446  0.2678 -0.0687  0.0541
 3675SOL    HW113404   1.025   2.140   3.477 -0.3765 -2.2301 -1.0749
 3675SOL    HW213405   0.948   2.174   3.351 -0.9471  0.5269 -0.0570
 3676SOL     OW13406   5.779   8.630   2.527  0.1337 -0.4393  0.2640
 3676SOL    HW113407   5.730   8.549   2.539 -0.7983  0.3162  1.7358
 3676SOL    HW213408   5.819   8.648   2.612  0.1368  0.7643  0.0311
 3677SOL     OW13409   5.810   6.719   2.954  0.2987 -0.1488  0.1740
 3677SOL    HW113410   5.869   6.795   2.954 -0.0804  0.1503  0.0954
 3677SOL    HW213411   5.770   6.720   3.041  0.6379 -0.5333  0.3369
 3678SOL     OW13412   1.833   4.599   8.473 -0.1955  0.3828 -0.1798
 3678SOL    HW113413   1.874   4.527   8.522  1.6853  1.1679 -0.5382
 3678SOL    HW213414   1.774   4.640   8.537  0.7310  0.1668  0.8448
 3679SOL     OW13415   0.535   2.291   9.273  0.1270 -0.0677 -0.2637
 3679SOL    HW113416   0.544   2.295   9.178  1.5236  1.8411 -0.0953
 3679SOL    HW213417   0.442   2.273   9.287  0.0688 -1.3872 -1.9671
 3680SOL     OW13418   9.689   4.252   9.199  0.0649  0.1638  0.0085
 3680SOL    HW113419   9.622   4.186   9.217  0.9205 -0.7857 -0.1409
 3680SOL    HW213420   9.762   4.201   9.164  0.4366  1.3073 -0.9263
 3681SOL     OW13421   1.496   5.771   7.810 -0.1343  0.2830  0.2905
 3681SOL    HW113422   1.569   5.730   7.763 -0.8993  1.0810 -1.7081
 3681SOL    HW213423   1.537   5.841   7.861  0.4723  1.3467 -1.5544
 3682SOL     OW13424   2.619   5.221   6.836  0.1588  0.3263 -0.2198
 3682SOL    HW113425   2.664   5.229   6.752  1.9004  1.8860  0.7705
 3682SOL    HW213426   2.584   5.309   6.852 -0.6300 -0.1002  0.4267
 3683SOL     OW13427   9.573   4.824   8.805 -1.0030  0.0412  0.6053
 3683SOL    HW113428   9.603   4.747   8.852 -1.6481 -0.1328  0.7498
 3683SOL    HW213429   9.561   4.794   8.715 -0.3216  0.2277  0.4448
 3684SOL     OW13430   7.681   6.444   5.151  0.2658 -0.0495  0.2419
 3684SOL    HW113431   7.621   6.510   5.185 -0.6589 -0.7598  0.0527
 3684SOL    HW213432   7.642   6.360   5.177  0.9708 -0.5446 -0.2245
 3685SOL     OW13433   1.087   3.283   3.355 -0.1300  1.0033  0.4144
 3685SOL    HW113434   1.011   3.323   3.397 -0.1540  0.6062  0.7605
 3685SOL    HW213435   1.109   3.342   3.283 -2.3403 -0.1837 -1.3535
 3686SOL     OW13436   1.157   6.168  10.367 -0.8223  0.6622 -0.1189
 3686SOL    HW113437   1.222   6.136  10.430  0.7304  0.6074 -1.6976
 3686SOL    HW213438   1.103   6.091  10.348 -1.4136  0.7181  1.2419
 3687SOL     OW13439   0.206   0.221  10.423 -0.1563  0.2634  0.3478
 3687SOL    HW113440   0.199   0.282  10.349 -0.8746  1.3885  1.3001
 3687SOL    HW213441   0.158   0.143  10.395 -0.5322  0.7253 -0.3254
 3688SOL     OW13442   5.243   6.171   7.622 -0.1150  0.2544  0.0447
 3688SOL    HW113443   5.246   6.100   7.559 -0.7234  0.1493  0.1336
 3688SOL    HW213444   5.159   6.162   7.666 -0.3636  1.2441 -0.1963
 3689SOL     OW13445   4.910  10.741  10.393 -0.0690 -0.2428  0.3251
 3689SOL    HW113446   4.958  10.697  10.463 -0.1123  0.2816  0.6930
 3689SOL    HW213447   4.889  10.828  10.429 -0.4682 -0.1232 -0.1762
 3690SOL     OW13448   0.798   0.899   4.059  0.0729 -0.2017  0.2060
 3690SOL    HW113449   0.878   0.847   4.056 -0.1250 -0.5100  0.0971
 3690SOL    HW213450   0.728   0.834   4.045 -0.1642  0.1309 -0.1689
 3691SOL     OW13451   8.605   7.285   0.704 -0.0829 -0.5881  0.5317
 3691SOL    HW113452   8.698   7.291   0.726  0.0042  1.7647 -0.2341
 3691SOL    HW213453   8.561   7.337   0.772 -0.5466  0.4594 -0.5336
 3692SOL     OW13454   5.482   2.327   8.564  0.3370  0.0020  0.2794
 3692SOL    HW113455   5.393   2.317   8.531 -0.2567  0.8081  1.5398
 3692SOL    HW213456   5.537   2.320   8.487 -0.8397 -0.1717 -0.5788
 3693SOL     OW13457   4.607   8.086  10.624 -0.9766  0.3550 -0.3586
 3693SOL    HW113458   4.546   8.114  10.556 -1.8837 -1.7439 -0.4714
 3693SOL    HW213459   4.556   8.087  10.704 -0.8189 -0.2494 -0.2463
 3694SOL     OW13460   1.672   6.233   0.045 -0.5970  0.0762 -0.6655
 3694SOL    HW113461   1.663   6.254  -0.048 -1.1057  0.3874 -0.5488
 3694SOL    HW213462   1.723   6.306   0.081 -2.2844  1.1121 -0.2787
 3695SOL     OW13463   7.413   9.663   2.371 -0.2212  0.2299  0.1631
 3695SOL    HW113464   7.488   9.606   2.390 -0.0716 -0.1257 -1.3704
 3695SOL    HW213465   7.453   9.744   2.338 -0.4943  0.4859  0.4516
 3696SOL     OW13466   7.017   6.351   5.215  0.2333  0.3765 -0.2396
 3696SOL    HW113467   7.081   6.378   5.281  0.5686  0.4543 -0.5926
 3696SOL    HW213468   7.052   6.270   5.178  1.0711  1.3667 -1.7039
 3697SOL     OW13469   7.686   3.254   5.261 -0.0508 -0.0665  0.0370
 3697SOL    HW113470   7.632   3.328   5.234 -0.3682 -0.0722  0.6521
 3697SOL    HW213471   7.722   3.220   5.179  1.9074  2.1110 -0.1272
 3698SOL     OW13472   7.440   6.537   7.199 -0.2593 -0.4472 -0.1228
 3698SOL    HW113473   7.358   6.587   7.197  0.8428  1.4586 -0.4483
 3698SOL    HW213474   7.492   6.575   7.128  1.0169 -1.4424  0.2526
 3699SOL     OW13475   5.998   0.195   5.243  0.1178  0.1176  0.4564
 3699SOL    HW113476   5.985   0.288   5.227  0.7967 -0.0579 -1.3334
 3699SOL    HW213477   5.949   0.151   5.173  1.1567 -0.8131  0.2727
 3700SOL     OW13478   4.027  10.339   1.024 -0.0891  0.3571 -0.0209
 3700SOL    HW113479   4.092  10.270   1.014 -0.4726 -0.3599  2.0116
 3700SOL    HW213480   4.078  10.420   1.023  0.4763  0.0071 -1.3774
 3701SOL     OW13481   6.708   2.713   6.917  0.2177  0.2838  0.1605
 3701SOL    HW113482   6.773   2.755   6.972 -0.0153 -0.1546  0.7813
 3701SOL    HW213483   6.687   2.778   6.849 -0.5863  1.4056  1.4418
 3702SOL     OW13484   8.618  10.661   0.956  0.0064  0.0076 -0.8779
 3702SOL    HW113485   8.544  10.698   0.909 -1.0703  0.2595  0.9269
 3702SOL    HW213486   8.660  10.735   0.998 -0.9206 -0.5200  1.0634
 3703SOL     OW13487   5.476   6.065   5.106  0.1350 -0.2553  0.1318
 3703SOL    HW113488   5.563   6.026   5.107 -0.2626 -1.2176 -0.7159
 3703SOL    HW213489   5.478   6.127   5.032 -0.1063 -0.8132 -0.3528
 3704SOL     OW13490   4.898   4.000   9.339  0.4006  0.2154 -0.4539
 3704SOL    HW113491   4.837   3.941   9.296  0.6194  0.2849 -0.8590
 3704SOL    HW213492   4.932   4.055   9.269  2.3318 -1.0289 -0.5641
 3705SOL     OW13493   3.043   5.498   1.894  0.2809 -0.1462  0.1456
 3705SOL    HW113494   3.029   5.531   1.982 -2.0328 -0.8589  0.1090
 3705SOL    HW213495   3.049   5.576   1.839  0.6656  0.2817  0.7967
 3706SOL     OW13496   4.755   2.729   7.801  0.0994  0.4226  0.2220
 3706SOL    HW113497   4.688   2.787   7.838  0.6307  1.9444 -1.1110
 3706SOL    HW213498   4.790   2.777   7.726  0.3967 -1.7485 -1.1075
 3707SOL     OW13499   5.658   5.694   7.975 -0.1704  0.1771  1.0308
 3707SOL    HW113500   5.722   5.765   7.987  1.2390 -0.9802  0.6466
 3707SOL    HW213501   5.711   5.615   7.969 -1.6002 -0.7380 -0.2298
 3708SOL     OW13502   1.876   4.322   4.658 -0.2115 -0.2802 -0.5613
 3708SOL    HW113503   1.931   4.392   4.693 -0.1998 -0.1010 -0.9345
 3708SOL    HW213504   1.925   4.289   4.582 -0.3184 -0.5497 -0.5138
 3709SOL     OW13505   0.962   2.660   6.371 -0.2153  0.3188 -0.4838
 3709SOL    HW113506   0.901   2.639   6.301 -0.0295  0.1844 -0.6060
 3709SOL    HW213507   1.013   2.580   6.383 -1.4163 -0.2784  1.0138
 3710SOL     OW13508   1.759  10.429   1.692  0.3597 -0.6399 -0.3394
 3710SOL    HW113509   1.823  10.365   1.661  0.8868 -0.1035 -0.3831
 3710SOL    HW213510   1.775  10.507   1.638  0.4152 -0.1295  0.3955
 3711SOL     OW13511   3.907   5.599   9.549 -0.0428  0.9459  0.0001
 3711SOL    HW113512   3.902   5.660   9.476  0.8044 -0.1808 -1.0435
 3711SOL    HW213513   3.848   5.528   9.526  0.6422  0.3195  0.1378
 3712SOL     OW13514   8.744   4.616   6.943  0.2446 -0.4427  0.4232
 3712SOL    HW113515   8.725   4.562   6.866  1.0288 -0.8626  0.5178
 3712SOL    HW213516   8.792   4.558   7.002  1.4671  0.4580  0.3573
 3713SOL     OW13517   9.927   1.822   8.970 -0.0394  0.0637 -0.0066
 3713SOL    HW113518   9.897   1.906   8.936 -0.5318  0.5239  1.4903
 3713SOL    HW213519   9.968   1.843   9.054  1.4746 -0.9814 -0.4432
 3714SOL     OW13520   6.014   3.367   4.692  0.4667 -0.0209 -0.2227
 3714SOL    HW113521   5.921   3.346   4.704  0.7299 -0.2572  1.5822
 3714SOL    HW213522   6.017   3.409   4.606 -1.3307  0.1092 -0.2684
 3715SOL     OW13523   8.447   7.943   2.767 -0.1562  0.3394  0.2003
 3715SOL    HW113524   8.476   7.901   2.847  0.7244  0.3375 -0.1154
 3715SOL    HW213525   8.449   8.037   2.787 -1.6950  0.2788  0.7593
 3716SOL     OW13526   3.046   2.940   5.333 -0.1191 -0.4825 -0.3673
 3716SOL    HW113527   3.118   3.003   5.323 -1.1986  0.5503 -2.0792
 3716SOL    HW213528   2.992   2.976   5.403  0.5340 -0.7875  0.3036
 3717SOL     OW13529   9.695   1.558   1.182 -0.1889  0.3520  0.2528
 3717SOL    HW113530   9.732   1.509   1.255 -0.3489  1.8614  1.3923
 3717SOL    HW213531   9.726   1.648   1.195 -2.1461  1.1340 -0.1993
 3718SOL     OW13532  10.171   9.626   5.710  0.6910 -0.0295 -0.2933
 3718SOL    HW113533  10.263   9.631   5.736  1.0479 -0.8403 -1.3385
 3718SOL    HW213534  10.173   9.634   5.615 -0.2002 -1.1914 -0.4330
 3719SOL     OW13535   0.757   4.327   1.790  0.2695  0.2267 -0.4265
 3719SOL    HW113536   0.664   4.321   1.812 -0.2727  1.1286 -2.2546
 3719SOL    HW213537   0.802   4.302   1.870 -1.5377  0.9545  0.8818
 3720SOL     OW13538   3.280   5.565   5.975  0.1115  0.3406 -0.5983
 3720SOL    HW113539   3.294   5.486   5.923  0.9666 -0.2384  0.4786
 3720SOL    HW213540   3.292   5.637   5.912 -0.8084 -0.3571 -1.6213
 3721SOL     OW13541   0.499   2.330  10.665  0.4526 -0.5256 -0.1666
 3721SOL    HW113542   0.472   2.411  10.709 -2.2635  0.4373 -3.1945
 3721SOL    HW213543   0.541   2.360  10.584 -0.7224 -2.0796 -1.4216
 3722SOL     OW13544   8.788   1.646   4.595  0.0638  0.2368  0.6775
 3722SOL    HW113545   8.785   1.697   4.514 -0.7433  0.1137  0.6283
 3722SOL    HW213546   8.852   1.577   4.578  0.6220  0.7915  0.4895
 3723SOL     OW13547   3.588   0.225   5.028 -0.1496 -0.2447 -0.8636
 3723SOL    HW113548   3.525   0.297   5.032 -0.9081 -0.8970 -0.5524
 3723SOL    HW213549   3.632   0.236   4.944 -1.9150 -0.7468 -1.9055
 3724SOL     OW13550   0.716   2.478   8.117  0.4428  0.2032 -0.3770
 3724SOL    HW113551   0.755   2.565   8.104  1.1901 -0.1698 -0.6306
 3724SOL    HW213552   0.705   2.443   8.029 -1.1352  0.5821 -0.3653
 3725SOL     OW13553   7.648   2.204   9.988  0.4385 -0.1056 -0.1980
 3725SOL    HW113554   7.581   2.157   9.938  0.3140 -0.5012  0.3348
 3725SOL    HW213555   7.712   2.232   9.922 -0.2970  0.3578 -0.7193
 3726SOL     OW13556   0.136   5.694   3.884 -0.0886  0.3388  0.5729
 3726SOL    HW113557   0.177   5.608   3.894 -1.1959 -0.1878  0.7978
 3726SOL    HW213558   0.206   5.751   3.853  1.1930 -0.1377  2.4228
 3727SOL     OW13559   6.585   3.298   1.553 -1.6950  0.3630  0.1317
 3727SOL    HW113560   6.529   3.227   1.585 -1.7793  0.2735 -0.2111
 3727SOL    HW213561   6.629   3.330   1.632 -0.6137 -0.9817  0.1080
 3728SOL     OW13562   5.611   4.256   1.064  0.9138 -0.0182 -0.5087
 3728SOL    HW113563   5.636   4.241   1.155 -0.5996 -0.6204 -0.1583
 3728SOL    HW213564   5.526   4.212   1.055  1.1253 -0.1516 -2.2665
 3729SOL     OW13565   6.017   8.902   8.478  0.3012  1.2562 -0.0902
 3729SOL    HW113566   6.081   8.832   8.491  0.1941  1.0983 -0.3754
 3729SOL    HW213567   5.933   8.861   8.501  0.0714  0.8798 -1.4938
 3730SOL     OW13568   8.990   6.906   3.453  0.1804  0.3213 -0.0734
 3730SOL    HW113569   9.053   6.876   3.388 -0.0659  0.6701 -0.4719
 3730SOL    HW213570   8.908   6.915   3.405 -0.7570 -2.2579  0.8642
 3731SOL     OW13571   4.126   1.888   6.481 -0.2038 -0.1718 -0.6288
 3731SOL    HW113572   4.202   1.932   6.518 -2.2235  3.3485 -0.1902
 3731SOL    HW213573   4.113   1.812   6.538  1.2610  0.7855  1.1278
 3732SOL     OW13574   1.646   1.858   8.559 -0.7709 -0.0097 -0.3669
 3732SOL    HW113575   1.638   1.924   8.491 -2.7529 -1.3055 -1.4582
 3732SOL    HW213576   1.726   1.810   8.537 -0.3818  0.7537 -0.6621
 3733SOL     OW13577   5.388   1.507   5.103 -0.4129 -0.3882 -0.4739
 3733SOL    HW113578   5.431   1.441   5.156  3.4463  0.9886 -1.5782
 3733SOL    HW213579   5.395   1.475   5.013 -0.0041  0.7355 -0.8576
 3734SOL     OW13580   4.509   5.889   3.012  0.4713  0.3362  0.2527
 3734SOL    HW113581   4.449   5.842   2.953  0.6268  0.5501 -0.0766
 3734SOL    HW213582   4.575   5.927   2.954  1.5109 -0.7301  0.6940
 3735SOL     OW13583   8.804   5.199   3.234  0.0227 -0.0568 -0.2032
 3735SOL    HW113584   8.720   5.165   3.203  0.9416 -0.6334 -2.2667
 3735SOL    HW213585   8.845   5.235   3.155  2.1686 -0.8106  0.4925
 3736SOL     OW13586   5.596   1.970   6.857 -0.2634  0.5712 -0.3345
 3736SOL    HW113587   5.529   1.911   6.891 -0.7719  1.1517 -0.2933
 3736SOL    HW213588   5.659   1.914   6.812  0.2882 -0.1936  1.3243
 3737SOL     OW13589   7.191   8.098   0.996  0.2865  0.0723  0.4232
 3737SOL    HW113590   7.131   8.173   0.999  0.0804 -0.1071  0.8535
 3737SOL    HW213591   7.265   8.125   1.050 -0.2391 -0.4135  1.4157
 3738SOL     OW13592   5.212   9.127   4.808 -0.1121  0.1846  0.4691
 3738SOL    HW113593   5.266   9.056   4.842  0.7526  0.0034 -1.1944
 3738SOL    HW213594   5.155   9.086   4.743 -0.9120  0.7127  0.8110
 3739SOL     OW13595   9.214  10.369   0.192 -0.3282 -0.0451 -0.3495
 3739SOL    HW113596   9.275  10.307   0.234  0.6125  1.6937  0.9863
 3739SOL    HW213597   9.128  10.326   0.199  0.2429 -1.0686  0.8306
 3740SOL     OW13598   4.786   4.547   9.202  0.0091  0.8396 -0.5306
 3740SOL    HW113599   4.710   4.514   9.250  0.9982 -1.5252 -0.4285
 3740SOL    HW213600   4.772   4.641   9.196 -2.7300  0.5392 -0.2068
 3741SOL     OW13601   9.452   4.563   8.757  0.8048  0.2122  0.0807
 3741SOL    HW113602   9.514   4.507   8.803  1.1638  1.1403  0.7614
 3741SOL    HW213603   9.397   4.601   8.826 -0.7082 -0.7889 -0.5278
 3742SOL     OW13604   5.744   1.999   9.160  0.5937  0.5668 -0.3766
 3742SOL    HW113605   5.692   2.006   9.080  0.9391  2.6246 -0.4846
 3742SOL    HW213606   5.689   1.950   9.221 -0.0760 -0.1664 -1.5402
 3743SOL     OW13607   8.108   0.705   3.956 -0.0538  0.0813 -0.3078
 3743SOL    HW113608   8.146   0.617   3.953 -0.3992 -0.5609  4.9296
 3743SOL    HW213609   8.020   0.692   3.993 -0.2764  2.5621  0.1993
 3744SOL     OW13610  10.690   3.653   2.374  0.1690 -0.5324 -0.4786
 3744SOL    HW113611  10.690   3.681   2.465  1.8786 -1.2080 -0.2409
 3744SOL    HW213612  10.657   3.563   2.377 -0.8061 -0.1969 -0.6805
 3745SOL     OW13613   6.917   7.051   3.299  0.2281  0.5421  0.0079
 3745SOL    HW113614   6.996   7.105   3.296  1.8115 -1.6719 -0.4999
 3745SOL    HW213615   6.881   7.057   3.211  0.4788  0.6444 -0.0904
 3746SOL     OW13616   6.864   2.606   8.647  0.0242  0.1160  0.1525
 3746SOL    HW113617   6.874   2.593   8.553  0.8810  0.4926  0.1770
 3746SOL    HW213618   6.798   2.675   8.655 -1.2686 -1.0478 -0.1063
 3747SOL     OW13619   2.743   5.314  10.725  1.1020  0.3073  0.4443
 3747SOL    HW113620   2.736   5.342  10.816  1.3619 -0.8835  0.8364
 3747SOL    HW213621   2.674   5.249  10.713  0.8462  0.6988 -0.3114
 3748SOL     OW13622   0.103   5.613   6.162  0.3053  0.4984 -0.2471
 3748SOL    HW113623   0.185   5.580   6.125 -0.6363 -2.5777  0.1212
 3748SOL    HW213624   0.130   5.672   6.233  2.1498  0.5559 -0.9478
 3749SOL     OW13625   4.926   9.862   1.413  0.3267 -0.0808  0.0023
 3749SOL    HW113626   4.905   9.773   1.385  0.4728  0.2404 -1.1691
 3749SOL    HW213627   4.971   9.900   1.338 -1.2224  1.5286 -0.1746
 3750SOL     OW13628   0.915   8.815   6.172 -0.6356 -0.0953  0.4449
 3750SOL    HW113629   0.933   8.793   6.264  2.7823 -1.5595 -0.4014
 3750SOL    HW213630   0.935   8.909   6.165 -1.6898  0.2114  1.3054
 3751SOL     OW13631   9.116   1.547   3.351  0.6778 -0.0984 -0.2373
 3751SOL    HW113632   9.176   1.618   3.375 -0.1411  0.1034  1.3133
 3751SOL    HW213633   9.172   1.471   3.337  1.3342  0.1791  0.8393
 3752SOL     OW13634   9.442   2.103   6.506  0.3206 -0.2767  0.0465
 3752SOL    HW113635   9.494   2.023   6.499 -1.3453 -1.3442 -0.9490
 3752SOL    HW213636   9.463   2.152   6.426  3.1258  1.5207  1.7224
 3753SOL     OW13637   2.390   6.578  10.300 -0.5821 -0.1066 -0.8387
 3753SOL    HW113638   2.315   6.566  10.359 -0.3293  0.4089 -0.4081
 3753SOL    HW213639   2.443   6.499  10.313  0.0645  0.5090  0.5174
 3754SOL     OW13640   9.003   9.675   7.653 -0.6605  0.8192 -0.0053
 3754SOL    HW113641   9.009   9.626   7.571 -0.0949 -0.0031  0.5172
 3754SOL    HW213642   9.080   9.732   7.652 -0.2365  0.2569  0.3037
 3755SOL     OW13643   4.937   9.842   9.200  0.0968  0.2432  0.1968
 3755SOL    HW113644   4.846   9.868   9.209  0.3250  1.0381  0.2413
 3755SOL    HW213645   4.966   9.826   9.290 -0.0014 -0.0532  0.1791
 3756SOL     OW13646   8.894   3.139  10.665 -0.4166 -0.5430 -0.2975
 3756SOL    HW113647   8.882   3.220  10.713  1.4583  0.6125 -1.6472
 3756SOL    HW213648   8.904   3.166  10.574 -2.2008 -2.5109 -1.1792
 3757SOL     OW13649   6.872   1.133   2.623  0.1493  0.0158 -0.1312
 3757SOL    HW113650   6.883   1.194   2.551  0.4457 -1.3981 -1.3272
 3757SOL    HW213651   6.920   1.172   2.696  0.6666  0.9964 -0.9829
 3758SOL     OW13652   3.325   5.463  10.670 -0.0671  0.1371  0.6216
 3758SOL    HW113653   3.345   5.462  10.577  0.8202 -0.9797  0.8073
 3758SOL    HW213654   3.229   5.469  10.674 -0.0428  1.4456 -0.3258
 3759SOL     OW13655   9.204  10.738   3.056  0.4611  0.3908  0.2311
 3759SOL    HW113656   9.112  10.760   3.064  0.1671  0.6414 -2.8114
 3759SOL    HW213657   9.207  10.671   2.988  2.5328  0.2794  0.3640
 3760SOL     OW13658   6.509   6.627   2.925 -0.3182  0.2658  0.2718
 3760SOL    HW113659   6.480   6.717   2.942 -0.6886 -0.1163  1.8010
 3760SOL    HW213660   6.548   6.631   2.838  0.2740  2.0629  0.5649
 3761SOL     OW13661   1.720  10.210   0.361 -0.5958  0.4955 -0.9498
 3761SOL    HW113662   1.780  10.214   0.436 -1.6957  0.5254 -0.0503
 3761SOL    HW213663   1.740  10.289   0.310 -0.6460  1.0910 -0.0585
 3762SOL     OW13664  10.179   3.608  10.637  0.1990 -0.2618  0.0326
 3762SOL    HW113665  10.106   3.586  10.696 -0.5275 -0.6155 -0.9614
 3762SOL    HW213666  10.198   3.700  10.655 -1.4681  0.2626 -0.6757
 3763SOL     OW13667  10.423  10.529  10.148 -0.0452  0.0635  0.4149
 3763SOL    HW113668  10.409  10.621  10.171  0.9807  0.4296 -0.3278
 3763SOL    HW213669  10.469  10.492  10.223  1.5586  0.7548 -0.1811
 3764SOL     OW13670   9.460   1.917   3.819  0.4609  0.0912 -0.1238
 3764SOL    HW113671   9.447   1.881   3.907  2.1132  0.1119  0.1615
 3764SOL    HW213672   9.552   1.943   3.817 -0.0877  2.1828 -1.1065
 3765SOL     OW13673   6.887   7.632   8.440 -0.4970  0.0126  0.1607
 3765SOL    HW113674   6.937   7.695   8.491 -1.7049  1.4630 -0.3617
 3765SOL    HW213675   6.796   7.661   8.449 -1.4664 -3.1255  1.9340
 3766SOL     OW13676   7.518   0.518   9.416  0.4671  0.0134 -0.5422
 3766SOL    HW113677   7.502   0.607   9.448  0.2505  0.3405 -1.5273
 3766SOL    HW213678   7.464   0.463   9.473  0.3652  0.5382 -0.1140
 3767SOL     OW13679   6.308   6.536   7.858 -0.4611 -0.2438  0.0839
 3767SOL    HW113680   6.403   6.542   7.843 -0.6330  0.5860 -0.8195
 3767SOL    HW213681   6.270   6.584   7.784 -1.5188  1.2985  1.5723
 3768SOL     OW13682  10.522   2.005   0.143 -0.2935  0.0600  0.1623
 3768SOL    HW113683  10.548   2.090   0.180 -0.9300  1.3166 -2.1014
 3768SOL    HW213684  10.492   1.955   0.219  1.5462  1.2539  1.7943
 3769SOL     OW13685   7.856   7.651   0.030  0.3270 -0.7693  0.2915
 3769SOL    HW113686   7.842   7.565   0.071  0.1024 -1.2128 -0.6796
 3769SOL    HW213687   7.916   7.632  -0.043 -0.0638 -0.1778 -0.1909
 3770SOL     OW13688   7.350   0.010   6.917  0.1843 -0.1482  0.0003
 3770SOL    HW113689   7.414  -0.055   6.945  0.5925  0.7446  1.2174
 3770SOL    HW213690   7.288   0.014   6.989 -0.4031  0.1006 -0.5103
 3771SOL     OW13691   7.180   4.493   9.549  0.2906  0.0878  0.0676
 3771SOL    HW113692   7.104   4.551   9.552 -0.5966 -1.0985  1.3707
 3771SOL    HW213693   7.186   4.466   9.457 -2.1087 -1.3355  0.2460
 3772SOL     OW13694   9.444   7.797   6.457  0.2391  0.0817  0.3820
 3772SOL    HW113695   9.361   7.791   6.411 -0.2453  1.5174  0.9966
 3772SOL    HW213696   9.420   7.818   6.548  1.2557  0.7687  0.5209
 3773SOL     OW13697   8.794   9.921   9.902  0.6196 -0.6440  0.0883
 3773SOL    HW113698   8.889   9.927   9.895  0.5908 -0.0723  0.1296
 3773SOL    HW213699   8.761   9.990   9.846  0.2114 -1.1769 -0.3426
 3774SOL     OW13700   0.599   1.770   8.205  0.7193  0.2757  0.1743
 3774SOL    HW113701   0.603   1.793   8.112  0.3952 -2.6097 -0.6501
 3774SOL    HW213702   0.544   1.692   8.208 -0.2069  0.9131  2.9842
 3775SOL     OW13703   2.263   8.410   7.820  0.4354  0.5150  0.0966
 3775SOL    HW113704   2.336   8.352   7.840 -0.0788  0.0644  0.7122
 3775SOL    HW213705   2.294   8.464   7.747  1.0811 -0.2272 -0.1896
 3776SOL     OW13706   5.626   8.603   5.409  0.2647 -0.1517 -0.1272
 3776SOL    HW113707   5.539   8.569   5.387 -0.0527  1.2961 -1.2448
 3776SOL    HW213708   5.687   8.548   5.360  0.0672 -1.5568  1.1176
 3777SOL     OW13709   9.236   1.972   2.237  0.0775  0.1817 -0.3216
 3777SOL    HW113710   9.324   1.957   2.271  0.1583  0.5462 -0.3617
 3777SOL    HW213711   9.181   1.978   2.315  0.2776  1.1103 -0.2376
 3778SOL     OW13712   6.444   0.104   8.121 -0.3738  0.3314  0.1887
 3778SOL    HW113713   6.353   0.120   8.147 -0.3114  0.8387  0.1030
 3778SOL    HW213714   6.483   0.192   8.113 -0.1163  0.1552 -0.6111
 3779SOL     OW13715   3.125   5.822   1.171 -0.6953  0.0217  0.2245
 3779SOL    HW113716   3.039   5.805   1.134 -1.3112  2.1997  0.4720
 3779SOL    HW213717   3.177   5.856   1.098 -0.5565  0.2140  0.4093
 3780SOL     OW13718   9.241   0.675   4.047  0.3469 -0.0392 -0.1358
 3780SOL    HW113719   9.306   0.639   3.987  1.0825  1.1640 -0.0789
 3780SOL    HW213720   9.196   0.742   3.996 -0.3393 -0.3264  0.0723
 3781SOL     OW13721   1.429  10.492   7.877  0.5216 -0.0371  0.0596
 3781SOL    HW113722   1.451  10.585   7.866  0.1722  0.3017  1.9550
 3781SOL    HW213723   1.336  10.487   7.856  0.4185  0.1447  0.4672
 3782SOL     OW13724   7.871   3.771   7.766  0.2199  0.1479  0.3519
 3782SOL    HW113725   7.958   3.806   7.746  0.8720 -1.8479 -0.5381
 3782SOL    HW213726   7.880   3.732   7.853 -0.1516  1.0042  0.7889
 3783SOL     OW13727   2.590   0.197   2.815 -0.7951  0.1312  0.1517
 3783SOL    HW113728   2.580   0.248   2.734 -0.1803  0.9477  0.5755
 3783SOL    HW213729   2.501   0.188   2.848 -1.0854 -0.4337 -0.7421
 3784SOL     OW13730   2.543   7.864   3.104 -0.3453  0.1162 -0.2507
 3784SOL    HW113731   2.474   7.851   3.038  0.3180  1.6659 -1.2940
 3784SOL    HW213732   2.497   7.854   3.188 -1.5120 -0.4463 -0.9229
 3785SOL     OW13733   4.772  10.285   9.814  0.0930 -0.3061 -0.5794
 3785SOL    HW113734   4.866  10.271   9.804  0.0400 -1.2244  0.1433
 3785SOL    HW213735   4.765  10.365   9.866  0.5769 -1.8775  2.1079
 3786SOL     OW13736   9.130   3.759   9.677 -0.1593  0.5948 -0.6834
 3786SOL    HW113737   9.221   3.787   9.688  0.1311 -0.5577  0.0096
 3786SOL    HW213738   9.106   3.719   9.761 -0.8577 -0.3204 -1.2896
 3787SOL     OW13739   7.030  10.570  10.618  0.4663 -0.3417 -0.2163
 3787SOL    HW113740   7.062  10.498  10.564  0.6577  0.2923 -0.9631
 3787SOL    HW213741   6.939  10.546  10.638  0.4259 -0.6319 -0.7368
 3788SOL     OW13742   8.453   9.046  10.205 -0.3035  0.7688  0.1637
 3788SOL    HW113743   8.467   8.992  10.282 -1.2343  0.4771  0.1447
 3788SOL    HW213744   8.477   9.135  10.232  0.6972  0.4431  0.3613
 3789SOL     OW13745   5.047   7.228   0.228 -0.1926 -0.2647  0.8127
 3789SOL    HW113746   5.104   7.222   0.151  0.0368  2.4399  0.6850
 3789SOL    HW213747   4.979   7.162   0.212  1.1692 -1.4403 -0.5052
 3790SOL     OW13748   4.979   7.145   9.374  0.6431  0.2809 -0.2922
 3790SOL    HW113749   4.928   7.224   9.394  0.4973 -0.0097  0.5545
 3790SOL    HW213750   4.915   7.084   9.336  1.0909  1.1327 -2.5455
 3791SOL     OW13751   3.302   0.758   2.430 -0.7105  0.3796  0.2462
 3791SOL    HW113752   3.208   0.760   2.448 -0.5237 -0.4219  1.3955
 3791SOL    HW213753   3.317   0.831   2.370 -1.9042  1.0940  0.8031
 3792SOL     OW13754   4.450   9.976   4.220  0.2315 -0.4919  0.0935
 3792SOL    HW113755   4.502   9.948   4.144 -0.0826 -1.4919  0.2367
 3792SOL    HW213756   4.372  10.015   4.182  0.1482 -0.8451 -0.1028
 3793SOL     OW13757   1.074   9.032   9.157  0.1405 -0.2274 -0.1808
 3793SOL    HW113758   1.077   8.991   9.071 -1.4905  0.1379 -0.4586
 3793SOL    HW213759   1.004   9.098   9.150  0.2100  0.0574  1.3094
 3794SOL     OW13760   1.566   3.839   5.599 -0.7934 -0.4156 -0.1762
 3794SOL    HW113761   1.603   3.776   5.537 -1.8109 -0.7086 -0.5029
 3794SOL    HW213762   1.584   3.924   5.560  0.3609 -0.5043  0.1382
 3795SOL     OW13763   7.340   2.894   8.554  0.2808 -0.0517  0.7799
 3795SOL    HW113764   7.377   2.899   8.642  0.4757  0.8444  0.6567
 3795SOL    HW213765   7.255   2.937   8.561  0.9123  1.3612  0.2312
 3796SOL     OW13766   7.404   3.518   6.118  0.1817 -0.2574 -0.1530
 3796SOL    HW113767   7.346   3.553   6.186 -1.5226 -0.0320 -1.6280
 3796SOL    HW213768   7.470   3.586   6.106 -0.0772  0.1430  0.5836
 3797SOL     OW13769   2.869   1.780  10.702 -0.0917 -0.0576 -0.2635
 3797SOL    HW113770   2.783   1.815  10.729  0.0758  1.3120 -1.3609
 3797SOL    HW213771   2.850   1.728  10.624  0.1775  1.2412 -1.2380
 3798SOL     OW13772   4.930   6.109   2.976 -0.0967 -0.0680 -0.0803
 3798SOL    HW113773   4.913   6.033   2.920 -0.9205  1.6573 -2.3390
 3798SOL    HW213774   4.918   6.077   3.065 -0.3160 -2.5751 -0.9387
 3799SOL     OW13775   0.432   4.913   9.050 -0.6472  0.1373 -0.0869
 3799SOL    HW113776   0.484   4.849   9.098 -0.1223  0.5843 -0.0455
 3799SOL    HW213777   0.480   4.927   8.968  0.0071  1.5138  0.5072
 3800SOL     OW13778   6.001   7.889   8.256 -0.2151  0.6925  0.6390
 3800SOL    HW113779   5.971   7.819   8.199 -0.1851 -0.7231  2.2889
 3800SOL    HW213780   5.985   7.969   8.206 -0.3255 -0.4605 -1.2567
 3801SOL     OW13781   5.326   0.115   0.524  0.9620 -0.8473 -0.3305
 3801SOL    HW113782   5.345   0.091   0.433  1.9175  0.8835 -0.6506
 3801SOL    HW213783   5.298   0.207   0.519 -0.6935 -1.2302  0.9627
 3802SOL     OW13784   5.767   3.181   9.165 -0.4007 -0.2488  0.4673
 3802SOL    HW113785   5.823   3.113   9.203 -0.8570 -1.2714 -0.6105
 3802SOL    HW213786   5.719   3.136   9.095 -1.3163  1.0057  0.2525
 3803SOL     OW13787   8.524   9.715   1.956  0.2449  0.2091  0.0664
 3803SOL    HW113788   8.484   9.764   1.885  0.8903  0.2387 -0.2790
 3803SOL    HW213789   8.471   9.635   1.964  0.7301 -0.2460 -1.0819
 3804SOL     OW13790   9.773   0.728   9.706 -0.1584  0.1693  1.0620
 3804SOL    HW113791   9.681   0.707   9.692  0.4188 -2.6428  0.8239
 3804SOL    HW213792   9.793   0.795   9.640 -2.0423  0.9708  1.2492
 3805SOL     OW13793   8.590   6.490   1.572 -0.1808 -0.4107  0.7324
 3805SOL    HW113794   8.590   6.537   1.489  1.8544 -0.2415  0.7788
 3805SOL    HW213795   8.626   6.404   1.551  0.6546 -0.2583  1.4702
 3806SOL     OW13796   6.970   3.248   7.801 -0.4017 -0.4268 -0.3287
 3806SOL    HW113797   6.908   3.311   7.837  0.1664 -0.1599  0.2098
 3806SOL    HW213798   6.916   3.178   7.765 -1.1044  0.8656 -1.9484
 3807SOL     OW13799   1.940   9.309   7.547 -0.7604  0.1180 -0.0551
 3807SOL    HW113800   1.860   9.346   7.510  0.0618  0.6253 -1.3957
 3807SOL    HW213801   1.932   9.215   7.533 -1.5002  0.0697  0.6148
 3808SOL     OW13802   7.861   1.247   3.434 -0.4621 -0.4492  0.5799
 3808SOL    HW113803   7.903   1.252   3.348  0.5827 -1.0252  1.0383
 3808SOL    HW213804   7.813   1.165   3.433 -0.2348 -0.5833  0.6375
 3809SOL     OW13805  10.393   8.910   8.735 -0.2295 -0.2945 -0.2315
 3809SOL    HW113806  10.385   8.822   8.771  0.3230 -0.5572 -0.7468
 3809SOL    HW213807  10.321   8.959   8.776 -1.1772 -1.2287 -0.7194
 3810SOL     OW13808   1.266   4.584   4.331  0.4397  0.3962 -0.1599
 3810SOL    HW113809   1.232   4.512   4.277 -1.9401  2.1044 -1.0989
 3810SOL    HW213810   1.188   4.630   4.361  1.8694  2.0898  1.1667
 3811SOL     OW13811   6.840   6.861   7.817 -0.6964  0.2730  0.2049
 3811SOL    HW113812   6.836   6.925   7.888  0.0010  0.3862  0.1441
 3811SOL    HW213813   6.798   6.783   7.854 -1.8654  0.8589  0.1618
 3812SOL     OW13814   8.641   9.093   7.769 -0.5562 -0.3437 -0.1082
 3812SOL    HW113815   8.574   9.058   7.827  0.7647 -1.9665  0.5259
 3812SOL    HW213816   8.670   9.173   7.811 -0.9558 -0.4923  0.4633
 3813SOL     OW13817   5.625   4.268   6.255 -0.6954 -0.3198 -0.5697
 3813SOL    HW113818   5.671   4.207   6.312 -3.1396  0.3313  2.3209
 3813SOL    HW213819   5.601   4.216   6.178  0.2514 -1.9994  0.2272
 3814SOL     OW13820  10.418   4.554   3.553 -0.1188 -0.3764 -0.4588
 3814SOL    HW113821  10.405   4.529   3.645  0.2470 -0.5139 -0.4458
 3814SOL    HW213822  10.506   4.590   3.550 -1.3407  3.0187 -0.0191
 3815SOL     OW13823   2.047   8.003   6.895 -0.3699 -0.7132  0.2922
 3815SOL    HW113824   1.958   7.989   6.865  0.3945 -1.7721 -1.6837
 3815SOL    HW213825   2.077   8.080   6.846  0.2570 -1.2646 -0.2172
 3816SOL     OW13826   1.959   8.770   8.547 -0.8395 -0.6579 -0.2661
 3816SOL    HW113827   2.039   8.819   8.531 -0.4878 -0.4466  1.8041
 3816SOL    HW213828   1.918   8.761   8.461  1.7726 -1.4684 -1.5271
 3817SOL     OW13829  10.049   5.721   3.452 -1.1928 -0.2646 -0.9951
 3817SOL    HW113830  10.066   5.801   3.403 -0.4749  2.3768  3.0783
 3817SOL    HW213831  10.001   5.750   3.529 -0.2384 -3.6559  1.0910
 3818SOL     OW13832   9.863   9.261   0.601  0.1739  0.2264 -0.6068
 3818SOL    HW113833   9.858   9.345   0.647  0.0313  0.1295 -0.4446
 3818SOL    HW213834   9.797   9.269   0.532 -1.3422 -0.5334  0.6941
 3819SOL     OW13835   3.563   7.502   1.501  0.5364 -0.4616  0.2669
 3819SOL    HW113836   3.515   7.430   1.460 -0.3897 -0.1401  0.7605
 3819SOL    HW213837   3.496   7.567   1.522  1.1699 -0.0482  1.0782
 3820SOL     OW13838   6.757   7.540   5.612  0.5451  0.2380  0.0394
 3820SOL    HW113839   6.830   7.534   5.675 -0.5799 -1.6304  1.2732
 3820SOL    HW213840   6.679   7.523   5.665 -0.7325  1.4115 -1.4013
 3821SOL     OW13841   4.351   2.192   6.305 -0.3328 -0.6317 -0.1199
 3821SOL    HW113842   4.272   2.158   6.262 -1.0937  1.3968 -0.4159
 3821SOL    HW213843   4.318   2.235   6.384  0.1647  1.9806 -1.2285
 3822SOL     OW13844   4.389   4.703   1.592 -0.0030  0.4999  0.0457
 3822SOL    HW113845   4.323   4.721   1.660  0.6171  1.1363  0.4974
 3822SOL    HW213846   4.343   4.649   1.528 -0.4610 -0.5974  1.2450
 3823SOL     OW13847   8.438   7.563   0.637 -0.4015  0.0808  0.2525
 3823SOL    HW113848   8.459   7.568   0.731 -0.9559  1.5430  0.3221
 3823SOL    HW213849   8.504   7.619   0.595 -0.9696  0.5232 -0.0718
 3824SOL     OW13850   4.485   2.982   7.050  0.4707 -0.4843 -0.4943
 3824SOL    HW113851   4.552   3.028   7.101  0.0663 -1.1651  0.7002
 3824SOL    HW213852   4.403   3.007   7.091  0.1745 -1.5194 -0.4308
 3825SOL     OW13853   8.743  10.128   3.268 -0.2082  0.3738  0.0338
 3825SOL    HW113854   8.754  10.213   3.310  1.8358  0.3665 -0.3953
 3825SOL    HW213855   8.807  10.072   3.311 -0.4186 -0.5227 -0.7927
 3826SOL     OW13856   2.766   7.545   8.456  0.2765 -0.0587 -0.4884
 3826SOL    HW113857   2.860   7.531   8.457  0.0963 -1.4272  0.4994
 3826SOL    HW213858   2.745   7.570   8.547 -0.0625  2.3584 -1.1583
 3827SOL     OW13859   4.484  10.085   0.333  0.1742  0.0876 -0.3618
 3827SOL    HW113860   4.472  10.026   0.408 -1.9749  0.8316 -0.0448
 3827SOL    HW213861   4.526  10.031   0.266  0.9812 -0.9390  0.9210
 3828SOL     OW13862   7.176   9.107   7.568  0.0752  0.0684 -0.1086
 3828SOL    HW113863   7.252   9.165   7.575 -1.0625  1.4865  1.1919
 3828SOL    HW213864   7.193   9.039   7.632 -0.2468  1.0287  1.0374
 3829SOL     OW13865   2.724   4.134   9.185 -0.0973 -0.6467  0.2263
 3829SOL    HW113866   2.773   4.066   9.138 -2.7089 -1.1601 -1.9720
 3829SOL    HW213867   2.668   4.086   9.245 -2.4766 -0.6600 -1.8359
 3830SOL     OW13868   2.854   8.663   7.708  0.3649 -0.0292 -0.5213
 3830SOL    HW113869   2.886   8.734   7.653 -1.7343  0.9343 -0.6109
 3830SOL    HW213870   2.836   8.704   7.793 -2.3757  0.0016 -1.0290
 3831SOL     OW13871   0.543   8.569   2.658 -0.0482 -0.2392  0.1226
 3831SOL    HW113872   0.539   8.664   2.665  0.0178 -0.2318  0.0615
 3831SOL    HW213873   0.615   8.543   2.716  0.5973 -0.1682 -0.6387
 3832SOL     OW13874   6.411   4.634   3.104 -0.3622  0.6886  0.4659
 3832SOL    HW113875   6.507   4.633   3.100 -0.1865 -1.4234  2.6132
 3832SOL    HW213876   6.384   4.582   3.029  0.2523  0.3508  0.4676
 3833SOL     OW13877   7.219   1.835   5.521 -0.2203 -0.0569  0.5535
 3833SOL    HW113878   7.196   1.794   5.605 -1.2961  0.9351  0.7656
 3833SOL    HW213879   7.315   1.826   5.515 -0.3698 -2.2044  0.7684
 3834SOL     OW13880   3.103   4.101   0.477 -0.0578 -0.0876  0.7090
 3834SOL    HW113881   3.155   4.023   0.494  1.1898  0.6901  0.5153
 3834SOL    HW213882   3.056   4.082   0.395  2.7980  0.5698 -1.2475
 3835SOL     OW13883   4.168  10.197   8.330  0.4117 -0.4364  0.4470
 3835SOL    HW113884   4.195  10.270   8.386 -0.4330  0.6173 -0.4604
 3835SOL    HW213885   4.197  10.119   8.376  2.1777  0.5014  1.0171
 3836SOL     OW13886   1.389   5.979  10.425  0.5987  0.0271  0.6014
 3836SOL    HW113887   1.435   6.001  10.344 -0.0340  0.1062  0.2574
 3836SOL    HW213888   1.367   5.886  10.417  2.8607 -0.7031  1.8545
 3837SOL     OW13889   2.782   4.540   3.127 -0.0996 -0.3758  0.0785
 3837SOL    HW113890   2.688   4.533   3.107  0.2357 -2.0273 -1.1473
 3837SOL    HW213891   2.818   4.589   3.053  0.2570 -1.3668 -0.4253
 3838SOL     OW13892   7.058  10.317   5.181  0.2913 -0.0122 -0.5092
 3838SOL    HW113893   7.106  10.290   5.258 -0.0837 -0.1036 -0.3047
 3838SOL    HW213894   7.029  10.406   5.201 -1.4709 -0.7146  0.2774
 3839SOL     OW13895   9.966   2.685   8.799 -0.5176 -0.3283 -0.0632
 3839SOL    HW113896  10.025   2.612   8.818  1.5877  1.3639  0.3083
 3839SOL    HW213897   9.996   2.718   8.715 -1.0015  0.5109  0.0904
 3840SOL     OW13898   0.201   0.402  10.240 -0.2391 -0.4104  0.1475
 3840SOL    HW113899   0.208   0.498  10.238  2.5947 -0.5422 -0.2379
 3840SOL    HW213900   0.204   0.376  10.148 -0.7736 -0.8875  0.2621
 3841SOL     OW13901   5.458   2.008   8.690 -0.7779 -0.3759 -0.3134
 3841SOL    HW113902   5.501   2.087   8.656 -0.3719  1.3789  3.6447
 3841SOL    HW213903   5.365   2.029   8.691 -0.6825  0.0810  0.6033
 3842SOL     OW13904   1.578  10.518  10.464 -0.5401  0.0661 -0.0181
 3842SOL    HW113905   1.647  10.461  10.428 -0.0837  0.3234  0.4490
 3842SOL    HW213906   1.511  10.520  10.395 -0.0172 -0.0693 -0.5352
 3843SOL     OW13907   2.198   5.087   4.338 -0.8431  0.0990  0.2898
 3843SOL    HW113908   2.157   5.075   4.252 -2.1340 -0.8822  0.9907
 3843SOL    HW213909   2.237   5.001   4.358  0.7763  0.7464  0.0602
 3844SOL     OW13910   3.817   2.042   9.603  0.5719 -0.1908  0.2836
 3844SOL    HW113911   3.797   2.086   9.685 -1.1948  1.3253 -0.8895
 3844SOL    HW213912   3.888   2.094   9.565 -0.0245  0.3736 -0.0827
 3845SOL     OW13913   9.372   3.048   7.274 -0.0089 -0.1493  0.7348
 3845SOL    HW113914   9.413   2.974   7.231 -0.2234  1.5610 -2.7782
 3845SOL    HW213915   9.443   3.092   7.321  0.8115 -0.7140  0.0362
 3846SOL     OW13916   6.194  10.488   5.799  0.6925 -0.3105  0.2088
 3846SOL    HW113917   6.232  10.497   5.886  2.1222  2.0296 -0.5840
 3846SOL    HW213918   6.156  10.573   5.780  1.9262 -0.2062 -2.1143
 3847SOL     OW13919   9.446   8.319   5.522  0.0306  0.2391  0.3812
 3847SOL    HW113920   9.368   8.324   5.467  0.4734 -1.2062 -0.4347
 3847SOL    HW213921   9.506   8.263   5.473  0.4769 -1.0491  2.2946
 3848SOL     OW13922   2.100   5.688   3.705  0.1107 -0.2975  0.4293
 3848SOL    HW113923   2.120   5.616   3.644 -2.6372 -1.4221  0.7331
 3848SOL    HW213924   2.022   5.729   3.669 -0.1273  0.6052  1.9170
 3849SOL     OW13925   2.659   9.981   1.928 -0.4648 -0.4580  0.0154
 3849SOL    HW113926   2.739   9.939   1.897 -1.5598 -2.1138 -0.7619
 3849SOL    HW213927   2.660  10.068   1.889  0.7021 -0.6525 -0.4211
 3850SOL     OW13928   5.270   3.726   5.726  0.3469  0.3097  0.0645
 3850SOL    HW113929   5.175   3.718   5.716  0.2068 -1.5407  2.0774
 3850SOL    HW213930   5.306   3.682   5.649 -0.5395 -3.5133  1.5906
 3851SOL     OW13931   8.728  10.679   0.628 -0.2325  0.4286  0.6801
 3851SOL    HW113932   8.784  10.604   0.648 -0.1929  1.1245  3.5653
 3851SOL    HW213933   8.780  10.755   0.656 -0.7668  1.4721 -1.0356
 3852SOL     OW13934   0.625   1.368  10.280  0.4336  0.7691  0.0125
 3852SOL    HW113935   0.643   1.382  10.187  0.0904  0.5251 -0.0937
 3852SOL    HW213936   0.701   1.320  10.312 -0.3577 -1.0273 -0.6222
 3853SOL     OW13937   0.304   1.540   7.102 -0.6252 -0.0324  0.2831
 3853SOL    HW113938   0.295   1.634   7.089 -1.0569 -0.2115 -0.9036
 3853SOL    HW213939   0.222   1.503   7.069 -0.1986 -0.8692  0.1173
 3854SOL     OW13940   3.066   3.826   1.275  0.4134  0.1122 -0.0554
 3854SOL    HW113941   3.006   3.843   1.347  2.8268 -0.5408  2.2747
 3854SOL    HW213942   3.050   3.735   1.251 -0.2469  0.2676 -0.2284
 3855SOL     OW13943   1.755   6.826   5.813 -0.2152 -0.2724  0.3723
 3855SOL    HW113944   1.831   6.800   5.866 -1.1908 -1.0404  1.4186
 3855SOL    HW213945   1.785   6.816   5.722  0.3037 -2.5828  0.7415
 3856SOL     OW13946   1.698   1.728   5.779  0.4886 -0.1176 -0.1570
 3856SOL    HW113947   1.764   1.659   5.792 -0.0952 -0.3933  1.5146
 3856SOL    HW213948   1.620   1.694   5.821 -0.8697  0.0793 -2.3418
 3857SOL     OW13949   7.422   8.060   8.226 -0.1649 -0.3480  0.9122
 3857SOL    HW113950   7.491   8.055   8.291  0.2272 -0.7073  0.4795
 3857SOL    HW213951   7.461   8.107   8.152 -1.3399  2.2430  1.8235
 3858SOL     OW13952   1.261   9.045  10.585  0.1007  0.0541 -0.1854
 3858SOL    HW113953   1.294   9.075  10.500  1.3436 -0.9119 -0.0755
 3858SOL    HW213954   1.309   9.098  10.649 -0.6103  0.5627 -0.0498
 3859SOL     OW13955   5.207   1.259   1.634  0.1418 -0.6762 -0.0025
 3859SOL    HW113956   5.149   1.288   1.705  0.0737 -0.2985 -0.2119
 3859SOL    HW213957   5.295   1.263   1.672  0.4380  2.3629 -0.8045
 3860SOL     OW13958   6.519   5.346   8.492  0.1670 -0.4306 -0.3488
 3860SOL    HW113959   6.567   5.305   8.564 -1.2376  0.5390  1.2176
 3860SOL    HW213960   6.440   5.382   8.533  0.3446  2.0472 -1.9531
 3861SOL     OW13961   3.139   4.282  10.450  0.2278  0.3095 -0.3718
 3861SOL    HW113962   3.211   4.224  10.427 -0.0970 -0.7406  1.0927
 3861SOL    HW213963   3.060   4.228  10.443 -0.0696  0.4902  1.1373
 3862SOL     OW13964   0.882   1.725   6.676  0.1570  0.4122  0.0024
 3862SOL    HW113965   0.808   1.785   6.667  1.1888  1.8787  0.6609
 3862SOL    HW213966   0.935   1.740   6.598 -0.8106 -1.5616 -1.1055
 3863SOL     OW13967   9.550   5.504   6.768  0.0946 -0.8293 -0.1608
 3863SOL    HW113968   9.501   5.487   6.688  0.3282 -0.3873 -0.4003
 3863SOL    HW213969   9.585   5.592   6.756  0.5010 -0.9361  0.2397
 3864SOL     OW13970   0.413   9.719   2.369 -0.5998  0.5976 -0.1489
 3864SOL    HW113971   0.374   9.805   2.351  0.3627  1.1223  0.1732
 3864SOL    HW213972   0.502   9.739   2.397 -0.9760 -0.3831  1.9130
 3865SOL     OW13973   0.273  10.144   8.464 -0.4474 -0.4429  0.1226
 3865SOL    HW113974   0.337  10.211   8.439  1.6113 -1.6357  1.8431
 3865SOL    HW213975   0.260  10.093   8.384  1.9803 -1.0855  0.0593
 3866SOL     OW13976   7.315   7.875   0.594  0.1270  0.1819 -0.7417
 3866SOL    HW113977   7.322   7.780   0.582  0.5438  0.2036 -0.6955
 3866SOL    HW213978   7.349   7.890   0.682  1.2219  0.5023 -1.1972
 3867SOL     OW13979   0.778   2.242   1.927  0.1624 -0.0147 -0.4420
 3867SOL    HW113980   0.785   2.147   1.924 -0.4022 -0.0648 -0.2068
 3867SOL    HW213981   0.832   2.268   2.001  0.8197 -0.0966 -0.8828
 3868SOL     OW13982  10.486   6.033   3.078 -0.8138  0.2273 -0.7818
 3868SOL    HW113983  10.516   5.943   3.077 -1.4261  0.0198 -1.3636
 3868SOL    HW213984  10.505   6.064   3.166  0.2103 -0.1893 -0.8527
 3869SOL     OW13985   0.187   2.053   2.733 -0.0060  0.7432  0.4024
 3869SOL    HW113986   0.174   1.979   2.792  1.1254  0.4153  0.2571
 3869SOL    HW213987   0.227   2.016   2.655 -1.7742  1.1267 -0.7512
 3870SOL     OW13988   4.372   9.083   2.609  0.1271 -0.0150 -0.0719
 3870SOL    HW113989   4.404   9.000   2.645 -0.0317  0.1991  0.5723
 3870SOL    HW213990   4.277   9.075   2.611  0.1162 -0.1833 -0.8880
 3871SOL     OW13991   9.638   9.173  10.257 -0.2825  0.3764  0.0275
 3871SOL    HW113992   9.596   9.190  10.341  0.2404 -0.1508  0.4072
 3871SOL    HW213993   9.590   9.098  10.221 -1.3020  1.3575 -0.7259
 3872SOL     OW13994   3.625   3.905   5.504  0.8329 -0.3573  0.1836
 3872SOL    HW113995   3.557   3.896   5.571  2.2839  2.0623  2.1645
 3872SOL    HW213996   3.626   3.999   5.484  2.1146 -0.6770 -1.4446
 3873SOL     OW13997   6.655   8.074   7.326  0.2838 -0.2984 -0.5401
 3873SOL    HW113998   6.597   8.149   7.335 -0.6005 -0.9485 -0.6600
 3873SOL    HW213999   6.659   8.036   7.414 -0.2037 -0.7764 -0.7199
 3874SOL     OW14000   2.062   8.692  10.219 -0.4122 -0.1028 -0.2291
 3874SOL    HW114001   2.110   8.770  10.190 -0.1338 -0.7097 -1.4644
 3874SOL    HW214002   1.983   8.692  10.166 -0.9021 -0.1180  0.4925
 3875SOL     OW14003   4.574   9.467   7.774  0.0905 -0.0789 -0.0764
 3875SOL    HW114004   4.518   9.536   7.739  0.4165  1.0090  1.4423
 3875SOL    HW214005   4.513   9.396   7.797 -0.5430  0.6756  0.6057
 3876SOL     OW14006   0.121   8.721  10.006 -0.7787  0.0296  0.2795
 3876SOL    HW114007   0.082   8.634  10.007  0.4013 -0.5848 -1.4563
 3876SOL    HW214008   0.164   8.729  10.091  0.7941 -1.9652 -0.2241
 3877SOL     OW14009   9.030   4.483   9.542  0.3112 -0.0185 -0.1699
 3877SOL    HW114010   8.993   4.431   9.613 -0.7019  1.6315  0.5774
 3877SOL    HW214011   9.110   4.521   9.578  0.4085 -0.0901 -0.3073
 3878SOL     OW14012   2.623   5.088   9.148 -0.0000  0.1032  0.0352
 3878SOL    HW114013   2.601   5.179   9.168 -2.4599  0.5137 -3.6188
 3878SOL    HW214014   2.550   5.037   9.182  0.8290 -0.4262  1.0724
 3879SOL     OW14015   3.572   5.360  10.743 -0.2435  0.0936  0.0651
 3879SOL    HW114016   3.524   5.279  10.762 -2.8811  1.4784 -0.1237
 3879SOL    HW214017   3.508   5.429  10.760  2.1446  2.2305  0.9864
 3880SOL     OW14018   4.877   4.048   6.082  0.1359 -0.2728 -0.3037
 3880SOL    HW114019   4.908   4.072   6.169  1.1125 -1.8922 -0.1760
 3880SOL    HW214020   4.819   4.121   6.057  2.1596  1.6920  0.4195
 3881SOL     OW14021   1.747   7.962   1.288 -0.2773  0.0898  0.1625
 3881SOL    HW114022   1.765   8.011   1.368 -1.5694  0.5839  0.1697
 3881SOL    HW214023   1.820   7.900   1.281 -0.5049 -0.4712  2.0991
 3882SOL     OW14024   1.782  10.328   7.382  0.5348 -0.1404  0.6052
 3882SOL    HW114025   1.790  10.236   7.409 -1.3679 -0.4116  0.3858
 3882SOL    HW214026   1.688  10.343   7.377  0.8177  1.4275 -0.7599
 3883SOL     OW14027   3.383   6.945   4.471 -0.1009  0.1464  0.3129
 3883SOL    HW114028   3.373   6.893   4.551 -1.1428  0.7547  0.5926
 3883SOL    HW214029   3.452   7.008   4.492 -1.2744  1.1761  1.2206
 3884SOL     OW14030   1.025  10.739   5.910 -0.5393  0.4291 -0.0215
 3884SOL    HW114031   1.053  10.804   5.974 -0.7162  0.3067  0.1779
 3884SOL    HW214032   1.007  10.661   5.961 -0.2073  0.1830 -0.2738
 3885SOL     OW14033   3.203   8.274   7.600  0.5814  0.1957 -0.1559
 3885SOL    HW114034   3.119   8.320   7.594 -0.3778 -1.1757  1.9209
 3885SOL    HW214035   3.264   8.341   7.631  0.0295  0.9179 -0.5753
 3886SOL     OW14036   0.986   9.979   4.956  0.6760  0.8534  0.0315
 3886SOL    HW114037   1.007  10.026   5.037  0.6208  1.9231 -0.5571
 3886SOL    HW214038   0.905   9.932   4.977  1.3454  0.0784  0.9876
 3887SOL     OW14039   7.883   9.187  10.301 -0.0805  0.8567 -0.4601
 3887SOL    HW114040   7.876   9.140  10.218 -0.1239  0.4708 -0.2433
 3887SOL    HW214041   7.832   9.134  10.363 -0.7004  1.5474 -0.3563
 3888SOL     OW14042   5.347   3.320   1.709 -0.4237  0.1330  0.3994
 3888SOL    HW114043   5.337   3.254   1.641 -1.0078 -0.8818  1.4495
 3888SOL    HW214044   5.361   3.402   1.660 -2.7389 -0.2166 -1.0156
 3889SOL     OW14045   2.708   6.003   0.352  0.0627 -0.2740  0.3456
 3889SOL    HW114046   2.673   6.091   0.343 -0.4967 -0.5238 -0.0082
 3889SOL    HW214047   2.800   6.015   0.375 -0.4645  0.4086  2.2766
 3890SOL     OW14048   7.576   8.201   1.792  0.8191 -0.1705 -0.3697
 3890SOL    HW114049   7.520   8.186   1.867 -0.5156 -1.9664 -1.6356
 3890SOL    HW214050   7.556   8.290   1.764  0.8079  0.2532  0.9203
 3891SOL     OW14051   0.390   7.036   5.182 -0.1509  0.2148  0.3355
 3891SOL    HW114052   0.373   7.041   5.088 -0.0800 -0.3977  0.2863
 3891SOL    HW214053   0.308   7.007   5.220 -0.4442  1.3056  0.5688
 3892SOL     OW14054  10.800   4.603   7.944  0.5236 -0.4503 -0.3732
 3892SOL    HW114055  10.884   4.620   7.988 -0.1294  0.7131  0.4610
 3892SOL    HW214056  10.816   4.628   7.853  0.8216  0.6887 -0.0209
 3893SOL     OW14057   4.455  10.720   7.273 -0.4142  0.2528 -0.5865
 3893SOL    HW114058   4.526  10.784   7.267 -0.2091  0.3154  1.7632
 3893SOL    HW214059   4.442  10.707   7.367 -2.5607 -0.8331 -0.9754
 3894SOL     OW14060   3.168   1.152   6.119 -0.7108  0.2212 -0.3615
 3894SOL    HW114061   3.221   1.073   6.124 -0.0558  0.6602 -0.2090
 3894SOL    HW214062   3.228   1.223   6.144 -1.2770  0.7665 -0.5196
 3895SOL     OW14063   1.756   6.906   8.548 -0.1881  0.1025 -0.2708
 3895SOL    HW114064   1.802   6.822   8.540  0.7929  0.5651  0.3329
 3895SOL    HW214065   1.729   6.927   8.459  1.5112  0.2090 -0.7837
 3896SOL     OW14066   0.283   2.591   5.442  0.2946 -0.6882  0.0092
 3896SOL    HW114067   0.256   2.531   5.372  0.4282  0.5816 -1.1795
 3896SOL    HW214068   0.261   2.678   5.408 -0.0327 -0.0495  1.7414
 3897SOL     OW14069   3.208   0.528   6.912  0.1065  0.1404 -0.8340
 3897SOL    HW114070   3.174   0.451   6.868  0.6705 -0.3828 -0.3807
 3897SOL    HW214071   3.301   0.531   6.887  0.7571 -0.8883  1.2547
 3898SOL     OW14072   1.834   8.983  10.260 -0.0816  0.0425 -0.3379
 3898SOL    HW114073   1.777   8.935  10.320 -0.6462  1.1044 -0.0185
 3898SOL    HW214074   1.848   8.922  10.188 -0.4395 -0.7697  0.2545
 3899SOL     OW14075   8.522   7.283   5.702  0.4300  0.3865 -0.4462
 3899SOL    HW114076   8.558   7.227   5.634  0.0714  0.4832 -0.7216
 3899SOL    HW214077   8.524   7.230   5.781  1.1539  0.3874 -0.4633
 3900SOL     OW14078   7.844  10.682   6.928 -0.1337  0.2781  0.1443
 3900SOL    HW114079   7.799  10.736   6.994  1.1284  0.5811  0.7854
 3900SOL    HW214080   7.827  10.727   6.845 -2.0547 -0.3076  0.1632
 3901SOL     OW14081   5.169   6.812   7.066  0.6686  0.3490  0.7130
 3901SOL    HW114082   5.123   6.800   6.984  1.9028  0.3276 -0.0083
 3901SOL    HW214083   5.122   6.758   7.129  1.1052 -1.5644 -0.5301
 3902SOL     OW14084   0.802   4.989  10.082  0.1145 -0.4039 -0.0243
 3902SOL    HW114085   0.855   4.915  10.112 -1.0341 -1.4818 -0.5822
 3902SOL    HW214086   0.786   4.971   9.989 -0.6954  0.2325 -0.0154
 3903SOL     OW14087   6.331   2.688   5.393  0.2668 -0.5425 -0.0375
 3903SOL    HW114088   6.320   2.594   5.408  0.9087 -0.3741  1.6783
 3903SOL    HW214089   6.425   2.702   5.397  0.1037  0.3533  0.9181
 3904SOL     OW14090   0.172   6.017   8.409 -0.8461 -0.2409  0.1606
 3904SOL    HW114091   0.258   5.976   8.396 -0.7092  0.0137  0.2704
 3904SOL    HW214092   0.191   6.105   8.442 -1.1080  0.2508 -0.9486
 3905SOL     OW14093   5.410   6.306   9.888 -0.3376  0.3330  0.1251
 3905SOL    HW114094   5.401   6.214   9.862 -1.7964  0.5330 -0.1474
 3905SOL    HW214095   5.427   6.303   9.982 -0.7588 -0.2181  0.1885
 3906SOL     OW14096   0.490   6.442   9.280 -0.3964 -0.0313  0.9514
 3906SOL    HW114097   0.521   6.459   9.192 -0.8148 -0.2414  0.7590
 3906SOL    HW214098   0.567   6.412   9.328 -0.5095 -1.6258  0.2011
 3907SOL     OW14099   4.829   9.857   3.798 -0.2221 -0.3350 -0.2925
 3907SOL    HW114100   4.830   9.854   3.702  1.2246 -0.8983 -0.2810
 3907SOL    HW214101   4.878   9.780   3.825 -1.5078 -0.7709  0.9470
 3908SOL     OW14102   9.807   3.128   8.345  0.0699  0.5219 -0.5064
 3908SOL    HW114103   9.810   3.033   8.357  0.0445  0.3755 -1.6318
 3908SOL    HW214104   9.880   3.147   8.287  1.1938  1.4318  1.1031
 3909SOL     OW14105   9.331   2.873   0.569  0.2431  0.0829 -0.9267
 3909SOL    HW114106   9.322   2.796   0.513  1.4211  0.2359 -1.3568
 3909SOL    HW214107   9.347   2.837   0.656  1.5875 -0.1761 -1.2657
 3910SOL     OW14108  10.030   9.662   4.818 -0.6805  0.3088  0.2245
 3910SOL    HW114109  10.100   9.691   4.760 -1.3502  2.8113  0.5647
 3910SOL    HW214110  10.012   9.737   4.874 -2.0086 -1.0800  1.7750
 3911SOL     OW14111   5.381   1.947   1.179 -0.2127  0.3033  0.3868
 3911SOL    HW114112   5.383   1.964   1.085  0.7923 -1.5374  0.0369
 3911SOL    HW214113   5.312   1.881   1.189 -0.4403  0.6235  0.9893
 3912SOL     OW14114   1.144   7.719  10.000 -0.7375  0.1585  0.3913
 3912SOL    HW114115   1.065   7.774   9.994 -1.3438 -0.7731 -0.5797
 3912SOL    HW214116   1.191   7.737   9.918 -0.8327 -0.5927  0.1660
 3913SOL     OW14117   3.568   0.463   1.392 -0.1616  0.4166 -0.2141
 3913SOL    HW114118   3.594   0.510   1.313  0.9235 -0.7866 -0.6113
 3913SOL    HW214119   3.491   0.510   1.424 -1.0079  0.5467 -2.3181
 3914SOL     OW14120   0.043   1.677   8.478  0.2886  0.1632 -0.1538
 3914SOL    HW114121   0.005   1.744   8.534 -0.4679 -0.1757 -0.2509
 3914SOL    HW214122   0.030   1.595   8.526  0.1656 -0.0559 -0.5561
 3915SOL     OW14123   6.400   2.184   1.577 -0.0804  0.0971 -0.3251
 3915SOL    HW114124   6.353   2.168   1.495 -0.6444 -0.4176  0.0893
 3915SOL    HW214125   6.483   2.136   1.567 -0.9377 -1.5843  0.1245
 3916SOL     OW14126   3.483   2.510   3.057 -0.2729 -0.0248 -0.4104
 3916SOL    HW114127   3.433   2.506   2.975 -1.1059 -1.7240  0.1216
 3916SOL    HW214128   3.452   2.434   3.107  1.7827 -0.2819  0.5799
 3917SOL     OW14129   6.028   2.964  10.579  0.2121 -0.0410 -0.5640
 3917SOL    HW114130   6.026   2.982  10.673  1.9792 -1.5061 -0.1846
 3917SOL    HW214131   6.103   3.015  10.546  0.2992 -0.4075 -0.9498
 3918SOL     OW14132   4.264  10.395   8.506 -0.0295 -0.0526  0.0472
 3918SOL    HW114133   4.294  10.413   8.595  0.9835 -1.6193  0.0522
 3918SOL    HW214134   4.329  10.436   8.449 -0.0429 -0.0592  0.0273
 3919SOL     OW14135   5.549  10.250   4.215  0.5175  0.0811 -0.6575
 3919SOL    HW114136   5.464  10.207   4.226  0.8234 -0.2315  0.5783
 3919SOL    HW214137   5.606  10.180   4.182  0.8183 -0.2800  0.5919
 3920SOL     OW14138   7.972   3.177   6.103 -0.0349 -0.2108  0.2043
 3920SOL    HW114139   7.919   3.236   6.157 -1.1670 -1.2485  0.2794
 3920SOL    HW214140   7.950   3.201   6.013  0.2350  0.1181  0.2271
 3921SOL     OW14141   2.026   2.225   8.778  0.3554 -0.0765  0.4894
 3921SOL    HW114142   1.937   2.214   8.742  0.6810  1.0805 -0.7478
 3921SOL    HW214143   2.012   2.233   8.872 -0.9913  1.1959  0.2267
 3922SOL     OW14144   2.889   9.727   5.977 -0.2056  0.7685  0.0026
 3922SOL    HW114145   2.909   9.789   6.047  0.1841  0.9565 -0.2732
 3922SOL    HW214146   2.801   9.696   5.997  0.4911 -0.3864  1.4821
 3923SOL     OW14147   0.926   7.202   2.271 -0.1554  0.2783  0.1757
 3923SOL    HW114148   0.964   7.246   2.347 -0.2317  2.4626 -0.9638
 3923SOL    HW214149   0.996   7.147   2.237  0.3729  0.4780  0.9274
 3924SOL     OW14150   8.971   0.019   0.776  0.0930 -0.1996 -0.4634
 3924SOL    HW114151   8.928   0.090   0.824 -1.3471 -1.4535  0.1877
 3924SOL    HW214152   9.015  -0.032   0.844  0.8154 -0.1352 -0.8794
 3925SOL     OW14153   2.620   8.557   9.879  0.0109  0.0106 -0.1082
 3925SOL    HW114154   2.560   8.536   9.951 -0.6135 -0.4467 -0.7551
 3925SOL    HW214155   2.660   8.474   9.856  1.4130  0.4144  0.7531
 3926SOL     OW14156   6.160   7.191   3.320  0.3961  0.8713  0.1813
 3926SOL    HW114157   6.165   7.187   3.224  1.4717  0.1411  0.2550
 3926SOL    HW214158   6.237   7.242   3.346  0.6823  0.1746  0.7132
 3927SOL     OW14159   9.325   4.004  10.723  0.2257 -0.0762 -0.4195
 3927SOL    HW114160   9.381   4.081  10.734  1.5065 -1.1155  0.6595
 3927SOL    HW214161   9.258   4.013  10.790  0.0976  0.3274 -0.5998
 3928SOL     OW14162   9.969   5.858   6.706 -0.1198  0.4043 -0.5935
 3928SOL    HW114163   9.935   5.942   6.737 -2.6270 -0.7416  0.0258
 3928SOL    HW214164  10.039   5.836   6.768 -2.2169  0.1600  1.8907
 3929SOL     OW14165   3.620   3.051   9.815  0.3735  0.6311 -0.0393
 3929SOL    HW114166   3.595   3.042   9.907 -0.6743 -0.3579 -0.3971
 3929SOL    HW214167   3.623   2.961   9.782  1.5483  0.9149 -0.7810
 3930SOL     OW14168  10.577   3.433   4.923 -0.2497  0.5399 -0.2978
 3930SOL    HW114169  10.625   3.356   4.952  0.5317  1.0729 -0.1304
 3930SOL    HW214170  10.602   3.444   4.831  1.8374  2.1309  0.3625
 3931SOL     OW14171   8.959   2.705   6.157 -0.8327  0.2052  0.0625
 3931SOL    HW114172   8.919   2.773   6.211 -0.5672  1.2638 -1.0247
 3931SOL    HW214173   8.885   2.652   6.128 -1.0515  0.0571  0.8662
 3932SOL     OW14174   7.869   9.893   9.422  0.4853  0.1851 -0.4271
 3932SOL    HW114175   7.891   9.804   9.396 -1.7277 -0.6531  0.3670
 3932SOL    HW214176   7.934   9.915   9.489 -0.2884 -1.7500  1.0610
 3933SOL     OW14177   5.779   8.517   4.967 -0.4602 -0.0336 -0.2764
 3933SOL    HW114178   5.812   8.512   4.877 -0.1516  0.4487 -0.1976
 3933SOL    HW214179   5.795   8.608   4.993  0.0521 -0.3294  0.4896
 3934SOL     OW14180   0.350   5.752   3.593 -0.4434 -0.1732 -0.1452
 3934SOL    HW114181   0.379   5.811   3.524  2.1228  0.1398  1.0645
 3934SOL    HW214182   0.262   5.782   3.616 -0.1884  1.5519 -1.2657
 3935SOL     OW14183   7.528   4.856   9.014  0.1212  0.0803 -0.2286
 3935SOL    HW114184   7.437   4.841   9.037 -0.5553 -0.1139 -2.7224
 3935SOL    HW214185   7.527   4.938   8.964  0.5476 -1.8290 -3.7000
 3936SOL     OW14186   2.141   7.199   6.806  0.0257 -0.4981  0.3098
 3936SOL    HW114187   2.187   7.115   6.816  0.8580 -0.0470  0.4121
 3936SOL    HW214188   2.168   7.250   6.883  0.6182  0.3452 -0.4296
 3937SOL     OW14189   2.171   8.896   6.074 -0.2102  0.2672 -0.4990
 3937SOL    HW114190   2.136   8.937   6.153 -1.0502 -0.6320 -0.3842
 3937SOL    HW214191   2.200   8.810   6.103  2.0025  0.9159 -0.6244
 3938SOL     OW14192  10.346   4.463   3.813  0.1002  0.0291  0.1992
 3938SOL    HW114193  10.253   4.470   3.791 -0.1791 -0.5256  1.1405
 3938SOL    HW214194  10.363   4.540   3.867 -0.0762 -0.3929  0.8706
 3939SOL     OW14195   2.461   0.823   7.763  0.1451 -0.2308 -0.5246
 3939SOL    HW114196   2.425   0.770   7.692 -0.8651 -0.7828  0.3653
 3939SOL    HW214197   2.523   0.765   7.807 -0.7641 -0.6230  0.2861
 3940SOL     OW14198   6.222   0.206   8.917 -0.4061 -0.1031  0.6806
 3940SOL    HW114199   6.195   0.219   9.008  0.7075 -1.8817  1.3227
 3940SOL    HW214200   6.315   0.181   8.923 -0.7869 -2.0948 -0.7575
 3941SOL     OW14201   1.086   0.124   8.386  0.2214  0.0751 -0.1789
 3941SOL    HW114202   0.991   0.124   8.376  0.3374  1.6561 -1.6603
 3941SOL    HW214203   1.110   0.032   8.389 -1.4014 -0.3591  0.9616
 3942SOL     OW14204   7.690  10.240   1.178  0.4059 -0.3549  0.0226
 3942SOL    HW114205   7.659  10.158   1.216  0.8879 -0.3234  0.4849
 3942SOL    HW214206   7.772  10.258   1.223 -0.2074  0.9194  0.6754
 3943SOL     OW14207   6.168   6.933   7.071  0.3569  0.6012 -0.3149
 3943SOL    HW114208   6.079   6.925   7.036 -0.5183 -0.4196  1.9140
 3943SOL    HW214209   6.202   6.844   7.072  0.9459  0.8210 -0.0585
 3944SOL     OW14210   0.437   1.756   4.140  0.3825  0.6891  0.3459
 3944SOL    HW114211   0.489   1.679   4.117  1.1308  1.6343 -1.3353
 3944SOL    HW214212   0.460   1.776   4.230  1.7409  0.1408  0.1442
 3945SOL     OW14213   3.776   5.137   5.688  0.1810  0.1853 -0.0467
 3945SOL    HW114214   3.716   5.160   5.759 -0.8957 -1.0253 -0.5306
 3945SOL    HW214215   3.726   5.154   5.608  0.3580 -1.1137 -0.4509
 3946SOL     OW14216   1.109   4.015  10.407 -0.2487  0.0779  0.7651
 3946SOL    HW114217   1.031   3.961  10.418  0.1332 -0.2942  1.8139
 3946SOL    HW214218   1.086   4.078  10.338 -1.2826 -0.3510  0.7051
 3947SOL     OW14219   8.568   3.186   0.894 -0.2287 -0.4214  0.1402
 3947SOL    HW114220   8.640   3.234   0.852  0.1268 -1.0479  0.0188
 3947SOL    HW214221   8.607   3.148   0.973 -0.7277  0.1965  0.6889
 3948SOL     OW14222   2.982   1.795   8.601  0.0763 -0.7301  0.2149
 3948SOL    HW114223   2.916   1.726   8.598  0.6375 -1.2410 -0.5848
 3948SOL    HW214224   3.061   1.753   8.635  0.6552 -0.7088 -1.0212
 3949SOL     OW14225   1.861   8.373   9.138  0.4620 -0.9703 -0.0025
 3949SOL    HW114226   1.779   8.421   9.142  1.1119  0.1290  3.0326
 3949SOL    HW214227   1.929   8.440   9.149  1.6108 -2.1503  0.4126
 3950SOL     OW14228   7.899   4.706   9.330 -0.1415  0.1173  0.3503
 3950SOL    HW114229   7.918   4.704   9.424 -1.7061  0.7358  0.7027
 3950SOL    HW214230   7.929   4.792   9.301  0.1658  0.0004  0.3191
 3951SOL     OW14231   0.623   8.000   0.657  0.0041 -0.3168  0.2420
 3951SOL    HW114232   0.690   7.982   0.722  0.6415 -1.6991 -0.7592
 3951SOL    HW214233   0.669   8.046   0.587 -0.5009  0.4066  0.3693
 3952SOL     OW14234   5.225   3.736   3.651  0.0945 -0.1496 -0.0939
 3952SOL    HW114235   5.150   3.789   3.678 -0.2848 -2.3365  3.7735
 3952SOL    HW214236   5.297   3.766   3.707  0.9041 -1.1734 -0.5595
 3953SOL     OW14237   8.459   7.524   5.975  0.4411 -0.1542 -0.2523
 3953SOL    HW114238   8.390   7.461   5.957  0.8104 -0.8936  0.8202
 3953SOL    HW214239   8.437   7.600   5.922  0.1562 -1.2951 -1.8246
 3954SOL     OW14240   8.731   0.793   4.014 -0.4884  0.0046  0.3818
 3954SOL    HW114241   8.665   0.729   3.989 -0.5477  0.0751  0.3575
 3954SOL    HW214242   8.709   0.817   4.104  0.0814 -0.7022  0.7211
 3955SOL     OW14243   0.022   7.042   2.405  0.3168  0.3101  0.1732
 3955SOL    HW114244  -0.023   6.967   2.444 -1.6651  1.3649  0.0079
 3955SOL    HW214245   0.096   7.003   2.358 -1.5340 -1.7492 -1.2293
 3956SOL     OW14246   3.542   2.940   5.484  0.4587 -0.3372 -0.4656
 3956SOL    HW114247   3.602   2.917   5.555 -1.7572 -1.1584  1.2873
 3956SOL    HW214248   3.493   3.016   5.518  0.1718  0.0035 -1.6170
 3957SOL     OW14249   0.311   2.644   2.696 -0.2094 -0.0146 -0.1557
 3957SOL    HW114250   0.278   2.610   2.613 -0.9307 -2.0810  0.9029
 3957SOL    HW214251   0.405   2.653   2.683 -0.5162  1.4874 -1.7368
 3958SOL     OW14252   1.709   0.683   0.193  0.2540  0.0051  0.2811
 3958SOL    HW114253   1.680   0.625   0.264  2.3099  0.6641  1.7470
 3958SOL    HW214254   1.663   0.765   0.209  1.9373  0.6868  1.9174
 3959SOL     OW14255   9.550   7.105   3.242  0.3286 -0.5966  0.1953
 3959SOL    HW114256   9.476   7.112   3.302  0.5940  1.3505  0.3594
 3959SOL    HW214257   9.514   7.125   3.156  0.7334  0.8881  0.3518
 3960SOL     OW14258   0.422   6.300   1.590 -0.2001  0.0537  0.3537
 3960SOL    HW114259   0.357   6.361   1.553  1.1494  1.0872 -0.4149
 3960SOL    HW214260   0.375   6.217   1.598 -1.7620  0.8947  0.3255
 3961SOL     OW14261   6.906  10.534   4.180  0.5994 -0.1096 -0.3551
 3961SOL    HW114262   6.851  10.456   4.183 -0.1312  0.4202  1.3553
 3961SOL    HW214263   6.960  10.522   4.102 -2.7076 -0.1308 -2.9214
 3962SOL     OW14264   9.934   6.965   5.282  0.0707  0.0125  0.6609
 3962SOL    HW114265   9.930   6.976   5.377  0.8871  1.1060  0.5891
 3962SOL    HW214266  10.028   6.971   5.261 -0.1639  0.5524 -0.2889
 3963SOL     OW14267   5.468   8.010   9.175  0.0030 -0.0049 -0.2222
 3963SOL    HW114268   5.550   8.012   9.126  0.5164 -0.5015  0.5801
 3963SOL    HW214269   5.432   8.098   9.166  0.3522  0.0591 -1.0413
 3964SOL     OW14270   9.967   4.241   6.381 -0.2165 -0.4589  0.1769
 3964SOL    HW114271  10.055   4.229   6.416 -0.0005 -1.7348 -0.7421
 3964SOL    HW214272   9.973   4.321   6.329  0.0653  0.1309  1.0875
 3965SOL     OW14273   1.404   3.997   4.766 -0.5151  0.0662 -0.2009
 3965SOL    HW114274   1.453   4.076   4.742 -0.0580  0.4146  1.6799
 3965SOL    HW214275   1.471   3.931   4.784 -0.8029 -0.0689  0.4072
 3966SOL     OW14276   5.629   3.716   7.433  0.2264 -0.1241 -0.1981
 3966SOL    HW114277   5.652   3.646   7.494 -1.2743 -0.2356  0.2668
 3966SOL    HW214278   5.603   3.789   7.489 -0.2348  0.0924 -0.6878
 3967SOL     OW14279   1.679   2.050   3.376  0.3151  0.2463 -0.3308
 3967SOL    HW114280   1.654   2.121   3.316 -0.4890 -0.8559 -1.3560
 3967SOL    HW214281   1.770   2.031   3.353  0.2224  0.2814 -0.7479
 3968SOL     OW14282   7.593  10.005   0.067 -0.1244  0.5583 -0.0283
 3968SOL    HW114283   7.659   9.962   0.123 -1.0384  0.2203  0.8127
 3968SOL    HW214284   7.534   9.935   0.042 -0.7157  1.0381  0.0166
 3969SOL     OW14285   8.689   1.872   7.232 -0.2461  0.2638  0.0899
 3969SOL    HW114286   8.712   1.779   7.240  2.1787  0.7252 -0.7300
 3969SOL    HW214287   8.650   1.880   7.145 -0.7122 -0.0106  0.2677
 3970SOL     OW14288   1.692   0.149   4.264  0.0506  0.6051  0.1454
 3970SOL    HW114289   1.774   0.138   4.214 -0.0939 -0.5303  0.1368
 3970SOL    HW214290   1.625   0.162   4.197  0.1368  0.9659  0.1282
 3971SOL     OW14291   7.286   1.765   4.312  0.0274  0.3274  0.0008
 3971SOL    HW114292   7.288   1.685   4.364  0.2440  0.6399  0.4726
 3971SOL    HW214293   7.340   1.827   4.360  0.1967  0.6331 -0.5701
 3972SOL     OW14294   1.583   6.704   0.334 -0.5474  0.0811  0.5118
 3972SOL    HW114295   1.560   6.785   0.288  0.1934 -0.3392 -0.6407
 3972SOL    HW214296   1.530   6.706   0.414 -2.8718  0.2221 -0.9302
 3973SOL     OW14297   3.272   1.548   9.203 -0.0025  0.2237  0.8287
 3973SOL    HW114298   3.213   1.494   9.149 -0.7909 -0.1450  2.0168
 3973SOL    HW214299   3.353   1.497   9.207 -0.2008 -0.1148  0.6310
 3974SOL     OW14300  10.388  10.005   1.412  0.1065  0.4754 -0.5190
 3974SOL    HW114301  10.453  10.075   1.408  0.8635 -0.2102 -0.3164
 3974SOL    HW214302  10.415   9.944   1.344 -1.5946  1.2366 -1.9775
 3975SOL     OW14303   3.566   9.259   1.234 -0.6813  0.2381 -0.0853
 3975SOL    HW114304   3.653   9.299   1.241 -0.9144  0.5045  1.6795
 3975SOL    HW214305   3.573   9.177   1.283 -0.9357 -0.6812 -1.5173
 3976SOL     OW14306   1.475   2.058   0.755 -0.3398  0.4898 -0.2226
 3976SOL    HW114307   1.412   1.988   0.739 -1.3038  1.3339 -0.2064
 3976SOL    HW214308   1.467   2.115   0.678 -0.2206  1.0650  0.1864
 3977SOL     OW14309   1.709   8.413   3.858  0.7661 -0.4143 -0.3323
 3977SOL    HW114310   1.716   8.405   3.954  1.8942  1.3247 -0.2200
 3977SOL    HW214311   1.655   8.490   3.844  1.0899 -0.3170 -1.0934
 3978SOL     OW14312   9.651  10.034   7.727 -0.0229  0.1497 -0.1341
 3978SOL    HW114313   9.574   9.994   7.686 -0.1619 -0.3902  0.6340
 3978SOL    HW214314   9.714   9.962   7.735 -0.7779 -0.3577  2.5342
 3979SOL     OW14315   8.792   2.609   9.847 -0.4201 -0.0814 -0.1148
 3979SOL    HW114316   8.755   2.556   9.777 -0.1038 -0.9740  0.3783
 3979SOL    HW214317   8.720   2.619   9.909  0.0317 -1.5879  0.7131
 3980SOL     OW14318   7.552   5.810   1.057  0.2019  0.0008 -0.0725
 3980SOL    HW114319   7.585   5.833   0.970  0.3503  0.8729  0.1998
 3980SOL    HW214320   7.614   5.851   1.117 -0.8525  0.9071  0.4375
 3981SOL     OW14321   3.605   2.816   9.689  0.4597  0.2393  0.8618
 3981SOL    HW114322   3.579   2.797   9.598  1.6100 -1.5986  0.8677
 3981SOL    HW214323   3.695   2.785   9.695  0.7883  1.3730  2.3558
 3982SOL     OW14324   5.478   5.044   8.822  0.6252  0.1108  0.0838
 3982SOL    HW114325   5.507   5.026   8.911 -0.3524 -0.6378  0.2690
 3982SOL    HW214326   5.384   5.061   8.830  0.1312 -1.7558 -0.9891
 3983SOL     OW14327   8.736   9.028   1.742  0.0180 -0.6074 -0.2126
 3983SOL    HW114328   8.715   8.935   1.739 -0.2334 -0.5268 -2.1147
 3983SOL    HW214329   8.725   9.058   1.652  0.3130  1.2222  0.3236
 3984SOL     OW14330   0.875   7.312   0.009 -0.4301 -0.4759 -0.0596
 3984SOL    HW114331   0.858   7.218   0.002  0.4842 -0.6338 -0.3285
 3984SOL    HW214332   0.925   7.322   0.090 -1.0578 -0.1331  0.2938
 3985SOL     OW14333   0.880   2.231   0.384  0.5074 -0.4722  1.0361
 3985SOL    HW114334   0.857   2.314   0.425 -0.7629  0.5333 -1.5276
 3985SOL    HW214335   0.886   2.170   0.457 -0.3474  1.4515  2.8307
 3986SOL     OW14336   4.854   6.979   0.519 -0.9032  0.1362  0.3367
 3986SOL    HW114337   4.949   6.967   0.515 -1.0935 -1.2535 -0.4502
 3986SOL    HW214338   4.837   6.998   0.611  0.0481 -0.3832  0.6355
 3987SOL     OW14339   4.274   2.921   5.247 -0.0878 -0.4642 -0.4958
 3987SOL    HW114340   4.197   2.877   5.283  1.0646 -0.8065  1.7780
 3987SOL    HW214341   4.334   2.850   5.224  1.1085 -0.2224  1.6043
 3988SOL     OW14342   2.175   4.379   1.134  0.3427 -0.1313 -0.4304
 3988SOL    HW114343   2.127   4.316   1.189  1.4887  0.0537  0.8417
 3988SOL    HW214344   2.111   4.448   1.117 -0.4356 -0.8324 -0.4528
 3989SOL     OW14345   6.044   9.115   0.553 -0.2286 -0.0382  0.4765
 3989SOL    HW114346   6.085   9.197   0.580 -0.7177  0.7775 -1.1614
 3989SOL    HW214347   5.957   9.140   0.523 -0.1535 -1.0587 -0.6599
 3990SOL     OW14348   7.841   1.025   5.633 -0.6210 -0.0880 -0.2770
 3990SOL    HW114349   7.864   1.003   5.542  0.2929 -0.6882  0.0901
 3990SOL    HW214350   7.857   0.944   5.681  0.0331  0.5704  0.6258
 3991SOL     OW14351   7.664   7.721   7.197 -0.0639  0.5391  0.1786
 3991SOL    HW114352   7.636   7.631   7.215 -0.0990  0.4452 -0.3160
 3991SOL    HW214353   7.751   7.711   7.156 -0.1527  0.7142 -0.0559
 3992SOL     OW14354   4.918   5.627   0.212 -0.2552 -0.0269  0.9044
 3992SOL    HW114355   4.998   5.641   0.262 -0.8717 -2.0629  2.6181
 3992SOL    HW214356   4.885   5.715   0.194  1.9185  0.8245  0.8320
 3993SOL     OW14357  10.255   1.566   9.490  0.0599  0.2603 -0.0764
 3993SOL    HW114358  10.201   1.634   9.450 -0.5165 -0.5115 -0.6541
 3993SOL    HW214359  10.213   1.549   9.575 -0.0474  0.3421 -0.1123
 3994SOL     OW14360   4.941   1.889   4.624  0.2060 -0.2907 -0.6015
 3994SOL    HW114361   5.026   1.845   4.630  0.3999 -0.1486 -1.9760
 3994SOL    HW214362   4.934   1.916   4.533 -0.6945  0.9796 -0.1874
 3995SOL     OW14363   4.365   2.382   3.159  0.0048  0.3546  0.1524
 3995SOL    HW114364   4.335   2.446   3.223 -1.4196 -0.0191 -0.1052
 3995SOL    HW214365   4.293   2.319   3.153 -0.6910  1.2873 -3.0351
 3996SOL     OW14366   9.671   3.902   5.455 -0.3454 -0.6631 -0.8435
 3996SOL    HW114367   9.591   3.926   5.409 -1.2129 -0.4417  0.7141
 3996SOL    HW214368   9.735   3.968   5.428 -0.7796 -0.6220 -1.8124
 3997SOL     OW14369   2.669   1.704   9.923  0.3052  0.4979  0.3555
 3997SOL    HW114370   2.667   1.647  10.000  0.6320  2.0722  1.5714
 3997SOL    HW214371   2.727   1.659   9.861 -0.6732 -1.2461  0.6151
 3998SOL     OW14372   3.911   4.362   7.982  0.5082 -0.2997 -0.2634
 3998SOL    HW114373   3.919   4.408   8.066  2.8972  2.1726 -1.6506
 3998SOL    HW214374   3.820   4.334   7.978 -0.0380  0.7852  2.5243
 3999SOL     OW14375   9.014   7.229   6.383 -0.2952  0.2486  0.0385
 3999SOL    HW114376   8.996   7.160   6.319  0.9635 -0.0648 -0.0096
 3999SOL    HW214377   9.067   7.292   6.334 -0.1376  0.4750  0.5059
 4000SOL     OW14378   9.601   1.463   2.779 -0.2518  0.1518  0.3484
 4000SOL    HW114379   9.631   1.396   2.717 -0.1006  0.3709  0.1823
 4000SOL    HW214380   9.649   1.445   2.859  0.0260  0.2530  0.2064
 4001SOL     OW14381   9.115   2.945   9.191 -0.0714  0.6006 -0.1084
 4001SOL    HW114382   9.131   3.037   9.170  0.2480  0.4238 -0.6515
 4001SOL    HW214383   9.146   2.935   9.281  1.4975  0.6251 -0.6171
 4002SOL     OW14384   2.247   8.789   8.464 -0.3860 -0.5068 -0.0604
 4002SOL    HW114385   2.264   8.700   8.495  1.5612  0.9106  3.6396
 4002SOL    HW214386   2.306   8.800   8.389 -0.0763 -2.0811 -0.0804
 4003SOL     OW14387   2.653   0.396   8.836 -0.0281 -0.0343  0.1934
 4003SOL    HW114388   2.593   0.375   8.907 -2.2203  0.3418 -1.4308
 4003SOL    HW214389   2.721   0.450   8.877 -0.6869 -0.6237  2.1588
 4004SOL     OW14390   3.044   7.244   5.896  0.2919 -0.9893 -0.1149
 4004SOL    HW114391   3.033   7.289   5.812  1.8746 -2.9530 -1.4638
 4004SOL    HW214392   2.985   7.169   5.892  0.3074 -1.0433  0.5717
 4005SOL     OW14393   1.460   2.227   8.522 -0.1142  0.7273 -0.4651
 4005SOL    HW114394   1.479   2.277   8.443  0.0418  1.4973  0.0466
 4005SOL    HW214395   1.478   2.288   8.594 -1.6307  0.5220  0.1298
 4006SOL     OW14396   2.709   9.093   9.820 -0.1462  0.4575 -0.3659
 4006SOL    HW114397   2.706   9.004   9.856 -1.0752  1.3724  1.9854
 4006SOL    HW214398   2.800   9.105   9.793  0.5713 -0.4026  1.5243
 4007SOL     OW14399   2.892   7.613   0.596 -0.2970 -0.0402  0.1745
 4007SOL    HW114400   2.927   7.591   0.509  0.9692 -1.2153  0.9380
 4007SOL    HW214401   2.841   7.693   0.582 -0.4329 -0.4097 -1.7118
 4008SOL     OW14402   5.877  10.775   8.268  0.0943  0.0085  0.3936
 4008SOL    HW114403   5.916  10.762   8.354  0.0324  1.0485  0.5941
 4008SOL    HW214404   5.824  10.854   8.277 -2.3912 -1.5431  0.2247
 4009SOL     OW14405   3.727   5.224   8.828 -0.0936 -0.7533  0.0385
 4009SOL    HW114406   3.639   5.245   8.860 -1.2199 -1.7715 -2.1887
 4009SOL    HW214407   3.734   5.129   8.839 -0.0735 -0.9592 -1.5979
 4010SOL     OW14408   0.616   5.184   1.892  0.0758 -0.2338 -0.7410
 4010SOL    HW114409   0.624   5.278   1.874 -1.0592  0.0772  0.2470
 4010SOL    HW214410   0.613   5.144   1.805  0.7675  0.6122 -1.1790
 4011SOL     OW14411   9.131   7.276   5.534 -0.1964 -0.7992 -0.6009
 4011SOL    HW114412   9.072   7.313   5.468  1.1741  0.9277 -0.9454
 4011SOL    HW214413   9.125   7.337   5.608  0.1230 -1.3734 -0.0950
 4012SOL     OW14414   8.852   7.250  10.677 -0.2062  0.1343  0.1789
 4012SOL    HW114415   8.816   7.326  10.630  1.3932  0.4896 -0.5345
 4012SOL    HW214416   8.806   7.251  10.761 -3.8957 -1.1134 -1.6245
 4013SOL     OW14417   8.554   8.828   0.599 -0.5330 -0.0727 -0.8218
 4013SOL    HW114418   8.590   8.910   0.634  0.4122 -0.2112 -1.4615
 4013SOL    HW214419   8.477   8.855   0.549  1.0563  0.7375 -2.9859
 4014SOL     OW14420   7.711   8.541   4.378  0.3948 -0.0973  0.5096
 4014SOL    HW114421   7.795   8.529   4.334  0.3230  0.3024  0.2544
 4014SOL    HW214422   7.684   8.629   4.353  0.0354 -0.1178  0.8230
 4015SOL     OW14423   1.196   9.100   1.493  0.8373 -0.2013  0.0972
 4015SOL    HW114424   1.116   9.095   1.545 -0.0569 -3.3259 -1.3456
 4015SOL    HW214425   1.262   9.057   1.547  0.2168 -2.2707 -0.6892
 4016SOL     OW14426   8.919  10.512   7.691 -0.3696  0.0213 -0.0082
 4016SOL    HW114427   8.990  10.574   7.707 -0.0325 -0.4068  0.2051
 4016SOL    HW214428   8.964  10.434   7.658 -0.9228  0.3797 -1.6568
 4017SOL     OW14429   3.082   5.032   5.704 -0.8468  0.4112  0.1016
 4017SOL    HW114430   3.178   5.030   5.700 -0.8870 -0.6899 -1.5505
 4017SOL    HW214431   3.055   4.988   5.623 -2.7553  2.0877 -0.2305
 4018SOL     OW14432   1.506   1.966   4.343  0.1131 -0.3326 -0.7010
 4018SOL    HW114433   1.561   2.001   4.273  1.4905 -1.7379 -0.3899
 4018SOL    HW214434   1.443   1.909   4.298  1.5610 -1.9353 -0.7862
 4019SOL     OW14435   5.387   9.337  10.745 -0.0177 -0.3337  0.2077
 4019SOL    HW114436   5.417   9.415  10.792 -1.0051 -0.4389  1.0415
 4019SOL    HW214437   5.459   9.316  10.686  0.0738  1.5242 -0.4277
 4020SOL     OW14438   2.666   8.531   7.273  0.0633 -0.5197  0.9936
 4020SOL    HW114439   2.746   8.479   7.284 -1.4835 -3.1005  0.7745
 4020SOL    HW214440   2.678   8.605   7.333  3.3522  0.2290 -0.3387
 4021SOL     OW14441   5.034   8.665  10.647 -0.3055 -0.2445  0.5657
 4021SOL    HW114442   4.972   8.650  10.718 -0.2427 -2.3020  0.2682
 4021SOL    HW214443   5.079   8.580  10.637  0.3744  0.2878 -1.2643
 4022SOL     OW14444   1.308   2.322   4.844 -0.0169  0.4215 -0.0648
 4022SOL    HW114445   1.331   2.233   4.818  1.5143  0.9121 -0.5053
 4022SOL    HW214446   1.290   2.316   4.938 -1.0862 -0.5415 -0.3068
 4023SOL     OW14447   6.331  10.429   3.620 -0.3254  0.0892  0.6122
 4023SOL    HW114448   6.413  10.433   3.570 -0.9298  1.1744 -0.3465
 4023SOL    HW214449   6.356  10.387   3.702  1.0963 -0.0329  0.1616
 4024SOL     OW14450   3.016   5.555   8.675  0.7546  0.0634 -0.5238
 4024SOL    HW114451   3.081   5.606   8.723  1.7527 -1.9516  0.4020
 4024SOL    HW214452   2.983   5.615   8.608 -0.0157  2.7065  2.0275
 4025SOL     OW14453   3.632   4.153   0.580  0.1616 -0.2356 -0.3201
 4025SOL    HW114454   3.644   4.232   0.527  1.0579 -0.0791  0.0979
 4025SOL    HW214455   3.565   4.103   0.533 -0.9931  1.1121 -0.1836
 4026SOL     OW14456  10.359  10.393   9.904 -0.2064  0.3031  0.3019
 4026SOL    HW114457  10.414  10.394   9.983  0.5083 -1.4292 -0.1277
 4026SOL    HW214458  10.283  10.447   9.927  1.9440  3.3943  0.6552
 4027SOL     OW14459   3.980   2.237   8.026 -0.0478 -0.3994 -1.0412
 4027SOL    HW114460   4.031   2.185   7.963 -0.3207  0.4933 -2.0313
 4027SOL    HW214461   4.044   2.260   8.094  0.4988 -0.5856 -1.4778
 4028SOL     OW14462   1.194   0.896   5.329  0.2874  0.3381 -0.0625
 4028SOL    HW114463   1.109   0.939   5.337  0.9460  1.3562  2.2801
 4028SOL    HW214464   1.255   0.966   5.307  0.7134 -0.1885 -0.6112
 4029SOL     OW14465   6.706   9.517   0.378  0.5694  0.5861 -0.3976
 4029SOL    HW114466   6.636   9.489   0.437  3.1471 -2.9099  1.3846
 4029SOL    HW214467   6.748   9.591   0.424 -0.0068  0.6267  0.0761
 4030SOL     OW14468   5.195   4.532   9.136  0.0512  0.0806  0.0204
 4030SOL    HW114469   5.247   4.464   9.179  1.6439  1.6217  0.6577
 4030SOL    HW214470   5.117   4.541   9.191  0.7887  0.1391  1.0863
 4031SOL     OW14471   5.586   5.063   6.600 -0.3692 -0.0495 -0.2510
 4031SOL    HW114472   5.661   5.020   6.643  1.4648  1.6936 -1.4932
 4031SOL    HW214473   5.609   5.062   6.507 -1.7041  0.9344 -0.6056
 4032SOL     OW14474   4.355   3.250   1.404  0.3104 -0.4202 -0.2104
 4032SOL    HW114475   4.321   3.169   1.369 -0.1131 -0.4178  0.1850
 4032SOL    HW214476   4.398   3.224   1.486  2.1434 -0.5794 -1.1579
 4033SOL     OW14477   4.635   3.491   2.275 -0.4785 -0.2796  0.1000
 4033SOL    HW114478   4.649   3.555   2.205  2.1750  0.0195  0.8087
 4033SOL    HW214479   4.632   3.406   2.229  1.0535 -0.0699 -0.4467
 4034SOL     OW14480   4.557   6.153   5.754  0.3824 -0.0880 -0.5327
 4034SOL    HW114481   4.508   6.113   5.683  0.1362  1.9334 -1.5730
 4034SOL    HW214482   4.611   6.220   5.712  1.5698 -0.0243  0.9851
 4035SOL     OW14483   6.534   0.992   4.960 -0.4744  0.3926 -0.2701
 4035SOL    HW114484   6.571   0.907   4.981  0.0667  1.0135  1.5430
 4035SOL    HW214485   6.455   0.998   5.015 -0.3624  1.1408 -0.1731
 4036SOL     OW14486  10.271   3.673   1.892  0.1000  0.3550 -0.8028
 4036SOL    HW114487  10.201   3.718   1.938  0.1663  0.6714 -1.0107
 4036SOL    HW214488  10.326   3.635   1.961  0.8816  1.8405 -0.5669
 4037SOL     OW14489   0.914   0.689   0.759  0.2831  0.1387  0.1481
 4037SOL    HW114490   0.912   0.712   0.666 -1.9016  1.2273  0.4077
 4037SOL    HW214491   0.960   0.761   0.801  0.5280  0.0653  0.0050
 4038SOL     OW14492   3.870   9.647  10.221  0.5464  0.0283  0.3492
 4038SOL    HW114493   3.964   9.645  10.236  0.3240  0.2034  1.9172
 4038SOL    HW214494   3.837   9.712  10.283 -0.5963  0.1249 -0.3216
 4039SOL     OW14495   8.850   2.217   7.045  0.3599  0.6164  0.0481
 4039SOL    HW114496   8.765   2.255   7.023  1.1181  0.8465 -2.8655
 4039SOL    HW214497   8.837   2.176   7.130 -2.3511  1.5758  0.1791
 4040SOL     OW14498   8.553   1.481   4.160 -0.0809  0.0812  0.1733
 4040SOL    HW114499   8.493   1.438   4.221  1.1499 -0.2524  1.1838
 4040SOL    HW214500   8.640   1.465   4.196  0.5045  2.7044  0.1412
 4041SOL     OW14501   7.022   6.707  10.665 -0.2473 -0.0599 -0.4531
 4041SOL    HW114502   7.058   6.727  10.751 -1.2295  0.1175 -0.0600
 4041SOL    HW214503   6.947   6.766  10.656 -0.1544 -0.0699 -1.4323
 4042SOL     OW14504   3.176   8.009   7.616  0.5779 -0.3124 -0.4616
 4042SOL    HW114505   3.250   7.989   7.559  1.8739 -1.0642  1.3924
 4042SOL    HW214506   3.174   8.105   7.620 -0.1330 -0.2107 -2.4644
 4043SOL     OW14507   7.314   7.571   3.181 -0.2240 -0.4413 -0.4984
 4043SOL    HW114508   7.321   7.570   3.085  2.9150 -0.5950 -0.3517
 4043SOL    HW214509   7.220   7.560   3.197 -1.1504  1.5741 -3.5497
 4044SOL     OW14510   0.958   1.695   5.256  0.0350  0.4910 -0.1072
 4044SOL    HW114511   0.909   1.775   5.276  0.1552 -0.2140  3.7656
 4044SOL    HW214512   0.897   1.624   5.274  0.6341 -0.3575 -1.2667
 4045SOL     OW14513   6.618   3.254   7.533 -0.0856 -0.0665 -0.5489
 4045SOL    HW114514   6.681   3.322   7.556 -0.5680  0.1367  0.1880
 4045SOL    HW214515   6.670   3.188   7.486  0.5052  0.4960 -0.7030
 4046SOL     OW14516   3.450   6.833   4.698  0.0518  0.3667 -0.0709
 4046SOL    HW114517   3.431   6.744   4.670  1.8697  0.1856 -0.9112
 4046SOL    HW214518   3.508   6.822   4.774  1.3811  0.7593 -0.9782
 4047SOL     OW14519   3.179   5.814   6.404 -0.0905  0.2389  0.0590
 4047SOL    HW114520   3.183   5.755   6.330 -1.7632  0.9766 -0.6612
 4047SOL    HW214521   3.222   5.894   6.373 -0.3467  0.3745  0.0504
 4048SOL     OW14522   0.257   5.933  10.532 -0.1161 -0.2840 -0.0156
 4048SOL    HW114523   0.287   6.023  10.547 -0.6935  0.2702 -1.8446
 4048SOL    HW214524   0.219   5.906  10.615 -0.9845  1.5963  0.2614
 4049SOL     OW14525   6.731   0.403   3.193  0.2234 -0.3243 -0.6825
 4049SOL    HW114526   6.726   0.389   3.288 -2.4834 -0.7856 -0.8137
 4049SOL    HW214527   6.703   0.494   3.181  0.9604 -0.1372 -1.0367
 4050SOL     OW14528   8.377   7.527   8.269  0.7884 -0.1045  0.6300
 4050SOL    HW114529   8.471   7.511   8.274  0.5567 -2.7315 -1.1784
 4050SOL    HW214530   8.348   7.473   8.195 -2.0863  0.9275  0.8900
 4051SOL     OW14531   8.215   5.120  10.113 -0.1519  0.1824  0.2200
 4051SOL    HW114532   8.128   5.086  10.091 -0.1747  0.6403 -0.4101
 4051SOL    HW214533   8.197   5.191  10.175 -0.3101  0.9762 -0.7152
 4052SOL     OW14534  10.754  10.587   2.248  0.2122  0.3724  0.3947
 4052SOL    HW114535  10.721  10.669   2.284 -1.3843  0.6300 -1.5072
 4052SOL    HW214536  10.737  10.592   2.154 -2.2100 -3.0315  0.4273
 4053SOL     OW14537  10.175   4.648   3.490  0.6171 -0.4361 -0.6152
 4053SOL    HW114538  10.252   4.601   3.522 -0.9115 -3.3108 -0.8259
 4053SOL    HW214539  10.111   4.641   3.560 -0.0562  0.3872 -1.1185
 4054SOL     OW14540   4.444   0.461   5.934 -0.4405 -0.6237 -0.1727
 4054SOL    HW114541   4.396   0.532   5.975  1.6769  1.0764 -0.4566
 4054SOL    HW214542   4.402   0.447   5.850 -0.9976  0.1607 -0.0274
 4055SOL     OW14543   3.272   7.008  10.585  0.1175 -0.1542  0.2784
 4055SOL    HW114544   3.303   6.982  10.672  1.4672 -0.3933 -0.2527
 4055SOL    HW214545   3.340   6.978  10.525 -0.8208 -0.0432 -0.8762
 4056SOL     OW14546   9.364  10.259   8.870 -0.5543 -0.2523  0.1061
 4056SOL    HW114547   9.391  10.168   8.880 -1.2752 -0.3628  1.3671
 4056SOL    HW214548   9.438  10.310   8.904 -0.1963 -0.3684 -0.4940
 4057SOL     OW14549   2.606   8.225   2.194  0.8082  0.3508 -0.2646
 4057SOL    HW114550   2.548   8.174   2.138 -0.2566  1.8276 -0.5977
 4057SOL    HW214551   2.558   8.307   2.209  2.3233  1.1627  0.4159
 4058SOL     OW14552   2.491   6.550   2.315 -0.5743  0.0033  0.8975
 4058SOL    HW114553   2.496   6.568   2.221  0.8443 -0.1216  0.9286
 4058SOL    HW214554   2.552   6.611   2.355 -0.4937 -0.5478  1.6420
 4059SOL     OW14555   6.884   7.387   6.961  0.0705  0.1655 -0.3861
 4059SOL    HW114556   6.837   7.381   6.878 -0.4081  0.4418 -0.1393
 4059SOL    HW214557   6.833   7.334   7.022  1.1243 -1.0901 -0.5710
 4060SOL     OW14558   9.097  10.441   2.185  0.2447 -0.4987  0.8031
 4060SOL    HW114559   9.064  10.446   2.095  0.7690 -0.5189  0.6099
 4060SOL    HW214560   9.023  10.406   2.235 -0.3269  0.2894  0.5313
 4061SOL     OW14561   6.325   7.794   7.942 -1.0188  0.0191 -0.3956
 4061SOL    HW114562   6.417   7.818   7.926 -1.1074 -1.8011 -5.3012
 4061SOL    HW214563   6.280   7.879   7.947  0.3852  1.1025 -3.3296
 4062SOL     OW14564   5.922   1.902   1.325  0.4460 -0.3650  0.0129
 4062SOL    HW114565   5.897   1.918   1.235  2.5518  1.8386 -0.2914
 4062SOL    HW214566   5.976   1.823   1.322  1.8098  0.5467 -1.0006
 4063SOL     OW14567   7.548  10.782  10.249 -0.3904 -0.4349 -0.2469
 4063SOL    HW114568   7.564  10.688  10.247 -0.8195 -0.5053 -1.7061
 4063SOL    HW214569   7.613  10.819  10.189  0.1174  0.2703  0.7116
 4064SOL     OW14570   9.462   4.579   2.698  0.0447  0.8734  0.4585
 4064SOL    HW114571   9.380   4.567   2.649  0.2634  0.0478  0.2832
 4064SOL    HW214572   9.529   4.539   2.643  1.2026  4.5404 -1.0985
 4065SOL     OW14573   5.602   3.998   4.385  0.4403 -0.0712  0.6577
 4065SOL    HW114574   5.675   4.035   4.335  0.2173  1.5569  1.4927
 4065SOL    HW214575   5.632   3.999   4.476 -0.2047 -0.4479  0.8834
 4066SOL     OW14576   0.972   9.601   1.026  0.2120  0.7199  0.2297
 4066SOL    HW114577   1.060   9.630   1.000  0.0420  1.0371  0.0113
 4066SOL    HW214578   0.949   9.534   0.961 -0.3360  1.7229 -0.6363
 4067SOL     OW14579   2.060   7.456   0.802 -0.4105  0.4045  0.1264
 4067SOL    HW114580   2.046   7.407   0.721  1.0836  0.1376  0.0110
 4067SOL    HW214581   2.071   7.547   0.773  0.7788  0.2137 -0.0445
 4068SOL     OW14582   9.522   5.384  10.199 -0.1190 -0.0207 -0.0517
 4068SOL    HW114583   9.451   5.435  10.237  1.2372  0.7341  1.6565
 4068SOL    HW214584   9.602   5.424  10.235  1.0685 -2.7518  0.6169
 4069SOL     OW14585   9.339   2.605   8.578  0.2425 -0.5884 -0.0023
 4069SOL    HW114586   9.288   2.598   8.659 -1.0931  0.9615 -0.6630
 4069SOL    HW214587   9.373   2.695   8.579  0.7724 -0.7675 -0.8412
 4070SOL     OW14588   7.485  10.631   3.417 -0.1816 -0.5850 -0.1527
 4070SOL    HW114589   7.484  10.643   3.322  2.1616  1.2455 -0.0538
 4070SOL    HW214590   7.549  10.562   3.432  1.9399  1.3191  0.1319
 4071SOL     OW14591   0.551   4.281  10.591 -0.6634 -0.0264 -0.4355
 4071SOL    HW114592   0.527   4.327  10.511  0.6664  0.2836 -0.6820
 4071SOL    HW214593   0.636   4.241  10.571 -1.1285 -1.4027  0.2523
 4072SOL     OW14594   8.047   7.580   4.938  0.2634 -0.4977  0.1769
 4072SOL    HW114595   8.111   7.626   4.883  2.4442 -4.3120 -0.8619
 4072SOL    HW214596   8.080   7.590   5.027  1.8556 -1.5182 -0.2472
 4073SOL     OW14597   9.310   5.860   3.251  0.2288 -0.4549 -0.7395
 4073SOL    HW114598   9.276   5.907   3.327 -0.9521 -1.1097 -0.8446
 4073SOL    HW214599   9.262   5.897   3.177  1.6459  0.4539 -1.2466
 4074SOL     OW14600   6.945   1.273   2.396  0.3682 -0.6857 -0.3825
 4074SOL    HW114601   6.922   1.346   2.339  0.1152  0.1773  0.7759
 4074SOL    HW214602   7.039   1.261   2.383  0.8212  1.1642  0.8356
 4075SOL     OW14603   6.935   4.201   2.301 -0.1826  0.3594 -0.1429
 4075SOL    HW114604   6.878   4.270   2.267 -1.0543 -0.7006 -0.8913
 4075SOL    HW214605   6.923   4.127   2.240 -0.1557 -0.8517  1.2709
 4076SOL     OW14606   0.240   0.044   4.559  0.1761  0.8036  0.0004
 4076SOL    HW114607   0.183  -0.027   4.530 -0.5826  1.4078 -0.0168
 4076SOL    HW214608   0.324   0.002   4.578 -0.4365 -0.1907  0.5656
 4077SOL     OW14609   4.997   4.358   6.702 -0.3716 -0.6417  0.3430
 4077SOL    HW114610   5.056   4.413   6.752  1.4072 -1.0710 -1.1897
 4077SOL    HW214611   4.997   4.395   6.614 -1.7325 -1.1742  0.0847
 4078SOL     OW14612   2.678   6.744   9.502 -0.3265  0.3676 -0.4252
 4078SOL    HW114613   2.698   6.691   9.580 -1.4045  2.1433  1.1648
 4078SOL    HW214614   2.632   6.684   9.443 -1.3368 -0.5680  1.2235
 4079SOL     OW14615   1.362   4.562  10.650  0.0550  0.0256  0.1898
 4079SOL    HW114616   1.355   4.489  10.711 -0.1324  1.0226  1.4081
 4079SOL    HW214617   1.326   4.529  10.568 -1.2328 -0.8383  1.0803
 4080SOL     OW14618   3.983   5.874   5.358 -0.0420  0.1100  0.5878
 4080SOL    HW114619   3.978   5.820   5.279  0.4560  0.3132  0.4106
 4080SOL    HW214620   3.892   5.898   5.377 -0.0861  0.9173 -0.5392
 4081SOL     OW14621  10.647   9.490   0.611  0.1016 -0.0462 -0.0207
 4081SOL    HW114622  10.574   9.545   0.638 -1.7131 -1.3723 -1.8788
 4081SOL    HW214623  10.649   9.419   0.676 -0.1646  0.0966  0.1438
 4082SOL     OW14624   0.231   1.931   8.704 -0.5391 -0.1419  0.3079
 4082SOL    HW114625   0.137   1.915   8.702 -0.3455 -1.1895 -0.5656
 4082SOL    HW214626   0.255   1.951   8.614 -0.0529  0.9928  0.6629
 4083SOL     OW14627   1.978   5.484   9.561  0.1596 -0.5406  0.0991
 4083SOL    HW114628   2.062   5.529   9.553 -0.4243  0.3307 -1.6004
 4083SOL    HW214629   1.958   5.486   9.654  1.9005 -0.5737  0.5070
 4084SOL     OW14630   7.644   0.893   6.920 -0.5203  0.3245  0.0713
 4084SOL    HW114631   7.693   0.883   7.002  0.2044 -3.9951 -0.6400
 4084SOL    HW214632   7.711   0.911   6.854 -0.7563  0.9297 -0.0124
 4085SOL     OW14633   6.281   0.658   9.011  0.6266  0.9020  0.9810
 4085SOL    HW114634   6.275   0.585   9.073  2.2589 -0.8172 -0.7442
 4085SOL    HW214635   6.245   0.623   8.930  0.9041  2.2380  0.2627
 4086SOL     OW14636   6.964   0.391   7.880  0.5398  0.2137  0.1793
 4086SOL    HW114637   6.891   0.450   7.862  0.7193  0.6974  0.9936
 4086SOL    HW214638   6.922   0.308   7.904  0.2883 -0.2753 -1.7347
 4087SOL     OW14639   3.387   5.332   0.660 -0.0970 -0.4703 -0.1443
 4087SOL    HW114640   3.367   5.252   0.610 -0.2798 -0.0587 -0.7456
 4087SOL    HW214641   3.455   5.376   0.608 -1.0239  0.4832 -0.5905
 4088SOL     OW14642   5.662   0.005   7.517  0.2377  0.7596  0.2691
 4088SOL    HW114643   5.614  -0.013   7.598 -0.2565  1.5109  0.1604
 4088SOL    HW214644   5.630   0.091   7.490 -0.0499  0.2610 -1.0479
 4089SOL     OW14645   4.927   5.840   1.202 -0.5000  0.2255  0.3766
 4089SOL    HW114646   4.964   5.752   1.195 -0.1887  0.3658  0.2067
 4089SOL    HW214647   4.868   5.836   1.277  0.8297  0.3317  1.4719
 4090SOL     OW14648   3.170   5.363   8.426  0.2803  0.0244  0.1848
 4090SOL    HW114649   3.239   5.336   8.486 -0.3788  0.3683  1.1237
 4090SOL    HW214650   3.173   5.459   8.428  0.8573  0.0465 -1.0598
 4091SOL     OW14651   0.296   9.813   7.299 -0.4239 -0.4233  0.3515
 4091SOL    HW114652   0.240   9.879   7.340 -1.1757 -0.9766  0.2379
 4091SOL    HW214653   0.264   9.729   7.334 -1.6733 -1.0162 -1.9787
 4092SOL     OW14654   7.250  10.435   1.630 -0.6037  0.3386 -0.4833
 4092SOL    HW114655   7.262  10.375   1.704 -0.2793  0.2330 -0.6188
 4092SOL    HW214656   7.175  10.400   1.583 -0.4637  0.0814 -0.5176
 4093SOL     OW14657   3.065   5.909   4.911 -0.1601  0.4554 -0.1715
 4093SOL    HW114658   3.048   5.833   4.854 -0.5905  0.8578 -0.5910
 4093SOL    HW214659   3.082   5.981   4.850 -0.6948  0.9052  0.1991
 4094SOL     OW14660   2.413   5.137   2.788  0.2651  0.1323  0.4071
 4094SOL    HW114661   2.397   5.196   2.714  0.0232  0.2631  0.5640
 4094SOL    HW214662   2.490   5.174   2.832  1.6046 -0.9925 -0.8650
 4095SOL     OW14663   7.387   2.889   4.719 -0.0473  0.0959  0.1441
 4095SOL    HW114664   7.418   2.852   4.636  0.3250  0.4632  0.1177
 4095SOL    HW214665   7.390   2.984   4.705 -1.2396  0.1410  0.1210
 4096SOL     OW14666   8.322   5.029   6.600 -0.1086  0.2911  0.1214
 4096SOL    HW114667   8.271   5.016   6.680  0.0843  1.0395  0.3686
 4096SOL    HW214668   8.354   4.941   6.577  1.4213  0.3136  1.9237
 4097SOL     OW14669   9.742   1.487   5.559  0.3664 -0.1716 -0.1194
 4097SOL    HW114670   9.700   1.425   5.499 -0.4573  0.6681 -0.4401
 4097SOL    HW214671   9.811   1.436   5.602  0.4869 -0.9834 -1.2314
 4098SOL     OW14672   7.757   9.407   5.390  0.1768 -0.5145  0.1583
 4098SOL    HW114673   7.830   9.467   5.374 -0.7987  0.1679 -2.2144
 4098SOL    HW214674   7.684   9.465   5.414 -0.3338 -0.9055 -0.4410
 4099SOL     OW14675   0.296   1.317   5.689 -0.1839 -0.6659  0.1427
 4099SOL    HW114676   0.267   1.405   5.713  0.4459  0.7035 -3.4043
 4099SOL    HW214677   0.382   1.307   5.730 -0.1148  0.5498  0.3176
 4100SOL     OW14678   3.859   3.833   2.959  0.1790 -0.2496  0.6578
 4100SOL    HW114679   3.859   3.929   2.948  1.3147 -0.3598 -0.6741
 4100SOL    HW214680   3.940   3.815   3.007 -0.5961 -0.4727  1.9112
 4101SOL     OW14681   7.969   6.857   8.921  0.0995  0.3904 -0.2463
 4101SOL    HW114682   8.006   6.945   8.932 -0.6555  1.0655 -2.4359
 4101SOL    HW214683   7.886   6.872   8.876 -1.7631 -1.2486  2.3864
 4102SOL     OW14684   0.324   3.877   8.808  0.2915  0.3765 -0.5360
 4102SOL    HW114685   0.318   3.972   8.797 -2.9506  0.6660  1.9916
 4102SOL    HW214686   0.314   3.842   8.720  1.1502  2.3319 -1.4773
 4103SOL     OW14687   5.044   2.395   1.038 -0.5151  0.4050 -0.2295
 4103SOL    HW114688   4.962   2.347   1.045 -2.0273  2.7373 -0.6470
 4103SOL    HW214689   5.101   2.356   1.104 -2.2338 -0.7529  0.6344
 4104SOL     OW14690  10.355   1.823   1.589 -0.1828  0.3342 -0.1288
 4104SOL    HW114691  10.433   1.771   1.571 -0.6831 -2.3615  4.1750
 4104SOL    HW214692  10.282   1.769   1.559 -0.5789  1.1856 -0.7526
 4105SOL     OW14693   0.079   5.798   3.494  0.3560 -0.5962 -0.1326
 4105SOL    HW114694   0.043   5.842   3.417 -0.6767 -0.2854  0.5100
 4105SOL    HW214695   0.022   5.723   3.508  0.1476 -0.2924  0.6990
 4106SOL     OW14696   9.414   2.946   1.598  0.2632 -0.0289 -0.2010
 4106SOL    HW114697   9.435   2.947   1.692  0.4544  0.0386 -0.2451
 4106SOL    HW214698   9.441   2.860   1.568 -1.2792 -0.6717  0.1434
 4107SOL     OW14699   8.235   1.647   2.176 -0.4553  0.1666  0.3574
 4107SOL    HW114700   8.314   1.682   2.217  0.8499 -0.3506 -1.5794
 4107SOL    HW214701   8.172   1.719   2.179  0.4371  0.9468  0.9695
 4108SOL     OW14702   9.567   5.688   7.071 -0.2774 -0.3272  0.0839
 4108SOL    HW114703   9.656   5.717   7.050 -0.8639  2.9101  1.4766
 4108SOL    HW214704   9.574   5.652   7.159  0.1747 -3.4255 -1.1018
 4109SOL     OW14705   3.878   1.714   1.572 -0.2707  0.0731  0.7096
 4109SOL    HW114706   3.929   1.792   1.595  0.4022 -0.8502  2.6074
 4109SOL    HW214707   3.876   1.713   1.477  0.8625  1.6723  0.6358
 4110SOL     OW14708   7.228   4.809   8.788 -0.3967 -0.0375  0.2694
 4110SOL    HW114709   7.272   4.890   8.764 -0.0469 -0.2030  0.3525
 4110SOL    HW214710   7.209   4.819   8.881 -0.0992 -0.1674  0.3456
 4111SOL     OW14711   7.308   5.704  10.156 -0.2774 -0.3191 -0.1629
 4111SOL    HW114712   7.308   5.722  10.250  1.4422 -1.4063  0.0995
 4111SOL    HW214713   7.310   5.609  10.151 -1.2946 -0.2942 -1.3403
 4112SOL     OW14714  10.068   9.538  10.023 -0.3677  0.1271 -0.1769
 4112SOL    HW114715  10.012   9.461  10.030  0.4877 -0.6902 -1.7226
 4112SOL    HW214716  10.154   9.503   9.998  0.2362  1.5236 -0.1581
 4113SOL     OW14717   1.343   3.789   5.171 -0.2425  0.3980  0.0258
 4113SOL    HW114718   1.335   3.696   5.192  0.3223  0.2702 -0.3218
 4113SOL    HW214719   1.436   3.802   5.152 -0.2588  1.1050  0.4003
 4114SOL     OW14720   6.182   6.657   1.142  0.2607 -0.0687  0.1005
 4114SOL    HW114721   6.236   6.646   1.064  0.2538 -1.8903  0.3203
 4114SOL    HW214722   6.105   6.704   1.112  0.0784 -1.0912 -1.0852
 4115SOL     OW14723   8.864   0.172   2.310 -0.2298 -0.4967 -0.1661
 4115SOL    HW114724   8.779   0.152   2.269 -0.0408 -0.4743 -0.5694
 4115SOL    HW214725   8.867   0.115   2.387  0.6883 -2.7523 -1.7650
 4116SOL     OW14726  10.105   2.877   5.962  0.1908  0.4369 -0.1224
 4116SOL    HW114727  10.178   2.826   5.926 -0.0749 -1.3898  1.7433
 4116SOL    HW214728  10.047   2.811   6.000 -0.6654  2.0925  1.5674
 4117SOL     OW14729   5.722   1.099   1.073  0.5516  1.2210 -0.2746
 4117SOL    HW114730   5.772   1.070   0.996 -0.4162  1.1824 -0.9101
 4117SOL    HW214731   5.634   1.118   1.039 -0.0344  0.7473  0.9067
 4118SOL     OW14732   2.574   4.238   1.749 -0.3723 -0.2225 -0.0424
 4118SOL    HW114733   2.569   4.310   1.686 -2.3123 -1.1479 -1.0058
 4118SOL    HW214734   2.589   4.281   1.833 -1.8540  1.3765 -0.5407
 4119SOL     OW14735  10.307   6.463   3.330  0.0220  0.3558  0.0776
 4119SOL    HW114736  10.257   6.412   3.394 -0.2020 -1.5472 -1.4879
 4119SOL    HW214737  10.371   6.401   3.296 -0.8965  0.7475 -2.6235
 4120SOL     OW14738   7.966   0.622   5.017  0.3493 -0.7090  0.2359
 4120SOL    HW114739   8.031   0.600   4.951  0.9466 -1.6725  1.1087
 4120SOL    HW214740   7.893   0.562   5.000  0.7003 -1.2807  0.7361
 4121SOL     OW14741   0.793   8.562   2.753  0.0786  0.0168 -1.3458
 4121SOL    HW114742   0.809   8.608   2.836 -1.1851  1.0077 -1.6157
 4121SOL    HW214743   0.868   8.585   2.699  0.3118  0.3698 -0.8839
 4122SOL     OW14744   8.761   8.706   1.114  0.4333 -0.3632 -0.1443
 4122SOL    HW114745   8.671   8.737   1.105  0.6221  0.6456  1.2512
 4122SOL    HW214746   8.814   8.785   1.114  1.1742 -0.8367  0.7298
 4123SOL     OW14747   2.943   7.595   0.099  0.1967  0.2608 -0.2823
 4123SOL    HW114748   3.028   7.637   0.098  1.1666 -1.5781 -0.6282
 4123SOL    HW214749   2.963   7.501   0.098 -1.8081 -0.2461  1.0118
 4124SOL     OW14750   9.173   2.711   5.528 -0.0061  0.0330  0.2389
 4124SOL    HW114751   9.224   2.792   5.530 -0.7694  0.5216  1.0413
 4124SOL    HW214752   9.204   2.664   5.451  0.7738  0.8817  0.0228
 4125SOL     OW14753   4.585   8.491   0.927 -0.0235 -0.2530  0.8273
 4125SOL    HW114754   4.589   8.452   0.840 -2.8669  1.2585 -0.1143
 4125SOL    HW214755   4.618   8.422   0.985  0.3363 -1.9656 -1.2651
 4126SOL     OW14756   8.213   9.646  10.242 -0.0312 -0.1786  0.9204
 4126SOL    HW114757   8.276   9.574  10.246 -0.2060 -0.3118  1.3827
 4126SOL    HW214758   8.207   9.677  10.332  1.0427  1.3009  0.5086
 4127SOL     OW14759   9.665   8.881   5.644  0.3143  0.5075  0.3457
 4127SOL    HW114760   9.621   8.857   5.726 -1.1788  1.4489 -0.1370
 4127SOL    HW214761   9.678   8.976   5.651  0.0757  0.6108 -0.5489
 4128SOL     OW14762   2.279  10.085   2.905 -0.3870 -0.2331  0.4150
 4128SOL    HW114763   2.275  10.057   2.996 -1.7793 -0.6012  0.2573
 4128SOL    HW214764   2.241  10.013   2.856  0.4849 -0.0998 -0.4871
 4129SOL     OW14765   4.258   3.522   9.096  0.2761  0.4549  0.3222
 4129SOL    HW114766   4.310   3.459   9.047 -0.9080  0.8201 -1.4889
 4129SOL    HW214767   4.301   3.606   9.080 -0.8522  0.7661 -1.2290
 4130SOL     OW14768   7.535   5.035  10.660  0.2777  0.5248  0.0756
 4130SOL    HW114769   7.581   4.955  10.635  0.1195  0.5167 -0.1869
 4130SOL    HW214770   7.604   5.102  10.665 -0.0624  1.3574 -3.7056
 4131SOL     OW14771   5.580   5.286   8.692 -0.3709  0.3285 -0.0627
 4131SOL    HW114772   5.538   5.205   8.720  0.1112  0.2429  0.4349
 4131SOL    HW214773   5.549   5.352   8.754 -0.1769  0.3652 -0.0022
 4132SOL     OW14774   0.188   7.944  10.683 -0.2182  0.0573  0.6359
 4132SOL    HW114775   0.155   7.972  10.598 -1.1328 -0.5545  0.7772
 4132SOL    HW214776   0.216   8.025  10.726 -0.6689  0.4775  0.1414
 4133SOL     OW14777   7.521   4.596   4.796 -0.0351  0.3247 -0.0424
 4133SOL    HW114778   7.444   4.652   4.796 -0.4029 -0.1777  0.2348
 4133SOL    HW214779   7.487   4.508   4.784  0.4412  0.0246  0.7337
 4134SOL     OW14780   0.700   9.852   6.620 -0.4594 -0.5999 -0.7394
 4134SOL    HW114781   0.751   9.830   6.542 -1.2511 -1.4500 -1.0369
 4134SOL    HW214782   0.714   9.778   6.679  2.2026  1.1467  1.0571
 4135SOL     OW14783   4.105   8.892   7.590  0.4444  0.5756 -0.3611
 4135SOL    HW114784   4.143   8.978   7.570  2.7670 -0.6471 -1.5274
 4135SOL    HW214785   4.080   8.857   7.504  1.9756 -0.9517 -0.2309
 4136SOL     OW14786   8.998   5.277   9.346  0.2743  0.4562 -0.2903
 4136SOL    HW114787   9.023   5.247   9.259 -1.0961 -0.1360 -0.5100
 4136SOL    HW214788   8.948   5.357   9.330 -0.8815 -0.2234 -0.1463
 4137SOL     OW14789   9.295   0.144   0.762 -0.0035 -0.7635  0.5609
 4137SOL    HW114790   9.324   0.076   0.823 -2.1342  0.1236  2.7204
 4137SOL    HW214791   9.315   0.226   0.806 -1.7470 -0.0946  0.2071
 4138SOL     OW14792   7.889   2.312   8.250  0.2639  0.1508 -0.2648
 4138SOL    HW114793   7.795   2.303   8.233  0.0913  1.1398  0.0946
 4138SOL    HW214794   7.930   2.246   8.194 -0.5730  0.4038 -1.1957
 4139SOL     OW14795   3.793   9.647   0.207  0.0904 -0.0041 -0.2654
 4139SOL    HW114796   3.846   9.640   0.286 -0.1409 -2.0077 -0.2604
 4139SOL    HW214797   3.781   9.557   0.177 -1.6762  0.5530 -1.3692
 4140SOL     OW14798   6.778   2.655   7.425  0.6119  0.6530  0.5020
 4140SOL    HW114799   6.776   2.751   7.429  0.6098  0.7025 -0.5433
 4140SOL    HW214800   6.871   2.633   7.421  0.5726  0.6780 -0.6245
 4141SOL     OW14801   9.624   2.919   7.514 -0.2371 -0.4382  0.4466
 4141SOL    HW114802   9.566   2.850   7.483  0.1516 -0.6003  0.0705
 4141SOL    HW214803   9.590   2.999   7.475  0.6514 -0.7312 -0.9889
 4142SOL     OW14804  10.568   2.975   6.233  0.8216  0.1891 -0.2721
 4142SOL    HW114805  10.612   3.059   6.238  1.4426 -0.1873  1.4867
 4142SOL    HW214806  10.639   2.911   6.224  0.6304 -0.3440  1.5372
 4143SOL     OW14807   1.968   5.434   6.786 -0.4792  0.2902  0.0160
 4143SOL    HW114808   1.906   5.385   6.839  0.4411 -0.0157  0.8366
 4143SOL    HW214809   1.955   5.401   6.697  0.0198 -1.3548  0.5182
 4144SOL     OW14810   1.780   0.041   6.236 -0.3371 -0.0677 -0.0757
 4144SOL    HW114811   1.856   0.070   6.185  1.2872 -0.3256  2.0592
 4144SOL    HW214812   1.780  -0.055   6.225  0.4539 -0.1993  0.9174
 4145SOL     OW14813   7.109   4.430   2.373 -0.0981 -0.1370  0.0572
 4145SOL    HW114814   7.031   4.484   2.370 -0.0347 -0.0360  0.2153
 4145SOL    HW214815   7.110   4.385   2.288  0.7769  1.4272 -0.8179
 4146SOL     OW14816   8.782   0.643   9.096 -0.1647  0.3477  0.0903
 4146SOL    HW114817   8.829   0.628   9.014  0.5467  3.3390 -0.1585
 4146SOL    HW214818   8.845   0.620   9.164  1.1728  2.6542 -0.2577
 4147SOL     OW14819   1.395   1.292   6.683  0.2209 -0.4059  0.0355
 4147SOL    HW114820   1.373   1.222   6.621 -0.1947 -0.5104  0.2999
 4147SOL    HW214821   1.316   1.347   6.686  0.8705  0.6399 -0.9145
 4148SOL     OW14822   3.934   6.731   5.823 -0.3916 -0.2847 -0.6294
 4148SOL    HW114823   3.968   6.756   5.909 -0.6640  0.9159 -0.8502
 4148SOL    HW214824   3.954   6.638   5.815 -1.6741 -0.7969  1.3653
 4149SOL     OW14825   2.392   8.823   8.221 -0.6211  0.7974 -1.0599
 4149SOL    HW114826   2.423   8.761   8.156 -0.2228 -0.6566  0.4459
 4149SOL    HW214827   2.353   8.894   8.170 -1.6093 -0.9356 -2.8464
 4150SOL     OW14828   5.959  10.613   5.108 -0.1903  0.1417  0.2309
 4150SOL    HW114829   5.966  10.634   5.201  1.7068  1.4213 -0.1440
 4150SOL    HW214830   6.048  10.589   5.082 -0.7658 -0.5887 -1.1845
 4151SOL     OW14831   2.131   4.102   4.946  0.0227  0.1828  0.1041
 4151SOL    HW114832   2.131   4.185   4.992 -1.3064  0.5481 -0.5134
 4151SOL    HW214833   2.139   4.036   5.015  0.8794  0.8033  0.6129
 4152SOL     OW14834   9.570   6.118   1.928 -0.0543  0.7094  0.0045
 4152SOL    HW114835   9.511   6.165   1.869  0.2756  1.1534  0.0251
 4152SOL    HW214836   9.599   6.042   1.878  0.9209  1.5501 -0.7344
 4153SOL     OW14837   3.347   3.919   3.181 -0.0251  0.2215 -0.4097
 4153SOL    HW114838   3.330   3.907   3.275  1.2911 -1.0476 -0.3063
 4153SOL    HW214839   3.282   3.864   3.138 -0.0745  0.1348 -0.2251
 4154SOL     OW14840   0.307   3.335  10.337 -0.1129  0.8989  0.0805
 4154SOL    HW114841   0.314   3.381  10.253  0.1587  2.1290  0.7491
 4154SOL    HW214842   0.389   3.286  10.343 -0.7165 -0.3039 -0.9712
 4155SOL     OW14843   4.269   1.200   6.990 -0.1092 -0.2235 -0.4410
 4155SOL    HW114844   4.297   1.118   6.949  0.8370  0.4233 -1.1160
 4155SOL    HW214845   4.185   1.219   6.949 -1.0966 -1.6039  0.8069
 4156SOL     OW14846   5.549   9.119   2.776 -0.0792  0.1240 -0.4879
 4156SOL    HW114847   5.636   9.143   2.744 -0.2285 -0.0688 -1.0575
 4156SOL    HW214848   5.552   9.024   2.784  0.0318  0.1857  0.3245
 4157SOL     OW14849   3.813   7.748   4.563 -0.1326 -0.1623  0.5928
 4157SOL    HW114850   3.740   7.793   4.521  0.6717  0.0067 -0.6643
 4157SOL    HW214851   3.798   7.760   4.657 -1.3331  0.4665  0.3291
 4158SOL     OW14852  10.744  10.668   5.891  0.0098 -0.2861 -0.6905
 4158SOL    HW114853  10.702  10.732   5.948 -1.0187  0.8341 -2.6358
 4158SOL    HW214854  10.675  10.639   5.832  1.5616  0.5053 -3.0326
 4159SOL     OW14855   0.080   4.390   6.434 -0.1633 -0.3010  0.1553
 4159SOL    HW114856   0.090   4.396   6.529 -2.2243  0.9266  0.3546
 4159SOL    HW214857  -0.012   4.369   6.421  0.4401 -2.3029 -1.5723
 4160SOL     OW14858   7.846   1.969   6.701 -0.6626 -0.2390  0.1030
 4160SOL    HW114859   7.853   2.046   6.645  0.9759 -2.0274 -2.3948
 4160SOL    HW214860   7.757   1.938   6.688 -0.6675  0.0542 -0.5907
 4161SOL     OW14861   3.325   1.416  10.301  0.1436  0.7039 -0.3160
 4161SOL    HW114862   3.234   1.390  10.288  0.8761 -2.8017  0.5791
 4161SOL    HW214863   3.375   1.356  10.247  2.0298  1.1241  0.8627
 4162SOL     OW14864   3.288   3.069   5.205  0.3947  0.4778 -0.0147
 4162SOL    HW114865   3.230   3.145   5.203  0.0126  0.3543  2.9365
 4162SOL    HW214866   3.372   3.101   5.171 -1.0265  0.8382 -3.6703
 4163SOL     OW14867   3.585   9.305   4.689 -0.1409 -0.1940  0.0347
 4163SOL    HW114868   3.586   9.209   4.689 -1.3930 -0.3255  3.1321
 4163SOL    HW214869   3.598   9.329   4.597 -0.6284 -3.3300 -0.9826
 4164SOL     OW14870   2.096   7.213   5.933  0.2838  0.4867  0.2652
 4164SOL    HW114871   2.138   7.220   6.019 -0.6868  2.0882  0.6461
 4164SOL    HW214872   2.002   7.206   5.952  0.1243 -0.0289 -0.6468
 4165SOL     OW14873   7.211   5.159   9.461  0.3942 -0.5429 -0.1371
 4165SOL    HW114874   7.234   5.066   9.459 -0.2310 -0.6875 -0.7371
 4165SOL    HW214875   7.176   5.173   9.549 -0.9326 -1.2299 -0.5337
 4166SOL     OW14876   9.578   7.533   4.504 -0.0144 -0.8042  0.0953
 4166SOL    HW114877   9.627   7.615   4.515  0.7360 -1.1960 -0.2510
 4166SOL    HW214878   9.513   7.553   4.436 -0.4028 -0.2513  0.6237
 4167SOL     OW14879   0.453   9.971   0.233 -0.0832  0.0340 -0.5716
 4167SOL    HW114880   0.454   9.883   0.194  0.6859 -1.4928  2.5057
 4167SOL    HW214881   0.364   9.980   0.266  0.5841 -1.0410  1.7826
 4168SOL     OW14882   3.054   6.388   4.122 -0.2659 -0.2113 -0.4289
 4168SOL    HW114883   3.037   6.372   4.029  0.1949 -0.7828 -0.4267
 4168SOL    HW214884   3.138   6.435   4.122 -0.6951  0.5565 -0.3410
 4169SOL     OW14885  10.108   3.172  10.093  0.3801 -0.7735 -0.0256
 4169SOL    HW114886  10.128   3.265  10.095  1.7255 -0.9766  3.5586
 4169SOL    HW214887  10.190   3.130  10.068  0.0824 -1.0709 -0.5369
 4170SOL     OW14888   8.593   9.071   1.197 -0.0590  0.6413 -0.4562
 4170SOL    HW114889   8.567   8.989   1.154 -1.3742  1.0555 -0.5045
 4170SOL    HW214890   8.634   9.122   1.127 -0.4270  0.5390 -0.7538
 4171SOL     OW14891   8.558   8.509   6.784 -0.0756 -0.3578  0.0202
 4171SOL    HW114892   8.528   8.594   6.751  1.2370  0.3258  0.5262
 4171SOL    HW214893   8.509   8.445   6.732 -0.5128  0.6988 -0.9217
 4172SOL     OW14894   5.865   4.388   7.979 -0.1592 -0.2724  0.6420
 4172SOL    HW114895   5.942   4.395   8.035  0.4412  0.6515 -0.2672
 4172SOL    HW214896   5.843   4.295   7.980  1.6796 -0.7609  0.0305
 4173SOL     OW14897  10.152   2.753   9.198  0.1719  0.1478  0.1020
 4173SOL    HW114898  10.238   2.749   9.240  0.1819  0.3108  0.0958
 4173SOL    HW214899  10.171   2.774   9.107  0.1981 -0.9406 -0.1550
 4174SOL     OW14900   7.651   4.761   0.436  0.0195  0.1593  0.1881
 4174SOL    HW114901   7.640   4.836   0.494 -2.2052 -1.6252  2.3118
 4174SOL    HW214902   7.746   4.754   0.423  0.2755  4.2704 -1.6474
 4175SOL     OW14903   4.312   6.519   1.139  0.6526  0.1577 -0.3798
 4175SOL    HW114904   4.375   6.560   1.079  0.6102  2.9212  1.2531
 4175SOL    HW214905   4.367   6.473   1.203  1.0411  1.7718  0.5015
 4176SOL     OW14906  10.583   6.906   5.878 -0.2185  0.5240  0.4211
 4176SOL    HW114907  10.533   6.896   5.797  0.7668  0.8181 -0.2501
 4176SOL    HW214908  10.517   6.918   5.946 -1.1055 -0.6199 -0.1973
 4177SOL     OW14909   4.685   2.646  10.654 -0.1199  0.0001 -0.0881
 4177SOL    HW114910   4.724   2.637  10.567 -1.2148 -1.5497 -0.4444
 4177SOL    HW214911   4.611   2.586  10.654 -0.4757  0.3791  1.7397
 4178SOL     OW14912   2.127   5.857  10.724 -0.3702  0.0916 -0.3721
 4178SOL    HW114913   2.112   5.951  10.716 -1.0181  0.1647  1.3917
 4178SOL    HW214914   2.045   5.817  10.694 -0.4917  0.1330 -0.0983
 4179SOL     OW14915  10.221   2.422   7.002  0.4459  0.0317  0.3117
 4179SOL    HW114916  10.133   2.460   7.004  0.8094  0.9464 -0.4921
 4179SOL    HW214917  10.225   2.374   6.919  0.7552  0.1138  0.2770
 4180SOL     OW14918   3.321   4.716   9.898 -0.0356  0.1154  0.0826
 4180SOL    HW114919   3.306   4.794   9.845 -1.9415 -0.1997  0.1005
 4180SOL    HW214920   3.389   4.668   9.849  0.5032  1.3191 -0.3997
 4181SOL     OW14921   0.295   5.678   7.596  0.2612 -0.1383 -0.1943
 4181SOL    HW114922   0.371   5.705   7.648 -1.2232  1.0770  1.4845
 4181SOL    HW214923   0.297   5.583   7.598  1.3877 -0.1176  0.3588
 4182SOL     OW14924   6.074   2.716  10.361 -0.1987  0.0712  0.3687
 4182SOL    HW114925   6.127   2.642  10.330 -0.2622 -0.4411  1.4210
 4182SOL    HW214926   6.111   2.792  10.316  1.3173 -0.3048  0.9107
 4183SOL     OW14927   4.974   6.632   8.277 -0.2612  0.2141 -0.0821
 4183SOL    HW114928   5.066   6.609   8.287  0.3323  1.5215 -1.9858
 4183SOL    HW214929   4.940   6.568   8.214 -0.0053  1.1793 -1.2256
 4184SOL     OW14930   6.965   1.247   8.594 -0.1476 -0.1004  0.3788
 4184SOL    HW114931   6.968   1.206   8.508  1.4899 -1.3074  0.9514
 4184SOL    HW214932   6.893   1.310   8.589 -1.2243 -1.3813 -1.3021
 4185SOL     OW14933   8.386   5.355   8.744  0.1165 -0.5777 -0.1916
 4185SOL    HW114934   8.327   5.389   8.811  0.8589  0.0786  0.1404
 4185SOL    HW214935   8.383   5.260   8.755 -0.5458 -0.5278  0.0931
 4186SOL     OW14936   8.696   7.374   5.451  0.5251 -0.2932  0.6615
 4186SOL    HW114937   8.698   7.295   5.504  0.7834 -0.7652 -0.0360
 4186SOL    HW214938   8.761   7.431   5.491 -0.4296  0.0204  1.8288
 4187SOL     OW14939   9.843   6.730   7.440 -0.3712 -0.1605 -0.1257
 4187SOL    HW114940   9.849   6.686   7.525 -1.4591  0.3630  0.2431
 4187SOL    HW214941   9.839   6.659   7.376 -2.9937 -0.6834  0.5067
 4188SOL     OW14942   1.614   9.659   4.620  0.2783  0.0181 -0.3615
 4188SOL    HW114943   1.597   9.567   4.598 -0.3359  0.2613 -0.9340
 4188SOL    HW214944   1.699   9.677   4.582  0.3696 -0.2956 -0.3094
 4189SOL     OW14945   1.287   3.869  10.005 -0.4604  0.8966  0.4378
 4189SOL    HW114946   1.361   3.926  10.028  0.1146  1.2450 -1.9687
 4189SOL    HW214947   1.317   3.781  10.029  1.1190  0.9319 -1.1587
 4190SOL     OW14948   7.636  10.018   8.344 -0.1519  0.2127 -0.0229
 4190SOL    HW114949   7.685  10.081   8.291 -0.8932  1.2822  0.5040
 4190SOL    HW214950   7.688  10.009   8.424 -0.5761  1.0346  0.3653
 4191SOL     OW14951   9.815   8.335   9.907  0.0317  0.3407  0.6324
 4191SOL    HW114952   9.846   8.363   9.821  0.2254 -0.4195  0.4458
 4191SOL    HW214953   9.824   8.413   9.962 -1.4638  1.2644 -0.3671
 4192SOL     OW14954   2.876   3.674   3.218 -0.4489 -0.0814  0.1394
 4192SOL    HW114955   2.900   3.654   3.127 -0.6494  1.4978 -0.2935
 4192SOL    HW214956   2.798   3.730   3.210 -0.3605  0.2222  1.2727
 4193SOL     OW14957   6.642   4.741   3.332 -0.5282  0.3925 -0.3089
 4193SOL    HW114958   6.702   4.766   3.401 -0.4838  0.9272 -0.5321
 4193SOL    HW214959   6.566   4.705   3.377 -0.7068  1.1828  0.0502
 4194SOL     OW14960  10.015   3.515   0.383  0.3896  0.2899  0.4227
 4194SOL    HW114961   9.982   3.555   0.303  0.9647  0.4550  0.2596
 4194SOL    HW214962  10.041   3.589   0.438  0.4051  0.1666  0.5825
 4195SOL     OW14963  10.336   9.742   0.122 -0.3932 -0.2699  0.0716
 4195SOL    HW114964  10.322   9.654   0.157  0.1057 -0.8835 -1.1923
 4195SOL    HW214965  10.309   9.735   0.030 -0.2794  0.8866 -0.0614
 4196SOL     OW14966   3.682   5.212   0.707 -0.4137 -0.5115  0.2004
 4196SOL    HW114967   3.701   5.305   0.692 -2.9743 -0.1091 -1.0760
 4196SOL    HW214968   3.667   5.176   0.619  0.6299 -2.1883  0.6669
 4197SOL     OW14969   2.828   3.065   0.006 -0.2160 -0.0101 -0.0491
 4197SOL    HW114970   2.898   3.105  -0.046 -0.0718  0.9093  0.8068
 4197SOL    HW214971   2.776   3.015  -0.057  0.5398  0.2369 -0.8916
 4198SOL     OW14972   4.222   3.485   4.018 -0.1605 -0.8087  0.3211
 4198SOL    HW114973   4.264   3.525   4.094 -1.4645  1.3881 -0.0306
 4198SOL    HW214974   4.195   3.398   4.048  0.1125 -0.3157  2.0798
 4199SOL     OW14975   3.859   6.180   5.327  0.2437 -0.4490  0.1251
 4199SOL    HW114976   3.933   6.149   5.380  0.2201 -0.3312  0.2272
 4199SOL    HW214977   3.856   6.274   5.343  0.8316 -0.2509 -0.8166
 4200SOL     OW14978   7.436  10.324   4.807  0.2104 -0.1743  0.7088
 4200SOL    HW114979   7.364  10.333   4.745  1.2761  2.1222 -0.3190
 4200SOL    HW214980   7.396  10.339   4.892 -0.4104  2.3456  0.0655
 4201SOL     OW14981   3.797   9.089   5.508  1.0047 -0.2892  0.7266
 4201SOL    HW114982   3.878   9.140   5.500 -0.3880  1.7324 -2.6097
 4201SOL    HW214983   3.798   9.030   5.432 -0.3161 -0.7785  1.0562
 4202SOL     OW14984   0.744   5.306   0.845  0.1477  0.1319  0.3681
 4202SOL    HW114985   0.691   5.235   0.882  1.4218 -0.1983  1.6399
 4202SOL    HW214986   0.773   5.357   0.920  0.9553  0.7902 -0.3642
 4203SOL     OW14987   0.467   2.687   4.731 -0.5151 -0.2019  0.4817
 4203SOL    HW114988   0.481   2.640   4.649 -0.0088  0.7438  0.0107
 4203SOL    HW214989   0.377   2.666   4.756 -1.1554  0.5729 -1.0344
 4204SOL     OW14990   1.197   1.566   6.471 -0.5330  0.3141 -0.1587
 4204SOL    HW114991   1.201   1.509   6.395  0.7224  0.2073 -0.0249
 4204SOL    HW214992   1.153   1.645   6.439 -2.2478 -0.6613 -0.3546
 4205SOL     OW14993   8.761   5.537   3.120  0.6070  0.0140  0.0797
 4205SOL    HW114994   8.754   5.479   3.045 -0.4268  1.8942 -1.3726
 4205SOL    HW214995   8.678   5.585   3.121  0.0957 -0.7332  3.1477
 4206SOL     OW14996   8.419   5.170   6.967  0.0275 -0.1786 -0.5150
 4206SOL    HW114997   8.332   5.181   6.930 -0.0390 -2.1529 -1.1069
 4206SOL    HW214998   8.461   5.105   6.910  1.4423 -0.1693  0.4550
 4207SOL     OW14999   4.292   3.259   6.671  0.0976  0.1261 -0.0913
 4207SOL    HW115000   4.224   3.227   6.729 -0.4061  1.9543  0.3686
 4207SOL    HW215001   4.247   3.318   6.611  1.1396  0.6875 -0.3417
 4208SOL     OW15002   1.428   4.390   5.363 -0.4679 -0.4491  0.1373
 4208SOL    HW115003   1.428   4.417   5.455 -0.9695 -0.4620  0.1439
 4208SOL    HW215004   1.517   4.360   5.347  0.2972  1.7719 -0.0440
 4209SOL     OW15005   4.455   9.753   8.677 -0.4549 -0.7184  0.2302
 4209SOL    HW115006   4.363   9.726   8.669 -0.6254 -1.3791  3.1431
 4209SOL    HW215007   4.505   9.676   8.652 -0.6491 -0.3093 -1.5124
 4210SOL     OW15008   7.817   9.822   4.302 -0.5772 -0.0993  0.4180
 4210SOL    HW115009   7.736   9.811   4.353 -1.4827  0.2295 -0.8817
 4210SOL    HW215010   7.806   9.907   4.259  0.1705 -0.3482 -0.2886
 4211SOL     OW15011   9.568   8.272   0.236 -0.2502 -0.1282 -0.1555
 4211SOL    HW115012   9.518   8.311   0.308  0.0431 -0.0130 -0.0123
 4211SOL    HW215013   9.652   8.318   0.238 -0.4862  0.3594 -1.0060
 4212SOL     OW15014   9.074   5.954   0.448 -0.1854  0.0248 -0.2226
 4212SOL    HW115015   9.042   5.920   0.532  0.3597  1.1943  0.4977
 4212SOL    HW215016   9.018   6.030   0.431  0.9863  0.9880  0.1179
 4213SOL     OW15017   0.048   3.676  10.354 -0.1413 -0.0932 -0.3553
 4213SOL    HW115018   0.075   3.632  10.273  2.8538  1.2276 -0.1932
 4213SOL    HW215019   0.056   3.609  10.421 -0.7070 -0.6594 -0.8356
 4214SOL     OW15020  10.547   8.217   3.370  0.0725 -0.9849 -0.0529
 4214SOL    HW115021  10.515   8.261   3.291  1.6420 -0.1116 -0.2594
 4214SOL    HW215022  10.637   8.191   3.347  0.2529 -1.4631  1.1605
 4215SOL     OW15023   8.768   8.548   2.954 -0.1471  0.8191  0.2350
 4215SOL    HW115024   8.774   8.464   2.998  0.8952  0.5598 -0.3581
 4215SOL    HW215025   8.857   8.566   2.924 -0.6571  1.3345 -1.0824
 4216SOL     OW15026   9.058   7.705   3.458  0.2447  0.4894 -0.7256
 4216SOL    HW115027   9.077   7.796   3.481 -0.0825  0.5969 -0.8889
 4216SOL    HW215028   9.126   7.655   3.503  0.9302  0.8773 -1.3023
 4217SOL     OW15029   7.827   6.268   8.239  0.2555  0.2555  0.0457
 4217SOL    HW115030   7.801   6.176   8.245  1.5138 -0.2084 -1.1260
 4217SOL    HW215031   7.923   6.266   8.244  0.3261  1.4421 -0.6226
 4218SOL     OW15032   0.608   6.446  10.073  0.4576  0.4397 -0.7401
 4218SOL    HW115033   0.634   6.381  10.008 -0.0829  1.0191 -1.5500
 4218SOL    HW215034   0.682   6.505  10.080  0.9690 -0.2724  0.0299
 4219SOL     OW15035   7.099  10.785   4.567  0.1632  0.1980  0.1091
 4219SOL    HW115036   7.072  10.867   4.525 -2.0174 -1.0039 -0.9561
 4219SOL    HW215037   7.070  10.717   4.507  1.6661 -1.4038  1.1279
 4220SOL     OW15038  10.036  10.029   5.822 -0.2829  0.4280  0.3125
 4220SOL    HW115039   9.985  10.109   5.815 -1.5625 -0.4971 -2.4862
 4220SOL    HW215040  10.115  10.046   5.771 -0.1643  0.1735  0.4078
 4221SOL     OW15041   1.190  10.499   3.149  0.1202 -0.9779 -0.0440
 4221SOL    HW115042   1.166  10.487   3.241  2.1426  1.5072  0.9323
 4221SOL    HW215043   1.128  10.563   3.116 -0.4669 -1.7032 -0.3604
 4222SOL     OW15044  10.442   8.634   7.592 -0.0970  0.0834  0.0647
 4222SOL    HW115045  10.475   8.559   7.542  0.3846 -0.6871  1.5000
 4222SOL    HW215046  10.348   8.620   7.598  0.0123 -0.5155  0.4790
 4223SOL     OW15047   6.469   5.738  10.324 -0.1344  1.1783  0.5002
 4223SOL    HW115048   6.551   5.690  10.312  0.6671  2.6014  0.1866
 4223SOL    HW215049   6.415   5.679  10.378  1.3372  0.5178  1.2987
 4224SOL     OW15050   3.517   5.788   1.200 -0.5098  0.0294  0.1371
 4224SOL    HW115051   3.580   5.843   1.153 -1.4806  1.3313  0.3040
 4224SOL    HW215052   3.567   5.711   1.227  0.7375  0.5476 -0.6302
 4225SOL     OW15053   8.692   7.598   2.044 -0.1574 -0.3432  0.0811
 4225SOL    HW115054   8.618   7.552   2.083  0.6152 -1.6008  0.1505
 4225SOL    HW215055   8.715   7.665   2.109 -0.0109 -1.2399  0.9837
 4226SOL     OW15056   8.756   0.324   7.508 -0.2037 -0.0846  0.0706
 4226SOL    HW115057   8.800   0.243   7.536 -2.6611 -1.9295 -1.0604
 4226SOL    HW215058   8.798   0.346   7.425  0.7466  0.0717  0.5719
 4227SOL     OW15059   0.012   7.652   8.967  0.2212 -0.1225 -0.6101
 4227SOL    HW115060   0.084   7.628   8.908  1.1944 -0.3007  0.5894
 4227SOL    HW215061   0.024   7.595   9.043 -0.6746  0.4523 -0.0214
 4228SOL     OW15062   4.465   0.175   1.129 -0.0457  0.0270  0.0920
 4228SOL    HW115063   4.534   0.151   1.191  0.6657 -0.4019 -0.8307
 4228SOL    HW215064   4.481   0.268   1.110  0.3249 -0.0813 -0.1512
 4229SOL     OW15065  10.155   1.603   8.876 -0.3543 -0.2417  0.2863
 4229SOL    HW115066  10.158   1.633   8.966  0.1244  0.9085 -0.0936
 4229SOL    HW215067  10.117   1.515   8.881  1.0255 -0.7857  1.7387
 4230SOL     OW15068   9.810   1.907   0.165  0.2514  0.0866  0.1907
 4230SOL    HW115069   9.863   1.912   0.086  0.5710  1.4411  0.4505
 4230SOL    HW215070   9.852   1.840   0.219  0.0138 -0.8634 -0.7779
 4231SOL     OW15071   5.723   8.156   9.152  0.5760  0.5228  0.5893
 4231SOL    HW115072   5.764   8.075   9.123  0.4345  0.6374  0.0611
 4231SOL    HW215073   5.721   8.212   9.074 -0.6837  0.4799  0.5674
 4232SOL     OW15074   5.200   1.703   7.610  0.0193  0.3087  0.2811
 4232SOL    HW115075   5.269   1.695   7.676 -0.1160 -0.2676  0.3562
 4232SOL    HW215076   5.246   1.727   7.530  0.2408  0.5133  0.4696
 4233SOL     OW15077   9.915   2.654   3.541 -0.1076  0.0277 -0.0699
 4233SOL    HW115078   9.916   2.612   3.627  0.6944  0.7530  0.2926
 4233SOL    HW215079   9.905   2.582   3.479 -0.8239 -0.4893  0.6354
 4234SOL     OW15080   6.851   9.838   4.515  0.5909  0.3450 -0.1356
 4234SOL    HW115081   6.772   9.788   4.492  0.8052 -1.0399  1.9529
 4234SOL    HW215082   6.910   9.825   4.441  0.0387 -1.2175 -0.3299
 4235SOL     OW15083   8.588   4.226   3.924  0.4383  0.2502  0.0501
 4235SOL    HW115084   8.613   4.144   3.965  0.5690  0.8166  1.1389
 4235SOL    HW215085   8.514   4.203   3.868  1.5849 -0.9238 -1.0429
 4236SOL     OW15086   6.338   4.024   0.017 -0.5959  0.1451  0.5365
 4236SOL    HW115087   6.283   4.050  -0.057  0.0229 -0.5893 -0.2010
 4236SOL    HW215088   6.409   3.973  -0.023 -0.8183 -1.1569  1.7309
 4237SOL     OW15089  10.312   1.201   9.862  0.1512  0.1579  0.4029
 4237SOL    HW115090  10.222   1.169   9.869 -0.0376  0.8524  1.3889
 4237SOL    HW215091  10.341   1.214   9.952  0.3528  2.3412  0.0956
 4238SOL     OW15092   4.408   6.481  10.115 -0.4335  0.5152  0.1460
 4238SOL    HW115093   4.399   6.546  10.185 -3.0022 -0.6618  1.0418
 4238SOL    HW215094   4.318   6.460  10.090  0.3883 -0.4921 -2.2368
 4239SOL     OW15095   9.226   3.175   3.699 -0.2900 -0.2776  0.1440
 4239SOL    HW115096   9.298   3.164   3.636 -0.9960  0.0016 -0.7198
 4239SOL    HW215097   9.250   3.116   3.771 -0.3078 -1.9535 -1.1381
 4240SOL     OW15098  10.588   1.089   6.440  0.0568 -0.1433 -0.3028
 4240SOL    HW115099  10.527   1.106   6.368  0.4804  1.2486 -0.3456
 4240SOL    HW215100  10.673   1.115   6.406  0.4832 -0.7992  0.2380
 4241SOL     OW15101   7.452   3.108   9.985  0.2550 -0.6276 -0.3088
 4241SOL    HW115102   7.396   3.175   9.946 -1.4925 -0.7291  1.7955
 4241SOL    HW215103   7.518   3.157  10.034 -1.0406 -0.3329  1.2547
 4242SOL     OW15104   7.947   7.310   6.475 -0.1870  1.1500  0.1277
 4242SOL    HW115105   7.966   7.377   6.540  2.0518 -1.3463  2.3210
 4242SOL    HW215106   8.032   7.292   6.433 -0.1272 -1.8053  1.2966
 4243SOL     OW15107   0.212   1.920   1.828  0.3175 -0.0599  0.0940
 4243SOL    HW115108   0.190   1.995   1.772 -1.2984  0.4401  1.3066
 4243SOL    HW215109   0.151   1.852   1.801 -0.5160  0.2052  1.2437
 4244SOL     OW15110   3.161   2.481   3.039  0.0086  0.3349  0.3165
 4244SOL    HW115111   3.172   2.457   2.947 -0.6854 -0.2350  0.3768
 4244SOL    HW215112   3.144   2.575   3.037  1.0536  0.5318 -0.0448
 4245SOL     OW15113   2.023  10.356   0.999  0.5215  0.3370 -0.4473
 4245SOL    HW115114   2.011  10.449   1.015  0.6815  0.2500  0.2004
 4245SOL    HW215115   2.059  10.322   1.081  1.6938 -0.0561 -1.0989
 4246SOL     OW15116  10.336   8.969   8.147 -0.0366 -0.2969 -0.3931
 4246SOL    HW115117  10.321   9.046   8.202  0.1822 -1.2946  1.1432
 4246SOL    HW215118  10.333   8.895   8.209 -0.6518 -1.5644 -1.8651
 4247SOL     OW15119   7.557   2.198   0.539 -0.3774 -0.2790 -0.6464
 4247SOL    HW115120   7.518   2.233   0.458 -1.4226 -0.4635 -0.2454
 4247SOL    HW215121   7.649   2.222   0.533 -0.1871 -1.2758 -2.4316
 4248SOL     OW15122   3.110   4.578   1.698 -0.0050  0.0711 -0.0793
 4248SOL    HW115123   3.097   4.631   1.619  1.0688  1.4346  0.6119
 4248SOL    HW215124   3.021   4.553   1.725 -0.5858  1.8559 -0.2307
 4249SOL     OW15125   8.784   5.304   5.627 -0.0478 -0.4286 -0.0328
 4249SOL    HW115126   8.827   5.372   5.576  0.7523  1.3401  2.7820
 4249SOL    HW215127   8.833   5.224   5.607  0.2236  0.1763 -1.9333
 4250SOL     OW15128   5.526   7.485   6.079 -0.2818 -0.2951 -0.3881
 4250SOL    HW115129   5.494   7.435   6.005 -1.4879  1.5316 -1.1539
 4250SOL    HW215130   5.607   7.526   6.048  1.5891 -2.8897  0.7389
 4251SOL     OW15131   4.746   0.954   3.279  0.2925  0.2560 -0.1793
 4251SOL    HW115132   4.769   1.006   3.356 -0.4191 -0.1618  0.3262
 4251SOL    HW215133   4.657   0.924   3.296 -1.9260  4.0808 -3.2184
 4252SOL     OW15134   4.912   3.174   0.363  0.0607  0.3308 -0.0448
 4252SOL    HW115135   4.964   3.216   0.431 -0.1325  0.2597  0.1479
 4252SOL    HW215136   4.837   3.232   0.351 -0.7997 -0.5089  1.0264
 4253SOL     OW15137  10.525  10.736   9.241 -0.3318  0.2347 -0.1293
 4253SOL    HW115138  10.484  10.717   9.325  0.0607  0.5736  0.1434
 4253SOL    HW215139  10.456  10.775   9.188 -0.4041  0.6650  0.2734
 4254SOL     OW15140   0.473   8.935   1.458  0.4608  0.5843 -0.2983
 4254SOL    HW115141   0.465   8.975   1.545  1.4350  1.1901 -0.4745
 4254SOL    HW215142   0.547   8.875   1.466 -0.0691 -0.0992 -0.4445
 4255SOL     OW15143   1.348   2.956   8.597 -0.4644 -0.0830 -0.6468
 4255SOL    HW115144   1.426   2.929   8.549 -1.0445 -0.0984 -1.6200
 4255SOL    HW215145   1.378   2.967   8.687 -0.2078 -4.0205 -0.0948
 4256SOL     OW15146   5.621   9.158   9.143  0.5656 -0.1703 -0.2548
 4256SOL    HW115147   5.533   9.190   9.161  0.4419  0.8363 -2.3439
 4256SOL    HW215148   5.670   9.177   9.223 -0.9597 -0.2299  0.7286
 4257SOL     OW15149   4.895   9.928   2.339  0.2619 -0.2969  0.5945
 4257SOL    HW115150   4.914   9.945   2.432  0.3552 -1.3581  0.7794
 4257SOL    HW215151   4.865   9.837   2.337 -2.0492  0.4188 -0.1013
 4258SOL     OW15152   0.248   2.235   7.498  0.5967 -0.2732 -0.3292
 4258SOL    HW115153   0.328   2.218   7.449  0.1886  0.0172 -1.1223
 4258SOL    HW215154   0.220   2.148   7.528  1.6587 -0.2777  0.7088
 4259SOL     OW15155   6.929   0.584   0.099 -0.7892  0.1359  0.0964
 4259SOL    HW115156   6.963   0.516   0.157 -0.7101  1.3684  1.5418
 4259SOL    HW215157   6.849   0.615   0.142 -0.0545  1.9488  0.2575
 4260SOL     OW15158   8.429   7.069   7.626 -0.1784 -0.4456  0.0465
 4260SOL    HW115159   8.379   7.030   7.698  1.8067  0.2539  1.9327
 4260SOL    HW215160   8.380   7.148   7.602 -1.7181 -1.5334 -0.5514
 4261SOL     OW15161   1.044   6.632   6.869  0.4090  0.4433  0.0688
 4261SOL    HW115162   1.017   6.574   6.797  1.7408  0.2936 -0.3291
 4261SOL    HW215163   0.965   6.641   6.922 -0.2972 -0.3587 -0.7905
 4262SOL     OW15164   1.068   5.795   7.120 -0.4725 -0.0571  0.0486
 4262SOL    HW115165   1.002   5.746   7.071 -0.6320 -0.9883  1.1569
 4262SOL    HW215166   1.136   5.731   7.140 -1.1884 -0.1466  2.4379
 4263SOL     OW15167   0.088   4.168   9.163 -0.0602  0.1394  0.4074
 4263SOL    HW115168   0.113   4.086   9.120  1.4640 -0.4387  2.2418
 4263SOL    HW215169   0.026   4.141   9.230  0.7322  0.4066  1.2621
 4264SOL     OW15170   1.470   0.377   1.705 -0.0783  0.0210 -0.7843
 4264SOL    HW115171   1.399   0.416   1.757  0.4832  0.2654 -0.1843
 4264SOL    HW215172   1.550   0.405   1.749  0.3664 -1.1626 -0.8035
 4265SOL     OW15173   1.829   5.354   2.804  0.1566  0.0721  0.7159
 4265SOL    HW115174   1.906   5.311   2.768 -0.4027 -0.4841  0.1533
 4265SOL    HW215175   1.755   5.305   2.768 -0.6462  2.7655 -1.6875
 4266SOL     OW15176   4.276   7.336   4.540  0.0619 -0.0956 -0.4983
 4266SOL    HW115177   4.201   7.297   4.494 -0.9842 -0.1592  1.1829
 4266SOL    HW215178   4.334   7.262   4.557  0.2137 -0.1552 -1.2333
 4267SOL     OW15179   6.985   3.141   5.599  0.0690  0.2831 -0.0593
 4267SOL    HW115180   7.036   3.063   5.621 -0.5478 -0.0708  0.1516
 4267SOL    HW215181   6.921   3.149   5.670  0.8318  1.6296  0.5115
 4268SOL     OW15182   4.766   8.845   3.403 -0.5952 -0.2962  0.3499
 4268SOL    HW115183   4.675   8.871   3.385  0.4303  3.6255 -0.1124
 4268SOL    HW215184   4.773   8.850   3.499 -0.7776 -0.2171  0.3608
 4269SOL     OW15185   0.794  10.110  10.021 -0.1991 -0.2403  0.0084
 4269SOL    HW115186   0.730  10.159  10.073 -0.6547  0.7596 -1.4292
 4269SOL    HW215187   0.741  10.055   9.964  0.2460 -0.1932 -0.4572
 4270SOL     OW15188   9.961   3.976   8.625  0.3406 -0.5036  0.0508
 4270SOL    HW115189   9.895   4.031   8.584  1.5287  0.2442 -0.9067
 4270SOL    HW215190   9.958   4.001   8.718 -0.3798 -0.1558 -0.0575
 4271SOL     OW15191   9.244   8.400   9.752  0.3598 -0.1036  0.0992
 4271SOL    HW115192   9.190   8.456   9.807  3.3217  1.1990  1.9217
 4271SOL    HW215193   9.293   8.460   9.696  1.5780 -1.0350  0.1146
 4272SOL     OW15194   8.918   8.402   0.112 -0.3639 -0.1942  0.1602
 4272SOL    HW115195   8.878   8.479   0.153 -0.2473 -0.2729  0.4205
 4272SOL    HW215196   8.875   8.396   0.027 -1.5910 -0.8251  0.7993
 4273SOL     OW15197   2.059  10.799   5.109  0.0243  0.3501 -0.0578
 4273SOL    HW115198   2.118  10.757   5.047  0.6549 -0.2232  0.8873
 4273SOL    HW215199   2.034  10.728   5.169  0.4391  1.1277  1.0736
 4274SOL     OW15200   2.514   2.580   5.348 -0.3080 -0.7064  0.5483
 4274SOL    HW115201   2.589   2.536   5.388 -1.1095 -1.6369  1.0627
 4274SOL    HW215202   2.438   2.535   5.383 -1.1363  0.4896  0.3449
 4275SOL     OW15203   4.242   7.694   2.155 -0.2300 -0.6283  0.5734
 4275SOL    HW115204   4.237   7.640   2.076  0.2285 -0.8000  0.6621
 4275SOL    HW215205   4.204   7.639   2.224  0.6778 -1.0305  0.7637
 4276SOL     OW15206   6.760   5.245   2.222  0.5875  0.6243  0.0309
 4276SOL    HW115207   6.676   5.284   2.247  0.2711 -0.4753  0.7342
 4276SOL    HW215208   6.743   5.204   2.138  0.8513  1.7256 -0.5837
 4277SOL     OW15209   6.899  10.049   4.702  0.5365 -0.5184  0.5629
 4277SOL    HW115210   6.870   9.978   4.646  0.2782 -0.0241  0.0583
 4277SOL    HW215211   6.897  10.127   4.646  0.3624 -0.0306  1.2256
 4278SOL     OW15212   0.560   5.405   9.587 -0.6584  0.5887  0.2869
 4278SOL    HW115213   0.552   5.420   9.681 -2.2749  1.4260  0.0462
 4278SOL    HW215214   0.654   5.392   9.573 -0.4253  0.1140  2.0501
 4279SOL     OW15215   1.974   6.696   1.548 -0.1852 -0.4548 -0.0637
 4279SOL    HW115216   1.923   6.752   1.607  0.5107  1.9000 -1.5518
 4279SOL    HW215217   2.062   6.733   1.550  0.5127 -2.0161 -0.5201
 4280SOL     OW15218   3.225   1.661   8.663  0.9175  0.1171 -0.4442
 4280SOL    HW115219   3.289   1.725   8.696  0.4710 -0.4750  1.6775
 4280SOL    HW215220   3.272   1.614   8.595  1.8756  1.4379 -0.7429
 4281SOL     OW15221   4.913   4.180   4.080  0.2739 -0.0864  0.3270
 4281SOL    HW115222   4.848   4.176   4.149  0.2099 -0.5075  0.2460
 4281SOL    HW215223   4.968   4.255   4.103 -0.4980  0.5438  0.1580
 4282SOL     OW15224   8.889  10.437   8.251  0.6491 -0.2743 -0.6505
 4282SOL    HW115225   8.828  10.499   8.290  1.5713  0.8019 -0.8667
 4282SOL    HW215226   8.906  10.472   8.163  1.4563 -0.6261 -0.6459
 4283SOL     OW15227   4.937   5.421   5.157  0.3274  0.1305 -0.3557
 4283SOL    HW115228   4.856   5.375   5.178 -0.3407  0.3708 -2.2261
 4283SOL    HW215229   4.956   5.397   5.067  1.3473  1.5185 -0.5541
 4284SOL     OW15230   3.429   5.262   3.727  0.1151 -0.4334 -0.7129
 4284SOL    HW115231   3.378   5.330   3.684  0.2124  1.0302  1.3007
 4284SOL    HW215232   3.454   5.201   3.657 -1.0160  0.9410 -2.3799
 4285SOL     OW15233   4.328   8.190   8.079 -0.3545 -0.2841 -0.3974
 4285SOL    HW115234   4.423   8.198   8.071 -0.2788 -2.1447 -2.0971
 4285SOL    HW215235   4.310   8.212   8.170  1.6425  0.5705 -0.1641
 4286SOL     OW15236   9.122   9.579   5.421 -0.3153  0.3340 -0.7921
 4286SOL    HW115237   9.184   9.555   5.490  0.1233 -0.0999 -1.3196
 4286SOL    HW215238   9.058   9.508   5.420 -0.0649  0.1061 -1.1223
 4287SOL     OW15239   8.301   8.858   7.014  0.1107 -0.0343 -0.0247
 4287SOL    HW115240   8.307   8.782   7.072  0.8462  0.4338  0.5394
 4287SOL    HW215241   8.211   8.887   7.021 -0.3150 -1.1411 -0.6305
 4288SOL     OW15242   3.287   4.089   2.377 -0.1036 -0.2168 -0.1610
 4288SOL    HW115243   3.362   4.047   2.417 -0.1570 -0.8832 -0.7332
 4288SOL    HW215244   3.317   4.177   2.354  0.1304 -0.0713  0.6831
 4289SOL     OW15245   9.321   9.403   8.739 -0.3473  0.5714 -0.0156
 4289SOL    HW115246   9.335   9.323   8.790 -0.1031  1.4720  1.3704
 4289SOL    HW215247   9.248   9.381   8.681 -0.3771 -0.6058  0.4293
 4290SOL     OW15248   5.251   7.087   8.913  0.8602  0.2689  0.1862
 4290SOL    HW115249   5.265   7.001   8.873 -0.4234  0.2487 -0.2702
 4290SOL    HW215250   5.210   7.067   8.998  0.6709  0.4148  0.1311
 4291SOL     OW15251   4.321   2.311   0.339  0.1686  0.4706 -0.0595
 4291SOL    HW115252   4.309   2.328   0.245  0.5778  0.2322 -0.1566
 4291SOL    HW215253   4.358   2.392   0.373 -0.1517  0.6226 -0.0682
 4292SOL     OW15254   7.560   1.541  10.096  0.0511 -0.0271 -0.1236
 4292SOL    HW115255   7.544   1.558  10.003 -0.9895  0.1872  0.0803
 4292SOL    HW215256   7.474   1.521  10.132  0.3264  0.6051  0.9412
 4293SOL     OW15257  10.348   0.375   8.674 -0.0320  0.2138  0.1016
 4293SOL    HW115258  10.332   0.456   8.627 -1.0360 -0.4365 -0.7364
 4293SOL    HW215259  10.433   0.387   8.717  0.2774  1.3260 -0.7920
 4294SOL     OW15260   9.559   5.260   3.800 -0.4988 -0.1938  0.6242
 4294SOL    HW115261   9.625   5.310   3.752 -0.7167  0.1894  0.7177
 4294SOL    HW215262   9.609   5.196   3.851  0.1590  2.4174  3.5608
 4295SOL     OW15263   8.707   7.569   1.436 -0.3467  0.3857  0.0625
 4295SOL    HW115264   8.634   7.574   1.373  0.2113 -0.9635 -0.7402
 4295SOL    HW215265   8.781   7.607   1.389 -0.7914  3.1361  1.4026
 4296SOL     OW15266   4.087   0.377   5.815  0.2962  0.3078  0.2973
 4296SOL    HW115267   4.163   0.320   5.823 -1.4632 -2.4995 -1.4300
 4296SOL    HW215268   4.016   0.330   5.858 -1.0314  1.6958 -0.2734
 4297SOL     OW15269   4.389  10.597   1.256  0.5635  0.3251  0.5168
 4297SOL    HW115270   4.447  10.630   1.187 -0.6094 -0.5757 -0.9616
 4297SOL    HW215271   4.334  10.672   1.278  0.2492  0.3507 -0.3067
 4298SOL     OW15272   0.870   5.101   2.671  0.3743 -0.2632  0.1987
 4298SOL    HW115273   0.940   5.156   2.636 -0.9795  0.6752 -1.1435
 4298SOL    HW215274   0.790   5.136   2.632 -0.6890 -2.3139  0.4121
 4299SOL     OW15275   2.424  10.553   3.243  0.0012  0.1620 -0.1448
 4299SOL    HW115276   2.448  10.587   3.156 -0.2227 -0.8572 -0.6216
 4299SOL    HW215277   2.462  10.616   3.304  2.5275 -0.4940 -0.8876
 4300SOL     OW15278  10.408   8.084   9.345  0.2230  0.4065 -0.4078
 4300SOL    HW115279  10.449   8.166   9.373  1.4632 -0.2756 -0.1224
 4300SOL    HW215280  10.421   8.081   9.251 -2.3560  1.8489 -0.8965
 4301SOL     OW15281   3.839  10.724   7.238  0.1288 -0.3988  0.0240
 4301SOL    HW115282   3.842  10.769   7.153  1.4798  1.0181  0.7723
 4301SOL    HW215283   3.776  10.774   7.289 -0.2445 -0.9024  0.0704
 4302SOL     OW15284   9.912   9.777   1.611  0.0756  0.4689 -0.1734
 4302SOL    HW115285   9.928   9.682   1.615 -0.0028  0.5020  1.8447
 4302SOL    HW215286   9.991   9.813   1.571  0.3512 -0.4001 -0.4296
 4303SOL     OW15287   8.207  10.550   7.678 -0.7195  0.0658  0.5838
 4303SOL    HW115288   8.275  10.506   7.628  0.3590  1.4430  0.7714
 4303SOL    HW215289   8.197  10.635   7.635 -0.3130  0.9844  2.2158
 4304SOL     OW15290   8.131   3.907   6.691  0.0464 -0.1557 -0.5807
 4304SOL    HW115291   8.221   3.930   6.667 -0.1125  0.0233 -1.0066
 4304SOL    HW215292   8.138   3.876   6.782  0.6684 -0.9597 -0.8967
 4305SOL     OW15293   5.426   1.263   7.990 -0.4964  0.8039  0.1900
 4305SOL    HW115294   5.409   1.240   7.898 -0.6902  3.7788 -0.6058
 4305SOL    HW215295   5.512   1.224   8.008 -0.7556 -0.4236 -0.9972
 4306SOL     OW15296   1.784   5.279  10.087  0.1504 -0.3855 -0.0832
 4306SOL    HW115297   1.748   5.209  10.033 -0.3395 -0.5718  0.4795
 4306SOL    HW215298   1.718   5.349  10.083  0.2934 -0.2470 -0.0442
 4307SOL     OW15299   5.636   8.459   3.826  0.7230  0.9408  0.1393
 4307SOL    HW115300   5.571   8.416   3.770  1.2187  0.9035 -0.4135
 4307SOL    HW215301   5.584   8.516   3.883  0.4067  3.4631 -2.4735
 4308SOL     OW15302   6.213   7.195   0.773 -0.7014 -0.1376 -0.1503
 4308SOL    HW115303   6.304   7.203   0.743 -1.0756 -1.2069 -1.6879
 4308SOL    HW215304   6.220   7.188   0.868  0.6735  1.6114 -0.0643
 4309SOL     OW15305   5.811  10.572   4.318 -0.2144  0.2941  0.3865
 4309SOL    HW115306   5.751  10.586   4.245  0.6237 -0.3045 -0.4239
 4309SOL    HW215307   5.830  10.660   4.351  1.0347  0.7561 -1.4382
 4310SOL     OW15308   3.681   7.540   1.261  0.4068  0.0716  0.2744
 4310SOL    HW115309   3.652   7.453   1.234 -0.0331  0.2835  0.0570
 4310SOL    HW215310   3.660   7.545   1.354 -0.6636  0.3824  0.0266
 4311SOL     OW15311   6.682   4.693   9.487  0.0516 -0.3463  0.3140
 4311SOL    HW115312   6.648   4.697   9.577 -2.2606 -1.1925 -0.4515
 4311SOL    HW215313   6.659   4.778   9.449 -1.8106 -1.1222 -0.3730
 4312SOL     OW15314   9.147   0.717   6.892  0.1419 -0.2270  0.0816
 4312SOL    HW115315   9.209   0.666   6.944  1.1661  0.8455 -0.0260
 4312SOL    HW215316   9.077   0.739   6.953  0.8286  0.1645  0.7610
 4313SOL     OW15317   2.820   5.861   9.206 -0.0779 -0.6850  0.1215
 4313SOL    HW115318   2.768   5.796   9.158 -0.9298  0.1893 -0.1596
 4313SOL    HW215319   2.763   5.890   9.277  0.1333  0.0761 -0.0140
 4314SOL     OW15320   2.495   0.819   6.408 -0.2509  0.2625 -0.4170
 4314SOL    HW115321   2.452   0.833   6.324 -0.8008  0.4629 -0.1075
 4314SOL    HW215322   2.577   0.775   6.386 -1.0290 -0.9900 -0.9551
 4315SOL     OW15323   7.192   9.948  10.545 -0.0652 -0.7853  0.0263
 4315SOL    HW115324   7.177   9.956  10.639  1.6899  0.5822  0.2530
 4315SOL    HW215325   7.287   9.940  10.537 -0.0531  0.4816 -1.6853
 4316SOL     OW15326  10.362   0.283   8.393  0.4370  0.1740  0.3394
 4316SOL    HW115327  10.455   0.265   8.407  0.2987 -1.2891 -0.3972
 4316SOL    HW215328  10.326   0.289   8.481  1.1744  0.4743  0.6327
 4317SOL     OW15329   9.243   5.742   5.148 -0.1847 -0.2504 -0.8705
 4317SOL    HW115330   9.319   5.784   5.107  0.4123  0.7735  1.1837
 4317SOL    HW215331   9.191   5.814   5.183 -0.8127 -1.0681 -0.0691
 4318SOL     OW15332   4.486   5.488   1.789  0.0894  0.6598 -0.0994
 4318SOL    HW115333   4.415   5.426   1.776  1.3287 -0.8129 -0.0860
 4318SOL    HW215334   4.550   5.466   1.721  0.4259  2.1539 -0.3069
 4319SOL     OW15335   4.169   9.940   0.232  0.4813  0.1429  0.7351
 4319SOL    HW115336   4.134   9.861   0.192  0.9096  0.5774 -0.5351
 4319SOL    HW215337   4.225   9.979   0.165  0.2339  1.5619  1.3136
 4320SOL     OW15338  10.353  10.263   0.469  0.5129  0.2087  0.3473
 4320SOL    HW115339  10.434  10.310   0.449  0.9741 -0.7564 -0.1811
 4320SOL    HW215340  10.284  10.327   0.457  0.9671  0.3573 -2.0443
 4321SOL     OW15341   3.933   0.979   1.159 -0.4437  0.6571 -0.5969
 4321SOL    HW115342   3.991   0.987   1.084  2.7095 -0.8733  1.4593
 4321SOL    HW215343   3.933   0.886   1.181 -2.0354  0.9142  0.7590
 4322SOL     OW15344   0.431   7.610   3.551 -0.6849  0.2110 -0.1317
 4322SOL    HW115345   0.466   7.521   3.557  0.6952  0.7383  0.0062
 4322SOL    HW215346   0.342   7.603   3.586 -1.3090 -1.4703 -1.8798
 4323SOL     OW15347   9.735   2.271   1.120  0.2266  0.2271  0.1120
 4323SOL    HW115348   9.702   2.181   1.117 -0.4573  0.4555  0.5326
 4323SOL    HW215349   9.748   2.289   1.213  1.5047  0.1743 -0.0346
 4324SOL     OW15350   5.325  10.533  10.799 -0.0292  0.2527 -0.5729
 4324SOL    HW115351   5.272  10.470  10.848 -0.3612  0.4572 -0.6664
 4324SOL    HW215352   5.412  10.527  10.839 -0.4171  0.7814  0.3806
 4325SOL     OW15353   0.747   9.391   4.454  0.6841  0.2280  0.2008
 4325SOL    HW115354   0.763   9.376   4.361 -0.5519  1.4474 -0.2391
 4325SOL    HW215355   0.691   9.318   4.481 -0.3746  0.7770 -0.4545
 4326SOL     OW15356   0.768   2.624   6.156  0.3389  0.2729  0.0858
 4326SOL    HW115357   0.805   2.600   6.071 -0.9885  1.0569 -0.7494
 4326SOL    HW215358   0.746   2.716   6.148 -1.5214 -0.0792  0.5961
 4327SOL     OW15359   2.045   7.096   3.667  0.2969 -0.3790 -0.0530
 4327SOL    HW115360   2.076   7.045   3.591  0.0692 -0.9111  0.2086
 4327SOL    HW215361   2.081   7.050   3.743 -1.3178 -1.1534  0.2790
 4328SOL     OW15362   2.570   0.404   4.383 -0.2992  0.1007 -0.0711
 4328SOL    HW115363   2.501   0.340   4.401  0.5020 -0.2167  2.1722
 4328SOL    HW215364   2.542   0.483   4.428  0.5463  0.1006  0.4940
 4329SOL     OW15365   7.723  10.762   3.958 -0.1238  0.1070 -0.2280
 4329SOL    HW115366   7.764  10.826   3.899  1.1953 -2.3452 -2.1654
 4329SOL    HW215367   7.640  10.740   3.916 -0.4839  0.3778  0.3293
 4330SOL     OW15368   3.816   8.421   1.410 -0.5468 -0.3572 -0.3727
 4330SOL    HW115369   3.893   8.380   1.451  0.0361  1.8311  0.9140
 4330SOL    HW215370   3.779   8.475   1.479 -1.1052  1.4356 -2.0015
 4331SOL     OW15371   4.440   1.037   2.432  0.8964 -0.4114 -0.2344
 4331SOL    HW115372   4.434   1.121   2.478 -0.8591  0.2612 -1.5611
 4331SOL    HW215373   4.527   1.004   2.454  1.5627  1.6457  0.5165
 4332SOL     OW15374   9.924   2.605   7.682 -0.0190  0.2300  0.0153
 4332SOL    HW115375   9.914   2.584   7.775  2.6362 -1.1648  0.0969
 4332SOL    HW215376   9.894   2.526   7.636 -3.2761  1.6463 -0.5321
 4333SOL     OW15377   9.611   9.604   3.998 -0.1453  0.3144  0.2008
 4333SOL    HW115378   9.630   9.516   3.965 -1.0595 -0.5545  1.8478
 4333SOL    HW215379   9.644   9.663   3.930 -0.1815 -1.3034 -1.2931
 4334SOL     OW15380  10.229   9.149   4.931  0.4207  0.0603 -0.3208
 4334SOL    HW115381  10.318   9.126   4.956  0.0056  0.6592  1.8635
 4334SOL    HW215382  10.173   9.093   4.985 -0.5508  0.3823 -0.9566
 4335SOL     OW15383   9.653   5.922   1.579  0.3442  0.5002  0.2965
 4335SOL    HW115384   9.742   5.955   1.592  0.3366  0.9623 -0.7041
 4335SOL    HW215385   9.621   5.971   1.503 -0.1361 -0.8778 -0.4245
 4336SOL     OW15386   9.198   3.326   6.365 -0.7920 -0.0756 -0.3600
 4336SOL    HW115387   9.105   3.347   6.355 -0.7049  0.3346 -0.3326
 4336SOL    HW215388   9.243   3.398   6.320 -0.4860 -0.2195 -0.2825
 4337SOL     OW15389   7.057   4.864   3.528  0.6925  0.2834 -0.1912
 4337SOL    HW115390   6.998   4.790   3.515  1.9848 -1.1564  1.6676
 4337SOL    HW215391   7.019   4.914   3.599  1.5685 -0.5717  0.9170
 4338SOL     OW15392   4.703   0.802   4.490  0.3514 -0.0683  0.5425
 4338SOL    HW115393   4.761   0.801   4.414  0.2029 -0.5739  0.4344
 4338SOL    HW215394   4.750   0.751   4.557  0.4179  0.2543  0.7450
 4339SOL     OW15395   0.706   8.288   1.328  0.3877  0.0227  0.2938
 4339SOL    HW115396   0.794   8.315   1.356  0.5826  0.6883 -0.8983
 4339SOL    HW215397   0.650   8.363   1.349 -0.0675 -0.6969  1.7680
 4340SOL     OW15398   2.532   6.364  10.410  0.2242  0.6177  0.2942
 4340SOL    HW115399   2.474   6.363  10.486  0.9856  1.7608  0.9230
 4340SOL    HW215400   2.620   6.353  10.446  0.3676 -2.9525 -0.7851
 4341SOL     OW15401   6.841   3.245   7.098 -0.0012  0.2170 -0.5647
 4341SOL    HW115402   6.773   3.283   7.041  0.1449  0.6856 -0.4257
 4341SOL    HW215403   6.922   3.285   7.069  0.2898 -0.6620 -1.0129
 4342SOL     OW15404   6.149   8.583   3.698 -0.0204 -0.1582 -0.1228
 4342SOL    HW115405   6.085   8.514   3.713  0.0531  0.1100  1.8027
 4342SOL    HW215406   6.097   8.662   3.685 -0.0996 -0.4925 -2.0342
 4343SOL     OW15407   5.715   7.523   5.181  0.3124 -0.3351 -0.0283
 4343SOL    HW115408   5.641   7.552   5.234  0.7600  0.1020  0.3559
 4343SOL    HW215409   5.732   7.597   5.122 -1.5463 -1.5683 -2.3052
 4344SOL     OW15410   8.882   5.746   7.616  0.4866  0.5370  0.6134
 4344SOL    HW115411   8.875   5.839   7.638  1.1026  1.4452 -2.5583
 4344SOL    HW215412   8.976   5.730   7.608  0.3567 -0.2424  0.6096
 4345SOL     OW15413   2.440   7.644   2.752  0.0011 -0.6035 -0.1405
 4345SOL    HW115414   2.488   7.604   2.824  2.4234 -0.4793 -1.5803
 4345SOL    HW215415   2.444   7.738   2.769  1.2981 -0.5147 -0.7909
 4346SOL     OW15416   8.552   4.899   3.371  0.0293  0.0928 -0.0680
 4346SOL    HW115417   8.516   4.943   3.447 -0.2966 -1.8159  0.9593
 4346SOL    HW215418   8.553   4.965   3.302  0.2113  1.8470  1.5352
 4347SOL     OW15419   5.845   3.639   8.156 -0.6966 -0.2026  0.2117
 4347SOL    HW115420   5.886   3.668   8.075  1.9875  0.8382  1.8164
 4347SOL    HW215421   5.837   3.544   8.146 -1.1904 -0.0047 -1.5557
 4348SOL     OW15422   7.215   2.474   3.027  0.0417 -0.9351 -0.4867
 4348SOL    HW115423   7.243   2.402   2.970  0.4363  1.0012 -2.9027
 4348SOL    HW215424   7.120   2.479   3.012  0.1501 -0.4073 -1.0384
 4349SOL     OW15425   1.320   1.092   6.474  0.1631  0.5987  0.0635
 4349SOL    HW115426   1.411   1.068   6.456  0.0031  1.2190 -1.7288
 4349SOL    HW215427   1.273   1.009   6.480  0.6845  0.3045  0.1336
 4350SOL     OW15428   5.190   7.837   6.035  0.4469  0.0378 -0.2814
 4350SOL    HW115429   5.195   7.883   6.118  0.5923  0.3577 -0.4650
 4350SOL    HW215430   5.281   7.829   6.006  0.6743 -2.4077  0.8369
 4351SOL     OW15431  10.502   0.692   1.038  0.2144  0.0981 -0.2750
 4351SOL    HW115432  10.532   0.778   1.007  1.3077  0.6373  2.0940
 4351SOL    HW215433  10.408   0.703   1.052  0.2998  0.8145 -0.2449
 4352SOL     OW15434   0.121   9.131   5.474  0.5432  0.0673  0.1716
 4352SOL    HW115435   0.047   9.080   5.442  1.7237 -0.8456 -1.2368
 4352SOL    HW215436   0.082   9.200   5.528 -1.2620 -0.7675 -0.0067
 4353SOL     OW15437   3.918   8.308   7.081 -0.1851  0.3286  0.5555
 4353SOL    HW115438   3.978   8.374   7.047 -1.2532  2.8527  3.1253
 4353SOL    HW215439   3.960   8.224   7.063  3.2113  1.8799  0.6194
 4354SOL     OW15440   4.436   5.282   6.803  0.0712  0.3972 -0.7880
 4354SOL    HW115441   4.509   5.275   6.742  0.1138 -2.0692 -0.5655
 4354SOL    HW215442   4.359   5.288   6.747  0.0977 -1.9633 -1.1508
 4355SOL     OW15443   4.249   3.535  10.304  0.1408 -0.2539  0.0603
 4355SOL    HW115444   4.156   3.518  10.287  0.1769  0.1551 -0.6015
 4355SOL    HW215445   4.259   3.522  10.398 -0.2774 -1.7147 -0.0716
 4356SOL     OW15446  10.407   1.653   2.939  0.1766 -0.4426  0.0060
 4356SOL    HW115447  10.407   1.588   3.009 -1.0178  0.1952  0.6326
 4356SOL    HW215448  10.421   1.602   2.859  0.5329 -1.3031  0.6007
 4357SOL     OW15449   8.421   7.462   3.026  0.4241 -0.1832 -0.3407
 4357SOL    HW115450   8.500   7.481   3.076  0.0307 -1.5653  0.8788
 4357SOL    HW215451   8.349   7.488   3.083 -0.0170 -0.7284 -0.6290
 4358SOL     OW15452   5.697   5.541   7.667 -0.2023  0.1179 -0.7015
 4358SOL    HW115453   5.646   5.571   7.592 -1.3564  0.3988  0.1685
 4358SOL    HW215454   5.634   5.493   7.721  0.2825  1.0670  0.7535
 4359SOL     OW15455   2.548   3.353   6.961  0.3100  0.1826 -0.5637
 4359SOL    HW115456   2.628   3.401   6.940 -0.0051  0.4793 -1.0888
 4359SOL    HW215457   2.541   3.287   6.892 -0.5934  0.9952 -1.2647
 4360SOL     OW15458   0.277   9.351   9.246 -0.5038 -0.1345  0.5205
 4360SOL    HW115459   0.357   9.368   9.296  0.5989 -0.1130 -1.1692
 4360SOL    HW215460   0.206   9.369   9.308  0.7727  0.6143  1.8408
 4361SOL     OW15461   5.878   4.582   9.189  0.3479  0.3245 -0.2000
 4361SOL    HW115462   5.910   4.555   9.103  2.9920  2.0342  0.1252
 4361SOL    HW215463   5.879   4.501   9.241  1.6796 -0.1871 -0.9674
 4362SOL     OW15464   0.145   8.096  10.445 -0.5170  0.5573  0.0276
 4362SOL    HW115465   0.168   8.189  10.446  0.8293  0.2568  1.4486
 4362SOL    HW215466   0.217   8.054  10.398  1.0554 -0.1833  2.8653
 4363SOL     OW15467   5.407   8.579   5.926  0.4896 -0.4324 -0.7599
 4363SOL    HW115468   5.492   8.537   5.913 -0.2322 -1.8345 -1.0737
 4363SOL    HW215469   5.379   8.605   5.838  0.2889 -0.5974 -0.7467
 4364SOL     OW15470   2.961   9.742   2.946  0.1243 -0.3867  0.8925
 4364SOL    HW115471   2.881   9.768   2.992 -1.0494 -2.2673  0.0464
 4364SOL    HW215472   2.932   9.722   2.857  1.4685 -1.3975  0.6464
 4365SOL     OW15473   8.953   7.875   1.576  0.4762  0.4255 -0.3184
 4365SOL    HW115474   8.938   7.870   1.481 -1.8938 -1.3652  0.0515
 4365SOL    HW215475   8.992   7.791   1.598 -2.5247 -0.8022  0.7310
 4366SOL     OW15476   8.141   1.143   9.882 -0.2623 -0.3473 -0.1245
 4366SOL    HW115477   8.048   1.122   9.872 -0.1573 -0.7540 -0.2752
 4366SOL    HW215478   8.166   1.100   9.964  0.3657 -2.3091 -1.2829
 4367SOL     OW15479  10.067   1.114   7.712  0.2976  0.0466  0.0305
 4367SOL    HW115480  10.148   1.113   7.762  0.0309 -1.3166  0.4884
 4367SOL    HW215481  10.038   1.023   7.711 -0.1480  0.1555 -1.9196
 4368SOL     OW15482   1.077   8.028   1.700 -0.7034  0.7120 -0.4094
 4368SOL    HW115483   1.067   7.954   1.760  3.9841  0.0290 -0.1240
 4368SOL    HW215484   1.093   8.103   1.757  0.2832  0.7614 -0.7380
 4369SOL     OW15485   1.759   0.394   4.825 -0.0834 -0.5708  0.1452
 4369SOL    HW115486   1.827   0.386   4.759  0.6581 -0.6712  0.9034
 4369SOL    HW215487   1.807   0.406   4.907 -0.9844 -0.3496  0.6507
 4370SOL     OW15488   9.585   4.983   3.263 -0.4651 -0.2933  0.1604
 4370SOL    HW115489   9.632   4.902   3.283  0.8837 -0.6600 -3.7130
 4370SOL    HW215490   9.626   5.049   3.319  0.5197 -1.6884  1.1542
 4371SOL     OW15491   3.549   1.977   2.871  0.4242 -0.4547  0.0983
 4371SOL    HW115492   3.613   2.030   2.823  1.0130 -1.6850 -0.5366
 4371SOL    HW215493   3.465   1.999   2.831  0.3071  1.6561  1.3599
 4372SOL     OW15494   2.565   5.590   0.718 -0.4731 -0.0046  0.2357
 4372SOL    HW115495   2.478   5.552   0.716 -0.7835  0.7098 -0.6663
 4372SOL    HW215496   2.589   5.591   0.811 -1.0984 -0.9123  0.4178
 4373SOL     OW15497   8.456   6.305   2.150 -0.6116  0.6189 -0.4135
 4373SOL    HW115498   8.362   6.322   2.139 -0.2647  1.9234 -1.7237
 4373SOL    HW215499   8.498   6.388   2.128  0.8255  0.3407  1.1228
 4374SOL     OW15500   6.194   6.783   4.526  0.0822  0.3207  0.2292
 4374SOL    HW115501   6.222   6.706   4.478 -0.5233  0.2729 -0.0690
 4374SOL    HW215502   6.106   6.801   4.492  0.6774  1.8663 -0.6093
 4375SOL     OW15503   4.598   0.265   6.056  0.2798  0.2691  0.3171
 4375SOL    HW115504   4.573   0.261   6.149 -1.0598 -0.0106 -0.0355
 4375SOL    HW215505   4.534   0.324   6.017  0.7555  0.2754 -0.4571
 4376SOL     OW15506   0.756   1.334   1.230 -0.0757  0.4779 -0.4895
 4376SOL    HW115507   0.667   1.300   1.242 -0.3353  1.1234 -0.5232
 4376SOL    HW215508   0.785   1.295   1.148  0.0564 -0.5181  0.0155
 4377SOL     OW15509   5.183   4.211   3.349  0.4310  0.6636  0.7823
 4377SOL    HW115510   5.162   4.299   3.317  0.3167  0.7519  1.0942
 4377SOL    HW215511   5.102   4.162   3.339  0.5020  0.5868  0.5840
 4378SOL     OW15512   3.872   0.498   8.367 -0.0641  0.5268  0.0975
 4378SOL    HW115513   3.877   0.584   8.327  1.8627  0.0590 -0.7629
 4378SOL    HW215514   3.935   0.500   8.439  0.6097 -0.3805 -0.4345
 4379SOL     OW15515   4.911   8.866   1.467 -0.0795  0.3133 -0.3764
 4379SOL    HW115516   4.832   8.843   1.515 -0.8418 -2.3223 -2.6289
 4379SOL    HW215517   4.983   8.833   1.521 -0.6208  0.8348  0.6980
 4380SOL     OW15518   0.269   8.249   0.228  0.9093  0.3157 -0.1362
 4380SOL    HW115519   0.246   8.230   0.137 -0.2752  2.7079 -0.4206
 4380SOL    HW215520   0.363   8.269   0.225  1.3136 -1.4511 -0.4504
 4381SOL     OW15521   8.750   5.339  10.608 -0.2741 -0.2974  0.0115
 4381SOL    HW115522   8.818   5.294  10.559 -0.3421 -0.5213  0.1211
 4381SOL    HW215523   8.796   5.383  10.679 -0.3167 -0.9876  0.4728
 4382SOL     OW15524   9.086   0.369   0.294 -0.6336  0.4870 -0.3867
 4382SOL    HW115525   9.172   0.354   0.332 -1.1565  0.8868  0.9980
 4382SOL    HW215526   9.103   0.383   0.201  0.6029 -1.2782 -0.4681
 4383SOL     OW15527   4.318   0.398   4.926 -0.2877  0.2100  0.9183
 4383SOL    HW115528   4.375   0.354   4.989 -0.5288  1.3230  1.9533
 4383SOL    HW215529   4.238   0.415   4.974 -1.0135 -0.1615 -0.1299
 4384SOL     OW15530   4.726   3.985   1.638 -0.5786  0.3334 -0.2370
 4384SOL    HW115531   4.653   4.047   1.644 -0.7793  0.1900 -1.0040
 4384SOL    HW215532   4.691   3.914   1.584  0.2947  0.5200 -1.0632
 4385SOL     OW15533   3.168   3.911   5.852  0.5910  0.7364  0.4459
 4385SOL    HW115534   3.221   3.890   5.775 -0.1100 -0.6131  0.3095
 4385SOL    HW215535   3.192   4.001   5.873  1.3070  0.9004 -0.9374
 4386SOL     OW15536   5.251   5.009   2.767  0.2010 -0.2191 -0.1076
 4386SOL    HW115537   5.331   4.957   2.778 -0.6860 -1.7485 -0.7536
 4386SOL    HW215538   5.182   4.957   2.809 -0.4325  1.2442  0.7588
 4387SOL     OW15539   1.848  10.479   5.062 -0.7467  0.1418 -0.4009
 4387SOL    HW115540   1.874  10.398   5.018 -1.2563  1.8290 -4.2761
 4387SOL    HW215541   1.793  10.524   4.997  0.2637  4.0054  1.1477
 4388SOL     OW15542   6.986  10.586   9.287 -0.1589  0.7192 -0.0579
 4388SOL    HW115543   7.045  10.660   9.302  1.3185 -0.4977  0.4973
 4388SOL    HW215544   7.012  10.522   9.354 -0.9543 -0.5360 -0.9209
 4389SOL     OW15545   4.275   0.381   7.657 -0.6460  0.2579  0.6417
 4389SOL    HW115546   4.252   0.370   7.749 -1.6928  0.1636  0.3846
 4389SOL    HW215547   4.319   0.299   7.634  0.4347  0.6498  1.2864
 4390SOL     OW15548   0.614   6.820   8.001 -0.1629  0.4063  0.5425
 4390SOL    HW115549   0.598   6.910   8.029  0.3845  1.2610 -1.7400
 4390SOL    HW215550   0.571   6.813   7.916  0.5064 -1.2332  0.3020
 4391SOL     OW15551   3.708   5.972   9.395 -0.3607  0.0267  0.0171
 4391SOL    HW115552   3.736   5.890   9.354  1.1186  0.2328  0.5522
 4391SOL    HW215553   3.615   5.981   9.371 -1.2255 -2.9120  1.7214
 4392SOL     OW15554   7.415   5.624   0.358  0.0289  0.1133  0.3061
 4392SOL    HW115555   7.384   5.540   0.327  0.8699  0.2548 -0.9689
 4392SOL    HW215556   7.344   5.685   0.339  0.1535  0.0205 -0.4836
 4393SOL     OW15557   4.928   3.202   9.788 -0.4193 -0.4277  0.1533
 4393SOL    HW115558   4.973   3.188   9.705 -0.7125  0.4031 -0.1531
 4393SOL    HW215559   4.861   3.133   9.791  0.1522 -0.9933  0.1065
 4394SOL     OW15560   1.115   8.299   0.320  0.4056  0.1710  0.0609
 4394SOL    HW115561   1.051   8.275   0.387  0.9460 -2.2619 -0.2006
 4394SOL    HW215562   1.068   8.359   0.262 -0.8812  0.2598  1.1360
 4395SOL     OW15563   6.407   1.991   7.688  0.6777 -0.1408 -0.2326
 4395SOL    HW115564   6.486   1.941   7.706  0.6400 -0.5454 -1.0986
 4395SOL    HW215565   6.344   1.926   7.655  0.5165  0.4035 -1.0489
 4396SOL     OW15566   1.535   9.400   4.535 -0.1650  0.2522  0.3083
 4396SOL    HW115567   1.485   9.371   4.459  1.3304 -0.3809 -0.5000
 4396SOL    HW215568   1.533   9.326   4.596 -0.3288  0.2831  0.3396
 4397SOL     OW15569   2.100   9.672   1.559 -0.1570 -0.2056 -0.2344
 4397SOL    HW115570   2.058   9.750   1.593  0.7823  0.5856 -0.8201
 4397SOL    HW215571   2.051   9.650   1.480 -0.7814 -0.5616  0.2455
 4398SOL     OW15572   8.031   2.769   0.084  0.8035  0.3118  0.6556
 4398SOL    HW115573   8.046   2.692   0.138  1.1530  1.3902  2.1542
 4398SOL    HW215574   8.086   2.756   0.007  0.7442 -0.9856  0.8151
 4399SOL     OW15575   4.447   4.442   4.615 -0.2658 -0.1100 -0.2940
 4399SOL    HW115576   4.450   4.428   4.710  0.5106 -0.1840 -0.3259
 4399SOL    HW215577   4.427   4.355   4.579  0.6412 -0.3414 -0.2617
 4400SOL     OW15578  10.644   4.746   2.600  0.0809 -0.2533  0.2317
 4400SOL    HW115579  10.707   4.767   2.530  0.3365 -0.1266  0.4986
 4400SOL    HW215580  10.572   4.702   2.554 -0.7369  1.6634 -0.4425
 4401SOL     OW15581  10.180   5.217   4.498  0.1596 -0.2751  0.2438
 4401SOL    HW115582  10.210   5.215   4.407 -1.4400 -2.1549 -0.3127
 4401SOL    HW215583  10.168   5.125   4.522 -2.0954  0.2371  1.3932
 4402SOL     OW15584   5.296   4.847   4.456  0.2234  0.4371  0.5437
 4402SOL    HW115585   5.328   4.902   4.385  1.0732  0.0065  0.5803
 4402SOL    HW215586   5.203   4.836   4.438  0.6272 -0.6087 -1.1590
 4403SOL     OW15587   3.370   3.316   9.304 -0.0371 -0.3370 -0.4402
 4403SOL    HW115588   3.290   3.364   9.326 -0.5519 -0.8268 -1.1744
 4403SOL    HW215589   3.441   3.374   9.332 -0.6306 -0.4163  1.3375
 4404SOL     OW15590  10.583   4.371   5.637 -0.1643 -0.0287  0.8425
 4404SOL    HW115591  10.577   4.389   5.543  1.5041  0.9935  0.9103
 4404SOL    HW215592  10.515   4.304   5.652 -0.3948 -0.2939 -1.0896
 4405SOL     OW15593   2.468   4.778   7.806 -0.1761  0.0494 -0.3041
 4405SOL    HW115594   2.544   4.815   7.762 -0.8660  1.8220 -0.0883
 4405SOL    HW215595   2.393   4.816   7.761 -0.9095  1.2673  1.7980
 4406SOL     OW15596   6.536   5.994   0.833 -0.3256 -0.3278 -1.1764
 4406SOL    HW115597   6.448   6.011   0.800 -0.6317  0.9239  0.1762
 4406SOL    HW215598   6.522   5.949   0.917  0.3534 -0.9420 -1.3782
 4407SOL     OW15599   4.552   5.274   4.998  0.3507 -0.0040  0.3971
 4407SOL    HW115600   4.607   5.248   5.072 -1.9473  0.2531  2.3555
 4407SOL    HW215601   4.483   5.328   5.038 -0.3460  1.1334 -2.1381
 4408SOL     OW15602   1.048   8.615   5.526 -0.2188 -0.9158 -0.2673
 4408SOL    HW115603   1.004   8.700   5.525 -0.3812 -0.9962 -0.0106
 4408SOL    HW215604   1.067   8.599   5.618  1.6428 -0.2212 -0.4855
 4409SOL     OW15605   6.092   0.278   9.938  0.2375  0.1308  0.1937
 4409SOL    HW115606   6.114   0.370   9.950  0.7035  0.0059  0.3114
 4409SOL    HW215607   6.168   0.231   9.972  0.0232 -0.2952  0.0828
 4410SOL     OW15608   8.530   4.876   5.246 -0.2150  0.0978 -0.4315
 4410SOL    HW115609   8.609   4.852   5.199 -0.4163 -0.6828 -0.3778
 4410SOL    HW215610   8.538   4.833   5.331  0.4503  1.9986  0.5337
 4411SOL     OW15611   8.366   8.678   3.835 -0.1614 -0.3470  0.1140
 4411SOL    HW115612   8.438   8.616   3.822  0.6308  0.6750 -0.5994
 4411SOL    HW215613   8.394   8.757   3.789 -1.7515  0.0929 -0.1572
 4412SOL     OW15614   9.966   8.169   5.016 -0.2208 -0.3832 -0.6193
 4412SOL    HW115615   9.996   8.079   5.033 -0.2645  0.0347  2.1405
 4412SOL    HW215616  10.044   8.214   4.984  0.0552 -1.1566 -1.0694
 4413SOL     OW15617  10.610   4.959   8.644  0.1034 -0.2706  0.4269
 4413SOL    HW115618  10.657   4.889   8.600 -1.9328 -0.8724 -0.9126
 4413SOL    HW215619  10.529   4.970   8.594  0.1181  2.7268  0.8560
 4414SOL     OW15620   7.341   1.034   6.681  0.3368  0.5693  0.2989
 4414SOL    HW115621   7.377   1.064   6.764  0.5283  0.7624  0.1471
 4414SOL    HW215622   7.262   0.987   6.705  0.7326  0.0722  0.6396
 4415SOL     OW15623   5.398   9.395   7.171 -0.6647 -1.0635 -0.0435
 4415SOL    HW115624   5.459   9.339   7.123  1.1336  0.1626  0.7114
 4415SOL    HW215625   5.373   9.463   7.110 -1.1972 -1.4854 -0.3076
 4416SOL     OW15626   0.565   0.846   6.462 -0.4103 -0.8279 -0.3807
 4416SOL    HW115627   0.607   0.761   6.476  1.3095  0.0781  0.2780
 4416SOL    HW215628   0.566   0.888   6.548 -0.7387  0.0780 -0.8055
 4417SOL     OW15629   3.418   1.258   1.731 -0.2465 -0.4848  0.2472
 4417SOL    HW115630   3.348   1.321   1.713 -0.8797 -1.4447 -0.7461
 4417SOL    HW215631   3.378   1.195   1.791  0.3587 -0.0259  1.1619
 4418SOL     OW15632   3.621   2.232   6.887  0.0381  0.0330  0.3002
 4418SOL    HW115633   3.619   2.327   6.874  0.9881  0.5190  2.9995
 4418SOL    HW215634   3.703   2.216   6.934  0.2755 -2.2610 -0.7421
 4419SOL     OW15635   4.672   9.614   3.226 -0.3341 -0.2284  0.0404
 4419SOL    HW115636   4.717   9.604   3.142 -1.1461 -0.6685 -0.3588
 4419SOL    HW215637   4.582   9.635   3.202 -0.2830  0.9513  0.8228
 4420SOL     OW15638   7.338   1.153   6.416  0.4409  0.4863 -0.3581
 4420SOL    HW115639   7.335   1.131   6.509 -2.4251  0.1153 -0.4522
 4420SOL    HW215640   7.396   1.088   6.378  0.2017 -0.5057  0.9036
 4421SOL     OW15641   9.352   9.167   8.874  0.3826  0.2171 -0.4455
 4421SOL    HW115642   9.282   9.138   8.932 -0.6683  0.6594 -1.4660
 4421SOL    HW215643   9.378   9.089   8.826  1.0091 -0.0725  0.3325
 4422SOL     OW15644   5.571   3.627  10.333  0.5949  0.6740  0.3531
 4422SOL    HW115645   5.505   3.639  10.265  0.7291 -0.8372 -0.0975
 4422SOL    HW215646   5.521   3.598  10.410  0.7970 -2.7718 -0.6284
 4423SOL     OW15647   2.623   9.958   3.449 -0.5299 -0.1967 -0.4881
 4423SOL    HW115648   2.556  10.006   3.498 -0.1081  1.4295 -1.4468
 4423SOL    HW215649   2.641  10.012   3.373  0.7134 -1.4093 -1.1006
 4424SOL     OW15650   1.600   4.755   9.994  0.1113  0.0303  0.5361
 4424SOL    HW115651   1.647   4.793  10.067  0.2325 -1.9739  1.5638
 4424SOL    HW215652   1.663   4.697   9.951 -0.2323  0.4616 -0.5977
 4425SOL     OW15653   4.381   4.174   4.542  0.1470  0.5618 -0.2565
 4425SOL    HW115654   4.440   4.101   4.563  1.9571  2.4926  2.0137
 4425SOL    HW215655   4.299   4.151   4.585  0.6089 -0.2550  0.2233
 4426SOL     OW15656   8.076   4.416   9.907  0.4969  0.0416  0.0917
 4426SOL    HW115657   8.070   4.335   9.957  0.1392 -0.1343 -0.2251
 4426SOL    HW215658   8.016   4.476   9.951 -0.5655 -0.4188 -0.6733
 4427SOL     OW15659   1.634   2.395   6.400  0.0661  0.6076  0.0503
 4427SOL    HW115660   1.712   2.394   6.345  1.8043 -0.6734  2.3309
 4427SOL    HW215661   1.615   2.488   6.413  2.3973  1.0482  0.8803
 4428SOL     OW15662  10.743   6.974   3.019 -0.4890 -0.3405  0.3615
 4428SOL    HW115663  10.835   6.997   3.035 -0.8663  1.3818  0.2647
 4428SOL    HW215664  10.746   6.886   2.982  1.1288 -0.2974  0.3292
 4429SOL     OW15665   6.511   6.046   4.717  0.3005  0.3555 -0.1860
 4429SOL    HW115666   6.549   5.973   4.766 -2.7218  0.2845  2.3928
 4429SOL    HW215667   6.444   6.006   4.662  0.7132  0.9142 -1.1200
 4430SOL     OW15668   6.380   7.445   9.341 -0.0704  0.1082  0.1550
 4430SOL    HW115669   6.287   7.430   9.326 -0.0067 -1.3111  1.0172
 4430SOL    HW215670   6.388   7.459   9.436  0.7232 -1.0546  0.2887
 4431SOL     OW15671   8.333  10.184  10.509  0.1560  0.2489  0.5478
 4431SOL    HW115672   8.355  10.266  10.552  0.0067  1.9986 -2.3917
 4431SOL    HW215673   8.264  10.207  10.447 -0.5540 -2.3222  0.2383
 4432SOL     OW15674   1.356   6.448   2.898  0.5394  0.0995 -0.7820
 4432SOL    HW115675   1.339   6.401   2.979 -0.1070  0.5652 -0.6367
 4432SOL    HW215676   1.380   6.537   2.926 -1.2640  0.7450 -1.1013
 4433SOL     OW15677  10.154  10.151   6.164  0.0811  0.1687 -0.1501
 4433SOL    HW115678  10.227  10.092   6.149  0.8763  0.8573  0.7950
 4433SOL    HW215679  10.184  10.236   6.130 -0.5793  0.2919 -0.4434
 4434SOL     OW15680   2.801   8.796   6.412 -0.3355  0.5281  0.0187
 4434SOL    HW115681   2.802   8.889   6.390  0.6515  0.5502  0.1207
 4434SOL    HW215682   2.816   8.793   6.506  3.5168  0.1971 -0.4416
 4435SOL     OW15683   0.012   5.009   2.384  0.3562 -0.0344  0.6845
 4435SOL    HW115684  -0.057   4.948   2.355  0.8882 -0.2068 -0.2659
 4435SOL    HW215685  -0.020   5.095   2.358  0.3557 -0.0843  0.5127
 4436SOL     OW15686   5.163  10.437   4.921 -0.0071  0.3262 -0.1790
 4436SOL    HW115687   5.112  10.416   4.999  0.8342  1.6166  0.7494
 4436SOL    HW215688   5.249  10.398   4.936 -0.2707 -0.6958 -1.1505
 4437SOL     OW15689   2.160   9.054   3.571 -0.3895 -0.1360 -0.3317
 4437SOL    HW115690   2.137   8.969   3.609 -1.1950  0.4258  0.4849
 4437SOL    HW215691   2.078   9.103   3.572  0.3350  1.1034  0.4385
 4438SOL     OW15692   1.154   4.784   7.039 -0.2717  0.2684  0.0711
 4438SOL    HW115693   1.229   4.777   7.099 -0.8995 -1.0104  0.7454
 4438SOL    HW215694   1.152   4.876   7.014  0.9859  0.5054  0.7480
 4439SOL     OW15695   0.346   8.850   8.203  0.1817 -0.2154 -0.1218
 4439SOL    HW115696   0.402   8.778   8.231 -0.1321  0.1081  1.4003
 4439SOL    HW215697   0.405   8.922   8.185  0.5343 -0.9186 -2.0117
 4440SOL     OW15698   7.987   5.927   8.414 -0.1844  0.4365 -0.2133
 4440SOL    HW115699   8.019   5.957   8.499  2.1768  0.1063 -0.9241
 4440SOL    HW215700   8.015   5.835   8.409  0.3887  0.6647 -1.6374
 4441SOL     OW15701  10.164   2.789   1.924  0.1658 -0.2551 -0.1567
 4441SOL    HW115702  10.241   2.794   1.868  0.4359 -0.2217  0.2119
 4441SOL    HW215703  10.179   2.856   1.991 -1.4442  1.6984 -1.6264
 4442SOL     OW15704  10.031   8.976   8.123  0.0679 -0.1365  0.4080
 4442SOL    HW115705  10.005   9.047   8.181  1.5897  0.6271  0.2178
 4442SOL    HW215706  10.075   9.020   8.050 -0.8050 -1.1460 -0.7860
 4443SOL     OW15707   0.035   3.585   7.577  0.3867 -0.0593 -0.0305
 4443SOL    HW115708   0.090   3.634   7.516 -0.0294  0.6029  0.1181
 4443SOL    HW215709  -0.031   3.648   7.607  0.6391 -0.3388  1.1818
 4444SOL     OW15710   9.051   7.891   5.161  0.4332 -0.0246 -0.1568
 4444SOL    HW115711   9.125   7.861   5.108  0.8226  0.4454  0.1170
 4444SOL    HW215712   9.061   7.986   5.165 -0.1953  0.0472 -0.1293
 4445SOL     OW15713   2.960   8.873   4.433 -0.1838  0.5879  0.0875
 4445SOL    HW115714   2.991   8.884   4.343  1.1136 -1.9209  0.1583
 4445SOL    HW215715   2.922   8.785   4.435 -0.5313  0.7422  1.9211
 4446SOL     OW15716   1.750   0.679   5.990  0.2864  0.1942  0.2524
 4446SOL    HW115717   1.669   0.654   5.945 -0.3245  2.6388 -0.1573
 4446SOL    HW215718   1.741   0.643   6.078  0.4582 -2.7025 -0.8183
 4447SOL     OW15719   5.358   2.507   5.351 -0.3389 -0.0794 -0.1944
 4447SOL    HW115720   5.361   2.564   5.274  0.2732 -0.4749 -0.4734
 4447SOL    HW215721   5.436   2.452   5.342 -0.6059 -0.5508  0.3825
 4448SOL     OW15722   1.024   5.599   3.311 -0.0506 -0.1935  0.1232
 4448SOL    HW115723   1.022   5.537   3.238 -0.5820 -0.8680  0.6943
 4448SOL    HW215724   1.116   5.601   3.338  0.0550 -0.3602 -0.2121
 4449SOL     OW15725   1.799  10.502   8.869  0.2686 -0.2994  0.2436
 4449SOL    HW115726   1.805  10.540   8.782  2.3160  1.7914  1.1754
 4449SOL    HW215727   1.857  10.427   8.867 -1.5085 -1.7292 -0.7772
 4450SOL     OW15728   4.089   2.767   4.873  0.8117  0.5674  0.3354
 4450SOL    HW115729   4.055   2.688   4.914 -1.1631  2.0228  1.7126
 4450SOL    HW215730   4.108   2.742   4.783  0.8434 -1.6052  0.9065
 4451SOL     OW15731   2.333   5.418   0.648  0.1065  0.1243  0.1561
 4451SOL    HW115732   2.237   5.418   0.647  0.0749  1.6334  0.7398
 4451SOL    HW215733   2.356   5.361   0.721 -0.2984 -0.8753 -0.4610
 4452SOL     OW15734   6.143   6.311   8.912 -0.2773  0.0305 -0.3046
 4452SOL    HW115735   6.114   6.341   8.999 -0.2516  1.4348 -0.7571
 4452SOL    HW215736   6.203   6.379   8.882 -0.2857 -0.4427 -1.4262
 4453SOL     OW15737   3.860   2.749   3.947  0.1394 -0.3869 -0.4882
 4453SOL    HW115738   3.827   2.675   3.896 -0.2038  0.0998 -0.9899
 4453SOL    HW215739   3.781   2.795   3.976  0.3367  0.5832 -1.3896
 4454SOL     OW15740  10.531   7.278   0.542  0.2941  0.1220  0.6614
 4454SOL    HW115741  10.566   7.238   0.622 -1.5866  0.0087  1.4636
 4454SOL    HW215742  10.437   7.263   0.546  0.1474  0.0779 -1.6210
 4455SOL     OW15743   0.610   7.475   8.288  0.1310  0.1565  0.2571
 4455SOL    HW115744   0.638   7.566   8.285 -0.1557  0.2902  1.3530
 4455SOL    HW215745   0.622   7.449   8.379 -1.4390 -0.3646  0.3521
 4456SOL     OW15746   1.418   7.368   3.576  0.0070  0.6899  0.0170
 4456SOL    HW115747   1.355   7.417   3.629  0.7450  1.1150  0.5329
 4456SOL    HW215748   1.366   7.329   3.507 -0.6845  1.8061 -0.1279
 4457SOL     OW15749  10.745   5.572   2.980 -0.6811 -0.5523  0.0505
 4457SOL    HW115750  10.685   5.577   3.055 -0.6709 -0.2457  0.0372
 4457SOL    HW215751  10.831   5.558   3.020 -0.8998 -2.1493  0.0329
 4458SOL     OW15752   7.790   9.568   4.341 -0.6516 -0.2531  0.3411
 4458SOL    HW115753   7.821   9.659   4.346  0.9844 -0.7966  0.4008
 4458SOL    HW215754   7.803   9.534   4.430  1.7409 -1.4553 -0.3930
 4459SOL     OW15755   7.381   0.514   3.337 -0.2108 -0.1183 -0.4654
 4459SOL    HW115756   7.423   0.577   3.395 -0.8813 -1.5979  1.7290
 4459SOL    HW215757   7.452   0.484   3.280  1.0348 -0.2735  1.0877
 4460SOL     OW15758   8.643  10.710   5.746 -0.2809 -0.0389  0.3061
 4460SOL    HW115759   8.583  10.780   5.718 -1.1919 -1.4272 -1.4145
 4460SOL    HW215760   8.723  10.727   5.696  0.2696  0.9425  1.4703
 4461SOL     OW15761  10.425   3.902   9.121 -0.1926  0.5819  0.6874
 4461SOL    HW115762  10.441   3.932   9.211  1.8368  2.4796 -0.2206
 4461SOL    HW215763  10.377   3.975   9.080 -2.9461 -1.0841  0.6852
 4462SOL     OW15764   2.576   7.759   0.941  0.1435 -0.2541 -0.2638
 4462SOL    HW115765   2.590   7.846   0.978  1.2206 -0.9772  1.1137
 4462SOL    HW215766   2.522   7.774   0.863 -1.4147  1.4468  1.0518
 4463SOL     OW15767   1.084   8.606   8.882  0.1204 -0.1000 -0.3290
 4463SOL    HW115768   1.108   8.612   8.974  0.1529 -1.5132 -0.2251
 4463SOL    HW215769   0.999   8.562   8.882 -0.8028  1.5983 -0.8938
 4464SOL     OW15770   8.348   8.984   6.749 -0.0223 -0.6018 -0.9667
 4464SOL    HW115771   8.315   8.945   6.829  1.8741 -1.2432 -0.4274
 4464SOL    HW215772   8.402   9.058   6.779  1.2241 -1.2331 -1.5665
 4465SOL     OW15773   2.437   6.028  10.461  0.4097  0.4052  0.5234
 4465SOL    HW115774   2.389   5.949  10.439  1.1063 -0.1318  0.9015
 4465SOL    HW215775   2.370   6.088  10.496 -0.1987  0.1832 -0.2345
 4466SOL     OW15776   8.884   6.358   6.216 -0.7486 -0.6547  0.1759
 4466SOL    HW115777   8.830   6.363   6.136 -0.9503  0.7036  0.3728
 4466SOL    HW215778   8.968   6.324   6.185  0.0534  2.2058 -1.1572
 4467SOL     OW15779   5.659   4.541   5.238 -0.0131 -0.7735 -0.1272
 4467SOL    HW115780   5.578   4.586   5.214  0.3807  0.0945  0.1282
 4467SOL    HW215781   5.630   4.468   5.292 -0.7231 -1.2886 -1.1784
 4468SOL     OW15782   6.432   7.482   6.859 -0.7382  0.1521  0.2928
 4468SOL    HW115783   6.404   7.546   6.794  0.6835  0.0874 -0.4055
 4468SOL    HW215784   6.504   7.435   6.818 -0.8313 -0.9456  1.3317
 4469SOL     OW15785   0.511   1.635   2.321 -0.4711  1.1322 -0.0495
 4469SOL    HW115786   0.448   1.569   2.350 -0.0916  0.7174 -0.1731
 4469SOL    HW215787   0.459   1.696   2.268 -1.2657  2.0841  1.7226
 4470SOL     OW15788   6.081   8.795   1.388  0.8615 -0.5967  0.1551
 4470SOL    HW115789   6.006   8.744   1.356 -0.2606 -0.5427  2.5069
 4470SOL    HW215790   6.104   8.853   1.316 -2.7300  0.8644  0.0198
 4471SOL     OW15791   5.034   2.984   5.023 -0.0119  0.6990 -0.4503
 4471SOL    HW115792   5.050   3.018   4.935  1.8405  2.0079  0.3135
 4471SOL    HW215793   5.115   3.002   5.070 -0.8454 -0.2559  1.4431
 4472SOL     OW15794   7.487   9.117   7.411 -0.1296 -0.1143  0.1611
 4472SOL    HW115795   7.454   9.078   7.330  0.0114 -0.7665  0.4095
 4472SOL    HW215796   7.563   9.168   7.384  0.4388 -1.0372 -0.0005
 4473SOL     OW15797   8.995   6.343   2.480 -0.2363 -0.3515  0.0746
 4473SOL    HW115798   9.001   6.435   2.508 -3.0830 -0.3411  1.0362
 4473SOL    HW215799   9.048   6.295   2.544  3.3311  0.7080 -1.8454
 4474SOL     OW15800   0.166  10.109   4.211  0.6176 -0.1177  0.6567
 4474SOL    HW115801   0.187  10.189   4.164  1.5207 -1.1397 -0.7904
 4474SOL    HW215802   0.083  10.079   4.173  0.8296 -0.4180  0.4229
 4475SOL     OW15803  10.204   9.464   5.211 -0.1311 -0.4886  0.0073
 4475SOL    HW115804  10.230   9.462   5.118  1.5004  0.2621  0.4105
 4475SOL    HW215805  10.217   9.374   5.241 -1.6098 -0.9683 -0.7046
 4476SOL     OW15806   2.999   4.852   9.072  0.2200  0.4447  0.0387
 4476SOL    HW115807   3.000   4.756   9.080  0.6772  0.2809 -1.4896
 4476SOL    HW215808   2.943   4.882   9.143 -1.6723 -1.1112 -0.7161
 4477SOL     OW15809   9.190   1.876   9.118  0.1180  0.2718 -0.4354
 4477SOL    HW115810   9.138   1.867   9.198 -1.9751  1.2964 -1.6017
 4477SOL    HW215811   9.267   1.927   9.145 -1.1011  1.5817  0.7224
 4478SOL     OW15812   9.373   6.124   2.397  0.2541  0.2677 -0.1878
 4478SOL    HW115813   9.464   6.128   2.366  0.5799 -1.1775  0.5114
 4478SOL    HW215814   9.328   6.070   2.331 -0.6380  2.6527 -1.6671
 4479SOL     OW15815   0.212   3.137   6.367  0.0274 -0.4842 -0.1163
 4479SOL    HW115816   0.257   3.147   6.283  2.2084 -1.1670  0.8960
 4479SOL    HW215817   0.254   3.060   6.407 -0.9309 -0.1609  1.6069
 4480SOL     OW15818   6.087   5.286   2.651  0.4154 -0.4104  0.7639
 4480SOL    HW115819   6.169   5.237   2.648  0.4527 -0.2901 -0.3962
 4480SOL    HW215820   6.097   5.345   2.726  2.6906  1.8401 -1.1556
 4481SOL     OW15821   9.125   3.296   1.491  0.1119  0.0816 -0.8045
 4481SOL    HW115822   9.173   3.321   1.569  0.3368  1.2392 -1.2926
 4481SOL    HW215823   9.189   3.302   1.420 -0.6728  1.4959 -1.4395
 4482SOL     OW15824   3.406   2.969  10.768 -0.5951 -0.0192 -0.4815
 4482SOL    HW115825   3.374   2.999  10.853  1.9211 -1.0506  0.9425
 4482SOL    HW215826   3.428   3.049  10.720  1.1704  0.6051  1.2299
 4483SOL     OW15827   6.101   0.882   1.514 -0.1649 -0.2367 -0.2829
 4483SOL    HW115828   6.018   0.930   1.514  0.3677  0.8475  2.0778
 4483SOL    HW215829   6.076   0.790   1.515 -1.2957  0.0449 -0.9782
 4484SOL     OW15830   8.223   3.160   2.852  0.4791  0.5751 -0.9044
 4484SOL    HW115831   8.210   3.090   2.916  0.3979  0.8850 -0.5799
 4484SOL    HW215832   8.189   3.239   2.895 -2.9619  0.2289 -2.6325
 4485SOL     OW15833   1.286   8.084   5.157 -0.2548  0.2827 -0.3738
 4485SOL    HW115834   1.311   8.068   5.066 -2.0468 -0.9424 -0.7121
 4485SOL    HW215835   1.314   8.006   5.204 -0.2759  0.4568 -0.0690
 4486SOL     OW15836   7.995   2.992   1.365  0.1449 -0.0056 -0.2580
 4486SOL    HW115837   7.947   3.056   1.417  0.5078 -1.2689  1.7325
 4486SOL    HW215838   7.930   2.926   1.341 -0.1198  0.7887 -1.8691
 4487SOL     OW15839   0.213   1.757  10.452 -0.3658 -0.5115 -0.4656
 4487SOL    HW115840   0.288   1.811  10.427 -2.1035  1.0483 -2.6712
 4487SOL    HW215841   0.214   1.684  10.390 -0.9762 -0.1515 -0.9159
 4488SOL     OW15842   9.279   6.492  10.766  0.1191  0.1480  0.2841
 4488SOL    HW115843   9.323   6.498  10.682 -0.9030 -1.9383 -0.4688
 4488SOL    HW215844   9.197   6.540  10.754  0.4183  0.6917  0.4140
 4489SOL     OW15845   5.466   5.859   7.806 -1.0221  0.0340 -0.0216
 4489SOL    HW115846   5.507   5.774   7.825  0.2280  0.3185 -1.2399
 4489SOL    HW215847   5.373   5.840   7.802 -0.8902 -0.9957  1.1242
 4490SOL     OW15848   1.973   7.549   4.191 -0.0959 -0.4093  0.4731
 4490SOL    HW115849   2.048   7.574   4.139 -1.1677  1.2691 -0.3407
 4490SOL    HW215850   1.919   7.496   4.132  0.0779 -0.9609  0.8065
 4491SOL     OW15851   7.388   9.291   3.187 -0.1585  0.0717  0.3522
 4491SOL    HW115852   7.368   9.339   3.107 -0.1867  0.3380  0.5189
 4491SOL    HW215853   7.441   9.351   3.239  0.4164 -0.3365  0.2533
 4492SOL     OW15854   4.634   8.425   4.917  0.1458 -0.3460 -0.3653
 4492SOL    HW115855   4.671   8.337   4.912  1.8166  0.2544  0.4451
 4492SOL    HW215856   4.630   8.443   5.011 -0.1299  0.4493 -0.5243
 4493SOL     OW15857   4.861   8.967   8.262  0.4987  0.0716  0.0992
 4493SOL    HW115858   4.854   9.004   8.350 -1.1536  0.7374 -0.2840
 4493SOL    HW215859   4.875   9.043   8.205  0.6069 -0.2536 -0.3122
 4494SOL     OW15860   0.487  10.282   2.941  0.3468  0.1500  0.3434
 4494SOL    HW115861   0.471  10.372   2.913 -0.4711 -0.0371  0.1708
 4494SOL    HW215862   0.575  10.262   2.908  0.0041  0.4430 -0.7940
 4495SOL     OW15863   9.054   8.449   5.786  0.5204  0.8844 -0.0338
 4495SOL    HW115864   8.995   8.524   5.787 -0.0427  0.4485  0.5256
 4495SOL    HW215865   9.031   8.401   5.707 -0.3573  0.3582  0.5199
 4496SOL     OW15866   8.087   0.994  10.364  0.6580 -0.1100  0.2367
 4496SOL    HW115867   8.000   1.030  10.381 -0.1918 -0.7317 -2.3623
 4496SOL    HW215868   8.086   0.909  10.410 -0.8402 -0.9279 -1.1847
 4497SOL     OW15869   0.984   6.449   8.632  0.1608  0.3832  0.1146
 4497SOL    HW115870   0.908   6.390   8.627 -2.3756  3.3528  0.1841
 4497SOL    HW215871   0.973   6.508   8.558  0.9294  2.4762  1.5716
 4498SOL     OW15872   3.756   4.157   2.472  0.1729 -0.1066  0.0885
 4498SOL    HW115873   3.735   4.251   2.469  0.2713 -0.1011 -0.6620
 4498SOL    HW215874   3.670   4.114   2.472  0.1256 -0.0205  0.5426
 4499SOL     OW15875   1.279   9.225  10.312  0.0645  0.0693 -0.3377
 4499SOL    HW115876   1.235   9.166  10.250 -1.6806 -1.2828  2.0249
 4499SOL    HW215877   1.222   9.302  10.316 -0.2622 -0.1910  0.1450
 4500SOL     OW15878   9.141  10.541   2.891 -0.0259  0.2418  0.5944
 4500SOL    HW115879   9.127  10.537   2.796 -1.0441 -0.7600  0.7623
 4500SOL    HW215880   9.205  10.472   2.909 -0.7869 -0.4317  0.7763
 4501SOL     OW15881   8.156   0.439   6.127 -0.0315 -0.1703  0.5154
 4501SOL    HW115882   8.073   0.397   6.148 -1.4504  1.5577 -1.1768
 4501SOL    HW215883   8.190   0.469   6.212 -1.7735  0.1375  1.1542
 4502SOL     OW15884  10.696   1.109  10.370 -0.0265 -0.0675  0.1260
 4502SOL    HW115885  10.713   1.016  10.355 -0.6118 -0.3761  1.2385
 4502SOL    HW215886  10.783   1.147  10.384  0.1650 -0.5823  0.3635
 4503SOL     OW15887   8.304   1.061   7.173 -0.3342  0.8427 -0.4261
 4503SOL    HW115888   8.314   1.019   7.258  1.0150  1.6064 -0.1951
 4503SOL    HW215889   8.227   1.018   7.134 -1.5066  1.0754  1.5057
 4504SOL     OW15890   8.101   2.720  10.108 -0.1950  0.3041 -0.4223
 4504SOL    HW115891   8.028   2.699  10.049 -2.5330 -0.7277  2.5591
 4504SOL    HW215892   8.069   2.795  10.159  0.7763 -0.2367  1.0249
 4505SOL     OW15893   6.668   1.959   3.306  0.1433 -0.4428 -1.0908
 4505SOL    HW115894   6.690   2.041   3.350 -0.8653 -1.3547  1.2993
 4505SOL    HW215895   6.742   1.944   3.246  0.8030  1.7014 -0.9226
 4506SOL     OW15896   5.747   0.683   9.688  0.3038  0.2181 -0.1185
 4506SOL    HW115897   5.739   0.756   9.749  1.6061  0.3629 -0.1094
 4506SOL    HW215898   5.784   0.612   9.739  0.2447 -0.0514 -0.4447
 4507SOL     OW15899   6.291   2.689   3.169 -0.7172 -0.3952 -0.3007
 4507SOL    HW115900   6.217   2.740   3.201  1.3535  1.7518  1.4750
 4507SOL    HW215901   6.352   2.755   3.135  0.1857 -2.1263 -2.2418
 4508SOL     OW15902   1.956   6.747   8.490  0.0548 -0.1867 -0.4825
 4508SOL    HW115903   2.013   6.677   8.522  0.2365 -0.0625 -0.5339
 4508SOL    HW215904   1.969   6.747   8.395  0.9348  0.6776 -0.3732
 4509SOL     OW15905   2.505   4.817   1.490  0.2294  0.3323 -0.0663
 4509SOL    HW115906   2.567   4.783   1.555  2.2545  0.5548 -1.7533
 4509SOL    HW215907   2.422   4.822   1.536  1.9112  2.3221  3.1246
 4510SOL     OW15908   0.507   1.417   5.092  0.0369  0.0604 -0.5368
 4510SOL    HW115909   0.601   1.415   5.074 -0.0005 -0.2727 -0.7085
 4510SOL    HW215910   0.487   1.509   5.108  0.5447  0.0276  0.3266
 4511SOL     OW15911   6.907   5.069   1.030 -0.4091  0.2598 -0.3867
 4511SOL    HW115912   6.961   5.086   1.107  0.4259 -3.7590  0.1588
 4511SOL    HW215913   6.825   5.114   1.048  0.4139  0.9848  1.9786
 4512SOL     OW15914   8.189   5.730   7.358  0.0065 -0.7253 -0.0334
 4512SOL    HW115915   8.112   5.720   7.414 -2.7751 -0.4851 -3.4194
 4512SOL    HW215916   8.198   5.825   7.346  0.5097 -0.7757 -0.0922
 4513SOL     OW15917   6.462   5.449   5.456 -0.8499  1.1016 -0.0166
 4513SOL    HW115918   6.371   5.437   5.427 -0.0045 -1.0625 -2.0692
 4513SOL    HW215919   6.507   5.486   5.379  0.0587  2.0623  0.9443
 4514SOL     OW15920   4.299   2.662   5.430  0.3352 -0.0159  0.1020
 4514SOL    HW115921   4.269   2.709   5.507 -0.5011  0.5167 -0.5312
 4514SOL    HW215922   4.247   2.698   5.358  0.7617 -0.8337 -0.6347
 4515SOL     OW15923   4.757   1.106   1.427 -0.7593 -0.1014  0.0061
 4515SOL    HW115924   4.736   1.035   1.488  0.4208 -0.5377 -0.0788
 4515SOL    HW215925   4.693   1.097   1.357  0.2439 -1.9839 -0.7200
 4516SOL     OW15926   0.300   5.077   8.791  0.5921  0.0953 -0.8947
 4516SOL    HW115927   0.349   5.045   8.715  0.1695 -0.1589 -1.0655
 4516SOL    HW215928   0.367   5.106   8.852  0.9458  0.0736 -1.2654
 4517SOL     OW15929   6.859   1.928   5.804 -0.8355 -0.1829 -0.1314
 4517SOL    HW115930   6.846   1.994   5.872 -0.8887  0.4360 -0.7351
 4517SOL    HW215931   6.929   1.872   5.838 -1.0401 -0.0392  0.5443
 4518SOL     OW15932   7.970  10.716   4.112 -0.3624  0.2412  0.3567
 4518SOL    HW115933   8.052  10.714   4.062  0.6072  0.2120  1.8730
 4518SOL    HW215934   7.901  10.711   4.046  0.8628 -0.2872 -0.9299
 4519SOL     OW15935   2.383   4.913  10.343 -0.6324 -0.5601  0.2933
 4519SOL    HW115936   2.313   4.886  10.402 -0.5922 -1.0466  0.1154
 4519SOL    HW215937   2.410   4.833  10.299  1.6858 -0.8818  2.1044
 4520SOL     OW15938   4.284   1.892   4.486 -0.4617  0.2454  1.0418
 4520SOL    HW115939   4.339   1.826   4.529 -0.6281  1.7553  3.8626
 4520SOL    HW215940   4.197   1.878   4.525 -1.9465 -1.2769 -2.3965
 4521SOL     OW15941   4.360   5.228   8.547 -0.0217  0.4910 -0.2601
 4521SOL    HW115942   4.427   5.295   8.564  0.0745  1.0709 -2.5466
 4521SOL    HW215943   4.311   5.221   8.629  0.4732  2.7813  0.2994
 4522SOL     OW15944   0.413   3.381   0.059 -0.7730  0.2182 -0.2783
 4522SOL    HW115945   0.346   3.362   0.124 -0.8608  0.9193 -0.1562
 4522SOL    HW215946   0.401   3.315  -0.009 -0.5120 -0.6977  0.5320
 4523SOL     OW15947   9.470   8.409   1.263  0.2001  0.0693 -0.0445
 4523SOL    HW115948   9.389   8.416   1.212 -0.4214  0.6750  0.9921
 4523SOL    HW215949   9.511   8.495   1.255  0.3031  0.0390  0.1576
 4524SOL     OW15950   2.575   7.907   9.492  0.0619  0.1807  0.3457
 4524SOL    HW115951   2.591   7.906   9.586 -2.4758 -0.9215  0.8400
 4524SOL    HW215952   2.524   7.986   9.477  0.0800  0.1210 -0.0409
 4525SOL     OW15953   5.845   6.367   3.156  0.8679  0.1668  0.4446
 4525SOL    HW115954   5.908   6.382   3.227  0.2283  1.2243  0.8163
 4525SOL    HW215955   5.772   6.321   3.198  1.2676 -0.8357  0.0663
 4526SOL     OW15956   2.503   6.031   3.567 -0.3942  0.2112  0.4494
 4526SOL    HW115957   2.499   6.032   3.663  0.6383  0.5861  0.4963
 4526SOL    HW215958   2.498   6.123   3.542 -0.0247  0.1576  0.1732
 4527SOL     OW15959   6.780   2.064   9.291  0.1462 -0.4557  0.0986
 4527SOL    HW115960   6.816   1.995   9.236  0.0849  1.6144 -2.7911
 4527SOL    HW215961   6.692   2.079   9.255 -0.7314 -0.3545  2.1461
 4528SOL     OW15962   2.968   6.317   8.979 -0.1865 -0.0618 -0.0745
 4528SOL    HW115963   2.980   6.286   8.889  1.4541  0.5884 -0.0974
 4528SOL    HW215964   2.968   6.237   9.032 -1.4682 -0.4728 -0.6521
 4529SOL     OW15965   1.374   3.110   1.135 -0.0675 -1.1183 -0.3486
 4529SOL    HW115966   1.300   3.094   1.076  0.9014 -0.9087 -1.6607
 4529SOL    HW215967   1.345   3.182   1.190  0.5282  1.8090 -3.5146
 4530SOL     OW15968   4.878   5.249   4.429 -0.1377  0.2425  0.1176
 4530SOL    HW115969   4.895   5.159   4.458  2.4416  0.6090 -0.0123
 4530SOL    HW215970   4.873   5.300   4.510  1.4871  0.4076  0.1483
 4531SOL     OW15971   1.912   7.173   3.022  0.1863 -0.4038  0.0155
 4531SOL    HW115972   1.857   7.251   3.012  0.9364  0.2804  1.0633
 4531SOL    HW215973   1.988   7.204   3.072 -0.0268 -2.0387  1.4316
 4532SOL     OW15974  10.514   9.812   0.297  0.3687  0.2507 -0.3877
 4532SOL    HW115975  10.488   9.761   0.373  0.6353 -0.4473 -0.7505
 4532SOL    HW215976  10.454   9.785   0.228  1.7406 -1.0676 -1.1200
 4533SOL     OW15977   8.153   7.483   5.436  0.0912 -0.3500 -0.9509
 4533SOL    HW115978   8.214   7.410   5.427  0.1979 -0.4351  0.2700
 4533SOL    HW215979   8.172   7.519   5.522  0.1857  1.2681 -1.6264
 4534SOL     OW15980  10.745   5.391   7.528 -0.0466  0.0589 -0.3714
 4534SOL    HW115981  10.836   5.421   7.531 -0.0079 -0.0567 -0.4020
 4534SOL    HW215982  10.694   5.468   7.552  0.0659  0.0934 -0.2421
 4535SOL     OW15983   3.265   5.673   4.884 -0.0855  0.5887 -0.6709
 4535SOL    HW115984   3.274   5.749   4.942 -1.1498  0.3965 -0.2242
 4535SOL    HW215985   3.183   5.632   4.913  0.2634 -0.4790 -1.1968
 4536SOL     OW15986   2.533   7.260   3.553  0.4984 -0.1957  0.1181
 4536SOL    HW115987   2.574   7.217   3.478 -0.7564  0.4229 -0.9494
 4536SOL    HW215988   2.514   7.348   3.522 -0.0383  0.0657  1.1754
 4537SOL     OW15989   8.040   7.409   3.643  0.0642 -0.3953 -0.2894
 4537SOL    HW115990   8.076   7.351   3.709 -1.2800 -0.3862  0.5026
 4537SOL    HW215991   7.982   7.354   3.591 -0.3064 -0.0270 -0.2792
 4538SOL     OW15992   4.760   7.647   9.918  0.0633  0.6438  0.0708
 4538SOL    HW115993   4.809   7.728   9.902 -0.3089  0.7046 -0.8527
 4538SOL    HW215994   4.768   7.598   9.836 -2.1815  1.0766 -0.4963
 4539SOL     OW15995   8.064   6.380   3.349  0.1302 -0.0352 -0.6518
 4539SOL    HW115996   8.135   6.371   3.412 -0.8388  1.4309  0.7330
 4539SOL    HW215997   8.086   6.320   3.278  1.3067 -1.6832  1.0352
 4540SOL     OW15998   5.155   2.483  10.512 -0.5520 -0.4290 -0.4913
 4540SOL    HW115999   5.135   2.498  10.604 -1.4635 -0.4576 -0.6712
 4540SOL    HW216000   5.242   2.444  10.512  0.2405  1.2341  0.2416
 4541SOL     OW16001   5.899   8.445  10.303 -0.0995 -0.5225  0.3164
 4541SOL    HW116002   5.862   8.533  10.291 -1.2281 -1.0633 -0.3203
 4541SOL    HW216003   5.824   8.390  10.325  0.3968 -1.5579 -0.4866
 4542SOL     OW16004   4.494   2.379   1.137 -0.2400 -0.3053 -0.3499
 4542SOL    HW116005   4.530   2.455   1.182 -0.1447 -0.6737  0.2039
 4542SOL    HW216006   4.502   2.307   1.200 -1.3302 -0.5445 -0.4605
 4543SOL     OW16007   2.371   9.230   3.149  0.1966 -0.0402 -0.5103
 4543SOL    HW116008   2.462   9.208   3.169 -0.0075  0.4380  1.0967
 4543SOL    HW216009   2.321   9.185   3.217 -0.6084  1.2578 -0.2190
 4544SOL     OW16010   1.168   1.842   1.150  0.2374  0.4707 -0.3316
 4544SOL    HW116011   1.113   1.920   1.149 -0.5444 -0.0206 -2.6620
 4544SOL    HW216012   1.182   1.823   1.242 -1.0354  2.3166  0.2985
 4545SOL     OW16013   5.558   5.443   2.048  0.1307  0.4771  0.3550
 4545SOL    HW116014   5.629   5.447   1.983  0.2789  0.7542  0.5327
 4545SOL    HW216015   5.533   5.351   2.050 -0.3742  0.5727 -0.6302
 4546SOL     OW16016   4.805   0.929   6.084  0.2211 -0.0435  0.0365
 4546SOL    HW116017   4.739   0.897   6.146  1.4244 -0.3165  1.2407
 4546SOL    HW216018   4.789   1.023   6.078  0.7204  0.1693  1.6101
 4547SOL     OW16019   4.822   0.632   9.964  0.0837  0.3481  0.2397
 4547SOL    HW116020   4.743   0.676   9.931  0.0023  0.1232  0.1286
 4547SOL    HW216021   4.791   0.579  10.037  0.2586  0.8150  0.6572
 4548SOL     OW16022   8.628   0.828   3.233 -0.4103  0.2713 -0.7707
 4548SOL    HW116023   8.614   0.750   3.288 -0.1076  0.6563 -0.1442
 4548SOL    HW216024   8.606   0.902   3.289 -3.6696  0.5960 -2.2465
 4549SOL     OW16025   6.788   6.001   7.912 -0.0087  0.1054 -0.6614
 4549SOL    HW116026   6.729   5.952   7.969  0.1264  0.6012 -0.0905
 4549SOL    HW216027   6.847   6.046   7.972 -0.3689  1.2780 -1.1548
 4550SOL     OW16028   0.570   0.652   1.051 -0.2968 -0.1909 -0.0922
 4550SOL    HW116029   0.634   0.646   1.122 -1.0649  1.3450  0.7827
 4550SOL    HW216030   0.604   0.593   0.984  1.6089 -0.0334  0.6498
 4551SOL     OW16031   2.389   4.831   3.818 -0.3659  0.6090 -0.5313
 4551SOL    HW116032   2.361   4.922   3.822  0.5115  0.8636  0.1015
 4551SOL    HW216033   2.462   4.825   3.880  0.1802 -0.3092 -1.2301
 4552SOL     OW16034   7.238   8.748   8.725  0.0605 -0.3443  0.0487
 4552SOL    HW116035   7.146   8.768   8.709 -0.2290 -0.3560  1.5416
 4552SOL    HW216036   7.264   8.695   8.650 -1.3114 -0.8455 -0.1049
 4553SOL     OW16037   3.096   7.260   3.300  0.4204 -0.1613 -0.1032
 4553SOL    HW116038   3.038   7.242   3.226 -0.9205 -0.1045  0.8981
 4553SOL    HW216039   3.062   7.205   3.371 -0.9723  2.8190  1.7180
 4554SOL     OW16040   0.341   2.205   3.066  0.1866 -0.0119 -0.7102
 4554SOL    HW116041   0.381   2.266   3.128 -0.1191  1.2846 -1.7359
 4554SOL    HW216042   0.247   2.212   3.082  0.1278  0.0793 -1.0784
 4555SOL     OW16043   6.561   0.359   2.227 -0.3452 -0.3446  0.3766
 4555SOL    HW116044   6.642   0.314   2.249 -0.6261 -0.8670  0.3457
 4555SOL    HW216045   6.494   0.291   2.227 -0.6910 -0.0131 -0.1612
 4556SOL     OW16046   3.647   0.643  10.623  0.3090 -0.0505 -0.0922
 4556SOL    HW116047   3.603   0.691  10.694  0.6131  1.3236 -0.7994
 4556SOL    HW216048   3.740   0.662  10.635  0.4712 -0.7663 -0.1784
 4557SOL     OW16049  10.213   6.510   1.039  0.4463 -0.3460 -0.2266
 4557SOL    HW116050  10.154   6.441   1.070 -0.5779  1.3719  1.9598
 4557SOL    HW216051  10.279   6.518   1.108  0.4898  0.8992 -0.3868
 4558SOL     OW16052   2.849   3.351   1.836 -0.0745  0.0516 -0.1306
 4558SOL    HW116053   2.885   3.430   1.795 -1.6601  0.1440 -1.4213
 4558SOL    HW216054   2.842   3.288   1.765 -3.4711  0.4168 -0.2679
 4559SOL     OW16055   8.209   0.061   1.657 -0.0464  0.4426 -0.5763
 4559SOL    HW116056   8.176  -0.017   1.613  0.2236 -0.8277  1.3515
 4559SOL    HW216057   8.142   0.082   1.722 -0.1245  1.8595 -1.0761
 4560SOL     OW16058   8.972   5.178   3.443 -0.2671  0.0345 -0.3256
 4560SOL    HW116059   8.956   5.094   3.486  0.1502  0.5971  0.9845
 4560SOL    HW216060   8.931   5.169   3.357 -1.1685 -1.1190  0.1965
 4561SOL     OW16061   5.258  10.733   6.878 -0.2094 -0.0243  0.1536
 4561SOL    HW116062   5.246  10.641   6.901  2.2241 -0.0184  1.8403
 4561SOL    HW216063   5.307  10.732   6.796  0.1834 -0.2482  0.3905
 4562SOL     OW16064   9.907   0.593   1.363 -0.6092  0.0615  0.2300
 4562SOL    HW116065   9.942   0.539   1.292 -0.7434 -0.3400  0.4658
 4562SOL    HW216066   9.814   0.572   1.365 -0.9070  1.1914 -0.4533
 4563SOL     OW16067   2.543  10.253   0.593  0.2436 -0.0993 -0.1779
 4563SOL    HW116068   2.568  10.327   0.649 -0.1763 -1.1864  1.5095
 4563SOL    HW216069   2.447  10.254   0.594  0.2385 -0.3584 -0.5743
 4564SOL     OW16070   9.307   9.738   0.588  0.2786  0.3473  0.1441
 4564SOL    HW116071   9.282   9.766   0.676  0.8100  0.4023  0.2831
 4564SOL    HW216072   9.401   9.756   0.583  0.0638  1.2943 -0.7952
 4565SOL     OW16073   5.569  10.407   5.100 -0.5017  0.0374 -0.3972
 4565SOL    HW116074   5.473  10.412   5.101 -0.5635 -0.9083  0.7084
 4565SOL    HW216075   5.589  10.330   5.152  0.9359  1.4163  1.2045
 4566SOL     OW16076   1.760   3.506   1.658 -0.0210  0.3516 -0.4999
 4566SOL    HW116077   1.676   3.495   1.703 -0.2990  2.0191 -0.5364
 4566SOL    HW216078   1.825   3.476   1.721 -0.5440  0.6576  0.2006
 4567SOL     OW16079   5.405   4.401   8.526 -0.0371  0.5418  0.3846
 4567SOL    HW116080   5.443   4.323   8.486 -0.4529  0.9612 -0.8805
 4567SOL    HW216081   5.339   4.430   8.463 -0.7231  1.2253  1.4006
 4568SOL     OW16082   9.514   3.708   6.870 -0.3044 -0.0309 -0.0418
 4568SOL    HW116083   9.556   3.624   6.889 -0.9335 -0.8758 -2.1082
 4568SOL    HW216084   9.548   3.733   6.784  1.4361  2.9247  1.3571
 4569SOL     OW16085   3.272   9.000   7.039  0.0001  0.4240  0.5776
 4569SOL    HW116086   3.294   9.012   6.946 -0.2192  0.1536  0.4890
 4569SOL    HW216087   3.301   9.081   7.081  0.6436  0.3034  0.3763
 4570SOL     OW16088   5.103   2.430   6.792  0.2306  0.0609  0.1079
 4570SOL    HW116089   5.102   2.503   6.730  2.6079  0.5575  0.5710
 4570SOL    HW216090   5.151   2.361   6.748 -1.8291 -1.2498 -0.2420
 4571SOL     OW16091   2.426   6.168   1.936 -0.0514  0.1382  0.2917
 4571SOL    HW116092   2.359   6.137   1.996 -1.4328  0.4612 -1.0172
 4571SOL    HW216093   2.509   6.144   1.978 -0.8762  1.5201  2.9713
 4572SOL     OW16094   4.358   8.745   7.628 -0.6195  0.9514 -0.3813
 4572SOL    HW116095   4.400   8.821   7.669 -0.4898  0.5392  0.2544
 4572SOL    HW216096   4.272   8.776   7.602 -0.5793  1.3122 -0.0931
 4573SOL     OW16097   6.316   7.678   1.966 -0.1831 -0.8796 -0.2731
 4573SOL    HW116098   6.404   7.640   1.965  0.3526  0.3159 -1.6723
 4573SOL    HW216099   6.266   7.619   2.022  2.1120 -0.1152  2.8722
 4574SOL     OW16100   0.053   2.061   0.469 -0.1932 -0.6266  0.0230
 4574SOL    HW116101  -0.041   2.047   0.477 -0.3782  0.1854 -0.6250
 4574SOL    HW216102   0.065   2.155   0.480  0.5517 -0.7267  0.1536
 4575SOL     OW16103   9.954   4.771   1.822  0.1768  0.3676  0.0993
 4575SOL    HW116104   9.924   4.813   1.741 -0.1134  0.3538  0.1961
 4575SOL    HW216105   9.993   4.689   1.793 -0.0182  0.3152 -0.0176
 4576SOL     OW16106   5.222   2.774   9.377  0.3827 -0.2245  0.2269
 4576SOL    HW116107   5.304   2.730   9.357  0.4725  0.5693 -1.3632
 4576SOL    HW216108   5.159   2.735   9.316  0.0384  0.5194  0.0898
 4577SOL     OW16109   3.195   1.448   7.816  0.0204 -0.7733 -0.1520
 4577SOL    HW116110   3.270   1.401   7.853  1.0084  1.3201  0.6915
 4577SOL    HW216111   3.121   1.420   7.869  1.1491  1.0017  2.5517
 4578SOL     OW16112   3.829   2.170   5.457  0.5856  0.0158  0.0119
 4578SOL    HW116113   3.801   2.225   5.384 -0.6227  1.1034  1.2321
 4578SOL    HW216114   3.776   2.091   5.448  0.8290 -0.0897 -0.5734
 4579SOL     OW16115   5.300   5.080   9.248  0.4187  0.4852 -0.3929
 4579SOL    HW116116   5.297   5.127   9.165 -2.3392 -0.4681 -0.9379
 4579SOL    HW216117   5.243   5.004   9.235  0.6804 -0.2330  2.0768
 4580SOL     OW16118   9.148  10.560   7.878 -0.2186 -0.0850  0.4767
 4580SOL    HW116119   9.185  10.633   7.928 -0.7434  3.4956 -3.7061
 4580SOL    HW216120   9.223  10.514   7.843  0.1197 -0.8990  2.1736
 4581SOL     OW16121   6.053   0.803  10.115  0.1957 -0.6453  0.6359
 4581SOL    HW116122   6.096   0.861  10.178 -0.1240  1.0594 -0.6314
 4581SOL    HW216123   6.021   0.730  10.168  0.7322  0.2605  2.2951
 4582SOL     OW16124   5.362   6.603   6.979  0.0062 -0.3959 -0.1971
 4582SOL    HW116125   5.407   6.574   7.059 -0.0231  0.2176  0.0501
 4582SOL    HW216126   5.346   6.697   6.994 -0.3268 -0.3600 -0.7708
 4583SOL     OW16127  10.739   3.837   4.108 -0.3452  0.3428  0.2517
 4583SOL    HW116128  10.803   3.773   4.077 -0.2556  1.0724 -1.1658
 4583SOL    HW216129  10.753   3.841   4.202 -1.2064 -2.6083  0.5892
 4584SOL     OW16130   0.628   0.916   3.028 -0.0731 -0.1905  0.2983
 4584SOL    HW116131   0.533   0.909   3.041 -0.2448  0.0464 -0.6963
 4584SOL    HW216132   0.646   0.856   2.955  0.8943 -1.8762  1.8465
 4585SOL     OW16133   3.175   4.182   5.854 -0.5847  0.0385 -0.2921
 4585SOL    HW116134   3.092   4.216   5.888 -0.2954 -0.2843  0.7731
 4585SOL    HW216135   3.240   4.246   5.884 -0.3978  0.1025 -0.8247
 4586SOL     OW16136   1.829   3.343   2.576 -0.6041 -0.5942  0.0633
 4586SOL    HW116137   1.918   3.356   2.610 -0.2336 -4.3671  1.0043
 4586SOL    HW216138   1.777   3.323   2.653 -2.1250  0.6499 -0.5897
 4587SOL     OW16139   4.561   8.616  10.330 -0.0610  0.1923  0.2985
 4587SOL    HW116140   4.513   8.649  10.254  2.1925 -0.3572 -1.4792
 4587SOL    HW216141   4.650   8.649  10.319  1.2085 -2.7014  0.7974
 4588SOL     OW16142   3.115   1.259  10.476 -0.1208  0.1852  0.6047
 4588SOL    HW116143   3.133   1.328  10.539  0.7045  0.1072  0.4594
 4588SOL    HW216144   3.171   1.186  10.503 -2.7481 -1.4037  2.2927
 4589SOL     OW16145   0.608   0.586   2.006 -0.4272  0.1397 -0.5607
 4589SOL    HW116146   0.698   0.588   2.039 -0.9974  0.8797  1.0086
 4589SOL    HW216147   0.583   0.678   2.000 -0.7282 -0.0087 -2.0892
 4590SOL     OW16148   3.143   0.940   1.087 -0.2136  0.2923 -0.2258
 4590SOL    HW116149   3.057   0.981   1.085 -0.4713 -0.1871  0.4686
 4590SOL    HW216150   3.128   0.851   1.054 -0.0908  0.0544  0.3342
 4591SOL     OW16151  10.268   8.453   6.370  0.4401 -0.7221 -0.1190
 4591SOL    HW116152  10.240   8.394   6.300  0.3668  0.0287 -0.7444
 4591SOL    HW216153  10.244   8.540   6.339 -0.6099 -0.4580  1.3483
 4592SOL     OW16154   6.324   9.775   6.032  0.3865  0.3280  0.2412
 4592SOL    HW116155   6.312   9.765   6.127 -1.3489 -1.7291 -0.1176
 4592SOL    HW216156   6.235   9.773   5.997  1.0613 -3.2008 -1.7368
 4593SOL     OW16157   2.952   5.301   3.220 -0.0612  0.7434  0.1385
 4593SOL    HW116158   2.998   5.304   3.136 -0.1342  0.3804  0.0856
 4593SOL    HW216159   3.022   5.293   3.285  0.1416  2.9932  0.2709
 4594SOL     OW16160   1.670   5.389   2.380  0.3922  0.1767  0.1975
 4594SOL    HW116161   1.701   5.479   2.370 -0.6328  0.5810  0.5633
 4594SOL    HW216162   1.669   5.354   2.291  0.1831  0.7433 -0.0302
 4595SOL     OW16163   0.700   6.821   4.984  0.3068 -0.3115 -0.2324
 4595SOL    HW116164   0.721   6.915   4.985 -1.2986  0.0747 -0.4256
 4595SOL    HW216165   0.625   6.813   5.042  1.7950 -1.8658  1.5861
 4596SOL     OW16166   2.229   4.482   8.703  0.2102  0.2645  0.2167
 4596SOL    HW116167   2.269   4.458   8.786 -1.3568 -1.4312  0.5502
 4596SOL    HW216168   2.274   4.562   8.676  2.5934 -0.6055  1.3592
 4597SOL     OW16169   4.828   1.310   5.726  0.0027 -0.3541  0.1215
 4597SOL    HW116170   4.774   1.305   5.648  0.5153 -1.9120 -0.1708
 4597SOL    HW216171   4.801   1.234   5.778  0.8128 -0.2664  0.6872
 4598SOL     OW16172   2.724   9.091   2.902  0.1043 -0.1077 -0.3512
 4598SOL    HW116173   2.675   9.124   2.977 -0.1324 -1.6406  0.1899
 4598SOL    HW216174   2.798   9.043   2.940  2.6760  2.8419 -1.1231
 4599SOL     OW16175   7.149   6.565   6.269 -0.1557 -0.4692  0.5129
 4599SOL    HW116176   7.123   6.637   6.211  1.8066  1.2789  1.6704
 4599SOL    HW216177   7.067   6.525   6.295 -1.2308  0.3117 -1.4268
 4600SOL     OW16178   4.546   5.804   5.815 -0.5044  0.3073 -0.0465
 4600SOL    HW116179   4.471   5.758   5.778 -1.9696  0.4812  2.4672
 4600SOL    HW216180   4.513   5.893   5.832  1.1588  1.2420 -1.4375
 4601SOL     OW16181   5.502   3.179   2.582 -0.0423 -0.6298 -0.0979
 4601SOL    HW116182   5.414   3.214   2.566 -0.0124 -0.6301 -0.2631
 4601SOL    HW216183   5.560   3.255   2.581 -0.3587 -0.2463  2.6573
 4602SOL     OW16184   4.800   5.035   7.137  0.6818 -0.1521 -0.1350
 4602SOL    HW116185   4.882   5.082   7.123  0.4573  0.2957  0.0275
 4602SOL    HW216186   4.773   5.060   7.226  1.1710 -1.5369  0.4266
 4603SOL     OW16187   8.154  10.416   0.185 -0.2556  0.6550  0.4452
 4603SOL    HW116188   8.149  10.478   0.257  0.5972  0.8739  0.3267
 4603SOL    HW216189   8.190  10.466   0.112  1.1595 -0.1525  0.5630
 4604SOL     OW16190   9.145   0.176   2.569  0.4036 -0.5611 -0.1126
 4604SOL    HW116191   9.062   0.130   2.581  0.3279 -0.6297 -0.8759
 4604SOL    HW216192   9.200   0.114   2.522  1.1007 -0.7455  0.9275
 4605SOL     OW16193   7.250   8.999   6.469  0.0337  0.2181 -0.3300
 4605SOL    HW116194   7.252   9.085   6.428 -0.9599  0.3858 -0.0594
 4605SOL    HW216195   7.173   8.957   6.431  0.3023 -0.4157 -0.1847
 4606SOL     OW16196  10.782   9.086   9.448 -0.2290 -0.7696  0.2174
 4606SOL    HW116197  10.874   9.072   9.471  0.2929  0.1634 -1.1410
 4606SOL    HW216198  10.780   9.175   9.412 -1.2256 -1.5580 -1.8383
 4607SOL     OW16199   6.794   9.138   4.614  0.2633  0.3449 -0.0089
 4607SOL    HW116200   6.737   9.214   4.610 -1.0304 -0.6366 -1.4045
 4607SOL    HW216201   6.806   9.121   4.707  1.4935  2.8486  0.3665
 4608SOL     OW16202   2.600   9.364   6.461  0.1853  0.3593  0.3117
 4608SOL    HW116203   2.597   9.270   6.478 -0.9933  0.0791 -1.3121
 4608SOL    HW216204   2.643   9.372   6.376 -1.4656  1.1268 -0.4954
 4609SOL     OW16205   2.880   7.525   7.850 -0.1391 -0.1147  0.2318
 4609SOL    HW116206   2.816   7.491   7.914  0.8364 -0.2763  1.1550
 4609SOL    HW216207   2.965   7.509   7.891  0.4416  1.6525 -0.2046
 4610SOL     OW16208   1.539   1.088   1.071 -0.3161 -0.0632 -0.4040
 4610SOL    HW116209   1.541   1.082   0.975 -0.9737 -0.0713 -0.4215
 4610SOL    HW216210   1.626   1.119   1.095  0.2547 -1.2220 -0.9176
 4611SOL     OW16211   8.298   3.391   1.041  0.4538  0.1468 -0.3369
 4611SOL    HW116212   8.281   3.307   0.998  0.1302 -1.0165  1.9434
 4611SOL    HW216213   8.348   3.368   1.119 -0.3549  1.9812  0.7656
 4612SOL     OW16214   1.148   9.619   8.802  0.1474  0.4845  0.6230
 4612SOL    HW116215   1.199   9.538   8.805  0.7177  0.8234  0.1971
 4612SOL    HW216216   1.069   9.596   8.752  0.9486  0.5369 -0.6970
 4613SOL     OW16217   9.183   8.609   5.434 -0.0372 -0.1074 -0.4397
 4613SOL    HW116218   9.141   8.533   5.475 -1.4773  1.9288  2.1364
 4613SOL    HW216219   9.259   8.628   5.490  0.3180  0.3543 -1.0685
 4614SOL     OW16220   9.776   1.947   6.390  0.1595 -0.8496  0.2586
 4614SOL    HW116221   9.746   2.016   6.331 -1.6626 -0.5860  1.3937
 4614SOL    HW216222   9.868   1.967   6.406  0.5067 -0.5420 -1.9008
 4615SOL     OW16223   7.827   6.795   0.225  0.6667  0.3018 -0.3130
 4615SOL    HW116224   7.735   6.814   0.241  0.8248  0.0922  0.9422
 4615SOL    HW216225   7.826   6.712   0.176  0.1840  0.3709 -0.4240
 4616SOL     OW16226   4.486   7.137   7.362  0.1093  0.2499 -0.3352
 4616SOL    HW116227   4.425   7.067   7.336 -0.3283  0.6809 -0.4800
 4616SOL    HW216228   4.502   7.120   7.455  0.0133 -0.0535 -0.3707
 4617SOL     OW16229  10.281   4.633   0.883 -0.4146  0.3753  0.5122
 4617SOL    HW116230  10.187   4.626   0.866 -0.3178 -0.8454  0.3368
 4617SOL    HW216231  10.291   4.608   0.975 -0.0649 -1.7544 -0.0530
 4618SOL     OW16232   8.558   7.166   7.343 -0.1218  0.2819  0.2834
 4618SOL    HW116233   8.640   7.129   7.311 -1.0639 -0.3802 -1.5080
 4618SOL    HW216234   8.492   7.099   7.324 -1.2285  1.2025  0.7493
 4619SOL     OW16235   5.055   4.352   0.589  0.0585 -0.2655  0.2189
 4619SOL    HW116236   5.025   4.318   0.674  1.6904 -0.9795  0.5476
 4619SOL    HW216237   5.058   4.447   0.601 -2.9777 -0.0170 -0.1770
 4620SOL     OW16238   8.108   2.120   2.315  0.1252 -0.0609 -0.3424
 4620SOL    HW116239   8.155   2.161   2.387 -1.2949 -0.6931  0.9987
 4620SOL    HW216240   8.040   2.183   2.291 -1.8904 -1.3604  1.5426
 4621SOL     OW16241   1.198   4.787   1.735  0.0589  0.5067 -0.4728
 4621SOL    HW116242   1.204   4.713   1.795 -0.2771  1.1346  0.3632
 4621SOL    HW216243   1.224   4.862   1.789  0.2129  1.0196 -1.2512
 4622SOL     OW16244   9.237  10.579   9.495  0.3189 -0.2903 -0.1233
 4622SOL    HW116245   9.201  10.532   9.420 -1.3659  0.1030  0.3964
 4622SOL    HW216246   9.256  10.512   9.560  0.3852 -0.4958 -0.3578
 4623SOL     OW16247  10.603   9.304   4.646 -0.4288  0.5924 -0.1800
 4623SOL    HW116248  10.617   9.381   4.702 -1.0203  0.3089  0.3698
 4623SOL    HW216249  10.508   9.301   4.632 -0.6875 -1.1467  1.4650
 4624SOL     OW16250   5.974   3.683   6.624 -0.5928  0.8900  0.1001
 4624SOL    HW116251   5.900   3.692   6.565 -0.2300 -0.3221 -0.5727
 4624SOL    HW216252   5.943   3.718   6.708 -2.2773 -0.5254  0.1117
 4625SOL     OW16253   1.409   5.211   3.609  0.3635  0.0577 -0.2076
 4625SOL    HW116254   1.467   5.276   3.649 -0.3207 -0.2200  1.3277
 4625SOL    HW216255   1.424   5.219   3.515  0.1611  2.5794 -0.0945
 4626SOL     OW16256   1.129   3.846   5.548 -0.1027 -0.4288 -0.3090
 4626SOL    HW116257   1.103   3.926   5.501 -1.3873  0.1609  1.3122
 4626SOL    HW216258   1.075   3.846   5.627  1.0281 -2.0805  0.5202
 4627SOL     OW16259   5.303   6.777   4.441  0.0402  0.0965  0.1028
 4627SOL    HW116260   5.221   6.729   4.424 -0.5034  1.6494 -2.0339
 4627SOL    HW216261   5.275   6.858   4.483  0.7665 -0.4119  1.6624
 4628SOL     OW16262   8.527   1.629   6.934 -0.0475 -0.4834  0.2542
 4628SOL    HW116263   8.535   1.672   6.849  0.9968 -0.1833  0.4827
 4628SOL    HW216264   8.564   1.542   6.920  0.9169 -0.1430  0.5913
 4629SOL     OW16265   7.569   1.439   2.278 -0.1466 -0.1326 -0.2599
 4629SOL    HW116266   7.539   1.404   2.195 -1.3695 -1.7177  0.7922
 4629SOL    HW216267   7.614   1.521   2.255 -0.4953 -0.5013 -2.4368
 4630SOL     OW16268   9.563   2.266   4.316  0.3544 -0.0957  0.4122
 4630SOL    HW116269   9.634   2.285   4.256  0.1532  1.4794  0.6157
 4630SOL    HW216270   9.599   2.286   4.403 -0.0587 -0.0989  0.5878
 4631SOL     OW16271   2.258   5.721   1.232 -0.2735  0.0023  0.0654
 4631SOL    HW116272   2.238   5.634   1.266 -0.3347  0.2638  0.7200
 4631SOL    HW216273   2.190   5.778   1.270  0.5863  0.5725  0.8147
 4632SOL     OW16274   7.272   0.405   7.877 -0.2775 -0.0509 -0.4136
 4632SOL    HW116275   7.181   0.380   7.863 -0.3156  0.5176 -1.2310
 4632SOL    HW216276   7.268   0.496   7.905 -0.0702 -0.5787  1.5265
 4633SOL     OW16277   2.546  10.725   5.830 -0.1418 -0.3347 -0.4846
 4633SOL    HW116278   2.591  10.641   5.820 -0.0081 -0.2800 -0.3434
 4633SOL    HW216279   2.464  10.714   5.782  0.8062  0.1875 -2.2938
 4634SOL     OW16280   5.896   2.228   5.395  0.2029 -0.0459 -0.1585
 4634SOL    HW116281   5.826   2.188   5.446 -1.1200 -1.8076 -3.0427
 4634SOL    HW216282   5.960   2.157   5.384  0.0005 -0.0378 -1.6219
 4635SOL     OW16283   5.813   1.473   5.436  0.1142 -0.6498 -0.0478
 4635SOL    HW116284   5.858   1.404   5.483 -1.2086 -1.8341 -0.4475
 4635SOL    HW216285   5.856   1.554   5.464 -0.2903 -1.3109  2.8391
 4636SOL     OW16286   1.401   1.328   0.325 -0.0667 -0.5103  0.0478
 4636SOL    HW116287   1.496   1.322   0.332 -0.0425 -1.6792 -0.8981
 4636SOL    HW216288   1.385   1.413   0.285  0.6255 -0.5049 -0.2395
 4637SOL     OW16289   1.990   7.319  10.277 -0.0103  0.5142  0.1342
 4637SOL    HW116290   1.944   7.379  10.219 -0.8782 -0.0511  0.2170
 4637SOL    HW216291   1.925   7.292  10.341 -0.2004 -1.8624 -0.9199
 4638SOL     OW16292   3.601   4.739   0.891  0.4841  0.0781  0.0085
 4638SOL    HW116293   3.645   4.782   0.964 -2.6001  2.0043  0.9178
 4638SOL    HW216294   3.571   4.655   0.927 -0.9320  0.9744  1.0349
 4639SOL     OW16295   9.847   1.440   7.236 -0.2194 -0.3083  0.0785
 4639SOL    HW116296   9.767   1.394   7.261 -0.5277  0.4723  0.5471
 4639SOL    HW216297   9.917   1.375   7.249 -0.7383 -0.8974 -0.0583
 4640SOL     OW16298   6.776   8.472   9.187 -0.6014 -0.9910 -0.0734
 4640SOL    HW116299   6.850   8.475   9.248 -0.3931  0.2282 -0.3598
 4640SOL    HW216300   6.785   8.387   9.144  2.6171  0.3342 -2.4536
 4641SOL     OW16301   4.444   0.947   3.920  0.0352  0.2783 -0.2034
 4641SOL    HW116302   4.350   0.932   3.928 -0.3533  0.9736 -2.6585
 4641SOL    HW216303   4.479   0.927   4.007 -2.3451 -0.0889  0.7470
 4642SOL     OW16304   6.363   2.763   5.662 -0.3577  0.4900  0.0113
 4642SOL    HW116305   6.454   2.734   5.673 -0.7380 -2.2975 -2.7006
 4642SOL    HW216306   6.346   2.752   5.568 -3.7793 -0.1013  0.5895
 4643SOL     OW16307   4.015   6.376   8.061 -0.5863 -0.1067 -0.0599
 4643SOL    HW116308   4.093   6.390   8.114  1.0282 -2.2041 -1.6822
 4643SOL    HW216309   3.961   6.317   8.113 -1.1040  1.2919  1.0403
 4644SOL     OW16310   6.562   3.379  10.505  0.2261 -0.2585  0.0395
 4644SOL    HW116311   6.607   3.296  10.521 -2.2823 -1.7529 -0.0792
 4644SOL    HW216312   6.517   3.366  10.421 -0.8091  0.9355  0.3707
 4645SOL     OW16313   8.385   1.068   2.450  0.2607  0.3666  0.0892
 4645SOL    HW116314   8.466   1.046   2.496  0.4774 -0.0831 -0.5031
 4645SOL    HW216315   8.323   1.000   2.478  0.2579  0.3591  0.0638
 4646SOL     OW16316  10.317   9.981   4.972 -0.3466 -0.6511  0.1355
 4646SOL    HW116317  10.371   9.968   5.050 -0.9969 -0.7639  0.5817
 4646SOL    HW216318  10.234   9.938   4.994 -1.4225  1.4210  0.3474
 4647SOL     OW16319   2.898   9.890   0.696  0.2570  0.4790  0.2889
 4647SOL    HW116320   2.885   9.804   0.656 -0.7414  0.9988 -0.5703
 4647SOL    HW216321   2.823   9.941   0.666  0.6467  1.5465  1.0795
 4648SOL     OW16322   9.675   1.034   2.308  0.2519 -0.5141 -0.3500
 4648SOL    HW116323   9.721   1.118   2.310  0.2340 -0.4983  1.8509
 4648SOL    HW216324   9.583   1.057   2.317  0.2826 -0.7633  0.7391
 4649SOL     OW16325   8.063   2.435   2.702  0.0703  0.4809 -0.6579
 4649SOL    HW116326   8.086   2.343   2.720 -0.0893  0.5970  0.1896
 4649SOL    HW216327   8.146   2.482   2.711  0.2734  0.3506 -1.6977
 4650SOL     OW16328   6.139   4.346   3.111  0.0741 -0.1007 -0.6678
 4650SOL    HW116329   6.116   4.260   3.076  1.2106 -1.1006  0.8739
 4650SOL    HW216330   6.205   4.380   3.050 -0.7664 -0.0546 -1.5757
 4651SOL     OW16331   6.459   7.649   3.147  0.2122  0.4456 -0.4820
 4651SOL    HW116332   6.522   7.720   3.161  1.6864 -1.2011  1.7410
 4651SOL    HW216333   6.397   7.656   3.220 -0.7075  0.4723 -1.2358
 4652SOL     OW16334   0.892   1.154   9.899  0.4106  0.1666 -0.3776
 4652SOL    HW116335   0.984   1.141   9.876  0.6517  1.7460 -0.4304
 4652SOL    HW216336   0.864   1.072   9.938  1.4481 -0.8205 -1.6346
 4653SOL     OW16337   8.033   7.267   7.175  0.9512 -0.5059 -0.3518
 4653SOL    HW116338   8.009   7.213   7.251  2.2749 -2.1363 -1.0209
 4653SOL    HW216339   8.129   7.270   7.178  0.9268  2.2722 -0.0948
 4654SOL     OW16340   6.366   9.937   1.049 -0.4065 -0.0335  0.2522
 4654SOL    HW116341   6.276   9.955   1.075 -0.0643  0.0765  1.3889
 4654SOL    HW216342   6.417  10.013   1.078  0.2208 -0.5631  0.5865
 4655SOL     OW16343   5.430   1.651   7.778 -0.5829  0.0215 -0.3784
 4655SOL    HW116344   5.500   1.666   7.714 -0.0649 -0.5903  0.0339
 4655SOL    HW216345   5.473   1.656   7.863 -0.9877 -0.6174 -0.1289
 4656SOL     OW16346   4.218   5.634   1.994 -0.4199  0.0356  0.2770
 4656SOL    HW116347   4.306   5.595   1.983  0.4863  1.4494  2.0368
 4656SOL    HW216348   4.158   5.560   1.980  1.1172 -1.3826  0.7665
 4657SOL     OW16349   7.151  10.127   4.856  0.5789  0.3965  0.0210
 4657SOL    HW116350   7.216  10.068   4.819 -0.1720 -1.3638  1.3931
 4657SOL    HW216351   7.069  10.101   4.816  0.5127  1.9595 -0.9528
 4658SOL     OW16352   2.660   3.938   8.890  0.3906 -0.0064 -0.1945
 4658SOL    HW116353   2.625   4.021   8.859 -0.2418  0.1060  0.7653
 4658SOL    HW216354   2.590   3.875   8.873  0.3882 -0.1074  0.1749
 4659SOL     OW16355   6.592   3.476   1.129 -0.2862  0.3167 -1.0984
 4659SOL    HW116356   6.568   3.384   1.126 -0.2148 -0.1007  3.6281
 4659SOL    HW216357   6.523   3.520   1.078 -2.3590 -2.0818 -0.5935
 4660SOL     OW16358   5.222   9.948   9.829 -0.3973 -0.1991  0.1633
 4660SOL    HW116359   5.148   9.983   9.877  0.1581 -0.7943  1.5331
 4660SOL    HW216360   5.297   9.960   9.888  0.8019  1.2480 -1.5455
 4661SOL     OW16361   2.767  10.553   6.070  0.0322  0.4243 -0.5000
 4661SOL    HW116362   2.726  10.523   5.989  0.9030 -0.5749 -0.5841
 4661SOL    HW216363   2.804  10.638   6.048 -0.0481  0.3220 -1.0398
 4662SOL     OW16364   3.779   2.868   4.733 -0.1491  0.0955 -0.0804
 4662SOL    HW116365   3.751   2.948   4.688  1.5951  1.3857  1.0178
 4662SOL    HW216366   3.789   2.894   4.825  1.9156 -0.9531  0.0574
 4663SOL     OW16367  10.677   6.875   1.950  0.1969  0.1138 -0.2633
 4663SOL    HW116368  10.738   6.949   1.940 -0.2932  0.6603  0.6644
 4663SOL    HW216369  10.678   6.856   2.044  1.1161 -1.7783 -0.6051
 4664SOL     OW16370   0.389  10.325   0.848 -0.2384 -0.9744 -0.2527
 4664SOL    HW116371   0.350  10.244   0.814 -0.1131 -0.9725 -0.4001
 4664SOL    HW216372   0.475  10.298   0.880 -0.6504 -1.1371  0.7943
 4665SOL     OW16373   9.669   5.583  10.316 -0.0455 -0.8674  0.3083
 4665SOL    HW116374   9.669   5.627  10.402  3.3482 -1.7559  0.8954
 4665SOL    HW216375   9.660   5.655  10.253 -0.9512 -0.0298  1.3470
 4666SOL     OW16376   4.458   2.956   6.272  0.0375  0.0577 -0.0191
 4666SOL    HW116377   4.534   2.939   6.329 -0.0454  1.0910  0.4311
 4666SOL    HW216378   4.386   2.911   6.315 -0.1589  1.3636  1.0902
 4667SOL     OW16379   4.857   3.125  10.379  0.1572 -0.0237  0.1860
 4667SOL    HW116380   4.835   3.159  10.293  0.0330  0.9837  0.6049
 4667SOL    HW216381   4.776   3.131  10.429  0.6168  0.8611  0.8334
 4668SOL     OW16382   9.082   3.933   1.501  0.0815 -0.8601 -0.3604
 4668SOL    HW116383   9.153   3.919   1.438 -0.2745 -0.3868 -0.8782
 4668SOL    HW216384   9.002   3.929   1.448 -0.1498  1.2439 -0.2693
 4669SOL     OW16385   5.416   6.504   3.967  0.0905  0.0219 -0.1798
 4669SOL    HW116386   5.361   6.484   3.891  1.0988 -0.8332 -0.7189
 4669SOL    HW216387   5.410   6.599   3.977 -1.0928  0.0021 -0.5089
 4670SOL     OW16388   0.786   5.166  10.286  0.1202 -0.0236 -0.8937
 4670SOL    HW116389   0.836   5.116  10.222  2.1705  2.7857 -1.6975
 4670SOL    HW216390   0.694   5.149  10.264  0.7569 -0.2604 -3.6832
 4671SOL     OW16391   1.508  10.272   3.500  0.4046  0.1738 -0.3207
 4671SOL    HW116392   1.581  10.334   3.501 -0.0864  0.8404 -2.0097
 4671SOL    HW216393   1.534  10.205   3.437  0.1738 -0.3894  0.1711
 4672SOL     OW16394   6.822   3.362   8.453  0.2680 -0.0846 -0.5637
 4672SOL    HW116395   6.787   3.424   8.518  0.9399  0.8630 -1.0896
 4672SOL    HW216396   6.790   3.277   8.483 -1.6750  0.6132 -0.4644
 4673SOL     OW16397   9.110   4.176   2.472  0.3365  0.5946  0.4446
 4673SOL    HW116398   9.037   4.125   2.438 -0.8951  0.9719  2.3383
 4673SOL    HW216399   9.169   4.188   2.398 -1.7786  0.7359 -1.2886
 4674SOL     OW16400   6.246   2.549   3.671  0.1122 -0.7233  0.1432
 4674SOL    HW116401   6.323   2.602   3.692  0.2859 -0.7538 -0.4041
 4674SOL    HW216402   6.220   2.510   3.755  1.6008 -1.9337  0.0700
 4675SOL     OW16403   1.208   2.509   9.108  0.1949  0.7034 -0.4614
 4675SOL    HW116404   1.115   2.491   9.125  0.4185  0.9931  1.1780
 4675SOL    HW216405   1.237   2.435   9.054 -0.9671  0.5885 -0.9569
 4676SOL     OW16406   4.459   2.939   2.838  0.7750 -0.0565 -0.0540
 4676SOL    HW116407   4.444   2.855   2.796  1.2413  0.6524 -1.7436
 4676SOL    HW216408   4.387   2.995   2.806  0.9141  0.3916  0.4075
 4677SOL     OW16409   8.446   9.016   7.959  0.1443 -0.4207 -0.0747
 4677SOL    HW116410   8.479   9.092   8.007 -0.0144  0.2923 -1.0727
 4677SOL    HW216411   8.396   8.967   8.024 -0.8627  1.0115  0.2787
 4678SOL     OW16412   2.998   0.490   6.266  0.7598 -0.0352  0.6980
 4678SOL    HW116413   3.086   0.523   6.250  0.3288  0.1607 -1.6761
 4678SOL    HW216414   2.951   0.504   6.183 -0.8355 -2.2002  1.1165
 4679SOL     OW16415   0.847   9.566   1.862 -0.2018  0.1938  0.0658
 4679SOL    HW116416   0.893   9.509   1.800 -0.9558 -0.2121 -0.1372
 4679SOL    HW216417   0.885   9.653   1.847  0.7841 -0.1948  0.2036
 4680SOL     OW16418   3.239   6.670   0.670 -0.0185  0.2384  0.0549
 4680SOL    HW116419   3.155   6.699   0.706 -0.8834 -0.2338 -1.4762
 4680SOL    HW216420   3.280   6.751   0.638 -0.4677  0.3246 -0.3195
 4681SOL     OW16421   2.735  10.157   4.640 -0.1902  0.1794  0.1934
 4681SOL    HW116422   2.821  10.116   4.651  0.8592  2.3937  0.6403
 4681SOL    HW216423   2.674  10.083   4.634  1.5799 -1.4274  1.0969
 4682SOL     OW16424   0.679   5.307   0.584  0.3540  0.0329 -0.1315
 4682SOL    HW116425   0.672   5.402   0.574  2.9207  0.3361  0.2583
 4682SOL    HW216426   0.711   5.294   0.673 -2.7649 -1.4488  0.9058
 4683SOL     OW16427   1.006  10.343   8.908 -0.0195  0.6049  0.2931
 4683SOL    HW116428   1.058  10.264   8.896  0.3961  0.8640  0.3630
 4683SOL    HW216429   0.926  10.327   8.858 -0.9912 -0.8154  2.1868
 4684SOL     OW16430   1.798   8.394   2.017 -0.0596 -0.1806 -0.0945
 4684SOL    HW116431   1.812   8.482   2.050 -1.8202  1.2606 -2.7922
 4684SOL    HW216432   1.837   8.337   2.083  0.3902  2.5408  2.1801
 4685SOL     OW16433   3.605   5.522   8.327 -0.0478 -0.2436  0.1909
 4685SOL    HW116434   3.696   5.528   8.296  0.1144 -0.1769  0.6700
 4685SOL    HW216435   3.610   5.465   8.403 -0.6622 -1.5836 -0.7357
 4686SOL     OW16436   0.965   2.459   9.262 -0.1872 -0.4691  0.1200
 4686SOL    HW116437   0.911   2.389   9.297  0.1178 -1.2404 -0.8857
 4686SOL    HW216438   0.908   2.507   9.202 -0.0347 -0.7211 -0.2387
 4687SOL     OW16439   1.545   8.309  10.167 -0.4464  0.5998 -0.3598
 4687SOL    HW116440   1.610   8.275  10.106 -0.1016 -2.3653  1.4368
 4687SOL    HW216441   1.465   8.318  10.115 -0.0016 -1.1873 -1.4411
 4688SOL     OW16442   7.932  10.106   4.446  0.5026  0.5037 -0.3570
 4688SOL    HW116443   7.877  10.104   4.367  0.1715  1.9060 -0.1927
 4688SOL    HW216444   7.872  10.082   4.517  0.1294  1.7753 -0.2130
 4689SOL     OW16445   9.193  10.735  10.072 -0.4544 -0.5105 -0.1410
 4689SOL    HW116446   9.192  10.666  10.005  0.6967 -1.5243  0.8481
 4689SOL    HW216447   9.116  10.788  10.052 -0.5957 -1.2591 -1.7732
 4690SOL     OW16448   2.975   8.049   5.479  0.0846  0.4552  0.3678
 4690SOL    HW116449   2.968   8.091   5.566 -0.2077 -1.0721  1.1025
 4690SOL    HW216450   2.964   8.121   5.417  0.4328  1.6091  1.5940
 4691SOL     OW16451   0.288   0.732   2.111  0.3555  0.2541  0.2783
 4691SOL    HW116452   0.250   0.786   2.041  0.2435 -0.7920 -0.5053
 4691SOL    HW216453   0.268   0.642   2.085 -0.1149 -0.1495  1.9334
 4692SOL     OW16454   4.785   4.581   0.389  0.4748  0.0733  0.3446
 4692SOL    HW116455   4.856   4.611   0.333  0.3863 -0.1231  0.1264
 4692SOL    HW216456   4.810   4.492   0.415  0.5245  0.1678  0.6353
 4693SOL     OW16457   1.438   9.174   3.281  0.1906  0.4114  0.1171
 4693SOL    HW116458   1.403   9.106   3.339  0.9136 -0.1972 -0.1475
 4693SOL    HW216459   1.404   9.152   3.195  0.5989  0.2559 -0.0059
 4694SOL     OW16460  10.642   3.169   4.950 -0.2568 -0.3916  0.4573
 4694SOL    HW116461  10.682   3.089   4.916 -1.6927 -0.8172 -0.3029
 4694SOL    HW216462  10.658   3.166   5.045  0.2789 -1.2276  0.3473
 4695SOL     OW16463   5.519   6.648   4.318  0.4104 -0.7109 -0.2195
 4695SOL    HW116464   5.524   6.673   4.226 -0.3348  1.0662  0.1906
 4695SOL    HW216465   5.456   6.709   4.356 -0.5219 -2.4401  1.1474
 4696SOL     OW16466   2.469   8.262   7.301  0.2036  0.3074 -0.4092
 4696SOL    HW116467   2.381   8.299   7.312  1.2099  2.5945  0.7737
 4696SOL    HW216468   2.486   8.269   7.207 -1.4960 -1.9021 -0.9699
 4697SOL     OW16469   6.851   9.209   1.118 -0.2879  0.3945  0.3102
 4697SOL    HW116470   6.775   9.174   1.165 -1.9496  1.2225 -1.5683
 4697SOL    HW216471   6.902   9.132   1.092 -1.5779 -0.3605 -0.0806
 4698SOL     OW16472   2.188   9.751   3.071 -0.2307  0.0342 -0.3482
 4698SOL    HW116473   2.265   9.807   3.086  0.6754 -1.5211  1.1386
 4698SOL    HW216474   2.224   9.664   3.055 -1.6831 -0.8391  0.8724
 4699SOL     OW16475   6.804   7.707   1.102 -0.3175 -0.1526 -0.2824
 4699SOL    HW116476   6.815   7.626   1.151  0.1203  0.1142  0.0779
 4699SOL    HW216477   6.882   7.758   1.124 -0.2459  0.0789 -1.0562
 4700SOL     OW16478   3.656   0.896   0.985 -0.0977  0.3091  0.0158
 4700SOL    HW116479   3.739   0.885   0.939 -0.2132 -0.4473 -0.0249
 4700SOL    HW216480   3.673   0.863   1.073 -0.5922 -0.6756 -0.2497
 4701SOL     OW16481   5.827   5.698   6.763  0.1437 -0.0223 -0.9490
 4701SOL    HW116482   5.838   5.791   6.745  2.2194 -0.2468 -1.1405
 4701SOL    HW216483   5.743   5.675   6.722 -1.4117  2.1150  0.8206
 4702SOL     OW16484   1.996   6.957   0.885  0.1882 -0.3188  0.4397
 4702SOL    HW116485   1.987   6.942   0.979 -0.6569  1.2726  0.6374
 4702SOL    HW216486   1.927   6.904   0.845 -0.3605  0.1124  0.8186
 4703SOL     OW16487   0.938   1.655   3.605 -0.3680 -0.5113  0.0638
 4703SOL    HW116488   0.876   1.712   3.560  0.2735 -0.3010 -0.5636
 4703SOL    HW216489   0.954   1.698   3.689 -1.1589 -0.6299  0.2838
 4704SOL     OW16490  10.321   8.060   3.788  0.2170 -0.3698  0.6806
 4704SOL    HW116491  10.243   8.053   3.734  0.6621 -2.3146  0.2089
 4704SOL    HW216492  10.394   8.046   3.727  0.9502  1.3183  1.1245
 4705SOL     OW16493   0.190   7.649   8.504 -0.8130 -0.2930  0.2602
 4705SOL    HW116494   0.096   7.661   8.493 -0.5676  0.7738 -0.9269
 4705SOL    HW216495   0.230   7.725   8.460  0.6590 -1.7815 -1.1187
 4706SOL     OW16496   1.936   1.014   1.275  0.1948  0.0116 -0.3078
 4706SOL    HW116497   1.842   1.014   1.256  0.0192  0.0766  0.5219
 4706SOL    HW216498   1.978   1.010   1.189 -0.4825  4.0667 -0.9888
 4707SOL     OW16499   8.237  10.604   2.338  0.5089  0.0124 -0.1935
 4707SOL    HW116500   8.286  10.686   2.330  0.2120  0.1449 -0.7070
 4707SOL    HW216501   8.296  10.546   2.386  0.7590  0.4951  0.1021
 4708SOL     OW16502   6.569   1.939   6.478  0.4251 -0.1220 -0.7906
 4708SOL    HW116503   6.479   1.947   6.508  0.4777  0.1613 -0.7048
 4708SOL    HW216504   6.621   1.982   6.546  0.6842 -0.8512 -0.5202
 4709SOL     OW16505   5.488   9.854   2.502 -0.1828  0.1873  0.4536
 4709SOL    HW116506   5.497   9.786   2.436 -1.3150  0.8779 -0.4737
 4709SOL    HW216507   5.570   9.853   2.550  1.1591  0.3787 -1.6836
 4710SOL     OW16508   7.379   3.152   5.523 -0.6093  0.5105 -0.2482
 4710SOL    HW116509   7.381   3.136   5.429  1.1937  0.0414 -0.1600
 4710SOL    HW216510   7.352   3.068   5.560 -0.4062  0.4228 -0.2979
 4711SOL     OW16511   3.002   6.077   9.143  0.3868  0.4366  0.2090
 4711SOL    HW116512   3.068   6.123   9.196  1.2205 -0.3335 -0.1268
 4711SOL    HW216513   2.963   6.014   9.203  1.6089 -0.7110 -0.1507
 4712SOL     OW16514   6.799   1.357   7.968  0.3548 -0.5169 -0.4002
 4712SOL    HW116515   6.881   1.397   7.996  0.3145 -1.2220  0.8236
 4712SOL    HW216516   6.826   1.273   7.931  0.0738 -2.1178  2.6779
 4713SOL     OW16517   9.769   8.625   3.427  0.4457  0.1571 -0.0166
 4713SOL    HW116518   9.706   8.654   3.360 -1.0202  0.0294  1.2498
 4713SOL    HW216519   9.851   8.614   3.379 -0.2912  1.1012 -1.5856
 4714SOL     OW16520   0.245   5.607   3.105 -0.5077  0.1429  0.2730
 4714SOL    HW116521   0.246   5.695   3.142 -0.7651  0.3716 -0.2500
 4714SOL    HW216522   0.200   5.553   3.171 -1.6965  0.7041 -0.0445
 4715SOL     OW16523   9.739   2.666   7.292 -0.0781  0.2933  0.3340
 4715SOL    HW116524   9.817   2.637   7.340  0.7599  0.5702 -0.8112
 4715SOL    HW216525   9.666   2.625   7.338  0.6238  1.0792  2.2356
 4716SOL     OW16526   5.269   3.253   7.350 -0.3798 -0.3223  0.2160
 4716SOL    HW116527   5.230   3.267   7.436  0.8928 -1.5065  1.0308
 4716SOL    HW216528   5.356   3.293   7.357  0.0433 -1.1420 -0.2245
 4717SOL     OW16529   1.457   2.199   3.137  0.3955 -0.0700 -0.0235
 4717SOL    HW116530   1.539   2.167   3.101  0.5674 -0.1811  0.4613
 4717SOL    HW216531   1.481   2.274   3.190  0.4851 -1.4106  1.9194
 4718SOL     OW16532   3.256   3.456  10.081 -0.0074 -0.2093  0.5752
 4718SOL    HW116533   3.184   3.398  10.056  1.3333 -2.2513  1.2500
 4718SOL    HW216534   3.226   3.498  10.162  0.1069 -2.1332  1.6466
 4719SOL     OW16535   7.002   6.886   3.480 -0.2352 -0.2322 -0.0891
 4719SOL    HW116536   7.062   6.843   3.420 -0.2262  0.8497 -0.8926
 4719SOL    HW216537   6.935   6.925   3.423  0.6175  2.1435  0.4251
 4720SOL     OW16538   3.134   2.326   8.983 -0.3109  0.7792 -0.4322
 4720SOL    HW116539   3.179   2.247   9.012 -1.1440  0.3088 -0.4105
 4720SOL    HW216540   3.075   2.348   9.056 -0.5382  1.0621 -0.6994
 4721SOL     OW16541  10.637   4.168   0.005 -0.4150  0.8573  0.7787
 4721SOL    HW116542  10.589   4.159   0.088 -1.2440  0.2197  0.2495
 4721SOL    HW216543  10.664   4.079  -0.017  0.7704  1.1703  0.9132
 4722SOL     OW16544   5.617   0.865   6.376 -0.0320 -0.2098  0.3681
 4722SOL    HW116545   5.646   0.956   6.377 -2.0509  0.4681  1.1470
 4722SOL    HW216546   5.684   0.818   6.425  1.9240  0.5030 -1.4536
 4723SOL     OW16547   3.495   6.027   5.845 -0.1385 -0.0649  0.4403
 4723SOL    HW116548   3.550   5.974   5.789  0.0508 -0.0587  0.6206
 4723SOL    HW216549   3.550   6.101   5.870  0.6798 -1.3537  2.7249
 4724SOL     OW16550   0.384   7.365   7.089  0.0878 -0.4943 -0.2719
 4724SOL    HW116551   0.479   7.354   7.099  0.1932 -1.5253 -1.9334
 4724SOL    HW216552   0.375   7.421   7.012 -0.6358 -1.2135 -0.7253
 4725SOL     OW16553   3.636   0.918   3.576  0.3975  0.0881  0.1229
 4725SOL    HW116554   3.563   0.872   3.535 -0.3069  0.8406  0.5162
 4725SOL    HW216555   3.678   0.851   3.630 -1.0369  0.0352  1.2416
 4726SOL     OW16556   7.269   6.559   5.203  0.1998 -0.2028  0.7140
 4726SOL    HW116557   7.353   6.595   5.230 -0.0670  0.2690  0.9134
 4726SOL    HW216558   7.209   6.580   5.274  0.0770 -1.1983  0.9243
 4727SOL     OW16559   6.164   4.984   4.796  0.1292  0.2676 -0.2769
 4727SOL    HW116560   6.183   5.077   4.809  0.7546  0.0222  0.7143
 4727SOL    HW216561   6.069   4.979   4.797  0.0872  0.7514  1.0500
 4728SOL     OW16562   8.659  10.245   8.786 -0.5387  0.0332  0.2970
 4728SOL    HW116563   8.641  10.336   8.809  2.3407  0.7864 -0.1242
 4728SOL    HW216564   8.742  10.225   8.828 -1.2182 -2.5438  0.6072
 4729SOL     OW16565   2.225   7.426   6.933  0.1186  0.1417  0.3184
 4729SOL    HW116566   2.172   7.478   6.994  0.3273  0.4883  0.2070
 4729SOL    HW216567   2.288   7.381   6.990 -1.6472 -2.0031  0.7131
 4730SOL     OW16568   7.990   6.710   0.871 -0.4168 -0.1909  0.0410
 4730SOL    HW116569   7.913   6.763   0.848 -0.2144  0.7722  1.4913
 4730SOL    HW216570   8.024   6.749   0.951  1.4669 -0.7493 -0.4289
 4731SOL     OW16571  10.569   1.837   5.194  0.1923  0.3213  0.3407
 4731SOL    HW116572  10.489   1.790   5.170  0.1718  0.1599  0.7267
 4731SOL    HW216573  10.608   1.785   5.263  0.7098  0.3263  0.0569
 4732SOL     OW16574   1.789   1.975   1.798  0.3443  0.3293  0.4314
 4732SOL    HW116575   1.758   1.943   1.713 -0.7430  0.5111  0.7446
 4732SOL    HW216576   1.791   2.070   1.789  0.7231  0.3246  0.4497
 4733SOL     OW16577   1.673   8.352   2.410  0.2775  0.6065  0.9912
 4733SOL    HW116578   1.600   8.342   2.349  2.1027 -0.9143 -1.0870
 4733SOL    HW216579   1.689   8.447   2.413 -0.2189  0.7584 -0.4803
 4734SOL     OW16580   2.642   4.034   8.104  0.0932 -0.5571  0.5455
 4734SOL    HW116581   2.566   4.087   8.080  1.2291  1.0263  0.3099
 4734SOL    HW216582   2.706   4.052   8.035  0.6326 -2.0196  0.6314
 4735SOL     OW16583   6.050   7.634   9.808  0.4205  0.2844 -0.2942
 4735SOL    HW116584   6.037   7.597   9.721 -1.0359 -1.4433  0.5877
 4735SOL    HW216585   5.981   7.596   9.861  1.1269  1.4645  1.5957
 4736SOL     OW16586   2.876   9.441   9.196 -0.5274 -0.2275 -0.6578
 4736SOL    HW116587   2.851   9.533   9.192 -0.2343 -0.0834  0.5799
 4736SOL    HW216588   2.798   9.396   9.228 -1.2428 -0.6882 -2.8502
 4737SOL     OW16589   6.600   7.618   1.985  0.4051  0.1720 -0.5613
 4737SOL    HW116590   6.689   7.594   2.009  0.8820 -0.6438 -2.8121
 4737SOL    HW216591   6.611   7.675   1.909 -0.9635 -0.7273 -1.4847
 4738SOL     OW16592   8.515   9.664   2.748  0.0247 -0.2927 -0.2439
 4738SOL    HW116593   8.496   9.648   2.655 -2.3457  2.1170 -0.2777
 4738SOL    HW216594   8.558   9.749   2.750 -2.3769  0.9882  0.9786
 4739SOL     OW16595   2.618   1.354   1.263  0.2633 -0.1532  0.1607
 4739SOL    HW116596   2.612   1.270   1.308  1.1134 -0.6433 -0.6031
 4739SOL    HW216597   2.639   1.417   1.332  1.9412 -0.9572  0.4277
 4740SOL     OW16598   8.402   9.841   2.224  0.3987  0.1993 -0.3371
 4740SOL    HW116599   8.458   9.845   2.147 -0.2471  0.5437 -0.7982
 4740SOL    HW216600   8.401   9.931   2.257  1.0072 -0.0274  0.3245
 4741SOL     OW16601   6.360   5.973   1.492 -0.1056 -0.4382  0.7264
 4741SOL    HW116602   6.365   6.014   1.406  0.5137  0.0074  0.9594
 4741SOL    HW216603   6.286   6.016   1.535 -0.4188 -0.6662  0.4157
 4742SOL     OW16604   2.937   0.548   4.954 -0.0832  0.0030 -0.1376
 4742SOL    HW116605   2.904   0.494   5.025  1.2256 -0.6264  0.0172
 4742SOL    HW216606   2.951   0.634   4.994  1.7085 -0.6383  0.6787
 4743SOL     OW16607   9.877   6.085   6.810 -0.4700 -0.1781 -0.3948
 4743SOL    HW116608   9.936   6.161   6.814 -2.1876  1.1658  1.6114
 4743SOL    HW216609   9.798   6.114   6.856 -2.6817 -1.9356 -2.8267
 4744SOL     OW16610  10.333   9.829   3.003  0.2360 -0.2764  0.1034
 4744SOL    HW116611  10.403   9.825   2.938 -1.6675 -1.6711 -2.0127
 4744SOL    HW216612  10.369   9.786   3.081  2.1705  0.3661 -0.3699
 4745SOL     OW16613   1.709   1.206   9.159 -0.4877 -0.7002  0.3815
 4745SOL    HW116614   1.619   1.176   9.155 -0.5933 -0.2749 -1.5820
 4745SOL    HW216615   1.760   1.138   9.115  0.1295 -0.7970  1.2081
 4746SOL     OW16616   2.834   1.050  10.729  0.2019  0.9468 -0.0389
 4746SOL    HW116617   2.881   1.028  10.809 -0.8242  0.9384  0.5848
 4746SOL    HW216618   2.881   1.003  10.659  1.4163  1.3757  0.4674
 4747SOL     OW16619   5.550  10.277   6.558  0.3268 -0.3533 -0.3849
 4747SOL    HW116620   5.603  10.352   6.533 -0.2644  0.3005  0.2845
 4747SOL    HW216621   5.465  10.292   6.516  0.0683 -0.4189  0.1084
 4748SOL     OW16622   7.262   6.015  10.480 -0.0804  0.3739 -0.1979
 4748SOL    HW116623   7.273   5.943  10.541 -0.5754  1.3112  1.0357
 4748SOL    HW216624   7.188   6.065  10.515  0.3356  1.5519 -0.9464
 4749SOL     OW16625   3.349   7.152   7.052 -0.8020 -0.4964  0.5285
 4749SOL    HW116626   3.273   7.179   7.001 -1.5529 -0.9811  1.3469
 4749SOL    HW216627   3.331   7.185   7.140 -0.0485 -0.5928  0.7234
 4750SOL     OW16628   9.503   2.568   0.704 -0.0836  0.0934  0.5601
 4750SOL    HW116629   9.514   2.662   0.716  1.5450 -0.2554  2.2507
 4750SOL    HW216630   9.536   2.530   0.786  1.0262 -2.0392 -0.8056
 4751SOL     OW16631   3.416   4.991   6.520  0.6912  0.5607 -0.2661
 4751SOL    HW116632   3.368   5.014   6.441  1.3926 -0.7820 -1.1413
 4751SOL    HW216633   3.359   5.017   6.593 -1.1425 -0.5138 -1.2440
 4752SOL     OW16634   4.713   7.897   2.943  0.2368  0.5247 -0.2483
 4752SOL    HW116635   4.750   7.853   3.019 -0.3772  3.1617  1.7053
 4752SOL    HW216636   4.789   7.927   2.893  0.7447  1.7724  1.2152
 4753SOL     OW16637   1.515  10.694   2.492  0.2331 -0.4128 -0.5010
 4753SOL    HW116638   1.503  10.709   2.586 -0.4347 -0.4176 -0.5784
 4753SOL    HW216639   1.609  10.704   2.477  0.2938 -0.0575  0.1059
 4754SOL     OW16640   6.403   9.532   1.976  0.6907  0.1676  0.5352
 4754SOL    HW116641   6.372   9.579   1.898 -0.2262  0.8248  1.2708
 4754SOL    HW216642   6.324   9.497   2.016  1.3781 -2.2768 -0.1095
 4755SOL     OW16643   7.996   0.707   9.457 -0.1244  0.4040 -0.4948
 4755SOL    HW116644   8.001   0.782   9.398 -0.6175  0.5616 -0.3492
 4755SOL    HW216645   8.033   0.739   9.540  0.6299  0.1621 -0.7339
 4756SOL     OW16646   1.485   0.460   7.520  0.6991  0.2216 -0.1946
 4756SOL    HW116647   1.494   0.404   7.443 -0.6845  1.0048 -0.9567
 4756SOL    HW216648   1.439   0.406   7.584  1.7347 -0.3861  0.0653
 4757SOL     OW16649   0.916   5.860   8.997  0.4346  0.1989 -0.1715
 4757SOL    HW116650   0.986   5.923   8.990 -0.3194  1.1463  0.4969
 4757SOL    HW216651   0.921   5.808   8.917  2.1380 -0.0392  0.0523
 4758SOL     OW16652   0.738   7.538   9.602  0.5633  0.5987 -0.6091
 4758SOL    HW116653   0.764   7.495   9.684 -2.3085 -2.5160 -1.1022
 4758SOL    HW216654   0.748   7.470   9.535 -2.3884  1.1920 -1.8049
 4759SOL     OW16655   7.484   0.448   4.436  0.0140 -0.2272  0.5180
 4759SOL    HW116656   7.563   0.409   4.399 -0.7292 -1.7265  0.4502
 4759SOL    HW216657   7.417   0.435   4.368  0.0725  2.6806 -0.2295
 4760SOL     OW16658   5.296   0.276   3.944 -0.1143  0.0441  0.1077
 4760SOL    HW116659   5.264   0.354   3.900 -1.1247 -0.5408 -0.2411
 4760SOL    HW216660   5.260   0.203   3.893 -0.0505 -0.6478  1.0122
 4761SOL     OW16661   9.747   8.955   6.763  0.0188  0.0483 -0.9990
 4761SOL    HW116662   9.681   8.958   6.694 -0.6964 -1.4547 -0.4132
 4761SOL    HW216663   9.712   8.895   6.829  0.7274  1.3539  0.6484
 4762SOL     OW16664   9.923   6.395   9.794  0.1474  0.0057  0.3594
 4762SOL    HW116665   9.917   6.377   9.700 -0.6352  0.9786  0.2063
 4762SOL    HW216666   9.944   6.489   9.799  0.7811 -0.1630  1.1587
 4763SOL     OW16667   7.460   4.261   7.674  0.1623 -0.1749  0.0767
 4763SOL    HW116668   7.429   4.336   7.622  0.3533  0.3200  0.6729
 4763SOL    HW216669   7.437   4.185   7.620  0.0952  0.3112 -0.6061
 4764SOL     OW16670   8.118   9.733   3.656  1.0225  0.3817 -0.0723
 4764SOL    HW116671   8.190   9.726   3.593  0.9659  1.6369 -0.2936
 4764SOL    HW216672   8.077   9.817   3.637  1.2977  1.0216  1.9296
 4765SOL     OW16673   7.990   3.319   8.825  0.4452 -0.6308  0.3404
 4765SOL    HW116674   7.951   3.281   8.746 -2.6083  1.3401  0.7261
 4765SOL    HW216675   7.924   3.305   8.893  1.2527  1.2248  1.5703
 4766SOL     OW16676   3.986   4.039   6.272  0.2049  0.4865 -0.0196
 4766SOL    HW116677   4.017   4.038   6.182  0.3078 -1.6476 -0.0053
 4766SOL    HW216678   3.966   3.948   6.292  0.6800  0.8166  2.2856
 4767SOL     OW16679   5.478   6.040   0.681 -0.2504 -0.1569  0.3118
 4767SOL    HW116680   5.539   6.078   0.617 -0.3825 -0.4854 -0.0131
 4767SOL    HW216681   5.531   6.029   0.760  0.3382 -1.1602 -0.1976
 4768SOL     OW16682   1.351   9.805   2.859 -0.1973 -0.2591  1.0513
 4768SOL    HW116683   1.375   9.785   2.949  0.0194 -0.5406  0.9349
 4768SOL    HW216684   1.269   9.758   2.844  0.3719 -1.1857  0.7411
 4769SOL     OW16685   1.727   9.195  10.074 -0.4290  0.3499  0.1868
 4769SOL    HW116686   1.730   9.143  10.154  0.9695 -1.7636 -1.1579
 4769SOL    HW216687   1.817   9.223  10.060 -0.8191  1.4919 -0.1957
 4770SOL     OW16688   6.980   5.400   1.567  0.4258 -0.7866 -0.1566
 4770SOL    HW116689   6.934   5.372   1.488 -0.1733  0.6033 -0.3290
 4770SOL    HW216690   6.992   5.494   1.556  3.6758 -1.0963 -0.2985
 4771SOL     OW16691   4.265   8.588   9.222 -0.2355 -0.2035 -0.1239
 4771SOL    HW116692   4.239   8.580   9.314  0.4018 -0.7996  0.0180
 4771SOL    HW216693   4.360   8.576   9.223 -0.5694 -5.0770 -1.3170
 4772SOL     OW16694  10.769   8.263   5.911 -0.1446 -0.2511  0.0558
 4772SOL    HW116695  10.840   8.323   5.888 -0.3533  0.5433  1.3773
 4772SOL    HW216696  10.693   8.297   5.865 -0.2920  0.6202  0.9026
 4773SOL     OW16697  10.368   8.934  10.266 -0.3907  0.3631 -0.4546
 4773SOL    HW116698  10.346   9.016  10.221  0.7514  1.5111  0.9481
 4773SOL    HW216699  10.460   8.920  10.244 -0.2033  0.2061  0.4079
 4774SOL     OW16700   5.562   9.442   2.429 -0.3253 -0.3693  0.2733
 4774SOL    HW116701   5.585   9.446   2.336  0.2035 -1.1175  0.3621
 4774SOL    HW216702   5.518   9.358   2.439 -0.5007 -0.2278  0.6762
 4775SOL     OW16703   7.580   6.500   9.554  0.1494  0.0086  0.1797
 4775SOL    HW116704   7.626   6.427   9.596  1.0372  0.9225  0.8474
 4775SOL    HW216705   7.649   6.549   9.509 -0.3771  0.6341  0.0392
 4776SOL     OW16706   7.228   7.814   0.028 -0.0246 -0.2120 -0.0939
 4776SOL    HW116707   7.272   7.837   0.111 -1.3712 -0.2409  0.6535
 4776SOL    HW216708   7.153   7.873   0.024 -1.2783 -1.7505 -0.1440
 4777SOL     OW16709   5.844   8.426   3.009  0.9769  0.1472  0.1222
 4777SOL    HW116710   5.824   8.436   3.102  0.6199 -0.0128  0.0632
 4777SOL    HW216711   5.759   8.430   2.966  0.9912 -1.3131 -0.0631
 4778SOL     OW16712   7.807   8.186   4.627  0.6875 -0.2961  0.3223
 4778SOL    HW116713   7.893   8.226   4.623  0.3167  0.5477  0.5786
 4778SOL    HW216714   7.795   8.163   4.719  1.2304 -1.7742  0.0475
 4779SOL     OW16715   3.313   8.242   8.810 -0.1551  0.4055 -0.3032
 4779SOL    HW116716   3.306   8.281   8.897  1.2161 -1.4079  0.6772
 4779SOL    HW216717   3.233   8.190   8.801 -1.2654  2.1410 -1.0056
 4780SOL     OW16718   7.956   2.714   7.672 -0.2289  0.1120  0.0917
 4780SOL    HW116719   7.975   2.683   7.583  0.4903 -1.6959  0.8304
 4780SOL    HW216720   7.953   2.809   7.664 -1.7761 -0.0520 -2.1654
 4781SOL     OW16721   6.694   1.627   5.985 -0.2086  0.0022 -0.0767
 4781SOL    HW116722   6.692   1.608   6.079 -0.0316 -2.2318 -0.4803
 4781SOL    HW216723   6.786   1.619   5.961  0.0361  2.3549 -0.1627
 4782SOL     OW16724   7.922   9.236   7.872 -0.0103  0.0307 -0.0515
 4782SOL    HW116725   7.987   9.196   7.816  0.2064  1.8498 -1.1554
 4782SOL    HW216726   7.843   9.242   7.818 -0.1754  0.6378  0.2412
 4783SOL     OW16727   0.717   3.092   7.166 -0.1676 -0.1514  0.0088
 4783SOL    HW116728   0.690   3.112   7.256 -2.5794 -0.2023 -0.6373
 4783SOL    HW216729   0.661   3.019   7.139  0.7502 -0.3722 -1.4240
 4784SOL     OW16730  10.234   3.310   6.581  0.1860 -0.1312  0.3628
 4784SOL    HW116731  10.178   3.348   6.649  2.9349  0.3615  2.5263
 4784SOL    HW216732  10.216   3.362   6.503 -1.2986  0.9138  1.3521
 4785SOL     OW16733   6.191   0.430   7.917 -0.1009  0.3830  0.2040
 4785SOL    HW116734   6.115   0.487   7.912 -0.0474  0.6164  1.6440
 4785SOL    HW216735   6.255   0.479   7.969  0.9093  0.0457 -0.6845
 4786SOL     OW16736   0.200   0.104   8.823  0.2012  0.2233  0.2543
 4786SOL    HW116737   0.137   0.055   8.876 -2.0148  1.7708 -0.8391
 4786SOL    HW216738   0.254   0.036   8.782 -1.3757 -1.2042  0.4412
 4787SOL     OW16739  10.717   6.190   3.628 -0.4315  0.2462 -0.0498
 4787SOL    HW116740  10.659   6.142   3.569  0.5507 -0.7082 -0.2678
 4787SOL    HW216741  10.793   6.212   3.574 -0.0610  0.4410  0.5434
 4788SOL     OW16742   9.502   6.758   6.121 -0.3814 -0.4208  0.2676
 4788SOL    HW116743   9.586   6.737   6.161  0.1972  0.9228 -0.1752
 4788SOL    HW216744   9.511   6.849   6.093 -2.1656 -0.0807  0.6700
 4789SOL     OW16745   2.954   1.237   0.706 -0.4322 -0.0822  0.5839
 4789SOL    HW116746   3.022   1.291   0.747 -0.7270  0.1792  0.7373
 4789SOL    HW216747   2.872   1.269   0.744 -0.5312 -1.5451  1.6924
 4790SOL     OW16748   7.640   5.505   1.172 -0.8228 -0.3178  0.7083
 4790SOL    HW116749   7.561   5.458   1.148 -0.7962 -1.0643  2.0050
 4790SOL    HW216750   7.702   5.437   1.200 -0.0790  0.3308  0.6982
 4791SOL     OW16751   1.807   6.384   4.061  0.7301  0.0107 -0.2226
 4791SOL    HW116752   1.797   6.423   3.974 -2.7021  1.9931  0.8811
 4791SOL    HW216753   1.894   6.413   4.090  0.1964  3.0744 -1.3123
 4792SOL     OW16754   2.635   9.784   7.903 -0.2654  0.0547 -0.2377
 4792SOL    HW116755   2.540   9.773   7.907 -0.5409  1.0630 -2.4951
 4792SOL    HW216756   2.649   9.838   7.826  2.1384  0.3023  0.3110
 4793SOL     OW16757   6.305   9.506   2.787 -0.3812  0.2765 -0.2281
 4793SOL    HW116758   6.326   9.584   2.736 -1.4843  0.1988 -0.8363
 4793SOL    HW216759   6.262   9.540   2.866 -0.2745  0.3209 -0.1901
 4794SOL     OW16760   6.528   5.092   8.135  0.3762 -0.2067 -0.2600
 4794SOL    HW116761   6.518   5.115   8.228  0.5054  1.0030 -0.5251
 4794SOL    HW216762   6.568   5.006   8.136  1.3533  0.2359  0.8274
 4795SOL     OW16763   6.297   8.328   4.488  0.2123  0.2890 -1.0659
 4795SOL    HW116764   6.236   8.259   4.462 -1.0963  0.1604  1.9427
 4795SOL    HW216765   6.252   8.409   4.467 -1.5185  0.2102  1.8004
 4796SOL     OW16766  10.449   0.014   8.593  0.5312 -0.3106 -0.1226
 4796SOL    HW116767  10.422  -0.058   8.537 -1.2804  2.0075 -2.4862
 4796SOL    HW216768  10.498   0.073   8.536  0.2726  1.2716  1.1956
 4797SOL     OW16769   4.924   0.229  10.509 -0.0160  0.3053 -0.0086
 4797SOL    HW116770   4.977   0.274  10.444  1.2999  0.6162  1.2362
 4797SOL    HW216771   4.844   0.282  10.515  0.6374  1.3170 -0.0430
 4798SOL     OW16772   5.217  10.112   2.244 -0.1045  0.2525  0.0581
 4798SOL    HW116773   5.303  10.105   2.201  1.8638  3.0601  3.0682
 4798SOL    HW216774   5.194  10.204   2.237 -1.5029  0.0799  1.7582
 4799SOL     OW16775   9.710   6.645   9.908 -0.0127  0.0822  0.6960
 4799SOL    HW116776   9.653   6.712   9.944  0.7659  0.6648  0.8829
 4799SOL    HW216777   9.658   6.604   9.838 -0.8299  0.2405  1.2025
 4800SOL     OW16778   5.188   9.946   9.055 -0.1840 -0.4922 -0.0460
 4800SOL    HW116779   5.231   9.956   9.140 -0.1119 -1.1881  0.0068
 4800SOL    HW216780   5.213  10.024   9.006 -0.1068 -0.1574  0.5193
 4801SOL     OW16781   4.963   3.237   1.480 -0.3257 -0.2333 -0.2482
 4801SOL    HW116782   4.902   3.257   1.409 -0.2562  0.0739 -0.2226
 4801SOL    HW216783   5.017   3.315   1.488  0.1007 -0.5200 -0.2997
 4802SOL     OW16784   5.407   6.687   2.075  0.2182 -0.1550 -0.6501
 4802SOL    HW116785   5.341   6.632   2.032 -0.2445 -0.8384  0.8698
 4802SOL    HW216786   5.361   6.726   2.149  1.3522 -0.1604  0.0813
 4803SOL     OW16787   2.699   5.237   8.910  0.0139  0.5588  0.1172
 4803SOL    HW116788   2.789   5.210   8.925  0.2611  2.1305  1.8651
 4803SOL    HW216789   2.651   5.201   8.985 -0.4053  1.4918  0.3018
 4804SOL     OW16790   5.494   5.718  10.389 -0.0806 -0.1441 -0.1851
 4804SOL    HW116791   5.551   5.780  10.434 -0.1885 -0.1247 -0.0752
 4804SOL    HW216792   5.517   5.633  10.426  0.2534 -0.2037 -0.5270
 4805SOL     OW16793   8.509   9.716   9.441 -0.2144 -0.0180 -0.3946
 4805SOL    HW116794   8.553   9.632   9.455  1.2524  0.7276 -0.2419
 4805SOL    HW216795   8.494   9.750   9.529 -1.5278 -0.4511 -0.4334
 4806SOL     OW16796   9.456   8.104   7.686  0.9000  0.4096 -0.2609
 4806SOL    HW116797   9.391   8.113   7.756 -0.7602  2.0116 -1.9183
 4806SOL    HW216798   9.476   8.010   7.685  0.7295  0.2758  2.0803
 4807SOL     OW16799   4.021   9.531   7.327 -0.0176  0.3512  0.8657
 4807SOL    HW116800   3.991   9.615   7.363 -0.4126  0.8960 -0.6607
 4807SOL    HW216801   3.978   9.524   7.242 -2.4498 -2.8909  2.1809
 4808SOL     OW16802   5.583  10.117   8.852 -0.2551  0.4956 -0.7490
 4808SOL    HW116803   5.516  10.179   8.823 -2.7770 -0.6359  2.0673
 4808SOL    HW216804   5.559  10.034   8.811 -0.5101  0.1197  0.1384
 4809SOL     OW16805   3.118   2.681   4.632 -0.1499 -0.0202 -0.7064
 4809SOL    HW116806   3.180   2.629   4.580  0.2090  0.0222 -0.3299
 4809SOL    HW216807   3.072   2.616   4.686  1.6399  0.1627  1.1880
 4810SOL     OW16808   8.659   9.612   1.617 -0.0680  0.0572  0.1482
 4810SOL    HW116809   8.733   9.577   1.667  0.5518  1.7829  0.4967
 4810SOL    HW216810   8.583   9.602   1.675 -0.1787 -1.8449 -0.2631
 4811SOL     OW16811  10.253   7.077   9.527  0.2210  0.1532 -0.1877
 4811SOL    HW116812  10.235   6.988   9.496  2.0081 -0.3445  0.0640
 4811SOL    HW216813  10.277   7.125   9.447 -1.3478  0.6193 -0.4165
 4812SOL     OW16814   5.028   0.367   9.025 -0.5017 -0.2127 -0.4683
 4812SOL    HW116815   5.089   0.298   9.051 -0.2878 -0.3374 -1.2570
 4812SOL    HW216816   5.071   0.449   9.053  0.3823 -0.2479 -1.6257
 4813SOL     OW16817   3.226  10.356   8.131 -0.2934 -0.0462  0.0873
 4813SOL    HW116818   3.135  10.335   8.112 -1.2111 -0.9952  4.4550
 4813SOL    HW216819   3.276  10.284   8.092 -1.4991 -0.2143 -1.2243
 4814SOL     OW16820   6.719   8.139   8.325 -0.0919  0.1247  0.2134
 4814SOL    HW116821   6.747   8.154   8.234  0.2654  2.0393  0.6027
 4814SOL    HW216822   6.627   8.114   8.317  0.4817 -1.8990 -0.7905
 4815SOL     OW16823   4.851  10.238   0.505  0.5615  0.1407  0.2794
 4815SOL    HW116824   4.809  10.203   0.584 -1.9531  1.6194 -0.2834
 4815SOL    HW216825   4.903  10.312   0.537 -1.4358  1.5243  0.5207
 4816SOL     OW16826   8.079   2.576   3.227 -0.0710 -0.6714 -0.3978
 4816SOL    HW116827   8.047   2.487   3.210 -0.5037 -0.8266  1.1044
 4816SOL    HW216828   8.005   2.633   3.203 -0.3107 -0.8196 -0.0258
 4817SOL     OW16829   4.625   9.504   6.361 -0.0864 -0.5200 -0.3107
 4817SOL    HW116830   4.625   9.532   6.453 -1.2908 -0.2335 -0.3791
 4817SOL    HW216831   4.652   9.413   6.364 -0.3199 -0.5741  0.3553
 4818SOL     OW16832   1.388   2.739   9.658 -0.1927  0.3170  0.3954
 4818SOL    HW116833   1.318   2.792   9.696 -1.0765 -0.8606  0.4669
 4818SOL    HW216834   1.357   2.716   9.571  0.4602  0.4314  0.1249
 4819SOL     OW16835   9.056   7.919   0.910  0.3354  0.2339 -0.4026
 4819SOL    HW116836   9.077   8.011   0.893 -0.4789  0.6818  0.8950
 4819SOL    HW216837   8.961   7.916   0.915  0.4098 -0.1026  2.3553
 4820SOL     OW16838   2.530   1.255   6.829  0.2207 -0.1143 -0.5518
 4820SOL    HW116839   2.478   1.197   6.884  1.0587 -0.0268  0.3565
 4820SOL    HW216840   2.465   1.305   6.779 -0.5264 -1.7604 -1.3191
 4821SOL     OW16841   6.370   7.515   1.074 -0.9107  0.1895  0.3744
 4821SOL    HW116842   6.324   7.597   1.056 -0.8720 -0.5632 -4.2812
 4821SOL    HW216843   6.302   7.448   1.072 -0.5523 -0.2244  1.2317
 4822SOL     OW16844   5.042   6.912   2.159  0.4343 -0.6966 -0.1136
 4822SOL    HW116845   4.949   6.893   2.160  0.1407  0.4790  2.3603
 4822SOL    HW216846   5.058   6.953   2.073 -1.3290 -0.8405 -0.5346
 4823SOL     OW16847   5.089   3.139   8.513  0.2539  0.4494 -0.2451
 4823SOL    HW116848   5.182   3.130   8.536 -0.0093  3.9021  3.1677
 4823SOL    HW216849   5.083   3.224   8.470 -1.4918  1.2652  1.4487
 4824SOL     OW16850   4.866   9.793   4.946 -0.3253  0.3017 -0.9276
 4824SOL    HW116851   4.954   9.765   4.972 -0.1589  0.9093 -0.8269
 4824SOL    HW216852   4.810   9.720   4.970  0.4189 -1.0105 -2.8906
 4825SOL     OW16853   6.642  10.052   6.870  0.8734 -0.1139 -0.2434
 4825SOL    HW116854   6.636  10.069   6.964 -1.3963 -1.6283 -0.0477
 4825SOL    HW216855   6.730  10.017   6.857  0.2673 -2.6913  1.8621
 4826SOL     OW16856   2.839   4.651   8.128  0.1649  0.5107 -0.0338
 4826SOL    HW116857   2.758   4.693   8.098 -0.0580  0.1517  0.0686
 4826SOL    HW216858   2.813   4.563   8.154  0.9874 -0.4533 -2.2470
 4827SOL     OW16859   0.028  10.361   0.449 -0.2988 -0.0441  0.6174
 4827SOL    HW116860   0.027  10.292   0.515 -1.4504 -0.8912 -0.2382
 4827SOL    HW216861   0.120  10.387   0.443  0.4119 -2.4560  0.0008
 4828SOL     OW16862   6.478  10.414   7.653 -0.0805 -0.6802  0.3764
 4828SOL    HW116863   6.546  10.460   7.703  0.6819 -1.0384 -0.3157
 4828SOL    HW216864   6.496  10.435   7.562 -1.0612 -0.5804  0.1933
 4829SOL     OW16865   7.815  10.450   2.291 -0.1909 -0.1604  0.1264
 4829SOL    HW116866   7.882  10.482   2.351 -1.3135  0.2627  1.2077
 4829SOL    HW216867   7.807  10.357   2.311  1.1364 -0.5641 -1.0927
 4830SOL     OW16868   9.375   3.189  10.796 -0.0109 -0.4528  0.4471
 4830SOL    HW116869   9.379   3.282  10.819  2.3087  0.0867 -1.6245
 4830SOL    HW216870   9.347   3.189  10.704 -1.7038 -1.9677  0.9139
 4831SOL     OW16871   7.772   2.907   4.230  0.0261 -0.5988  0.3001
 4831SOL    HW116872   7.743   2.875   4.316  1.6866 -0.2952  1.0107
 4831SOL    HW216873   7.783   2.827   4.178 -1.4094 -0.7571  0.2040
 4832SOL     OW16874   4.822   4.939   6.065 -0.0617  0.3728 -0.0414
 4832SOL    HW116875   4.752   4.880   6.036 -0.5115  0.6067  0.5452
 4832SOL    HW216876   4.776   5.011   6.108  0.4762  1.2082 -0.8326
 4833SOL     OW16877   5.486  10.079   3.505  0.4844  1.1101 -0.0682
 4833SOL    HW116878   5.569  10.079   3.457  1.6584  0.0559  1.8034
 4833SOL    HW216879   5.511  10.053   3.594 -2.1465 -1.4565  0.0553
 4834SOL     OW16880   7.811   5.195   0.177 -0.0301  0.0520  0.2436
 4834SOL    HW116881   7.872   5.267   0.161  2.2211 -2.2350 -2.8940
 4834SOL    HW216882   7.859   5.136   0.236 -0.5775 -0.2559  0.3837
 4835SOL     OW16883   3.894   7.014   1.530 -0.0583  0.6277 -0.3412
 4835SOL    HW116884   3.860   6.958   1.460  0.2696 -0.1924  0.1485
 4835SOL    HW216885   3.821   7.022   1.592  0.4562 -0.7766  0.4935
 4836SOL     OW16886   9.545   6.416   2.338  0.0867  0.0270 -0.3114
 4836SOL    HW116887   9.479   6.377   2.395  0.2001  0.5186  0.1564
 4836SOL    HW216888   9.543   6.361   2.259  0.8506 -1.4850  0.6698
 4837SOL     OW16889   9.483   9.863   7.113 -0.0355 -0.2306  0.7186
 4837SOL    HW116890   9.539   9.867   7.035 -0.1917 -0.7125  0.5799
 4837SOL    HW216891   9.534   9.813   7.176  0.4226  0.8133  1.2110
 4838SOL     OW16892  10.285   0.028   5.180  0.3137 -0.2244 -0.1514
 4838SOL    HW116893  10.322   0.005   5.265  1.4552  0.9530 -0.2967
 4838SOL    HW216894  10.360   0.029   5.121 -0.3272 -0.1379 -0.9782
 4839SOL     OW16895   9.073  10.723   8.615 -0.5827  0.4184  0.3208
 4839SOL    HW116896   8.980  10.708   8.634 -0.7894  1.0218 -0.1875
 4839SOL    HW216897   9.080  10.818   8.605  0.1989  0.4293  0.9122
 4840SOL     OW16898   0.664   4.200  10.053  0.2250  0.3980 -0.0377
 4840SOL    HW116899   0.649   4.294  10.040 -1.5363  0.0113 -1.2357
 4840SOL    HW216900   0.673   4.165   9.964 -1.3144 -0.8437  0.2416
 4841SOL     OW16901   0.028   8.651   9.617 -0.5123 -0.7335  0.2176
 4841SOL    HW116902   0.108   8.677   9.662 -1.3392  0.1131  1.2475
 4841SOL    HW216903   0.058   8.612   9.535  0.9464 -0.4698  0.6050
 4842SOL     OW16904   4.493   3.333   0.273  0.4342  0.2642 -0.3345
 4842SOL    HW116905   4.434   3.337   0.348 -0.0156  0.7878 -0.7144
 4842SOL    HW216906   4.530   3.244   0.277 -1.0452 -0.3890 -0.6004
 4843SOL     OW16907   8.857   1.099   4.742  0.3514 -0.0046 -0.4963
 4843SOL    HW116908   8.937   1.063   4.780 -0.4769 -0.1574  1.1767
 4843SOL    HW216909   8.882   1.124   4.653  2.3557  0.3379  0.1147
 4844SOL     OW16910   1.619   2.792   5.652  0.2718 -0.1598  0.4453
 4844SOL    HW116911   1.612   2.886   5.637  0.3027  0.0983  1.9087
 4844SOL    HW216912   1.631   2.784   5.746 -0.7604 -1.6939  0.4749
 4845SOL     OW16913  10.001   2.350   1.074 -0.0549  0.0793  0.1626
 4845SOL    HW116914   9.990   2.426   1.017  0.0298 -1.1837 -1.6141
 4845SOL    HW216915   9.912   2.325   1.098 -0.1332  0.2105  0.0144
 4846SOL     OW16916   4.767   9.463   2.002 -0.7088  0.0498 -0.3828
 4846SOL    HW116917   4.713   9.399   2.049  0.8645 -1.8114 -1.0177
 4846SOL    HW216918   4.720   9.546   2.014 -1.5656 -0.7362  2.5018
 4847SOL     OW16919   2.782   0.034   4.747 -0.0785  0.4782  0.1267
 4847SOL    HW116920   2.850  -0.007   4.695  1.4967 -2.0136  3.7487
 4847SOL    HW216921   2.702  -0.011   4.722  0.7077 -0.9485  0.1100
 4848SOL     OW16922   7.323   0.121   7.286 -0.4335  0.3868  0.5428
 4848SOL    HW116923   7.355   0.033   7.307 -0.9969  0.3678  1.3620
 4848SOL    HW216924   7.229   0.117   7.302 -0.3590  1.3359  1.3451
 4849SOL     OW16925   1.514   1.248   7.723 -0.0704  0.3597  0.3953
 4849SOL    HW116926   1.581   1.180   7.728  0.4194  0.7899 -0.2363
 4849SOL    HW216927   1.466   1.229   7.642  0.1506  0.8327  0.1482
 4850SOL     OW16928  10.068   7.806   6.285  0.5730 -0.4913  0.3021
 4850SOL    HW116929  10.076   7.713   6.264  0.7700 -0.4279  0.0895
 4850SOL    HW216930  10.101   7.813   6.375  0.6890 -0.6046  0.2694
 4851SOL     OW16931   6.423   1.944   5.522  0.3693 -0.4394  0.3344
 4851SOL    HW116932   6.331   1.920   5.535 -0.1462  0.8034 -0.7634
 4851SOL    HW216933   6.472   1.876   5.568 -1.0715 -1.6574  0.1608
 4852SOL     OW16934   0.411   6.258   6.445  0.0755 -0.2439 -0.1343
 4852SOL    HW116935   0.490   6.230   6.398 -0.2834 -0.2443 -0.7431
 4852SOL    HW216936   0.339   6.211   6.402 -0.3991  0.7082 -0.3998
 4853SOL     OW16937   4.763   3.682   9.510 -0.2363 -0.0348  0.0150
 4853SOL    HW116938   4.804   3.735   9.578  0.5286 -0.0612 -0.4104
 4853SOL    HW216939   4.752   3.596   9.550  4.3375 -1.4643 -1.1473
 4854SOL     OW16940   3.099   4.493   7.545 -0.4849  0.1466  0.2067
 4854SOL    HW116941   3.193   4.482   7.534 -0.4592 -1.3389  1.5272
 4854SOL    HW216942   3.087   4.586   7.562  1.0341  0.0371  2.2425
 4855SOL     OW16943   4.186   8.323   4.945 -0.5851 -0.1830  0.3957
 4855SOL    HW116944   4.264   8.361   4.904 -0.2940  0.2440  1.3300
 4855SOL    HW216945   4.219   8.281   5.024 -0.9927 -1.9051 -0.3137
 4856SOL     OW16946   8.439   4.202  10.115 -0.1116 -0.1423 -0.6531
 4856SOL    HW116947   8.509   4.151  10.073  0.2093 -1.1276  0.9892
 4856SOL    HW216948   8.373   4.137  10.138 -1.4515  0.7317 -1.8413
 4857SOL     OW16949   8.802   5.048   1.495  0.1428 -0.2683  0.2152
 4857SOL    HW116950   8.889   5.048   1.455  1.7874 -1.0247  3.5178
 4857SOL    HW216951   8.801   4.972   1.553 -3.1817 -0.9221 -0.4654
 4858SOL     OW16952   4.495   4.483   7.897 -0.2728 -0.1361 -0.2117
 4858SOL    HW116953   4.575   4.495   7.947 -1.3932  1.2388  1.3690
 4858SOL    HW216954   4.464   4.396   7.922 -0.4518  0.2547  1.0405
 4859SOL     OW16955   0.479   1.875   9.387 -0.6440 -0.1246  0.1847
 4859SOL    HW116956   0.509   1.791   9.422 -0.8517 -0.9287 -1.4600
 4859SOL    HW216957   0.514   1.877   9.297 -2.1751  0.7058 -0.4186
 4860SOL     OW16958   8.954   0.169   6.285 -0.2479  0.2198  0.1009
 4860SOL    HW116959   8.997   0.148   6.367  1.9209  4.1147  0.1421
 4860SOL    HW216960   8.895   0.241   6.306 -2.0151 -0.7430 -1.2540
 4861SOL     OW16961   8.732   9.174   0.989 -0.0945  0.3579 -0.0256
 4861SOL    HW116962   8.757   9.147   0.901 -1.8151  0.6246 -0.6404
 4861SOL    HW216963   8.709   9.267   0.980 -2.7254 -0.2091  0.0902
 4862SOL     OW16964   7.546   5.649   8.067 -0.2502 -0.1695  0.6015
 4862SOL    HW116965   7.553   5.554   8.078  0.1635 -0.2812 -0.5475
 4862SOL    HW216966   7.609   5.684   8.130 -0.2376 -0.6644  0.8709
 4863SOL     OW16967   7.254   1.546  10.182 -0.0098  0.2944 -0.0070
 4863SOL    HW116968   7.257   1.620  10.243 -1.2572 -1.9431  3.0132
 4863SOL    HW216969   7.207   1.580  10.106 -0.5551  2.6251  1.2776
 4864SOL     OW16970   4.145  10.608   9.502  0.0548  0.3273  0.6707
 4864SOL    HW116971   4.145  10.578   9.411  2.6527  1.3075  0.2695
 4864SOL    HW216972   4.115  10.532   9.552 -0.0112 -0.7026 -0.8554
 4865SOL     OW16973   8.258   9.548   8.113  0.5030  0.1536  0.0516
 4865SOL    HW116974   8.173   9.513   8.088  0.8773  0.5983 -2.0251
 4865SOL    HW216975   8.270   9.625   8.057  2.5421 -0.2676 -0.1929
 4866SOL     OW16976   8.808   2.011   2.515 -0.2373  0.5113  0.4483
 4866SOL    HW116977   8.829   1.921   2.540 -0.3545  0.3599  0.0078
 4866SOL    HW216978   8.821   2.014   2.420  0.0844  1.0472  0.5028
 4867SOL     OW16979   9.187  10.178   2.308  0.5033  0.6758 -0.0674
 4867SOL    HW116980   9.203  10.106   2.247  0.5137  0.1368  0.5587
 4867SOL    HW216981   9.274  10.198   2.344  0.3208  0.1679  0.6716
 4868SOL     OW16982   1.461  10.706   3.554  0.2172  0.2334 -0.3788
 4868SOL    HW116983   1.458  10.800   3.537  1.4012  0.4501  0.4512
 4868SOL    HW216984   1.554  10.685   3.560  0.0532 -1.3603 -2.3012
 4869SOL     OW16985   4.453   0.213   8.138 -0.1619  0.1925 -0.0140
 4869SOL    HW116986   4.504   0.169   8.069 -0.5475 -1.0898  0.4998
 4869SOL    HW216987   4.461   0.306   8.117  2.1145  0.0307 -0.1598
 4870SOL     OW16988   0.468   6.736   8.865 -0.0848  0.3258  0.6201
 4870SOL    HW116989   0.424   6.654   8.843  0.7577  0.2596 -0.9643
 4870SOL    HW216990   0.397   6.795   8.890 -0.9681 -0.1406 -0.6673
 4871SOL     OW16991   1.154   1.043   9.035 -0.2064 -0.1917 -0.3470
 4871SOL    HW116992   1.207   0.967   9.058  0.3955  0.3629  0.1389
 4871SOL    HW216993   1.120   1.075   9.119 -1.2371 -0.4831 -0.6436
 4872SOL     OW16994   2.690   2.832   7.848  0.6483  0.0787  0.3583
 4872SOL    HW116995   2.661   2.746   7.818  0.7609  0.3328 -0.4984
 4872SOL    HW216996   2.738   2.869   7.774 -0.5980  1.4590  0.1915
 4873SOL     OW16997   3.407   8.232   5.932 -0.6274  0.3880  0.2123
 4873SOL    HW116998   3.408   8.328   5.929 -2.0811  0.3889 -0.9569
 4873SOL    HW216999   3.326   8.211   5.978 -0.1925 -0.3052  0.6818
 4874SOL     OW17000   9.988   4.332   2.540 -0.3064  0.1277  0.0188
 4874SOL    HW117001   9.909   4.287   2.508  0.7092 -0.2985 -2.0466
 4874SOL    HW217002  10.043   4.261   2.573  0.4434  0.0315 -1.3608
 4875SOL     OW17003   0.870   3.223  10.413  0.1367  0.0561 -0.6301
 4875SOL    HW117004   0.839   3.134  10.431 -0.0366  0.1407 -0.5113
 4875SOL    HW217005   0.942   3.211  10.350  0.6874 -0.2349  0.0392
 4876SOL     OW17006   4.713   1.273   5.240 -0.3358 -0.5530  0.2053
 4876SOL    HW117007   4.638   1.319   5.202 -0.7062  0.4933  2.1157
 4876SOL    HW217008   4.707   1.185   5.203 -1.5394 -0.0380 -0.9470
 4877SOL     OW17009   6.874   7.008   2.995 -0.4845 -0.2092  0.1029
 4877SOL    HW117010   6.891   6.914   3.011  0.4192  0.0647  0.8992
 4877SOL    HW217011   6.847   7.012   2.904 -0.1402 -1.2055 -0.0626
 4878SOL     OW17012   6.775   9.581   6.164 -0.1510  0.0422 -0.2919
 4878SOL    HW117013   6.726   9.647   6.115 -0.3893  0.0820 -0.0079
 4878SOL    HW217014   6.710   9.545   6.225  0.0439 -0.2727 -0.2705
 4879SOL     OW17015   0.068   8.253   4.120 -0.7727 -0.1269 -0.5344
 4879SOL    HW117016   0.162   8.247   4.131 -0.8011  0.9625  0.5079
 4879SOL    HW217017   0.055   8.331   4.065 -1.0609 -0.4389 -0.9192
 4880SOL     OW17018   4.712   5.168   8.475  0.2968 -0.2900  0.0080
 4880SOL    HW117019   4.761   5.159   8.557  0.4286 -0.7595 -0.1179
 4880SOL    HW217020   4.704   5.262   8.462  0.9965 -0.2081  0.1286
 4881SOL     OW17021   2.880  10.667   2.962 -0.0707  0.2388 -0.5742
 4881SOL    HW117022   2.948  10.716   2.915 -0.4951  0.7575 -0.6500
 4881SOL    HW217023   2.802  10.675   2.906 -0.6237  0.9857  0.2747
 4882SOL     OW17024   6.870   7.426   8.869 -0.0646 -0.1999 -0.1231
 4882SOL    HW117025   6.921   7.349   8.843 -2.2792 -1.9757  0.5013
 4882SOL    HW217026   6.877   7.428   8.965  0.1083  0.4908 -0.1460
 4883SOL     OW17027   2.736   3.073   3.405 -0.8776  0.6665  0.3244
 4883SOL    HW117028   2.705   2.992   3.445  1.4939 -1.0644 -1.0493
 4883SOL    HW217029   2.761   3.129   3.478  1.8527 -1.7635  1.4199
 4884SOL     OW17030   3.922   8.561   0.449 -0.7376 -0.0673  0.0522
 4884SOL    HW117031   3.945   8.652   0.433 -1.6358  0.4335  1.4765
 4884SOL    HW217032   3.828   8.556   0.432 -0.8146 -0.5683  0.5985
 4885SOL     OW17033   0.621  10.590   0.388  0.8418 -0.8284 -0.6746
 4885SOL    HW117034   0.704  10.551   0.416  0.2529 -1.4375  0.2663
 4885SOL    HW217035   0.603  10.551   0.303  0.6907 -1.9734 -0.1291
 4886SOL     OW17036   9.088   2.041   0.410  0.3288 -0.0328 -0.3923
 4886SOL    HW117037   9.071   2.037   0.316  0.6623 -0.4799 -0.4405
 4886SOL    HW217038   9.024   2.103   0.444  0.5085  0.4880 -0.9832
 4887SOL     OW17039   8.628   3.566   5.616 -0.5238 -0.7124 -0.0153
 4887SOL    HW117040   8.571   3.620   5.562  0.4500  1.4508  0.9993
 4887SOL    HW217041   8.582   3.558   5.700 -0.4018 -0.9914  0.0273
 4888SOL     OW17042   9.166   9.321   6.995 -0.0457  0.6532  0.3655
 4888SOL    HW117043   9.073   9.322   6.975 -0.2781  0.3829  1.3912
 4888SOL    HW217044   9.201   9.251   6.939 -0.2769  1.3769 -0.7125
 4889SOL     OW17045   5.975   4.576   7.545  0.5124  0.7041 -0.6102
 4889SOL    HW117046   5.879   4.570   7.545  0.3655 -0.7058  3.8981
 4889SOL    HW217047   5.994   4.650   7.487 -3.2516  0.9867 -1.7587
 4890SOL     OW17048   4.784   4.835   6.923  0.1940 -0.0615 -0.2479
 4890SOL    HW117049   4.750   4.853   6.836  1.4699 -0.4052 -0.8414
 4890SOL    HW217050   4.787   4.920   6.967 -0.6095  0.0871 -0.4663
 4891SOL     OW17051  10.745   8.052   4.917 -0.2973 -0.0220  0.1941
 4891SOL    HW117052  10.756   8.076   5.010 -0.0556  6.6280 -1.0131
 4891SOL    HW217053  10.658   8.084   4.894  0.1403 -0.3133 -2.1259
 4892SOL     OW17054   8.187   7.015   9.319  0.1495 -0.0165  0.0698
 4892SOL    HW117055   8.246   7.027   9.393  0.9283 -0.7455 -0.4208
 4892SOL    HW217056   8.241   7.034   9.242 -0.3754 -0.2728 -0.3631
 4893SOL     OW17057   6.098   5.466   3.474 -0.1881  0.1206 -0.5724
 4893SOL    HW117058   6.129   5.527   3.407  0.4871 -1.6412 -1.9274
 4893SOL    HW217059   6.056   5.396   3.425 -1.3073 -0.3195  0.9695
 4894SOL     OW17060   0.337   7.454   9.144  0.3280  0.8424 -0.1160
 4894SOL    HW117061   0.380   7.438   9.228  0.0238  1.6251  0.2034
 4894SOL    HW217062   0.404   7.437   9.078  0.0953 -1.4870  0.1617
 4895SOL     OW17063  10.539   5.778   9.346 -0.3167 -0.1440  0.0908
 4895SOL    HW117064  10.579   5.793   9.432 -1.9521 -0.7394  0.9944
 4895SOL    HW217065  10.502   5.690   9.352 -1.7395  0.3699 -0.6731
 4896SOL     OW17066   5.929   0.607   8.182  0.1233 -0.0739  0.2916
 4896SOL    HW117067   5.897   0.657   8.106  0.0222  1.1650  1.1290
 4896SOL    HW217068   5.853   0.558   8.212 -0.2693  0.7339  0.6112
 4897SOL     OW17069   1.010   7.288   8.803 -0.1647  0.1382  0.3126
 4897SOL    HW117070   1.044   7.344   8.733 -0.1423  1.5919  1.4443
 4897SOL    HW217071   1.088   7.262   8.853 -0.3282  0.3983  0.7085
 4898SOL     OW17072  10.724   9.028   3.907 -0.0113 -0.2258 -0.3920
 4898SOL    HW117073  10.745   9.064   3.993 -0.8962 -0.3036 -0.1296
 4898SOL    HW217074  10.653   8.966   3.924  0.3012 -0.7889 -1.0821
 4899SOL     OW17075   1.432   5.097   6.964 -0.4783 -0.2678 -0.0586
 4899SOL    HW117076   1.461   5.013   6.928 -0.7812 -0.0803 -0.7609
 4899SOL    HW217077   1.505   5.127   7.018 -0.0490 -0.6017 -0.4457
 4900SOL     OW17078   2.776   4.163   5.618 -0.1894  0.5697 -0.5759
 4900SOL    HW117079   2.779   4.250   5.656  0.7227 -0.5592  2.1662
 4900SOL    HW217080   2.695   4.124   5.652  0.0983 -0.1171 -0.6530
 4901SOL     OW17081   5.761   7.189   6.673  0.0067  0.8040  0.3220
 4901SOL    HW117082   5.734   7.198   6.581  0.8773  0.3983  0.0171
 4901SOL    HW217083   5.840   7.136   6.669  0.0108  0.7301  1.3235
 4902SOL     OW17084   5.956   2.095   4.948  0.1156 -0.1326 -0.2453
 4902SOL    HW117085   5.885   2.090   5.012  0.8420 -1.3530  0.4980
 4902SOL    HW217086   6.020   2.030   4.978  1.0738  0.2109 -1.4791
 4903SOL     OW17087   5.195   7.502   0.714 -0.0110 -0.0602 -0.1398
 4903SOL    HW117088   5.179   7.537   0.801  1.1859  1.0099 -0.3151
 4903SOL    HW217089   5.251   7.425   0.729  0.5483  0.3693  0.0300
 4904SOL     OW17090   8.859   5.794   6.295  0.4708  0.2915  0.0088
 4904SOL    HW117091   8.892   5.788   6.205 -1.6294  1.8538 -0.9697
 4904SOL    HW217092   8.787   5.731   6.299 -0.0528  0.8940  0.2757
 4905SOL     OW17093   7.356   8.685   6.103  0.1732  0.3305  0.4329
 4905SOL    HW117094   7.390   8.764   6.061 -1.9875  0.8949 -0.3791
 4905SOL    HW217095   7.262   8.700   6.111 -0.0970 -1.5682  1.6130
 4906SOL     OW17096   5.854   9.213  10.783 -0.4232 -0.0103  0.4311
 4906SOL    HW117097   5.942   9.241  10.759 -1.2464  1.3048 -1.3420
 4906SOL    HW217098   5.862   9.119  10.797  0.8186 -0.4152 -2.2895
 4907SOL     OW17099   7.785   1.266   8.627  0.0409  0.1883 -0.4268
 4907SOL    HW117100   7.720   1.205   8.661 -0.6407  0.0421 -1.9227
 4907SOL    HW217101   7.748   1.353   8.644 -1.0689  0.0961 -2.1706
 4908SOL     OW17102   4.301   0.728   9.204  0.2002 -0.0480 -0.6106
 4908SOL    HW117103   4.391   0.758   9.217  0.6170 -1.3605 -0.3216
 4908SOL    HW217104   4.297   0.702   9.112  0.9254 -2.4489 -0.0275
 4909SOL     OW17105   8.606   4.616   2.292  0.2136  0.4621  0.0324
 4909SOL    HW117106   8.517   4.590   2.315  0.5685 -0.0244  0.9008
 4909SOL    HW217107   8.608   4.710   2.307 -0.2121  0.5114 -0.1989
 4910SOL     OW17108   7.970  10.047   2.051 -0.5025  0.0954 -0.0455
 4910SOL    HW117109   7.903   9.981   2.071  0.5735 -0.8216  0.6016
 4910SOL    HW217110   8.017  10.060   2.132  0.3563  0.4664 -0.5882
 4911SOL     OW17111   4.215   3.442   1.620 -0.2682 -0.3618  0.4798
 4911SOL    HW117112   4.210   3.387   1.541  0.2631 -0.5866  0.6004
 4911SOL    HW217113   4.159   3.517   1.600 -1.3615 -1.1483  0.4829
 4912SOL     OW17114   9.013   6.516   8.321 -0.2030  0.2961 -0.2686
 4912SOL    HW117115   9.080   6.504   8.388 -0.0068  3.0615  0.1645
 4912SOL    HW217116   9.014   6.435   8.271  1.3445 -0.9103  1.5755
 4913SOL     OW17117   7.857   9.121   0.776 -0.0560 -0.2497  0.3132
 4913SOL    HW117118   7.787   9.131   0.841 -0.6157  0.9181 -0.4223
 4913SOL    HW217119   7.938   9.131   0.826 -0.4658  0.1577  0.9090
 4914SOL     OW17120   6.523   9.494   9.092  0.4312  0.4154  0.1956
 4914SOL    HW117121   6.607   9.528   9.061  0.8711 -0.6180  0.2252
 4914SOL    HW217122   6.463   9.569   9.084  1.4985  1.3819  0.8382
 4915SOL     OW17123   3.989   0.298   0.021 -0.0605 -0.6340  0.5534
 4915SOL    HW117124   4.032   0.249  -0.048 -0.7953  2.0219 -2.0090
 4915SOL    HW217125   4.059   0.350   0.061 -0.1600  0.5977 -0.8016
 4916SOL     OW17126   6.287   8.969   5.953  0.3158  0.3423 -0.4781
 4916SOL    HW117127   6.375   8.997   5.926  0.8133  0.8887  1.5065
 4916SOL    HW217128   6.304   8.906   6.024 -0.8746  1.4309  0.8241
 4917SOL     OW17129   4.145   3.637   2.963  0.4292  0.7412 -0.1527
 4917SOL    HW117130   4.187   3.711   2.919  3.0551 -0.9187 -0.7126
 4917SOL    HW217131   4.123   3.577   2.891  0.2084  0.1315  0.4160
 4918SOL     OW17132   4.032   0.937   8.102  0.4427 -0.0177  0.9327
 4918SOL    HW117133   3.962   0.924   8.037 -0.0267  1.1330  1.1790
 4918SOL    HW217134   4.111   0.908   8.057 -0.0394 -0.2956  0.2377
 4919SOL     OW17135  10.424   0.172  10.751 -0.2292  0.5623  0.4843
 4919SOL    HW117136  10.440   0.194  10.842 -0.0483  1.1760  0.3087
 4919SOL    HW217137  10.491   0.106  10.730 -0.2101  0.4934  0.7679
 4920SOL     OW17138   5.639   0.709   0.787 -0.7530 -0.2971  0.1335
 4920SOL    HW117139   5.630   0.639   0.851  0.1799 -0.0073  0.5923
 4920SOL    HW217140   5.649   0.664   0.703 -0.0408 -0.7160  0.4385
 4921SOL     OW17141   2.046   5.856   5.152 -0.0688 -0.2733  0.2502
 4921SOL    HW117142   2.083   5.840   5.065 -0.0737 -0.1975  0.2340
 4921SOL    HW217143   2.120   5.891   5.203 -0.3242  0.7123 -0.0289
 4922SOL     OW17144   2.025   3.077   9.111 -0.1114  0.0560  0.0898
 4922SOL    HW117145   2.049   2.989   9.142  3.7065  0.7653 -0.3328
 4922SOL    HW217146   1.985   3.062   9.026  2.4366 -1.3142 -0.9866
 4923SOL     OW17147   2.470   4.039   1.441 -0.1190  0.5623 -0.3996
 4923SOL    HW117148   2.390   4.023   1.390 -0.4362  1.7564 -0.3155
 4923SOL    HW217149   2.540   4.037   1.376 -0.5233  2.1001 -0.9450
 4924SOL     OW17150   3.703   7.233   7.294 -0.6424 -0.0504 -0.2878
 4924SOL    HW117151   3.656   7.157   7.258 -0.0067  0.0214 -1.3135
 4924SOL    HW217152   3.782   7.195   7.333 -1.2446 -0.1083  0.9147
 4925SOL     OW17153   8.122   8.413   5.771  0.4628 -0.6277  0.0435
 4925SOL    HW117154   8.109   8.476   5.700 -0.1740 -0.6519  0.1340
 4925SOL    HW217155   8.045   8.424   5.828  0.7773 -0.8730  0.5284
 4926SOL     OW17156   2.875   8.376   5.361  1.1766  0.5986 -0.2508
 4926SOL    HW117157   2.928   8.394   5.439  0.5103 -0.9193  0.5800
 4926SOL    HW217158   2.818   8.305   5.386 -1.1466  2.0149 -1.1982
 4927SOL     OW17159   0.221  10.459   8.509 -0.2934  0.1541  0.3190
 4927SOL    HW117160   0.182  10.527   8.455  2.1709  1.5573  0.1657
 4927SOL    HW217161   0.231  10.384   8.450 -0.5447  0.5753 -0.2681
 4928SOL     OW17162   2.867   1.628   1.677  0.1866 -0.3491 -0.7067
 4928SOL    HW117163   2.861   1.710   1.628  0.3717 -0.5341 -1.0395
 4928SOL    HW217164   2.811   1.642   1.753  1.6918  0.8050  0.2586
 4929SOL     OW17165   4.829   4.885   9.485  0.0017  0.1415  0.1887
 4929SOL    HW117166   4.810   4.899   9.578 -0.8841  0.1957  0.0120
 4929SOL    HW217167   4.924   4.891   9.479  0.2883 -1.8597  1.4321
 4930SOL     OW17168   0.198   1.905   7.250  0.0786  0.1272  0.0297
 4930SOL    HW117169   0.291   1.917   7.271  0.6475 -1.5655 -1.2729
 4930SOL    HW217170   0.198   1.839   7.181 -2.0579  0.7696 -0.6524
 4931SOL     OW17171   1.729   5.455   4.374  0.2494  0.5868  0.1923
 4931SOL    HW117172   1.762   5.405   4.449 -0.0937  0.1046  0.0263
 4931SOL    HW217173   1.794   5.442   4.306  0.2754  0.5615  0.2217
 4932SOL     OW17174   1.198   7.883   3.398  0.3772  0.6337 -0.3586
 4932SOL    HW117175   1.181   7.848   3.311  0.2949  0.6660 -0.3555
 4932SOL    HW217176   1.112   7.911   3.430  0.4759  1.0550 -0.4560
 4933SOL     OW17177   8.450   8.058   1.382  0.5875  0.2733 -0.2967
 4933SOL    HW117178   8.451   7.983   1.442 -2.6847  0.3196 -0.0257
 4933SOL    HW217179   8.469   8.134   1.437 -3.5843  0.4808  1.1498
 4934SOL     OW17180   1.192   9.660   9.404  0.0710  0.4358 -0.1460
 4934SOL    HW117181   1.186   9.613   9.486 -0.3146 -1.1183 -1.0308
 4934SOL    HW217182   1.133   9.735   9.415 -1.4108 -0.7687  0.3398
 4935SOL     OW17183   4.249   4.608  10.114 -0.1203  0.4897 -0.2545
 4935SOL    HW117184   4.172   4.607  10.058 -0.3561  0.8754  0.0626
 4935SOL    HW217185   4.215   4.611  10.203  0.2539  0.0774 -0.0903
 4936SOL     OW17186   4.341   6.225   6.742  0.1079  0.0508 -0.6546
 4936SOL    HW117187   4.268   6.171   6.712  0.9693 -0.3567 -2.1105
 4936SOL    HW217188   4.385   6.252   6.662  1.5648  0.2908  0.1966
 4937SOL     OW17189   6.997  10.349   4.892 -0.1586  0.7263  0.5526
 4937SOL    HW117190   6.992  10.344   4.988  0.2408  1.0389  0.5907
 4937SOL    HW217191   7.070  10.292   4.869 -0.7662  0.0073  0.3662
 4938SOL     OW17192   4.149   8.470   3.225 -0.2863 -0.0067  0.0611
 4938SOL    HW117193   4.071   8.464   3.170  1.4468  0.0480 -2.5797
 4938SOL    HW217194   4.144   8.392   3.281 -2.0624 -0.1549 -0.2180
 4939SOL     OW17195   5.594   6.486   8.204 -0.5679  0.4176 -0.2034
 4939SOL    HW117196   5.677   6.504   8.247 -0.1583 -1.4386 -0.1282
 4939SOL    HW217197   5.550   6.424   8.262 -0.8013 -0.7171 -1.5323
 4940SOL     OW17198   2.671   7.041   2.285  0.2743 -0.5160 -0.8701
 4940SOL    HW117199   2.658   7.043   2.190 -0.5175 -1.0492 -0.7769
 4940SOL    HW217200   2.712   6.956   2.302  0.6813 -0.3035 -0.7548
 4941SOL     OW17201   8.379  10.310   9.206 -0.0997  0.1434  0.1904
 4941SOL    HW117202   8.378  10.403   9.229 -0.7032  0.6715 -1.7602
 4941SOL    HW217203   8.459  10.298   9.155  0.2564 -0.5492  0.8911
 4942SOL     OW17204   1.940   6.666  10.419 -0.0001  0.4111  0.3246
 4942SOL    HW117205   1.993   6.624  10.487  1.0072  0.9393 -0.1292
 4942SOL    HW217206   2.003   6.698  10.355 -0.9624 -0.8326 -1.3202
 4943SOL     OW17207   4.677   9.760   8.000  0.1261 -0.0128 -0.1680
 4943SOL    HW117208   4.757   9.809   8.018  0.0288 -0.3941  1.4598
 4943SOL    HW217209   4.706   9.681   7.955  0.7831 -0.5082  1.0724
 4944SOL     OW17210  10.710   1.246   3.701 -0.3957 -0.1538  0.0256
 4944SOL    HW117211  10.737   1.181   3.636 -0.4185  1.4753 -1.6963
 4944SOL    HW217212  10.762   1.323   3.680 -1.3604  0.8261  1.1351
 4945SOL     OW17213  10.267   3.599   3.923  0.0728  0.0292  0.3988
 4945SOL    HW117214  10.352   3.619   3.963  0.1328 -0.9729  0.7867
 4945SOL    HW217215  10.240   3.682   3.883  0.8299  0.5866  1.0042
 4946SOL     OW17216   1.180   9.416   0.485 -1.1775 -0.2848 -0.5643
 4946SOL    HW117217   1.188   9.348   0.417 -0.1944 -1.4542  0.6592
 4946SOL    HW217218   1.268   9.422   0.522 -1.4757  1.0535 -0.0536
 4947SOL     OW17219   9.654   2.792   0.844  0.1864  0.5353 -0.4579
 4947SOL    HW117220   9.703   2.759   0.769 -1.0185 -0.1423 -0.9798
 4947SOL    HW217221   9.720   2.833   0.900  1.0210  1.6971 -2.2068
 4948SOL     OW17222   9.147   6.648   3.781 -0.4763 -0.4027  0.1048
 4948SOL    HW117223   9.182   6.614   3.863 -2.0583 -0.2092  0.8857
 4948SOL    HW217224   9.131   6.741   3.798 -0.5251 -0.2887 -0.5328
 4949SOL     OW17225   9.529  10.028   8.896  0.6801 -0.1510 -0.1034
 4949SOL    HW117226   9.619  10.027   8.864  0.5207  0.7561 -0.6124
 4949SOL    HW217227   9.478   9.986   8.827  0.6714 -0.4268  0.0688
 4950SOL     OW17228   8.558   0.340   2.025 -0.0119 -0.1507  0.4290
 4950SOL    HW117229   8.532   0.300   2.108 -1.4920  0.2098  0.1667
 4950SOL    HW217230   8.521   0.284   1.957 -2.1459  1.5584  0.0559
 4951SOL     OW17231   8.431   9.409   0.767 -0.0598  0.1566 -0.2521
 4951SOL    HW117232   8.421   9.324   0.810 -1.7111  0.6444  0.4137
 4951SOL    HW217233   8.422   9.472   0.838 -3.4720  1.0150 -1.2805
 4952SOL     OW17234   7.145   1.565   0.550 -0.1992 -0.2910  0.9093
 4952SOL    HW117235   7.073   1.515   0.588  0.0668  0.1835  2.0802
 4952SOL    HW217236   7.115   1.655   0.550 -0.5498 -0.3884 -0.8986
 4953SOL     OW17237   8.379   8.678   9.514 -0.2174  0.0843  0.0953
 4953SOL    HW117238   8.327   8.648   9.589 -0.2897  0.9339  0.3982
 4953SOL    HW217239   8.462   8.630   9.522  0.6837  1.8301  2.0728
 4954SOL     OW17240   6.508   8.805   3.442  0.0507 -0.3018  0.2783
 4954SOL    HW117241   6.549   8.886   3.472  1.6484  0.1867 -2.8112
 4954SOL    HW217242   6.573   8.737   3.459 -0.6035 -0.6860  1.3314
 4955SOL     OW17243   9.193   3.647   2.696 -0.6564 -0.0510 -0.3768
 4955SOL    HW117244   9.277   3.607   2.674 -1.2111 -1.1349 -0.6121
 4955SOL    HW217245   9.210   3.698   2.776 -0.1390 -1.5827  0.5244
 4956SOL     OW17246   3.659   5.991   4.723  0.4424 -0.1852  0.1993
 4956SOL    HW117247   3.588   5.927   4.713 -0.5026  0.7692  0.5432
 4956SOL    HW217248   3.625   6.071   4.682  1.3768  0.2549  0.2604
 4957SOL     OW17249  10.006   2.793   6.883  0.1042  0.8207  0.0491
 4957SOL    HW117250  10.002   2.762   6.973  0.0337  1.4318  0.2606
 4957SOL    HW217251   9.998   2.714   6.830 -0.4693  0.5228  0.5736
 4958SOL     OW17252   4.990   5.170   8.316  0.3443  0.0653  0.3300
 4958SOL    HW117253   4.965   5.164   8.408  1.4768 -1.3222  0.5883
 4958SOL    HW217254   5.032   5.256   8.308 -0.1161  0.3614  0.9957
 4959SOL     OW17255   8.703   0.893   1.907  0.1585  0.2496  0.0696
 4959SOL    HW117256   8.693   0.869   2.000 -0.7578 -2.0454 -0.5492
 4959SOL    HW217257   8.747   0.818   1.868 -0.1317  0.8709 -1.4992
 4960SOL     OW17258   8.568   9.702   6.653 -0.4787 -0.0654 -0.0741
 4960SOL    HW117259   8.606   9.784   6.621 -0.6606  0.0205 -0.0669
 4960SOL    HW217260   8.616   9.684   6.734  0.8078 -0.8959 -0.9667
 4961SOL     OW17261   9.589   3.295   4.509 -0.3851 -0.7203 -0.3238
 4961SOL    HW117262   9.569   3.369   4.567  0.4697 -0.9492  0.2898
 4961SOL    HW217263   9.667   3.323   4.461 -1.3350 -0.3660 -1.6989
 4962SOL     OW17264   5.838   7.162   1.370  0.3093  0.4787  0.3483
 4962SOL    HW117265   5.762   7.146   1.314  0.7433 -0.3671 -0.0332
 4962SOL    HW217266   5.809   7.227   1.433 -0.1309  1.6412 -1.0032
 4963SOL     OW17267   0.388   9.665   2.745  0.1678 -0.0671 -0.0588
 4963SOL    HW117268   0.462   9.616   2.782  0.7589 -0.4585 -1.6848
 4963SOL    HW217269   0.420   9.754   2.737 -0.3938  0.3081  1.4800
 4964SOL     OW17270   3.170   7.184   8.870  0.1603  0.4252  0.1003
 4964SOL    HW117271   3.217   7.116   8.919 -0.2402 -0.9728 -1.3719
 4964SOL    HW217272   3.089   7.197   8.920  1.1434  1.3961  1.5375
 4965SOL     OW17273   8.502   0.897   4.218  0.4190 -0.1976 -0.3502
 4965SOL    HW117274   8.473   0.917   4.130  0.6196  0.6543 -0.2375
 4965SOL    HW217275   8.595   0.920   4.218  0.6439 -1.0780 -0.1771
 4966SOL     OW17276  10.760   9.504   4.994  0.0756 -0.3136 -0.1226
 4966SOL    HW117277  10.816   9.547   4.929 -1.7006  0.8641 -0.9443
 4966SOL    HW217278  10.696   9.570   5.017  0.7918 -0.6100  3.0968
 4967SOL     OW17279   4.684   5.870   5.253  0.4310 -0.0649  0.6235
 4967SOL    HW117280   4.748   5.799   5.241  1.0321  0.5108  0.3935
 4967SOL    HW217281   4.700   5.901   5.342 -1.1841 -1.5223  1.4885
 4968SOL     OW17282   7.911   3.039   2.842 -0.2836  0.2554 -0.1657
 4968SOL    HW117283   7.949   2.952   2.853 -2.6768 -0.9500 -0.7183
 4968SOL    HW217284   7.889   3.044   2.749 -2.8981  0.1544  0.3699
 4969SOL     OW17285   9.720   5.230   6.585  0.3802  0.5956  0.1035
 4969SOL    HW117286   9.778   5.163   6.549 -0.4414 -0.6831  1.1007
 4969SOL    HW217287   9.632   5.203   6.557 -0.1561  0.1995  2.0341
 4970SOL     OW17288   9.717   6.123   4.477 -0.2499 -0.0423 -0.3918
 4970SOL    HW117289   9.662   6.068   4.422  0.4667  0.6290 -1.8531
 4970SOL    HW217290   9.689   6.213   4.457  1.5515  0.3372 -1.4494
 4971SOL     OW17291   2.199   3.896   0.090 -0.2057 -0.6596 -0.1423
 4971SOL    HW117292   2.186   3.818   0.143 -2.9992  1.8938  3.3379
 4971SOL    HW217293   2.264   3.948   0.138  0.1161  0.0728 -1.3111
 4972SOL     OW17294   3.254   1.934   4.267 -0.4665 -0.0108 -0.0681
 4972SOL    HW117295   3.241   1.913   4.359 -1.3768  0.4674 -0.0844
 4972SOL    HW217296   3.201   2.012   4.252  0.7839  0.7485 -0.6588
 4973SOL     OW17297   7.531   0.949   0.101  0.1331 -0.1828 -0.2581
 4973SOL    HW117298   7.591   0.965   0.174 -0.0326  1.9353 -0.5170
 4973SOL    HW217299   7.539   0.856   0.083  0.9971 -0.5407  1.7396
 4974SOL     OW17300   1.505   0.109   5.468  0.0177  0.1741  0.1443
 4974SOL    HW117301   1.575   0.045   5.454 -1.3702 -1.2007 -0.7664
 4974SOL    HW217302   1.479   0.136   5.380 -1.0125  0.2069  0.4497
 4975SOL     OW17303   3.622   4.852   9.740 -0.6591  0.0759 -0.1306
 4975SOL    HW117304   3.710   4.890   9.741 -0.7327  0.2527  1.1193
 4975SOL    HW217305   3.586   4.872   9.826 -1.1780 -1.7735  0.1172
 4976SOL     OW17306   4.970  10.732  10.138  0.3675 -0.0076  0.4472
 4976SOL    HW117307   5.053  10.777  10.124 -1.0039  2.8463  0.7900
 4976SOL    HW217308   4.964  10.721  10.232 -0.2073  1.0110  0.5392
 4977SOL     OW17309   9.276   2.538   7.821 -0.0415 -0.4086 -0.2613
 4977SOL    HW117310   9.204   2.478   7.843 -0.1446 -0.5562 -0.9594
 4977SOL    HW217311   9.322   2.552   7.903 -1.2902  0.2564  0.3550
 4978SOL     OW17312   2.289   4.924   5.603 -0.0008 -0.1695  0.0057
 4978SOL    HW117313   2.303   4.854   5.667  0.3377  0.0824  0.2123
 4978SOL    HW217314   2.361   4.986   5.619 -1.6081  1.4492  1.4581
 4979SOL     OW17315   0.229   3.428   9.589 -0.1357  0.1354  0.0396
 4979SOL    HW117316   0.229   3.465   9.677  1.4790  0.1973  0.0307
 4979SOL    HW217317   0.272   3.343   9.598 -0.6105 -0.1807 -0.5736
 4980SOL     OW17318   2.115   5.503   4.877  0.3370 -0.3126  0.2463
 4980SOL    HW117319   2.101   5.487   4.970  0.3055 -0.6835  0.1803
 4980SOL    HW217320   2.031   5.482   4.836 -0.5638  2.4951  0.4323
 4981SOL     OW17321   6.224   9.536   6.729 -0.1718 -0.4256 -0.1200
 4981SOL    HW117322   6.296   9.595   6.706  0.5315 -0.8283  0.9794
 4981SOL    HW217323   6.242   9.509   6.819 -0.8926 -1.7027 -0.3250
 4982SOL     OW17324   8.687   6.701   5.041  0.4211  0.1220 -0.5279
 4982SOL    HW117325   8.701   6.690   4.947  1.3100  0.0836 -0.3975
 4982SOL    HW217326   8.760   6.755   5.070  0.0993  0.2145  0.1288
 4983SOL     OW17327   9.909   3.526   6.962 -0.2054  0.2598 -0.3806
 4983SOL    HW117328   9.956   3.443   6.947  0.2654  0.5040 -0.2536
 4983SOL    HW217329   9.951   3.588   6.903 -1.3543  0.1321 -1.3797
 4984SOL     OW17330   8.736   4.720   2.639 -0.1846 -0.2435  0.3499
 4984SOL    HW117331   8.710   4.801   2.594 -1.5214  0.5466  2.4151
 4984SOL    HW217332   8.760   4.749   2.727 -0.8854 -2.1114  1.1936
 4985SOL     OW17333   2.112   2.580   0.456  0.5734 -0.0697 -0.2531
 4985SOL    HW117334   2.195   2.559   0.498 -0.4597 -0.9933  1.4163
 4985SOL    HW217335   2.071   2.496   0.438 -1.2375  0.3179  1.6014
 4986SOL     OW17336   8.097   9.412   4.623  0.2015  0.1938 -0.9236
 4986SOL    HW117337   8.142   9.440   4.543 -1.8457  0.1687 -2.1559
 4986SOL    HW217338   8.036   9.344   4.594 -1.2645  0.8437  0.4849
 4987SOL     OW17339   3.410   0.044   4.892  0.5235  0.1243 -0.3561
 4987SOL    HW117340   3.493   0.025   4.849 -0.1490 -1.1488 -1.1579
 4987SOL    HW217341   3.435   0.094   4.970  2.2982 -2.1483  0.6825
 4988SOL     OW17342   8.106  10.366   1.269  0.5438  0.3920 -0.2173
 4988SOL    HW117343   8.174  10.431   1.286  2.4035 -1.1667 -1.3546
 4988SOL    HW217344   8.133  10.323   1.188 -1.3781 -0.8382 -0.2671
 4989SOL     OW17345   8.223   2.279   7.450  0.5415 -0.4131 -1.1513
 4989SOL    HW117346   8.133   2.278   7.483  1.5423 -1.1726  1.8142
 4989SOL    HW217347   8.228   2.203   7.392 -0.5606 -0.7472 -0.8394
 4990SOL     OW17348   7.776   7.767   6.513 -0.1737 -0.5694 -0.8705
 4990SOL    HW117349   7.732   7.682   6.502 -1.1168 -0.1817 -0.1755
 4990SOL    HW217350   7.854   7.760   6.458 -2.0732 -0.5827 -3.8286
 4991SOL     OW17351   0.170   8.419   2.368  0.1666 -0.2715 -0.1783
 4991SOL    HW117352   0.081   8.440   2.397  1.2706  0.6305  2.8200
 4991SOL    HW217353   0.181   8.469   2.287 -1.0572  2.0551  1.0046
 4992SOL     OW17354   8.229   8.348   9.047 -0.6909  0.1009  0.0097
 4992SOL    HW117355   8.278   8.418   9.090 -1.0731 -0.1894  0.9483
 4992SOL    HW217356   8.246   8.360   8.954  0.5668  0.4324  0.2741
 4993SOL     OW17357   9.986   9.443   8.825 -0.3150  0.3930 -0.1633
 4993SOL    HW117358  10.044   9.458   8.750 -0.9916 -0.9880 -1.0163
 4993SOL    HW217359   9.914   9.506   8.812 -0.5455  0.0069 -0.8195
 4994SOL     OW17360   0.561   0.064   2.252  0.2779  0.1099  0.0832
 4994SOL    HW117361   0.520   0.034   2.333  0.7179 -0.9987 -0.0920
 4994SOL    HW217362   0.492   0.113   2.207  0.4294  1.9628  1.7430
 4995SOL     OW17363   7.798   9.230   9.432  0.2289  0.4145  0.0848
 4995SOL    HW117364   7.813   9.321   9.406 -1.1911  0.3319 -1.1712
 4995SOL    HW217365   7.788   9.234   9.527 -3.9901  2.3396 -0.1976
 4996SOL     OW17366   1.247   0.784   6.049 -0.0897 -0.4053  0.4109
 4996SOL    HW117367   1.251   0.689   6.036  0.7606 -0.1472 -1.5169
 4996SOL    HW217368   1.290   0.820   5.972 -0.7440  1.5716  0.9308
 4997SOL     OW17369   2.271   7.917   7.775 -0.3803 -1.1720 -0.4206
 4997SOL    HW117370   2.227   7.984   7.828 -0.7399 -1.5390 -0.2517
 4997SOL    HW217371   2.275   7.955   7.688 -1.4924 -1.3345 -0.5534
 4998SOL     OW17372   2.099   9.079   2.915 -0.2848  0.4914  0.4653
 4998SOL    HW117373   2.079   9.141   2.845 -1.2445 -3.3144 -2.9951
 4998SOL    HW217374   2.182   9.039   2.889 -0.9467 -1.4262  1.1343
 4999SOL     OW17375   8.527   7.374   3.821 -0.4767 -0.7295 -0.1714
 4999SOL    HW117376   8.606   7.428   3.820 -0.5156 -0.6532  0.4488
 4999SOL    HW217377   8.457   7.436   3.842 -0.5599 -0.9725  0.2741
 5000SOL     OW17378   7.978   0.627   2.699  0.3358 -0.2806 -0.2722
 5000SOL    HW117379   8.029   0.561   2.653  2.4250  1.3240 -0.4005
 5000SOL    HW217380   7.992   0.607   2.792  2.2609  0.7765 -0.2640
 5001SOL     OW17381   5.293   2.656   5.102 -0.7578  0.2562 -0.8509
 5001SOL    HW117382   5.225   2.625   5.042 -1.0336 -1.4739  0.2855
 5001SOL    HW217383   5.373   2.614   5.072 -0.0572  2.5376 -2.3747
 5002SOL     OW17384   7.547   2.867   6.911  0.2733  0.0039  0.4450
 5002SOL    HW117385   7.467   2.874   6.859  0.5445 -2.1080 -0.3760
 5002SOL    HW217386   7.602   2.939   6.881 -1.0689  1.1639  0.6419
 5003SOL     OW17387   6.894   2.635   4.071 -0.1880 -0.5534  0.2430
 5003SOL    HW117388   6.920   2.548   4.040 -0.2032 -0.4235 -0.1404
 5003SOL    HW217389   6.826   2.618   4.136 -0.6250 -0.8028 -0.2741
 5004SOL     OW17390   5.473   6.255   0.204 -0.1194  0.2581  0.5537
 5004SOL    HW117391   5.430   6.184   0.156  0.1874 -0.2936  1.0834
 5004SOL    HW217392   5.467   6.229   0.296  0.1808  0.8215  0.7380
 5005SOL     OW17393   7.457   8.187  10.192  0.1707  0.5700  0.3223
 5005SOL    HW117394   7.398   8.171  10.118  0.6230  1.0921 -0.1589
 5005SOL    HW217395   7.534   8.133  10.174 -0.0775  0.0096  0.8712
 5006SOL     OW17396   1.578   9.676   3.262 -0.0886  0.0010  0.4193
 5006SOL    HW117397   1.666   9.687   3.298  0.6882 -0.2315 -1.3081
 5006SOL    HW217398   1.589   9.690   3.168 -1.7190 -1.0392  0.0381
 5007SOL     OW17399   5.048   0.049   4.379  0.2631  0.4515  0.2167
 5007SOL    HW117400   5.019  -0.028   4.330  1.2055  0.3583 -0.2218
 5007SOL    HW217401   5.087   0.106   4.314  1.5785  0.3078  0.8352
 5008SOL     OW17402   7.475   3.670   0.736 -0.2822 -0.0666 -0.3006
 5008SOL    HW117403   7.495   3.579   0.714 -1.8147 -0.5121 -0.0004
 5008SOL    HW217404   7.438   3.666   0.824  0.9349  1.0530  0.2953
 5009SOL     OW17405   8.413   9.133   0.892 -0.0584  0.1905  0.7287
 5009SOL    HW117406   8.481   9.146   0.826  0.5047  0.0281  1.2720
 5009SOL    HW217407   8.401   9.038   0.896 -1.0743  0.2687 -0.1175
 5010SOL     OW17408   8.629   2.483   4.386  0.1296  0.1413 -0.4966
 5010SOL    HW117409   8.682   2.413   4.347  0.1515 -0.5448  0.7280
 5010SOL    HW217410   8.681   2.562   4.373  1.0960 -0.3972 -0.0244
 5011SOL     OW17411   1.688   8.881   7.583  0.1019 -0.2843  0.1623
 5011SOL    HW117412   1.714   8.799   7.625  1.1599  0.0996  0.3000
 5011SOL    HW217413   1.769   8.914   7.543 -0.1577  1.0137  0.6653
 5012SOL     OW17414   1.327   6.710   7.580 -0.6534 -0.5783  0.1561
 5012SOL    HW117415   1.361   6.793   7.613 -1.2260 -0.3859  0.2589
 5012SOL    HW217416   1.356   6.645   7.644  0.0908 -0.5208 -0.1020
 5013SOL     OW17417   5.828   2.090   3.500  0.0254  0.5658 -0.2722
 5013SOL    HW117418   5.820   2.019   3.563  0.4372 -0.3283 -1.2045
 5013SOL    HW217419   5.807   2.169   3.550  0.8331 -0.0638  1.0964
 5014SOL     OW17420   6.193   1.701   5.821 -0.1116  0.0308  0.2884
 5014SOL    HW117421   6.164   1.774   5.876 -0.1497 -0.5054  0.9858
 5014SOL    HW217422   6.287   1.693   5.838 -0.4652 -1.4199  1.8498
 5015SOL     OW17423  10.589  10.378   7.115  0.1006 -0.1510 -0.4271
 5015SOL    HW117424  10.603  10.312   7.047  0.5041 -0.1419 -0.3555
 5015SOL    HW217425  10.494  10.389   7.119  0.1113  0.5544 -1.6625
 5016SOL     OW17426   6.232   9.096   8.116  0.1094  0.0741  0.1087
 5016SOL    HW117427   6.149   9.052   8.136  1.4660 -2.3613  0.8201
 5016SOL    HW217428   6.270   9.114   8.201  0.5434  0.7149 -0.2162
 5017SOL     OW17429   8.310   2.572   2.726  0.3149 -0.2676 -0.4287
 5017SOL    HW117430   8.316   2.577   2.821  0.2369 -1.5137 -0.3365
 5017SOL    HW217431   8.382   2.513   2.700 -1.0749 -1.8621 -0.8840
 5018SOL     OW17432   4.083   6.758   3.360  0.1681  0.6590  0.1288
 5018SOL    HW117433   4.147   6.687   3.350  0.3490  0.8034  0.2647
 5018SOL    HW217434   4.115   6.828   3.303  0.4602  0.9645  0.6663
 5019SOL     OW17435   2.119   3.790  10.117 -0.0426  0.4294 -0.2985
 5019SOL    HW117436   2.177   3.720  10.149 -0.3741  0.6185  0.7565
 5019SOL    HW217437   2.159   3.818  10.035  0.3977 -0.6279 -0.4640
 5020SOL     OW17438   9.360  10.236   9.298  0.3923  0.1908  0.2965
 5020SOL    HW117439   9.337  10.199   9.383 -1.9029  1.9901  0.5600
 5020SOL    HW217440   9.385  10.161   9.245 -0.2961 -1.2509  1.9094
 5021SOL     OW17441   2.375   3.588   7.149  0.1764 -0.2981  0.3751
 5021SOL    HW117442   2.393   3.496   7.127 -0.5826 -0.2896 -0.3493
 5021SOL    HW217443   2.457   3.621   7.185  0.5939 -1.1355  0.2120
 5022SOL     OW17444   9.621   6.208   3.441 -0.2116 -0.0206  0.3911
 5022SOL    HW117445   9.537   6.236   3.405  0.0882 -0.1397 -0.4283
 5022SOL    HW217446   9.673   6.183   3.364  0.3853 -0.4606  0.9246
 5023SOL     OW17447   0.354   8.784   6.166 -0.1952  0.1757 -0.2647
 5023SOL    HW117448   0.335   8.802   6.074  0.8889  1.3120 -0.2948
 5023SOL    HW217449   0.439   8.825   6.182  0.6093 -1.7206  0.7303
 5024SOL     OW17450   3.835   2.150   5.734 -0.4313 -0.5049  0.3515
 5024SOL    HW117451   3.919   2.185   5.706 -0.7656  1.0896  1.2197
 5024SOL    HW217452   3.796   2.113   5.655  0.3481  0.2639 -0.4045
 5025SOL     OW17453   9.941   2.712   0.337 -0.1315 -0.0008 -0.1301
 5025SOL    HW117454   9.970   2.762   0.262 -1.0891  0.7958  0.0066
 5025SOL    HW217455   9.969   2.622   0.319  2.2622  0.6600 -0.0387
 5026SOL     OW17456   7.288   3.328   1.791 -0.1049  0.1263  1.1694
 5026SOL    HW117457   7.296   3.236   1.767  2.1458  0.0869  1.7781
 5026SOL    HW217458   7.245   3.369   1.716  0.7202 -1.1012 -0.0322
 5027SOL     OW17459   6.248  10.376   2.685 -0.5205 -0.3534 -0.3318
 5027SOL    HW117460   6.286  10.461   2.703 -2.1942 -0.1193  2.8580
 5027SOL    HW217461   6.316  10.313   2.708 -0.1726  0.0866 -0.1600
 5028SOL     OW17462   7.077   3.281   3.452  0.0068 -0.3402  0.0904
 5028SOL    HW117463   7.021   3.283   3.374  1.0236 -0.0391 -0.6620
 5028SOL    HW217464   7.099   3.189   3.464 -0.2081 -0.3956  0.0668
 5029SOL     OW17465   6.558   6.732  10.657  0.2189 -0.2901 -0.4422
 5029SOL    HW117466   6.627   6.667  10.675  0.5633  0.4498  1.0625
 5029SOL    HW217467   6.478   6.691  10.689  0.2639 -0.3806 -0.4448
 5030SOL     OW17468   0.799   9.339   7.357  0.2714  0.0220  0.6337
 5030SOL    HW117469   0.714   9.314   7.321 -0.2803  1.3729  0.9589
 5030SOL    HW217470   0.819   9.271   7.421 -0.2105 -0.6932  0.0468
 5031SOL     OW17471   1.936   3.059   0.118 -0.4921  0.1728 -0.2935
 5031SOL    HW117472   2.007   3.090   0.175 -0.7423 -1.4139  0.9597
 5031SOL    HW217473   1.981   3.019   0.043 -0.0352 -0.6477  0.3994
 5032SOL     OW17474   4.370   0.106  10.286 -0.4343  0.1807  0.4307
 5032SOL    HW117475   4.364   0.010  10.280  0.3557  0.1577 -0.0645
 5032SOL    HW217476   4.398   0.134  10.199 -2.4792  1.0333 -0.0265
 5033SOL     OW17477   4.229   6.642   9.756 -0.5260  0.2298 -0.3478
 5033SOL    HW117478   4.265   6.573   9.699 -0.2013  0.1976 -0.1090
 5033SOL    HW217479   4.137   6.618   9.768 -1.0551  1.1555 -2.2512
 5034SOL     OW17480   2.344   5.681   8.024 -0.1214 -0.3759 -0.3891
 5034SOL    HW117481   2.306   5.617   8.085  1.0882  0.5487  1.4528
 5034SOL    HW217482   2.270   5.708   7.969 -1.6209 -0.3522  1.4992
 5035SOL     OW17483   0.199   9.994   5.454 -0.4862 -0.8041  0.2139
 5035SOL    HW117484   0.172   9.951   5.373  0.3890 -1.9687  0.5065
 5035SOL    HW217485   0.262  10.061   5.426  0.3003 -1.6273 -0.0448
 5036SOL     OW17486   5.055   0.321  10.269  0.7632  0.0297  0.2947
 5036SOL    HW117487   5.113   0.250  10.241 -0.1567 -0.1477 -1.2578
 5036SOL    HW217488   5.047   0.377  10.192 -1.0609  0.0815  0.4914
 5037SOL     OW17489  10.488   5.788   0.433 -0.2653 -0.3154  0.4820
 5037SOL    HW117490  10.534   5.780   0.517  0.6898 -0.2053 -0.0146
 5037SOL    HW217491  10.406   5.741   0.446 -0.3004  0.0316  1.5989
 5038SOL     OW17492   4.805   2.389   8.262  0.2571 -0.0033 -0.1908
 5038SOL    HW117493   4.744   2.445   8.309  0.5509 -0.2713  0.5252
 5038SOL    HW217494   4.758   2.363   8.183  0.0154  1.0142 -0.3920
 5039SOL     OW17495   8.179   7.094   0.445 -0.4784  0.4162  0.3027
 5039SOL    HW117496   8.190   7.186   0.420  0.6078 -0.2858 -2.1261
 5039SOL    HW217497   8.087   7.075   0.426 -1.0591  1.2752  2.0346
 5040SOL     OW17498   3.498   7.625   7.567 -0.0248 -0.1900 -0.1605
 5040SOL    HW117499   3.503   7.605   7.661 -0.4020 -1.9714 -0.4765
 5040SOL    HW217500   3.556   7.562   7.526 -0.1507  0.3307 -1.1674
 5041SOL     OW17501   0.612   3.870   0.538  0.0981  0.4705  0.0039
 5041SOL    HW117502   0.531   3.847   0.584 -0.6979  0.3795 -1.3761
 5041SOL    HW217503   0.658   3.787   0.529 -1.0086 -0.0352 -1.6487
 5042SOL     OW17504   7.134   7.925   6.439 -0.3038  0.4476  0.3787
 5042SOL    HW117505   7.131   7.975   6.521  0.5159  0.4394  0.4195
 5042SOL    HW217506   7.057   7.868   6.443 -0.9436  1.3009  0.5856
 5043SOL     OW17507   1.886   6.177   5.821  0.2697 -0.9286  0.0772
 5043SOL    HW117508   1.827   6.252   5.830  1.5565  0.0556  0.4558
 5043SOL    HW217509   1.953   6.191   5.887  1.3229 -1.6885 -0.8043
 5044SOL     OW17510   2.959   4.737   2.603 -0.0225 -0.3285 -0.3031
 5044SOL    HW117511   2.899   4.676   2.560 -1.6751  1.9340 -1.3994
 5044SOL    HW217512   3.041   4.729   2.554  0.1233 -2.2630  0.1686
 5045SOL     OW17513   1.439   6.687   1.284  0.0004  0.0650  0.2837
 5045SOL    HW117514   1.365   6.631   1.263  1.9401 -2.0378 -1.5790
 5045SOL    HW217515   1.434   6.702   1.378 -0.8470 -2.9759  0.8040
 5046SOL     OW17516   3.205   8.937  10.241 -0.2218 -0.2537 -0.5480
 5046SOL    HW117517   3.130   8.953  10.183 -1.1415  0.2533  0.7203
 5046SOL    HW217518   3.171   8.954  10.329  0.3961 -3.4354  0.4310
 5047SOL     OW17519   5.919   9.377   2.536  0.5690  0.1505 -0.0363
 5047SOL    HW117520   5.933   9.295   2.583  0.1533 -0.8534 -1.5545
 5047SOL    HW217521   5.885   9.438   2.601  0.4262 -1.0358  1.0334
 5048SOL     OW17522  10.185   3.822   3.785  0.1412  0.3628  0.0995
 5048SOL    HW117523  10.244   3.852   3.716  1.8511 -0.7569  1.0074
 5048SOL    HW217524  10.160   3.902   3.832 -0.3562  1.0271 -1.2435
 5049SOL     OW17525   6.246   6.078   6.447 -0.2278  0.5133  0.2410
 5049SOL    HW117526   6.301   6.078   6.525  0.7507 -1.6316 -0.3678
 5049SOL    HW217527   6.168   6.127   6.473 -0.0481 -0.3252  2.6512
 5050SOL     OW17528   9.997   4.431   3.937 -0.0645  0.1769 -0.2854
 5050SOL    HW117529   9.994   4.352   3.992 -2.9788  1.8367  2.2529
 5050SOL    HW217530  10.045   4.495   3.990 -0.3560  0.9933 -0.9949
 5051SOL     OW17531   0.048   8.568   7.621 -0.6907  0.0177  0.3212
 5051SOL    HW117532   0.021   8.659   7.634 -1.8627 -0.4017  0.9823
 5051SOL    HW217533   0.080   8.564   7.531 -0.1733  1.1862  0.4454
 5052SOL     OW17534   9.342   7.266   6.336 -0.0385 -0.3966  0.1913
 5052SOL    HW117535   9.415   7.307   6.290 -0.5612  0.1229 -0.1824
 5052SOL    HW217536   9.289   7.339   6.368 -0.3297 -0.7676  0.5801
 5053SOL     OW17537   3.603   3.787   1.530  0.2081 -0.2648 -0.3512
 5053SOL    HW117538   3.650   3.869   1.547 -0.9352  0.4495 -0.4636
 5053SOL    HW217539   3.517   3.816   1.497  0.3081 -1.5295 -1.8253
 5054SOL     OW17540   3.702   3.581   2.044 -0.6869  0.4027  0.1824
 5054SOL    HW117541   3.634   3.621   1.989 -0.9941  0.4459  0.5897
 5054SOL    HW217542   3.782   3.628   2.021 -0.8287  0.4778 -0.1666
 5055SOL     OW17543   2.578   0.894   0.110  0.2075 -0.6810  0.4144
 5055SOL    HW117544   2.489   0.891   0.075  0.8847  1.9274 -1.9738
 5055SOL    HW217545   2.632   0.855   0.041  1.0911 -0.1901  0.8124
 5056SOL     OW17546   5.414   6.640  10.568 -0.4558 -0.1740  1.0069
 5056SOL    HW117547   5.393   6.725  10.529 -0.1675  1.4104  3.9903
 5056SOL    HW217548   5.329   6.599  10.584 -0.6063 -0.3766 -0.2161
 5057SOL     OW17549   3.888   8.354   7.918 -0.6446 -0.2557  0.1316
 5057SOL    HW117550   3.937   8.272   7.915 -1.4531 -0.7748  0.6813
 5057SOL    HW217551   3.932   8.411   7.855  0.3192 -0.8899  0.2165
 5058SOL     OW17552   9.928   0.803   9.931  0.7220 -0.3577 -0.1544
 5058SOL    HW117553   9.959   0.722   9.971  0.1481 -0.8654 -0.7103
 5058SOL    HW217554   9.856   0.775   9.873  1.1531  0.4115 -1.0918
 5059SOL     OW17555   9.718   3.614   1.846  0.2429 -0.7857 -0.4473
 5059SOL    HW117556   9.646   3.677   1.847  0.2296 -0.8035 -0.3215
 5059SOL    HW217557   9.677   3.532   1.819 -0.2968 -1.4176  2.0470
 5060SOL     OW17558  10.470   3.935   3.775  0.4692 -0.4070  0.6693
 5060SOL    HW117559  10.554   3.925   3.819  0.6020  0.3167  0.5814
 5060SOL    HW217560  10.472   4.023   3.738  0.5439 -1.1334 -1.1675
 5061SOL     OW17561   8.176   8.911   8.538  0.4045  0.6903  0.4975
 5061SOL    HW117562   8.200   8.928   8.447  0.0501 -0.2047  0.2214
 5061SOL    HW217563   8.250   8.862   8.573 -0.3756 -0.9174  0.0236
 5062SOL     OW17564   4.162   5.599   0.719 -0.0545  0.0020 -0.3467
 5062SOL    HW117565   4.244   5.570   0.678  0.5632  0.5772  0.4457
 5062SOL    HW217566   4.125   5.661   0.656  0.4478  0.2300 -0.4242
 5063SOL     OW17567   0.609   6.224   2.095  0.1876  0.7987 -0.5445
 5063SOL    HW117568   0.690   6.212   2.145 -0.2548 -0.9544 -0.2076
 5063SOL    HW217569   0.585   6.316   2.111 -0.0739  0.2793  2.6892
 5064SOL     OW17570   3.415   6.756   4.277  0.3291 -0.0937  0.2110
 5064SOL    HW117571   3.393   6.819   4.345 -0.5975 -0.9743  0.7666
 5064SOL    HW217572   3.505   6.729   4.297  0.9394  1.4124 -0.3580
 5065SOL     OW17573   8.677   4.229   3.491  0.4361  0.3301  0.1165
 5065SOL    HW117574   8.606   4.283   3.457 -0.3180  0.2735  1.5468
 5065SOL    HW217575   8.669   4.146   3.445  0.1837  0.6458 -0.4189
 5066SOL     OW17576   5.521   5.376   7.784  0.5564 -0.0530 -0.3727
 5066SOL    HW117577   5.539   5.282   7.776  0.3355 -0.1239 -0.0800
 5066SOL    HW217578   5.455   5.381   7.853 -0.0970  0.2434 -1.0088
 5067SOL     OW17579   5.035  10.043   5.110 -0.0340 -0.2189 -0.5099
 5067SOL    HW117580   5.062   9.989   5.036 -1.0862  0.4773 -1.4424
 5067SOL    HW217581   4.961   9.996   5.148 -0.5924  0.2531 -0.9801
 5068SOL     OW17582   6.267   0.547   1.487 -0.1791 -0.0180 -0.2804
 5068SOL    HW117583   6.282   0.467   1.538 -0.7948  0.7824  1.2103
 5068SOL    HW217584   6.197   0.593   1.534 -1.5854  0.2512 -2.4704
 5069SOL     OW17585   0.930   5.086   3.232  0.1641  0.1904  1.1937
 5069SOL    HW117586   0.945   5.052   3.144 -2.2429 -0.6575  1.0350
 5069SOL    HW217587   1.012   5.070   3.278  1.4651  0.5978 -0.8286
 5070SOL     OW17588   4.008   1.979   1.621 -0.3795  0.0161 -0.0924
 5070SOL    HW117589   4.035   1.912   1.684 -1.7993 -1.2847 -0.7897
 5070SOL    HW217590   3.963   2.045   1.674 -0.9458 -0.7171  0.3512
 5071SOL     OW17591   1.020   6.490   5.516 -0.1606 -0.4273  0.4847
 5071SOL    HW117592   1.105   6.528   5.495 -0.9788  0.3869 -1.6160
 5071SOL    HW217593   1.042   6.409   5.562  1.7052  0.3141  1.0259
 5072SOL     OW17594   6.021   9.229   2.296  0.0074  0.2861 -0.1538
 5072SOL    HW117595   5.966   9.276   2.359 -0.4945  0.1658 -0.4891
 5072SOL    HW217596   5.995   9.137   2.306  0.9374  0.0800  0.4549
 5073SOL     OW17597   4.474   1.739   3.460  0.0825 -0.2660  0.6508
 5073SOL    HW117598   4.512   1.826   3.474  4.1113 -1.6272 -0.3426
 5073SOL    HW217599   4.537   1.695   3.402 -2.5312 -3.3807 -0.1006
 5074SOL     OW17600   4.883   0.995   7.880  0.0281 -0.5369 -0.4930
 5074SOL    HW117601   4.977   0.982   7.896  0.2396  2.1838  1.0836
 5074SOL    HW217602   4.840   0.941   7.946  0.6397  0.8599  1.1191
 5075SOL     OW17603   4.692   3.148   6.878  0.8326  0.1906  0.2853
 5075SOL    HW117604   4.609   3.191   6.858 -0.0694 -1.6200 -0.0804
 5075SOL    HW217605   4.759   3.209   6.846 -0.3229  1.8132  0.8478
 5076SOL     OW17606  10.626   4.427   8.420 -0.4220 -0.1760 -0.6607
 5076SOL    HW117607  10.665   4.481   8.351  0.6332  0.3098  0.2892
 5076SOL    HW217608  10.701   4.395   8.470 -1.0872 -1.7908 -0.6506
 5077SOL     OW17609   8.323   8.392   2.824 -0.2619  0.3784 -0.0115
 5077SOL    HW117610   8.326   8.440   2.741 -0.6688 -0.2317 -0.3822
 5077SOL    HW217611   8.322   8.461   2.891 -1.0374  0.8989 -0.5444
 5078SOL     OW17612   1.367   7.336   2.841 -0.0651  0.1539  0.0154
 5078SOL    HW117613   1.442   7.396   2.843 -0.0549  0.1874 -0.8944
 5078SOL    HW217614   1.293   7.391   2.816 -0.1331 -0.1264 -0.4195
 5079SOL     OW17615   4.109   1.463   6.821  0.4004 -0.2413 -0.0433
 5079SOL    HW117616   4.103   1.464   6.916  0.8544 -0.8085 -0.0011
 5079SOL    HW217617   4.202   1.449   6.803  0.3434  0.0349 -0.5715
 5080SOL     OW17618   4.016  10.468   4.637  0.6680  0.7232 -0.6439
 5080SOL    HW117619   4.037  10.497   4.726  2.4085  0.2100 -0.8411
 5080SOL    HW217620   4.038  10.375   4.637 -1.5223  0.1627 -0.9860
 5081SOL     OW17621   3.724  10.294   2.446  0.5316 -0.5301 -0.0920
 5081SOL    HW117622   3.813  10.282   2.480  0.3865 -1.0497  0.1134
 5081SOL    HW217623   3.736  10.342   2.364  0.8770  0.9453  0.7954
 5082SOL     OW17624   1.699   2.894   7.091  0.2426 -0.0385  0.4724
 5082SOL    HW117625   1.783   2.853   7.112 -0.1237 -0.5086  1.0644
 5082SOL    HW217626   1.701   2.906   6.996  0.7723 -0.5155  0.4172
 5083SOL     OW17627   0.647   4.368   7.828  0.0109  0.3296  0.1056
 5083SOL    HW117628   0.624   4.401   7.915 -0.1630  0.3644  0.0482
 5083SOL    HW217629   0.601   4.428   7.768 -1.2084 -0.6668  0.0112
 5084SOL     OW17630   2.122   4.192   6.850  0.3172  0.1064 -0.5188
 5084SOL    HW117631   2.073   4.271   6.829 -0.7762 -0.5708 -0.6073
 5084SOL    HW217632   2.211   4.222   6.868 -0.1244  1.3673 -0.3775
 5085SOL     OW17633   1.410   7.608   1.959 -0.2960  0.4134  0.1599
 5085SOL    HW117634   1.378   7.696   1.938 -1.2140  0.1640  0.4814
 5085SOL    HW217635   1.342   7.549   1.924 -0.0692 -0.1357  0.6338
 5086SOL     OW17636  10.098   6.029   7.157  0.1281 -0.3364 -0.0614
 5086SOL    HW117637  10.040   6.000   7.228  0.5258 -0.3401  0.2655
 5086SOL    HW217638  10.080   6.122   7.149 -1.1823 -0.6466 -1.1397
 5087SOL     OW17639   7.231   5.772   0.250 -0.1605  0.2432  0.1028
 5087SOL    HW117640   7.201   5.858   0.223 -0.2344  0.8692  2.0398
 5087SOL    HW217641   7.152   5.717   0.247 -0.2336  0.3766 -0.5723
 5088SOL     OW17642   3.947   7.109   7.387 -0.2184  0.3696  0.0879
 5088SOL    HW117643   3.930   7.095   7.480  1.4974  0.2345  0.4148
 5088SOL    HW217644   3.992   7.030   7.358  0.6231  1.0339 -0.4759
 5089SOL     OW17645   5.884   8.287   2.485 -0.6705  0.4500 -0.0137
 5089SOL    HW117646   5.929   8.333   2.557 -1.4208 -2.0518  2.1847
 5089SOL    HW217647   5.944   8.216   2.462 -1.9335 -0.8233  0.5482
 5090SOL     OW17648   4.272   0.767   4.294 -0.1680 -0.5247  0.1685
 5090SOL    HW117649   4.234   0.679   4.297 -0.3288 -0.5626 -1.6506
 5090SOL    HW217650   4.366   0.753   4.304 -0.0041 -1.1162 -1.8697
 5091SOL     OW17651   6.882   6.333   7.960  0.4565  0.8722  0.6675
 5091SOL    HW117652   6.878   6.250   8.007 -0.2745 -0.6696 -1.9063
 5091SOL    HW217653   6.963   6.375   7.990  1.5979 -1.4492  1.0050
 5092SOL     OW17654   2.900   5.855   7.173  1.0033 -0.8801 -0.2586
 5092SOL    HW117655   2.820   5.836   7.222 -1.2673  1.7918 -2.5617
 5092SOL    HW217656   2.943   5.924   7.222 -1.4516  2.0522 -1.9034
 5093SOL     OW17657   9.271   0.144   7.395 -0.6490  0.1682 -0.7098
 5093SOL    HW117658   9.205   0.090   7.439 -0.6692 -0.1310 -1.0996
 5093SOL    HW217659   9.291   0.096   7.314 -2.1398  1.7092 -2.0794
 5094SOL     OW17660   4.547   1.388   9.513  0.1953  0.1517  0.4429
 5094SOL    HW117661   4.641   1.376   9.524  0.2694 -1.2521 -1.3287
 5094SOL    HW217662   4.534   1.396   9.419 -1.5980 -1.1330  0.5257
 5095SOL     OW17663   5.072  10.307   1.549 -0.2877 -0.1705  0.6266
 5095SOL    HW117664   5.057  10.213   1.553  1.0021 -0.5573 -1.7107
 5095SOL    HW217665   5.014  10.338   1.479  2.1748 -0.0019 -1.4661
 5096SOL     OW17666   1.575  10.555   4.830  0.1866  0.1506 -0.1482
 5096SOL    HW117667   1.483  10.528   4.834  0.1227  0.2344 -0.9357
 5096SOL    HW217668   1.581  10.630   4.888  0.1396 -0.8877  1.2712
 5097SOL     OW17669   5.563   4.041   2.968  0.4538 -0.2544  0.6734
 5097SOL    HW117670   5.645   3.993   2.984  0.9841 -0.2265 -1.6835
 5097SOL    HW217671   5.496   3.972   2.964  0.3890 -0.3146  2.1552
 5098SOL     OW17672   9.158   5.797   2.533 -0.7796  0.1583 -0.8166
 5098SOL    HW117673   9.136   5.742   2.457  0.0659 -0.5766 -0.5498
 5098SOL    HW217674   9.252   5.813   2.523 -0.6454 -0.0189  0.1227
 5099SOL     OW17675   4.095   7.193   9.581  0.1088  0.4305  0.5710
 5099SOL    HW117676   4.027   7.132   9.552  1.1099 -1.0664  1.2482
 5099SOL    HW217677   4.108   7.251   9.506  0.7479 -1.6628 -1.0217
 5100SOL     OW17678   6.310   6.165   8.685 -0.3270  0.1750 -0.2315
 5100SOL    HW117679   6.255   6.216   8.745  0.4849  0.1918  0.5213
 5100SOL    HW217680   6.346   6.095   8.740  0.4718  0.2213 -0.6871
 5101SOL     OW17681   5.407   3.193   4.333 -0.0561 -0.0003  0.2594
 5101SOL    HW117682   5.418   3.286   4.357 -0.6388 -0.2024  1.3978
 5101SOL    HW217683   5.472   3.147   4.387  2.0935 -0.0845 -2.1711
 5102SOL     OW17684   3.231   8.676   2.740  0.1953 -0.1799  0.7717
 5102SOL    HW117685   3.160   8.699   2.799  0.5284 -0.7240  1.4005
 5102SOL    HW217686   3.252   8.585   2.762  0.2016 -0.4567 -0.3091
 5103SOL     OW17687   6.005  10.342   0.242 -0.0457 -0.3465 -0.4499
 5103SOL    HW117688   5.978  10.390   0.320 -1.4107  1.5925 -2.0036
 5103SOL    HW217689   6.095  10.316   0.260 -0.3315 -0.0016  1.7590
 5104SOL     OW17690   3.804   2.589   0.935 -0.3224 -0.2164 -0.1860
 5104SOL    HW117691   3.843   2.519   0.882 -2.0903 -1.3117 -0.1342
 5104SOL    HW217692   3.719   2.604   0.895 -0.5431  0.9294  0.6771
 5105SOL     OW17693   5.654   7.544   1.996  0.1379 -0.6226 -0.2035
 5105SOL    HW117694   5.730   7.599   1.977 -0.4963  0.6112  0.6741
 5105SOL    HW217695   5.606   7.541   1.913  1.8110 -2.6311 -1.2104
 5106SOL     OW17696   7.815   6.593   1.970  0.3836  0.1600 -0.1987
 5106SOL    HW117697   7.798   6.590   1.876  0.5293  1.7128 -0.2907
 5106SOL    HW217698   7.781   6.678   1.999  1.1275  0.0828  0.9878
 5107SOL     OW17699   8.489   3.066   6.572  0.6862 -0.1965 -0.3842
 5107SOL    HW117700   8.413   3.023   6.531  0.4654  0.7059 -0.9521
 5107SOL    HW217701   8.468   3.069   6.665 -1.6727  3.1575 -0.8236
 5108SOL     OW17702   1.026   9.141   5.817  0.0247 -0.5226  0.0814
 5108SOL    HW117703   0.942   9.098   5.808  0.0612 -0.9357  1.5290
 5108SOL    HW217704   1.061   9.144   5.728 -1.1883 -1.0001 -0.4277
 5109SOL     OW17705   7.080   2.768  10.040 -0.1290  0.1495  0.2355
 5109SOL    HW117706   7.167   2.798  10.066  0.1852 -1.1974  0.8291
 5109SOL    HW217707   7.092   2.730   9.953 -0.3211  0.8171 -0.0856
 5110SOL     OW17708   0.868   7.178   8.145 -0.3521 -0.2121  0.2606
 5110SOL    HW117709   0.928   7.253   8.138  0.6913 -1.0532 -0.0999
 5110SOL    HW217710   0.848   7.172   8.239  0.0489  0.1503  0.3748
 5111SOL     OW17711   8.440   5.348   1.076 -0.2249  0.1391 -0.1058
 5111SOL    HW117712   8.375   5.378   1.013 -0.0419  1.6917  0.4168
 5111SOL    HW217713   8.505   5.301   1.022 -1.2802 -0.6349 -0.7367
 5112SOL     OW17714   7.573   4.489   7.129  0.3165 -0.6122 -0.1010
 5112SOL    HW117715   7.492   4.532   7.101 -0.2213 -0.8180  1.0919
 5112SOL    HW217716   7.546   4.402   7.156  0.6919 -0.2309  1.6173
 5113SOL     OW17717   9.444  10.030   5.282  0.3221 -0.3683 -0.0196
 5113SOL    HW117718   9.509   9.968   5.249 -0.1672 -1.8198  1.5594
 5113SOL    HW217719   9.380  10.037   5.212  0.0276 -2.2503  0.0056
 5114SOL     OW17720   5.489   3.845   1.313 -0.0087 -0.6555 -0.3861
 5114SOL    HW117721   5.546   3.862   1.387 -1.2888  1.0303  0.2928
 5114SOL    HW217722   5.546   3.808   1.245  1.3830 -1.2161  1.0417
 5115SOL     OW17723   0.370   0.854   2.931  0.0959  0.3571 -0.0114
 5115SOL    HW117724   0.291   0.908   2.937  0.7761  1.3146  0.7712
 5115SOL    HW217725   0.378   0.833   2.838  0.5573  2.7942 -0.5837
 5116SOL     OW17726   4.544   7.343   3.390 -0.4677  0.3555  0.2851
 5116SOL    HW117727   4.585   7.330   3.304 -2.1214  0.3009 -0.5287
 5116SOL    HW217728   4.599   7.293   3.451 -1.1326 -2.4786 -1.2578
 5117SOL     OW17729   9.782   1.674   4.116 -0.2748  0.3134 -0.4122
 5117SOL    HW117730   9.785   1.767   4.094  0.1320  0.1461 -1.1345
 5117SOL    HW217731   9.874   1.646   4.109 -0.3921 -0.1301 -0.1719
 5118SOL     OW17732   3.794   8.220   7.533 -0.0907 -0.0085 -0.7650
 5118SOL    HW117733   3.765   8.183   7.449  1.1445 -0.2378 -1.1039
 5118SOL    HW217734   3.842   8.149   7.575  3.0173  1.3389 -1.7584
 5119SOL     OW17735   3.343   1.045   5.235 -0.5047  0.7477  0.4493
 5119SOL    HW117736   3.301   0.967   5.270 -1.0866  1.3471  1.1113
 5119SOL    HW217737   3.386   1.085   5.311  1.3188  0.1377 -0.2102
 5120SOL     OW17738  10.451   1.437   5.460 -0.1999 -0.3687  0.7975
 5120SOL    HW117739  10.538   1.460   5.428 -1.2652  2.0974 -0.5352
 5120SOL    HW217740  10.397   1.430   5.381 -1.7836  0.8873  1.7043
 5121SOL     OW17741   7.690  10.618   0.229 -0.5752  0.0672  0.5813
 5121SOL    HW117742   7.717  10.669   0.152 -2.5247  1.4911  0.7579
 5121SOL    HW217743   7.687  10.528   0.198 -0.5179  0.5053 -0.7859
 5122SOL     OW17744   0.755   6.668   1.996  0.3434 -0.6250 -0.2330
 5122SOL    HW117745   0.695   6.632   1.931 -0.6751  0.8169 -0.1489
 5122SOL    HW217746   0.726   6.759   2.008  2.0994 -0.0913  0.3533
 5123SOL     OW17747  10.615   1.239   0.042 -0.2124 -0.1304  0.1070
 5123SOL    HW117748  10.638   1.330   0.022  2.0732 -1.1616 -2.5171
 5123SOL    HW217749  10.591   1.201  -0.042  1.5063 -2.5963  0.6169
 5124SOL     OW17750   2.269   6.705   3.435  0.3367  0.0565 -0.4305
 5124SOL    HW117751   2.342   6.646   3.456  0.3063  0.8066  2.0214
 5124SOL    HW217752   2.191   6.651   3.446  0.4117 -0.1109 -0.7027
 5125SOL     OW17753  10.007   3.345   7.887 -0.2494 -0.2204  0.3587
 5125SOL    HW117754  10.010   3.418   7.948 -0.9234  0.8628 -0.8548
 5125SOL    HW217755  10.082   3.290   7.910 -1.1026 -0.4535  2.8579
 5126SOL     OW17756   9.124   6.880   7.754 -0.5130  0.0529 -0.7303
 5126SOL    HW117757   9.188   6.922   7.697 -1.2654  2.4174  0.0495
 5126SOL    HW217758   9.168   6.873   7.839 -1.0019  0.9732 -0.3917
 5127SOL     OW17759   2.708   4.309   7.150  0.0158 -0.4863  0.1516
 5127SOL    HW117760   2.675   4.222   7.126 -0.2110 -0.8563  1.6790
 5127SOL    HW217761   2.802   4.298   7.157  0.1960 -0.1402 -1.4097
 5128SOL     OW17762   8.386   4.973   4.785  1.1621  0.5952  0.2512
 5128SOL    HW117763   8.338   4.976   4.868  2.9885  2.6528  1.3311
 5128SOL    HW217764   8.412   4.881   4.777 -1.4115 -0.2412  0.4592
 5129SOL     OW17765   3.425   5.590   8.116  0.2630 -0.5030  0.5592
 5129SOL    HW117766   3.481   5.571   8.191 -0.2886 -0.1253  1.0724
 5129SOL    HW217767   3.428   5.686   8.107 -1.7095 -0.2847  1.7201
 5130SOL     OW17768   6.712   1.077   3.938 -0.2165  0.1511  0.3534
 5130SOL    HW117769   6.743   1.056   4.026  1.4464 -2.3850 -0.7301
 5130SOL    HW217770   6.697   0.992   3.896 -1.9892  1.2819 -1.5150
 5131SOL     OW17771   2.459   7.650   4.203 -0.3454  0.2619  0.1513
 5131SOL    HW117772   2.487   7.691   4.121 -0.5297  1.1513  0.5163
 5131SOL    HW217773   2.502   7.701   4.272 -1.3648  0.4860  0.6514
 5132SOL     OW17774   9.374   6.448   4.331  0.2860  0.3188 -0.6543
 5132SOL    HW117775   9.340   6.373   4.379  0.7379 -0.1670 -1.0845
 5132SOL    HW217776   9.461   6.462   4.367  1.7067 -1.6599 -2.9970
 5133SOL     OW17777  10.003   6.210   3.426  0.8090  0.0496 -0.1338
 5133SOL    HW117778  10.044   6.242   3.346  2.5684 -1.4586  0.1068
 5133SOL    HW217779  10.006   6.285   3.486 -0.0434  1.0243 -1.2506
 5134SOL     OW17780   7.365   5.110   7.817  0.1814  0.3771  0.3443
 5134SOL    HW117781   7.355   5.163   7.896 -0.4174 -1.3632  1.4871
 5134SOL    HW217782   7.397   5.026   7.849  1.7160  0.2122 -1.4836
 5135SOL     OW17783   8.185   6.421   6.735  0.0918 -0.4365  0.0408
 5135SOL    HW117784   8.206   6.438   6.826  0.6156 -0.6773 -0.0252
 5135SOL    HW217785   8.267   6.438   6.688 -0.7720  2.0668 -0.7275
 5136SOL     OW17786   4.412  10.613   3.423  0.5727  0.0008 -0.0288
 5136SOL    HW117787   4.377  10.614   3.512 -0.6617 -1.8219 -0.4548
 5136SOL    HW217788   4.486  10.552   3.427  0.1327 -0.5621 -0.3724
 5137SOL     OW17789   0.584   5.345   8.379  0.0589  0.0300 -0.0174
 5137SOL    HW117790   0.603   5.260   8.419  0.4959 -0.2779 -0.8618
 5137SOL    HW217791   0.581   5.327   8.285 -1.0566  0.7245 -0.1324
 5138SOL     OW17792  10.719   5.072   5.780  0.6006  0.5003  0.3304
 5138SOL    HW117793  10.777   5.046   5.709  1.4627  0.6389  0.9623
 5138SOL    HW217794  10.769   5.138   5.829 -0.9284  2.2959 -0.3733
 5139SOL     OW17795   9.494   8.781   2.315 -0.0479 -0.2482 -0.4715
 5139SOL    HW117796   9.574   8.757   2.269 -0.6092 -2.1827 -0.5463
 5139SOL    HW217797   9.467   8.863   2.275  1.7107  0.2829 -0.6512
 5140SOL     OW17798   3.042   0.513  10.462  0.0938 -0.1982  0.1935
 5140SOL    HW117799   3.129   0.546  10.436 -0.3299 -0.5990 -1.8538
 5140SOL    HW217800   3.061   0.451  10.532  1.4220  0.0340  0.0795
 5141SOL     OW17801   4.250   2.720   2.458  0.2661 -0.1049 -0.2500
 5141SOL    HW117802   4.292   2.636   2.443 -0.9944 -0.8057  0.0345
 5141SOL    HW217803   4.168   2.716   2.409 -0.4753  0.3898  0.8918
 5142SOL     OW17804   7.413   6.770   6.207  0.0214  0.2570 -0.2480
 5142SOL    HW117805   7.420   6.798   6.116  1.0629 -3.1312 -1.3557
 5142SOL    HW217806   7.327   6.729   6.213 -0.6665  1.7363  0.7941
 5143SOL     OW17807   2.878   2.069   3.423 -0.0043 -0.0060 -0.5568
 5143SOL    HW117808   2.913   2.052   3.336  1.9129 -1.8132  0.4842
 5143SOL    HW217809   2.926   2.145   3.455 -0.1193  0.1528 -0.7645
 5144SOL     OW17810   5.700   5.462  10.286 -0.3012  0.5211  0.6545
 5144SOL    HW117811   5.657   5.531  10.236  0.6716 -0.5400 -1.7776
 5144SOL    HW217812   5.768   5.507  10.336 -0.3149  1.4370 -0.1289
 5145SOL     OW17813   0.374   6.511   8.481  0.0785 -0.0548 -0.2975
 5145SOL    HW117814   0.400   6.496   8.390  0.3712  0.8138 -0.3582
 5145SOL    HW217815   0.456   6.512   8.530 -0.1718 -4.2737  0.6158
 5146SOL     OW17816   5.082   1.249   2.965  0.4674 -0.0959 -0.1528
 5146SOL    HW117817   5.106   1.211   2.880 -0.5453 -1.3783  0.1030
 5146SOL    HW217818   5.076   1.174   3.024  1.0787  0.7660  1.0526
 5147SOL     OW17819   2.454   0.204   5.572 -0.0097 -0.3761 -0.4798
 5147SOL    HW117820   2.449   0.247   5.487  0.0518  1.4079  0.3630
 5147SOL    HW217821   2.546   0.181   5.582  0.7228  2.5016  0.4539
 5148SOL     OW17822   0.227   1.949   7.876 -0.0359  0.1625 -0.6076
 5148SOL    HW117823   0.260   1.884   7.938  0.1059 -0.3052 -1.1629
 5148SOL    HW217824   0.178   2.011   7.930 -2.4680 -1.8338 -0.3510
 5149SOL     OW17825   4.963   8.236   8.054 -0.1147 -0.0489  0.1537
 5149SOL    HW117826   4.916   8.167   8.101  0.2313  0.2046  0.8889
 5149SOL    HW217827   5.055   8.217   8.068 -0.0112  0.3276  0.0070
 5150SOL     OW17828   2.690   7.270   5.747  0.1577  0.0414 -0.3379
 5150SOL    HW117829   2.632   7.296   5.818 -2.9030 -1.6015 -2.0346
 5150SOL    HW217830   2.752   7.209   5.788 -0.4680  0.3941  1.2108
 5151SOL     OW17831   8.432   0.465   3.321 -0.0472  0.7863 -0.2528
 5151SOL    HW117832   8.405   0.533   3.259 -0.3864  3.2785  2.3832
 5151SOL    HW217833   8.523   0.487   3.342 -0.0861  0.2777  0.4773
 5152SOL     OW17834   7.893   3.763   4.611  0.0343  0.4638 -0.4219
 5152SOL    HW117835   7.958   3.808   4.664  0.4935  0.2139 -0.7673
 5152SOL    HW217836   7.910   3.670   4.626 -1.6406  0.3594  1.1901
 5153SOL     OW17837   9.296   8.879   6.644  0.2247 -0.5364 -0.1850
 5153SOL    HW117838   9.215   8.829   6.640 -0.2791  0.2937 -0.7172
 5153SOL    HW217839   9.272   8.960   6.687  0.7399 -0.2263 -0.4684
 5154SOL     OW17840   4.283  10.374   2.214 -0.1431  0.5747 -0.2049
 5154SOL    HW117841   4.326  10.316   2.277  1.6545  1.4390 -0.5526
 5154SOL    HW217842   4.219  10.319   2.170  0.2559 -0.6668  0.7054
 5155SOL     OW17843   7.049  10.459   8.881  0.0024 -0.0492  0.5927
 5155SOL    HW117844   7.033  10.367   8.861  2.9059 -0.0936 -2.4276
 5155SOL    HW217845   6.996  10.507   8.817 -0.7524  0.3707  1.5181
 5156SOL     OW17846   4.025   3.704   3.586  0.0445 -0.2077 -0.7423
 5156SOL    HW117847   4.099   3.661   3.629 -2.5527 -1.8652  2.4763
 5156SOL    HW217848   3.995   3.640   3.520  0.1138 -0.5006 -0.4903
 5157SOL     OW17849   2.768   4.115   3.059 -0.3927  0.0219  0.4072
 5157SOL    HW117850   2.805   4.032   3.028  0.3868  1.2907 -2.3977
 5157SOL    HW217851   2.674   4.106   3.043 -0.3544 -0.4694  0.4536
 5158SOL     OW17852   0.106   2.890   4.683 -0.1287 -0.0434  0.2896
 5158SOL    HW117853   0.168   2.881   4.756 -0.4713  0.3337  0.6355
 5158SOL    HW217854   0.161   2.916   4.608 -0.1311  3.4014  1.2807
 5159SOL     OW17855  10.552   6.801   8.321 -0.0840  0.1950  0.2686
 5159SOL    HW117856  10.573   6.884   8.363 -2.5087  2.1486 -2.0346
 5159SOL    HW217857  10.616   6.793   8.251 -1.0245  1.2266 -0.7529
 5160SOL     OW17858   6.127   3.970   7.280 -0.8381  0.1103  0.6964
 5160SOL    HW117859   6.207   3.969   7.333 -0.9698 -0.1087  0.8890
 5160SOL    HW217860   6.126   3.885   7.237 -1.3316 -0.1615  1.2359
 5161SOL     OW17861   5.746   4.397   5.877 -0.0122 -0.5703  0.6490
 5161SOL    HW117862   5.739   4.303   5.893 -2.9720 -1.2948 -3.3674
 5161SOL    HW217863   5.797   4.404   5.796 -2.5022  0.9043 -0.9087
 5162SOL     OW17864  10.322   8.055   3.430 -0.2295  0.1599  0.4765
 5162SOL    HW117865  10.400   8.105   3.406 -0.3123  0.4510  0.8085
 5162SOL    HW217866  10.355   7.984   3.486  0.0278 -0.8176 -0.8766
 5163SOL     OW17867  10.271   0.384   9.386  0.0110 -0.4442  0.1911
 5163SOL    HW117868  10.328   0.309   9.373 -1.1687 -1.4857  0.8297
 5163SOL    HW217869  10.265   0.394   9.481  2.3123  2.2144  0.1907
 5164SOL     OW17870   3.907   4.542   3.745  0.1147  0.3943  0.3646
 5164SOL    HW117871   3.994   4.527   3.782  1.0881  0.8276 -1.6252
 5164SOL    HW217872   3.886   4.632   3.770  1.4653  1.2524 -1.3534
 5165SOL     OW17873   5.132   9.418   5.350 -0.2948  0.2848 -0.8259
 5165SOL    HW117874   5.153   9.338   5.397  0.7243  0.6866 -0.5677
 5165SOL    HW217875   5.123   9.484   5.418 -2.3963  0.1753 -0.9193
 5166SOL     OW17876   9.340   6.488   7.952 -0.3777 -0.7833  0.0059
 5166SOL    HW117877   9.260   6.481   7.900 -0.3951  0.7648 -0.2203
 5166SOL    HW217878   9.377   6.573   7.928  1.1711 -1.3261  0.3580
 5167SOL     OW17879  10.356   2.263   0.889 -0.0628 -0.3964  0.2825
 5167SOL    HW117880  10.312   2.340   0.926 -0.2555  0.6835 -2.0426
 5167SOL    HW217881  10.442   2.262   0.930 -0.4930  0.3318  1.2349
 5168SOL     OW17882   8.888   3.674   4.136 -0.1089 -0.1069  0.5788
 5168SOL    HW117883   8.800   3.678   4.173 -0.8232  1.1019 -1.1178
 5168SOL    HW217884   8.875   3.679   4.041  1.8350  2.4515  0.3305
 5169SOL     OW17885   9.320   8.330   1.741  0.1139 -0.2856  0.0476
 5169SOL    HW117886   9.397   8.369   1.698  0.7434  1.0584  2.2235
 5169SOL    HW217887   9.356   8.268   1.804 -0.6644 -0.6871  0.1114
 5170SOL     OW17888   2.271   0.900   5.003  0.2471 -0.0944 -0.3288
 5170SOL    HW117889   2.329   0.910   4.927  2.2228 -0.2530  1.0822
 5170SOL    HW217890   2.320   0.939   5.075 -1.7311  0.3822  0.8296
 5171SOL     OW17891   5.708   5.298   1.321 -0.3337  0.2390 -0.4086
 5171SOL    HW117892   5.735   5.270   1.408  0.2184  1.3482 -0.2090
 5171SOL    HW217893   5.776   5.358   1.292 -2.1192  2.4552 -0.2506
 5172SOL     OW17894   4.832   7.032   8.541 -0.1690 -0.4621  0.0899
 5172SOL    HW117895   4.830   6.967   8.471 -0.3783 -0.5238  0.1529
 5172SOL    HW217896   4.835   7.116   8.496  1.4451 -0.5399 -0.0013
 5173SOL     OW17897   0.790   2.756   0.404  0.0576 -0.5651 -0.4245
 5173SOL    HW117898   0.742   2.838   0.395 -0.1515 -0.8656 -2.6542
 5173SOL    HW217899   0.878   2.775   0.371 -0.0217 -1.2277 -1.0592
 5174SOL     OW17900   9.213   3.800   9.268  0.2892 -0.7720  0.2542
 5174SOL    HW117901   9.200   3.706   9.273 -1.9208 -0.4576  1.3769
 5174SOL    HW217902   9.300   3.814   9.304  1.3294 -2.4771 -1.3875
 5175SOL     OW17903   0.932   6.149   6.836  0.3044  0.0123 -0.1997
 5175SOL    HW117904   0.889   6.118   6.757  0.0935  1.3428 -0.6246
 5175SOL    HW217905   1.015   6.100   6.839 -0.1914 -0.8727 -0.6145
 5176SOL     OW17906  10.348   5.144   0.235 -0.3380 -0.5680  0.3333
 5176SOL    HW117907  10.403   5.185   0.168 -0.3484 -1.1326 -0.0316
 5176SOL    HW217908  10.259   5.168   0.210 -0.5542 -2.7545 -1.3072
 5177SOL     OW17909   5.539   7.864   9.429 -0.1309 -0.1311 -0.5664
 5177SOL    HW117910   5.529   7.938   9.489 -0.4684  0.0841 -0.8783
 5177SOL    HW217911   5.533   7.904   9.342  0.6204 -0.3963 -0.7523
 5178SOL     OW17912   4.449   4.377   0.919  0.0119  0.4065  0.5844
 5178SOL    HW117913   4.461   4.296   0.870 -2.1836  1.3182 -1.6409
 5178SOL    HW217914   4.498   4.443   0.870 -0.3288  0.9163  0.9190
 5179SOL     OW17915   9.675   0.418   0.241  0.8898 -0.0520 -0.3005
 5179SOL    HW117916   9.694   0.511   0.255  1.2312 -0.2754  0.8227
 5179SOL    HW217917   9.745   0.388   0.183  1.1783  0.2435 -0.1117
 5180SOL     OW17918   9.066   3.506   3.668  0.3221 -0.0129 -0.0574
 5180SOL    HW117919   9.042   3.598   3.679 -0.9481 -0.3721  0.3429
 5180SOL    HW217920   9.115   3.484   3.747  1.1923  0.4693 -0.4425
 5181SOL     OW17921   7.890   3.159   8.633  0.7733  0.1769 -0.2672
 5181SOL    HW117922   7.953   3.192   8.570  0.1180 -0.5449 -1.3372
 5181SOL    HW217923   7.909   3.066   8.640  0.3439  0.1032  0.0077
 5182SOL     OW17924   5.430   6.040   3.265 -0.6733  1.0192  0.5319
 5182SOL    HW117925   5.439   6.060   3.172  0.6183  0.4841  0.5196
 5182SOL    HW217926   5.339   6.013   3.275 -0.7030  0.6110 -0.6675
 5183SOL     OW17927  10.618   5.165   9.065 -0.0218  0.2776  0.3669
 5183SOL    HW117928  10.642   5.234   9.127 -1.0214 -0.1753  1.2916
 5183SOL    HW217929  10.536   5.196   9.026  1.0423  0.9786 -1.4314
 5184SOL     OW17930  10.647   7.249   4.691 -0.4286 -0.2750 -0.0171
 5184SOL    HW117931  10.740   7.249   4.667 -0.0511 -0.2092  1.3825
 5184SOL    HW217932  10.616   7.162   4.667 -0.4772  0.2451 -2.1096
 5185SOL     OW17933   0.982  10.284   2.348  0.0734  0.0087 -0.7129
 5185SOL    HW117934   0.909  10.299   2.288  1.0095 -1.7552 -2.4118
 5185SOL    HW217935   1.060  10.287   2.293  0.9859 -1.6309  0.3856
 5186SOL     OW17936   2.563   6.829   7.333  0.0536  0.2461  0.2820
 5186SOL    HW117937   2.581   6.786   7.417 -2.7808  0.0562  0.8891
 5186SOL    HW217938   2.644   6.877   7.313  2.1111 -2.5364  1.2735
 5187SOL     OW17939   4.339   8.616  10.108 -0.5773  0.5292  0.8622
 5187SOL    HW117940   4.246   8.618  10.133 -0.7774  1.5045  0.0871
 5187SOL    HW217941   4.340   8.563  10.028 -0.3368 -0.1879  1.3315
 5188SOL     OW17942   8.229   9.654   5.490  0.4657  0.0355 -0.4644
 5188SOL    HW117943   8.319   9.637   5.464  0.3345  0.9560 -1.6179
 5188SOL    HW217944   8.235   9.734   5.543  0.2714  0.3979 -0.9866
 5189SOL     OW17945   2.811   0.502   1.009  0.1135 -0.1222 -0.1310
 5189SOL    HW117946   2.719   0.492   0.986  0.2913 -3.4189  0.0666
 5189SOL    HW217947   2.839   0.582   0.964 -2.8186  1.0480 -0.0681
 5190SOL     OW17948   5.527   0.791   7.570  0.3925 -0.1298  0.2799
 5190SOL    HW117949   5.606   0.759   7.613  0.7133 -0.2654 -0.3841
 5190SOL    HW217950   5.525   0.743   7.487 -0.7449 -0.6221  0.5700
 5191SOL     OW17951   6.656   7.145   8.756  0.0678  0.6822 -0.0800
 5191SOL    HW117952   6.674   7.070   8.812  0.7340  0.5787 -0.4162
 5191SOL    HW217953   6.561   7.154   8.756 -0.0661 -0.6197 -0.6387
 5192SOL     OW17954  10.703   9.533   2.110  0.4869 -0.0928 -0.2310
 5192SOL    HW117955  10.720   9.626   2.103 -0.1564  0.0605  0.1367
 5192SOL    HW217956  10.718   9.512   2.202 -0.8082 -0.0373  0.0184
 5193SOL     OW17957   0.957   7.611   6.978 -0.3646  0.3886  0.3997
 5193SOL    HW117958   0.888   7.552   6.948 -1.5758  1.8218  0.2362
 5193SOL    HW217959   1.031   7.594   6.919 -0.5132 -1.2483  0.6527
 5194SOL     OW17960   3.684   2.624   8.929  0.0889  0.5948 -0.1137
 5194SOL    HW117961   3.716   2.565   8.998  0.6311  0.7412 -0.2362
 5194SOL    HW217962   3.756   2.630   8.867 -0.6226 -0.0212 -1.0248
 5195SOL     OW17963   6.072   0.857   8.199  0.2122 -0.3762 -0.4898
 5195SOL    HW117964   6.059   0.884   8.108  0.8636 -0.9769 -0.7657
 5195SOL    HW217965   6.016   0.780   8.210 -1.7519  1.0766  0.3349
 5196SOL     OW17966   4.275   9.598   5.161  0.5605  0.0155 -0.3864
 5196SOL    HW117967   4.261   9.572   5.070 -0.6140 -1.1092  0.0850
 5196SOL    HW217968   4.288   9.693   5.157 -2.5083  0.5251 -1.4957
 5197SOL     OW17969   7.162   4.539   4.496  0.1694 -0.0612  0.6350
 5197SOL    HW117970   7.100   4.569   4.562  2.3451  0.3054  2.6672
 5197SOL    HW217971   7.164   4.444   4.506 -1.9394 -0.4039 -1.3239
 5198SOL     OW17972   8.417   2.957   8.648 -0.3457  0.7316  0.8411
 5198SOL    HW117973   8.503   2.962   8.689 -0.0326 -1.0744  0.4968
 5198SOL    HW217974   8.356   2.954   8.722  0.0417 -0.0530  1.1398
 5199SOL     OW17975   8.399   3.276   1.579  0.2974 -0.1536  0.0423
 5199SOL    HW117976   8.461   3.333   1.534 -0.1724 -0.1561 -0.6266
 5199SOL    HW217977   8.350   3.233   1.508  0.0665 -0.7412  0.5477
 5200SOL     OW17978   8.745   1.510   2.809 -0.6520 -0.8970 -0.1106
 5200SOL    HW117979   8.788   1.588   2.843  0.1724 -0.9206 -1.0676
 5200SOL    HW217980   8.793   1.437   2.848 -0.3858 -0.9231 -0.4843
 5201SOL     OW17981   3.094  10.537   2.031 -0.3990  0.2568 -0.0285
 5201SOL    HW117982   3.161  10.601   2.006 -1.2504  1.6208  1.0670
 5201SOL    HW217983   3.119  10.509   2.119 -0.5592 -0.1966 -0.1253
 5202SOL     OW17984   1.068   4.816   0.031 -0.2353 -0.0854 -0.1064
 5202SOL    HW117985   0.990   4.870   0.026 -0.1187  0.0621 -0.3499
 5202SOL    HW217986   1.064   4.760  -0.047 -1.2459 -1.6432  1.0113
 5203SOL     OW17987   6.973  10.079   9.338 -0.1020 -0.4147 -0.3194
 5203SOL    HW117988   7.023  10.049   9.262  1.3446 -1.1801  0.8528
 5203SOL    HW217989   7.038  10.084   9.408 -1.4353 -0.0518  0.9458
 5204SOL     OW17990   2.535   6.845   8.472  0.6830  0.5994 -0.0123
 5204SOL    HW117991   2.613   6.789   8.474  0.9524  0.9705  0.0480
 5204SOL    HW217992   2.553   6.913   8.536  0.8656  1.4194 -0.9180
 5205SOL     OW17993  10.713   2.235   6.907  0.1093  0.5830 -0.8763
 5205SOL    HW117994  10.630   2.264   6.943  0.1129 -1.5045  1.0305
 5205SOL    HW217995  10.769   2.312   6.910 -0.9756  1.3644  0.3512
 5206SOL     OW17996   8.996   5.072   4.952 -0.3265 -0.3602 -0.2400
 5206SOL    HW117997   9.077   5.104   4.913 -0.2872 -0.7481 -0.4833
 5206SOL    HW217998   8.991   5.116   5.037 -1.2024  1.7319 -1.2903
 5207SOL     OW17999   6.402   2.084   8.717  0.3824 -0.1627  0.1719
 5207SOL    HW118000   6.398   2.068   8.812  1.4459 -1.8290 -0.0082
 5207SOL    HW218001   6.406   2.179   8.709 -1.0876  0.0761  1.7176
 5208SOL     OW18002   8.554   5.832   0.625 -0.2786  0.3633 -0.2659
 5208SOL    HW118003   8.551   5.914   0.576  1.3420  0.2513 -0.6039
 5208SOL    HW218004   8.615   5.850   0.698  0.3718 -0.6219 -0.5481
 5209SOL     OW18005   9.132   9.867   5.529  0.5703 -0.3172  0.6553
 5209SOL    HW118006   9.134   9.911   5.444 -1.3128 -1.5402 -0.0878
 5209SOL    HW218007   9.114   9.775   5.508  3.6382 -1.4085  2.1822
 5210SOL     OW18008   1.783   3.570   3.660 -0.6503  0.2954  0.5859
 5210SOL    HW118009   1.798   3.625   3.737  1.3859  1.8713 -0.8165
 5210SOL    HW218010   1.736   3.626   3.599 -0.0965 -0.0959 -0.2219
 5211SOL     OW18011   4.249   6.099   2.156 -0.5053  0.4031 -0.3078
 5211SOL    HW118012   4.340   6.105   2.125 -0.3796 -1.1201 -0.3110
 5211SOL    HW218013   4.205   6.044   2.090 -1.0447 -0.1505  0.4993
 5212SOL     OW18014   2.751   6.431   0.429 -0.0869 -0.1800  0.5333
 5212SOL    HW118015   2.785   6.415   0.517  1.1503  1.9320  0.5131
 5212SOL    HW218016   2.822   6.404   0.370 -0.4039 -0.4002  0.2498
 5213SOL     OW18017   1.415   8.894   7.468  0.6782 -0.2193  0.3870
 5213SOL    HW118018   1.450   8.835   7.534  0.6530  0.1613  0.7487
 5213SOL    HW218019   1.443   8.981   7.497 -1.4071  0.2202  1.2486
 5214SOL     OW18020   5.883   4.904   8.600 -0.1465  0.2513 -0.1284
 5214SOL    HW118021   5.871   4.889   8.694 -1.2585 -0.7253 -0.4065
 5214SOL    HW218022   5.805   4.953   8.573 -0.1397 -0.0215 -0.6629
 5215SOL     OW18023   8.118   7.343   4.514 -0.0061  0.5402  0.3065
 5215SOL    HW118024   8.183   7.393   4.563  1.7657 -2.3282  1.1564
 5215SOL    HW218025   8.094   7.271   4.573  0.2964 -1.5956 -2.0106
 5216SOL     OW18026   5.964   1.988   3.814 -0.0815 -0.0799 -0.8207
 5216SOL    HW118027   5.938   1.939   3.736  0.3039 -1.4093 -0.1594
 5216SOL    HW218028   5.905   1.955   3.883  0.6446 -0.1295 -0.2115
 5217SOL     OW18029   1.848   9.994   1.011 -0.0328 -0.1107 -0.1890
 5217SOL    HW118030   1.879   9.985   0.921 -0.0813  1.5262 -0.4038
 5217SOL    HW218031   1.774  10.054   1.005  0.5265  0.7468  1.0389
 5218SOL     OW18032  10.372   1.919   6.696  0.3807  0.0377 -0.0352
 5218SOL    HW118033  10.459   1.936   6.733  0.7350  2.2150 -1.6751
 5218SOL    HW218034  10.367   1.824   6.692  2.4421 -0.1695  0.6745
 5219SOL     OW18035   2.296  10.160   6.020 -0.2255 -0.3101  0.1160
 5219SOL    HW118036   2.277  10.199   6.105 -0.9034 -0.1671 -0.0937
 5219SOL    HW218037   2.221  10.103   6.003 -0.2299 -0.1255 -0.5103
 5220SOL     OW18038   8.925   8.024   5.763  0.2648 -0.3310  0.2774
 5220SOL    HW118039   8.848   7.999   5.815 -0.4222  1.0635 -0.0206
 5220SOL    HW218040   8.982   8.069   5.826  0.7374 -1.1274  0.4367
 5221SOL     OW18041   3.530  10.700   6.787  0.3168 -0.1205  0.1153
 5221SOL    HW118042   3.528  10.629   6.723  1.0925 -0.6336  0.6480
 5221SOL    HW218043   3.522  10.657   6.872 -0.3266  0.5234  0.3983
 5222SOL     OW18044   2.456   6.007   2.784 -0.3131 -0.7826  0.2085
 5222SOL    HW118045   2.505   5.953   2.722 -0.7646 -0.6124 -0.2992
 5222SOL    HW218046   2.380   6.038   2.734 -0.2978 -0.0566  0.6306
 5223SOL     OW18047   2.182   7.499   8.105 -0.1584  0.1021 -0.0768
 5223SOL    HW118048   2.263   7.452   8.122 -0.6841 -1.4806 -1.6082
 5223SOL    HW218049   2.201   7.556   8.031 -0.0480  0.8735  0.5366
 5224SOL     OW18050   6.661   8.820   1.407  0.0137 -0.9130 -0.3644
 5224SOL    HW118051   6.712   8.832   1.487 -1.2355 -2.5538  0.7553
 5224SOL    HW218052   6.580   8.868   1.423 -0.0416 -0.8479 -0.8479
 5225SOL     OW18053  10.139   8.983   0.203  0.3454 -0.1209 -0.0100
 5225SOL    HW118054  10.197   8.948   0.269  1.3875  1.9280  0.2308
 5225SOL    HW218055  10.137   8.916   0.134  0.8665 -1.3611  1.1490
 5226SOL     OW18056   3.982   9.576   3.567  0.1045  0.1425 -0.3145
 5226SOL    HW118057   4.027   9.658   3.588 -0.8835  1.1163 -1.7655
 5226SOL    HW218058   4.010   9.515   3.635  3.1484  0.8225 -0.8247
 5227SOL     OW18059   2.212   3.416   4.620 -0.5504 -0.1060  0.2852
 5227SOL    HW118060   2.198   3.377   4.534  0.9947  0.2988 -0.1669
 5227SOL    HW218061   2.179   3.350   4.681  2.8126 -2.7296 -0.3988
 5228SOL     OW18062   8.645   4.663   1.999  0.2257 -0.0181  0.6019
 5228SOL    HW118063   8.652   4.657   2.095 -0.0078 -0.4926  0.5896
 5228SOL    HW218064   8.563   4.620   1.978  1.2873 -1.8514 -0.0122
 5229SOL     OW18065   1.334   0.493   6.470 -0.2339  0.2653  0.3779
 5229SOL    HW118066   1.403   0.556   6.488 -0.2779  1.2819 -2.4728
 5229SOL    HW218067   1.265   0.513   6.533  1.4431  0.1427  2.3561
 5230SOL     OW18068   0.125  10.652   2.747 -0.3357 -0.1545  0.1537
 5230SOL    HW118069   0.182  10.729   2.741 -2.4027  1.3490 -2.7842
 5230SOL    HW218070   0.074  10.665   2.827  0.9073  0.2783  0.9060
 5231SOL     OW18071   9.206   7.437   9.564  0.7777  0.1867 -0.1242
 5231SOL    HW118072   9.155   7.518   9.560  0.2934 -0.0960  0.2502
 5231SOL    HW218073   9.295   7.463   9.538  0.2825  0.5384 -1.5244
 5232SOL     OW18074   1.878   2.633   9.931 -0.0551 -0.0105  0.3892
 5232SOL    HW118075   1.786   2.643   9.909  0.1173  0.3793 -0.2046
 5232SOL    HW218076   1.890   2.687  10.009 -0.2063  0.4344  0.1121
 5233SOL     OW18077   2.414   3.564   4.078 -0.8870  0.2270 -0.0524
 5233SOL    HW118078   2.409   3.608   3.994  1.2982  0.6822  0.0126
 5233SOL    HW218079   2.467   3.486   4.062 -0.6283  0.2016  0.8350
 5234SOL     OW18080   2.555   3.685   1.041  0.9774 -0.3077  0.3590
 5234SOL    HW118081   2.595   3.693   1.128 -1.0926 -0.9087  1.4336
 5234SOL    HW218082   2.517   3.772   1.025 -1.0351 -0.9431  1.3636
 5235SOL     OW18083   7.004   5.787   9.292 -0.0365 -0.2108  0.5783
 5235SOL    HW118084   7.060   5.718   9.257  0.3246  0.6465 -0.6150
 5235SOL    HW218085   7.041   5.807   9.378  1.4040  0.2001 -0.0967
 5236SOL     OW18086   7.180   4.500   7.757  0.3464  0.2528  0.2574
 5236SOL    HW118087   7.224   4.565   7.812  1.8526 -1.5944  1.3361
 5236SOL    HW218088   7.119   4.456   7.816 -0.8337  0.7773 -0.5220
 5237SOL     OW18089   1.337   0.986   8.489 -0.2953  0.1205  0.1142
 5237SOL    HW118090   1.299   1.071   8.511  2.9077  1.3798  1.4149
 5237SOL    HW218091   1.352   0.944   8.574 -1.7699 -1.7841 -0.5051
 5238SOL     OW18092   6.528   8.146   7.616  0.0430  0.0223  0.5073
 5238SOL    HW118093   6.446   8.159   7.569 -0.2154 -0.3164  0.8653
 5238SOL    HW218094   6.551   8.234   7.648  0.1976  0.2501 -0.2002
 5239SOL     OW18095   7.615  10.417  10.612  0.7979  0.6999 -0.9218
 5239SOL    HW118096   7.547  10.483  10.629  0.1573  0.0806 -0.9961
 5239SOL    HW218097   7.566  10.335  10.604  1.6185  0.1411 -0.3803
 5240SOL     OW18098   3.814   9.342   1.304 -0.4373 -0.0309  0.2249
 5240SOL    HW118099   3.864   9.345   1.223  2.4206 -1.6393  1.7784
 5240SOL    HW218100   3.864   9.396   1.365 -0.5897 -1.5880  1.8171
 5241SOL     OW18101   8.439   8.255   5.195 -0.2812 -0.4340 -0.3924
 5241SOL    HW118102   8.417   8.244   5.287 -1.4323 -0.8761 -0.6974
 5241SOL    HW218103   8.479   8.342   5.190  2.5107 -1.5141  0.9587
 5242SOL     OW18104   8.552   0.590   3.931 -0.5478  0.5577  0.1430
 5242SOL    HW118105   8.458   0.599   3.917 -1.0247 -1.5452  1.4847
 5242SOL    HW218106   8.569   0.496   3.921  1.1310  0.6745  1.3555
 5243SOL     OW18107   0.290   6.640   1.284 -0.2758 -0.4787  0.0942
 5243SOL    HW118108   0.239   6.712   1.248 -0.0888 -0.7805 -0.8310
 5243SOL    HW218109   0.242   6.561   1.258 -0.4135 -0.6920  0.9860
 5244SOL     OW18110   0.905   5.327   2.083  0.0064 -0.0092  0.0079
 5244SOL    HW118111   0.917   5.412   2.040 -0.5362 -0.8388 -1.8873
 5244SOL    HW218112   0.979   5.321   2.144  0.2885  1.6331 -0.1112
 5245SOL     OW18113   6.433   7.212   2.811  0.5051 -0.5010  0.1568
 5245SOL    HW118114   6.505   7.194   2.871  2.7487 -2.6146 -2.8662
 5245SOL    HW218115   6.443   7.304   2.787  2.1589 -0.7269 -0.1108
 5246SOL     OW18116   7.597   4.369   0.093 -0.1515  0.3257  0.4818
 5246SOL    HW118117   7.620   4.457   0.121 -1.4473  1.2460 -1.1673
 5246SOL    HW218118   7.503   4.362   0.107 -0.1375 -0.6421  0.2063
 5247SOL     OW18119  10.560   7.098   2.785 -0.1528  0.5234  0.1010
 5247SOL    HW118120  10.583   7.085   2.877 -0.3548 -2.1746 -0.1274
 5247SOL    HW218121  10.643   7.118   2.742  0.3163 -0.3158  0.5850
 5248SOL     OW18122   3.064   7.919   2.743 -0.1410 -0.1439 -0.1777
 5248SOL    HW118123   3.022   7.839   2.773 -0.9168  0.7820  1.3440
 5248SOL    HW218124   3.027   7.934   2.656 -0.5408 -1.0388 -0.1695
 5249SOL     OW18125   3.395   2.712   0.753 -0.2775  0.1222  0.0604
 5249SOL    HW118126   3.437   2.761   0.824 -0.4418 -0.4545  0.5628
 5249SOL    HW218127   3.318   2.672   0.793 -1.3610  1.2029 -0.8605
 5250SOL     OW18128   5.080   2.214   5.881 -0.3952 -0.6525  0.3068
 5250SOL    HW118129   4.985   2.214   5.867 -0.2324 -1.0553 -0.9433
 5250SOL    HW218130   5.107   2.126   5.853  0.3933 -0.3986  0.2730
 5251SOL     OW18131   9.936   6.609   7.186  0.5661  0.4167  0.4631
 5251SOL    HW118132   9.908   6.663   7.112 -1.7863 -1.2713  0.0055
 5251SOL    HW218133  10.020   6.572   7.159 -0.3297 -0.3170 -1.5045
 5252SOL     OW18134  10.034   9.590   0.237 -0.2001 -0.0460 -0.0354
 5252SOL    HW118135   9.991   9.631   0.313 -1.8256 -0.7295 -0.5320
 5252SOL    HW218136   9.971   9.602   0.166  0.9880 -0.0575 -1.1032
 5253SOL     OW18137   6.896   1.586   1.868  0.2084  0.3677  0.5979
 5253SOL    HW118138   6.966   1.568   1.804  0.3660 -2.3338  1.4211
 5253SOL    HW218139   6.942   1.590   1.952 -0.3308  1.2978  0.8602
 5254SOL     OW18140   6.070   2.523   0.626 -0.2549 -0.0122 -0.5947
 5254SOL    HW118141   6.147   2.567   0.662  1.2725 -2.4181 -0.7528
 5254SOL    HW218142   6.004   2.592   0.621  0.6973  1.3929  2.9861
 5255SOL     OW18143   2.789   5.663   1.565 -0.2293  0.2713 -0.1610
 5255SOL    HW118144   2.707   5.711   1.554 -0.1528  0.7220  1.1726
 5255SOL    HW218145   2.812   5.636   1.476 -0.6613  2.0500 -0.8603
 5256SOL     OW18146   8.767   9.994   0.720 -0.8351 -0.1325 -0.4550
 5256SOL    HW118147   8.716   9.918   0.692 -0.2973 -0.9786  0.7926
 5256SOL    HW218148   8.837   9.957   0.774  0.6509  1.0671 -1.4797
 5257SOL     OW18149   1.808   9.279   5.476  0.0515 -0.1327 -0.0729
 5257SOL    HW118150   1.718   9.256   5.452  0.7824 -0.6662 -2.7277
 5257SOL    HW218151   1.862   9.227   5.416  2.0868  1.2977  0.4197
 5258SOL     OW18152   5.685   4.290   4.779  0.1494  0.6190 -0.3188
 5258SOL    HW118153   5.663   4.226   4.847 -0.6718  1.1959 -0.0281
 5258SOL    HW218154   5.729   4.361   4.825  0.4015  0.6033 -0.5318
 5259SOL     OW18155   1.931   4.574   6.371  0.3536  0.3528 -0.8570
 5259SOL    HW118156   1.879   4.618   6.304  1.4319  1.7993 -0.7930
 5259SOL    HW218157   1.919   4.628   6.449  0.6973 -0.1910 -0.4218
 5260SOL     OW18158   4.288   1.041   5.188 -0.6478 -0.0626 -0.1398
 5260SOL    HW118159   4.241   1.012   5.110 -0.3642 -0.5814 -0.1167
 5260SOL    HW218160   4.288   1.137   5.181 -0.7778 -0.0969 -0.6812
 5261SOL     OW18161   3.208   6.650   1.968  0.3213 -0.2763 -0.1731
 5261SOL    HW118162   3.297   6.676   1.942  0.9426 -0.8681  1.2196
 5261SOL    HW218163   3.157   6.731   1.964  1.5844  0.6782  1.6190
 5262SOL     OW18164   7.927   1.786   6.399 -0.1705  0.1724  0.8010
 5262SOL    HW118165   7.879   1.714   6.358  0.1613  0.6285 -0.4143
 5262SOL    HW218166   7.977   1.744   6.469  0.2266 -0.8281 -0.0619
 5263SOL     OW18167   9.875   2.514   9.037  0.2596 -0.0949 -0.1548
 5263SOL    HW118168   9.795   2.468   9.009 -0.3746  1.2770 -0.6601
 5263SOL    HW218169   9.944   2.448   9.031 -1.0150 -1.7060  1.5220
 5264SOL     OW18170   2.286   1.656   6.496 -0.6278  0.2217  0.1949
 5264SOL    HW118171   2.354   1.714   6.529  0.1726  0.6214 -1.9507
 5264SOL    HW218172   2.237   1.710   6.434 -1.4443 -0.7068  0.0051
 5265SOL     OW18173   9.198   3.504   7.302 -0.5736  0.4199  0.5017
 5265SOL    HW118174   9.196   3.437   7.371 -0.6874 -0.2098 -0.1055
 5265SOL    HW218175   9.286   3.542   7.309 -0.7623  0.7357  1.3338
 5266SOL     OW18176   9.158   1.939   5.010 -0.2288  0.6068  0.0265
 5266SOL    HW118177   9.140   1.848   4.988 -2.3786  0.8638  0.5041
 5266SOL    HW218178   9.187   1.936   5.101 -0.9875  0.4499  0.2702
 5267SOL     OW18179   9.696   5.654   1.993 -0.1288  0.0125  0.0635
 5267SOL    HW118180   9.704   5.577   1.936  0.8878  0.7761 -0.8836
 5267SOL    HW218181   9.646   5.623   2.068 -1.7255 -1.0002 -1.3287
 5268SOL     OW18182   7.968   1.350   7.083 -0.0739 -0.4370 -0.6164
 5268SOL    HW118183   7.974   1.301   7.001 -0.8446 -1.5553 -0.0356
 5268SOL    HW218184   7.889   1.316   7.125  0.2333  0.2133  0.5336
 5269SOL     OW18185   8.634   6.885   6.585  0.1562 -0.3906  0.5915
 5269SOL    HW118186   8.668   6.902   6.673  0.7655  0.2962  0.2305
 5269SOL    HW218187   8.711   6.880   6.529 -0.1457 -1.9836  0.2552
 5270SOL     OW18188   1.059   2.891   8.022 -0.0219 -0.0176  0.4855
 5270SOL    HW118189   1.009   2.958   8.069 -0.0934  0.7295 -0.6320
 5270SOL    HW218190   1.150   2.906   8.048  0.3154  2.1323 -1.5664
 5271SOL     OW18191   4.720   5.289   5.252  0.2222  0.4471  0.7067
 5271SOL    HW118192   4.697   5.255   5.338 -1.4042  1.0418  0.5465
 5271SOL    HW218193   4.684   5.377   5.250  3.1390  1.7439  0.5975
 5272SOL     OW18194   1.670   9.669   6.916 -0.3726 -0.2852  0.0880
 5272SOL    HW118195   1.646   9.762   6.909 -1.4188 -0.5893 -0.3706
 5272SOL    HW218196   1.608   9.633   6.979  0.4861 -0.5379  0.8164
 5273SOL     OW18197  10.648   9.209   7.221  0.2312 -0.2025  0.1273
 5273SOL    HW118198  10.601   9.252   7.149 -2.1415 -0.0524  1.6631
 5273SOL    HW218199  10.697   9.138   7.178 -0.5786  0.2741 -1.7066
 5274SOL     OW18200   8.890   0.589   5.015  0.1175 -0.1527  0.4355
 5274SOL    HW118201   8.894   0.499   4.982 -0.6355  0.0999 -0.3877
 5274SOL    HW218202   8.961   0.634   4.970  0.5817 -0.3605  0.9512
 5275SOL     OW18203  10.245   9.623   6.553  0.0997  0.2035  0.4744
 5275SOL    HW118204  10.172   9.611   6.492 -0.3132  0.3660  0.9334
 5275SOL    HW218205  10.293   9.540   6.550 -0.1499  0.0661  0.2336
 5276SOL     OW18206   2.112   3.077   9.453 -0.6483 -0.3798  0.1543
 5276SOL    HW118207   2.095   2.986   9.478  1.1247 -0.5368  0.9716
 5276SOL    HW218208   2.136   3.121   9.534 -0.2432  0.5031 -0.4205
 5277SOL     OW18209   2.128   8.504   5.636 -0.6643 -0.2338  0.5828
 5277SOL    HW118210   2.089   8.506   5.549 -0.3294 -1.5641  0.3842
 5277SOL    HW218211   2.201   8.566   5.632  0.1908 -1.2792 -0.5073
 5278SOL     OW18212   8.801   9.993   7.841 -0.3972 -0.4253 -0.1951
 5278SOL    HW118213   8.842  10.011   7.756 -1.8883  1.6546 -0.5427
 5278SOL    HW218214   8.820   9.900   7.857  1.4363 -0.4267 -1.9277
 5279SOL     OW18215   7.666  10.467   7.418  0.4853 -0.3242  0.0492
 5279SOL    HW118216   7.754  10.501   7.404  0.8132 -0.9974  0.4265
 5279SOL    HW218217   7.679  10.379   7.455 -0.3277  0.2629  1.8481
 5280SOL     OW18218   6.173   7.692   1.689 -0.6095 -0.0419 -0.0043
 5280SOL    HW118219   6.169   7.778   1.648  3.3009 -0.3693 -1.4932
 5280SOL    HW218220   6.218   7.707   1.772 -1.9757 -0.4154  0.8426
 5281SOL     OW18221   7.309   3.765   6.597 -0.1198  0.1411 -0.1184
 5281SOL    HW118222   7.353   3.743   6.680  0.8879 -0.8173 -0.8777
 5281SOL    HW218223   7.230   3.811   6.624 -0.6623 -1.5838  1.4801
 5282SOL     OW18224   4.937   6.476   2.564 -0.0916  0.2845  0.5760
 5282SOL    HW118225   4.910   6.555   2.610 -0.3620  0.2565  0.4701
 5282SOL    HW218226   4.857   6.446   2.520  0.6419  1.5805 -1.7969
 5283SOL     OW18227   7.322   4.632   0.872  0.3821  0.4898 -0.5423
 5283SOL    HW118228   7.349   4.552   0.916 -1.2500 -0.0070 -0.3452
 5283SOL    HW218229   7.295   4.691   0.942  1.7119  1.2965 -0.6774
 5284SOL     OW18230   5.838  10.672   5.967 -0.6406  0.0131 -0.1793
 5284SOL    HW118231   5.754  10.708   5.993 -1.7470 -0.6317 -2.5541
 5284SOL    HW218232   5.903  10.733   6.003 -2.0374  0.2549  2.1299
 5285SOL     OW18233   7.474   4.290   6.767  0.4997  0.1465 -0.0883
 5285SOL    HW118234   7.418   4.283   6.690  1.3557 -0.3731 -0.6787
 5285SOL    HW218235   7.499   4.200   6.787 -0.6125  0.1486  1.4953
 5286SOL     OW18236   3.753   4.723   0.649  0.0386 -0.2077  0.0045
 5286SOL    HW118237   3.776   4.711   0.742  0.8580 -0.3242 -0.2092
 5286SOL    HW218238   3.811   4.793   0.619  0.6704 -1.0301 -0.7375
 5287SOL     OW18239   7.159  10.716   0.010 -0.0176  0.3134 -0.1959
 5287SOL    HW118240   7.098  10.676  -0.053 -1.1302  1.7942 -0.1088
 5287SOL    HW218241   7.204  10.641   0.050 -1.0275 -0.7802 -1.0210
 5288SOL     OW18242   9.040   1.542   9.675  0.6986  0.0705  0.3298
 5288SOL    HW118243   9.114   1.484   9.693  0.4113 -0.3549  0.1605
 5288SOL    HW218244   8.968   1.482   9.653  0.3449  0.4843  0.3518
 5289SOL     OW18245   7.918   0.149   2.117 -0.5706 -0.5526 -0.0791
 5289SOL    HW118246   7.837   0.119   2.075 -0.3119 -0.9255 -0.3025
 5289SOL    HW218247   7.918   0.105   2.202 -0.0602 -1.3983 -0.5093
 5290SOL     OW18248   6.345   7.688   0.389  0.1926 -0.0566 -0.4357
 5290SOL    HW118249   6.355   7.622   0.320  0.8958  0.0945 -0.4874
 5290SOL    HW218250   6.409   7.756   0.366 -3.0439  2.5894 -2.5802
 5291SOL     OW18251   0.687   0.027   0.056 -0.7682 -0.1954  0.2530
 5291SOL    HW118252   0.735  -0.055   0.052 -2.4236 -1.1727 -1.8507
 5291SOL    HW218253   0.607   0.006   0.103 -1.7929 -0.2059 -1.3984
 5292SOL     OW18254   5.485   0.080   8.537  0.2170 -0.3556  0.0097
 5292SOL    HW118255   5.492   0.068   8.443  1.6627 -1.0042  0.1863
 5292SOL    HW218256   5.498  -0.007   8.574 -1.4996 -0.3320  0.7944
 5293SOL     OW18257   0.681   3.861   4.957  0.1275 -0.0277  0.7107
 5293SOL    HW118258   0.693   3.930   5.022 -0.1699 -1.1462  1.9956
 5293SOL    HW218259   0.652   3.785   5.007  0.3600 -1.0748 -0.6686
 5294SOL     OW18260   6.623   3.381   0.693  0.1291 -0.1143 -0.0074
 5294SOL    HW118261   6.619   3.294   0.733 -1.7635  0.1647  0.5082
 5294SOL    HW218262   6.649   3.439   0.764 -0.9330  0.0419  0.2826
 5295SOL     OW18263   7.691   9.124   2.142 -0.4584  0.3743 -1.1856
 5295SOL    HW118264   7.644   9.053   2.186 -2.7786  1.7507 -1.2923
 5295SOL    HW218265   7.781   9.115   2.172 -1.1483 -1.2055  0.6381
 5296SOL     OW18266  10.361   0.018  10.253  0.3600 -0.3822 -0.3598
 5296SOL    HW118267  10.345   0.080  10.324 -2.1043 -0.9890 -0.2921
 5296SOL    HW218268  10.423   0.063  10.196  1.6708  0.5095  1.6455
 5297SOL     OW18269   3.835   5.163   0.425  0.0647 -0.5273 -0.5613
 5297SOL    HW118270   3.898   5.203   0.365  0.5687 -0.2436  0.1381
 5297SOL    HW218271   3.760   5.222   0.424  0.6084  0.2085  0.0911
 5298SOL     OW18272   1.986   4.172   3.877 -0.5692 -0.1523  0.0592
 5298SOL    HW118273   2.072   4.214   3.884 -0.7175  0.0714  0.6706
 5298SOL    HW218274   1.925   4.240   3.907 -0.9288 -0.4086 -0.0944
 5299SOL     OW18275   9.564   7.673   0.411  0.2787 -0.8265  0.8406
 5299SOL    HW118276   9.535   7.764   0.403  0.7669 -0.7573 -0.3642
 5299SOL    HW218277   9.559   7.639   0.321 -1.6581 -2.5570  1.5184
 5300SOL     OW18278   7.307   8.602   8.511 -0.6232 -0.4878 -0.3866
 5300SOL    HW118279   7.241   8.631   8.448 -1.0026 -1.4053 -0.4196
 5300SOL    HW218280   7.344   8.522   8.473  0.2851 -0.1730 -0.2072
 5301SOL     OW18281   0.850   2.052   3.928  0.1345  0.4911  0.0101
 5301SOL    HW118282   0.819   2.131   3.973  0.4236  0.4009  0.3734
 5301SOL    HW218283   0.945   2.054   3.940  0.0902 -0.2019  0.4968
 5302SOL     OW18284   8.211   5.937   6.806 -0.0335 -0.5493 -0.3665
 5302SOL    HW118285   8.136   5.994   6.823 -1.4670 -2.4589  0.0937
 5302SOL    HW218286   8.192   5.897   6.721 -0.9831 -3.0487  0.9087
 5303SOL     OW18287   6.759   5.548   4.835 -0.0452 -0.0599 -0.0005
 5303SOL    HW118288   6.732   5.548   4.743  2.0882  0.9336 -0.6750
 5303SOL    HW218289   6.848   5.584   4.834  0.1288 -0.2971  2.4289
 5304SOL     OW18290   1.675   6.796   6.803 -0.0965 -0.4785  0.2052
 5304SOL    HW118291   1.697   6.703   6.801 -0.5010 -0.5649 -0.2697
 5304SOL    HW218292   1.729   6.832   6.875  2.2985 -0.5074 -1.4581
 5305SOL     OW18293   0.920   2.704   3.776  0.1676  0.5977  0.3540
 5305SOL    HW118294   0.889   2.725   3.688 -0.1968  0.6026  0.4837
 5305SOL    HW218295   0.883   2.617   3.794  0.6164  0.3946  0.3250
 5306SOL     OW18296   7.863   8.061  10.011  0.4277 -0.2857 -0.2681
 5306SOL    HW118297   7.819   8.053  10.095  1.5879  0.9225  0.4908
 5306SOL    HW218298   7.804   8.114   9.958  0.3164  0.1200  0.2551
 5307SOL     OW18299   7.184   1.542   7.776 -0.0889 -0.1780  0.3609
 5307SOL    HW118300   7.239   1.466   7.798 -0.5277  0.0344  2.3458
 5307SOL    HW218301   7.225   1.615   7.822 -1.1444  0.2855  0.5832
 5308SOL     OW18302  10.515   6.693   6.134 -0.3868 -0.5925 -0.0521
 5308SOL    HW118303  10.606   6.713   6.156 -0.2975 -1.7742  0.7923
 5308SOL    HW218304  10.474   6.778   6.121  0.8683 -0.0463 -0.5728
 5309SOL     OW18305   6.659   9.393   5.932 -0.3013  0.1814 -0.1683
 5309SOL    HW118306   6.613   9.457   5.987 -1.2707  0.6951 -1.5209
 5309SOL    HW218307   6.668   9.316   5.988 -3.6150 -0.2598 -0.0380
 5310SOL     OW18308   4.118   8.559   7.557  0.1747 -0.0060  0.2184
 5310SOL    HW118309   4.115   8.618   7.482  0.7172 -1.2740 -0.8383
 5310SOL    HW218310   4.206   8.520   7.554  0.3919  0.2942  1.8196
 5311SOL     OW18311   2.480   1.237   4.342 -0.1263 -0.5675 -0.0827
 5311SOL    HW118312   2.527   1.301   4.289  0.4009  0.6616  1.7901
 5311SOL    HW218313   2.389   1.245   4.315 -0.0287  0.8352 -0.0407
 5312SOL     OW18314   5.903   2.815   1.887  0.2074 -0.4414  0.0088
 5312SOL    HW118315   5.853   2.824   1.968  0.1328 -1.1950  0.0510
 5312SOL    HW218316   5.972   2.752   1.908  1.4819  0.9093  0.0930
 5313SOL     OW18317   5.644   7.228   3.168 -0.4614 -0.5892  0.8098
 5313SOL    HW118318   5.697   7.222   3.088 -1.2141  0.5383  0.1969
 5313SOL    HW218319   5.651   7.320   3.194 -1.6614 -0.5439  1.0292
 5314SOL     OW18320   9.066   3.036   2.130 -0.0162 -0.0801 -0.0225
 5314SOL    HW118321   9.096   3.124   2.151 -2.9754  0.8881  0.6756
 5314SOL    HW218322   9.066   3.034   2.034 -0.3989  0.9049 -0.0612
 5315SOL     OW18323   0.544   6.713   6.445 -0.2802 -0.1612  0.2155
 5315SOL    HW118324   0.592   6.662   6.380 -0.0753  1.8809 -1.3301
 5315SOL    HW218325   0.604   6.720   6.520  0.2620 -0.8845 -0.1441
 5316SOL     OW18326   0.848   2.520   4.752 -0.1025 -0.3592 -0.6635
 5316SOL    HW118327   0.837   2.615   4.754  0.5016 -0.2872 -0.3360
 5316SOL    HW218328   0.823   2.491   4.840 -2.2521 -0.7613 -1.3380
 5317SOL     OW18329   2.013   9.095   5.770 -0.3377 -0.2465 -0.3515
 5317SOL    HW118330   2.065   9.016   5.785  1.7390  0.8084 -1.5239
 5317SOL    HW218331   1.987   9.090   5.678 -0.4274  0.3026 -0.3589
 5318SOL     OW18332   0.055   9.139   6.164  0.1495  0.1731 -0.6627
 5318SOL    HW118333   0.032   9.048   6.147  0.2704  0.0768 -0.3105
 5318SOL    HW218334  -0.024   9.189   6.143  0.1075 -0.0022 -0.9280
 5319SOL     OW18335   4.665   8.747   1.547  0.7162 -0.1313 -0.2829
 5319SOL    HW118336   4.638   8.682   1.482 -2.8378  2.0948 -1.3128
 5319SOL    HW218337   4.628   8.716   1.630 -0.3502  0.1901 -0.6287
 5320SOL     OW18338   9.693  10.796   5.843 -0.2908 -0.2149 -0.3759
 5320SOL    HW118339   9.612  10.747   5.829  0.0480 -0.5883 -1.0501
 5320SOL    HW218340   9.698  10.856   5.768  0.2633 -0.4760 -0.5488
 5321SOL     OW18341   9.170   6.035   0.844 -0.2279 -0.4088 -0.0157
 5321SOL    HW118342   9.089   6.008   0.887 -1.2709  0.0715 -1.5846
 5321SOL    HW218343   9.144   6.110   0.790  1.7313  1.2264  1.1500
 5322SOL     OW18344   3.334   4.200   7.395 -0.2445  0.4059 -0.2185
 5322SOL    HW118345   3.393   4.128   7.373 -0.4863 -0.2247  1.0978
 5322SOL    HW218346   3.255   4.183   7.345 -0.6641 -0.8087  0.8217
 5323SOL     OW18347   7.652   8.086   5.801  0.1173  0.3916  0.0137
 5323SOL    HW118348   7.619   8.045   5.721 -0.0198 -0.3384  0.4409
 5323SOL    HW218349   7.724   8.030   5.829 -1.6650 -1.0521  1.9957
 5324SOL     OW18350   6.751   8.048  10.688 -0.0314  0.2057  0.5376
 5324SOL    HW118351   6.670   8.035  10.640 -1.0075  0.9766  1.8927
 5324SOL    HW218352   6.802   8.109  10.635  0.6902 -1.9361 -1.4191
 5325SOL     OW18353   2.631  10.479   8.505  0.1674  0.4152 -0.1273
 5325SOL    HW118354   2.655  10.468   8.413 -1.3882  0.0554 -0.5152
 5325SOL    HW218355   2.680  10.557   8.533  0.1698  0.9221 -1.4501
 5326SOL     OW18356   9.702   5.173   5.704 -0.0733 -0.1145  0.4834
 5326SOL    HW118357   9.749   5.102   5.748  0.9562 -0.0302 -0.4312
 5326SOL    HW218358   9.674   5.231   5.774  1.5411  0.0295  1.0544
 5327SOL     OW18359   2.813   6.943   7.356 -0.6616  0.6911  0.4397
 5327SOL    HW118360   2.876   6.974   7.290  0.1198 -0.2296  0.7233
 5327SOL    HW218361   2.837   6.990   7.436  1.7831 -1.8845  1.3823
 5328SOL     OW18362   9.825   1.006   4.896 -0.3605 -0.1655  0.2485
 5328SOL    HW118363   9.897   0.953   4.861 -0.2929  0.2795 -0.2800
 5328SOL    HW218364   9.784   1.044   4.819 -1.3181 -0.6107  0.5313
 5329SOL     OW18365   8.985   3.440   4.261  0.0174 -0.2301 -0.3232
 5329SOL    HW118366   8.949   3.525   4.238 -1.6387 -1.0534 -0.9463
 5329SOL    HW218367   9.080   3.454   4.265 -0.1043  1.3126 -1.7749
 5330SOL     OW18368   9.685   0.180   9.188 -0.2968  0.1587  0.0011
 5330SOL    HW118369   9.643   0.104   9.229  0.5677 -1.1900 -1.4931
 5330SOL    HW218370   9.612   0.232   9.154 -1.0689  1.4716  3.2928
 5331SOL     OW18371   9.322  10.154   7.094 -0.1672  0.3343 -0.4222
 5331SOL    HW118372   9.302  10.075   7.045  0.3474  0.3503 -0.6608
 5331SOL    HW218373   9.386  10.201   7.039  1.0427 -0.0386  0.6335
 5332SOL     OW18374   4.158   9.146   4.375 -0.0246  0.2774  0.3764
 5332SOL    HW118375   4.100   9.180   4.443 -2.1309  0.6451 -1.4921
 5332SOL    HW218376   4.223   9.096   4.423 -1.2156  0.7814  2.6891
 5333SOL     OW18377   8.547  10.757  10.180 -0.2600 -0.1870  0.2922
 5333SOL    HW118378   8.514  10.828  10.236 -0.2381  0.2536 -0.2497
 5333SOL    HW218379   8.468  10.708  10.156 -0.3215 -0.1209  0.3549
 5334SOL     OW18380   7.699   4.056   7.465  0.5440 -0.5719  0.2069
 5334SOL    HW118381   7.725   3.968   7.492 -0.2630 -0.1852  2.5271
 5334SOL    HW218382   7.614   4.044   7.422  0.5840 -0.9592  0.2366
 5335SOL     OW18383   0.859   8.428   8.862  0.7529 -1.2437 -0.4955
 5335SOL    HW118384   0.788   8.471   8.816  1.3265 -0.7745 -0.9510
 5335SOL    HW218385   0.871   8.345   8.816 -0.7861 -2.2367  0.7797
 5336SOL     OW18386   4.457   4.544   9.522 -0.0495  0.1864  0.1134
 5336SOL    HW118387   4.381   4.573   9.572 -1.5967 -0.0031 -2.0010
 5336SOL    HW218388   4.487   4.621   9.475 -0.4038 -0.2321 -0.8337
 5337SOL     OW18389   0.403   8.591   7.296 -0.6376 -0.3142  0.2455
 5337SOL    HW118390   0.341   8.650   7.339  0.2464  1.4845 -0.8662
 5337SOL    HW218391   0.489   8.620   7.327 -0.0825  0.0579 -1.5310
 5338SOL     OW18392   7.995   6.360  10.358 -0.7553  0.0576  0.4702
 5338SOL    HW118393   7.927   6.304  10.396 -2.0301  0.6642 -0.8391
 5338SOL    HW218394   8.071   6.301  10.349 -1.9622 -1.4328 -0.5902
 5339SOL     OW18395  10.675   9.347   9.156  0.2429 -0.1268  0.0544
 5339SOL    HW118396  10.663   9.283   9.085 -3.3193 -1.2704  1.4359
 5339SOL    HW218397  10.653   9.431   9.117 -1.9722 -0.7801 -0.2603
 5340SOL     OW18398  10.507   8.164   9.865 -0.4584 -0.5213  0.3497
 5340SOL    HW118399  10.572   8.095   9.847 -0.6581 -0.5039 -0.4947
 5340SOL    HW218400  10.555   8.246   9.854 -1.0352 -0.4548 -2.2057
 5341SOL     OW18401   4.311   6.035   4.256  0.0761  0.0596  0.2728
 5341SOL    HW118402   4.324   6.063   4.165 -1.3521  0.0142  0.0292
 5341SOL    HW218403   4.280   5.945   4.250  0.4255 -0.1092  0.8461
 5342SOL     OW18404   2.944   2.105  10.741 -0.2472 -0.7608  0.0466
 5342SOL    HW118405   2.952   2.200  10.746 -0.3063 -0.7232 -0.5654
 5342SOL    HW218406   2.945   2.085  10.648 -0.2804 -1.3587  0.1680
 5343SOL     OW18407   0.791   1.064   6.532 -0.4261  0.0374 -0.1200
 5343SOL    HW118408   0.828   1.126   6.594  0.8066 -0.0760 -0.6968
 5343SOL    HW218409   0.849   0.988   6.537  0.3546  0.4249 -2.1331
 5344SOL     OW18410   8.459   1.794   3.677  0.4736 -0.4681  0.0987
 5344SOL    HW118411   8.406   1.795   3.757 -0.8578 -2.0603 -0.6963
 5344SOL    HW218412   8.468   1.886   3.652  0.9743  0.0723  2.0784
 5345SOL     OW18413   7.010   5.654   4.598 -0.2067 -0.2463  0.0645
 5345SOL    HW118414   7.016   5.581   4.536  1.2113 -0.1214  0.0236
 5345SOL    HW218415   6.917   5.660   4.619 -0.5777 -0.9251 -1.2931
 5346SOL     OW18416   2.079   4.580   7.528 -0.3918 -0.1795  0.7666
 5346SOL    HW118417   2.098   4.488   7.512 -2.6669 -0.5669 -0.1158
 5346SOL    HW218418   2.017   4.580   7.602 -1.2893  0.5258  0.0442
 5347SOL     OW18419   6.090   4.035   8.069  0.1875  0.3401 -0.1887
 5347SOL    HW118420   6.078   4.122   8.108  1.8091  0.5604 -0.0869
 5347SOL    HW218421   6.184   4.030   8.053 -0.0778 -0.8618 -1.5037
 5348SOL     OW18422   7.174   9.934   8.010 -0.2752 -0.3206 -0.0267
 5348SOL    HW118423   7.139   9.862   8.064  1.1908  0.0163  1.4555
 5348SOL    HW218424   7.097   9.970   7.966 -1.7385 -0.0949  2.5157
 5349SOL     OW18425   0.482  10.392   7.394  0.2409  0.3511 -0.1343
 5349SOL    HW118426   0.498  10.305   7.431  4.4852  0.3874 -1.3054
 5349SOL    HW218427   0.472  10.377   7.300  1.0678  1.0910 -0.3541
 5350SOL     OW18428  10.547   5.460   9.660  0.0874  0.1099 -0.6142
 5350SOL    HW118429  10.460   5.450   9.699  0.0251  0.0452 -0.7698
 5350SOL    HW218430  10.577   5.370   9.645  0.1505  0.1332 -0.6299
 5351SOL     OW18431   4.260   2.484   1.316  0.3454 -0.2925  0.4549
 5351SOL    HW118432   4.342   2.534   1.313 -0.7920  1.5821 -1.4169
 5351SOL    HW218433   4.285   2.396   1.288  1.5229  0.6010 -1.4531
 5352SOL     OW18434   4.401  10.278   3.277  0.2680 -0.0377 -0.2013
 5352SOL    HW118435   4.455  10.344   3.320 -1.9056  0.5830  1.8451
 5352SOL    HW218436   4.319  10.323   3.258 -0.7526 -1.7459 -0.0610
 5353SOL     OW18437   9.386   3.889   7.305 -0.1036  0.3946 -0.1166
 5353SOL    HW118438   9.365   3.856   7.218 -1.5483 -1.1224  0.7435
 5353SOL    HW218439   9.323   3.959   7.320 -0.5856 -0.0785  0.1087
 5354SOL     OW18440   7.998   3.243   5.456  0.0706 -0.4391 -0.1738
 5354SOL    HW118441   7.936   3.273   5.389  1.6111  0.0902 -1.4262
 5354SOL    HW218442   7.981   3.299   5.531  0.3792  1.0842 -1.2009
 5355SOL     OW18443  10.612   2.731   6.532  0.2894  0.7385 -0.0337
 5355SOL    HW118444  10.611   2.693   6.444  1.6642  1.1905 -0.2620
 5355SOL    HW218445  10.563   2.669   6.585 -0.4365  0.3783 -1.0794
 5356SOL     OW18446   2.677  10.550   7.954  0.2526  0.0088 -0.1404
 5356SOL    HW118447   2.688  10.520   7.864  2.2040  1.6708 -0.5299
 5356SOL    HW218448   2.668  10.645   7.947  1.0476  0.2400  1.4286
 5357SOL     OW18449   3.580   0.565   2.911  0.4174 -0.0653 -0.4740
 5357SOL    HW118450   3.563   0.471   2.899  2.5694 -0.3924 -1.4484
 5357SOL    HW218451   3.533   0.607   2.839  0.8636 -0.5819 -1.0810
 5358SOL     OW18452   6.147   9.793  10.308 -0.0321  0.0650  0.0966
 5358SOL    HW118453   6.195   9.767  10.387 -0.0266 -1.3245 -0.3343
 5358SOL    HW218454   6.147   9.888  10.311  2.3410  0.1295  0.3676
 5359SOL     OW18455   5.615   7.563   3.385 -0.3517  0.1176  0.3691
 5359SOL    HW118456   5.571   7.543   3.302 -1.9461 -0.8447  1.4040
 5359SOL    HW218457   5.698   7.515   3.381  0.8447  2.1180 -1.6962
 5360SOL     OW18458   0.850   2.199   4.361  0.4443  0.1523 -0.8436
 5360SOL    HW118459   0.921   2.192   4.425  0.8752  0.5232 -1.2656
 5360SOL    HW218460   0.771   2.179   4.411  0.8701 -0.5739 -0.4333
 5361SOL     OW18461   2.160   6.622   9.038  0.5914  0.4952 -0.0663
 5361SOL    HW118462   2.072   6.621   9.000  0.6906 -1.5763 -0.3175
 5361SOL    HW218463   2.206   6.689   8.988 -0.1079 -0.1941 -1.7184
 5362SOL     OW18464   4.489   6.200   1.751  0.2060  0.4199 -0.3368
 5362SOL    HW118465   4.430   6.201   1.676  0.1143 -0.5488 -0.2829
 5362SOL    HW218466   4.496   6.292   1.777 -1.8335  0.4835  0.1125
 5363SOL     OW18467  10.788   7.293   8.617 -0.4232  0.1082  0.1649
 5363SOL    HW118468  10.868   7.292   8.670 -1.0423  0.6594  1.1504
 5363SOL    HW218469  10.719   7.268   8.678 -1.0722  0.1141 -0.5578
 5364SOL     OW18470   6.801   2.818   2.848  0.5094 -0.2315 -0.2614
 5364SOL    HW118471   6.823   2.836   2.756  2.4836 -2.7162 -0.3787
 5364SOL    HW218472   6.876   2.769   2.881 -0.1679  0.5469  2.7191
 5365SOL     OW18473   9.920   9.052   4.100  0.3634 -0.0895 -0.0079
 5365SOL    HW118474   9.968   8.973   4.078  1.8527  0.4785  1.0470
 5365SOL    HW218475   9.982   9.124   4.087 -0.2993  0.7137  1.0192
 5366SOL     OW18476   4.388   4.733   4.650 -0.3647 -0.2882  0.0040
 5366SOL    HW118477   4.408   4.642   4.631 -1.6140 -1.2594  2.7623
 5366SOL    HW218478   4.465   4.766   4.697 -0.4666 -0.3472  0.2123
 5367SOL     OW18479   1.000   8.745   6.731 -0.3919  0.7790  0.1290
 5367SOL    HW118480   1.076   8.730   6.787 -1.1274  0.8337  1.1620
 5367SOL    HW218481   0.924   8.730   6.788 -1.1656  2.1540 -0.4809
 5368SOL     OW18482   9.523   8.747  10.756  0.6105  0.0056  0.4557
 5368SOL    HW118483   9.464   8.676  10.783 -0.0454  0.8508  1.3162
 5368SOL    HW218484   9.512   8.814  10.824  1.8099  0.6067  0.0772
 5369SOL     OW18485   9.772   0.651   0.768  0.4941  0.5808  0.2582
 5369SOL    HW118486   9.866   0.635   0.760  0.1847 -0.9111 -0.8083
 5369SOL    HW218487   9.758   0.734   0.722  0.9687 -0.4474 -1.8790
 5370SOL     OW18488  10.709   8.399   2.621 -0.3553 -0.3937 -0.1238
 5370SOL    HW118489  10.697   8.339   2.547 -0.4513 -0.1397 -0.3152
 5370SOL    HW218490  10.655   8.475   2.599  0.7031  0.2750 -0.4548
 5371SOL     OW18491   9.409  10.439   5.449 -0.2682  0.1724 -0.4578
 5371SOL    HW118492   9.407  10.435   5.353 -1.3104 -0.5962 -0.4197
 5371SOL    HW218493   9.372  10.355   5.477 -0.2988  0.5327  0.6162
 5372SOL     OW18494   6.482   6.894  10.461 -0.0157 -0.2688 -0.4322
 5372SOL    HW118495   6.471   6.968  10.521 -2.3516 -1.2653  0.4480
 5372SOL    HW218496   6.520   6.825  10.515 -0.6070 -0.6480 -0.4953
 5373SOL     OW18497   3.091   9.615   6.216  0.0864  0.4351  0.3221
 5373SOL    HW118498   3.137   9.541   6.177  0.8132  0.7295  0.5951
 5373SOL    HW218499   3.127   9.621   6.305 -1.4949 -0.1970  1.0467
 5374SOL     OW18500   2.900   6.125   9.443 -0.0755  0.1918  0.3373
 5374SOL    HW118501   2.817   6.126   9.491 -1.3372  0.5968 -1.7656
 5374SOL    HW218502   2.905   6.210   9.400  0.8178 -0.3162 -0.6005
 5375SOL     OW18503   3.642   1.770   6.108  0.0477 -0.5485 -0.4169
 5375SOL    HW118504   3.698   1.827   6.055  0.0106 -0.8465 -0.7878
 5375SOL    HW218505   3.553   1.800   6.090  0.0748 -0.2481 -0.0377
 5376SOL     OW18506   6.133   2.968   2.526  0.0684 -0.1479  0.3456
 5376SOL    HW118507   6.225   2.960   2.550 -0.0683 -0.6349  0.7084
 5376SOL    HW218508   6.122   2.906   2.454  0.5693  1.5719 -1.2945
 5377SOL     OW18509   7.971  10.192   8.632  0.0626 -0.2216 -0.0709
 5377SOL    HW118510   7.976  10.244   8.552 -1.6416  2.4508  1.3946
 5377SOL    HW218511   7.900  10.129   8.616  0.4085 -0.3841 -0.9913
 5378SOL     OW18512  10.121   5.137   7.277 -0.2982 -0.1607  0.4376
 5378SOL    HW118513  10.103   5.144   7.371  0.8243 -3.9426  1.1326
 5378SOL    HW218514  10.036   5.149   7.235 -0.9536  0.8553  1.9681
 5379SOL     OW18515   9.383   1.589   4.229  0.5051  0.0302 -0.1222
 5379SOL    HW118516   9.408   1.550   4.313  0.7187 -0.3935 -0.3775
 5379SOL    HW218517   9.423   1.532   4.164  0.4509  0.4342 -0.5111
 5380SOL     OW18518   4.839   8.349   1.013 -0.0208 -0.3200 -0.1356
 5380SOL    HW118519   4.929   8.378   1.030  0.3025 -1.1017 -0.4347
 5380SOL    HW218520   4.789   8.379   1.089  0.1758  1.4242 -0.6471
 5381SOL     OW18521   6.013   8.743   5.862 -0.4081  0.3160  0.5492
 5381SOL    HW118522   5.957   8.815   5.832  0.0525  0.9320  1.1482
 5381SOL    HW218523   6.102   8.778   5.857 -0.1578 -0.3071  0.5956
 5382SOL     OW18524  10.634   4.841   4.790 -0.1596 -0.0792  0.3741
 5382SOL    HW118525  10.690   4.884   4.855 -0.3241  0.6697  0.0284
 5382SOL    HW218526  10.570   4.907   4.766 -0.7344 -0.6927  0.2061
 5383SOL     OW18527   2.346   0.485   6.610 -0.2512  0.1184  0.0085
 5383SOL    HW118528   2.267   0.464   6.660 -0.2385  1.6480  0.7217
 5383SOL    HW218529   2.397   0.541   6.668  1.1048 -0.3556 -0.6669
 5384SOL     OW18530   6.694   5.561   4.570  0.3387 -0.2019 -0.2678
 5384SOL    HW118531   6.635   5.486   4.572  1.1498 -0.9163 -1.9435
 5384SOL    HW218532   6.710   5.578   4.477  1.2530  1.1905  0.1036
 5385SOL     OW18533   5.380   5.433   6.278 -0.1719 -0.0275 -0.6935
 5385SOL    HW118534   5.297   5.384   6.277  0.2357 -0.9582  1.9346
 5385SOL    HW218535   5.447   5.365   6.290  0.6455  0.9395  0.4669
 5386SOL     OW18536   5.221   5.721   9.408  0.2102  0.2973  0.1809
 5386SOL    HW118537   5.311   5.744   9.428  0.3756  0.2083 -0.4437
 5386SOL    HW218538   5.170   5.757   9.481  0.8421 -0.4433  1.0010
 5387SOL     OW18539   1.405   4.024   3.894  0.1993  0.3986  0.0649
 5387SOL    HW118540   1.483   3.973   3.870  0.3373  1.0267 -0.8686
 5387SOL    HW218541   1.336   3.990   3.837  0.1047  0.7289 -0.0174
 5388SOL     OW18542   6.647   9.161   1.308 -0.1694 -0.4779 -0.3416
 5388SOL    HW118543   6.606   9.123   1.386  3.0290 -0.5340  1.4711
 5388SOL    HW218544   6.683   9.244   1.337 -3.2662  2.1771 -3.1821
 5389SOL     OW18545   7.473   7.110   4.936 -0.1253  0.1037  0.2657
 5389SOL    HW118546   7.530   7.126   5.011 -1.4071 -1.4802  1.6685
 5389SOL    HW218547   7.396   7.068   4.973 -0.3596 -1.7767 -2.0775
 5390SOL     OW18548   4.492   7.921   8.206 -0.1378 -0.5452  0.6946
 5390SOL    HW118549   4.582   7.934   8.176 -1.5402  1.4833 -3.3773
 5390SOL    HW218550   4.490   7.959   8.293  2.7990 -0.2591  0.7416
 5391SOL     OW18551   9.882   7.478   4.169  0.2477  0.2948  0.2929
 5391SOL    HW118552   9.919   7.560   4.136  1.7353 -1.5488 -3.1672
 5391SOL    HW218553   9.810   7.458   4.109  0.3101 -1.2130  0.6799
 5392SOL     OW18554  10.326   0.795   7.841 -0.2503 -0.6952 -0.0868
 5392SOL    HW118555  10.350   0.702   7.845  2.5564 -0.0028  1.4442
 5392SOL    HW218556  10.408   0.840   7.824 -1.0417  1.7121  1.9587
 5393SOL     OW18557   0.468   4.724   0.668  0.6171 -0.4161 -0.1939
 5393SOL    HW118558   0.391   4.745   0.722  1.2496  0.6438  0.3170
 5393SOL    HW218559   0.431   4.702   0.582 -0.2063  0.9779 -0.2195
 5394SOL     OW18560   8.608   0.015   1.393  0.8279  0.4759 -0.3895
 5394SOL    HW118561   8.639  -0.001   1.483  1.1172 -1.4855 -0.7891
 5394SOL    HW218562   8.552   0.091   1.401  1.0128  0.4816  1.4390
 5395SOL     OW18563   6.165   9.994   3.180 -0.2582  0.3714 -0.2825
 5395SOL    HW118564   6.209  10.079   3.175 -1.0928  0.7563 -1.4278
 5395SOL    HW218565   6.229   9.932   3.146  0.7953  0.3186  1.6299
 5396SOL     OW18566   4.195   2.218   6.533  0.4884  0.5051 -0.7987
 5396SOL    HW118567   4.100   2.210   6.535  0.4163  1.1370  1.1741
 5396SOL    HW218568   4.226   2.150   6.592  1.0273  2.0559  0.8092
 5397SOL     OW18569   8.606   9.316   1.740  0.7140 -0.0411  0.4579
 5397SOL    HW118570   8.660   9.394   1.751  0.7375 -0.2010  1.6523
 5397SOL    HW218571   8.663   9.243   1.764  1.0920 -0.5936 -1.8527
 5398SOL     OW18572   0.134   1.036   5.327 -0.1589 -0.4281  0.3022
 5398SOL    HW118573   0.152   1.019   5.234 -2.9015 -0.4533 -0.3311
 5398SOL    HW218574   0.187   1.113   5.348  2.3618 -1.8102 -0.5304
 5399SOL     OW18575   9.680   9.118   6.058  0.5486  0.1952 -0.5322
 5399SOL    HW118576   9.729   9.163   6.127  1.7393 -1.8456  0.0305
 5399SOL    HW218577   9.603   9.083   6.102  0.8740 -0.3737 -0.3993
 5400SOL     OW18578   9.418   2.711   6.926 -0.3588  0.1869 -0.1830
 5400SOL    HW118579   9.441   2.760   6.847  0.8078 -0.0905 -0.0377
 5400SOL    HW218580   9.323   2.700   6.921 -0.5516  1.7334 -0.6328
 5401SOL     OW18581   4.542   9.576   0.131 -0.3625  0.2625 -0.2915
 5401SOL    HW118582   4.475   9.519   0.169 -0.5325 -1.3333 -2.7370
 5401SOL    HW218583   4.619   9.520   0.122 -0.3485  0.5086 -2.2206
 5402SOL     OW18584   2.178   5.722   4.202  0.3440 -0.0299  0.4556
 5402SOL    HW118585   2.133   5.690   4.123  0.3372 -0.7082  0.7318
 5402SOL    HW218586   2.269   5.694   4.190  0.4966  0.4848  0.3642
 5403SOL     OW18587   9.432   9.393   5.134 -0.3572 -0.1074  0.1145
 5403SOL    HW118588   9.366   9.418   5.199 -0.0659  0.3015  0.2608
 5403SOL    HW218589   9.399   9.312   5.096 -0.4440 -0.4537  0.9009
 5404SOL     OW18590   4.475   5.328   8.022 -0.3010  0.0418  0.0213
 5404SOL    HW118591   4.512   5.394   7.963  1.0593 -2.4701 -2.1872
 5404SOL    HW218592   4.537   5.324   8.094  0.0916  0.5578 -0.2744
 5405SOL     OW18593   0.499   5.664   6.077 -0.1256 -0.1563  0.6937
 5405SOL    HW118594   0.442   5.740   6.082  0.3615  0.1981  0.8755
 5405SOL    HW218595   0.446   5.597   6.034  0.0977  0.9045 -1.3697
 5406SOL     OW18596  10.536   8.224   1.504  0.6944  0.3811 -0.8461
 5406SOL    HW118597  10.515   8.305   1.551  0.7428  0.7776 -1.4814
 5406SOL    HW218598  10.583   8.170   1.567 -1.0508  0.0174  0.2118
 5407SOL     OW18599   7.357   9.068   9.781  0.2315  0.2681 -0.1971
 5407SOL    HW118600   7.299   9.019   9.723 -0.6233  0.4814  0.4534
 5407SOL    HW218601   7.442   9.026   9.771 -0.3806 -1.0678  0.0239
 5408SOL     OW18602   0.468   5.093   3.460  0.3598 -0.5411  0.2033
 5408SOL    HW118603   0.560   5.121   3.457  0.6288 -1.4457 -1.2084
 5408SOL    HW218604   0.445   5.077   3.368 -0.5020 -2.4965  0.7088
 5409SOL     OW18605   8.855   4.375   0.267  0.0414 -1.0694 -0.3927
 5409SOL    HW118606   8.764   4.405   0.275  1.1160  2.1753  1.8388
 5409SOL    HW218607   8.907   4.452   0.291  3.4017 -2.9519 -1.0836
 5410SOL     OW18608   6.866   7.932   3.479  0.4878  0.7043  0.9071
 5410SOL    HW118609   6.808   7.874   3.429  0.3108  1.6229 -0.0043
 5410SOL    HW218610   6.894   7.880   3.554 -0.7012 -0.1049  0.8124
 5411SOL     OW18611   3.703   4.419   3.887 -0.4878  0.2829  0.2937
 5411SOL    HW118612   3.783   4.457   3.849  0.2994 -0.4970  1.1226
 5411SOL    HW218613   3.694   4.334   3.843  0.2809 -0.5096  1.5935
 5412SOL     OW18614   8.209  10.448   6.651 -0.3326 -0.3189 -0.8971
 5412SOL    HW118615   8.222  10.525   6.596  2.1276 -0.5268 -0.6968
 5412SOL    HW218616   8.132  10.470   6.705 -1.2715  0.8851 -2.6337
 5413SOL     OW18617  10.265   2.483   5.433 -0.4880 -0.5654  0.3836
 5413SOL    HW118618  10.259   2.404   5.487 -0.5849 -0.4782  0.5023
 5413SOL    HW218619  10.358   2.506   5.436  0.0085 -2.0640 -1.6775
 5414SOL     OW18620   8.811   8.244   7.876 -0.1376 -0.0982  0.1250
 5414SOL    HW118621   8.738   8.261   7.935 -0.3824  2.1873 -0.7496
 5414SOL    HW218622   8.887   8.236   7.933 -0.3143  2.3449  0.8074
 5415SOL     OW18623   4.885   1.871   7.111  0.7732 -0.1940 -0.4020
 5415SOL    HW118624   4.895   1.777   7.128 -1.9879 -0.6690 -0.8800
 5415SOL    HW218625   4.940   1.913   7.176 -0.8075 -2.1016  2.4231
 5416SOL     OW18626   5.447   5.432   4.752  0.5098 -0.3737  0.2991
 5416SOL    HW118627   5.379   5.462   4.693 -1.0629 -2.5081  0.8879
 5416SOL    HW218628   5.487   5.512   4.786 -1.3890  0.9431 -0.4203
 5417SOL     OW18629   2.946   2.035   8.481  0.3360 -0.0519 -0.8690
 5417SOL    HW118630   2.966   1.953   8.525 -0.4147 -0.0915 -0.6010
 5417SOL    HW218631   2.954   2.015   8.387  0.7046 -0.2780 -0.7939
 5418SOL     OW18632   2.230   2.646   4.036 -0.6220  0.4713  0.0135
 5418SOL    HW118633   2.153   2.628   3.981 -0.2287  0.4599 -0.5480
 5418SOL    HW218634   2.291   2.576   4.014 -1.2906 -0.8799  2.1359
 5419SOL     OW18635   2.900   7.969   9.627 -0.3224 -0.4784  0.1988
 5419SOL    HW118636   2.945   8.044   9.667 -2.6749  1.7613 -1.0197
 5419SOL    HW218637   2.808   7.984   9.647 -1.0263 -2.1203 -1.5598
 5420SOL     OW18638   3.653   8.240   5.444 -0.3721  0.0296 -0.0887
 5420SOL    HW118639   3.672   8.160   5.494  2.7129 -0.1408 -1.3627
 5420SOL    HW218640   3.561   8.259   5.466 -0.7252 -2.8652  1.5971
 5421SOL     OW18641   5.096  10.193   6.917  0.5162 -0.1263  0.1238
 5421SOL    HW118642   5.014  10.243   6.922  0.5782 -0.0759  0.7970
 5421SOL    HW218643   5.104  10.153   7.004  1.2170 -0.1052  0.0718
 5422SOL     OW18644   0.239   8.528   2.622  0.1632  0.2022  0.9929
 5422SOL    HW118645   0.244   8.496   2.532  0.1615 -1.2756  1.4905
 5422SOL    HW218646   0.326   8.564   2.639  0.5185 -0.5287  0.7516
 5423SOL     OW18647   3.463   0.580   5.341 -0.0979  0.5931 -0.1807
 5423SOL    HW118648   3.419   0.497   5.318 -2.3705  1.3307  1.1259
 5423SOL    HW218649   3.541   0.553   5.389 -1.6135 -0.8836  1.6301
 5424SOL     OW18650   8.046   8.328   4.613 -0.6309 -0.0083 -0.0416
 5424SOL    HW118651   8.131   8.301   4.648 -0.2904  0.3740 -0.5683
 5424SOL    HW218652   8.062   8.413   4.572 -1.1051 -0.2664 -0.7884
 5425SOL     OW18653   5.006   1.917   1.459 -0.0420 -0.1458  0.3459
 5425SOL    HW118654   4.929   1.917   1.516 -0.2550  0.3039  0.0626
 5425SOL    HW218655   4.977   1.962   1.380  0.0546 -1.3883 -0.4021
 5426SOL     OW18656  10.251   4.155   9.918  0.5088 -0.6842  0.6642
 5426SOL    HW118657  10.303   4.203   9.854 -1.1961 -0.7025 -0.8126
 5426SOL    HW218658  10.250   4.065   9.886 -2.0121 -0.3170 -0.5030
 5427SOL     OW18659   8.441   4.108   7.053 -0.1253 -0.0848 -0.2004
 5427SOL    HW118660   8.516   4.075   7.103 -0.0479  0.1775 -0.1450
 5427SOL    HW218661   8.368   4.106   7.116 -0.2566 -0.7072 -0.3632
 5428SOL     OW18662   9.936   5.858   2.131  0.2097  0.1498  0.2464
 5428SOL    HW118663   9.944   5.867   2.226  1.2239 -0.9296  0.2892
 5428SOL    HW218664   9.876   5.785   2.119 -0.4002  0.6773  0.0386
 5429SOL     OW18665   0.158   5.162   5.128 -0.1896  0.1127 -0.3275
 5429SOL    HW118666   0.089   5.107   5.166 -0.3429  0.8713  0.5278
 5429SOL    HW218667   0.238   5.113   5.145 -0.3028  0.2426  0.6368
 5430SOL     OW18668   4.601   1.769  10.282 -0.4111 -0.2201  0.2861
 5430SOL    HW118669   4.544   1.821  10.225  2.1282 -0.4803 -2.6925
 5430SOL    HW218670   4.561   1.682  10.283 -0.9581  0.0142 -0.3582
 5431SOL     OW18671   6.439   6.017   8.916 -0.2433  0.4298  0.7141
 5431SOL    HW118672   6.474   5.971   8.840 -0.4538  0.7976  0.3891
 5431SOL    HW218673   6.446   5.954   8.988  0.9547  0.4550  0.6336
 5432SOL     OW18674   9.378  10.420  10.749 -0.0407  0.0027 -0.1768
 5432SOL    HW118675   9.311  10.413  10.680 -1.9631  0.6217  1.5098
 5432SOL    HW218676   9.335  10.385  10.827  1.5173  0.7275  1.0497
 5433SOL     OW18677   6.452   1.130   7.101  0.0191  0.0168 -0.4891
 5433SOL    HW118678   6.376   1.118   7.044 -0.9484 -0.1051  0.8027
 5433SOL    HW218679   6.447   1.221   7.128 -0.7746 -0.4790  1.1180
 5434SOL     OW18680   1.473   5.779   9.815 -0.4398  0.1256  0.2174
 5434SOL    HW118681   1.480   5.870   9.845 -0.5429 -0.2379  1.3917
 5434SOL    HW218682   1.417   5.737   9.880 -0.0642 -0.8773 -0.0943
 5435SOL     OW18683  10.570   6.050   0.352  0.0377 -0.0439 -0.1649
 5435SOL    HW118684  10.545   5.961   0.376 -1.5888  0.8648  1.8215
 5435SOL    HW218685  10.501   6.105   0.388 -0.1841  1.9208 -3.2333
 5436SOL     OW18686   9.936   6.956   4.088  0.0106 -0.1379  0.0738
 5436SOL    HW118687   9.982   7.040   4.085 -0.3707  0.0699 -0.1051
 5436SOL    HW218688   9.883   6.960   4.167  0.3502 -0.4042  0.3156
 5437SOL     OW18689   3.223   6.740  10.224  0.1956  0.0121  0.0307
 5437SOL    HW118690   3.257   6.741  10.134 -0.6426  0.9430 -0.2998
 5437SOL    HW218691   3.178   6.824  10.233  0.4383  0.0049  1.4013
 5438SOL     OW18692   9.468   5.252   8.855  0.3193 -0.8599  0.0767
 5438SOL    HW118693   9.485   5.299   8.936  1.6280 -2.3193  0.6901
 5438SOL    HW218694   9.488   5.316   8.786  2.5872 -0.5927  0.8746
 5439SOL     OW18695   5.178   5.931   1.617 -0.2167 -0.4542 -0.1601
 5439SOL    HW118696   5.188   5.857   1.677  0.2810 -0.3699 -0.1369
 5439SOL    HW218697   5.236   5.999   1.652  1.2896 -0.9406 -1.5927
 5440SOL     OW18698   2.220   8.163   9.616 -0.1848 -0.0189  0.0338
 5440SOL    HW118699   2.292   8.142   9.556 -0.5353  1.4802 -0.9873
 5440SOL    HW218700   2.255   8.231   9.674 -1.2254  2.1452 -1.6962
 5441SOL     OW18701   7.940   3.875   9.988  0.8382 -0.0094 -0.1665
 5441SOL    HW118702   7.878   3.853   9.919  0.4695  2.1340 -0.5948
 5441SOL    HW218703   7.897   3.848  10.069  0.1133 -0.1593 -0.5959
 5442SOL     OW18704   8.339   0.946   3.022 -0.1939  0.2520  0.1843
 5442SOL    HW118705   8.376   0.987   2.944  2.5862 -1.4400  0.5106
 5442SOL    HW218706   8.369   1.000   3.095  0.1896 -0.1629  0.3351
 5443SOL     OW18707   0.671  10.384   6.346 -0.1217 -0.4450 -0.6377
 5443SOL    HW118708   0.753  10.347   6.378  1.0552 -1.8592 -4.6862
 5443SOL    HW218709   0.603  10.325   6.378  0.6970 -0.7491  0.6102
 5444SOL     OW18710   4.839  10.323   7.916  0.0279  0.7413 -0.1756
 5444SOL    HW118711   4.834  10.400   7.859 -0.2691  0.8972  0.0566
 5444SOL    HW218712   4.917  10.338   7.970 -0.0452  0.8959 -0.1108
 5445SOL     OW18713   5.763   4.896   0.520  0.4302 -0.1597 -0.0124
 5445SOL    HW118714   5.803   4.816   0.488 -0.6793 -1.3363  1.4047
 5445SOL    HW218715   5.735   4.942   0.441  2.0154 -0.6289 -0.8890
 5446SOL     OW18716   8.720   3.404   8.492 -0.2599  0.0258  0.6350
 5446SOL    HW118717   8.643   3.377   8.542 -0.8688  2.7491  1.3269
 5446SOL    HW218718   8.794   3.369   8.541 -0.9747 -1.0370  0.9942
 5447SOL     OW18719   1.305   7.326   1.359 -0.0432  0.3018  0.3304
 5447SOL    HW118720   1.363   7.400   1.375 -1.0953  0.8374  1.9218
 5447SOL    HW218721   1.341   7.256   1.413 -0.3303  0.3460  0.5800
 5448SOL     OW18722   0.981   0.734   1.967 -0.0752 -0.5795  0.0141
 5448SOL    HW118723   0.957   0.766   1.880  0.0041 -2.0410 -0.5588
 5448SOL    HW218724   1.073   0.757   1.977 -0.4794  1.0097  0.3841
 5449SOL     OW18725   1.059   7.432   6.280 -0.1507  0.2213 -0.3370
 5449SOL    HW118726   1.137   7.462   6.233  0.3458 -1.2313 -0.5121
 5449SOL    HW218727   1.031   7.507   6.332  1.8559  0.5373  0.3741
 5450SOL     OW18728   6.471   5.019   3.325  0.2949  0.4598 -0.4198
 5450SOL    HW118729   6.417   4.944   3.301  0.4745  0.6150 -1.3492
 5450SOL    HW218730   6.535   4.984   3.387 -0.3940  0.1202  0.1088
 5451SOL     OW18731   8.632   8.809   7.971 -0.0677  0.0110  0.6202
 5451SOL    HW118732   8.576   8.886   7.976  1.5586  1.2333  0.8452
 5451SOL    HW218733   8.668   8.812   7.882 -0.7290 -1.0808  0.2812
 5452SOL     OW18734   4.220   8.248   0.403  0.5282  0.8175 -0.4106
 5452SOL    HW118735   4.168   8.211   0.332 -0.3379 -0.7522  0.9715
 5452SOL    HW218736   4.205   8.343   0.397  0.6451  0.7343 -2.4080
 5453SOL     OW18737   8.037   1.446   2.896  0.9712 -0.1389 -0.3678
 5453SOL    HW118738   7.961   1.414   2.848  1.0115  1.0415 -1.2798
 5453SOL    HW218739   8.110   1.432   2.836  1.1084  0.8636 -0.4477
 5454SOL     OW18740   0.855   5.030   5.640 -0.7935 -0.0289 -0.3834
 5454SOL    HW118741   0.846   5.041   5.735  0.0700 -0.5939 -0.2261
 5454SOL    HW218742   0.765   5.033   5.607 -1.0478  1.0119  0.3506
 5455SOL     OW18743   7.979   7.835   5.435 -0.1101 -0.0887  0.3363
 5455SOL    HW118744   7.968   7.925   5.465 -3.3518 -0.1127 -0.3853
 5455SOL    HW218745   7.982   7.783   5.515  1.8861  0.5699  0.7648
 5456SOL     OW18746   1.161   3.923   3.794  0.2489 -0.0504 -0.1727
 5456SOL    HW118747   1.093   3.868   3.754 -0.7288  1.1360 -0.2114
 5456SOL    HW218748   1.159   3.899   3.887  1.4035 -1.6591 -0.5338
 5457SOL     OW18749   3.646   8.041   8.706  0.0224 -0.0785  0.4464
 5457SOL    HW118750   3.620   7.969   8.648 -1.8400  1.2582 -0.4723
 5457SOL    HW218751   3.621   8.012   8.793  0.4960 -1.0601  0.2755
 5458SOL     OW18752   7.442   1.737   4.549  1.0851  0.3777 -0.5451
 5458SOL    HW118753   7.512   1.779   4.499 -0.3863  2.3473 -1.0718
 5458SOL    HW218754   7.487   1.676   4.607  3.2845  2.0015 -0.4364
 5459SOL     OW18755   0.575   4.588   7.651 -0.0162 -0.9324 -0.3264
 5459SOL    HW118756   0.609   4.651   7.588  2.5253 -1.9175 -0.0674
 5459SOL    HW218757   0.481   4.584   7.634  0.0841  1.3482 -1.7106
 5460SOL     OW18758  10.588   5.627   8.811  0.4222  0.1918 -0.0871
 5460SOL    HW118759  10.608   5.677   8.731 -1.3536  0.6063 -0.3223
 5460SOL    HW218760  10.590   5.693   8.881 -0.1656  0.2650 -0.1324
 5461SOL     OW18761  10.477   9.416   1.480 -0.1428  0.0259  0.2499
 5461SOL    HW118762  10.566   9.440   1.505  0.4128 -0.9618 -0.7097
 5461SOL    HW218763  10.485   9.326   1.448 -0.9781  0.8457 -2.4469
 5462SOL     OW18764   8.040   7.383   0.688  0.1970 -0.2592  0.1047
 5462SOL    HW118765   7.999   7.326   0.623  1.9169 -0.9857 -0.3792
 5462SOL    HW218766   8.002   7.354   0.771 -0.5711 -0.6239 -0.3568
 5463SOL     OW18767   2.863   1.308   8.389 -0.1410 -0.4385 -0.4694
 5463SOL    HW118768   2.857   1.227   8.338 -2.7107 -0.2057 -0.6659
 5463SOL    HW218769   2.774   1.342   8.391  0.6935  1.9077  0.4460
 5464SOL     OW18770   2.431   6.123   5.537 -0.4369  0.5521 -0.5961
 5464SOL    HW118771   2.474   6.168   5.610  1.3990 -0.3038 -1.0781
 5464SOL    HW218772   2.497   6.060   5.506 -2.0525 -0.8220 -1.4206
 5465SOL     OW18773   4.105   9.332   7.895 -0.1235 -0.5760 -0.1835
 5465SOL    HW118774   4.087   9.348   7.802 -1.2180  0.4007  0.1666
 5465SOL    HW218775   4.061   9.249   7.914 -0.8490 -0.2247 -0.2927
 5466SOL     OW18776   3.360  10.588   0.240  0.1809 -0.0765 -0.2692
 5466SOL    HW118777   3.292  10.606   0.305  0.5343 -0.3897  0.2041
 5466SOL    HW218778   3.425  10.537   0.288  0.0015 -1.1395 -1.1118
 5467SOL     OW18779   5.038   0.674   5.532 -0.3478  0.2841  0.2091
 5467SOL    HW118780   4.957   0.653   5.484 -0.0457 -0.0361 -0.1664
 5467SOL    HW218781   5.014   0.750   5.585 -0.8088  0.3978 -0.1435
 5468SOL     OW18782   6.080   9.841   1.026 -0.0150  1.0561  0.0405
 5468SOL    HW118783   6.004   9.791   1.054 -0.6020  1.0435 -1.5216
 5468SOL    HW218784   6.091   9.908   1.094 -1.4589  1.0945  0.2543
 5469SOL     OW18785   3.888   9.124   6.693  0.1764 -0.6864 -0.3189
 5469SOL    HW118786   3.855   9.108   6.781  1.7297 -2.7329 -0.0204
 5469SOL    HW218787   3.983   9.128   6.703  0.3131  0.8897 -1.6894
 5470SOL     OW18788   4.199   2.396   3.423 -0.5017 -0.3414  1.0268
 5470SOL    HW118789   4.143   2.415   3.498 -1.0316  0.0595  0.5467
 5470SOL    HW218790   4.137   2.388   3.350  0.0563 -0.0609  0.5184
 5471SOL     OW18791   9.179   2.274   1.996  0.0256 -0.2703 -0.6622
 5471SOL    HW118792   9.211   2.202   1.941  0.9715 -0.0386 -0.4275
 5471SOL    HW218793   9.167   2.347   1.936 -1.9544 -0.8831 -1.0978
 5472SOL     OW18794   5.318   8.205  10.687 -0.3101 -0.8458  1.0410
 5472SOL    HW118795   5.314   8.191  10.781 -0.3945  0.6616  1.2844
 5472SOL    HW218796   5.258   8.277  10.670  2.1739  1.2277  0.3469
 5473SOL     OW18797   2.068   8.183   3.386  0.1301 -0.5695 -0.3068
 5473SOL    HW118798   2.108   8.098   3.365  2.0534  0.3269 -0.4730
 5473SOL    HW218799   2.116   8.213   3.464 -1.4057 -0.1972  0.5265
 5474SOL     OW18800   9.401   9.498   3.596  0.2538  0.1309 -0.0337
 5474SOL    HW118801   9.392   9.494   3.501  0.2499  1.4464 -0.1182
 5474SOL    HW218802   9.380   9.589   3.617  0.8973  0.0194  1.1550
 5475SOL     OW18803   3.554   6.155   4.073 -0.2597  0.3377  0.1976
 5475SOL    HW118804   3.566   6.221   4.141 -0.7463  0.4234  0.2088
 5475SOL    HW218805   3.572   6.201   3.991  0.1695  0.2763  0.2586
 5476SOL     OW18806   8.088   9.970  10.617  0.1193  0.0908  0.2974
 5476SOL    HW118807   8.085  10.025  10.539  0.9556  1.5486  1.2284
 5476SOL    HW218808   8.121   9.886  10.586 -2.1540 -0.2869 -1.3457
 5477SOL     OW18809   0.482   1.615   7.291 -0.2541 -0.9498  0.4104
 5477SOL    HW118810   0.513   1.694   7.247 -0.9089 -0.4403  0.8465
 5477SOL    HW218811   0.419   1.576   7.230 -0.1213 -1.0001  0.3053
 5478SOL     OW18812  10.044   5.405   4.973 -0.1433 -0.1623 -0.3279
 5478SOL    HW118813  10.088   5.487   4.947 -1.8644  0.6198 -0.9951
 5478SOL    HW218814  10.085   5.380   5.055 -0.3226  2.0358  0.5079
 5479SOL     OW18815   7.626  10.578   2.901  0.1900 -0.4678  0.6668
 5479SOL    HW118816   7.675  10.609   2.824  0.4684  0.5743  1.2455
 5479SOL    HW218817   7.682  10.511   2.939 -0.0847 -1.2107 -0.1904
 5480SOL     OW18818   5.616   5.676   1.395 -0.0944 -0.4095  0.2444
 5480SOL    HW118819   5.677   5.673   1.469 -1.9111  0.4275  1.8611
 5480SOL    HW218820   5.529   5.665   1.434 -1.1801  0.6352 -1.6973
 5481SOL     OW18821   6.911   8.969   3.974  0.1185 -0.1979  0.0509
 5481SOL    HW118822   6.834   8.950   3.920 -0.1128 -1.1632  0.6990
 5481SOL    HW218823   6.881   8.957   4.064  0.7083  0.6302  0.3699
 5482SOL     OW18824  10.248   1.119   3.637  0.9302  0.8548  0.2282
 5482SOL    HW118825  10.324   1.071   3.604  0.7236  0.8765 -0.3008
 5482SOL    HW218826  10.192   1.051   3.676  0.4974  0.6082 -0.7881
 5483SOL     OW18827   7.289   1.310   7.258  0.0482  0.1060 -0.6905
 5483SOL    HW118828   7.323   1.342   7.175  0.3963  0.3713 -0.4448
 5483SOL    HW218829   7.211   1.363   7.274  0.0242  0.1058 -0.8090
 5484SOL     OW18830   2.912   3.705   0.132  0.2042 -0.5217 -0.4915
 5484SOL    HW118831   2.937   3.613   0.137 -0.3675 -0.7617 -1.5863
 5484SOL    HW218832   2.827   3.709   0.176  0.7887 -0.2747  0.6311
 5485SOL     OW18833   4.071   4.291   1.111 -0.3052  0.6291 -0.3595
 5485SOL    HW118834   4.116   4.210   1.087 -1.0651  0.4775 -1.3167
 5485SOL    HW218835   3.999   4.263   1.168 -0.6162  0.6182 -0.7546
 5486SOL     OW18836   8.025   6.792   5.118  0.3408  0.1285 -0.0739
 5486SOL    HW118837   7.974   6.799   5.199 -0.8792  0.5295 -0.8639
 5486SOL    HW218838   8.085   6.866   5.122 -0.4509  0.7798 -0.0388
 5487SOL     OW18839  10.577   8.419   3.807  0.2390 -0.2681 -0.3486
 5487SOL    HW118840  10.653   8.389   3.757 -1.1406 -2.5005 -1.2770
 5487SOL    HW218841  10.529   8.339   3.827 -0.5625  0.8026  2.5007
 5488SOL     OW18842   1.902   3.670   0.253 -0.7782 -0.3364 -0.3592
 5488SOL    HW118843   1.915   3.638   0.343  0.2120 -0.0383 -0.3886
 5488SOL    HW218844   1.831   3.734   0.261 -0.5287 -0.1284  0.2520
 5489SOL     OW18845   3.537   0.921   1.257  0.1986 -0.8888 -0.1397
 5489SOL    HW118846   3.447   0.917   1.289  0.3484 -2.2326  0.1640
 5489SOL    HW218847   3.565   1.011   1.277 -0.9394 -0.5695  0.1093
 5490SOL     OW18848  10.450   2.460  10.464  0.6217  0.4446  0.1184
 5490SOL    HW118849  10.521   2.504  10.418 -0.3967  0.5924 -1.3795
 5490SOL    HW218850  10.452   2.370  10.430  0.1184  0.4434  0.0930
 5491SOL     OW18851   7.546   5.796   7.841  0.0722 -0.4963  0.2388
 5491SOL    HW118852   7.587   5.875   7.876 -0.1644  0.1373 -0.8550
 5491SOL    HW218853   7.536   5.739   7.916  0.5308  0.3981  1.0009
 5492SOL     OW18854  10.383   7.076   0.150 -0.1314 -0.1217 -0.1314
 5492SOL    HW118855  10.463   7.088   0.201  0.3245 -0.1629 -0.8150
 5492SOL    HW218856  10.347   6.993   0.180 -0.9995  0.8169  1.5835
 5493SOL     OW18857   3.448   7.236   5.039  0.2312  0.1053 -0.0865
 5493SOL    HW118858   3.485   7.191   5.114  1.1244  0.1295 -0.5026
 5493SOL    HW218859   3.445   7.328   5.065  1.8325  0.3154 -0.5703
 5494SOL     OW18860   7.983   1.104   8.974  0.0887 -0.0820 -0.5419
 5494SOL    HW118861   7.936   1.050   8.910 -0.7750  2.3203 -2.0848
 5494SOL    HW218862   8.040   1.159   8.921  3.2812 -1.4464  1.1576
 5495SOL     OW18863   4.284   9.812   7.057 -0.2467  0.2322 -0.4642
 5495SOL    HW118864   4.303   9.747   6.990 -0.5161 -0.6191  0.2548
 5495SOL    HW218865   4.208   9.860   7.024  0.3033  0.5623 -1.2565
 5496SOL     OW18866   7.331   3.413   5.676 -0.4967 -0.1518 -0.0771
 5496SOL    HW118867   7.350   3.341   5.616  0.9186 -0.1642  0.3552
 5496SOL    HW218868   7.318   3.372   5.761  0.6371  0.1164  0.2353
 5497SOL     OW18869   5.124   1.700   2.658  0.2269 -0.1998 -0.1376
 5497SOL    HW118870   5.174   1.637   2.709 -0.8009 -1.3552 -0.4953
 5497SOL    HW218871   5.059   1.735   2.720 -0.0422 -0.4763 -0.2587
 5498SOL     OW18872   3.400   6.697   3.671  0.5071 -0.1799  0.9955
 5498SOL    HW118873   3.327   6.639   3.648  1.0866 -0.9421  1.0448
 5498SOL    HW218874   3.364   6.754   3.739  0.1225 -0.9370  1.4386
 5499SOL     OW18875   6.403   1.561   6.114  0.1768 -0.3345 -0.2023
 5499SOL    HW118876   6.354   1.542   6.193 -0.9770  0.8696 -0.5745
 5499SOL    HW218877   6.488   1.591   6.145  0.0247 -0.6499  0.5431
 5500SOL     OW18878   5.744   8.066   3.601 -0.4640  0.1745 -0.0659
 5500SOL    HW118879   5.819   8.073   3.541 -1.1228 -1.6749 -1.2055
 5500SOL    HW218880   5.670   8.101   3.551 -0.4541  1.7520  0.9603
 5501SOL     OW18881   8.078   8.578   3.159  1.0785  0.1470 -0.1810
 5501SOL    HW118882   8.152   8.636   3.143  0.9393  0.4997  0.4457
 5501SOL    HW218883   8.019   8.594   3.085  0.9612  0.9356  0.0708
 5502SOL     OW18884  10.351   4.035   8.045  0.0067 -0.4842 -0.3407
 5502SOL    HW118885  10.319   3.978   7.976 -2.8656  1.7208 -1.0323
 5502SOL    HW218886  10.308   4.003   8.125  0.1084 -0.6052 -0.3353
 5503SOL     OW18887   0.228   2.312   0.243 -0.1862  0.3612 -0.6798
 5503SOL    HW118888   0.235   2.240   0.307  0.6086 -0.0747 -1.2343
 5503SOL    HW218889   0.257   2.273   0.160 -0.4655  1.1280 -1.1503
 5504SOL     OW18890   8.467   9.545   4.793  0.1557  0.8667  0.6183
 5504SOL    HW118891   8.373   9.563   4.785  0.1063  0.8068  1.0684
 5504SOL    HW218892   8.505   9.584   4.714  0.0035  2.7128  1.3932
 5505SOL     OW18893   9.214   5.430   9.414  0.2405  0.2982  0.4396
 5505SOL    HW118894   9.239   5.449   9.505 -0.2640  1.3743  0.3667
 5505SOL    HW218895   9.119   5.418   9.418  0.5007 -2.5379  0.5076
 5506SOL     OW18896   9.296   8.610   9.395  0.3664  0.3001 -0.2058
 5506SOL    HW118897   9.348   8.592   9.473  1.0516 -1.1646 -0.9553
 5506SOL    HW218898   9.320   8.699   9.371  0.2132  0.7378  1.1879
 5507SOL     OW18899   2.788   2.304   4.377  0.8707 -0.1584 -0.5153
 5507SOL    HW118900   2.766   2.238   4.443 -0.8922 -0.0988 -0.9994
 5507SOL    HW218901   2.721   2.372   4.387  1.1952  0.3596 -1.6654
 5508SOL     OW18902   5.754   8.162   0.550 -0.1899  0.2684 -0.1157
 5508SOL    HW118903   5.714   8.187   0.633 -1.0043  0.8190 -0.6634
 5508SOL    HW218904   5.804   8.083   0.571  0.4551  0.9792  1.1134
 5509SOL     OW18905   9.327   7.884   0.917 -0.0852  0.3985 -0.3814
 5509SOL    HW118906   9.235   7.878   0.891 -0.6052 -0.1993  1.4332
 5509SOL    HW218907   9.348   7.977   0.909 -1.1981  0.7286  0.2118
 5510SOL     OW18908   9.112   2.178   6.922  0.1648 -0.2007  0.2776
 5510SOL    HW118909   9.143   2.123   6.850 -1.1064 -1.6033  0.7499
 5510SOL    HW218910   9.030   2.137   6.950 -1.2505  2.3463  0.1859
 5511SOL     OW18911   1.466   9.817   6.721 -0.1266  0.1982 -0.5431
 5511SOL    HW118912   1.410   9.878   6.770  0.9002  1.3557 -0.7787
 5511SOL    HW218913   1.422   9.733   6.731  0.2083  0.2819  2.6885
 5512SOL     OW18914   6.243   5.341   0.651  1.0202  0.1725  0.3334
 5512SOL    HW118915   6.157   5.346   0.692  1.1600  2.2739  0.4954
 5512SOL    HW218916   6.242   5.258   0.603 -0.2151 -0.9688  2.1793
 5513SOL     OW18917   3.588   6.275   5.061  0.2723  0.3676  0.4503
 5513SOL    HW118918   3.658   6.268   4.996  1.3191 -1.2258  1.6792
 5513SOL    HW218919   3.516   6.223   5.024 -0.0819  1.5048 -0.5315
 5514SOL     OW18920   3.851   3.678   8.091 -0.3773 -0.3553  0.2451
 5514SOL    HW118921   3.845   3.594   8.137  0.7761 -1.0180 -0.7421
 5514SOL    HW218922   3.903   3.733   8.149 -1.1347 -0.3083  0.8980
 5515SOL     OW18923   5.224  10.781   1.411 -0.1311 -0.1767  0.2208
 5515SOL    HW118924   5.248  10.846   1.478 -1.3453 -0.7165  1.2334
 5515SOL    HW218925   5.134  10.804   1.388 -0.4529 -1.2622  0.3265
 5516SOL     OW18926   6.470   0.860   0.253 -0.3549 -0.1567  0.0894
 5516SOL    HW118927   6.462   0.774   0.295 -0.5368  0.4052  1.2511
 5516SOL    HW218928   6.549   0.897   0.292 -0.9168  0.6633  0.4545
 5517SOL     OW18929   2.690   7.019   6.291  0.2097 -0.3621 -0.7746
 5517SOL    HW118930   2.756   6.973   6.239 -0.3484 -0.5898 -1.2936
 5517SOL    HW218931   2.738   7.052   6.367  0.3827 -3.1013  0.4247
 5518SOL     OW18932   2.476   9.413  10.367  0.2029  0.0541  0.1004
 5518SOL    HW118933   2.408   9.350  10.388  1.0610 -1.2351 -0.8958
 5518SOL    HW218934   2.432   9.498  10.372 -0.9238 -0.5758  1.6414
 5519SOL     OW18935  10.393   9.619   3.918 -0.1500 -0.9724  0.1144
 5519SOL    HW118936  10.459   9.555   3.892  2.1313  1.8450 -1.6435
 5519SOL    HW218937  10.443   9.699   3.936 -2.8476  0.4753  1.8971
 5520SOL     OW18938   0.441   3.668   6.908  0.1210  0.4479  0.0671
 5520SOL    HW118939   0.444   3.579   6.874  1.2319  0.5579 -0.1523
 5520SOL    HW218940   0.362   3.670   6.962 -1.1514 -0.0027 -1.6894
 5521SOL     OW18941   8.981   2.725   0.129  0.4378 -0.4850 -0.0078
 5521SOL    HW118942   9.000   2.819   0.125 -0.9397 -0.2088 -0.9117
 5521SOL    HW218943   9.065   2.683   0.111  1.0202  0.5731  0.1158
 5522SOL     OW18944   0.186   2.917   9.156 -0.4622 -0.2268 -0.3686
 5522SOL    HW118945   0.161   2.912   9.249  0.9154  0.3910  0.0676
 5522SOL    HW218946   0.263   2.861   9.150 -0.2649  0.1075 -1.0425
 5523SOL     OW18947  10.382   5.802   1.417  0.2725 -0.2964  0.3975
 5523SOL    HW118948  10.297   5.808   1.461 -0.0109  0.2633 -0.2067
 5523SOL    HW218949  10.435   5.750   1.476 -0.7685 -1.4699  0.3371
 5524SOL     OW18950   6.684   7.199   3.577 -0.2632 -0.5076  0.3163
 5524SOL    HW118951   6.723   7.119   3.611 -1.0270 -0.6704  0.8471
 5524SOL    HW218952   6.612   7.169   3.522  1.0626 -0.2540 -1.6551
 5525SOL     OW18953   6.017   2.012   6.799  0.1774 -0.0991  1.0484
 5525SOL    HW118954   5.995   2.043   6.711 -0.6540 -1.4968  0.7359
 5525SOL    HW218955   6.110   1.990   6.794 -0.0078 -0.7638  0.3286
 5526SOL     OW18956   5.274   0.499   0.208  0.5976  0.5374  0.7357
 5526SOL    HW118957   5.362   0.471   0.232 -0.0211 -0.6231  1.7933
 5526SOL    HW218958   5.285   0.544   0.124  2.2234  0.6983  0.9971
 5527SOL     OW18959   6.202   9.717   7.785 -0.1148  0.0111  0.1228
 5527SOL    HW118960   6.153   9.782   7.835 -1.3133 -0.0478 -0.9211
 5527SOL    HW218961   6.268   9.685   7.845 -1.5251 -0.0901  1.6860
 5528SOL     OW18962   3.857   7.565   7.772  0.4870  0.0341 -0.4586
 5528SOL    HW118963   3.809   7.495   7.815  1.7358 -0.3624  0.3460
 5528SOL    HW218964   3.945   7.530   7.760  0.8659  1.1096 -0.9515
 5529SOL     OW18965   5.507   6.724   9.250 -0.0019 -0.3148  0.2287
 5529SOL    HW118966   5.464   6.712   9.165  1.4857  0.4196 -0.6572
 5529SOL    HW218967   5.482   6.812   9.278  1.7799  0.5802 -0.8441
 5530SOL     OW18968   5.420   6.003   0.077 -0.2316 -0.3265 -0.2613
 5530SOL    HW118969   5.461   5.937   0.134  0.4760 -0.8790 -1.3821
 5530SOL    HW218970   5.338   5.961   0.049 -0.3747 -0.2262  0.0026
 5531SOL     OW18971   8.686   6.766   8.096 -0.5985 -0.3015  0.1684
 5531SOL    HW118972   8.627   6.818   8.152 -0.7404  0.2442 -0.4807
 5531SOL    HW218973   8.773   6.783   8.132 -0.6502  0.3365  0.0079
 5532SOL     OW18974   5.668   0.293  10.680  0.1149  0.3294 -0.0188
 5532SOL    HW118975   5.592   0.349  10.699  0.3876  0.8311 -0.3745
 5532SOL    HW218976   5.714   0.339  10.610 -1.4304 -1.9400 -2.7131
 5533SOL     OW18977   3.711   2.079   1.034 -0.2831 -0.1273  0.0313
 5533SOL    HW118978   3.705   2.093   0.940 -1.7391 -0.8587 -0.0181
 5533SOL    HW218979   3.670   2.157   1.073  1.0148  0.5373  0.1003
 5534SOL     OW18980   5.199  10.710   0.653 -0.5010 -0.5773  0.0175
 5534SOL    HW118981   5.119  10.696   0.603 -1.0115 -0.9002  0.8872
 5534SOL    HW218982   5.259  10.752   0.592 -0.8568 -1.5627 -1.0569
 5535SOL     OW18983   3.413   6.650   9.032  0.0291  0.3242  0.7716
 5535SOL    HW118984   3.457   6.591   9.093 -0.0286 -0.1645  0.3566
 5535SOL    HW218985   3.429   6.738   9.066  0.6329  0.1026  1.0728
 5536SOL     OW18986   0.728   5.119   9.660  0.1966  0.3943  0.2432
 5536SOL    HW118987   0.665   5.049   9.641 -0.8684  1.1391  0.8782
 5536SOL    HW218988   0.688   5.168   9.732  1.7224  0.6436  0.9560
 5537SOL     OW18989   5.601   2.672   2.881 -0.1500  0.3447 -0.0318
 5537SOL    HW118990   5.673   2.717   2.838 -0.2192  0.9131  0.4281
 5537SOL    HW218991   5.524   2.696   2.831 -0.2821  1.3012  0.6050
 5538SOL     OW18992   0.688  10.176   8.262  0.2420  1.0152  0.2167
 5538SOL    HW118993   0.707  10.228   8.341 -0.0206  0.2189  0.8122
 5538SOL    HW218994   0.740  10.096   8.273 -1.3351  0.0075  0.5634
 5539SOL     OW18995  10.377   9.714   1.089  0.1888  0.8124 -0.8127
 5539SOL    HW118996  10.290   9.675   1.096  0.8399 -0.6758 -0.5657
 5539SOL    HW218997  10.403   9.698   0.998  1.3514 -1.4349 -0.1602
 5540SOL     OW18998   1.333   0.402  10.059 -0.4595  0.2577 -0.3227
 5540SOL    HW118999   1.308   0.482  10.107 -0.6265 -0.0262  0.0681
 5540SOL    HW219000   1.374   0.347  10.126 -2.4263 -0.9559 -0.0592
 5541SOL     OW19001   2.957   1.823   3.160 -0.3472 -1.0228  0.2397
 5541SOL    HW119002   2.940   1.796   3.070 -0.2089  0.8911 -0.4093
 5541SOL    HW219003   3.050   1.804   3.174  0.5579  1.7862 -1.2732
 5542SOL     OW19004   2.556   3.921   2.234  0.2705 -0.3415 -0.0577
 5542SOL    HW119005   2.546   4.013   2.259  0.6265 -0.9396  2.5237
 5542SOL    HW219006   2.477   3.878   2.268  1.0830 -1.3254  0.6390
 5543SOL     OW19007   0.283   4.892  10.625  0.0583 -0.1772 -0.4192
 5543SOL    HW119008   0.229   4.969  10.641  0.4788  0.3418 -1.4098
 5543SOL    HW219009   0.228   4.835  10.571 -1.2596 -1.8106  2.3608
 5544SOL     OW19010  10.239   1.058   7.988  0.3168  0.3018 -0.1093
 5544SOL    HW119011  10.333   1.070   7.981  0.6395 -0.5604  2.0532
 5544SOL    HW219012  10.209   1.131   8.042 -0.4196  0.9833 -1.3712
 5545SOL     OW19013   9.393   6.303   6.318  0.1973  0.1041 -0.1317
 5545SOL    HW119014   9.393   6.372   6.252  1.5292  0.7546  0.4970
 5545SOL    HW219015   9.316   6.250   6.298 -0.8488  1.7492 -0.6613
 5546SOL     OW19016   0.966   5.702   8.764 -0.2465  0.5557  0.1685
 5546SOL    HW119017   0.973   5.705   8.668 -2.0020  0.3860 -0.0025
 5546SOL    HW219018   0.976   5.609   8.785 -0.9727  0.4399  0.0276
 5547SOL     OW19019   0.674   1.244   0.923 -0.4490 -0.1579 -0.3321
 5547SOL    HW119020   0.719   1.281   0.847  1.0774 -1.7229 -0.2431
 5547SOL    HW219021   0.734   1.178   0.957 -1.2586  0.2361  2.0270
 5548SOL     OW19022   0.262   9.950   7.956  0.1247  0.0100 -0.5248
 5548SOL    HW119023   0.250   9.909   7.870 -1.5833  2.3581 -1.4995
 5548SOL    HW219024   0.224  10.037   7.947  0.6426  0.6479  2.4084
 5549SOL     OW19025   1.013   0.374   3.638  0.1213  0.2860  0.0242
 5549SOL    HW119026   0.982   0.457   3.674  0.6944  0.4903  0.0541
 5549SOL    HW219027   1.077   0.399   3.571 -0.3911 -0.1079 -0.6325
 5550SOL     OW19028   6.195  10.608   3.089 -0.4571 -0.3196  0.2039
 5550SOL    HW119029   6.267  10.669   3.100 -0.1414 -0.6010 -0.2567
 5550SOL    HW219030   6.184  10.568   3.175 -1.1527  0.8977  0.7106
 5551SOL     OW19031   8.253   1.883   4.381 -0.2228  0.0977  0.4713
 5551SOL    HW119032   8.275   1.939   4.456 -1.0626  0.6342  0.3330
 5551SOL    HW219033   8.245   1.795   4.417 -0.9188  0.4024  1.0746
 5552SOL     OW19034   0.223   3.856   4.622  0.2267  0.0402 -0.2737
 5552SOL    HW119035   0.317   3.842   4.634  0.0805 -0.1539  0.7577
 5552SOL    HW219036   0.215   3.949   4.599  0.5748  0.4022  1.0165
 5553SOL     OW19037   0.350  10.003   1.491  0.2244  0.0899 -0.4020
 5553SOL    HW119038   0.392   9.985   1.576  0.4777  0.8413 -0.3659
 5553SOL    HW219039   0.360   9.921   1.442 -0.5406 -0.6034  0.5384
 5554SOL     OW19040   4.727   9.161   7.044 -0.3438  0.2857 -0.3585
 5554SOL    HW119041   4.766   9.110   6.973  2.0734  0.5293  0.7124
 5554SOL    HW219042   4.801   9.188   7.098 -1.6632  3.4957  0.0785
 5555SOL     OW19043   6.598   6.025   5.757 -0.1866 -0.1008 -0.2730
 5555SOL    HW119044   6.559   6.083   5.692 -2.5669  0.4669  1.5170
 5555SOL    HW219045   6.539   5.949   5.760  1.9006 -1.8906 -1.3025
 5556SOL     OW19046   8.596   4.623   5.997  0.3926  0.1067 -0.3396
 5556SOL    HW119047   8.588   4.666   6.082 -0.6955 -0.4537 -0.1354
 5556SOL    HW219048   8.518   4.651   5.949 -0.2319 -1.4047 -0.2821
 5557SOL     OW19049  10.241   0.924   0.024 -0.3932  0.2192  0.3066
 5557SOL    HW119050  10.312   0.981   0.055 -0.3356  0.8527 -0.9350
 5557SOL    HW219051  10.165   0.982   0.019 -0.5424 -0.0106 -0.1402
 5558SOL     OW19052   0.371   9.233   8.505  0.0066 -0.4627 -0.2657
 5558SOL    HW119053   0.319   9.212   8.582 -0.0947  0.2958 -0.1167
 5558SOL    HW219054   0.456   9.191   8.520  0.1925  0.1743  0.5398
 5559SOL     OW19055   2.490   9.063  10.216 -0.2996 -0.1755 -0.4548
 5559SOL    HW119056   2.500   9.069  10.121  0.4099  0.4309 -0.3546
 5559SOL    HW219057   2.522   9.147  10.248 -1.3650 -0.0222  0.2676
 5560SOL     OW19058   1.508   1.564   1.892 -0.2912  0.0394  0.6287
 5560SOL    HW119059   1.597   1.529   1.901 -0.5603 -0.3703  1.7903
 5560SOL    HW219060   1.521   1.656   1.871  0.4039 -0.0054  0.8304
 5561SOL     OW19061   6.514   9.721   6.954  0.2107 -0.2459  0.1834
 5561SOL    HW119062   6.509   9.694   6.862 -0.7384 -0.6240  0.3311
 5561SOL    HW219063   6.435   9.775   6.967  1.1300  1.0977  0.3808
 5562SOL     OW19064   0.596   6.950   0.888 -0.3888  0.1576 -0.1078
 5562SOL    HW119065   0.523   7.009   0.907  1.3908  2.1615  0.9943
 5562SOL    HW219066   0.584   6.925   0.797 -3.0223 -0.5061  0.3359
 5563SOL     OW19067  10.258   7.793   9.992 -0.3603  0.1926  0.1256
 5563SOL    HW119068  10.281   7.795   9.899  2.0835  3.7518  0.6005
 5563SOL    HW219069  10.185   7.854  10.000  0.4821  1.1517  0.6960
 5564SOL     OW19070   7.580  10.573   6.223 -0.2234 -0.3453 -0.2213
 5564SOL    HW119071   7.623  10.533   6.147  0.7298 -0.1911  0.2223
 5564SOL    HW219072   7.548  10.499   6.275  0.2629 -0.4960 -0.1294
 5565SOL     OW19073   2.816   6.415   1.652  0.7744 -0.0246  0.1838
 5565SOL    HW119074   2.830   6.349   1.719  0.5224  0.4664  0.7305
 5565SOL    HW219075   2.863   6.492   1.684  1.5041 -0.0819 -0.6951
 5566SOL     OW19076   0.974   8.117   3.469  0.3705 -0.0502 -0.0270
 5566SOL    HW119077   0.925   8.037   3.450 -0.3973  0.5492 -0.6191
 5566SOL    HW219078   0.957   8.173   3.393  1.9169  0.2047 -0.2094
 5567SOL     OW19079   2.193   6.682   6.648 -0.1850  0.5435 -0.2248
 5567SOL    HW119080   2.200   6.652   6.557 -1.0600  3.1486 -1.2330
 5567SOL    HW219081   2.270   6.738   6.660  0.0713  0.0060  0.7736
 5568SOL     OW19082   3.153   8.552   1.759 -0.2493  0.4363  1.1122
 5568SOL    HW119083   3.200   8.528   1.839  1.0127  0.7150  0.4670
 5568SOL    HW219084   3.116   8.469   1.728  0.1200  0.1477  1.4297
 5569SOL     OW19085   0.245   4.217   3.994  0.0324  0.5637 -0.8330
 5569SOL    HW119086   0.191   4.289   3.960  0.1227  0.2913 -1.5678
 5569SOL    HW219087   0.294   4.256   4.066 -1.1907  0.8048 -0.1036
 5570SOL     OW19088   9.198   2.259   9.076  0.1067 -0.7439  0.3502
 5570SOL    HW119089   9.200   2.314   9.154  1.0414 -1.5889  0.9484
 5570SOL    HW219090   9.131   2.193   9.095 -1.6303  0.6166 -0.7145
 5571SOL     OW19091  10.589   2.177   4.425  0.0942 -0.3615 -0.3852
 5571SOL    HW119092  10.583   2.261   4.379 -1.2470 -0.5288 -0.5598
 5571SOL    HW219093  10.498   2.153   4.442  0.4993 -1.3334  0.4912
 5572SOL     OW19094   0.582   9.589  10.265 -0.1458 -0.1850  1.1365
 5572SOL    HW119095   0.551   9.670  10.304 -2.4303  0.1437 -1.1826
 5572SOL    HW219096   0.530   9.521  10.307 -2.0764  0.1040 -0.6634
 5573SOL     OW19097   4.479   3.633   8.050 -0.2284  0.0866 -0.5023
 5573SOL    HW119098   4.458   3.582   8.128 -4.5740  0.5692 -1.0855
 5573SOL    HW219099   4.500   3.568   7.983 -0.0217 -0.5546  0.1741
 5574SOL     OW19100   8.739   2.841   7.225  0.1322 -0.3749 -0.5825
 5574SOL    HW119101   8.758   2.786   7.301  2.2672 -0.8950 -1.4164
 5574SOL    HW219102   8.651   2.817   7.198  0.5684 -2.5322 -0.2091
 5575SOL     OW19103   8.150   7.716   3.973 -0.9621  0.0323  0.3161
 5575SOL    HW119104   8.183   7.804   3.956 -2.6583  0.4862 -0.9495
 5575SOL    HW219105   8.167   7.701   4.066 -0.1093  1.4486  0.4178
 5576SOL     OW19106   8.044   1.793   9.458 -0.1451  0.2767  0.5252
 5576SOL    HW119107   8.003   1.710   9.433  0.3197  0.0434  0.5329
 5576SOL    HW219108   8.076   1.778   9.547 -0.0443  0.4596  0.5205
 5577SOL     OW19109   4.639   9.564   5.561 -0.6877  0.7361 -0.2872
 5577SOL    HW119110   4.575   9.493   5.555 -1.6646  1.6894 -1.6315
 5577SOL    HW219111   4.685   9.563   5.477  3.3128 -1.8338  1.5887
 5578SOL     OW19112   5.206   6.800   5.864 -0.0038  0.2368 -0.3006
 5578SOL    HW119113   5.212   6.706   5.878 -1.3217  0.3952  1.8623
 5578SOL    HW219114   5.131   6.811   5.805 -0.6145 -0.0233  0.4208
 5579SOL     OW19115   0.209   3.249   8.464  0.3396 -0.0714  0.2711
 5579SOL    HW119116   0.286   3.236   8.518 -0.7426 -2.6570  1.3371
 5579SOL    HW219117   0.167   3.163   8.460 -3.4153  1.5067  1.1667
 5580SOL     OW19118   8.755   3.271   2.310  0.0311 -0.6491 -0.2966
 5580SOL    HW119119   8.744   3.222   2.228  1.6256 -2.0042  0.2507
 5580SOL    HW219120   8.756   3.204   2.378 -0.7524  0.4225  0.7912
 5581SOL     OW19121   1.270   5.748  10.346  0.6637  0.4551  0.0983
 5581SOL    HW119122   1.210   5.696  10.400  1.4359  0.1300  0.6588
 5581SOL    HW219123   1.223   5.761  10.263  0.3424 -0.9222  0.0417
 5582SOL     OW19124   1.131   7.712   6.438 -0.7375  0.7557  0.2843
 5582SOL    HW119125   1.098   7.690   6.525  1.8158  0.4685  1.2521
 5582SOL    HW219126   1.214   7.756   6.454 -0.3052  0.8962 -2.0173
 5583SOL     OW19127   3.144   9.769   1.024 -0.0692  0.2558 -0.9229
 5583SOL    HW119128   3.061   9.777   1.071  0.1246  1.4979 -0.7663
 5583SOL    HW219129   3.144   9.680   0.990 -0.8140 -0.2259  0.2989
 5584SOL     OW19130   4.199   9.449   4.404 -0.1771  0.9167  0.3692
 5584SOL    HW119131   4.291   9.437   4.379 -0.2894  0.3906  0.1978
 5584SOL    HW219132   4.185   9.387   4.476 -1.0860 -0.9260 -1.3110
 5585SOL     OW19133   1.802   5.381   0.594  0.6191 -0.0509  0.5370
 5585SOL    HW119134   1.735   5.408   0.657  0.3177  0.5712 -0.0469
 5585SOL    HW219135   1.758   5.382   0.509  1.2910  0.1164  0.1797
 5586SOL     OW19136  10.180   7.582   3.149  0.7958 -0.6999  0.0598
 5586SOL    HW119137  10.273   7.558   3.141  0.8985 -1.1357  2.0482
 5586SOL    HW219138  10.139   7.507   3.193 -0.4781 -0.4538 -0.6726
 5587SOL     OW19139   3.311   9.862   1.234 -0.1401  0.2761 -0.6780
 5587SOL    HW119140   3.396   9.876   1.193 -0.3172 -0.3995 -1.2940
 5587SOL    HW219141   3.255   9.831   1.163 -0.5495 -0.5547 -0.0067
 5588SOL     OW19142   1.987   6.084   1.709 -0.8084 -0.0210 -0.3976
 5588SOL    HW119143   1.991   6.113   1.800  0.7632 -0.7499 -0.1958
 5588SOL    HW219144   2.048   6.141   1.663  1.8110 -2.3963 -0.1138
 5589SOL     OW19145   3.589   3.712   5.253  0.0532 -0.1423  0.9353
 5589SOL    HW119146   3.552   3.722   5.165 -1.7044  0.6276  1.7174
 5589SOL    HW219147   3.542   3.637   5.290 -1.3450  1.2835  2.1988
 5590SOL     OW19148   4.692   7.311  10.736  0.0398  0.4490 -0.5111
 5590SOL    HW119149   4.654   7.342  10.818 -0.4673  1.5600 -1.1464
 5590SOL    HW219150   4.715   7.391  10.688 -0.4132 -0.1676 -1.7998
 5591SOL     OW19151   1.526   6.297   0.510  0.4427  0.2795 -0.0147
 5591SOL    HW119152   1.485   6.376   0.474  1.0468  0.0204 -1.3473
 5591SOL    HW219153   1.619   6.319   0.513  0.7046 -0.6151 -1.0768
 5592SOL     OW19154   4.034   5.817   3.126  0.2854  0.2243 -0.1882
 5592SOL    HW119155   3.946   5.841   3.155  0.4889 -0.9751  1.5637
 5592SOL    HW219156   4.085   5.898   3.134 -0.2491  0.4999  0.4894
 5593SOL     OW19157   0.319   6.399  10.185  0.6388 -0.0900  0.0705
 5593SOL    HW119158   0.270   6.330  10.229  0.1277 -0.0925 -0.4738
 5593SOL    HW219159   0.340   6.362  10.099  1.6620 -0.1090  0.3236
 5594SOL     OW19160   4.573  10.455   4.870  0.0213 -0.5349 -0.5543
 5594SOL    HW119161   4.615  10.458   4.956  0.3440 -0.2127 -0.7228
 5594SOL    HW219162   4.621  10.519   4.817  0.9787 -1.9561 -1.4831
 5595SOL     OW19163   3.979   6.495   9.823 -0.3334  0.4690 -0.6219
 5595SOL    HW119164   3.961   6.494   9.729 -1.5377 -1.7103 -0.4417
 5595SOL    HW219165   3.893   6.491   9.864  0.2134 -0.3984  0.5144
 5596SOL     OW19166   7.173   3.489   1.136 -0.3407  0.3305  0.2212
 5596SOL    HW119167   7.221   3.438   1.202 -0.0892  0.2087 -0.0548
 5596SOL    HW219168   7.081   3.475   1.157 -0.3236 -1.2607 -0.6039
 5597SOL     OW19169   9.188   1.170   1.405 -0.6527  0.1785  0.3482
 5597SOL    HW119170   9.229   1.127   1.330  0.4154  2.2472 -0.3357
 5597SOL    HW219171   9.220   1.122   1.482 -0.2112 -0.7592 -0.4046
 5598SOL     OW19172   4.946   8.656   8.990 -0.1721  0.2736 -0.0706
 5598SOL    HW119173   4.962   8.694   9.076  1.6779 -2.3596  0.8445
 5598SOL    HW219174   5.021   8.683   8.937  0.9113 -1.5794  0.4498
 5599SOL     OW19175   7.550   7.683   0.007  0.4929  0.1983  0.2680
 5599SOL    HW119176   7.641   7.657  -0.004 -0.0735 -1.4759 -0.9723
 5599SOL    HW219177   7.503   7.601   0.021 -1.1937  0.6167 -2.2309
 5600SOL     OW19178   5.192   2.342   9.248 -0.1410  0.0416  0.1458
 5600SOL    HW119179   5.192   2.378   9.337 -0.1372 -0.2427  0.2612
 5600SOL    HW219180   5.163   2.415   9.193 -0.0234  0.2563  0.3629
 5601SOL     OW19181   1.859  10.752   0.288 -0.3663 -0.3580  0.2996
 5601SOL    HW119182   1.912  10.673   0.276  0.9631  0.3961  0.9400
 5601SOL    HW219183   1.785  10.740   0.229  0.9978 -1.0491 -1.3698
 5602SOL     OW19184   9.930   8.675   7.092  0.3617  0.4856 -0.1963
 5602SOL    HW119185   9.863   8.613   7.066  2.0166 -1.6755  0.4121
 5602SOL    HW219186   9.883   8.744   7.139 -1.3419 -1.4344  1.0619
 5603SOL     OW19187   5.735  10.178   4.848  0.0523 -0.1360  0.3548
 5603SOL    HW119188   5.649  10.220   4.851 -0.2370 -0.6790 -0.3419
 5603SOL    HW219189   5.720  10.093   4.807  1.0482  0.0744 -0.4884
 5604SOL     OW19190   8.579   4.919   0.467 -0.2425  0.0025 -0.1299
 5604SOL    HW119191   8.628   4.861   0.525  0.4461  1.3454  0.6752
 5604SOL    HW219192   8.628   4.917   0.385 -0.5335 -0.9602 -0.2946
 5605SOL     OW19193   3.005   3.164   2.009 -0.1905  0.0588  0.1059
 5605SOL    HW119194   2.944   3.230   1.976 -0.9905  0.2008  1.7499
 5605SOL    HW219195   2.951   3.107   2.064  0.5059 -1.9194 -1.1433
 5606SOL     OW19196   7.515   7.699   4.900  0.0624 -0.1006 -0.5747
 5606SOL    HW119197   7.527   7.793   4.891 -0.9200  0.0106 -0.7608
 5606SOL    HW219198   7.603   7.666   4.922  0.4918  0.8008 -0.8856
 5607SOL     OW19199   7.523   2.382   9.733 -0.1010  0.3161  0.2544
 5607SOL    HW119200   7.482   2.369   9.647 -0.0511  0.2840  0.2355
 5607SOL    HW219201   7.544   2.294   9.763  2.5211  0.4142 -0.9866
 5608SOL     OW19202   5.628   4.493   2.094 -0.2652 -0.1439 -0.0296
 5608SOL    HW119203   5.616   4.549   2.017 -0.3066  0.4545  0.3997
 5608SOL    HW219204   5.570   4.418   2.079 -0.8348  0.3297 -0.2360
 5609SOL     OW19205   6.271   3.965   1.392 -0.4004 -0.0666 -0.1978
 5609SOL    HW119206   6.197   3.960   1.333  0.2195 -0.5356 -0.9615
 5609SOL    HW219207   6.339   3.912   1.350  0.8814  1.5441 -0.2687
 5610SOL     OW19208   4.355   7.109   5.915  0.0529  0.2997 -0.0960
 5610SOL    HW119209   4.347   7.059   5.996  0.4259  1.5410  0.7357
 5610SOL    HW219210   4.449   7.121   5.902  0.0196 -0.2365 -0.9510
 5611SOL     OW19211   5.951   1.851   3.580 -0.2126 -0.3542  0.7449
 5611SOL    HW119212   6.018   1.791   3.614 -0.1727 -1.2593 -0.8024
 5611SOL    HW219213   5.927   1.814   3.495 -0.2435  1.8162 -0.2585
 5612SOL     OW19214   7.053   8.637   4.023 -0.3298 -0.3585  0.3206
 5612SOL    HW119215   7.034   8.583   3.946 -1.4875  2.2082 -1.3500
 5612SOL    HW219216   6.967   8.661   4.057  0.1718 -0.7560  1.9676
 5613SOL     OW19217   0.221   8.102   3.677 -0.3531 -0.0925 -0.2329
 5613SOL    HW119218   0.258   8.039   3.740 -0.5766  0.5827  0.5940
 5613SOL    HW219219   0.297   8.148   3.642 -0.1611 -1.0248 -1.0800
 5614SOL     OW19220   3.081   7.228  10.624  0.3978 -0.8262 -0.5772
 5614SOL    HW119221   3.146   7.158  10.613 -0.4462 -1.4750 -1.6059
 5614SOL    HW219222   3.097   7.261  10.712  0.4358 -2.7233  0.1842
 5615SOL     OW19223   8.679   0.958   4.910  0.3027 -0.0134 -0.3301
 5615SOL    HW119224   8.742   0.966   4.838  0.9820 -0.2732  0.2312
 5615SOL    HW219225   8.606   0.909   4.872  0.7054 -0.2560 -0.8060
 5616SOL     OW19226   2.218   9.372  10.174  0.5629 -0.1730  0.0516
 5616SOL    HW119227   2.150   9.437  10.191  0.7399  0.6389 -1.9870
 5616SOL    HW219228   2.245   9.341  10.261 -0.3281  1.6483  1.0305
 5617SOL     OW19229   2.052   6.397  10.691  0.0712 -0.8893  0.3933
 5617SOL    HW119230   1.962   6.431  10.695  0.8313  1.2941  0.2109
 5617SOL    HW219231   2.086   6.411  10.779  0.9229  0.4243 -0.1176
 5618SOL     OW19232  10.180  10.334   4.912 -0.5356  0.2364 -0.2312
 5618SOL    HW119233  10.244  10.302   4.975 -0.8368 -0.7958 -0.4332
 5618SOL    HW219234  10.213  10.420   4.886  1.9898 -1.1132 -1.9521
 5619SOL     OW19235   6.367   3.802   6.022 -0.1176 -0.4677 -0.1559
 5619SOL    HW119236   6.289   3.850   5.994 -0.5597 -2.0977 -1.9838
 5619SOL    HW219237   6.436   3.832   5.963  0.4004  0.1540  0.7359
 5620SOL     OW19238   5.285   9.639   0.778  0.2802 -0.0528  0.4515
 5620SOL    HW119239   5.364   9.667   0.825  0.8339  1.5487 -1.2965
 5620SOL    HW219240   5.231   9.717   0.774 -1.6486 -1.2129  1.9329
 5621SOL     OW19241   1.578   9.037   9.090  0.0727  0.0569  0.1237
 5621SOL    HW119242   1.486   9.038   9.118 -0.0249 -1.7321 -0.0196
 5621SOL    HW219243   1.574   9.052   8.995 -0.1782 -1.1518 -0.0679
 5622SOL     OW19244   1.812   2.632   8.828 -0.4427 -0.5147  0.1050
 5622SOL    HW119245   1.830   2.651   8.920  0.6252 -2.2354  0.2987
 5622SOL    HW219246   1.868   2.693   8.780  4.9443 -4.2343  0.6965
 5623SOL     OW19247   2.234   7.053   7.323  0.1050 -0.1282 -0.1809
 5623SOL    HW119248   2.237   7.030   7.416 -0.6395  0.5949  0.0316
 5623SOL    HW219249   2.270   7.141   7.318 -0.2735  0.0101 -0.5164
 5624SOL     OW19250   1.784   5.878   0.143 -0.7831 -0.2332 -0.0008
 5624SOL    HW119251   1.706   5.924   0.173 -0.2609  0.6657  0.0235
 5624SOL    HW219252   1.752   5.811   0.083 -1.5112  0.5789 -0.5249
 5625SOL     OW19253   8.455   6.169   9.393  0.1365 -0.3781 -0.0970
 5625SOL    HW119254   8.434   6.186   9.485  2.8364 -0.6020  0.6250
 5625SOL    HW219255   8.371   6.178   9.348 -0.6973  3.3791  1.7920
 5626SOL     OW19256   7.257   2.137   2.691 -0.4329  0.0245  0.5368
 5626SOL    HW119257   7.221   2.115   2.606  0.5228 -2.3522  0.6635
 5626SOL    HW219258   7.349   2.109   2.686 -0.4607 -0.5415  2.4426
 5627SOL     OW19259   0.027   1.411  10.191  0.3368  0.0668 -0.1065
 5627SOL    HW119260   0.028   1.326  10.147 -1.7863  0.1427 -0.4185
 5627SOL    HW219261  -0.065   1.425  10.214  0.8641  1.6488  1.2028
 5628SOL     OW19262   8.364   6.347   3.071 -0.2258  0.0213  0.5432
 5628SOL    HW119263   8.398   6.314   2.988  2.5133  1.6288  0.8736
 5628SOL    HW219264   8.361   6.271   3.128  2.6005 -0.3624  0.3168
 5629SOL     OW19265   5.897   2.138  10.156 -0.0966 -0.5001  0.1517
 5629SOL    HW119266   5.929   2.204  10.218 -2.4351  0.4495  0.4721
 5629SOL    HW219267   5.922   2.172  10.070  0.8103 -0.4392  0.4266
 5630SOL     OW19268   3.117   1.235   3.581 -0.2842 -0.0219  0.4940
 5630SOL    HW119269   3.052   1.306   3.584  0.4205  0.7527 -1.2626
 5630SOL    HW219270   3.201   1.280   3.588  0.1270 -0.9710  2.1968
 5631SOL     OW19271   3.950   0.781   6.629  0.3355 -0.1370  0.8368
 5631SOL    HW119272   3.876   0.758   6.573  1.3601 -0.3878 -0.4515
 5631SOL    HW219273   3.910   0.802   6.713 -1.1268 -1.1355  0.4376
 5632SOL     OW19274   9.733   5.816   0.336 -0.8034 -0.2594 -0.1005
 5632SOL    HW119275   9.662   5.789   0.393 -1.6324  0.5435 -0.7304
 5632SOL    HW219276   9.792   5.865   0.392 -2.6798  2.4103 -0.2881
 5633SOL     OW19277   0.745   0.225   7.682 -0.2443  0.2462 -0.3237
 5633SOL    HW119278   0.688   0.149   7.697 -2.6229  1.4823 -2.2954
 5633SOL    HW219279   0.711   0.292   7.742 -0.4320  0.7839 -1.0225
 5634SOL     OW19280   5.272   7.380   1.131  0.0123  0.4117 -0.8424
 5634SOL    HW119281   5.302   7.419   1.049 -0.1845  0.9614 -0.6611
 5634SOL    HW219282   5.352   7.347   1.173 -0.0384 -1.0583 -1.8495
 5635SOL     OW19283   3.197   0.604   1.701 -0.5594  0.0041 -0.0330
 5635SOL    HW119284   3.136   0.570   1.635  0.3025 -0.2015 -0.7342
 5635SOL    HW219285   3.163   0.692   1.721 -0.8244  0.0862 -0.7746
 5636SOL     OW19286   3.819   3.481   4.341 -0.0086 -0.3766 -0.1472
 5636SOL    HW119287   3.777   3.414   4.395 -1.5361  0.5594 -0.1198
 5636SOL    HW219288   3.758   3.554   4.341  0.3212 -0.0257 -2.4817
 5637SOL     OW19289   4.673   1.250   1.636 -0.3670 -0.0289  0.7819
 5637SOL    HW119290   4.705   1.214   1.553 -0.7010 -1.2469  1.1496
 5637SOL    HW219291   4.736   1.219   1.702 -0.9201 -0.3479  1.1746
 5638SOL     OW19292   4.534   8.078   4.901  0.4496  0.2299  0.1137
 5638SOL    HW119293   4.557   7.986   4.910 -0.4059 -0.0831 -0.7286
 5638SOL    HW219294   4.572   8.120   4.979  2.7676 -0.4270 -0.5906
 5639SOL     OW19295  10.492   7.179   6.346 -0.0370 -0.1771  0.4305
 5639SOL    HW119296  10.439   7.099   6.339  0.6924 -0.8766  2.3174
 5639SOL    HW219297  10.582   7.148   6.356  0.5035  0.9550 -0.6608
 5640SOL     OW19298  10.473   1.411   9.504  0.1338  0.1149  0.3290
 5640SOL    HW119299  10.411   1.481   9.484  1.4550  1.1976 -0.1486
 5640SOL    HW219300  10.442   1.336   9.454 -0.4920  0.7888 -0.3184
 5641SOL     OW19301   8.676   5.024   7.785 -0.4718 -1.0292 -0.9578
 5641SOL    HW119302   8.689   4.949   7.727  0.5913 -2.2080  0.6862
 5641SOL    HW219303   8.588   5.012   7.821  0.3020 -2.5332  0.5924
 5642SOL     OW19304   7.634   7.280   0.936  0.3171 -0.7542  0.0594
 5642SOL    HW119305   7.596   7.325   1.011 -0.1450 -0.4558 -0.3421
 5642SOL    HW219306   7.655   7.193   0.968  0.6571 -0.4502  0.6846
 5643SOL     OW19307   5.219   7.103   9.492 -0.3184  0.4608  0.2252
 5643SOL    HW119308   5.204   7.088   9.586  0.5697  0.0045  0.3022
 5643SOL    HW219309   5.133   7.129   9.458 -0.7823  0.0525  1.0542
 5644SOL     OW19310   3.073   9.400   2.619 -0.2096  0.1182  0.0120
 5644SOL    HW119311   3.075   9.319   2.669 -0.1452 -0.5880 -1.0885
 5644SOL    HW219312   2.994   9.393   2.564 -0.3044  0.8826  0.0343
 5645SOL     OW19313   5.018   3.688   5.649  0.4150 -0.1400  0.3839
 5645SOL    HW119314   4.957   3.634   5.698  0.1947  1.4695  1.9820
 5645SOL    HW219315   4.968   3.767   5.628  1.2318  0.1820 -0.3979
 5646SOL     OW19316   8.247  10.567   7.171  0.6249  0.3673  0.1855
 5646SOL    HW119317   8.183  10.638   7.181  1.6898  1.4050 -0.0818
 5646SOL    HW219318   8.275  10.572   7.080 -0.3348 -1.3683 -0.2495
 5647SOL     OW19319   2.656   8.382   8.195  0.2266  0.5618 -0.1319
 5647SOL    HW119320   2.655   8.342   8.282  0.1316 -0.5321 -0.6196
 5647SOL    HW219321   2.671   8.309   8.135  3.0650  1.6126 -0.8763
 5648SOL     OW19322   5.513   9.871   9.025 -0.7261 -0.4410 -0.1752
 5648SOL    HW119323   5.605   9.881   9.001 -0.9516 -0.7048 -1.1914
 5648SOL    HW219324   5.512   9.874   9.121  0.6685 -2.9312 -0.0089
 5649SOL     OW19325   2.687   5.529   2.840 -0.7832 -0.0421 -0.2712
 5649SOL    HW119326   2.766   5.488   2.805  0.5453  1.9408  0.2420
 5649SOL    HW219327   2.630   5.456   2.862  0.9751 -1.5551 -0.4801
 5650SOL     OW19328   8.220   2.560   7.506  0.0957 -0.2781  0.1145
 5650SOL    HW119329   8.205   2.468   7.483 -0.6364 -0.8901  2.7706
 5650SOL    HW219330   8.315   2.572   7.495  0.2233 -1.3940 -0.1166
 5651SOL     OW19331   8.858   7.226   9.252  0.2280  0.1079 -0.4475
 5651SOL    HW119332   8.929   7.236   9.315  0.8863 -0.1690 -1.1354
 5651SOL    HW219333   8.781   7.262   9.297  0.7517  0.2153  0.3822
 5652SOL     OW19334   2.128   7.545   3.100 -0.0023 -0.3705  0.0715
 5652SOL    HW119335   2.123   7.450   3.097 -1.0102 -0.3107 -1.0964
 5652SOL    HW219336   2.157   7.565   3.189  1.0079 -1.7787  0.0921
 5653SOL     OW19337   7.592   3.470   8.648 -0.5869 -0.1501 -0.2556
 5653SOL    HW119338   7.533   3.514   8.710 -0.3291  0.5498 -0.4945
 5653SOL    HW219339   7.651   3.540   8.617  1.2619 -1.0801  0.9947
 5654SOL     OW19340   2.705   8.951   4.634 -0.3053  0.3869 -0.1280
 5654SOL    HW119341   2.735   8.916   4.718  0.2446  1.1693  0.0131
 5654SOL    HW219342   2.752   8.900   4.569 -2.0055 -1.4078 -0.0464
 5655SOL     OW19343   0.170   6.383   1.527 -0.3512 -0.2231 -0.0102
 5655SOL    HW119344   0.122   6.307   1.560 -2.3096  0.3992 -1.2123
 5655SOL    HW219345   0.139   6.393   1.436  0.8130  1.2543 -0.2852
 5656SOL     OW19346   1.898   4.965   9.770 -0.0562 -0.2040  0.0036
 5656SOL    HW119347   1.931   5.053   9.752 -0.7727  0.2202  0.7335
 5656SOL    HW219348   1.968   4.907   9.740 -0.2266  0.5390 -1.9931
 5657SOL     OW19349   0.392   0.749   7.035 -0.3866 -0.1170  0.5576
 5657SOL    HW119350   0.342   0.827   7.011  1.3806  0.5920 -1.0973
 5657SOL    HW219351   0.455   0.779   7.100 -0.3559 -0.4016  0.6607
 5658SOL     OW19352   1.896   4.076   9.834  0.2434  0.3175  0.1344
 5658SOL    HW119353   1.802   4.087   9.816  0.1136  1.6047  1.4288
 5658SOL    HW219354   1.899   4.039   9.922  0.9637  0.1760  0.0506
 5659SOL     OW19355   5.297   1.923   9.289 -0.2434  0.1506  0.4858
 5659SOL    HW119356   5.240   1.978   9.234  1.2114  0.7480 -0.4900
 5659SOL    HW219357   5.237   1.879   9.349 -1.5708  2.0132  0.6136
 5660SOL     OW19358   3.283   8.040   6.413 -0.0797 -0.1111  0.3667
 5660SOL    HW119359   3.267   8.113   6.473  0.1559 -0.3659  0.7401
 5660SOL    HW219360   3.211   7.980   6.429  0.8394 -0.9271  1.5410
 5661SOL     OW19361   7.412   4.899   5.386  0.2679 -0.3322  0.0574
 5661SOL    HW119362   7.443   4.947   5.463 -0.3019  1.4346 -0.7562
 5661SOL    HW219363   7.321   4.876   5.408  0.3180 -0.4150  0.1787
 5662SOL     OW19364   7.944   0.004   3.777  0.4854 -0.0685 -0.0669
 5662SOL    HW119365   7.895  -0.061   3.726 -0.0182  0.4664 -0.2726
 5662SOL    HW219366   8.036  -0.018   3.761  0.3258 -1.1827  0.4535
 5663SOL     OW19367   2.389   4.602   1.802  0.1164 -0.1716  0.0729
 5663SOL    HW119368   2.346   4.683   1.829  0.1465 -0.3895  0.8162
 5663SOL    HW219369   2.481   4.615   1.828  0.0812 -0.5150  0.3860
 5664SOL     OW19370   7.545   1.601   9.461  0.0425 -0.5191  0.1220
 5664SOL    HW119371   7.518   1.671   9.521 -2.0314 -0.7321 -0.4641
 5664SOL    HW219372   7.640   1.607   9.457  0.0540  0.9436  1.6681
 5665SOL     OW19373   2.743   7.255   2.850 -0.1449 -0.0372  0.2732
 5665SOL    HW119374   2.719   7.274   2.941  1.8664  1.2766  0.5938
 5665SOL    HW219375   2.660   7.233   2.808 -1.6739  2.4847  1.6766
 5666SOL     OW19376   4.042   9.374   4.885  0.4835  0.1884 -0.0234
 5666SOL    HW119377   3.949   9.364   4.903  0.5944  0.6893  0.9087
 5666SOL    HW219378   4.085   9.324   4.955  0.9234  1.2852  0.5231
 5667SOL     OW19379   4.567   3.248   9.362  0.0945  0.4874  0.1341
 5667SOL    HW119380   4.507   3.282   9.428 -2.2159 -1.7030 -0.6720
 5667SOL    HW219381   4.519   3.176   9.320  3.9783 -2.8780  0.7606
 5668SOL     OW19382  10.596   7.147   0.299  0.5265 -0.0556  0.2084
 5668SOL    HW119383  10.645   7.079   0.346 -0.8956 -1.4082 -0.2005
 5668SOL    HW219384  10.546   7.192   0.367 -2.4772 -2.7940  0.0266
 5669SOL     OW19385   6.037   8.195   0.391  0.2958  0.1784  0.4285
 5669SOL    HW119386   5.944   8.182   0.410  0.5982 -1.3440  1.0622
 5669SOL    HW219387   6.078   8.111   0.415  1.7650  0.6670 -0.2566
 5670SOL     OW19388   3.768   5.224   7.067  0.0937  1.0940 -0.7209
 5670SOL    HW119389   3.850   5.248   7.110  0.8295 -0.8611 -0.9181
 5670SOL    HW219390   3.744   5.301   7.016  0.9554  2.2632  0.5653
 5671SOL     OW19391   5.480   7.292   6.570 -0.3663  0.1825  0.8115
 5671SOL    HW119392   5.525   7.332   6.496  0.3389  1.0356  1.6753
 5671SOL    HW219393   5.546   7.236   6.611 -0.9362 -0.7795  0.4415
 5672SOL     OW19394   8.408   0.306   3.736  0.4316 -0.0048  0.7021
 5672SOL    HW119395   8.482   0.290   3.794  0.9776  0.6838  0.2146
 5672SOL    HW219396   8.419   0.397   3.707  0.4910 -0.4868 -0.8917
 5673SOL     OW19397   2.644   0.011   7.425 -0.2574  0.5455  0.6788
 5673SOL    HW119398   2.644   0.056   7.340 -0.7786  1.1154  0.9745
 5673SOL    HW219399   2.552   0.006   7.449 -0.3597 -1.9323  0.0299
 5674SOL     OW19400   3.376   6.718   6.605 -0.2454 -0.3822  0.3211
 5674SOL    HW119401   3.353   6.639   6.654  0.2168 -0.6244  0.1481
 5674SOL    HW219402   3.330   6.788   6.651 -0.5681 -0.7325  0.5443
 5675SOL     OW19403   3.905   1.803   4.931 -0.3521 -0.0519  0.2477
 5675SOL    HW119404   3.853   1.834   5.005 -2.3869 -0.2402 -1.0151
 5675SOL    HW219405   3.981   1.761   4.971 -0.8336  0.8000  2.1763
 5676SOL     OW19406   1.840   6.186   6.398  0.3310 -0.0244 -0.2440
 5676SOL    HW119407   1.846   6.271   6.353  0.6340 -0.4808 -1.0806
 5676SOL    HW219408   1.905   6.192   6.468 -1.8086  1.6144  1.7509
 5677SOL     OW19409   2.276   8.011   4.073  0.1265  0.1426 -0.1071
 5677SOL    HW119410   2.271   8.022   4.168  1.3116  0.3754 -0.0629
 5677SOL    HW219411   2.195   8.051   4.041  0.4755  1.5427  0.6852
 5678SOL     OW19412   1.308   4.041   6.698 -0.1093  0.0879 -0.5094
 5678SOL    HW119413   1.322   3.963   6.645 -2.9518  0.0556 -1.3514
 5678SOL    HW219414   1.216   4.063   6.686  0.1609  2.5645  1.1147
 5679SOL     OW19415   7.888   4.586   1.887  0.4043 -0.1273  0.1886
 5679SOL    HW119416   7.866   4.537   1.808  0.9756 -1.1655  0.6535
 5679SOL    HW219417   7.815   4.570   1.946  0.1562  0.3394  0.0096
 5680SOL     OW19418   9.195   6.867   4.916 -0.6790 -0.2212  0.5619
 5680SOL    HW119419   9.114   6.840   4.872  0.8914 -1.2612 -1.9009
 5680SOL    HW219420   9.224   6.944   4.866  0.4667 -0.6060  0.6211
 5681SOL     OW19421   6.460   8.145   4.425 -0.4430 -0.2164  0.3005
 5681SOL    HW119422   6.481   8.097   4.505  0.8838  1.1416  0.8105
 5681SOL    HW219423   6.425   8.228   4.455  0.5626  0.5172 -0.5085
 5682SOL     OW19424   3.534   9.966   5.652  0.1567 -0.5429  0.5168
 5682SOL    HW119425   3.468   9.982   5.584 -0.7762 -1.5516  1.1655
 5682SOL    HW219426   3.571  10.053   5.668 -0.6196 -0.0386 -0.2508
 5683SOL     OW19427   1.522  10.719   7.540  0.0936  0.6485  0.2224
 5683SOL    HW119428   1.574  10.783   7.492  0.5333  0.1033 -0.0433
 5683SOL    HW219429   1.527  10.747   7.631  0.8434  0.6154  0.1957
 5684SOL     OW19430   8.878  10.427   0.030 -0.0508  0.2531  0.2574
 5684SOL    HW119431   8.813  10.398   0.094 -0.3458 -0.6227 -0.4046
 5684SOL    HW219432   8.827  10.474  -0.036  0.0559  0.0295  0.0129
 5685SOL     OW19433   8.207   8.863   2.354  0.3726  0.1263 -0.1448
 5685SOL    HW119434   8.125   8.887   2.398  0.1908  0.7739 -0.8251
 5685SOL    HW219435   8.275   8.878   2.420  0.2206  2.1021 -0.3654
 5686SOL     OW19436   3.621   4.408  10.215  0.5925  0.6198 -0.1323
 5686SOL    HW119437   3.685   4.342  10.188 -1.1700 -1.3871  0.2982
 5686SOL    HW219438   3.564   4.362  10.277 -1.5246  2.1280 -0.8238
 5687SOL     OW19439   3.984   2.295   0.206 -0.2258  0.5578  0.7943
 5687SOL    HW119440   3.920   2.258   0.145 -0.0574  2.4129 -0.6146
 5687SOL    HW219441   4.059   2.236   0.200 -0.7052 -0.0083  0.1722
 5688SOL     OW19442   5.742   6.214   9.562 -0.1721 -0.1766  0.6155
 5688SOL    HW119443   5.741   6.122   9.535 -1.1413 -0.0016  0.0043
 5688SOL    HW219444   5.783   6.260   9.489 -0.5691 -0.0118  0.4912
 5689SOL     OW19445   4.005  10.335   2.311  0.5953  0.3029 -0.2176
 5689SOL    HW119446   4.054  10.268   2.357 -0.5262  1.3361  2.7674
 5689SOL    HW219447   3.938  10.287   2.262  0.2379 -0.8110  1.3018
 5690SOL     OW19448   1.677   1.022   7.952 -0.3069 -0.3049  0.1657
 5690SOL    HW119449   1.703   1.103   7.997 -1.0241  0.7483 -1.2288
 5690SOL    HW219450   1.753   0.965   7.958  0.5445  0.8260  0.3808
 5691SOL     OW19451   4.373   2.795   9.085 -0.2246 -0.3041 -0.4904
 5691SOL    HW119452   4.442   2.849   9.046  0.8427 -0.6057  0.9004
 5691SOL    HW219453   4.416   2.711   9.102 -1.1182 -0.7012 -0.1731
 5692SOL     OW19454   2.465   2.095   4.216  0.6373  0.8678 -0.0529
 5692SOL    HW119455   2.458   2.093   4.311  0.6345  0.4920 -0.0621
 5692SOL    HW219456   2.553   2.129   4.199  0.9789  0.0503  0.0876
 5693SOL     OW19457   0.263   2.205   0.867 -0.6153  0.7647  0.6097
 5693SOL    HW119458   0.302   2.265   0.931  0.5409  1.3893 -0.6302
 5693SOL    HW219459   0.251   2.258   0.789 -0.4496 -0.3831 -0.2216
 5694SOL     OW19460   6.552   0.034   8.587  0.1630 -0.4945 -0.2452
 5694SOL    HW119461   6.615   0.010   8.654 -0.3276 -0.2007  0.3258
 5694SOL    HW219462   6.605   0.055   8.510  0.9529  2.2551  0.9428
 5695SOL     OW19463   2.323   9.638   8.212 -0.3921 -0.5493 -0.3902
 5695SOL    HW119464   2.387   9.702   8.242 -1.0241  0.4557 -1.1367
 5695SOL    HW219465   2.311   9.580   8.287 -2.8020  2.5594  1.9484
 5696SOL     OW19466   1.358   8.738   9.183 -0.2959  0.3599 -0.1054
 5696SOL    HW119467   1.344   8.832   9.187  0.7126  0.7343 -3.0403
 5696SOL    HW219468   1.421   8.725   9.112  1.6804 -2.3759  1.9004
 5697SOL     OW19469   4.503  10.666   0.912  0.3001  0.4399 -0.1882
 5697SOL    HW119470   4.422  10.718   0.914  0.9369  1.4155  0.8128
 5697SOL    HW219471   4.559  10.710   0.849 -0.3489 -0.9098 -1.7838
 5698SOL     OW19472   0.569   7.428   6.395 -0.2510  0.4850 -0.2803
 5698SOL    HW119473   0.555   7.357   6.332 -0.1445 -0.4820  0.7714
 5698SOL    HW219474   0.657   7.413   6.429 -0.9970 -0.0985  1.4563
 5699SOL     OW19475   1.322   8.465   0.384 -0.1666  0.2957 -0.0932
 5699SOL    HW119476   1.346   8.443   0.474  0.7710 -0.0780 -0.4183
 5699SOL    HW219477   1.257   8.400   0.359 -0.0860  0.1142  0.1627
 5700SOL     OW19478   6.601   6.679   3.781 -0.0094  0.0212  0.0664
 5700SOL    HW119479   6.555   6.762   3.794 -0.8932 -0.2657 -1.0611
 5700SOL    HW219480   6.628   6.652   3.868 -0.1758  1.2369  0.5035
 5701SOL     OW19481   6.607   5.867   8.098  0.5228  0.1091  0.1473
 5701SOL    HW119482   6.639   5.809   8.167  0.4925  0.7024  0.6751
 5701SOL    HW219483   6.532   5.821   8.061  1.6948 -1.1006 -0.8132
 5702SOL     OW19484   0.790   2.456   7.595 -0.2276 -0.0446 -0.5100
 5702SOL    HW119485   0.697   2.435   7.592 -0.2709  0.2492 -1.6095
 5702SOL    HW219486   0.820   2.445   7.505  0.5588  0.9462 -0.3856
 5703SOL     OW19487   0.893   8.276   8.233  0.0147  0.8847  0.1450
 5703SOL    HW119488   0.983   8.265   8.204 -0.0702  1.7324 -0.4827
 5703SOL    HW219489   0.893   8.249   8.324  0.9526  1.0813  0.2058
 5704SOL     OW19490   6.520   2.734   4.049  0.4109  1.0099 -0.5782
 5704SOL    HW119491   6.429   2.742   4.079  0.5016 -0.3566  0.1675
 5704SOL    HW219492   6.512   2.711   3.956 -0.0358  0.6438 -0.4571
 5705SOL     OW19493   9.149   0.053   9.516 -1.0447 -0.2314  0.0680
 5705SOL    HW119494   9.172  -0.037   9.539 -0.2688  0.3031  1.4778
 5705SOL    HW219495   9.076   0.044   9.455 -0.1829 -1.8445 -0.7920
 5706SOL     OW19496   8.442  10.173  10.085  0.2948 -0.4266  0.3552
 5706SOL    HW119497   8.413  10.265  10.088  0.5294 -0.2824 -1.2210
 5706SOL    HW219498   8.531  10.177  10.049  0.5092 -1.2432  0.7742
 5707SOL     OW19499   6.173   8.156   3.847  0.6120  0.0453  0.0400
 5707SOL    HW119500   6.084   8.183   3.870 -0.4908 -0.5135 -3.0870
 5707SOL    HW219501   6.228   8.229   3.874 -1.3206  2.2106 -1.4901
 5708SOL     OW19502   9.654   9.049   9.095 -0.1757 -0.5081  0.0253
 5708SOL    HW119503   9.678   9.066   9.186  1.3545 -2.1084 -0.0197
 5708SOL    HW219504   9.640   9.136   9.057  3.5838  0.5500  0.6710
 5709SOL     OW19505   5.470   7.980   1.296  0.0697 -0.1741  0.3592
 5709SOL    HW119506   5.524   8.032   1.356  0.6620 -0.2286 -0.1089
 5709SOL    HW219507   5.402   7.943   1.351 -2.1516  3.3693  0.2874
 5710SOL     OW19508   8.284   3.552   5.082 -0.0438  0.0694  0.3335
 5710SOL    HW119509   8.297   3.559   4.988  0.7372 -0.6218  0.3686
 5710SOL    HW219510   8.193   3.525   5.092  0.1372 -0.8551 -0.2934
 5711SOL     OW19511   3.308   7.589   1.604  0.2514  0.5278  0.0800
 5711SOL    HW119512   3.237   7.646   1.577  1.6001  2.4085  0.2676
 5711SOL    HW219513   3.268   7.502   1.614 -1.7390  1.2869 -0.8588
 5712SOL     OW19514   3.165   7.590   5.720  0.2058  0.1231 -0.7583
 5712SOL    HW119515   3.127   7.589   5.808  0.4303  1.7600 -0.6218
 5712SOL    HW219516   3.137   7.507   5.681 -0.8332 -0.1233  0.4579
 5713SOL     OW19517   6.617   1.508   7.236 -0.1759  0.5531  0.0297
 5713SOL    HW119518   6.531   1.470   7.224  0.2957 -0.2099 -1.1065
 5713SOL    HW219519   6.611   1.557   7.318 -1.3486 -0.4180  0.5517
 5714SOL     OW19520   1.873   5.738   7.834  0.3021  0.1170  0.4717
 5714SOL    HW119521   1.963   5.770   7.827  0.1228  0.8218  1.3018
 5714SOL    HW219522   1.877   5.649   7.800  1.4928 -0.1686  1.3109
 5715SOL     OW19523   1.800   5.932   2.987 -0.4695  0.1116 -0.4868
 5715SOL    HW119524   1.789   5.905   2.896  0.0382 -0.8166 -0.2743
 5715SOL    HW219525   1.895   5.935   3.000 -0.4786  1.9687 -0.4792
 5716SOL     OW19526   5.767   3.574   2.047  0.0744 -0.2255  0.2602
 5716SOL    HW119527   5.775   3.585   1.952 -0.5602 -0.2957  0.1914
 5716SOL    HW219528   5.681   3.610   2.068 -0.6884 -2.0812  0.5027
 5717SOL     OW19529   6.479   7.735  10.118  0.0606 -0.6591  0.1882
 5717SOL    HW119530   6.422   7.730  10.195  3.2581 -0.5071  2.7857
 5717SOL    HW219531   6.469   7.825  10.087  0.3323 -0.0326  1.8235
 5718SOL     OW19532   9.615   8.212   8.891 -0.8081 -0.2305  0.2150
 5718SOL    HW119533   9.700   8.212   8.934 -0.3202 -0.5550 -0.7068
 5718SOL    HW219534   9.587   8.120   8.893  1.2463 -1.2038 -3.8716
 5719SOL     OW19535   2.653   9.504  10.586  0.0013  0.3220 -0.6240
 5719SOL    HW119536   2.729   9.507  10.529 -0.5467 -0.5736 -1.4321
 5719SOL    HW219537   2.582   9.471  10.531 -1.1294  1.6753 -0.0470
 5720SOL     OW19538   5.156   7.038   4.261 -0.0258 -0.0189 -0.1650
 5720SOL    HW119539   5.113   7.025   4.177 -2.3388  1.4627  0.6669
 5720SOL    HW219540   5.226   7.101   4.243  1.7838 -2.2470 -1.4968
 5721SOL     OW19541   5.377   2.651   3.028  0.5445 -0.0269  0.5794
 5721SOL    HW119542   5.464   2.632   2.994  0.6928  1.8581 -0.2272
 5721SOL    HW219543   5.330   2.688   2.953 -1.0346 -1.2196  0.9502
 5722SOL     OW19544  10.330   2.819   2.557  0.0460 -0.0151 -0.1427
 5722SOL    HW119545  10.300   2.836   2.468 -1.6068  0.8488  0.5445
 5722SOL    HW219546  10.260   2.851   2.613  0.9119 -0.8215  1.4830
 5723SOL     OW19547   0.097   9.509   9.932  0.0918  0.5433 -0.2471
 5723SOL    HW119548   0.080   9.418   9.908  1.5316 -0.0602  0.8940
 5723SOL    HW219549   0.017   9.556   9.906 -0.5464 -0.9684 -1.1499
 5724SOL     OW19550   6.476   3.852   8.941 -0.0519 -0.1818  0.1669
 5724SOL    HW119551   6.459   3.838   8.848 -0.6208 -0.3880  0.2936
 5724SOL    HW219552   6.496   3.766   8.976 -0.8304 -0.2754  0.4177
 5725SOL     OW19553   1.553   6.688   0.621 -0.0736  0.2001 -0.6205
 5725SOL    HW119554   1.559   6.693   0.716  0.9612  0.7814 -0.6992
 5725SOL    HW219555   1.492   6.616   0.604 -1.8584  1.4051  0.4775
 5726SOL     OW19556   2.991   4.053   0.068  0.0643  0.2341 -0.2276
 5726SOL    HW119557   3.002   4.136   0.116 -5.3129  2.1132 -1.5793
 5726SOL    HW219558   2.958   3.992   0.134  1.2368 -0.0354  0.1472
 5727SOL     OW19559   6.681   0.586   7.779 -0.0160  0.2808  0.2790
 5727SOL    HW119560   6.656   0.657   7.838  0.0124  0.8686 -0.4002
 5727SOL    HW219561   6.624   0.513   7.803 -0.2348  0.6176  0.7999
 5728SOL     OW19562   1.057   5.233   4.043  0.4999 -0.8644 -0.0215
 5728SOL    HW119563   1.060   5.256   3.950 -0.1480 -0.8997 -0.0574
 5728SOL    HW219564   1.116   5.158   4.051  0.8835 -0.5974 -0.3244
 5729SOL     OW19565   2.665   6.060  10.357  0.4260  0.1445 -0.0131
 5729SOL    HW119566   2.699   5.974  10.383 -0.1345  0.6846  2.7473
 5729SOL    HW219567   2.578   6.064  10.397 -0.3459  1.2823 -1.7000
 5730SOL     OW19568  10.267   5.618   7.165 -0.7003 -0.6759 -0.2521
 5730SOL    HW119569  10.261   5.636   7.259  0.8480  0.2823 -0.3082
 5730SOL    HW219570  10.278   5.523   7.160  0.4656 -0.6056  0.6158
 5731SOL     OW19571   9.592   2.733   4.222 -0.0311 -0.3989 -0.1466
 5731SOL    HW119572   9.499   2.756   4.221 -0.1990 -1.0586 -0.1794
 5731SOL    HW219573   9.601   2.665   4.155  0.4934 -0.2718 -0.2083
 5732SOL     OW19574   5.579   3.549   0.092  0.2268  0.2940 -0.5460
 5732SOL    HW119575   5.634   3.584   0.022  2.5331 -1.5127  0.2367
 5732SOL    HW219576   5.617   3.464   0.112  0.3867  1.1379  3.5996
 5733SOL     OW19577   2.950   3.213   4.200  0.3290 -0.3143  0.5246
 5733SOL    HW119578   2.887   3.283   4.182  1.0117  0.1050 -0.2818
 5733SOL    HW219579   2.975   3.227   4.292  0.2810  0.3568  0.4412
 5734SOL     OW19580   8.502   0.860   5.376  0.5620 -0.0849 -0.4659
 5734SOL    HW119581   8.437   0.862   5.447 -0.7284  0.1597 -1.6153
 5734SOL    HW219582   8.497   0.946   5.336  0.1443 -0.6972 -1.8134
 5735SOL     OW19583   5.890   9.070   1.061  0.2388 -0.1364 -0.6884
 5735SOL    HW119584   5.848   9.044   1.142 -0.7165 -0.4757 -1.2785
 5735SOL    HW219585   5.887   8.992   1.006 -0.0117  0.3715 -1.4102
 5736SOL     OW19586   1.432   7.994   2.848  0.1492  0.1123 -0.3749
 5736SOL    HW119587   1.508   7.948   2.812 -0.1658 -0.1898 -0.6604
 5736SOL    HW219588   1.425   7.963   2.938  0.2689  0.0226 -0.3968
 5737SOL     OW19589   8.195   5.631   7.903  0.0941  0.4944  0.2563
 5737SOL    HW119590   8.192   5.693   7.830 -1.9031  0.9123  0.6171
 5737SOL    HW219591   8.174   5.546   7.864 -1.0983  0.7373  0.3063
 5738SOL     OW19592  10.433   0.384  10.094 -0.4097 -0.6062 -0.0025
 5738SOL    HW119593  10.472   0.301  10.122 -0.1993 -0.2383  0.8285
 5738SOL    HW219594  10.451   0.444  10.166 -1.7150 -0.1770 -0.0097
 5739SOL     OW19595   1.490   0.887   7.810 -0.3902  0.4669  0.0478
 5739SOL    HW119596   1.560   0.931   7.859  1.7433 -4.9711  2.6240
 5739SOL    HW219597   1.411   0.904   7.862 -0.0837  2.4019 -0.0119
 5740SOL     OW19598   1.868   8.704   6.808 -0.3612 -0.1134  0.7762
 5740SOL    HW119599   1.780   8.726   6.838 -0.0291  0.0223  1.6676
 5740SOL    HW219600   1.926   8.740   6.874  0.4171  0.5633 -0.2491
 5741SOL     OW19601   2.815   9.692   7.365 -0.1358 -0.3565 -0.1381
 5741SOL    HW119602   2.722   9.667   7.362  0.3273 -2.0784 -1.2605
 5741SOL    HW219603   2.859   9.628   7.309  2.0148 -0.7385  1.8671
 5742SOL     OW19604   1.106  10.134   7.265  0.5478 -0.1805  0.0469
 5742SOL    HW119605   1.052  10.169   7.335  1.0657  0.6759  0.0307
 5742SOL    HW219606   1.140  10.051   7.299  0.6494  0.1395  0.7430
 5743SOL     OW19607   1.204   4.250   3.346 -0.0353  0.9179 -0.2432
 5743SOL    HW119608   1.276   4.299   3.306  0.5989  0.6042  0.4941
 5743SOL    HW219609   1.242   4.209   3.423 -0.1097 -2.0560 -1.6505
 5744SOL     OW19610   2.135   5.586   6.407 -0.6107  0.0896  0.0859
 5744SOL    HW119611   2.043   5.559   6.413 -0.7256  0.1437 -1.2267
 5744SOL    HW219612   2.133   5.681   6.415 -0.6507  0.0746  0.2526
 5745SOL     OW19613   4.481   4.986   1.588  0.0834  0.2581  0.1474
 5745SOL    HW119614   4.466   5.012   1.679 -0.9749 -0.2897  0.1452
 5745SOL    HW219615   4.464   4.891   1.588  0.5526  0.1720 -0.5280
 5746SOL     OW19616   3.245   5.415   0.871  0.3619  0.4716 -0.1845
 5746SOL    HW119617   3.290   5.367   0.800  0.9612 -0.9520  1.0929
 5746SOL    HW219618   3.301   5.491   0.887  1.6856 -0.6050  0.5201
 5747SOL     OW19619   1.506   1.079   5.865  0.4073 -0.1243 -0.1012
 5747SOL    HW119620   1.518   1.173   5.878 -2.6960  0.4110 -0.4039
 5747SOL    HW219621   1.517   1.041   5.952 -0.7261  0.8846  0.5195
 5748SOL     OW19622   1.145   7.030   2.566  0.4065 -0.2736 -0.0201
 5748SOL    HW119623   1.082   7.102   2.562  0.9478  0.1483 -2.3487
 5748SOL    HW219624   1.230   7.073   2.558  0.7103 -1.1493 -2.2379
 5749SOL     OW19625   1.565   7.634   7.712 -0.1606 -0.1364 -0.0133
 5749SOL    HW119626   1.509   7.709   7.729  0.1228 -0.0880  0.7710
 5749SOL    HW219627   1.603   7.651   7.626 -1.1910 -0.0825 -0.4682
 5750SOL     OW19628   3.290   1.712   7.120  0.2535  0.3282  0.8231
 5750SOL    HW119629   3.222   1.658   7.160 -1.0858  0.9129 -0.5448
 5750SOL    HW219630   3.242   1.787   7.084  1.7834  1.3033  0.7446
 5751SOL     OW19631   9.391   7.126   3.471  0.0598  0.0831  0.2682
 5751SOL    HW119632   9.321   7.116   3.536 -0.3096 -1.3777 -0.3070
 5751SOL    HW219633   9.430   7.039   3.464  1.0303  0.5542 -0.4418
 5752SOL     OW19634  10.548   9.783   5.509 -0.0843  0.0501  0.6466
 5752SOL    HW119635  10.476   9.832   5.549 -1.1401 -1.0377  0.1677
 5752SOL    HW219636  10.621   9.793   5.569 -1.0553  0.0432  1.8577
 5753SOL     OW19637   3.843   5.325   9.446  0.4294 -0.4864 -0.3981
 5753SOL    HW119638   3.826   5.243   9.491  0.1435  1.0223  2.4445
 5753SOL    HW219639   3.758   5.348   9.407 -0.1248 -0.3835  0.8400
 5754SOL     OW19640   3.719   1.441   1.526  0.4398  0.2667 -0.1798
 5754SOL    HW119641   3.710   1.521   1.579 -0.2377 -0.5861  1.0359
 5754SOL    HW219642   3.712   1.370   1.589 -1.6467 -0.8422 -1.5658
 5755SOL     OW19643   0.607   3.197   8.955 -0.5028 -0.5772  0.1512
 5755SOL    HW119644   0.522   3.209   8.999 -0.4577 -2.1532  0.7051
 5755SOL    HW219645   0.613   3.103   8.940  1.3233 -0.5262  0.4358
 5756SOL     OW19646   8.623   9.416   1.111  0.1956 -0.1272  0.0395
 5756SOL    HW119647   8.647   9.490   1.055  0.1909 -1.5096 -1.8819
 5756SOL    HW219648   8.701   9.400   1.164 -0.1247  1.8031  1.1663
 5757SOL     OW19649   5.602   9.457   0.251  0.2031 -0.7430 -0.0589
 5757SOL    HW119650   5.566   9.492   0.169  1.4162 -0.1359 -0.3544
 5757SOL    HW219651   5.527   9.451   0.310 -0.5332 -0.3587 -0.9314
 5758SOL     OW19652   9.204   6.880   1.709 -0.2113 -0.5288  0.3758
 5758SOL    HW119653   9.118   6.923   1.707 -0.2817 -0.6710  0.2282
 5758SOL    HW219654   9.234   6.884   1.619 -1.3255 -2.9674 -0.2005
 5759SOL     OW19655   5.511   1.097   5.622  0.7290  0.2380  0.6532
 5759SOL    HW119656   5.484   1.184   5.590 -0.8547 -0.6954 -0.7101
 5759SOL    HW219657   5.594   1.113   5.667 -0.1239  2.6653  1.5363
 5760SOL     OW19658   0.841   2.158   5.081 -0.3901  0.2552  0.2642
 5760SOL    HW119659   0.912   2.204   5.126  1.4268 -1.6090 -0.5159
 5760SOL    HW219660   0.882   2.124   5.001 -2.4215 -0.1400 -0.6640
 5761SOL     OW19661  10.749   9.737   7.240  0.0444  0.4490 -0.4208
 5761SOL    HW119662  10.795   9.754   7.159 -0.4598  2.9206 -0.2463
 5761SOL    HW219663  10.794   9.790   7.306 -0.5242 -0.2957  0.6149
 5762SOL     OW19664   9.326   1.714   3.374  0.0297  0.7038  0.2321
 5762SOL    HW119665   9.300   1.804   3.391 -2.2047 -0.1328  1.6748
 5762SOL    HW219666   9.410   1.704   3.419 -0.1461  1.8079  0.8343
 5763SOL     OW19667  10.449   3.580   7.634  0.1784 -0.0347  0.2371
 5763SOL    HW119668  10.406   3.597   7.549 -1.1074  0.5773  0.9734
 5763SOL    HW219669  10.430   3.488   7.652 -3.1490  0.7770  1.7023
 5764SOL     OW19670   2.658   0.020   8.407 -0.2569 -0.1259 -0.5182
 5764SOL    HW119671   2.644   0.075   8.484  1.0735 -1.6140  0.8655
 5764SOL    HW219672   2.703   0.077   8.345 -2.2072  1.3891 -0.6474
 5765SOL     OW19673   8.368   8.518   3.460  0.1315  0.3502  0.0358
 5765SOL    HW119674   8.369   8.461   3.382  1.0760 -0.3582  0.5499
 5765SOL    HW219675   8.459   8.539   3.476 -0.0923  0.8274  0.7171
 5766SOL     OW19676   3.820   5.812   1.595 -0.0819  0.1122  0.3309
 5766SOL    HW119677   3.889   5.783   1.536 -0.0371  1.3302 -0.2599
 5766SOL    HW219678   3.788   5.893   1.556 -0.5128  0.6021  1.6365
 5767SOL     OW19679   5.326   6.368   7.772  0.5503 -0.2535  0.0739
 5767SOL    HW119680   5.323   6.300   7.705 -0.5210 -0.1983  0.0570
 5767SOL    HW219681   5.267   6.338   7.840  1.4614 -0.2016  0.9100
 5768SOL     OW19682   4.957   6.468   2.219 -0.2452  0.3576 -0.2472
 5768SOL    HW119683   4.897   6.483   2.293 -1.4455  0.3382 -1.1857
 5768SOL    HW219684   4.923   6.389   2.177  0.3744  0.4133 -0.8667
 5769SOL     OW19685   5.806   8.839   5.339  0.0530 -0.0818  0.3191
 5769SOL    HW119686   5.883   8.881   5.377 -0.1475  0.6709 -0.0838
 5769SOL    HW219687   5.806   8.751   5.376  2.0623 -0.6929 -0.9810
 5770SOL     OW19688   9.736   6.480  10.113  0.2482 -0.2410  0.4233
 5770SOL    HW119689   9.811   6.490  10.172 -0.5884 -1.7321  1.8154
 5770SOL    HW219690   9.761   6.529  10.035  2.9439 -1.1513  0.5822
 5771SOL     OW19691   5.697   0.512   4.477  0.4336  0.6488  0.3589
 5771SOL    HW119692   5.732   0.463   4.403 -2.0806 -0.7832 -0.0095
 5771SOL    HW219693   5.648   0.584   4.437 -0.2397  0.3505  0.6163
 5772SOL     OW19694   8.046   0.559   7.637  0.1246  0.1090 -0.2857
 5772SOL    HW119695   8.114   0.504   7.676 -1.0188 -1.0537  0.1529
 5772SOL    HW219696   8.066   0.647   7.667  1.8567 -0.0758 -0.7808
 5773SOL     OW19697  10.295   3.704   6.917  1.0101  0.0115  0.0622
 5773SOL    HW119698  10.263   3.624   6.958 -0.3175 -0.0294 -0.9722
 5773SOL    HW219699  10.227   3.769   6.934  2.6171  1.3348  1.9566
 5774SOL     OW19700   0.318   9.079   1.253  0.0231  0.0929 -0.2928
 5774SOL    HW119701   0.388   9.093   1.189  0.0940  0.6147 -0.1064
 5774SOL    HW219702   0.360   9.027   1.322 -0.3811 -1.5908 -1.2375
 5775SOL     OW19703   5.985  10.113   3.383 -0.1390 -0.7934  0.1965
 5775SOL    HW119704   6.032  10.078   3.307 -0.2596 -1.3790  0.3829
 5775SOL    HW219705   6.053  10.152   3.437  0.0179 -0.8603  0.0498
 5776SOL     OW19706   4.716   6.903   6.420 -0.3129 -0.5886  0.1291
 5776SOL    HW119707   4.638   6.852   6.400 -0.8567  0.6073 -0.9252
 5776SOL    HW219708   4.692   6.993   6.400  1.1050 -0.1029  0.4880
 5777SOL     OW19709   1.325   6.929  10.178 -0.2221  0.6117 -0.4609
 5777SOL    HW119710   1.264   6.891  10.115 -0.8935  0.8591  0.0231
 5777SOL    HW219711   1.338   6.860  10.243 -0.1577  0.6388 -0.4448
 5778SOL     OW19712   5.245   3.394   8.158  0.0694 -0.2141  0.5324
 5778SOL    HW119713   5.336   3.368   8.144  0.6176  0.7505  2.1030
 5778SOL    HW219714   5.195   3.314   8.143  1.3286 -1.1701  1.2644
 5779SOL     OW19715   3.998   7.889   5.752  0.6052 -0.3779  0.1215
 5779SOL    HW119716   4.075   7.873   5.807  1.1930  0.4402 -0.4510
 5779SOL    HW219717   3.976   7.981   5.767  0.2644 -0.3766 -0.3737
 5780SOL     OW19718   8.455   8.963   2.847  0.3155 -0.0694  0.1848
 5780SOL    HW119719   8.417   9.040   2.889 -0.2537 -1.2494  1.9420
 5780SOL    HW219720   8.382   8.902   2.838  0.9882 -0.8582 -0.0729
 5781SOL     OW19721   5.829   9.552   1.135 -0.1457  0.0870  0.0257
 5781SOL    HW119722   5.739   9.521   1.132  0.2274 -1.0549 -0.0753
 5781SOL    HW219723   5.879   9.484   1.089  0.7718  0.6602  0.1449
 5782SOL     OW19724   5.845   0.839   5.486 -0.5341 -0.4347 -0.0592
 5782SOL    HW119725   5.794   0.911   5.447  0.8348  0.0365 -1.0739
 5782SOL    HW219726   5.913   0.884   5.537  0.0771 -1.0099 -0.3588
 5783SOL     OW19727   6.265   7.900   2.190 -0.5249  0.1155  0.0812
 5783SOL    HW119728   6.219   7.877   2.109  3.4615 -3.1010 -1.6493
 5783SOL    HW219729   6.219   7.851   2.258 -2.5067  0.9586 -0.5653
 5784SOL     OW19730   6.982   5.861   0.034 -0.5545 -0.3484  0.7369
 5784SOL    HW119731   7.006   5.935   0.090 -1.2795  0.4092  0.0771
 5784SOL    HW219732   7.065   5.829  -0.001 -0.2929  0.6804  0.3859
 5785SOL     OW19733   6.616   3.772   4.725  0.0740 -0.0430 -0.2587
 5785SOL    HW119734   6.702   3.794   4.761  0.9490 -0.8061 -1.8036
 5785SOL    HW219735   6.593   3.689   4.767 -1.1567  1.3500  2.0991
 5786SOL     OW19736   0.994   6.735   8.158  0.2856  0.2447 -0.2247
 5786SOL    HW119737   0.919   6.763   8.210  1.8847  0.4239  2.1858
 5786SOL    HW219738   1.005   6.804   8.093  0.0390  1.7238  1.2239
 5787SOL     OW19739   6.029   2.407  10.780 -0.3112  0.4105 -0.3669
 5787SOL    HW119740   5.990   2.368  10.702 -3.4138  0.4525  1.0000
 5787SOL    HW219741   5.973   2.483  10.799 -0.4994 -0.3291  2.5582
 5788SOL     OW19742   2.515   1.784   3.420 -0.6230  0.3232 -0.1509
 5788SOL    HW119743   2.462   1.713   3.456  2.0662 -1.4128  0.6948
 5788SOL    HW219744   2.575   1.807   3.491  0.6093  1.2914 -1.4632
 5789SOL     OW19745   4.915   1.120   9.182 -0.1705 -0.5529 -0.4552
 5789SOL    HW119746   4.942   1.045   9.233 -0.7779 -0.2577  0.3091
 5789SOL    HW219747   4.932   1.095   9.091 -1.1992 -1.9522 -0.2828
 5790SOL     OW19748   5.331   2.571   6.617  0.0593  0.4201 -0.5487
 5790SOL    HW119749   5.266   2.638   6.642  0.2711  0.5934 -0.4596
 5790SOL    HW219750   5.382   2.557   6.697 -1.0043 -1.0300 -0.0754
 5791SOL     OW19751   0.455   1.273  10.018 -0.4671  0.2980  0.1191
 5791SOL    HW119752   0.547   1.296  10.012 -0.5724  0.3758 -1.8497
 5791SOL    HW219753   0.432   1.287  10.110  1.1379  1.5567  0.3570
 5792SOL     OW19754   7.997   2.639   9.532 -0.5182  0.1363  0.4502
 5792SOL    HW119755   7.912   2.668   9.498 -0.3685 -0.5119 -0.5163
 5792SOL    HW219756   7.995   2.543   9.524  0.9792  0.1897 -1.3393
 5793SOL     OW19757   3.107   5.139   7.189  0.5168 -0.3486  0.0180
 5793SOL    HW119758   3.027   5.119   7.140  0.1217 -0.2595  0.6049
 5793SOL    HW219759   3.171   5.163   7.123  0.0901 -0.5462 -0.4721
 5794SOL     OW19760   6.965   1.236   3.703  0.1257  0.3369  0.4569
 5794SOL    HW119761   6.887   1.288   3.721  0.8142  1.4210  0.4132
 5794SOL    HW219762   7.027   1.262   3.772 -0.1713 -1.9086  1.6583
 5795SOL     OW19763   5.117   9.210   9.818 -0.2013 -0.0033 -0.6814
 5795SOL    HW119764   5.152   9.242   9.901  0.2544 -3.7511  0.7616
 5795SOL    HW219765   5.023   9.226   9.823  0.1284  2.4796 -0.8786
 5796SOL     OW19766   4.562   6.352  10.532  0.0038 -0.1740 -0.4778
 5796SOL    HW119767   4.500   6.288  10.499  0.8333 -2.2754  1.7329
 5796SOL    HW219768   4.508   6.425  10.562 -1.1420 -0.7177 -1.1905
 5797SOL     OW19769   1.057   3.866   2.021 -0.6278 -0.1052  0.5062
 5797SOL    HW119770   0.997   3.860   2.096 -0.6649  0.3699  0.5174
 5797SOL    HW219771   1.117   3.793   2.032 -0.5327  0.0583  1.0930
 5798SOL     OW19772   6.925   2.493   5.644  0.1937 -0.7701 -0.0600
 5798SOL    HW119773   6.889   2.558   5.583 -0.3723 -0.5308  0.5212
 5798SOL    HW219774   6.961   2.425   5.588  0.1008 -0.3250 -0.6692
 5799SOL     OW19775   6.829   9.926   7.448 -0.4793 -0.1032 -0.0417
 5799SOL    HW119776   6.917   9.891   7.463 -0.4754  0.5149  1.4920
 5799SOL    HW219777   6.772   9.850   7.458 -0.0276 -1.0103 -3.2657
 5800SOL     OW19778   1.164   8.641   3.986 -0.3494 -0.2321  0.1028
 5800SOL    HW119779   1.164   8.734   3.962  2.7517 -0.2730 -0.4638
 5800SOL    HW219780   1.127   8.639   4.074 -0.9361  1.4656 -0.0678
 5801SOL     OW19781   6.912   2.003   2.103  0.5129  0.3709 -0.1574
 5801SOL    HW119782   6.908   1.910   2.080 -0.8219  0.5714 -0.7847
 5801SOL    HW219783   6.861   2.011   2.183 -3.2168  1.1931 -2.3934
 5802SOL     OW19784   6.025   7.638   3.446  0.0102  0.4242 -0.6574
 5802SOL    HW119785   5.991   7.679   3.366  1.2860  0.5967 -1.1327
 5802SOL    HW219786   5.979   7.554   3.451 -1.1761  1.0432 -0.7481
 5803SOL     OW19787  10.040  10.554   4.159  0.3080  0.1098 -0.6744
 5803SOL    HW119788   9.981  10.601   4.101  1.2496  3.6049  0.9135
 5803SOL    HW219789  10.127  10.571   4.124  0.6528 -1.5558 -0.7115
 5804SOL     OW19790   4.700   2.102   8.604 -0.5186 -0.7512  0.2919
 5804SOL    HW119791   4.763   2.174   8.606 -1.4993  0.1187  2.0138
 5804SOL    HW219792   4.752   2.025   8.580  0.7461  0.3249 -0.5644
 5805SOL     OW19793   5.698   9.600   8.925  0.2501  0.5121 -0.0635
 5805SOL    HW119794   5.608   9.583   8.898  0.7224  0.4516 -1.7452
 5805SOL    HW219795   5.747   9.524   8.895  1.1865  1.4678 -1.0532
 5806SOL     OW19796   9.202   2.597   6.650 -0.1903  0.0203  0.1945
 5806SOL    HW119797   9.188   2.643   6.732  0.2076  0.8252 -0.1797
 5806SOL    HW219798   9.242   2.514   6.675  2.9057  1.5291  0.6575
 5807SOL     OW19799   8.302   1.677   7.334  0.7500 -1.0812 -0.3134
 5807SOL    HW119800   8.376   1.719   7.289 -0.2003  0.8234 -0.2061
 5807SOL    HW219801   8.245   1.647   7.263 -0.2489  1.0105 -0.4833
 5808SOL     OW19802   8.618   6.185   5.465 -0.6242 -0.1568  0.1140
 5808SOL    HW119803   8.548   6.198   5.401  0.8079  3.6396 -0.9843
 5808SOL    HW219804   8.581   6.218   5.547 -0.5808  0.5761 -0.1549
 5809SOL     OW19805   1.725   8.517   7.231  0.1127  0.0023 -0.4581
 5809SOL    HW119806   1.697   8.566   7.154  0.1065  0.6496 -0.0550
 5809SOL    HW219807   1.808   8.557   7.255 -0.0623  0.0495  0.0808
 5810SOL     OW19808   1.183   0.041   6.587  0.0646  0.3310 -0.9439
 5810SOL    HW119809   1.209   0.132   6.601 -0.9408  0.3839  0.9767
 5810SOL    HW219810   1.251  -0.010   6.631 -0.9174  0.3254  0.6696
 5811SOL     OW19811   6.103   1.100  10.668 -0.2248 -0.1009 -0.5838
 5811SOL    HW119812   6.159   1.023  10.662 -1.6228 -1.3196  0.9889
 5811SOL    HW219813   6.154   1.162  10.721  0.9162  0.1044 -1.8732
 5812SOL     OW19814   4.480   8.549   4.360 -0.5373 -0.4994  0.3901
 5812SOL    HW119815   4.494   8.478   4.423  0.8998  0.4763  1.2257
 5812SOL    HW219816   4.546   8.536   4.293 -0.9424 -0.5358 -0.0092
 5813SOL     OW19817   4.078   6.023   9.555  0.4882 -0.2106  0.1952
 5813SOL    HW119818   4.106   5.956   9.493  0.4000 -1.2639  1.2547
 5813SOL    HW219819   4.150   6.030   9.617 -0.0177 -0.2372  0.8028
 5814SOL     OW19820   1.910  10.510   2.580 -0.2302 -0.0918  0.0393
 5814SOL    HW119821   1.864  10.579   2.533  0.1960  0.3831  0.3089
 5814SOL    HW219822   1.977  10.480   2.520 -0.6255 -0.5053 -0.2018
 5815SOL     OW19823   8.339   4.836   0.396 -0.2974 -0.2911  0.1516
 5815SOL    HW119824   8.425   4.859   0.432 -0.9822 -0.1281  1.7727
 5815SOL    HW219825   8.323   4.902   0.328  0.9640 -0.5018 -0.3835
 5816SOL     OW19826  10.545  10.554   6.241  0.4625 -0.6853  0.2264
 5816SOL    HW119827  10.518  10.542   6.332 -0.2729  0.4414  0.1663
 5816SOL    HW219828  10.530  10.647   6.223 -2.5235 -1.4608 -2.0309
 5817SOL     OW19829   8.202   1.352   7.326 -0.1392  0.1056 -0.1842
 5817SOL    HW119830   8.176   1.415   7.259 -2.1426 -1.5535 -1.0690
 5817SOL    HW219831   8.283   1.313   7.293 -1.3030 -0.9600 -1.8747
 5818SOL     OW19832   9.087   6.909   5.279  0.0389 -0.3287  0.3932
 5818SOL    HW119833   9.063   6.845   5.346  1.2479 -0.3968  0.7858
 5818SOL    HW219834   9.033   6.887   5.203 -0.1003 -1.3403  0.7801
 5819SOL     OW19835   9.547   1.230   7.262 -0.0413 -0.3275  0.3719
 5819SOL    HW119836   9.581   1.176   7.190 -0.7684 -0.6452  0.2637
 5819SOL    HW219837   9.453   1.235   7.247 -0.0795  0.3572  0.8019
 5820SOL     OW19838   2.011   4.045   1.393  0.1768 -0.2138  0.2300
 5820SOL    HW119839   2.028   4.110   1.326 -0.2263  0.6420  0.9318
 5820SOL    HW219840   1.926   4.008   1.370  1.1207 -1.7101 -1.0911
 5821SOL     OW19841   8.081   1.313   5.921  0.2641 -0.2751  0.0077
 5821SOL    HW119842   8.070   1.373   5.995 -1.6770  0.0545 -0.4913
 5821SOL    HW219843   8.167   1.272   5.935 -0.2127 -0.5139  2.6413
 5822SOL     OW19844   7.133   1.797   2.180 -0.5390 -0.3533 -0.0325
 5822SOL    HW119845   7.195   1.787   2.108 -0.5584  2.1044 -0.4983
 5822SOL    HW219846   7.052   1.756   2.148  0.3257 -2.0595 -0.1049
 5823SOL     OW19847  10.343   8.065  10.630 -0.0354  0.2639  0.0849
 5823SOL    HW119848  10.352   8.153  10.595 -0.5437  0.0483 -0.5989
 5823SOL    HW219849  10.433   8.033  10.639  0.1217  0.5998 -0.3035
 5824SOL     OW19850   6.446   3.988   4.763 -0.1159  0.0598  0.2222
 5824SOL    HW119851   6.515   3.930   4.732  1.1379  1.9303 -0.6929
 5824SOL    HW219852   6.439   4.055   4.695 -1.5454  0.9483  1.1884
 5825SOL     OW19853  10.479   1.283   4.977  0.5326  0.7938 -0.8931
 5825SOL    HW119854  10.485   1.251   4.887 -2.1691 -0.9863 -0.5517
 5825SOL    HW219855  10.418   1.356   4.974 -0.1557  0.2588 -0.4507
 5826SOL     OW19856   1.971   1.769   8.961  0.0741  0.0251  0.2842
 5826SOL    HW119857   1.940   1.761   9.051  1.1204  1.1092  0.7683
 5826SOL    HW219858   2.055   1.723   8.960 -0.3605 -0.7944 -0.3953
 5827SOL     OW19859   8.860   8.108   1.679  0.0483  0.0533 -0.2538
 5827SOL    HW119860   8.903   8.029   1.647  0.0908 -0.9837  2.2005
 5827SOL    HW219861   8.781   8.077   1.723  0.5254  1.2396  1.5762
 5828SOL     OW19862   3.546   6.360   3.890 -0.4053 -0.1612  0.5885
 5828SOL    HW119863   3.550   6.423   3.962 -0.6150 -1.5253  1.8390
 5828SOL    HW219864   3.599   6.400   3.820  1.8448  0.1419  2.3485
 5829SOL     OW19865   8.060   6.582   6.954  0.0413 -0.5489  0.5727
 5829SOL    HW119866   8.031   6.555   7.041  1.4669  1.9832  1.9613
 5829SOL    HW219867   8.154   6.596   6.963  0.0924  0.6096 -1.1459
 5830SOL     OW19868   2.332   1.542   3.920  0.4350  0.3444  0.0254
 5830SOL    HW119869   2.396   1.549   3.992  0.3476 -0.1951  0.1590
 5830SOL    HW219870   2.290   1.457   3.933 -0.5249  0.8139  0.1137
 5831SOL     OW19871   4.083   8.671   6.734 -0.2835  0.4294  0.3299
 5831SOL    HW119872   4.173   8.683   6.702  0.0962  0.7645  1.4968
 5831SOL    HW219873   4.080   8.719   6.816 -0.5539 -2.2387  1.9987
 5832SOL     OW19874   6.276   5.915   2.513  0.1537 -0.0000 -0.2434
 5832SOL    HW119875   6.339   5.874   2.572 -0.3291 -0.9421 -0.3587
 5832SOL    HW219876   6.256   5.999   2.554  1.6524  0.4328 -0.3380
 5833SOL     OW19877   2.689   2.482   3.153  0.1597  0.0575  0.2280
 5833SOL    HW119878   2.677   2.471   3.247  0.9467 -0.8135  0.2372
 5833SOL    HW219879   2.602   2.473   3.116  0.1262 -1.7092  0.6827
 5834SOL     OW19880   8.789   9.406   4.038  0.1450  0.1911 -0.1994
 5834SOL    HW119881   8.844   9.358   4.101 -0.8427 -0.0442  0.5033
 5834SOL    HW219882   8.761   9.340   3.975  0.3160  0.2297 -0.3181
 5835SOL     OW19883   9.944   6.961   0.559 -0.0020 -0.0953 -0.1257
 5835SOL    HW119884   9.983   6.967   0.472 -0.0803  0.6461 -0.1202
 5835SOL    HW219885   9.864   7.013   0.553  0.3724  0.5950  0.5855
 5836SOL     OW19886  10.601   0.832   9.205 -0.2640  0.1681  0.1270
 5836SOL    HW119887  10.628   0.894   9.273  0.4941  0.4694 -0.4320
 5836SOL    HW219888  10.587   0.750   9.252 -0.1302  0.4693  0.7082
 5837SOL     OW19889   0.240   6.607   9.674 -0.3041 -0.5164 -0.4302
 5837SOL    HW119890   0.260   6.681   9.732  1.3671 -2.7252  2.0661
 5837SOL    HW219891   0.314   6.603   9.614  0.2242 -0.8336  0.2243
 5838SOL     OW19892   7.936   0.797  10.151 -0.1186  0.6285 -0.1500
 5838SOL    HW119893   7.843   0.797  10.131  0.0925 -0.0995 -1.2662
 5838SOL    HW219894   7.974   0.863  10.093  0.5212 -1.5976 -2.4760
 5839SOL     OW19895   6.045   7.960   6.624  0.0201  0.2546 -0.0084
 5839SOL    HW119896   6.123   8.016   6.625  1.4687 -1.6594 -0.4759
 5839SOL    HW219897   6.068   7.888   6.565 -0.9655 -1.9099  2.1117
 5840SOL     OW19898   0.470   9.769   2.108 -0.5080  0.0179 -0.1722
 5840SOL    HW119899   0.439   9.762   2.198  0.1703  2.8330  0.3650
 5840SOL    HW219900   0.519   9.688   2.092 -0.1362 -0.2738  2.2063
 5841SOL     OW19901   5.239   2.879   9.974 -0.4433  0.4426 -0.9693
 5841SOL    HW119902   5.164   2.826   9.946  0.5980 -2.5866  1.4326
 5841SOL    HW219903   5.203   2.936  10.043 -0.3562 -2.5107  1.7434
 5842SOL     OW19904   1.574   5.304   3.099 -0.3146  0.7636 -0.0678
 5842SOL    HW119905   1.512   5.312   3.027 -0.5406  0.4919  0.0934
 5842SOL    HW219906   1.586   5.394   3.130  0.3320  0.9727 -0.8910
 5843SOL     OW19907   9.485   9.722  10.655  0.3673 -0.0351  0.3797
 5843SOL    HW119908   9.394   9.750  10.658  0.0358 -1.0851  0.4803
 5843SOL    HW219909   9.489   9.660  10.582  0.3471 -2.1100  2.0441
 5844SOL     OW19910   9.457   9.658   8.687  0.0032 -0.7194  0.0008
 5844SOL    HW119911   9.408   9.739   8.701 -0.0264 -0.6855 -0.2910
 5844SOL    HW219912   9.391   9.589   8.693 -0.4746 -0.5640 -2.2944
 5845SOL     OW19913  10.431   8.136   5.848 -0.2205 -0.5597 -0.0609
 5845SOL    HW119914  10.396   8.066   5.793 -1.4475  0.5366 -0.7462
 5845SOL    HW219915  10.515   8.159   5.809 -0.2676 -0.9940 -0.4151
 5846SOL     OW19916   7.699   5.522   0.308 -0.3421 -0.0700 -0.7733
 5846SOL    HW119917   7.616   5.563   0.286 -0.2443 -1.1632 -3.6013
 5846SOL    HW219918   7.704   5.446   0.250  2.4724 -0.2349 -0.4363
 5847SOL     OW19919   3.818   7.182   5.877 -0.4766  0.1958 -0.5291
 5847SOL    HW119920   3.725   7.164   5.869 -0.4985 -0.1832  0.4263
 5847SOL    HW219921   3.861   7.119   5.820 -0.7778 -0.0123 -0.5218
 5848SOL     OW19922   7.959   8.307   0.985  0.8435 -0.8508 -0.1072
 5848SOL    HW119923   7.996   8.266   1.063 -0.6269 -0.0141  1.0754
 5848SOL    HW219924   7.996   8.395   0.984  0.5479 -0.7283 -0.1425
 5849SOL     OW19925   7.111   8.497   4.606 -0.1693 -0.4908 -0.4833
 5849SOL    HW119926   7.122   8.556   4.681  2.6803 -0.2065 -1.0022
 5849SOL    HW219927   7.082   8.554   4.535 -1.4682 -0.5027  0.0145
 5850SOL     OW19928   8.754   6.337   7.759 -0.6618  0.3063 -0.7406
 5850SOL    HW119929   8.822   6.360   7.696 -1.2695 -1.1769 -2.0119
 5850SOL    HW219930   8.789   6.364   7.844  1.0512  0.5240 -1.4835
 5851SOL     OW19931   8.209  10.089   7.075 -0.0203 -0.0815  0.1616
 5851SOL    HW119932   8.245  10.036   7.147 -0.6531 -1.0457 -0.2224
 5851SOL    HW219933   8.180  10.026   7.010  0.9386  0.7850 -1.1665
 5852SOL     OW19934   5.145   3.148   8.107  0.1964 -0.0051 -0.2250
 5852SOL    HW119935   5.132   3.091   8.183  0.4519 -1.3238 -1.1313
 5852SOL    HW219936   5.088   3.111   8.040 -0.4206  1.4485 -0.5483
 5853SOL     OW19937   4.594   1.565   0.551  0.0883 -0.2537  0.1598
 5853SOL    HW119938   4.643   1.594   0.475  0.0152  0.4021  0.3623
 5853SOL    HW219939   4.653   1.505   0.596  0.1568 -0.5906 -0.3677
 5854SOL     OW19940   9.289   3.900   0.238  0.4319 -0.3326  0.3753
 5854SOL    HW119941   9.286   3.903   0.334 -1.2187 -1.9518  0.4214
 5854SOL    HW219942   9.244   3.979   0.210 -0.2581 -0.5162  0.9505
 5855SOL     OW19943   6.629   9.700  10.649 -0.0451  0.2088  0.0264
 5855SOL    HW119944   6.585   9.754  10.715 -0.6468 -0.9038  0.5534
 5855SOL    HW219945   6.562   9.639  10.619  0.9006 -0.9538  0.2119
 5856SOL     OW19946  10.791   5.657   0.617 -0.7201 -0.1795  0.8845
 5856SOL    HW119947  10.855   5.645   0.547 -0.4562 -1.3862  1.3134
 5856SOL    HW219948  10.843   5.669   0.696 -1.0204  0.0674  1.0455
 5857SOL     OW19949   6.251   1.248   7.459 -0.4069 -0.5704 -0.4611
 5857SOL    HW119950   6.317   1.181   7.476 -0.0873 -0.1718 -0.1186
 5857SOL    HW219951   6.169   1.199   7.452 -0.2595 -0.9461  0.3367
 5858SOL     OW19952   0.239   7.852   2.173 -0.0411  0.3260 -0.1952
 5858SOL    HW119953   0.200   7.787   2.115  0.1243  0.7287 -0.7679
 5858SOL    HW219954   0.329   7.861   2.142  0.4670 -0.4565  0.9926
 5859SOL     OW19955   6.349   6.043   2.899  0.0932  0.3694 -0.2716
 5859SOL    HW119956   6.255   6.029   2.910 -0.1831  1.0509 -1.5930
 5859SOL    HW219957   6.356   6.119   2.842  1.4607  0.4634 -0.0129
 5860SOL     OW19958   6.704   2.441   6.813 -0.0498  0.7715 -0.3659
 5860SOL    HW119959   6.744   2.509   6.867 -0.9207  0.6875  0.3900
 5860SOL    HW219960   6.619   2.477   6.787 -1.7130 -1.0120  2.2248
 5861SOL     OW19961   5.503   7.681   4.233 -0.1813  0.9708 -0.0594
 5861SOL    HW119962   5.557   7.603   4.222 -0.8755  0.6169 -1.1618
 5861SOL    HW219963   5.541   7.726   4.308  1.7305  0.8145 -0.8824
 5862SOL     OW19964   4.534   2.492   5.917  0.3581 -0.2993 -0.3968
 5862SOL    HW119965   4.452   2.467   5.959  1.3939 -1.3842  1.0624
 5862SOL    HW219966   4.561   2.414   5.869  0.6431 -0.0060 -0.7220
 5863SOL     OW19967   5.093  10.385   3.509 -0.2101  0.3521  0.1849
 5863SOL    HW119968   5.079  10.465   3.457  1.4980  0.2437 -0.4880
 5863SOL    HW219969   5.165  10.340   3.466 -0.9003 -1.4090  0.7726
 5864SOL     OW19970   0.873   2.544   1.293  0.0400 -0.0154 -0.9194
 5864SOL    HW119971   0.942   2.585   1.241  1.1912  0.5483  0.9221
 5864SOL    HW219972   0.796   2.598   1.279  0.4741  0.4387 -1.6181
 5865SOL     OW19973   2.359   6.513   6.346  0.0919 -0.1827 -0.2170
 5865SOL    HW119974   2.409   6.461   6.284  0.0019 -1.2654  0.5872
 5865SOL    HW219975   2.423   6.572   6.385 -0.0736  1.3488 -2.1531
 5866SOL     OW19976   4.326   8.690   1.583  0.3283 -0.6599  0.3506
 5866SOL    HW119977   4.347   8.714   1.493 -0.2732 -1.4613 -0.0198
 5866SOL    HW219978   4.316   8.773   1.629 -1.0307 -0.1879 -0.7240
 5867SOL     OW19979   5.387   4.635   6.281  0.3233  0.6752  0.8415
 5867SOL    HW119980   5.357   4.662   6.194  2.7908 -1.9707 -1.0350
 5867SOL    HW219981   5.338   4.555   6.300  2.0343 -0.5944  0.2569
 5868SOL     OW19982   3.586   4.802   1.848  0.4871 -0.1297  0.2091
 5868SOL    HW119983   3.642   4.852   1.907  0.4893 -0.9141  0.8934
 5868SOL    HW219984   3.510   4.859   1.832 -0.1872 -0.4393  2.0944
 5869SOL     OW19985   6.665  10.038   9.619  0.9077 -0.2296 -0.3403
 5869SOL    HW119986   6.719   9.960   9.609  0.0588 -0.7231 -1.2494
 5869SOL    HW219987   6.610  10.040   9.541  1.5199  1.7786 -0.7731
 5870SOL     OW19988   2.645  10.771   4.349 -0.2446  0.0423 -0.0520
 5870SOL    HW119989   2.607  10.730   4.427 -1.1634 -0.2236 -0.6244
 5870SOL    HW219990   2.676  10.856   4.379  0.0910 -0.3544  0.7620
 5871SOL     OW19991   3.509  10.656   3.822 -0.4780  0.1178 -0.2800
 5871SOL    HW119992   3.598  10.669   3.856 -0.4608 -0.6075 -0.0354
 5871SOL    HW219993   3.485  10.742   3.787  0.3782  0.2870 -0.4938
 5872SOL     OW19994   0.193   0.614   9.446  0.1554 -0.3774 -0.6348
 5872SOL    HW119995   0.211   0.529   9.407  0.0001 -0.9323  0.4663
 5872SOL    HW219996   0.255   0.674   9.403  0.9269 -1.2278 -0.7157
 5873SOL     OW19997   5.840   2.724   3.617  0.1698  0.5206 -0.4070
 5873SOL    HW119998   5.828   2.644   3.566  0.5254  0.8405 -0.9973
 5873SOL    HW219999   5.831   2.695   3.708  0.7173 -0.2603 -0.5904
 5874SOL     OW20000   6.928   6.696   5.716  0.2049 -0.1571  0.3900
 5874SOL    HW120001   6.891   6.661   5.635  0.2105  1.0781 -0.1551
 5874SOL    HW220002   6.952   6.786   5.695  1.0164 -0.0917  1.5166
 5875SOL     OW20003   4.925   5.825   1.878 -0.5642 -0.6475 -0.1954
 5875SOL    HW120004   4.879   5.766   1.937 -1.5976  1.1273  0.8745
 5875SOL    HW220005   4.947   5.901   1.932 -0.2647  0.4298 -1.7473
 5876SOL     OW20006  10.275   5.094   9.475  0.1172  0.5813  0.1932
 5876SOL    HW120007  10.257   5.140   9.393  1.0877  1.4807  0.4468
 5876SOL    HW220008  10.302   5.006   9.448 -0.8347  0.4430 -0.3626
 5877SOL     OW20009   6.645   1.527   4.720 -0.2988  0.2880 -0.2046
 5877SOL    HW120010   6.694   1.447   4.737  0.0992  0.1794 -1.6918
 5877SOL    HW220011   6.567   1.498   4.672  0.0265  0.8057 -1.0736
 5878SOL     OW20012   2.626  10.038   4.031 -0.0701 -0.3423  0.6133
 5878SOL    HW120013   2.656  10.128   4.016  1.3599 -0.7948  0.6136
 5878SOL    HW220014   2.636   9.995   3.946  1.1198 -0.9901  1.0470
 5879SOL     OW20015   3.357  10.380   2.658 -0.3007 -0.2065  0.4134
 5879SOL    HW120016   3.324  10.456   2.706  1.1956  0.3494  0.6031
 5879SOL    HW220017   3.450  10.398   2.644 -0.3114 -1.1343 -1.2036
 5880SOL     OW20018  10.723   5.706   2.367 -0.0202 -0.4236  0.0878
 5880SOL    HW120019  10.655   5.758   2.411 -0.2936 -1.1294  0.5248
 5880SOL    HW220020  10.801   5.719   2.420 -0.0908 -0.4598  0.2017
 5881SOL     OW20021   4.850   1.727   1.165  0.1007  0.2537 -0.0816
 5881SOL    HW120022   4.852   1.673   1.086 -0.1490  0.7761 -0.4443
 5881SOL    HW220023   4.849   1.817   1.134 -1.3480  0.4549  0.4830
 5882SOL     OW20024   0.585   8.881   8.818 -0.0450  0.0212  0.3423
 5882SOL    HW120025   0.672   8.893   8.855  0.2155 -0.6268 -0.0567
 5882SOL    HW220026   0.565   8.788   8.832  0.0435 -0.2321 -1.0979
 5883SOL     OW20027   4.192   6.369   0.895 -0.2709 -0.3706  0.0921
 5883SOL    HW120028   4.147   6.427   0.832  1.3284 -0.0442 -0.7980
 5883SOL    HW220029   4.184   6.415   0.978  0.3729  0.8233 -0.4754
 5884SOL     OW20030   8.124   4.026   7.977 -0.0468  0.6110  0.0281
 5884SOL    HW120031   8.102   4.110   7.936  0.7167  0.6229 -0.3740
 5884SOL    HW220032   8.150   4.051   8.066 -0.4671  0.7230  0.1240
 5885SOL     OW20033   3.691   6.434   3.424 -0.0222  0.5054  0.1071
 5885SOL    HW120034   3.730   6.522   3.418  0.1953  0.3349 -1.3839
 5885SOL    HW220035   3.600   6.446   3.398 -0.5388  0.5868  1.8071
 5886SOL     OW20036   2.013   2.216   9.490 -0.2910 -0.2045 -0.3325
 5886SOL    HW120037   2.107   2.206   9.475 -0.4526 -0.4023 -1.2546
 5886SOL    HW220038   1.981   2.265   9.414 -1.5042 -3.2087 -1.9542
 5887SOL     OW20039   5.655   8.681   6.335 -0.1822 -0.1244 -0.8567
 5887SOL    HW120040   5.685   8.631   6.259  0.4793 -1.3897  0.2089
 5887SOL    HW220041   5.668   8.773   6.309  4.2036 -0.4999 -0.7429
 5888SOL     OW20042   4.587   6.305   8.194  0.1745 -0.0714  0.0925
 5888SOL    HW120043   4.610   6.223   8.151  1.7778  0.6438 -0.4882
 5888SOL    HW220044   4.661   6.323   8.252  0.6481  1.7688 -1.0125
 5889SOL     OW20045   6.970   4.978   9.764 -0.5215 -0.0372  0.2854
 5889SOL    HW120046   7.014   4.907   9.718  0.4362 -0.7432  2.1556
 5889SOL    HW220047   7.027   5.054   9.753  1.2461 -0.9110  2.5823
 5890SOL     OW20048   3.301   1.630   6.283 -0.0891  0.1799  0.2780
 5890SOL    HW120049   3.301   1.580   6.364  0.1901  0.0303  0.1866
 5890SOL    HW220050   3.267   1.716   6.308 -0.0651  0.1141  0.5395
 5891SOL     OW20051   4.038   5.900   5.844  0.1573  0.1110  0.3249
 5891SOL    HW120052   4.056   5.862   5.930  2.2626 -1.3587 -0.6864
 5891SOL    HW220053   4.046   5.826   5.783 -1.0903  1.1559 -1.1678
 5892SOL     OW20054   6.167  10.749   3.673 -0.1475  0.0532 -0.3068
 5892SOL    HW120055   6.212  10.665   3.674 -0.4192 -0.1115 -1.0287
 5892SOL    HW220056   6.229  10.808   3.628 -0.7659 -0.2602 -1.6283
 5893SOL     OW20057   4.518   8.250   1.411  0.3753 -0.2004  0.7076
 5893SOL    HW120058   4.553   8.294   1.489 -0.8565  1.4952  0.3714
 5893SOL    HW220059   4.424   8.264   1.415 -0.0082 -2.2992  0.1842
 5894SOL     OW20060   1.729   7.568   4.846 -0.1283 -0.5835 -0.1871
 5894SOL    HW120061   1.744   7.474   4.843  1.7191 -0.3112 -0.5322
 5894SOL    HW220062   1.807   7.606   4.807 -1.0259  1.0911 -0.4391
 5895SOL     OW20063   3.090   4.728   1.483 -0.4190 -0.0241  0.0790
 5895SOL    HW120064   3.025   4.795   1.462  1.4111  1.8137 -0.0534
 5895SOL    HW220065   3.115   4.691   1.398  0.2233  0.7750 -0.0870
 5896SOL     OW20066   3.167   0.008   3.357  0.2407 -0.0985 -0.3589
 5896SOL    HW120067   3.114   0.064   3.414  2.1359  0.2842  1.1061
 5896SOL    HW220068   3.153  -0.080   3.390 -0.5374 -0.1776 -0.8697
 5897SOL     OW20069   8.739   7.193   4.774 -0.1838  0.3418 -0.4915
 5897SOL    HW120070   8.780   7.178   4.689  1.6272  0.0661  0.3827
 5897SOL    HW220071   8.745   7.288   4.787 -0.4707  0.3852 -0.6791
 5898SOL     OW20072   9.290   7.022   5.389 -0.7659  0.0132 -0.3753
 5898SOL    HW120073   9.286   7.116   5.378  0.4081  0.2087  0.6184
 5898SOL    HW220074   9.210   6.989   5.348 -0.1348  1.2163 -2.6946
 5899SOL     OW20075   7.849   9.051   7.231 -0.2904  0.1417 -0.0507
 5899SOL    HW120076   7.832   9.144   7.247  2.5577  0.5467  1.4139
 5899SOL    HW220077   7.863   9.014   7.318 -0.2278 -1.4038 -0.6891
 5900SOL     OW20078   8.018   4.021   7.527  0.3129  0.1794  0.0427
 5900SOL    HW120079   8.036   4.114   7.523  0.9230  0.0316 -2.2850
 5900SOL    HW220080   7.926   4.013   7.501  0.5061  0.0972 -0.6417
 5901SOL     OW20081   2.390   0.713  10.132  0.2253  0.4786 -0.0006
 5901SOL    HW120082   2.340   0.746  10.207  1.2809 -0.2313  1.0448
 5901SOL    HW220083   2.481   0.719  10.160  0.5651 -1.2725 -0.6138
 5902SOL     OW20084   6.782   0.771   0.554 -0.5017 -0.3463 -0.3885
 5902SOL    HW120085   6.828   0.738   0.631 -1.5202  0.7416  0.7244
 5902SOL    HW220086   6.821   0.723   0.481  0.0366 -1.9024  0.8543
 5903SOL     OW20087   1.337   4.931   3.531  0.1825  0.0444 -0.3858
 5903SOL    HW120088   1.352   5.019   3.564 -0.0977  0.1039 -0.4173
 5903SOL    HW220089   1.389   4.874   3.588 -3.2419 -0.3131  2.6963
 5904SOL     OW20090   4.664   7.857   9.510 -0.0718  0.2550  0.2624
 5904SOL    HW120091   4.577   7.823   9.492  0.0500  0.8890 -1.7378
 5904SOL    HW220092   4.723   7.785   9.489 -0.0650  0.1133  0.7638
 5905SOL     OW20093   9.639   6.373   9.528 -0.2996  0.0120  0.2175
 5905SOL    HW120094   9.709   6.313   9.502  0.3228  1.3019 -1.1854
 5905SOL    HW220095   9.633   6.436   9.457 -4.2150 -1.1147 -0.6665
 5906SOL     OW20096   2.821   0.384   7.512  0.3685  0.4636  0.0406
 5906SOL    HW120097   2.823   0.357   7.420 -2.8354  0.8116 -0.2244
 5906SOL    HW220098   2.834   0.303   7.561  0.0226 -0.0596 -0.7093
 5907SOL     OW20099  10.187   6.111   2.756 -0.0572  0.0798  0.3950
 5907SOL    HW120100  10.213   6.165   2.682 -0.9741  1.2497  0.8835
 5907SOL    HW220101  10.182   6.172   2.830  0.8098 -1.0519  1.4248
 5908SOL     OW20102   6.595   6.023  10.387 -0.0317 -0.0831  0.1574
 5908SOL    HW120103   6.630   6.008  10.299  1.4081 -0.1595  0.7256
 5908SOL    HW220104   6.533   5.951  10.401  0.8292 -0.9122 -0.2229
 5909SOL     OW20105   3.852  10.532   3.655 -0.0936 -0.1546  0.0377
 5909SOL    HW120106   3.802  10.557   3.733 -1.1250  0.2949 -0.7508
 5909SOL    HW220107   3.893  10.613   3.624 -0.8146 -0.0528 -0.6719
 5910SOL     OW20108   8.023   7.101   7.678  0.2991 -0.0982  0.4015
 5910SOL    HW120109   8.016   7.025   7.735 -0.6483 -0.9772 -0.8217
 5910SOL    HW220110   7.949   7.157   7.702  0.2366 -0.1919  0.4253
 5911SOL     OW20111   4.093   4.180   7.916 -0.8619 -0.2828 -0.0409
 5911SOL    HW120112   4.099   4.215   7.827 -0.6105 -0.3303 -0.0436
 5911SOL    HW220113   4.031   4.238   7.961  0.3495  0.8229  0.2646
 5912SOL     OW20114  10.087   4.180   3.654  0.4029 -0.0734 -0.0983
 5912SOL    HW120115  10.005   4.173   3.604  1.4781 -0.9894 -1.8149
 5912SOL    HW220116  10.102   4.092   3.687  1.3653 -0.2597 -0.9634
 5913SOL     OW20117   6.529   5.793   0.051  0.1260 -0.5144  0.5135
 5913SOL    HW120118   6.543   5.887   0.058 -1.7354 -0.2350  1.1481
 5913SOL    HW220119   6.434   5.783   0.051  0.2844 -2.3855  0.2467
 5914SOL     OW20120   2.851   2.330   2.995  0.0312  0.5785  0.0053
 5914SOL    HW120121   2.897   2.280   3.062 -1.0000  0.0885  0.3727
 5914SOL    HW220122   2.778   2.372   3.042 -0.8354  0.0553 -0.8312
 5915SOL     OW20123  10.291   2.261   7.824  0.0637 -0.4739  0.4130
 5915SOL    HW120124  10.366   2.260   7.765  2.4271  2.8405  2.9880
 5915SOL    HW220125  10.315   2.202   7.896  1.0966  1.7646  2.0209
 5916SOL     OW20126   5.776   8.794   8.533 -0.7166 -0.7130  0.2381
 5916SOL    HW120127   5.784   8.699   8.541  0.1810 -0.6948 -0.3948
 5916SOL    HW220128   5.691   8.807   8.491 -0.7843 -1.2407  0.2039
 5917SOL     OW20129   6.700  10.677  10.458  0.0627  0.7160 -0.7057
 5917SOL    HW120130   6.748  10.612  10.510  1.7972  1.4421 -1.3296
 5917SOL    HW220131   6.616  10.686  10.504 -0.2118 -1.8497 -0.5308
 5918SOL     OW20132   9.209   6.787   9.653  0.1670 -0.5184 -0.6657
 5918SOL    HW120133   9.287   6.819   9.699  0.6262 -0.4079 -1.4994
 5918SOL    HW220134   9.178   6.715   9.706 -0.5840  0.9458  0.9857
 5919SOL     OW20135   3.130   1.242   7.139  0.0259 -0.3028 -0.6176
 5919SOL    HW120136   3.079   1.296   7.078 -1.6482  1.1750  1.9178
 5919SOL    HW220137   3.116   1.152   7.109 -0.9383  0.3547 -2.2433
 5920SOL     OW20138   3.411  10.018   3.025  0.3912 -0.3708  0.4556
 5920SOL    HW120139   3.362   9.992   2.947  1.1305  0.2692 -0.2351
 5920SOL    HW220140   3.370  10.101   3.052  2.2003  1.1349 -1.1940
 5921SOL     OW20141   1.072   0.927   0.537  0.3236  0.5556 -0.6767
 5921SOL    HW120142   1.076   0.972   0.622 -0.1796  0.3969 -0.5632
 5921SOL    HW220143   1.000   0.970   0.491 -0.0411 -0.0070 -0.6384
 5922SOL     OW20144   8.660   4.509  10.774 -0.6340 -0.4159 -0.3777
 5922SOL    HW120145   8.725   4.481  10.709  1.2902 -0.0416  1.3026
 5922SOL    HW220146   8.644   4.430  10.826  0.2190  0.0574  0.6203
 5923SOL     OW20147  10.172   8.581   7.809  0.3142 -0.1437 -0.1488
 5923SOL    HW120148  10.211   8.521   7.873  1.7540  0.6566 -0.2275
 5923SOL    HW220149  10.159   8.663   7.857  0.4707  0.1577 -0.6155
 5924SOL     OW20150  10.233   3.085   0.031  0.4775 -0.5087  0.1807
 5924SOL    HW120151  10.266   3.042  -0.047  0.8405  0.5017 -0.2393
 5924SOL    HW220152  10.225   3.177   0.006  0.9187 -0.1131  1.4354
 5925SOL     OW20153  10.290   2.171   4.429 -0.0384 -0.2441 -0.1285
 5925SOL    HW120154  10.216   2.211   4.382 -0.0688  0.5754  0.6027
 5925SOL    HW220155  10.315   2.097   4.374 -0.3473  0.4398 -1.2310
 5926SOL     OW20156   3.354   8.521   8.253  0.2521 -0.1476 -0.5067
 5926SOL    HW120157   3.369   8.460   8.325  2.2228 -0.5333 -1.1771
 5926SOL    HW220158   3.268   8.496   8.218 -0.3271 -0.5303  1.1125
 5927SOL     OW20159   0.543   5.166   0.370  0.1862  0.3410  0.0730
 5927SOL    HW120160   0.553   5.086   0.421 -0.9889 -0.4384 -0.8771
 5927SOL    HW220161   0.584   5.234   0.424 -0.0655 -0.6354  1.5426
 5928SOL     OW20162   5.024   2.713   9.898 -0.2316 -0.5800  0.2829
 5928SOL    HW120163   4.930   2.701   9.886  0.1065 -1.9028 -1.5153
 5928SOL    HW220164   5.055   2.743   9.813  0.9584  0.0118  0.9018
 5929SOL     OW20165   6.555   1.048  10.053 -0.5414 -0.0800  0.5640
 5929SOL    HW120166   6.489   1.112  10.082 -0.8460  0.1808 -0.6231
 5929SOL    HW220167   6.636   1.099  10.048 -0.6372  0.0549  0.3049
 5930SOL     OW20168   1.208   3.400   7.546  0.5961  0.2971  0.1443
 5930SOL    HW120169   1.178   3.376   7.458 -2.5393  0.0243  1.1761
 5930SOL    HW220170   1.185   3.325   7.601  1.0031  1.1291  1.4914
 5931SOL     OW20171   0.116   5.570   5.650 -0.5740  0.7301 -0.3836
 5931SOL    HW120172   0.073   5.519   5.719  0.8230 -0.8693 -0.6437
 5931SOL    HW220173   0.204   5.587   5.684  0.3114 -0.5121 -1.9398
 5932SOL     OW20174   6.750   8.207   6.936 -0.1472  0.2919  0.2221
 5932SOL    HW120175   6.714   8.242   6.855 -1.0102  0.9310  0.8693
 5932SOL    HW220176   6.691   8.136   6.960  0.5007 -0.3557 -0.0623
 5933SOL     OW20177   6.978   4.953  10.575  0.4085  0.2712 -0.5729
 5933SOL    HW120178   6.998   4.860  10.578  0.6201  0.3347 -0.0260
 5933SOL    HW220179   7.058   4.996  10.603  0.4338  0.6406 -1.1808
 5934SOL     OW20180   4.094   6.001   0.998 -0.0149 -0.2626 -0.1720
 5934SOL    HW120181   4.182   6.039   0.999  0.6006 -1.6017 -0.6460
 5934SOL    HW220182   4.106   5.913   1.035 -1.2647 -0.2549  0.2862
 5935SOL     OW20183   1.662   2.673  10.713  0.0509 -0.4183 -0.4263
 5935SOL    HW120184   1.671   2.587  10.754 -0.7068 -0.8552 -1.1525
 5935SOL    HW220185   1.582   2.709  10.752 -0.0989 -0.4054 -0.7390
 5936SOL     OW20186   2.018   3.450   2.945  0.3624  0.0914 -0.0200
 5936SOL    HW120187   2.019   3.359   2.917  1.3205 -0.4763  1.7116
 5936SOL    HW220188   2.051   3.448   3.035  1.2480  2.2342 -0.2236
 5937SOL     OW20189   0.528   8.409   5.214  0.7018  0.3728  0.9544
 5937SOL    HW120190   0.562   8.331   5.170 -1.0157 -0.7443  1.4885
 5937SOL    HW220191   0.448   8.379   5.257 -0.9134  2.7812 -0.1573
 5938SOL     OW20192   7.646   0.251   6.779  0.2597 -0.6104 -0.5904
 5938SOL    HW120193   7.603   0.181   6.732 -2.1116 -0.1081  0.6833
 5938SOL    HW220194   7.583   0.278   6.846  2.2108  0.8127  0.8114
 5939SOL     OW20195   8.564   9.868   5.187  0.0294 -0.6496  0.3734
 5939SOL    HW120196   8.556   9.776   5.161 -1.2432 -0.9034  1.5169
 5939SOL    HW220197   8.552   9.867   5.282 -1.3537  0.8166  0.2665
 5940SOL     OW20198  10.716   1.982  10.083  0.5044  0.1712 -0.7316
 5940SOL    HW120199  10.781   1.917  10.110  0.7648  0.6358 -0.2318
 5940SOL    HW220200  10.656   1.933  10.026  0.8788 -0.4295 -0.6221
 5941SOL     OW20201   2.001   4.714   5.390 -0.5606  0.3308 -0.0717
 5941SOL    HW120202   2.065   4.642   5.392  0.8366  1.5410  0.1302
 5941SOL    HW220203   2.026   4.766   5.314 -2.6509 -0.3033 -1.2865
 5942SOL     OW20204   7.039  10.201   8.717  0.2352 -0.6918 -0.3705
 5942SOL    HW120205   6.968  10.230   8.660  1.1659  0.1302 -1.1472
 5942SOL    HW220206   7.119  10.215   8.666  0.9646 -1.6888  0.4431
 5943SOL     OW20207   3.475   7.762   2.034  0.7676  0.4673 -0.0074
 5943SOL    HW120208   3.380   7.760   2.042  0.7663 -1.1523 -0.0312
 5943SOL    HW220209   3.493   7.724   1.948  1.4304  1.1179 -0.1659
 5944SOL     OW20210  10.236   6.837  10.270  0.0528 -0.1537 -0.1999
 5944SOL    HW120211  10.246   6.927  10.301 -2.9207  0.3994 -0.5097
 5944SOL    HW220212  10.260   6.841  10.178  1.4570 -0.0763  0.1426
 5945SOL     OW20213   5.917   5.091   1.425  0.1929  0.2748 -0.2397
 5945SOL    HW120214   5.961   5.086   1.340  0.0345 -0.5092 -0.2763
 5945SOL    HW220215   5.943   5.177   1.459  1.1689  0.1319 -0.5830
 5946SOL     OW20216   3.635  10.728   5.983 -0.0654  0.1947 -0.3177
 5946SOL    HW120217   3.709  10.669   5.998 -1.2579 -1.0674  0.9517
 5946SOL    HW220218   3.583  10.683   5.916 -0.4856  0.2753 -0.0472
 5947SOL     OW20219   0.662   0.392   7.860 -0.2979 -0.0398  0.1301
 5947SOL    HW120220   0.659   0.488   7.858 -1.7424 -0.0759 -1.0844
 5947SOL    HW220221   0.727   0.372   7.927 -1.1385  1.7861  1.6025
 5948SOL     OW20222   6.674   3.354   5.675 -0.1002  0.5815 -0.0524
 5948SOL    HW120223   6.713   3.297   5.742 -0.2815  0.0087 -0.4304
 5948SOL    HW220224   6.594   3.387   5.715 -0.2327  0.2041 -0.0049
 5949SOL     OW20225  10.736  10.030   2.070 -0.0354  0.1998  0.2047
 5949SOL    HW120226  10.734  10.052   2.163  0.6561 -1.4860  0.6537
 5949SOL    HW220227  10.730   9.935   2.068  1.3985  0.0992 -1.4085
 5950SOL     OW20228   8.735   6.969   9.211 -0.1132  0.0710 -0.4884
 5950SOL    HW120229   8.762   7.055   9.244 -0.9208  0.2522 -0.2682
 5950SOL    HW220230   8.674   6.936   9.277 -0.8869 -0.0559 -1.2464
 5951SOL     OW20231   9.775   1.912   4.893 -0.2067  0.1170 -0.4865
 5951SOL    HW120232   9.698   1.877   4.849  1.8893 -3.9263 -1.4190
 5951SOL    HW220233   9.789   1.855   4.968  3.5208 -1.5401 -2.1590
 5952SOL     OW20234   1.894  10.167   2.121 -0.3557 -0.1133  0.5817
 5952SOL    HW120235   1.937  10.132   2.199 -0.0321 -1.1870 -0.0596
 5952SOL    HW220236   1.815  10.210   2.155 -0.3540 -0.7836  1.4784
 5953SOL     OW20237   6.222   9.583   0.851 -0.5544 -0.6121  0.3014
 5953SOL    HW120238   6.259   9.671   0.857 -0.6610 -0.3684 -1.8659
 5953SOL    HW220239   6.230   9.547   0.940  0.4880  1.1672  0.9720
 5954SOL     OW20240   4.984   1.929   0.717  0.0050 -0.4562 -0.8072
 5954SOL    HW120241   5.044   1.887   0.779 -0.2310 -1.7620 -1.4218
 5954SOL    HW220242   5.029   2.009   0.690  0.6106 -0.4519  0.1885
 5955SOL     OW20243   1.779   5.048   3.746 -0.7677  0.2862  0.1802
 5955SOL    HW120244   1.827   5.130   3.732 -0.1658  0.0304  0.7067
 5955SOL    HW220245   1.688   5.071   3.733 -0.6039  1.0520  0.3464
 5956SOL     OW20246   4.332   9.425   9.204  0.0025  0.2187  0.2279
 5956SOL    HW120247   4.317   9.335   9.235  0.4625 -0.8024 -2.3087
 5956SOL    HW220248   4.402   9.457   9.261 -1.2366 -0.3969  2.2246
 5957SOL     OW20249   3.435   9.861   7.846  0.2009  0.0736  0.4450
 5957SOL    HW120250   3.524   9.853   7.811 -0.4957 -0.0642 -1.4131
 5957SOL    HW220251   3.383   9.893   7.772 -1.7548 -2.1331  0.7437
 5958SOL     OW20252   9.071   9.698   8.709 -0.6672  0.8384  0.5200
 5958SOL    HW120253   9.082   9.702   8.614 -1.4194  1.2577  0.4383
 5958SOL    HW220254   9.019   9.776   8.731 -0.1522  0.9695  1.3316
 5959SOL     OW20255   7.215   2.675   4.525  0.3311 -0.6950 -0.2384
 5959SOL    HW120256   7.128   2.716   4.523  0.9780  0.6980 -0.4924
 5959SOL    HW220257   7.200   2.591   4.568 -1.5068 -1.3696 -2.0215
 5960SOL     OW20258   9.290   3.684   1.121  0.3078 -0.1319  0.1774
 5960SOL    HW120259   9.347   3.608   1.131  0.5132 -0.0801 -0.5038
 5960SOL    HW220260   9.211   3.649   1.080  0.3341 -0.0083  0.0188
 5961SOL     OW20261  10.189   5.815   2.817 -0.0463  0.1925 -0.1628
 5961SOL    HW120262  10.157   5.889   2.766 -0.4915  0.9285  1.1358
 5961SOL    HW220263  10.171   5.839   2.908  2.5131 -0.1799  0.5248
 5962SOL     OW20264   6.612   7.445   7.301  0.2252  0.3496  0.0916
 5962SOL    HW120265   6.573   7.522   7.344 -1.2728  0.0201 -0.6256
 5962SOL    HW220266   6.696   7.477   7.268  0.5900  1.1066  1.6117
 5963SOL     OW20267   6.521  10.460   4.394  0.0825 -0.6598  0.6781
 5963SOL    HW120268   6.483  10.533   4.345  1.4871 -1.6864 -2.1704
 5963SOL    HW220269   6.562  10.501   4.470  0.0621  1.4238 -0.3588
 5964SOL     OW20270   2.420   9.855   9.128  0.0340  0.4138 -0.3793
 5964SOL    HW120271   2.416   9.820   9.217  1.9052 -0.7783 -0.7218
 5964SOL    HW220272   2.332   9.838   9.093 -1.3784  2.6295  1.7860
 5965SOL     OW20273   1.893  10.068   7.882 -0.6214  0.1801  0.0465
 5965SOL    HW120274   1.947  10.104   7.811 -0.1373 -2.2147 -0.8994
 5965SOL    HW220275   1.905  10.130   7.954  0.6412  1.5321 -1.2279
 5966SOL     OW20276   0.996   4.957   9.450 -0.3650 -0.1359 -0.1998
 5966SOL    HW120277   0.919   4.901   9.452 -1.1579  0.9383  1.6506
 5966SOL    HW220278   0.964   5.044   9.474  1.3444  0.4380  0.1820
 5967SOL     OW20279   7.912   6.966   4.891 -0.1950  0.8673 -0.2521
 5967SOL    HW120280   7.857   7.043   4.902  0.3374  1.0052  2.0717
 5967SOL    HW220281   7.941   6.945   4.980  1.0011 -1.0390 -1.0289
 5968SOL     OW20282   7.578   6.810   3.291  1.2377  0.3848 -0.0858
 5968SOL    HW120283   7.614   6.721   3.285  0.8523  0.2328 -0.2129
 5968SOL    HW220284   7.551   6.819   3.382 -2.1590 -1.0347 -0.7526
 5969SOL     OW20285   1.782   4.601   9.900 -0.4484  0.3948 -0.1773
 5969SOL    HW120286   1.736   4.518   9.911 -0.9128  0.5067 -1.1619
 5969SOL    HW220287   1.836   4.588   9.823 -0.6011  1.0439 -0.3938
 5970SOL     OW20288   5.053   1.314   6.768  0.5760 -0.0166  0.1420
 5970SOL    HW120289   4.961   1.294   6.784  0.3964  0.9150  0.3488
 5970SOL    HW220290   5.068   1.285   6.678  1.0189 -3.2884  1.1399
 5971SOL     OW20291   2.975   7.032   3.918 -0.1488  0.0167  0.4850
 5971SOL    HW120292   2.896   7.083   3.899  0.2643  1.3344  2.0672
 5971SOL    HW220293   3.030   7.042   3.840 -1.7908 -1.5469 -0.9665
 5972SOL     OW20294   5.144   6.986   4.529 -0.2819  0.1570 -0.5845
 5972SOL    HW120295   5.154   7.026   4.443  4.3853 -1.8578 -1.2627
 5972SOL    HW220296   5.183   7.049   4.589 -0.3617  0.0765 -0.4487
 5973SOL     OW20297   7.038   3.304   4.629  0.4387  0.0682  0.1610
 5973SOL    HW120298   7.116   3.317   4.575 -0.1619  2.4066 -0.2384
 5973SOL    HW220299   6.966   3.339   4.577 -0.3690  1.1089  1.8910
 5974SOL     OW20300   9.666   0.204   3.484 -0.0713 -0.6242 -0.1718
 5974SOL    HW120301   9.731   0.270   3.511 -1.8015 -0.0234  3.0126
 5974SOL    HW220302   9.708   0.120   3.503  0.2000 -0.2638  0.9369
 5975SOL     OW20303   0.239   9.528   3.354  0.4204 -0.4174  0.2803
 5975SOL    HW120304   0.242   9.519   3.259 -1.2045  0.9624  0.0408
 5975SOL    HW220305   0.256   9.621   3.370  1.9753 -0.8634  1.4671
 5976SOL     OW20306   7.875   7.394   5.830 -0.1889  0.0441  0.0446
 5976SOL    HW120307   7.928   7.418   5.906  1.1801 -1.0293 -0.5192
 5976SOL    HW220308   7.884   7.469   5.771  1.0686 -0.2749 -0.2042
 5977SOL     OW20309   7.110   7.381   7.088  0.4387 -0.5416 -0.3411
 5977SOL    HW120310   7.032   7.387   7.033  0.1261  0.9443  0.2128
 5977SOL    HW220311   7.166   7.453   7.059 -0.2551  1.0749  1.9836
 5978SOL     OW20312  10.397  10.077   0.654  0.0459 -0.1093  0.7654
 5978SOL    HW120313  10.484  10.040   0.644 -0.0796 -0.2892  0.3236
 5978SOL    HW220314  10.394  10.151   0.593 -0.7555 -1.2762 -0.6805
 5979SOL     OW20315   2.778   1.299  10.689  0.4595  0.2821  0.0086
 5979SOL    HW120316   2.818   1.350  10.759 -1.6510  0.7806  0.9476
 5979SOL    HW220317   2.789   1.208  10.716 -1.5562  0.4890  1.8143
 5980SOL     OW20318   2.798  10.598   8.716 -0.1663 -0.4061  0.1986
 5980SOL    HW120319   2.712  10.637   8.732 -0.1797 -0.2419 -0.2507
 5980SOL    HW220320   2.787  10.506   8.739 -0.0997 -0.1403  1.3912
 5981SOL     OW20321   7.805   6.863   5.693  0.4564 -0.8161 -0.0697
 5981SOL    HW120322   7.880   6.843   5.638  0.6782  0.0128 -0.0772
 5981SOL    HW220323   7.738   6.800   5.666  0.5614 -0.4341 -1.2855
 5982SOL     OW20324   9.929  10.771   4.002 -0.5487  0.1197  0.1681
 5982SOL    HW120325   9.993  10.769   3.931  1.7203 -0.9269  2.1036
 5982SOL    HW220326   9.952  10.849   4.053 -0.5826 -0.4337  1.0553
 5983SOL     OW20327   4.223   4.570   9.704 -0.0734 -0.1122  0.2889
 5983SOL    HW120328   4.143   4.523   9.680 -1.1370  1.5705  0.4260
 5983SOL    HW220329   4.227   4.563   9.799  0.1851 -0.5614  0.2472
 5984SOL     OW20330  10.488   9.145   1.434  0.3148 -0.2611 -0.7190
 5984SOL    HW120331  10.446   9.095   1.364  1.0453 -0.6407 -0.8937
 5984SOL    HW220332  10.554   9.085   1.470  0.9415  0.4422 -0.6758
 5985SOL     OW20333   0.236   8.788   7.407 -0.4792  0.7667  0.1765
 5985SOL    HW120334   0.239   8.841   7.327  1.2868  2.3840  1.2353
 5985SOL    HW220335   0.190   8.843   7.471  1.5452  1.1701  1.3533
 5986SOL     OW20336   9.130   0.260   7.836 -0.1515 -0.4121  0.1951
 5986SOL    HW120337   9.133   0.319   7.761 -0.3443  0.1544  0.6203
 5986SOL    HW220338   9.036   0.243   7.849 -0.1113 -0.5951  0.2390
 5987SOL     OW20339   0.207   9.044   3.671 -0.0713  0.3677  0.6132
 5987SOL    HW120340   0.114   9.024   3.681  0.0010 -1.1282 -1.0887
 5987SOL    HW220341   0.241   9.049   3.760 -1.5952 -0.0730  1.2478
 5988SOL     OW20342   5.024   2.474   4.044 -0.1380  0.5660 -0.1407
 5988SOL    HW120343   5.014   2.535   3.971  1.3221  2.1308  0.8994
 5988SOL    HW220344   5.023   2.530   4.122  1.3966 -0.7171  0.8551
 5989SOL     OW20345   0.119   8.556   2.101  0.2966 -0.1709  0.5907
 5989SOL    HW120346   0.120   8.639   2.055 -3.0962 -1.3026 -1.9535
 5989SOL    HW220347   0.174   8.498   2.049  0.4759 -0.2101  0.8199
 5990SOL     OW20348   7.406   6.370   0.139 -0.0573  0.2222  0.0177
 5990SOL    HW120349   7.488   6.337   0.102  0.0012  0.7709 -0.3454
 5990SOL    HW220350   7.347   6.377   0.063 -0.3927 -0.0171  0.2516
 5991SOL     OW20351   0.789   3.055   9.842  0.0090  0.2324  0.0719
 5991SOL    HW120352   0.706   3.023   9.806  0.8143 -1.2818 -0.5069
 5991SOL    HW220353   0.765   3.136   9.887 -1.5113  0.6627 -1.4110
 5992SOL     OW20354   8.894   3.385  10.777 -0.3083 -0.1065 -0.5584
 5992SOL    HW120355   8.841   3.396  10.856  0.4121  0.3448 -0.1258
 5992SOL    HW220356   8.948   3.464  10.774  1.1640 -1.0654 -0.3463
 5993SOL     OW20357   1.695   3.738   8.613 -0.7993  0.0824 -0.1266
 5993SOL    HW120358   1.616   3.683   8.616 -1.4884  0.9222 -1.6133
 5993SOL    HW220359   1.680   3.797   8.540  1.5721 -0.2328 -0.9413
 5994SOL     OW20360   7.430   5.371   0.869 -0.1079 -0.1161  0.2084
 5994SOL    HW120361   7.463   5.436   0.807  0.8233 -0.3078  0.4953
 5994SOL    HW220362   7.393   5.303   0.814 -0.0329  0.1036 -0.1195
 5995SOL     OW20363   2.490   3.901   1.671 -0.1697 -0.2324 -0.2317
 5995SOL    HW120364   2.492   3.951   1.589 -3.0344 -1.9744 -1.5468
 5995SOL    HW220365   2.438   3.954   1.731 -0.6393 -0.2625 -0.6040
 5996SOL     OW20366   4.479   3.041   3.584 -0.2890  0.3147  0.3011
 5996SOL    HW120367   4.447   3.000   3.664  0.6037 -1.5973 -0.2448
 5996SOL    HW220368   4.408   3.028   3.521 -0.4050  0.4817  0.3989
 5997SOL     OW20369   5.728   1.577  10.744 -0.4751  0.0031  0.1370
 5997SOL    HW120370   5.673   1.625  10.682 -1.2041 -0.9760  0.0102
 5997SOL    HW220371   5.722   1.628  10.825  0.4732  1.2849 -0.5584
 5998SOL     OW20372   6.623   2.700   5.735  0.3030 -0.2761 -0.4568
 5998SOL    HW120373   6.715   2.725   5.735  0.4183 -0.6817  0.2743
 5998SOL    HW220374   6.622   2.608   5.709  0.0238 -0.0495 -1.3104
 5999SOL     OW20375   1.595   1.334   5.875  0.0169 -0.1754  0.1657
 5999SOL    HW120376   1.635   1.391   5.810 -0.1472  0.3552  0.5204
 5999SOL    HW220377   1.572   1.392   5.947  2.1180 -1.0244  1.6287
 6000SOL     OW20378   1.155   7.077   8.423  0.0763  0.0884  0.2164
 6000SOL    HW120379   1.235   7.085   8.475  0.3848  0.4967 -0.3170
 6000SOL    HW220380   1.109   7.003   8.462  0.3987  0.2556  0.9446
 6001SOL     OW20381   3.630   2.243   0.799  0.6378  0.3477  0.3972
 6001SOL    HW120382   3.679   2.189   0.738  0.3428  1.1695 -0.5957
 6001SOL    HW220383   3.630   2.330   0.760  1.6478  1.2536  2.2694
 6002SOL     OW20384   2.041   2.553   4.639 -0.2190  0.4693 -0.2387
 6002SOL    HW120385   2.038   2.524   4.548  0.3584 -1.2006  0.2498
 6002SOL    HW220386   1.993   2.487   4.688  0.7163  0.5585  0.8603
 6003SOL     OW20387   4.407   7.531   0.344  0.5223 -0.0894  0.1148
 6003SOL    HW120388   4.405   7.490   0.430  0.3308 -0.2383  0.0413
 6003SOL    HW220389   4.446   7.617   0.358  0.3471 -0.0535  0.3761
 6004SOL     OW20390   8.526   9.397   6.319  0.1911 -0.0564 -0.7062
 6004SOL    HW120391   8.488   9.386   6.406  1.4963  0.6081 -0.0174
 6004SOL    HW220392   8.473   9.341   6.262 -0.9502 -0.1726  0.4293
 6005SOL     OW20393   9.730   9.375   0.375 -0.2107  0.4227  0.1985
 6005SOL    HW120394   9.723   9.341   0.286 -0.2898 -3.8928  1.6296
 6005SOL    HW220395   9.641   9.401   0.398 -0.6270 -0.6077 -0.2244
 6006SOL     OW20396   4.313   7.817   1.799  0.1653 -0.1656  0.0519
 6006SOL    HW120397   4.312   7.889   1.862  2.5233 -1.5974  1.9340
 6006SOL    HW220398   4.249   7.754   1.833  0.0550 -0.1243 -0.0766
 6007SOL     OW20399   2.067   7.523   7.137 -0.2858 -0.1195 -0.1555
 6007SOL    HW120400   2.070   7.612   7.102  0.4388  0.3167  0.9388
 6007SOL    HW220401   2.075   7.535   7.232 -0.6354 -1.3275  0.0406
 6008SOL     OW20402   3.590  10.308   9.921  0.2572 -0.5366  0.0118
 6008SOL    HW120403   3.633  10.292   9.837  0.9750 -0.7229  0.4057
 6008SOL    HW220404   3.568  10.401   9.920  1.2283 -0.2970  0.0478
 6009SOL     OW20405  10.693   0.186   5.767 -0.8454 -0.2775  0.4676
 6009SOL    HW120406  10.762   0.230   5.718 -1.0785  1.6538  1.7731
 6009SOL    HW220407  10.642   0.257   5.806 -2.3812 -1.6917  1.1554
 6010SOL     OW20408   2.118   8.680   3.359 -0.1766  0.1050 -0.5251
 6010SOL    HW120409   2.196   8.673   3.414 -0.2511  0.5834 -0.3617
 6010SOL    HW220410   2.104   8.590   3.327  0.4699  0.0232 -0.5993
 6011SOL     OW20411   4.254   5.170   7.912  0.4821  0.4256 -0.2118
 6011SOL    HW120412   4.334   5.194   7.959 -0.4782 -0.8381  2.2203
 6011SOL    HW220413   4.185   5.222   7.953 -0.3840 -0.6236 -0.2955
 6012SOL     OW20414   7.872   7.312   0.480 -0.4564 -0.2238 -0.1754
 6012SOL    HW120415   7.794   7.314   0.536  0.5707  1.5619  1.3055
 6012SOL    HW220416   7.844   7.354   0.399 -0.8114  1.4191  0.7447
 6013SOL     OW20417   8.727   8.169   7.093 -0.1717  0.0210 -0.0916
 6013SOL    HW120418   8.712   8.257   7.061 -2.7867 -0.9162 -1.8054
 6013SOL    HW220419   8.695   8.170   7.184 -0.0729  0.8434 -0.0648
 6014SOL     OW20420   3.063   9.502   3.028  0.3956  0.1042  0.6280
 6014SOL    HW120421   3.135   9.532   3.083  0.7856  0.4102 -0.0250
 6014SOL    HW220422   3.020   9.583   3.000  0.7800  0.0111 -0.2667
 6015SOL     OW20423   5.532  10.096  10.253 -0.4166 -0.1075  0.5452
 6015SOL    HW120424   5.627  10.087  10.267  0.3888  1.1674 -2.9716
 6015SOL    HW220425   5.505  10.163  10.316  1.7277  1.7904 -0.4118
 6016SOL     OW20426   5.362  10.706  10.287  0.3518 -0.2444 -0.2554
 6016SOL    HW120427   5.409  10.753  10.219  1.9314 -0.6525  0.5211
 6016SOL    HW220428   5.387  10.749  10.369 -0.2409 -0.7761  0.2232
 6017SOL     OW20429   3.890   0.761   8.319 -0.1361 -0.3104 -0.1676
 6017SOL    HW120430   3.958   0.827   8.306  0.7202 -1.0587  0.3932
 6017SOL    HW220431   3.826   0.779   8.250 -0.5092  1.8066  0.6674
 6018SOL     OW20432   7.386   4.002   8.520 -0.8035  0.4829  0.1270
 6018SOL    HW120433   7.385   4.095   8.543  0.2190  0.7451 -0.7655
 6018SOL    HW220434   7.435   3.998   8.438  0.7545 -1.0247  1.0529
 6019SOL     OW20435   3.620   1.115   9.857 -0.7117 -0.3672  0.1831
 6019SOL    HW120436   3.658   1.155   9.935 -0.8119  0.4852 -0.1803
 6019SOL    HW220437   3.680   1.045   9.834 -0.6510 -0.5918  0.9884
 6020SOL     OW20438   0.575   5.562   1.012  0.2817 -0.2048 -0.2177
 6020SOL    HW120439   0.661   5.520   1.009  1.0348  1.2922 -0.5943
 6020SOL    HW220440   0.590   5.649   0.974 -1.4860 -0.0561 -0.6520
 6021SOL     OW20441   4.123   1.389   0.391 -0.2668 -0.0374  0.6444
 6021SOL    HW120442   4.045   1.424   0.435 -0.7176  0.6200 -0.6286
 6021SOL    HW220443   4.195   1.414   0.448 -1.0207 -1.4764  2.3517
 6022SOL     OW20444   0.966   8.068   6.066  0.0761  0.3770  0.9001
 6022SOL    HW120445   0.899   8.024   6.013  1.6312  0.3028 -1.0971
 6022SOL    HW220446   0.950   8.161   6.052  0.9033  0.3533 -0.2939
 6023SOL     OW20447  10.225   7.068  10.449  0.0933  0.6399 -0.0136
 6023SOL    HW120448  10.164   7.126  10.403 -0.0845  0.5413  0.0964
 6023SOL    HW220449  10.170   7.019  10.509  0.3759  1.0358  0.5733
 6024SOL     OW20450   5.059   8.057   2.192  0.1837  0.4051  1.0742
 6024SOL    HW120451   4.985   8.004   2.162  0.9432  0.2842 -0.7058
 6024SOL    HW220452   5.135   8.000   2.182  0.9039  1.5126 -0.0583
 6025SOL     OW20453   1.568   8.440   0.221 -0.0167 -0.4518  0.0362
 6025SOL    HW120454   1.625   8.431   0.298 -0.4070 -0.0785  0.3722
 6025SOL    HW220455   1.479   8.441   0.257 -0.1625  0.7693 -0.3079
 6026SOL     OW20456   8.098   6.028   0.977  0.0187  0.4299  0.5393
 6026SOL    HW120457   8.178   6.080   0.985 -1.1794  2.4226  0.4101
 6026SOL    HW220458   8.039   6.065   1.043 -1.3554  0.1507 -0.4928
 6027SOL     OW20459   0.888   1.807   6.146  0.1067  1.0331 -0.3073
 6027SOL    HW120460   0.924   1.731   6.100 -0.2345  0.3544  0.5202
 6027SOL    HW220461   0.935   1.882   6.109  1.3166  0.3075 -0.2759
 6028SOL     OW20462   3.670   3.203   2.281  0.7179 -0.1400  0.2271
 6028SOL    HW120463   3.587   3.217   2.328  0.0528 -0.6738 -0.7656
 6028SOL    HW220464   3.716   3.287   2.291  0.8097 -0.3642  2.1897
 6029SOL     OW20465   7.488   1.973   4.234 -0.4598  0.6434 -0.0926
 6029SOL    HW120466   7.529   1.955   4.150  1.5802 -0.6748  1.0754
 6029SOL    HW220467   7.394   1.965   4.218 -0.0869 -0.4540 -2.0356
 6030SOL     OW20468   9.483   0.123   8.845  0.2600 -0.1359  0.4696
 6030SOL    HW120469   9.527   0.085   8.769  1.9861  1.8410  0.3898
 6030SOL    HW220470   9.502   0.062   8.916  0.2924 -1.0012 -0.2523
 6031SOL     OW20471   9.389   0.070   4.381 -0.5667  0.2121 -0.1013
 6031SOL    HW120472   9.398   0.162   4.405  0.4745 -0.1142  0.8119
 6031SOL    HW220473   9.302   0.045   4.413 -1.0272  0.9758 -0.7274
 6032SOL     OW20474   8.425   0.536   7.717 -0.1572  0.2833 -0.0272
 6032SOL    HW120475   8.430   0.586   7.635  3.1923 -0.6199 -0.5388
 6032SOL    HW220476   8.455   0.598   7.784  0.7169 -0.0314 -0.1174
 6033SOL     OW20477   9.315   7.602  10.797  0.4141  0.8766  0.1383
 6033SOL    HW120478   9.309   7.529  10.859 -0.2085  1.0058  0.2366
 6033SOL    HW220479   9.357   7.564  10.720  1.0096  0.6671  0.5632
 6034SOL     OW20480   5.684   0.709   1.892 -0.0603 -0.5109  0.3300
 6034SOL    HW120481   5.703   0.779   1.955 -0.2041  0.3880 -0.5967
 6034SOL    HW220482   5.589   0.713   1.880  0.1257  0.3971 -1.1172
 6035SOL     OW20483   5.440   4.720   1.381  0.2417 -0.0745  0.2058
 6035SOL    HW120484   5.455   4.788   1.315  0.5902 -0.3738 -0.0316
 6035SOL    HW220485   5.503   4.651   1.358  1.2263  0.3263  1.5610
 6036SOL     OW20486   9.856   6.733   3.930  0.0473  0.3550  0.1771
 6036SOL    HW120487   9.813   6.762   3.850 -1.4100 -0.6285  0.5576
 6036SOL    HW220488   9.894   6.812   3.968 -1.3862  1.2614 -0.2229
 6037SOL     OW20489   0.815   8.341   5.754 -0.2655 -0.1802 -0.0968
 6037SOL    HW120490   0.854   8.323   5.840  0.6258 -0.3766 -0.5347
 6037SOL    HW220491   0.805   8.436   5.751  0.3677 -0.1059 -0.0502
 6038SOL     OW20492   6.449   8.446  10.638 -0.4636 -0.0587 -0.3310
 6038SOL    HW120493   6.380   8.450  10.704 -0.0058 -2.1226  0.3392
 6038SOL    HW220494   6.531   8.454  10.688 -0.1568  0.3426 -0.8846
 6039SOL     OW20495   2.774   0.922   2.527  0.4619  0.5628  0.3486
 6039SOL    HW120496   2.720   0.961   2.458  4.0423  0.1092 -3.1187
 6039SOL    HW220497   2.743   0.833   2.536  0.1076  0.5312 -1.0014
 6040SOL     OW20498  10.115   4.595   9.720  0.1130  0.1587  0.2764
 6040SOL    HW120499  10.021   4.612   9.718  0.1376  0.6055 -3.2552
 6040SOL    HW220500  10.123   4.502   9.698  0.5253 -0.1260  1.5270
 6041SOL     OW20501   7.016   1.538   7.333  0.1824 -0.6006 -0.0022
 6041SOL    HW120502   7.067   1.521   7.412 -2.1575  1.1164  2.0224
 6041SOL    HW220503   6.974   1.455   7.313  3.2713 -1.9719 -1.5249
 6042SOL     OW20504   5.454   9.368   4.067  0.1162  0.3460 -0.0450
 6042SOL    HW120505   5.518   9.343   4.001  0.2173 -0.9604  0.5131
 6042SOL    HW220506   5.369   9.350   4.025  0.1729 -0.1161  0.0258
 6043SOL     OW20507   8.196   9.879   9.286  0.4260 -0.6627  0.3579
 6043SOL    HW120508   8.214   9.954   9.229 -0.4097 -1.4797 -1.0288
 6043SOL    HW220509   8.154   9.917   9.363  0.9503  0.3899  0.1468
 6044SOL     OW20510   3.704   7.037   9.360  0.2415 -0.4455  1.2580
 6044SOL    HW120511   3.661   7.103   9.306  0.3107 -0.9554  0.5651
 6044SOL    HW220512   3.640   6.966   9.366  1.0106 -1.2632  0.1128
 6045SOL     OW20513   0.467  10.195   9.069  0.1127 -0.2058  0.0355
 6045SOL    HW120514   0.425  10.127   9.017  1.8807 -1.2912 -0.0529
 6045SOL    HW220515   0.426  10.188   9.156 -1.3943  0.2425 -0.6191
 6046SOL     OW20516   5.481   4.845   7.360 -0.2594 -0.3933 -0.2316
 6046SOL    HW120517   5.483   4.930   7.403 -1.1060 -0.3445 -0.2826
 6046SOL    HW220518   5.539   4.855   7.284  0.3235 -0.1329  0.2351
 6047SOL     OW20519   6.897   8.236  10.506 -0.0788  0.4307 -0.3580
 6047SOL    HW120520   6.894   8.314  10.451 -0.7291 -0.1095 -1.1125
 6047SOL    HW220521   6.970   8.185  10.471  0.3675  0.7109  0.1565
 6048SOL     OW20522   2.020   4.292   9.010 -0.3303  0.2671 -0.7285
 6048SOL    HW120523   2.061   4.375   8.987  0.0980 -0.0372 -1.0714
 6048SOL    HW220524   2.038   4.282   9.104 -0.2238  0.4671 -0.7269
 6049SOL     OW20525   4.484   6.929   7.032  0.2086 -0.1175  0.3343
 6049SOL    HW120526   4.498   7.022   7.012  1.5965 -0.3885 -0.0286
 6049SOL    HW220527   4.563   6.885   7.001 -1.2129 -1.7198 -1.2684
 6050SOL     OW20528   8.936   8.861   9.193 -0.0075 -0.9429 -0.5986
 6050SOL    HW120529   9.023   8.895   9.170 -0.9858  1.9779 -0.2913
 6050SOL    HW220530   8.877   8.935   9.180 -1.9871 -1.8319  2.4239
 6051SOL     OW20531   4.667   2.196   5.376  0.3764 -0.0820 -0.5112
 6051SOL    HW120532   4.611   2.149   5.438  0.8092  0.6091  0.4221
 6051SOL    HW220533   4.746   2.217   5.426 -0.1073  2.2986 -0.6318
 6052SOL     OW20534   0.652   1.039   8.252  0.3346 -0.4207 -0.0050
 6052SOL    HW120535   0.631   1.032   8.346  0.3027  0.2861  0.0512
 6052SOL    HW220536   0.675   0.950   8.226  0.0651 -0.6824  0.6088
 6053SOL     OW20537   9.872   1.720   7.197 -0.1198 -0.3074 -0.1003
 6053SOL    HW120538   9.820   1.772   7.136  0.1770  1.3317  0.9834
 6053SOL    HW220539   9.829   1.635   7.198 -3.5191  1.2261  1.5208
 6054SOL     OW20540   8.613   2.858   4.775 -0.0048  0.2104  0.2464
 6054SOL    HW120541   8.699   2.891   4.747  0.9845 -1.9794  0.4940
 6054SOL    HW220542   8.560   2.860   4.696  1.7059 -2.6625 -1.1087
 6055SOL     OW20543   5.264   3.866   7.935  0.0598 -0.5376  0.0532
 6055SOL    HW120544   5.324   3.921   7.884  0.4968 -1.4076 -0.3989
 6055SOL    HW220545   5.311   3.849   8.016  0.6359 -1.5805 -0.4796
 6056SOL     OW20546   4.996   8.499   3.143  0.4585 -0.1201 -0.1235
 6056SOL    HW120547   4.924   8.438   3.128 -0.8668  1.5941 -1.1767
 6056SOL    HW220548   5.001   8.550   3.062  0.3686  2.2690  1.2819
 6057SOL     OW20549   8.243   9.015   4.722  0.6381  0.1212 -0.1314
 6057SOL    HW120550   8.293   8.991   4.799  1.0369 -3.8088 -1.4121
 6057SOL    HW220551   8.154   9.032   4.755  1.4633  1.5843  1.4595
 6058SOL     OW20552   9.919   7.784   7.974  0.0746 -0.3958 -0.1025
 6058SOL    HW120553   9.882   7.809   8.058 -0.2678 -0.9294 -0.0932
 6058SOL    HW220554   9.919   7.864   7.923  1.9208  0.3734  0.9872
 6059SOL     OW20555   6.771   5.414   8.140 -0.0806  0.0648  0.2929
 6059SOL    HW120556   6.696   5.432   8.082  0.4334 -0.1500 -0.4543
 6059SOL    HW220557   6.805   5.330   8.110  0.2881  0.0184  0.8218
 6060SOL     OW20558   4.615   4.463   9.827 -0.4973  0.1786  0.4873
 6060SOL    HW120559   4.609   4.401   9.899 -0.0877 -2.2921 -1.4464
 6060SOL    HW220560   4.668   4.418   9.761 -1.5067  1.9552 -1.6898
 6061SOL     OW20561  10.323  10.121   2.433  0.0366 -0.0490  0.2317
 6061SOL    HW120562  10.291  10.124   2.523  1.4350  0.5166  0.7457
 6061SOL    HW220563  10.263  10.176   2.384 -0.0711  0.5766  1.0435
 6062SOL     OW20564   3.330   8.457   0.079  0.7256 -0.4157  0.6654
 6062SOL    HW120565   3.424   8.468   0.092  0.7673 -0.8912  0.7818
 6062SOL    HW220566   3.290   8.517   0.142  0.9467  1.1915 -0.6628
 6063SOL     OW20567   8.078   9.710   6.681  0.0938 -0.5429  0.3275
 6063SOL    HW120568   8.081   9.789   6.628 -0.8474 -0.6928  0.0204
 6063SOL    HW220569   8.151   9.657   6.650 -0.4194 -0.6095 -0.8113
 6064SOL     OW20570   8.097   8.689   2.177  0.4334 -0.0387 -0.4538
 6064SOL    HW120571   8.160   8.734   2.234  0.2561 -2.1435  1.5474
 6064SOL    HW220572   8.047   8.759   2.136  0.8030  1.6119  1.7583
 6065SOL     OW20573   0.584   1.645   0.740  0.5968 -0.2270 -0.1773
 6065SOL    HW120574   0.502   1.604   0.767  1.1221 -1.6253 -0.5715
 6065SOL    HW220575   0.592   1.621   0.647  1.0514  0.5859 -0.3537
 6066SOL     OW20576   5.386   8.862   2.527  0.3492  0.1484  0.0809
 6066SOL    HW120577   5.405   8.851   2.433 -2.2794  0.8400 -0.6193
 6066SOL    HW220578   5.400   8.955   2.544 -0.7366  0.3505 -0.0616
 6067SOL     OW20579   5.853  10.428   8.017 -0.1863  0.1990 -0.3215
 6067SOL    HW120580   5.777  10.443   8.074 -1.0967  0.5837 -1.5780
 6067SOL    HW220581   5.904  10.509   8.024 -0.6791  0.5403 -0.6039
 6068SOL     OW20582   6.581   4.096   5.416  0.0186  0.3583  0.2526
 6068SOL    HW120583   6.599   4.005   5.440 -1.0096  0.5602  2.0377
 6068SOL    HW220584   6.487   4.098   5.397 -0.5339  1.4199  2.6093
 6069SOL     OW20585   7.835   3.702   9.797 -0.0636  0.0205  0.0474
 6069SOL    HW120586   7.792   3.636   9.852  0.4978  0.2045  0.7216
 6069SOL    HW220587   7.925   3.672   9.788 -0.5156 -0.8657 -2.1649
 6070SOL     OW20588   3.707  10.025   2.524 -0.5759  0.1713 -0.5380
 6070SOL    HW120589   3.778  10.046   2.585 -1.3395  0.7615  0.1693
 6070SOL    HW220590   3.696  10.104   2.472 -0.5370 -0.0189 -0.8385
 6071SOL     OW20591   7.464   9.150   9.180 -0.5477  0.2897 -0.8495
 6071SOL    HW120592   7.466   9.222   9.243 -2.0990 -0.1833 -0.2065
 6071SOL    HW220593   7.554   9.142   9.149 -0.0557  1.5141  0.1915
 6072SOL     OW20594   4.190   3.235   8.379 -0.1355 -0.1652  0.1540
 6072SOL    HW120595   4.207   3.165   8.316  1.2931  0.2202  0.0776
 6072SOL    HW220596   4.271   3.286   8.381 -0.4626  0.3556  1.6441
 6073SOL     OW20597  10.581   8.849   9.894  0.6476  0.0958 -0.1993
 6073SOL    HW120598  10.634   8.894   9.829 -0.1967  2.9565  0.9131
 6073SOL    HW220599  10.630   8.858   9.976 -0.4057  0.7135  0.3927
 6074SOL     OW20600   6.563  10.020   2.294 -1.0000  0.1474  0.3378
 6074SOL    HW120601   6.467  10.021   2.294 -1.0399  0.4718  1.9899
 6074SOL    HW220602   6.586   9.955   2.361 -0.0695  0.1275  0.0090
 6075SOL     OW20603   1.227   8.253   8.347  0.1191  0.6920  0.4197
 6075SOL    HW120604   1.241   8.164   8.379 -1.2663  0.5535  0.7024
 6075SOL    HW220605   1.183   8.241   8.262 -0.3494  1.1047  0.5995
 6076SOL     OW20606   4.697   1.610   2.270  0.2600  0.0419  0.0591
 6076SOL    HW120607   4.606   1.627   2.246  0.2743  1.0135  0.6258
 6076SOL    HW220608   4.738   1.579   2.190 -0.6273 -0.6731 -0.1376
 6077SOL     OW20609   0.405   1.857   1.484 -0.0599 -0.2179  0.4345
 6077SOL    HW120610   0.404   1.822   1.573 -1.8546 -0.2087  0.4572
 6077SOL    HW220611   0.453   1.791   1.433  0.1679 -0.6831  1.2279
 6078SOL     OW20612   4.747   4.241   9.585  0.3792 -0.5003 -0.3352
 6078SOL    HW120613   4.804   4.169   9.557  0.7093 -1.1779  1.9115
 6078SOL    HW220614   4.664   4.199   9.606 -0.3316  0.2026 -1.6016
 6079SOL     OW20615   6.978   9.297   7.636  0.2843 -0.3603  0.1731
 6079SOL    HW120616   7.040   9.229   7.611  0.4192 -0.4786  0.7931
 6079SOL    HW220617   6.928   9.258   7.708  0.6344  0.3358  0.8065
 6080SOL     OW20618   0.618   9.164   8.602  0.1640 -0.7639  0.1257
 6080SOL    HW120619   0.598   9.189   8.692 -0.3898 -0.7426 -0.0016
 6080SOL    HW220620   0.698   9.111   8.610  0.7341  0.1390  0.5070
 6081SOL     OW20621   7.024   6.962   2.151 -0.7086 -0.1735 -0.7643
 6081SOL    HW120622   7.078   6.912   2.212 -0.6859 -0.3871 -0.9601
 6081SOL    HW220623   7.085   6.998   2.087 -0.8048 -0.4683 -1.0232
 6082SOL     OW20624   7.948   7.163   7.408 -0.6955 -0.3986  0.1964
 6082SOL    HW120625   7.855   7.180   7.395 -0.5954 -0.9426 -1.5007
 6082SOL    HW220626   7.953   7.120   7.494 -2.3353 -2.5444 -0.6798
 6083SOL     OW20627   8.067   9.179   8.571 -0.3855  0.1481  0.3281
 6083SOL    HW120628   8.008   9.239   8.617  0.0271  0.6523  0.2145
 6083SOL    HW220629   8.154   9.209   8.594 -0.1359  1.1015 -1.6144
 6084SOL     OW20630   9.212   8.076   1.270  0.1287 -0.5189  0.4624
 6084SOL    HW120631   9.305   8.054   1.259  0.2436 -0.0548  0.4869
 6084SOL    HW220632   9.210   8.135   1.345 -0.2909 -1.1956  0.9980
 6085SOL     OW20633  10.500   6.938  10.304 -0.3734 -0.1107  0.4193
 6085SOL    HW120634  10.584   6.971  10.271 -0.4486  1.8322  1.9888
 6085SOL    HW220635  10.495   6.848  10.270  1.4086  0.3657 -1.3299
 6086SOL     OW20636   4.945   3.534   5.378 -0.4129 -0.2029 -0.0179
 6086SOL    HW120637   4.875   3.583   5.421  0.9547  1.0364  0.9033
 6086SOL    HW220638   5.015   3.531   5.443  1.0263  0.0836 -1.4852
 6087SOL     OW20639   1.052   0.018   5.644 -0.5441 -0.1056  0.3729
 6087SOL    HW120640   1.055  -0.027   5.729  0.7238  1.5420  1.2566
 6087SOL    HW220641   0.966   0.060   5.641 -0.3020  0.4648  1.2078
 6088SOL     OW20642   2.224   9.336   7.034 -0.7731  0.2356 -0.2287
 6088SOL    HW120643   2.226   9.353   6.940 -2.2679  0.6136 -0.2210
 6088SOL    HW220644   2.312   9.356   7.064 -0.0639 -0.5928 -1.6609
 6089SOL     OW20645   0.183  10.345   7.353  0.7053 -0.0941  0.2573
 6089SOL    HW120646   0.188  10.429   7.306 -1.9789 -0.1746 -0.3281
 6089SOL    HW220647   0.129  10.364   7.430 -0.2102 -1.3120 -0.0550
 6090SOL     OW20648   2.817   8.624   1.558 -0.1694 -0.4230  0.3127
 6090SOL    HW120649   2.793   8.537   1.526 -0.1989  0.1304 -1.2499
 6090SOL    HW220650   2.882   8.607   1.626 -0.1452 -1.6726  0.0027
 6091SOL     OW20651   9.343   0.360   0.555  0.5606 -0.1257 -0.3418
 6091SOL    HW120652   9.359   0.417   0.479  0.2243 -1.0280 -1.1107
 6091SOL    HW220653   9.258   0.388   0.588  1.6051  1.6638  1.0053
 6092SOL     OW20654   7.213   8.470   0.725 -0.8601  0.4789  0.3231
 6092SOL    HW120655   7.290   8.464   0.669 -1.4822  0.0378 -0.5023
 6092SOL    HW220656   7.152   8.526   0.677 -1.7967 -0.7242  0.0681
 6093SOL     OW20657   4.029  10.314   1.654  0.1043 -0.2964 -0.1132
 6093SOL    HW120658   4.107  10.353   1.615 -0.4653  0.8621 -0.1659
 6093SOL    HW220659   3.988  10.387   1.701 -0.2750 -1.1882  0.9789
 6094SOL     OW20660   0.926   9.256   9.158 -0.1210  0.4334 -0.2087
 6094SOL    HW120661   0.849   9.300   9.194 -0.2067  1.6110 -1.7344
 6094SOL    HW220662   1.000   9.299   9.201 -0.2552 -1.2032  1.8214
 6095SOL     OW20663   0.526   5.826   2.787 -0.2188  0.2451  0.2382
 6095SOL    HW120664   0.439   5.788   2.795  0.0470 -0.3090  0.5384
 6095SOL    HW220665   0.565   5.779   2.713 -1.1035  2.3176 -1.6684
 6096SOL     OW20666   3.042   3.983  10.231  1.3478 -0.3294  0.8268
 6096SOL    HW120667   3.028   3.957  10.140 -1.9909 -0.0236  1.1257
 6096SOL    HW220668   3.022   3.905  10.282  1.0998  0.0660  1.3472
 6097SOL     OW20669  10.557   9.304   6.586 -0.4595  0.0159 -0.4172
 6097SOL    HW120670  10.476   9.331   6.541  0.6345  1.0182 -1.8797
 6097SOL    HW220671  10.527   9.270   6.671 -2.4411 -0.0483 -1.0840
 6098SOL     OW20672   0.776   0.766   8.314 -0.7610  0.0512 -0.1147
 6098SOL    HW120673   0.734   0.681   8.326  0.1304 -0.2034  1.5078
 6098SOL    HW220674   0.845   0.768   8.380 -1.0119  2.2015  0.1524
 6099SOL     OW20675   7.958   1.557   8.196 -0.1388  0.5143  0.3017
 6099SOL    HW120676   7.907   1.487   8.155  1.1036 -2.1452  2.9794
 6099SOL    HW220677   7.953   1.539   8.289  3.2038  1.8949  0.8723
 6100SOL     OW20678   9.497   3.662   0.365 -0.4575 -0.2291  0.3952
 6100SOL    HW120679   9.500   3.567   0.379 -0.1429 -0.1663  0.7785
 6100SOL    HW220680   9.526   3.699   0.448 -2.1267  0.2515  0.8026
 6101SOL     OW20681   9.767   7.836   5.702 -0.0914  0.0250 -0.1333
 6101SOL    HW120682   9.788   7.928   5.684  0.9954 -0.3801 -1.1184
 6101SOL    HW220683   9.811   7.818   5.785 -0.7486  0.5254  0.3339
 6102SOL     OW20684   0.532   2.679   6.644  0.1030 -0.4518  0.0679
 6102SOL    HW120685   0.618   2.668   6.604 -0.1549 -0.1473 -0.5806
 6102SOL    HW220686   0.482   2.729   6.580 -0.3797 -0.1261  0.6827
 6103SOL     OW20687   9.175   0.734   9.515  0.0920 -0.2911 -0.2337
 6103SOL    HW120688   9.190   0.731   9.420  3.1541 -0.6873  0.1484
 6103SOL    HW220689   9.225   0.660   9.549  1.1748  1.3126  1.8960
 6104SOL     OW20690   7.453  10.233   1.021  0.3684 -1.0102 -0.4187
 6104SOL    HW120691   7.534  10.279   1.046  0.0991 -0.3261 -0.7931
 6104SOL    HW220692   7.456  10.151   1.071  0.6396 -0.3900  0.6087
 6105SOL     OW20693   6.186   2.202   8.123  0.1178 -0.0162  0.1412
 6105SOL    HW120694   6.230   2.206   8.037  0.7894 -1.6067  0.3727
 6105SOL    HW220695   6.097   2.175   8.102  0.1208  0.1608 -0.1075
 6106SOL     OW20696   0.374   6.186   5.811 -0.5515 -0.0804 -0.1899
 6106SOL    HW120697   0.431   6.263   5.808 -1.3359  0.5082 -0.3490
 6106SOL    HW220698   0.377   6.158   5.902  1.2726 -1.0613 -0.5023
 6107SOL     OW20699   5.644   3.494   9.081 -0.1913  0.4297 -0.5069
 6107SOL    HW120700   5.650   3.487   8.986 -2.7206  1.8028 -0.8545
 6107SOL    HW220701   5.552   3.474   9.101  0.2258  0.4006  1.6080
 6108SOL     OW20702   7.861   8.862   9.419 -0.0639  0.3528 -0.1516
 6108SOL    HW120703   7.835   8.770   9.419  1.1625 -0.0442 -1.8274
 6108SOL    HW220704   7.782   8.909   9.446 -1.2098 -1.0907 -0.8427
 6109SOL     OW20705   0.456   9.982   1.026 -0.2090  0.2421  0.6779
 6109SOL    HW120706   0.407  10.051   1.071 -0.1943  0.2736  0.6460
 6109SOL    HW220707   0.539  10.023   1.001 -0.2025  0.2146  0.6544
 6110SOL     OW20708   0.505   2.894   4.436  0.0088 -0.1311  0.4212
 6110SOL    HW120709   0.494   2.872   4.344  0.0464  0.1320  0.3513
 6110SOL    HW220710   0.598   2.918   4.444  0.4063 -1.7290  0.8727
 6111SOL     OW20711   0.277   7.322   2.912 -0.1023  0.0754 -0.1821
 6111SOL    HW120712   0.328   7.391   2.955 -1.6013  1.0210  0.1530
 6111SOL    HW220713   0.301   7.329   2.820  2.1753 -1.1277  0.2426
 6112SOL     OW20714   2.499   0.516   3.068  0.1905 -0.2523  0.0632
 6112SOL    HW120715   2.510   0.430   3.109  0.4129  0.1449  0.8579
 6112SOL    HW220716   2.431   0.559   3.121 -0.8295 -0.4015 -1.0942
 6113SOL     OW20717   7.890   3.307   3.978  0.2098 -0.2651 -0.2393
 6113SOL    HW120718   7.862   3.246   3.910 -1.3353 -0.7081  0.7434
 6113SOL    HW220719   7.883   3.258   4.060  1.1017  0.5520  0.3615
 6114SOL     OW20720   8.160  10.447  10.211  0.2686 -0.3832 -0.7866
 6114SOL    HW120721   8.174  10.439  10.116 -0.0639  1.4425 -1.0257
 6114SOL    HW220722   8.227  10.508  10.240 -1.0326  0.8587 -0.2643
 6115SOL     OW20723   8.769   5.101   5.829 -0.3143  0.3634  0.2929
 6115SOL    HW120724   8.845   5.053   5.795 -0.3938 -1.0992  2.0016
 6115SOL    HW220725   8.775   5.187   5.789  2.9727  0.7608  1.2674
 6116SOL     OW20726   3.299   1.659   0.380  0.3179 -0.9181 -0.3765
 6116SOL    HW120727   3.343   1.741   0.400 -0.2892 -0.5502 -0.5193
 6116SOL    HW220728   3.297   1.612   0.463  1.3719 -1.1431 -0.4649
 6117SOL     OW20729   3.453   0.956   2.299  0.6738 -0.3498 -0.2147
 6117SOL    HW120730   3.464   1.029   2.239 -1.4764  0.7954  0.6655
 6117SOL    HW220731   3.487   0.988   2.382  0.7050 -0.7460 -0.0715
 6118SOL     OW20732   5.553   3.335   5.965 -0.4622  0.1013 -0.1956
 6118SOL    HW120733   5.619   3.405   5.961 -1.7564  1.3195 -1.1251
 6118SOL    HW220734   5.579   3.273   5.898 -0.6492  0.9640 -1.0925
 6119SOL     OW20735   0.456   4.423   5.050  0.2344 -0.3126  0.2361
 6119SOL    HW120736   0.453   4.351   5.112  0.0713  0.1720  0.8073
 6119SOL    HW220737   0.440   4.501   5.103 -1.8691 -0.0472 -0.6895
 6120SOL     OW20738   3.399   2.579   9.563 -0.2377 -0.0531 -0.3132
 6120SOL    HW120739   3.320   2.617   9.525 -0.1522  2.5228  1.7405
 6120SOL    HW220740   3.471   2.632   9.527  0.7892 -2.8044 -2.7166
 6121SOL     OW20741  10.663   4.485   7.300 -0.3772  0.1801 -0.0858
 6121SOL    HW120742  10.680   4.482   7.395 -1.8203 -3.7469  0.2582
 6121SOL    HW220743  10.568   4.499   7.293 -1.3526 -4.6224 -0.4186
 6122SOL     OW20744   2.914   3.357   1.153 -0.3454  0.0700 -0.2979
 6122SOL    HW120745   3.002   3.372   1.187  0.0553 -0.5407 -1.0567
 6122SOL    HW220746   2.874   3.444   1.151  0.0086  0.2640  0.6618
 6123SOL     OW20747   6.786   4.060   8.216 -0.2166  0.6109  0.6250
 6123SOL    HW120748   6.835   4.119   8.274 -1.3701  0.9766  1.2525
 6123SOL    HW220749   6.809   3.973   8.247  2.6267  0.5631 -1.2053
 6124SOL     OW20750   8.175  10.477   3.854  0.2107 -0.0907 -0.1867
 6124SOL    HW120751   8.167  10.417   3.928 -2.3347 -0.3020 -0.5428
 6124SOL    HW220752   8.097  10.460   3.801  0.5758  1.9697 -1.4884
 6125SOL     OW20753   5.634  10.639   6.827  0.0515 -0.3027  0.1080
 6125SOL    HW120754   5.548  10.636   6.784 -0.2842 -1.7716  0.8154
 6125SOL    HW220755   5.697  10.623   6.757 -0.2719  0.3398 -0.3407
 6126SOL     OW20756   9.190   8.147   7.856 -0.2699  0.3470  0.2803
 6126SOL    HW120757   9.143   8.064   7.843 -1.4604  1.1155 -0.4821
 6126SOL    HW220758   9.141   8.190   7.926  0.4267  0.3591  0.7639
 6127SOL     OW20759   0.478  10.765   5.183  0.3498  0.0151  0.4629
 6127SOL    HW120760   0.514  10.853   5.189  1.9728 -0.6098  0.2405
 6127SOL    HW220761   0.538  10.718   5.126 -1.6825 -0.6711 -1.2169
 6128SOL     OW20762   4.019   5.272   7.571  0.3025  0.0654 -0.3958
 6128SOL    HW120763   3.953   5.226   7.623  0.4472 -1.4545 -1.4781
 6128SOL    HW220764   3.974   5.297   7.491  0.7114  0.1354 -0.6096
 6129SOL     OW20765   3.210   7.940  10.324 -0.1941  0.0606  0.3141
 6129SOL    HW120766   3.237   7.876  10.389  0.3735 -0.2382 -0.1970
 6129SOL    HW220767   3.202   7.890  10.243 -0.6423  0.4701  0.1016
 6130SOL     OW20768   4.897   4.847   0.609 -0.4856 -0.0313  0.4003
 6130SOL    HW120769   4.830   4.915   0.595 -0.4239 -0.1081 -0.2827
 6130SOL    HW220770   4.949   4.848   0.529  0.8656  0.6131  1.2490
 6131SOL     OW20771   4.935   9.711   7.099  0.1684 -0.1085 -0.3030
 6131SOL    HW120772   4.981   9.758   7.030  0.2533 -1.5341 -1.2564
 6131SOL    HW220773   4.919   9.624   7.063 -3.9433  0.4468 -0.4001
 6132SOL     OW20774   6.533   2.357   4.206  0.6695 -0.0303 -0.1125
 6132SOL    HW120775   6.491   2.337   4.290  0.2937 -0.9242 -0.5032
 6132SOL    HW220776   6.462   2.354   4.142  0.4862  3.0655 -0.1732
 6133SOL     OW20777   5.829   7.117   5.736 -0.3065  0.1550  0.1956
 6133SOL    HW120778   5.887   7.165   5.677  0.5932 -0.4025  0.6119
 6133SOL    HW220779   5.800   7.183   5.799  0.2200  0.3510  0.2393
 6134SOL     OW20780   0.659   6.907   6.026 -0.2862  0.4060 -0.3849
 6134SOL    HW120781   0.746   6.926   5.991 -0.6802  0.8426 -1.1573
 6134SOL    HW220782   0.606   6.891   5.948 -0.6914 -0.7549  0.1265
 6135SOL     OW20783   7.053   7.863   2.594 -0.2113 -0.1202 -0.0352
 6135SOL    HW120784   7.100   7.782   2.575  0.0381 -0.0859  0.4242
 6135SOL    HW220785   6.968   7.852   2.550  0.1327 -0.2760 -0.6701
 6136SOL     OW20786   3.962   4.722   9.362 -0.1430 -0.1622 -0.3059
 6136SOL    HW120787   3.954   4.755   9.273  0.1026 -2.5575 -1.3059
 6136SOL    HW220788   3.981   4.799   9.416  1.8274  1.0890 -2.6280
 6137SOL     OW20789   9.903   7.362  10.604  0.0827 -0.2638 -0.3320
 6137SOL    HW120790   9.851   7.438  10.631 -1.0678 -2.3173  4.0692
 6137SOL    HW220791   9.990   7.397  10.586 -1.3843  2.5614 -2.8574
 6138SOL     OW20792   8.436  10.548   5.280  0.5833 -0.0834  0.1152
 6138SOL    HW120793   8.453  10.635   5.316 -1.8116 -1.1867  4.5544
 6138SOL    HW220794   8.516  10.498   5.300  0.4932  0.1391  1.0405
 6139SOL     OW20795   1.000   9.778   3.174  0.7277  0.0718 -0.1775
 6139SOL    HW120796   0.996   9.866   3.210 -1.0841  0.3962 -1.0477
 6139SOL    HW220797   1.054   9.729   3.236 -0.5883  1.0869  1.8867
 6140SOL     OW20798   0.322   5.577   1.163 -0.3408  0.0536  0.4721
 6140SOL    HW120799   0.264   5.518   1.115 -0.1662  1.1118 -1.1359
 6140SOL    HW220800   0.400   5.583   1.108  0.3092  0.4962  1.4302
 6141SOL     OW20801   7.708   7.708   2.505  0.2367  0.1271  0.2935
 6141SOL    HW120802   7.795   7.746   2.497 -0.1281  0.6924 -1.3418
 6141SOL    HW220803   7.713   7.627   2.454  0.2581 -0.7225  1.5941
 6142SOL     OW20804   4.486   0.573   0.299  0.6722  0.3383 -0.1726
 6142SOL    HW120805   4.403   0.612   0.273  0.2945  0.3910  1.0690
 6142SOL    HW220806   4.467   0.480   0.310  0.4464  0.5461  1.3625
 6143SOL     OW20807   9.281   0.415   5.765 -0.6230  0.3698 -0.4545
 6143SOL    HW120808   9.304   0.507   5.760 -0.9755  0.5556  0.8119
 6143SOL    HW220809   9.190   0.414   5.794 -1.1172 -0.3802 -1.9245
 6144SOL     OW20810   8.791   3.562   2.374  0.5862  0.4558  0.1797
 6144SOL    HW120811   8.744   3.608   2.443  0.2450 -0.0228  0.2696
 6144SOL    HW220812   8.766   3.470   2.384  0.4812  0.3874 -0.6188
 6145SOL     OW20813  10.009   5.660   2.636  0.7971  0.3537 -0.2572
 6145SOL    HW120814   9.936   5.690   2.689  1.1079 -1.5940  1.3709
 6145SOL    HW220815  10.085   5.669   2.692  1.3632 -0.3489 -0.8918
 6146SOL     OW20816   9.295   6.327   2.528  0.5497  0.1726 -0.2869
 6146SOL    HW120817   9.322   6.295   2.614  1.5385  0.4921 -0.4678
 6146SOL    HW220818   9.296   6.250   2.472  1.1063  0.1806 -0.2912
 6147SOL     OW20819   4.949   6.611   8.946 -0.2415  0.1408 -0.4894
 6147SOL    HW120820   4.862   6.609   8.907  0.3247 -0.1989 -1.7861
 6147SOL    HW220821   4.960   6.702   8.975 -0.7526  0.3608 -0.9660
 6148SOL     OW20822   7.880   4.010   1.178 -0.0588 -0.4343 -0.5893
 6148SOL    HW120823   7.818   4.063   1.228  0.3499  1.0608 -1.5842
 6148SOL    HW220824   7.832   3.931   1.156 -1.1646  0.1133 -0.2140
 6149SOL     OW20825   3.437   6.029   5.386 -0.0847  0.0686  0.5716
 6149SOL    HW120826   3.454   6.122   5.376 -0.9319  0.2326  0.6022
 6149SOL    HW220827   3.354   6.024   5.434  0.9835 -0.7046  2.4537
 6150SOL     OW20828  10.126   0.560   7.711 -0.2875 -0.8500  0.3661
 6150SOL    HW120829  10.121   0.632   7.648 -0.6698 -0.9528  0.2739
 6150SOL    HW220830  10.218   0.535   7.712 -0.2998 -0.9355 -0.2564
 6151SOL     OW20831   0.649   1.523   5.818  0.1552 -0.6622 -0.1465
 6151SOL    HW120832   0.660   1.485   5.731  0.2354 -0.1816 -0.3486
 6151SOL    HW220833   0.692   1.609   5.813 -0.3822 -0.3676  0.1853
 6152SOL     OW20834   9.193   7.384   2.089  0.0244  0.0923 -0.6459
 6152SOL    HW120835   9.109   7.416   2.120  0.6660  0.5501  0.6875
 6152SOL    HW220836   9.224   7.451   2.027  0.0839  0.6819  0.0095
 6153SOL     OW20837   5.448   2.381  10.275  0.2413 -0.3278  0.7858
 6153SOL    HW120838   5.447   2.408  10.367  0.0030 -1.8414  1.2658
 6153SOL    HW220839   5.492   2.296  10.275 -0.1013 -0.5376 -0.4408
 6154SOL     OW20840   1.617   1.679   2.770 -0.7216 -0.2358 -0.2157
 6154SOL    HW120841   1.545   1.623   2.800 -0.6194 -0.3947 -0.2650
 6154SOL    HW220842   1.633   1.739   2.843 -0.7427 -0.3594 -0.1094
 6155SOL     OW20843   2.871   4.438   1.816  0.0298  0.2468 -0.0275
 6155SOL    HW120844   2.806   4.410   1.880  0.5981  0.5607  0.6948
 6155SOL    HW220845   2.930   4.363   1.807 -1.1726 -0.5712 -1.7170
 6156SOL     OW20846   1.928   1.582   8.012  0.7485  0.7824  0.2095
 6156SOL    HW120847   1.949   1.518   7.943 -2.0316 -1.3405  1.1561
 6156SOL    HW220848   1.848   1.625   7.981 -1.9576 -1.8641  2.8969
 6157SOL     OW20849   3.048   9.779   5.752  0.3400 -0.4079  0.6168
 6157SOL    HW120850   3.037   9.703   5.695  0.3061 -0.3326  0.5203
 6157SOL    HW220851   2.973   9.775   5.811 -0.8014  0.6435 -0.6739
 6158SOL     OW20852   3.796   5.238   9.115 -0.4110 -0.2611  0.2267
 6158SOL    HW120853   3.821   5.239   9.023  0.2902  2.2615  0.3742
 6158SOL    HW220854   3.868   5.192   9.159  0.9758  1.4689 -0.1262
 6159SOL     OW20855   4.345   2.228   2.433  0.0821  0.2649 -0.0710
 6159SOL    HW120856   4.321   2.139   2.409 -0.5973 -0.3158  2.4492
 6159SOL    HW220857   4.415   2.217   2.497 -0.7954  1.4505  1.1401
 6160SOL     OW20858   0.741   4.808   1.467 -0.1681  0.1693  0.8413
 6160SOL    HW120859   0.831   4.837   1.452  1.0084 -4.4017 -3.8048
 6160SOL    HW220860   0.742   4.773   1.557  2.7496  0.1090  0.8986
 6161SOL     OW20861   8.094   4.727   4.321  0.3684 -0.3001 -0.0189
 6161SOL    HW120862   8.178   4.705   4.361  0.1209 -0.1635  0.5946
 6161SOL    HW220863   8.042   4.763   4.393  0.6734  2.1288 -0.9039
 6162SOL     OW20864   4.056   2.560   1.150  0.4438 -0.6225 -0.0768
 6162SOL    HW120865   4.107   2.582   1.072  0.5962  0.7491  0.3805
 6162SOL    HW220866   4.120   2.555   1.220  0.0472  0.3372  0.3610
 6163SOL     OW20867   2.090   0.886   9.014 -0.1076  0.4366 -0.2024
 6163SOL    HW120868   2.169   0.938   9.005 -0.1515  0.7800  1.1095
 6163SOL    HW220869   2.095   0.851   9.104 -0.5704 -0.9992 -0.6975
 6164SOL     OW20870   3.299   1.180   1.152  0.3229 -0.2150  0.4243
 6164SOL    HW120871   3.379   1.192   1.101  0.1695  2.2712  0.6422
 6164SOL    HW220872   3.269   1.092   1.130  0.8618  0.3131 -2.9093
 6165SOL     OW20873   7.510   7.208   8.836 -0.0039 -0.1562  0.0956
 6165SOL    HW120874   7.475   7.163   8.912 -0.2571 -0.3022 -0.1070
 6165SOL    HW220875   7.446   7.277   8.818 -0.0963 -0.3098 -0.1660
 6166SOL     OW20876   9.226   3.084   8.001  0.4350 -0.2378  0.0479
 6166SOL    HW120877   9.320   3.067   7.992  0.2695 -1.5371  0.4784
 6166SOL    HW220878   9.186   2.998   7.988 -0.6583  0.2212  0.3252
 6167SOL     OW20879   5.376   3.906   4.298 -0.5772  0.1371 -0.6404
 6167SOL    HW120880   5.454   3.959   4.311 -0.3258 -0.5816  0.9406
 6167SOL    HW220881   5.357   3.868   4.384 -2.8638  0.5410 -0.9060
 6168SOL     OW20882   6.444   3.898   3.079 -0.2857  0.3089  0.2415
 6168SOL    HW120883   6.373   3.850   3.036 -0.1661 -0.0558  0.4539
 6168SOL    HW220884   6.403   3.980   3.107 -0.4263  0.4413 -0.3406
 6169SOL     OW20885   3.617   1.537   3.800  0.2459  0.2796 -0.0228
 6169SOL    HW120886   3.699   1.531   3.848  0.4739  1.4343 -0.2388
 6169SOL    HW220887   3.607   1.451   3.758 -0.1479 -0.9324  2.3436
 6170SOL     OW20888   5.536   5.418   3.584 -0.6711  0.2561 -0.2700
 6170SOL    HW120889   5.577   5.348   3.634 -1.3605 -0.5498 -0.8031
 6170SOL    HW220890   5.451   5.382   3.558 -1.4019  1.6090  0.1741
 6171SOL     OW20891   9.809  10.730   4.308  0.2653 -0.0287  0.2086
 6171SOL    HW120892   9.858  10.652   4.282  0.3649  0.1651 -0.1879
 6171SOL    HW220893   9.720  10.715   4.275  0.9985  1.4095 -2.7586
 6172SOL     OW20894  10.240   4.366   4.963  0.3426  0.1742  0.4009
 6172SOL    HW120895  10.264   4.287   4.915 -0.3817 -1.5364  2.6479
 6172SOL    HW220896  10.183   4.414   4.904  2.4937  0.1505 -1.8398
 6173SOL     OW20897  10.774   5.668   7.968  0.1357  0.0823 -0.2679
 6173SOL    HW120898  10.713   5.727   8.013 -1.1334 -0.9188 -0.5910
 6173SOL    HW220899  10.719   5.621   7.905  1.1104 -1.3540 -0.0967
 6174SOL     OW20900   2.205   7.967   0.780  0.1464  0.3302  0.1446
 6174SOL    HW120901   2.169   7.974   0.869 -2.7836 -1.2481 -0.7869
 6174SOL    HW220902   2.193   7.875   0.757 -0.5190  0.9939 -2.3940
 6175SOL     OW20903   8.443   5.722   2.527 -0.1848  0.4155 -0.2352
 6175SOL    HW120904   8.366   5.684   2.568 -0.2507 -0.8777 -1.4630
 6175SOL    HW220905   8.432   5.817   2.537 -1.8073  0.2426 -0.1571
 6176SOL     OW20906   9.455   8.351   7.834  0.0941 -0.0632 -0.3117
 6176SOL    HW120907   9.546   8.376   7.850 -0.0841  2.0367 -2.0663
 6176SOL    HW220908   9.460   8.290   7.761  0.1431 -0.7724  0.2748
 6177SOL     OW20909   6.913   5.609   2.850 -0.2353 -0.3626  0.4892
 6177SOL    HW120910   6.983   5.546   2.866 -0.8899 -1.1162  0.4356
 6177SOL    HW220911   6.842   5.580   2.906 -0.5232  0.3758  0.5142
 6178SOL     OW20912   9.329   7.523   9.966  0.6291 -0.1477  0.5271
 6178SOL    HW120913   9.323   7.441   9.916 -0.7921  0.4861 -0.4166
 6178SOL    HW220914   9.265   7.580   9.924  0.1025  0.7594  2.4930
 6179SOL     OW20915   3.485   4.989  10.241  0.2428  0.1387 -0.0257
 6179SOL    HW120916   3.421   4.923  10.212  1.9861 -1.3459 -0.6765
 6179SOL    HW220917   3.441   5.035  10.313 -1.6197 -0.6747 -0.5878
 6180SOL     OW20918  10.707   2.884   1.404 -0.0293 -0.5826  0.5068
 6180SOL    HW120919  10.769   2.915   1.470 -0.5233 -0.9532  1.1509
 6180SOL    HW220920  10.733   2.929   1.324  0.6744 -0.2488  0.9186
 6181SOL     OW20921   4.321  10.110   2.719  0.3492  0.1945  0.3203
 6181SOL    HW120922   4.347  10.037   2.663 -0.1616 -0.7860  1.3258
 6181SOL    HW220923   4.286  10.069   2.798 -2.1598  1.4648 -0.0303
 6182SOL     OW20924   2.553   1.679   4.069  0.1000  0.2819 -0.2318
 6182SOL    HW120925   2.555   1.663   4.164  0.2858  0.8634 -0.1328
 6182SOL    HW220926   2.630   1.632   4.036 -0.1062 -0.1282 -0.1272
 6183SOL     OW20927   8.329   3.893   0.457 -0.6925 -0.3530 -0.1638
 6183SOL    HW120928   8.310   3.803   0.433 -0.8072  0.6404 -4.6400
 6183SOL    HW220929   8.251   3.942   0.429  0.7416  1.5216 -1.0693
 6184SOL     OW20930   1.010   6.955   9.846  0.4277 -0.2229  0.3644
 6184SOL    HW120931   0.999   7.042   9.884 -0.1909  1.0282 -2.4458
 6184SOL    HW220932   0.921   6.923   9.830  0.6483 -0.4011 -0.5977
 6185SOL     OW20933   8.330   1.573   6.466  0.6361 -0.2344 -0.2749
 6185SOL    HW120934   8.264   1.642   6.468 -0.4352 -1.2384  0.0426
 6185SOL    HW220935   8.363   1.575   6.376  0.6212  0.6708 -0.2715
 6186SOL     OW20936   8.464   7.756   8.513  0.1991  0.9377  0.0978
 6186SOL    HW120937   8.387   7.788   8.465  0.9292 -0.4909 -2.1853
 6186SOL    HW220938   8.537   7.771   8.453  1.0496 -1.7010  0.3639
 6187SOL     OW20939   7.081  10.343   8.281  0.4180  0.0663 -0.1608
 6187SOL    HW120940   7.095  10.420   8.226 -1.2987 -0.2725 -1.1177
 6187SOL    HW220941   7.142  10.278   8.246 -0.5064 -0.0766 -1.5811
 6188SOL     OW20942   9.383   1.412   4.451 -0.1411 -0.1631 -0.0874
 6188SOL    HW120943   9.471   1.374   4.449  0.5920  1.4579  0.1164
 6188SOL    HW220944   9.326   1.341   4.420  1.1460 -1.4450  0.3722
 6189SOL     OW20945   5.792   0.810   4.190 -0.7472  0.0344  0.1457
 6189SOL    HW120946   5.856   0.848   4.250 -0.3930  0.9899 -0.8090
 6189SOL    HW220947   5.723   0.876   4.183  0.1451  0.8430 -1.9643
 6190SOL     OW20948   2.706   6.805   9.858  0.5471  0.2325  0.0726
 6190SOL    HW120949   2.739   6.870   9.795  2.4121  1.1726  1.8832
 6190SOL    HW220950   2.785   6.762   9.890 -0.1721  0.6693  2.6611
 6191SOL     OW20951   9.563   6.099   1.272  0.0151 -0.2757  0.1198
 6191SOL    HW120952   9.557   6.188   1.308  0.6570 -0.1873  0.0143
 6191SOL    HW220953   9.472   6.076   1.251 -0.3615 -0.2624  1.6352
 6192SOL     OW20954   4.536   7.710  10.098  0.3321  0.3838  0.3165
 6192SOL    HW120955   4.594   7.671  10.032  1.0627  1.0740  0.5357
 6192SOL    HW220956   4.547   7.804  10.086 -0.1912  0.5146  0.8567
 6193SOL     OW20957   9.601   1.135   7.005  0.1196  0.1182  0.4839
 6193SOL    HW120958   9.607   1.041   7.023 -0.4838  0.1540  0.9120
 6193SOL    HW220959   9.562   1.141   6.918  0.8164 -0.0301  0.1535
 6194SOL     OW20960   4.591   8.309   1.147 -0.0829  0.2943 -0.1357
 6194SOL    HW120961   4.582   8.290   1.241  1.0950 -1.3030 -0.2962
 6194SOL    HW220962   4.590   8.223   1.105  0.4977  0.9128 -1.4823
 6195SOL     OW20963   6.329   6.186   2.362 -0.7084  0.2932  0.0325
 6195SOL    HW120964   6.358   6.266   2.318  0.7596  0.2234  0.8129
 6195SOL    HW220965   6.267   6.215   2.428  1.4488  1.1266  1.8302
 6196SOL     OW20966   7.783   9.532   9.973  0.4970 -0.1937 -0.2153
 6196SOL    HW120967   7.855   9.521  10.035  0.1412 -1.1291  0.0532
 6196SOL    HW220968   7.822   9.578   9.899  1.0158  0.6328  0.5417
 6197SOL     OW20969   3.202   5.205   6.936  0.0151 -0.2131  0.2402
 6197SOL    HW120970   3.275   5.258   6.966 -0.1534 -0.1736  0.5796
 6197SOL    HW220971   3.160   5.258   6.868  0.4847 -0.3680 -0.1736
 6198SOL     OW20972   3.924   1.105   3.829 -0.1745 -0.6107  0.3149
 6198SOL    HW120973   3.965   1.021   3.807  0.4646 -0.3322  0.4073
 6198SOL    HW220974   3.895   1.141   3.745  0.5162 -0.4358  0.1470
 6199SOL     OW20975   8.033   7.036   7.026  0.6193 -0.2183 -0.0503
 6199SOL    HW120976   8.006   7.103   7.088 -0.3790 -0.8039  0.1649
 6199SOL    HW220977   8.100   6.985   7.073  0.4015 -0.2027  0.2795
 6200SOL     OW20978   3.112   4.065   4.920  0.1798 -0.1240  0.1622
 6200SOL    HW120979   3.117   3.970   4.916  2.6809 -0.1495  1.9214
 6200SOL    HW220980   3.112   4.086   5.013  1.4826  1.6082 -0.1649
 6201SOL     OW20981   5.973   5.280   0.722  0.5107 -0.2096 -0.2485
 6201SOL    HW120982   5.941   5.337   0.792 -2.4871  0.2010 -1.7978
 6201SOL    HW220983   5.931   5.195   0.739  0.1119 -0.2259 -1.2683
 6202SOL     OW20984   8.363   8.050   0.599 -0.2200  0.1540  0.3662
 6202SOL    HW120985   8.314   8.131   0.609 -0.4179  0.3102 -1.4025
 6202SOL    HW220986   8.452   8.077   0.576 -0.2650 -0.1099 -0.1503
 6203SOL     OW20987   5.242   1.527   1.713  0.1162 -0.4448 -0.5182
 6203SOL    HW120988   5.292   1.583   1.773 -0.7806  0.2785 -0.4174
 6203SOL    HW220989   5.178   1.586   1.673 -1.0493 -1.4446 -0.2086
 6204SOL     OW20990   9.946  10.006   6.095 -0.3249  0.2188  0.4906
 6204SOL    HW120991  10.005  10.048   6.158 -0.5779  1.1975  0.0950
 6204SOL    HW220992   9.995  10.005   6.013 -0.7498  0.7937  0.2248
 6205SOL     OW20993   2.470  10.260   6.267  0.5533 -0.2870 -0.3934
 6205SOL    HW120994   2.452  10.178   6.221  1.5194 -0.9090  0.2994
 6205SOL    HW220995   2.384  10.292   6.293  0.0762 -0.4648 -1.7059
 6206SOL     OW20996   5.650   0.753   5.713  0.1958  0.4081 -0.3245
 6206SOL    HW120997   5.693   0.799   5.642 -0.5610  0.2284 -0.9141
 6206SOL    HW220998   5.618   0.822   5.771  0.6307  0.5608 -0.2656
 6207SOL     OW20999   5.188   2.411   0.786  0.3810 -0.2862 -0.5161
 6207SOL    HW121000   5.101   2.436   0.815  0.9095  1.5505 -0.3897
 6207SOL    HW221001   5.237   2.394   0.867 -0.2938 -3.2567 -0.5887
 6208SOL     OW21002   2.862   7.310   3.598 -0.3235 -0.4020 -0.0416
 6208SOL    HW121003   2.863   7.227   3.551 -2.9708  0.0147 -0.9975
 6208SOL    HW221004   2.783   7.307   3.652 -1.2981  1.9802 -1.1661
 6209SOL     OW21005   2.356   5.190   8.898 -0.2664 -0.3687 -0.1854
 6209SOL    HW121006   2.395   5.102   8.897 -1.5048 -0.9455 -1.3877
 6209SOL    HW221007   2.336   5.207   8.806  0.8088  1.6009 -0.0987
 6210SOL     OW21008   2.918   5.037   0.003 -0.5636  0.4865 -0.0241
 6210SOL    HW121009   2.833   5.041  -0.040 -0.6767  1.4130  0.2643
 6210SOL    HW221010   2.900   5.057   0.095 -0.2290 -0.7699  0.3312
 6211SOL     OW21011   5.521   1.648   6.646 -0.0020  0.2870  1.2512
 6211SOL    HW121012   5.607   1.611   6.666 -0.6735 -1.9241  0.3557
 6211SOL    HW221013   5.540   1.725   6.592  1.4262 -0.9180 -0.0668
 6212SOL     OW21014   5.308   7.374  10.780  0.4596  0.0499  0.3167
 6212SOL    HW121015   5.295   7.446  10.718 -1.5057 -0.1821  0.3950
 6212SOL    HW221016   5.264   7.404  10.860  2.0819 -0.0848  1.3155
 6213SOL     OW21017   1.641   2.050   8.337 -0.0820 -0.0909 -0.2213
 6213SOL    HW121018   1.683   2.123   8.383 -2.2534 -0.8705  3.3688
 6213SOL    HW221019   1.565   2.090   8.293 -0.8698 -0.0430  1.1521
 6214SOL     OW21020   8.536   1.519  10.096  0.2175  0.3403 -0.4230
 6214SOL    HW121021   8.506   1.429  10.101  3.4316 -0.7838  1.1841
 6214SOL    HW221022   8.586   1.524  10.015  2.6772 -0.3607  0.9458
 6215SOL     OW21023   3.036   0.507   2.037  0.4166 -0.0966  0.0082
 6215SOL    HW121024   3.075   0.424   2.010  2.4674  0.3213  1.4443
 6215SOL    HW221025   3.052   0.511   2.132 -2.7862  0.3639  0.6377
 6216SOL     OW21026   3.041   4.450   7.806 -0.4752  0.1456  0.1849
 6216SOL    HW121027   3.051   4.460   7.711  0.0065 -1.1966  0.0664
 6216SOL    HW221028   3.129   4.427   7.837 -1.0623 -1.7490  0.5938
 6217SOL     OW21029  10.092   9.006   1.588 -0.1946  0.3122  0.0859
 6217SOL    HW121030  10.173   9.051   1.610 -1.1954  1.1057  2.4178
 6217SOL    HW221031  10.023   9.070   1.605 -1.3752 -0.5483 -1.2533
 6218SOL     OW21032   6.047   2.464   8.422  0.4833  0.0247  0.3873
 6218SOL    HW121033   6.125   2.413   8.401  0.3362 -1.6044  3.2736
 6218SOL    HW221034   5.976   2.400   8.428  0.0832  0.5778  3.0777
 6219SOL     OW21035  10.758   3.905   0.527  0.1434 -0.0190 -0.4511
 6219SOL    HW121036  10.825   3.945   0.473 -0.6528  0.7259 -0.9072
 6219SOL    HW221037  10.804   3.837   0.576  1.0991  0.0662 -1.2087
 6220SOL     OW21038   2.856   5.214   0.634  0.1202  0.3827 -0.1685
 6220SOL    HW121039   2.867   5.137   0.578  1.3303  1.9545 -2.2194
 6220SOL    HW221040   2.939   5.221   0.682  0.1804  0.6311 -0.3054
 6221SOL     OW21041   0.209   2.279   6.175 -0.5094  0.1555 -0.4873
 6221SOL    HW121042   0.196   2.195   6.220 -0.8650  0.3505 -0.2230
 6221SOL    HW221043   0.216   2.255   6.082  2.1687 -0.4644 -0.2231
 6222SOL     OW21044   6.106   9.740   4.342 -0.0294 -0.1263 -0.2583
 6222SOL    HW121045   6.090   9.767   4.432  0.9515  0.5451 -0.2736
 6222SOL    HW221046   6.043   9.790   4.290  0.2500  0.4352 -0.0615
 6223SOL     OW21047   3.041   8.973  10.036 -0.2216 -1.1382  0.0027
 6223SOL    HW121048   2.958   9.020  10.044 -1.0919 -2.5422 -0.3830
 6223SOL    HW221049   3.085   9.015   9.962 -0.2568  0.0750  0.6534
 6224SOL     OW21050   3.682   1.063   2.838 -0.7438 -0.1078  0.0618
 6224SOL    HW121051   3.694   1.120   2.914  0.2780  0.1102 -0.2535
 6224SOL    HW221052   3.682   0.975   2.874  0.7537 -0.0637  0.2252
 6225SOL     OW21053   5.296   4.761   0.586  0.1721  0.0843  0.2683
 6225SOL    HW121054   5.292   4.755   0.491 -0.3845 -1.3847  0.3455
 6225SOL    HW221055   5.330   4.848   0.604 -0.6593  0.7537 -1.2525
 6226SOL     OW21056   7.310   6.207   3.540 -0.0674 -0.0107  0.3459
 6226SOL    HW121057   7.338   6.194   3.631 -0.8937 -0.0141  0.6050
 6226SOL    HW221058   7.289   6.300   3.534 -3.4935 -0.5781  1.2079
 6227SOL     OW21059   8.964   6.718   8.176  0.4485 -0.3547  0.0824
 6227SOL    HW121060   8.969   6.636   8.224  0.9823  0.7476  2.0198
 6227SOL    HW221061   9.055   6.744   8.161  0.2919 -0.4810 -1.2261
 6228SOL     OW21062   4.655   9.719   4.161 -0.4747 -0.2352  0.3894
 6228SOL    HW121063   4.665   9.791   4.223 -2.4130  1.2113 -0.8706
 6228SOL    HW221064   4.725   9.658   4.184  1.2328  2.0029  1.5458
 6229SOL     OW21065   4.905   3.331   7.327 -0.6749  0.0745  0.0324
 6229SOL    HW121066   4.861   3.327   7.412  1.3038 -0.4957  1.1112
 6229SOL    HW221067   4.892   3.420   7.296 -2.3301 -0.0077  0.3836
 6230SOL     OW21068   0.663   0.404  10.465  0.5216 -0.0436 -0.2218
 6230SOL    HW121069   0.748   0.411  10.509  1.1007  0.1752 -1.3435
 6230SOL    HW221070   0.602   0.445  10.526  1.0783 -0.9191  0.9580
 6231SOL     OW21071  10.554   8.733   1.996  0.4455  0.1893 -0.3809
 6231SOL    HW121072  10.577   8.757   2.086  0.6092  0.8366 -0.5880
 6231SOL    HW221073  10.577   8.811   1.944  3.4617 -1.2675 -1.4698
 6232SOL     OW21074   5.225   6.330   6.732  0.0056  0.6475  0.1521
 6232SOL    HW121075   5.202   6.350   6.823  0.8456  0.9953  0.2930
 6232SOL    HW221076   5.142   6.303   6.692  0.0077 -1.7534  1.5852
 6233SOL     OW21077  10.405   2.353   1.863 -0.1288  0.0235 -0.1229
 6233SOL    HW121078  10.412   2.362   1.768  1.9996 -2.0498 -0.2538
 6233SOL    HW221079  10.332   2.292   1.875 -0.9418  0.9238 -0.3387
 6234SOL     OW21080   5.629   7.381   5.511 -0.1018  0.0371 -0.2579
 6234SOL    HW121081   5.669   7.335   5.437  0.3889  0.3357 -0.1831
 6234SOL    HW221082   5.557   7.324   5.538 -0.3687 -0.0203 -1.0411
 6235SOL     OW21083   5.300   9.676   1.250  0.1839  0.1087 -0.0285
 6235SOL    HW121084   5.340   9.762   1.266  1.2946 -0.3424 -0.2637
 6235SOL    HW221085   5.210   9.696   1.224 -0.0936  1.1001  1.5966
 6236SOL     OW21086   3.295   9.403   2.880 -0.1921  0.2032 -0.3054
 6236SOL    HW121087   3.287   9.478   2.821  0.7980  0.2086 -0.4632
 6236SOL    HW221088   3.220   9.409   2.938  0.4304  1.9555  0.4014
 6237SOL     OW21089   7.361   7.632  10.127 -0.1940  0.5271 -0.0443
 6237SOL    HW121090   7.303   7.585  10.066 -0.6632  0.1710  0.6662
 6237SOL    HW221091   7.344   7.592  10.212  1.4273  0.1138  0.1121
 6238SOL     OW21092   0.345   3.106   1.906 -0.0021  0.1417  0.5107
 6238SOL    HW121093   0.298   3.116   1.989  1.8644 -1.5261  1.8507
 6238SOL    HW221094   0.302   3.031   1.864  1.8445 -1.9885  2.1596
 6239SOL     OW21095   6.579  10.110   7.960 -0.2108 -0.2842 -0.1121
 6239SOL    HW121096   6.587  10.090   8.053  2.0080 -0.1087 -0.2151
 6239SOL    HW221097   6.535  10.034   7.923 -2.5048  0.2721  1.2461
 6240SOL     OW21098   9.714   9.499   1.939 -0.4455  0.0820 -0.3317
 6240SOL    HW121099   9.808   9.517   1.935 -0.6133  2.2750  2.2176
 6240SOL    HW221100   9.707   9.420   1.993 -0.0724 -0.8739 -1.6334
 6241SOL     OW21101   2.295   4.434   1.998 -0.2107 -0.2153 -0.1708
 6241SOL    HW121102   2.266   4.373   1.930  0.6151  0.3352 -1.0418
 6241SOL    HW221103   2.351   4.496   1.952  0.9131 -0.2199  1.1218
 6242SOL     OW21104   2.961   1.013   5.215  0.2099 -0.0387  0.2542
 6242SOL    HW121105   2.869   1.040   5.209  0.7242  1.9882  0.7109
 6242SOL    HW221106   3.005   1.066   5.149  1.3767  0.7242  1.5971
 6243SOL     OW21107   9.995   3.973   2.791  0.1778  0.2066 -0.6690
 6243SOL    HW121108  10.047   4.005   2.718 -0.4226 -1.3153 -1.8040
 6243SOL    HW221109   9.995   3.878   2.782  1.1935 -0.1558  2.1051
 6244SOL     OW21110   5.913   9.429   6.926 -0.1430  0.2966 -1.2591
 6244SOL    HW121111   5.867   9.509   6.952 -1.0402 -0.0319 -1.7966
 6244SOL    HW221112   6.001   9.440   6.961 -1.1219  0.0834  1.5386
 6245SOL     OW21113   5.558   0.320   4.116 -0.0493 -0.4292  0.0801
 6245SOL    HW121114   5.475   0.293   4.077 -1.2157 -0.6049  2.4849
 6245SOL    HW221115   5.609   0.240   4.123  0.2261 -0.3780 -1.0847
 6246SOL     OW21116   9.732   4.953  10.505 -0.0720 -0.0787 -0.2503
 6246SOL    HW121117   9.649   4.997  10.489 -0.0521 -0.0105 -0.1664
 6246SOL    HW221118   9.710   4.877  10.559  0.2485  1.4223  2.1265
 6247SOL     OW21119   6.925   0.119   9.494 -0.2413  0.0550 -0.3890
 6247SOL    HW121120   6.851   0.120   9.434 -0.0705  0.1326 -0.6006
 6247SOL    HW221121   6.998   0.085   9.441 -0.0347  0.3460 -0.2916
 6248SOL     OW21122   8.814   0.337   6.094  0.0697  0.3920 -0.2436
 6248SOL    HW121123   8.733   0.300   6.131  1.7535 -3.5763 -0.0720
 6248SOL    HW221124   8.807   0.320   6.000  0.9785 -0.6939 -0.1316
 6249SOL     OW21125   4.644   5.291   6.634  0.1487  0.9053 -0.1617
 6249SOL    HW121126   4.634   5.375   6.589 -1.0488 -0.0571 -1.7964
 6249SOL    HW221127   4.688   5.235   6.571  1.3665  0.4008  1.0868
 6250SOL     OW21128   1.860   8.229   4.513  0.5329 -0.2565 -0.4257
 6250SOL    HW121129   1.893   8.287   4.445  1.5418 -2.6555 -2.1329
 6250SOL    HW221130   1.900   8.261   4.594  3.4884 -0.3219 -1.7499
 6251SOL     OW21131   7.576   0.336  10.055 -0.1841 -0.0555 -0.4661
 6251SOL    HW121132   7.590   0.430  10.067 -0.4785 -0.1679  0.9559
 6251SOL    HW221133   7.481   0.325  10.067 -0.0628 -0.6041  0.0388
 6252SOL     OW21134   7.138   3.528   3.539  0.3300 -0.0725  0.3978
 6252SOL    HW121135   7.102   3.455   3.490 -1.5820  0.6341  0.6559
 6252SOL    HW221136   7.166   3.490   3.622 -0.4771 -0.5718  0.4605
 6253SOL     OW21137   4.223   6.542   4.148 -0.5254  0.7040 -0.0191
 6253SOL    HW121138   4.233   6.571   4.239 -1.1362 -1.2675  0.7296
 6253SOL    HW221139   4.226   6.446   4.153  2.0756  0.5496 -2.4407
 6254SOL     OW21140  10.452   2.967   4.794  0.3224  0.3245  0.4761
 6254SOL    HW121141  10.482   3.056   4.776  0.3490  0.2845  0.3250
 6254SOL    HW221142  10.530   2.920   4.824  0.2299  0.4530  0.9338
 6255SOL     OW21143   8.970   2.686   8.866 -0.4855  0.4859 -0.1984
 6255SOL    HW121144   8.916   2.668   8.942 -0.5948 -0.6996 -0.5337
 6255SOL    HW221145   8.909   2.721   8.801  0.0243  4.2840  1.0838
 6256SOL     OW21146   1.194   5.825   9.524 -0.0573  0.0591  0.2865
 6256SOL    HW121147   1.201   5.730   9.518  0.1348 -0.0231  1.5103
 6256SOL    HW221148   1.283   5.857   9.510  0.3222 -0.1068  2.0407
 6257SOL     OW21149   1.452   4.781   2.095  0.3079 -0.8417 -0.3281
 6257SOL    HW121150   1.472   4.836   2.171  2.4166 -1.3419 -0.4595
 6257SOL    HW221151   1.389   4.717   2.128 -2.1847  1.4968 -0.1527
 6258SOL     OW21152   0.521   5.874   8.817  0.2303 -0.2967  0.1797
 6258SOL    HW121153   0.541   5.954   8.866 -0.5650 -0.8353  1.4361
 6258SOL    HW221154   0.436   5.891   8.776  0.6405 -0.0500 -0.5846
 6259SOL     OW21155   6.022   9.210  10.390 -0.7580 -0.1275  0.2320
 6259SOL    HW121156   6.070   9.129  10.371 -0.0792  0.1613  0.6862
 6259SOL    HW221157   5.931   9.190  10.367 -1.2505 -2.1371  3.2549
 6260SOL     OW21158   1.315   4.164   3.584 -0.4753  0.6052  0.0917
 6260SOL    HW121159   1.276   4.198   3.664 -0.6859 -0.9327  0.6897
 6260SOL    HW221160   1.409   4.164   3.601 -0.4946  0.6374  0.1998
 6261SOL     OW21161   2.121   3.256  10.598 -0.2792  0.3379  0.1169
 6261SOL    HW121162   2.180   3.300  10.658 -0.6227  1.2081 -0.1741
 6261SOL    HW221163   2.165   3.174  10.576  0.5743  0.7433  0.3094
 6262SOL     OW21164   2.799   2.685   5.720  0.0410  0.0162 -0.1666
 6262SOL    HW121165   2.850   2.720   5.646  0.9544 -0.3851  0.2588
 6262SOL    HW221166   2.708   2.692   5.692  0.3767 -0.1568 -1.3507
 6263SOL     OW21167   0.792   8.603   9.306  0.2875 -0.0182  0.0278
 6263SOL    HW121168   0.861   8.646   9.357  0.3165  0.0574 -0.0744
 6263SOL    HW221169   0.735   8.563   9.372 -0.2873  1.0006  0.1754
 6264SOL     OW21170   6.973   8.779   8.987  0.1955 -0.5287 -0.5949
 6264SOL    HW121171   7.065   8.799   9.009 -0.4975  0.4070  1.8168
 6264SOL    HW221172   6.977   8.695   8.942  2.3452  0.0757 -1.6686
 6265SOL     OW21173   5.279   2.417   8.021 -0.4055 -0.2549 -0.1832
 6265SOL    HW121174   5.372   2.430   8.003  0.0369 -1.5984  0.9329
 6265SOL    HW221175   5.264   2.324   8.006 -1.1374 -0.4140  1.3485
 6266SOL     OW21176   4.397   7.259   4.194  0.3522  0.8519 -0.1240
 6266SOL    HW121177   4.339   7.333   4.175  0.1800  0.2807 -1.9556
 6266SOL    HW221178   4.469   7.297   4.243  0.2047  2.2213 -0.9329
 6267SOL     OW21179  10.142   0.200  10.765 -0.5173  0.0101 -0.5067
 6267SOL    HW121180  10.091   0.220  10.686  0.7428 -0.2525 -1.4180
 6267SOL    HW221181  10.233   0.195  10.734 -0.0583 -0.6289  0.8753
 6268SOL     OW21182   7.545   1.123  10.511 -0.0360  0.1866  0.9152
 6268SOL    HW121183   7.560   1.214  10.483 -1.7456  0.1806 -0.1789
 6268SOL    HW221184   7.473   1.093  10.456  1.4808 -2.3756  0.1587
 6269SOL     OW21185   9.186   8.235   7.598  0.1235  0.0185 -0.2152
 6269SOL    HW121186   9.144   8.245   7.683  0.7691 -0.7574  0.2199
 6269SOL    HW221187   9.255   8.170   7.614  2.2289  2.0169 -0.6117
 6270SOL     OW21188   9.258   3.502   4.162 -0.6659 -0.0679 -0.0131
 6270SOL    HW121189   9.252   3.591   4.127 -1.1117 -0.3958 -0.7982
 6270SOL    HW221190   9.245   3.446   4.086 -0.6075 -0.8060  0.5156
 6271SOL     OW21191   1.306   1.364   1.916  0.0382  0.5406  0.2727
 6271SOL    HW121192   1.393   1.392   1.886 -0.4820  1.6397 -0.2985
 6271SOL    HW221193   1.276   1.437   1.971 -0.8791  0.5970 -0.2809
 6272SOL     OW21194   7.127   7.991   5.245 -0.7266  0.3193 -0.2746
 6272SOL    HW121195   7.033   7.992   5.261 -0.5397  0.2264  0.9302
 6272SOL    HW221196   7.145   8.073   5.199 -1.3112  0.6246  0.0376
 6273SOL     OW21197   8.486  10.522   3.945  0.7866  0.1426 -0.0177
 6273SOL    HW121198   8.469  10.532   4.039  0.3413  0.2670 -0.1086
 6273SOL    HW221199   8.438  10.594   3.904 -0.0244 -0.6228 -0.4394
 6274SOL     OW21200   2.649   4.639   3.944  0.2435 -0.3620  0.2371
 6274SOL    HW121201   2.574   4.622   4.001  0.8949 -0.2932  1.1530
 6274SOL    HW221202   2.707   4.565   3.959  0.4653 -0.2914 -0.2697
 6275SOL     OW21203   5.109   2.790   7.357 -0.0121 -0.2253 -0.7852
 6275SOL    HW121204   5.180   2.784   7.293  0.7006  0.8939 -0.1447
 6275SOL    HW221205   5.096   2.884   7.370 -0.5468 -0.4216  0.2568
 6276SOL     OW21206   9.788   7.642   3.765  0.0859  0.2666  0.0839
 6276SOL    HW121207   9.881   7.630   3.743  0.2066  0.8500  0.2545
 6276SOL    HW221208   9.764   7.564   3.815  0.0696 -0.6358 -1.2739
 6277SOL     OW21209   8.977   0.854   7.079  0.3468 -0.3629  0.0426
 6277SOL    HW121210   9.023   0.901   7.148  1.6932 -1.4483 -0.0641
 6277SOL    HW221211   8.899   0.907   7.061  1.2725  1.2681  0.6173
 6278SOL     OW21212   2.857   5.425   9.522  0.0996 -0.2934  0.1170
 6278SOL    HW121213   2.808   5.495   9.565  1.7374  1.3388 -0.5727
 6278SOL    HW221214   2.802   5.347   9.535 -0.7949  0.6427  2.7178
 6279SOL     OW21215   0.021   4.119   2.448  0.0009  0.4420  0.3884
 6279SOL    HW121216   0.031   4.174   2.525  0.0873 -1.3580  1.7289
 6279SOL    HW221217  -0.049   4.160   2.397  1.1193  2.6277  0.4992
 6280SOL     OW21218   4.797   9.016   6.524  0.2213 -0.1164  0.0207
 6280SOL    HW121219   4.841   9.066   6.455 -1.2603  0.3881 -0.6090
 6280SOL    HW221220   4.865   8.959   6.560  0.8768 -0.9768 -2.3954
 6281SOL     OW21221   4.971  10.029   0.369 -0.2300 -0.3176  0.3034
 6281SOL    HW121222   4.917  10.097   0.408 -0.1040  0.5962 -1.0532
 6281SOL    HW221223   5.061  10.058   0.383 -0.1874  0.8523 -1.9674
 6282SOL     OW21224   3.959   1.448   4.089  0.1738  0.6568  0.1292
 6282SOL    HW121225   3.989   1.429   4.000 -1.1879  0.2425 -0.2796
 6282SOL    HW221226   3.928   1.539   4.085 -2.3635 -0.1414 -0.6119
 6283SOL     OW21227   7.257   3.405   3.756  0.4176 -0.7748  0.7186
 6283SOL    HW121228   7.256   3.311   3.736 -0.2865 -0.7450  0.6052
 6283SOL    HW221229   7.225   3.411   3.846  1.2135 -0.6972  1.0111
 6284SOL     OW21230   6.956   8.427   6.793 -0.0329  0.5304  0.1785
 6284SOL    HW121231   7.046   8.447   6.767 -0.1921  0.7854 -0.1877
 6284SOL    HW221232   6.921   8.510   6.825 -0.2382  0.5067  0.0187
 6285SOL     OW21233   8.335  10.612  10.335 -0.1172 -0.0817 -0.3415
 6285SOL    HW121234   8.388  10.620  10.414 -0.6754 -1.5736  0.1995
 6285SOL    HW221235   8.281  10.691  10.334 -0.3869 -0.2411  0.9739
 6286SOL     OW21236   0.952   8.633   4.199  0.1993  0.2443 -0.2157
 6286SOL    HW121237   0.899   8.594   4.129  0.2576  0.5013 -0.4022
 6286SOL    HW221238   0.975   8.558   4.255  0.5609 -0.0510 -0.7373
 6287SOL     OW21239   4.988   8.660   5.395  0.5386  0.5534  0.3038
 6287SOL    HW121240   4.926   8.645   5.467  0.5187 -2.6115 -0.2101
 6287SOL    HW221241   5.016   8.750   5.406 -3.9839  2.1841  0.6634
 6288SOL     OW21242   1.449   9.647  10.535  0.5427 -0.4922  0.4544
 6288SOL    HW121243   1.420   9.566  10.578  0.9945 -0.5986  0.5651
 6288SOL    HW221244   1.383   9.663  10.468  1.1613 -1.6993 -0.4751
 6289SOL     OW21245   1.164   4.210   5.242 -0.2495  0.4804  0.7410
 6289SOL    HW121246   1.194   4.283   5.296 -0.3001  1.8308 -0.9668
 6289SOL    HW221247   1.201   4.228   5.156 -0.1893 -1.5964  0.2899
 6290SOL     OW21248  10.393   7.952   2.770 -0.5476 -0.7070 -0.2512
 6290SOL    HW121249  10.416   8.020   2.707 -2.7584 -0.7476 -1.2166
 6290SOL    HW221250  10.445   7.972   2.848  0.0988  1.0958 -1.0918
 6291SOL     OW21251   0.942  10.362  10.010 -0.2605  0.2156  0.5390
 6291SOL    HW121252   0.993  10.390  10.086  0.3156 -1.9004  1.0056
 6291SOL    HW221253   0.910  10.275  10.033 -1.3162  0.1225 -1.0760
 6292SOL     OW21254   1.426   6.499  10.225 -0.5520 -0.2224 -0.7871
 6292SOL    HW121255   1.427   6.415  10.271 -1.2543  0.1236 -0.1237
 6292SOL    HW221256   1.484   6.486  10.150  0.2199 -0.9539 -0.0846
 6293SOL     OW21257   5.654   8.498   5.836 -0.3572  0.2525  0.3561
 6293SOL    HW121258   5.674   8.561   5.767  1.0948 -0.1185  0.4087
 6293SOL    HW221259   5.645   8.414   5.791 -1.2743  0.3072  0.4103
 6294SOL     OW21260  10.477   7.503   9.241 -0.2254 -0.0675 -0.3572
 6294SOL    HW121261  10.522   7.435   9.191  1.4929  1.0147 -0.3652
 6294SOL    HW221262  10.533   7.517   9.318 -1.6299 -0.0883  0.7179
 6295SOL     OW21263   1.803   0.301  10.558 -0.3602  0.0797 -0.0375
 6295SOL    HW121264   1.721   0.349  10.550  0.7859  2.2400  0.4788
 6295SOL    HW221265   1.795   0.255  10.642 -0.7756  0.7981  0.3211
 6296SOL     OW21266   8.943   0.338   4.899 -0.5078 -0.2104  0.7069
 6296SOL    HW121267   8.908   0.304   4.817  0.0561  0.3634  0.2108
 6296SOL    HW221268   9.032   0.302   4.905 -1.5387 -2.7120  2.5970
 6297SOL     OW21269   3.818   9.184   9.910 -0.6601 -0.1030  0.3622
 6297SOL    HW121270   3.777   9.103   9.940 -1.2646 -0.7154 -1.9450
 6297SOL    HW221271   3.912   9.170   9.925 -0.8462 -0.8151  0.9062
 6298SOL     OW21272   8.264   0.346   5.854 -0.5866  0.5721  0.0283
 6298SOL    HW121273   8.174   0.347   5.886 -0.2471  0.3854  1.0104
 6298SOL    HW221274   8.316   0.375   5.929  0.0390  2.1876 -0.9699
 6299SOL     OW21275   6.275   4.801   4.603 -0.2100  0.4117 -0.2159
 6299SOL    HW121276   6.249   4.854   4.678 -0.3931  2.5898 -1.7217
 6299SOL    HW221277   6.320   4.862   4.545  0.6708 -1.3873 -1.5256
 6300SOL     OW21278   2.294   0.199   8.322  0.2546  0.3490  1.1424
 6300SOL    HW121279   2.202   0.224   8.311 -0.2874 -1.7403  0.3920
 6300SOL    HW221280   2.303   0.120   8.269  2.7230  0.9538  0.5335
 6301SOL     OW21281   1.736   6.968   4.946  0.9197  1.1344 -0.0273
 6301SOL    HW121282   1.825   6.933   4.946 -0.7022 -3.7254 -0.1582
 6301SOL    HW221283   1.728   7.015   4.863  2.9675  0.6176 -0.5772
 6302SOL     OW21284   9.213   5.508   2.976 -0.2921  0.7277  0.3010
 6302SOL    HW121285   9.202   5.509   2.881 -1.0779  1.8117  0.3853
 6302SOL    HW221286   9.301   5.542   2.991  0.8298 -1.7418 -0.1044
 6303SOL     OW21287  10.010   8.191  10.341 -0.3129 -0.0464 -0.0000
 6303SOL    HW121288   9.951   8.186  10.266 -1.1529  1.9291  0.4578
 6303SOL    HW221289  10.057   8.274  10.330  0.2608 -0.1832  1.1591
 6304SOL     OW21290   3.386   5.213   0.237  0.0016  0.2040  0.3465
 6304SOL    HW121291   3.401   5.174   0.150 -1.1094  1.6680 -0.5583
 6304SOL    HW221292   3.309   5.168   0.271  0.3459 -0.2640  0.5180
 6305SOL     OW21293   8.277   8.131   3.664 -0.1758  0.0139 -0.1670
 6305SOL    HW121294   8.227   8.213   3.667  0.3149  0.3043  0.1976
 6305SOL    HW221295   8.368   8.158   3.678 -0.1992 -0.7752  1.8678
 6306SOL     OW21296   8.881   8.601   9.568  0.0385 -0.4396 -0.2168
 6306SOL    HW121297   8.960   8.550   9.586  0.8501  0.9783  0.3265
 6306SOL    HW221298   8.883   8.613   9.473 -1.1857 -2.9709 -0.6660
 6307SOL     OW21299  10.031   2.098   2.946  0.4879 -0.4056 -0.0328
 6307SOL    HW121300   9.936   2.084   2.951  0.4056 -0.5891 -1.6715
 6307SOL    HW221301  10.045   2.141   2.862  1.7040  1.2460  0.9428
 6308SOL     OW21302   7.203   2.067   9.659  0.7389 -0.1654  0.4052
 6308SOL    HW121303   7.208   2.049   9.565 -0.5184 -1.5891  0.5611
 6308SOL    HW221304   7.129   2.127   9.668  0.5967 -0.3528  0.5090
 6309SOL     OW21305   4.084   6.509   0.604 -0.8678  0.0725 -0.5019
 6309SOL    HW121306   4.001   6.534   0.643 -1.0075 -0.1350 -0.6632
 6309SOL    HW221307   4.068   6.510   0.510 -1.1479 -1.4999 -0.5006
 6310SOL     OW21308   9.399   2.345   5.169  0.4860 -0.1676 -0.7228
 6310SOL    HW121309   9.345   2.345   5.248  0.5778 -2.3593 -0.5883
 6310SOL    HW221310   9.446   2.261   5.172  4.5627  1.8623 -0.4224
 6311SOL     OW21311   4.511   5.558   4.006  0.3816 -0.4329  0.3152
 6311SOL    HW121312   4.576   5.604   4.059  0.2302 -0.2053  0.3018
 6311SOL    HW221313   4.470   5.497   4.067 -1.4376  1.4428  1.0823
 6312SOL     OW21314   5.251   3.487   9.715  0.1225 -0.0361  0.2098
 6312SOL    HW121315   5.334   3.470   9.671 -0.0064 -0.5805  0.1679
 6312SOL    HW221316   5.218   3.400   9.738 -0.2852  0.1930  0.5028
 6313SOL     OW21317  10.261   6.225   5.533  0.2371  0.2760  0.2805
 6313SOL    HW121318  10.207   6.156   5.570 -0.3242 -0.3232 -1.5488
 6313SOL    HW221319  10.348   6.186   5.524  0.4558  0.5227  1.1683
 6314SOL     OW21320   0.546   8.587   3.401 -0.2592 -0.2670  0.1647
 6314SOL    HW121321   0.621   8.579   3.342 -0.4228  0.9258 -0.2366
 6314SOL    HW221322   0.585   8.591   3.488  0.0146 -1.5698  0.1172
 6315SOL     OW21323   8.995   5.609   2.066 -0.1398 -0.3607 -0.1201
 6315SOL    HW121324   8.963   5.528   2.027 -0.0220 -0.0455 -0.9079
 6315SOL    HW221325   8.923   5.672   2.053 -0.9550 -0.7489  2.0486
 6316SOL     OW21326   1.511   6.308   3.935 -0.3973  0.0049 -0.0955
 6316SOL    HW121327   1.594   6.266   3.913 -0.3744  0.5970 -1.2128
 6316SOL    HW221328   1.515   6.323   4.029  1.3745  1.3052 -0.3338
 6317SOL     OW21329   2.851   2.852   6.843 -0.0908  0.3455  0.1827
 6317SOL    HW121330   2.884   2.869   6.931 -0.3025  1.1083  0.1231
 6317SOL    HW221331   2.795   2.927   6.823  0.4278  0.4835 -0.8364
 6318SOL     OW21332   6.653  10.147   2.867 -0.0620 -0.4351  0.4851
 6318SOL    HW121333   6.719  10.088   2.905  1.9524  0.6770 -1.0597
 6318SOL    HW221334   6.662  10.134   2.772 -1.5080  0.3617  0.2173
 6319SOL     OW21335   6.396   3.877   6.644 -0.5724  0.1102  0.2295
 6319SOL    HW121336   6.359   3.798   6.603 -0.1444  0.1681 -0.2744
 6319SOL    HW221337   6.396   3.942   6.574 -0.5347  0.4362  0.5316
 6320SOL     OW21338   3.194   3.435   6.049 -0.0324  0.1006 -0.0975
 6320SOL    HW121339   3.272   3.490   6.058  0.3677  0.0519 -2.4192
 6320SOL    HW221340   3.192   3.413   5.955 -2.6041 -0.2517 -0.0235
 6321SOL     OW21341   0.741   6.152   1.387 -0.1280 -0.2485 -0.6983
 6321SOL    HW121342   0.776   6.091   1.453  1.5482  0.5355 -0.8138
 6321SOL    HW221343   0.649   6.129   1.380 -0.0939 -1.1070  1.0988
 6322SOL     OW21344   4.602   2.905   6.029  0.2180  0.4776  0.5186
 6322SOL    HW121345   4.569   2.835   6.084  1.3850  0.1792  0.8705
 6322SOL    HW221346   4.592   2.985   6.081  1.2023  0.2140  1.1395
 6323SOL     OW21347   0.515   9.449   6.868 -0.4396 -0.5774 -0.1435
 6323SOL    HW121348   0.525   9.482   6.779  0.0155 -1.5353 -0.4630
 6323SOL    HW221349   0.434   9.490   6.899  0.3200  1.1415 -0.3483
 6324SOL     OW21350   9.210   2.985   9.995 -0.2137  0.1001 -0.1144
 6324SOL    HW121351   9.177   2.897  10.011  0.3535 -0.3037 -1.1149
 6324SOL    HW221352   9.297   2.986  10.035 -0.4188  0.3811  0.3428
 6325SOL     OW21353   5.535   0.725   4.358  0.0385  0.5542 -0.1546
 6325SOL    HW121354   5.551   0.817   4.335 -1.4746  0.7100 -0.6977
 6325SOL    HW221355   5.456   0.727   4.412 -0.6160 -0.5157 -1.0290
 6326SOL     OW21356   0.440   5.761   9.375  0.7250  0.3094  0.7887
 6326SOL    HW121357   0.360   5.748   9.427 -0.1495  0.8433 -0.3724
 6326SOL    HW221358   0.444   5.856   9.362  1.8789  0.3517  1.3066
 6327SOL     OW21359  10.170   8.406  10.280  0.0333 -0.8467 -0.5214
 6327SOL    HW121360  10.217   8.479  10.322  0.1464 -0.1130 -1.8719
 6327SOL    HW221361  10.150   8.438  10.192 -0.2142 -2.3364 -1.0313
 6328SOL     OW21362   4.943   5.043  10.780  0.7394 -0.5062  0.0979
 6328SOL    HW121363   5.009   4.978  10.755  0.3748 -2.0774  2.7829
 6328SOL    HW221364   4.991   5.105  10.835  0.4378 -0.3530  0.1856
 6329SOL     OW21365   9.273   3.319   3.082  0.0464  0.1084  0.4737
 6329SOL    HW121366   9.201   3.355   3.029  0.4838  2.1076  1.1278
 6329SOL    HW221367   9.315   3.254   3.025 -0.6740  0.8125 -0.9097
 6330SOL     OW21368   6.064  10.130   5.915 -0.2393 -0.3077  0.0660
 6330SOL    HW121369   5.971  10.148   5.899 -0.1676  0.8571  0.7995
 6330SOL    HW221370   6.064  10.059   5.979 -0.7105  1.0153  1.6078
 6331SOL     OW21371   0.672   7.370   7.121 -0.3386  0.3885  0.5438
 6331SOL    HW121372   0.746   7.375   7.181  0.2895 -1.3038 -0.0334
 6331SOL    HW221373   0.710   7.380   7.034 -0.6840 -0.9689  0.2132
 6332SOL     OW21374   0.066  10.359   4.706 -0.1194  0.4107  0.1861
 6332SOL    HW121375   0.082  10.391   4.795  1.1900  0.3915 -0.0228
 6332SOL    HW221376   0.023  10.432   4.662  1.3810  1.3288  0.1707
 6333SOL     OW21377   0.195   2.901   0.245  0.4684 -0.5564  0.3623
 6333SOL    HW121378   0.120   2.939   0.290  0.4370 -0.9701  0.6776
 6333SOL    HW221379   0.170   2.810   0.230  0.3174 -0.3230 -0.8803
 6334SOL     OW21380   3.787   4.457   2.344  0.1258  0.5013 -0.0302
 6334SOL    HW121381   3.694   4.473   2.336  0.2055  0.9497 -0.0805
 6334SOL    HW221382   3.827   4.513   2.277  0.6325  2.5066  1.8465
 6335SOL     OW21383   4.517   2.234  10.457 -0.0235 -0.0153  0.1567
 6335SOL    HW121384   4.579   2.199  10.520 -0.2066  0.6636  0.7247
 6335SOL    HW221385   4.549   2.203  10.372 -0.0123 -1.2938  0.5969
 6336SOL     OW21386   1.748   2.491   1.266  0.3918  0.0022 -0.2823
 6336SOL    HW121387   1.713   2.580   1.270 -3.4485 -1.2958 -0.6930
 6336SOL    HW221388   1.762   2.466   1.357 -1.6626  0.0352  0.0978
 6337SOL     OW21389   1.663   9.186   8.848 -0.4081  0.2253  0.2824
 6337SOL    HW121390   1.651   9.281   8.841 -0.4813  0.1168 -1.5406
 6337SOL    HW221391   1.749   9.170   8.808 -0.5288 -0.5080  0.3125
 6338SOL     OW21392   6.094   8.964   5.444  0.3141 -0.0056 -0.3698
 6338SOL    HW121393   6.057   9.052   5.440 -1.1200 -0.4433  1.6879
 6338SOL    HW221394   6.118   8.944   5.353 -0.5668  1.9732 -1.0982
 6339SOL     OW21395   9.757   9.383   5.078 -0.4016  0.0925 -0.4804
 6339SOL    HW121396   9.662   9.367   5.078 -0.3823 -0.0110  0.1973
 6339SOL    HW221397   9.795   9.306   5.120 -0.0905  0.5690  0.1252
 6340SOL     OW21398   6.941   9.518   1.226  0.1683  0.6059  0.5842
 6340SOL    HW121399   6.891   9.436   1.228 -0.5339  0.8731 -2.1878
 6340SOL    HW221400   7.030   9.492   1.201  0.5546  0.5050  1.9714
 6341SOL     OW21401  10.354   3.569   7.384  0.3424 -0.0696  0.5494
 6341SOL    HW121402  10.412   3.493   7.373  0.7771  0.0246  1.9371
 6341SOL    HW221403  10.386   3.633   7.320  0.0515 -1.0034 -0.5397
 6342SOL     OW21404   1.837   1.921  10.457 -0.3231 -0.2754  0.1431
 6342SOL    HW121405   1.877   1.849  10.409  1.2114  0.3871  0.3755
 6342SOL    HW221406   1.794   1.974  10.390  1.8098  0.6573 -0.5677
 6343SOL     OW21407  10.413   7.265   1.875  0.3549 -0.2386  0.1246
 6343SOL    HW121408  10.446   7.355   1.873  1.9966 -0.8188 -0.6352
 6343SOL    HW221409  10.418   7.239   1.967 -1.8385  0.9841  0.6720
 6344SOL     OW21410   3.642   9.658   7.536 -0.2486 -0.4448  0.2713
 6344SOL    HW121411   3.548   9.675   7.525 -0.2883 -0.7551  0.1162
 6344SOL    HW221412   3.674   9.733   7.587 -0.2082  0.6470 -1.2876
 6345SOL     OW21413   1.125   4.012   0.904  0.5813 -0.3268  0.1277
 6345SOL    HW121414   1.176   3.932   0.909  1.5796  0.2914  0.0506
 6345SOL    HW221415   1.092   4.014   0.814  0.7709 -0.5250  0.0525
 6346SOL     OW21416   8.987   1.050  10.378  0.6472 -0.3750 -0.2105
 6346SOL    HW121417   8.903   1.048  10.423  1.2861 -0.3363  1.0151
 6346SOL    HW221418   9.046   0.999  10.433  1.7596  0.7007 -0.3538
 6347SOL     OW21419   8.057   4.139  10.026 -0.0920 -0.0578  0.0520
 6347SOL    HW121420   8.000   4.078   9.978 -1.1164  0.5046  0.5002
 6347SOL    HW221421   8.056   4.106  10.116 -0.8735  0.7475  0.3556
 6348SOL     OW21422   4.123   1.400   1.365  0.3614  0.3107  0.0355
 6348SOL    HW121423   4.193   1.335   1.362  0.8203  0.6527  2.0459
 6348SOL    HW221424   4.042   1.347   1.364  0.5650 -0.0781 -2.2998
 6349SOL     OW21425   6.945   3.107   6.341 -0.7014 -0.3139 -0.3414
 6349SOL    HW121426   6.933   3.073   6.253 -1.1797 -0.3831 -0.2558
 6349SOL    HW221427   6.899   3.044   6.397 -1.4385  0.3628 -0.1596
 6350SOL     OW21428   9.081   8.246   1.033  0.2559 -0.2258 -0.5223
 6350SOL    HW121429   9.017   8.305   1.073 -0.0556 -0.0785 -1.2197
 6350SOL    HW221430   9.127   8.206   1.107 -1.2002 -0.9588  0.0287
 6351SOL     OW21431   3.058   3.363   2.347 -0.2759  0.6990 -0.5159
 6351SOL    HW121432   2.981   3.405   2.308 -0.9058  0.0873  0.0374
 6351SOL    HW221433   3.121   3.358   2.276 -1.1733  0.1626 -1.3009
 6352SOL     OW21434   7.420   2.494   5.168  0.1794  0.0188 -0.0711
 6352SOL    HW121435   7.361   2.520   5.239 -1.4587 -0.2729 -1.2657
 6352SOL    HW221436   7.414   2.398   5.165  2.5389 -0.2625  1.2454
 6353SOL     OW21437   2.718   6.203  10.121  0.4897  0.0615 -0.2452
 6353SOL    HW121438   2.724   6.146  10.198  1.4482  0.4303 -0.0312
 6353SOL    HW221439   2.719   6.292  10.157 -0.1852  0.2310 -0.6237
 6354SOL     OW21440   3.433   3.319   8.437  0.4292  0.2714 -0.1390
 6354SOL    HW121441   3.472   3.391   8.388 -3.7672  2.1145 -1.2041
 6354SOL    HW221442   3.461   3.332   8.527  1.8833  1.6053 -0.7458
 6355SOL     OW21443   5.833  10.636   9.736  0.3465  0.5235 -0.5839
 6355SOL    HW121444   5.885  10.631   9.656  0.8211 -0.3971 -0.2378
 6355SOL    HW221445   5.876  10.575   9.796 -1.4661 -0.6990 -0.4612
 6356SOL     OW21446   0.949   6.877   1.147  0.2087  0.3349 -0.1282
 6356SOL    HW121447   0.995   6.888   1.230  0.4497 -0.5352 -0.1325
 6356SOL    HW221448   0.895   6.955   1.139  0.1171  0.3953  0.8961
 6357SOL     OW21449   4.100   8.776   8.528 -0.2546  0.1787 -0.3241
 6357SOL    HW121450   4.033   8.736   8.583  1.4294 -0.4370  1.3908
 6357SOL    HW221451   4.065   8.770   8.439 -2.6140  0.2707  0.5460
 6358SOL     OW21452   7.984   5.746   0.270  0.0104  0.3339  0.2769
 6358SOL    HW121453   8.047   5.682   0.304 -0.9664  0.1511  1.8516
 6358SOL    HW221454   7.901   5.699   0.266 -0.1402  0.6812 -1.4168
 6359SOL     OW21455   8.290  10.785  10.048  0.1053  0.6030 -0.0599
 6359SOL    HW121456   8.353  10.852  10.019 -0.7169  1.3029 -0.2687
 6359SOL    HW221457   8.277  10.730   9.970  0.2814  0.5925 -0.0838
 6360SOL     OW21458   9.413   2.279   1.096 -0.6892 -0.7307 -0.3473
 6360SOL    HW121459   9.491   2.324   1.062 -0.9301 -0.7775 -0.9671
 6360SOL    HW221460   9.443   2.239   1.178 -0.4001  0.3159  0.0786
 6361SOL     OW21461   8.414   2.648   0.883  0.3642  0.2819  0.2944
 6361SOL    HW121462   8.473   2.700   0.828  1.5451 -0.8022  0.4974
 6361SOL    HW221463   8.359   2.600   0.821  0.5924  0.2968  0.0814
 6362SOL     OW21464   0.283   2.435   4.227  0.4705 -0.4476 -0.1113
 6362SOL    HW121465   0.377   2.448   4.224  0.7159 -0.9256  2.8708
 6362SOL    HW221466   0.271   2.355   4.278 -1.5639 -0.4182 -0.4491
 6363SOL     OW21467   6.783   4.197   3.436 -0.4089 -0.2965 -0.3067
 6363SOL    HW121468   6.724   4.179   3.363  0.1800 -0.6157 -0.7149
 6363SOL    HW221469   6.762   4.287   3.463  0.6575  0.5379 -2.1147
 6364SOL     OW21470   4.766  10.184   4.538 -0.9700 -0.1070 -0.1163
 6364SOL    HW121471   4.850  10.157   4.577 -1.6842 -1.3021  0.6408
 6364SOL    HW221472   4.700  10.157   4.602 -2.2426 -2.3992 -2.2219
 6365SOL     OW21473   6.147   6.095   3.346  0.6100  0.2997 -0.1541
 6365SOL    HW121474   6.081   6.164   3.352 -0.5051 -0.8380  1.6890
 6365SOL    HW221475   6.100   6.014   3.367  2.3034 -0.7513 -0.1686
 6366SOL     OW21476   0.465   7.188   8.721 -0.3224 -0.6350 -0.5942
 6366SOL    HW121477   0.548   7.185   8.673 -1.4988 -0.7757 -2.7534
 6366SOL    HW221478   0.440   7.096   8.731 -0.3944 -0.5785 -0.2272
 6367SOL     OW21479   0.880   1.753   0.298  0.0422 -0.4523 -0.1360
 6367SOL    HW121480   0.799   1.793   0.327  0.0115 -0.4598 -0.2119
 6367SOL    HW221481   0.859   1.660   0.289  0.4977 -0.7340  1.4668
 6368SOL     OW21482   7.494   3.829   0.500  0.5099 -0.0369 -0.2494
 6368SOL    HW121483   7.491   3.787   0.586 -0.0206 -0.0082 -0.2465
 6368SOL    HW221484   7.407   3.813   0.463 -0.1992  2.1903  0.2968
 6369SOL     OW21485   1.758   2.136   0.053  0.4402  0.4831 -0.4892
 6369SOL    HW121486   1.851   2.113   0.059  0.1210 -1.0825 -1.0052
 6369SOL    HW221487   1.712   2.055   0.075 -0.8133  1.2285 -0.2574
 6370SOL     OW21488  10.350  10.023   0.024 -0.0887  0.2663 -0.1248
 6370SOL    HW121489  10.371  10.101   0.075 -0.3119  0.1367  0.1683
 6370SOL    HW221490  10.377   9.950   0.080 -1.8341  0.0681  0.5177
 6371SOL     OW21491   5.955  10.244   0.776 -0.4367  0.1092  0.2818
 6371SOL    HW121492   5.916  10.175   0.829 -0.1957 -0.5559 -0.3974
 6371SOL    HW221493   5.893  10.258   0.705 -0.6813  0.8865  0.6372
 6372SOL     OW21494   1.920   9.305   9.204 -0.3616 -0.1895  0.3918
 6372SOL    HW121495   1.947   9.235   9.144 -0.3430  0.7500 -0.7322
 6372SOL    HW221496   1.826   9.314   9.190 -0.2397  0.5215 -0.0654
 6373SOL     OW21497   9.455   9.512   5.650  0.8843  0.1675 -0.7007
 6373SOL    HW121498   9.529   9.464   5.612  1.8071  1.8702 -1.1288
 6373SOL    HW221499   9.490   9.550   5.731  0.5210  1.0736 -0.9546
 6374SOL     OW21500   2.071   8.360   2.215  0.1210  0.4009  0.2493
 6374SOL    HW121501   2.157   8.357   2.171  0.9953 -0.2927  1.9068
 6374SOL    HW221502   2.056   8.452   2.232  0.2980  0.5763 -0.5033
 6375SOL     OW21503   3.698   1.811   9.971  1.1278  0.9871 -0.0889
 6375SOL    HW121504   3.678   1.894   9.928  0.3226  1.3338  0.9170
 6375SOL    HW221505   3.629   1.800  10.036  0.9427 -0.7332 -0.5338
 6376SOL     OW21506   9.956   5.124   2.058  0.7857 -0.4870 -0.1562
 6376SOL    HW121507   9.937   5.030   2.059 -2.2467  0.0090  2.1197
 6376SOL    HW221508   9.911   5.157   1.980  0.7237 -0.7074 -0.2127
 6377SOL     OW21509   9.256   4.442   5.101  0.1745  0.4294  0.1275
 6377SOL    HW121510   9.278   4.443   5.008  0.6631 -0.5141  0.2186
 6377SOL    HW221511   9.197   4.367   5.111  1.0366 -0.1957  0.7546
 6378SOL     OW21512   3.513   6.076  10.720 -0.2326 -0.0514  0.1440
 6378SOL    HW121513   3.537   6.112  10.635  0.1889  0.1718  0.3536
 6378SOL    HW221514   3.596   6.066  10.766 -0.4952  0.2204  0.6849
 6379SOL     OW21515   1.170   5.588   1.269  0.2401 -0.3728  0.5167
 6379SOL    HW121516   1.230   5.595   1.195 -0.0352  0.9190  0.3842
 6379SOL    HW221517   1.212   5.527   1.329  0.8342 -0.8420 -0.3591
 6380SOL     OW21518   4.837   4.306   0.429  0.3128  0.9286 -0.0355
 6380SOL    HW121519   4.804   4.225   0.391 -0.6377  0.6666  1.2637
 6380SOL    HW221520   4.898   4.279   0.497  0.5457  1.3271 -0.0800
 6381SOL     OW21521   3.294   6.299   3.839  0.6880 -0.0554 -0.1025
 6381SOL    HW121522   3.255   6.385   3.855  0.3430  0.1232 -1.6650
 6381SOL    HW221523   3.388   6.314   3.841  0.6331  0.5025 -0.8947
 6382SOL     OW21524   5.991   2.316   2.787 -0.2792 -0.2520 -0.0216
 6382SOL    HW121525   5.897   2.332   2.795 -0.0056  1.0599  0.8010
 6382SOL    HW221526   5.997   2.236   2.733 -1.8712 -0.8087  0.5616
 6383SOL     OW21527   4.996  10.106   0.822  0.1075  0.5057  0.6699
 6383SOL    HW121528   5.000  10.177   0.886  0.5578  0.1104  1.0988
 6383SOL    HW221529   4.903  10.094   0.804  0.0940  2.3165 -0.7020
 6384SOL     OW21530   8.940   5.828   9.938 -0.5657 -0.0829  0.4306
 6384SOL    HW121531   8.866   5.815   9.998  0.1789  1.2629  1.7131
 6384SOL    HW221532   8.965   5.919   9.951  2.9293 -1.1095  1.9837
 6385SOL     OW21533   7.926   3.626   6.583  0.1451  0.3041  0.1543
 6385SOL    HW121534   7.842   3.590   6.555 -0.1762  0.8987  0.3347
 6385SOL    HW221535   7.916   3.720   6.571  0.9445  0.3435 -0.2384
 6386SOL     OW21536   3.244   7.738   7.032 -0.6221 -0.9848  0.0146
 6386SOL    HW121537   3.156   7.740   7.072 -1.2056 -0.2683 -1.2645
 6386SOL    HW221538   3.286   7.818   7.063 -0.4026 -1.3294  0.6297
 6387SOL     OW21539   0.126   3.612  10.102  0.0913  0.9882 -0.3245
 6387SOL    HW121540   0.059   3.553  10.068  1.7051 -0.9092 -0.3990
 6387SOL    HW221541   0.209   3.567  10.084  1.2979  2.3777  1.4064
 6388SOL     OW21542   4.042   3.214   7.884 -0.0744  0.3453  0.6638
 6388SOL    HW121543   3.973   3.157   7.848  0.3869 -0.3858  0.9151
 6388SOL    HW221544   4.022   3.301   7.850  0.0326 -0.2213 -0.9003
 6389SOL     OW21545   7.826   2.346  10.581  0.0547 -0.4253  0.0900
 6389SOL    HW121546   7.859   2.260  10.607  0.8049 -0.0713  0.3364
 6389SOL    HW221547   7.894   2.383  10.525  0.2941  0.4877  0.9398
 6390SOL     OW21548   8.243   5.345   2.435 -0.4868  0.3247  0.4695
 6390SOL    HW121549   8.246   5.408   2.508 -0.2470  2.7384 -1.4813
 6390SOL    HW221550   8.153   5.349   2.404 -0.1087  0.8661 -0.5928
 6391SOL     OW21551  10.050   6.084   8.448 -0.2345 -0.2290 -0.0198
 6391SOL    HW121552  10.072   6.025   8.375 -0.6646 -3.2961  2.1657
 6391SOL    HW221553   9.955   6.087   8.448 -0.4049 -2.7674  2.1410
 6392SOL     OW21554   9.127   5.766   2.250 -0.2659  0.3085 -0.0283
 6392SOL    HW121555   9.048   5.776   2.301  0.3776 -0.2618  1.1201
 6392SOL    HW221556   9.106   5.697   2.186 -0.6932  0.1727  0.2613
 6393SOL     OW21557   1.933   5.302   5.849 -0.3481 -0.1508 -0.3879
 6393SOL    HW121558   1.968   5.354   5.922 -0.4040 -0.6806  0.0233
 6393SOL    HW221559   2.007   5.249   5.820 -0.1651  0.4973 -1.1182
 6394SOL     OW21560   5.892   6.818   9.485 -0.1164  0.4896 -0.1386
 6394SOL    HW121561   5.847   6.794   9.404 -1.2129  2.2090 -0.0969
 6394SOL    HW221562   5.863   6.753   9.549  0.2185 -0.4788 -0.9489
 6395SOL     OW21563   2.411   9.192   4.972  0.2011  0.2908  0.5834
 6395SOL    HW121564   2.342   9.133   5.002  1.2647 -1.7846 -0.7710
 6395SOL    HW221565   2.424   9.168   4.880 -0.3843  3.7960 -0.5836
 6396SOL     OW21566   1.243  10.437   9.832  0.4180 -0.0753 -0.1164
 6396SOL    HW121567   1.207  10.349   9.832  0.6222 -0.1646  0.2589
 6396SOL    HW221568   1.167  10.495   9.841  0.2574 -0.1966 -0.6799
 6397SOL     OW21569  10.318   1.619  10.123  0.0289  0.2290  0.4092
 6397SOL    HW121570  10.366   1.656  10.197  1.1400  1.3956 -0.8485
 6397SOL    HW221571  10.242   1.677  10.112  0.2759  0.5129  0.1761
 6398SOL     OW21572   8.854   6.924   0.927 -0.0981 -0.0853 -0.0106
 6398SOL    HW121573   8.946   6.899   0.917 -0.1780 -0.7153  0.7112
 6398SOL    HW221574   8.852   7.017   0.904  0.3977 -0.4608 -1.6988
 6399SOL     OW21575   3.770   0.539   5.176  0.4670 -0.0315  0.4396
 6399SOL    HW121576   3.851   0.549   5.125  0.2005  1.6343  0.2887
 6399SOL    HW221577   3.702   0.576   5.120 -0.1093  0.2680  1.3165
 6400SOL     OW21578   7.677   8.530   3.934 -0.3920  0.0895  0.0082
 6400SOL    HW121579   7.688   8.446   3.890  1.0766  0.4638 -0.3901
 6400SOL    HW221580   7.582   8.542   3.941 -0.6279 -0.8633 -1.3417
 6401SOL     OW21581   0.873   1.965   5.302  0.1045 -0.3980 -0.3572
 6401SOL    HW121582   0.962   1.986   5.275  0.6751 -1.8540  0.2972
 6401SOL    HW221583   0.818   1.998   5.231  1.0086  1.7906 -0.1409
 6402SOL     OW21584   7.662   7.463   1.992  0.2113  0.8014  0.4854
 6402SOL    HW121585   7.614   7.474   1.909 -1.0858 -0.4074  1.0332
 6402SOL    HW221586   7.603   7.411   2.047  2.6161 -1.8302  0.7935
 6403SOL     OW21587   1.511  10.008   4.864 -0.0779 -0.0064  0.3035
 6403SOL    HW121588   1.545  10.002   4.774 -0.9988 -1.7452  0.0242
 6403SOL    HW221589   1.517   9.918   4.897  1.3295  0.7937  2.4350
 6404SOL     OW21590   0.772  10.078   4.269  0.6079 -0.0199 -0.1125
 6404SOL    HW121591   0.696  10.028   4.240  1.3638 -2.1912  1.4312
 6404SOL    HW221592   0.738  10.134   4.339 -0.1851  1.5478 -1.6650
 6405SOL     OW21593   5.233   3.290   3.573  0.6184 -0.2901  0.2687
 6405SOL    HW121594   5.209   3.197   3.576  0.6083 -0.3072 -0.1999
 6405SOL    HW221595   5.245   3.308   3.479  2.6366 -0.3444  0.4595
 6406SOL     OW21596   1.777   6.879   1.741  0.4293  0.0843  0.1101
 6406SOL    HW121597   1.834   6.954   1.761 -0.1483  0.5375  0.1063
 6406SOL    HW221598   1.796   6.816   1.810  0.0132  0.7590  0.8730
 6407SOL     OW21599   9.973   7.556   9.449  0.9910 -0.0430  0.6243
 6407SOL    HW121600  10.067   7.577   9.442  0.1671  4.2876 -0.9395
 6407SOL    HW221601   9.942   7.552   9.359 -0.9536  3.3023  0.9611
 6408SOL     OW21602  10.702   8.136   9.144 -0.2222 -0.6896 -0.3914
 6408SOL    HW121603  10.691   8.085   9.225  0.3593  0.2217  0.2892
 6408SOL    HW221604  10.757   8.210   9.170 -0.2378 -0.2394 -1.5756
 6409SOL     OW21605   1.326   9.152   0.723  0.6005 -0.5845  0.2401
 6409SOL    HW121606   1.365   9.209   0.656  0.5300 -1.0054 -0.1604
 6409SOL    HW221607   1.400   9.105   0.760  0.4484 -1.7414 -0.8561
 6410SOL     OW21608   3.700   7.403   2.354 -0.8390 -0.0856  0.1646
 6410SOL    HW121609   3.716   7.473   2.291 -1.7713 -0.9451 -1.0669
 6410SOL    HW221610   3.615   7.424   2.392 -0.5578  0.1001  0.6959
 6411SOL     OW21611   9.426   2.864   8.215 -0.1659 -0.5249  0.1980
 6411SOL    HW121612   9.472   2.930   8.163 -0.4700 -1.8940 -1.9490
 6411SOL    HW221613   9.488   2.841   8.284  1.4567 -0.5850 -1.2040
 6412SOL     OW21614   7.035   0.859   4.300 -0.0537  0.0683  0.2510
 6412SOL    HW121615   7.085   0.940   4.316 -0.2563  0.3466 -0.4798
 6412SOL    HW221616   7.100   0.797   4.268 -0.0825  0.3010 -0.2861
 6413SOL     OW21617   3.112  10.685   6.683 -0.2423 -0.1704  0.1025
 6413SOL    HW121618   3.023  10.717   6.698  0.7598  3.3045 -0.4861
 6413SOL    HW221619   3.118  10.673   6.588  0.5679  2.1281 -0.1957
 6414SOL     OW21620   2.310   6.594   4.758  0.1022 -0.8056  0.2897
 6414SOL    HW121621   2.309   6.545   4.840  0.5102 -1.2187  0.0496
 6414SOL    HW221622   2.396   6.637   4.757  0.3263 -1.2563 -0.1845
 6415SOL     OW21623   2.108   8.605   2.562  0.7130  0.0047 -0.6062
 6415SOL    HW121624   2.150   8.691   2.556 -2.2132  1.4839 -1.8239
 6415SOL    HW221625   2.073   8.602   2.651  3.1210 -1.1982  0.3846
 6416SOL     OW21626   5.889   4.612   7.818 -0.0830  0.1274 -0.7126
 6416SOL    HW121627   5.850   4.544   7.873  1.1211  0.3479  0.4582
 6416SOL    HW221628   5.905   4.569   7.734 -3.0739  0.1050 -1.3947
 6417SOL     OW21629   3.512   6.980   8.801  0.3240  0.0900  0.2181
 6417SOL    HW121630   3.513   7.068   8.764 -1.2816 -0.5793 -1.5559
 6417SOL    HW221631   3.425   6.971   8.840  0.4096 -0.7691  0.2294
 6418SOL     OW21632   5.289  10.759   5.361 -0.4088  0.2449 -0.0967
 6418SOL    HW121633   5.295  10.835   5.303  2.8767 -0.8274 -1.4282
 6418SOL    HW221634   5.377  10.751   5.399 -0.3898 -3.2073 -0.5318
 6419SOL     OW21635   7.053   1.201  10.193 -0.5060 -0.3654  0.0909
 6419SOL    HW121636   7.063   1.155  10.277 -1.3979 -0.8548 -0.0617
 6419SOL    HW221637   7.067   1.293  10.216 -1.0030 -0.4602  0.8422
 6420SOL     OW21638   3.005   8.210   4.362  0.1751 -0.6841 -0.7314
 6420SOL    HW121639   3.023   8.272   4.291  1.2963  0.6913  0.6734
 6420SOL    HW221640   2.926   8.245   4.404 -1.0428 -2.0177 -1.7972
 6421SOL     OW21641   7.276   2.729   1.448  1.0093  0.0187 -0.5498
 6421SOL    HW121642   7.322   2.680   1.380 -0.4663 -0.0377 -1.5709
 6421SOL    HW221643   7.301   2.685   1.530 -0.9355 -3.1707 -1.4663
 6422SOL     OW21644   7.656   2.902  10.419 -0.0710 -0.3480 -0.4790
 6422SOL    HW121645   7.649   2.962  10.493  0.0597  0.1467 -0.8621
 6422SOL    HW221646   7.695   2.955  10.349 -1.8442 -0.2576 -1.4770
 6423SOL     OW21647   2.605   7.283   4.554 -0.4762 -0.1598  0.1805
 6423SOL    HW121648   2.528   7.290   4.498 -0.2440 -0.6353 -0.2025
 6423SOL    HW221649   2.655   7.363   4.535 -0.8748  0.1622  0.4478
 6424SOL     OW21650   6.582   0.829   2.240 -0.0725  0.2313  0.9218
 6424SOL    HW121651   6.494   0.836   2.204  1.0236 -0.2471 -2.1451
 6424SOL    HW221652   6.621   0.755   2.193  1.5837 -0.4235  3.1579
 6425SOL     OW21653   6.572   1.455   8.058  0.5944 -0.2125 -0.0047
 6425SOL    HW121654   6.664   1.453   8.031  1.5126 -0.3506  2.8079
 6425SOL    HW221655   6.553   1.365   8.086  0.1346  0.1683  0.9506
 6426SOL     OW21656   8.601   6.743   0.567 -0.4664 -0.3826 -0.1746
 6426SOL    HW121657   8.578   6.752   0.475  2.0399 -0.4505 -0.8652
 6426SOL    HW221658   8.595   6.832   0.602  1.3129  0.1469 -1.1365
 6427SOL     OW21659   3.529   1.580   7.086  0.3070 -0.0395 -0.3809
 6427SOL    HW121660   3.448   1.631   7.088  0.3924  0.1002  0.9981
 6427SOL    HW221661   3.577   1.610   7.164  1.4104 -0.5552 -0.8450
 6428SOL     OW21662   0.780   1.392   5.037  0.0043 -0.1014  0.2683
 6428SOL    HW121663   0.839   1.444   4.982 -0.9641  1.7269  0.8868
 6428SOL    HW221664   0.838   1.336   5.088  1.1510  1.0563  0.2754
 6429SOL     OW21665   0.718   2.259   4.052 -0.0884 -0.2280  0.1477
 6429SOL    HW121666   0.669   2.177   4.061  0.3327 -0.2872  2.7748
 6429SOL    HW221667   0.660   2.318   4.005 -1.4686 -1.2226  0.5519
 6430SOL     OW21668   5.433   6.164  10.131 -0.3253  0.0325 -0.4201
 6430SOL    HW121669   5.396   6.153  10.218 -0.9741 -1.0572 -0.8150
 6430SOL    HW221670   5.475   6.080  10.111 -0.8153  0.0018 -1.4317
 6431SOL     OW21671   0.837  10.595   0.127 -0.2954  0.6667  0.0002
 6431SOL    HW121672   0.871  10.660   0.188 -1.6508 -0.3441  1.9041
 6431SOL    HW221673   0.911  10.536   0.112 -0.7851 -1.0274  3.4309
 6432SOL     OW21674  10.629   3.831   5.010 -0.0581 -0.8254  0.0060
 6432SOL    HW121675  10.600   3.897   5.072  2.0604 -0.3133  0.5436
 6432SOL    HW221676  10.641   3.752   5.063  2.0908 -0.2972  0.4254
 6433SOL     OW21677   2.562   3.920   3.911  0.0526 -0.0248 -0.2562
 6433SOL    HW121678   2.546   3.831   3.879 -3.0566  0.0930  0.6670
 6433SOL    HW221679   2.494   3.973   3.871  0.3267  1.4612  1.1486
 6434SOL     OW21680   2.176   2.006   4.645 -0.4675  0.1911 -0.0668
 6434SOL    HW121681   2.132   1.938   4.595 -1.2104  0.3773  0.3182
 6434SOL    HW221682   2.262   2.014   4.604 -0.3429 -1.0189 -0.0770
 6435SOL     OW21683   7.022   2.252   9.336  0.0407  0.7681 -0.3005
 6435SOL    HW121684   6.957   2.314   9.369 -0.1829  0.1000  0.5553
 6435SOL    HW221685   6.970   2.179   9.304  0.2720  1.2871 -1.9171
 6436SOL     OW21686   5.984   2.451   9.055 -0.0057  0.4080  0.0266
 6436SOL    HW121687   5.903   2.484   9.015 -0.4437  0.0638  0.6078
 6436SOL    HW221688   5.955   2.378   9.111  0.7270  0.1752  0.1155
 6437SOL     OW21689   5.513   7.203  10.747  0.0776 -0.3709 -0.6327
 6437SOL    HW121690   5.428   7.247  10.752  0.2955  0.1115 -1.0218
 6437SOL    HW221691   5.523   7.180  10.654  1.1634  1.2407 -0.9775
 6438SOL     OW21692   8.096   0.085  10.243  0.3087 -0.4451 -0.2813
 6438SOL    HW121693   8.157   0.033  10.192  1.3525  1.4343 -1.0355
 6438SOL    HW221694   8.092   0.170  10.199  0.4607  0.9358  2.1422
 6439SOL     OW21695   4.609   0.706   9.802  0.1374  1.1152  0.0831
 6439SOL    HW121696   4.645   0.761   9.732  0.5735  0.7687  0.0280
 6439SOL    HW221697   4.534   0.663   9.762  0.4615  0.8201 -0.2168
 6440SOL     OW21698   2.792   2.788   9.969 -0.6834  0.3017  0.1603
 6440SOL    HW121699   2.774   2.763  10.060 -1.0552 -2.7979 -0.6657
 6440SOL    HW221700   2.793   2.706   9.921 -0.3610  1.8340 -2.6721
 6441SOL     OW21701   2.109   5.368   7.916  0.3877 -0.2560  0.1638
 6441SOL    HW121702   2.163   5.336   7.843  2.2191  3.6831 -0.4395
 6441SOL    HW221703   2.038   5.416   7.874  1.1503  1.5887  0.9112
 6442SOL     OW21704  10.575   7.719   8.779  0.4262  0.2937 -0.4579
 6442SOL    HW121705  10.623   7.643   8.813 -0.1017 -0.1686 -0.7248
 6442SOL    HW221706  10.531   7.755   8.856  3.1054  2.2177  0.3047
 6443SOL     OW21707   9.109   2.991   6.429  0.0119  0.2724  0.2210
 6443SOL    HW121708   9.148   3.076   6.409  1.6785 -0.5947 -0.4875
 6443SOL    HW221709   9.043   2.978   6.360  1.2483  0.1084 -0.9884
 6444SOL     OW21710  10.633   1.340   7.922 -0.1299  0.0677 -0.0083
 6444SOL    HW121711  10.680   1.321   7.841  1.8207  0.4377  0.9775
 6444SOL    HW221712  10.572   1.410   7.899 -0.5807 -0.7623 -1.4512
 6445SOL     OW21713   2.094  10.609  10.649 -0.6621 -0.1276 -1.1296
 6445SOL    HW121714   2.111  10.531  10.596 -1.2401  0.3483 -2.0543
 6445SOL    HW221715   2.059  10.673  10.586 -2.0292  0.2348 -0.0491
 6446SOL     OW21716   5.401   8.015   8.516  0.2286  0.7755 -0.0565
 6446SOL    HW121717   5.386   8.101   8.479 -0.3503 -0.0213 -1.7513
 6446SOL    HW221718   5.488   7.990   8.484  0.8845  1.1588  1.3479
 6447SOL     OW21719   8.161   9.941   1.350 -0.4324 -0.3309 -0.3845
 6447SOL    HW121720   8.254   9.928   1.364 -0.5228 -0.1425  0.4026
 6447SOL    HW221721   8.144   9.903   1.263  0.2993 -0.6808 -0.3760
 6448SOL     OW21722   0.150  10.537   2.502  0.2538 -0.4913 -0.1453
 6448SOL    HW121723   0.144  10.562   2.594 -1.8259  2.1824 -0.8744
 6448SOL    HW221724   0.139  10.619   2.454  0.0428 -1.9580 -2.8100
 6449SOL     OW21725   9.400   2.061   4.892 -0.0160 -0.1478 -0.3143
 6449SOL    HW121726   9.307   2.065   4.912 -0.5637 -0.6208 -2.4329
 6449SOL    HW221727   9.407   1.992   4.826  2.0920 -1.2497  0.9443
 6450SOL     OW21728   1.991   0.429  10.380 -0.4163 -0.0916  0.1918
 6450SOL    HW121729   1.922   0.476  10.333 -0.3432 -1.3143 -1.2047
 6450SOL    HW221730   1.946   0.388  10.454 -1.5580 -2.0355 -1.4669
 6451SOL     OW21731   0.414   0.907   2.484 -0.2717 -0.3416 -0.0589
 6451SOL    HW121732   0.447   0.842   2.546  0.5298 -0.4086 -0.5472
 6451SOL    HW221733   0.413   0.862   2.400 -0.5437  0.0090 -0.2437
 6452SOL     OW21734   2.005   6.947   4.975 -0.3355  0.0012 -0.2434
 6452SOL    HW121735   2.062   6.907   4.909  1.5689  2.9696 -0.5722
 6452SOL    HW221736   2.066   6.982   5.040 -2.0867 -3.3715  3.7166
 6453SOL     OW21737   3.541   0.893   6.868 -0.5207 -0.4123 -0.3463
 6453SOL    HW121738   3.582   0.898   6.955 -0.5141  0.1291 -0.3798
 6453SOL    HW221739   3.477   0.963   6.868  1.1941  1.2710 -1.6738
 6454SOL     OW21740   9.046   4.616   9.144  0.3563 -0.5992  0.0964
 6454SOL    HW121741   9.005   4.536   9.177  0.1898 -0.1990  0.8585
 6454SOL    HW221742   8.983   4.685   9.163  1.4074  0.0386  1.3710
 6455SOL     OW21743   6.295   9.512   9.758 -0.1393 -0.5496 -0.7391
 6455SOL    HW121744   6.306   9.588   9.701 -0.3172 -0.7174 -1.0013
 6455SOL    HW221745   6.350   9.444   9.719  0.1571 -0.5036 -0.4055
 6456SOL     OW21746   6.148   2.902   1.095  0.0131 -0.0097 -0.3127
 6456SOL    HW121747   6.067   2.852   1.078 -0.5690  1.0738 -0.8616
 6456SOL    HW221748   6.161   2.896   1.189 -0.0319 -1.1967 -0.3645
 6457SOL     OW21749   4.239   1.537   7.729 -0.2281 -0.1533  0.0082
 6457SOL    HW121750   4.287   1.548   7.811  1.1738  4.0092 -1.1358
 6457SOL    HW221751   4.150   1.563   7.750 -0.4637 -1.3873  0.6507
 6458SOL     OW21752   1.214   3.004   9.112 -0.3610  0.4773  0.1349
 6458SOL    HW121753   1.270   3.075   9.081 -1.1895  1.6035  1.1208
 6458SOL    HW221754   1.131   3.046   9.133 -1.0659 -0.8876  0.2160
 6459SOL     OW21755   1.256   1.568   2.125  0.9036  0.6121  0.5009
 6459SOL    HW121756   1.249   1.607   2.212 -1.1391  2.1374 -0.2392
 6459SOL    HW221757   1.312   1.629   2.076  1.6579  0.0158  0.6184
 6460SOL     OW21758   2.275  10.643  10.190 -0.2343 -0.1079 -0.0805
 6460SOL    HW121759   2.202  10.680  10.238 -0.5459  1.8314 -1.9230
 6460SOL    HW221760   2.302  10.712  10.129  1.7530 -1.5338 -0.9371
 6461SOL     OW21761   4.187   6.574   1.775 -0.1092 -0.3605 -0.1633
 6461SOL    HW121762   4.109   6.523   1.794 -1.8174  2.9545  3.0504
 6461SOL    HW221763   4.164   6.628   1.700  0.7376 -2.1981 -1.8412
 6462SOL     OW21764   8.302   2.476   0.701 -0.2701  0.4455  0.1907
 6462SOL    HW121765   8.304   2.401   0.761  1.5013  0.1066 -0.2474
 6462SOL    HW221766   8.242   2.449   0.632 -0.1014 -0.3276  0.3381
 6463SOL     OW21767   0.892   8.472   6.832 -0.2295 -0.5960 -0.4592
 6463SOL    HW121768   0.964   8.408   6.829 -1.5853 -2.1524 -2.4569
 6463SOL    HW221769   0.888   8.498   6.924  1.9419 -1.5446 -0.0185
 6464SOL     OW21770   2.839   7.953  10.394  0.5426 -0.1486 -0.1856
 6464SOL    HW121771   2.753   7.920  10.369  0.5790 -1.3518  1.1839
 6464SOL    HW221772   2.901   7.906  10.338  0.5068 -1.5505  0.9206
 6465SOL     OW21773   1.788   4.373   8.900  0.3497 -0.1072 -0.4080
 6465SOL    HW121774   1.773   4.439   8.968 -1.5456 -0.1595 -0.7133
 6465SOL    HW221775   1.840   4.306   8.943  0.8934  0.7981  0.3992
 6466SOL     OW21776  10.498   2.348   7.083 -0.0402  0.5330 -0.3830
 6466SOL    HW121777  10.403   2.353   7.083 -0.4295 -2.9541  1.7120
 6466SOL    HW221778  10.527   2.433   7.116 -2.2566  2.1679 -2.3207
 6467SOL     OW21779   7.242   9.998   7.185 -0.3653  0.2387  0.4116
 6467SOL    HW121780   7.170   9.940   7.160  0.7441 -1.7661  1.5970
 6467SOL    HW221781   7.205  10.086   7.180 -1.5716 -0.3247 -3.3499
 6468SOL     OW21782   5.726   7.971  10.541 -0.2016 -0.1805 -0.2501
 6468SOL    HW121783   5.713   7.906  10.610  0.4993  0.6075  0.6480
 6468SOL    HW221784   5.671   8.044  10.567 -1.2043 -0.4891 -1.4016
 6469SOL     OW21785  10.556   1.679   1.469  0.0602  0.8212 -0.2620
 6469SOL    HW121786  10.591   1.612   1.410 -0.5899 -0.0431  0.3121
 6469SOL    HW221787  10.622   1.748   1.467  1.6820 -0.6046  0.5224
 6470SOL     OW21788   3.356   5.336   9.645 -0.3628  0.7998  0.0904
 6470SOL    HW121789   3.412   5.289   9.707  2.9850  2.9110 -1.1157
 6470SOL    HW221790   3.346   5.275   9.572  1.4645  0.8119 -0.2073
 6471SOL     OW21791   6.845   9.634   2.132 -0.5723 -0.2749  0.2828
 6471SOL    HW121792   6.930   9.635   2.176 -0.6534 -0.4197  0.4457
 6471SOL    HW221793   6.797   9.563   2.175 -0.6238 -0.4692 -0.0954
 6472SOL     OW21794   5.214   0.215   9.926 -0.3962  0.5665 -0.3508
 6472SOL    HW121795   5.197   0.163   9.848 -1.8094  0.0818  0.2369
 6472SOL    HW221796   5.306   0.240   9.920  0.1201 -1.3686 -1.0232
 6473SOL     OW21797   8.335   8.371   1.106  0.6289  0.3687 -1.0283
 6473SOL    HW121798   8.330   8.290   1.156  2.8212  2.0602  2.3606
 6473SOL    HW221799   8.262   8.424   1.138  0.0598  0.3006 -2.1638
 6474SOL     OW21800   5.214   4.593   4.657 -0.0793  0.5254  0.4304
 6474SOL    HW121801   5.246   4.568   4.570  0.4631 -1.1923  1.0865
 6474SOL    HW221802   5.248   4.681   4.670 -0.1740  0.8135 -1.0932
 6475SOL     OW21803   9.018   0.889   5.725  0.1985 -0.6136  0.5365
 6475SOL    HW121804   9.064   0.960   5.769  2.8414 -0.9787 -1.3745
 6475SOL    HW221805   8.961   0.933   5.662  1.4005 -0.1011 -0.2420
 6476SOL     OW21806   1.950   5.518   4.229 -0.6485 -0.1676  0.1936
 6476SOL    HW121807   1.958   5.530   4.134  1.5992 -0.2291  0.3323
 6476SOL    HW221808   1.966   5.604   4.266 -1.4771 -0.1532  0.5541
 6477SOL     OW21809   6.496   3.246   8.973  0.3816 -0.4537  0.6841
 6477SOL    HW121810   6.432   3.289   9.029 -2.3033  0.3444 -2.6743
 6477SOL    HW221811   6.460   3.159   8.957  0.4814 -0.2963 -0.5690
 6478SOL     OW21812   1.653   5.958   8.617  0.2985  0.3308 -0.2636
 6478SOL    HW121813   1.739   5.951   8.657  0.1869 -0.2471 -0.1128
 6478SOL    HW221814   1.614   5.871   8.629  0.6438 -0.2057 -2.5493
 6479SOL     OW21815   7.088   9.099   0.758 -0.1384  0.3110 -0.1442
 6479SOL    HW121816   7.012   9.083   0.813  0.5704 -1.7008  0.3208
 6479SOL    HW221817   7.142   9.020   0.766  1.8251  1.5007 -0.7592
 6480SOL     OW21818   4.038   9.889   3.719 -0.1234  0.2849 -0.0700
 6480SOL    HW121819   4.039   9.946   3.796 -0.8357  2.0356 -1.2696
 6480SOL    HW221820   4.082   9.809   3.746 -0.1401  0.9563  2.0569
 6481SOL     OW21821   0.926   2.642   1.596 -0.3928  0.0044 -0.3571
 6481SOL    HW121822   0.957   2.640   1.687  0.3104 -1.8385 -0.5978
 6481SOL    HW221823   0.839   2.602   1.600  0.0813 -1.0769 -0.6282
 6482SOL     OW21824   6.447   3.625   0.099 -0.1257  0.0543 -0.5275
 6482SOL    HW121825   6.471   3.551   0.155 -1.2255  0.8152  1.0288
 6482SOL    HW221826   6.525   3.681   0.100  0.1177 -0.2766 -0.3495
 6483SOL     OW21827  10.053   3.885  10.357  0.1802 -0.5039 -0.3912
 6483SOL    HW121828  10.147   3.900  10.345  0.1805  1.4998  1.4816
 6483SOL    HW221829  10.031   3.931  10.438 -2.7756  0.6363 -1.6826
 6484SOL     OW21830   8.692   4.839  10.342 -0.1671  0.4998  0.0688
 6484SOL    HW121831   8.692   4.929  10.310  0.3678  0.4635 -0.0432
 6484SOL    HW221832   8.611   4.831  10.391  0.4397  1.4676  1.2839
 6485SOL     OW21833  10.066   9.726   1.329 -0.0513 -0.2422 -0.3730
 6485SOL    HW121834  10.069   9.812   1.371 -0.2208 -0.6453  0.4969
 6485SOL    HW221835  10.150   9.685   1.349  0.5203  0.1719 -1.8187
 6486SOL     OW21836   0.607   9.836   1.683 -0.0124  0.1791 -0.1739
 6486SOL    HW121837   0.552   9.886   1.744 -0.4487  2.8137 -2.5319
 6486SOL    HW221838   0.697   9.861   1.707 -0.1028  0.0392  0.3184
 6487SOL     OW21839   4.068   2.467   9.088  0.2030 -0.1175 -0.4064
 6487SOL    HW121840   4.085   2.450   8.996 -0.6039 -0.2862 -0.5300
 6487SOL    HW221841   3.976   2.446   9.100  0.3177 -0.1823  0.4596
 6488SOL     OW21842   9.537   8.310   2.413  0.0452 -0.5315 -0.1819
 6488SOL    HW121843   9.524   8.242   2.480 -0.2107 -2.2488 -1.8825
 6488SOL    HW221844   9.481   8.382   2.441 -0.4578 -1.4052  1.1735
 6489SOL     OW21845   8.394   8.723   6.706 -0.5541  0.3164  0.8452
 6489SOL    HW121846   8.388   8.802   6.760 -0.9718  0.8189  0.0922
 6489SOL    HW221847   8.443   8.752   6.628 -0.8407 -0.1320  0.4959
 6490SOL     OW21848   4.821   2.804   4.856 -0.2897 -0.5939 -0.0905
 6490SOL    HW121849   4.805   2.887   4.901  2.6975 -0.9714  1.9304
 6490SOL    HW221850   4.760   2.742   4.896 -1.8922  0.3726 -0.9587
 6491SOL     OW21851   7.646   3.828   1.952  0.4811 -0.0541  0.1311
 6491SOL    HW121852   7.646   3.878   2.034 -0.0474  0.1598  0.0026
 6491SOL    HW221853   7.606   3.887   1.888 -1.0092 -0.9626  0.1860
 6492SOL     OW21854   9.958   5.741   9.612  0.2373  0.3297 -0.5578
 6492SOL    HW121855   9.915   5.701   9.688  2.7940  0.1158  0.8706
 6492SOL    HW221856   9.939   5.680   9.540  0.2427 -1.0949  0.5843
 6493SOL     OW21857   3.565   4.060   0.826  0.7015  0.0438 -0.4537
 6493SOL    HW121858   3.474   4.087   0.816  0.5599 -0.5636 -0.8201
 6493SOL    HW221859   3.610   4.101   0.752  0.9494  1.2705  0.3423
 6494SOL     OW21860   7.638   6.924   6.946  0.1994  0.5113 -0.3754
 6494SOL    HW121861   7.601   6.871   6.876  1.8993 -2.3403  0.6863
 6494SOL    HW221862   7.564   6.971   6.983 -1.3089 -0.5871 -1.8699
 6495SOL     OW21863   8.650   7.063   9.842 -0.8555 -0.2621  0.2739
 6495SOL    HW121864   8.704   6.991   9.876  1.5199  1.0594 -0.4298
 6495SOL    HW221865   8.670   7.136   9.899  0.0402  0.8961 -1.4204
 6496SOL     OW21866   8.019   8.300   1.669  0.2771  0.0204  0.1698
 6496SOL    HW121867   8.092   8.331   1.723  1.1377 -0.5440 -0.6332
 6496SOL    HW221868   8.037   8.207   1.657 -0.5508 -0.1083 -0.0869
 6497SOL     OW21869   9.849   0.397   2.348 -0.0525  0.5339 -0.0598
 6497SOL    HW121870   9.893   0.476   2.316 -0.3379  1.6468  2.1369
 6497SOL    HW221871   9.896   0.325   2.306  0.0742  1.8314 -2.3217
 6498SOL     OW21872   3.295   4.975   8.513 -0.2748 -0.2723  0.1859
 6498SOL    HW121873   3.208   4.950   8.545 -0.6422 -0.5293 -0.9577
 6498SOL    HW221874   3.304   5.067   8.539 -2.4260  0.9101 -2.6894
 6499SOL     OW21875   8.521   2.436   6.023 -0.8112  0.5248 -0.0973
 6499SOL    HW121876   8.452   2.490   6.062 -3.2313 -2.1719 -0.3262
 6499SOL    HW221877   8.534   2.364   6.086 -1.1082 -1.1396 -1.8491
 6500SOL     OW21878   9.111  10.412   6.774 -0.3733  0.3244  0.1065
 6500SOL    HW121879   9.110  10.329   6.727  0.2218  0.4696 -0.1665
 6500SOL    HW221880   9.143  10.476   6.711  0.4536  0.5170  0.6978
 6501SOL     OW21881   7.288   1.946   4.802  0.4493 -0.7424  0.1393
 6501SOL    HW121882   7.196   1.973   4.811  0.3257 -0.0246 -2.3798
 6501SOL    HW221883   7.287   1.852   4.817 -1.0006 -0.9797 -1.1419
 6502SOL     OW21884   7.060   9.004   3.449  0.5703  0.1089 -0.0528
 6502SOL    HW121885   7.148   8.975   3.473  1.0035 -0.4332 -2.0971
 6502SOL    HW221886   7.066   9.099   3.446  0.5683  0.1854  1.5519
 6503SOL     OW21887   2.022  10.441   4.342  0.3129 -0.1461  0.2384
 6503SOL    HW121888   2.041  10.528   4.377 -2.4888  1.2427 -1.3373
 6503SOL    HW221889   2.029  10.451   4.247 -0.3114 -1.5488  0.0222
 6504SOL     OW21890   7.551   9.043   7.866 -0.3979  0.0638  0.1194
 6504SOL    HW121891   7.580   9.069   7.954  1.7040  1.5840 -0.9103
 6504SOL    HW221892   7.546   8.948   7.869 -0.0791  0.0693  1.8120
 6505SOL     OW21893   6.154   0.503   2.281 -0.1475  0.6401  0.0518
 6505SOL    HW121894   6.187   0.432   2.335  0.2469  0.4878 -0.3799
 6505SOL    HW221895   6.232   0.541   2.240 -0.5017  0.1950 -1.0815
 6506SOL     OW21896   7.187   5.191   2.416 -0.1226  0.4068 -0.3161
 6506SOL    HW121897   7.113   5.223   2.468  0.5956  2.2559 -0.3498
 6506SOL    HW221898   7.169   5.098   2.403 -1.2699  0.3030  1.6333
 6507SOL     OW21899   3.706  10.007   6.209 -0.3345  0.2735 -0.2311
 6507SOL    HW121900   3.736   9.918   6.228 -0.1891  0.3433 -0.1303
 6507SOL    HW221901   3.786  10.054   6.185 -0.2491  0.6453  0.7266
 6508SOL     OW21902   4.690   0.363  10.595  0.4118  0.2618  0.5505
 6508SOL    HW121903   4.704   0.457  10.603 -0.2283  0.5140 -0.9116
 6508SOL    HW221904   4.606   0.355  10.550  0.7772 -0.9894  0.0415
 6509SOL     OW21905   5.007   0.956   5.681  0.0290 -0.1726  0.5954
 6509SOL    HW121906   5.028   0.960   5.775 -1.1152 -0.0482  0.8597
 6509SOL    HW221907   5.076   1.008   5.640 -0.6022  1.5877  1.5918
 6510SOL     OW21908   3.453   1.939  10.176 -0.9480 -0.5029 -0.0589
 6510SOL    HW121909   3.496   2.024  10.188 -0.7437 -0.8015  1.5919
 6510SOL    HW221910   3.407   1.947  10.093 -1.1562  1.3214  0.1865
 6511SOL     OW21911   5.847   4.163   0.640  0.5210  0.0425 -0.1181
 6511SOL    HW121912   5.931   4.123   0.661  0.1457  0.1241  1.7018
 6511SOL    HW221913   5.854   4.186   0.547  1.2561 -2.9215 -0.9132
 6512SOL     OW21914   8.712   2.976   0.161 -0.6633 -0.1700 -0.0509
 6512SOL    HW121915   8.740   2.891   0.125  0.0114  0.4264 -0.9816
 6512SOL    HW221916   8.617   2.976   0.150 -0.6656 -0.7897 -0.0858
 6513SOL     OW21917   1.085   2.960  10.746  0.3024  0.1309 -0.8263
 6513SOL    HW121918   1.024   3.016  10.794  1.3869 -0.8228  1.8943
 6513SOL    HW221919   1.030   2.891  10.709 -0.4032 -0.7959  1.6914
 6514SOL     OW21920   3.510   5.631   5.708 -0.2698 -0.0524  0.7925
 6514SOL    HW121921   3.474   5.544   5.690 -0.9723  0.1854  0.9863
 6514SOL    HW221922   3.434   5.682   5.735  0.3888  0.1586  2.3884
 6515SOL     OW21923   3.946  10.023  10.200 -0.1806  0.0725  0.2935
 6515SOL    HW121924   3.882   9.966  10.244 -1.5275  1.7351  0.5886
 6515SOL    HW221925   3.962   9.981  10.116 -0.3192 -1.2864  0.9220
 6516SOL     OW21926   5.952   7.610   8.828 -0.1095  0.3551 -0.2417
 6516SOL    HW121927   5.979   7.620   8.919  2.7068 -0.1329 -0.9088
 6516SOL    HW221928   6.035   7.611   8.779 -1.5409  0.8016 -2.8187
 6517SOL     OW21929   9.387   4.223   3.781  0.0260  0.1435 -0.0358
 6517SOL    HW121930   9.294   4.230   3.805 -0.6974 -0.1410 -2.5485
 6517SOL    HW221931   9.407   4.130   3.789 -0.6938 -0.2245 -1.9945
 6518SOL     OW21932   7.495  10.235   8.787  0.3706  0.0104  0.1308
 6518SOL    HW121933   7.466  10.170   8.723 -2.0462 -0.6040  1.7061
 6518SOL    HW221934   7.567  10.192   8.833 -1.9543 -2.2241  1.9650
 6519SOL     OW21935  10.159   9.471   7.675  0.3373  0.0828 -0.2200
 6519SOL    HW121936  10.157   9.436   7.764  2.0764 -1.2084 -0.6431
 6519SOL    HW221937  10.213   9.549   7.682 -0.3104  0.5196  0.0110
 6520SOL     OW21938  10.059   2.713   1.282  0.2911  0.3070 -0.0284
 6520SOL    HW121939   9.987   2.746   1.229  0.7658  0.2642 -0.7105
 6520SOL    HW221940  10.138   2.750   1.242  0.6984 -0.1915  0.2964
 6521SOL     OW21941  10.120   9.685   2.920 -0.5022 -0.8429  0.0064
 6521SOL    HW121942  10.195   9.744   2.926 -0.7871 -0.2993 -1.4100
 6521SOL    HW221943  10.047   9.735   2.954 -0.1450 -1.5913  1.9822
 6522SOL     OW21944   8.495   7.071   6.400  0.0294 -0.2863 -0.8518
 6522SOL    HW121945   8.541   6.987   6.395 -0.0842 -0.3216 -1.3991
 6522SOL    HW221946   8.565   7.136   6.408  0.2739 -0.2421 -2.8592
 6523SOL     OW21947   6.079  10.078   3.703 -0.9704  0.2041 -0.0679
 6523SOL    HW121948   5.989  10.051   3.685 -0.4681 -0.8721 -1.1214
 6523SOL    HW221949   6.089  10.161   3.656 -1.1483 -0.1378 -0.7268
 6524SOL     OW21950   1.221   1.639   8.986  0.7016  0.1041 -0.1727
 6524SOL    HW121951   1.246   1.654   9.077  0.4962  1.8987 -0.3781
 6524SOL    HW221952   1.143   1.692   8.972 -0.0364 -1.1404 -1.0704
 6525SOL     OW21953   5.402   9.122   5.959  0.3661  0.5533 -0.4740
 6525SOL    HW121954   5.485   9.078   5.942  0.4444  0.7174 -0.5185
 6525SOL    HW221955   5.395   9.124   6.054  0.2427  0.2234 -0.4732
 6526SOL     OW21956   1.862   7.239  10.661  0.0013  0.1653 -0.1445
 6526SOL    HW121957   1.898   7.322  10.694  0.4003 -0.1194  0.1469
 6526SOL    HW221958   1.832   7.259  10.573 -0.3160  0.7359  0.0829
 6527SOL     OW21959   5.501   0.444   1.433  0.0335  0.3340  0.3313
 6527SOL    HW121960   5.596   0.449   1.439  0.0243 -0.1670  0.9704
 6527SOL    HW221961   5.469   0.504   1.501 -0.1336  1.7757 -0.9559
 6528SOL     OW21962   5.407   4.328   7.914 -0.4110  0.2113 -0.7609
 6528SOL    HW121963   5.413   4.289   7.827  0.3053  1.1551 -1.1508
 6528SOL    HW221964   5.447   4.414   7.905  0.2962  0.0697  0.6586
 6529SOL     OW21965   6.755   1.367   6.400  0.4556  0.3291 -0.1517
 6529SOL    HW121966   6.669   1.344   6.436 -0.5675  0.3222 -2.4426
 6529SOL    HW221967   6.809   1.290   6.415 -0.7814 -0.7695 -1.1566
 6530SOL     OW21968  10.580   0.640   3.361 -0.2414 -0.3877  0.1901
 6530SOL    HW121969  10.554   0.655   3.270 -0.5283  1.6827  0.5715
 6530SOL    HW221970  10.674   0.626   3.358  0.0674  1.5499 -0.2756
 6531SOL     OW21971   3.886   6.979   1.940 -0.1016 -0.1699 -0.4613
 6531SOL    HW121972   3.975   6.944   1.945 -0.6835 -1.7626 -0.8357
 6531SOL    HW221973   3.896   7.072   1.963  1.4177 -0.6700  1.1502
 6532SOL     OW21974   2.358   4.946   2.979 -0.5490  0.1500  0.0540
 6532SOL    HW121975   2.400   4.998   2.910  0.1045 -0.8087 -0.2851
 6532SOL    HW221976   2.408   4.968   3.058  2.4505 -2.8957 -0.7595
 6533SOL     OW21977   6.864  10.507   0.905 -0.1877 -0.0582  0.0636
 6533SOL    HW121978   6.883  10.420   0.938  1.1140 -0.9625 -2.7179
 6533SOL    HW221979   6.918  10.566   0.958  3.1624 -1.5830 -1.3589
 6534SOL     OW21980   7.634   1.364   6.886  0.0528  0.3517  0.0045
 6534SOL    HW121981   7.635   1.288   6.944 -1.1725  0.3935  0.1026
 6534SOL    HW221982   7.702   1.346   6.822 -0.2207 -0.8386  0.0273
 6535SOL     OW21983   2.977   3.605   6.082 -0.1725  0.1745 -0.1788
 6535SOL    HW121984   2.976   3.625   6.176 -1.1281 -2.1908  0.3700
 6535SOL    HW221985   3.056   3.554   6.069  0.4368  1.2522 -0.8853
 6536SOL     OW21986   7.390   2.375   1.194  0.9471 -0.0784 -0.1598
 6536SOL    HW121987   7.308   2.337   1.226  2.6864 -1.3342  3.4398
 6536SOL    HW221988   7.371   2.468   1.184 -0.8756 -0.2916  0.8425
 6537SOL     OW21989   0.343   8.118   6.044 -0.6619  0.1363 -0.1080
 6537SOL    HW121990   0.416   8.170   6.009 -1.7856  1.8118 -0.0663
 6537SOL    HW221991   0.379   8.030   6.052  0.6568  0.3904 -2.2871
 6538SOL     OW21992   1.702   7.040   4.579  0.1176 -0.2889  0.1070
 6538SOL    HW121993   1.624   7.089   4.552  1.1137  0.1663 -2.2038
 6538SOL    HW221994   1.671   6.950   4.589 -0.9606  0.1126  0.5838
 6539SOL     OW21995  10.717   0.735   9.804  0.1508 -0.0893 -0.0188
 6539SOL    HW121996  10.669   0.661   9.841 -1.0745  0.8345  0.2897
 6539SOL    HW221997  10.702   0.728   9.709 -0.6713  0.2426  0.0850
 6540SOL     OW21998   2.764   6.675   5.572 -0.0777  0.2400  0.5031
 6540SOL    HW121999   2.689   6.615   5.575  0.2445 -0.4837 -2.3219
 6540SOL    HW222000   2.835   6.627   5.614 -0.0523 -1.1006 -0.9581
 6541SOL     OW22001   3.521   7.673   1.042  0.0366 -0.2488  0.3074
 6541SOL    HW122002   3.600   7.721   1.019 -0.8149  1.7975  1.4041
 6541SOL    HW222003   3.546   7.622   1.120  0.7504 -1.0538 -0.4325
 6542SOL     OW22004  10.281   2.085   5.294 -0.4775  0.3779 -0.2027
 6542SOL    HW122005  10.203   2.038   5.265  0.0985  0.2581 -1.6518
 6542SOL    HW222006  10.279   2.167   5.246  0.6864  0.0355 -0.8833
 6543SOL     OW22007   7.044   4.368   1.608  0.3738  1.0644 -0.0898
 6543SOL    HW122008   7.009   4.301   1.550 -0.1170  0.8371  0.4544
 6543SOL    HW222009   6.979   4.375   1.678  1.1835  0.9847  0.6885
 6544SOL     OW22010   4.424   6.622   3.824  0.2896 -0.5420  0.4625
 6544SOL    HW122011   4.442   6.647   3.914  0.1760  0.0380  0.3254
 6544SOL    HW222012   4.330   6.635   3.814  0.4981  0.6720 -0.1232
 6545SOL     OW22013  10.558   2.077   5.317  0.2685 -0.0958 -0.7129
 6545SOL    HW122014  10.580   2.001   5.263 -0.4939 -1.3234  0.6186
 6545SOL    HW222015  10.464   2.067   5.334  0.3323  0.7062  0.1445
 6546SOL     OW22016   2.704   3.626   8.279 -0.0713  0.1393 -0.1702
 6546SOL    HW122017   2.760   3.585   8.212  1.1844  1.3598  0.0863
 6546SOL    HW222018   2.657   3.553   8.318  0.0834 -0.7432 -1.5479
 6547SOL     OW22019   6.339   5.673   2.847 -0.3563  0.1156 -0.5542
 6547SOL    HW122020   6.293   5.705   2.925  1.7124 -0.3343  0.9527
 6547SOL    HW222021   6.351   5.580   2.862  2.7785  0.5034  0.2197
 6548SOL     OW22022   7.503   7.380   6.083  0.2508  0.8940 -0.2426
 6548SOL    HW122023   7.408   7.375   6.073 -0.0865  1.7579  2.0110
 6548SOL    HW222024   7.536   7.303   6.036 -1.6356  0.0091 -0.2151
 6549SOL     OW22025   5.395   6.105   2.768  0.3392 -0.7849  0.0272
 6549SOL    HW122026   5.415   6.016   2.739  1.8787 -0.2746 -0.5568
 6549SOL    HW222027   5.330   6.137   2.705  1.7423 -0.5988 -1.3954
 6550SOL     OW22028   4.198   5.664   6.256  0.7940  0.1473  0.6726
 6550SOL    HW122029   4.194   5.645   6.349 -1.9133  0.8575  0.7730
 6550SOL    HW222030   4.184   5.758   6.249  0.5180  0.0420 -0.4612
 6551SOL     OW22031   4.455   5.511   8.288  0.1608  0.0612 -0.0278
 6551SOL    HW122032   4.532   5.547   8.244  0.7345 -0.5643  0.4415
 6551SOL    HW222033   4.488   5.479   8.372 -0.1694 -2.1029 -0.6499
 6552SOL     OW22034   4.526  10.474   7.621 -0.2405  0.0609 -0.2596
 6552SOL    HW122035   4.504  10.382   7.608 -0.4124  0.1483 -0.6034
 6552SOL    HW222036   4.597  10.473   7.685 -0.9735 -0.2450  0.5650
 6553SOL     OW22037   8.657   0.656   6.912  0.3178  0.4552  0.3238
 6553SOL    HW122038   8.704   0.595   6.968  0.4005 -0.3128 -0.5578
 6553SOL    HW222039   8.565   0.641   6.932  0.3708  0.6702  0.7382
 6554SOL     OW22040   6.858   8.887   4.220 -0.3051 -0.4293 -0.1881
 6554SOL    HW122041   6.790   8.827   4.188  1.3946 -1.7749 -1.5247
 6554SOL    HW222042   6.906   8.836   4.285  0.0639  0.1049 -0.0341
 6555SOL     OW22043   2.491   7.987   8.145 -0.1020  0.1681 -0.3148
 6555SOL    HW122044   2.548   7.967   8.219  0.4075 -0.7107 -0.9249
 6555SOL    HW222045   2.423   8.044   8.181 -0.1272 -0.6198  0.9280
 6556SOL     OW22046   0.458   5.396   5.620 -0.2656 -0.6571 -0.1062
 6556SOL    HW122047   0.529   5.438   5.571 -0.0662 -0.9194 -0.0458
 6556SOL    HW222048   0.419   5.467   5.672 -0.2869 -0.4391 -0.4210
 6557SOL     OW22049   1.590  10.601   5.940 -0.2029  0.0527  0.1956
 6557SOL    HW122050   1.573  10.584   5.847  0.4090  1.9825 -0.3269
 6557SOL    HW222051   1.638  10.684   5.940 -0.5875  0.3170  2.2745
 6558SOL     OW22052   8.685   0.861   2.201 -0.5467 -0.2429 -0.0032
 6558SOL    HW122053   8.744   0.788   2.182 -0.3225 -0.6692  2.0757
 6558SOL    HW222054   8.729   0.910   2.270 -0.6836  1.9142 -1.3878
 6559SOL     OW22055  10.651   7.237  10.210 -0.1614 -0.0259 -0.1790
 6559SOL    HW122056  10.557   7.228  10.201 -0.1214 -1.0893  0.2629
 6559SOL    HW222057  10.687   7.163  10.160  0.4940  1.0841 -1.3932
 6560SOL     OW22058   9.915   4.080   1.438 -0.6678 -0.8719 -0.2342
 6560SOL    HW122059   9.883   4.119   1.356  2.1374  2.8031  0.1412
 6560SOL    HW222060  10.002   4.048   1.417 -0.6653 -1.6660  0.9064
 6561SOL     OW22061   3.411   3.904   4.656  0.4772 -0.0771 -0.1398
 6561SOL    HW122062   3.344   3.929   4.592  1.4417 -0.0286 -1.1461
 6561SOL    HW222063   3.494   3.931   4.617  1.3519 -2.5671 -0.1422
 6562SOL     OW22064   4.414   7.299   8.143 -0.9344 -0.1053 -0.5451
 6562SOL    HW122065   4.450   7.388   8.143  1.6664 -1.0069  1.5673
 6562SOL    HW222066   4.372   7.291   8.229  0.2774 -1.3357 -0.0189
 6563SOL     OW22067   9.704  10.743   7.390 -0.3283  0.1200  0.0507
 6563SOL    HW122068   9.653  10.691   7.452  0.3190 -2.5349 -1.4798
 6563SOL    HW222069   9.784  10.765   7.438 -0.3523 -0.8498  0.5577
 6564SOL     OW22070   5.557   7.764   2.133  0.0590 -0.5528  0.0203
 6564SOL    HW122071   5.573   7.678   2.095 -0.5686 -0.9219  0.5770
 6564SOL    HW222072   5.466   7.783   2.113 -0.2306 -0.6755  1.1704
 6565SOL     OW22073   2.341   8.967   4.141 -0.3284 -0.5578  0.3805
 6565SOL    HW122074   2.421   9.013   4.116  0.6143 -2.7374 -0.9342
 6565SOL    HW222075   2.320   9.001   4.228  2.5569 -0.5387  1.1818
 6566SOL     OW22076   0.975   7.513   3.883  0.5148  0.9215 -0.1962
 6566SOL    HW122077   0.920   7.591   3.872 -0.1757  0.6170  0.9535
 6566SOL    HW222078   0.998   7.513   3.976 -0.7656 -1.0718  0.1568
 6567SOL     OW22079   9.394   8.650   9.647 -0.2897 -0.4161  0.1300
 6567SOL    HW122080   9.358   8.728   9.689  0.2263  0.5537 -1.1501
 6567SOL    HW222081   9.482   8.642   9.682  0.4577  0.8990 -1.3178
 6568SOL     OW22082   0.327  10.698   5.407 -0.0562  0.5193  0.0484
 6568SOL    HW122083   0.365  10.740   5.330  0.4637  1.8143  0.9758
 6568SOL    HW222084   0.245  10.745   5.422 -0.1817  0.2370  0.2519
 6569SOL     OW22085   4.902   4.983   4.517  0.3201 -0.1398  0.2049
 6569SOL    HW122086   4.808   4.980   4.499  0.5336 -1.1691 -0.8309
 6569SOL    HW222087   4.941   4.924   4.453  1.8527  1.4742 -0.4279
 6570SOL     OW22088   9.225   9.588   7.095  0.4872  0.1317  0.2155
 6570SOL    HW122089   9.180   9.564   7.176 -3.0242  0.8482 -1.3628
 6570SOL    HW222090   9.203   9.517   7.034  2.1988  0.1391 -0.4695
 6571SOL     OW22091   7.636   8.087   2.162  0.3163  0.5108 -0.1265
 6571SOL    HW122092   7.573   8.142   2.116  0.3057  0.7230  0.1340
 6571SOL    HW222093   7.718   8.099   2.114  0.0523 -0.1301 -0.7428
 6572SOL     OW22094  10.234   3.196   0.888 -0.2691 -0.1852  0.0083
 6572SOL    HW122095  10.313   3.144   0.876 -0.0551 -0.6404  2.7882
 6572SOL    HW222096  10.176   3.168   0.817  1.4526 -0.9901 -1.1497
 6573SOL     OW22097   3.212   5.349  10.393 -0.2427 -0.2623  0.1791
 6573SOL    HW122098   3.124   5.313  10.396 -1.0661  1.4545 -1.3986
 6573SOL    HW222099   3.200   5.443  10.403  1.3322  0.0750 -0.7213
 6574SOL     OW22100   7.325   8.002  10.431 -0.3590 -1.0028  0.3163
 6574SOL    HW122101   7.346   7.937  10.497 -1.9414 -1.5691  0.3178
 6574SOL    HW222102   7.298   8.079  10.481  0.0667 -0.8563  0.3214
 6575SOL     OW22103   5.495   6.547   7.580 -0.2926  0.3892 -0.3175
 6575SOL    HW122104   5.565   6.597   7.538  0.7230  1.0754  2.0057
 6575SOL    HW222105   5.433   6.528   7.509  2.3803 -0.6001 -2.5884
 6576SOL     OW22106  10.411   2.405   4.539  0.6180  0.9985  0.0781
 6576SOL    HW122107  10.363   2.327   4.511 -1.2456  1.2812  2.2348
 6576SOL    HW222108  10.445   2.442   4.457 -1.4603 -0.1406 -1.3962
 6577SOL     OW22109   9.569   3.707   1.482 -0.3049 -0.1627  0.7728
 6577SOL    HW122110   9.480   3.738   1.465  0.2095  1.4236  0.8251
 6577SOL    HW222111   9.559   3.614   1.501 -1.7687 -0.3380 -0.7026
 6578SOL     OW22112   9.922   4.006   5.971 -0.8607 -0.4493  0.1726
 6578SOL    HW122113  10.013   3.988   5.996 -0.8636  0.1556  0.6312
 6578SOL    HW222114   9.926   4.025   5.878 -0.5674 -0.7607  0.1186
 6579SOL     OW22115   4.000   6.426   2.846 -0.3280 -0.5114 -0.6065
 6579SOL    HW122116   4.000   6.498   2.909 -1.3951 -1.0287  0.0072
 6579SOL    HW222117   4.085   6.383   2.859  0.8334  1.2939 -1.7974
 6580SOL     OW22118   7.746   0.133  10.077  0.3933 -0.4904  0.3259
 6580SOL    HW122119   7.829   0.170  10.108  0.6994  1.7543 -2.7478
 6580SOL    HW222120   7.688   0.208  10.066 -0.9472 -1.6166 -0.6993
 6581SOL     OW22121   5.407   8.013   9.918  0.0450 -0.1867  0.0751
 6581SOL    HW122122   5.481   8.067   9.945  0.1868 -0.1632 -0.3537
 6581SOL    HW222123   5.332   8.048   9.966  0.5215 -0.9789  1.4668
 6582SOL     OW22124   1.980   5.149   8.194  0.5215 -0.2035  0.2579
 6582SOL    HW122125   1.997   5.204   8.118  0.2746 -0.9292 -0.3397
 6582SOL    HW222126   2.059   5.157   8.248  0.4158  0.8547  0.2636
 6583SOL     OW22127  10.054   8.899   5.518  0.3187 -0.3431 -0.0953
 6583SOL    HW122128   9.969   8.864   5.491  1.2594 -0.7712 -2.8920
 6583SOL    HW222129  10.063   8.980   5.468  1.3734 -0.1066  0.4605
 6584SOL     OW22130   0.520   8.400   0.850 -0.3165 -0.0104 -0.4734
 6584SOL    HW122131   0.570   8.321   0.868 -0.4839  0.3219  1.6505
 6584SOL    HW222132   0.444   8.369   0.800 -0.7062 -1.3280  0.8495
 6585SOL     OW22133   9.550   1.607   6.989 -0.5892 -0.3940 -0.0469
 6585SOL    HW122134   9.517   1.603   7.079  0.9322  0.6871  0.6071
 6585SOL    HW222135   9.586   1.519   6.973 -0.8150 -0.5766  0.4342
 6586SOL     OW22136   0.171   2.832   5.351 -0.1301  0.1569 -0.2421
 6586SOL    HW122137   0.179   2.908   5.407  1.5813 -0.2499  0.1236
 6586SOL    HW222138   0.173   2.867   5.262  0.9025  0.5526 -0.0808
 6587SOL     OW22139   8.883   7.548   2.816 -0.3102 -0.3736 -0.4359
 6587SOL    HW122140   8.883   7.463   2.861 -0.7533 -0.8196 -1.2577
 6587SOL    HW222141   8.847   7.609   2.881 -0.1764 -0.8508  0.0967
 6588SOL     OW22142  10.317   5.357   7.212 -0.5147 -0.4367 -0.8205
 6588SOL    HW122143  10.328   5.315   7.127 -1.7205 -0.9479 -0.7452
 6588SOL    HW222144  10.266   5.295   7.264 -2.3072  1.0473 -0.6871
 6589SOL     OW22145   8.917   0.393   8.674  0.5458 -0.0271 -0.2152
 6589SOL    HW122146   8.973   0.318   8.652  3.3327  1.6031  0.8425
 6589SOL    HW222147   8.833   0.353   8.700  2.0720 -2.8170  0.8487
 6590SOL     OW22148   0.980   5.327   3.800  0.1704 -0.7421  0.4478
 6590SOL    HW122149   0.894   5.367   3.812  1.9473  4.0373 -0.5307
 6590SOL    HW222150   1.003   5.346   3.709  2.8836 -0.3028  1.1397
 6591SOL     OW22151   8.901   4.152   5.109  0.1293  0.2075  0.0842
 6591SOL    HW122152   8.879   4.237   5.147 -1.1850 -0.2567  0.3957
 6591SOL    HW222153   8.995   4.144   5.124 -0.1520  0.4857  2.4084
 6592SOL     OW22154   6.675   9.556   5.221  0.1548 -0.5849  0.3508
 6592SOL    HW122155   6.756   9.576   5.269 -0.1452 -1.5875  1.3053
 6592SOL    HW222156   6.705   9.511   5.142  0.5153 -1.6597  1.0747
 6593SOL     OW22157   3.734   1.554   9.921 -0.1154  0.0242  0.2516
 6593SOL    HW122158   3.721   1.505  10.002 -2.2349 -0.0616 -0.0828
 6593SOL    HW222159   3.714   1.644   9.944 -0.7762 -0.0091 -0.1670
 6594SOL     OW22160   6.295   5.774   8.364 -0.0383  0.4980  0.0064
 6594SOL    HW122161   6.224   5.710   8.355  0.4587 -0.0880  0.1748
 6594SOL    HW222162   6.255   5.857   8.340 -0.7873  0.1791  0.1110
 6595SOL     OW22163   9.288   3.804   1.385  0.1244  0.4689  0.2228
 6595SOL    HW122164   9.316   3.802   1.294  1.0236 -0.2796  0.4980
 6595SOL    HW222165   9.228   3.731   1.394  2.3203 -1.3912  0.8854
 6596SOL     OW22166   1.872   0.820   7.179 -0.3256 -0.6680 -0.2371
 6596SOL    HW122167   1.915   0.746   7.222  0.2113 -0.4086 -0.3159
 6596SOL    HW222168   1.942   0.863   7.131 -0.5818  0.0511  0.0243
 6597SOL     OW22169   1.881   6.335   8.096 -0.1103 -0.0491 -0.7757
 6597SOL    HW122170   1.915   6.361   8.010  1.4882  0.7863  0.0642
 6597SOL    HW222171   1.956   6.345   8.155 -1.0715 -0.9897  0.6515
 6598SOL     OW22172   2.515   0.678   4.434 -0.2283  0.3696  0.1872
 6598SOL    HW122173   2.452   0.750   4.425  0.0701  0.5610 -0.3639
 6598SOL    HW222174   2.600   0.722   4.444 -0.2900  0.1523  2.0854
 6599SOL     OW22175   1.878   6.735   0.386  0.1976 -0.5279  0.1390
 6599SOL    HW122176   1.886   6.713   0.293 -0.3909 -0.3348  0.0365
 6599SOL    HW222177   1.786   6.759   0.397  0.8361  2.2352  0.1587
 6600SOL     OW22178   4.745   3.943  10.687  0.2327  0.4860 -0.1823
 6600SOL    HW122179   4.656   3.924  10.654 -0.6893  2.7879  0.7701
 6600SOL    HW222180   4.775   3.860  10.724 -1.3390 -0.4661 -0.9112
 6601SOL     OW22181   2.636   7.533   3.648  0.0855 -0.4661  0.3263
 6601SOL    HW122182   2.706   7.586   3.611 -0.2502 -0.7368 -0.7300
 6601SOL    HW222183   2.560   7.592   3.649  0.3060 -0.1772  1.4540
 6602SOL     OW22184   3.119   3.109   8.622 -0.2750 -0.1802 -0.2950
 6602SOL    HW122185   3.095   3.188   8.572 -1.8911  0.6670  1.6663
 6602SOL    HW222186   3.038   3.058   8.625  0.2825 -1.0509 -0.0265
 6603SOL     OW22187   0.593   4.898   6.088 -0.1497 -0.3892 -0.4633
 6603SOL    HW122188   0.629   4.986   6.072  0.1673 -0.6294 -1.1236
 6603SOL    HW222189   0.551   4.875   6.005  1.2171 -1.5369 -0.8887
 6604SOL     OW22190   4.597   9.812   3.910 -0.2556  0.0785 -0.5429
 6604SOL    HW122191   4.613   9.783   4.000  0.7644 -1.5928 -1.2044
 6604SOL    HW222192   4.685   9.825   3.873 -0.5899 -0.8542 -1.7532
 6605SOL     OW22193   2.906   3.414   7.093  0.4664  0.3087 -0.0633
 6605SOL    HW122194   2.817   3.422   7.057 -0.6619  0.2878  2.4719
 6605SOL    HW222195   2.949   3.496   7.069 -0.2795  0.3805 -1.2144
 6606SOL     OW22196   0.079   7.917   2.420  0.5826  0.2947 -0.1987
 6606SOL    HW122197   0.111   7.890   2.333 -0.0728 -1.2197 -0.0031
 6606SOL    HW222198   0.136   7.870   2.481  0.5944  0.8116  0.1906
 6607SOL     OW22199   9.408   6.256   0.688  0.5979 -0.1588  0.3889
 6607SOL    HW122200   9.323   6.299   0.698  0.9690  1.3884 -2.0072
 6607SOL    HW222201   9.393   6.189   0.621  0.6751 -1.9746  2.0907
 6608SOL     OW22202   6.660  10.569   5.168  0.2930 -0.1754  0.2404
 6608SOL    HW122203   6.682  10.597   5.079 -0.1979  0.4324  0.3006
 6608SOL    HW222204   6.698  10.482   5.176  1.7777  0.4088 -0.0077
 6609SOL     OW22205   9.131   8.754   0.250 -0.2338  0.5192 -0.3290
 6609SOL    HW122206   9.216   8.791   0.225 -0.2562  1.0665  0.3799
 6609SOL    HW222207   9.069   8.797   0.191 -0.2021  1.3016  0.1849
 6610SOL     OW22208   3.822   7.972   1.235  0.2638  0.4969  0.6411
 6610SOL    HW122209   3.882   8.005   1.302 -0.2843  0.6595  1.0578
 6610SOL    HW222210   3.756   8.040   1.227 -0.3532 -0.0714  0.8237
 6611SOL     OW22211   7.767   0.790   9.731  0.3329  0.1211  0.3188
 6611SOL    HW122212   7.688   0.783   9.677  0.2950  1.1104  0.2325
 6611SOL    HW222213   7.765   0.711   9.786 -0.0720 -0.4721 -0.5195
 6612SOL     OW22214   7.050   0.820   8.981 -0.2441  0.0153  0.2552
 6612SOL    HW122215   6.991   0.875   8.930 -0.2150 -0.5714 -0.4185
 6612SOL    HW222216   7.062   0.741   8.928  1.2494  0.1753  0.2908
 6613SOL     OW22217   4.304   3.286   0.466  0.2062  0.2272 -0.1544
 6613SOL    HW122218   4.297   3.380   0.478  0.9235  0.4197 -1.1870
 6613SOL    HW222219   4.295   3.250   0.555  1.1130  1.3334  0.4094
 6614SOL     OW22220   6.848   6.004   5.896  0.4215  0.0875 -0.1845
 6614SOL    HW122221   6.908   5.980   5.826 -1.1995 -0.4501 -1.4453
 6614SOL    HW222222   6.761   5.999   5.856 -0.4081  2.0791  1.2217
 6615SOL     OW22223   6.064   1.105   6.343 -0.3483 -0.8769 -0.0721
 6615SOL    HW122224   6.085   1.015   6.318  2.5442 -1.0701  2.4505
 6615SOL    HW222225   6.038   1.098   6.435 -0.9990  0.7832 -0.1066
 6616SOL     OW22226   5.064   9.220   2.624 -0.1929 -0.2371  0.1549
 6616SOL    HW122227   5.074   9.288   2.690  0.1173 -0.6048  0.4954
 6616SOL    HW222228   4.972   9.196   2.627 -0.1481 -0.3531  0.5537
 6617SOL     OW22229  10.317   7.994   7.082  0.0982  0.0098 -0.2478
 6617SOL    HW122230  10.340   8.039   7.001  1.4126 -0.5994 -0.2388
 6617SOL    HW222231  10.338   8.058   7.151  0.6279 -0.0907 -0.3099
 6618SOL     OW22232   5.528   7.929   3.159 -0.4884 -0.2784  0.2024
 6618SOL    HW122233   5.561   7.917   3.248 -0.7800 -0.5985  0.2728
 6618SOL    HW222234   5.437   7.955   3.170  0.0318  1.7512  0.0359
 6619SOL     OW22235   5.994   8.949   6.993 -0.2043 -0.2377  0.2686
 6619SOL    HW122236   5.992   8.984   6.905 -0.1410  0.9531  0.7290
 6619SOL    HW222237   6.019   9.023   7.049 -0.3167 -0.9407  1.2915
 6620SOL     OW22238   0.411   6.480   8.825 -0.5676  0.1036  0.9673
 6620SOL    HW122239   0.317   6.490   8.812 -0.6842  0.5121  1.9743
 6620SOL    HW222240   0.436   6.411   8.765 -1.4208  0.3212  0.3331
 6621SOL     OW22241   5.841   7.657   2.909 -0.0407  0.3631 -0.3225
 6621SOL    HW122242   5.912   7.651   2.845 -0.8009  0.9509 -1.2605
 6621SOL    HW222243   5.803   7.743   2.894  0.9373  1.3396  2.2345
 6622SOL     OW22244   4.344   7.838   2.557 -0.1684  0.2194 -0.1783
 6622SOL    HW122245   4.265   7.885   2.585  1.2398  1.9409  1.1369
 6622SOL    HW222246   4.404   7.906   2.527  1.4815 -0.8484  0.5240
 6623SOL     OW22247   1.700   3.790  10.183  0.0913 -0.1821 -0.3050
 6623SOL    HW122248   1.703   3.739  10.264 -0.4284  0.5423  0.1766
 6623SOL    HW222249   1.650   3.735  10.123 -0.3946 -0.2905  0.1865
 6624SOL     OW22250   8.763   5.688   7.363  0.1561  0.7403 -0.0883
 6624SOL    HW122251   8.769   5.636   7.282 -1.4576  1.2396 -0.5796
 6624SOL    HW222252   8.840   5.662   7.414 -0.0696 -1.4450 -0.7195
 6625SOL     OW22253   9.805   4.003   7.314  0.1488  0.2814  0.0189
 6625SOL    HW122254   9.855   3.946   7.373  0.0510  0.7064  0.5267
 6625SOL    HW222255   9.765   3.944   7.251 -0.0259 -0.2252  0.5953
 6626SOL     OW22256   8.575   6.223   1.251  0.2268 -0.3796  0.4797
 6626SOL    HW122257   8.586   6.205   1.157 -0.5957  1.5227 -0.0251
 6626SOL    HW222258   8.482   6.207   1.268 -0.4370  2.5243  0.1170
 6627SOL     OW22259   2.247   7.185   2.104  0.2201 -0.1121  0.3188
 6627SOL    HW122260   2.261   7.254   2.039  3.6579 -0.2458  0.7530
 6627SOL    HW222261   2.254   7.230   2.188 -0.2896 -0.5908  0.6253
 6628SOL     OW22262   9.426   1.361   1.131  0.4549  0.2704 -0.0429
 6628SOL    HW122263   9.496   1.320   1.181  1.0864  1.4296  0.0793
 6628SOL    HW222264   9.471   1.429   1.079 -0.1261 -1.0651 -2.4227
 6629SOL     OW22265   7.298   9.762   5.077  0.2470 -0.0676  0.0113
 6629SOL    HW122266   7.287   9.857   5.073 -0.6746 -0.2034 -2.3122
 6629SOL    HW222267   7.246   9.729   5.004  0.6156 -2.3698  0.7201
 6630SOL     OW22268   1.851   1.444   8.691  0.4380 -0.1323  0.1452
 6630SOL    HW122269   1.938   1.443   8.730  0.1629 -0.9755  0.7709
 6630SOL    HW222270   1.813   1.528   8.719  0.6977 -0.1819  0.6598
 6631SOL     OW22271   4.639   7.372   1.844  0.4339 -0.1150 -0.2640
 6631SOL    HW122272   4.711   7.424   1.880 -0.1027  0.2819  0.2508
 6631SOL    HW222273   4.586   7.435   1.795  0.3664 -0.3843 -0.5426
 6632SOL     OW22274   8.899  10.471   0.740 -0.2988 -0.7176  0.2381
 6632SOL    HW122275   8.952  10.402   0.780 -0.8011 -1.0519  0.3382
 6632SOL    HW222276   8.942  10.489   0.657 -1.4497 -2.8566 -0.9307
 6633SOL     OW22277   5.714   7.820   7.340  0.2936  0.6101  0.3633
 6633SOL    HW122278   5.647   7.880   7.373  0.1841  0.6212  0.1203
 6633SOL    HW222279   5.766   7.873   7.280  0.9991  0.8150  1.1322
 6634SOL     OW22280   6.046   8.686   1.040  0.2645 -0.2663 -0.4022
 6634SOL    HW122281   6.024   8.698   0.948 -3.0673  0.5051  0.3556
 6634SOL    HW222282   6.108   8.757   1.059 -0.2916  0.6049 -1.6907
 6635SOL     OW22283   9.361   6.277   2.082  0.2975  0.7113  0.3143
 6635SOL    HW122284   9.432   6.216   2.059 -2.0344 -1.7102 -1.0288
 6635SOL    HW222285   9.304   6.226   2.139 -1.8985  1.4878 -1.0729
 6636SOL     OW22286   1.738   7.985   9.417 -0.4074 -0.3754 -0.1496
 6636SOL    HW122287   1.722   8.031   9.500 -0.8715  1.2437 -1.0697
 6636SOL    HW222288   1.812   8.031   9.378 -0.9808 -0.2824 -1.1796
 6637SOL     OW22289   8.491   2.386  10.395  0.5060  0.0480  0.0289
 6637SOL    HW122290   8.583   2.370  10.375  0.6257 -0.8219  1.1610
 6637SOL    HW222291   8.444   2.359  10.316  1.2038  0.3867 -0.5129
 6638SOL     OW22292   2.097   8.425   3.801 -0.0003 -0.1653  0.1250
 6638SOL    HW122293   2.038   8.499   3.789 -2.4563 -1.4549  3.0371
 6638SOL    HW222294   2.163   8.457   3.864  1.9247  0.9268 -2.2950
 6639SOL     OW22295   2.257   7.388   0.488  0.6447  0.6660 -0.1948
 6639SOL    HW122296   2.205   7.430   0.419  0.3906  0.0141 -0.4113
 6639SOL    HW222297   2.197   7.325   0.528  0.9224  0.7295  0.3361
 6640SOL     OW22298   9.687  10.777  10.529 -0.6863 -0.2873  0.1174
 6640SOL    HW122299   9.669  10.808  10.440 -0.2463  0.9648  0.4383
 6640SOL    HW222300   9.712  10.686  10.518 -1.0495 -0.2693 -0.9979
 6641SOL     OW22301   7.982   2.429  10.326  0.1118  0.2392  0.2036
 6641SOL    HW122302   8.038   2.497  10.289 -1.3957  0.7669 -1.2161
 6641SOL    HW222303   8.010   2.348  10.283  0.0569  0.4218 -0.1708
 6642SOL     OW22304  10.216   6.322   2.590  0.7793  0.0859 -0.5745
 6642SOL    HW122305  10.170   6.399   2.555 -0.8658 -0.6461 -0.1469
 6642SOL    HW222306  10.290   6.309   2.532 -0.1392  0.7329 -1.9398
 6643SOL     OW22307   4.159   3.555   2.437 -0.4276 -0.2412 -0.5572
 6643SOL    HW122308   4.255   3.559   2.442 -0.5184  0.5391  1.8126
 6643SOL    HW222309   4.139   3.461   2.439  0.2813 -0.3990 -0.6364
 6644SOL     OW22310   3.697   7.915   4.175  0.3566 -0.0355  0.2940
 6644SOL    HW122311   3.673   7.980   4.109  0.0470  0.4359  0.8651
 6644SOL    HW222312   3.776   7.873   4.140  0.5299  0.6175 -0.0988
 6645SOL     OW22313   2.182   1.927   7.694  0.5207 -0.3586 -0.6191
 6645SOL    HW122314   2.221   1.887   7.772  0.2379  2.0595  0.8940
 6645SOL    HW222315   2.255   1.970   7.650  0.6064 -1.3626 -1.4917
 6646SOL     OW22316   1.038   4.629   8.765 -0.0347 -0.1617 -0.0602
 6646SOL    HW122317   1.116   4.604   8.815  0.3815 -1.4492 -1.2983
 6646SOL    HW222318   0.972   4.648   8.832  0.6600 -1.3342  0.9893
 6647SOL     OW22319   1.720   0.548   1.648  0.7472 -0.1610 -0.3600
 6647SOL    HW122320   1.763   0.464   1.636  1.4014  0.3910 -2.2312
 6647SOL    HW222321   1.627   0.530   1.632  0.5496 -0.9008  1.3877
 6648SOL     OW22322   3.105  10.367   7.389  0.1040 -0.3454 -0.4663
 6648SOL    HW122323   3.060  10.385   7.472 -1.5643 -1.0666 -1.1688
 6648SOL    HW222324   3.098  10.272   7.379  0.7287 -0.3206 -1.1871
 6649SOL     OW22325   7.502   8.359   8.637 -0.1427  0.6828 -0.0681
 6649SOL    HW122326   7.562   8.424   8.601 -0.3694  1.6787  1.2931
 6649SOL    HW222327   7.420   8.373   8.589 -0.4977  2.1184  0.8951
 6650SOL     OW22328   8.699   2.271   2.878  0.0042  0.1169  0.0633
 6650SOL    HW122329   8.729   2.198   2.824  0.7486  0.4194  0.0544
 6650SOL    HW222330   8.762   2.341   2.861 -1.0552  0.9778 -0.4066
 6651SOL     OW22331   5.077   0.046   4.682 -0.0166 -0.2983  0.4013
 6651SOL    HW122332   5.101  -0.047   4.682  0.0343 -0.2975  1.5345
 6651SOL    HW222333   5.067   0.068   4.590  0.6377 -1.2617  0.0866
 6652SOL     OW22334   5.867   7.478   9.924 -0.2006 -0.3812  0.4677
 6652SOL    HW122335   5.802   7.452   9.990 -1.3379 -0.3159 -0.5923
 6652SOL    HW222336   5.870   7.404   9.864  1.2943 -0.7053  0.9022
 6653SOL     OW22337  10.168   1.022   1.248 -0.3031 -0.2132  0.2210
 6653SOL    HW122338  10.209   1.093   1.199  0.6397  0.5648  2.0149
 6653SOL    HW222339  10.207   1.028   1.335 -0.2543 -2.8900  0.4834
 6654SOL     OW22340   0.884   9.417   6.435 -0.1488  0.2411  0.2004
 6654SOL    HW122341   0.930   9.360   6.497 -0.2979  0.4018  0.4579
 6654SOL    HW222342   0.954   9.466   6.392 -0.0374  0.0560  0.1674
 6655SOL     OW22343   8.210   4.510   8.777  0.7604 -0.1005  0.4519
 6655SOL    HW122344   8.256   4.561   8.844  1.2693  0.2357 -0.1476
 6655SOL    HW222345   8.182   4.575   8.712  0.3536 -0.4358  0.2908
 6656SOL     OW22346   1.520   3.169  10.429  0.2614  0.6636 -0.5077
 6656SOL    HW122347   1.438   3.120  10.436  0.7533  0.0572  3.3850
 6656SOL    HW222348   1.586   3.102  10.408  0.0381  0.9208 -2.1836
 6657SOL     OW22349   7.786   1.887   0.390 -0.1070  0.1994  0.2961
 6657SOL    HW122350   7.730   1.820   0.350  0.5171 -1.0317  1.3802
 6657SOL    HW222351   7.743   1.907   0.473  0.6410 -0.2154  0.7976
 6658SOL     OW22352   9.106   1.571   3.953 -0.1702 -0.1346  0.4225
 6658SOL    HW122353   9.166   1.627   3.905 -0.6170  0.1349  0.1738
 6658SOL    HW222354   9.101   1.491   3.902 -0.6322  0.1457  0.0266
 6659SOL     OW22355   1.619   7.867   2.721 -0.1888  0.0417  0.1647
 6659SOL    HW122356   1.619   7.795   2.658  0.3810  0.0505  0.1512
 6659SOL    HW222357   1.711   7.891   2.730 -0.4238  1.1049 -0.2117
 6660SOL     OW22358   2.383   4.183   0.684  0.2054 -0.0099  0.3044
 6660SOL    HW122359   2.326   4.256   0.708 -0.3966  0.1799 -1.4906
 6660SOL    HW222360   2.323   4.116   0.651  0.9385  0.0621 -1.3083
 6661SOL     OW22361   0.166   3.786   9.041 -0.0848  0.3546  0.1956
 6661SOL    HW122362   0.141   3.699   9.010  1.3669 -0.3413  0.8908
 6661SOL    HW222363   0.231   3.816   8.977 -0.3839  0.8246  0.1090
 6662SOL     OW22364   5.007   0.653   8.330 -0.1381 -0.0893  0.6196
 6662SOL    HW122365   4.929   0.631   8.381 -1.2024  1.2759 -0.3684
 6662SOL    HW222366   4.994   0.743   8.302  0.6440 -0.5990 -1.6210
 6663SOL     OW22367   6.534   9.822   4.523 -0.3988  0.4154 -0.1110
 6663SOL    HW122368   6.567   9.911   4.530  1.5213 -0.3055  0.6870
 6663SOL    HW222369   6.438   9.831   4.524 -0.2661  2.5495 -1.6791
 6664SOL     OW22370   9.255  10.639   3.894 -0.6268  0.0843 -0.6774
 6664SOL    HW122371   9.229  10.711   3.952 -1.5876 -1.2025  0.5811
 6664SOL    HW222372   9.189  10.571   3.910  1.9540 -2.3037  0.5400
 6665SOL     OW22373   1.050   2.572   1.867 -0.2337  0.4025 -0.0665
 6665SOL    HW122374   1.059   2.534   1.954  2.1058 -0.0649 -0.4558
 6665SOL    HW222375   1.140   2.586   1.837 -0.9854  1.7930 -1.8871
 6666SOL     OW22376   3.715   5.189   6.203  0.4773 -0.6940 -0.1200
 6666SOL    HW122377   3.631   5.233   6.221  0.3496 -1.5601  1.6558
 6666SOL    HW222378   3.690   5.104   6.166  0.6061 -0.6560 -0.2957
 6667SOL     OW22379   6.205  10.533   8.483  0.2832 -0.0334  0.0262
 6667SOL    HW122380   6.115  10.560   8.498  0.1477 -0.9086  0.8693
 6667SOL    HW222381   6.205  10.497   8.394  0.2131  1.6060 -0.6587
 6668SOL     OW22382   2.630   0.017   9.229 -0.0100  0.1670  0.1535
 6668SOL    HW122383   2.671  -0.002   9.144 -2.4151  0.4838 -1.1670
 6668SOL    HW222384   2.698  -0.003   9.293  1.2579 -2.0817 -1.7168
 6669SOL     OW22385   5.689   5.353   8.408 -0.1063 -0.5248 -0.2256
 6669SOL    HW122386   5.765   5.398   8.371 -0.6859  0.4415 -0.2711
 6669SOL    HW222387   5.713   5.335   8.499 -0.0625  0.3418 -0.0634
 6670SOL     OW22388   0.039   6.809   0.832 -0.1896 -0.4176 -0.5239
 6670SOL    HW122389  -0.041   6.811   0.780  0.5565 -1.2481 -1.7849
 6670SOL    HW222390   0.041   6.893   0.877  0.1579  1.3255 -3.5202
 6671SOL     OW22391   2.247   7.975   1.628  0.4930  0.4980  0.5607
 6671SOL    HW122392   2.334   7.980   1.669  1.1530 -1.8464 -0.4097
 6671SOL    HW222393   2.192   7.934   1.694  0.8126 -0.5268  0.1968
 6672SOL     OW22394   3.371   1.786   5.517  0.6612  0.2947 -0.1400
 6672SOL    HW122395   3.459   1.814   5.491  0.7850 -0.3880 -0.4681
 6672SOL    HW222396   3.356   1.829   5.601  1.6458 -0.2427  0.3290
 6673SOL     OW22397  10.115   4.129   6.626  0.3046 -0.2142 -0.3817
 6673SOL    HW122398  10.031   4.084   6.633 -0.9302  2.0545  0.5200
 6673SOL    HW222399  10.141   4.145   6.717  1.7880 -0.9648 -0.6515
 6674SOL     OW22400   0.454   2.326   1.071 -0.0107  0.2010  0.0534
 6674SOL    HW122401   0.519   2.354   1.136  0.8099  0.3758 -0.8065
 6674SOL    HW222402   0.380   2.294   1.122  1.0558 -0.7002  1.0856
 6675SOL     OW22403   0.930   5.322   6.846  0.1028  0.5730 -0.1417
 6675SOL    HW122404   0.838   5.337   6.827 -0.2438 -1.2308 -0.0103
 6675SOL    HW222405   0.941   5.350   6.937 -1.1757 -2.3454  1.0242
 6676SOL     OW22406   7.853   0.714   6.298 -0.5022 -0.2620 -0.2664
 6676SOL    HW122407   7.929   0.664   6.329 -0.4264 -0.1034 -0.1969
 6676SOL    HW222408   7.803   0.734   6.377 -0.0837  0.5159 -0.1924
 6677SOL     OW22409   9.634   1.870   6.995  0.5203  0.0301 -0.3231
 6677SOL    HW122410   9.619   1.776   6.992 -0.7269  0.2251 -1.2253
 6677SOL    HW222411   9.547   1.908   7.011  0.4526  1.1349 -2.8295
 6678SOL     OW22412  10.347   7.408   0.340 -0.1123  0.3127 -0.0996
 6678SOL    HW122413  10.290   7.473   0.382  0.7022  1.3145 -0.4846
 6678SOL    HW222414  10.429   7.413   0.389 -0.5244 -1.5854  0.8614
 6679SOL     OW22415   4.227   2.830   2.036  0.3560 -0.0388 -0.1918
 6679SOL    HW122416   4.251   2.809   1.946  0.6173  0.5921 -0.2783
 6679SOL    HW222417   4.148   2.883   2.028 -0.1444 -0.7469  0.0049
 6680SOL     OW22418   9.152   5.232   3.658  0.0225  0.1993 -0.2604
 6680SOL    HW122419   9.101   5.179   3.719 -0.3742  0.4571 -0.3559
 6680SOL    HW222420   9.089   5.257   3.590  0.3618  0.2454 -0.5601
 6681SOL     OW22421  10.536   1.101   8.018  0.2842 -0.3683 -0.8079
 6681SOL    HW122422  10.580   1.183   7.997  0.7353 -0.8008 -1.5911
 6681SOL    HW222423  10.551   1.089   8.112 -0.9485  1.1199 -0.3717
 6682SOL     OW22424   1.125   2.924   1.791  0.1485  0.0097 -0.2213
 6682SOL    HW122425   1.210   2.903   1.829 -0.1352 -1.6528 -0.4417
 6682SOL    HW222426   1.092   2.997   1.844  1.3082  0.0722  0.4343
 6683SOL     OW22427   0.559  10.758   6.979  0.0685 -0.4442  0.1224
 6683SOL    HW122428   0.544  10.849   7.005 -1.5844 -0.2473 -1.2993
 6683SOL    HW222429   0.547  10.758   6.884  2.5841 -1.6986 -0.2653
 6684SOL     OW22430   4.505   9.048   7.144  0.2562  0.2111 -0.1394
 6684SOL    HW122431   4.537   8.958   7.143  1.2287  0.5233  0.8056
 6684SOL    HW222432   4.584   9.102   7.141 -0.2078  1.0129  1.0372
 6685SOL     OW22433   2.241   2.382   7.395  0.0790  0.1722  0.1982
 6685SOL    HW122434   2.150   2.411   7.388 -0.3664 -0.9004  1.1502
 6685SOL    HW222435   2.255   2.328   7.317 -0.1232  0.2929  0.0782
 6686SOL     OW22436   8.698   6.523   3.608 -0.2662  0.4367 -0.0523
 6686SOL    HW122437   8.768   6.522   3.673  0.6693 -0.0377 -1.0304
 6686SOL    HW222438   8.716   6.599   3.554 -1.1141  0.9039  0.3071
 6687SOL     OW22439   1.758   5.860   8.873 -0.1737  0.0835  0.1827
 6687SOL    HW122440   1.833   5.876   8.815  0.3613 -0.4334  0.7126
 6687SOL    HW222441   1.742   5.944   8.916 -1.1523  0.7255 -1.3473
 6688SOL     OW22442  10.602   5.726   3.709 -0.1012 -0.0855 -0.5817
 6688SOL    HW122443  10.632   5.692   3.794 -0.6372 -0.5877 -0.5832
 6688SOL    HW222444  10.642   5.812   3.702 -0.1644  0.0211  0.2512
 6689SOL     OW22445   0.977  10.612   6.554 -0.0228  0.0186  0.5185
 6689SOL    HW122446   0.916  10.672   6.597 -1.6569 -0.3284 -1.1851
 6689SOL    HW222447   1.062  10.656   6.560 -0.0790 -0.0689  4.0990
 6690SOL     OW22448   4.422   2.720   5.163  0.3752 -0.0136  0.3410
 6690SOL    HW122449   4.409   2.767   5.080  0.7119 -0.0252  0.2790
 6690SOL    HW222450   4.487   2.653   5.141  1.2356  0.6276  0.8579
 6691SOL     OW22451   8.650   1.695   8.438 -0.7418 -0.3940 -0.3239
 6691SOL    HW122452   8.565   1.666   8.405 -0.7079  1.4370 -2.2118
 6691SOL    HW222453   8.713   1.644   8.387 -0.6560 -1.7565  1.0802
 6692SOL     OW22454   6.086   8.452   5.887 -0.5189 -0.0085  0.1771
 6692SOL    HW122455   6.002   8.412   5.909  0.1084  0.3779  3.8000
 6692SOL    HW222456   6.067   8.546   5.881 -0.7648 -0.1334 -1.7891
 6693SOL     OW22457   9.188  10.609   7.096 -0.6005 -0.4780 -0.2451
 6693SOL    HW122458   9.274  10.593   7.057  0.8080  2.9468  1.0838
 6693SOL    HW222459   9.190  10.561   7.178  1.0897  1.3369  0.8717
 6694SOL     OW22460   0.944   5.570   5.332  0.0380 -0.6035 -0.0565
 6694SOL    HW122461   0.872   5.590   5.392  0.7016  0.8818  0.3108
 6694SOL    HW222462   0.924   5.483   5.297 -0.4966 -1.4313  2.1539
 6695SOL     OW22463   9.530   5.781   0.544 -0.8508 -0.2092 -0.0296
 6695SOL    HW122464   9.547   5.861   0.594  3.4725 -0.6915 -0.3538
 6695SOL    HW222465   9.530   5.712   0.610  4.7868 -0.8365 -0.1931
 6696SOL     OW22466  10.793   5.386   6.737 -0.2428 -0.3420  0.4231
 6696SOL    HW122467  10.860   5.317   6.745  1.7281  1.5017  0.6378
 6696SOL    HW222468  10.842   5.465   6.716 -2.3109  1.2788  1.3226
 6697SOL     OW22469   7.061   2.935   9.726  0.2615 -0.5697 -0.0208
 6697SOL    HW122470   7.086   3.007   9.783 -0.0849  0.7305 -1.4279
 6697SOL    HW222471   7.014   2.874   9.783 -2.8127  2.0957  0.6217
 6698SOL     OW22472   5.280   3.629   4.431 -0.4478  0.2996  0.3123
 6698SOL    HW122473   5.278   3.711   4.481 -1.0721 -0.6949  1.9944
 6698SOL    HW222474   5.190   3.619   4.399  0.3259  1.8671 -2.7523
 6699SOL     OW22475   2.907   6.865   6.177  0.4742  0.0327 -0.2550
 6699SOL    HW122476   2.839   6.812   6.135 -0.1742 -0.7866  1.7132
 6699SOL    HW222477   2.988   6.838   6.134 -0.1982 -0.3784 -1.3210
 6700SOL     OW22478   6.245   1.175   3.906  0.1324 -0.6323  0.3203
 6700SOL    HW122479   6.230   1.122   3.984  2.3337 -2.6038 -0.4798
 6700SOL    HW222480   6.191   1.134   3.839 -0.8526  0.3510  0.4761
 6701SOL     OW22481   5.962   7.244   4.929  0.6377 -0.4228  0.5287
 6701SOL    HW122482   6.052   7.256   4.960  0.7237 -0.5866  0.3447
 6701SOL    HW222483   5.924   7.332   4.930  1.4693  0.0191 -1.4763
 6702SOL     OW22484  10.715   7.582   9.344 -0.0476 -0.5625  0.3302
 6702SOL    HW122485  10.672   7.570   9.429  1.2614 -1.5188  0.8880
 6702SOL    HW222486  10.793   7.527   9.348  1.3963  1.2855 -0.5291
 6703SOL     OW22487   3.806   5.200   1.865  0.3305  0.1699  0.0914
 6703SOL    HW122488   3.887   5.245   1.887  0.5906 -1.1271  2.1637
 6703SOL    HW222489   3.831   5.107   1.861 -0.7175 -0.0847 -1.0408
 6704SOL     OW22490  10.266   6.278   5.187 -0.4337 -0.1463 -0.2859
 6704SOL    HW122491  10.358   6.283   5.163  0.2377 -1.5007  1.7397
 6704SOL    HW222492  10.247   6.363   5.226  0.4254 -0.3745  0.6813
 6705SOL     OW22493   5.503   0.527   8.835  0.5445  0.8057  0.5835
 6705SOL    HW122494   5.478   0.454   8.778  0.2127  1.0282  0.4379
 6705SOL    HW222495   5.596   0.513   8.853  1.0002  1.4365 -1.0991
 6706SOL     OW22496   2.010   1.478   7.513  0.0469  0.1688 -0.2127
 6706SOL    HW122497   2.085   1.425   7.540  0.0932  0.3791  0.0793
 6706SOL    HW222498   1.933   1.428   7.541  0.1056  1.0338  1.6039
 6707SOL     OW22499   7.464   7.156   0.673  0.0024  0.3411 -0.2249
 6707SOL    HW122500   7.531   7.224   0.670 -0.0691  0.4435  0.3582
 6707SOL    HW222501   7.381   7.204   0.672 -0.2736  0.1879 -4.6917
 6708SOL     OW22502   2.964   2.784   7.661  0.3440 -0.1598 -0.5257
 6708SOL    HW122503   2.947   2.702   7.614  0.5984 -0.4763 -0.0765
 6708SOL    HW222504   3.046   2.817   7.623  1.4676 -1.2780  0.8163
 6709SOL     OW22505   3.586   3.140  10.599 -0.5230  0.5555  0.2600
 6709SOL    HW122506   3.657   3.132  10.664 -0.2058  1.1104 -0.0094
 6709SOL    HW222507   3.623   3.102  10.519 -0.9707 -0.2747  0.4367
 6710SOL     OW22508   8.933   0.010   7.286 -0.3987 -0.3191  0.2622
 6710SOL    HW122509   8.979  -0.068   7.317 -0.2580 -1.0946 -1.7533
 6710SOL    HW222510   8.845  -0.020   7.264 -0.9070  0.4905  1.1379
 6711SOL     OW22511   8.362   6.607   5.036  0.0220  0.3784  0.2289
 6711SOL    HW122512   8.449   6.577   5.063  0.4728  0.9395 -0.5413
 6711SOL    HW222513   8.305   6.531   5.050  0.9590 -0.5711 -0.8432
 6712SOL     OW22514   4.374   8.607   2.693 -0.5819 -0.1916  0.0385
 6712SOL    HW122515   4.454   8.565   2.723 -0.5465 -1.1787 -1.3329
 6712SOL    HW222516   4.327   8.539   2.644 -2.1615  0.4218  0.6199
 6713SOL     OW22517   5.603   6.558   0.425  0.0857 -0.3236 -0.0505
 6713SOL    HW122518   5.546   6.527   0.495  1.1826  1.0077  1.5272
 6713SOL    HW222519   5.572   6.647   0.406  1.9814  0.7557  1.4170
 6714SOL     OW22520   7.999   1.768   2.827  0.2230 -0.0566 -0.1805
 6714SOL    HW122521   8.036   1.692   2.782 -0.9150 -1.1844  0.7012
 6714SOL    HW222522   7.911   1.776   2.791 -1.4011 -2.0676  2.8580
 6715SOL     OW22523   4.470   0.784   1.272 -0.3608  0.5544  0.6150
 6715SOL    HW122524   4.447   0.872   1.243  0.4744  0.9224  1.0518
 6715SOL    HW222525   4.399   0.759   1.331 -0.7679  0.7941  0.2352
 6716SOL     OW22526   5.946   0.675   0.605 -0.5066 -0.2987  0.5965
 6716SOL    HW122527   5.961   0.652   0.697  0.1570 -0.1614  0.5277
 6716SOL    HW222528   6.031   0.706   0.574 -0.9491  0.5425  0.1920
 6717SOL     OW22529   5.651   8.437   3.489  0.9881  0.3978  0.3191
 6717SOL    HW122530   5.616   8.492   3.419  0.4421 -1.4803 -0.9754
 6717SOL    HW222531   5.588   8.445   3.560 -0.3739 -0.3955 -0.7594
 6718SOL     OW22532   2.244   8.230   5.555  0.2809 -0.2161  0.1094
 6718SOL    HW122533   2.177   8.245   5.488  1.7831  1.0736 -1.2039
 6718SOL    HW222534   2.202   8.253   5.638 -0.5069  1.9921 -0.8336
 6719SOL     OW22535   8.344   0.784   0.802 -0.2036 -0.1913 -0.0987
 6719SOL    HW122536   8.406   0.725   0.845  0.6318  1.2261  0.7427
 6719SOL    HW222537   8.301   0.830   0.874 -0.6965  0.3461 -0.7260
 6720SOL     OW22538   4.324   2.347   6.021  0.1451  0.0031 -0.0188
 6720SOL    HW122539   4.228   2.347   6.020  0.1048  1.0019  1.3383
 6720SOL    HW222540   4.347   2.327   6.112  1.1645  2.1744  0.2622
 6721SOL     OW22541   7.409   1.672   0.588  0.1224 -0.1882  0.3398
 6721SOL    HW122542   7.401   1.742   0.653  0.0326 -0.4196  0.5825
 6721SOL    HW222543   7.319   1.653   0.562  0.2490  0.8836 -0.9196
 6722SOL     OW22544   6.046   6.361   9.160  0.0732 -0.6536  0.1559
 6722SOL    HW122545   5.976   6.424   9.176  0.8171  0.0943  0.5016
 6722SOL    HW222546   6.023   6.286   9.216 -0.1716 -0.2004  0.6750
 6723SOL     OW22547   6.418   7.504   2.422  0.0468  0.0799 -0.2570
 6723SOL    HW122548   6.446   7.586   2.381 -0.6816  1.2606  1.4439
 6723SOL    HW222549   6.328   7.522   2.450  0.8671 -0.0972  2.9377
 6724SOL     OW22550   0.212   7.618   8.795 -0.3324  0.1478 -0.6595
 6724SOL    HW122551   0.184   7.624   8.704 -0.4539 -1.1740 -0.7286
 6724SOL    HW222552   0.307   7.605   8.790 -0.3595 -0.0765 -0.6093
 6725SOL     OW22553   9.115   5.596   7.514  0.7018  0.6463 -0.3233
 6725SOL    HW122554   9.135   5.536   7.441  0.6381 -0.0949  0.2498
 6725SOL    HW222555   9.173   5.566   7.584 -0.3785  0.3197  0.4451
 6726SOL     OW22556   8.246   6.008   7.340 -0.0629 -0.3120 -0.5868
 6726SOL    HW122557   8.170   6.060   7.366 -0.9347 -1.6013 -0.4740
 6726SOL    HW222558   8.315   6.072   7.327 -0.5176  0.7107  1.5934
 6727SOL     OW22559   8.546   8.654   4.664  0.4087 -0.5887 -0.3426
 6727SOL    HW122560   8.515   8.719   4.601  1.2601  1.4571  1.2192
 6727SOL    HW222561   8.638   8.640   4.641 -0.0005 -1.9591 -1.2154
 6728SOL     OW22562   0.871   7.655   2.917 -0.1666 -0.0036 -0.5219
 6728SOL    HW122563   0.820   7.704   2.853 -0.9351  0.0726  0.1387
 6728SOL    HW222564   0.937   7.717   2.950 -0.7504  0.4113 -0.1262
 6729SOL     OW22565   6.785   3.342   2.887 -0.3085  0.0922 -0.0071
 6729SOL    HW122566   6.758   3.257   2.922 -2.2140 -0.1318 -1.8189
 6729SOL    HW222567   6.748   3.344   2.799  0.4548  2.4549 -0.3320
 6730SOL     OW22568   0.615   9.172   4.647  0.4154  0.2797  0.1461
 6730SOL    HW122569   0.594   9.091   4.693  1.2191 -0.0807 -0.1083
 6730SOL    HW222570   0.594   9.154   4.555 -1.7927  1.2032  0.4046
 6731SOL     OW22571   2.807   1.003   9.508  0.3138 -0.2325 -0.2005
 6731SOL    HW122572   2.843   1.077   9.556 -1.0456  0.7047 -0.5423
 6731SOL    HW222573   2.811   1.030   9.416 -0.1846 -0.5770 -0.3300
 6732SOL     OW22574   7.909   7.294   0.895 -0.5367 -0.8165 -0.0614
 6732SOL    HW122575   7.819   7.264   0.882  0.1879 -2.3066 -2.2982
 6732SOL    HW222576   7.961   7.214   0.901  0.7179  0.0141  0.7576
 6733SOL     OW22577   0.701   3.670   7.580  0.1212  0.5432  0.1361
 6733SOL    HW122578   0.655   3.722   7.514  0.8927  1.3883  0.2363
 6733SOL    HW222579   0.765   3.618   7.530 -2.2609 -2.2725 -0.2608
 6734SOL     OW22580   5.178   7.050   9.174 -0.3566  0.0775  0.9646
 6734SOL    HW122581   5.242   7.119   9.190  1.1792 -1.4867  1.8806
 6734SOL    HW222582   5.108   7.067   9.237 -0.5864  1.4438  0.3733
 6735SOL     OW22583   7.263   7.382   4.099  0.4266 -0.8831  0.3366
 6735SOL    HW122584   7.310   7.465   4.112 -0.3204 -0.6764  1.9528
 6735SOL    HW222585   7.279   7.360   4.007 -0.4623  1.7300 -0.5415
 6736SOL     OW22586   6.965   0.514   9.074  0.1487 -0.0797  0.3768
 6736SOL    HW122587   6.958   0.568   9.152  0.1560 -0.5042  0.6741
 6736SOL    HW222588   7.057   0.486   9.072  0.0670 -0.3523  0.4077
 6737SOL     OW22589   1.561   6.678   2.666 -0.4254 -0.3950  0.0337
 6737SOL    HW122590   1.491   6.742   2.654  1.0423  1.3981  0.6320
 6737SOL    HW222591   1.530   6.623   2.738 -1.4574  0.0246 -0.0732
 6738SOL     OW22592   7.083   7.725   5.104  0.2722  0.0859  0.0701
 6738SOL    HW122593   7.150   7.657   5.112 -0.5447 -0.7759 -0.2811
 6738SOL    HW222594   7.105   7.788   5.173  1.6113 -0.0144 -0.2274
 6739SOL     OW22595   5.373  10.780   9.778 -0.2269 -0.2571  0.3728
 6739SOL    HW122596   5.366  10.800   9.685 -0.2103  0.8491  0.5856
 6739SOL    HW222597   5.467  10.775   9.795 -0.2290 -0.4149  0.3333
 6740SOL     OW22598   5.202   3.499   6.155  0.0821  0.2690  0.3724
 6740SOL    HW122599   5.264   3.467   6.221  1.0830 -1.9770 -1.4723
 6740SOL    HW222600   5.257   3.529   6.083 -0.7512 -2.9447 -1.8509
 6741SOL     OW22601   2.917   2.068   9.136 -0.3294 -0.3520  0.1615
 6741SOL    HW122602   2.871   2.096   9.216 -2.2920 -0.9045 -0.7166
 6741SOL    HW222603   2.907   2.141   9.076 -2.9985 -1.6463 -1.1471
 6742SOL     OW22604   4.820   1.214   0.893  0.0598 -0.0950  0.3810
 6742SOL    HW122605   4.748   1.211   0.830  0.3829 -1.9977  0.0620
 6742SOL    HW222606   4.798   1.289   0.950 -1.1951  0.5020 -0.8239
 6743SOL     OW22607   6.835   6.747   2.341  0.5807 -0.4381 -0.7508
 6743SOL    HW122608   6.768   6.757   2.274  0.6471  0.9835 -0.6297
 6743SOL    HW222609   6.917   6.740   2.293  0.6713  0.9658 -0.8392
 6744SOL     OW22610   2.491   3.003   7.899 -0.0005  0.0242 -0.2908
 6744SOL    HW122611   2.528   3.090   7.882  0.7967 -0.2734 -0.1293
 6744SOL    HW222612   2.559   2.942   7.869 -0.2788 -0.5380  0.2068
 6745SOL     OW22613   9.069   6.814   4.192 -0.4020 -0.1116  0.2594
 6745SOL    HW122614   9.003   6.751   4.162  0.6631 -0.6982 -0.9470
 6745SOL    HW222615   9.052   6.823   4.286 -2.2273 -0.1938 -0.0242
 6746SOL     OW22616   8.453   5.527   1.315 -1.3584 -0.0949 -0.0584
 6746SOL    HW122617   8.494   5.480   1.387 -1.6960  1.5551  1.2738
 6746SOL    HW222618   8.425   5.459   1.254  2.0869 -1.4042 -0.4255
 6747SOL     OW22619   6.194   0.003   4.492 -0.1879  0.0199  0.2874
 6747SOL    HW122620   6.176   0.085   4.538 -1.5660 -0.0960  0.0088
 6747SOL    HW222621   6.163   0.019   4.402  0.4240 -0.4828 -0.0201
 6748SOL     OW22622   5.987   8.803   3.696 -0.0384 -0.1364  0.0454
 6748SOL    HW122623   6.019   8.884   3.657 -1.4238  0.5741  0.2973
 6748SOL    HW222624   5.893   8.802   3.675  0.0024 -1.8068 -0.1714
 6749SOL     OW22625  10.313   5.576   0.380 -0.0842 -0.5548  0.6499
 6749SOL    HW122626  10.355   5.547   0.461  1.5103  0.4412  0.2209
 6749SOL    HW222627  10.374   5.551   0.311  0.3629  1.8159  0.0979
 6750SOL     OW22628   5.833   0.754   9.033  0.0457  0.0268 -0.0642
 6750SOL    HW122629   5.807   0.794   8.951 -0.9270 -0.4449  0.0078
 6750SOL    HW222630   5.855   0.663   9.011 -0.5706 -0.2045  0.2465
 6751SOL     OW22631   5.641  10.214   9.266 -0.0811  0.2011  1.0964
 6751SOL    HW122632   5.680  10.291   9.308 -0.9429  0.9287  0.6103
 6751SOL    HW222633   5.711  10.149   9.264  1.9296  2.1890 -1.8453
 6752SOL     OW22634   3.190   0.312   6.755  0.1742 -0.1976 -0.5973
 6752SOL    HW122635   3.240   0.236   6.726  0.0049 -0.2780 -0.6796
 6752SOL    HW222636   3.175   0.362   6.675 -2.5008 -1.6950 -1.1301
 6753SOL     OW22637   1.172   8.201   1.946 -0.3158  0.1529 -0.1240
 6753SOL    HW122638   1.162   8.291   1.917 -0.5589  0.0943 -0.2273
 6753SOL    HW222639   1.123   8.197   2.029 -0.7181 -0.0068 -0.3688
 6754SOL     OW22640   6.502   7.182   1.714 -0.8018 -0.2993 -0.2073
 6754SOL    HW122641   6.522   7.126   1.790 -0.6817 -0.3995 -0.3117
 6754SOL    HW222642   6.412   7.158   1.690 -1.7423  1.4021  1.3513
 6755SOL     OW22643   5.114   0.467   7.234  0.3271 -0.3511  0.1156
 6755SOL    HW122644   5.094   0.427   7.149  0.1681  0.4079 -0.2184
 6755SOL    HW222645   5.123   0.560   7.215  1.6768 -0.3344  0.7008
 6756SOL     OW22646   4.131   6.261   5.993  0.4690 -1.0638 -0.0977
 6756SOL    HW122647   4.219   6.258   5.956  1.7847  1.4692  2.3449
 6756SOL    HW222648   4.136   6.204   6.070  0.7470  0.6156  1.2101
 6757SOL     OW22649   8.305   6.363   1.061 -0.7635  0.4016  0.2727
 6757SOL    HW122650   8.308   6.425   1.134 -0.4755 -0.9077  1.4306
 6757SOL    HW222651   8.306   6.277   1.103 -0.9090 -0.3988 -1.2828
 6758SOL     OW22652   0.918   8.708   8.577 -0.6557 -0.3237  0.3137
 6758SOL    HW122653   0.975   8.708   8.654 -1.2345 -1.7070  0.7634
 6758SOL    HW222654   0.835   8.671   8.608 -0.1295 -3.2849 -1.4952
 6759SOL     OW22655   5.333   8.485   0.651 -0.2121  0.0255  0.2119
 6759SOL    HW122656   5.401   8.423   0.625  1.3996  1.1944  1.3900
 6759SOL    HW222657   5.287   8.443   0.723  0.4544 -0.0721  0.5845
 6760SOL     OW22658   0.367   0.016  10.145 -0.2748 -0.5522  0.6421
 6760SOL    HW122659   0.370   0.012  10.050  0.0969 -0.1384  0.6274
 6760SOL    HW222660   0.285  -0.026  10.169 -0.5717 -0.2818  0.1158
 6761SOL     OW22661   9.438   7.033   1.631 -0.2429  0.1753  0.2815
 6761SOL    HW122662   9.527   7.067   1.618 -0.0506 -0.3814  0.1189
 6761SOL    HW222663   9.385   7.111   1.644 -0.2632  0.7761 -2.5954
 6762SOL     OW22664   3.106   5.964   1.612  0.4491  0.5176  0.7484
 6762SOL    HW122665   3.111   5.897   1.544  0.0404  0.5239  0.7129
 6762SOL    HW222666   3.101   6.046   1.564 -0.5555  0.4811  0.7696
 6763SOL     OW22667   4.838   7.330   7.494  0.1984  0.5281 -0.0014
 6763SOL    HW122668   4.783   7.407   7.505 -1.0520 -0.4243  0.6229
 6763SOL    HW222669   4.871   7.312   7.582 -0.2882 -0.2114  0.0308
 6764SOL     OW22670   5.072   8.283   8.805  0.1706 -0.3146  0.2025
 6764SOL    HW122671   5.037   8.210   8.755 -0.3761 -0.1329  0.3185
 6764SOL    HW222672   4.998   8.317   8.855  0.2354  0.8076 -0.4301
 6765SOL     OW22673   6.071   0.084   7.977  0.2603  0.0627  0.0657
 6765SOL    HW122674   6.100   0.135   8.053  0.9866 -0.2888  0.0325
 6765SOL    HW222675   6.099   0.137   7.902 -0.4008  0.3787  0.0303
 6766SOL     OW22676   0.420   5.140  10.360 -0.1443 -0.3937  0.0383
 6766SOL    HW122677   0.331   5.174  10.366  0.0540 -0.1156  2.1265
 6766SOL    HW222678   0.470   5.193  10.423  1.5317 -0.4925 -1.1363
 6767SOL     OW22679   8.449   9.191   7.225 -0.8097  0.0128  0.5745
 6767SOL    HW122680   8.364   9.228   7.200 -0.3527  0.5828 -0.1671
 6767SOL    HW222681   8.489   9.259   7.279 -1.3670 -0.8038  2.0842
 6768SOL     OW22682   9.439   1.523  10.120 -0.3011 -1.0229 -0.5178
 6768SOL    HW122683   9.351   1.524  10.081 -1.3068 -0.2559  1.6367
 6768SOL    HW222684   9.489   1.586  10.067 -1.7606  0.3899 -0.2802
 6769SOL     OW22685  10.121   9.594   0.970  0.2098  0.4912  0.3606
 6769SOL    HW122686  10.180   9.619   0.899  0.7853  1.1628  1.0516
 6769SOL    HW222687  10.051   9.659   0.967  0.7905  1.1734  1.0551
 6770SOL     OW22688   4.505   9.243   3.052  0.1054  0.7317 -0.5861
 6770SOL    HW122689   4.489   9.157   3.014  3.0617  0.3012 -1.0731
 6770SOL    HW222690   4.468   9.238   3.140  0.2783 -1.0667 -0.5884
 6771SOL     OW22691   9.576   6.593   3.646 -0.2399 -0.4093 -0.3766
 6771SOL    HW122692   9.520   6.571   3.571 -0.6768 -1.0566  0.1288
 6771SOL    HW222693   9.541   6.540   3.718  1.0976 -0.9305 -0.0841
 6772SOL     OW22694   8.363   1.703   8.062 -0.1384 -0.1039  0.6426
 6772SOL    HW122695   8.344   1.636   7.996  0.0964  0.9481 -0.5305
 6772SOL    HW222696   8.400   1.776   8.012  0.7957  0.4218  2.0501
 6773SOL     OW22697   9.104   0.816   1.229 -0.2138  0.4108 -0.1146
 6773SOL    HW122698   9.136   0.738   1.183 -0.7544 -0.2581  0.6249
 6773SOL    HW222699   9.183   0.868   1.246  0.1085  0.1967 -0.9213
 6774SOL     OW22700   5.157   8.227   3.415 -0.1351 -0.6155  0.4330
 6774SOL    HW122701   5.211   8.148   3.409 -0.1170 -0.8449  2.7567
 6774SOL    HW222702   5.202   8.291   3.360  0.1224 -2.0373 -1.1064
 6775SOL     OW22703   4.389   1.266   2.185 -0.2764  0.1396 -0.1483
 6775SOL    HW122704   4.387   1.171   2.199  0.2817  0.0557 -0.5770
 6775SOL    HW222705   4.301   1.295   2.206 -0.0833 -0.2655  1.4032
 6776SOL     OW22706   0.681  10.612   2.295  0.4981 -0.2712 -0.6858
 6776SOL    HW122707   0.727  10.528   2.306 -0.7493 -1.0080 -0.8632
 6776SOL    HW222708   0.683  10.652   2.382 -0.4242 -1.3227 -0.1549
 6777SOL     OW22709   3.005  10.102   0.930  0.6811 -0.6694  0.1841
 6777SOL    HW122710   2.959  10.116   1.013  1.4827 -0.7714  0.6521
 6777SOL    HW222711   2.977  10.015   0.903  1.6292 -1.2972  1.1560
 6778SOL     OW22712   8.491   1.624   3.290  0.2887 -0.1163 -0.1999
 6778SOL    HW122713   8.428   1.616   3.362 -0.0436  1.2657 -0.2943
 6778SOL    HW222714   8.504   1.719   3.281  1.6048 -0.3410 -0.8649
 6779SOL     OW22715   0.464   8.066   1.730 -0.1083  0.1144  0.1975
 6779SOL    HW122716   0.426   8.129   1.791 -1.8604 -0.7933  0.1079
 6779SOL    HW222717   0.557   8.088   1.728 -0.2314  1.0259  2.1458
 6780SOL     OW22718   5.768   4.310   5.053  0.0571 -0.4442 -0.5630
 6780SOL    HW122719   5.751   4.393   5.097  1.7497 -0.8125  0.9066
 6780SOL    HW222720   5.686   4.262   5.059 -0.5872  0.6309 -0.3814
 6781SOL     OW22721   6.212   9.412   2.157  0.2416 -0.2763 -0.2863
 6781SOL    HW122722   6.185   9.502   2.178  0.2199  0.0574 -1.6580
 6781SOL    HW222723   6.144   9.357   2.195  1.1987  0.1261  2.2209
 6782SOL     OW22724   9.371   7.162   8.202 -0.2175  0.3039 -0.2289
 6782SOL    HW122725   9.352   7.094   8.267 -0.6798  0.0055 -0.6703
 6782SOL    HW222726   9.437   7.217   8.244 -1.1883  0.6756  0.8740
 6783SOL     OW22727  10.444   9.732   3.209  0.6757 -0.3409  0.3467
 6783SOL    HW122728  10.498   9.672   3.261  0.3808 -0.6020  0.3580
 6783SOL    HW222729  10.404   9.790   3.273  0.6387 -0.3972  0.3754
 6784SOL     OW22730   0.020  10.617   4.074  0.2043 -0.2424  0.0685
 6784SOL    HW122731   0.043  10.591   3.985  0.3325  0.6791 -0.1742
 6784SOL    HW222732  -0.070  10.588   4.085  0.3180 -0.7170 -0.2148
 6785SOL     OW22733   8.990  10.045   2.795 -0.0199 -0.3632  0.1771
 6785SOL    HW122734   8.924  10.112   2.814  0.8774  0.8632 -0.8080
 6785SOL    HW222735   9.065  10.069   2.850  0.6852  0.1070 -0.9496
 6786SOL     OW22736   7.960   8.345  10.251  0.2804  0.4187  0.4249
 6786SOL    HW122737   7.897   8.374  10.185 -0.3361 -0.5686  0.5573
 6786SOL    HW222738   7.949   8.406  10.324 -1.8494 -0.7733  1.1877
 6787SOL     OW22739   3.339   3.571   7.486 -0.0546  0.5307 -0.0367
 6787SOL    HW122740   3.353   3.633   7.557 -0.0825  1.7550 -1.0647
 6787SOL    HW222741   3.248   3.543   7.496 -0.0208  0.5950  0.4708
 6788SOL     OW22742  10.293   0.958   6.789 -0.1536  0.1085  0.3085
 6788SOL    HW122743  10.339   0.945   6.706 -1.0446 -2.0552  0.1075
 6788SOL    HW222744  10.337   1.033   6.828 -0.5064  2.0745 -2.6685
 6789SOL     OW22745   7.383   5.016   6.974  0.3863 -0.5250  0.3670
 6789SOL    HW122746   7.359   4.928   6.945  0.8363 -0.3856 -0.4520
 6789SOL    HW222747   7.459   5.003   7.030  1.1578 -0.5751 -0.6580
 6790SOL     OW22748   8.429   3.357   1.862 -0.0836 -0.1057  0.0020
 6790SOL    HW122749   8.520   3.370   1.834  0.7111 -1.2911  1.8547
 6790SOL    HW222750   8.382   3.339   1.781  1.5152 -0.4574 -0.9000
 6791SOL     OW22751   8.123   5.640   3.494 -0.5920 -0.0125  0.1586
 6791SOL    HW122752   8.170   5.628   3.577 -0.0393 -0.1172 -0.1590
 6791SOL    HW222753   8.183   5.604   3.428 -1.9138 -1.9620 -0.0803
 6792SOL     OW22754   1.924   2.339   5.593  0.3742  0.7017 -0.2169
 6792SOL    HW122755   1.970   2.379   5.519 -1.9127  0.1165 -2.0746
 6792SOL    HW222756   1.862   2.406   5.622 -1.7944 -0.5182 -1.7760
 6793SOL     OW22757   1.363  10.496  10.659  0.1928 -0.2347 -0.1982
 6793SOL    HW122758   1.409  10.519  10.579  0.7738  1.2273  0.5129
 6793SOL    HW222759   1.299  10.430  10.633  1.3772 -0.8806 -1.5695
 6794SOL     OW22760   1.326  10.202   5.474  0.2370  0.3888 -0.2326
 6794SOL    HW122761   1.282  10.287   5.483 -1.6469 -0.4024 -1.3912
 6794SOL    HW222762   1.407  10.221   5.428  0.4456  1.7042  0.6196
 6795SOL     OW22763   0.801   5.693  10.141 -0.3441  0.2660  0.0670
 6795SOL    HW122764   0.890   5.728  10.133  0.2595 -1.5692 -3.0237
 6795SOL    HW222765   0.746   5.759  10.099 -0.0119  0.1341 -0.5898
 6796SOL     OW22766   5.672   3.435   0.698 -0.0761 -0.4889  0.1199
 6796SOL    HW122767   5.627   3.498   0.641 -0.1213 -0.6224  0.0059
 6796SOL    HW222768   5.601   3.389   0.743 -0.0245  0.9446  1.7690
 6797SOL     OW22769   1.028  10.443   5.743  0.1800  0.2380 -0.0960
 6797SOL    HW122770   1.081  10.490   5.807 -1.5963  1.3584  0.6235
 6797SOL    HW222771   0.974  10.383   5.795  0.0531 -0.2157 -0.7255
 6798SOL     OW22772   2.823   6.699   4.975  0.8820 -0.6313 -0.1685
 6798SOL    HW122773   2.780   6.784   4.968  0.5023 -0.7545  0.5659
 6798SOL    HW222774   2.847   6.677   4.885  0.5733  0.0425 -0.4211
 6799SOL     OW22775   8.150   5.664   8.359 -0.7356 -0.1118 -0.0778
 6799SOL    HW122776   8.235   5.693   8.325 -0.3949 -0.7115  0.2517
 6799SOL    HW222777   8.094   5.661   8.282 -0.1709 -0.7212 -0.4766
 6800SOL     OW22778   6.748   2.809   4.916 -0.5486  0.3307 -0.2525
 6800SOL    HW122779   6.751   2.842   5.006  1.7758  2.1825 -0.9008
 6800SOL    HW222780   6.814   2.740   4.914 -0.5564  0.3295 -0.5316
 6801SOL     OW22781   6.049   8.145   5.182  0.6018  0.4120  0.2991
 6801SOL    HW122782   6.122   8.083   5.188 -0.1118 -0.4459  0.5230
 6801SOL    HW222783   6.089   8.229   5.165  1.6735  0.0408  0.9137
 6802SOL     OW22784   7.955   6.722   4.259  0.1484 -0.2329 -0.0929
 6802SOL    HW122785   7.989   6.711   4.348  2.7202  0.3077 -0.9162
 6802SOL    HW222786   8.028   6.697   4.202 -0.9660  0.7194 -2.0393
 6803SOL     OW22787  10.368   8.008   2.374  0.6610  0.3536 -0.0880
 6803SOL    HW122788  10.433   7.944   2.343  0.9960 -0.0421  1.3289
 6803SOL    HW222789  10.300   7.954   2.416  0.3493  0.8662  0.0724
 6804SOL     OW22790  10.119  10.102   3.885  0.7488 -0.6171  0.6991
 6804SOL    HW122791  10.112  10.062   3.799  1.3794  0.8379 -0.0544
 6804SOL    HW222792  10.196  10.159   3.880 -0.9890  1.9355  1.1809
 6805SOL     OW22793   5.708   1.760   2.062 -0.0923  0.0951 -0.1824
 6805SOL    HW122794   5.659   1.836   2.094 -1.1876 -0.7734  0.2489
 6805SOL    HW222795   5.713   1.774   1.967  2.2828  2.1586  0.1193
 6806SOL     OW22796   7.137   4.441   6.022 -0.3681  0.0667 -0.0650
 6806SOL    HW122797   7.176   4.526   6.000  1.7387 -0.7117  0.4554
 6806SOL    HW222798   7.137   4.392   5.940  0.5615 -0.2145  0.0908
 6807SOL     OW22799   3.231   3.170   3.761 -0.1350 -0.4414  0.5425
 6807SOL    HW122800   3.259   3.259   3.739 -1.7480  0.3638  1.6443
 6807SOL    HW222801   3.268   3.154   3.848  0.3830 -0.9892  0.2362
 6808SOL     OW22802   2.954   5.547   5.772 -0.0545 -0.0458 -0.4280
 6808SOL    HW122803   2.946   5.507   5.858  0.2229 -2.1804 -1.3259
 6808SOL    HW222804   2.865   5.578   5.752 -0.2160  0.0786  0.4441
 6809SOL     OW22805   0.126   8.608   6.031  0.1302 -0.1813 -0.2312
 6809SOL    HW122806   0.034   8.623   6.052  0.0762 -1.9021  0.9524
 6809SOL    HW222807   0.152   8.685   5.981 -1.4868  1.1840  0.9085
 6810SOL     OW22808   5.032   4.253   8.265 -0.6239 -0.1815  0.2220
 6810SOL    HW122809   4.947   4.212   8.280 -0.1524 -1.1380  0.3688
 6810SOL    HW222810   5.095   4.181   8.272  0.2647  0.6207  0.8086
 6811SOL     OW22811   3.055   2.958   4.904  0.0386 -0.2424 -0.2237
 6811SOL    HW122812   2.999   2.890   4.940  1.0428 -1.1254 -0.2979
 6811SOL    HW222813   3.134   2.955   4.958  0.6617 -0.0886 -1.1096
 6812SOL     OW22814   0.048   6.307   7.668  0.0542  0.0728 -0.4241
 6812SOL    HW122815   0.082   6.386   7.710 -1.4894  0.5427  0.0208
 6812SOL    HW222816  -0.047   6.317   7.674 -0.1606 -1.5794 -0.8313
 6813SOL     OW22817   7.425   3.876   2.190 -0.5526 -0.7426  0.0007
 6813SOL    HW122818   7.340   3.909   2.218  0.0995 -0.0492  1.2485
 6813SOL    HW222819   7.470   3.854   2.272  0.9907  0.2258 -0.5485
 6814SOL     OW22820   5.334   1.908   5.993 -0.5668  0.6506  0.2006
 6814SOL    HW122821   5.386   1.867   5.925 -0.4574  0.2753  0.5071
 6814SOL    HW222822   5.397   1.957   6.046 -0.8147  2.0916 -0.7586
 6815SOL     OW22823   9.808   6.824   5.113  0.1281  0.8156  0.1575
 6815SOL    HW122824   9.873   6.845   5.046  0.2856  0.7560  0.2900
 6815SOL    HW222825   9.841   6.867   5.192  0.0970  0.6399  0.2662
 6816SOL     OW22826   2.829   7.914   3.219  0.2879  0.1470  0.2597
 6816SOL    HW122827   2.843   7.955   3.133 -2.6337 -0.7566 -0.7606
 6816SOL    HW222828   2.772   7.975   3.266  0.5057 -0.1485  0.9178
 6817SOL     OW22829   4.248   3.977   0.794 -0.5025  0.0740  0.0902
 6817SOL    HW122830   4.220   4.038   0.726 -1.7546  0.7789  1.1861
 6817SOL    HW222831   4.260   3.894   0.749 -2.3714  0.2508 -0.8426
 6818SOL     OW22832   8.524   7.936   5.620 -0.0289 -0.5435 -0.0356
 6818SOL    HW122833   8.542   8.030   5.632  0.6630 -0.6168 -0.4728
 6818SOL    HW222834   8.609   7.894   5.634 -0.5039 -1.1953  1.0289
 6819SOL     OW22835  10.286  10.340   6.479 -0.1465 -0.1473  0.4373
 6819SOL    HW122836  10.352  10.299   6.423 -0.8682  0.4100 -0.8480
 6819SOL    HW222837  10.299  10.434   6.467 -1.5480 -0.0239 -0.3131
 6820SOL     OW22838   1.673   0.309   4.494 -0.1261  0.4484  0.2918
 6820SOL    HW122839   1.618   0.263   4.558  0.4420 -1.9499 -0.8214
 6820SOL    HW222840   1.666   0.255   4.415  2.0969  1.2761 -0.5275
 6821SOL     OW22841   4.042   7.912   1.438  0.0334 -0.2551  0.3346
 6821SOL    HW122842   4.127   7.888   1.474 -0.1864 -0.4493  0.7317
 6821SOL    HW222843   4.005   7.830   1.405  0.6328  0.0664 -1.2245
 6822SOL     OW22844   4.672   1.224   5.518 -0.1119 -0.5466 -0.0458
 6822SOL    HW122845   4.741   1.158   5.512  1.0002  0.5820 -0.0390
 6822SOL    HW222846   4.655   1.249   5.427  1.3715  1.0355  0.0682
 6823SOL     OW22847   1.342   4.774   8.309  0.3859 -0.0116  0.1729
 6823SOL    HW122848   1.408   4.783   8.378  0.7485 -0.7055 -0.0814
 6823SOL    HW222849   1.372   4.833   8.239 -1.0097  2.2510  1.3451
 6824SOL     OW22850   9.626   9.065   8.589 -0.5819 -0.0475  0.1529
 6824SOL    HW122851   9.536   9.038   8.605 -0.2863 -0.7996  0.5456
 6824SOL    HW222852   9.630   9.156   8.621 -0.7067 -0.6255  1.9123
 6825SOL     OW22853   4.315   4.311   9.758 -0.2844 -0.5899  0.3281
 6825SOL    HW122854   4.407   4.295   9.736  0.0710 -0.2362  1.4956
 6825SOL    HW222855   4.299   4.401   9.730  0.1946 -0.1074  1.5424
 6826SOL     OW22856   9.554   4.140   1.333 -0.0289 -0.2521 -0.4932
 6826SOL    HW122857   9.598   4.200   1.274  0.3555  0.9156  0.9377
 6826SOL    HW222858   9.571   4.053   1.296  1.6835  0.3176 -1.1358
 6827SOL     OW22859   8.495   2.090   3.943  0.4010 -0.0058  0.6405
 6827SOL    HW122860   8.530   2.108   4.030 -2.3679  2.3412  1.4309
 6827SOL    HW222861   8.458   2.002   3.950  1.6475 -0.5168  1.2483
 6828SOL     OW22862   8.753   1.872   8.017 -0.2895  0.5400  0.6066
 6828SOL    HW122863   8.830   1.883   8.072 -0.5293  2.3110  0.6501
 6828SOL    HW222864   8.754   1.780   7.992  3.0192  0.9465 -1.1651
 6829SOL     OW22865   7.366   7.628   5.230 -0.1980 -0.0440 -0.0595
 6829SOL    HW122866   7.367   7.589   5.143 -1.9684  1.1012 -0.6455
 6829SOL    HW222867   7.422   7.706   5.222 -1.2445  0.6843 -0.5224
 6830SOL     OW22868   0.554   6.089   0.238 -0.5851  0.8640 -0.3848
 6830SOL    HW122869   0.486   6.052   0.294  0.7161  0.2063  0.8266
 6830SOL    HW222870   0.589   6.162   0.289 -0.2588  1.0790 -0.9159
 6831SOL     OW22871   4.272   6.465   7.653 -0.1050  0.2574  0.2521
 6831SOL    HW122872   4.306   6.492   7.738  0.2146  1.5599 -0.2690
 6831SOL    HW222873   4.210   6.533   7.629  1.0819  0.8518 -1.3191
 6832SOL     OW22874   7.888   9.836   1.405 -0.2789  0.0271  0.0852
 6832SOL    HW122875   7.879   9.855   1.498  0.2629  0.1125  0.1216
 6832SOL    HW222876   7.982   9.839   1.388 -0.1001 -2.5489  0.0965
 6833SOL     OW22877   5.614   2.789  10.517  0.1172  0.0001  0.0312
 6833SOL    HW122878   5.692   2.834  10.483  0.5015 -1.1489 -0.6291
 6833SOL    HW222879   5.547   2.804  10.451  0.2871 -0.4994 -0.2611
 6834SOL     OW22880   6.867   4.004   4.740  0.2434 -0.9271  0.1323
 6834SOL    HW122881   6.914   3.930   4.778 -1.4353 -2.1165 -0.0179
 6834SOL    HW222882   6.817   4.041   4.813  0.4096 -0.4666  0.0163
 6835SOL     OW22883   8.514   4.297   6.821 -0.2124 -0.0903  0.1264
 6835SOL    HW122884   8.500   4.233   6.891 -3.5297 -0.2208 -0.4883
 6835SOL    HW222885   8.484   4.253   6.742  1.2887  0.8786 -1.0345
 6836SOL     OW22886  10.144   6.569   2.478  0.1163  0.3181  0.0123
 6836SOL    HW122887  10.230   6.590   2.513  0.0127  0.6236  0.0914
 6836SOL    HW222888  10.141   6.614   2.393 -0.4250  1.3528  0.5563
 6837SOL     OW22889   8.143   5.517   5.502 -0.5457  0.3733  0.4235
 6837SOL    HW122890   8.057   5.550   5.475 -1.5574 -1.8270  0.6934
 6837SOL    HW222891   8.124   5.459   5.576  1.1319 -0.3564  0.3207
 6838SOL     OW22892   3.589   9.391   3.476 -0.5570  0.7014 -0.4498
 6838SOL    HW122893   3.670   9.345   3.452 -1.3401  0.1623 -2.2093
 6838SOL    HW222894   3.540   9.399   3.394 -2.1001  1.4231  0.4881
 6839SOL     OW22895   7.665  10.728   5.350 -0.2240  0.3671 -0.6161
 6839SOL    HW122896   7.673  10.823   5.362  2.8037  0.2651 -1.0413
 6839SOL    HW222897   7.706  10.691   5.428 -3.5615 -0.7508  0.7833
 6840SOL     OW22898   3.791   0.386  10.235 -0.4445 -0.0312  0.2395
 6840SOL    HW122899   3.815   0.313  10.178  1.0820  0.5333  0.1265
 6840SOL    HW222900   3.820   0.360  10.322  2.2521  1.2953 -0.1387
 6841SOL     OW22901   5.418   7.121   8.049 -0.1646 -0.0863  0.1188
 6841SOL    HW122902   5.390   7.098   7.961 -1.5096 -0.1373  0.5318
 6841SOL    HW222903   5.436   7.037   8.091  1.0058 -0.0348 -0.2627
 6842SOL     OW22904   6.142   9.448   1.689 -0.0482  0.0400  0.3205
 6842SOL    HW122905   6.048   9.466   1.701 -0.0109 -0.6360  1.8515
 6842SOL    HW222906   6.148   9.353   1.693  0.9108  0.1386  2.1467
 6843SOL     OW22907   9.189   8.929   3.351  0.4305 -0.3255 -0.2148
 6843SOL    HW122908   9.147   8.972   3.276 -0.9146 -0.8864  0.1925
 6843SOL    HW222909   9.256   8.874   3.312  0.8575  0.6374 -0.8843
 6844SOL     OW22910   2.073   2.192   7.892 -0.3110  0.4717  0.2664
 6844SOL    HW122911   2.072   2.195   7.797 -1.3999 -0.3621  0.2300
 6844SOL    HW222912   2.146   2.134   7.914 -0.3719  0.2599 -0.0820
 6845SOL     OW22913   4.574  10.160   1.978 -0.5283  0.3573 -0.1395
 6845SOL    HW122914   4.599  10.173   2.070  1.3336 -2.9173 -0.0027
 6845SOL    HW222915   4.591  10.245   1.937  1.1976  1.2053  2.0519
 6846SOL     OW22916   6.047   8.657   0.735  0.1660 -0.0128  0.6378
 6846SOL    HW122917   6.075   8.723   0.672 -1.6631 -0.0062 -0.2514
 6846SOL    HW222918   6.124   8.640   0.789  1.6212  0.4143 -1.2247
 6847SOL     OW22919   9.907   4.923   3.089  0.6100 -0.1510 -0.5960
 6847SOL    HW122920   9.997   4.898   3.067  0.8543  1.3605 -1.4650
 6847SOL    HW222921   9.918   4.983   3.163  0.1004 -1.8544  0.9313
 6848SOL     OW22922   2.508   7.332   1.427  0.1220  0.1202  0.0639
 6848SOL    HW122923   2.448   7.403   1.447 -0.6878 -1.1440  2.4609
 6848SOL    HW222924   2.554   7.316   1.509  2.3937 -0.2528 -1.1915
 6849SOL     OW22925   9.319   3.266   4.793 -0.3541 -0.4816 -0.1757
 6849SOL    HW122926   9.369   3.184   4.789  1.2384  0.4623 -0.1387
 6849SOL    HW222927   9.272   3.269   4.710 -0.4261 -1.4266 -0.1811
 6850SOL     OW22928   9.337   0.683  10.257  0.0486  0.5906  0.3608
 6850SOL    HW122929   9.278   0.653  10.187 -0.9562  0.0842  1.3859
 6850SOL    HW222930   9.418   0.706  10.212  0.2462 -1.9016 -0.7496
 6851SOL     OW22931   8.983   7.974   8.671 -0.2415  0.0633  0.6217
 6851SOL    HW122932   9.010   8.058   8.707 -0.1840  0.4606 -0.3407
 6851SOL    HW222933   8.948   7.926   8.747  0.1699  0.7591  1.2639
 6852SOL     OW22934   8.846   7.546   9.854  0.9698  0.2678  0.0874
 6852SOL    HW122935   8.873   7.572   9.766  2.0300 -1.4551 -0.1378
 6852SOL    HW222936   8.788   7.617   9.883  1.4466  1.3921 -1.5615
 6853SOL     OW22937   2.567   1.172  10.075 -0.3614 -0.1862  0.2384
 6853SOL    HW122938   2.636   1.108  10.091 -1.8962 -1.7439  0.9245
 6853SOL    HW222939   2.509   1.165  10.151  0.2172  3.2176  1.1807
 6854SOL     OW22940   3.197   0.736   4.452  0.5173 -0.1090 -0.3450
 6854SOL    HW122941   3.166   0.795   4.384 -0.1784  0.9547  0.8413
 6854SOL    HW222942   3.117   0.695   4.486  1.0718 -2.7826 -1.9944
 6855SOL     OW22943   2.910   0.720  10.318 -0.1107 -0.7526  0.4604
 6855SOL    HW122944   2.925   0.637  10.363 -0.6800 -1.6197 -0.8964
 6855SOL    HW222945   2.953   0.710  10.233 -0.7778  0.0786  0.0042
 6856SOL     OW22946   4.039   7.328   6.002 -0.0841 -0.3966 -0.0854
 6856SOL    HW122947   3.985   7.396   5.963 -1.2663 -0.1085  1.8891
 6856SOL    HW222948   3.987   7.248   5.993  1.1576 -1.0519 -2.1066
 6857SOL     OW22949   3.055   4.555   9.094 -0.7774 -0.5092 -0.2047
 6857SOL    HW122950   3.143   4.538   9.060 -0.4167 -0.0062  0.4726
 6857SOL    HW222951   3.009   4.472   9.081  0.3027 -1.3323  1.0066
 6858SOL     OW22952   4.404   2.276   9.340 -0.6412 -0.0886 -0.3050
 6858SOL    HW122953   4.454   2.208   9.295  0.0636 -1.3038  2.1780
 6858SOL    HW222954   4.316   2.240   9.347 -0.5525 -0.2532 -0.0171
 6859SOL     OW22955   7.968   3.804   6.920  0.5246  0.0964 -0.3161
 6859SOL    HW122956   7.937   3.839   7.003  1.9726  0.2848  0.1829
 6859SOL    HW222957   7.897   3.821   6.859 -0.3784  0.3866  0.7753
 6860SOL     OW22958   7.759   7.419   4.762  0.1924  0.3386 -0.5666
 6860SOL    HW122959   7.831   7.378   4.810 -0.0968  0.5492  0.0663
 6860SOL    HW222960   7.681   7.391   4.809 -0.0641  0.9599 -0.6181
 6861SOL     OW22961  10.408  10.101   7.290  0.1016 -0.1247  0.5939
 6861SOL    HW122962  10.477  10.148   7.337  1.2996  0.3792 -1.5405
 6861SOL    HW222963  10.328  10.149   7.312  1.1214  2.2798 -0.5845
 6862SOL     OW22964   2.421   9.857   1.925  0.2441  0.3417  0.2881
 6862SOL    HW122965   2.494   9.918   1.921  0.6566 -0.1004  0.7874
 6862SOL    HW222966   2.429   9.816   2.011  0.5751 -1.1281 -0.4026
 6863SOL     OW22967   8.669   7.493   3.110  0.3134 -0.3788  0.4793
 6863SOL    HW122968   8.714   7.542   3.179 -1.0569 -2.0529  2.6536
 6863SOL    HW222969   8.738   7.474   3.046  1.4684  1.8116  0.9509
 6864SOL     OW22970   7.102   9.019   3.767 -0.1570  0.8406 -0.2327
 6864SOL    HW122971   7.067   8.977   3.688  0.5341 -1.3550  0.5594
 6864SOL    HW222972   7.036   9.004   3.834  0.0719  1.1021  0.0559
 6865SOL     OW22973   0.554   2.061   4.104 -0.0420  0.1598 -0.1078
 6865SOL    HW122974   0.473   2.111   4.110  0.6173  1.5699 -1.9136
 6865SOL    HW222975   0.534   1.989   4.044 -0.0404  0.3623 -0.3536
 6866SOL     OW22976   6.461   8.413   2.765  0.3106  0.1306  0.5328
 6866SOL    HW122977   6.436   8.327   2.734  1.7230 -0.3670  0.6938
 6866SOL    HW222978   6.503   8.455   2.689 -0.7946  0.8750  0.3121
 6867SOL     OW22979   9.311   0.430   6.429  0.2490 -0.1051  0.1484
 6867SOL    HW122980   9.258   0.358   6.463  2.1356 -1.0813  1.1528
 6867SOL    HW222981   9.399   0.394   6.419  0.8662  1.5657 -1.0818
 6868SOL     OW22982   1.592  10.740   8.960  0.2431  0.1809  0.2162
 6868SOL    HW122983   1.510  10.714   8.917  0.5722 -0.3897 -0.0850
 6868SOL    HW222984   1.651  10.666   8.945  0.3658 -0.0511  1.6795
 6869SOL     OW22985   1.268  10.139   5.072 -0.1883  0.2444  0.1360
 6869SOL    HW122986   1.336  10.195   5.036  0.9421  0.7671  2.8102
 6869SOL    HW222987   1.240  10.084   4.999  1.1801  1.8712 -1.6995
 6870SOL     OW22988   1.785  10.787   4.729 -0.1139 -0.7569  0.2528
 6870SOL    HW122989   1.835  10.707   4.743  0.8715 -0.2538 -0.2291
 6870SOL    HW222990   1.750  10.779   4.640  2.1270  0.3979 -0.8270
 6871SOL     OW22991   5.089   1.712  10.374 -0.3476  0.2650 -0.2497
 6871SOL    HW122992   5.062   1.797  10.340 -0.4618  1.0179  1.6110
 6871SOL    HW222993   5.181   1.704  10.347  0.3089  1.9595  1.2605
 6872SOL     OW22994   5.750   3.442   6.755 -0.0325  0.8017  0.7466
 6872SOL    HW122995   5.767   3.428   6.662  0.9230 -0.6989  1.1155
 6872SOL    HW222996   5.658   3.466   6.759 -0.2198  0.3685 -0.5368
 6873SOL     OW22997   4.845   3.592   9.015 -0.4365  0.3542  0.3492
 6873SOL    HW122998   4.821   3.543   8.936  4.4448 -0.8393 -0.7284
 6873SOL    HW222999   4.882   3.527   9.074 -0.1711  1.8281  1.8726
 6874SOL     OW23000   2.302   9.489   8.457  0.3119 -0.2045  0.4674
 6874SOL    HW123001   2.386   9.447   8.478  0.1998  0.4948  2.6048
 6874SOL    HW223002   2.271   9.522   8.541 -1.8403  0.0833 -0.3869
 6875SOL     OW23003   2.130   5.535   9.040 -0.3406 -0.0873  0.4106
 6875SOL    HW123004   2.141   5.624   9.006  0.7898  0.4211  2.0258
 6875SOL    HW223005   2.208   5.488   9.010 -1.7156 -1.0681 -1.8698
 6876SOL     OW23006   5.912   4.891   9.131  0.5632 -0.2311 -0.0114
 6876SOL    HW123007   6.004   4.870   9.146  0.8785  0.5945 -0.7060
 6876SOL    HW223008   5.886   4.939   9.209  1.4610  1.7517 -0.8595
 6877SOL     OW23009   1.021   3.318  10.632  0.4405  0.5780  0.0447
 6877SOL    HW123010   0.967   3.272  10.568  1.2709  0.9313 -0.9406
 6877SOL    HW223011   0.999   3.278  10.716 -0.7667  0.1932 -0.4378
 6878SOL     OW23012   4.933   0.668   6.049  0.5236  0.1888  0.1410
 6878SOL    HW123013   4.874   0.724   6.100  0.0600  0.2233 -0.4142
 6878SOL    HW223014   4.882   0.588   6.034  0.8528 -0.0302  0.1845
 6879SOL     OW23015  10.038   2.232  10.366 -0.4111  0.0099  0.5759
 6879SOL    HW123016  10.079   2.292  10.304 -1.8614  0.8218  0.3613
 6879SOL    HW223017  10.100   2.226  10.439  0.8117 -0.0894 -0.4428
 6880SOL     OW23018   1.462   2.669   3.762  0.0363  0.2621  0.4055
 6880SOL    HW123019   1.491   2.758   3.745 -0.0200  0.3651  0.8387
 6880SOL    HW223020   1.377   2.679   3.805 -1.5055 -0.0548 -2.3073
 6881SOL     OW23021   5.485   8.372   7.559 -0.5232  0.5116  0.0967
 6881SOL    HW123022   5.413   8.435   7.567 -1.9534 -0.8819 -1.2176
 6881SOL    HW223023   5.488   8.350   7.466  0.1186 -1.1518  0.4751
 6882SOL     OW23024   7.559   3.741   6.117  0.2197  0.5154 -0.6025
 6882SOL    HW123025   7.626   3.746   6.049  0.3006  0.5542 -0.5193
 6882SOL    HW223026   7.481   3.778   6.076 -0.2575 -1.1813 -1.3194
 6883SOL     OW23027   1.888   6.042   0.336 -0.6191  0.1814  0.4629
 6883SOL    HW123028   1.874   5.975   0.269  0.1540 -0.5540  1.0133
 6883SOL    HW223029   1.814   6.033   0.396 -0.8261  0.2160  0.2114
 6884SOL     OW23030   6.270   1.137   5.479  1.1265 -0.2385  0.7067
 6884SOL    HW123031   6.346   1.092   5.443  1.9555  0.0951  1.9527
 6884SOL    HW223032   6.240   1.195   5.408  2.2876 -0.0810  0.3254
 6885SOL     OW23033   5.101   0.686   6.891 -0.2462  0.2006 -0.1266
 6885SOL    HW123034   5.050   0.760   6.859 -0.4920 -0.6574 -1.8493
 6885SOL    HW223035   5.037   0.629   6.933  0.0637  1.2870  1.9696
 6886SOL     OW23036   1.539   5.970   1.693  0.7362 -0.3273 -0.8521
 6886SOL    HW123037   1.615   5.918   1.669  1.3792  0.0067  0.3960
 6886SOL    HW223038   1.569   6.025   1.765 -0.8543 -0.6419  0.0885
 6887SOL     OW23039   0.714   8.545   1.003 -0.0874  0.1350 -0.5345
 6887SOL    HW123040   0.726   8.601   0.926  0.2838  1.8775  0.7277
 6887SOL    HW223041   0.620   8.527   1.005 -0.6417  2.7032  0.2804
 6888SOL     OW23042  10.001   4.268   8.795  0.3408 -0.6098  0.4635
 6888SOL    HW123043   9.948   4.194   8.825 -0.9677  0.5398  1.0844
 6888SOL    HW223044   9.964   4.344   8.839  0.8864  0.6120 -1.0801
 6889SOL     OW23045   1.798   2.275   7.856  0.0957  0.0536  0.4000
 6889SOL    HW123046   1.805   2.250   7.764 -0.4005 -0.6147  0.5337
 6889SOL    HW223047   1.878   2.242   7.897  1.5815  2.5679 -0.2379
 6890SOL     OW23048   4.283   4.819   9.920  0.5116  0.4549 -0.7643
 6890SOL    HW123049   4.348   4.779   9.862 -2.2848 -2.5028 -2.1632
 6890SOL    HW223050   4.274   4.756   9.992 -1.0047  0.6325 -0.7729
 6891SOL     OW23051   0.138   4.251   0.814  0.8323 -0.2036 -0.3680
 6891SOL    HW123052   0.098   4.329   0.852 -0.3751 -1.2104  0.4850
 6891SOL    HW223053   0.094   4.241   0.729  0.2719 -0.4958 -0.0508
 6892SOL     OW23054   8.441   1.619   1.082 -0.0674 -0.9633 -0.2205
 6892SOL    HW123055   8.366   1.627   1.023  0.5120 -1.9743 -1.1380
 6892SOL    HW223056   8.430   1.533   1.123  0.3279 -0.9039  0.0168
 6893SOL     OW23057   0.010   9.369   7.372 -0.4656  0.0705  0.0995
 6893SOL    HW123058  -0.052   9.314   7.324 -0.3089  0.4182 -0.5190
 6893SOL    HW223059  -0.019   9.365   7.463 -0.4517 -1.0385  0.0743
 6894SOL     OW23060   9.876  10.258   5.326 -1.0694  0.0730 -0.0309
 6894SOL    HW123061   9.805  10.222   5.379 -0.5321  0.5888  1.0764
 6894SOL    HW223062   9.956  10.235   5.374 -0.5994  1.0146 -0.3376
 6895SOL     OW23063   4.888   7.902   1.151 -0.1011  0.0945 -0.0020
 6895SOL    HW123064   4.854   7.953   1.224  0.0421 -1.6660  1.3513
 6895SOL    HW223065   4.983   7.903   1.162 -0.1263 -1.0419  0.4815
 6896SOL     OW23066   8.627   2.328   3.913 -0.2355 -0.0800 -0.0309
 6896SOL    HW123067   8.592   2.239   3.922  0.7795 -0.5052 -0.0777
 6896SOL    HW223068   8.640   2.339   3.819 -0.1825  0.0366 -0.0096
 6897SOL     OW23069   6.065   2.969   9.924  0.1315 -0.0370  0.5248
 6897SOL    HW123070   6.040   3.020  10.001 -0.7435  0.2884  0.0408
 6897SOL    HW223071   5.982   2.952   9.879  0.7302  0.6279 -0.8687
 6898SOL     OW23072   9.211   0.298   5.424 -0.0922 -0.1109  0.7059
 6898SOL    HW123073   9.285   0.344   5.385 -1.2528  0.1719 -1.2818
 6898SOL    HW223074   9.140   0.362   5.422 -0.8262 -0.8956  1.1052
 6899SOL     OW23075   7.148   4.543   5.575  0.4941  0.9259  0.3216
 6899SOL    HW123076   7.143   4.513   5.666 -0.7155  1.5293  0.4707
 6899SOL    HW223077   7.235   4.516   5.546 -0.0248 -1.5660  0.8361
 6900SOL     OW23078   9.444   2.735   7.411 -0.0187 -0.1437 -0.3384
 6900SOL    HW123079   9.420   2.682   7.335 -1.1875 -0.4473  0.2369
 6900SOL    HW223080   9.384   2.709   7.480  0.6687  0.5286  0.5472
 6901SOL     OW23081  10.347  10.707   9.479 -0.3697 -0.1478 -0.4734
 6901SOL    HW123082  10.337  10.785   9.535 -2.2787 -1.1919  0.7208
 6901SOL    HW223083  10.339  10.633   9.539  0.5905 -1.3065 -1.7169
 6902SOL     OW23084   4.593   9.930   0.824 -0.3844 -0.0267  0.1452
 6902SOL    HW123085   4.592   9.838   0.852 -3.2587 -0.6171 -1.5138
 6902SOL    HW223086   4.593   9.980   0.906  0.8713 -1.4601  1.0780
 6903SOL     OW23087   4.084  10.115   4.223  0.7485 -0.1327 -0.2210
 6903SOL    HW123088   4.139  10.078   4.292  0.5995  2.2127  1.2602
 6903SOL    HW223089   4.025  10.175   4.268  1.2281  2.1941 -2.4359
 6904SOL     OW23090   0.720   5.788   6.701  0.1007  0.2881  0.0362
 6904SOL    HW123091   0.651   5.760   6.760 -0.6250 -2.2366 -1.8376
 6904SOL    HW223092   0.676   5.846   6.638 -0.6811 -2.0872 -1.7447
 6905SOL     OW23093   2.928   2.910   8.601  0.1356 -0.1046 -0.0696
 6905SOL    HW123094   2.836   2.893   8.620  0.0882 -0.9577 -0.9542
 6905SOL    HW223095   2.970   2.825   8.607  0.3462 -0.2284 -2.3139
 6906SOL     OW23096   4.860   9.841   9.481  0.4648 -0.4556  0.4223
 6906SOL    HW123097   4.844   9.806   9.569  0.8173  1.5991  1.3834
 6906SOL    HW223098   4.877   9.934   9.496  1.0401 -0.1538 -1.7996
 6907SOL     OW23099   0.429   6.028   3.071 -0.1540  0.0490 -0.2338
 6907SOL    HW123100   0.391   5.951   3.112 -0.5289  0.2433 -0.2090
 6907SOL    HW223101   0.381   6.038   2.988  0.2020 -0.0072 -0.4486
 6908SOL     OW23102   9.286   1.596   2.731  0.1647 -0.6196 -0.3315
 6908SOL    HW123103   9.269   1.690   2.720 -0.3058 -0.7467 -0.7105
 6908SOL    HW223104   9.289   1.584   2.826 -0.1880 -0.2897 -0.2766
 6909SOL     OW23105   0.675   7.032   4.051 -0.1972 -0.5045  0.1047
 6909SOL    HW123106   0.747   6.977   4.018  0.6968  0.5155  0.2942
 6909SOL    HW223107   0.715   7.118   4.064 -0.6907 -0.6082  3.0444
 6910SOL     OW23108   6.681  10.147   1.049  0.5037 -0.3455 -0.4454
 6910SOL    HW123109   6.645  10.186   1.128 -1.7636  0.3697 -1.7207
 6910SOL    HW223110   6.776  10.150   1.061  0.2410  0.1075  2.0285
 6911SOL     OW23111   6.271   1.670   2.925  0.0984  0.2718 -0.0762
 6911SOL    HW123112   6.296   1.758   2.894  0.2699  0.7818  1.4037
 6911SOL    HW223113   6.254   1.620   2.845  1.6568  1.1604 -1.0140
 6912SOL     OW23114   9.607   1.050   1.724 -0.1071 -0.0530 -0.3355
 6912SOL    HW123115   9.689   1.002   1.735 -1.4371 -1.9320  2.2816
 6912SOL    HW223116   9.601   1.105   1.801 -0.5409  1.4023 -1.3620
 6913SOL     OW23117   0.505   2.559   7.307  0.1944  0.2278 -0.6639
 6913SOL    HW123118   0.599   2.552   7.286  0.0159 -0.5282 -1.2686
 6913SOL    HW223119   0.463   2.499   7.245 -0.9755  2.5411 -2.2241
 6914SOL     OW23120   6.398   7.880   1.652  0.0277  0.1181 -0.0818
 6914SOL    HW123121   6.305   7.902   1.653  0.0554  0.2456 -0.2296
 6914SOL    HW223122   6.440   7.956   1.612 -0.0573 -0.8518 -2.1447
 6915SOL     OW23123  10.514   7.834   4.559  0.0866 -0.0784 -0.0694
 6915SOL    HW123124  10.581   7.846   4.627  1.1558 -0.4410 -1.0344
 6915SOL    HW223125  10.477   7.921   4.547  0.8650  0.2755  0.0010
 6916SOL     OW23126   1.839   1.940   1.275 -0.0346 -0.0437  0.1977
 6916SOL    HW123127   1.768   2.001   1.257 -1.6140 -1.7603  0.3278
 6916SOL    HW223128   1.891   1.984   1.343 -1.0355  1.2120  0.1932
 6917SOL     OW23129   0.284   6.141   9.676  0.5311  0.1760 -0.1442
 6917SOL    HW123130   0.330   6.205   9.731  1.2730  0.1582 -0.7173
 6917SOL    HW223131   0.266   6.187   9.595  1.9357 -0.5809 -0.9401
 6918SOL     OW23132   6.712   8.980   5.541  0.6047 -0.2984  0.1715
 6918SOL    HW123133   6.638   9.025   5.500 -0.0448 -0.1894  1.3887
 6918SOL    HW223134   6.750   9.045   5.600  4.0054  0.8877 -2.9492
 6919SOL     OW23135  10.640   8.315   2.381 -0.3350  0.8598  0.1630
 6919SOL    HW123136  10.555   8.353   2.400 -0.7164  0.1756 -0.1610
 6919SOL    HW223137  10.638   8.295   2.287  0.2124  0.9027  0.1344
 6920SOL     OW23138   1.766   1.219   9.656 -0.2311  0.3950  0.3788
 6920SOL    HW123139   1.820   1.253   9.584 -1.5197  0.3521 -0.6526
 6920SOL    HW223140   1.725   1.140   9.620 -3.1348  1.8964  0.1034
 6921SOL     OW23141   9.493   4.623  10.071  0.8563  0.0638  0.3547
 6921SOL    HW123142   9.467   4.707  10.109 -0.2173 -0.6990  1.3812
 6921SOL    HW223143   9.450   4.621   9.985 -1.9804 -0.8169  1.6834
 6922SOL     OW23144   8.770  10.536   3.975 -0.5576  0.2668 -0.4609
 6922SOL    HW123145   8.690  10.527   3.923 -0.4021 -1.2983 -0.4757
 6922SOL    HW223146   8.740  10.533   4.066 -0.5893  0.4307 -0.4661
 6923SOL     OW23147   4.189   4.037   9.083  0.2297  0.4375 -0.2304
 6923SOL    HW123148   4.196   4.094   9.159 -0.0319  0.0203  0.1058
 6923SOL    HW223149   4.271   3.987   9.082  0.2309  0.4393 -0.2236
 6924SOL     OW23150   3.990   6.328   1.752 -0.0123 -0.6762 -0.3503
 6924SOL    HW123151   3.935   6.382   1.809 -0.7259  1.8198 -3.1260
 6924SOL    HW223152   3.928   6.280   1.698  0.4261  0.9711 -2.4475
 6925SOL     OW23153   0.279   1.203   4.249  0.4350  0.4952  0.1927
 6925SOL    HW123154   0.289   1.109   4.257  1.8369  0.6527  0.5136
 6925SOL    HW223155   0.347   1.229   4.187  0.0816  1.3077  0.1272
 6926SOL     OW23156   5.610   5.840   5.614  0.5157  0.4746 -0.2572
 6926SOL    HW123157   5.630   5.749   5.637  1.2656  0.7914  0.4098
 6926SOL    HW223158   5.557   5.834   5.534  0.3160 -0.5527 -0.0640
 6927SOL     OW23159  10.685   8.011  10.459 -0.1048 -0.6218  0.4686
 6927SOL    HW123160  10.646   8.000  10.373 -1.1644  0.4859  0.7635
 6927SOL    HW223161  10.775   8.038  10.442  0.1413 -1.8538 -0.2595
 6928SOL     OW23162   2.422   9.372   2.723  0.4426  0.0108 -0.1627
 6928SOL    HW123163   2.478   9.450   2.722  0.6246 -0.0905 -2.6742
 6928SOL    HW223164   2.345   9.397   2.672  1.1199 -1.8350 -2.2229
 6929SOL     OW23165   9.915   9.574   6.864  0.2628  0.4408  0.4377
 6929SOL    HW123166   9.920   9.490   6.817 -0.2988  0.4585  0.3441
 6929SOL    HW223167   9.995   9.620   6.837  1.6437 -0.8532  2.0654
 6930SOL     OW23168   6.108   2.158   0.107 -0.3869  0.5543 -0.1056
 6930SOL    HW123169   6.090   2.234   0.051 -1.3800 -0.2297 -0.8892
 6930SOL    HW223170   6.036   2.098   0.089  0.4381 -0.6244  0.4286
 6931SOL     OW23171   3.750  10.632   5.056 -0.2910  0.0867 -0.0146
 6931SOL    HW123172   3.815  10.568   5.027 -0.8848  0.5690 -2.7536
 6931SOL    HW223173   3.666  10.591   5.040 -0.6875  0.4159  1.1291
 6932SOL     OW23174   0.620   3.693  10.008 -0.1105  0.5127  0.0653
 6932SOL    HW123175   0.705   3.718  10.044  0.7110 -0.3596 -1.2162
 6932SOL    HW223176   0.582   3.776   9.977  0.7868  0.7444 -0.4329
 6933SOL     OW23177   4.321   4.668   6.437 -0.1903 -0.2074 -0.1053
 6933SOL    HW123178   4.317   4.733   6.367 -1.4359  0.7012  0.7454
 6933SOL    HW223179   4.335   4.585   6.393 -0.3828  0.4128 -1.3798
 6934SOL     OW23180   8.790   3.490   7.363 -0.2180  0.3134 -0.6300
 6934SOL    HW123181   8.859   3.487   7.429 -0.4156  0.0530 -0.4373
 6934SOL    HW223182   8.780   3.583   7.343 -0.1575  0.3923 -0.2962
 6935SOL     OW23183   8.928   7.294   7.122  0.3164 -0.2490 -0.0468
 6935SOL    HW123184   9.016   7.274   7.091  0.7297  2.7312 -1.0738
 6935SOL    HW223185   8.923   7.389   7.121 -2.7731 -0.3078  0.4825
 6936SOL     OW23186   2.656   3.991   5.151  0.4100  0.5820  0.3521
 6936SOL    HW123187   2.658   4.075   5.107 -2.1928  0.5131 -0.0327
 6936SOL    HW223188   2.602   4.005   5.228  0.6885 -0.5363  0.7725
 6937SOL     OW23189   7.728   3.915   8.091 -0.0764 -0.2261 -0.1225
 6937SOL    HW123190   7.744   3.972   8.016 -0.7338  1.5725  1.0458
 6937SOL    HW223191   7.670   3.846   8.057  0.0981  0.2284 -1.3877
 6938SOL     OW23192   8.313   8.008   3.411 -0.1512  0.2208  0.1098
 6938SOL    HW123193   8.298   8.040   3.500  0.5969  0.7764  0.0487
 6938SOL    HW223194   8.229   7.971   3.384 -0.0989 -0.8858  1.4129
 6939SOL     OW23195   2.624   5.705   7.047  0.1936  0.0810  0.7308
 6939SOL    HW123196   2.712   5.680   7.075  0.1818  0.7539  1.4019
 6939SOL    HW223197   2.623   5.801   7.053 -0.0133  0.2294 -0.9849
 6940SOL     OW23198   5.621   4.818   8.433  0.1960 -0.4771  0.3388
 6940SOL    HW123199   5.607   4.912   8.434  0.0199 -0.4741 -0.9357
 6940SOL    HW223200   5.535   4.780   8.452 -0.4354 -0.3867 -2.0103
 6941SOL     OW23201   7.803   2.885   8.499  0.0896  0.6583 -0.1469
 6941SOL    HW123202   7.727   2.939   8.478 -0.6063 -0.4412 -0.5450
 6941SOL    HW223203   7.767   2.814   8.552  1.1764  1.2092  1.4046
 6942SOL     OW23204   4.914   1.749   7.722  0.1145  0.6638 -0.4922
 6942SOL    HW123205   4.935   1.778   7.811  0.1977 -0.5250 -0.1048
 6942SOL    HW223206   4.829   1.788   7.703 -0.2907  0.2652  0.4404
 6943SOL     OW23207   0.716   6.796   2.721 -0.3593  0.1322  0.1246
 6943SOL    HW123208   0.772   6.845   2.782 -0.3466 -0.4909  0.6273
 6943SOL    HW223209   0.760   6.806   2.637  1.1809 -1.2760  0.6963
 6944SOL     OW23210   7.405  10.557   0.572  0.4026  0.3502 -0.2985
 6944SOL    HW123211   7.333  10.530   0.629 -0.3979  0.8747 -1.0332
 6944SOL    HW223212   7.482  10.555   0.628 -0.5531  2.1029  1.1719
 6945SOL     OW23213   7.232   3.955   4.068 -0.4551 -0.5261 -0.1658
 6945SOL    HW123214   7.279   3.881   4.028 -0.3999  0.3906 -1.8874
 6945SOL    HW223215   7.185   3.916   4.141 -0.2764 -2.2384 -0.9039
 6946SOL     OW23216   1.646   0.467   9.456 -0.1171  0.3744 -0.3108
 6946SOL    HW123217   1.644   0.406   9.529  1.8869  0.0206 -0.5129
 6946SOL    HW223218   1.724   0.520   9.471 -1.1894  2.1620 -0.7427
 6947SOL     OW23219   5.094   6.289   8.276  0.0855  0.6757  0.4868
 6947SOL    HW123220   5.148   6.351   8.326 -0.7679  0.5108  1.6550
 6947SOL    HW223221   5.012   6.336   8.262 -0.2114  0.1704  0.5339
 6948SOL     OW23222   9.507   1.814   9.709 -0.4821  0.4564 -0.2732
 6948SOL    HW123223   9.493   1.804   9.615 -0.1349 -1.8618 -0.1262
 6948SOL    HW223224   9.432   1.867   9.739  0.2361  2.6199 -2.0287
 6949SOL     OW23225   8.790   2.036   0.001 -0.5700 -0.1029  0.1109
 6949SOL    HW123226   8.821   1.958   0.047 -1.2372 -1.6921 -2.0107
 6949SOL    HW223227   8.707   2.057   0.044 -0.7349 -0.9987  0.2606
 6950SOL     OW23228   0.614   1.598   2.785  0.0023 -0.0348 -0.0041
 6950SOL    HW123229   0.522   1.622   2.774  0.1345  1.1072  1.1889
 6950SOL    HW223230   0.620   1.565   2.874  1.1314  2.0265  0.7556
 6951SOL     OW23231   6.171   4.546   0.204 -0.0380  0.3365 -0.3694
 6951SOL    HW123232   6.099   4.525   0.145  0.9429  1.5448 -2.0865
 6951SOL    HW223233   6.237   4.480   0.185  0.1831  0.5816 -0.4659
 6952SOL     OW23234   4.856   6.866   8.323 -0.8281 -0.1398  0.6219
 6952SOL    HW123235   4.900   6.781   8.325  0.9068  0.6343 -1.1153
 6952SOL    HW223236   4.773   6.849   8.278 -0.3816 -0.8785  0.0597
 6953SOL     OW23237   5.574   6.277   8.671  0.1717  0.1298 -0.2172
 6953SOL    HW123238   5.519   6.267   8.749  2.1603 -1.0316  1.1126
 6953SOL    HW223239   5.585   6.187   8.638  1.2265  0.3536 -0.4969
 6954SOL     OW23240   7.826   1.488  10.141 -0.3330  0.1417  0.1373
 6954SOL    HW123241   7.735   1.517  10.138 -0.2320  0.5546  0.7830
 6954SOL    HW223242   7.854   1.508  10.230  0.4145  0.0842 -0.0795
 6955SOL     OW23243   7.622   6.872   9.468 -0.0984 -0.4300  0.0778
 6955SOL    HW123244   7.678   6.806   9.427  0.8573  1.2605 -1.4897
 6955SOL    HW223245   7.552   6.888   9.404  0.1233  0.6249  0.0819
 6956SOL     OW23246   2.102   0.064   0.480 -0.2870 -0.0154  0.2841
 6956SOL    HW123247   2.165   0.007   0.524 -0.1841  0.6079  0.9670
 6956SOL    HW223248   2.069   0.012   0.407 -1.0087 -1.3660  1.5171
 6957SOL     OW23249   3.710   0.122   9.770 -0.3860  0.0315 -0.5477
 6957SOL    HW123250   3.660   0.147   9.691  0.4602  1.6850 -0.6050
 6957SOL    HW223251   3.796   0.162   9.757  0.0694 -0.4683  0.8053
 6958SOL     OW23252   9.427   3.570   2.578  0.5519  0.2676  0.2527
 6958SOL    HW123253   9.479   3.649   2.592  0.7658  0.2996 -0.6138
 6958SOL    HW223254   9.454   3.539   2.491 -0.2562 -0.1896  0.1475
 6959SOL     OW23255   8.880   7.351   2.975 -0.1419  0.0150  0.1076
 6959SOL    HW123256   8.953   7.352   3.036 -0.7069 -0.2974  0.8024
 6959SOL    HW223257   8.881   7.263   2.938  0.9449  0.5696 -1.2759
 6960SOL     OW23258   7.739   0.502   9.060  0.0063 -0.2252 -0.5960
 6960SOL    HW123259   7.758   0.523   9.151 -1.0570  1.2904 -0.6877
 6960SOL    HW223260   7.811   0.445   9.033  0.5115 -0.4312  1.0842
 6961SOL     OW23261   3.265   1.574   9.503  0.2600  0.0824 -0.8180
 6961SOL    HW123262   3.265   1.567   9.408 -2.4134 -2.0223 -0.7770
 6961SOL    HW223263   3.350   1.537   9.529  0.9664  0.5510 -2.3434
 6962SOL     OW23264   3.794   7.829  10.336 -0.2117  0.6793  0.9487
 6962SOL    HW123265   3.701   7.844  10.321 -0.1475  1.2795  1.1131
 6962SOL    HW223266   3.822   7.904  10.388  0.4896  0.8070  0.4098
 6963SOL     OW23267   0.476  10.654   3.914 -0.0280  0.3620 -0.3746
 6963SOL    HW123268   0.417  10.651   3.990  0.3762  1.6726  0.0192
 6963SOL    HW223269   0.523  10.570   3.917 -1.8418 -0.7113 -0.7068
 6964SOL     OW23270   9.103   7.980   2.038 -0.0056  0.0903  0.0308
 6964SOL    HW123271   9.078   8.045   2.104 -0.2314  2.6275 -2.3953
 6964SOL    HW223272   9.125   8.031   1.960 -0.9231 -2.7620 -2.3023
 6965SOL     OW23273   0.425   2.898   0.040  0.5438 -0.0525 -0.9184
 6965SOL    HW123274   0.373   2.913   0.119  0.8983  0.7526 -0.8304
 6965SOL    HW223275   0.363   2.858  -0.021 -0.0438  0.4038 -0.6367
 6966SOL     OW23276  10.143  10.135   5.560 -0.0134 -0.6185  0.3559
 6966SOL    HW123277  10.218  10.081   5.585  0.7987  1.0532  1.7931
 6966SOL    HW223278  10.100  10.086   5.489  2.1841 -1.8130 -0.2392
 6967SOL     OW23279   9.021   2.530   5.677  0.0219  0.1664 -0.7491
 6967SOL    HW123280   8.939   2.579   5.685 -0.2878 -0.3473 -0.7194
 6967SOL    HW223281   9.079   2.588   5.629 -0.3312  0.5763 -0.6859
 6968SOL     OW23282   5.165   0.580   9.194  0.1915  0.0556 -0.0291
 6968SOL    HW123283   5.186   0.546   9.281  0.0257 -1.5049 -0.5581
 6968SOL    HW223284   5.243   0.628   9.168  1.2424 -1.5679  0.0018
 6969SOL     OW23285   0.956   2.342   1.443 -0.3482 -0.3970  0.1962
 6969SOL    HW123286   0.944   2.358   1.536  1.0895  1.0404  0.1817
 6969SOL    HW223287   0.932   2.425   1.401 -2.0386 -1.3475 -0.8537
 6970SOL     OW23288   6.847   8.484   9.778 -0.5551  0.2746 -0.3258
 6970SOL    HW123289   6.933   8.482   9.735 -0.2666 -0.8499  0.2387
 6970SOL    HW223290   6.859   8.541   9.854 -0.8082  1.5184 -1.1989
 6971SOL     OW23291   0.224   0.948   5.080  0.4340  0.2141 -0.4985
 6971SOL    HW123292   0.199   0.956   4.988 -0.0313  1.0037 -0.3097
 6971SOL    HW223293   0.320   0.947   5.078  0.4392  0.9337 -0.9468
 6972SOL     OW23294   2.922  10.237   0.713  0.1058 -0.5134 -0.0031
 6972SOL    HW123295   2.976  10.201   0.783 -2.0158  0.1445  2.1263
 6972SOL    HW223296   2.882  10.160   0.671  0.6952 -0.8847  0.1107
 6973SOL     OW23297   4.705   9.804   1.590 -0.1603 -0.4054  0.7546
 6973SOL    HW123298   4.759   9.847   1.523 -2.4745 -0.5134 -1.2924
 6973SOL    HW223299   4.769   9.772   1.654  2.2220 -0.6406 -1.5593
 6974SOL     OW23300   7.605   9.023   5.716 -0.1327  0.2135 -0.5580
 6974SOL    HW123301   7.636   9.074   5.790 -1.9198 -0.3290  0.6226
 6974SOL    HW223302   7.684   9.004   5.665  0.8166  2.5937 -0.0835
 6975SOL     OW23303   0.887   9.287   4.196  0.0498  0.5448  0.0194
 6975SOL    HW123304   0.889   9.378   4.224  1.3806  0.3023  0.7786
 6975SOL    HW223305   0.960   9.278   4.135 -0.0351 -0.0252 -0.0035
 6976SOL     OW23306   2.839   2.701   3.086 -0.2443  0.3608 -0.6241
 6976SOL    HW123307   2.809   2.610   3.093 -1.1414  0.4736 -2.3266
 6976SOL    HW223308   2.760   2.750   3.066 -0.0525  1.8158  1.8039
 6977SOL     OW23309   7.992   0.694   3.561 -0.0649  0.2313  0.4370
 6977SOL    HW123310   8.065   0.721   3.506 -0.5127 -0.2399 -0.4231
 6977SOL    HW223311   7.924   0.760   3.546  0.4345  1.0949  1.8246
 6978SOL     OW23312   4.653   3.118   1.354  0.4160 -1.1165  0.3679
 6978SOL    HW123313   4.706   3.183   1.307  0.0633 -1.6697 -0.8324
 6978SOL    HW223314   4.641   3.156   1.441  0.1403  0.4796 -0.3245
 6979SOL     OW23315   7.317   8.423   3.700 -0.1088  0.1576  0.2980
 6979SOL    HW123316   7.288   8.501   3.748 -0.2648  1.3764 -1.6528
 6979SOL    HW223317   7.241   8.364   3.703 -0.1584  0.2508  1.3977
 6980SOL     OW23318   1.888   8.385   4.785  0.4658  0.6505  0.3503
 6980SOL    HW123319   1.952   8.316   4.803  0.5633  0.6118 -0.1386
 6980SOL    HW223320   1.843   8.397   4.868  0.5331  0.0808  0.4783
 6981SOL     OW23321   6.488   1.622   5.474  0.4145  0.3005  0.0700
 6981SOL    HW123322   6.555   1.669   5.524  1.3292 -1.1030  0.1870
 6981SOL    HW223323   6.537   1.564   5.416 -0.6722  0.6375 -1.2319
 6982SOL     OW23324  10.527   3.609   9.939 -0.5434 -0.3625  0.1900
 6982SOL    HW123325  10.610   3.562   9.953  0.0477  1.1413  2.0885
 6982SOL    HW223326  10.460   3.547   9.965  0.1458 -0.6899  1.2447
 6983SOL     OW23327   3.017   5.837   2.879  0.2624  0.0567 -0.0684
 6983SOL    HW123328   3.000   5.818   2.787  0.3965 -0.1567 -0.0512
 6983SOL    HW223329   2.972   5.768   2.926 -1.2920  1.1544  0.1175
 6984SOL     OW23330   0.197   9.777   7.038  0.4724 -0.0031  0.1563
 6984SOL    HW123331   0.206   9.860   6.991  0.1603  0.0122  0.1271
 6984SOL    HW223332   0.254   9.788   7.115  2.4757 -0.7155 -1.1393
 6985SOL     OW23333   4.570   6.174   8.525  0.0072  0.1330 -0.6402
 6985SOL    HW123334   4.663   6.186   8.509 -0.1210 -1.1641 -2.7068
 6985SOL    HW223335   4.549   6.089   8.485 -1.4653 -1.1794  2.4863
 6986SOL     OW23336   2.526   0.275   1.813 -0.6039 -0.2992 -0.3343
 6986SOL    HW123337   2.485   0.330   1.746 -0.7610 -0.0543 -0.0344
 6986SOL    HW223338   2.531   0.188   1.772 -0.5868 -0.1251 -0.7116
 6987SOL     OW23339  10.758   4.900   7.877 -0.2384  0.0903  0.5430
 6987SOL    HW123340  10.806   4.863   7.802 -0.9736 -0.9628  0.5654
 6987SOL    HW223341  10.815   4.883   7.952 -0.4677 -0.8402  0.5188
 6988SOL     OW23342   8.777   9.223   5.278 -0.4497  0.6246 -0.0211
 6988SOL    HW123343   8.792   9.225   5.184 -2.1124 -0.0132 -0.3404
 6988SOL    HW223344   8.767   9.131   5.300 -1.8835  0.8494  0.4209
 6989SOL     OW23345   4.364   7.067   9.614 -0.1569  0.5202  0.0000
 6989SOL    HW123346   4.380   6.975   9.596  0.6950  0.7870 -0.6656
 6989SOL    HW223347   4.269   7.074   9.623 -0.3478 -0.2088 -1.2137
 6990SOL     OW23348   2.045   1.840   1.809 -0.1093 -0.0789  0.6251
 6990SOL    HW123349   2.061   1.810   1.898 -1.7101 -0.9996  0.6379
 6990SOL    HW223350   1.964   1.890   1.815 -1.7866 -2.4288 -0.6921
 6991SOL     OW23351   7.395   3.402   9.971  0.4399  0.2681  0.0177
 6991SOL    HW123352   7.342   3.482   9.978 -0.8364 -0.4392 -1.0311
 6991SOL    HW223353   7.437   3.394  10.056  0.4665  1.9652  0.2100
 6992SOL     OW23354   2.181  10.048   2.077 -0.2031  0.2882 -0.0777
 6992SOL    HW123355   2.140  10.075   2.159 -3.3451  1.0592 -1.7256
 6992SOL    HW223356   2.218   9.962   2.096  0.4530  1.0636  2.4828
 6993SOL     OW23357   2.416   9.789   2.179 -0.1622 -0.0683 -0.2032
 6993SOL    HW123358   2.509   9.810   2.186 -0.1957 -0.6018  2.7930
 6993SOL    HW223359   2.392   9.754   2.264 -2.4924 -2.6757 -1.7696
 6994SOL     OW23360   6.862   5.968   3.198  0.3765  0.2777  0.0240
 6994SOL    HW123361   6.926   5.927   3.256 -0.3894 -2.2637 -0.7804
 6994SOL    HW223362   6.778   5.954   3.242 -0.2877 -2.1656 -1.7888
 6995SOL     OW23363   6.026   8.054   2.459  0.1448  0.1132 -0.0670
 6995SOL    HW123364   6.114   8.084   2.436  0.0311  1.6813  1.3385
 6995SOL    HW223365   6.039   7.998   2.536 -0.0595  0.0946 -0.0443
 6996SOL     OW23366  10.665   2.454   1.187  0.2635 -0.1479 -0.1758
 6996SOL    HW123367  10.600   2.525   1.183 -2.1622 -2.1534  1.0779
 6996SOL    HW223368  10.727   2.483   1.254  0.6681  1.7348 -1.2687
 6997SOL     OW23369   7.393   4.472   5.495  0.1713 -0.0761  0.0424
 6997SOL    HW123370   7.468   4.479   5.436  0.1023 -1.4579 -0.2565
 6997SOL    HW223371   7.380   4.377   5.505 -1.1241  0.1422  0.6060
 6998SOL     OW23372   7.472   5.167   9.819 -0.0277 -0.3646  0.3105
 6998SOL    HW123373   7.553   5.123   9.844  3.0240  3.2342 -2.2229
 6998SOL    HW223374   7.451   5.132   9.732  1.9880  2.2095 -1.3751
 6999SOL     OW23375   4.091   4.496   4.016  0.0572  0.1605 -0.3739
 6999SOL    HW123376   4.037   4.545   4.078 -1.0904  0.0376 -1.2458
 6999SOL    HW223377   4.179   4.501   4.052 -0.3028  1.5190  0.3844
 7000SOL     OW23378   7.672   5.247   0.618  0.0209 -0.2083  0.1272
 7000SOL    HW123379   7.595   5.303   0.615  0.1706 -0.0369 -0.8307
 7000SOL    HW223380   7.638   5.158   0.620 -0.2122 -0.1198  0.0796
 7001SOL     OW23381   7.894   8.028   3.728 -0.1007  0.7765  0.3279
 7001SOL    HW123382   7.842   8.107   3.743 -2.0980 -0.8331  2.4814
 7001SOL    HW223383   7.954   8.024   3.802  1.3878  1.2165 -0.7877
 7002SOL     OW23384   3.532   2.425   6.505  0.2861  0.2030  0.1453
 7002SOL    HW123385   3.591   2.374   6.560  0.0179  1.6756  1.9163
 7002SOL    HW223386   3.566   2.515   6.511 -1.1680  0.8015 -0.1115
 7003SOL     OW23387   3.085   3.777  10.555  0.3519  0.0338 -0.1311
 7003SOL    HW123388   3.070   3.865  10.589 -1.8298 -0.8339  1.3708
 7003SOL    HW223389   3.111   3.726  10.632 -1.4044 -1.2573 -0.3432
 7004SOL     OW23390   5.978   9.441   0.471 -0.2986 -0.7562  0.9548
 7004SOL    HW123391   5.909   9.377   0.485 -0.4896 -0.5223  1.1012
 7004SOL    HW223392   5.949   9.492   0.395  1.3879 -2.9093 -1.2944
 7005SOL     OW23393   4.750   9.156   4.214  0.1665  0.5692 -0.1440
 7005SOL    HW123394   4.726   9.123   4.127 -1.7795 -0.3654  0.6806
 7005SOL    HW223395   4.838   9.121   4.229  0.1521 -0.0554 -1.3548
 7006SOL     OW23396   0.404   4.429  10.392  0.0569  0.1787 -0.5893
 7006SOL    HW123397   0.339   4.448  10.459 -1.5186 -2.0220 -1.3809
 7006SOL    HW223398   0.356   4.385  10.322  2.1594 -0.3870 -1.7999
 7007SOL     OW23399   3.461   7.536   8.035 -0.1631  0.5995 -0.1714
 7007SOL    HW123400   3.384   7.482   8.051  0.4100 -1.0858 -2.6032
 7007SOL    HW223401   3.530   7.474   8.012  1.3118  2.2177 -0.3176
 7008SOL     OW23402   1.618  10.543   4.266  0.1300  0.6171  0.0519
 7008SOL    HW123403   1.529  10.512   4.247  0.0705  1.6445 -1.5014
 7008SOL    HW223404   1.668  10.463   4.282 -0.4580 -0.2035 -1.8876
 7009SOL     OW23405   0.078   0.561   2.843  0.4071 -0.3132 -0.0803
 7009SOL    HW123406  -0.012   0.531   2.834  0.8359 -1.6884 -0.1201
 7009SOL    HW223407   0.083   0.600   2.930 -0.3453  0.2595 -0.2886
 7010SOL     OW23408   8.669   0.063   1.682 -0.5690 -0.0574  0.1826
 7010SOL    HW123409   8.594   0.075   1.740 -0.0762  0.9325  0.6451
 7010SOL    HW223410   8.728   0.005   1.729  0.1439  1.2920  1.0216
 7011SOL     OW23411  10.446   0.320   1.053  0.6670 -0.0610 -0.2368
 7011SOL    HW123412  10.445   0.292   1.144  0.7485 -0.3562 -0.3255
 7011SOL    HW223413  10.470   0.412   1.056 -0.9678  0.3896  0.1628
 7012SOL     OW23414   5.599   0.997   0.393 -0.0945 -0.0871 -0.2783
 7012SOL    HW123415   5.641   1.055   0.328  0.6850 -0.2843  0.0347
 7012SOL    HW223416   5.505   1.011   0.381  0.0787  1.6886  0.1928
 7013SOL     OW23417   3.946   1.457   8.050 -0.6938 -0.5786 -0.1366
 7013SOL    HW123418   3.977   1.374   8.015 -0.0655 -0.0886 -0.7692
 7013SOL    HW223419   3.854   1.462   8.024 -1.3423 -2.0006  1.6798
 7014SOL     OW23420   3.276   2.972  10.103 -0.3455 -0.0288 -0.4610
 7014SOL    HW123421   3.257   2.884  10.071 -1.0130 -0.2888  0.5885
 7014SOL    HW223422   3.193   3.020  10.091 -0.9340 -0.4124  1.7198
 7015SOL     OW23423   7.856   9.571   1.169  0.5656 -0.0147 -0.2022
 7015SOL    HW123424   7.837   9.480   1.193  2.8904 -0.3361  0.6404
 7015SOL    HW223425   7.839   9.621   1.249  0.7785  0.0696 -0.2095
 7016SOL     OW23426  10.122   9.738   6.797 -0.1301  0.3898  0.7125
 7016SOL    HW123427  10.197   9.719   6.854  0.8112 -0.1210 -0.6506
 7016SOL    HW223428  10.149   9.708   6.710 -1.5241  1.1544 -0.0269
 7017SOL     OW23429   3.695   4.519   6.653  0.0429 -0.7003 -0.0411
 7017SOL    HW123430   3.640   4.466   6.711 -0.2069 -1.2154 -0.7324
 7017SOL    HW223431   3.761   4.458   6.620 -0.3655 -0.6526 -1.0004
 7018SOL     OW23432   0.832   7.873   3.425  0.2676 -0.3155  0.3779
 7018SOL    HW123433   0.811   7.873   3.331  1.8208 -0.3147 -0.0017
 7018SOL    HW223434   0.749   7.854   3.468 -0.9269  1.5492 -0.8952
 7019SOL     OW23435   9.574   9.217   1.304 -0.2215 -0.1421 -0.5007
 7019SOL    HW123436   9.523   9.297   1.318 -1.0533 -0.6058 -0.8005
 7019SOL    HW223437   9.508   9.147   1.299  0.4673 -0.7997 -0.5902
 7020SOL     OW23438   0.473   6.971   5.441  0.5569 -0.3310  0.0632
 7020SOL    HW123439   0.450   7.019   5.362  3.7752  0.7254 -0.4071
 7020SOL    HW223440   0.476   7.038   5.510  0.9575 -0.6240  0.3383
 7021SOL     OW23441   7.637   9.859   6.008 -0.3977  0.1315  0.2960
 7021SOL    HW123442   7.685   9.931   5.969  0.0289 -0.6852 -0.7251
 7021SOL    HW223443   7.583   9.823   5.937  0.3740 -1.3576  0.4173
 7022SOL     OW23444   2.014   9.677   1.276  0.3974  0.0289  0.9524
 7022SOL    HW123445   2.021   9.768   1.247  0.9491 -0.0597  0.7966
 7022SOL    HW223446   1.920   9.659   1.278  0.0358  1.5471  3.9123
 7023SOL     OW23447   2.519   7.482   0.810 -0.3757  0.0336 -0.2969
 7023SOL    HW123448   2.468   7.403   0.829  0.1894 -0.3890 -0.5256
 7023SOL    HW223449   2.456   7.542   0.770 -0.7684 -0.3626 -0.2804
 7024SOL     OW23450   8.538   4.556   8.269 -0.0078 -0.3302 -0.5512
 7024SOL    HW123451   8.495   4.491   8.214 -1.9884  0.0626  0.4574
 7024SOL    HW223452   8.524   4.639   8.224 -1.8795  0.0310  0.6158
 7025SOL     OW23453   4.739   1.282   0.393  0.2663 -0.7743 -0.4272
 7025SOL    HW123454   4.712   1.219   0.326  0.6093  0.2460 -1.5544
 7025SOL    HW223455   4.797   1.343   0.347 -1.2512  1.2872  0.2255
 7026SOL     OW23456   3.341   1.118   1.435  0.0054  0.1247 -0.3853
 7026SOL    HW123457   3.332   1.138   1.342 -0.7608  0.0317 -0.3388
 7026SOL    HW223458   3.431   1.143   1.457  0.6608 -1.1980 -1.4748
 7027SOL     OW23459   0.098   6.688   8.946  0.4507 -0.4062 -0.5276
 7027SOL    HW123460   0.080   6.691   8.852  0.2784  0.8949 -0.4790
 7027SOL    HW223461   0.046   6.614   8.979  1.3365 -1.5386 -1.6034
 7028SOL     OW23462   8.846   9.863   6.225 -0.0410  0.2511  0.0018
 7028SOL    HW123463   8.892   9.946   6.214  2.0257 -0.7958  0.3216
 7028SOL    HW223464   8.809   9.868   6.314  0.7752  0.4897  0.3348
 7029SOL     OW23465   9.384   4.014   4.156 -0.1669  0.2965  0.1627
 7029SOL    HW123466   9.433   3.972   4.227  0.9064 -0.3635 -0.9387
 7029SOL    HW223467   9.451   4.056   4.102 -1.0073  1.1509 -0.2362
 7030SOL     OW23468   6.829   4.053  10.741 -0.2702 -0.1672 -0.4371
 7030SOL    HW123469   6.769   4.088  10.807  1.7504  0.4568  1.1955
 7030SOL    HW223470   6.846   4.127  10.682  1.3214  0.6869  0.9982
 7031SOL     OW23471   5.123   2.377   3.452 -0.5066 -0.0367 -0.2305
 7031SOL    HW123472   5.129   2.283   3.435  0.7087 -0.1454  0.7098
 7031SOL    HW223473   5.146   2.418   3.368  0.3855 -0.5715 -0.2546
 7032SOL     OW23474   9.446   5.072   4.467  0.3988  0.3723 -0.5868
 7032SOL    HW123475   9.429   4.980   4.447 -1.1425  0.8108 -1.3852
 7032SOL    HW223476   9.416   5.120   4.390 -1.0629  1.7256  0.7568
 7033SOL     OW23477   1.121   7.443   3.243 -0.0445 -0.3781 -0.3710
 7033SOL    HW123478   1.079   7.520   3.279  0.4394 -0.0445 -0.5134
 7033SOL    HW223479   1.086   7.436   3.154 -1.0762 -1.0794  0.0732
 7034SOL     OW23480   5.383   8.906   6.638 -0.2982 -0.0592  0.0919
 7034SOL    HW123481   5.288   8.913   6.651 -0.3771  0.2753 -0.6503
 7034SOL    HW223482   5.394   8.830   6.581 -0.2007  0.5641 -0.7246
 7035SOL     OW23483   0.526  10.596   1.263 -0.3928  0.2684 -0.7750
 7035SOL    HW123484   0.514  10.691   1.267 -0.3647  0.2705 -0.7238
 7035SOL    HW223485   0.452  10.565   1.210 -1.1308  0.1878  0.2657
 7036SOL     OW23486   9.105   0.826   2.156  0.5873 -0.3747 -0.0777
 7036SOL    HW123487   9.168   0.812   2.226  0.1235 -0.8588  0.2477
 7036SOL    HW223488   9.104   0.921   2.143  1.2566 -0.3517  0.0235
 7037SOL     OW23489   7.233   0.111   4.298 -0.5241 -0.6341  0.1094
 7037SOL    HW123490   7.282   0.032   4.274 -1.3906 -0.7806 -1.2788
 7037SOL    HW223491   7.296   0.182   4.290  0.4860 -1.2204  2.1218
 7038SOL     OW23492   0.420   8.357   3.292  0.2296  0.1410 -0.2089
 7038SOL    HW123493   0.472   8.347   3.212 -0.4119 -2.0082 -0.4354
 7038SOL    HW223494   0.439   8.446   3.322  0.8684  0.8469 -2.4676
 7039SOL     OW23495   1.465  10.194  10.754 -0.2087  0.3156 -0.5973
 7039SOL    HW123496   1.372  10.216  10.747 -0.0086  1.1650 -0.6939
 7039SOL    HW223497   1.498  10.203  10.664  0.0747  0.5495 -0.4726
 7040SOL     OW23498   1.032   2.932   5.834  0.1940  0.1579 -0.1626
 7040SOL    HW123499   1.098   2.920   5.766  1.0679  1.4612  0.4143
 7040SOL    HW223500   1.057   2.872   5.903  0.3686  0.1329 -0.2467
 7041SOL     OW23501   1.806   9.790   1.412  0.1628 -0.0920 -0.5474
 7041SOL    HW123502   1.796   9.867   1.355  3.0305 -1.0700 -2.5560
 7041SOL    HW223503   1.863   9.820   1.482 -0.2975  0.0999 -0.2491
 7042SOL     OW23504   9.952   8.392  10.629  0.9874  0.1835  0.0124
 7042SOL    HW123505   9.927   8.301  10.615  3.0793 -0.6425  1.3128
 7042SOL    HW223506   9.918   8.438  10.552  0.0382 -1.6984 -0.7484
 7043SOL     OW23507   4.757   7.676   1.026 -0.0428 -0.3036 -0.3892
 7043SOL    HW123508   4.789   7.745   1.085 -0.6966 -1.0152  0.8352
 7043SOL    HW223509   4.834   7.624   1.005 -0.0127 -0.7922  0.8784
 7044SOL     OW23510   5.124   0.325   0.696  0.3219  0.2799  0.3053
 7044SOL    HW123511   5.160   0.378   0.625  1.0599 -0.7946 -0.1529
 7044SOL    HW223512   5.066   0.263   0.651  0.4879 -0.1472  0.6732
 7045SOL     OW23513   7.546   7.788   8.723  0.5092 -0.0704 -0.6486
 7045SOL    HW123514   7.537   7.707   8.773  0.8360  0.5624  0.4813
 7045SOL    HW223515   7.503   7.770   8.639 -0.1035 -1.1550 -0.1230
 7046SOL     OW23516  10.728   9.484   1.005 -0.1590  0.3783 -0.2933
 7046SOL    HW123517  10.759   9.395   1.021 -1.1568  0.2082  0.8470
 7046SOL    HW223518  10.635   9.474   0.984  0.1633  0.9937 -2.1376
 7047SOL     OW23519   8.251   6.349   7.589 -0.5789 -0.5427 -0.0035
 7047SOL    HW123520   8.262   6.374   7.497 -1.3375  0.4759  0.1652
 7047SOL    HW223521   8.339   6.325   7.618 -0.0310  0.6924 -0.5601
 7048SOL     OW23522   4.135   5.123   2.868 -0.1098 -0.4695  0.1703
 7048SOL    HW123523   4.156   5.212   2.839  1.7714 -1.4500 -1.8582
 7048SOL    HW223524   4.168   5.118   2.958  0.3979  0.6773  0.0619
 7049SOL     OW23525   7.498  10.276   5.401 -0.3353 -0.7361  0.1105
 7049SOL    HW123526   7.406  10.303   5.407 -0.5927 -1.7861  2.1782
 7049SOL    HW223527   7.510  10.219   5.478  2.1162 -0.4018  0.0382
 7050SOL     OW23528   7.041   7.918   1.851 -0.8343  0.1902  0.0431
 7050SOL    HW123529   7.052   8.006   1.814  0.8387  0.2816  0.6671
 7050SOL    HW223530   7.014   7.864   1.777 -0.5610  0.9779 -0.6509
 7051SOL     OW23531  10.290   0.411   2.194  0.1586  0.2369 -0.1603
 7051SOL    HW123532  10.195   0.404   2.205  0.0298  1.5471 -0.2080
 7051SOL    HW223533  10.326   0.397   2.281  0.0084 -1.1791 -0.3007
 7052SOL     OW23534  10.563  10.189   5.668  0.1486 -0.1247  0.5289
 7052SOL    HW123535  10.622  10.125   5.708  0.7453  0.5535  0.7460
 7052SOL    HW223536  10.618  10.241   5.610  0.4058  2.2759  2.7242
 7053SOL     OW23537   1.033   7.715   6.697  0.1049  0.0118 -0.0747
 7053SOL    HW123538   1.079   7.640   6.735  0.4814 -0.3421 -1.1620
 7053SOL    HW223539   1.035   7.781   6.765  0.1338 -0.8270  0.7606
 7054SOL     OW23540  10.530   3.498  10.667 -0.1647  0.3368  0.7321
 7054SOL    HW123541  10.457   3.439  10.690  0.0475 -0.2808 -0.1221
 7054SOL    HW223542  10.565   3.526  10.751  0.6765 -1.9534  1.2221
 7055SOL     OW23543   8.320   3.800   8.628  0.1237  0.2886 -0.3420
 7055SOL    HW123544   8.364   3.884   8.643  1.4496  0.2158 -3.2346
 7055SOL    HW223545   8.278   3.810   8.543 -2.4916 -0.9587  0.6761
 7056SOL     OW23546   8.931  10.198   2.194  0.2418 -0.9441  0.7666
 7056SOL    HW123547   8.879  10.193   2.274  0.6907  2.2707  1.3994
 7056SOL    HW223548   9.022  10.202   2.224  0.3964  0.7194  0.1984
 7057SOL     OW23549   2.257   3.406   7.914  0.5625 -0.6113 -0.0761
 7057SOL    HW123550   2.199   3.463   7.965  0.8983 -0.5612  0.2579
 7057SOL    HW223551   2.309   3.360   7.980  2.0896  0.5908 -0.3844
 7058SOL     OW23552   5.727   6.494   1.718 -0.8292  0.3327  0.3078
 7058SOL    HW123553   5.639   6.523   1.743 -0.9267  0.9119 -0.6782
 7058SOL    HW223554   5.758   6.444   1.794 -2.1433 -0.1770  0.5242
 7059SOL     OW23555   3.462  10.661   7.391 -0.2975  0.1443 -0.1971
 7059SOL    HW123556   3.485  10.745   7.351 -0.7862  0.9279  1.1166
 7059SOL    HW223557   3.450  10.602   7.317 -0.1714  1.2822 -1.1551
 7060SOL     OW23558   5.109   5.384   8.664  1.1128  0.7231 -0.3094
 7060SOL    HW123559   5.067   5.300   8.679  1.6440  0.5130  0.0511
 7060SOL    HW223560   5.110   5.394   8.569  1.4073  0.1330 -0.3709
 7061SOL     OW23561   3.119   5.970   3.089 -0.0320  0.0280  0.1822
 7061SOL    HW123562   3.098   6.060   3.062  3.0107  0.2455 -2.0427
 7061SOL    HW223563   3.087   5.916   3.016  0.1822 -0.4366  0.4304
 7062SOL     OW23564   2.094   2.978   3.505 -0.2220 -0.2262 -0.0685
 7062SOL    HW123565   2.151   2.978   3.429  0.1135  1.1260  0.1653
 7062SOL    HW223566   2.050   2.892   3.502  0.5860 -0.6220 -1.1566
 7063SOL     OW23567   8.710   1.976   1.530 -0.4070  0.2317  0.5957
 7063SOL    HW123568   8.618   1.964   1.505 -0.8957  0.3587  2.2148
 7063SOL    HW223569   8.722   1.919   1.606  0.9974 -0.1115  0.1522
 7064SOL     OW23570   7.753   2.254   5.176 -0.0911 -0.1556 -0.5185
 7064SOL    HW123571   7.771   2.169   5.216 -1.7164 -0.9945 -1.4950
 7064SOL    HW223572   7.738   2.235   5.084  1.0371  1.4210 -1.0682
 7065SOL     OW23573   0.349   1.641   2.727 -0.0010  0.3077  0.2771
 7065SOL    HW123574   0.314   1.683   2.806 -0.9674  0.6283 -0.3115
 7065SOL    HW223575   0.310   1.554   2.727  0.3293  0.1559  0.3611
 7066SOL     OW23576   0.031   3.345   3.506  0.1218  0.2664 -0.2350
 7066SOL    HW123577   0.033   3.435   3.540 -1.4295 -0.2056  1.2278
 7066SOL    HW223578  -0.055   3.337   3.465  0.2340 -0.5600 -0.3189
 7067SOL     OW23579   3.682   5.909   5.411 -0.2423  1.0101 -0.1518
 7067SOL    HW123580   3.682   5.905   5.507 -1.3684 -2.0099 -0.1762
 7067SOL    HW223581   3.594   5.940   5.389  0.0529  1.8118 -0.2508
 7068SOL     OW23582   6.410   3.417   5.694 -0.2258 -0.0508 -0.1724
 7068SOL    HW123583   6.348   3.345   5.690 -0.1248 -0.4974  3.1548
 7068SOL    HW223584   6.405   3.448   5.785 -1.2613  5.1165 -1.6332
 7069SOL     OW23585   5.058   3.404   8.434 -0.3480 -0.2618 -0.6070
 7069SOL    HW123586   4.987   3.434   8.377 -0.7028  0.4253  0.1871
 7069SOL    HW223587   5.053   3.460   8.511  0.6803 -0.6058 -0.2747
 7070SOL     OW23588  10.615   4.913   4.487  0.4302  0.4061 -0.2776
 7070SOL    HW123589  10.532   4.909   4.440 -0.9603 -1.4449  2.1249
 7070SOL    HW223590  10.605   4.988   4.547  0.1227 -0.2857  0.5632
 7071SOL     OW23591   1.708   0.690   0.602 -0.0361 -0.0112 -0.2165
 7071SOL    HW123592   1.743   0.649   0.681  0.1401 -0.0357 -0.3069
 7071SOL    HW223593   1.682   0.616   0.546  0.0750  0.0038 -0.2872
 7072SOL     OW23594   3.186   6.270   2.602 -0.3885  0.6148 -0.1963
 7072SOL    HW123595   3.132   6.282   2.524  0.6599 -0.6669 -1.1713
 7072SOL    HW223596   3.131   6.219   2.662 -0.0212 -1.5004 -1.5470
 7073SOL     OW23597   4.594   4.882   3.024  0.1616  0.2691  0.4005
 7073SOL    HW123598   4.498   4.888   3.025  0.1176 -0.2288 -0.1073
 7073SOL    HW223599   4.619   4.920   2.940  0.4330  0.6873  0.6711
 7074SOL     OW23600   6.295   8.808   1.046 -0.0079  0.0030  0.0260
 7074SOL    HW123601   6.389   8.798   1.065 -0.1881 -1.3731  0.3225
 7074SOL    HW223602   6.290   8.880   0.984  1.3488 -0.5650 -0.7753
 7075SOL     OW23603   1.258   0.174   9.867  0.2548  0.4770 -0.7300
 7075SOL    HW123604   1.214   0.109   9.811 -0.4442  1.4280 -1.3306
 7075SOL    HW223605   1.318   0.123   9.921 -2.1292 -1.0112  0.6871
 7076SOL     OW23606   7.256   0.904   6.193 -0.1867  0.6195  0.9883
 7076SOL    HW123607   7.191   0.899   6.122  0.4962 -1.0604  0.4440
 7076SOL    HW223608   7.203   0.901   6.273 -0.8324 -0.0023  0.5531
 7077SOL     OW23609   5.915   0.477  10.692 -0.1503 -0.0248 -0.1325
 7077SOL    HW123610   5.855   0.460  10.619 -0.0068  0.8899 -0.4847
 7077SOL    HW223611   5.998   0.500  10.649  0.0419  0.1532  0.3287
 7078SOL     OW23612   2.274   3.845   7.735  0.0127  0.5438  0.4668
 7078SOL    HW123613   2.280   3.796   7.817 -0.1818  0.5986  0.5153
 7078SOL    HW223614   2.320   3.927   7.752  0.2979  0.3989  0.4004
 7079SOL     OW23615   5.922   3.050   8.232  0.0750  0.1493 -0.1432
 7079SOL    HW123616   6.013   3.022   8.222 -0.6342 -1.6841 -2.0240
 7079SOL    HW223617   5.875   2.972   8.262 -0.9669  0.9987  0.5368
 7080SOL     OW23618   2.449   7.055   0.441  0.3359  0.2670 -0.2078
 7080SOL    HW123619   2.471   7.142   0.474  0.1783  0.4519 -0.5947
 7080SOL    HW223620   2.531   7.022   0.404  0.2850  0.4362 -0.4755
 7081SOL     OW23621   6.801   9.414   8.246 -0.3831  0.5791 -0.2963
 7081SOL    HW123622   6.780   9.504   8.274  1.4594  1.2681 -0.9588
 7081SOL    HW223623   6.896   9.416   8.231 -0.3872 -1.3819 -0.7479
 7082SOL     OW23624   7.036   9.858   7.083  0.4536  0.5095 -0.4435
 7082SOL    HW123625   7.044   9.776   7.132 -1.8313  1.9882  2.7338
 7082SOL    HW223626   6.944   9.862   7.058  0.3557  2.4000  0.1019
 7083SOL     OW23627   3.117   9.580   7.627  0.4161 -0.5320 -0.1674
 7083SOL    HW123628   3.099   9.487   7.609 -1.5808 -0.1711 -0.1841
 7083SOL    HW223629   3.042   9.627   7.591  1.0520  1.0568  0.4753
 7084SOL     OW23630   0.368   5.596   4.263  0.0559  0.3079  0.1252
 7084SOL    HW123631   0.388   5.502   4.270 -0.9269  0.0066 -0.7881
 7084SOL    HW223632   0.297   5.610   4.326  0.5920  0.5780  0.6814
 7085SOL     OW23633   4.477   2.059   4.654 -0.3669  0.3610  0.4138
 7085SOL    HW123634   4.549   2.026   4.708  0.5224  0.2506 -0.8017
 7085SOL    HW223635   4.408   1.993   4.663  0.5533 -0.7159 -0.2274
 7086SOL     OW23636   3.741   4.809   7.757  0.0034 -0.1925  0.1795
 7086SOL    HW123637   3.764   4.883   7.702 -0.3501 -0.1477  0.0890
 7086SOL    HW223638   3.825   4.772   7.785  0.1800  0.4089  0.4554
 7087SOL     OW23639   6.827   4.992   0.226 -0.2110 -0.2488  0.0483
 7087SOL    HW123640   6.891   4.929   0.191  1.1357  1.2201 -0.2329
 7087SOL    HW223641   6.742   4.955   0.202  0.5339 -1.9333 -0.1399
 7088SOL     OW23642   2.628   0.037   1.572 -0.4683  0.5392 -0.5421
 7088SOL    HW123643   2.695   0.104   1.585 -0.4395  0.3230  0.4539
 7088SOL    HW223644   2.553   0.085   1.536  0.6034  0.5983 -2.8769
 7089SOL     OW23645   2.356   6.317   8.673 -0.1665  0.1626  0.1577
 7089SOL    HW123646   2.363   6.253   8.743 -1.9043 -1.0372 -0.6908
 7089SOL    HW223647   2.401   6.395   8.707 -0.8431 -0.4029  2.5415
 7090SOL     OW23648   6.538   3.326   7.796 -0.1278  0.6184  0.0416
 7090SOL    HW123649   6.537   3.271   7.717 -0.6337 -2.8022  2.2429
 7090SOL    HW223650   6.459   3.380   7.788 -1.4480 -1.2997 -0.7894
 7091SOL     OW23651   9.154   3.595   0.473 -0.2154  0.2661 -0.0118
 7091SOL    HW123652   9.145   3.595   0.377  0.4698 -2.2259 -0.1422
 7091SOL    HW223653   9.246   3.571   0.488  0.2242  2.5525  1.3084
 7092SOL     OW23654   3.145   3.124   8.197  0.4233 -0.1026 -0.6083
 7092SOL    HW123655   3.219   3.076   8.235 -0.6976 -0.1386  1.7295
 7092SOL    HW223656   3.072   3.105   8.256 -1.3718  0.2523 -2.6167
 7093SOL     OW23657   1.509   9.128   8.113  0.4322  0.3710 -0.1186
 7093SOL    HW123658   1.569   9.176   8.169  3.4446 -1.8954 -1.0929
 7093SOL    HW223659   1.444   9.091   8.172  0.3727  2.3070  1.0990
 7094SOL     OW23660   4.021   0.800  10.106 -0.1818  0.3292  0.3186
 7094SOL    HW123661   4.063   0.882  10.080  1.8103 -0.6624  0.2642
 7094SOL    HW223662   4.054   0.735  10.045  0.0061 -0.9252  1.6976
 7095SOL     OW23663   4.046   0.718   5.402 -0.1398  0.2159 -0.6524
 7095SOL    HW123664   3.981   0.785   5.378  0.2380  0.4099 -1.1523
 7095SOL    HW223665   4.072   0.741   5.491  0.4467  1.1218 -1.0348
 7096SOL     OW23666   1.455   8.672   4.599 -0.4569 -0.7009 -0.8836
 7096SOL    HW123667   1.486   8.589   4.635  0.2655 -0.4719 -0.9737
 7096SOL    HW223668   1.510   8.688   4.523 -0.2495  0.1130 -0.5742
 7097SOL     OW23669   8.736   2.304   2.497 -1.5056  0.2078  0.5787
 7097SOL    HW123670   8.808   2.358   2.527 -1.3458  0.2527  0.1193
 7097SOL    HW223671   8.767   2.214   2.508 -1.0574  0.2397 -0.4003
 7098SOL     OW23672   1.585   8.958   9.554  0.1333  0.5394 -0.9848
 7098SOL    HW123673   1.508   9.009   9.529 -0.9184 -0.0258  0.9028
 7098SOL    HW223674   1.630   9.012   9.618 -1.4905 -1.1210  1.7428
 7099SOL     OW23675   3.986   5.145   6.595  0.2109 -0.4087  0.3168
 7099SOL    HW123676   3.990   5.066   6.650  1.2570  0.0989  0.9967
 7099SOL    HW223677   4.052   5.203   6.632 -0.3572  0.6866 -0.3551
 7100SOL     OW23678   6.791   2.933  10.357  0.2942 -0.0523 -0.4466
 7100SOL    HW123679   6.833   2.996  10.299  0.3390  0.6977  0.3869
 7100SOL    HW223680   6.864   2.885  10.398  0.4031  1.2822  1.0369
 7101SOL     OW23681   9.996   0.219  10.484 -0.7841 -0.3675 -0.4259
 7101SOL    HW123682   9.942   0.298  10.475 -0.6426 -0.0282  1.3638
 7101SOL    HW223683   9.946   0.164  10.544 -0.5182 -1.3320 -1.0750
 7102SOL     OW23684   3.868   5.881   8.287 -0.1362  0.5942  0.5813
 7102SOL    HW123685   3.820   5.829   8.352  0.7374  0.1930  0.9351
 7102SOL    HW223686   3.957   5.846   8.291 -0.4799 -0.9037 -2.3560
 7103SOL     OW23687   5.464   6.246   4.909  0.4778 -0.4816 -0.1870
 7103SOL    HW123688   5.494   6.202   4.829  1.9919 -0.3798  0.3042
 7103SOL    HW223689   5.427   6.329   4.878 -0.0285 -0.9465 -0.8768
 7104SOL     OW23690   6.280   2.145  10.015 -0.0187  0.0736  0.3489
 7104SOL    HW123691   6.327   2.133  10.098  1.2059  1.7926 -0.0277
 7104SOL    HW223692   6.300   2.067   9.964  0.0200 -0.5531  1.3098
 7105SOL     OW23693   6.471   5.015   4.779  0.1743  0.0740  0.1000
 7105SOL    HW123694   6.531   4.983   4.846  1.6042  0.3304 -0.9997
 7105SOL    HW223695   6.383   4.994   4.813  0.8393  0.1292  1.9748
 7106SOL     OW23696   7.224   0.727   8.538 -0.4098 -0.5828  0.4627
 7106SOL    HW123697   7.275   0.749   8.460 -0.5096 -1.4969  0.1264
 7106SOL    HW223698   7.206   0.811   8.579  0.1163 -0.1312 -0.2031
 7107SOL     OW23699   6.028   4.233   2.545  0.3433  0.1004  0.0945
 7107SOL    HW123700   5.934   4.235   2.527  0.2026  0.7519  0.8192
 7107SOL    HW223701   6.035   4.263   2.636  1.3832  1.8630 -0.5061
 7108SOL     OW23702   0.216   5.479   9.703  0.3863  0.1243 -0.7852
 7108SOL    HW123703   0.270   5.480   9.783  0.5482 -0.9705 -0.8661
 7108SOL    HW223704   0.212   5.387   9.678 -1.0034  0.2668 -1.1490
 7109SOL     OW23705   3.574   8.917   4.827 -0.0581 -0.2100 -0.0396
 7109SOL    HW123706   3.591   8.824   4.815  1.0747 -0.2082  1.3467
 7109SOL    HW223707   3.657   8.960   4.805 -0.4890  0.4661 -0.4071
 7110SOL     OW23708   4.860   2.947   7.654  0.5460  0.8500  0.5321
 7110SOL    HW123709   4.800   3.020   7.664  1.6938  1.9866 -0.5948
 7110SOL    HW223710   4.839   2.909   7.569  0.6880  0.5700  0.6192
 7111SOL     OW23711   6.837   7.384   8.229  0.1378 -0.3668 -0.6536
 7111SOL    HW123712   6.878   7.360   8.146  1.1414  0.8046 -0.5290
 7111SOL    HW223713   6.838   7.480   8.230  0.3787 -0.3540  0.8190
 7112SOL     OW23714   2.520   9.140   4.045 -0.9289  0.1907 -0.1611
 7112SOL    HW123715   2.439   9.190   4.055 -0.5902  0.8239 -0.4763
 7112SOL    HW223716   2.587   9.196   4.085 -0.7105 -0.5255  0.4915
 7113SOL     OW23717   0.540   0.320   8.882 -0.1519  0.0443 -0.3529
 7113SOL    HW123718   0.563   0.310   8.974  3.3250 -0.9307 -1.1821
 7113SOL    HW223719   0.522   0.231   8.851 -0.4653  0.2581 -0.8110
 7114SOL     OW23720  10.799   1.876   7.696 -0.0300  0.5201 -0.3820
 7114SOL    HW123721  10.823   1.921   7.777 -0.2181 -0.5923  0.3113
 7114SOL    HW223722  10.800   1.945   7.629 -0.1002  1.5004  0.6005
 7115SOL     OW23723   5.768   8.648   7.491 -0.2541 -0.0936 -0.4056
 7115SOL    HW123724   5.777   8.553   7.506 -1.5697 -0.2228 -0.3891
 7115SOL    HW223725   5.854   8.683   7.515 -0.4538 -0.9857  1.8958
 7116SOL     OW23726   0.628   6.862   3.274  0.4357  0.0536  0.1197
 7116SOL    HW123727   0.608   6.898   3.360  1.2319 -1.0063  0.7576
 7116SOL    HW223728   0.663   6.936   3.225 -1.8906  1.1846 -0.0029
 7117SOL     OW23729   6.051   3.609   8.817  0.1765 -0.2010 -0.6072
 7117SOL    HW123730   6.066   3.649   8.902  1.9482 -1.3518 -0.3211
 7117SOL    HW223731   5.978   3.548   8.831 -0.7774  0.9449 -0.4180
 7118SOL     OW23732   2.759   7.676   0.314  0.3727 -0.0648  0.2326
 7118SOL    HW123733   2.826   7.653   0.251  0.4031  0.0885  0.2099
 7118SOL    HW223734   2.765   7.771   0.323 -1.7770  0.3920 -1.9889
 7119SOL     OW23735   6.077   4.828   5.460  0.1004 -0.3302  0.0209
 7119SOL    HW123736   6.125   4.755   5.422  0.5013  0.2488 -0.6088
 7119SOL    HW223737   6.134   4.859   5.531  0.8849  0.6255 -0.9983
 7120SOL     OW23738   3.296   3.919   3.887 -0.3901 -0.4166  0.2312
 7120SOL    HW123739   3.236   3.852   3.856 -1.1693  0.6497 -0.6175
 7120SOL    HW223740   3.350   3.941   3.811  2.7223 -2.9266  1.4530
 7121SOL     OW23741   2.440   4.571   4.109 -0.5014  0.1557  0.5589
 7121SOL    HW123742   2.377   4.503   4.085 -1.1016  0.6630  0.6719
 7121SOL    HW223743   2.395   4.653   4.091 -0.7682  0.5691  2.7747
 7122SOL     OW23744   8.436   4.121   1.874  0.2001 -0.1579 -0.7279
 7122SOL    HW123745   8.435   4.049   1.810  1.8635  0.3575 -1.3846
 7122SOL    HW223746   8.343   4.140   1.889 -0.2701 -1.6824 -1.3898
 7123SOL     OW23747   7.731   4.289   5.247 -0.0842 -0.1214 -0.3062
 7123SOL    HW123748   7.704   4.358   5.307 -1.4171 -0.6244 -0.3099
 7123SOL    HW223749   7.728   4.330   5.160  1.6213  0.5361 -0.1072
 7124SOL     OW23750   8.680   6.120   3.119  0.0204 -0.5732  0.2288
 7124SOL    HW123751   8.638   6.117   3.033  0.3915 -1.4012  0.0758
 7124SOL    HW223752   8.771   6.144   3.100  0.1209 -0.8328  0.3843
 7125SOL     OW23753   8.354   2.265   6.603 -0.1450  0.2161 -0.2496
 7125SOL    HW123754   8.344   2.353   6.638  1.2231  0.1579  0.3745
 7125SOL    HW223755   8.416   2.274   6.531 -1.5894  0.0558 -1.5534
 7126SOL     OW23756   0.889   6.962   9.197 -0.0014 -0.2523  0.3840
 7126SOL    HW123757   0.920   6.925   9.280  0.8337  0.0929  0.2433
 7126SOL    HW223758   0.875   7.054   9.216  0.8700 -0.0222 -0.0145
 7127SOL     OW23759   5.322   2.702   0.821  0.4146 -0.1107  0.1146
 7127SOL    HW123760   5.338   2.618   0.777  0.6601 -0.5403  0.9828
 7127SOL    HW223761   5.309   2.678   0.913  0.7952  0.8332  0.4282
 7128SOL     OW23762   0.820   7.515   4.947  0.4468  0.3928  0.5334
 7128SOL    HW123763   0.873   7.562   4.883 -1.4960  1.8832 -0.0743
 7128SOL    HW223764   0.738   7.564   4.951 -0.0238 -0.4589  3.1581
 7129SOL     OW23765   6.315   5.051   2.958  0.3633 -0.5412  0.5918
 7129SOL    HW123766   6.232   5.065   3.002 -0.3304 -3.2348  0.2533
 7129SOL    HW223767   6.298   4.983   2.893  2.4412  0.0452 -0.6776
 7130SOL     OW23768   7.219   5.008   6.312  0.2861  0.1138 -0.2172
 7130SOL    HW123769   7.194   5.033   6.223  0.8569  0.0818 -0.3920
 7130SOL    HW223770   7.173   4.925   6.328 -1.9823  1.4205  0.5350
 7131SOL     OW23771   6.986   9.861   3.244 -0.1858  0.0028 -0.8651
 7131SOL    HW123772   7.056   9.881   3.306 -0.0702 -0.1057 -0.9611
 7131SOL    HW223773   7.013   9.901   3.162  0.4014 -1.1449 -1.2615
 7132SOL     OW23774   0.351   1.302  10.353 -0.2231 -0.3563 -0.7680
 7132SOL    HW123775   0.350   1.209  10.330 -0.5163  0.3368 -3.9748
 7132SOL    HW223776   0.444   1.323  10.364 -0.1500 -0.9556 -0.1315
 7133SOL     OW23777   2.121   3.478  10.002  0.1612 -0.7934  0.5555
 7133SOL    HW123778   2.182   3.501  10.072  0.5521  0.9552 -0.3245
 7133SOL    HW223779   2.177   3.455   9.928 -0.2512 -0.3340  0.1017
 7134SOL     OW23780  10.419   2.556   2.582 -0.2064 -0.4003  0.2165
 7134SOL    HW123781  10.512   2.550   2.559 -0.6491 -3.0282 -1.2070
 7134SOL    HW223782  10.395   2.646   2.560  2.0867  0.4833  1.0738
 7135SOL     OW23783   5.918   0.449   0.168 -0.4141 -0.1120  0.3264
 7135SOL    HW123784   5.866   0.369   0.179  0.0103 -0.2642  1.3791
 7135SOL    HW223785   5.914   0.467   0.074 -0.5828 -1.3288  0.0744
 7136SOL     OW23786   8.090   2.225  10.178  0.5314  0.0269 -0.1544
 7136SOL    HW123787   8.127   2.223  10.090 -1.5996  1.4390 -1.1685
 7136SOL    HW223788   8.075   2.133  10.200 -3.9515 -0.4969 -3.6866
 7137SOL     OW23789   0.504  10.548   7.770  0.2555 -0.5366  0.0062
 7137SOL    HW123790   0.518  10.454   7.783  1.6705 -0.3493  0.0153
 7137SOL    HW223791   0.438  10.553   7.701  0.1848 -1.5361 -0.0192
 7138SOL     OW23792   0.432   6.552   7.331 -0.4288 -0.4104 -0.1199
 7138SOL    HW123793   0.460   6.512   7.413 -1.5333 -0.8211  0.0760
 7138SOL    HW223794   0.406   6.478   7.276  0.8745 -0.1788 -1.0770
 7139SOL     OW23795   0.792   8.972   7.889  0.3600  0.0305 -0.2086
 7139SOL    HW123796   0.800   8.918   7.810 -0.0990 -0.5412  0.1313
 7139SOL    HW223797   0.796   9.062   7.856 -0.0699 -0.1970 -0.9216
 7140SOL     OW23798   0.591   3.197   4.517 -0.4659 -0.7239 -0.2455
 7140SOL    HW123799   0.612   3.273   4.462  0.3964 -1.0263 -0.3530
 7140SOL    HW223800   0.677   3.161   4.541 -0.8630 -1.5489 -0.0375
 7141SOL     OW23801   3.109   8.382   3.858 -0.0209  0.4634 -0.1782
 7141SOL    HW123802   3.127   8.337   3.776  1.9588 -0.7389  0.8558
 7141SOL    HW223803   3.021   8.354   3.883  0.1349 -0.7028 -0.9087
 7142SOL     OW23804   2.235   9.189   0.827 -0.1363 -0.2638  0.0862
 7142SOL    HW123805   2.146   9.216   0.804 -0.0026 -1.4115 -2.0985
 7142SOL    HW223806   2.225   9.136   0.906 -0.8878  2.5480  2.0123
 7143SOL     OW23807   0.058   7.770   7.416  0.5675 -0.3209  0.3230
 7143SOL    HW123808  -0.025   7.813   7.393 -0.4784 -1.1068  2.4148
 7143SOL    HW223809   0.051   7.683   7.378  0.8976 -0.0554 -0.3666
 7144SOL     OW23810   2.388   4.060   4.297 -0.4990  0.1298 -0.2906
 7144SOL    HW123811   2.345   3.988   4.251  0.0923 -0.0902 -0.5062
 7144SOL    HW223812   2.441   4.018   4.364  0.5010  0.3069 -0.9572
 7145SOL     OW23813   0.365   1.360   4.608 -0.1733  0.2950 -0.2305
 7145SOL    HW123814   0.367   1.415   4.530  0.0198  1.3772  0.5118
 7145SOL    HW223815   0.349   1.421   4.680 -2.1288 -0.8860  0.4162
 7146SOL     OW23816   4.407   3.136   9.008 -0.3386 -0.1500  0.1584
 7146SOL    HW123817   4.455   3.216   9.030  0.9721 -0.9863  0.4479
 7146SOL    HW223818   4.445   3.108   8.925  0.2313 -1.2440  0.7741
 7147SOL     OW23819  10.156   1.042   7.083  0.2454 -0.3149  0.0947
 7147SOL    HW123820  10.101   1.025   7.007  0.9897  0.9925 -0.7716
 7147SOL    HW223821  10.106   1.105   7.135  0.8848  0.8879 -0.7021
 7148SOL     OW23822   0.665   7.055   8.889  0.2085  0.0274  0.5153
 7148SOL    HW123823   0.727   6.989   8.919 -0.7680 -0.9272  0.5222
 7148SOL    HW223824   0.640   7.102   8.968 -0.6275 -0.9697  0.8704
 7149SOL     OW23825   8.460   2.578   1.461 -0.2957  0.1892 -0.1712
 7149SOL    HW123826   8.403   2.506   1.433  0.5238 -0.6955  0.3892
 7149SOL    HW223827   8.443   2.588   1.555 -0.3893  0.7273 -0.2375
 7150SOL     OW23828   4.960   2.162   3.223 -0.1448 -0.5823  0.2592
 7150SOL    HW123829   5.047   2.128   3.203  1.1381  1.9270  1.1100
 7150SOL    HW223830   4.962   2.178   3.318  0.5789  4.3947 -0.3068
 7151SOL     OW23831   1.520   8.064   1.636  0.3285  0.0309  0.4186
 7151SOL    HW123832   1.483   8.100   1.717 -2.9901 -0.4052 -0.7642
 7151SOL    HW223833   1.509   7.969   1.645 -2.4517  0.0849 -1.4781
 7152SOL     OW23834   1.798   1.495   1.823  0.6907  0.0004 -0.3853
 7152SOL    HW123835   1.792   1.410   1.779 -1.2283  1.0861 -2.4635
 7152SOL    HW223836   1.860   1.545   1.771  0.2970  0.4959 -0.3898
 7153SOL     OW23837   3.717   6.368   2.879  0.3383 -0.1382  0.5661
 7153SOL    HW123838   3.716   6.278   2.912  0.8387 -1.0073 -1.5948
 7153SOL    HW223839   3.809   6.385   2.858 -0.1117 -0.2926 -1.8629
 7154SOL     OW23840   4.396   1.649   1.603  0.5321  0.2493  0.0921
 7154SOL    HW123841   4.358   1.574   1.557  2.5180 -0.3327 -0.7472
 7154SOL    HW223842   4.439   1.611   1.680  1.0785  0.5837 -0.0386
 7155SOL     OW23843   6.745   2.350   1.430 -0.7133 -0.0803  0.4716
 7155SOL    HW123844   6.710   2.268   1.466 -2.9820 -0.7341 -2.8065
 7155SOL    HW223845   6.670   2.394   1.391  0.8455  2.4972  0.1058
 7156SOL     OW23846   4.642   3.663   2.087  0.0464  0.0206 -0.1936
 7156SOL    HW123847   4.670   3.754   2.075 -0.3701  0.1118 -0.4819
 7156SOL    HW223848   4.552   3.661   2.056 -0.3490 -0.2285  0.9274
 7157SOL     OW23849   3.751   1.418   5.743  0.1145  0.2945 -0.1183
 7157SOL    HW123850   3.836   1.456   5.764 -0.1533  0.8223  0.0270
 7157SOL    HW223851   3.698   1.433   5.821  0.0913 -0.6383  0.0489
 7158SOL     OW23852   6.011   9.606   7.612 -0.2398 -0.6470 -0.0227
 7158SOL    HW123853   5.997   9.675   7.548 -1.1280 -1.7743 -1.1001
 7158SOL    HW223854   6.088   9.634   7.662 -0.3672  0.9144 -0.6616
 7159SOL     OW23855   9.848   2.833   1.125 -0.6201  0.4523  0.2262
 7159SOL    HW123856   9.827   2.919   1.160  0.1642  0.4890  0.6100
 7159SOL    HW223857   9.877   2.849   1.035 -0.0011  0.6455  0.4566
 7160SOL     OW23858   7.571  10.756   2.340 -0.1352  0.3140  0.2277
 7160SOL    HW123859   7.660  10.791   2.350  0.3204 -0.0971 -1.8774
 7160SOL    HW223860   7.514  10.830   2.357  0.6944  1.1010 -0.3274
 7161SOL     OW23861   3.567   9.354  10.163  0.0889  0.3591 -0.3806
 7161SOL    HW123862   3.578   9.442  10.199 -0.5121  0.8285 -1.3080
 7161SOL    HW223863   3.645   9.339  10.111 -0.1444  0.6464 -0.8187
 7162SOL     OW23864   8.914   1.497  10.049 -0.2670 -0.6828 -0.3524
 7162SOL    HW123865   8.884   1.474   9.961 -0.9359 -2.6239  0.3349
 7162SOL    HW223866   8.910   1.415  10.098  1.6930 -0.0082  1.0658
 7163SOL     OW23867   8.702   5.044  10.758  0.4851  0.0348  0.3301
 7163SOL    HW123868   8.733   5.125  10.798 -1.2703  0.5751  0.7067
 7163SOL    HW223869   8.779   5.007  10.715  1.7957  0.8466  1.8683
 7164SOL     OW23870   2.956   3.272   5.958  0.5181 -0.1827 -0.3152
 7164SOL    HW123871   3.042   3.308   5.978  0.4673  0.2367 -0.8499
 7164SOL    HW223872   2.947   3.279   5.863 -1.2532  2.5231 -0.0827
 7165SOL     OW23873   1.751   7.129   2.488  0.3763  0.2922  0.1114
 7165SOL    HW123874   1.677   7.146   2.430  0.5918 -0.9230 -0.5518
 7165SOL    HW223875   1.829   7.145   2.434  0.5802 -1.6073 -0.2263
 7166SOL     OW23876   5.247   1.485   7.210  0.4462  0.3323  0.0072
 7166SOL    HW123877   5.159   1.521   7.224 -0.2857 -1.4811  0.2896
 7166SOL    HW223878   5.289   1.549   7.152 -1.2208  1.0038 -0.5474
 7167SOL     OW23879   7.908   7.727   7.111 -0.1742 -0.4158  0.0908
 7167SOL    HW123880   7.922   7.802   7.052 -0.0987 -0.1674  0.4211
 7167SOL    HW223881   7.997   7.703   7.140 -0.3834  1.8227  3.0224
 7168SOL     OW23882   1.279   1.066   2.506 -0.1297  0.0851  0.5113
 7168SOL    HW123883   1.328   1.149   2.505 -2.4344  1.5411  0.5769
 7168SOL    HW223884   1.276   1.039   2.415  0.6754  0.0363  0.4935
 7169SOL     OW23885   8.509   8.198   2.839  0.2679  0.1571 -0.1822
 7169SOL    HW123886   8.538   8.204   2.930 -0.8796 -2.2678  0.4089
 7169SOL    HW223887   8.435   8.258   2.834  0.7274  0.7826  0.2987
 7170SOL     OW23888   1.959   8.149  10.624 -0.0724 -0.2520 -0.5371
 7170SOL    HW123889   2.041   8.103  10.644  0.8396  2.2517  2.3332
 7170SOL    HW223890   1.890   8.088  10.650  1.0364 -0.7391  1.4990
 7171SOL     OW23891   1.747   9.793   5.086 -0.0422  0.6540  0.3222
 7171SOL    HW123892   1.816   9.738   5.124  1.6548  1.6986 -1.0966
 7171SOL    HW223893   1.716   9.744   5.010  0.1572  0.8160  0.1348
 7172SOL     OW23894   0.585   2.213   5.099 -0.6007  0.1055  0.1948
 7172SOL    HW123895   0.575   2.294   5.149 -0.4026  1.5752 -1.9982
 7172SOL    HW223896   0.679   2.206   5.083 -0.6922 -0.1138 -0.2797
 7173SOL     OW23897   1.229   9.701   7.783  0.1208  0.2906  0.1180
 7173SOL    HW123898   1.271   9.697   7.869  0.6738  0.6583 -0.1259
 7173SOL    HW223899   1.268   9.629   7.734 -0.5724 -0.2430  0.3274
 7174SOL     OW23900   8.527   2.324   2.306 -0.3842  0.1323  0.1748
 7174SOL    HW123901   8.555   2.245   2.260  0.6684  0.7258 -0.2323
 7174SOL    HW223902   8.588   2.332   2.380  0.0931  1.0587 -0.3131
 7175SOL     OW23903   5.636   5.090   9.615 -0.5324  0.2633  0.3320
 7175SOL    HW123904   5.548   5.056   9.601  0.4989 -1.9773 -1.3342
 7175SOL    HW223905   5.650   5.149   9.541 -0.5868  0.5526  0.5502
 7176SOL     OW23906   5.024  10.334   6.472 -0.1584 -0.4025  0.7277
 7176SOL    HW123907   5.022  10.340   6.567 -0.1668 -1.0009  0.7681
 7176SOL    HW223908   5.115  10.314   6.450  0.2000  1.2738  0.4974
 7177SOL     OW23909   4.660  10.169   3.614 -0.2143 -0.2874  0.3428
 7177SOL    HW123910   4.711  10.147   3.692  0.0194 -0.4107  0.1598
 7177SOL    HW223911   4.593  10.100   3.608 -1.4774  0.7948  1.5193
 7178SOL     OW23912   0.773   6.957   1.923  0.1977  0.0872  0.0533
 7178SOL    HW123913   0.717   6.930   1.851 -0.3569 -1.7088  1.0972
 7178SOL    HW223914   0.862   6.954   1.887 -0.1520  0.2937 -0.8484
 7179SOL     OW23915   8.728   6.985   4.945 -0.6272 -0.2502 -0.4203
 7179SOL    HW123916   8.703   6.924   4.875  0.8595 -0.2678 -0.9613
 7179SOL    HW223917   8.770   7.058   4.900  0.0049 -0.0741  0.4268
 7180SOL     OW23918   1.561   7.342   0.345 -0.3593  0.1054 -0.3067
 7180SOL    HW123919   1.535   7.358   0.436  0.2857  0.1807 -0.1304
 7180SOL    HW223920   1.478   7.337   0.297 -0.7998 -1.4449  0.5181
 7181SOL     OW23921   6.799   8.306   2.040 -0.1162 -0.1872  0.0647
 7181SOL    HW123922   6.755   8.387   2.065 -1.8679 -1.2763  0.7303
 7181SOL    HW223923   6.880   8.306   2.091 -1.2718  0.0109  2.0248
 7182SOL     OW23924  10.265   0.757   5.542  0.0989 -0.4913 -0.1977
 7182SOL    HW123925  10.314   0.686   5.500  0.7639  0.2549 -0.7046
 7182SOL    HW223926  10.333   0.811   5.584 -0.0541  1.5392 -2.3580
 7183SOL     OW23927   6.354   1.562   9.849  0.1285 -0.4850 -0.5871
 7183SOL    HW123928   6.385   1.634   9.904  0.8249 -0.6837 -0.7179
 7183SOL    HW223929   6.281   1.600   9.800  0.0475 -0.0646 -0.1536
 7184SOL     OW23930   1.887   2.386   3.196  0.5158 -0.6433  0.0604
 7184SOL    HW123931   1.919   2.472   3.167  0.2769 -0.1448  1.2508
 7184SOL    HW223932   1.966   2.341   3.227  0.8477 -1.3395 -1.6286
 7185SOL     OW23933   9.127   8.814  10.603  0.1732  0.4528 -0.1441
 7185SOL    HW123934   9.061   8.746  10.582  0.3256 -0.2594  1.5411
 7185SOL    HW223935   9.207   8.781  10.563  0.3568 -0.6502  1.0546
 7186SOL     OW23936   4.603   1.986   4.906  0.1336  0.0990  0.0272
 7186SOL    HW123937   4.686   2.033   4.898  0.4402 -0.5162 -0.4537
 7186SOL    HW223938   4.610   1.937   4.988 -1.2172  2.8699  1.9548
 7187SOL     OW23939   7.787   0.450   7.646 -0.6362 -0.1515 -0.0908
 7187SOL    HW123940   7.733   0.428   7.570  0.8370 -1.6297 -0.7688
 7187SOL    HW223941   7.864   0.494   7.610 -0.6019  0.4537  0.6938
 7188SOL     OW23942   0.189   9.601   6.127  0.3579  0.4867  0.1358
 7188SOL    HW123943   0.140   9.531   6.084 -0.2262  0.2309  1.1624
 7188SOL    HW223944   0.211   9.662   6.057 -0.4790  0.0493 -0.5336
 7189SOL     OW23945   7.026   2.894   5.076 -0.0377 -0.5111 -0.5603
 7189SOL    HW123946   7.025   2.985   5.046 -0.1971 -0.5741 -0.7414
 7189SOL    HW223947   7.051   2.843   4.999  0.5259 -0.5770 -0.3401
 7190SOL     OW23948   5.180   8.231   2.012  0.2163 -0.0655  0.3284
 7190SOL    HW123949   5.122   8.170   2.058 -1.0164  1.1137  0.4126
 7190SOL    HW223950   5.200   8.187   1.929 -0.8747 -0.4896  0.2706
 7191SOL     OW23951   2.338   1.259   0.442  0.0098  0.8767 -0.0635
 7191SOL    HW123952   2.310   1.344   0.409  1.8330  1.7258  0.4640
 7191SOL    HW223953   2.272   1.235   0.507 -0.0256  2.3323  0.4577
 7192SOL     OW23954   0.534   3.809   3.123  0.3213  0.2311 -0.8122
 7192SOL    HW123955   0.606   3.822   3.186 -1.1066 -0.0935  0.9616
 7192SOL    HW223956   0.510   3.897   3.095 -1.3178  0.7551  1.8642
 7193SOL     OW23957   4.968   3.679   1.392 -0.1282 -0.3743  0.1972
 7193SOL    HW123958   4.942   3.624   1.466  0.5651  0.7947  1.3431
 7193SOL    HW223959   4.889   3.730   1.371 -0.1853 -0.3544  0.4579
 7194SOL     OW23960   1.714   1.690   4.999 -0.1509  0.2265  0.1555
 7194SOL    HW123961   1.744   1.721   5.085  0.6903  0.4769 -0.2203
 7194SOL    HW223962   1.776   1.729   4.937 -2.2613  2.2205 -0.8419
 7195SOL     OW23963   7.664   0.894   0.542 -0.5826 -0.1672 -0.3342
 7195SOL    HW123964   7.606   0.836   0.493 -0.8604  0.8717 -1.2669
 7195SOL    HW223965   7.606   0.948   0.595 -0.2837 -1.2447  1.1300
 7196SOL     OW23966   8.414   7.990   3.955  0.0271  0.3374 -0.7480
 7196SOL    HW123967   8.429   7.937   3.876  2.8003 -0.5846  0.2456
 7196SOL    HW223968   8.496   8.039   3.965 -0.8405  1.5292  0.7754
 7197SOL     OW23969   7.567   7.108   3.991  0.5241  0.8007 -0.5280
 7197SOL    HW123970   7.641   7.046   3.984 -0.0514  0.0496 -0.1637
 7197SOL    HW223971   7.602   7.191   3.959  2.0339  0.8683  1.1180
 7198SOL     OW23972   4.816   9.609   5.332 -0.3282 -0.2150 -0.2739
 7198SOL    HW123973   4.817   9.530   5.278 -0.1886  0.8744 -1.9615
 7198SOL    HW223974   4.895   9.657   5.305  0.7050 -0.3806  2.1614
 7199SOL     OW23975   0.274   4.556   0.091  0.6504  0.0062 -0.2185
 7199SOL    HW123976   0.234   4.469   0.088 -0.3406  0.4771 -1.2582
 7199SOL    HW223977   0.201   4.616   0.110  1.3377  0.6213  0.5969
 7200SOL     OW23978   5.952   3.992   6.103 -0.2630  0.3726  0.5441
 7200SOL    HW123979   5.959   3.942   6.184 -1.3194  1.4959  1.3669
 7200SOL    HW223980   5.968   4.083   6.129 -1.1857  0.8294 -0.3833
 7201SOL     OW23981   2.633   4.811   8.044  0.1380  0.4589 -0.7217
 7201SOL    HW123982   2.677   4.894   8.027 -1.3244  1.2113 -0.9689
 7201SOL    HW223983   2.548   4.818   7.999 -1.0171 -0.1953  1.2289
 7202SOL     OW23984   9.168   9.972   3.687  0.0743  0.0917 -0.1001
 7202SOL    HW123985   9.146   9.942   3.775  0.2253 -0.7377 -0.3363
 7202SOL    HW223986   9.228  10.045   3.701  0.3767 -0.2600  0.4819
 7203SOL     OW23987   2.329  10.175   6.682 -0.2425 -0.1853  0.4246
 7203SOL    HW123988   2.359  10.252   6.632 -2.0936  0.1330 -0.3044
 7203SOL    HW223989   2.321  10.206   6.772  0.8263 -0.0680  0.4854
 7204SOL     OW23990   0.606   8.564   4.139 -0.6630 -0.3792  0.1193
 7204SOL    HW123991   0.552   8.631   4.099  0.7686  0.6714 -0.1546
 7204SOL    HW223992   0.615   8.591   4.230 -2.1719 -1.6206  0.6799
 7205SOL     OW23993   8.255   6.976   8.280  0.2579  0.4343  0.3350
 7205SOL    HW123994   8.259   7.038   8.352 -1.6433 -0.7806  1.5788
 7205SOL    HW223995   8.183   6.917   8.303  0.9033 -1.2217 -1.5852
 7206SOL     OW23996  10.403   0.349   7.543 -0.1569  0.1906 -0.3623
 7206SOL    HW123997  10.354   0.287   7.598 -2.1275  1.8178 -0.1432
 7206SOL    HW223998  10.482   0.368   7.593 -0.5116 -0.5901  0.5268
 7207SOL     OW23999   7.872   9.825   2.541 -0.6570  0.2410  0.3843
 7207SOL    HW124000   7.785   9.843   2.576 -1.0665 -1.9102  0.5928
 7207SOL    HW224001   7.913   9.768   2.606  1.4399  2.2322  0.9274
 7208SOL     OW24002   5.430   9.715   6.248 -0.2647 -0.4577 -0.6347
 7208SOL    HW124003   5.473   9.711   6.162 -1.7675 -0.4417 -1.4280
 7208SOL    HW224004   5.385   9.631   6.256  0.1617 -0.5980  0.3043
 7209SOL     OW24005   9.273   6.927   5.653  0.2237  0.0622 -0.0374
 7209SOL    HW124006   9.221   6.996   5.694  0.3287 -0.3845  0.8684
 7209SOL    HW224007   9.279   6.953   5.561 -0.4857  0.7970  0.1116
 7210SOL     OW24008  10.152   8.556   6.955  0.2756 -0.5984  0.2364
 7210SOL    HW124009  10.168   8.473   7.000 -0.7212 -0.0968  1.5913
 7210SOL    HW224010  10.110   8.611   7.021  3.6247  2.1037  0.4073
 7211SOL     OW24011   1.037   5.530   1.949  0.4391  0.7660  0.0652
 7211SOL    HW124012   1.033   5.536   1.854  0.7925  1.9218  0.0944
 7211SOL    HW224013   1.121   5.488   1.967  0.5975  0.9965 -0.1308
 7212SOL     OW24014   7.668   5.380   8.650  0.6145  0.0661 -0.1435
 7212SOL    HW124015   7.643   5.383   8.742  0.5637 -0.9764 -0.1119
 7212SOL    HW224016   7.764   5.377   8.652  0.6023 -1.4121 -0.0371
 7213SOL     OW24017   5.216  10.475   5.672 -0.0325  0.8798  0.4274
 7213SOL    HW124018   5.163  10.544   5.633 -1.5578 -0.2269  0.4639
 7213SOL    HW224019   5.294  10.520   5.706 -0.0255  2.2652 -1.3169
 7214SOL     OW24020  10.119   9.518   7.179  0.5061  0.8743  0.0410
 7214SOL    HW124021  10.190   9.472   7.223 -0.0155 -0.4867 -0.4738
 7214SOL    HW224022  10.132   9.499   7.086  0.3042  1.8216 -0.1891
 7215SOL     OW24023   4.557   8.482   6.413 -0.2281 -0.0601 -0.1343
 7215SOL    HW124024   4.536   8.462   6.322 -3.0160  2.8741 -0.3359
 7215SOL    HW224025   4.489   8.437   6.464 -0.2606  0.3927  0.2349
 7216SOL     OW24026  10.735   6.970   5.033 -0.0850 -0.1435 -0.6204
 7216SOL    HW124027  10.792   6.952   5.107 -0.4161 -1.4097 -0.6593
 7216SOL    HW224028  10.678   7.042   5.063 -0.5419 -0.9578  0.5356
 7217SOL     OW24029   2.560   5.104   0.017 -0.0320 -0.3957 -0.0025
 7217SOL    HW124030   2.583   5.062  -0.066 -0.2612  2.7020 -1.7604
 7217SOL    HW224031   2.585   5.039   0.083 -1.2451 -3.6348 -2.4490
 7218SOL     OW24032   6.037   5.615   2.599 -0.2384 -0.6044  0.1870
 7218SOL    HW124033   6.130   5.598   2.584 -0.3638 -0.7130 -0.4879
 7218SOL    HW224034   6.035   5.658   2.685  0.7098  1.7327 -0.8602
 7219SOL     OW24035   6.499   1.596   6.525 -0.5905  0.0598  0.2561
 7219SOL    HW124036   6.529   1.663   6.586  0.7666  1.5118 -1.8687
 7219SOL    HW224037   6.503   1.515   6.575  0.9005  1.1144  1.9704
 7220SOL     OW24038   3.986   2.717   6.385  0.3547 -0.0907  0.4995
 7220SOL    HW124039   3.912   2.740   6.441 -1.3179  0.7658 -1.9085
 7220SOL    HW224040   3.952   2.721   6.296  2.8851 -1.3751 -0.6485
 7221SOL     OW24041   5.326  10.292   1.601 -0.4879  0.1915  0.0265
 7221SOL    HW124042   5.232  10.309   1.598 -0.6426  0.4676  3.0445
 7221SOL    HW224043   5.362  10.366   1.650  1.1057 -0.5746  0.0883
 7222SOL     OW24044   6.067   0.453  10.332 -0.2575 -0.0631  0.0872
 7222SOL    HW124045   6.070   0.546  10.356 -2.8531 -0.2331  1.3598
 7222SOL    HW224046   6.035   0.453  10.242  1.7842  0.2704 -0.7102
 7223SOL     OW24047   6.326   4.203   2.538  0.0300  0.2902 -0.3208
 7223SOL    HW124048   6.316   4.108   2.544  2.1970 -0.2564 -3.1109
 7223SOL    HW224049   6.237   4.237   2.538 -0.8113 -1.7806  0.1580
 7224SOL     OW24050   6.043   4.432   5.235  1.1979  0.2261 -0.1860
 7224SOL    HW124051   6.061   4.487   5.312  0.4771  1.3293 -0.7736
 7224SOL    HW224052   6.015   4.348   5.272 -2.2211  1.6650  0.9314
 7225SOL     OW24053   1.913   3.963  10.210  0.5241  0.0599  0.4309
 7225SOL    HW124054   1.840   3.905  10.191  0.1389  0.5613  0.3713
 7225SOL    HW224055   1.990   3.918  10.174  0.3147 -0.6695  0.8759
 7226SOL     OW24056   2.985   1.807   5.174 -0.0001  0.6438  0.1227
 7226SOL    HW124057   3.001   1.901   5.164 -1.7943  0.8272 -1.7728
 7226SOL    HW224058   2.973   1.795   5.268 -1.5500  2.7133  0.2756
 7227SOL     OW24059   5.338   0.941   0.557 -0.2580 -0.0548  0.1852
 7227SOL    HW124060   5.423   0.978   0.582 -0.6222  0.4991  0.6233
 7227SOL    HW224061   5.274   1.006   0.585 -0.7171  0.6228 -2.2033
 7228SOL     OW24062   3.274   6.240   5.911  0.3516 -0.3690  0.7084
 7228SOL    HW124063   3.262   6.315   5.970 -1.1778  0.1372 -0.2018
 7228SOL    HW224064   3.250   6.164   5.964  0.1976 -0.0419  1.1122
 7229SOL     OW24065   0.428   6.998  10.511  0.1680 -0.2906 -0.3188
 7229SOL    HW124066   0.333   6.996  10.504  0.2016 -1.2958 -0.6731
 7229SOL    HW224067   0.452   6.909  10.536  1.0986 -0.4679 -1.7081
 7230SOL     OW24068   1.182   0.983   6.926 -0.0371 -0.4264  0.0699
 7230SOL    HW124069   1.245   1.006   6.995  0.2387 -0.5511 -0.1396
 7230SOL    HW224070   1.121   1.057   6.925  0.6518  0.1520 -0.3630
 7231SOL     OW24071   9.909   1.700  10.709 -0.5441  0.2371  0.2297
 7231SOL    HW124072   9.946   1.779  10.671 -1.5169  0.8865  0.5927
 7231SOL    HW224073   9.981   1.660  10.757 -0.4064  1.7228  1.3276
 7232SOL     OW24074   3.594   1.511   6.510  0.3054 -0.1694 -0.2882
 7232SOL    HW124075   3.517   1.563   6.486 -1.0303 -3.0744 -2.9686
 7232SOL    HW224076   3.665   1.548   6.456  0.0158  0.4461 -0.2608
 7233SOL     OW24077   0.715   8.743   9.638  0.7257 -0.5816 -0.0844
 7233SOL    HW124078   0.678   8.657   9.619 -2.2719  0.8160 -1.2103
 7233SOL    HW224079   0.800   8.743   9.594 -0.8759 -1.6912 -3.5140
 7234SOL     OW24080   5.892   6.071   3.474 -0.4181 -0.5390 -0.0386
 7234SOL    HW124081   5.925   6.140   3.532 -3.4297  1.4679 -0.5054
 7234SOL    HW224082   5.881   5.995   3.532  1.3096 -0.1420  0.8747
 7235SOL     OW24083   8.285   6.723   9.801  0.0412 -0.0964  0.7207
 7235SOL    HW124084   8.283   6.645   9.857  2.1225 -0.9045 -0.1791
 7235SOL    HW224085   8.379   6.743   9.793 -0.2589  0.7006 -1.4508
 7236SOL     OW24086   7.753   9.099   1.739  0.6017 -0.4688 -0.1366
 7236SOL    HW124087   7.691   9.049   1.791  0.1756 -0.1391 -0.3198
 7236SOL    HW224088   7.834   9.049   1.742  0.7944 -0.0903  1.4430
 7237SOL     OW24089   3.863   8.729   6.449  0.5752 -0.1978 -0.5823
 7237SOL    HW124090   3.958   8.717   6.449  0.7091  0.7548 -0.7048
 7237SOL    HW224091   3.843   8.768   6.534  0.5200  1.0886 -1.1575
 7238SOL     OW24092   8.313   6.508   8.616 -0.3582 -0.7719 -0.7910
 7238SOL    HW124093   8.281   6.417   8.619  0.5488 -1.0833  0.9915
 7238SOL    HW224094   8.245   6.559   8.660 -0.1499 -0.8501 -0.3703
 7239SOL     OW24095   6.490  10.678   6.929 -0.1666  0.3987 -0.1014
 7239SOL    HW124096   6.509  10.614   6.998  0.0900  1.1792  0.5814
 7239SOL    HW224097   6.419  10.640   6.879  0.4343 -0.7205 -0.1252
 7240SOL     OW24098   1.870   7.277   5.019 -0.1485  0.1651  0.8006
 7240SOL    HW124099   1.958   7.247   4.998  0.0260  1.1886 -0.0058
 7240SOL    HW224100   1.813   7.225   4.962  0.1411  1.2060 -0.4856
 7241SOL     OW24101   1.375   5.210  10.115  0.0677 -0.1511  0.4506
 7241SOL    HW124102   1.401   5.163  10.036  0.2853  0.8742 -0.1123
 7241SOL    HW224103   1.315   5.278  10.083  1.4764  1.3667  0.9058
 7242SOL     OW24104   0.902   4.027   4.389 -0.0579 -0.5986  0.1015
 7242SOL    HW124105   0.922   3.949   4.337  0.9288  1.5531 -3.0761
 7242SOL    HW224106   0.979   4.038   4.445 -0.8504 -2.6181  1.6957
 7243SOL     OW24107   3.744  10.598   3.071  0.0837  0.8040 -0.2596
 7243SOL    HW124108   3.705  10.571   3.154  0.5010 -1.9410 -0.8614
 7243SOL    HW224109   3.679  10.657   3.032 -0.7212  1.0573  1.3955
 7244SOL     OW24110   3.098   5.824   8.029 -0.2404 -0.5455  0.0602
 7244SOL    HW124111   3.189   5.851   8.014  0.5520 -2.4170  1.1207
 7244SOL    HW224112   3.060   5.896   8.080  1.3534 -0.7247  1.6173
 7245SOL     OW24113   9.313   0.930   8.280  0.4399 -0.0443  0.6364
 7245SOL    HW124114   9.285   0.859   8.338  1.4938 -1.5351 -0.5986
 7245SOL    HW224115   9.275   0.909   8.195  0.2194  1.2478  0.4010
 7246SOL     OW24116   1.387   4.657   7.705 -0.3249 -0.0169 -0.5791
 7246SOL    HW124117   1.368   4.596   7.776 -1.4677  1.3415  0.3403
 7246SOL    HW224118   1.443   4.724   7.745 -0.5025  0.4550 -1.0988
 7247SOL     OW24119   3.392   4.294   6.613  0.2826 -0.0249 -0.0701
 7247SOL    HW124120   3.419   4.347   6.539  1.4469  0.0429  0.3850
 7247SOL    HW224121   3.416   4.346   6.690 -0.3055 -0.3768  0.3592
 7248SOL     OW24122   8.441   6.420   3.885 -0.1676 -0.1640  0.4352
 7248SOL    HW124123   8.391   6.397   3.963 -2.4496 -0.6019 -1.0647
 7248SOL    HW224124   8.486   6.340   3.860  0.2051 -0.1442  1.0318
 7249SOL     OW24125   0.006   1.633   2.618 -0.2505  0.3749  0.2509
 7249SOL    HW124126  -0.044   1.634   2.700  0.8502  0.7622  0.9487
 7249SOL    HW224127   0.097   1.645   2.646  0.3723 -1.2898 -0.8791
 7250SOL     OW24128   7.288   7.924   3.387  0.2563 -0.1034 -1.1812
 7250SOL    HW124129   7.314   7.966   3.470 -0.5138  0.3275 -1.1506
 7250SOL    HW224130   7.269   7.833   3.410 -2.8162  0.6617 -0.2685
 7251SOL     OW24131  10.305   9.762   9.074  1.0026  0.4306  0.4714
 7251SOL    HW124132  10.310   9.782   8.981 -0.5237  0.2924  0.3250
 7251SOL    HW224133  10.341   9.674   9.082  2.3217  0.9320  0.2202
 7252SOL     OW24134   1.121   4.918   9.977 -0.1953  0.5639 -0.1325
 7252SOL    HW124135   1.058   4.889   9.911 -0.3822  0.3059  0.1611
 7252SOL    HW224136   1.206   4.888   9.943 -0.4025 -0.4985  0.2604
 7253SOL     OW24137   9.506   3.417   3.840  0.6157 -0.3589 -0.0019
 7253SOL    HW124138   9.589   3.464   3.841  0.2256  0.3724  1.1139
 7253SOL    HW224139   9.529   3.327   3.862  1.1941 -0.3344 -0.4865
 7254SOL     OW24140   9.354   7.412   7.783 -0.1996 -0.5053  0.3526
 7254SOL    HW124141   9.319   7.373   7.864  2.3647 -1.6864  1.0002
 7254SOL    HW224142   9.436   7.453   7.810 -1.3836  3.0071 -0.8866
 7255SOL     OW24143   3.532   7.305   7.515  0.5362 -0.1734  0.6639
 7255SOL    HW124144   3.592   7.299   7.441  0.1851  1.1438  0.2549
 7255SOL    HW224145   3.571   7.248   7.582  2.4075  0.8743  0.5190
 7256SOL     OW24146   3.962   9.506   1.458  0.3853  0.7403  0.0804
 7256SOL    HW124147   3.898   9.500   1.529 -1.0731  5.2268 -0.5689
 7256SOL    HW224148   4.045   9.522   1.503 -0.0276  0.8377  0.8312
 7257SOL     OW24149   4.904   1.155   0.123 -0.5779  0.3474 -0.1465
 7257SOL    HW124150   4.903   1.251   0.124  0.0077  0.3674  1.8248
 7257SOL    HW224151   4.812   1.130   0.123 -0.7431  0.9204  0.5394
 7258SOL     OW24152   7.642   8.333   2.354 -0.0228 -0.1499  0.3407
 7258SOL    HW124153   7.684   8.379   2.282  0.5721 -0.9102  0.1873
 7258SOL    HW224154   7.568   8.288   2.314  0.8073 -1.2820  0.0008
 7259SOL     OW24155   7.891   1.753   0.072 -0.3375  0.2732 -0.5523
 7259SOL    HW124156   7.886   1.658   0.077  2.2919  0.0082 -1.2451
 7259SOL    HW224157   7.853   1.775  -0.013 -1.9637  0.0037  0.0705
 7260SOL     OW24158   0.626   8.080   8.400 -0.0307  0.0664  0.6550
 7260SOL    HW124159   0.543   8.048   8.434 -1.4943  1.2047 -1.6053
 7260SOL    HW224160   0.636   8.036   8.316  2.2029 -0.7998  1.3114
 7261SOL     OW24161   7.798   7.315   7.034 -0.2673 -0.5469 -0.3959
 7261SOL    HW124162   7.760   7.258   7.101 -0.7659  1.2478  0.9181
 7261SOL    HW224163   7.893   7.307   7.047 -0.3673  0.2243  0.9535
 7262SOL     OW24164   6.398   3.074   8.174 -0.0469 -0.0766  0.1583
 7262SOL    HW124165   6.409   3.165   8.148 -1.2157 -0.1483 -0.6286
 7262SOL    HW224166   6.461   3.025   8.121 -0.8581  0.0444 -0.9386
 7263SOL     OW24167   5.787   0.308   6.918  0.0998 -0.0082 -0.2766
 7263SOL    HW124168   5.735   0.375   6.874  0.7384  0.1440 -0.8091
 7263SOL    HW224169   5.728   0.233   6.925  0.4939 -0.7121 -3.0805
 7264SOL     OW24170   7.811   6.032   6.123  0.3295 -0.2131 -0.3654
 7264SOL    HW124171   7.887   5.974   6.116 -1.2139 -2.2793 -0.9257
 7264SOL    HW224172   7.796   6.040   6.217  2.2357  1.6986 -0.1417
 7265SOL     OW24173   5.249   5.663   0.127  0.1337 -0.2961 -0.6602
 7265SOL    HW124174   5.253   5.724   0.053  0.9182  0.3512 -0.0899
 7265SOL    HW224175   5.236   5.577   0.086  1.1798 -0.0273 -1.5983
 7266SOL     OW24176   6.833   1.174   9.611 -0.0057 -0.0710 -0.0950
 7266SOL    HW124177   6.814   1.177   9.517 -0.1709 -3.9995 -0.3224
 7266SOL    HW224178   6.871   1.260   9.630  1.8659  0.2046 -4.1281
 7267SOL     OW24179   2.081   5.644   1.580 -0.3508  0.1781 -0.1312
 7267SOL    HW124180   2.132   5.601   1.511  0.5602 -0.3078  0.8176
 7267SOL    HW224181   2.136   5.637   1.658 -0.7779  1.9000  0.3600
 7268SOL     OW24182   2.045   5.133  10.560 -0.0238  0.0961 -0.2228
 7268SOL    HW124183   1.966   5.096  10.598  0.7018 -0.7274  0.5391
 7268SOL    HW224184   2.031   5.129  10.466 -0.2676 -1.5148 -0.1518
 7269SOL     OW24185   8.350   5.198   9.100 -0.0375  0.0459  0.1773
 7269SOL    HW124186   8.272   5.218   9.048  0.4814  2.2134  0.1265
 7269SOL    HW224187   8.318   5.188   9.189 -0.2777  2.3059  0.3980
 7270SOL     OW24188   1.327  10.437   6.645  0.0915 -0.3293  0.7828
 7270SOL    HW124189   1.352  10.351   6.609 -0.2364  0.2062 -0.8152
 7270SOL    HW224190   1.232  10.433   6.651 -0.2529  0.8600 -2.0806
 7271SOL     OW24191   7.182   4.418   2.639 -0.3306 -0.2818 -0.0121
 7271SOL    HW124192   7.105   4.422   2.695 -0.0799 -0.5065  0.3553
 7271SOL    HW224193   7.148   4.424   2.550 -1.0426 -3.0877 -0.0246
 7272SOL     OW24194   7.266   8.583   7.863  1.0245 -0.2846  0.0530
 7272SOL    HW124195   7.279   8.668   7.822  0.8537  1.4112  3.2194
 7272SOL    HW224196   7.347   8.535   7.846  1.1099  0.4246 -1.8039
 7273SOL     OW24197  10.625   8.387   1.768  0.1799  0.1909 -0.2254
 7273SOL    HW124198  10.635   8.292   1.767 -2.0896 -0.0988  0.5308
 7273SOL    HW224199  10.615   8.409   1.860 -0.0153  1.0885 -0.4545
 7274SOL     OW24200   6.381   8.622   6.456  0.2934  0.2087  0.1509
 7274SOL    HW124201   6.315   8.576   6.508  1.0000  0.6271  1.4528
 7274SOL    HW224202   6.462   8.613   6.506  0.9447  0.8546 -0.7506
 7275SOL     OW24203   3.061   7.948   8.679  0.2968 -0.2731 -0.0305
 7275SOL    HW124204   3.070   8.014   8.748  0.8089 -0.7339  0.3463
 7275SOL    HW224205   3.148   7.938   8.642  0.1400 -0.4455 -0.3643
 7276SOL     OW24206   5.173   2.333  10.203  0.0731  0.2952  0.3384
 7276SOL    HW124207   5.134   2.420  10.199  1.3424  0.9948  1.8352
 7276SOL    HW224208   5.261   2.348  10.238  0.9974 -1.4029 -1.0836
 7277SOL     OW24209   2.574   0.797   5.730 -0.1119  0.6646  0.6203
 7277SOL    HW124210   2.594   0.833   5.816  0.1190  2.4709 -0.1392
 7277SOL    HW224211   2.605   0.863   5.668 -1.3540 -0.0232 -0.8243
 7278SOL     OW24212   4.452   7.868   2.179 -0.1373 -0.0757 -0.9374
 7278SOL    HW124213   4.384   7.803   2.160  0.5837 -0.6201 -1.7397
 7278SOL    HW224214   4.428   7.944   2.127 -0.3614 -0.1134 -0.8906
 7279SOL     OW24215   3.891   3.744   1.715  0.6929 -0.4009 -0.7806
 7279SOL    HW124216   3.921   3.708   1.632 -0.1299  2.5598 -2.5086
 7279SOL    HW224217   3.969   3.743   1.771  1.4397 -1.8685 -1.7913
 7280SOL     OW24218   9.020   7.177   0.261  0.1644 -0.1417 -0.1097
 7280SOL    HW124219   8.929   7.206   0.257  0.2925  0.9977  2.8651
 7280SOL    HW224220   9.058   7.205   0.178 -1.3727  2.4339 -0.0387
 7281SOL     OW24221   3.627   3.056   7.083 -0.3959 -0.1644  0.1165
 7281SOL    HW124222   3.652   3.108   7.159 -1.0427 -0.5056  0.5766
 7281SOL    HW224223   3.648   2.965   7.107 -1.3087 -0.3637  0.2047
 7282SOL     OW24224   3.065   3.285   2.830  0.0375 -0.1895 -0.4011
 7282SOL    HW124225   2.976   3.266   2.858  0.2647  0.6760  0.9811
 7282SOL    HW224226   3.067   3.260   2.737 -1.5401 -0.5010 -0.3702
 7283SOL     OW24227   8.273   5.934  10.465 -0.6347  0.6353  0.3672
 7283SOL    HW124228   8.275   5.893  10.552  2.3894  2.5428  1.3408
 7283SOL    HW224229   8.307   5.867  10.407  0.3818  0.3747  1.2280
 7284SOL     OW24230   0.766   3.371   6.474  0.0363 -1.0925 -0.3329
 7284SOL    HW124231   0.810   3.409   6.550 -1.3047 -1.3444  0.6079
 7284SOL    HW224232   0.837   3.335   6.420  1.2185  1.1875 -0.4199
 7285SOL     OW24233   7.115   8.053   6.671 -0.0391 -0.0860  0.0032
 7285SOL    HW124234   7.063   8.099   6.737 -1.1321 -1.1818 -0.0704
 7285SOL    HW224235   7.187   8.114   6.652  0.4489  0.1914  2.3344
 7286SOL     OW24236   9.248   7.157   8.670  0.4462 -0.1640 -0.3330
 7286SOL    HW124237   9.283   7.245   8.676 -0.3848  0.2308 -1.0150
 7286SOL    HW224238   9.172   7.165   8.612  0.3642 -1.3254 -0.4179
 7287SOL     OW24239  10.139   8.007   4.011  0.6365  0.2727 -0.1419
 7287SOL    HW124240  10.197   7.986   3.938 -0.2636  0.1041 -0.8198
 7287SOL    HW224241  10.059   8.041   3.970  0.1081  0.1599  0.7566
 7288SOL     OW24242   5.302   7.702   2.609 -0.3738  0.6933  0.5246
 7288SOL    HW124243   5.317   7.785   2.654  1.2996  0.5375  0.3123
 7288SOL    HW224244   5.298   7.636   2.679  1.2880  0.5787  0.5575
 7289SOL     OW24245   3.568   8.287   1.652 -0.1191  0.3341  0.0220
 7289SOL    HW124246   3.640   8.349   1.660  1.2878 -1.1671 -0.4512
 7289SOL    HW224247   3.608   8.209   1.612 -1.9993 -0.5580 -0.2196
 7290SOL     OW24248   9.169   5.500   6.865 -0.0082  0.1306  0.1122
 7290SOL    HW124249   9.239   5.488   6.930  1.4532  0.8204 -1.2685
 7290SOL    HW224250   9.168   5.594   6.847 -0.4443 -0.0292 -0.7757
 7291SOL     OW24251   6.714   0.086   8.352  0.3887 -0.1054 -0.2308
 7291SOL    HW124252   6.765   0.164   8.375 -0.6524  0.6324 -0.3607
 7291SOL    HW224253   6.772   0.035   8.296  1.5233 -0.0116  0.8105
 7292SOL     OW24254   9.818   9.529   0.731  0.0698  0.2081  0.6040
 7292SOL    HW124255   9.841   9.594   0.798 -0.8712  0.0351  1.1135
 7292SOL    HW224256   9.851   9.567   0.649  0.4777  0.8279  1.0440
 7293SOL     OW24257   8.999   5.939   5.589 -0.0433 -0.2126  0.0620
 7293SOL    HW124258   9.095   5.935   5.590  0.0660  0.0867 -2.7310
 7293SOL    HW224259   8.979   6.032   5.587 -0.5041 -0.2206  2.1379
 7294SOL     OW24260   2.273   2.109   5.930 -0.3717  0.0835 -0.1463
 7294SOL    HW124261   2.336   2.180   5.942 -0.3626  0.5098 -2.2979
 7294SOL    HW224262   2.187   2.151   5.936 -0.3728  0.2056 -0.8958
 7295SOL     OW24263   0.295   1.674   0.480 -0.4979  0.5415  0.1582
 7295SOL    HW124264   0.361   1.744   0.479  1.6004 -1.3187 -0.3058
 7295SOL    HW224265   0.278   1.659   0.573  0.1853  0.6472  0.3083
 7296SOL     OW24266   8.278   6.672   0.775  0.2248 -0.0596  0.1088
 7296SOL    HW124267   8.291   6.730   0.700  0.0738 -0.8998 -0.5929
 7296SOL    HW224268   8.200   6.706   0.819  0.1252  0.2569 -0.3041
 7297SOL     OW24269  10.033   5.747   7.598 -0.0732 -0.3175 -0.0325
 7297SOL    HW124270   9.938   5.758   7.587 -0.2809 -1.7153  0.1284
 7297SOL    HW224271  10.047   5.758   7.692  0.2939  2.1306 -0.3078
 7298SOL     OW24272   2.428   1.341   5.996  0.0708 -0.8533 -0.2148
 7298SOL    HW124273   2.425   1.263   5.940 -0.3493 -0.2494 -1.0623
 7298SOL    HW224274   2.422   1.415   5.935 -1.3827 -0.1828  0.6719
 7299SOL     OW24275   3.071   6.950   8.129 -0.3738 -0.1403  0.1142
 7299SOL    HW124276   3.001   6.885   8.137 -0.2933 -0.1901  0.4442
 7299SOL    HW224277   3.127   6.916   8.059 -0.5603 -0.2123  0.0000
 7300SOL     OW24278   5.082   9.996   5.577  0.3504  0.0248  0.5275
 7300SOL    HW124279   5.169  10.001   5.535 -0.5077  1.7296 -1.2300
 7300SOL    HW224280   5.082  10.069   5.639  0.0336  0.2897  0.2175
 7301SOL     OW24281   9.240   2.374  10.427  0.6013  0.5662 -0.3148
 7301SOL    HW124282   9.158   2.421  10.410  1.0583  1.5387  0.0699
 7301SOL    HW224283   9.270   2.345  10.341 -0.1584  0.1656 -0.4548
 7302SOL     OW24284   6.319   4.786   3.314 -0.7171 -0.1819 -0.3037
 7302SOL    HW124285   6.226   4.763   3.319 -1.0549  0.2561 -2.9875
 7302SOL    HW224286   6.344   4.764   3.224  1.1647  1.8289 -0.3477
 7303SOL     OW24287   7.204   2.194   2.136 -0.2878  0.3575 -0.1783
 7303SOL    HW124288   7.252   2.168   2.057 -1.2079 -3.0295  0.2229
 7303SOL    HW224289   7.265   2.175   2.208  0.2691  2.7387  0.0743
 7304SOL     OW24290   7.832   2.833   9.663  0.1606 -0.2592 -0.3376
 7304SOL    HW124291   7.905   2.867   9.715 -1.3080 -0.3155  1.8478
 7304SOL    HW224292   7.797   2.909   9.617  0.7750 -0.0097 -0.4039
 7305SOL     OW24293   2.675   5.608   5.970  0.3128 -0.4380 -1.0393
 7305SOL    HW124294   2.591   5.649   5.991 -0.5088 -2.6863  0.3368
 7305SOL    HW224295   2.736   5.642   6.036 -0.3267 -1.2864  0.0093
 7306SOL     OW24296   7.192   3.930   7.210  0.3184 -0.4718  0.4200
 7306SOL    HW124297   7.172   3.955   7.120 -2.3923 -1.4791  0.6775
 7306SOL    HW224298   7.210   4.013   7.254 -0.6736  0.2742 -0.5340
 7307SOL     OW24299   6.814   7.456   2.284 -0.2054  0.0122 -0.2851
 7307SOL    HW124300   6.812   7.427   2.193  0.2274  0.3358 -0.4033
 7307SOL    HW224301   6.819   7.375   2.335  1.6185 -0.1273 -0.6316
 7308SOL     OW24302   3.250   3.113   0.392 -0.0060  0.0209  0.3628
 7308SOL    HW124303   3.306   3.074   0.324 -0.2344  0.8029 -0.2858
 7308SOL    HW224304   3.163   3.077   0.375 -0.5669  1.9220 -1.2228
 7309SOL     OW24305   9.949   4.453   7.061  0.1598 -0.3063 -0.2599
 7309SOL    HW124306   9.910   4.366   7.051  1.9726 -1.1274 -0.6140
 7309SOL    HW224307  10.017   4.441   7.127 -0.5430  1.2282  0.8073
 7310SOL     OW24308   1.171   0.646   3.085  0.2533  0.1620 -0.0366
 7310SOL    HW124309   1.231   0.682   3.150 -0.9982  0.2405  1.1243
 7310SOL    HW224310   1.136   0.567   3.126  1.5315 -1.4063 -1.7852
 7311SOL     OW24311   2.061   0.853   7.944 -0.5469  0.3265  0.0573
 7311SOL    HW124312   2.072   0.763   7.911 -1.3183  0.5708 -0.9279
 7311SOL    HW224313   2.027   0.901   7.869 -0.8386  1.2854  0.7928
 7312SOL     OW24314   6.872   5.681   5.252 -0.0627  0.3084  0.1916
 7312SOL    HW124315   6.882   5.733   5.173  1.4538  0.6699  0.5959
 7312SOL    HW224316   6.839   5.597   5.221  0.8268  0.3307 -0.8775
 7313SOL     OW24317   1.121   3.007   4.687  0.1018 -0.1789 -0.7117
 7313SOL    HW124318   1.046   2.947   4.684  0.8224 -1.0747 -2.9392
 7313SOL    HW224319   1.193   2.953   4.720  0.4759 -0.2144 -1.5719
 7314SOL     OW24320   6.509   5.526   1.671  1.1868  0.0475  0.2192
 7314SOL    HW124321   6.468   5.599   1.624  0.5606 -0.0561  0.5975
 7314SOL    HW224322   6.576   5.567   1.726  0.0469  0.4873  1.3232
 7315SOL     OW24323  10.386   8.813   6.012 -0.1930  0.0861 -0.6201
 7315SOL    HW124324  10.412   8.887   5.957  2.1238  1.4552  2.0816
 7315SOL    HW224325  10.468   8.781   6.049 -1.5777 -0.8932  1.7970
 7316SOL     OW24326  10.710   1.991   8.325 -0.4578  0.0754  0.1225
 7316SOL    HW124327  10.629   1.975   8.275  0.9380  0.2917 -2.3965
 7316SOL    HW224328  10.767   1.918   8.302  0.1138 -0.0670  1.8492
 7317SOL     OW24329   2.524   6.696   0.362 -0.0781 -0.1920  0.3436
 7317SOL    HW124330   2.586   6.715   0.432 -0.5371 -0.0572  0.7252
 7317SOL    HW224331   2.444   6.742   0.388 -0.5699 -0.9727  0.2471
 7318SOL     OW24332   8.536   0.658   5.864 -0.0707 -0.5730  0.0184
 7318SOL    HW124333   8.628   0.666   5.840 -0.4433 -1.2555 -1.8236
 7318SOL    HW224334   8.488   0.692   5.788 -1.3657  1.1490  1.5034
 7319SOL     OW24335  10.263   0.270   5.444 -0.1246 -0.6243 -0.5903
 7319SOL    HW124336  10.194   0.330   5.415 -1.3777 -1.5465  0.4238
 7319SOL    HW224337  10.344   0.321   5.434 -1.1463  1.2670  0.2592
 7320SOL     OW24338   5.830   3.514   1.684  0.0582  0.3191 -0.6439
 7320SOL    HW124339   5.785   3.463   1.617  1.4193  0.8177 -1.9915
 7320SOL    HW224340   5.871   3.586   1.636  0.2562  1.2654  0.8689
 7321SOL     OW24341   7.859   5.511   6.199  0.2761 -0.5174  0.0222
 7321SOL    HW124342   7.894   5.536   6.114 -0.4688 -2.8342 -1.0377
 7321SOL    HW224343   7.918   5.442   6.230 -0.3376 -0.7699  0.6702
 7322SOL     OW24344  10.301   2.984   3.292  0.1483  0.0251 -0.2009
 7322SOL    HW124345  10.290   3.069   3.335  0.5180  0.2897 -0.6088
 7322SOL    HW224346  10.220   2.937   3.309  0.5558 -0.1507  1.3774
 7323SOL     OW24347   4.370   8.434   1.653  0.2989 -0.2287 -0.3721
 7323SOL    HW124348   4.345   8.391   1.571  0.1627  1.9648 -1.5528
 7323SOL    HW224349   4.353   8.527   1.638 -0.1013  0.2226  2.3043
 7324SOL     OW24350   0.130   3.864   6.455  0.2560 -0.4909  0.4338
 7324SOL    HW124351   0.119   3.893   6.365  0.9262 -1.8567 -0.1181
 7324SOL    HW224352   0.107   3.940   6.508 -0.0768  0.3547 -0.8866
 7325SOL     OW24353   8.968  10.216   9.479  0.0449  0.0374  0.0017
 7325SOL    HW124354   8.979  10.240   9.387 -1.7189  0.9048 -0.0207
 7325SOL    HW224355   8.927  10.130   9.476 -1.2030  0.6221 -0.0635
 7326SOL     OW24356   1.657   3.860   6.649 -0.6671  0.0563 -0.0448
 7326SOL    HW124357   1.705   3.926   6.698 -1.6884  0.6696  0.1677
 7326SOL    HW224358   1.698   3.777   6.673 -0.9730  0.3678  1.6804
 7327SOL     OW24359   4.179   8.658   0.791 -0.0679  0.0060 -0.2716
 7327SOL    HW124360   4.252   8.616   0.744  0.1100 -0.4028  0.3648
 7327SOL    HW224361   4.167   8.741   0.745 -1.1960 -1.1852 -2.3141
 7328SOL     OW24362   5.408   4.213   8.165 -0.4510  0.2120 -0.5156
 7328SOL    HW124363   5.464   4.276   8.211 -0.9968 -0.6217  1.3882
 7328SOL    HW224364   5.404   4.246   8.075  2.9922  0.4045 -0.7522
 7329SOL     OW24365   0.060   3.417   3.796  0.0396  0.8727 -0.5933
 7329SOL    HW124366   0.056   3.440   3.889  2.8930 -1.1251  0.1338
 7329SOL    HW224367   0.153   3.419   3.774 -0.4850  0.4910 -3.2308
 7330SOL     OW24368   2.768   0.788   5.459  0.2244  0.0094 -0.3461
 7330SOL    HW124369   2.797   0.734   5.533  2.0919  0.3273 -0.7737
 7330SOL    HW224370   2.778   0.878   5.490  1.4280  0.1567 -1.0663
 7331SOL     OW24371   3.676   8.952   0.691  0.7045 -0.1975  0.4701
 7331SOL    HW124372   3.717   8.924   0.772  2.0649  0.2088 -0.0434
 7331SOL    HW224373   3.661   8.871   0.642  1.7320 -0.3121  0.3106
 7332SOL     OW24374   6.168   7.125  10.160  0.1971  0.0067 -0.1623
 7332SOL    HW124375   6.111   7.069  10.108  2.0746 -0.9498 -1.2685
 7332SOL    HW224376   6.194   7.071  10.234 -1.2046  0.8467  1.0141
 7333SOL     OW24377   9.621  10.771   8.646  1.0509  0.6960  0.2536
 7333SOL    HW124378   9.552  10.741   8.588 -0.9720  2.0884  1.8124
 7333SOL    HW224379   9.652  10.853   8.607  0.6804  0.9035  0.3948
 7334SOL     OW24380   6.338   8.326   5.564 -0.3801  0.7015  0.2390
 7334SOL    HW124381   6.434   8.316   5.567 -0.2472  1.2583 -1.2471
 7334SOL    HW224382   6.324   8.421   5.558 -0.7805  0.5717 -3.4177
 7335SOL     OW24383   6.453   0.620   3.747  0.4700  0.9067 -0.1962
 7335SOL    HW124384   6.415   0.536   3.723  2.4800  0.1295 -0.8929
 7335SOL    HW224385   6.495   0.604   3.831  0.8666  1.1919 -0.3357
 7336SOL     OW24386   2.767   0.867   4.923  0.1035  0.5302  0.4780
 7336SOL    HW124387   2.676   0.896   4.923 -0.5959 -1.5251  0.6456
 7336SOL    HW224388   2.787   0.851   5.015  0.4544  0.3776  0.3776
 7337SOL     OW24389   1.573   7.667   3.898  1.1229  0.0467  0.0058
 7337SOL    HW124390   1.545   7.703   3.982  0.6558  0.9485 -0.5153
 7337SOL    HW224391   1.668   7.682   3.896  1.3017 -0.9159  0.7975
 7338SOL     OW24392   3.276   2.956   9.818  0.1190  0.3672 -1.1682
 7338SOL    HW124393   3.289   2.967   9.724  1.3261  0.2780 -1.0262
 7338SOL    HW224394   3.295   3.042   9.856  1.8445 -0.1236 -0.8169
 7339SOL     OW24395   8.366   6.532   0.246  0.0235  0.2727 -0.1052
 7339SOL    HW124396   8.426   6.468   0.283  1.4009  0.8427 -1.2575
 7339SOL    HW224397   8.283   6.517   0.292  0.5574 -1.6835  0.3143
 7340SOL     OW24398   6.307   2.997   8.985 -0.0164 -0.2782 -0.3594
 7340SOL    HW124399   6.221   2.981   9.025  0.2777  0.0955  0.4335
 7340SOL    HW224400   6.364   2.932   9.025  0.2122 -0.1279 -0.4452
 7341SOL     OW24401   1.181   7.453   1.863  0.2969  0.3536 -0.6872
 7341SOL    HW124402   1.125   7.376   1.864  0.7673  0.0096 -0.7907
 7341SOL    HW224403   1.122   7.526   1.845 -0.0676 -0.0453 -1.1057
 7342SOL     OW24404   2.437   3.088   8.811  0.0231  0.1056 -0.1800
 7342SOL    HW124405   2.463   3.164   8.758  1.6340  0.4367  0.9853
 7342SOL    HW224406   2.463   3.012   8.759  0.8956  0.4099 -0.2026
 7343SOL     OW24407   4.005   7.542   4.762  0.0786 -0.0436  0.1831
 7343SOL    HW124408   3.920   7.563   4.802  1.1858  1.5529  1.8812
 7343SOL    HW224409   3.986   7.469   4.703 -2.6210  0.8138 -0.1560
 7344SOL     OW24410   1.798   2.873   7.726  0.2157  0.6440  0.2154
 7344SOL    HW124411   1.888   2.843   7.713 -0.4192 -1.7456  0.7504
 7344SOL    HW224412   1.766   2.890   7.638  0.4819 -0.9155 -0.2228
 7345SOL     OW24413   6.274   8.102   3.616  0.0893 -0.1203 -0.0383
 7345SOL    HW124414   6.239   8.174   3.565  0.6646  1.4521  1.6697
 7345SOL    HW224415   6.254   8.125   3.707  0.4696 -2.0193  0.5754
 7346SOL     OW24416   8.024   9.242   6.644 -0.1982 -0.5390  0.4126
 7346SOL    HW124417   8.109   9.282   6.666 -0.5482  0.8583 -0.6566
 7346SOL    HW224418   7.959   9.305   6.673 -0.7763 -0.3660 -1.1334
 7347SOL     OW24419   7.376   9.079  10.408  0.6831  0.4399 -0.4516
 7347SOL    HW124420   7.361   9.171  10.433  2.5998  0.5528  0.5383
 7347SOL    HW224421   7.415   9.040  10.486  0.6897 -1.0201 -1.1523
 7348SOL     OW24422   3.728   7.323   3.619 -0.1139 -0.1118 -0.0441
 7348SOL    HW124423   3.818   7.292   3.628  0.1724  0.7667  0.1982
 7348SOL    HW224424   3.733   7.396   3.559 -0.0624  2.3004  2.6845
 7349SOL     OW24425   3.847   3.880   0.335  0.1537  0.1319  0.4020
 7349SOL    HW124426   3.871   3.878   0.242 -1.4829  0.7066 -0.0740
 7349SOL    HW224427   3.930   3.889   0.381  0.8955  1.5146 -1.0861
 7350SOL     OW24428   8.616   5.238   9.136  0.2099  0.2780  0.7216
 7350SOL    HW124429   8.529   5.221   9.100  0.5547 -1.9573  0.7809
 7350SOL    HW224430   8.611   5.207   9.227  1.2869 -0.7060  0.4693
 7351SOL     OW24431   8.603   6.974   4.282 -0.5914  0.2795 -0.2902
 7351SOL    HW124432   8.545   6.964   4.207 -0.5076 -0.6367 -0.2443
 7351SOL    HW224433   8.551   7.024   4.346 -1.3886 -0.6166 -0.2074
 7352SOL     OW24434   6.779   3.124   4.911 -0.1503 -0.0157  0.3717
 7352SOL    HW124435   6.786   3.134   5.006  2.8913 -0.4661  0.2867
 7352SOL    HW224436   6.772   3.029   4.897  1.1747 -0.0995  0.1329
 7353SOL     OW24437   4.130   8.736  10.511  0.0618 -0.0349  0.2462
 7353SOL    HW124438   4.209   8.763  10.464  1.0074 -0.2693  1.6448
 7353SOL    HW224439   4.088   8.818  10.537  0.5459  0.0894  0.6377
 7354SOL     OW24440   3.948   4.005   9.972 -0.4818  0.0779 -0.1045
 7354SOL    HW124441   3.960   3.918  10.010 -1.8599 -0.6229 -1.1816
 7354SOL    HW224442   4.021   4.014   9.910 -1.4652 -1.2061 -1.5041
 7355SOL     OW24443   7.753   6.018   8.263 -0.0933  0.1510 -0.1347
 7355SOL    HW124444   7.669   5.984   8.293 -1.3530  1.3171 -2.0714
 7355SOL    HW224445   7.818   5.958   8.300 -2.0110 -3.3805 -1.9041
 7356SOL     OW24446   7.782   2.508   3.023 -0.2409 -0.5156 -0.0680
 7356SOL    HW124447   7.778   2.485   2.931 -0.2557 -1.9202  0.2679
 7356SOL    HW224448   7.785   2.604   3.024  0.2216 -0.5027 -1.5285
 7357SOL     OW24449  10.302   6.560   7.859  0.0807 -0.1116 -0.3960
 7357SOL    HW124450  10.375   6.590   7.913 -0.1914 -0.8611  0.4204
 7357SOL    HW224451  10.238   6.630   7.865  0.5615  0.3683 -0.7824
 7358SOL     OW24452   3.486   0.858   6.571 -0.3847  0.0644  0.4556
 7358SOL    HW124453   3.407   0.911   6.569  0.2977  1.1720  1.4704
 7358SOL    HW224454   3.509   0.852   6.663 -2.2594 -4.9086  0.9108
 7359SOL     OW24455   7.032  10.465   3.966 -0.0823 -0.2957  0.2628
 7359SOL    HW124456   7.003  10.427   3.883  0.5949  1.1388 -0.6616
 7359SOL    HW224457   7.119  10.426   3.981  0.4899  0.6416 -0.5389
 7360SOL     OW24458   7.320   3.847   8.739  0.3900 -0.6802 -0.0042
 7360SOL    HW124459   7.363   3.859   8.655 -0.6018 -0.8541 -0.5441
 7360SOL    HW224460   7.316   3.935   8.777  1.3112 -0.6790  0.1078
 7361SOL     OW24461   5.730  10.009   3.390 -0.3816 -0.0888  0.5940
 7361SOL    HW124462   5.707   9.917   3.395  0.8717 -0.3621  1.7044
 7361SOL    HW224463   5.825  10.011   3.386 -0.4170  1.0793 -2.2132
 7362SOL     OW24464   2.428   4.475   3.461 -0.9395 -0.0366  0.1039
 7362SOL    HW124465   2.421   4.387   3.498 -2.2712  0.0360  0.0729
 7362SOL    HW224466   2.462   4.529   3.533 -0.4193 -0.5062  0.2158
 7363SOL     OW24467   5.381   7.585   7.076 -0.8907 -0.5466 -0.0443
 7363SOL    HW124468   5.299   7.553   7.040 -1.6677  0.7392  0.5071
 7363SOL    HW224469   5.368   7.583   7.171 -0.7638  0.8096  0.0214
 7364SOL     OW24470   3.998   4.628   4.250  0.4704  0.1568  0.1965
 7364SOL    HW124471   3.905   4.612   4.267  0.0874  1.8076 -0.2122
 7364SOL    HW224472   4.040   4.613   4.335 -0.5271  1.8481  1.0346
 7365SOL     OW24473   8.397   0.603   2.507 -0.0668  0.1659 -0.0036
 7365SOL    HW124474   8.357   0.653   2.579  0.9579  1.5804 -0.3907
 7365SOL    HW224475   8.484   0.580   2.540 -0.0242 -0.1962 -0.3652
 7366SOL     OW24476   4.581   3.896   6.173 -0.4481  0.5003  0.3132
 7366SOL    HW124477   4.636   3.921   6.099 -1.2844  1.7927  0.1004
 7366SOL    HW224478   4.497   3.940   6.157 -1.1966 -0.5578  1.1775
 7367SOL     OW24479   4.526   3.778   3.786  0.0583 -0.2691  0.4246
 7367SOL    HW124480   4.549   3.714   3.718 -0.4319 -0.5482  0.5174
 7367SOL    HW224481   4.528   3.863   3.741  0.9254 -0.3240  0.3498
 7368SOL     OW24482   1.407   5.122   8.325 -0.1690 -0.1389 -0.0178
 7368SOL    HW124483   1.450   5.036   8.320  0.0273  0.0082 -1.0288
 7368SOL    HW224484   1.378   5.139   8.236  0.9647  1.4445 -0.1144
 7369SOL     OW24485   8.219   5.525   1.015  0.0650 -0.1606  0.7300
 7369SOL    HW124486   8.270   5.506   0.936  0.8760  0.0319  1.1971
 7369SOL    HW224487   8.158   5.594   0.988  0.8763  0.4695  0.4704
 7370SOL     OW24488   8.400   2.646   3.887 -0.1815  0.1273  0.1384
 7370SOL    HW124489   8.397   2.731   3.930  1.3846  1.0214 -1.4013
 7370SOL    HW224490   8.413   2.583   3.959 -2.2874  1.0243  1.3978
 7371SOL     OW24491   3.485   0.784   7.791  0.0153  0.5207  0.0040
 7371SOL    HW124492   3.406   0.824   7.826  1.0615  2.7698 -0.0497
 7371SOL    HW224493   3.463   0.762   7.701 -1.1970 -0.9305  0.6051
 7372SOL     OW24494   3.206   2.058   8.999  0.2678 -0.0546  0.1100
 7372SOL    HW124495   3.228   2.007   8.921 -0.0903 -0.3352  0.1849
 7372SOL    HW224496   3.141   2.004   9.045  0.0176  0.3893  0.2860
 7373SOL     OW24497   8.279   1.542   7.864  0.0669  0.3645 -0.2044
 7373SOL    HW124498   8.277   1.533   7.768 -0.5127  0.3802 -0.1988
 7373SOL    HW224499   8.295   1.453   7.896  1.2229  0.5074 -0.3335
 7374SOL     OW24500   5.716   0.296   8.870  0.3174 -0.2579  0.2105
 7374SOL    HW124501   5.738   0.267   8.781 -1.7081 -0.3071 -0.3467
 7374SOL    HW224502   5.697   0.215   8.917  0.3483 -0.1758  0.3625
 7375SOL     OW24503   8.628   9.092   4.867 -0.7295 -0.3032  0.5617
 7375SOL    HW124504   8.568   9.158   4.902 -0.6201  0.8044 -1.2237
 7375SOL    HW224505   8.710   9.106   4.914 -1.2141 -0.3903  1.4703
 7376SOL     OW24506   5.731   8.630   9.451  0.1135  0.1850  0.0252
 7376SOL    HW124507   5.686   8.702   9.406  1.5298 -0.0619 -1.8927
 7376SOL    HW224508   5.736   8.659   9.542 -0.4639  1.9398 -0.4556
 7377SOL     OW24509   8.447   0.384   7.228 -0.2176  0.0982 -0.2243
 7377SOL    HW124510   8.380   0.387   7.160  2.3292 -0.3742 -2.9588
 7377SOL    HW224511   8.455   0.474   7.258 -1.9493  0.1723  0.1317
 7378SOL     OW24512   6.917   0.987   2.104  0.2688  0.4525 -0.3228
 7378SOL    HW124513   7.011   1.000   2.088  0.5160 -0.6273  0.1415
 7378SOL    HW224514   6.900   1.034   2.185  0.5370  0.1666 -0.1007
 7379SOL     OW24515   7.008   3.399   5.532 -0.2519  0.7584  0.3690
 7379SOL    HW124516   6.993   3.304   5.536 -2.1051  1.0037 -0.1912
 7379SOL    HW224517   7.081   3.408   5.471 -0.3557 -0.2879  0.0586
 7380SOL     OW24518   6.649   7.818   5.582 -0.1096 -0.2553 -0.0934
 7380SOL    HW124519   6.610   7.846   5.500 -0.2323 -1.2347 -0.3828
 7380SOL    HW224520   6.695   7.737   5.561 -0.3734 -0.6707  0.8554
 7381SOL     OW24521  10.059   5.678   1.045 -0.2689 -0.0057 -0.1116
 7381SOL    HW124522  10.021   5.742   0.985 -0.6939  0.3743  0.5575
 7381SOL    HW224523  10.151   5.703   1.051 -0.4714  0.6724  0.3009
 7382SOL     OW24524   0.511   9.648   9.052 -0.1104  0.1067  0.1807
 7382SOL    HW124525   0.592   9.673   9.008 -0.4436  0.0610 -0.4644
 7382SOL    HW224526   0.442   9.666   8.988 -0.8454  2.0991  1.4286
 7383SOL     OW24527   6.445   0.899  10.281  0.2646  0.0893  0.3514
 7383SOL    HW124528   6.351   0.918  10.281  0.3333  0.5116  1.5285
 7383SOL    HW224529   6.480   0.946  10.206  0.0814  2.9007  1.9076
 7384SOL     OW24530   4.778   3.149   2.474  0.6780 -0.7137  0.1409
 7384SOL    HW124531   4.857   3.111   2.511 -0.7560 -1.6868  2.5057
 7384SOL    HW224532   4.760   3.225   2.529  0.1676 -0.2794 -0.6025
 7385SOL     OW24533   2.219   4.176   4.090  0.4379  0.6648  0.4620
 7385SOL    HW124534   2.257   4.102   4.044 -0.9922  0.3157 -0.2311
 7385SOL    HW224535   2.253   4.170   4.179  0.7468 -0.5215  0.2709
 7386SOL     OW24536   8.511   2.861   9.574 -0.9820 -0.0870 -0.3862
 7386SOL    HW124537   8.591   2.910   9.554  0.0720 -1.9385 -0.9983
 7386SOL    HW224538   8.454   2.924   9.618  1.4839  0.8632  1.6968
 7387SOL     OW24539   6.571   5.696   7.754 -0.1709  0.0850  0.3693
 7387SOL    HW124540   6.544   5.622   7.810 -0.2287  0.9222  1.4873
 7387SOL    HW224541   6.489   5.727   7.715 -0.2620  0.0538  0.5315
 7388SOL     OW24542   7.758   3.386   0.444 -0.0145 -0.1693 -0.1341
 7388SOL    HW124543   7.665   3.394   0.464  0.0458 -1.7136  0.8841
 7388SOL    HW224544   7.793   3.475   0.456 -1.0243  0.0685  1.2229
 7389SOL     OW24545  10.404   5.608  10.041  0.4218  0.0549  0.6442
 7389SOL    HW124546  10.499   5.612  10.047  0.3687  0.3116  1.3713
 7389SOL    HW224547  10.383   5.654   9.960  0.8548  0.8995  0.9976
 7390SOL     OW24548   4.166   3.156  10.135 -0.3126 -0.3153  0.7322
 7390SOL    HW124549   4.078   3.122  10.121 -0.4506 -0.2599  1.4235
 7390SOL    HW224550   4.192   3.119  10.220  1.5809 -3.0059 -0.8542
 7391SOL     OW24551   2.657  10.674   2.784  0.1917 -0.1132 -0.1687
 7391SOL    HW124552   2.582  10.723   2.819  0.2074  0.4655 -0.9203
 7391SOL    HW224553   2.617  10.602   2.736  0.1646 -0.7699  0.8166
 7392SOL     OW24554   8.814   2.364   0.759 -0.5124  0.0865  0.1912
 7392SOL    HW124555   8.824   2.359   0.854  1.0134  0.1508  0.0474
 7392SOL    HW224556   8.898   2.395   0.727 -1.3027  0.9723 -1.1225
 7393SOL     OW24557   7.070   5.372   7.663 -0.0675 -0.1941 -0.6865
 7393SOL    HW124558   7.049   5.383   7.755 -0.6094  1.7009 -1.0046
 7393SOL    HW224559   7.164   5.357   7.661 -0.1381 -0.8413  0.1965
 7394SOL     OW24560   3.440   8.226   5.602  0.0260  0.2110  0.4243
 7394SOL    HW124561   3.433   8.153   5.663  0.9739 -0.7791 -0.5998
 7394SOL    HW224562   3.385   8.201   5.528  1.3810 -0.1204 -0.5156
 7395SOL     OW24563   2.445   8.869   0.847  0.0341  0.6698  0.5762
 7395SOL    HW124564   2.361   8.891   0.807 -0.4151 -0.0630  1.0844
 7395SOL    HW224565   2.504   8.940   0.822 -1.0442  1.8069  1.1886
 7396SOL     OW24566   1.697   8.455   7.964 -0.8513 -0.2376  0.3724
 7396SOL    HW124567   1.674   8.511   7.890 -0.3997 -0.3849  0.1137
 7396SOL    HW224568   1.622   8.396   7.973 -0.7677 -0.4424 -0.1927
 7397SOL     OW24569   3.675   9.806   8.863 -0.0833 -0.6013 -0.2608
 7397SOL    HW124570   3.602   9.846   8.911 -0.1293 -0.5630 -0.3615
 7397SOL    HW224571   3.747   9.868   8.872  0.0589 -0.8335  0.1839
 7398SOL     OW24572   7.734   7.893   0.125 -0.1439 -0.9962 -0.6624
 7398SOL    HW124573   7.743   7.798   0.120 -1.2509 -1.0906 -1.0848
 7398SOL    HW224574   7.822   7.926   0.108 -0.1375 -1.8911 -2.5613
 7399SOL     OW24575   9.488   5.732   8.550  0.1740  0.3325 -0.0799
 7399SOL    HW124576   9.438   5.755   8.471  1.9872  0.5732 -1.2044
 7399SOL    HW224577   9.421   5.726   8.619 -1.4482  0.2738 -1.5717
 7400SOL     OW24578  10.038   4.420   9.950 -0.4148 -0.2412  1.0047
 7400SOL    HW124579  10.106   4.360   9.917 -1.3563 -1.0815  0.5496
 7400SOL    HW224580   9.988   4.445   9.872 -0.7428  0.2326  1.3648
 7401SOL     OW24581   7.776   9.494   4.624 -0.8102  0.0355 -0.1432
 7401SOL    HW124582   7.686   9.524   4.636 -0.5935  0.7126 -0.1605
 7401SOL    HW224583   7.818   9.511   4.708 -1.2006 -2.1785  0.5789
 7402SOL     OW24584   5.433   0.070   1.033  0.0331 -0.1851 -0.6935
 7402SOL    HW124585   5.448   0.049   0.941  0.2076 -2.0338 -0.2728
 7402SOL    HW224586   5.484   0.005   1.081 -1.0271 -0.0104  0.7252
 7403SOL     OW24587   9.338   3.813   2.311  0.4061 -0.9905  0.1771
 7403SOL    HW124588   9.264   3.753   2.308 -0.3940 -0.0335 -0.0704
 7403SOL    HW224589   9.302   3.896   2.277  1.8078 -0.7424 -0.7743
 7404SOL     OW24590   3.671   7.028   5.557 -0.1497 -0.6456 -0.2342
 7404SOL    HW124591   3.723   6.979   5.494 -0.0427 -1.3907  0.4215
 7404SOL    HW224592   3.720   7.109   5.571 -0.4279 -0.2432 -1.4696
 7405SOL     OW24593  10.113   2.741   0.793  0.5599  0.0410 -0.2951
 7405SOL    HW124594  10.185   2.804   0.795 -0.0326  0.7220  0.2992
 7405SOL    HW224595  10.154   2.656   0.811  1.1957  0.4306  0.1377
 7406SOL     OW24596   8.584   5.072   3.140 -0.0845  0.2820 -0.1301
 7406SOL    HW124597   8.508   5.130   3.135 -0.3723 -0.0522  0.3216
 7406SOL    HW224598   8.555   4.990   3.101  0.6442  0.7542 -1.7330
 7407SOL     OW24599   4.766   7.945   8.026  0.3315  0.1904  0.5987
 7407SOL    HW124600   4.826   7.999   8.077 -1.4337  0.0002  3.0543
 7407SOL    HW224601   4.820   7.909   7.955  2.7092  1.1908  1.7906
 7408SOL     OW24602   2.992  10.616   4.125 -0.3224  0.6651 -0.7266
 7408SOL    HW124603   3.014  10.709   4.134  0.5250  0.4762 -0.7503
 7408SOL    HW224604   3.043  10.586   4.050  0.9638 -0.2707  0.4593
 7409SOL     OW24605   2.437   5.035   8.236 -0.0105 -0.2956 -0.1758
 7409SOL    HW124606   2.433   5.041   8.141  0.9253 -0.1901 -0.2191
 7409SOL    HW224607   2.517   5.081   8.260  0.1852 -0.9954  0.5942
 7410SOL     OW24608   3.488   1.291   4.344  0.2194  0.3970  0.1015
 7410SOL    HW124609   3.507   1.202   4.375  1.9164  0.4201 -0.7442
 7410SOL    HW224610   3.573   1.335   4.346 -0.0994  1.2001 -2.0042
 7411SOL     OW24611   6.450   0.060   8.952 -0.5707 -0.0457  0.0235
 7411SOL    HW124612   6.463   0.025   9.041 -1.3351  0.8018  0.4795
 7411SOL    HW224613   6.426  -0.017   8.900  1.5530 -0.8697  0.1382
 7412SOL     OW24614   3.243   2.538   0.524 -0.1225  0.6550 -0.0897
 7412SOL    HW124615   3.297   2.460   0.534 -0.0079  0.4068 -2.1953
 7412SOL    HW224616   3.285   2.604   0.579  0.5248 -0.3835  0.6982
 7413SOL     OW24617   9.859  10.413   7.941 -0.4504 -0.4267  0.4799
 7413SOL    HW124618   9.827  10.326   7.964 -0.3649 -0.6975 -0.3934
 7413SOL    HW224619   9.875  10.456   8.025  1.9453 -2.1447  1.0182
 7414SOL     OW24620   3.860   6.451   5.349 -0.4147  0.3264 -0.0797
 7414SOL    HW124621   3.891   6.466   5.260 -0.3839  1.4833  0.1206
 7414SOL    HW224622   3.814   6.530   5.373  0.0950  0.2763  1.1527
 7415SOL     OW24623   1.957   1.682   5.203  0.0420 -0.4694 -0.2442
 7415SOL    HW124624   2.015   1.613   5.170  1.6778  0.1935  1.0779
 7415SOL    HW224625   1.918   1.645   5.282  0.9604  0.0857  0.4948
 7416SOL     OW24626   9.547   2.304   4.868 -0.2594 -0.5725 -0.7718
 7416SOL    HW124627   9.508   2.217   4.861 -2.4055  0.4002 -2.2218
 7416SOL    HW224628   9.544   2.325   4.961  0.1479 -1.9488 -0.4248
 7417SOL     OW24629   8.486   7.829   3.709  0.2454  0.1228 -0.2960
 7417SOL    HW124630   8.463   7.871   3.626  0.9304 -1.7808 -1.5146
 7417SOL    HW224631   8.580   7.815   3.704  0.1813 -0.6898  0.4940
 7418SOL     OW24632   9.284  10.202   4.021 -0.1636 -0.6757 -0.2767
 7418SOL    HW124633   9.296  10.190   3.927  0.8188  2.1261 -0.6045
 7418SOL    HW224634   9.223  10.276   4.028  1.9171  1.0263  1.1653
 7419SOL     OW24635   7.075   6.612   9.810  0.3202  0.0490 -0.4915
 7419SOL    HW124636   7.104   6.703   9.816  1.8908 -0.3908 -1.1089
 7419SOL    HW224637   7.087   6.588   9.719  0.8237 -1.0603 -0.1516
 7420SOL     OW24638   4.097   5.028  10.508  0.2325 -0.0708 -0.3391
 7420SOL    HW124639   4.172   4.972  10.485  1.2903  0.6675  1.1452
 7420SOL    HW224640   4.021   4.970  10.502  0.9034 -0.8675 -1.7803
 7421SOL     OW24641   7.686   5.075   7.574  0.7243  0.1511  0.6474
 7421SOL    HW124642   7.617   5.060   7.510  0.8105 -0.7017  0.7384
 7421SOL    HW224643   7.673   5.165   7.603 -0.5309 -0.0772  0.8693
 7422SOL     OW24644   7.276   2.657   3.975 -0.5241 -0.1532 -0.1745
 7422SOL    HW124645   7.342   2.630   3.912  0.7090  1.1458  0.5294
 7422SOL    HW224646   7.314   2.637   4.060 -2.0428 -1.5981  0.2368
 7423SOL     OW24647   9.865   8.257   2.945  0.3138 -0.1252 -0.6520
 7423SOL    HW124648   9.920   8.195   2.992  0.3982 -0.1742 -0.8147
 7423SOL    HW224649   9.885   8.241   2.852 -0.4797 -0.6279 -0.7519
 7424SOL     OW24650   3.958   3.744   2.635  0.0665  0.4148  0.1009
 7424SOL    HW124651   3.995   3.764   2.549  1.7997 -0.1030  0.6793
 7424SOL    HW224652   3.938   3.830   2.673  1.7648  0.8138  0.1851
 7425SOL     OW24653   4.752   5.708   2.422 -0.0329  0.2659  0.1921
 7425SOL    HW124654   4.812   5.634   2.430 -0.6875 -0.3605 -0.5190
 7425SOL    HW224655   4.665   5.669   2.420 -0.3083  0.7819 -2.8105
 7426SOL     OW24656   1.538   2.389   8.730 -0.1472 -0.1004  0.3306
 7426SOL    HW124657   1.592   2.406   8.807  1.7143  1.4903 -1.2246
 7426SOL    HW224658   1.503   2.475   8.705  1.3048 -0.1032 -1.9745
 7427SOL     OW24659   6.935   3.860   5.564  0.2594 -0.3087 -0.0806
 7427SOL    HW124660   6.920   3.888   5.654 -1.6515 -0.3322 -0.3529
 7427SOL    HW224661   6.885   3.779   5.556 -0.3996  0.2082 -1.4286
 7428SOL     OW24662   0.334   3.627   4.916 -0.3061  0.6001  0.4675
 7428SOL    HW124663   0.359   3.719   4.931  0.9339  0.2150  0.8749
 7428SOL    HW224664   0.414   3.585   4.886 -0.7454 -0.4668  0.7449
 7429SOL     OW24665   1.632   8.194   2.720  0.4882 -0.1098  0.1724
 7429SOL    HW124666   1.645   8.223   2.630 -0.9449 -1.5269 -0.5547
 7429SOL    HW224667   1.710   8.141   2.739  1.2692  0.9977  0.1473
 7430SOL     OW24668   3.601   3.710   8.997  0.1385  0.1999  0.2611
 7430SOL    HW124669   3.619   3.682   9.087 -0.4177  0.3788  0.4332
 7430SOL    HW224670   3.665   3.663   8.944 -1.5772 -2.4794  0.3705
 7431SOL     OW24671   5.962   9.871   4.551  0.2970  0.1881  0.1757
 7431SOL    HW124672   5.939   9.963   4.561  0.4584  0.1847  0.6020
 7431SOL    HW224673   5.928   9.829   4.630  0.6196 -0.0380  0.1987
 7432SOL     OW24674   3.710   6.995   6.068 -0.6778  0.4628 -0.1892
 7432SOL    HW124675   3.628   7.038   6.046 -0.5748  0.1687 -1.1716
 7432SOL    HW224676   3.778   7.059   6.046 -0.3243 -1.0683 -4.3428
 7433SOL     OW24677   1.381   3.057   0.055 -0.0513  0.2255  0.0789
 7433SOL    HW124678   1.423   3.132   0.013 -1.3219  0.3503 -1.0421
 7433SOL    HW224679   1.294   3.054   0.016  0.1988 -2.2456 -0.4295
 7434SOL     OW24680   7.145   0.999   7.973 -0.0882 -0.2080 -0.1216
 7434SOL    HW124681   7.180   0.952   7.897 -1.4494 -0.3676 -0.6751
 7434SOL    HW224682   7.109   0.930   8.029 -0.8044  0.0577 -0.2496
 7435SOL     OW24683   6.946   2.222  10.588 -0.2205  0.1565  0.1390
 7435SOL    HW124684   6.917   2.131  10.591 -2.4751  0.7803 -0.1496
 7435SOL    HW224685   7.040   2.218  10.572  0.1419 -2.1324  2.2468
 7436SOL     OW24686   3.596   2.973   2.156  0.1167  0.4377 -0.0079
 7436SOL    HW124687   3.638   2.979   2.070 -0.0219 -1.1747 -0.2174
 7436SOL    HW224688   3.625   3.052   2.202  2.6310 -0.1030 -0.4776
 7437SOL     OW24689   2.943   4.174   4.078  0.0577  0.0858  0.2379
 7437SOL    HW124690   3.039   4.180   4.074 -0.0715  1.7748 -1.1911
 7437SOL    HW224691   2.918   4.133   3.996 -0.5113  0.8902 -0.0016
 7438SOL     OW24692   8.210   9.485   6.545 -0.0220  0.0746  0.9500
 7438SOL    HW124693   8.188   9.409   6.492 -0.3425  0.6539  0.2297
 7438SOL    HW224694   8.298   9.467   6.578 -0.8689 -1.5023  2.4566
 7439SOL     OW24695  10.006   8.540   1.177 -0.1103  0.2651  0.2395
 7439SOL    HW124696  10.072   8.481   1.140  0.0651  0.7955 -0.3264
 7439SOL    HW224697   9.986   8.601   1.105 -0.3397  0.8427  0.7819
 7440SOL     OW24698   8.925   8.918   4.141 -0.2825 -0.0578 -0.4764
 7440SOL    HW124699   8.989   8.875   4.198 -0.7488  0.2153  0.2705
 7440SOL    HW224700   8.860   8.954   4.201 -0.5058  0.7051 -1.1500
 7441SOL     OW24701   6.127   2.809   1.374 -0.1722 -0.1764 -0.4650
 7441SOL    HW124702   6.116   2.811   1.469 -1.0611 -4.7521 -0.2535
 7441SOL    HW224703   6.038   2.798   1.340  0.3089 -0.3899 -1.7013
 7442SOL     OW24704   7.261   0.456   9.042  0.6867  0.7278  0.3649
 7442SOL    HW124705   7.289   0.464   8.951  1.1293 -0.1766  0.4175
 7442SOL    HW224706   7.325   0.508   9.091 -0.6281  2.8030  0.0029
 7443SOL     OW24707   4.030   4.876   2.882 -0.1545  0.0702 -0.3428
 7443SOL    HW124708   4.053   4.969   2.884 -1.8716  0.5171  0.8606
 7443SOL    HW224709   3.966   4.869   2.811 -1.3374  0.1882  0.6695
 7444SOL     OW24710   1.541   1.031   7.330 -0.0463  0.3244 -0.9293
 7444SOL    HW124711   1.596   1.031   7.408 -1.2981 -1.7199  0.0281
 7444SOL    HW224712   1.590   1.084   7.266  1.6265  0.9586  0.7783
 7445SOL     OW24713   1.765   2.256   1.821 -0.0377  0.5434 -0.7098
 7445SOL    HW124714   1.732   2.323   1.881  0.7048  1.0288 -0.8180
 7445SOL    HW224715   1.771   2.301   1.737  0.3367  0.3042 -0.8156
 7446SOL     OW24716   8.274  10.578   1.335  0.3183  0.0315  0.2492
 7446SOL    HW124717   8.236  10.666   1.335  1.1712  0.4293 -0.6372
 7446SOL    HW224718   8.363  10.591   1.301  0.2642 -1.2477 -0.4338
 7447SOL     OW24719   0.774   3.019   4.072 -0.0068  0.6047  0.5140
 7447SOL    HW124720   0.744   2.929   4.082 -1.5059  1.0712  0.5363
 7447SOL    HW224721   0.853   3.025   4.126  0.6861 -0.9392 -0.2773
 7448SOL     OW24722   5.504   6.632   9.512  0.1476  0.2170  0.9503
 7448SOL    HW124723   5.421   6.655   9.553 -0.7983 -1.2816  0.0013
 7448SOL    HW224724   5.494   6.659   9.421  1.0324  0.7669  1.0074
 7449SOL     OW24725   2.313   1.171   3.049 -0.2626  0.3195 -0.7467
 7449SOL    HW124726   2.368   1.157   2.972  2.5971  2.1671  0.7556
 7449SOL    HW224727   2.254   1.096   3.051  1.8280 -1.5442 -2.8490
 7450SOL     OW24728  10.256   0.662   0.345 -0.5874  0.3611 -0.1342
 7450SOL    HW124729  10.291   0.578   0.375  2.3164  0.6072 -2.3097
 7450SOL    HW224730  10.257   0.656   0.249  0.1980  2.9927 -0.3837
 7451SOL     OW24731   5.731   9.696   7.388 -0.5416  0.0773 -0.2093
 7451SOL    HW124732   5.654   9.640   7.379 -0.2030 -0.5037  0.4609
 7451SOL    HW224733   5.731   9.724   7.479 -0.2146  0.4579 -0.3198
 7452SOL     OW24734   9.399   8.710   0.551  0.0018  0.1225  0.2660
 7452SOL    HW124735   9.455   8.644   0.510  0.0794  0.0486  0.4843
 7452SOL    HW224736   9.459   8.761   0.606  0.5510  2.3781 -2.2130
 7453SOL     OW24737   5.002   1.381   8.572 -0.7889 -0.2801 -0.2203
 7453SOL    HW124738   5.073   1.445   8.580 -0.4249 -0.7056 -0.0060
 7453SOL    HW224739   4.927   1.422   8.616  0.0172 -0.8389  1.7949
 7454SOL     OW24740   5.291   2.154   5.523  0.3882 -0.0736  0.0979
 7454SOL    HW124741   5.225   2.121   5.583 -0.0359 -0.6811 -0.6930
 7454SOL    HW224742   5.243   2.207   5.460  0.3323 -2.1623 -1.6946
 7455SOL     OW24743   7.908   1.786   3.442 -0.6330 -0.4238 -0.0226
 7455SOL    HW124744   7.924   1.721   3.511 -0.4274  0.4601  0.7781
 7455SOL    HW224745   7.946   1.867   3.476  0.5529 -0.2506 -1.7039
 7456SOL     OW24746   8.864   6.263   3.514  0.1488 -0.8768 -0.2780
 7456SOL    HW124747   8.853   6.230   3.603 -2.2808 -3.4366 -1.3734
 7456SOL    HW224748   8.814   6.345   3.512  0.4524 -0.6555  0.7394
 7457SOL     OW24749   4.792  10.650   7.974  0.3012  0.0609  0.0534
 7457SOL    HW124750   4.888  10.654   7.971  0.2823  1.5852  0.6497
 7457SOL    HW224751   4.770  10.677   8.063 -0.7091  0.2716 -0.2506
 7458SOL     OW24752   0.210   1.868   8.187  0.2312 -0.2369  0.0951
 7458SOL    HW124753   0.283   1.807   8.197  0.9334  0.5900  0.1834
 7458SOL    HW224754   0.132   1.813   8.190  0.8541 -1.1559 -0.1357
 7459SOL     OW24755   1.730   2.723   4.339  0.1155 -0.8410  0.0298
 7459SOL    HW124756   1.715   2.814   4.314 -2.5708 -0.9178  1.0038
 7459SOL    HW224757   1.797   2.727   4.407  1.0759  0.2211 -0.9371
 7460SOL     OW24758   6.483   9.272   2.336  0.3596 -0.2349 -0.0899
 7460SOL    HW124759   6.480   9.342   2.401 -2.1891 -1.5511  1.3644
 7460SOL    HW224760   6.405   9.284   2.283 -0.6573 -2.4036  0.7784
 7461SOL     OW24761   5.218   1.464   2.180  0.2124 -0.1328 -0.4063
 7461SOL    HW124762   5.148   1.519   2.216  1.4993  1.0140  0.4369
 7461SOL    HW224763   5.255   1.515   2.109  0.1869 -0.7633 -0.8854
 7462SOL     OW24764   7.373   2.228   6.954  0.3694  0.2985  0.1252
 7462SOL    HW124765   7.281   2.248   6.970 -0.2857 -2.9353  1.1325
 7462SOL    HW224766   7.380   2.225   6.858 -0.8794 -0.4994  0.0280
 7463SOL     OW24767   7.915   2.574   7.407  0.0161 -0.3684  0.1339
 7463SOL    HW124768   7.936   2.499   7.462  0.1773  0.1622  0.8070
 7463SOL    HW224769   7.954   2.553   7.322 -0.6616 -1.4137  0.0683
 7464SOL     OW24770   4.860   0.075   2.608 -0.1772 -0.1925  0.1180
 7464SOL    HW124771   4.920   0.123   2.665  0.2442 -1.1127  0.4762
 7464SOL    HW224772   4.776   0.077   2.654 -0.3938  0.9453 -0.2983
 7465SOL     OW24773   8.676  10.548   4.220  0.0517 -0.0806 -0.3791
 7465SOL    HW124774   8.725  10.616   4.265 -0.1121 -0.5943  0.6066
 7465SOL    HW224775   8.584  10.568   4.238  0.0383 -1.4740  1.3571
 7466SOL     OW24776   0.263   1.100   1.743 -0.4758  0.0248  0.3038
 7466SOL    HW124777   0.291   1.073   1.656 -0.5981 -0.9944  0.5581
 7466SOL    HW224778   0.256   1.195   1.739  1.2021  0.1494 -0.2963
 7467SOL     OW24779   6.188   7.887   7.557 -0.1542 -0.7285 -0.6720
 7467SOL    HW124780   6.117   7.822   7.553 -0.5799 -0.3669  0.5409
 7467SOL    HW224781   6.143   7.971   7.557  0.3057 -0.4811 -0.4214
 7468SOL     OW24782   0.636   0.232   0.867  0.0601 -0.1814 -0.1845
 7468SOL    HW124783   0.629   0.190   0.952 -0.7932 -1.0776 -0.6788
 7468SOL    HW224784   0.671   0.319   0.885  0.3791 -0.5480  1.0174
 7469SOL     OW24785   1.393   9.611   5.631 -0.1675 -0.2807 -0.3320
 7469SOL    HW124786   1.482   9.575   5.633  0.3213  0.8581  1.8207
 7469SOL    HW224787   1.406   9.704   5.615 -0.9722 -0.1186 -0.0506
 7470SOL     OW24788   5.286   6.579   2.819 -0.0726 -0.0939  0.3842
 7470SOL    HW124789   5.253   6.512   2.759  1.6728 -1.0957  0.4914
 7470SOL    HW224790   5.298   6.533   2.902  0.9933  0.3833  0.5119
 7471SOL     OW24791   3.104   7.492   0.728  0.6558 -0.0104  0.1483
 7471SOL    HW124792   3.042   7.546   0.679  0.4210 -0.0747  0.3754
 7471SOL    HW224793   3.157   7.554   0.776  1.6372  0.1254 -1.0505
 7472SOL     OW24794   7.821   3.938   8.569  0.2042 -0.1554 -0.0703
 7472SOL    HW124795   7.848   4.023   8.606  0.1925 -0.3763  0.4515
 7472SOL    HW224796   7.770   3.961   8.491  0.7190  0.3013 -0.2825
 7473SOL     OW24797   5.667   5.526   3.344  0.1497  0.4392 -0.1226
 7473SOL    HW124798   5.637   5.615   3.361 -0.8607  0.1029 -0.1029
 7473SOL    HW224799   5.666   5.482   3.429  1.8282  0.7256  0.0939
 7474SOL     OW24800   3.127   9.377   1.212 -0.7520 -0.1345 -0.1511
 7474SOL    HW124801   3.140   9.466   1.244 -1.1978 -0.0675 -0.1388
 7474SOL    HW224802   3.181   9.322   1.269 -0.2636  0.1546 -0.3313
 7475SOL     OW24803   7.266   3.533   9.125  0.2996  0.0316  0.0441
 7475SOL    HW124804   7.245   3.478   9.049  2.2938 -0.5459 -0.1407
 7475SOL    HW224805   7.253   3.475   9.200 -1.3388  0.5007  0.1537
 7476SOL     OW24806   2.792   7.837   2.822  0.5686  0.1887  0.2652
 7476SOL    HW124807   2.785   7.769   2.889 -0.9077  0.4594  0.4095
 7476SOL    HW224808   2.807   7.918   2.871 -2.0873  0.6474  0.4443
 7477SOL     OW24809   1.843   0.068   2.939  0.2425 -0.1225  0.0412
 7477SOL    HW124810   1.823   0.092   3.030  0.7012  0.2991  0.0392
 7477SOL    HW224811   1.768   0.016   2.911 -1.5597  2.4812 -0.4085
 7478SOL     OW24812   3.689   3.115   4.521 -0.1457 -0.6471 -0.6658
 7478SOL    HW124813   3.623   3.046   4.522 -0.7239 -0.0969  0.2328
 7478SOL    HW224814   3.668   3.169   4.445 -2.1003  0.7970  0.8203
 7479SOL     OW24815  10.073   6.666   1.550  0.2303 -0.4168 -0.0454
 7479SOL    HW124816  10.104   6.756   1.546  0.5076 -0.5354 -0.7954
 7479SOL    HW224817   9.979   6.672   1.565  0.2254  0.0015 -0.2446
 7480SOL     OW24818   6.732   2.083   6.987 -0.5392 -0.2319  0.0924
 7480SOL    HW124819   6.810   2.031   7.003  0.3997  1.1224  0.1186
 7480SOL    HW224820   6.743   2.160   7.044 -1.5390  0.3252 -0.4385
 7481SOL     OW24821   3.930   9.314   6.063 -0.0328  0.5383  0.4903
 7481SOL    HW124822   3.922   9.245   5.998 -0.2530 -1.0633  2.1329
 7481SOL    HW224823   4.023   9.321   6.081  0.0760  1.3280 -0.3174
 7482SOL     OW24824   8.733   5.275   4.073 -0.0718 -0.5649  0.2143
 7482SOL    HW124825   8.643   5.282   4.041  0.2314  0.2622 -0.4653
 7482SOL    HW224826   8.749   5.357   4.119 -0.0321 -1.1728  1.3321
 7483SOL     OW24827   0.009   5.504   1.603 -0.5212  0.0311 -0.4060
 7483SOL    HW124828  -0.046   5.451   1.661  1.5424 -1.6342  0.1797
 7483SOL    HW224829   0.079   5.536   1.660  0.5583 -0.1271 -1.5929
 7484SOL     OW24830   9.227   4.218   8.429 -0.6404 -0.0475  0.0983
 7484SOL    HW124831   9.161   4.154   8.456  0.0111 -0.3292  1.0782
 7484SOL    HW224832   9.228   4.282   8.499 -2.2974  1.8885 -1.5219
 7485SOL     OW24833  10.234   3.233   3.694 -0.6310 -0.3135  0.0149
 7485SOL    HW124834  10.292   3.307   3.711 -1.2341  0.4908 -1.2624
 7485SOL    HW224835  10.152   3.273   3.666 -2.0130 -1.4108  2.2450
 7486SOL     OW24836   1.885   8.431   3.426  0.7107 -0.2957  0.2971
 7486SOL    HW124837   1.913   8.488   3.498  1.0943  1.3848 -1.1178
 7486SOL    HW224838   1.956   8.368   3.416  1.3105  0.3342  0.4917
 7487SOL     OW24839   3.578   0.649   0.927  0.3223 -0.1576  0.4818
 7487SOL    HW124840   3.599   0.736   0.962  0.7346 -0.5531  1.2261
 7487SOL    HW224841   3.646   0.592   0.962 -0.3704 -0.9213  0.6027
 7488SOL     OW24842   0.862   2.663   7.791  0.1710  0.1351  0.2585
 7488SOL    HW124843   0.858   2.607   7.714  0.3645  2.6296 -1.6783
 7488SOL    HW224844   0.930   2.727   7.771 -1.1413  2.0759  1.6205
 7489SOL     OW24845   2.851   7.211  10.463 -0.4257 -0.1839 -1.1280
 7489SOL    HW124846   2.928   7.206  10.520  1.0831  1.6299 -2.8454
 7489SOL    HW224847   2.800   7.284  10.497 -0.2233  0.0342 -1.2870
 7490SOL     OW24848   0.116   8.942   1.476  0.0763  0.1327 -0.3112
 7490SOL    HW124849   0.067   8.974   1.400  0.7582 -0.1534 -0.8886
 7490SOL    HW224850   0.187   9.007   1.487  1.2843 -0.9590 -1.2984
 7491SOL     OW24851   5.247   5.811   2.316  0.5535  0.2910  0.4627
 7491SOL    HW124852   5.306   5.775   2.250 -1.4884 -1.3522 -0.5660
 7491SOL    HW224853   5.261   5.756   2.393 -0.4848 -0.9593 -0.1947
 7492SOL     OW24854   8.137   7.225   4.258  0.9708  0.2227 -0.2066
 7492SOL    HW124855   8.051   7.226   4.216  1.4477 -0.4084 -1.2560
 7492SOL    HW224856   8.123   7.262   4.344 -0.2375  0.6914 -0.5933
 7493SOL     OW24857   9.552   9.987   4.821  0.4536 -0.2176 -0.2577
 7493SOL    HW124858   9.458   9.974   4.831  0.4420  0.2664  0.3691
 7493SOL    HW224859   9.591   9.912   4.866  0.3709  0.7824  1.6195
 7494SOL     OW24860   5.154  10.436  10.032  0.6672  0.0595 -0.1880
 7494SOL    HW124861   5.149  10.393   9.947 -3.9102 -0.0935 -0.0940
 7494SOL    HW224862   5.154  10.529  10.011 -1.1369  0.0411 -0.4917
 7495SOL     OW24863   9.279   7.901   3.122  0.7407  0.1581  0.2994
 7495SOL    HW124864   9.303   7.944   3.205 -0.8434  0.0574  0.8517
 7495SOL    HW224865   9.362   7.874   3.084  1.4500 -1.1835  2.6128
 7496SOL     OW24866   4.019   9.233   5.452  0.2068 -0.1347  0.0619
 7496SOL    HW124867   3.996   9.276   5.370  0.6715  0.5325  0.2672
 7496SOL    HW224868   3.963   9.275   5.518  0.4280 -0.0682  0.2110
 7497SOL     OW24869   5.740   0.619   1.568 -0.2363  0.2888 -0.4750
 7497SOL    HW124870   5.743   0.641   1.661  1.9868 -1.2695 -0.1152
 7497SOL    HW224871   5.691   0.692   1.528 -0.4714  1.4408  1.7561
 7498SOL     OW24872   4.012   2.788   4.181 -0.5433 -0.2851 -0.0938
 7498SOL    HW124873   3.936   2.830   4.223 -0.7584 -1.0669  0.3028
 7498SOL    HW224874   3.977   2.755   4.098 -0.7829 -1.1525  0.3458
 7499SOL     OW24875   6.112   6.532  10.205  0.0581 -0.3256  0.3376
 7499SOL    HW124876   6.064   6.607  10.170  0.7506 -1.1375 -2.6030
 7499SOL    HW224877   6.047   6.461  10.206  0.6585 -1.0034 -2.0982
 7500SOL     OW24878   7.916   9.938   5.359  0.3422  0.0478 -0.0028
 7500SOL    HW124879   7.956  10.025   5.354 -1.3007  0.8354 -0.1525
 7500SOL    HW224880   7.987   9.877   5.337  1.9695  1.2038  1.7187
 7501SOL     OW24881   2.002   3.202   2.826  0.3542 -0.3557  0.0603
 7501SOL    HW124882   2.030   3.213   2.736  0.4586 -1.6485 -0.0834
 7501SOL    HW224883   1.955   3.119   2.827  0.6056 -0.5102  1.2526
 7502SOL     OW24884   2.816   8.646   6.204 -0.1916 -0.1616 -0.0665
 7502SOL    HW124885   2.851   8.560   6.228 -0.2323 -0.0764  0.3116
 7502SOL    HW224886   2.826   8.699   6.283 -3.4343 -0.8283  0.9334
 7503SOL     OW24887   4.135   7.284   2.329  0.0798  0.0886  0.0031
 7503SOL    HW124888   4.082   7.208   2.306  2.6994 -1.9601  0.2924
 7503SOL    HW224889   4.216   7.273   2.279  1.1880  1.8326  1.2748
 7504SOL     OW24890   8.225   0.881   2.586  0.6398  0.5428 -0.1071
 7504SOL    HW124891   8.138   0.851   2.558  1.8075 -1.7907 -1.6641
 7504SOL    HW224892   8.245   0.827   2.662  0.6804  1.1664  0.3255
 7505SOL     OW24893   3.979   0.935   5.682  0.0644 -0.1411  0.1227
 7505SOL    HW124894   4.007   0.847   5.708  2.5977  0.1083 -1.4545
 7505SOL    HW224895   3.969   0.982   5.764  2.6786 -0.8157  0.9141
 7506SOL     OW24896   3.322   8.950   2.113  0.4829  0.4149 -0.1720
 7506SOL    HW124897   3.234   8.982   2.131 -0.0122 -0.1142 -1.5232
 7506SOL    HW224898   3.354   8.920   2.198 -1.7418 -2.0427 -0.0433
 7507SOL     OW24899   7.528   5.146   0.162  0.5510 -0.3311 -0.0330
 7507SOL    HW124900   7.520   5.114   0.072 -0.5139 -1.3994  0.4025
 7507SOL    HW224901   7.622   5.150   0.178  0.7760  0.6079 -1.4292
 7508SOL     OW24902   1.976   8.304   6.434  0.4071  0.7269  0.0617
 7508SOL    HW124903   2.027   8.231   6.468 -1.7490 -0.5049  0.8940
 7508SOL    HW224904   1.962   8.283   6.342  0.7287  0.6826  0.0217
 7509SOL     OW24905   6.564   4.473   8.049 -0.1174  0.2442 -0.3082
 7509SOL    HW124906   6.497   4.535   8.079 -1.5182 -0.3956 -1.9217
 7509SOL    HW224907   6.518   4.416   7.987  1.4706 -1.5176  0.0464
 7510SOL     OW24908   8.541   1.376   9.609 -0.2925 -0.1107 -0.0836
 7510SOL    HW124909   8.511   1.294   9.648  0.6199 -1.7149 -2.4755
 7510SOL    HW224910   8.461   1.425   9.591 -0.7771  0.2512  2.6856
 7511SOL     OW24911   9.414   3.234   5.979 -0.2500  0.2971 -0.4446
 7511SOL    HW124912   9.437   3.208   6.069  0.6745  0.7679 -0.5355
 7511SOL    HW224913   9.411   3.329   5.982 -0.3850  0.3080 -0.8764
 7512SOL     OW24914   8.801   7.066   5.257  0.5217  0.0777 -0.3998
 7512SOL    HW124915   8.765   7.092   5.172  0.9289  0.2724 -0.5143
 7512SOL    HW224916   8.787   6.972   5.261 -1.3542  0.3322  0.2011
 7513SOL     OW24917   4.002  10.219   5.347 -0.2771  0.2963 -0.0108
 7513SOL    HW124918   3.908  10.232   5.336 -0.3570 -0.5248 -0.3631
 7513SOL    HW224919   4.041  10.274   5.279 -0.4830  0.8201  0.2845
 7514SOL     OW24920   2.432   4.772   4.355 -0.2312 -0.1274  0.5405
 7514SOL    HW124921   2.437   4.848   4.412 -2.2516 -0.0246  0.6488
 7514SOL    HW224922   2.409   4.700   4.413  2.1450 -1.0018  0.5216
 7515SOL     OW24923   0.784   8.239   3.079 -0.7754 -0.0423 -0.0194
 7515SOL    HW124924   0.775   8.251   2.985 -0.7973 -0.3934 -0.0636
 7515SOL    HW224925   0.707   8.284   3.116  0.0558  1.4867 -0.0505
 7516SOL     OW24926   7.296  10.226   8.994 -0.6289 -0.0398 -0.3065
 7516SOL    HW124927   7.362  10.253   8.930 -0.9631  1.9556  0.1190
 7516SOL    HW224928   7.253  10.151   8.954  1.0589 -0.6130 -1.1349
 7517SOL     OW24929   5.541   1.317   4.055 -0.1346  0.3468 -0.2752
 7517SOL    HW124930   5.466   1.318   4.115 -1.9309  1.4514 -2.4040
 7517SOL    HW224931   5.588   1.236   4.078 -1.3934  0.1245  1.7890
 7518SOL     OW24932   7.939  10.630   9.009 -0.2138 -0.2334  0.1555
 7518SOL    HW124933   7.993  10.580   8.947 -0.3211  0.9129 -0.9071
 7518SOL    HW224934   7.849  10.603   8.989 -0.2796  0.4208 -0.4846
 7519SOL     OW24935   9.597   1.051   1.332 -0.2356 -0.5088 -0.1406
 7519SOL    HW124936   9.596   1.095   1.417  0.3662  1.1675 -0.9679
 7519SOL    HW224937   9.688   1.023   1.320 -0.2632 -0.5123 -0.3485
 7520SOL     OW24938   5.426   9.816   9.729  0.3236 -0.1950  0.2450
 7520SOL    HW124939   5.400   9.776   9.647  0.0828  0.5444 -0.0516
 7520SOL    HW224940   5.360   9.884   9.744 -0.2612 -1.0203  1.5950
 7521SOL     OW24941   3.481   0.177   7.861 -0.4871 -0.1480  0.3322
 7521SOL    HW124942   3.450   0.202   7.948 -1.0688 -0.2417  0.1574
 7521SOL    HW224943   3.575   0.162   7.872 -0.5461 -0.1018  0.9274
 7522SOL     OW24944   5.999   4.718   7.002  0.2393 -0.4693  0.0798
 7522SOL    HW124945   6.004   4.633   7.046 -3.1454 -0.3803  0.8942
 7522SOL    HW224946   6.002   4.782   7.073 -0.3646 -0.0844 -0.2322
 7523SOL     OW24947   0.112  10.286   5.750  0.1891  0.4201 -0.1756
 7523SOL    HW124948   0.056  10.208   5.759  0.8926 -0.4445 -2.5291
 7523SOL    HW224949   0.200  10.254   5.768  0.3869  0.9005 -0.2847
 7524SOL     OW24950   2.800  10.402   1.941  0.3107 -0.0070  0.8134
 7524SOL    HW124951   2.718  10.373   1.901  0.2767  1.7584 -0.5115
 7524SOL    HW224952   2.774  10.437   2.026 -0.3293  0.4507  0.4438
 7525SOL     OW24953   6.563   4.215  10.142 -0.0539  0.5972  0.2179
 7525SOL    HW124954   6.559   4.259  10.057 -1.5550  0.4938  0.2118
 7525SOL    HW224955   6.635   4.152  10.132 -1.9649 -1.4959 -2.0722
 7526SOL     OW24956  10.230   0.502   4.845 -0.5352  0.0561  0.1356
 7526SOL    HW124957  10.316   0.528   4.812 -0.5935  0.1659  0.0684
 7526SOL    HW224958  10.249   0.440   4.915 -0.4193 -0.3343 -0.2412
 7527SOL     OW24959   6.649   4.355   6.242  0.0056  0.0135  0.3268
 7527SOL    HW124960   6.683   4.423   6.301  2.5563  0.7046 -1.7448
 7527SOL    HW224961   6.586   4.401   6.187  1.4545  0.6963 -0.8268
 7528SOL     OW24962   9.751   9.952   3.654  0.0902 -0.1872  0.5392
 7528SOL    HW124963   9.808  10.019   3.618  0.8075 -1.6015 -1.0939
 7528SOL    HW224964   9.699   9.922   3.580 -2.8371  1.0132  1.9461
 7529SOL     OW24965   6.674   8.791   5.846  0.5211  0.0731 -0.2844
 7529SOL    HW124966   6.756   8.825   5.812  0.9755  0.0921  0.8078
 7529SOL    HW224967   6.619   8.778   5.768  0.8125  1.9855 -0.8593
 7530SOL     OW24968  10.546   0.961   8.758 -0.0187  0.1066  0.3053
 7530SOL    HW124969  10.540   0.928   8.669  0.1948 -0.3500  0.4554
 7530SOL    HW224970  10.479   1.029   8.763  0.3524  0.5258 -0.3669
 7531SOL     OW24971   7.196   9.447   8.992  0.6513  0.5384 -0.0308
 7531SOL    HW124972   7.257   9.389   8.947  1.1787  0.5830  0.5995
 7531SOL    HW224973   7.250   9.522   9.019 -0.0052  1.2848 -0.7663
 7532SOL     OW24974   1.956   0.269   4.671 -0.2310 -0.1945  0.8592
 7532SOL    HW124975   1.985   0.324   4.599  1.6735 -0.7187  1.1732
 7532SOL    HW224976   1.923   0.189   4.629  2.4448 -1.2195  0.5402
 7533SOL     OW24977   5.295   2.632   1.679 -0.4281  0.0687 -0.0260
 7533SOL    HW124978   5.270   2.652   1.769 -0.2500  0.1547  0.0074
 7533SOL    HW224979   5.216   2.646   1.628 -0.5184  0.0631  0.1127
 7534SOL     OW24980   1.809   2.984   8.199 -0.0719 -0.0753  0.1591
 7534SOL    HW124981   1.868   3.052   8.168 -0.9726  0.2570 -0.8596
 7534SOL    HW224982   1.819   2.912   8.137 -1.9327  0.6196 -1.0277
 7535SOL     OW24983   5.916   5.128   8.213 -0.0787 -0.2274  0.4889
 7535SOL    HW124984   5.864   5.070   8.158  0.1957 -1.4697  1.4960
 7535SOL    HW224985   6.006   5.114   8.183 -0.1868  1.1008 -0.5170
 7536SOL     OW24986   9.500   6.660   8.239  0.4976  0.2333 -0.3982
 7536SOL    HW124987   9.481   6.729   8.302  0.1413  0.1410 -0.4032
 7536SOL    HW224988   9.453   6.584   8.272 -1.3303  0.6757 -1.7894
 7537SOL     OW24989   0.356   2.807   3.336 -0.3692 -0.1108  0.3386
 7537SOL    HW124990   0.334   2.867   3.407 -2.0683  0.7464 -0.8195
 7537SOL    HW224991   0.377   2.865   3.262  1.7726 -0.9653  0.2103
 7538SOL     OW24992   3.601   9.000   4.042  0.2469 -0.0936 -0.0147
 7538SOL    HW124993   3.613   8.934   4.111 -1.2780 -2.4181 -1.8123
 7538SOL    HW224994   3.684   9.001   3.995  0.6277  0.0661  0.6417
 7539SOL     OW24995   5.477   1.731   3.091 -0.3074  0.2538 -0.2433
 7539SOL    HW124996   5.382   1.727   3.094 -0.3589  1.5651  0.2113
 7539SOL    HW224997   5.500   1.817   3.125  1.0846 -0.2864  0.3021
 7540SOL     OW24998   4.194   9.347   7.334 -0.6708 -0.5333  0.4777
 7540SOL    HW124999   4.135   9.423   7.338 -0.7401 -0.6376  1.8259
 7540SOL    HW225000   4.263   9.374   7.273 -0.2020  1.0030  1.6133
 7541SOL     OW25001   6.964   8.763  10.383  0.1311 -0.2661 -0.2015
 7541SOL    HW125002   7.027   8.824  10.344  0.5588 -1.0702 -0.8034
 7541SOL    HW225003   6.879   8.792  10.348  0.0425  1.2027  1.0975
 7542SOL     OW25004   9.512   7.476  10.635  0.2824  0.0350  0.0398
 7542SOL    HW125005   9.581   7.539  10.615  0.3975  0.2056  0.9325
 7542SOL    HW225006   9.557   7.404  10.678 -0.1581  0.3903  1.1261
 7543SOL     OW25007   0.436  10.411   1.906 -0.5356 -0.2816  0.0185
 7543SOL    HW125008   0.473  10.460   1.832  0.2162 -1.4109 -0.3929
 7543SOL    HW225009   0.402  10.331   1.866 -1.1188 -0.4082  0.7583
 7544SOL     OW25010   4.665   5.643   7.871  0.6194  0.2611 -0.3225
 7544SOL    HW125011   4.742   5.647   7.927 -0.0048 -1.1143  0.6856
 7544SOL    HW225012   4.595   5.682   7.923  0.0242 -1.0736 -0.0839
 7545SOL     OW25013   9.379   8.435  10.401  0.0706  0.1413  0.4170
 7545SOL    HW125014   9.324   8.387  10.463  1.3842 -0.6808  0.9976
 7545SOL    HW225015   9.381   8.525  10.435 -1.8773  0.5003 -0.3115
 7546SOL     OW25016   6.349   8.083   6.892  1.1091 -0.0168  0.1515
 7546SOL    HW125017   6.322   8.000   6.932  1.0723 -0.6618 -1.1890
 7546SOL    HW225018   6.433   8.103   6.934  0.7391 -0.3118  1.0527
 7547SOL     OW25019   7.422   5.891   4.906  0.0820  0.0659  0.1893
 7547SOL    HW125020   7.400   5.840   4.984 -0.6493  0.4410  0.2343
 7547SOL    HW225021   7.381   5.843   4.834 -0.9250  0.7769  0.2757
 7548SOL     OW25022   2.043  10.193   2.637  0.0383 -0.0891 -0.8115
 7548SOL    HW125023   1.967  10.250   2.631  0.5219  0.6603 -0.0790
 7548SOL    HW225024   2.022  10.131   2.707  0.1530  0.1988 -0.5224
 7549SOL     OW25025  10.648   0.898   5.973 -0.5354  0.0813  0.1352
 7549SOL    HW125026  10.574   0.932   5.923 -0.8039 -1.3343 -0.4577
 7549SOL    HW225027  10.718   0.886   5.908 -0.1271  0.3914  0.5069
 7550SOL     OW25028   0.606   3.050  10.209 -0.1032  0.1930  0.1994
 7550SOL    HW125029   0.582   3.069  10.119  0.3655 -0.7045 -0.1330
 7550SOL    HW225030   0.525   3.023  10.252 -0.2735  0.3474 -0.0288
 7551SOL     OW25031   8.807   3.383   3.733  0.2878  0.4279 -0.0404
 7551SOL    HW125032   8.818   3.473   3.765  0.0867  0.8845 -1.1981
 7551SOL    HW225033   8.848   3.384   3.646  0.7098 -0.7333  0.1389
 7552SOL     OW25034   7.413   9.804  10.779 -0.1728  0.5131 -0.0839
 7552SOL    HW125035   7.324   9.827  10.805  0.2989  1.8808  0.3999
 7552SOL    HW225036   7.425   9.848  10.695  0.3665  1.1601  0.3209
 7553SOL     OW25037   3.168   2.995   3.164 -0.4668 -0.3708  0.1998
 7553SOL    HW125038   3.221   3.006   3.085  1.0001 -0.7736  1.0892
 7553SOL    HW225039   3.080   3.022   3.137 -0.2346 -1.4240 -1.8281
 7554SOL     OW25040  10.050   4.960   8.770 -0.4610  0.9448 -0.1824
 7554SOL    HW125041  10.040   4.933   8.679 -1.9349  0.9426 -0.0471
 7554SOL    HW225042  10.118   5.027   8.767  2.1490 -1.5448 -0.7371
 7555SOL     OW25043   2.692   3.997  10.471  0.4363  0.4611 -0.1373
 7555SOL    HW125044   2.742   3.947  10.535 -0.2251 -0.5654 -0.4012
 7555SOL    HW225045   2.662   4.074  10.518 -2.5485 -1.6691  1.7140
 7556SOL     OW25046   5.640   3.979   0.717 -0.3843  0.1521 -0.0669
 7556SOL    HW125047   5.716   4.029   0.689 -0.1453  0.2769  0.7686
 7556SOL    HW225048   5.572   3.999   0.653  0.8803 -1.6190 -2.1066
 7557SOL     OW25049   8.670   3.645   3.187  0.0918 -0.3443  0.2127
 7557SOL    HW125050   8.734   3.710   3.157 -0.9012  0.7949  0.4823
 7557SOL    HW225051   8.587   3.693   3.191 -0.7367 -1.7188  0.1362
 7558SOL     OW25052   0.078   1.768   4.702  0.3190  0.1588 -0.2274
 7558SOL    HW125053   0.034   1.740   4.621 -0.5592  0.3892  0.1568
 7558SOL    HW225054   0.029   1.724   4.771  0.9543  0.1061  0.1925
 7559SOL     OW25055   1.303   7.272   5.647  0.1255  0.2366 -0.3496
 7559SOL    HW125056   1.283   7.297   5.737  1.7913  1.5242 -0.2777
 7559SOL    HW225057   1.220   7.284   5.600 -1.0806 -1.5519  1.1654
 7560SOL     OW25058   1.882   7.849   7.751 -0.0388 -0.1981  0.2050
 7560SOL    HW125059   1.907   7.919   7.812 -0.0764 -0.0760  0.0812
 7560SOL    HW225060   1.914   7.769   7.792  1.6688  0.0622 -0.5483
 7561SOL     OW25061   8.727   1.137   1.807 -0.1917 -0.1390  0.2945
 7561SOL    HW125062   8.744   1.046   1.831  0.9551  0.3005  1.2676
 7561SOL    HW225063   8.791   1.156   1.738 -1.2068 -0.3851 -0.7526
 7562SOL     OW25064   9.864   5.351   3.625  0.6373 -0.1391 -0.6177
 7562SOL    HW125065   9.854   5.373   3.718  0.8787  1.5435 -0.9555
 7562SOL    HW225066   9.915   5.270   3.625  0.2397 -0.4145  0.7215
 7563SOL     OW25067   7.402   8.465   6.468 -0.4261 -0.4390  0.1330
 7563SOL    HW125068   7.450   8.544   6.445  0.3260 -0.6337  0.9443
 7563SOL    HW225069   7.339   8.493   6.535 -0.7946 -0.3640 -0.2385
 7564SOL     OW25070  10.505   6.967   3.963 -0.3735  0.1402  0.1875
 7564SOL    HW125071  10.490   6.882   3.920 -1.5319 -0.2066  1.2083
 7564SOL    HW225072  10.599   6.970   3.978 -0.3481 -1.0973  0.3666
 7565SOL     OW25073   8.255   4.451   2.796  0.2729 -0.4069 -0.7259
 7565SOL    HW125074   8.336   4.404   2.817  0.2399  0.4890  1.7371
 7565SOL    HW225075   8.278   4.544   2.805 -1.0889 -0.1469  0.4353
 7566SOL     OW25076  10.000   0.534   0.654  0.4885  0.1454 -0.0767
 7566SOL    HW125077   9.978   0.580   0.573  0.3524  1.7280  0.8343
 7566SOL    HW225078   9.970   0.444   0.638  0.7789  0.3231 -1.9028
 7567SOL     OW25079   2.198   5.153   8.352 -0.0394 -0.6084 -0.5290
 7567SOL    HW125080   2.285   5.130   8.318  0.5732  0.6992  0.0911
 7567SOL    HW225081   2.194   5.110   8.437  1.0010  1.2504  0.5156
 7568SOL     OW25082   3.759   0.825   4.025 -0.0521  0.0601 -0.3369
 7568SOL    HW125083   3.768   0.834   4.119 -0.8287  0.1500 -0.2668
 7568SOL    HW225084   3.744   0.914   3.993  0.7229  0.1021 -0.6121
 7569SOL     OW25085   3.619   5.642   5.158  0.2096 -0.0445 -0.2711
 7569SOL    HW125086   3.533   5.602   5.174  0.8500 -1.2748  0.1648
 7569SOL    HW225087   3.676   5.606   5.226  0.9128  1.3343 -0.0913
 7570SOL     OW25088  10.411   9.961   9.225  0.5569 -0.1827  0.0139
 7570SOL    HW125089  10.374   9.883   9.184  0.3556 -0.1951  0.2178
 7570SOL    HW225090  10.373  10.034   9.177  0.6160 -0.2059 -0.0683
 7571SOL     OW25091   6.314   1.182   9.497  0.1858 -0.2390 -0.1696
 7571SOL    HW125092   6.319   1.086   9.499 -1.5507 -0.3611  0.0096
 7571SOL    HW225093   6.289   1.206   9.586  1.8960  0.5134  0.1440
 7572SOL     OW25094  10.481   3.757   1.389  0.0437 -0.1256  0.7172
 7572SOL    HW125095  10.564   3.714   1.407 -0.0626 -0.4544  0.4344
 7572SOL    HW225096  10.416   3.701   1.432 -0.0960 -0.2555  0.3387
 7573SOL     OW25097   9.540   6.947   1.138  0.0730  0.0307  0.1218
 7573SOL    HW125098   9.481   7.022   1.124 -0.0842  0.1701  1.4407
 7573SOL    HW225099   9.534   6.930   1.232  0.6315 -1.2148 -0.0639
 7574SOL     OW25100   5.168   1.861   4.929  0.0697 -0.7793  0.2941
 7574SOL    HW125101   5.221   1.861   5.009 -1.4203 -1.4763  1.3433
 7574SOL    HW225102   5.140   1.952   4.919  0.1429 -0.7118  0.6637
 7575SOL     OW25103   5.050   0.052   3.973 -0.3390 -0.6269 -0.0015
 7575SOL    HW125104   5.076  -0.038   3.955 -0.8593 -0.6706 -0.5758
 7575SOL    HW225105   5.067   0.098   3.891  0.7458 -0.0039  0.5521
 7576SOL     OW25106   4.418   7.448   9.512 -0.3070 -0.0174 -0.0318
 7576SOL    HW125107   4.397   7.540   9.529 -1.9850 -0.4956  0.6572
 7576SOL    HW225108   4.467   7.420   9.589  2.1986  0.8381 -1.2098
 7577SOL     OW25109   5.366   5.742   0.621  0.0330  0.5031  0.3716
 7577SOL    HW125110   5.461   5.742   0.627  0.0589 -0.6593  0.1456
 7577SOL    HW225111   5.343   5.834   0.611  1.2094  0.7032 -0.7407
 7578SOL     OW25112  10.685   3.801  10.546  0.2656  0.7142  0.3120
 7578SOL    HW125113  10.729   3.770  10.624 -0.9035 -1.0776  0.3227
 7578SOL    HW225114  10.729   3.756  10.474  0.0784  0.8390  0.1160
 7579SOL     OW25115  10.763   1.268   0.953 -0.3482 -0.4092  0.5930
 7579SOL    HW125116  10.756   1.205   0.881 -0.3925  1.1923 -0.8774
 7579SOL    HW225117  10.689   1.248   1.009 -0.6808 -1.3007 -0.1310
 7580SOL     OW25118   9.965   3.956   9.365  0.0468  0.1773 -0.3661
 7580SOL    HW125119   9.969   3.860   9.368  2.9645  0.2022  0.4220
 7580SOL    HW225120  10.010   3.984   9.445  0.5235  2.1701 -1.2676
 7581SOL     OW25121   9.888   8.762   8.141 -0.0813  0.7565  0.2431
 7581SOL    HW125122   9.919   8.731   8.226  0.0847 -0.2918 -0.1908
 7581SOL    HW225123   9.922   8.852   8.136 -0.0080  0.8023  1.2293
 7582SOL     OW25124   3.881   5.719   0.456 -0.0715  0.2160  0.1002
 7582SOL    HW125125   3.845   5.734   0.369 -0.1028  0.8350  0.2104
 7582SOL    HW225126   3.891   5.624   0.462 -0.9682  0.0868 -0.2185
 7583SOL     OW25127   8.102   3.482   4.034  0.0970  0.4939  0.2652
 7583SOL    HW125128   8.026   3.423   4.027  0.2455 -0.0756  2.6092
 7583SOL    HW225129   8.113   3.495   4.128  1.5309  2.4130 -0.1188
 7584SOL     OW25130   4.319  10.342   9.374 -0.5785 -0.5538 -0.1743
 7584SOL    HW125131   4.280  10.309   9.455 -2.6693 -0.5617 -1.1205
 7584SOL    HW225132   4.249  10.392   9.332  0.9795  0.9037 -1.1795
 7585SOL     OW25133   9.733   2.050   3.537 -0.5684 -0.5067  0.2272
 7585SOL    HW125134   9.700   2.027   3.449 -2.5153  1.1749  0.4501
 7585SOL    HW225135   9.759   1.966   3.575  0.8347 -1.2271 -2.1215
 7586SOL     OW25136   4.054   6.661   1.527 -0.2879 -0.3137 -0.0841
 7586SOL    HW125137   4.090   6.629   1.444  0.7143 -0.2625  0.3076
 7586SOL    HW225138   3.960   6.667   1.513 -0.2091 -1.0238 -0.9752
 7587SOL     OW25139   6.828   2.838   1.130 -0.4007  0.1858 -0.5532
 7587SOL    HW125140   6.813   2.910   1.069  0.7434 -0.0699 -1.1817
 7587SOL    HW225141   6.924   2.836   1.141 -0.5474 -0.0440  0.9298
 7588SOL     OW25142   2.808   5.916   1.993 -0.2051  0.0422  0.1523
 7588SOL    HW125143   2.824   5.921   1.899  0.1398  0.6545  0.2393
 7588SOL    HW225144   2.782   5.825   2.008 -1.0456  0.1301 -0.6521
 7589SOL     OW25145  10.555  10.313   7.381 -0.0663 -0.1513 -0.0837
 7589SOL    HW125146  10.504  10.380   7.427  1.5004  1.6862 -0.8875
 7589SOL    HW225147  10.567  10.348   7.293  1.1489 -1.3094 -0.4220
 7590SOL     OW25148  10.576   4.312   9.240  0.3035  0.1240 -0.0959
 7590SOL    HW125149  10.540   4.399   9.221 -0.6499 -0.2828 -0.1593
 7590SOL    HW225150  10.575   4.267   9.156  1.5773  0.3105 -0.2382
 7591SOL     OW25151   5.334   6.807   6.724  0.7481  0.4839 -0.2055
 7591SOL    HW125152   5.287   6.808   6.641  0.7471 -1.0818 -0.2537
 7591SOL    HW225153   5.401   6.740   6.714 -1.9453 -2.9764  2.3784
 7592SOL     OW25154   7.565   1.898   9.130  0.0073 -0.1263 -0.0114
 7592SOL    HW125155   7.643   1.949   9.108 -0.2275  0.3140  0.1710
 7592SOL    HW225156   7.531   1.870   9.045  0.5664 -0.6399 -0.0781
 7593SOL     OW25157   9.592   6.320   3.136  0.0219  0.6097  0.3188
 7593SOL    HW125158   9.683   6.292   3.128 -0.5323 -1.5979  0.9104
 7593SOL    HW225159   9.577   6.376   3.060  1.8417  0.9769  0.1858
 7594SOL     OW25160   2.944   8.720   5.503 -0.2081 -0.3781 -0.1639
 7594SOL    HW125161   2.934   8.778   5.428  2.7603  0.5992  0.0773
 7594SOL    HW225162   3.033   8.735   5.534 -0.2921 -2.9907  1.7015
 7595SOL     OW25163   3.226   8.381   3.585 -0.5139  0.4198 -0.1051
 7595SOL    HW125164   3.241   8.287   3.583 -1.3795  0.2618  0.1702
 7595SOL    HW225165   3.237   8.409   3.495  0.7391  0.2278 -0.0232
 7596SOL     OW25166   3.477   3.635  10.399 -0.2692  0.5866  0.4917
 7596SOL    HW125167   3.494   3.546  10.430  0.0009  0.4352 -0.0763
 7596SOL    HW225168   3.390   3.631  10.361 -0.7281  0.8465  1.4884
 7597SOL     OW25169   9.882   5.616   7.030 -0.2645  0.8577  0.1553
 7597SOL    HW125170   9.905   5.707   7.052  1.4114  0.9169 -1.6151
 7597SOL    HW225171   9.912   5.565   7.105  2.0174  1.4189 -0.2984
 7598SOL     OW25172  10.159   0.425   4.164  0.2334 -0.4065 -0.7908
 7598SOL    HW125173  10.231   0.473   4.205  1.3781 -2.2659 -0.5006
 7598SOL    HW225174  10.143   0.472   4.082  1.0137  0.7117 -0.3265
 7599SOL     OW25175   2.653   5.790   2.941 -0.4887  0.1477 -0.6193
 7599SOL    HW125176   2.648   5.697   2.920 -2.1790  0.6115 -2.6616
 7599SOL    HW225177   2.588   5.802   3.010 -0.3695 -0.1573 -0.4509
 7600SOL     OW25178   1.358   2.239  10.610 -0.4977 -0.1346  0.1994
 7600SOL    HW125179   1.433   2.181  10.596 -2.6026 -2.4735 -2.8552
 7600SOL    HW225180   1.292   2.182  10.650 -1.0889  1.5452  1.7238
 7601SOL     OW25181   3.851   0.012   6.502  0.5996  0.0952  0.4660
 7601SOL    HW125182   3.765  -0.019   6.528  1.3497 -2.0751  0.5564
 7601SOL    HW225183   3.847   0.107   6.513 -1.5240 -0.0344  1.1613
 7602SOL     OW25184   2.031  10.021   8.550  0.5638 -0.0150  0.3076
 7602SOL    HW125185   2.085   9.960   8.500  2.4785  0.5946  1.4780
 7602SOL    HW225186   2.072  10.022   8.637 -1.1506  0.7877  1.1477
 7603SOL     OW25187   6.789   4.595   2.775  0.3694  0.5571  0.0116
 7603SOL    HW125188   6.744   4.642   2.845 -1.3231 -0.0968 -0.5955
 7603SOL    HW225189   6.828   4.664   2.721  1.5576  1.0743  1.4617
 7604SOL     OW25190   8.734   1.177   0.579  0.3055 -0.5326  0.3883
 7604SOL    HW125191   8.681   1.206   0.505 -1.0449 -0.9858  1.1484
 7604SOL    HW225192   8.694   1.218   0.655  2.3356  0.8186  0.8136
 7605SOL     OW25193   1.637   8.543   6.523 -0.3398  0.2866  0.1475
 7605SOL    HW125194   1.555   8.498   6.544 -1.1196  1.6769  0.2048
 7605SOL    HW225195   1.614   8.636   6.520  0.9660  0.6119 -1.1446
 7606SOL     OW25196   8.186   5.229   1.883 -0.0866  0.4187 -0.2818
 7606SOL    HW125197   8.187   5.310   1.832 -1.2881  0.6411  0.0181
 7606SOL    HW225198   8.262   5.235   1.940 -0.8925  1.9870  0.7000
 7607SOL     OW25199   3.364   5.401   7.582  0.6993 -0.1228  0.2670
 7607SOL    HW125200   3.454   5.431   7.596  0.7611 -0.9768  1.9516
 7607SOL    HW225201   3.325   5.401   7.669 -0.3809 -1.4746 -0.1880
 7608SOL     OW25202   2.503   3.299   2.521 -0.0274  0.3441  0.2047
 7608SOL    HW125203   2.484   3.383   2.480  0.2880  0.3992  0.1693
 7608SOL    HW225204   2.578   3.316   2.578  0.6010 -0.1068 -0.4685
 7609SOL     OW25205   6.518   0.423   2.496 -0.2081 -0.4080  0.1571
 7609SOL    HW125206   6.526   0.416   2.401  1.4878 -0.6074  0.2955
 7609SOL    HW225207   6.424   0.411   2.513 -0.7784  1.2443 -1.5919
 7610SOL     OW25208   1.424   8.099   7.640 -0.0586 -0.0852 -0.1169
 7610SOL    HW125209   1.356   8.045   7.601 -0.4137  2.1941 -2.9918
 7610SOL    HW225210   1.502   8.082   7.587  0.4745  0.4323  0.4758
 7611SOL     OW25211  10.170   7.828   0.565 -0.1572  0.1636  0.3852
 7611SOL    HW125212  10.085   7.798   0.598  0.0242 -0.3686  0.3665
 7611SOL    HW225213  10.149   7.903   0.509 -0.6167  0.0112  0.3538
 7612SOL     OW25214   3.831  10.484  10.414 -0.1962  0.3495 -0.6894
 7612SOL    HW125215   3.821  10.430  10.493  0.1337 -0.0289 -0.9010
 7612SOL    HW225216   3.865  10.423  10.348  1.1013  1.0387 -0.6682
 7613SOL     OW25217   7.422   8.707   1.275 -0.3457 -0.1899 -0.4120
 7613SOL    HW125218   7.404   8.623   1.317  0.6353  0.1386  0.7175
 7613SOL    HW225219   7.502   8.692   1.225 -1.1611 -0.4020 -1.7276
 7614SOL     OW25220   8.461   3.095   5.098 -0.2243  0.1048  0.1703
 7614SOL    HW125221   8.529   3.150   5.136 -0.6465 -0.2044  1.4117
 7614SOL    HW225222   8.391   3.156   5.075 -0.3098  0.2006  0.6741
 7615SOL     OW25223   6.673   8.542   7.301  0.4934 -0.3739 -0.8803
 7615SOL    HW125224   6.603   8.478   7.315  1.7880 -1.7367 -0.3025
 7615SOL    HW225225   6.713   8.517   7.218  1.9975 -1.3395  0.0932
 7616SOL     OW25226  10.171   0.361   6.710 -0.2542 -0.5459 -0.8272
 7616SOL    HW125227  10.216   0.300   6.651 -0.7868 -0.3947 -1.3951
 7616SOL    HW225228  10.158   0.440   6.659 -0.7016 -0.4034 -0.5038
 7617SOL     OW25229  10.155  10.441   0.427  0.1610  0.0008 -0.4008
 7617SOL    HW125230  10.078  10.384   0.435  0.2223  0.1750  1.9383
 7617SOL    HW225231  10.126  10.514   0.373 -1.9324  0.9820  1.8843
 7618SOL     OW25232   4.198   6.264   5.182 -0.3241 -0.2105 -0.2978
 7618SOL    HW125233   4.198   6.169   5.192 -1.6155 -0.3948 -1.7635
 7618SOL    HW225234   4.262   6.295   5.247  0.8279 -2.1202 -0.4541
 7619SOL     OW25235   0.542   8.162   1.084  0.2140  0.3405 -0.4917
 7619SOL    HW125236   0.544   8.118   1.168  0.2190 -0.0115 -0.6753
 7619SOL    HW225237   0.454   8.200   1.079 -0.1845 -0.5976 -0.8128
 7620SOL     OW25238   9.900   8.526   4.839  0.2508 -0.7178 -0.0604
 7620SOL    HW125239   9.969   8.471   4.876  0.4231  1.2266  2.9415
 7620SOL    HW225240   9.942   8.574   4.768  1.8028 -0.2918  1.0883
 7621SOL     OW25241   3.311   1.452   5.052  0.6614 -0.5391  0.0848
 7621SOL    HW125242   3.377   1.425   5.116  1.7129  0.2816 -0.6041
 7621SOL    HW225243   3.356   1.518   4.999 -1.4455  1.8214  1.0488
 7622SOL     OW25244   5.150   4.919   6.701  0.3409  0.9249 -0.0500
 7622SOL    HW125245   5.235   4.950   6.732  1.4103  0.3989 -2.2654
 7622SOL    HW225246   5.130   4.975   6.626 -1.4421  1.2447  0.6391
 7623SOL     OW25247   2.692   6.189   9.155 -0.1990 -0.6333 -0.6644
 7623SOL    HW125248   2.718   6.248   9.225 -1.4666  1.0268 -1.5194
 7623SOL    HW225249   2.772   6.175   9.104  0.1152  0.3766 -0.4589
 7624SOL     OW25250   1.201  10.773   0.389 -0.4464  0.2372 -0.1476
 7624SOL    HW125251   1.287  10.755   0.350 -0.6069  1.4522 -1.1290
 7624SOL    HW225252   1.189  10.704   0.454  0.7153 -0.6942 -0.8832
 7625SOL     OW25253   1.693   4.645   5.462 -0.1740  0.4048  0.4031
 7625SOL    HW125254   1.775   4.681   5.428  0.0419  0.1701  0.6774
 7625SOL    HW225255   1.698   4.656   5.556  1.2133 -2.9843  0.8517
 7626SOL     OW25256   5.897   5.345   7.739 -0.2197 -0.2082  0.2790
 7626SOL    HW125257   5.851   5.419   7.699  0.5522 -0.4777 -1.1872
 7626SOL    HW225258   5.946   5.383   7.812  0.7148  0.8721 -0.8721
 7627SOL     OW25259   4.876   0.624   4.601 -0.1892  0.2799 -0.0659
 7627SOL    HW125260   4.963   0.629   4.562  0.8302 -0.6395  1.9058
 7627SOL    HW225261   4.846   0.535   4.581  0.2851 -0.1515  1.0581
 7628SOL     OW25262   5.558   0.932   7.090  0.2126  0.4437  0.2291
 7628SOL    HW125263   5.496   0.944   7.162 -0.6238 -0.5663 -0.2941
 7628SOL    HW225264   5.502   0.925   7.012  1.0205  0.1192 -0.3347
 7629SOL     OW25265   7.314   6.310   0.914  0.0323 -0.2329  0.0669
 7629SOL    HW125266   7.368   6.375   0.960  0.5110 -0.4577 -0.1726
 7629SOL    HW225267   7.368   6.231   0.914 -0.6273 -0.6867  0.5224
 7630SOL     OW25268   7.833   8.661   5.415  0.1703  0.0536 -0.4194
 7630SOL    HW125269   7.894   8.624   5.478  1.0495  0.2288 -1.1391
 7630SOL    HW225270   7.838   8.603   5.339 -0.6296  0.0258 -0.4615
 7631SOL     OW25271   4.617   8.203   8.096 -0.3734  0.2272  0.7431
 7631SOL    HW125272   4.620   8.170   8.006 -0.7039  0.9710  0.4571
 7631SOL    HW225273   4.681   8.274   8.098  1.4097 -1.3150  1.7428
 7632SOL     OW25274   4.733   6.924   8.793  0.9961  0.2537  0.3517
 7632SOL    HW125275   4.763   6.963   8.711  0.8793 -1.0115 -0.3082
 7632SOL    HW225276   4.653   6.877   8.771 -0.1941  1.5625  1.6172
 7633SOL     OW25277   7.711   2.518   5.198 -0.0154 -0.1996  0.3128
 7633SOL    HW125278   7.731   2.425   5.192  0.5585  0.0150 -2.8781
 7633SOL    HW225279   7.615   2.522   5.205 -0.0083 -0.9969  1.0085
 7634SOL     OW25280   0.512   8.216   4.486  0.5910  1.1050  0.3605
 7634SOL    HW125281   0.520   8.306   4.455  1.8280  0.8876  0.0106
 7634SOL    HW225282   0.597   8.176   4.467  0.8999  0.5404  2.6632
 7635SOL     OW25283   0.959   7.324   7.864 -0.1078  0.3773 -0.6582
 7635SOL    HW125284   1.034   7.376   7.895 -0.6310  1.0231 -0.4537
 7635SOL    HW225285   0.999   7.246   7.825  0.6861  0.8088 -0.7376
 7636SOL     OW25286   6.850   3.074   0.999 -0.0367 -0.2717 -0.3340
 7636SOL    HW125287   6.905   3.125   0.941  2.2653 -0.6990  1.3383
 7636SOL    HW225288   6.852   3.122   1.082 -0.3201 -1.5015  0.4125
 7637SOL     OW25289   8.912   0.193   0.991 -0.3642 -0.6552 -0.3327
 7637SOL    HW125290   8.915   0.286   0.971 -0.8172  0.0446  2.4630
 7637SOL    HW225291   9.004   0.170   1.008 -0.3660 -0.4516 -0.0318
 7638SOL     OW25292   0.419   2.505   5.935 -0.7255  0.3636 -0.2996
 7638SOL    HW125293   0.340   2.489   5.885 -0.3003  1.3454 -1.3280
 7638SOL    HW225294   0.413   2.597   5.961 -0.4895  0.1224  0.6618
 7639SOL     OW25295   3.345   5.986   2.155 -0.2698 -0.1382 -0.0118
 7639SOL    HW125296   3.403   5.913   2.174 -0.5322  0.0337  1.6574
 7639SOL    HW225297   3.404   6.057   2.127  0.1292 -0.5385 -0.1904
 7640SOL     OW25298   6.422  10.755   4.765  0.3115  0.6669 -0.0588
 7640SOL    HW125299   6.356  10.798   4.819  1.5642  1.0748  1.2002
 7640SOL    HW225300   6.480  10.825   4.737  0.1847  0.3276 -1.2373
 7641SOL     OW25301   2.987   6.742   6.455  0.2275  0.4649 -0.3238
 7641SOL    HW125302   3.030   6.659   6.478 -1.0781 -0.0454  0.4183
 7641SOL    HW225303   2.978   6.740   6.360  0.5298 -0.0748 -0.3433
 7642SOL     OW25304  10.782   2.969   2.060 -0.5809  0.4184  0.1243
 7642SOL    HW125305  10.749   2.880   2.074 -0.6558  0.1010 -1.7399
 7642SOL    HW225306  10.708   3.026   2.084 -1.2250 -0.1266 -0.5185
 7643SOL     OW25307   7.735  10.053   5.816  0.0699  0.3759  0.1248
 7643SOL    HW125308   7.791  10.018   5.746  0.7761 -0.5302  1.1081
 7643SOL    HW225309   7.738  10.147   5.803 -1.9504  0.1744 -2.6665
 7644SOL     OW25310   4.532   4.135   3.143  0.4115  0.4459 -0.0003
 7644SOL    HW125311   4.445   4.144   3.104  0.3429 -2.3083 -0.6781
 7644SOL    HW225312   4.532   4.048   3.182  2.5440  0.7814  0.8834
 7645SOL     OW25313   3.343   2.027   8.092  0.1760  0.5496  0.2084
 7645SOL    HW125314   3.301   1.990   8.014 -2.0110  1.4169  0.9156
 7645SOL    HW225315   3.396   2.099   8.059 -1.0353  1.1590 -0.4721
 7646SOL     OW25316   7.543   1.663   5.318  0.1728  0.0838  0.1443
 7646SOL    HW125317   7.541   1.706   5.233  0.2132  0.5784  0.3900
 7646SOL    HW225318   7.514   1.730   5.380 -1.7283 -0.8089  0.2939
 7647SOL     OW25319   9.256   9.912   2.645  0.0092 -0.6629  0.5130
 7647SOL    HW125320   9.162   9.912   2.628 -0.4763  1.4219  2.6555
 7647SOL    HW225321   9.289   9.988   2.596  0.6329 -1.4104 -0.2652
 7648SOL     OW25322   5.195   1.346   3.974 -0.0817  0.1844  0.1974
 7648SOL    HW125323   5.126   1.392   3.927  0.0442  1.2938  1.0686
 7648SOL    HW225324   5.239   1.294   3.906 -1.7326 -0.5600 -0.3809
 7649SOL     OW25325   9.795   8.726   2.681  0.1331 -0.4414  0.1636
 7649SOL    HW125326   9.719   8.770   2.642  0.1125  0.0644  0.7575
 7649SOL    HW225327   9.864   8.792   2.680  0.1854 -0.4851  0.8123
 7650SOL     OW25328   3.904   9.709   1.182 -0.1816 -0.0752  0.1976
 7650SOL    HW125329   3.811   9.690   1.178  0.1000 -1.7299  0.7903
 7650SOL    HW225330   3.922   9.724   1.275  0.5434 -2.2637  0.4726
 7651SOL     OW25331   6.067   9.415   8.251 -0.2831 -0.2310  0.2213
 7651SOL    HW125332   5.990   9.358   8.248 -0.2833 -0.2200  0.0050
 7651SOL    HW225333   6.127   9.377   8.187  0.1645 -0.6330  0.8630
 7652SOL     OW25334   7.274   2.570   5.386 -0.1468  0.3890  0.7831
 7652SOL    HW125335   7.257   2.478   5.407 -2.8832  0.9530  1.3883
 7652SOL    HW225336   7.334   2.600   5.455  1.3037 -1.0421  0.2108
 7653SOL     OW25337   0.075   2.147  10.234  0.7568  0.3230  0.0682
 7653SOL    HW125338   0.018   2.114  10.164  1.9983  0.6300 -1.1325
 7653SOL    HW225339   0.047   2.099  10.312 -1.3214  0.6743 -0.4103
 7654SOL     OW25340   6.770   9.894   9.368  0.3318  0.0248  0.2509
 7654SOL    HW125341   6.809   9.981   9.359 -0.9005  0.3593 -3.0868
 7654SOL    HW225342   6.829   9.836   9.318 -0.4773 -0.4859 -0.1319
 7655SOL     OW25343   5.126   6.792   2.540  0.1551  0.4945  0.8261
 7655SOL    HW125344   5.172   6.815   2.620  1.1226 -0.5646  0.6065
 7655SOL    HW225345   5.122   6.696   2.541  0.1897  0.4583 -0.3908
 7656SOL     OW25346   4.629   2.845   1.263 -0.2767 -0.1870  0.2487
 7656SOL    HW125347   4.646   2.929   1.305 -2.4448 -0.3346  1.5991
 7656SOL    HW225348   4.615   2.867   1.171  0.5070  0.7377  0.3367
 7657SOL     OW25349   4.544   3.622   4.498  0.0468 -0.2939  0.4816
 7657SOL    HW125350   4.472   3.601   4.438 -0.0164  0.1373  0.4049
 7657SOL    HW225351   4.501   3.667   4.571  0.2278 -0.0930  0.4646
 7658SOL     OW25352  10.353   0.288   2.750 -0.1961  0.0067 -0.0879
 7658SOL    HW125353  10.394   0.223   2.808 -0.1645  0.1201  0.0177
 7658SOL    HW225354  10.277   0.319   2.799 -3.2679 -3.5835 -2.0986
 7659SOL     OW25355   8.575   6.911   9.431  0.0181  0.0778  0.6058
 7659SOL    HW125356   8.492   6.957   9.443 -0.3016 -0.6680  1.3235
 7659SOL    HW225357   8.640   6.968   9.473  0.0405  1.1180 -0.7607
 7660SOL     OW25358   3.639   0.024   4.756  0.1649 -0.2050  0.3359
 7660SOL    HW125359   3.702  -0.043   4.732 -1.3046 -2.4604  2.3447
 7660SOL    HW225360   3.688   0.085   4.811  1.1689 -0.4631 -0.2519
 7661SOL     OW25361   6.605   8.543   2.559 -0.0865  0.4370 -0.6173
 7661SOL    HW125362   6.632   8.457   2.526  0.0080  0.3836 -0.4014
 7661SOL    HW225363   6.687   8.591   2.571  0.0178 -0.0834  1.0480
 7662SOL     OW25364   8.718   7.275   0.101 -0.0025 -0.3873  0.0419
 7662SOL    HW125365   8.643   7.328   0.076 -0.1100 -0.2587  0.6382
 7662SOL    HW225366   8.682   7.207   0.158  0.4393  0.1245  0.9562
 7663SOL     OW25367   2.630   1.185   4.777 -0.0042  0.0532 -0.6675
 7663SOL    HW125368   2.618   1.226   4.692  1.4429  0.0879 -0.8690
 7663SOL    HW225369   2.618   1.256   4.840 -0.1136  0.2333 -0.8919
 7664SOL     OW25370   0.046   9.124   0.710 -0.2033  0.4063  0.6069
 7664SOL    HW125371   0.101   9.046   0.721 -0.6411 -0.0237 -0.0757
 7664SOL    HW225372   0.087   9.172   0.639 -0.5732  0.1947  0.2425
 7665SOL     OW25373   6.715   6.221   0.385 -0.3386  0.0718  0.7068
 7665SOL    HW125374   6.669   6.271   0.453 -0.1992  0.2798  0.6496
 7665SOL    HW225375   6.791   6.184   0.429  0.2942  1.0250  0.4399
 7666SOL     OW25376   8.394   2.321   3.177 -0.9302  0.4882 -0.5788
 7666SOL    HW125377   8.361   2.287   3.093 -0.4986  0.2672 -0.6619
 7666SOL    HW225378   8.460   2.257   3.204 -1.1599  0.4920 -0.0014
 7667SOL     OW25379   9.287   6.554   3.556 -0.2918  0.3912  0.3127
 7667SOL    HW125380   9.235   6.584   3.481 -1.0930 -2.5729 -0.4306
 7667SOL    HW225381   9.233   6.574   3.632 -1.9911 -1.3907 -0.3480
 7668SOL     OW25382   6.180   3.724   7.172  0.0975  0.4427  0.5794
 7668SOL    HW125383   6.276   3.724   7.168  0.0919 -0.9177 -0.1591
 7668SOL    HW225384   6.153   3.661   7.105 -1.3598  1.5557  0.0516
 7669SOL     OW25385   0.976   5.396  10.243  0.2789 -0.4822  0.1908
 7669SOL    HW125386   1.060   5.428  10.210 -0.1918  0.9262  0.3040
 7669SOL    HW225387   0.929   5.368  10.164  1.1147 -2.0063  0.1909
 7670SOL     OW25388   8.510  10.512   3.610 -0.1487 -0.3202 -0.0541
 7670SOL    HW125389   8.604  10.512   3.630 -0.5218 -0.4041  1.9364
 7670SOL    HW225390   8.481  10.600   3.635 -0.2303  0.5576 -2.9230
 7671SOL     OW25391   9.533   8.936   0.712  0.2803 -0.8151  0.2169
 7671SOL    HW125392   9.624   8.906   0.707  0.2727 -0.8982  0.5440
 7671SOL    HW225393   9.524   8.973   0.800  0.0983 -0.4722  0.0558
 7672SOL     OW25394   4.593   1.579   5.489  0.0811  0.4156 -0.6396
 7672SOL    HW125395   4.512   1.562   5.442  1.3875 -0.6218 -2.6270
 7672SOL    HW225396   4.569   1.571   5.581 -2.4481  1.9740 -1.0523
 7673SOL     OW25397   4.088   3.523   4.581 -0.1389 -0.3742 -0.0412
 7673SOL    HW125398   4.142   3.479   4.646 -0.9866 -0.9291  0.3175
 7673SOL    HW225399   4.059   3.603   4.624  0.1305 -0.2382 -0.1127
 7674SOL     OW25400  10.623   2.368   2.049 -0.0154  0.3812 -0.1141
 7674SOL    HW125401  10.546   2.369   1.991 -1.3448 -2.4769  1.3686
 7674SOL    HW225402  10.686   2.312   2.004  0.3386  0.9551 -0.3380
 7675SOL     OW25403   1.586   7.659   4.356  0.9449 -0.0265 -0.1773
 7675SOL    HW125404   1.561   7.682   4.446  0.6439  4.1902 -1.1030
 7675SOL    HW225405   1.674   7.695   4.346  0.8204 -0.0929 -1.6765
 7676SOL     OW25406   1.989   1.544   4.341 -0.3068 -0.2779 -0.1759
 7676SOL    HW125407   2.002   1.557   4.246  0.0705 -0.2765 -0.1248
 7676SOL    HW225408   1.901   1.508   4.348 -0.3779 -0.1808 -0.5220
 7677SOL     OW25409   0.458   1.960   3.217  0.4145  0.1811 -0.7436
 7677SOL    HW125410   0.419   1.971   3.303  1.2433 -0.4190 -0.2692
 7677SOL    HW225411   0.409   2.019   3.160  0.5245  1.3588  0.3468
 7678SOL     OW25412   1.925   3.526   4.599  0.2093 -0.1705  0.2331
 7678SOL    HW125413   2.010   3.505   4.560 -0.0268  0.3872 -0.6090
 7678SOL    HW225414   1.919   3.621   4.592 -0.8084 -0.2710 -0.4351
 7679SOL     OW25415   8.120   0.016   6.726  0.5664  0.1981  0.1777
 7679SOL    HW125416   8.041   0.070   6.724  0.9538  0.7700 -1.9288
 7679SOL    HW225417   8.185   0.067   6.679  2.0189 -0.5710  1.2747
 7680SOL     OW25418   3.134   1.790  10.104  0.0771 -0.4692  0.1981
 7680SOL    HW125419   3.214   1.789  10.052  0.3841  0.1237  0.6481
 7680SOL    HW225420   3.063   1.783  10.040  0.4490  0.0796 -0.2862
 7681SOL     OW25421   1.186  10.679   4.550  0.1948  0.3027  0.1893
 7681SOL    HW125422   1.255  10.614   4.568 -1.8493 -1.9415  0.4466
 7681SOL    HW225423   1.147  10.697   4.636 -0.0803  0.9217 -0.0627
 7682SOL     OW25424   0.739   1.159   2.833 -0.2891 -0.5033 -0.0031
 7682SOL    HW125425   0.707   1.193   2.750  0.2607 -0.5262 -0.2247
 7682SOL    HW225426   0.666   1.105   2.866 -0.8199  0.1526 -0.0705
 7683SOL     OW25427   5.783   5.256  10.094 -0.2609  0.5560 -0.3627
 7683SOL    HW125428   5.721   5.325  10.118 -0.2443  0.2728  0.5670
 7683SOL    HW225429   5.738   5.205  10.027 -1.6352 -0.4556  1.2378
 7684SOL     OW25430   7.168   9.287   4.564  0.3350  0.4265 -0.1993
 7684SOL    HW125431   7.178   9.192   4.571  0.7863  0.4435 -0.5100
 7684SOL    HW225432   7.253   9.317   4.532  0.0614  0.8867 -0.5125
 7685SOL     OW25433   1.083   5.968   1.355  0.2471  0.0275 -0.0544
 7685SOL    HW125434   1.051   5.898   1.413  1.2263 -0.1527  0.2806
 7685SOL    HW225435   1.065   5.935   1.267 -0.2908 -0.1638  0.1196
 7686SOL     OW25436   5.785   2.624   1.155  0.0225  0.7497 -0.1587
 7686SOL    HW125437   5.754   2.535   1.168  0.0514  0.4952 -1.6026
 7686SOL    HW225438   5.837   2.644   1.233 -0.4139 -0.3051  0.4100
 7687SOL     OW25439   8.811   1.278   6.285 -0.4701  0.3654  0.3872
 7687SOL    HW125440   8.738   1.219   6.265 -1.3898  1.1131  1.3882
 7687SOL    HW225441   8.769   1.358   6.318  0.8125  0.3240  2.2779
 7688SOL     OW25442  10.631   2.924   0.361 -0.2143 -0.2361 -0.1853
 7688SOL    HW125443  10.550   2.964   0.393  0.4052  2.5295 -1.7726
 7688SOL    HW225444  10.697   2.992   0.370  1.5738 -1.8327 -0.5610
 7689SOL     OW25445   6.045   9.476   9.360  0.4430 -0.7033 -0.1106
 7689SOL    HW125446   6.035   9.571   9.357  3.8089 -0.2344 -0.3934
 7689SOL    HW225447   6.003   9.449   9.441  1.7384  1.4461  1.3706
 7690SOL     OW25448   7.341   9.954   6.101 -0.0892  0.1088  0.3484
 7690SOL    HW125449   7.361  10.048   6.097  0.2298  0.0301 -0.0507
 7690SOL    HW225450   7.427   9.912   6.094 -0.2578 -0.2163  0.2409
 7691SOL     OW25451   9.587   0.614   5.671 -0.0181 -0.6983 -0.0226
 7691SOL    HW125452   9.630   0.565   5.600  0.2456  1.6301 -1.5979
 7691SOL    HW225453   9.659   0.644   5.726 -0.1429 -1.5432  0.6357
 7692SOL     OW25454   6.530   7.771   6.119  0.1090 -0.2710  0.0450
 7692SOL    HW125455   6.564   7.796   6.033 -2.1886 -1.3495 -1.2659
 7692SOL    HW225456   6.603   7.727   6.162  0.7383 -1.5192 -2.1768
 7693SOL     OW25457   3.104   3.806   5.335  0.0848 -0.0360  0.0953
 7693SOL    HW125458   3.169   3.874   5.320 -0.0380  0.4532  1.6349
 7693SOL    HW225459   3.021   3.853   5.341  0.1860 -0.0497  2.7853
 7694SOL     OW25460   3.588   8.928   6.147 -0.1352 -0.1252 -0.1128
 7694SOL    HW125461   3.629   9.014   6.145  0.7849 -0.5576 -0.2704
 7694SOL    HW225462   3.661   8.866   6.140 -0.6542 -0.9493  1.3304
 7695SOL     OW25463   8.868   0.171   9.690  0.0471 -0.1924 -0.0770
 7695SOL    HW125464   8.876   0.167   9.594  1.3822  1.2245 -0.0639
 7695SOL    HW225465   8.797   0.233   9.706  0.0481 -0.1706 -0.1541
 7696SOL     OW25466   4.158   4.300   8.323  0.2598  0.8012 -0.2953
 7696SOL    HW125467   4.071   4.338   8.315  0.3235  1.5535  1.7794
 7696SOL    HW225468   4.214   4.355   8.268 -0.2938  1.4042 -0.2606
 7697SOL     OW25469   9.851   4.388   5.528 -0.0009 -0.5964 -0.5429
 7697SOL    HW125470   9.887   4.306   5.494  2.0123 -0.5769  1.3162
 7697SOL    HW225471   9.834   4.370   5.621  1.9204  1.4672  0.2960
 7698SOL     OW25472   2.404   8.539   5.539 -0.4139  0.0448 -0.6888
 7698SOL    HW125473   2.374   8.458   5.499 -0.4561  0.3713 -1.3347
 7698SOL    HW225474   2.499   8.539   5.526 -0.1656 -0.7568  0.9262
 7699SOL     OW25475   7.177   9.116   1.693 -0.6427  0.1035 -0.0502
 7699SOL    HW125476   7.108   9.144   1.753 -0.9308  0.0266 -0.3384
 7699SOL    HW225477   7.146   9.145   1.607  0.2432  1.1051 -0.0478
 7700SOL     OW25478   8.392   3.946   5.639 -0.9319 -0.4407  0.0118
 7700SOL    HW125479   8.308   3.993   5.636 -1.4170 -1.1054  1.5992
 7700SOL    HW225480   8.377   3.867   5.588 -1.0032 -0.1817 -0.3741
 7701SOL     OW25481   6.263   3.645   3.468  0.5447 -0.0918 -0.3007
 7701SOL    HW125482   6.215   3.597   3.401  1.6954  1.6130 -2.5002
 7701SOL    HW225483   6.330   3.584   3.499  2.8771  0.2756 -4.0013
 7702SOL     OW25484   4.205  10.104   6.428 -0.0447  0.3615 -0.5520
 7702SOL    HW125485   4.246  10.096   6.342 -0.1456 -2.5210 -0.4383
 7702SOL    HW225486   4.119  10.141   6.410 -0.3407 -0.8562 -1.8417
 7703SOL     OW25487  10.689   2.740  10.420 -0.4003 -0.0403  0.2970
 7703SOL    HW125488  10.647   2.805  10.478  1.6889  0.0124  1.8702
 7703SOL    HW225489  10.775   2.726  10.459 -0.4401 -3.1443 -0.4887
 7704SOL     OW25490   8.963  10.319   2.480 -0.6636 -0.0090  0.0057
 7704SOL    HW125491   9.040  10.286   2.433 -1.4902 -1.9984 -0.0425
 7704SOL    HW225492   8.918  10.240   2.511 -2.5225  1.1138  0.3145
 7705SOL     OW25493   4.714   7.620   7.765  0.9240 -0.1966 -0.4310
 7705SOL    HW125494   4.788   7.675   7.791  0.0466  0.6942  0.2292
 7705SOL    HW225495   4.726   7.606   7.671  0.8636  1.6156 -0.7395
 7706SOL     OW25496   9.376   0.867  10.641 -0.3851  0.7887 -0.2759
 7706SOL    HW125497   9.465   0.857  10.605  0.4171 -1.2081  1.9479
 7706SOL    HW225498   9.384   0.935  10.707 -0.8507  1.5105 -0.9470
 7707SOL     OW25499   5.652   2.886   3.532  0.1719  0.1108 -0.6060
 7707SOL    HW125500   5.729   2.856   3.580 -0.5019 -1.2219 -0.2957
 7707SOL    HW225501   5.647   2.827   3.456 -2.0617 -1.7397  0.8263
 7708SOL     OW25502  10.052   4.400   0.026 -0.1027 -0.1615  0.5349
 7708SOL    HW125503  10.044   4.408  -0.069  1.0981 -2.8821  0.1234
 7708SOL    HW225504   9.994   4.327   0.049  1.1791 -0.8984  1.5697
 7709SOL     OW25505   1.254   1.507   2.615  0.1655 -0.1839  0.4035
 7709SOL    HW125506   1.202   1.569   2.667  0.8555  1.1762 -0.4620
 7709SOL    HW225507   1.324   1.479   2.674 -0.7179 -0.9737  1.1308
 7710SOL     OW25508   4.243   0.139   7.411  0.0547 -0.2064 -0.1140
 7710SOL    HW125509   4.255   0.114   7.503  4.4003 -0.6382 -0.5904
 7710SOL    HW225510   4.274   0.064   7.362  0.7061  1.1479 -1.8643
 7711SOL     OW25511   5.355   4.356   7.523 -0.1437  0.1795  0.5085
 7711SOL    HW125512   5.392   4.435   7.484 -1.5444  0.6008 -0.0259
 7711SOL    HW225513   5.262   4.375   7.531 -1.0122 -2.4030 -2.1405
 7712SOL     OW25514   9.722   2.103   6.115  0.0965  0.0185  0.6490
 7712SOL    HW125515   9.715   2.053   6.034  0.3123  0.9652  0.0289
 7712SOL    HW225516   9.812   2.136   6.116 -0.3623  1.3216  0.4722
 7713SOL     OW25517  10.684   2.696   8.673 -0.0553 -0.2247 -0.1270
 7713SOL    HW125518  10.766   2.728   8.710 -0.5325 -0.3351  1.0408
 7713SOL    HW225519  10.694   2.601   8.670  0.2804 -0.1774 -1.0409
 7714SOL     OW25520   3.502   0.134   5.255  0.0429 -0.1360 -0.0809
 7714SOL    HW125521   3.571   0.097   5.310 -0.1897 -0.3745  0.0507
 7714SOL    HW225522   3.547   0.157   5.173  0.5949  1.1085  0.5387
 7715SOL     OW25523   6.889   7.036   1.642 -0.3954 -0.6726  0.3210
 7715SOL    HW125524   6.834   7.086   1.583 -0.6288 -0.1598  0.9602
 7715SOL    HW225525   6.954   6.994   1.585 -2.1038 -2.2082 -0.5968
 7716SOL     OW25526   6.342   4.598   8.120  0.1693  0.1464 -0.2956
 7716SOL    HW125527   6.334   4.569   8.211 -2.0444  0.4655 -0.3358
 7716SOL    HW225528   6.252   4.602   8.088  0.9070 -0.4598 -2.6851
 7717SOL     OW25529   8.744   2.135   7.888 -0.1883 -0.0722 -0.0513
 7717SOL    HW125530   8.716   2.181   7.967  0.2794 -0.6172  0.4459
 7717SOL    HW225531   8.759   2.045   7.917  1.4485  0.0501 -0.4217
 7718SOL     OW25532   3.712   7.365   6.524  0.1569 -0.1748 -0.9464
 7718SOL    HW125533   3.778   7.299   6.545 -0.5629 -0.7597 -0.5205
 7718SOL    HW225534   3.763   7.438   6.487  1.0373 -0.6274 -0.6503
 7719SOL     OW25535   7.713   6.718  10.031  0.1892  0.4245  0.0056
 7719SOL    HW125536   7.683   6.725  10.121 -1.0082  0.8767 -0.4087
 7719SOL    HW225537   7.690   6.629  10.004 -0.2907  0.5915 -0.1399
 7720SOL     OW25538   1.750   1.162   3.280 -0.1446  0.1910  0.3780
 7720SOL    HW125539   1.678   1.224   3.291  0.1420  0.4587  0.8124
 7720SOL    HW225540   1.829   1.215   3.298  0.3536  0.5077 -2.2694
 7721SOL     OW25541   7.188   1.177   2.500  0.1584 -0.1988  0.5859
 7721SOL    HW125542   7.166   1.221   2.583 -0.1179  0.4200  0.1870
 7721SOL    HW225543   7.284   1.181   2.497  0.1258  0.6517  0.4140
 7722SOL     OW25544   9.784   6.644   3.335  0.3511  0.6935  0.2822
 7722SOL    HW125545   9.775   6.714   3.270  1.7347  0.5598 -0.0849
 7722SOL    HW225546   9.839   6.579   3.293  1.2214  0.5714  1.5634
 7723SOL     OW25547   9.671   2.426   3.199  0.0283 -0.0202  0.4639
 7723SOL    HW125548   9.716   2.424   3.114  0.5841 -2.0988  0.7542
 7723SOL    HW225549   9.695   2.510   3.237  1.8695 -0.1325 -0.3460
 7724SOL     OW25550  10.518   7.594   2.330 -0.0053  0.4161  0.0912
 7724SOL    HW125551  10.537   7.514   2.379  0.6845  1.7226  2.0563
 7724SOL    HW225552  10.454   7.566   2.264  0.1588 -1.7298  0.7542
 7725SOL     OW25553   4.430   4.649   0.078  0.0616  0.0954  0.5673
 7725SOL    HW125554   4.347   4.675   0.118 -0.8275 -0.8944 -0.5488
 7725SOL    HW225555   4.491   4.643   0.152 -1.3761 -1.1304  1.7366
 7726SOL     OW25556   7.281   8.618   2.802 -0.4617  0.1144 -0.1895
 7726SOL    HW125557   7.363   8.585   2.839 -0.2006  0.9104 -0.0487
 7726SOL    HW225558   7.271   8.571   2.719 -0.4856 -0.8676  0.3455
 7727SOL     OW25559   7.466   7.137   9.900  0.2071  0.2241 -0.4558
 7727SOL    HW125560   7.471   7.177   9.814 -0.7620 -1.8920 -1.5521
 7727SOL    HW225561   7.526   7.063   9.896 -0.6773 -0.5624  0.2888
 7728SOL     OW25562   0.887   6.051   3.818 -0.5430  0.4264  0.2128
 7728SOL    HW125563   0.970   6.073   3.775 -0.7345 -0.3869 -0.6016
 7728SOL    HW225564   0.867   5.962   3.789 -2.0762  0.8762 -0.2217
 7729SOL     OW25565   5.209   5.029   3.219  0.0330 -0.2799 -0.1705
 7729SOL    HW125566   5.256   5.052   3.299 -0.3714 -1.5328  0.4421
 7729SOL    HW225567   5.227   5.102   3.159 -3.5182  3.2942  2.5499
 7730SOL     OW25568   8.042   3.141   4.821  0.3541 -0.2896  0.3020
 7730SOL    HW125569   8.061   3.130   4.728  0.4219 -1.5831  0.4539
 7730SOL    HW225570   8.119   3.186   4.857 -0.5410  2.1224 -0.6178
 7731SOL     OW25571   3.986   8.772   8.271  0.5761 -0.0583 -0.3528
 7731SOL    HW125572   3.976   8.722   8.190  2.8392 -0.9508 -0.1701
 7731SOL    HW225573   3.911   8.746   8.324 -1.2727  0.9603 -2.3011
 7732SOL     OW25574   8.805   0.700   5.820  0.0662 -0.1833 -0.0212
 7732SOL    HW125575   8.869   0.732   5.757 -0.2285 -0.1873 -0.3268
 7732SOL    HW225576   8.847   0.712   5.905  0.4363 -0.1061 -0.2120
 7733SOL     OW25577   4.525   5.623   2.020 -0.3090 -0.0208 -0.1528
 7733SOL    HW125578   4.538   5.576   1.937  3.0216 -0.2879  0.4182
 7733SOL    HW225579   4.565   5.709   2.005 -0.4630  0.2475  0.8985
 7734SOL     OW25580   2.923   7.574   1.665  0.4097 -0.4184  0.3039
 7734SOL    HW125581   2.996   7.596   1.607  0.6225  0.9196  1.0393
 7734SOL    HW225582   2.965   7.552   1.749 -0.0145  0.2343  0.6944
 7735SOL     OW25583   2.580   9.595   3.744 -0.0132 -0.0841 -0.3635
 7735SOL    HW125584   2.508   9.621   3.802  1.2679 -1.1911  1.8734
 7735SOL    HW225585   2.559   9.635   3.660 -1.6016  2.3271  1.0406
 7736SOL     OW25586   6.430   9.274   4.072 -0.1347 -0.0626 -0.3451
 7736SOL    HW125587   6.515   9.306   4.042 -0.8979  1.4225 -1.0451
 7736SOL    HW225588   6.435   9.280   4.167  0.5431  0.0151 -0.3787
 7737SOL     OW25589   3.392   2.387   7.831  0.1797 -0.0602  0.7506
 7737SOL    HW125590   3.306   2.396   7.872  0.7971  1.0575  1.8623
 7737SOL    HW225591   3.449   2.354   7.901  0.8411 -0.0024  0.2525
 7738SOL     OW25592   4.600   5.388   9.984 -0.0824  0.5721  0.1555
 7738SOL    HW125593   4.634   5.354  10.067 -1.6499 -2.5245 -0.3290
 7738SOL    HW225594   4.657   5.351   9.917 -0.2019  1.1645 -0.2801
 7739SOL     OW25595   4.634   3.603   4.107 -0.1153 -0.5808 -0.1630
 7739SOL    HW125596   4.565   3.667   4.091  0.0855 -0.4031 -0.3219
 7739SOL    HW225597   4.700   3.621   4.040 -0.9558 -2.2704 -1.5171
 7740SOL     OW25598   2.768   8.602   1.072 -0.2797  0.0121 -0.4392
 7740SOL    HW125599   2.863   8.614   1.071 -0.2878  1.2610  2.7066
 7740SOL    HW225600   2.735   8.680   1.117 -2.5266 -1.6164  0.8944
 7741SOL     OW25601   6.923   8.944   1.003  0.1759  0.4324 -0.1659
 7741SOL    HW125602   6.875   8.888   1.065 -0.6231 -0.1931 -1.3023
 7741SOL    HW225603   6.965   8.882   0.943  0.0403  1.0232 -0.8920
 7742SOL     OW25604   6.894   4.413   4.293  0.0130 -0.2916  0.5297
 7742SOL    HW125605   6.849   4.497   4.302  1.9481  0.9004 -0.3006
 7742SOL    HW225606   6.987   4.435   4.295  0.5930 -2.4962  0.8041
 7743SOL     OW25607   7.982   9.574   5.349 -0.2220 -0.2206 -0.7830
 7743SOL    HW125608   8.051   9.625   5.393 -0.5147 -0.0718 -0.4915
 7743SOL    HW225609   8.009   9.573   5.257 -0.0581  0.2160 -0.7459
 7744SOL     OW25610   4.745   5.010   5.163  0.3464 -0.3220  0.7349
 7744SOL    HW125611   4.795   5.091   5.176  0.1594 -0.2319  0.8978
 7744SOL    HW225612   4.799   4.958   5.103 -0.9490  1.2069 -1.9460
 7745SOL     OW25613   6.030   7.337   8.638 -0.4690 -0.2679  0.0284
 7745SOL    HW125614   6.117   7.337   8.600  0.7442  0.8574  2.5474
 7745SOL    HW225615   5.981   7.401   8.587  0.8337  0.6333 -0.1514
 7746SOL     OW25616   5.411   7.312   0.615 -0.3498  0.5884  0.4952
 7746SOL    HW125617   5.324   7.275   0.597 -0.3066  0.5546  0.3556
 7746SOL    HW225618   5.423   7.302   0.709 -0.1455 -0.1676  0.3888
 7747SOL     OW25619  10.558   5.339   3.544  0.5239 -0.3009  0.1105
 7747SOL    HW125620  10.579   5.248   3.567 -0.1779 -0.1662  1.4064
 7747SOL    HW225621  10.480   5.332   3.489 -0.6121 -0.4483  1.6499
 7748SOL     OW25622   3.672   7.261   1.142  0.1174 -1.1973 -0.2569
 7748SOL    HW125623   3.612   7.190   1.165  0.1366 -1.1960 -0.2044
 7748SOL    HW225624   3.685   7.252   1.048 -0.0188 -1.1580 -0.2802
 7749SOL     OW25625   3.522   1.843   1.544  0.4020 -0.4278  0.6524
 7749SOL    HW125626   3.535   1.797   1.461  0.2212 -1.5519  1.2279
 7749SOL    HW225627   3.551   1.932   1.527 -1.8201  0.0154 -1.3271
 7750SOL     OW25628   4.336   1.473   0.518  0.3650  0.1291  0.3341
 7750SOL    HW125629   4.415   1.514   0.483 -0.3925  0.3518 -1.1957
 7750SOL    HW225630   4.330   1.506   0.608  1.8147  0.3719  0.3667
 7751SOL     OW25631   9.634   2.679   1.205  0.4782  0.4447 -0.1773
 7751SOL    HW125632   9.716   2.714   1.170  1.5135 -0.6111  1.1107
 7751SOL    HW225633   9.637   2.699   1.298 -0.1602 -0.6886  0.0957
 7752SOL     OW25634   7.459   9.187  10.117 -0.7162  0.6632  0.6300
 7752SOL    HW125635   7.502   9.126  10.057 -1.9890 -0.5066  0.8550
 7752SOL    HW225636   7.470   9.149  10.204 -0.1350  1.5996  0.9773
 7753SOL     OW25637   5.003   4.395   9.638 -0.2050  0.8419 -0.1943
 7753SOL    HW125638   4.926   4.349   9.603 -0.1824  0.3324  0.4071
 7753SOL    HW225639   5.075   4.333   9.626 -0.4078  0.1143  1.8428
 7754SOL     OW25640   8.191   4.131   8.986 -0.1233 -0.3305 -0.2662
 7754SOL    HW125641   8.245   4.101   9.059 -1.1768  0.2701  0.7774
 7754SOL    HW225642   8.105   4.092   9.002 -0.8659  1.2876 -0.1766
 7755SOL     OW25643   7.259   6.162   4.565  0.4651  0.1382  0.1017
 7755SOL    HW125644   7.262   6.256   4.548 -0.7701  0.5697  2.0174
 7755SOL    HW225645   7.253   6.154   4.660 -2.6669 -1.6960 -0.0998
 7756SOL     OW25646   0.776   8.091   1.622 -0.1330 -0.3000 -0.2144
 7756SOL    HW125647   0.871   8.098   1.624 -0.1406 -0.2702  1.4205
 7756SOL    HW225648   0.746   8.182   1.614 -0.0636 -0.4505 -3.6090
 7757SOL     OW25649   7.717   6.943   1.701  0.3776  0.4621  0.5923
 7757SOL    HW125650   7.768   7.002   1.646 -0.7351 -0.2735 -1.3206
 7757SOL    HW225651   7.672   7.000   1.763 -0.8736  1.7135 -1.3725
 7758SOL     OW25652   8.756   3.777   2.570  0.1133 -0.0425 -0.5728
 7758SOL    HW125653   8.831   3.780   2.629  0.4574  0.3324 -1.0195
 7758SOL    HW225654   8.740   3.869   2.546 -1.1385 -0.0052  0.3153
 7759SOL     OW25655   8.177   1.991   7.004  0.2684 -0.3458  0.2564
 7759SOL    HW125656   8.194   1.902   6.972 -0.3894 -1.3142  2.3973
 7759SOL    HW225657   8.082   2.001   6.998  0.4049  0.5660 -0.7435
 7760SOL     OW25658   8.201   6.206   8.359 -0.3653  0.4160 -0.0380
 7760SOL    HW125659   8.226   6.122   8.396  0.3043  0.1531 -1.0669
 7760SOL    HW225660   8.214   6.197   8.265  0.9447  2.0641 -0.0705
 7761SOL     OW25661   3.915   5.717   5.157  0.1343  0.2855  0.2623
 7761SOL    HW125662   3.951   5.633   5.129  0.5379  0.3935  0.4471
 7761SOL    HW225663   3.821   5.708   5.145  0.1867 -0.1449  0.1529
 7762SOL     OW25664   3.486   1.423   5.267  0.2973  0.2219  0.3246
 7762SOL    HW125665   3.521   1.512   5.261  3.0450 -0.6929  1.2289
 7762SOL    HW225666   3.542   1.380   5.331 -1.3036 -2.0478  0.3088
 7763SOL     OW25667   6.028   9.184   9.713 -0.3696  0.2584 -0.3443
 7763SOL    HW125668   6.083   9.235   9.772  1.0891  1.5221 -2.6117
 7763SOL    HW225669   6.003   9.107   9.763  1.2054  0.9868  1.7005
 7764SOL     OW25670   5.926   9.970   2.492 -0.1038 -0.1405  0.5143
 7764SOL    HW125671   5.880  10.013   2.565 -1.9207 -2.1835  0.6653
 7764SOL    HW225672   5.957  10.043   2.438 -1.6429  1.3873  1.5702
 7765SOL     OW25673   2.106   6.343   1.675  0.0525  0.1899 -0.5094
 7765SOL    HW125674   2.061   6.372   1.595  0.7445  1.0289 -0.6025
 7765SOL    HW225675   2.041   6.352   1.744 -0.0391  1.0440 -0.7011
 7766SOL     OW25676   4.527   5.299   7.724  0.0450 -0.8340  0.4142
 7766SOL    HW125677   4.445   5.255   7.700  0.0341 -0.3913 -0.3782
 7766SOL    HW225678   4.516   5.389   7.694 -0.4672  0.1295  3.1969
 7767SOL     OW25679   2.828   9.523   5.225 -0.2204 -0.8933 -0.6015
 7767SOL    HW125680   2.914   9.539   5.262  0.1445 -0.8953 -1.4233
 7767SOL    HW225681   2.779   9.479   5.295 -0.2984  1.0849  0.6744
 7768SOL     OW25682   5.062   3.419   2.936  0.4077  0.2824 -0.3816
 7768SOL    HW125683   5.108   3.447   3.015  0.9011 -1.0537 -0.1756
 7768SOL    HW225684   4.977   3.388   2.967 -0.9735  3.2855 -0.8203
 7769SOL     OW25685   6.232   0.870   2.904  0.3464 -0.2549  0.0772
 7769SOL    HW125686   6.247   0.800   2.967 -1.1719 -0.0184  0.7351
 7769SOL    HW225687   6.210   0.947   2.957 -0.3224  0.1199 -0.7123
 7770SOL     OW25688   6.688   7.524   9.215  0.0302 -0.0911 -0.4348
 7770SOL    HW125689   6.775   7.522   9.175  0.0020  0.6760 -0.5492
 7770SOL    HW225690   6.703   7.545   9.307 -0.0486  0.2531 -0.5003
 7771SOL     OW25691   7.577   1.326   2.945  0.2317 -0.2220  0.0491
 7771SOL    HW125692   7.561   1.392   3.012  2.2266  0.2798  0.0905
 7771SOL    HW225693   7.543   1.245   2.982 -1.2514  0.5428  0.4536
 7772SOL     OW25694   2.255   3.687   0.245 -0.3333  0.4718 -0.5683
 7772SOL    HW125695   2.222   3.658   0.330 -1.3171  0.4213 -0.9573
 7772SOL    HW225696   2.330   3.743   0.266 -0.1385 -0.0899  0.2982
 7773SOL     OW25697   3.711   0.610  10.353  0.4192  0.4982 -0.6119
 7773SOL    HW125698   3.757   0.553  10.292 -0.2001 -0.6106 -0.0591
 7773SOL    HW225699   3.724   0.570  10.439 -0.0978  1.1432 -0.2210
 7774SOL     OW25700   4.346   6.748   8.180  0.2786 -0.0387 -0.0242
 7774SOL    HW125701   4.381   6.659   8.171  0.1657 -0.0271 -0.6215
 7774SOL    HW225702   4.251   6.736   8.183  0.2165  0.1316 -1.0938
 7775SOL     OW25703   3.398   3.779   1.123  0.2867 -0.0077 -0.3525
 7775SOL    HW125704   3.326   3.803   1.065 -0.7089 -0.4584  0.6542
 7775SOL    HW225705   3.473   3.828   1.090 -0.7673  1.4432 -0.6925
 7776SOL     OW25706   7.228   9.036   5.988  0.2298  0.7040 -0.3104
 7776SOL    HW125707   7.173   9.100   5.943 -0.5798  0.4971  0.3507
 7776SOL    HW225708   7.236   9.071   6.077 -3.3755 -1.8070  1.2837
 7777SOL     OW25709   6.604   2.376   3.941  0.0956  0.1318 -0.6310
 7777SOL    HW125710   6.562   2.302   3.984  1.9220 -0.6421 -0.0571
 7777SOL    HW225711   6.615   2.442   4.010  1.2507 -0.3275 -0.3478
 7778SOL     OW25712   7.430  10.726   9.503 -0.6472  0.4204  0.4202
 7778SOL    HW125713   7.493  10.725   9.432 -1.6449  0.0868 -0.4874
 7778SOL    HW225714   7.374  10.649   9.487 -0.0304 -0.4944  2.3645
 7779SOL     OW25715   7.903   8.410   8.931  0.2940  0.2673  0.4615
 7779SOL    HW125716   7.925   8.333   8.982 -0.9721  1.1492  2.4717
 7779SOL    HW225717   7.815   8.391   8.897  1.2472 -0.4501 -1.7919
 7780SOL     OW25718   7.983   0.225   0.272  0.6889 -0.1656 -0.1385
 7780SOL    HW125719   8.068   0.216   0.229  0.3716  0.0590 -0.8145
 7780SOL    HW225720   7.919   0.207   0.204  0.1675  0.7562  0.0909
 7781SOL     OW25721   4.828   2.360   9.737 -0.6905  0.6508 -0.1053
 7781SOL    HW125722   4.813   2.296   9.667 -1.0223  0.9400 -0.3035
 7781SOL    HW225723   4.914   2.396   9.718 -0.4055  0.1060  0.1340
 7782SOL     OW25724   3.825   3.790   9.789 -0.2318 -0.3978  0.0340
 7782SOL    HW125725   3.897   3.729   9.804 -0.6422 -0.6377  1.1161
 7782SOL    HW225726   3.750   3.748   9.830 -0.6859  0.4875  0.1182
 7783SOL     OW25727   7.619   7.939   4.775  0.5310  0.3709  0.4180
 7783SOL    HW125728   7.598   8.032   4.764  0.9868  0.4867  0.5213
 7783SOL    HW225729   7.706   7.938   4.814  0.2559 -0.0889  1.0550
 7784SOL     OW25730   3.907   2.339   1.200 -0.3111 -0.1756  0.0625
 7784SOL    HW125731   3.941   2.280   1.132  0.6467 -0.0192  0.3885
 7784SOL    HW225732   3.956   2.420   1.189 -0.1742 -0.1314  0.9096
 7785SOL     OW25733   8.155   9.687   4.204  0.0581  0.7319 -0.1048
 7785SOL    HW125734   8.073   9.691   4.155 -0.1156  1.1747  0.2167
 7785SOL    HW225735   8.218   9.650   4.142 -0.4032  0.3054 -0.3239
 7786SOL     OW25736   1.310   6.417   3.183 -0.0743  0.4291 -0.2699
 7786SOL    HW125737   1.359   6.349   3.229 -0.8855  0.7099  1.0955
 7786SOL    HW225738   1.355   6.499   3.207 -0.4868  0.5744  0.0263
 7787SOL     OW25739   9.251   4.792   1.993 -0.4967 -0.4108 -0.0489
 7787SOL    HW125740   9.297   4.741   1.927 -0.9840 -0.4840 -0.3406
 7787SOL    HW225741   9.190   4.847   1.943  0.6111  1.1105  0.1892
 7788SOL     OW25742   2.186   3.854   0.777 -0.0593  0.1805 -0.2718
 7788SOL    HW125743   2.156   3.940   0.806  2.0701  1.9372 -2.8507
 7788SOL    HW225744   2.106   3.804   0.762 -1.3375  0.6697  3.7604
 7789SOL     OW25745   6.987   9.215   0.511 -0.2411 -0.2469  0.0186
 7789SOL    HW125746   7.026   9.167   0.584 -0.0077  1.3283  0.9768
 7789SOL    HW225747   6.915   9.264   0.551 -2.1795 -1.7535 -1.3982
 7790SOL     OW25748   7.046   8.497   5.942  0.3351  0.0632  0.0675
 7790SOL    HW125749   7.039   8.593   5.940 -1.9826 -0.0534 -0.8259
 7790SOL    HW225750   7.077   8.473   5.854  0.3372 -0.0280  0.0928
 7791SOL     OW25751   2.767   8.254   4.485  0.1362  0.0142  0.1906
 7791SOL    HW125752   2.751   8.173   4.435  0.2298  1.3573 -2.1535
 7791SOL    HW225753   2.690   8.308   4.469  1.3895  1.5870 -0.8505
 7792SOL     OW25754   8.397   1.287   5.900  0.1783  0.6361  0.2102
 7792SOL    HW125755   8.446   1.255   5.824 -1.9833  0.5379 -1.2239
 7792SOL    HW225756   8.359   1.208   5.939 -0.9431  0.9075 -0.2785
 7793SOL     OW25757   4.152   5.033   5.645 -0.6425  0.5590  0.3482
 7793SOL    HW125758   4.186   5.104   5.700 -1.3473  0.0564  1.4980
 7793SOL    HW225759   4.223   4.969   5.641 -0.1085  1.1905 -0.4531
 7794SOL     OW25760   4.867   5.665   5.249 -0.3540  0.1770  0.0081
 7794SOL    HW125761   4.860   5.576   5.214 -0.6331 -0.0510  0.6379
 7794SOL    HW225762   4.908   5.653   5.335 -1.3060  0.5580  0.5252
 7795SOL     OW25763   8.385   5.324   2.045  0.1236 -0.2281  0.1482
 7795SOL    HW125764   8.479   5.309   2.034  0.4514  0.7104  1.3952
 7795SOL    HW225765   8.377   5.420   2.048 -0.6128 -0.3165  1.9600
 7796SOL     OW25766   0.672   2.771   5.740 -0.1180 -0.0595  0.3158
 7796SOL    HW125767   0.741   2.733   5.794 -0.2190 -0.2621  0.3036
 7796SOL    HW225768   0.708   2.854   5.709  0.2701 -0.3477 -0.0131
 7797SOL     OW25769   4.081   9.475   2.833  0.3932 -0.2379 -0.2710
 7797SOL    HW125770   4.120   9.402   2.785  0.8260 -0.9754  1.1645
 7797SOL    HW225771   4.121   9.471   2.920 -1.8210 -0.1337  0.8000
 7798SOL     OW25772   1.575   1.415   7.936 -0.5283  0.4564  0.4204
 7798SOL    HW125773   1.574   1.346   7.870 -0.4444  1.1989 -0.3689
 7798SOL    HW225774   1.502   1.472   7.913 -0.0324  1.1400  0.5218
 7799SOL     OW25775   6.519   9.397   8.156 -0.1685  0.6251 -0.4963
 7799SOL    HW125776   6.539   9.359   8.241  1.5645  0.7077 -0.8235
 7799SOL    HW225777   6.520   9.491   8.171  0.7307  0.6601 -0.6984
 7800SOL     OW25778   6.021   2.467   1.240 -0.3630  0.1378  0.0731
 7800SOL    HW125779   6.003   2.383   1.282  0.1623  0.2334  0.4939
 7800SOL    HW225780   5.985   2.458   1.152 -0.9198 -0.2825  0.3380
 7801SOL     OW25781   5.174   0.956   7.874  0.1034 -0.0584 -0.3691
 7801SOL    HW125782   5.166   1.007   7.955 -0.9660 -1.3669  0.3995
 7801SOL    HW225783   5.228   1.010   7.817  4.2470 -0.6673  2.5414
 7802SOL     OW25784  10.665   3.454   4.652  0.0840  0.3306  0.2670
 7802SOL    HW125785  10.659   3.359   4.661  0.8146  0.1967 -0.5162
 7802SOL    HW225786  10.759   3.472   4.643 -0.1371  0.9334 -1.2920
 7803SOL     OW25787   2.322   0.006   4.485  0.3759  0.7181  0.1230
 7803SOL    HW125788   2.354   0.031   4.399  0.1153  2.1684  0.4239
 7803SOL    HW225789   2.231  -0.018   4.472  0.7989 -0.8371 -0.2784
 7804SOL     OW25790   9.065  10.346   1.750  0.5475 -0.6177 -0.5619
 7804SOL    HW125791   9.143  10.292   1.763  0.9723  0.1934  0.3613
 7804SOL    HW225792   9.041  10.331   1.658  0.3085 -2.7886 -0.2081
 7805SOL     OW25793   6.902   9.856   9.698 -0.6699 -0.0317 -0.5674
 7805SOL    HW125794   6.861   9.770   9.682  4.6315 -3.2872  0.9907
 7805SOL    HW225795   6.976   9.858   9.638  0.8806  2.2696  1.2820
 7806SOL     OW25796   5.693   1.342   6.563 -0.0024 -0.2645 -0.6742
 7806SOL    HW125797   5.632   1.399   6.517  0.6227  1.6827  0.7722
 7806SOL    HW225798   5.779   1.367   6.529  0.2689 -0.4350 -0.1217
 7807SOL     OW25799   3.363   3.676   0.468 -0.6732  0.3571 -0.2042
 7807SOL    HW125800   3.457   3.694   0.478 -1.0085  2.1154  0.2142
 7807SOL    HW225801   3.359   3.585   0.439  1.1414  0.1249  0.1252
 7808SOL     OW25802   9.818   7.781   2.055  0.3733  0.2934  0.6178
 7808SOL    HW125803   9.870   7.793   2.134  1.7516 -0.0555 -0.1940
 7808SOL    HW225804   9.738   7.829   2.071  0.8549  0.6774  2.0099
 7809SOL     OW25805   2.492  10.310   4.362  0.0485 -0.2337  0.4112
 7809SOL    HW125806   2.411  10.289   4.407 -0.8705  2.8355  0.4017
 7809SOL    HW225807   2.559  10.309   4.431 -0.1623 -1.7236  0.6163
 7810SOL     OW25808   6.522   9.364   8.439  0.1614 -0.0331 -0.2264
 7810SOL    HW125809   6.598   9.329   8.484 -0.2029  0.0088  0.4271
 7810SOL    HW225810   6.470   9.405   8.507 -0.2493  0.2989 -0.7308
 7811SOL     OW25811   5.688   9.820   2.673 -0.2176  0.6568  0.7030
 7811SOL    HW125812   5.617   9.823   2.738 -0.8660  3.0565 -0.0301
 7811SOL    HW225813   5.752   9.884   2.704 -0.4730  1.7484 -0.9104
 7812SOL     OW25814   1.618   3.827   4.759  0.0604 -0.4125  0.4953
 7812SOL    HW125815   1.702   3.830   4.712 -0.7789 -1.3768 -1.1412
 7812SOL    HW225816   1.608   3.736   4.785 -1.5538 -0.8583 -1.4578
 7813SOL     OW25817   5.653   3.085   1.237  0.0416 -0.4092  0.4614
 7813SOL    HW125818   5.575   3.136   1.258 -0.2171  0.0332 -1.4120
 7813SOL    HW225819   5.701   3.079   1.320 -0.0248  2.6990  0.8170
 7814SOL     OW25820   9.746   8.407   9.431 -0.7049 -0.2844 -0.4495
 7814SOL    HW125821   9.692   8.332   9.405 -1.9963  0.5326 -0.1925
 7814SOL    HW225822   9.750   8.462   9.354 -1.2924  0.2578 -0.1017
 7815SOL     OW25823   6.353  10.551   0.654  0.3772  0.2322 -0.4361
 7815SOL    HW125824   6.385  10.634   0.691  0.3132 -0.0303  0.2087
 7815SOL    HW225825   6.264  10.542   0.688  0.9841 -0.9543  0.9056
 7816SOL     OW25826   5.127   0.273   3.300 -0.1348  0.5150  0.2646
 7816SOL    HW125827   5.127   0.243   3.209 -1.8311 -0.1425  0.4410
 7816SOL    HW225828   5.200   0.226   3.340  1.3301  1.6309 -0.9699
 7817SOL     OW25829   5.719   6.125   9.024 -0.2058  0.7540  0.4007
 7817SOL    HW125830   5.801   6.140   8.976 -0.6819 -2.4190 -1.6463
 7817SOL    HW225831   5.662   6.197   8.997 -0.0023 -0.1925 -2.8469
 7818SOL     OW25832   0.445   1.852   2.157  0.6055 -0.0444 -0.4159
 7818SOL    HW125833   0.539   1.839   2.140  0.4791  1.0942 -2.2321
 7818SOL    HW225834   0.423   1.932   2.110 -1.3463 -0.4168 -0.2005
 7819SOL     OW25835   6.409   5.486   3.966 -0.0161  0.3280 -0.2944
 7819SOL    HW125836   6.466   5.560   3.988 -0.1448  0.0156  1.1512
 7819SOL    HW225837   6.458   5.438   3.899  0.1270  1.6316 -1.1641
 7820SOL     OW25838  10.269   5.453   9.116 -0.4985 -0.5782 -0.6865
 7820SOL    HW125839  10.290   5.493   9.031 -1.1979  0.4693 -0.3813
 7820SOL    HW225840  10.174   5.460   9.123 -0.3795  0.0285  0.5106
 7821SOL     OW25841   7.506   9.187   1.288  0.2010 -0.2009 -0.3516
 7821SOL    HW125842   7.442   9.119   1.308 -0.6757  0.3966 -1.0219
 7821SOL    HW225843   7.464   9.268   1.316  1.0470  0.1205  0.0287
 7822SOL     OW25844   9.372   5.005   1.664 -0.0681 -0.1914 -0.5538
 7822SOL    HW125845   9.366   4.915   1.634 -1.1008  0.2141 -1.6324
 7822SOL    HW225846   9.454   5.008   1.714  0.6646 -1.4006 -1.6170
 7823SOL     OW25847   2.789   0.007   8.990  0.4876  0.2933 -0.1711
 7823SOL    HW125848   2.839   0.036   8.913  1.8903  0.6374  0.8294
 7823SOL    HW225849   2.856  -0.015   9.055 -0.6612 -0.8898  0.6395
 7824SOL     OW25850   5.226   6.059   5.387  0.0504 -0.0909  0.0662
 7824SOL    HW125851   5.279   6.019   5.318  1.1510  2.5932 -0.7888
 7824SOL    HW225852   5.139   6.070   5.348 -0.7906 -2.8839  0.8686
 7825SOL     OW25853   4.801   7.340   9.433  0.2269  0.3745 -0.1816
 7825SOL    HW125854   4.822   7.400   9.361  0.3385  1.3238  0.6275
 7825SOL    HW225855   4.717   7.301   9.407  0.1055  0.9471 -0.6838
 7826SOL     OW25856   7.307   8.774   8.177 -0.1130  0.5090 -0.5944
 7826SOL    HW125857   7.391   8.739   8.146  0.1747  0.9263 -0.2945
 7826SOL    HW225858   7.249   8.697   8.182  0.3545  0.1611 -0.4670
 7827SOL     OW25859   2.449   9.991   0.348 -0.1829  0.8199  0.3835
 7827SOL    HW125860   2.408  10.018   0.266  0.9579  2.8542  0.4280
 7827SOL    HW225861   2.521  10.053   0.361  1.4644 -1.1742  1.4889
 7828SOL     OW25862   9.750   7.405   3.925 -0.1295 -0.3418 -0.0913
 7828SOL    HW125863   9.832   7.362   3.903 -0.8925 -2.3947  0.8300
 7828SOL    HW225864   9.690   7.381   3.854  0.2768  2.0697 -1.3656
 7829SOL     OW25865   1.400   0.410   5.945  0.0039 -0.1752  0.6207
 7829SOL    HW125866   1.421   0.319   5.925 -1.0636 -0.5756  1.2258
 7829SOL    HW225867   1.424   0.421   6.037 -1.4251 -0.3707  1.0503
 7830SOL     OW25868   4.670   4.528  10.503  0.3008  0.0181  0.2977
 7830SOL    HW125869   4.631   4.461  10.447  0.4284  0.4590 -0.3186
 7830SOL    HW225870   4.627   4.609  10.478  0.1103  0.1640  1.0820
 7831SOL     OW25871   1.397   5.366   1.209  0.1179  0.1072  0.0075
 7831SOL    HW125872   1.451   5.290   1.232 -0.8248 -0.1518  1.4765
 7831SOL    HW225873   1.311   5.329   1.190 -0.6306  0.8511  1.7291
 7832SOL     OW25874   3.263   4.431   9.263  0.0536  0.0953  0.7399
 7832SOL    HW125875   3.285   4.360   9.202  0.0632 -0.1522  1.0271
 7832SOL    HW225876   3.324   4.420   9.335 -0.5417 -0.1643  1.2139
 7833SOL     OW25877   1.391  10.707   6.688  0.2538 -0.1005  0.9165
 7833SOL    HW125878   1.369  10.614   6.682  0.8114 -0.2522  1.2108
 7833SOL    HW225879   1.371  10.730   6.779 -0.2173  0.1525  0.7486
 7834SOL     OW25880   4.841   8.607   0.106  0.0572  0.0381  0.6379
 7834SOL    HW125881   4.781   8.543   0.143 -0.0107  0.3286  1.0434
 7834SOL    HW225882   4.925   8.587   0.146  0.3733 -0.7464 -0.3808
 7835SOL     OW25883   3.135   6.349   5.549  0.2104 -0.2727 -0.5917
 7835SOL    HW125884   3.191   6.423   5.571 -0.6242  0.4204 -0.7167
 7835SOL    HW225885   3.046   6.385   5.552 -0.2672 -1.4357  0.0478
 7836SOL     OW25886   6.173   8.381   0.634 -0.3007  0.4232  0.3996
 7836SOL    HW125887   6.105   8.388   0.566 -0.9751  1.5408  1.1532
 7836SOL    HW225888   6.166   8.463   0.683  1.3904  0.4091  0.7104
 7837SOL     OW25889   4.842   3.995   9.037 -0.1422  0.1710  0.5527
 7837SOL    HW125890   4.918   3.937   9.042 -0.2887 -0.1684 -0.8296
 7837SOL    HW225891   4.786   3.966   9.109  1.2188  0.7270  1.8783
 7838SOL     OW25892   9.795   1.397   8.881 -0.0714  0.3154  0.2333
 7838SOL    HW125893   9.883   1.368   8.901  0.2740  1.3889  0.3136
 7838SOL    HW225894   9.805   1.487   8.850 -0.7993 -0.5021 -2.6984
 7839SOL     OW25895   1.275   2.550   3.222 -0.5320 -0.0927  0.4398
 7839SOL    HW125896   1.307   2.552   3.312 -0.6359 -0.2647  0.4817
 7839SOL    HW225897   1.204   2.485   3.223 -0.0766 -0.6051  0.0834
 7840SOL     OW25898   1.973   2.735   3.471 -0.5451 -0.1850 -0.2234
 7840SOL    HW125899   2.044   2.692   3.519 -0.9394 -0.7482 -0.1280
 7840SOL    HW225900   1.898   2.676   3.482 -0.5255 -0.5841 -1.9339
 7841SOL     OW25901   0.048   3.645   6.326  0.2670  0.7227  0.2868
 7841SOL    HW125902   0.075   3.721   6.378 -0.0683  0.5861  0.6603
 7841SOL    HW225903   0.035   3.575   6.390  0.4462  0.3839 -0.0432
 7842SOL     OW25904  10.757  10.046   7.678  0.2433  0.1214  0.2579
 7842SOL    HW125905  10.781  10.034   7.770  0.4059 -1.0268  0.0815
 7842SOL    HW225906  10.698   9.973   7.660  0.5341  0.1101 -0.6612
 7843SOL     OW25907  10.177   4.709   8.021 -0.2015 -0.1401 -0.2411
 7843SOL    HW125908  10.254   4.674   8.065 -0.5393 -0.4989  0.0734
 7843SOL    HW225909  10.210   4.745   7.939  0.3204 -0.1544 -0.0427
 7844SOL     OW25910   2.213   5.456   8.187  0.2723 -0.2267 -0.0687
 7844SOL    HW125911   2.223   5.373   8.235 -1.0547 -0.3070  0.1029
 7844SOL    HW225912   2.172   5.431   8.104 -2.3716  0.4697  0.9436
 7845SOL     OW25913   3.449   6.853   0.260  0.1179  0.3574 -0.3649
 7845SOL    HW125914   3.435   6.926   0.320  1.7072  0.0035  0.4921
 7845SOL    HW225915   3.387   6.786   0.289  0.3747  0.4592  0.4452
 7846SOL     OW25916   7.425   5.989   9.755 -0.4710 -0.6077 -0.7545
 7846SOL    HW125917   7.410   6.006   9.848  0.5994 -0.5423 -0.5778
 7846SOL    HW225918   7.418   5.894   9.746  0.1561 -0.6892 -0.4532
 7847SOL     OW25919   1.727   7.681   7.162  0.5796  0.0513  0.2050
 7847SOL    HW125920   1.721   7.594   7.122  0.6777  1.0105 -2.0836
 7847SOL    HW225921   1.734   7.741   7.087  3.3122  1.8414  1.7331
 7848SOL     OW25922   7.396   6.765  10.525 -0.6110  0.2890 -0.1237
 7848SOL    HW125923   7.471   6.716  10.559  0.3973  1.8690  0.0242
 7848SOL    HW225924   7.331   6.698  10.504  0.2220 -1.0064  1.2544
 7849SOL     OW25925   0.563   0.385   2.180  0.4548  0.3444  0.1641
 7849SOL    HW125926   0.590   0.439   2.106 -0.8721  2.1321  0.8876
 7849SOL    HW225927   0.490   0.333   2.147  0.6959  0.1920 -0.1249
 7850SOL     OW25928   3.266   4.907   9.334  0.5406  0.2019 -0.1366
 7850SOL    HW125929   3.343   4.853   9.317  0.8441  0.7222 -0.4495
 7850SOL    HW225930   3.193   4.845   9.334  0.9455 -0.2825  0.0716
 7851SOL     OW25931   8.777   4.785   0.969  0.0008  0.1819 -0.7655
 7851SOL    HW125932   8.693   4.807   0.930 -1.0791  0.3520  1.5723
 7851SOL    HW225933   8.787   4.691   0.951 -1.2647 -0.1086 -0.0207
 7852SOL     OW25934   8.867   3.896   1.312 -0.0979 -0.4400 -0.1928
 7852SOL    HW125935   8.785   3.851   1.290  0.8845 -1.5256 -1.8060
 7852SOL    HW225936   8.884   3.954   1.238  0.7843 -0.5082 -0.0572
 7853SOL     OW25937   5.420   6.364   8.401 -0.7254  0.3419 -0.0271
 7853SOL    HW125938   5.469   6.393   8.478 -0.7540 -1.2044  0.6156
 7853SOL    HW225939   5.331   6.349   8.433 -0.5295 -1.1752 -0.1106
 7854SOL     OW25940   7.561   3.435   7.965  0.2585 -0.1573 -0.3647
 7854SOL    HW125941   7.485   3.380   7.947 -0.1268 -0.0587  0.9207
 7854SOL    HW225942   7.586   3.414   8.055  1.6220 -0.0252 -0.6851
 7855SOL     OW25943   2.610   4.283   0.610  0.0579 -0.3832 -0.0497
 7855SOL    HW125944   2.589   4.375   0.625 -1.1445 -0.2015 -2.4043
 7855SOL    HW225945   2.526   4.237   0.618  0.7536 -1.4470  1.8192
 7856SOL     OW25946   7.224   1.357   6.246 -0.1758 -0.9403  0.5069
 7856SOL    HW125947   7.202   1.418   6.317 -1.3683 -2.4077  1.4637
 7856SOL    HW225948   7.261   1.281   6.290  0.2475 -1.3755 -0.5646
 7857SOL     OW25949   6.917   2.359   3.498 -0.1521  0.4330  0.0698
 7857SOL    HW125950   6.945   2.308   3.574  1.7067  0.2309 -0.7022
 7857SOL    HW225951   6.975   2.332   3.428 -2.2235  0.1332 -1.6523
 7858SOL     OW25952   4.579   8.831   6.597  0.7308 -0.0210  0.0975
 7858SOL    HW125953   4.580   8.925   6.585  0.9112 -0.1319 -0.8181
 7858SOL    HW225954   4.664   8.802   6.563  1.8010 -0.2538  2.7052
 7859SOL     OW25955   1.024   4.985   7.319  1.2526  0.2416  0.7241
 7859SOL    HW125956   1.020   5.076   7.349  0.7546  0.6435 -0.5203
 7859SOL    HW225957   1.111   4.977   7.280  1.1590  0.2969  0.5018
 7860SOL     OW25958   6.408   5.225  10.109  0.0183 -0.5291 -0.4106
 7860SOL    HW125959   6.489   5.179  10.132  0.2037 -0.2017 -0.3997
 7860SOL    HW225960   6.435   5.290  10.045 -0.7685 -2.5834 -3.0046
 7861SOL     OW25961   1.427   0.070   0.012  0.0396  0.0997  0.0243
 7861SOL    HW125962   1.475   0.071  -0.070 -1.9081  1.4999 -1.2055
 7861SOL    HW225963   1.466   0.141   0.064  0.2112  0.3088 -0.3888
 7862SOL     OW25964   7.714   6.830   2.059  0.7340  0.0067 -0.0756
 7862SOL    HW125965   7.791   6.878   2.029  0.2910  0.2663 -0.8305
 7862SOL    HW225966   7.656   6.897   2.093  0.5891 -0.1168 -0.0795
 7863SOL     OW25967   9.257   3.369   3.925  0.1462  0.5835  0.1019
 7863SOL    HW125968   9.350   3.388   3.912 -0.0299  1.4762  0.0571
 7863SOL    HW225969   9.230   3.329   3.842  0.4149  0.6287 -0.0106
 7864SOL     OW25970   8.265  10.469   0.863  0.2009 -0.4923  0.8223
 7864SOL    HW125971   8.304  10.386   0.892  0.1883 -0.5857  0.5754
 7864SOL    HW225972   8.171  10.450   0.858  0.2862 -0.7502 -0.1493
 7865SOL     OW25973  10.677   4.625   1.774  0.1457  0.1139 -0.4702
 7865SOL    HW125974  10.763   4.611   1.814 -0.3242 -1.9961 -0.0960
 7865SOL    HW225975  10.697   4.651   1.684  1.1904 -0.6259 -0.4781
 7866SOL     OW25976   8.567   0.293   6.220  0.1005 -0.2038  0.0113
 7866SOL    HW125977   8.480   0.317   6.253 -0.2753 -0.9567 -0.3945
 7866SOL    HW225978   8.627   0.315   6.292 -0.5633 -0.7523  0.7535
 7867SOL     OW25979   7.389   4.540   2.394  0.0197  0.5441 -0.2093
 7867SOL    HW125980   7.342   4.513   2.474  1.5834  0.1940  0.6226
 7867SOL    HW225981   7.341   4.497   2.323  1.6030 -3.5943  0.9256
 7868SOL     OW25982   8.778   1.005   5.245  0.0110  0.1047  0.3976
 7868SOL    HW125983   8.747   0.916   5.230  1.4252 -0.1058 -1.7793
 7868SOL    HW225984   8.721   1.060   5.193  0.6755  0.1645 -0.2881
 7869SOL     OW25985   0.723  10.456   4.012  0.0157 -0.3411  0.2008
 7869SOL    HW125986   0.762  10.383   3.963  0.6245 -0.0184  0.1829
 7869SOL    HW225987   0.787  10.475   4.081  0.3976  0.8496 -0.4390
 7870SOL     OW25988   4.991   5.418   9.908 -0.4723 -0.0716  0.5196
 7870SOL    HW125989   4.971   5.326   9.925 -0.2620 -0.6004 -1.8291
 7870SOL    HW225990   4.990   5.459   9.995 -2.1131 -1.9541  1.4650
 7871SOL     OW25991   7.244   8.540  10.596 -0.4022  0.1177 -0.2839
 7871SOL    HW125992   7.199   8.473  10.546  0.2008  0.0200 -0.6997
 7871SOL    HW225993   7.309   8.493  10.648  0.5077  0.4346 -1.1092
 7872SOL     OW25994   1.436   2.924   1.426 -0.4087 -0.0950  0.3765
 7872SOL    HW125995   1.445   2.925   1.522  0.4754 -1.0004  0.3143
 7872SOL    HW225996   1.522   2.952   1.394 -0.2007 -1.2727 -0.1556
 7873SOL     OW25997   2.845   6.482  10.761  0.2357  0.3366 -0.4603
 7873SOL    HW125998   2.794   6.545  10.812 -0.3632 -0.4495 -0.0684
 7873SOL    HW225999   2.850   6.404  10.816  1.0122  0.0535 -0.9167
 7874SOL     OW26000   8.258   8.507  10.663  0.2958  0.0161  0.1094
 7874SOL    HW126001   8.322   8.440  10.637  1.1913  0.4740  1.0823
 7874SOL    HW226002   8.218   8.535  10.580  3.0000  1.3725 -0.8637
 7875SOL     OW26003  10.272   6.818   1.252 -0.2259 -0.2401  0.1045
 7875SOL    HW126004  10.296   6.909   1.238 -1.0839 -0.3488 -2.8971
 7875SOL    HW226005  10.354   6.770   1.242  0.1462  0.1348  1.2236
 7876SOL     OW26006   8.902   8.322   8.559  1.0262 -0.2888 -0.3959
 7876SOL    HW126007   8.949   8.256   8.507 -0.6708 -0.4287 -1.8429
 7876SOL    HW226008   8.825   8.343   8.507  0.5416  1.4657  0.9334
 7877SOL     OW26009   1.405   9.740   8.732 -0.1293 -0.3040  0.2460
 7877SOL    HW126010   1.323   9.786   8.752 -0.4360 -0.3983 -0.7732
 7877SOL    HW226011   1.393   9.705   8.644  1.9674  1.9514 -1.0681
 7878SOL     OW26012   1.960   5.391   2.443 -0.4158  0.5343  0.8825
 7878SOL    HW126013   1.981   5.338   2.366  1.2968  0.2510  1.4898
 7878SOL    HW226014   2.044   5.429   2.469 -1.4914  3.2363  0.7365
 7879SOL     OW26015   6.295   5.209   2.378  0.3272 -0.2428  0.5472
 7879SOL    HW126016   6.302   5.191   2.472  0.5262  1.2695  0.8436
 7879SOL    HW226017   6.270   5.125   2.339  0.3563 -0.9163  1.9329
 7880SOL     OW26018   2.888   6.122   4.559 -0.2732  0.6582 -0.4301
 7880SOL    HW126019   2.980   6.146   4.548  0.4870 -0.9398  1.7916
 7880SOL    HW226020   2.883   6.032   4.525 -1.0574  0.7830 -0.6587
 7881SOL     OW26021   6.592   6.819   7.993  0.3302 -0.0739 -0.2712
 7881SOL    HW126022   6.648   6.748   8.025 -0.4444 -1.0617 -1.0132
 7881SOL    HW226023   6.522   6.825   8.058 -0.6675 -1.3618 -1.1659
 7882SOL     OW26024   5.451   6.967   9.344  0.3401 -0.3178 -0.0533
 7882SOL    HW126025   5.385   7.009   9.401  1.6073 -0.7486  1.8138
 7882SOL    HW226026   5.479   7.037   9.285 -0.1421  0.4920  0.6541
 7883SOL     OW26027   8.881   6.651   6.268  0.0729 -0.3871 -0.5341
 7883SOL    HW126028   8.876   6.562   6.234 -1.9388 -0.1897 -0.8701
 7883SOL    HW226029   8.929   6.699   6.201 -1.8111 -0.5150 -2.0743
 7884SOL     OW26030   0.028   2.398   1.809 -0.1798  0.2203  0.0479
 7884SOL    HW126031   0.122   2.403   1.829  0.3256 -0.0146 -2.0321
 7884SOL    HW226032   0.015   2.464   1.741 -1.9963  1.7128  1.7387
 7885SOL     OW26033   3.142   6.618   8.216 -0.4299  0.1740 -0.4660
 7885SOL    HW126034   3.107   6.567   8.290 -0.8901  0.6945 -0.3172
 7885SOL    HW226035   3.066   6.633   8.160 -0.6376  1.9669  0.2317
 7886SOL     OW26036   8.420   8.529   7.203  0.5880 -0.0816 -0.4300
 7886SOL    HW126037   8.331   8.496   7.188  0.2215  1.1632 -1.1483
 7886SOL    HW226038   8.444   8.496   7.289 -0.2493 -1.1231 -0.5775
 7887SOL     OW26039   6.099   0.371   9.129  0.2987 -0.0453 -0.2179
 7887SOL    HW126040   6.169   0.386   9.192  1.2019 -2.0163 -0.6919
 7887SOL    HW226041   6.037   0.315   9.176 -0.1493  0.3177 -0.3673
 7888SOL     OW26042   7.424   8.210   2.027  0.1029 -0.2520 -0.2670
 7888SOL    HW126043   7.360   8.139   2.024 -1.2469  0.9051 -0.9381
 7888SOL    HW226044   7.389   8.271   2.092  1.5969 -0.4967  0.8080
 7889SOL     OW26045   8.451   9.462   6.620 -0.2487 -0.1683 -0.7307
 7889SOL    HW126046   8.539   9.427   6.629 -0.1509  0.1705 -0.3591
 7889SOL    HW226047   8.462   9.557   6.623 -0.6837 -0.1317 -0.1283
 7890SOL     OW26048   5.484   0.200   2.873  0.2341 -0.5833  0.4257
 7890SOL    HW126049   5.450   0.288   2.889  0.4389 -0.2759 -0.7064
 7890SOL    HW226050   5.501   0.198   2.778  3.3111 -0.6962  0.8721
 7891SOL     OW26051   2.944   6.376   7.963 -0.1401 -0.1279  0.6272
 7891SOL    HW126052   2.917   6.413   8.047 -0.4956  2.1936 -0.4191
 7891SOL    HW226053   2.867   6.331   7.929 -0.4490  0.1990  0.9007
 7892SOL     OW26054   6.507   0.576   8.374  0.2466 -0.1055 -0.0581
 7892SOL    HW126055   6.463   0.543   8.453 -1.3191 -0.0125 -0.8638
 7892SOL    HW226056   6.479   0.668   8.367  0.6976  0.0044 -0.5103
 7893SOL     OW26057  10.055   7.906   5.062  0.1531  0.5012 -0.2116
 7893SOL    HW126058  10.007   7.897   5.144 -1.8337  2.0585 -1.1220
 7893SOL    HW226059  10.038   7.825   5.015 -0.7925  0.6170 -0.0935
 7894SOL     OW26060   1.697   2.414   8.924  0.2680  0.0034 -0.2471
 7894SOL    HW126061   1.751   2.377   8.994 -0.0564  0.6116  0.3437
 7894SOL    HW226062   1.754   2.479   8.882  0.5141 -0.4712 -0.6488
 7895SOL     OW26063   1.768   9.093   6.502 -0.2241 -0.2924 -0.4789
 7895SOL    HW126064   1.820   9.015   6.521  1.5651  0.6847 -1.1766
 7895SOL    HW226065   1.768   9.142   6.584  0.2008 -0.1537 -0.5625
 7896SOL     OW26066   3.933   2.167   1.842  0.2526 -0.1780  1.2792
 7896SOL    HW126067   3.967   2.108   1.910  3.0250 -0.3433 -0.0866
 7896SOL    HW226068   4.006   2.228   1.826 -1.2738  1.4527  0.2296
 7897SOL     OW26069   3.147  10.235   0.536  0.3087  0.2572  0.1073
 7897SOL    HW126070   3.180  10.150   0.567  0.2208  0.0449 -0.3733
 7897SOL    HW226071   3.053  10.231   0.551  0.2433  0.0900 -0.3256
 7898SOL     OW26072  10.160   6.774   5.087  0.2924  0.5423 -0.2433
 7898SOL    HW126073  10.234   6.820   5.047  0.2965  1.0860  0.3838
 7898SOL    HW226074  10.176   6.780   5.181 -0.6912  0.8991 -0.0918
 7899SOL     OW26075   3.949   0.244   9.746  0.4264 -0.1269 -0.2700
 7899SOL    HW126076   4.020   0.180   9.730  1.5457  0.8713  0.5450
 7899SOL    HW226077   3.994   0.327   9.756 -0.8320  0.4561  0.8016
 7900SOL     OW26078   1.811   4.071   6.716  0.1560 -0.1454 -0.5373
 7900SOL    HW126079   1.897   4.110   6.727  0.1192 -0.4155  0.9294
 7900SOL    HW226080   1.756   4.141   6.681  0.9020  0.1068 -1.2061
 7901SOL     OW26081  10.103   6.500   7.626  0.2755  0.3764 -0.3059
 7901SOL    HW126082  10.032   6.464   7.679  0.6716 -1.3894 -0.8958
 7901SOL    HW226083  10.169   6.527   7.690  1.6820 -3.6626  0.2676
 7902SOL     OW26084   8.077   2.817   4.024  0.6135 -0.9198 -0.0501
 7902SOL    HW126085   8.035   2.731   4.027  0.4521 -0.8042  1.0996
 7902SOL    HW226086   8.088   2.834   3.930 -0.9872 -1.3973 -0.3650
 7903SOL     OW26087   6.441   4.761   5.057  0.3527  0.0389 -0.8348
 7903SOL    HW126088   6.487   4.703   4.997  1.8453 -2.1022  2.1343
 7903SOL    HW226089   6.349   4.738   5.048  0.7915 -1.9332 -0.6823
 7904SOL     OW26090   6.620   7.635   6.569 -0.4158 -0.4554 -0.2215
 7904SOL    HW126091   6.639   7.562   6.629  1.8016  1.9134  2.2313
 7904SOL    HW226092   6.534   7.667   6.597  0.1808  0.0340  1.1233
 7905SOL     OW26093   9.842   5.358   3.365 -0.2290  0.0431  0.4211
 7905SOL    HW126094   9.913   5.322   3.311 -1.7198 -0.6987 -1.1394
 7905SOL    HW226095   9.881   5.367   3.452  1.0768 -2.7371  0.2450
 7906SOL     OW26096   6.829   4.862   4.499  0.2300 -0.3362 -0.0470
 7906SOL    HW126097   6.788   4.942   4.533 -0.2677 -0.3283 -0.6450
 7906SOL    HW226098   6.831   4.802   4.573  1.1737  0.4393  0.5798
 7907SOL     OW26099   0.539   3.953   0.849  0.0671 -0.5029 -0.1437
 7907SOL    HW126100   0.539   4.026   0.910  0.7375 -1.0210  0.4966
 7907SOL    HW226101   0.477   3.890   0.887  0.5859 -0.8827  0.0938
 7908SOL     OW26102   2.663   1.951   1.687  0.5549 -0.3105 -0.4938
 7908SOL    HW126103   2.588   1.947   1.747 -0.6407 -1.0616 -2.0006
 7908SOL    HW226104   2.712   2.029   1.716 -0.1998 -0.4251  1.1903
 7909SOL     OW26105   0.994   2.468  10.228  0.6633  0.1764 -0.1124
 7909SOL    HW126106   1.066   2.454  10.291  0.5757  1.1634  0.2268
 7909SOL    HW226107   0.965   2.380  10.205  0.3808 -0.2257  1.6119
 7910SOL     OW26108   9.878   2.562   8.321 -0.0032  0.0324  0.8015
 7910SOL    HW126109   9.802   2.609   8.356  0.6281  1.6316  0.1558
 7910SOL    HW226110   9.935   2.632   8.288  0.8031 -1.2433 -0.6056
 7911SOL     OW26111  10.784  10.660   2.996 -0.3059 -0.2938 -0.1719
 7911SOL    HW126112  10.793  10.650   3.091 -0.6518  1.9513  0.1635
 7911SOL    HW226113  10.711  10.602   2.973 -0.5243 -0.5198  1.0059
 7912SOL     OW26114   1.680   5.443   8.574  0.1684  0.6452  0.2139
 7912SOL    HW126115   1.740   5.517   8.567  1.4116 -0.4058 -0.6223
 7912SOL    HW226116   1.593   5.483   8.566  0.7132  2.1852  1.3477
 7913SOL     OW26117   1.688   7.864   9.119  0.3521  0.0068 -0.1946
 7913SOL    HW126118   1.656   7.936   9.065 -0.3044 -1.2157 -1.5202
 7913SOL    HW226119   1.748   7.816   9.063  0.3324 -0.8085  0.4522
 7914SOL     OW26120   7.629   5.220   1.595  0.4107 -0.3669  0.2642
 7914SOL    HW126121   7.618   5.159   1.668  0.5142 -0.7206 -0.0167
 7914SOL    HW226122   7.562   5.287   1.610  0.1353 -0.6796  0.4351
 7915SOL     OW26123   4.181   4.231   5.477  0.1587 -0.0500  0.2768
 7915SOL    HW126124   4.160   4.139   5.463 -0.0603 -0.0847  0.8109
 7915SOL    HW226125   4.207   4.263   5.391 -0.5682 -0.3994 -0.0771
 7916SOL     OW26126   4.863   1.170   1.810 -0.7868 -0.6182  0.2379
 7916SOL    HW126127   4.929   1.238   1.817 -1.5762  0.2249 -0.3439
 7916SOL    HW226128   4.848   1.141   1.900 -1.1137  0.6402  0.6066
 7917SOL     OW26129  10.381   4.714   8.721 -0.0946 -0.0290  0.7070
 7917SOL    HW126130  10.367   4.788   8.661  0.9476 -0.7309 -0.4495
 7917SOL    HW226131  10.463   4.676   8.692  0.4687 -0.3705  2.6515
 7918SOL     OW26132  10.218   5.142   6.624  0.0820  0.2645  0.4239
 7918SOL    HW126133  10.228   5.047   6.632  0.6460  0.4161  1.6629
 7918SOL    HW226134  10.303   5.177   6.650 -0.5896  1.1724  1.4587
 7919SOL     OW26135   6.522   0.592   5.223  0.2283 -0.2381 -0.4826
 7919SOL    HW126136   6.554   0.508   5.189  0.0015  0.0622 -1.4871
 7919SOL    HW226137   6.565   0.657   5.169 -0.1999  0.2644 -0.2286
 7920SOL     OW26138  10.021   4.449   6.219  0.6064  0.5095  0.0269
 7920SOL    HW126139  10.003   4.468   6.127  1.0222  0.5286 -0.0553
 7920SOL    HW226140  10.117   4.443   6.223  0.7347  2.3511  0.7988
 7921SOL     OW26141   2.336   6.375   9.946  0.4190 -0.4706 -0.5775
 7921SOL    HW126142   2.367   6.301   9.998 -1.1236  0.8237  2.4416
 7921SOL    HW226143   2.240   6.371   9.952  0.2478  0.9167 -1.6550
 7922SOL     OW26144   0.296   4.872   3.186 -0.1860  0.6524  0.3767
 7922SOL    HW126145   0.246   4.908   3.259 -0.0169 -0.6355  1.1627
 7922SOL    HW226146   0.374   4.927   3.181 -0.5926  1.2647  0.6163
 7923SOL     OW26147   5.560   5.143   0.808  0.0996 -0.1991  0.1450
 7923SOL    HW126148   5.465   5.154   0.807  0.2581  1.4732  0.4734
 7923SOL    HW226149   5.593   5.222   0.850  1.6305 -0.9112  0.3571
 7924SOL     OW26150   1.748  10.620   9.894  0.0431 -0.0497  0.3301
 7924SOL    HW126151   1.759  10.675   9.972  1.9429 -0.7313  0.5958
 7924SOL    HW226152   1.718  10.536   9.929 -1.0366  0.2229  0.1022
 7925SOL     OW26153   8.670   1.586   5.089 -0.3120 -0.8705 -0.0129
 7925SOL    HW126154   8.763   1.603   5.101 -0.7729  1.7356  0.5438
 7925SOL    HW226155   8.650   1.513   5.147  1.3600 -1.4631 -0.1521
 7926SOL     OW26156   3.541   8.197   4.355  0.1274 -0.0630  0.7312
 7926SOL    HW126157   3.504   8.285   4.358  0.0677  0.1178 -2.3167
 7926SOL    HW226158   3.486   8.150   4.293  2.0540 -1.2524 -0.1867
 7927SOL     OW26159  10.622   5.035   1.547 -0.4192  0.3546  0.4027
 7927SOL    HW126160  10.598   4.958   1.495 -0.2099 -0.6175  1.7075
 7927SOL    HW226161  10.555   5.100   1.525 -0.3893 -0.0450 -0.9995
 7928SOL     OW26162   5.557   6.647   6.657 -0.2135  0.0430 -0.1069
 7928SOL    HW126163   5.500   6.593   6.602  2.0028 -1.0187 -1.5443
 7928SOL    HW226164   5.582   6.589   6.729  1.6389 -0.7249 -1.2948
 7929SOL     OW26165   1.302   6.541   1.732  0.6482  0.0855  0.0728
 7929SOL    HW126166   1.208   6.527   1.735  0.0587  3.2535 -0.4692
 7929SOL    HW226167   1.327   6.557   1.823  0.0225  2.3230 -0.0939
 7930SOL     OW26168   6.810   6.686   5.437 -0.5686  0.3068 -0.5253
 7930SOL    HW126169   6.753   6.733   5.497 -1.7984 -1.7523  0.0191
 7930SOL    HW226170   6.773   6.703   5.350 -0.1509  1.4326 -0.5029
 7931SOL     OW26171   1.637   5.250   1.577  0.2966  0.0796  0.0615
 7931SOL    HW126172   1.583   5.219   1.649  1.6473 -0.0315  1.0668
 7931SOL    HW226173   1.658   5.341   1.600  1.8218 -0.3644  0.5062
 7932SOL     OW26174   7.953   0.660   8.266  0.0616  0.2625 -0.5152
 7932SOL    HW126175   7.966   0.698   8.179  0.4284  0.5668 -0.3275
 7932SOL    HW226176   7.924   0.733   8.320 -0.7269 -0.0411 -0.5095
 7933SOL     OW26177   2.384   0.705   3.732 -0.0243 -0.3587 -0.4729
 7933SOL    HW126178   2.301   0.750   3.742  0.7016  1.0736 -0.6653
 7933SOL    HW226179   2.410   0.721   3.641  0.2160 -1.2693 -0.5834
 7934SOL     OW26180   4.171   7.554   5.367 -0.0416  0.1541 -0.4700
 7934SOL    HW126181   4.086   7.515   5.343  0.1462  0.4773 -1.7624
 7934SOL    HW226182   4.236   7.496   5.327  0.2717  1.0898 -1.3687
 7935SOL     OW26183  10.366   1.480   7.874  0.0001 -0.8053 -0.1956
 7935SOL    HW126184  10.392   1.467   7.783 -0.4026 -2.5474 -0.0927
 7935SOL    HW226185  10.279   1.518   7.869  0.6949  0.8029 -0.5215
 7936SOL     OW26186   7.880   8.432   9.992  0.2243 -0.1184  0.0669
 7936SOL    HW126187   7.865   8.526   9.982 -0.3489 -0.0720  1.1806
 7936SOL    HW226188   7.805   8.391   9.949  1.4755 -0.1704 -2.2465
 7937SOL     OW26189   4.611   3.664   1.603  0.0045  0.3777 -0.5138
 7937SOL    HW126190   4.527   3.701   1.575  0.3401  0.2227 -1.7812
 7937SOL    HW226191   4.590   3.575   1.629 -0.3073  0.4968 -0.3445
 7938SOL     OW26192   4.910   3.523   1.622 -0.0588 -0.1488  0.2217
 7938SOL    HW126193   4.944   3.454   1.679  0.2473 -0.8301 -0.7607
 7938SOL    HW226194   4.818   3.530   1.645 -0.4372 -1.8680 -0.6093
 7939SOL     OW26195   7.449   2.932   8.013 -0.4013 -0.5946 -0.0777
 7939SOL    HW126196   7.377   2.923   7.951  0.4190  0.2995 -1.2050
 7939SOL    HW226197   7.484   2.844   8.023 -1.7017 -1.0593  0.5745
 7940SOL     OW26198   5.419   7.498   7.834 -0.7292 -0.2146  0.1909
 7940SOL    HW126199   5.508   7.527   7.852 -0.5408 -1.2801  1.1189
 7940SOL    HW226200   5.364   7.573   7.858 -0.2433 -0.4744  2.3496
 7941SOL     OW26201   8.604   9.558   9.197  0.1464  0.3761 -0.0993
 7941SOL    HW126202   8.622   9.466   9.182 -0.5490  0.1818  0.2180
 7941SOL    HW226203   8.688   9.595   9.225  0.3730 -0.2073 -0.0045
 7942SOL     OW26204   2.259   9.734   0.172  0.2638 -0.3747  0.7614
 7942SOL    HW126205   2.310   9.785   0.234  2.1178 -2.6509  1.2422
 7942SOL    HW226206   2.308   9.739   0.090 -1.0198  0.8269  0.0236
 7943SOL     OW26207   0.154   6.876   1.184  0.2720  0.2457 -0.4531
 7943SOL    HW126208   0.086   6.841   1.241  0.6266  1.1944  0.5816
 7943SOL    HW226209   0.112   6.883   1.098 -0.5108 -0.4580 -0.1395
 7944SOL     OW26210   1.699   6.111   8.233  0.5561 -0.0824 -0.2926
 7944SOL    HW126211   1.674   6.155   8.314  0.1532 -0.9761  0.0736
 7944SOL    HW226212   1.717   6.183   8.172 -1.7418  0.5983 -0.2361
 7945SOL     OW26213   0.248   2.773   5.654 -0.1959  0.1098  0.0939
 7945SOL    HW126214   0.260   2.708   5.585  0.8759  1.8515 -1.4555
 7945SOL    HW226215   0.265   2.857   5.612 -0.7230  1.3657  2.2025
 7946SOL     OW26216   0.774   7.499   5.968  0.4384 -0.0654  0.3269
 7946SOL    HW126217   0.834   7.462   5.902  0.0312 -0.8108  0.3620
 7946SOL    HW226218   0.705   7.433   5.977  1.2185 -0.6890  2.5474
 7947SOL     OW26219   3.622  10.578   9.116 -0.5325 -0.5128  0.3337
 7947SOL    HW126220   3.585  10.603   9.031  0.2597  1.3755  0.4912
 7947SOL    HW226221   3.710  10.615   9.115 -0.3028 -0.9717  1.7509
 7948SOL     OW26222   0.519   7.250   0.919 -0.3339  0.4357  0.3110
 7948SOL    HW126223   0.583   7.243   0.848 -0.2202  0.9420  0.3636
 7948SOL    HW226224   0.564   7.300   0.987 -0.3315 -0.3052  0.8709
 7949SOL     OW26225   5.261   9.549  10.526  0.2397 -0.3666  0.3800
 7949SOL    HW126226   5.255   9.474  10.585  0.9414 -0.5307  0.2538
 7949SOL    HW226227   5.170   9.573  10.508 -0.0000 -1.4083  0.1410
 7950SOL     OW26228   4.506   2.048   8.758 -0.0623  0.2059 -0.1011
 7950SOL    HW126229   4.564   2.059   8.682 -0.4095 -1.6027 -0.6859
 7950SOL    HW226230   4.422   2.022   8.720 -1.4164  2.9947  0.7125
 7951SOL     OW26231   8.097   8.456   0.654 -0.7483 -0.3562  0.3866
 7951SOL    HW126232   8.189   8.439   0.635 -0.3860  2.6124 -0.9803
 7951SOL    HW226233   8.096   8.481   0.746 -0.0795  0.2220  0.2417
 7952SOL     OW26234   8.812   1.401   9.573 -0.1387 -0.0686  0.2748
 7952SOL    HW126235   8.820   1.317   9.618  1.4714 -0.9767 -1.5692
 7952SOL    HW226236   8.717   1.416   9.568 -0.4310 -1.3292  1.3911
 7953SOL     OW26237   6.853   7.242   9.665 -0.2415 -0.1661 -1.1412
 7953SOL    HW126238   6.817   7.293   9.737 -1.2136 -1.9524 -0.2985
 7953SOL    HW226239   6.856   7.152   9.698  0.9492 -0.7631 -2.7285
 7954SOL     OW26240   8.731   8.825   2.823 -0.1824 -0.3391  0.4329
 7954SOL    HW126241   8.734   8.734   2.853  0.6712 -1.1545 -1.9462
 7954SOL    HW226242   8.637   8.847   2.823 -0.5314 -1.7179 -0.3148
 7955SOL     OW26243   9.800   4.523   0.645 -0.3153 -0.1735 -0.1818
 7955SOL    HW126244   9.812   4.470   0.567 -0.9415 -0.2587 -0.2266
 7955SOL    HW226245   9.764   4.606   0.613  0.4833  0.2160 -0.0935
 7956SOL     OW26246   5.072   0.064   0.860 -0.2227  0.5500  0.2816
 7956SOL    HW126247   5.092   0.026   0.946  0.7545  1.9275  0.6950
 7956SOL    HW226248   5.131   0.018   0.799 -1.4210 -0.9421  0.1810
 7957SOL     OW26249   7.679  10.518   6.503 -0.9442 -0.1030  0.6307
 7957SOL    HW126250   7.654  10.497   6.593  0.0789 -2.3350  0.4778
 7957SOL    HW226251   7.614  10.474   6.449 -0.3746 -0.5337  0.2816
 7958SOL     OW26252   2.772   6.741   6.661  0.1764 -0.1369  0.4080
 7958SOL    HW126253   2.826   6.737   6.740  0.3534 -0.7478  0.2625
 7958SOL    HW226254   2.831   6.772   6.593  0.3662 -0.8315  0.2426
 7959SOL     OW26255   1.211   2.353   0.897  0.4128 -0.4474 -0.4260
 7959SOL    HW126256   1.304   2.337   0.882  0.3271 -1.5297  0.1133
 7959SOL    HW226257   1.172   2.266   0.903 -0.7626 -0.0184 -1.3373
 7960SOL     OW26258   5.147   6.613   3.566  0.0159 -0.2285 -0.4335
 7960SOL    HW126259   5.213   6.586   3.629  0.0598  0.7748 -0.0211
 7960SOL    HW226260   5.195   6.625   3.484  0.4756  1.0018 -0.0145
 7961SOL     OW26261   3.962   8.543   5.199  0.1495 -0.0882  0.2048
 7961SOL    HW126262   3.878   8.503   5.178  0.6562 -0.9781 -0.2336
 7961SOL    HW226263   3.971   8.533   5.293  0.1505 -0.8044  0.1368
 7962SOL     OW26264   7.534   2.145   2.938 -0.4445 -0.2324  0.2474
 7962SOL    HW126265   7.624   2.117   2.924 -0.4138  0.0441 -0.0986
 7962SOL    HW226266   7.489   2.064   2.965 -0.0813 -0.3536  0.5044
 7963SOL     OW26267   1.729   7.368   1.333  0.4763  0.3120  0.3815
 7963SOL    HW126268   1.732   7.325   1.248 -1.0275  0.6302  0.1418
 7963SOL    HW226269   1.818   7.398   1.348  1.1139 -1.1124 -0.3586
 7964SOL     OW26270   1.197  10.010   8.659  0.3615 -0.0791 -0.9874
 7964SOL    HW126271   1.122   9.954   8.637  0.8525 -0.4616 -1.7427
 7964SOL    HW226272   1.171  10.097   8.628  0.2084 -0.2021 -1.2103
 7965SOL     OW26273   0.473  10.540   5.940  0.1145  0.5540 -0.2977
 7965SOL    HW126274   0.431  10.567   5.859  1.5743 -1.3475 -1.7812
 7965SOL    HW226275   0.563  10.518   5.914  0.3783 -0.9418  1.6365
 7966SOL     OW26276   7.307   3.635   6.346  0.3667  0.0386 -0.1740
 7966SOL    HW126277   7.353   3.691   6.409  0.7774  1.0473 -1.3352
 7966SOL    HW226278   7.241   3.692   6.307 -0.6186 -0.8848  0.1129
 7967SOL     OW26279   3.048   0.184   8.498  0.1530 -0.2286 -0.2848
 7967SOL    HW126280   3.042   0.095   8.463 -0.9798 -0.0192 -0.6644
 7967SOL    HW226281   2.975   0.231   8.457  1.1053  1.0466 -0.5904
 7968SOL     OW26282   3.976   3.748   0.096 -0.1823 -0.8053 -0.1027
 7968SOL    HW126283   4.040   3.696   0.144  1.1592 -0.3856 -1.3543
 7968SOL    HW226284   3.911   3.684   0.064  0.8850 -1.5815 -0.7695
 7969SOL     OW26285   3.950   1.941   4.466  0.8456  0.2909 -0.4236
 7969SOL    HW126286   3.941   1.944   4.561  2.3337  1.6370 -0.2782
 7969SOL    HW226287   3.931   1.850   4.442 -0.2566  0.1039  1.0605
 7970SOL     OW26288   3.066   8.374   5.565  0.0283  0.1324  0.0024
 7970SOL    HW126289   3.054   8.312   5.637 -1.6246  1.8607  1.3196
 7970SOL    HW226290   3.102   8.452   5.607 -1.8245  1.5073 -0.8159
 7971SOL     OW26291   7.661   7.747   7.613  0.0947  0.1014 -0.1200
 7971SOL    HW126292   7.719   7.671   7.613 -0.3499 -0.2463  0.3428
 7971SOL    HW226293   7.693   7.802   7.684  1.3936  1.1317 -1.4345
 7972SOL     OW26294   5.374  10.126   5.808  0.3085  0.3982 -0.4648
 7972SOL    HW126295   5.336  10.076   5.881  1.1580 -2.2524 -1.6906
 7972SOL    HW226296   5.299  10.157   5.758 -0.3659 -1.8634 -1.0001
 7973SOL     OW26297  10.724   7.198   2.611 -0.0187 -0.5840 -0.2330
 7973SOL    HW126298  10.762   7.152   2.537 -0.5573 -0.5781 -0.5221
 7973SOL    HW226299  10.786   7.269   2.631  0.9123 -1.5317  0.3443
 7974SOL     OW26300   3.713   0.837   4.306 -0.4455 -0.1767 -1.2066
 7974SOL    HW126301   3.743   0.919   4.345 -0.1045 -1.0593  0.4672
 7974SOL    HW226302   3.635   0.813   4.357 -0.7682 -0.6992 -1.9286
 7975SOL     OW26303   4.954   8.009   8.222 -0.5246  0.7056  0.2265
 7975SOL    HW126304   4.989   8.000   8.311  1.0544  2.7157 -0.1288
 7975SOL    HW226305   5.003   7.944   8.171 -0.3781  0.5547  0.5530
 7976SOL     OW26306   7.866   2.730  10.586  0.0030 -0.2553  0.5465
 7976SOL    HW126307   7.844   2.804  10.642  1.3676  1.3709 -0.9367
 7976SOL    HW226308   7.787   2.713  10.535 -0.0280  0.8266  0.2234
 7977SOL     OW26309   6.928  10.384   4.635  0.4985  0.6610  0.8519
 7977SOL    HW126310   6.935  10.345   4.722 -0.4354  0.6341  0.9239
 7977SOL    HW226311   6.849  10.345   4.597  1.5242 -0.2339 -0.4786
 7978SOL     OW26312   6.468   7.111   1.047 -0.0773  0.5164 -0.2428
 7978SOL    HW126313   6.541   7.172   1.057 -0.0062  0.2177  1.3156
 7978SOL    HW226314   6.467   7.062   1.128 -1.6604  0.1082 -0.4809
 7979SOL     OW26315   4.676   5.945   1.421 -0.5362  0.2190 -0.4364
 7979SOL    HW126316   4.600   6.002   1.410 -1.8051 -0.9475  1.4801
 7979SOL    HW226317   4.714   5.971   1.505  0.0724 -0.4253 -0.4961
 7980SOL     OW26318  10.664   7.306   3.686  0.2735  0.4761 -0.1479
 7980SOL    HW126319  10.693   7.356   3.610 -2.0568  0.1423 -1.3467
 7980SOL    HW226320  10.656   7.216   3.654 -0.1770  0.2261  0.6474
 7981SOL     OW26321   5.977   6.547   1.575  0.3525  0.2260  0.2509
 7981SOL    HW126322   5.895   6.510   1.608  0.6141 -0.8082 -0.2346
 7981SOL    HW226323   6.029   6.565   1.653 -0.2514  0.7175  0.5515
 7982SOL     OW26324   5.351   8.737   6.400 -0.1897  0.1929  0.0496
 7982SOL    HW126325   5.355   8.740   6.305  2.0605 -0.0869  0.0850
 7982SOL    HW226326   5.295   8.662   6.420 -1.2630  0.6760 -1.0180
 7983SOL     OW26327   5.470   3.761   5.956 -0.2072 -0.1114 -0.2621
 7983SOL    HW126328   5.413   3.731   5.886 -0.9201 -0.1491  0.3233
 7983SOL    HW226329   5.421   3.832   5.998 -0.2265 -0.7423  0.8118
 7984SOL     OW26330   6.006   7.702   3.197  0.4969 -0.4188 -0.3502
 7984SOL    HW126331   6.083   7.744   3.156  0.7455 -1.1072 -0.6042
 7984SOL    HW226332   6.021   7.608   3.184 -0.1433 -0.5776  0.0535
 7985SOL     OW26333   1.344   3.228   9.334 -0.0389  0.3827  0.1767
 7985SOL    HW126334   1.271   3.189   9.383  0.0543 -1.5015 -1.0521
 7985SOL    HW226335   1.303   3.272   9.261 -0.0175  0.5090  0.2409
 7986SOL     OW26336   0.459   3.801  10.385  0.0569  0.7150  0.0348
 7986SOL    HW126337   0.523   3.730  10.392 -1.4916 -0.7194  0.2014
 7986SOL    HW226338   0.513   3.881  10.380  1.8673 -0.4818 -0.8073
 7987SOL     OW26339   1.569   0.977   9.314  0.2639  0.2738 -0.3664
 7987SOL    HW126340   1.500   0.910   9.316  0.4509  0.0987  0.6498
 7987SOL    HW226341   1.579   1.004   9.405 -0.9637  2.8788 -0.8860
 7988SOL     OW26342   2.625   2.868   5.898  0.1664  0.3300 -0.0213
 7988SOL    HW126343   2.581   2.863   5.814 -2.0559 -0.7208  1.1210
 7988SOL    HW226344   2.718   2.876   5.876 -0.3826  0.6103 -2.5310
 7989SOL     OW26345   4.161   4.809   8.510 -0.2087  0.1756  0.0855
 7989SOL    HW126346   4.165   4.777   8.600  0.3798 -2.2838 -0.7449
 7989SOL    HW226347   4.248   4.789   8.474 -1.0686 -0.7615 -1.5752
 7990SOL     OW26348   8.463   9.497   3.416 -0.1502  0.2235  0.4386
 7990SOL    HW126349   8.443   9.411   3.453 -0.9664  0.3955  0.4220
 7990SOL    HW226350   8.553   9.515   3.443  0.1914 -0.8380  0.0543
 7991SOL     OW26351   2.898   3.584   2.961 -0.1867  0.2574  0.0432
 7991SOL    HW126352   2.883   3.631   2.879 -4.7057 -0.3702  0.2535
 7991SOL    HW226353   2.878   3.492   2.941  1.4940 -0.4327  1.2487
 7992SOL     OW26354  10.643   2.325   0.496 -0.3206  0.0248  0.5899
 7992SOL    HW126355  10.571   2.388   0.501 -0.3192 -0.0209  1.1572
 7992SOL    HW226356  10.711   2.362   0.552 -0.2899 -0.4443  0.8668
 7993SOL     OW26357   6.673   2.272   0.437 -0.3461  0.5118  0.3117
 7993SOL    HW126358   6.615   2.196   0.442 -0.3472  0.2180 -2.7304
 7993SOL    HW226359   6.665   2.303   0.347  1.0588  3.0334  0.9644
 7994SOL     OW26360   5.470   6.809   2.343  0.1049  0.0956 -0.4879
 7994SOL    HW126361   5.378   6.836   2.351 -0.0786 -0.7577  0.4704
 7994SOL    HW226362   5.467   6.714   2.342  0.8062  0.0326 -2.9890
 7995SOL     OW26363   6.666   9.588  10.359  0.9118 -0.2127  0.1826
 7995SOL    HW126364   6.668   9.570  10.453 -0.1828  0.9376  0.4558
 7995SOL    HW226365   6.680   9.503  10.317  0.9516 -0.8092  1.3894
 7996SOL     OW26366   9.122   3.416  10.334  0.1127  0.1492  0.0569
 7996SOL    HW126367   9.093   3.462  10.413 -0.8683 -0.2684 -0.0410
 7996SOL    HW226368   9.132   3.485  10.268 -0.5493  0.3276  0.1345
 7997SOL     OW26369   2.934   1.111   2.170 -0.1513 -0.5378 -0.0936
 7997SOL    HW126370   2.996   1.177   2.201 -2.3789  1.4728  0.3804
 7997SOL    HW226371   2.939   1.117   2.075  1.3918 -1.4618 -0.0991
 7998SOL     OW26372   0.240  10.573   7.216 -0.2732  0.1787 -0.2226
 7998SOL    HW126373   0.261  10.661   7.248 -0.1789  0.0767  0.0004
 7998SOL    HW226374   0.276  10.570   7.128  0.3026  0.1431  0.0094
 7999SOL     OW26375  10.222   0.595   8.543  0.4324  0.2293 -0.0269
 7999SOL    HW126376  10.136   0.557   8.525 -0.1926  0.8871  1.4057
 7999SOL    HW226377  10.211   0.689   8.528  1.1233  0.2390 -0.5518
 8000SOL     OW26378   4.433   0.589   9.445 -0.4779 -0.4531 -0.2851
 8000SOL    HW126379   4.389   0.612   9.527  1.3625  1.9411  0.1324
 8000SOL    HW226380   4.372   0.615   9.377 -0.6957  0.6716  0.3122
 8001SOL     OW26381   9.614   6.800   0.323 -0.1356  0.2238  0.0270
 8001SOL    HW126382   9.594   6.777   0.232 -1.3741 -0.2680  0.3991
 8001SOL    HW226383   9.704   6.833   0.320  0.7523 -2.0646 -0.9927
 8002SOL     OW26384   2.290   0.160   1.173  0.7309  0.1084 -0.3526
 8002SOL    HW126385   2.312   0.096   1.104  1.2836  0.7733 -0.8093
 8002SOL    HW226386   2.213   0.206   1.140  0.7962  0.2019 -0.3744
 8003SOL     OW26387   4.800   8.332   3.394  0.2151  0.5673 -0.2596
 8003SOL    HW126388   4.839   8.418   3.412 -1.4137  0.8201  2.4826
 8003SOL    HW226389   4.706   8.345   3.404 -0.2023 -1.2565 -1.2802
 8004SOL     OW26390   9.114   0.473   4.210 -0.5207 -0.5614 -0.1380
 8004SOL    HW126391   9.143   0.556   4.172 -1.6255 -1.0393 -2.1890
 8004SOL    HW226392   9.186   0.412   4.194 -0.3501 -0.3838 -0.0522
 8005SOL     OW26393   0.734   4.078   5.127  0.7649 -0.0956 -0.5948
 8005SOL    HW126394   0.755   4.060   5.219 -0.1604 -0.5718 -0.4630
 8005SOL    HW226395   0.646   4.116   5.129  0.2926 -1.0837 -1.3449
 8006SOL     OW26396   7.078   2.867   0.274 -0.1232  0.2670  0.5651
 8006SOL    HW126397   7.029   2.949   0.284  0.0801  0.4345  0.2001
 8006SOL    HW226398   7.015   2.807   0.232 -0.1379  0.3657  0.4450
 8007SOL     OW26399   7.378   4.758   5.004 -0.2352 -0.3876  0.4351
 8007SOL    HW126400   7.288   4.764   5.037  0.1351 -0.4549  1.4993
 8007SOL    HW226401   7.411   4.675   5.039  0.0687 -0.6302 -0.4067
 8008SOL     OW26402   3.333   2.112   6.224 -0.2434 -0.2152  0.4298
 8008SOL    HW126403   3.424   2.084   6.234 -0.1465 -0.0757 -0.0072
 8008SOL    HW226404   3.314   2.163   6.303  0.0824 -0.1807  0.4860
 8009SOL     OW26405   5.872   5.684  10.496 -0.4208  0.1114 -0.6514
 8009SOL    HW126406   5.945   5.703  10.437  1.7115  1.0720  2.0773
 8009SOL    HW226407   5.835   5.770  10.517  0.9371  0.1747  1.7849
 8010SOL     OW26408  10.504   6.361  10.616  0.0957  0.2628 -0.0826
 8010SOL    HW126409  10.432   6.335  10.674  1.6648 -1.6913  1.1306
 8010SOL    HW226410  10.530   6.448  10.647 -1.3727  0.7650 -0.2005
 8011SOL     OW26411   7.872   0.892   6.784  0.0731 -0.3384  0.5970
 8011SOL    HW126412   7.923   0.892   6.703 -1.9233  0.9116 -0.7442
 8011SOL    HW226413   7.929   0.849   6.848  2.4466  0.2684 -0.9824
 8012SOL     OW26414   7.341   7.595   1.095  0.6069 -0.4222 -0.0055
 8012SOL    HW126415   7.372   7.628   1.011  0.1191  0.1632  0.0413
 8012SOL    HW226416   7.298   7.512   1.074  0.3560 -0.2036 -0.3583
 8013SOL     OW26417   1.926  10.220   9.556 -0.2048  0.1982  0.3852
 8013SOL    HW126418   1.900  10.214   9.648 -0.9968  0.9660  0.2301
 8013SOL    HW226419   1.881  10.298   9.524  1.1383  0.7220 -0.3099
 8014SOL     OW26420  10.109   5.195   5.697  0.7058  0.0329 -0.0101
 8014SOL    HW126421  10.071   5.143   5.768 -0.2402  0.0619 -0.4764
 8014SOL    HW226422  10.133   5.130   5.631  1.1335  0.0504  0.1216
 8015SOL     OW26423   8.548   1.252   1.129  0.1190 -0.2231  0.4866
 8015SOL    HW126424   8.588   1.321   1.182 -0.7954  0.8829 -0.2118
 8015SOL    HW226425   8.487   1.208   1.188 -2.1744  2.0978  0.0195
 8016SOL     OW26426   5.746   3.425   4.321 -0.2315  0.6606  0.2855
 8016SOL    HW126427   5.651   3.428   4.316 -0.2910  0.0252  0.9859
 8016SOL    HW226428   5.770   3.343   4.277 -0.0215  0.7045  0.3149
 8017SOL     OW26429   8.673   1.091   7.284  0.1018  0.0622 -0.0562
 8017SOL    HW126430   8.579   1.102   7.300  0.2399 -0.3433  1.1399
 8017SOL    HW226431   8.703   1.177   7.254 -0.4273  0.5280  0.7323
 8018SOL     OW26432   3.587   2.563   5.646 -0.0347  0.1817  0.2471
 8018SOL    HW126433   3.678   2.539   5.630  0.2303  1.5240 -0.4924
 8018SOL    HW226434   3.578   2.560   5.741  0.5592 -0.7162  0.2841
 8019SOL     OW26435   1.362   9.284   1.989 -0.2567  0.0019 -0.1597
 8019SOL    HW126436   1.298   9.353   2.002 -1.1909 -0.9256  0.2427
 8019SOL    HW226437   1.439   9.330   1.955 -1.3110  1.0593 -1.2279
 8020SOL     OW26438   8.445   6.312   2.816 -0.9653 -0.3103 -0.4592
 8020SOL    HW126439   8.453   6.243   2.751 -0.1992  1.4404 -2.3112
 8020SOL    HW226440   8.482   6.389   2.774  0.0625  0.7961  2.2490
 8021SOL     OW26441  10.577   0.456   0.151  0.1432 -0.2980 -0.3902
 8021SOL    HW126442  10.499   0.438   0.098  0.5857 -0.1231 -1.1149
 8021SOL    HW226443  10.650   0.426   0.097  0.5140 -1.5479  0.7693
 8022SOL     OW26444   9.725   7.486   1.672  0.5925 -0.5426 -0.2549
 8022SOL    HW126445   9.748   7.408   1.723 -0.1121 -0.4831  0.1690
 8022SOL    HW226446   9.768   7.473   1.588  3.3115  0.1780  0.9096
 8023SOL     OW26447   1.582   4.350   5.028 -0.3265  0.6507  0.1107
 8023SOL    HW126448   1.493   4.360   5.061 -1.2688 -1.3537 -1.5822
 8023SOL    HW226449   1.571   4.318   4.938  2.1211  0.5084 -0.2229
 8024SOL     OW26450   0.329   1.946   8.442 -0.4286 -0.5487  0.3118
 8024SOL    HW126451   0.265   1.948   8.370  1.9043 -0.6406 -1.9423
 8024SOL    HW226452   0.347   2.037   8.461  1.2691 -0.4263 -1.5664
 8025SOL     OW26453   8.941   0.018   3.061  0.1855  0.0516 -0.3037
 8025SOL    HW126454   8.878   0.022   2.989 -1.1211  0.6421  0.8273
 8025SOL    HW226455   8.888  -0.000   3.139  1.3750  0.8071  0.7248
 8026SOL     OW26456   6.141  10.040   8.851 -0.0664  0.0082  0.5929
 8026SOL    HW126457   6.059  10.038   8.801 -0.6857 -1.3658  1.6138
 8026SOL    HW226458   6.201   9.984   8.802  0.4336  1.3227 -0.3669
 8027SOL     OW26459   1.300   8.899   7.979 -0.3578 -0.1906  0.1881
 8027SOL    HW126460   1.205   8.914   7.975 -0.3544  0.3429  1.6637
 8027SOL    HW226461   1.313   8.849   8.059  0.6786  0.2992  0.3375
 8028SOL     OW26462   1.667   6.475   4.697 -0.0696  0.2723  0.2989
 8028SOL    HW126463   1.663   6.415   4.771  2.7932 -0.9560 -0.4133
 8028SOL    HW226464   1.662   6.418   4.620 -2.8143  1.5066 -0.5836
 8029SOL     OW26465   9.331   8.137   0.894  0.4283 -0.7410  0.1865
 8029SOL    HW126466   9.258   8.181   0.938  0.7899 -0.2219  0.2770
 8029SOL    HW226467   9.385   8.208   0.860  0.5000 -1.1286 -0.5319
 8030SOL     OW26468   5.768   0.754   7.691  0.2560  0.2735 -0.2633
 8030SOL    HW126469   5.795   0.695   7.762  0.1907  1.5674  0.8662
 8030SOL    HW226470   5.783   0.842   7.726 -3.0346  1.0480 -0.5156
 8031SOL     OW26471   2.104   1.522   9.494  0.0786  0.4667  0.3099
 8031SOL    HW126472   2.126   1.612   9.468  1.4414  0.0285 -0.1807
 8031SOL    HW226473   2.161   1.504   9.569 -0.8717  0.3262  1.0051
 8032SOL     OW26474   7.210   2.228  10.514  0.4238 -0.0909  0.0451
 8032SOL    HW126475   7.244   2.237  10.425  0.6573  0.2512  0.1665
 8032SOL    HW226476   7.276   2.269  10.569  0.1503 -0.0591  0.3526
 8033SOL     OW26477   7.701   0.095   3.241 -0.0454 -0.5122 -0.2805
 8033SOL    HW126478   7.707   0.003   3.216  0.4661 -1.4048  2.8248
 8033SOL    HW226479   7.682   0.095   3.334 -1.6609  2.5762 -0.4535
 8034SOL     OW26480   3.131   5.351   2.607 -0.3701 -0.3808 -0.4231
 8034SOL    HW126481   3.139   5.284   2.675 -0.7927 -1.2199 -1.1841
 8034SOL    HW226482   3.220   5.364   2.575 -0.5446 -2.2736 -1.8445
 8035SOL     OW26483   0.145   3.434   5.672 -0.4825  0.2736  0.0939
 8035SOL    HW126484   0.212   3.407   5.735  0.6385 -0.6491 -1.4158
 8035SOL    HW226485   0.071   3.376   5.690 -1.2240  1.7911  2.2580
 8036SOL     OW26486   7.639   1.644   6.926  0.1174 -0.3317 -0.6931
 8036SOL    HW126487   7.623   1.550   6.921  0.8727 -0.6405  1.5913
 8036SOL    HW226488   7.706   1.661   6.861 -0.5557 -1.2212 -1.6467
 8037SOL     OW26489   8.093  10.162   0.219  0.0173 -0.2631  0.0389
 8037SOL    HW126490   8.134  10.116   0.145  1.6271  2.1013 -0.6359
 8037SOL    HW226491   8.103  10.255   0.198 -3.5136  0.4993  1.1315
 8038SOL     OW26492   2.221   8.638   2.998  0.3215  0.3239 -0.6068
 8038SOL    HW126493   2.140   8.658   3.045  1.0774  3.2123 -0.3522
 8038SOL    HW226494   2.262   8.724   2.983  3.3293 -1.0263 -0.7520
 8039SOL     OW26495   3.373   1.038   9.908 -0.0791  0.0123  0.2880
 8039SOL    HW126496   3.348   0.968   9.848 -1.2610  1.0316 -0.4466
 8039SOL    HW226497   3.460   1.065   9.878 -0.2600 -0.1228 -0.3765
 8040SOL     OW26498   7.756   5.042   1.241  0.0183 -0.5883 -0.1469
 8040SOL    HW126499   7.743   5.014   1.332  0.8478 -0.1183  0.1266
 8040SOL    HW226500   7.752   5.137   1.245 -1.6184 -0.6015 -0.8864
 8041SOL     OW26501   6.314   1.936   6.532  0.2007  0.0896 -0.3107
 8041SOL    HW126502   6.272   1.861   6.575 -0.8449 -0.5893 -2.3865
 8041SOL    HW226503   6.251   2.007   6.543 -0.1696 -0.1440 -0.9070
 8042SOL     OW26504   3.611   4.374   2.603 -0.3798 -0.0022 -0.3280
 8042SOL    HW126505   3.568   4.371   2.689  0.3004 -0.3662  0.0082
 8042SOL    HW226506   3.597   4.463   2.572  0.2988  0.4618  0.6477
 8043SOL     OW26507   1.425  10.154   2.183 -0.0764 -0.6931  0.4517
 8043SOL    HW126508   1.509  10.199   2.179  0.2090 -1.1363  1.3259
 8043SOL    HW226509   1.423  10.114   2.269 -1.2048 -0.6551  0.4633
 8044SOL     OW26510   2.734   9.116   1.386 -0.2062 -0.0990  0.2544
 8044SOL    HW126511   2.742   9.188   1.448 -0.6868  0.6737 -0.5474
 8044SOL    HW226512   2.697   9.044   1.437 -0.1108  0.3530  0.9762
 8045SOL     OW26513   1.833   7.327   0.257 -0.2161 -0.1532  0.4033
 8045SOL    HW126514   1.847   7.245   0.209  1.3303  1.0251 -1.2668
 8045SOL    HW226515   1.740   7.324   0.282 -0.3183 -2.1837 -0.0094
 8046SOL     OW26516   6.007   8.643   5.508 -0.2125 -0.6639  0.0111
 8046SOL    HW126517   5.950   8.566   5.509 -0.9086 -0.1602  0.9652
 8046SOL    HW226518   5.990   8.686   5.591  0.7592  0.1007 -0.1704
 8047SOL     OW26519   9.296   0.074   7.097  0.1531 -0.0086  0.1829
 8047SOL    HW126520   9.235   0.019   7.047  0.1725 -0.2210  0.3920
 8047SOL    HW226521   9.373   0.018   7.111 -0.3390 -0.3947  1.5123
 8048SOL     OW26522   0.904   0.902   6.785 -0.3771  0.2001 -0.0006
 8048SOL    HW126523   0.956   0.981   6.767 -0.4253 -0.0660 -1.4125
 8048SOL    HW226524   0.876   0.912   6.877  2.0936  0.3892  0.8072
 8049SOL     OW26525   9.348   0.721   6.440 -0.2754  0.4117  0.2487
 8049SOL    HW126526   9.353   0.646   6.381 -1.1262 -0.2425  0.9797
 8049SOL    HW226527   9.320   0.794   6.384 -0.8454 -0.1439 -0.2059
 8050SOL     OW26528   3.364   1.781   9.081  0.6055 -0.1711 -0.0870
 8050SOL    HW126529   3.343   1.689   9.100 -0.8163 -0.1974 -1.5557
 8050SOL    HW226530   3.300   1.831   9.131  0.1961 -0.0708 -0.6931
 8051SOL     OW26531   3.663   0.076   8.396  0.3168 -0.4818  0.3697
 8051SOL    HW126532   3.751   0.072   8.433 -0.1786  2.5692  2.2558
 8051SOL    HW226533   3.667   0.147   8.331 -0.6545 -0.5554  0.2086
 8052SOL     OW26534   7.604   8.977   9.714  0.0578  0.3205 -0.2606
 8052SOL    HW126535   7.610   8.955   9.621 -1.2501  1.4032 -0.6260
 8052SOL    HW226536   7.644   9.064   9.720 -2.0599  1.3559 -0.2854
 8053SOL     OW26537  10.585   1.515   0.749 -0.6548 -0.5915  0.0053
 8053SOL    HW126538  10.511   1.480   0.799 -0.1259  0.5594  1.7068
 8053SOL    HW226539  10.652   1.532   0.816  0.3019  0.4923 -1.1962
 8054SOL     OW26540   7.643   9.386   2.243  0.0879 -0.2930  0.1821
 8054SOL    HW126541   7.613   9.337   2.319 -1.2519 -1.1772 -0.8702
 8054SOL    HW226542   7.668   9.319   2.180 -0.0227  0.3966 -0.6172
 8055SOL     OW26543   5.204   8.133   5.041  0.2328 -0.1168 -0.5869
 8055SOL    HW126544   5.244   8.220   5.036  0.1883  0.0125  0.8408
 8055SOL    HW226545   5.112   8.151   5.059  0.4363 -0.4306  0.9561
 8056SOL     OW26546   7.684   0.077  10.542  0.8367 -0.3750 -0.1741
 8056SOL    HW126547   7.774   0.044  10.533  0.7666 -0.4762 -0.5191
 8056SOL    HW226548   7.656   0.094  10.452  0.8849  0.6750 -0.0029
 8057SOL     OW26549   7.289  10.252   1.854 -0.1376  0.4166  0.0780
 8057SOL    HW126550   7.288  10.295   1.940  1.9615 -1.1713  0.9914
 8057SOL    HW226551   7.251  10.165   1.871 -1.1592  0.6510 -0.9642
 8058SOL     OW26552   7.614   3.142   1.944 -0.0230 -0.8009  0.4070
 8058SOL    HW126553   7.594   3.210   2.008  0.8191 -2.3236  2.3782
 8058SOL    HW226554   7.553   3.071   1.964 -1.1205 -0.5876 -1.8296
 8059SOL     OW26555   3.396   5.041   7.344 -0.4302 -0.0005  0.0717
 8059SOL    HW126556   3.431   5.030   7.433  1.2363  1.5827 -0.3318
 8059SOL    HW226557   3.318   5.095   7.355  0.9862  2.0773  0.4382
 8060SOL     OW26558   6.458   0.311   3.239 -0.3171  0.1367 -0.4363
 8060SOL    HW126559   6.392   0.349   3.180 -0.8936 -0.5752 -0.2726
 8060SOL    HW226560   6.521   0.269   3.180 -1.7642 -2.0173 -0.5853
 8061SOL     OW26561   6.881   8.560   8.220 -0.0222 -0.0186 -0.5103
 8061SOL    HW126562   6.815   8.517   8.167 -0.6562 -0.7874  0.8605
 8061SOL    HW226563   6.958   8.564   8.164 -0.5869 -1.0354 -1.3833
 8062SOL     OW26564   8.384   4.686   2.858 -0.5700 -0.2536  0.0465
 8062SOL    HW126565   8.466   4.657   2.819 -0.7143 -0.6250  0.0096
 8062SOL    HW226566   8.404   4.772   2.895  0.5309 -1.3517  2.2022
 8063SOL     OW26567   9.704   6.018   3.224 -0.3275 -0.4400 -0.0753
 8063SOL    HW126568   9.612   6.021   3.196 -0.1336  0.9768 -0.6638
 8063SOL    HW226569   9.749   5.974   3.152 -0.5538 -1.2323  0.2617
 8064SOL     OW26570   3.886   5.892   9.730 -0.3348  0.1415 -0.6336
 8064SOL    HW126571   3.959   5.830   9.730 -0.3243  0.1252  0.6200
 8064SOL    HW226572   3.917   5.966   9.679  1.1389  0.7532  1.0461
 8065SOL     OW26573   4.907   1.102   4.794  0.3213 -0.0985  0.1127
 8065SOL    HW126574   4.839   1.036   4.804 -0.0475  0.3896  0.9739
 8065SOL    HW226575   4.942   1.088   4.707 -0.1274 -1.0723  0.0816
 8066SOL     OW26576   4.861   9.453   7.758 -0.3342  0.0009  0.0312
 8066SOL    HW126577   4.772   9.463   7.792 -0.1346  2.0562  0.1131
 8066SOL    HW226578   4.859   9.498   7.673  0.9045  1.2277  0.6061
 8067SOL     OW26579   3.772   2.627   1.225  0.2008  0.0896 -0.0814
 8067SOL    HW126580   3.813   2.558   1.275  1.9634 -0.3060 -1.9260
 8067SOL    HW226581   3.795   2.608   1.134 -3.1344  0.5338 -1.1877
 8068SOL     OW26582   1.200   8.519   4.405  0.2733 -0.1498  0.2155
 8068SOL    HW126583   1.212   8.485   4.493  0.5328 -0.5928  0.0132
 8068SOL    HW226584   1.275   8.577   4.390  0.9200 -1.0655 -0.1745
 8069SOL     OW26585   5.979   3.449   7.766 -0.2905  0.1042 -0.2754
 8069SOL    HW126586   5.912   3.384   7.787  0.1499 -0.0747  0.6457
 8069SOL    HW226587   6.026   3.412   7.691 -0.0993 -0.6113  0.1833
 8070SOL     OW26588  10.065   7.487   0.754  0.7080 -0.3435 -0.1361
 8070SOL    HW126589  10.007   7.417   0.786 -0.5221  0.8043  0.2184
 8070SOL    HW226590  10.106   7.523   0.833  3.1998 -2.1423 -0.4723
 8071SOL     OW26591  10.707   4.053   9.365 -0.0313 -0.1273 -0.3755
 8071SOL    HW126592  10.721   4.057   9.460 -0.9810  1.8018 -0.2519
 8071SOL    HW226593  10.627   4.103   9.351 -0.2272 -0.8672 -2.1558
 8072SOL     OW26594   9.139   6.551   5.274  0.3908 -0.2394  0.0006
 8072SOL    HW126595   9.200   6.585   5.340  1.6908  0.8012 -1.6445
 8072SOL    HW226596   9.174   6.582   5.191 -1.1920 -1.5001 -1.2082
 8073SOL     OW26597   7.605   7.747   0.364 -0.3761  0.1847 -0.0091
 8073SOL    HW126598   7.596   7.802   0.441 -0.3815 -0.9042  0.7985
 8073SOL    HW226599   7.561   7.796   0.294 -1.4243  0.6727  0.9489
 8074SOL     OW26600   8.814   1.238   3.837  0.8699 -0.1770  0.1459
 8074SOL    HW126601   8.742   1.296   3.812  0.0972 -0.7507  0.9765
 8074SOL    HW226602   8.893   1.282   3.804  0.3379  1.4421  0.9377
 8075SOL     OW26603   5.887   3.807   3.592 -0.0090  0.8503  0.2939
 8075SOL    HW126604   5.900   3.733   3.533  0.9105 -0.0664  1.5751
 8075SOL    HW226605   5.799   3.838   3.573 -0.8137 -1.2080  0.3523
 8076SOL     OW26606   8.971   0.500   1.509  0.3956  0.1875 -0.0412
 8076SOL    HW126607   8.917   0.537   1.440  1.0507  2.4830  0.5830
 8076SOL    HW226608   8.957   0.558   1.584  0.7485 -1.4350  1.3353
 8077SOL     OW26609   0.690   6.574   8.052  0.2254  0.4885  0.0437
 8077SOL    HW126610   0.679   6.667   8.032 -0.8719  0.8447  2.0639
 8077SOL    HW226611   0.771   6.571   8.103  0.5291  0.2396 -0.4415
 8078SOL     OW26612   8.886   9.670   4.798  0.4605 -0.4895  0.5354
 8078SOL    HW126613   8.809   9.716   4.832  0.8537 -0.1905  1.0277
 8078SOL    HW226614   8.897   9.704   4.709  0.4870  0.0452  0.7393
 8079SOL     OW26615   4.064   4.435   5.619 -0.2217 -0.2167 -0.0625
 8079SOL    HW126616   4.092   4.356   5.573 -1.8317 -1.1450  0.4760
 8079SOL    HW226617   3.985   4.464   5.571 -0.9379 -0.2422  1.0694
 8080SOL     OW26618   8.022   4.529   7.727  0.5615 -0.1969 -0.1958
 8080SOL    HW126619   7.939   4.576   7.717  1.0217  0.6883  0.0321
 8080SOL    HW226620   8.022   4.501   7.819  0.4085 -0.4032 -0.2588
 8081SOL     OW26621   9.868   1.014   1.200 -0.3890 -0.3015 -0.3004
 8081SOL    HW126622   9.834   0.987   1.115  0.9234 -0.1756 -0.8845
 8081SOL    HW226623   9.962   1.027   1.186 -0.1380 -0.3014  1.1685
 8082SOL     OW26624   6.030   7.050   3.544  0.1526 -0.0559  0.1802
 8082SOL    HW126625   6.039   6.955   3.537 -2.5673 -0.4144  0.2802
 8082SOL    HW226626   6.057   7.083   3.458  0.0240 -1.0376 -0.2510
 8083SOL     OW26627   2.339   2.778   8.746 -0.2528 -0.3569 -0.0586
 8083SOL    HW126628   2.345   2.734   8.662 -0.4294 -0.2670 -0.1184
 8083SOL    HW226629   2.282   2.722   8.799  1.7556 -1.6878  0.8088
 8084SOL     OW26630   3.453   5.855   5.118 -0.6962 -0.8007  0.1209
 8084SOL    HW126631   3.497   5.770   5.118  1.4335  0.2254 -0.1323
 8084SOL    HW226632   3.449   5.880   5.210 -1.7294 -1.3434  0.2361
 8085SOL     OW26633   3.659   9.504   3.043 -0.3435 -0.3309 -0.6575
 8085SOL    HW126634   3.712   9.540   2.972 -0.4618 -0.2431 -0.7009
 8085SOL    HW226635   3.705   9.424   3.068  0.1563  0.0754 -0.2678
 8086SOL     OW26636   0.765   4.988   0.775 -0.1570 -0.2382  0.0025
 8086SOL    HW126637   0.755   4.970   0.682  0.6111 -1.2446  0.0879
 8086SOL    HW226638   0.682   5.027   0.802  0.1356  1.4622 -1.3931
 8087SOL     OW26639   7.489   0.898   8.148 -0.3522  0.3311  0.0101
 8087SOL    HW126640   7.522   0.812   8.121 -1.8351 -0.0627 -0.6800
 8087SOL    HW226641   7.410   0.878   8.199 -1.4551  1.2953 -1.2457
 8088SOL     OW26642   1.052   9.305   3.974  0.0602  0.0355 -0.2217
 8088SOL    HW126643   1.109   9.228   3.987  1.3465  1.1038  0.7576
 8088SOL    HW226644   1.109   9.370   3.934 -1.1836  0.3137 -1.6214
 8089SOL     OW26645   6.011   5.411  10.554 -0.1025  0.5573 -0.1245
 8089SOL    HW126646   5.977   5.460  10.479  0.1811 -0.2241 -0.7691
 8089SOL    HW226647   6.058   5.477  10.606 -0.6249  1.1764 -0.4338
 8090SOL     OW26648   0.766   4.569   2.485 -0.0442 -0.0144 -0.2131
 8090SOL    HW126649   0.820   4.582   2.563  0.7895  4.3895 -1.2684
 8090SOL    HW226650   0.676   4.568   2.518  0.3508 -2.7457  1.0945
 8091SOL     OW26651   8.721   7.306   7.604 -0.3426  0.2099 -0.1019
 8091SOL    HW126652   8.723   7.283   7.697  1.5385  0.2395 -0.0885
 8091SOL    HW226653   8.657   7.246   7.566 -1.5571  0.5756  1.2894
 8092SOL     OW26654   5.719   0.961   3.171 -0.0132 -0.4519  0.3575
 8092SOL    HW126655   5.778   0.934   3.101  0.1435  0.3075  0.1890
 8092SOL    HW226656   5.724   1.056   3.172 -0.6339 -0.4136  0.8675
 8093SOL     OW26657   9.242   6.253   5.721  0.3647  0.6918  0.0631
 8093SOL    HW126658   9.195   6.326   5.682 -0.8374  0.4837  1.0594
 8093SOL    HW226659   9.318   6.293   5.763  0.0447  1.2887  0.0843
 8094SOL     OW26660   5.035   3.494   0.769 -0.4063  0.1391 -0.0642
 8094SOL    HW126661   5.038   3.474   0.675 -1.0571 -1.8072  0.2920
 8094SOL    HW226662   5.127   3.488   0.797 -0.5253 -2.8132  0.0380
 8095SOL     OW26663   6.055   6.429   4.473 -0.3490  0.1026  0.9572
 8095SOL    HW126664   6.072   6.376   4.551  1.5514  0.6117  0.9250
 8095SOL    HW226665   6.141   6.462   4.447 -1.2695  1.9575  0.0976
 8096SOL     OW26666   6.563  10.076   7.492 -0.0318 -0.3564 -0.3578
 8096SOL    HW126667   6.616  10.014   7.443  1.2573 -1.7553  2.5835
 8096SOL    HW226668   6.626  10.125   7.546 -1.3420  1.0741 -0.0374
 8097SOL     OW26669   4.306   0.422   1.354 -0.2686  0.3848 -0.3179
 8097SOL    HW126670   4.354   0.456   1.279  0.6945 -0.7994 -0.2791
 8097SOL    HW226671   4.313   0.490   1.421  2.4092 -0.1922  0.0971
 8098SOL     OW26672   0.480   0.507   1.354 -0.4244  0.0382 -0.1662
 8098SOL    HW126673   0.574   0.488   1.351 -0.1002  1.6789 -1.7213
 8098SOL    HW226674   0.470   0.564   1.431 -0.3020 -0.7767  0.4696
 8099SOL     OW26675   4.362   9.794   1.247  0.0709 -0.4445  0.3242
 8099SOL    HW126676   4.373   9.752   1.332 -2.5901 -1.7671  0.1231
 8099SOL    HW226677   4.387   9.727   1.183 -0.5817 -0.4332  0.0467
 8100SOL     OW26678   7.267   4.032   1.138  0.5287  0.3187 -0.2689
 8100SOL    HW126679   7.328   4.025   1.211  0.2658 -0.8126 -0.1518
 8100SOL    HW226680   7.295   4.112   1.092 -1.0151  2.6673  2.5759
 8101SOL     OW26681   8.340   7.368   2.552  0.0763 -0.3215  0.0571
 8101SOL    HW126682   8.298   7.452   2.531  1.7482  0.6065  0.2567
 8101SOL    HW226683   8.424   7.392   2.591  0.1879 -2.0998  1.0021
 8102SOL     OW26684   5.134   7.723   9.602  0.5283  0.2451 -0.0147
 8102SOL    HW126685   5.218   7.685   9.576  0.1043 -0.0370 -1.0287
 8102SOL    HW226686   5.150   7.817   9.601  0.9296  0.1814  0.1483
 8103SOL     OW26687   2.390   5.238   4.887  0.0701  0.2245  0.5650
 8103SOL    HW126688   2.358   5.254   4.798 -0.5967  0.8998  0.9192
 8103SOL    HW226689   2.428   5.321   4.915  0.7579 -0.1309  0.7317
 8104SOL     OW26690   9.410   4.322   0.654  0.5772  0.3366 -0.6548
 8104SOL    HW126691   9.494   4.281   0.636  0.5044  0.2615 -0.8246
 8104SOL    HW226692   9.384   4.289   0.740  0.2693 -0.3802 -1.0211
 8105SOL     OW26693   5.455   6.146   6.983  0.2279  0.0581 -0.0437
 8105SOL    HW126694   5.414   6.076   6.932 -1.2275  0.9927 -0.2203
 8105SOL    HW226695   5.401   6.153   7.062 -0.5809  1.9219 -0.6934
 8106SOL     OW26696   5.577   4.897   9.330 -0.2453 -0.1157  0.1951
 8106SOL    HW126697   5.574   4.855   9.416  0.8998  1.3374  0.9788
 8106SOL    HW226698   5.525   4.976   9.341  1.6011  1.1436  0.1924
 8107SOL     OW26699   3.200   9.558  10.543  0.1852  0.0916 -0.5007
 8107SOL    HW126700   3.194   9.491  10.475 -0.8885 -1.0726  0.6933
 8107SOL    HW226701   3.226   9.511  10.621 -2.4421  0.6897  0.8390
 8108SOL     OW26702   9.049   1.875   7.448  0.0915  0.0603  0.0207
 8108SOL    HW126703   9.025   1.783   7.458 -0.9821  0.2875 -0.2874
 8108SOL    HW226704   8.977   1.912   7.396  0.5904  1.0340  0.0127
 8109SOL     OW26705   7.599   5.206   4.642 -0.3711 -0.0684  0.3234
 8109SOL    HW126706   7.664   5.158   4.693  0.0195 -0.3035 -0.3818
 8109SOL    HW226707   7.516   5.163   4.663 -0.0141 -1.1034 -0.3558
 8110SOL     OW26708   9.839   9.927   0.780 -0.2471 -0.4491  0.2103
 8110SOL    HW126709   9.868  10.011   0.817  0.2137 -0.6612  0.3383
 8110SOL    HW226710   9.896   9.914   0.704  0.4095 -1.1576  0.8080
 8111SOL     OW26711   1.988  10.123   3.898  0.2961 -0.2555  0.6025
 8111SOL    HW126712   2.049  10.179   3.849 -0.3888  0.5987  0.6890
 8111SOL    HW226713   1.902  10.143   3.861 -0.0438 -0.7218  1.1243
 8112SOL     OW26714   6.250   1.956   9.310  0.4422 -0.3860  0.1681
 8112SOL    HW126715   6.205   1.968   9.393  1.4406 -0.9469  0.8150
 8112SOL    HW226716   6.187   1.912   9.254 -0.3044  0.1535  0.5590
 8113SOL     OW26717   2.298   3.236   8.375  0.2693 -0.4035  0.4314
 8113SOL    HW126718   2.212   3.223   8.335 -1.0349 -0.2102  2.9726
 8113SOL    HW226719   2.327   3.321   8.340 -1.0361  0.0111  0.2775
 8114SOL     OW26720   8.805   5.109   6.385  0.2388  0.2599  0.3289
 8114SOL    HW126721   8.739   5.078   6.323  0.1010  0.0495  0.5816
 8114SOL    HW226722   8.879   5.048   6.374 -0.0436 -0.1798  0.8472
 8115SOL     OW26723   9.012   8.810   5.295  0.4203  0.2204  0.0198
 8115SOL    HW126724   9.081   8.789   5.358  0.1892 -0.5147  0.0294
 8115SOL    HW226725   8.935   8.828   5.350  0.5787  0.9699  0.0055
 8116SOL     OW26726   7.913   0.305  10.647  0.1413  0.1092 -0.1108
 8116SOL    HW126727   7.842   0.334  10.589  0.8457 -1.1940 -1.6818
 8116SOL    HW226728   7.895   0.351  10.730 -0.6990  2.3226 -1.4081
 8117SOL     OW26729   7.272   7.561   0.650 -0.2098  0.1969  0.3974
 8117SOL    HW126730   7.225   7.507   0.587 -1.3872  0.4605  1.0366
 8117SOL    HW226731   7.206   7.616   0.690  0.8499  1.5748  0.3361
 8118SOL     OW26732   1.148   4.546   0.928 -0.5895 -0.2513  0.3288
 8118SOL    HW126733   1.089   4.511   0.996 -0.2978 -0.5876  0.4150
 8118SOL    HW226734   1.094   4.552   0.850 -0.5783 -1.1601  0.2449
 8119SOL     OW26735   4.050   4.668   3.499 -0.1872  0.1685  0.2776
 8119SOL    HW126736   4.124   4.704   3.549  1.8310 -1.3295 -1.4302
 8119SOL    HW226737   4.058   4.573   3.509 -0.7150 -0.0924 -1.4713
 8120SOL     OW26738   5.944   9.510   5.402 -0.1597 -0.0056  0.4308
 8120SOL    HW126739   5.850   9.506   5.382 -0.1250  0.1018  0.2392
 8120SOL    HW226740   5.974   9.590   5.358  0.0434 -0.1017  0.3932
 8121SOL     OW26741   0.722   9.599   2.304  0.3311 -0.7403  0.1222
 8121SOL    HW126742   0.664   9.551   2.245  0.1663  0.6603 -0.8887
 8121SOL    HW226743   0.763   9.665   2.249 -1.9422  2.5238  1.9956
 8122SOL     OW26744   4.066   5.678   3.913  0.4650 -0.2982  0.0256
 8122SOL    HW126745   4.008   5.636   3.976  0.9466 -1.2284 -0.1342
 8122SOL    HW226746   4.100   5.606   3.860  1.7241  0.2180  0.0912
 8123SOL     OW26747   8.804   0.734  10.201 -0.3664 -0.0695 -0.2750
 8123SOL    HW126748   8.850   0.669  10.148 -0.4938 -0.6319  0.2872
 8123SOL    HW226749   8.745   0.682  10.257  0.3177  0.4376  0.9582
 8124SOL     OW26750   4.149   7.306   3.768  0.5522 -0.4096 -0.3763
 8124SOL    HW126751   4.139   7.216   3.799 -1.2131  0.0703  0.6051
 8124SOL    HW226752   4.118   7.303   3.677 -1.9248 -0.3811  0.4026
 8125SOL     OW26753   4.959   8.115   6.812  0.4366  0.4522  0.6474
 8125SOL    HW126754   5.052   8.114   6.837  0.4025  0.5619  0.7778
 8125SOL    HW226755   4.915   8.069   6.883  0.4529 -0.0521  0.3347
 8126SOL     OW26756   0.609   5.220  10.536 -0.1493  0.1033 -1.1250
 8126SOL    HW126757   0.698   5.191  10.555 -0.4620 -0.7006 -0.8448
 8126SOL    HW226758   0.587   5.280  10.608 -1.1883 -2.6193  1.0011
 8127SOL     OW26759   0.203   3.275   8.883  0.0554 -0.7407 -0.4786
 8127SOL    HW126760   0.252   3.196   8.910 -0.9147 -1.2520 -0.1529
 8127SOL    HW226761   0.116   3.242   8.863  0.1879 -0.0386 -2.3445
 8128SOL     OW26762   8.021   2.905  10.268 -0.3079 -0.5706 -0.5620
 8128SOL    HW126763   8.097   2.946  10.310 -1.1520 -0.2578  0.6928
 8128SOL    HW226764   7.953   2.972  10.271 -1.4979 -1.7791  0.8739
 8129SOL     OW26765   0.394   7.949   3.288 -0.1155 -0.2349 -0.3769
 8129SOL    HW126766   0.334   7.876   3.273 -0.0644 -0.9121  2.1723
 8129SOL    HW226767   0.405   7.989   3.202 -2.4030 -1.4689 -1.3386
 8130SOL     OW26768   1.453   8.394   2.273  0.1180  0.0367 -0.0983
 8130SOL    HW126769   1.414   8.439   2.198 -2.3296 -2.3151 -0.3740
 8130SOL    HW226770   1.402   8.423   2.348  1.6469  1.2912  0.5125
 8131SOL     OW26771   2.774   8.738   3.555 -0.3569 -0.3303 -0.1439
 8131SOL    HW126772   2.849   8.705   3.603 -0.9083  1.2669  1.9520
 8131SOL    HW226773   2.803   8.823   3.522 -0.8733 -0.2197 -0.3155
 8132SOL     OW26774   3.179   6.833   7.486  0.3880 -0.3395 -0.4330
 8132SOL    HW126775   3.193   6.844   7.392  0.3211 -0.8049 -0.4964
 8132SOL    HW226776   3.234   6.759   7.510  0.7773  0.0764 -0.0113
 8133SOL     OW26777   3.124   9.709   4.626  0.2022  0.3136 -0.4074
 8133SOL    HW126778   3.096   9.693   4.536 -0.7229 -0.4069 -0.0026
 8133SOL    HW226779   3.060   9.771   4.660 -0.7150 -1.0366  0.4032
 8134SOL     OW26780   5.508   8.448   6.313 -0.2763 -1.0201 -0.3539
 8134SOL    HW126781   5.526   8.542   6.318  0.3202 -1.2130  1.5577
 8134SOL    HW226782   5.513   8.417   6.403 -0.5800 -2.8813 -0.9362
 8135SOL     OW26783   3.368   4.142   2.655  0.3835  0.1525 -0.2059
 8135SOL    HW126784   3.372   4.204   2.727 -0.4747 -0.4292  0.3584
 8135SOL    HW226785   3.442   4.167   2.598  0.6137  1.0870  0.4724
 8136SOL     OW26786   0.209   7.460   1.751 -0.1608  0.0340 -0.5952
 8136SOL    HW126787   0.129   7.441   1.701  0.0888 -0.4376 -0.8257
 8136SOL    HW226788   0.250   7.374   1.764  1.0630  0.4185 -1.7599
 8137SOL     OW26789   3.623   1.153  10.393  0.1714 -0.3698 -0.0740
 8137SOL    HW126790   3.549   1.175  10.337  1.8532 -1.4369 -2.8874
 8137SOL    HW226791   3.604   1.065  10.425 -0.3857 -0.1004  0.3492
 8138SOL     OW26792   9.489   2.649   1.539  0.1431  0.0248 -0.7576
 8138SOL    HW126793   9.499   2.558   1.509  0.1533  0.0595 -0.8577
 8138SOL    HW226794   9.578   2.676   1.563 -0.0226 -0.3888  0.4108
 8139SOL     OW26795   4.650   6.030   8.140 -0.0763  0.3184  0.0963
 8139SOL    HW126796   4.640   6.021   8.046 -0.3023  1.4057  0.0051
 8139SOL    HW226797   4.744   6.042   8.153 -0.2033  1.7551 -0.1580
 8140SOL     OW26798   0.926   9.484   3.465  0.4877  0.2872 -0.6732
 8140SOL    HW126799   0.890   9.548   3.527  1.1006 -0.8218  0.8836
 8140SOL    HW226800   0.854   9.468   3.404  0.4398  2.6951 -1.3153
 8141SOL     OW26801   9.641   4.945   9.954 -0.3335  0.1556  0.5703
 8141SOL    HW126802   9.676   5.030   9.983 -1.0374  0.5085  0.3954
 8141SOL    HW226803   9.709   4.882   9.979  0.9492  0.9462 -0.7657
 8142SOL     OW26804   2.020   0.199   6.122 -0.1734 -1.0639 -0.3880
 8142SOL    HW126805   2.092   0.214   6.184 -0.5970  1.1910 -0.3808
 8142SOL    HW226806   2.060   0.148   6.051  1.2213 -0.5463 -0.0057
 8143SOL     OW26807   7.839   9.229   4.548 -0.2063 -0.2353 -0.2980
 8143SOL    HW126808   7.812   9.320   4.560 -0.3074 -0.0994 -1.4062
 8143SOL    HW226809   7.820   9.186   4.632 -1.4054  0.4595 -0.1992
 8144SOL     OW26810   8.497   2.518   7.049 -0.1842 -0.2572 -0.2647
 8144SOL    HW126811   8.436   2.537   7.120 -1.4742 -1.3629 -1.0155
 8144SOL    HW226812   8.534   2.432   7.071  1.0108  0.3242  0.0929
 8145SOL     OW26813   9.760   9.965   5.718 -0.1756 -0.2489 -0.7776
 8145SOL    HW126814   9.855   9.974   5.728 -0.1125 -0.2474 -1.3634
 8145SOL    HW226815   9.745   9.970   5.624 -0.8360  0.5664 -0.6428
 8146SOL     OW26816   6.105   7.471   6.211  0.0566  0.6395  0.5238
 8146SOL    HW126817   6.178   7.477   6.273 -0.7409  2.5425  1.3973
 8146SOL    HW226818   6.124   7.539   6.146  0.2088 -0.4431 -0.5861
 8147SOL     OW26819   5.307   7.539   7.338  0.1265 -0.1397  0.1478
 8147SOL    HW126820   5.346   7.505   7.419 -0.0144  1.2890  0.8513
 8147SOL    HW226821   5.237   7.478   7.317  0.1257 -0.4967  1.1406
 8148SOL     OW26822   6.364   4.537   4.485 -0.2201  0.1269  0.0126
 8148SOL    HW126823   6.280   4.492   4.476  0.2472 -0.4398 -1.9924
 8148SOL    HW226824   6.348   4.603   4.552 -2.0620 -0.4357  0.1984
 8149SOL     OW26825   8.970   8.447   6.413  0.0478 -0.0928 -0.2330
 8149SOL    HW126826   8.919   8.451   6.332 -1.4024  0.3936  0.6768
 8149SOL    HW226827   9.030   8.374   6.400 -1.8897 -1.6589 -0.7602
 8150SOL     OW26828   9.694   1.509   5.004 -0.3302  0.0008  0.3697
 8150SOL    HW126829   9.694   1.413   5.009 -1.1781 -0.1260 -1.4977
 8150SOL    HW226830   9.603   1.533   4.989 -0.2211  1.1681  1.3860
 8151SOL     OW26831   2.199   0.224   8.929 -0.0603  0.8280 -0.1198
 8151SOL    HW126832   2.154   0.185   9.005 -0.5761  1.6530  0.0100
 8151SOL    HW226833   2.128   0.255   8.873  0.3184  0.1421 -0.9984
 8152SOL     OW26834   1.315   0.481   1.970  0.8561 -0.0392  0.2446
 8152SOL    HW126835   1.280   0.418   2.033  0.6419 -0.7684 -0.5928
 8152SOL    HW226836   1.284   0.451   1.885 -0.6610  2.1277 -0.0534
 8153SOL     OW26837   8.806   6.998   8.328  0.0279  0.2651 -0.0208
 8153SOL    HW126838   8.786   6.920   8.380 -1.0295  0.6591  0.1858
 8153SOL    HW226839   8.893   7.024   8.357  0.3355 -0.7420  0.0205
 8154SOL     OW26840  10.592   5.813   9.626 -0.7740 -0.1605  0.7448
 8154SOL    HW126841  10.665   5.829   9.686  0.6076  0.6040 -1.0464
 8154SOL    HW226842  10.532   5.886   9.640  0.3492  0.9315  0.0734
 8155SOL     OW26843   7.987   7.877   0.387  0.0832  0.5363 -0.4035
 8155SOL    HW126844   7.937   7.795   0.381 -2.3499  1.9402 -0.3879
 8155SOL    HW226845   8.078   7.849   0.386 -0.6600 -2.1512 -0.7801
 8156SOL     OW26846  10.665   7.234   5.745  0.6936  0.9415  0.9422
 8156SOL    HW126847  10.669   7.239   5.841 -0.1909 -2.7036  1.3391
 8156SOL    HW226848  10.720   7.159   5.723 -0.3438  0.7498 -1.2385
 8157SOL     OW26849   4.429   2.668   7.824 -0.2029  0.3122 -0.2948
 8157SOL    HW126850   4.437   2.579   7.860  1.9412  1.1886  1.6466
 8157SOL    HW226851   4.402   2.722   7.898  1.9677  1.8043 -0.4991
 8158SOL     OW26852   7.138   0.426   0.752 -0.4582 -0.5071 -0.0179
 8158SOL    HW126853   7.157   0.417   0.845  0.4096 -2.4737 -0.3189
 8158SOL    HW226854   7.223   0.410   0.709 -0.8593  0.2790 -1.1392
 8159SOL     OW26855   4.907   7.951   0.292  0.1689  0.4552  0.3153
 8159SOL    HW126856   4.984   7.972   0.238 -0.1727  1.1868  0.1127
 8159SOL    HW226857   4.935   7.970   0.381  0.2312  0.6883  0.2458
 8160SOL     OW26858   2.106   0.701   1.972  0.1992 -0.2377  0.0750
 8160SOL    HW126859   2.042   0.771   1.983 -0.6658 -0.8775 -0.7380
 8160SOL    HW226860   2.141   0.713   1.884 -0.9856 -1.6314 -0.6170
 8161SOL     OW26861   9.162   5.766   7.834  0.1760  0.1355 -0.2631
 8161SOL    HW126862   9.196   5.687   7.792 -0.5974  0.1233 -0.8641
 8161SOL    HW226863   9.187   5.838   7.775  0.7610  0.3334  0.2159
 8162SOL     OW26864   7.583   5.475  10.780  0.4234 -0.0451  0.7783
 8162SOL    HW126865   7.520   5.481  10.852 -0.5514 -0.1550 -0.0446
 8162SOL    HW226866   7.539   5.515  10.705  0.1865 -2.5633 -0.5421
 8163SOL     OW26867   5.994   8.880   9.679  0.0051 -0.3777 -0.4830
 8163SOL    HW126868   5.907   8.841   9.670  0.3911 -1.4313  0.2006
 8163SOL    HW226869   5.994   8.918   9.767  0.6893 -1.6050  0.0741
 8164SOL     OW26870   8.134   6.914   9.690  0.1197  0.0917  0.1694
 8164SOL    HW126871   8.047   6.875   9.703 -0.0871  0.3260 -0.4463
 8164SOL    HW226872   8.192   6.864   9.748 -0.4346 -0.0328  0.6273
 8165SOL     OW26873   2.987   9.789   7.936 -0.3677  0.4518  0.4468
 8165SOL    HW126874   2.966   9.798   7.843 -2.3107  1.3069  0.9207
 8165SOL    HW226875   3.022   9.701   7.945  2.3909  1.2102 -1.5092
 8166SOL     OW26876   2.448   0.382   2.559 -0.0318  0.6913 -0.1383
 8166SOL    HW126877   2.507   0.449   2.525 -0.4871  0.7063 -0.9089
 8166SOL    HW226878   2.391   0.428   2.621 -2.7124  1.8508 -3.2269
 8167SOL     OW26879   9.121   4.057   0.720 -0.2088  0.3371  0.0323
 8167SOL    HW126880   9.089   3.975   0.683 -0.9703  0.9302 -0.6715
 8167SOL    HW226881   9.215   4.057   0.702 -0.1979 -0.3867  0.0743
 8168SOL     OW26882  10.608  10.786   5.606  0.5116  0.4193  0.4283
 8168SOL    HW126883  10.637  10.858   5.662 -0.8593  1.3292  0.0086
 8168SOL    HW226884  10.560  10.728   5.664  0.1099  0.7485  0.4234
 8169SOL     OW26885   8.015   8.937   2.552  0.1432 -0.1333  0.3980
 8169SOL    HW126886   7.954   8.863   2.546 -2.0030  1.5532  0.6422
 8169SOL    HW226887   8.050   8.932   2.641  0.4073 -1.0968  0.2601
 8170SOL     OW26888   9.958   4.163   5.418 -0.3107 -0.1578 -0.2772
 8170SOL    HW126889   9.877   4.153   5.368  0.5393 -1.1423 -1.5078
 8170SOL    HW226890   9.936   4.132   5.506 -1.7116  1.1847 -0.1065
 8171SOL     OW26891   1.137   0.882   2.698  0.6926  0.3068  0.0713
 8171SOL    HW126892   1.071   0.930   2.749  0.5776  0.2403 -0.0148
 8171SOL    HW226893   1.194   0.951   2.664  0.1439  0.4424 -0.5961
 8172SOL     OW26894   5.993   9.400  10.048 -0.2561  0.1700 -0.3887
 8172SOL    HW126895   6.071   9.426   9.999  0.5914 -0.1433  0.7537
 8172SOL    HW226896   6.006   9.436  10.135 -0.6618 -1.1746  0.2593
 8173SOL     OW26897   5.568   2.921   2.556  0.0952 -0.4263  0.3971
 8173SOL    HW126898   5.537   3.008   2.582  0.5487  0.1839 -0.9650
 8173SOL    HW226899   5.491   2.876   2.523  0.0120 -0.2032  0.2851
 8174SOL     OW26900   6.230   3.275   3.984 -0.1250  0.2372 -0.3889
 8174SOL    HW126901   6.233   3.279   3.888  0.5019 -0.9211 -0.4358
 8174SOL    HW226902   6.297   3.211   4.008 -1.5400 -0.9122  0.7141
 8175SOL     OW26903   9.949   9.364   6.700 -0.4298  0.1780  0.2655
 8175SOL    HW126904  10.037   9.334   6.676  0.4609  2.1426  0.8568
 8175SOL    HW226905   9.897   9.350   6.621  0.7063  0.0957 -0.4964
 8176SOL     OW26906   0.626   9.432   3.429 -0.1183 -0.0687 -0.6159
 8176SOL    HW126907   0.654   9.456   3.340 -1.6441 -1.5181 -1.5542
 8176SOL    HW226908   0.585   9.511   3.464  0.6640  0.5733 -1.1164
 8177SOL     OW26909   8.599   1.272   4.399 -0.0342  0.0252  0.2389
 8177SOL    HW126910   8.642   1.251   4.482  0.1240  0.6378  0.3217
 8177SOL    HW226911   8.645   1.219   4.334 -0.4022 -0.7339  0.5893
 8178SOL     OW26912   9.492   0.309   7.143 -0.3761  0.1836  0.9329
 8178SOL    HW126913   9.429   0.239   7.127 -1.9410  1.5008  1.0743
 8178SOL    HW226914   9.520   0.297   7.234 -2.4964  1.1103  1.7728
 8179SOL     OW26915   7.871   2.460   8.483 -0.2358 -0.1808  0.8357
 8179SOL    HW126916   7.810   2.388   8.501 -0.2838 -0.0599  1.1796
 8179SOL    HW226917   7.898   2.447   8.392 -0.4398 -0.4862  0.8165
 8180SOL     OW26918   5.591   6.066   1.228  0.1630 -0.7486  0.3851
 8180SOL    HW126919   5.644   5.993   1.258 -0.1656 -1.0336  0.2742
 8180SOL    HW226920   5.654   6.129   1.193  0.7361  0.2383  2.9145
 8181SOL     OW26921   1.355  10.083   1.069  0.1500  0.2078  0.0189
 8181SOL    HW126922   1.278  10.040   1.031  0.1873 -0.6255  0.8644
 8181SOL    HW226923   1.326  10.113   1.155  0.4402  0.9682 -0.1336
 8182SOL     OW26924   7.013   0.712   1.951 -0.7289  0.5770  0.2703
 8182SOL    HW126925   7.041   0.621   1.961  0.5197  0.6817 -1.7927
 8182SOL    HW226926   6.939   0.721   2.011  0.4161 -1.1895  2.0663
 8183SOL     OW26927   8.728   8.152   1.233  0.0138  0.3500 -0.2728
 8183SOL    HW126928   8.683   8.097   1.297 -1.0828 -0.4832 -1.6943
 8183SOL    HW226929   8.743   8.235   1.278  1.4133 -0.9542  1.8381
 8184SOL     OW26930   7.053   1.889   7.669  0.0736 -0.1959  0.6934
 8184SOL    HW126931   7.010   1.907   7.586  1.7376  1.0584  0.0733
 8184SOL    HW226932   7.135   1.846   7.646  1.8770  2.6148  1.4385
 8185SOL     OW26933   5.417   6.887   0.018 -0.4407  0.1758  0.1851
 8185SOL    HW126934   5.431   6.981   0.014 -1.0826  0.2694  0.0402
 8185SOL    HW226935   5.378   6.865  -0.066  2.2952 -0.6893 -0.9841
 8186SOL     OW26936  10.708   6.392   3.809 -0.9548  0.2024  0.7241
 8186SOL    HW126937  10.769   6.357   3.874 -0.4721  1.3529  0.9094
 8186SOL    HW226938  10.706   6.326   3.740  1.3066  0.5859  0.2250
 8187SOL     OW26939   0.898   2.691   5.142  0.3825 -0.5535 -0.1459
 8187SOL    HW126940   0.978   2.740   5.161 -1.0926  1.8478  0.3060
 8187SOL    HW226941   0.843   2.753   5.095 -1.1998 -2.1957 -0.5653
 8188SOL     OW26942   9.304   2.639   9.269 -0.0065 -0.0538 -0.6175
 8188SOL    HW126943   9.344   2.722   9.294  1.1232 -1.6000  3.3757
 8188SOL    HW226944   9.212   2.649   9.293  0.1543  0.0278 -0.0202
 8189SOL     OW26945   2.949   0.205   5.614 -0.4557 -0.4185 -0.3392
 8189SOL    HW126946   3.036   0.212   5.573 -1.7214  1.9327 -2.9338
 8189SOL    HW226947   2.959   0.250   5.697  0.9809 -0.9158 -0.2022
 8190SOL     OW26948   0.180   2.591   9.368 -0.1130 -0.7531 -0.1513
 8190SOL    HW126949   0.191   2.518   9.429 -0.2518 -0.7382 -0.1074
 8190SOL    HW226950   0.230   2.662   9.406  0.0656 -0.8397 -0.2199
 8191SOL     OW26951   1.844   0.065  10.361  0.2252 -0.3029  0.1853
 8191SOL    HW126952   1.795   0.057  10.444 -0.3970  0.1499 -0.1281
 8191SOL    HW226953   1.792   0.127  10.309  1.7598  1.1528  0.2959
 8192SOL     OW26954   9.623   2.587   3.976 -0.1254 -0.0552  0.0533
 8192SOL    HW126955   9.528   2.584   3.968 -0.4241  2.3253  1.5651
 8192SOL    HW226956   9.649   2.661   3.922  1.2159 -2.0307 -2.1774
 8193SOL     OW26957   5.486   1.738   8.271  0.0753 -0.3312 -0.0634
 8193SOL    HW126958   5.568   1.787   8.278 -0.9214  1.3265  0.5126
 8193SOL    HW226959   5.458   1.727   8.362 -0.9253  0.1852 -0.2953
 8194SOL     OW26960   1.920   8.427   4.314 -0.1590  0.1924  0.1582
 8194SOL    HW126961   1.962   8.510   4.290  0.7030 -0.9366 -2.5935
 8194SOL    HW226962   1.827   8.442   4.296 -0.7303  1.7644  3.5677
 8195SOL     OW26963   7.243   8.261   1.358 -0.1146 -0.6225  0.2106
 8195SOL    HW126964   7.329   8.302   1.343 -0.2796  0.0439  1.0465
 8195SOL    HW226965   7.228   8.271   1.452 -1.2830 -0.3931  0.0086
 8196SOL     OW26966   4.046   4.236   5.795 -0.2275 -0.4632  0.1196
 8196SOL    HW126967   4.053   4.309   5.734 -3.4552 -0.1246 -0.0382
 8196SOL    HW226968   3.989   4.173   5.751 -1.2181 -0.9895  2.0230
 8197SOL     OW26969   4.086   8.104   9.386  0.1669 -0.1165  0.3199
 8197SOL    HW126970   4.076   8.199   9.388 -0.2980 -0.1696  0.9057
 8197SOL    HW226971   4.152   8.088   9.318 -0.5644  0.5508 -0.5787
 8198SOL     OW26972   3.630   4.707  10.128  0.1702 -0.2795 -0.5729
 8198SOL    HW126973   3.561   4.641  10.138 -1.9561  2.0564  1.7359
 8198SOL    HW226974   3.592   4.772  10.069  1.4691 -0.1712 -1.3204
 8199SOL     OW26975   1.759   1.435   3.870  0.1707  0.7083 -0.6021
 8199SOL    HW126976   1.722   1.522   3.853  0.5062  0.8758 -0.4717
 8199SOL    HW226977   1.759   1.427   3.965 -1.6064 -0.1884 -0.6317
 8200SOL     OW26978   4.592   1.660   4.317  0.1160  0.2931  0.0379
 8200SOL    HW126979   4.653   1.598   4.356 -0.3603 -0.2812 -0.1142
 8200SOL    HW226980   4.563   1.714   4.390 -0.4281 -0.4828  0.4151
 8201SOL     OW26981   7.487   6.039   2.581 -0.5255  0.2559  0.0251
 8201SOL    HW126982   7.446   6.114   2.537 -1.2837  1.1083  2.0781
 8201SOL    HW226983   7.422   5.970   2.577 -0.0090 -0.1779 -1.4571
 8202SOL     OW26984   0.901   6.144   6.540 -0.4906  0.0115  0.0836
 8202SOL    HW126985   0.895   6.230   6.498 -1.0996  0.3012  0.7475
 8202SOL    HW226986   0.819   6.100   6.519  0.2313 -0.8263 -1.1101
 8203SOL     OW26987   5.888   6.000   6.343  0.2417  0.0559  0.4558
 8203SOL    HW126988   5.925   6.085   6.316  0.7646 -0.3799 -0.2270
 8203SOL    HW226989   5.942   5.935   6.298  0.2854 -0.6692  1.5088
 8204SOL     OW26990   5.970   7.484   9.280  0.5927 -0.0144  0.9024
 8204SOL    HW126991   6.019   7.410   9.245  0.0692  0.8103 -1.7798
 8204SOL    HW226992   5.881   7.451   9.290  0.2176  0.3621 -0.8926
 8205SOL     OW26993   3.609   7.800   3.505 -0.0052 -0.0879  0.6446
 8205SOL    HW126994   3.693   7.761   3.528  1.3858  3.0590  1.5585
 8205SOL    HW226995   3.548   7.768   3.571  1.1174 -0.4207  1.5513
 8206SOL     OW26996   3.270   6.024   0.583 -0.2734  0.3978  0.0378
 8206SOL    HW126997   3.280   6.024   0.488  2.5635 -0.2689  0.2173
 8206SOL    HW226998   3.242   5.936   0.605 -1.0687  0.5933 -0.1647
 8207SOL     OW26999   1.294   1.198   3.355  0.4890 -0.4258  0.2514
 8207SOL    HW127000   1.255   1.249   3.426  0.3098 -0.3530  0.1004
 8207SOL    HW227001   1.223   1.183   3.294  1.1942  1.8906 -1.3024
 8208SOL     OW27002   9.785   1.813   3.676  1.0057  0.5859 -0.0820
 8208SOL    HW127003   9.875   1.825   3.706  0.2355  0.1615  2.6982
 8208SOL    HW227004   9.780   1.721   3.652  1.0877  0.3356  0.7992
 8209SOL     OW27005   2.623   6.082   2.123 -0.3636 -0.2577  0.6608
 8209SOL    HW127006   2.576   6.037   2.194 -2.1021  0.1459 -0.1818
 8209SOL    HW227007   2.676   6.013   2.082 -1.8423 -1.2361  0.3244
 8210SOL     OW27008   6.704  10.462   2.608  0.6531  0.5489  0.1647
 8210SOL    HW127009   6.692  10.418   2.524 -1.0512 -0.4485  0.8727
 8210SOL    HW227010   6.627  10.517   2.618  0.4035  0.0087  1.4272
 8211SOL     OW27011   7.023   4.070   3.559  0.0544  0.0337  0.0647
 8211SOL    HW127012   6.935   4.105   3.544 -0.6078 -0.7097  1.8907
 8211SOL    HW227013   7.045   4.100   3.647  0.3176 -2.3341  0.8676
 8212SOL     OW27014   8.931   3.892   1.759  0.1257  0.6526  0.1432
 8212SOL    HW127015   8.886   3.872   1.677 -0.7149  2.6185  0.0889
 8212SOL    HW227016   8.992   3.962   1.736  3.3274 -1.8903  0.2158
 8213SOL     OW27017   9.631   9.611   7.696  0.0178  0.0003 -0.2235
 8213SOL    HW127018   9.709   9.601   7.641  0.2620  0.9072 -0.0584
 8213SOL    HW227019   9.589   9.525   7.694 -0.9767  0.4210 -3.3348
 8214SOL     OW27020   2.759   2.409   4.026  0.0497  0.0277  0.8845
 8214SOL    HW127021   2.850   2.430   4.045  0.4613 -0.7071 -0.1805
 8214SOL    HW227022   2.710   2.486   4.056  1.3031  1.7605 -1.1927
 8215SOL     OW27023   1.698  10.057   6.287  0.0012  0.3754  0.3230
 8215SOL    HW127024   1.666  10.124   6.347  1.3492  0.6545  0.7765
 8215SOL    HW227025   1.623  10.036   6.232 -0.5925  1.9105  0.4848
 8216SOL     OW27026   7.645   3.090   6.340 -0.2580 -0.1957 -0.3321
 8216SOL    HW127027   7.575   3.153   6.358 -0.5063 -0.5440 -0.0430
 8216SOL    HW227028   7.643   3.079   6.245 -0.5994 -0.1982 -0.3292
 8217SOL     OW27029   5.585   1.471   4.322 -0.3536 -0.0283  0.2183
 8217SOL    HW127030   5.586   1.566   4.310  0.8820 -0.1315 -0.7289
 8217SOL    HW227031   5.498   1.444   4.293 -0.7293  0.8014  0.5289
 8218SOL     OW27032   3.488   5.585   4.481 -0.5484  0.1408  0.1790
 8218SOL    HW127033   3.519   5.519   4.544 -0.3846  1.8427  1.9916
 8218SOL    HW227034   3.531   5.562   4.399  2.3866  0.0293  1.6144
 8219SOL     OW27035   8.613  10.103   1.544  0.0373  0.2394 -0.0322
 8219SOL    HW127036   8.598  10.148   1.461 -0.1056  2.0475  0.9294
 8219SOL    HW227037   8.699  10.062   1.533  0.5839  1.4872 -0.6416
 8220SOL     OW27038   0.792   3.665   6.386  0.1523  0.4514 -0.9479
 8220SOL    HW127039   0.730   3.664   6.313 -1.1341  0.9689  0.0961
 8220SOL    HW227040   0.774   3.583   6.433  1.2649 -0.0840 -1.4177
 8221SOL     OW27041   9.051   5.911   9.412  0.3452 -0.1255  0.6221
 8221SOL    HW127042   9.071   5.877   9.499 -3.0484  0.6024  1.8187
 8221SOL    HW227043   9.082   6.002   9.415 -1.2219  0.4222  1.7640
 8222SOL     OW27044   8.551   6.574   2.033 -0.3253 -0.1797 -0.1235
 8222SOL    HW127045   8.460   6.604   2.033 -1.0863 -2.1382 -2.1522
 8222SOL    HW227046   8.598   6.640   1.981 -0.7710  0.3852  0.1824
 8223SOL     OW27047  10.054   4.815   6.880 -0.2499 -0.1750  0.0335
 8223SOL    HW127048  10.020   4.886   6.826  1.7442  0.1151 -0.9116
 8223SOL    HW227049  10.101   4.859   6.951 -2.1965 -0.5647  1.6606
 8224SOL     OW27050   4.160   5.354   2.711 -0.4757 -0.0856 -0.3853
 8224SOL    HW127051   4.211   5.320   2.636 -1.4032 -0.4822 -0.8565
 8224SOL    HW227052   4.224   5.400   2.764  0.4645 -0.9246 -0.7499
 8225SOL     OW27053   3.503   6.248   0.526 -0.0950  0.3344 -0.4461
 8225SOL    HW127054   3.456   6.183   0.578  0.0609  1.1306  0.7477
 8225SOL    HW227055   3.488   6.331   0.572  1.4846  0.7978 -0.6857
 8226SOL     OW27056   4.184   1.939   2.539 -0.2896  0.1605 -0.2017
 8226SOL    HW127057   4.253   1.933   2.604  1.0421  1.3357 -1.4317
 8226SOL    HW227058   4.142   2.024   2.555  0.1808  0.5528 -0.9500
 8227SOL     OW27059  10.148   9.709   9.335  0.1984  0.4319  0.7694
 8227SOL    HW127060  10.094   9.779   9.297 -0.9823 -1.5221 -1.4694
 8227SOL    HW227061  10.220   9.699   9.273  0.2523 -0.4523  0.9716
 8228SOL     OW27062   9.389   4.005   0.486 -0.2244  0.4301  0.4908
 8228SOL    HW127063   9.437   3.932   0.526 -1.0420  0.4629  1.5833
 8228SOL    HW227064   9.457   4.070   0.467  0.6146 -0.8266 -1.0932
 8229SOL     OW27065   7.391   2.769   9.534  0.0754 -0.3103  0.0879
 8229SOL    HW127066   7.376   2.748   9.627 -1.3876 -0.2217 -0.0981
 8229SOL    HW227067   7.355   2.694   9.487 -0.4829  0.2823 -0.4408
 8230SOL     OW27068   5.023   3.720   1.839 -0.2545  0.1075 -0.1552
 8230SOL    HW127069   5.103   3.695   1.886 -1.1413  0.5548  1.7303
 8230SOL    HW227070   4.985   3.637   1.810  0.1323 -0.2224  0.2636
 8231SOL     OW27071   9.537   0.565   2.178  0.0736 -0.1888  0.2628
 8231SOL    HW127072   9.549   0.505   2.251  0.4029  0.3153  0.6278
 8231SOL    HW227073   9.607   0.630   2.188 -0.7227  0.6828  0.3066
 8232SOL     OW27074   9.949   4.627   5.122  0.2375  0.4107 -0.5221
 8232SOL    HW127075  10.024   4.630   5.062  1.1851 -0.2460  0.5679
 8232SOL    HW227076   9.959   4.705   5.177  1.8854 -1.1531  1.5645
 8233SOL     OW27077  10.080   1.729   4.420 -0.0759  0.2812 -0.0535
 8233SOL    HW127078  10.058   1.747   4.512 -0.0200 -0.1179  0.0412
 8233SOL    HW227079  10.080   1.633   4.415 -1.0785  0.2976 -0.7038
 8234SOL     OW27080   9.657   8.374   7.217 -0.2388  0.1107  0.6771
 8234SOL    HW127081   9.570   8.414   7.221  0.6419  2.4272 -0.9965
 8234SOL    HW227082   9.701   8.403   7.297 -0.1842  1.1530  0.2857
 8235SOL     OW27083   1.166   7.229   3.429 -0.7710 -0.1205 -0.6211
 8235SOL    HW127084   1.176   7.309   3.378  0.8037  0.8363  1.0638
 8235SOL    HW227085   1.090   7.245   3.484 -0.4997  0.1864 -0.3353
 8236SOL     OW27086   1.187   7.127   2.273  0.4334  0.0878  0.2839
 8236SOL    HW127087   1.214   7.050   2.324 -0.3814 -0.7995 -0.5874
 8236SOL    HW227088   1.237   7.199   2.311  0.9811 -0.8109  1.3344
 8237SOL     OW27089   7.576   9.913   9.773  0.0904  0.6839 -0.0603
 8237SOL    HW127090   7.581   9.837   9.831  0.9602 -0.3331 -1.4090
 8237SOL    HW227091   7.487   9.913   9.740  0.4053 -0.5117 -0.9909
 8238SOL     OW27092   8.301   3.327  10.793  0.1360  0.1163  0.2850
 8238SOL    HW127093   8.284   3.369  10.878 -1.3962  1.1557 -0.4888
 8238SOL    HW227094   8.397   3.318  10.790  0.3037  1.0198  1.6761
 8239SOL     OW27095   0.831   7.594   1.783 -0.3286 -0.2319 -0.5418
 8239SOL    HW127096   0.821   7.580   1.877 -0.2816  0.2051 -0.4697
 8239SOL    HW227097   0.761   7.543   1.743 -0.6299 -0.0520 -0.2445
 8240SOL     OW27098   5.230   7.142   5.307 -0.2446 -0.6191  0.0579
 8240SOL    HW127099   5.288   7.159   5.232 -1.4571 -2.2068 -1.3318
 8240SOL    HW227100   5.145   7.125   5.267 -1.3796  0.3820  1.9726
 8241SOL     OW27101   0.316   8.482   0.495  0.8726  0.0995  0.7799
 8241SOL    HW127102   0.290   8.391   0.500  1.5679 -0.1335  0.3753
 8241SOL    HW227103   0.251   8.529   0.546 -0.5049 -0.4100 -0.4417
 8242SOL     OW27104   3.591   9.727   7.239  0.1134  0.3791  0.4315
 8242SOL    HW127105   3.608   9.658   7.175 -0.8866  1.4320 -1.0275
 8242SOL    HW227106   3.535   9.685   7.304  0.6773 -0.5586  0.3350
 8243SOL     OW27107   6.634   1.803   7.001 -0.0958 -0.0129  0.3732
 8243SOL    HW127108   6.605   1.825   7.090  1.3432 -0.5659  1.0179
 8243SOL    HW227109   6.727   1.824   7.001 -0.5186  2.2363 -1.7818
 8244SOL     OW27110   2.036   8.499   0.356 -0.3680 -0.2238  0.3688
 8244SOL    HW127111   2.005   8.552   0.282  0.8882 -0.6844 -0.5254
 8244SOL    HW227112   2.059   8.415   0.317  0.3288 -0.4686  1.2788
 8245SOL     OW27113  10.778   4.224   4.552  0.0890  0.3149 -0.2166
 8245SOL    HW127114  10.794   4.185   4.638 -0.5331  0.1605 -0.1670
 8245SOL    HW227115  10.852   4.196   4.499 -0.3503 -0.9379 -0.1867
 8246SOL     OW27116   2.503   1.476   7.477 -0.3588 -0.2008  0.1684
 8246SOL    HW127117   2.556   1.498   7.554 -1.3917 -0.5208  0.9968
 8246SOL    HW227118   2.567   1.465   7.406  0.6953 -0.6794  1.1552
 8247SOL     OW27119   9.047  10.285   7.716  0.0547  0.4317  0.2773
 8247SOL    HW127120   9.002  10.203   7.695 -0.7031  0.4686  1.6739
 8247SOL    HW227121   9.094  10.267   7.797  3.3737  0.1197 -1.5570
 8248SOL     OW27122   3.625   5.829   2.542  0.4411 -0.3880 -0.1781
 8248SOL    HW127123   3.592   5.846   2.630 -1.1263  0.1448 -0.8489
 8248SOL    HW227124   3.666   5.911   2.515 -0.3162 -0.1000 -0.4697
 8249SOL     OW27125   1.766  10.748   6.532 -0.9274  0.3221 -0.0575
 8249SOL    HW127126   1.750  10.773   6.441 -0.7916 -0.0197 -0.1788
 8249SOL    HW227127   1.861  10.750   6.541 -0.9169 -0.0681 -0.0491
 8250SOL     OW27128   9.054   6.334   4.390  0.2985  0.6949  0.1690
 8250SOL    HW127129   9.135   6.288   4.411 -0.7427 -1.5631 -0.4445
 8250SOL    HW227130   9.037   6.312   4.298  0.3523  3.3862 -0.5805
 8251SOL     OW27131   2.571   7.592   5.711  0.0216  0.4249  0.2326
 8251SOL    HW127132   2.650   7.609   5.763  0.6854 -0.7177 -0.3785
 8251SOL    HW227133   2.595   7.615   5.621 -1.2560  2.8195  0.4037
 8252SOL     OW27134   0.090   3.312   8.004 -0.2121  0.1529 -0.7272
 8252SOL    HW127135   0.105   3.222   8.035 -0.5282  0.0847 -0.7699
 8252SOL    HW227136   0.053   3.301   7.917  0.2854  0.3386 -0.9645
 8253SOL     OW27137   8.264   1.906   7.494 -0.0722 -0.2513 -0.4514
 8253SOL    HW127138   8.250   1.830   7.437 -0.4056 -1.0657  0.6933
 8253SOL    HW227139   8.358   1.924   7.487  0.0406 -0.8787 -0.5950
 8254SOL     OW27140  10.764   6.032   5.489  0.4315  0.3603 -0.3572
 8254SOL    HW127141  10.768   5.939   5.469 -2.8446  0.1723 -0.7477
 8254SOL    HW227142  10.850   6.053   5.525  1.0891 -2.9458  0.3306
 8255SOL     OW27143   3.232   8.782   6.251  0.4418  1.0484 -0.4533
 8255SOL    HW127144   3.198   8.693   6.244 -1.7479  1.8847 -1.4435
 8255SOL    HW227145   3.283   8.794   6.171  1.7145  0.3540  0.2202
 8256SOL     OW27146   6.907   5.443   0.028  0.0610 -0.6166  0.2052
 8256SOL    HW127147   6.833   5.491  -0.008  0.2184 -1.1151 -0.8350
 8256SOL    HW227148   6.874   5.354   0.040  0.8330 -1.1957 -1.5819
 8257SOL     OW27149   8.540   2.828   4.279  0.0237 -0.6452 -0.3200
 8257SOL    HW127150   8.608   2.892   4.302 -1.3747  0.4357  1.0047
 8257SOL    HW227151   8.570   2.791   4.196 -0.2692  3.5256 -2.5675
 8258SOL     OW27152   9.690   6.669   2.360 -1.0471 -0.5987  0.2015
 8258SOL    HW127153   9.730   6.592   2.399  1.5173  0.5489  0.0647
 8258SOL    HW227154   9.701   6.658   2.266  0.3806  0.3855  0.2183
 8259SOL     OW27155  10.683   0.302   4.499 -0.4582 -0.5661  0.8393
 8259SOL    HW127156  10.612   0.349   4.455  0.9424 -0.0321 -0.9357
 8259SOL    HW227157  10.657   0.210   4.492  0.0237 -0.5681 -1.7954
 8260SOL     OW27158   7.276   8.564   8.916  0.1115  0.3573 -0.2159
 8260SOL    HW127159   7.202   8.590   8.970  0.5509  0.5531  0.3113
 8260SOL    HW227160   7.286   8.635   8.852  0.7742  1.0981  0.6785
 8261SOL     OW27161   2.283   6.178   4.351 -0.0709  0.3650  0.0983
 8261SOL    HW127162   2.188   6.162   4.353 -0.3566  1.9364  1.8681
 8261SOL    HW227163   2.312   6.136   4.270 -2.4493  0.8278 -1.0924
 8262SOL     OW27164   7.126   7.036   9.440  0.1680 -0.0456 -0.7316
 8262SOL    HW127165   7.152   7.065   9.353 -0.8719 -0.1286 -1.0788
 8262SOL    HW227166   7.179   7.090   9.499  0.2710  0.6094 -1.3978
 8263SOL     OW27167   8.275   7.234   4.811 -0.2662 -0.3809  0.2029
 8263SOL    HW127168   8.354   7.187   4.782 -0.3118 -0.9612  0.9923
 8263SOL    HW227169   8.283   7.320   4.771  2.4519  0.7656  2.8196
 8264SOL     OW27170   0.627   3.564   8.223  0.4795 -0.0467 -0.0242
 8264SOL    HW127171   0.573   3.533   8.296 -1.7034  1.5133 -0.8352
 8264SOL    HW227172   0.680   3.634   8.261  0.8738 -0.6083  0.4801
 8265SOL     OW27173   5.328   4.045   7.459 -0.0612  0.2601 -0.2273
 8265SOL    HW127174   5.262   3.999   7.511  1.8865 -1.4615  0.8896
 8265SOL    HW227175   5.334   4.132   7.499  0.4480 -0.5823  1.6337
 8266SOL     OW27176   5.819   8.188   8.891 -0.0381  0.2092 -0.0561
 8266SOL    HW127177   5.866   8.271   8.879  0.9680 -0.4204 -0.5693
 8266SOL    HW227178   5.878   8.134   8.943 -0.6334 -0.2433  0.1548
 8267SOL     OW27179   6.955   8.733   9.607  0.4877  0.3820 -0.7610
 8267SOL    HW127180   6.983   8.690   9.526 -1.0577 -0.8520 -0.6899
 8267SOL    HW227181   6.876   8.686   9.632  1.1879  0.4114  1.7428
 8268SOL     OW27182   7.202  10.099   9.492 -0.2061  0.1726 -0.3963
 8268SOL    HW127183   7.247  10.152   9.425  0.9440 -1.6597 -1.1446
 8268SOL    HW227184   7.231  10.137   9.575  0.2688  0.9737 -0.9137
 8269SOL     OW27185   5.301   9.025   2.932 -0.2199 -0.6180  0.1187
 8269SOL    HW127186   5.290   9.077   3.011  0.0172 -0.9822  0.3927
 8269SOL    HW227187   5.225   9.047   2.878  0.2465  0.5722 -0.0969
 8270SOL     OW27188   1.506   9.424   3.405  0.2216  0.1295  0.7807
 8270SOL    HW127189   1.515   9.465   3.319 -2.4854  0.1184  0.4231
 8270SOL    HW227190   1.466   9.339   3.387  0.2482 -0.1694  2.0192
 8271SOL     OW27191   8.020   9.369   7.468  0.0769  0.1222  0.2194
 8271SOL    HW127192   8.035   9.406   7.555 -0.6531  0.5600  0.1703
 8271SOL    HW227193   8.102   9.325   7.446  2.0097  3.8170 -0.7939
 8272SOL     OW27194   0.759   4.151   4.598 -0.5162 -0.0010 -0.3591
 8272SOL    HW127195   0.765   4.075   4.655  0.0425 -0.4980 -1.0573
 8272SOL    HW227196   0.804   4.124   4.518  1.9236  1.8901  0.2753
 8273SOL     OW27197   5.264   7.008   8.531  0.0045  0.3094 -0.5554
 8273SOL    HW127198   5.187   6.964   8.567  0.3092  0.0002 -0.2760
 8273SOL    HW227199   5.287   6.957   8.454  1.3095 -1.0122  0.6438
 8274SOL     OW27200   4.282   5.498   5.124  0.5005 -0.1951  0.3968
 8274SOL    HW127201   4.211   5.436   5.139 -0.9367  0.2654 -3.3571
 8274SOL    HW227202   4.240   5.573   5.081  2.8858  1.2721  0.4287
 8275SOL     OW27203   4.181   9.188   0.161  0.1342  0.0127  0.3247
 8275SOL    HW127204   4.151   9.176   0.251  0.0473  0.1613  0.3163
 8275SOL    HW227205   4.137   9.269   0.132  1.5664  0.9842  0.7505
 8276SOL     OW27206   0.531   0.140   8.019  0.0731  0.3401  0.3545
 8276SOL    HW127207   0.483   0.080   7.962  2.8375 -0.1086 -1.7328
 8276SOL    HW227208   0.519   0.226   7.978  0.0775  0.4044  0.4890
 8277SOL     OW27209   3.528   4.923   5.524 -0.1969  0.2430 -0.1308
 8277SOL    HW127210   3.558   5.007   5.491 -1.3162  0.0532 -1.7361
 8277SOL    HW227211   3.602   4.864   5.511  0.6871  0.9942  1.2470
 8278SOL     OW27212   4.944   6.312   0.718 -0.2112  0.0792 -0.4740
 8278SOL    HW127213   5.000   6.295   0.642 -0.3361  0.4559 -0.6544
 8278SOL    HW227214   4.964   6.241   0.779 -0.9407 -0.8930 -1.3192
 8279SOL     OW27215   3.505   8.719   4.461  0.1571  0.6450 -0.7279
 8279SOL    HW127216   3.499   8.669   4.543  1.3630  2.9475  0.8896
 8279SOL    HW227217   3.417   8.754   4.448  0.6404  3.1137  1.6510
 8280SOL     OW27218   8.654   8.368  10.364 -0.4438  0.4252 -0.2452
 8280SOL    HW127219   8.733   8.421  10.352  2.1539 -2.9660  0.3110
 8280SOL    HW227220   8.629   8.383  10.455  0.0363  0.9307 -0.1887
 8281SOL     OW27221   5.793   0.254   9.891  0.3774  0.1530  0.1446
 8281SOL    HW127222   5.863   0.305   9.932  0.3068  1.9515 -1.8103
 8281SOL    HW227223   5.713   0.293   9.924  0.2828 -0.4804  0.6933
 8282SOL     OW27224   3.115   8.178   6.906  0.2318  0.3033 -0.3771
 8282SOL    HW127225   3.155   8.114   6.848 -1.5399 -0.7353 -0.5258
 8282SOL    HW227226   3.086   8.248   6.847 -0.3949 -0.1373 -0.6121
 8283SOL     OW27227   2.805   1.185   6.385 -0.1608  0.0217 -0.0608
 8283SOL    HW127228   2.729   1.165   6.439  0.7514 -0.6520  1.0006
 8283SOL    HW227229   2.807   1.281   6.381  0.1183  0.1156  1.6521
 8284SOL     OW27230   6.947   2.235  10.106 -0.1775 -0.3168  0.2703
 8284SOL    HW127231   6.919   2.238  10.197  0.6133  0.3406  0.5153
 8284SOL    HW227232   6.867   2.249  10.055 -0.6023 -0.5510  0.8708
 8285SOL     OW27233  10.301   8.382   7.987  0.1871  0.0435 -0.2748
 8285SOL    HW127234  10.335   8.464   8.022  0.6334 -0.0051 -0.5935
 8285SOL    HW227235  10.379   8.329   7.969 -0.0129  0.1616 -1.5785
 8286SOL     OW27236   9.533   2.248   3.018 -0.9840  0.5480  0.0991
 8286SOL    HW127237   9.458   2.192   3.039 -0.5467 -0.0821  0.0035
 8286SOL    HW227238   9.570   2.272   3.103 -0.8165  0.2052  0.1217
 8287SOL     OW27239   0.139   5.800   2.516 -0.3941  0.2446  0.2777
 8287SOL    HW127240   0.085   5.815   2.593  0.0627 -1.0064  0.8787
 8287SOL    HW227241   0.218   5.853   2.530 -0.1285 -0.2950  0.8918
 8288SOL     OW27242   5.409   7.765   6.769 -0.6406 -0.0557 -0.5769
 8288SOL    HW127243   5.314   7.774   6.771 -0.6103  0.2579 -0.4854
 8288SOL    HW227244   5.438   7.824   6.699 -0.3174  1.7846  1.0084
 8289SOL     OW27245   6.761  10.456  10.612 -0.2520  0.1454  0.8739
 8289SOL    HW127246   6.754  10.365  10.586 -1.8996  0.3324  0.5914
 8289SOL    HW227247   6.722  10.460  10.699  0.9751  0.3760  1.4445
 8290SOL     OW27248   5.575   1.925   5.810  0.3965 -0.6501  0.5374
 8290SOL    HW127249   5.574   2.010   5.767 -0.2480  0.6025  2.8870
 8290SOL    HW227250   5.650   1.927   5.869 -0.9936 -0.6768  2.4178
 8291SOL     OW27251   2.032   5.545   5.170  0.2417 -0.5429 -0.5027
 8291SOL    HW127252   1.952   5.587   5.139 -0.4652 -2.1897 -1.0138
 8291SOL    HW227253   2.070   5.608   5.231 -1.5410  0.2034 -0.0994
 8292SOL     OW27254   8.413   2.374   9.275  0.5933 -0.1850  0.1666
 8292SOL    HW127255   8.455   2.406   9.355 -0.8494 -0.0873  0.9224
 8292SOL    HW227256   8.424   2.445   9.212 -1.8967  1.6153  1.5769
 8293SOL     OW27257   9.659   5.988   2.661  0.3574  0.0930 -0.2214
 8293SOL    HW127258   9.639   6.066   2.713  0.6499  0.4532 -0.6408
 8293SOL    HW227259   9.732   5.946   2.708 -0.3074 -0.3684  0.4388
 8294SOL     OW27260   1.213   0.228   5.577 -0.0810 -0.1272  0.1848
 8294SOL    HW127261   1.281   0.226   5.644  0.4663 -0.5705 -0.3767
 8294SOL    HW227262   1.153   0.157   5.601 -2.3735  2.3958  2.7123
 8295SOL     OW27263   8.155   7.936   6.719 -0.2251 -0.0919  0.3534
 8295SOL    HW127264   8.207   7.877   6.664  0.2083 -2.5393  3.1589
 8295SOL    HW227265   8.220   7.993   6.761 -0.4600  1.0241 -0.7275
 8296SOL     OW27266   9.522   8.692   3.784 -0.4943  0.2341  0.2282
 8296SOL    HW127267   9.466   8.718   3.711 -1.1473  0.9300  0.9549
 8296SOL    HW227268   9.513   8.763   3.848 -0.6487 -0.7649  1.3645
 8297SOL     OW27269   7.523   2.796   6.401 -0.6968  0.5452 -0.4654
 8297SOL    HW127270   7.598   2.854   6.411  0.0357 -0.0563 -2.1207
 8297SOL    HW227271   7.555   2.711   6.432 -1.4597  0.7550  1.0207
 8298SOL     OW27272   8.342   6.239   0.005 -0.2050  0.3841 -0.0344
 8298SOL    HW127273   8.416   6.299   0.013 -0.2675  0.9987 -2.9583
 8298SOL    HW227274   8.374   6.169  -0.052 -0.9468 -1.0428  1.2345
 8299SOL     OW27275   9.826   3.005   1.361 -0.1002  0.4952  0.2755
 8299SOL    HW127276   9.797   3.085   1.317 -0.6191  0.5257  0.6588
 8299SOL    HW227277   9.870   3.035   1.440  0.5408  0.4291 -0.0511
 8300SOL     OW27278   0.510   0.723   0.177 -0.3526 -0.2862 -0.2991
 8300SOL    HW127279   0.450   0.735   0.103 -0.6571  0.7925  0.1013
 8300SOL    HW227280   0.581   0.785   0.161 -1.0516  0.8751  0.9316
 8301SOL     OW27281   0.404   0.552   8.130 -0.2842  0.3004 -0.2633
 8301SOL    HW127282   0.428   0.588   8.044 -3.3360 -0.7574 -1.7233
 8301SOL    HW227283   0.411   0.457   8.119 -1.6247  0.1147  0.2851
 8302SOL     OW27284   4.278   8.889  10.312  0.1033 -0.1242 -0.0898
 8302SOL    HW127285   4.237   8.975  10.306 -1.6953 -1.0433 -1.8496
 8302SOL    HW227286   4.302   8.866  10.223  2.1282 -0.7738  0.5585
 8303SOL     OW27287   0.648   6.059   9.554  0.4264  0.3133  0.3238
 8303SOL    HW127288   0.738   6.038   9.528 -0.0777 -1.7668  0.0695
 8303SOL    HW227289   0.616   5.978   9.595 -0.8935  1.4633  1.6693
 8304SOL     OW27290   6.210   5.424   2.068 -0.2821 -0.1583  0.1611
 8304SOL    HW127291   6.200   5.454   2.158  0.2118 -0.7690  0.4323
 8304SOL    HW227292   6.172   5.336   2.067  1.2743 -0.8725  0.2281
 8305SOL     OW27293   4.632   1.757   6.531 -0.3177  0.0864  0.4540
 8305SOL    HW127294   4.651   1.808   6.609 -0.8734 -0.1119  0.7248
 8305SOL    HW227295   4.710   1.702   6.519  0.3876  1.1414  0.0190
 8306SOL     OW27296   0.392   2.298   8.800  0.3511 -0.2818 -0.0653
 8306SOL    HW127297   0.456   2.363   8.772  1.4569 -1.3409 -0.1009
 8306SOL    HW227298   0.339   2.281   8.722  0.0006  0.6145 -0.0304
 8307SOL     OW27299   0.256   3.919   2.680  0.0974  0.2518  0.7646
 8307SOL    HW127300   0.192   3.990   2.674  1.2569  1.1948 -1.5093
 8307SOL    HW227301   0.330   3.958   2.727  0.2852  0.2053  0.5103
 8308SOL     OW27302   8.947   3.122  10.138  0.0756  0.5686  0.8527
 8308SOL    HW127303   9.027   3.071  10.130 -1.1618 -1.1332 -2.0105
 8308SOL    HW227304   8.937   3.136  10.232  3.2214  0.1140  1.3607
 8309SOL     OW27305   8.624   1.083   4.043 -0.7550  0.3185  0.1274
 8309SOL    HW127306   8.667   1.131   3.973 -1.8605 -0.0772 -0.8523
 8309SOL    HW227307   8.566   1.021   3.998  1.0445 -2.3953  1.2942
 8310SOL     OW27308  10.143   1.912   6.058 -0.2943 -0.3112 -0.4721
 8310SOL    HW127309  10.088   1.990   6.068 -0.3170 -0.4865  1.0269
 8310SOL    HW227310  10.132   1.887   5.966  0.8135  2.2311 -1.3833
 8311SOL     OW27311   6.233   3.822   5.561 -0.2961  0.3901  0.0519
 8311SOL    HW127312   6.303   3.757   5.555  0.2719  0.9828  0.1161
 8311SOL    HW227313   6.271   3.894   5.610 -0.1379  1.7568 -1.9273
 8312SOL     OW27314   0.054   1.480   5.098 -0.4966  0.5785  0.0136
 8312SOL    HW127315   0.116   1.407   5.101  0.3380  1.1930 -1.3347
 8312SOL    HW227316   0.091   1.546   5.157 -1.4767 -0.2012  1.5791
 8313SOL     OW27317   9.990   2.684   5.647 -0.1488 -0.0932  0.1418
 8313SOL    HW127318  10.011   2.633   5.726  0.5141 -2.2443 -1.3319
 8313SOL    HW227319  10.075   2.716   5.616 -0.3984  0.6920  0.2545
 8314SOL     OW27320   1.107   7.211  10.359  0.5805 -0.3787  0.2484
 8314SOL    HW127321   1.169   7.262  10.411  0.9994 -1.8663  1.2438
 8314SOL    HW227322   1.157   7.186  10.281  0.5218  0.2993 -0.0154
 8315SOL     OW27323   9.536   0.947   0.183  0.0109 -0.1204 -0.2236
 8315SOL    HW127324   9.625   0.934   0.150 -0.3182 -3.1337 -0.2715
 8315SOL    HW227325   9.482   0.948   0.104 -0.1839 -0.7792 -0.1080
 8316SOL     OW27326   2.750   0.232   7.180  0.0347  0.1872  0.4194
 8316SOL    HW127327   2.829   0.280   7.203  0.8667 -1.5286  1.2902
 8316SOL    HW227328   2.778   0.141   7.171 -1.9266 -0.5682  1.3625
 8317SOL     OW27329   0.086   9.027   4.443 -0.3444 -0.4138  0.2763
 8317SOL    HW127330   0.125   9.052   4.527 -0.4482 -0.3600  0.3090
 8317SOL    HW227331   0.043   8.944   4.461  2.3475 -2.0734 -0.4976
 8318SOL     OW27332   3.450   9.536   6.289 -0.3693  0.1807  0.2591
 8318SOL    HW127333   3.376   9.504   6.238 -2.0249  0.6393  2.2413
 8318SOL    HW227334   3.525   9.485   6.257 -1.0962  1.0091 -3.1215
 8319SOL     OW27335   6.662   1.146   3.321 -0.1261 -0.9540 -0.1897
 8319SOL    HW127336   6.689   1.184   3.404  1.4371  0.9277 -1.4662
 8319SOL    HW227337   6.712   1.065   3.314  0.6314 -0.5372  0.2185
 8320SOL     OW27338   3.539   9.711   0.182  0.0770  0.7820 -0.0967
 8320SOL    HW127339   3.528   9.786   0.124  1.3888  1.1130  0.0294
 8320SOL    HW227340   3.631   9.687   0.172 -0.3760 -0.9811 -0.3141
 8321SOL     OW27341   2.813   9.195  10.503  0.6011  0.1529  0.3697
 8321SOL    HW127342   2.822   9.194  10.598  0.6255 -0.2675  0.3622
 8321SOL    HW227343   2.759   9.118  10.483  0.1373  0.5430  0.0911
 8322SOL     OW27344   3.105   7.017   6.306  0.3230 -0.4349 -0.4902
 8322SOL    HW127345   3.056   6.970   6.239  0.1358  0.5192 -1.0395
 8322SOL    HW227346   3.143   7.092   6.260  0.2666  0.1862  0.4426
 8323SOL     OW27347   9.704  10.273   0.230 -0.4773 -0.6871 -0.2797
 8323SOL    HW127348   9.654  10.349   0.259  0.7468 -0.4930  1.4255
 8323SOL    HW227349   9.681  10.264   0.137 -1.4836  1.0837 -0.2534
 8324SOL     OW27350  10.305   2.991  10.582 -0.2220 -0.1354 -0.3535
 8324SOL    HW127351  10.240   3.023  10.520 -1.6063 -1.1106  0.5211
 8324SOL    HW227352  10.310   2.897  10.564  0.5539 -0.1595 -0.0470
 8325SOL     OW27353   7.335   9.885   6.913 -0.3102 -0.4020  0.3560
 8325SOL    HW127354   7.289   9.890   6.830 -0.7097 -0.8111  0.5477
 8325SOL    HW227355   7.282   9.936   6.974 -0.7468 -1.1998  0.6724
 8326SOL     OW27356   3.192   4.711   2.104  0.5523 -0.0301  0.6488
 8326SOL    HW127357   3.182   4.620   2.074  3.3900  0.0168 -0.7397
 8326SOL    HW227358   3.107   4.751   2.085 -0.2016 -1.9626 -0.3466
 8327SOL     OW27359   2.073   4.596   6.607 -0.1259  0.4182  0.4881
 8327SOL    HW127360   2.052   4.548   6.527  1.0341  0.9054 -0.1236
 8327SOL    HW227361   2.051   4.535   6.678 -1.7461  0.2061 -0.1598
 8328SOL     OW27362   0.450   5.732   7.048 -0.6647  0.1146 -0.2680
 8328SOL    HW127363   0.374   5.767   7.001  0.1950  0.1879 -1.6485
 8328SOL    HW227364   0.506   5.696   6.980  0.3286 -0.3866  0.7766
 8329SOL     OW27365   0.313   9.801   3.346  0.0432 -0.0654 -0.6614
 8329SOL    HW127366   0.250   9.844   3.404 -0.8344 -1.1856 -0.7557
 8329SOL    HW227367   0.397   9.838   3.371 -0.4411  0.1877  0.6692
 8330SOL     OW27368   0.684   5.843   1.596 -0.1189  0.1011 -0.6583
 8330SOL    HW127369   0.591   5.824   1.607 -0.1800  0.9879  0.5080
 8330SOL    HW227370   0.707   5.897   1.671  1.5983 -0.9657 -0.3612
 8331SOL     OW27371   9.283   2.289   0.457 -0.4786  0.2084  0.2827
 8331SOL    HW127372   9.347   2.358   0.439 -0.5098  0.1564 -0.0276
 8331SOL    HW227373   9.286   2.278   0.552  0.8533 -0.6479  0.1658
 8332SOL     OW27374   6.452   0.336   5.961  0.7543  0.0699  0.1262
 8332SOL    HW127375   6.426   0.299   6.045  0.6568  0.8105  0.4260
 8332SOL    HW227376   6.417   0.425   5.961 -1.8294 -0.8316 -1.9372
 8333SOL     OW27377   3.476   2.246   4.333  0.1173 -0.1206 -0.1692
 8333SOL    HW127378   3.532   2.287   4.267 -0.6979  4.2600  1.5037
 8333SOL    HW227379   3.388   2.275   4.311 -0.4048 -0.0829  1.7890
 8334SOL     OW27380   6.723   0.340   9.604  0.1337  0.0258 -0.1868
 8334SOL    HW127381   6.679   0.271   9.655  0.6479 -0.2838 -0.1522
 8334SOL    HW227382   6.808   0.302   9.581  0.0178  0.2690 -1.0407
 8335SOL     OW27383   4.623   2.921  10.324  0.2754 -0.3111 -0.0684
 8335SOL    HW127384   4.574   2.848  10.361 -0.0502 -0.0456  0.0358
 8335SOL    HW227385   4.643   2.976  10.399  0.0397 -0.0174 -0.2177
 8336SOL     OW27386   8.488   9.870   1.720 -0.7993 -0.4618 -0.1842
 8336SOL    HW127387   8.472   9.949   1.668  2.0630 -0.7672 -1.7759
 8336SOL    HW227388   8.579   9.848   1.701 -0.4764 -2.2692  2.8548
 8337SOL     OW27389   4.242   3.067   2.749  0.5250  0.3046  0.5205
 8337SOL    HW127390   4.274   3.156   2.730  0.2088  0.3705  0.2917
 8337SOL    HW227391   4.193   3.042   2.670  3.8365 -1.6052 -1.1920
 8338SOL     OW27392   0.753   0.285  10.233  0.0632  0.1627 -0.3649
 8338SOL    HW127393   0.848   0.295  10.233  0.3120 -1.9201 -0.8535
 8338SOL    HW227394   0.725   0.328  10.314  1.6121 -0.6912  0.6731
 8339SOL     OW27395   0.330   3.813   0.950 -0.0407 -0.3064 -0.0894
 8339SOL    HW127396   0.256   3.871   0.932 -0.4078 -0.6810  0.1967
 8339SOL    HW227397   0.337   3.813   1.045  2.1605  2.0150 -0.1330
 8340SOL     OW27398  10.164   0.924   3.097  0.0223  0.6331 -0.2922
 8340SOL    HW127399  10.161   0.852   3.160  1.8778  1.1367  0.4274
 8340SOL    HW227400  10.094   0.982   3.125 -1.7655 -1.0090 -1.1127
 8341SOL     OW27401   8.714   0.234   0.603 -0.3305 -0.5210  0.0956
 8341SOL    HW127402   8.779   0.289   0.647 -2.2167  0.7812  1.4239
 8341SOL    HW227403   8.736   0.241   0.510  2.3510 -1.4495  0.5753
 8342SOL     OW27404   7.183   0.853   0.562 -0.7339  0.3912  0.2840
 8342SOL    HW127405   7.275   0.831   0.580 -1.4476 -3.0654  0.4622
 8342SOL    HW227406   7.143   0.862   0.648 -0.7042  1.3694  0.2066
 8343SOL     OW27407   8.012   4.964   5.693 -0.2541 -0.2733  0.4586
 8343SOL    HW127408   7.926   4.935   5.722  0.3766  0.8313  3.8157
 8343SOL    HW227409   8.034   4.904   5.621 -2.8230 -2.0445  1.0074
 8344SOL     OW27410   9.415   7.466   3.921  0.1173  0.0100  0.1135
 8344SOL    HW127411   9.474   7.530   3.961  0.0575 -0.2048  0.5579
 8344SOL    HW227412   9.466   7.428   3.850 -1.5347  4.2594 -3.8116
 8345SOL     OW27413   1.624   6.445   6.564  0.0747  0.4659 -0.1114
 8345SOL    HW127414   1.713   6.471   6.584  0.6895 -0.7001 -1.1728
 8345SOL    HW227415   1.588   6.518   6.514 -0.2460  1.7693  1.9236
 8346SOL     OW27416   7.368   2.085   5.719 -0.2584 -0.1502 -0.1474
 8346SOL    HW127417   7.371   2.007   5.775 -0.8442  0.7551  1.1847
 8346SOL    HW227418   7.439   2.071   5.656  0.0846 -1.4473  0.4836
 8347SOL     OW27419   1.873   9.661   2.304  0.1489  0.5617 -0.1525
 8347SOL    HW127420   1.917   9.620   2.229 -0.6393 -0.8073  0.0989
 8347SOL    HW227421   1.789   9.615   2.310 -0.0807  1.1193  1.1548
 8348SOL     OW27422   1.386   4.756   6.677  0.1644  0.2155 -0.2093
 8348SOL    HW127423   1.345   4.740   6.593 -0.0373 -1.0581  0.1024
 8348SOL    HW227424   1.315   4.746   6.741  0.3986  0.7544  0.1455
 8349SOL     OW27425   6.857   2.345   6.066  0.2494  0.2624  0.4334
 8349SOL    HW127426   6.927   2.396   6.025  1.5136 -1.8459 -0.1949
 8349SOL    HW227427   6.799   2.321   5.994  0.7983 -0.8757  0.3499
 8350SOL     OW27428   7.526   8.287   0.763 -0.0061  0.0823  0.4421
 8350SOL    HW127429   7.620   8.303   0.764 -0.1020  0.7763  2.3205
 8350SOL    HW227430   7.493   8.346   0.695  0.9182 -0.3620 -0.4228
 8351SOL     OW27431   8.852   9.936   8.670  0.0734 -0.0443 -0.1573
 8351SOL    HW127432   8.810  10.004   8.617 -1.9415 -1.0723  0.0186
 8351SOL    HW227433   8.785   9.911   8.734  1.6998 -0.3467  1.5226
 8352SOL     OW27434   5.350  10.590   2.444  0.3490 -0.4122 -0.2463
 8352SOL    HW127435   5.308  10.532   2.380  1.1374 -0.5808 -0.6207
 8352SOL    HW227436   5.278  10.642   2.480  0.0332  0.7286 -2.3264
 8353SOL     OW27437   0.358   1.491   4.370  0.7093  0.3562 -0.0024
 8353SOL    HW127438   0.323   1.580   4.376  1.9697  0.8475  0.5998
 8353SOL    HW227439   0.432   1.498   4.309  0.3884 -0.4358 -0.4973
 8354SOL     OW27440   2.221   9.290  10.441 -0.5226  0.2369  0.2955
 8354SOL    HW127441   2.174   9.207  10.435 -0.5745  0.0580  2.3893
 8354SOL    HW227442   2.163   9.348  10.490  0.7911  0.4549  1.6861
 8355SOL     OW27443   2.030   0.932   2.510  0.1717  0.4162 -0.6349
 8355SOL    HW127444   2.013   0.843   2.541 -2.7112  0.7971 -0.8675
 8355SOL    HW227445   2.034   0.985   2.590  2.3315  0.0976 -0.4652
 8356SOL     OW27446   2.924   1.861   2.441 -0.0235 -0.3508 -0.4639
 8356SOL    HW127447   2.951   1.778   2.481 -0.8254 -0.2283  0.3703
 8356SOL    HW227448   2.887   1.836   2.357 -1.2439 -0.9818  0.2297
 8357SOL     OW27449   2.114   5.296   4.472 -0.3117 -0.2846 -0.0827
 8357SOL    HW127450   2.020   5.295   4.454 -0.4726 -3.1069  0.5107
 8357SOL    HW227451   2.148   5.218   4.428  1.8112  0.7559 -0.4118
 8358SOL     OW27452   2.676   4.789   5.654 -0.5612  0.3898 -0.5100
 8358SOL    HW127453   2.671   4.879   5.623 -0.3843  0.5960  0.0465
 8358SOL    HW227454   2.756   4.754   5.614 -0.2572  0.6995 -0.1857
 8359SOL     OW27455  10.391   3.920   2.766 -0.2216 -0.1816  0.0343
 8359SOL    HW127456  10.359   3.886   2.850  0.4570 -0.0335  0.3613
 8359SOL    HW227457  10.315   3.961   2.726 -0.8611 -1.3509  0.0125
 8360SOL     OW27458   9.121   6.909   3.812  0.0933  0.5498 -0.0036
 8360SOL    HW127459   9.117   6.962   3.731 -1.8205  1.1103  0.4056
 8360SOL    HW227460   9.119   6.974   3.882  0.1269 -0.0006  0.5082
 8361SOL     OW27461   7.393   7.832   7.546  0.1088 -0.5033  0.5774
 8361SOL    HW127462   7.340   7.879   7.610  1.0233  0.2516  0.8165
 8361SOL    HW227463   7.478   7.822   7.588  0.9310  0.5541 -0.7107
 8362SOL     OW27464   5.798   3.897   3.018  0.1126 -0.1178  0.2425
 8362SOL    HW127465   5.816   3.877   3.110  2.1095 -0.4470 -0.1761
 8362SOL    HW227466   5.834   3.823   2.969 -3.2464 -1.3088 -0.7675
 8363SOL     OW27467   1.401   5.027   9.456 -0.1719 -0.4900 -0.0938
 8363SOL    HW127468   1.391   4.936   9.484  1.2521 -0.4679  0.5779
 8363SOL    HW227469   1.408   5.076   9.538 -0.2329  0.1295 -0.4604
 8364SOL     OW27470   5.300   3.392   5.827  0.1783 -0.5083  0.2009
 8364SOL    HW127471   5.377   3.374   5.881  0.2677  0.7358  0.5332
 8364SOL    HW227472   5.329   3.376   5.738 -0.1719 -3.2583  0.5197
 8365SOL     OW27473   6.935  10.438   0.583 -0.8046  0.1167 -0.2193
 8365SOL    HW127474   7.005  10.473   0.638  0.1694  1.6434 -2.3030
 8365SOL    HW227475   6.929  10.345   0.608  0.5833  0.4102  1.3819
 8366SOL     OW27476   5.563   1.778   2.531  0.4072  0.3665  0.7956
 8366SOL    HW127477   5.548   1.712   2.464  0.4891  2.3621 -1.2838
 8366SOL    HW227478   5.657   1.773   2.549  0.0852 -1.4652  2.2585
 8367SOL     OW27479   3.380   0.298   3.501 -0.0912  0.8418  0.0144
 8367SOL    HW127480   3.422   0.362   3.559  0.8245  0.1338  0.1511
 8367SOL    HW227481   3.413   0.319   3.414  0.2225  0.5570  0.0613
 8368SOL     OW27482   0.150   2.531   7.911 -0.7823  0.0085 -0.2021
 8368SOL    HW127483   0.236   2.530   7.954 -0.6805  1.1396 -0.3533
 8368SOL    HW227484   0.142   2.444   7.872  0.1913 -0.1957  0.0233
 8369SOL     OW27485   9.448   9.601   2.405  0.5309  0.4925  0.0370
 8369SOL    HW127486   9.531   9.567   2.438 -0.5736 -1.3475  1.1064
 8369SOL    HW227487   9.395   9.614   2.484 -0.4150  0.9950 -0.6670
 8370SOL     OW27488   1.320  10.750   8.538  0.3526 -0.2637 -0.0634
 8370SOL    HW127489   1.372  10.751   8.457  1.9274 -0.4695  0.8983
 8370SOL    HW227490   1.341  10.833   8.581  0.7939 -0.8413  0.8730
 8371SOL     OW27491   9.614   1.230   9.940  0.7742  0.0601  0.4687
 8371SOL    HW127492   9.619   1.234   9.844  0.0733 -0.7983  0.3871
 8371SOL    HW227493   9.521   1.241   9.960  1.0644  1.6281  1.1549
 8372SOL     OW27494   9.430   9.485   1.273  0.3338  0.3800  0.0884
 8372SOL    HW127495   9.354   9.542   1.272 -0.1333 -0.2145 -1.2294
 8372SOL    HW227496   9.434   9.449   1.184 -0.7877 -3.4082  1.3811
 8373SOL     OW27497   0.633   9.926   9.947  0.4587  0.3035 -0.4230
 8373SOL    HW127498   0.629   9.832   9.932 -0.7708  0.7085 -3.1411
 8373SOL    HW227499   0.549   9.948   9.988  1.6024  0.0152  2.3319
 8374SOL     OW27500   7.290   2.303   5.373  0.6919 -0.2959 -0.0120
 8374SOL    HW127501   7.249   2.224   5.409  1.0345  0.2344  1.6129
 8374SOL    HW227502   7.383   2.294   5.395  0.9458  0.0090 -0.8902
 8375SOL     OW27503   5.753   9.661   2.396 -0.2963  0.2964 -0.1556
 8375SOL    HW127504   5.787   9.688   2.481  1.0763 -0.8872 -0.2768
 8375SOL    HW227505   5.687   9.595   2.416 -3.6801  3.4733  0.1423
 8376SOL     OW27506   9.523   9.944   3.066  0.1034 -0.1390  0.6571
 8376SOL    HW127507   9.484   9.961   2.980 -0.5739 -0.5865  0.8672
 8376SOL    HW227508   9.539   9.849   3.066  0.6572 -0.0489  0.7973
 8377SOL     OW27509   6.901   5.171   8.119 -0.1648  0.5715  0.3655
 8377SOL    HW127510   6.886   5.079   8.099  0.5719  0.7459 -1.2406
 8377SOL    HW227511   6.961   5.171   8.193  1.1801 -0.3129 -0.6740
 8378SOL     OW27512   6.260   5.615   1.013 -0.1891  0.3451 -0.0583
 8378SOL    HW127513   6.272   5.536   0.960  2.8316  0.9688 -0.4589
 8378SOL    HW227514   6.266   5.584   1.104  0.8947  0.0775 -0.2082
 8379SOL     OW27515   4.698   5.637   8.241  0.4247 -0.0127  0.4769
 8379SOL    HW127516   4.657   5.718   8.209 -0.0181  0.3770  1.9529
 8379SOL    HW227517   4.751   5.607   8.167 -0.1111  1.1278 -0.4207
 8380SOL     OW27518   2.161   5.530   8.705 -0.1344 -0.3542  0.2476
 8380SOL    HW127519   2.235   5.488   8.750 -1.1018 -3.1020 -0.5070
 8380SOL    HW227520   2.198   5.611   8.669  2.2364 -1.1279  0.7523
 8381SOL     OW27521   7.607   7.162   7.147  0.4199  0.1431 -0.6067
 8381SOL    HW127522   7.565   7.077   7.160  0.6674  0.2215  0.7851
 8381SOL    HW227523   7.551   7.206   7.082  0.1943 -0.9995 -1.2059
 8382SOL     OW27524   2.158   2.606   6.864  0.0457  0.0752 -0.2215
 8382SOL    HW127525   2.191   2.535   6.809 -1.4577  0.5903 -1.8886
 8382SOL    HW227526   2.220   2.612   6.936 -0.4109 -3.7220  0.6645
 8383SOL     OW27527   2.166   6.429   1.148 -0.2352  0.2479  0.2605
 8383SOL    HW127528   2.075   6.434   1.118 -0.1630  0.0844  0.0081
 8383SOL    HW227529   2.192   6.520   1.161  0.1327  0.4189 -1.4108
 8384SOL     OW27530   4.563   0.722   2.634 -0.2242  0.3165  0.5487
 8384SOL    HW127531   4.587   0.784   2.565 -1.6086  0.4803  0.1762
 8384SOL    HW227532   4.494   0.766   2.683 -0.5527 -0.5325  0.8785
 8385SOL     OW27533   9.116   1.648   4.215 -0.4777  0.3753  0.6601
 8385SOL    HW127534   9.129   1.639   4.121 -0.0567  0.9263  0.6617
 8385SOL    HW227535   9.198   1.618   4.254 -0.2042  1.2656  0.7923
 8386SOL     OW27536   8.378   6.995   2.839 -0.1094  0.5189 -0.1993
 8386SOL    HW127537   8.449   7.014   2.901 -1.3505 -1.3102  1.9290
 8386SOL    HW227538   8.347   6.908   2.863 -2.2593  0.7310 -1.8770
 8387SOL     OW27539   0.938   8.413   0.061  0.3531 -0.6212  0.6061
 8387SOL    HW127540   0.991   8.480   0.104  0.3851 -0.7244  0.7254
 8387SOL    HW227541   0.869   8.463   0.017  0.5884 -0.4819  0.3895
 8388SOL     OW27542   5.762   2.446   8.681  0.3513  0.1213  0.2617
 8388SOL    HW127543   5.736   2.463   8.590  0.9623 -1.7457 -0.3134
 8388SOL    HW227544   5.687   2.476   8.733 -1.9999 -2.7469 -1.1614
 8389SOL     OW27545  10.565   6.757   4.394 -0.5189 -0.0293 -0.0348
 8389SOL    HW127546  10.610   6.739   4.477  0.1880  1.4597 -0.0696
 8389SOL    HW227547  10.627   6.810   4.344 -1.5069  0.3041 -0.9418
 8390SOL     OW27548   7.071   3.748   2.002 -0.3143 -0.3696  0.2505
 8390SOL    HW127549   7.047   3.808   1.931  0.8316  0.2307  0.3395
 8390SOL    HW227550   7.103   3.806   2.071 -1.3499 -0.9595  1.2434
 8391SOL     OW27551   4.184  10.528  10.537 -0.1561  0.4238 -0.7224
 8391SOL    HW127552   4.137  10.445  10.523  1.5239 -0.5433 -0.8829
 8391SOL    HW227553   4.267  10.516  10.491  0.5848  1.7835  0.2120
 8392SOL     OW27554   6.142   7.951   0.440  0.0875 -0.7326  0.7534
 8392SOL    HW127555   6.110   7.923   0.526  2.5460  1.4821  2.5839
 8392SOL    HW227556   6.213   7.890   0.420  0.3765 -0.4793  0.9820
 8393SOL     OW27557   4.335   8.020   0.267  0.0777  0.0200  0.0698
 8393SOL    HW127558   4.332   8.053   0.357  0.0296 -1.3814  0.6031
 8393SOL    HW227559   4.244   8.012   0.241  0.0979  1.0232 -0.3481
 8394SOL     OW27560   1.622   8.948   4.320 -0.1737  0.2445 -0.0465
 8394SOL    HW127561   1.543   8.997   4.296 -0.3703 -0.1757 -0.2546
 8394SOL    HW227562   1.693   9.012   4.311 -0.2327  0.1161 -1.7479
 8395SOL     OW27563   9.474   3.359   0.424  0.3772 -0.6462  0.0824
 8395SOL    HW127564   9.563   3.337   0.452  0.0346 -2.2281  0.0406
 8395SOL    HW227565   9.429   3.275   0.419 -1.8760  0.2845  2.5676
 8396SOL     OW27566   4.892   5.222   1.209  0.1784 -0.1911 -0.2988
 8396SOL    HW127567   4.947   5.149   1.237 -1.2876 -1.5994 -0.8889
 8396SOL    HW227568   4.909   5.231   1.115  1.6885  1.4905  0.0708
 8397SOL     OW27569   8.954   9.521   0.051  0.2701 -0.7738  0.0572
 8397SOL    HW127570   9.001   9.500   0.131 -0.4558  0.6893  0.8974
 8397SOL    HW227571   8.891   9.588   0.076  0.0061 -0.2887 -1.7320
 8398SOL     OW27572   9.534   8.053   3.701  0.4187 -0.3277 -0.1748
 8398SOL    HW127573   9.594   8.116   3.741 -0.7268  0.9440 -0.3420
 8398SOL    HW227574   9.518   8.089   3.613  1.7257 -2.2597 -1.2675
 8399SOL     OW27575   1.695   3.235   1.060  0.3615  0.3394  0.1757
 8399SOL    HW127576   1.759   3.301   1.034  0.3483  0.0641 -0.5845
 8399SOL    HW227577   1.620   3.285   1.091 -0.3703  0.7602 -2.0899
 8400SOL     OW27578   0.990   2.041   9.591  0.1481 -0.1633  0.0010
 8400SOL    HW127579   1.076   2.008   9.563  0.4717  0.6429 -0.0004
 8400SOL    HW227580   0.931   2.014   9.521  0.8889  1.5303 -1.3587
 8401SOL     OW27581   7.400   1.370   6.684  0.4024  0.0505 -0.0267
 8401SOL    HW127582   7.463   1.355   6.755 -0.1196 -3.3827 -0.1399
 8401SOL    HW227583   7.453   1.395   6.609  1.2237  1.0129  0.8546
 8402SOL     OW27584   4.613  10.037   6.942  0.1332  0.1350 -0.3544
 8402SOL    HW127585   4.651   9.964   6.893  3.0327  1.7431 -0.7308
 8402SOL    HW227586   4.589  10.000   7.026 -0.6142 -1.7047 -1.3247
 8403SOL     OW27587   1.979   4.153   1.933 -0.4633 -0.2122  0.0664
 8403SOL    HW127588   1.975   4.248   1.917 -1.5360 -0.0485  1.1694
 8403SOL    HW227589   2.026   4.118   1.857 -1.4263  1.0186 -1.1370
 8404SOL     OW27590   2.784   2.381   6.423  0.0001  0.0163 -0.4075
 8404SOL    HW127591   2.832   2.464   6.422  0.2750 -0.0131  2.4701
 8404SOL    HW227592   2.692   2.407   6.425  0.0959  0.3034  1.0070
 8405SOL     OW27593   6.790   1.178  10.072  0.0385  0.6839 -0.1967
 8405SOL    HW127594   6.836   1.212   9.995  0.6178  0.4495  0.0409
 8405SOL    HW227595   6.858   1.171  10.139 -0.0598 -0.9643 -0.2372
 8406SOL     OW27596   8.469   0.479   8.369 -0.3354 -0.0120  0.0100
 8406SOL    HW127597   8.379   0.466   8.398 -0.8434  1.8800 -0.5678
 8406SOL    HW227598   8.509   0.534   8.436  0.3267 -0.6462  0.1448
 8407SOL     OW27599   4.485   6.203   3.042 -0.1530  0.4806  0.2073
 8407SOL    HW127600   4.523   6.166   2.963 -2.4375 -1.6072 -0.0608
 8407SOL    HW227601   4.505   6.139   3.111 -2.5830 -0.4629  0.1393
 8408SOL     OW27602   4.445   1.348   3.522  0.2878 -0.2793 -0.3106
 8408SOL    HW127603   4.367   1.340   3.578  0.2816  1.2061 -0.0649
 8408SOL    HW227604   4.412   1.333   3.433 -0.0051 -1.0251 -0.0941
 8409SOL     OW27605   2.749   2.893   0.594 -0.0214  0.4719  0.1247
 8409SOL    HW127606   2.696   2.879   0.672  3.4926  0.6044  2.7750
 8409SOL    HW227607   2.735   2.815   0.540 -1.0846 -0.5361  1.7877
 8410SOL     OW27608   5.983   8.989   9.916 -0.1324  0.8675 -0.1973
 8410SOL    HW127609   6.028   9.038   9.985 -1.0113  1.9397 -0.3708
 8410SOL    HW227610   5.941   8.916   9.963 -1.5473  2.1319  0.6038
 8411SOL     OW27611   1.580   4.773   1.339 -0.0104  1.1395  0.1798
 8411SOL    HW127612   1.494   4.813   1.327 -0.1307  0.9768  0.4878
 8411SOL    HW227613   1.575   4.731   1.425 -0.1686 -0.2803 -0.4998
 8412SOL     OW27614   1.172   9.562   8.426 -0.3249  0.3164  0.7372
 8412SOL    HW127615   1.114   9.539   8.353  2.2954 -0.2941 -1.3170
 8412SOL    HW227616   1.205   9.478   8.457  0.8159  0.6971  0.6141
 8413SOL     OW27617   8.086   7.896   6.006  0.2203  1.0547 -0.0999
 8413SOL    HW127618   8.157   7.938   5.956  0.4105  0.3239 -0.4647
 8413SOL    HW227619   8.012   7.895   5.945  0.4586  0.1441 -0.3898
 8414SOL     OW27620   9.687   8.085   8.549 -0.1980  0.1798  0.0616
 8414SOL    HW127621   9.774   8.047   8.536 -0.0569  0.3668  0.4291
 8414SOL    HW227622   9.629   8.010   8.556  0.0657  0.0302  0.6942
 8415SOL     OW27623   4.981   5.104  10.265  0.0923 -0.4298 -0.0275
 8415SOL    HW127624   4.922   5.160  10.314  0.5810 -0.0084  0.0926
 8415SOL    HW227625   5.006   5.034  10.326  0.2758 -0.2084  0.1518
 8416SOL     OW27626  10.275   4.165  10.454 -0.2508  0.2193  0.5638
 8416SOL    HW127627  10.260   4.158  10.548 -1.2894  2.7590  0.6534
 8416SOL    HW227628  10.225   4.242  10.427  0.5932 -0.0200 -1.9572
 8417SOL     OW27629   3.767   8.578   0.926 -0.3142  0.0119  0.0033
 8417SOL    HW127630   3.823   8.568   0.850  1.4008 -0.4596  1.2594
 8417SOL    HW227631   3.686   8.534   0.903  0.4136 -0.6936 -1.2880
 8418SOL     OW27632   5.041   8.730   8.504 -0.8872  0.0410  0.1754
 8418SOL    HW127633   5.129   8.697   8.518  0.0775  1.9392 -0.9144
 8418SOL    HW227634   5.024   8.714   8.411 -1.2284  0.6518  0.1255
 8419SOL     OW27635   4.708   7.265   6.640 -0.0976  0.2744  0.0442
 8419SOL    HW127636   4.687   7.244   6.549 -2.8949 -1.9120  1.0457
 8419SOL    HW227637   4.728   7.181   6.680 -2.4160  0.6381  2.1800
 8420SOL     OW27638   2.047   2.315   3.992  0.8642  0.2016 -0.4432
 8420SOL    HW127639   1.959   2.276   3.994  0.3780  1.1889 -1.5123
 8420SOL    HW227640   2.105   2.243   3.967  0.4478 -0.5734  0.7360
 8421SOL     OW27641  10.096   4.165   7.411 -0.0030  0.0892  0.3006
 8421SOL    HW127642  10.071   4.094   7.470 -0.7904 -0.1224 -0.2699
 8421SOL    HW227643  10.191   4.168   7.416 -0.0820  0.5069  2.0819
 8422SOL     OW27644   5.281   7.371   8.967 -0.4412  0.2064  0.1762
 8422SOL    HW127645   5.375   7.377   8.953 -0.9228  1.5675 -3.6277
 8422SOL    HW227646   5.263   7.277   8.969  1.0667 -0.1092  2.5026
 8423SOL     OW27647   9.955   3.453   3.210  0.2247 -0.1204  0.3801
 8423SOL    HW127648   9.904   3.478   3.287 -2.0381  0.1805 -1.0902
 8423SOL    HW227649  10.032   3.510   3.212  0.4003 -0.3513  2.5461
 8424SOL     OW27650  10.288   2.629   8.243 -0.5737  0.2310  0.6132
 8424SOL    HW127651  10.378   2.624   8.210 -0.3423  1.1348  1.0943
 8424SOL    HW227652  10.252   2.541   8.226  1.0992 -0.8804  2.4141
 8425SOL     OW27653   3.303   5.797   5.831  0.0349  0.1529 -0.1082
 8425SOL    HW127654   3.220   5.835   5.802 -0.3539 -0.3965  0.2563
 8425SOL    HW227655   3.359   5.873   5.850 -0.0247  0.5181 -1.3529
 8426SOL     OW27656   4.675  10.735  10.055  0.5067 -0.3393 -0.5879
 8426SOL    HW127657   4.763  10.762  10.082  0.1725  1.6448 -1.2889
 8426SOL    HW227658   4.676  10.743   9.959 -0.5429  0.0772 -0.5752
 8427SOL     OW27659   8.934   4.258   1.226 -1.1276  0.4390  0.0052
 8427SOL    HW127660   9.027   4.255   1.206 -0.8152 -1.1519  1.5374
 8427SOL    HW227661   8.892   4.214   1.153 -0.7091  1.1870 -0.7051
 8428SOL     OW27662   9.360   4.847   7.045 -0.4077 -0.4598 -0.4617
 8428SOL    HW127663   9.447   4.855   7.084 -0.0929 -0.3232 -1.1745
 8428SOL    HW227664   9.335   4.937   7.024  0.1349 -0.6641 -2.0746
 8429SOL     OW27665   2.369   0.489   7.448  0.6853 -0.3514 -0.0944
 8429SOL    HW127666   2.411   0.425   7.504  3.0208  0.9018 -0.3086
 8429SOL    HW227667   2.401   0.470   7.360 -1.4068 -1.0659 -0.7788
 8430SOL     OW27668   5.073   7.132  10.733  0.1882  0.2364 -0.2962
 8430SOL    HW127669   5.090   7.210  10.680  0.1428  0.7391  0.4116
 8430SOL    HW227670   5.088   7.059  10.674  0.9947  0.7622 -0.7586
 8431SOL     OW27671   6.936   4.292  10.614  0.4154 -0.4205 -0.1277
 8431SOL    HW127672   6.988   4.331  10.544 -0.9893  0.7992 -0.5541
 8431SOL    HW227673   6.886   4.365  10.651 -0.0176 -1.3103  1.1274
 8432SOL     OW27674   6.750   8.848   6.334  0.4235 -0.2402  0.2698
 8432SOL    HW127675   6.702   8.899   6.401  0.1835  0.3525 -0.3414
 8432SOL    HW227676   6.722   8.886   6.251  0.7744 -0.9322 -0.1696
 8433SOL     OW27677   0.017   6.785   2.225  0.0659 -0.1484  0.0807
 8433SOL    HW127678  -0.020   6.698   2.244 -1.7743  1.0448  2.5263
 8433SOL    HW227679   0.099   6.788   2.274 -0.6719  0.0050  1.3655
 8434SOL     OW27680   2.970   5.677   4.316 -0.3394 -0.1305 -0.1191
 8434SOL    HW127681   2.950   5.621   4.391 -0.7317  1.0837  0.7233
 8434SOL    HW227682   3.050   5.640   4.279  2.0997  1.2976  3.1449
 8435SOL     OW27683   6.147   0.435   1.970  0.7059  0.4209 -0.1686
 8435SOL    HW127684   6.097   0.482   1.903  0.5811  1.1189  0.4087
 8435SOL    HW227685   6.085   0.423   2.042  0.8361 -0.3393 -0.1776
 8436SOL     OW27686   4.963   7.318   7.741  0.0018 -0.0538 -0.1584
 8436SOL    HW127687   5.056   7.326   7.764 -0.1721 -1.3098  1.1209
 8436SOL    HW227688   4.925   7.269   7.814 -1.2478 -1.4990 -1.7220
 8437SOL     OW27689   3.110   9.986   1.807 -0.0049 -0.1488 -0.2457
 8437SOL    HW127690   3.135  10.072   1.773  1.2147 -0.8607 -1.2359
 8437SOL    HW227691   3.174   9.970   1.878 -0.1135 -0.3140 -0.1854
 8438SOL     OW27692   7.345   4.850   1.807  0.1569 -0.6063 -0.4123
 8438SOL    HW127693   7.267   4.797   1.816  1.2846 -2.8388 -2.6603
 8438SOL    HW227694   7.415   4.797   1.845  1.2960 -0.7850 -2.6052
 8439SOL     OW27695   7.028   2.521   7.972  0.0884 -0.0100 -0.5368
 8439SOL    HW127696   7.042   2.586   8.041  1.1446  0.0891 -0.8233
 8439SOL    HW227697   7.011   2.439   8.019  0.8703  0.0425 -0.1506
 8440SOL     OW27698   2.088   5.887   7.065 -0.1496 -0.2035  0.0182
 8440SOL    HW127699   2.054   5.798   7.056  1.9858 -0.8799 -2.8809
 8440SOL    HW227700   2.027   5.941   7.015 -1.3363  0.0340  1.6178
 8441SOL     OW27701   8.963   2.418   9.999  0.2946 -0.2553 -0.1362
 8441SOL    HW127702   8.958   2.422  10.095  0.3280 -1.3774 -0.0804
 8441SOL    HW227703   8.913   2.494   9.970 -0.3804 -0.3393  0.7539
 8442SOL     OW27704   7.661   4.514   6.868  0.6489  0.2587  0.5975
 8442SOL    HW127705   7.630   4.512   6.959 -1.3867  0.2495 -0.0500
 8442SOL    HW227706   7.599   4.459   6.820  1.4107  0.6491 -0.8819
 8443SOL     OW27707   5.257   3.202   3.843  0.6330 -0.4613  0.3604
 8443SOL    HW127708   5.291   3.262   3.910  1.3963  0.0531 -0.4691
 8443SOL    HW227709   5.252   3.255   3.764 -3.0246 -0.2323  0.5891
 8444SOL     OW27710   6.764   8.692   2.978 -1.2857 -0.4825 -0.3174
 8444SOL    HW127711   6.734   8.747   2.906 -0.1337 -0.8457 -1.1099
 8444SOL    HW227712   6.825   8.747   3.026 -1.9950 -0.2671  0.3403
 8445SOL     OW27713   6.766  10.524   6.260  0.2919  0.3431 -0.1616
 8445SOL    HW127714   6.708  10.522   6.185 -1.0736  0.8582  0.8357
 8445SOL    HW227715   6.814  10.607   6.251  1.0458 -0.1726 -1.0844
 8446SOL     OW27716   5.415   6.190   3.586 -0.1129  0.2745 -0.1665
 8446SOL    HW127717   5.395   6.134   3.511  0.2684 -0.6017  0.3717
 8446SOL    HW227718   5.441   6.129   3.655 -0.8201  1.0367  0.8043
 8447SOL     OW27719   8.475   4.475   4.033 -0.1018  0.8737 -0.1839
 8447SOL    HW127720   8.454   4.527   3.956  0.9329  1.8030  0.1520
 8447SOL    HW227721   8.510   4.393   3.998  1.7468  1.8512 -0.7433
 8448SOL     OW27722   2.693  10.787   9.630 -0.3234  0.3546 -0.3707
 8448SOL    HW127723   2.760  10.782   9.698 -0.0371  1.3483 -0.5745
 8448SOL    HW227724   2.735  10.748   9.553 -0.2135  0.3745 -0.3209
 8449SOL     OW27725   2.597   9.246   7.470  0.0448 -0.2041 -0.4133
 8449SOL    HW127726   2.546   9.241   7.551 -2.4227 -1.4252 -1.9042
 8449SOL    HW227727   2.660   9.174   7.476 -1.3137 -1.4458 -0.2452
 8450SOL     OW27728   1.661   9.787   3.025 -0.1012 -0.0366  0.0266
 8450SOL    HW127729   1.633   9.863   2.973 -0.2585  1.0295  1.6112
 8450SOL    HW227730   1.753   9.805   3.047 -0.5974  0.5305  1.7748
 8451SOL     OW27731   8.233   2.592  10.309 -0.1428 -0.5263  0.0520
 8451SOL    HW127732   8.326   2.578  10.293  0.0291 -0.1288  0.6506
 8451SOL    HW227733   8.201   2.634  10.229  0.8885  2.2538  0.9855
 8452SOL     OW27734   6.146   9.627   0.168 -0.0725  0.8418  0.0344
 8452SOL    HW127735   6.120   9.601   0.256 -3.4776 -1.5642 -1.4651
 8452SOL    HW227736   6.206   9.558   0.140  0.4386  1.2165  0.1943
 8453SOL     OW27737   9.310   2.405   5.432 -0.4690  0.8731 -0.0086
 8453SOL    HW127738   9.254   2.371   5.502  0.0083  0.3619  0.1355
 8453SOL    HW227739   9.392   2.427   5.475  0.4134 -0.9588 -0.6183
 8454SOL     OW27740   0.460   0.313  10.752  0.4909 -0.2340 -0.3494
 8454SOL    HW127741   0.490   0.389  10.702  1.2548 -0.0265  0.4109
 8454SOL    HW227742   0.519   0.308  10.827 -0.4404 -0.7235  0.3805
 8455SOL     OW27743  10.110   6.215   8.927 -0.2790 -0.4309 -0.2452
 8455SOL    HW127744  10.068   6.275   8.989  1.1388 -0.4542  0.7980
 8455SOL    HW227745  10.087   6.250   8.841  0.3044  1.4956  0.3239
 8456SOL     OW27746  10.749  10.634   0.912 -0.2151 -0.4540  0.2145
 8456SOL    HW127747  10.695  10.610   0.836 -0.0896 -1.2622  0.3715
 8456SOL    HW227748  10.831  10.665   0.874  0.1292 -1.5443  0.0109
 8457SOL     OW27749   1.399   7.734   6.028  0.2911 -0.3979  0.4142
 8457SOL    HW127750   1.358   7.813   6.063 -1.6859 -0.7684 -0.8675
 8457SOL    HW227751   1.492   7.754   6.024 -0.2435  2.1816 -0.5855
 8458SOL     OW27752   2.779   3.800   9.651 -0.2157 -0.5826  0.2251
 8458SOL    HW127753   2.833   3.876   9.629  0.6319 -1.1462  0.3069
 8458SOL    HW227754   2.766   3.807   9.745 -0.6284 -0.2299  0.1448
 8459SOL     OW27755   4.646   6.021   0.207  0.4885 -0.0976  0.5950
 8459SOL    HW127756   4.624   6.078   0.281 -0.4668 -0.7069  0.7949
 8459SOL    HW227757   4.627   6.075   0.130 -0.4095 -0.1231  0.7817
 8460SOL     OW27758   9.168   6.754  10.268  0.0935 -0.5580  0.1743
 8460SOL    HW127759   9.121   6.779  10.347 -0.5292 -1.4589  0.0997
 8460SOL    HW227760   9.240   6.699  10.299  0.6914  0.2334  0.2246
 8461SOL     OW27761   0.958   3.115   6.579  0.1175  0.1252 -0.3280
 8461SOL    HW127762   1.013   3.041   6.556  2.7212  1.7895  0.1063
 8461SOL    HW227763   0.989   3.186   6.523 -1.9512  1.0348 -0.3924
 8462SOL     OW27764   3.132   0.654   1.042  0.1246 -0.1940 -0.3617
 8462SOL    HW127765   3.201   0.620   0.986 -0.3138  1.5619 -2.0970
 8462SOL    HW227766   3.065   0.685   0.981  0.1729  3.0239  1.0068
 8463SOL     OW27767   2.794  10.527   5.612 -0.3524 -0.0312 -0.0000
 8463SOL    HW127768   2.848  10.575   5.550 -0.2439  1.7203  1.3700
 8463SOL    HW227769   2.828  10.437   5.609  1.8470  0.7430 -0.0755
 8464SOL     OW27770   5.976   1.187   9.527  0.0291  0.2480  0.2963
 8464SOL    HW127771   5.923   1.183   9.447 -1.5623  1.3142  1.2328
 8464SOL    HW227772   6.021   1.272   9.522  0.5081 -0.0102  0.1911
 8465SOL     OW27773   1.609   4.820   2.845 -0.2252 -0.9138  0.0412
 8465SOL    HW127774   1.660   4.843   2.922 -1.8247 -1.3085  1.2807
 8465SOL    HW227775   1.623   4.726   2.834  0.1292 -0.8290 -0.2706
 8466SOL     OW27776   1.975   1.282   9.484  0.1310 -0.0441 -0.0336
 8466SOL    HW127777   2.013   1.369   9.493  1.1861 -0.6221  1.4913
 8466SOL    HW227778   1.927   1.285   9.401  0.6604  1.7774 -0.3121
 8467SOL     OW27779   7.356   2.469   7.788  0.6363  0.4144  0.5434
 8467SOL    HW127780   7.268   2.435   7.805  0.7465 -0.3470 -0.3749
 8467SOL    HW227781   7.412   2.423   7.851  0.8919 -1.6755 -1.1049
 8468SOL     OW27782   6.808   9.440   6.880 -0.2475  0.0977  0.1189
 8468SOL    HW127783   6.811   9.462   6.973  0.0586  1.5376 -0.2016
 8468SOL    HW227784   6.892   9.472   6.846 -1.4986  2.2749 -1.1695
 8469SOL     OW27785   8.715  10.107   0.090 -0.2505 -0.3086  0.2251
 8469SOL    HW127786   8.646  10.054   0.132 -0.7228 -0.5290 -0.8085
 8469SOL    HW227787   8.675  10.193   0.079  0.1420 -0.0289  0.9128
 8470SOL     OW27788   3.483   3.978   7.327  0.0935 -0.1100 -0.1047
 8470SOL    HW127789   3.550   4.004   7.264 -0.5499  0.6812 -0.4819
 8470SOL    HW227790   3.509   3.890   7.354 -0.2626 -0.9975 -2.3874
 8471SOL     OW27791   1.109   7.829   0.320  0.0442  0.3041  0.1505
 8471SOL    HW127792   1.051   7.843   0.394 -0.0179 -0.0502  0.1708
 8471SOL    HW227793   1.075   7.888   0.252 -0.9189 -0.5706 -0.1539
 8472SOL     OW27794   5.311   4.773   2.453 -0.0149 -0.0963  0.1255
 8472SOL    HW127795   5.248   4.816   2.511 -0.7190  0.0445 -0.7187
 8472SOL    HW227796   5.387   4.757   2.508  0.1105  1.8408  0.5964
 8473SOL     OW27797   6.487   5.280   1.927  0.5403 -0.2329  0.2207
 8473SOL    HW127798   6.489   5.238   1.841  0.5467 -0.1429  0.1772
 8473SOL    HW227799   6.397   5.310   1.938  0.9120  1.2390 -0.4707
 8474SOL     OW27800  10.571  10.664   3.814 -0.0868 -0.2386 -0.5650
 8474SOL    HW127801  10.572  10.759   3.826 -2.1861 -0.2234 -0.1265
 8474SOL    HW227802  10.487  10.635   3.851  0.9891 -2.4313  0.3624
 8475SOL     OW27803   1.776   6.359   0.993 -0.2154  0.2578 -0.5933
 8475SOL    HW127804   1.827   6.290   1.035 -0.2189  0.5993 -0.0152
 8475SOL    HW227805   1.842   6.415   0.952 -0.2714 -0.9682 -2.5166
 8476SOL     OW27806   3.346   1.812   9.947  0.1963  0.0811 -0.5542
 8476SOL    HW127807   3.393   1.733   9.919  0.0937 -0.2742  0.2314
 8476SOL    HW227808   3.360   1.875   9.877  1.4912 -0.1632 -0.5406
 8477SOL     OW27809   7.537   5.560   2.064 -0.5132 -0.4164  0.5293
 8477SOL    HW127810   7.629   5.549   2.041 -0.6190 -0.0998 -0.0731
 8477SOL    HW227811   7.493   5.573   1.980 -1.2054 -1.2574  0.7411
 8478SOL     OW27812   3.805   6.789   9.084  0.4446  0.0223  0.0096
 8478SOL    HW127813   3.739   6.858   9.094  0.7335  0.4573 -0.9827
 8478SOL    HW227814   3.870   6.825   9.024  2.3410  0.1408  1.9804
 8479SOL     OW27815   7.415   5.514   4.171 -0.4518  0.3076 -0.1129
 8479SOL    HW127816   7.328   5.540   4.143 -0.2137  0.0328 -1.1640
 8479SOL    HW227817   7.474   5.557   4.109  0.0329 -1.2172 -0.7703
 8480SOL     OW27818   8.270   9.199   2.494  0.0126 -0.1774 -0.2831
 8480SOL    HW127819   8.260   9.210   2.589  1.0487  1.0087 -0.2763
 8480SOL    HW227820   8.330   9.124   2.485  2.6443  1.7293  0.1837
 8481SOL     OW27821   1.102   6.687   2.755 -0.3754  0.3094  0.2498
 8481SOL    HW127822   1.136   6.609   2.710 -1.0303 -0.7698  1.5711
 8481SOL    HW227823   1.081   6.748   2.684 -1.0792 -1.2110 -0.9082
 8482SOL     OW27824   6.050   5.981   8.663 -0.0120 -0.4571 -0.1870
 8482SOL    HW127825   6.000   5.960   8.584  0.4323 -1.1529 -0.2868
 8482SOL    HW227826   5.990   6.034   8.716 -1.7922 -3.3038  0.8523
 8483SOL     OW27827   6.062   1.297   6.887  0.2488  0.3692 -0.4746
 8483SOL    HW127828   6.126   1.358   6.852 -0.7100  0.1637 -2.8035
 8483SOL    HW227829   5.980   1.347   6.890 -0.7666 -0.8652 -3.2764
 8484SOL     OW27830   3.424   4.183   7.905  0.1208 -0.2460 -0.0334
 8484SOL    HW127831   3.357   4.164   7.839 -0.1356 -0.9035  0.4076
 8484SOL    HW227832   3.496   4.222   7.856 -1.0779  1.6832 -0.3618
 8485SOL     OW27833   4.358   9.192   4.112 -0.2425 -0.0316 -0.7042
 8485SOL    HW127834   4.362   9.287   4.109 -0.7615 -0.0163 -1.1793
 8485SOL    HW227835   4.302   9.168   4.037 -3.5770 -0.4753  1.6959
 8486SOL     OW27836   7.149   6.630   1.165  0.3351  0.3397  0.4289
 8486SOL    HW127837   7.223   6.629   1.225  0.0022 -2.8730  0.9768
 8486SOL    HW227838   7.073   6.607   1.219 -1.0840  3.0526 -0.2109
 8487SOL     OW27839  10.769  10.634  10.609  0.1012 -0.0806  0.4827
 8487SOL    HW127840  10.724  10.677  10.536 -0.7499  0.2069  1.1719
 8487SOL    HW227841  10.726  10.667  10.687  0.6237 -0.8383  1.1035
 8488SOL     OW27842   6.403   2.874   2.955 -0.2458  0.9011  0.6494
 8488SOL    HW127843   6.390   2.931   2.879 -0.2241  1.6190  1.1684
 8488SOL    HW227844   6.480   2.910   2.999  1.1573 -0.9042 -0.2349
 8489SOL     OW27845   4.274   9.294  10.050  0.3745  0.5278 -0.1301
 8489SOL    HW127846   4.272   9.334  10.136  2.8537 -1.2616  0.8828
 8489SOL    HW227847   4.185   9.263  10.035 -0.4026  2.0194  1.1729
 8490SOL     OW27848   8.192   3.741   5.744  0.2042 -0.2017 -0.0526
 8490SOL    HW127849   8.123   3.803   5.719 -0.8417 -1.3336 -0.0544
 8490SOL    HW227850   8.241   3.726   5.663 -1.4872 -1.7496 -0.8698
 8491SOL     OW27851   7.287   0.753   1.299  0.2148  0.5374  0.1403
 8491SOL    HW127852   7.213   0.814   1.302 -0.1739  0.1752 -1.5190
 8491SOL    HW227853   7.308   0.738   1.391  0.2681  3.0922  0.6274
 8492SOL     OW27854   4.095   4.685   7.428  0.1498 -0.0809  0.2765
 8492SOL    HW127855   4.163   4.640   7.478  0.9716 -2.0727 -2.3824
 8492SOL    HW227856   4.044   4.614   7.389 -2.8073  1.3649  1.2115
 8493SOL     OW27857   3.662   2.033  10.662  0.0322 -0.3965 -0.3224
 8493SOL    HW127858   3.637   1.952  10.618 -0.1783 -0.7950  0.5162
 8493SOL    HW227859   3.644   2.101  10.597 -1.9032 -0.8078 -0.2927
 8494SOL     OW27860  10.549   4.535   2.063 -0.0034 -0.2287 -0.3683
 8494SOL    HW127861  10.579   4.473   1.997 -0.3059  0.5476 -1.2663
 8494SOL    HW227862  10.607   4.611   2.052 -0.1036 -0.0647  0.2145
 8495SOL     OW27863   3.497   7.269   1.803  0.7432  0.5168  0.1594
 8495SOL    HW127864   3.516   7.303   1.890  0.3916  0.5197  0.2374
 8495SOL    HW227865   3.506   7.345   1.745  0.0844  0.7242  0.3168
 8496SOL     OW27866  10.482   6.861   5.633  0.1718 -0.4662 -0.0363
 8496SOL    HW127867  10.532   6.793   5.587  0.9863 -0.6217  1.0490
 8496SOL    HW227868  10.495   6.940   5.580  1.2947 -0.5852  0.0237
 8497SOL     OW27869   4.343   2.282   4.544  0.4022 -0.1314 -0.2220
 8497SOL    HW127870   4.285   2.240   4.480 -1.2859  0.5507  0.7819
 8497SOL    HW227871   4.374   2.210   4.599  1.1699 -0.6038 -1.2257
 8498SOL     OW27872   6.424   5.792   9.829 -0.4839  0.0079 -0.0486
 8498SOL    HW127873   6.504   5.766   9.874 -0.5668 -0.5885 -0.2299
 8498SOL    HW227874   6.451   5.805   9.738 -0.7276 -0.9071 -0.2576
 8499SOL     OW27875   8.050   6.508   7.633  0.1113  0.5987  0.1911
 8499SOL    HW127876   8.112   6.440   7.607  1.7115  1.6613  1.0107
 8499SOL    HW227877   8.037   6.494   7.727 -2.8785 -1.0868 -0.3564
 8500SOL     OW27878   5.061   8.874   3.975  0.6432 -0.2864  0.5315
 8500SOL    HW127879   5.057   8.796   3.919 -1.1937  0.2110 -0.0963
 8500SOL    HW227880   4.970   8.888   4.003  0.9558  1.5834  0.7143
 8501SOL     OW27881   6.266  10.713   1.131 -0.1410 -0.3905 -0.6817
 8501SOL    HW127882   6.357  10.728   1.104  0.2450  1.6364  1.4119
 8501SOL    HW227883   6.225  10.799   1.126 -1.8313 -1.1732 -1.0433
 8502SOL     OW27884   2.413   8.144   3.797 -0.2726  0.8582 -0.3023
 8502SOL    HW127885   2.429   8.052   3.775 -0.7380  0.6924  0.0510
 8502SOL    HW227886   2.421   8.147   3.893  1.6944  1.5610 -0.4422
 8503SOL     OW27887   3.191  10.801   2.302  0.3333  0.5013 -0.6917
 8503SOL    HW127888   3.172  10.870   2.365 -1.3018  0.0764 -0.6763
 8503SOL    HW227889   3.226  10.848   2.226  0.1776  1.2436 -0.3178
 8504SOL     OW27890   4.210   2.148   8.566  0.2941  0.0921  0.3069
 8504SOL    HW127891   4.158   2.177   8.642  1.2445  1.7924  0.3451
 8504SOL    HW227892   4.243   2.062   8.592 -1.0018 -0.2259  1.0111
 8505SOL     OW27893   5.503   1.722   4.219  0.2080  0.3673 -0.3638
 8505SOL    HW127894   5.548   1.723   4.135 -0.3335 -0.2829 -0.6636
 8505SOL    HW227895   5.429   1.782   4.208 -0.1635 -0.1167 -0.5211
 8506SOL     OW27896   3.193   4.705  10.548  0.4517  0.3655  0.1695
 8506SOL    HW127897   3.104   4.677  10.526  0.6316 -0.7413  0.7695
 8506SOL    HW227898   3.217   4.652  10.624  1.7554  0.3765 -0.2080
 8507SOL     OW27899   6.261   0.760   4.044  0.1580  0.0217 -0.1135
 8507SOL    HW127900   6.190   0.821   4.025  0.1608  0.9094  2.4461
 8507SOL    HW227901   6.328   0.813   4.087 -0.2674 -1.8549  3.1740
 8508SOL     OW27902   4.429   5.394   8.992 -0.3035  0.2492  0.6450
 8508SOL    HW127903   4.503   5.394   9.053  0.5685 -0.6773 -0.3624
 8508SOL    HW227904   4.468   5.421   8.908 -1.3014  0.6448  0.2944
 8509SOL     OW27905   4.696   7.619  10.752  0.1015  0.5218 -0.1132
 8509SOL    HW127906   4.721   7.676  10.825 -1.0136 -1.1113  1.6451
 8509SOL    HW227907   4.617   7.574  10.783 -1.6847  1.2870 -3.1845
 8510SOL     OW27908   5.662  10.540   4.669  0.3161 -0.1888 -0.5853
 8510SOL    HW127909   5.681  10.457   4.626 -1.6152 -0.5597 -0.7840
 8510SOL    HW227910   5.705  10.532   4.755 -1.9396 -2.5218  0.4655
 8511SOL     OW27911   5.627   1.329   0.022 -0.4849  0.0793  0.3692
 8511SOL    HW127912   5.643   1.403  -0.036  1.2307 -0.0525  0.6371
 8511SOL    HW227913   5.534   1.337   0.045 -0.6070  1.4899 -0.4939
 8512SOL     OW27914   4.677   5.208   0.187 -0.1946  0.3338 -0.4355
 8512SOL    HW127915   4.636   5.221   0.101  1.0493  0.3456 -1.0393
 8512SOL    HW227916   4.691   5.297   0.220  2.0906  0.4616 -1.5806
 8513SOL     OW27917   1.710   8.287   6.917  0.6044 -0.1680 -0.4849
 8513SOL    HW127918   1.694   8.350   6.846 -0.1504  0.0393 -0.1412
 8513SOL    HW227919   1.805   8.284   6.924  0.6703  0.4649 -0.9284
 8514SOL     OW27920   8.272   3.753   9.852 -0.5058 -0.4706  0.3181
 8514SOL    HW127921   8.330   3.792   9.917 -0.5441  0.7415 -0.3337
 8514SOL    HW227922   8.272   3.816   9.779 -3.5945  0.2393  0.7905
 8515SOL     OW27923   3.747   7.708   7.368  0.7000 -0.3156  0.2075
 8515SOL    HW127924   3.717   7.790   7.330  1.2420  0.3168  1.1079
 8515SOL    HW227925   3.812   7.675   7.306  1.6454  0.7548  0.5922
 8516SOL     OW27926   7.156   0.698   9.758  0.2242  0.3405  0.0503
 8516SOL    HW127927   7.091   0.643   9.801  1.3231 -0.5918  0.5753
 8516SOL    HW227928   7.182   0.762   9.824  1.4693 -0.7123  0.6198
 8517SOL     OW27929   5.401  10.582   3.468 -0.3675 -0.0444  0.2511
 8517SOL    HW127930   5.457  10.604   3.393 -0.1943  4.2405  1.3992
 8517SOL    HW227931   5.312  10.603   3.438 -0.3617  1.1177  1.0013
 8518SOL     OW27932   3.167   0.316   0.219  0.1245  0.8840 -0.1576
 8518SOL    HW127933   3.260   0.339   0.216  0.1867  0.5391 -1.1341
 8518SOL    HW227934   3.160   0.234   0.171 -0.4904  0.1737  1.0976
 8519SOL     OW27935   1.442   8.290   5.056  0.2752 -0.4399 -0.1603
 8519SOL    HW127936   1.361   8.336   5.077  1.0796  0.8805  0.2128
 8519SOL    HW227937   1.439   8.210   5.108 -0.8489 -0.4731 -0.2708
 8520SOL     OW27938   2.756   6.363   7.068  0.3196 -0.0112 -0.1289
 8520SOL    HW127939   2.742   6.440   7.124  0.1020 -0.6694  0.7392
 8520SOL    HW227940   2.727   6.392   6.981 -0.9573  0.5059  0.4382
 8521SOL     OW27941   1.283   1.477   5.000 -0.7214 -0.4022 -0.2677
 8521SOL    HW127942   1.310   1.491   4.909 -1.5207  1.6700 -0.2399
 8521SOL    HW227943   1.200   1.429   4.994  0.2222 -2.0842 -0.5167
 8522SOL     OW27944   5.367   9.210   3.633  0.2176 -0.2442  0.3235
 8522SOL    HW127945   5.456   9.244   3.623 -0.1507  0.3297 -1.5658
 8522SOL    HW227946   5.324   9.232   3.550 -1.6029 -0.7655  1.0734
 8523SOL     OW27947   3.167   9.644   1.302  0.3841  0.0781 -0.1531
 8523SOL    HW127948   3.226   9.716   1.320 -0.9903  1.4095 -0.7555
 8523SOL    HW227949   3.084   9.686   1.280 -0.0208 -1.6433 -2.1914
 8524SOL     OW27950   8.003   0.305  10.095  0.1081  0.3021  0.1633
 8524SOL    HW127951   8.009   0.393  10.057 -1.3747  1.2316  1.9165
 8524SOL    HW227952   8.042   0.248  10.029 -2.0638  1.8025 -2.6708
 8525SOL     OW27953   1.836   8.239   8.079  0.3107 -0.4139  0.4413
 8525SOL    HW127954   1.831   8.328   8.045  0.1948 -1.0498 -1.2959
 8525SOL    HW227955   1.745   8.212   8.092  0.3589 -0.0322  1.7307
 8526SOL     OW27956   5.333   8.906   3.930 -0.5600  0.5309  0.1798
 8526SOL    HW127957   5.326   8.938   3.840 -2.3324 -2.1955 -0.7546
 8526SOL    HW227958   5.244   8.911   3.964 -0.3069 -0.5133  1.0279
 8527SOL     OW27959  10.509   3.109   0.504  0.4410 -0.4343 -0.2415
 8527SOL    HW127960  10.415   3.096   0.498  0.4554 -0.0482 -1.6920
 8527SOL    HW227961  10.521   3.204   0.492  1.0401 -0.5284 -0.4365
 8528SOL     OW27962   5.917   1.831   6.455  0.0239 -0.3758 -0.0695
 8528SOL    HW127963   5.828   1.799   6.473 -0.0364  1.3421  3.5766
 8528SOL    HW227964   5.910   1.926   6.459  2.1634 -0.2145  1.1523
 8529SOL     OW27965   9.543   6.957   1.887  0.1259 -0.2623 -0.3125
 8529SOL    HW127966   9.480   6.902   1.933  0.1313  0.2432  0.3194
 8529SOL    HW227967   9.490   7.012   1.830 -0.0402  0.3189  0.3842
 8530SOL     OW27968   7.463   0.926   3.281  0.2954 -0.2929  0.3569
 8530SOL    HW127969   7.443   0.862   3.213 -0.5368  2.1556 -1.8647
 8530SOL    HW227970   7.393   0.914   3.346 -2.0500  0.6737 -1.8196
 8531SOL     OW27971  10.096   6.045  10.102 -0.0689  0.1364 -0.0054
 8531SOL    HW127972  10.111   6.075  10.191  0.5548 -0.1465 -0.0065
 8531SOL    HW227973  10.084   6.125  10.051  2.6368  0.5345 -0.2061
 8532SOL     OW27974   3.413   6.948   8.427  0.0881  0.3123 -0.6637
 8532SOL    HW127975   3.453   6.885   8.487  1.9301  1.7698 -0.2223
 8532SOL    HW227976   3.323   6.918   8.415  0.8161 -2.2193 -0.3102
 8533SOL     OW27977   4.812   8.853   4.047 -0.9573  0.2140 -0.1119
 8533SOL    HW127978   4.802   8.776   3.992 -0.4042 -0.2202  0.3869
 8533SOL    HW227979   4.751   8.839   4.120  1.5095 -1.4236  1.8009
 8534SOL     OW27980   0.765   7.026   6.965  0.4245  0.1130  0.2896
 8534SOL    HW127981   0.751   7.040   7.059  0.7406  1.3056  0.1771
 8534SOL    HW227982   0.691   7.070   6.924  1.0149  0.7893 -0.0643
 8535SOL     OW27983   4.101   7.181   8.316 -0.0069 -0.3205  0.1494
 8535SOL    HW127984   4.156   7.143   8.248 -1.1591 -1.5192 -0.1277
 8535SOL    HW227985   4.063   7.259   8.276  0.0491 -0.5040 -0.2551
 8536SOL     OW27986  10.219   4.980   7.078 -0.1841 -0.4855 -0.6306
 8536SOL    HW127987  10.176   5.040   7.018 -2.1312 -0.4332  0.7234
 8536SOL    HW227988  10.203   5.017   7.165  2.6945 -0.4660 -0.0154
 8537SOL     OW27989   4.572  10.588   7.051 -0.2132 -0.3626  0.0193
 8537SOL    HW127990   4.531  10.604   7.136  0.8331 -0.9191  0.6529
 8537SOL    HW227991   4.577  10.492   7.045  0.0971 -0.3173 -0.4798
 8538SOL     OW27992   2.136   6.696   4.021 -0.2718  0.3272  0.0572
 8538SOL    HW127993   2.055   6.704   4.071 -0.9799 -0.6880 -0.8709
 8538SOL    HW227994   2.204   6.684   4.087 -1.4220 -2.9993  0.8208
 8539SOL     OW27995   0.602   4.111   7.892  0.1891  0.1328  0.4577
 8539SOL    HW127996   0.604   4.121   7.987 -3.0616  0.6030  0.5977
 8539SOL    HW227997   0.625   4.198   7.859  0.2946  0.2630  0.8626
 8540SOL     OW27998   1.887   7.018   9.529  0.2174  0.0061 -0.0689
 8540SOL    HW127999   1.890   7.051   9.619  0.1729 -1.2201  0.3947
 8540SOL    HW228000   1.927   7.088   9.477  0.7709  0.4856  0.9694
 8541SOL     OW28001   9.603  10.570   9.689  0.6735  0.6290  0.1339
 8541SOL    HW128002   9.685  10.605   9.654 -0.4049  1.7291 -1.4233
 8541SOL    HW228003   9.605  10.477   9.665  1.2808  0.7415 -0.2884
 8542SOL     OW28004   9.201   3.350   7.943  0.4325 -0.3102 -0.1800
 8542SOL    HW128005   9.194   3.263   7.981 -1.0526 -0.3537 -0.4709
 8542SOL    HW228006   9.211   3.334   7.849  0.5021 -0.1752 -0.1953
 8543SOL     OW28007  10.458   5.529   6.883  0.3404  0.1695  1.0189
 8543SOL    HW128008  10.446   5.624   6.884  0.3845  0.1777  0.8665
 8543SOL    HW228009  10.379   5.494   6.924 -0.7350  0.1703 -0.9326
 8544SOL     OW28010   1.937   2.899   1.085  0.5647  0.0041 -0.4156
 8544SOL    HW128011   1.992   2.856   1.019 -0.1986 -0.2686 -0.8864
 8544SOL    HW228012   1.849   2.896   1.048  0.2162  0.3546  0.3709
 8545SOL     OW28013  10.634  10.304   9.393  0.1672 -0.0643 -0.1968
 8545SOL    HW128014  10.559  10.269   9.440  0.0930  0.6498  0.2273
 8545SOL    HW228015  10.709  10.255   9.426 -0.1512 -1.0941 -0.9486
 8546SOL     OW28016   7.388   9.521   6.653  0.2967 -0.7442 -0.4995
 8546SOL    HW128017   7.396   9.558   6.565  2.7752 -0.0868 -0.0641
 8546SOL    HW228018   7.333   9.585   6.700  1.1028  0.2682 -0.8905
 8547SOL     OW28019   4.951   4.094   1.136  0.6588 -0.2329  0.0992
 8547SOL    HW128020   5.027   4.109   1.193  0.8470 -1.5237  0.2181
 8547SOL    HW228021   4.878   4.134   1.183  0.9644 -0.5418  0.8588
 8548SOL     OW28022  10.343   0.037   0.412 -0.3737 -0.2000  0.2921
 8548SOL    HW128023  10.388   0.045   0.496 -0.0561  0.0858  0.0991
 8548SOL    HW228024  10.392  -0.031   0.365 -0.1400  0.1040  0.0865
 8549SOL     OW28025   0.747   7.227   0.772  0.1868 -0.0744 -0.0771
 8549SOL    HW128026   0.782   7.192   0.690  0.7502  0.5034 -0.0886
 8549SOL    HW228027   0.765   7.320   0.768 -0.3343  0.0542  0.4369
 8550SOL     OW28028   1.517   1.529  10.415  0.1427  0.0199 -0.4710
 8550SOL    HW128029   1.593   1.495  10.369  0.8271  0.5705  0.2306
 8550SOL    HW228030   1.550   1.555  10.501 -1.0674 -0.7946  0.2650
 8551SOL     OW28031   5.251   7.719   7.842 -0.0893  0.3326  0.1232
 8551SOL    HW128032   5.198   7.679   7.773 -2.2787  0.8580  1.4164
 8551SOL    HW228033   5.223   7.810   7.845 -0.6174  0.1477  2.1992
 8552SOL     OW28034   6.357   1.442  10.360 -0.1654 -0.2776  0.6914
 8552SOL    HW128035   6.406   1.513  10.319 -0.1815 -0.2529  0.7157
 8552SOL    HW228036   6.374   1.452  10.454 -1.2121  0.4731  0.8121
 8553SOL     OW28037   5.157   8.206   2.657 -0.6089 -0.2883 -0.3254
 8553SOL    HW128038   5.184   8.132   2.603  0.1439 -1.0544  1.0406
 8553SOL    HW228039   5.236   8.259   2.667 -0.5056 -0.6157  0.7100
 8554SOL     OW28040   8.480   9.436   7.321  0.2793  0.3670  0.1704
 8554SOL    HW128041   8.511   9.435   7.411  1.6241  0.4805 -0.2656
 8554SOL    HW228042   8.529   9.507   7.280 -0.0990  0.1205 -0.7306
 8555SOL     OW28043   2.660   2.884   8.675  0.1579  0.3064  0.4177
 8555SOL    HW128044   2.577   2.865   8.632  0.0938  1.0316  0.2079
 8555SOL    HW228045   2.666   2.819   8.745  0.3354 -0.9733 -0.7609
 8556SOL     OW28046   5.854   5.895   8.485 -0.2600 -0.1865 -0.0438
 8556SOL    HW128047   5.845   5.824   8.549 -1.6144 -0.5046 -0.5534
 8556SOL    HW228048   5.775   5.948   8.497  0.0467  0.4198 -0.6540
 8557SOL     OW28049   7.821  10.636   4.613 -0.7962  0.6057  0.1067
 8557SOL    HW128050   7.892  10.585   4.652  0.7688  0.7810 -2.3283
 8557SOL    HW228051   7.783  10.683   4.687  1.5962  0.4603  1.5444
 8558SOL     OW28052   6.408   1.453   3.235  0.1223  0.5219 -0.0181
 8558SOL    HW128053   6.368   1.462   3.322  2.1258  1.2576  0.8940
 8558SOL    HW228054   6.470   1.526   3.231  3.9793 -2.4877  0.1659
 8559SOL     OW28055   4.977   4.084   7.244 -0.7059 -0.0542 -0.0382
 8559SOL    HW128056   4.969   4.134   7.162  0.7922  0.2844 -0.0002
 8559SOL    HW228057   5.030   4.139   7.301  0.2006 -1.2874  0.3383
 8560SOL     OW28058   4.981   2.427   9.022  0.4493 -0.1412 -0.0425
 8560SOL    HW128059   4.885   2.435   9.026  0.1414 -2.1154 -1.6114
 8560SOL    HW228060   5.010   2.513   8.991 -0.9233  0.2175 -0.4532
 8561SOL     OW28061   1.137   7.783   3.879 -0.8411 -0.4539 -0.4370
 8561SOL    HW128062   1.049   7.819   3.887 -0.6889  0.2960 -1.7779
 8561SOL    HW228063   1.132   7.724   3.804 -0.1470 -0.2219 -0.6694
 8562SOL     OW28064   8.842   8.645   0.192  0.4001 -0.1188  0.6130
 8562SOL    HW128065   8.777   8.715   0.195  1.0311  0.4490  1.9450
 8562SOL    HW228066   8.912   8.680   0.138 -0.3857 -0.7495 -0.8631
 8563SOL     OW28067   9.379  10.027   2.096  0.0531 -0.1604  0.4990
 8563SOL    HW128068   9.387   9.953   2.156  1.1241  0.4736  1.1648
 8563SOL    HW228069   9.460  10.076   2.107  0.4595 -0.2134 -1.7441
 8564SOL     OW28070   8.100   2.745   8.159  0.2098 -0.0012  0.0040
 8564SOL    HW128071   8.136   2.667   8.200  0.1513 -0.5395 -0.9403
 8564SOL    HW228072   8.075   2.717   8.071 -1.0137  0.7542  0.0769
 8565SOL     OW28073   8.993   6.740  10.063  0.2043 -0.5239 -1.0622
 8565SOL    HW128074   8.973   6.650  10.035 -0.1300 -0.1399 -2.0913
 8565SOL    HW228075   9.033   6.729  10.149  0.5140 -1.6912 -1.3306
 8566SOL     OW28076   8.594   1.222   9.410  0.1744 -0.1745 -0.1387
 8566SOL    HW128077   8.647   1.145   9.432  0.9193  0.0269 -1.1604
 8566SOL    HW228078   8.589   1.272   9.492  1.7874 -0.0803 -0.0547
 8567SOL     OW28079   9.162   7.094  10.194 -0.2831  0.0023 -0.0321
 8567SOL    HW128080   9.165   7.019  10.135  0.5233  1.0444 -1.3924
 8567SOL    HW228081   9.218   7.070  10.267 -0.3337 -0.8574 -0.2636
 8568SOL     OW28082  10.670   6.715   6.534 -0.0853  0.0279 -0.4730
 8568SOL    HW128083  10.647   6.635   6.581 -2.4383 -0.1840 -1.8485
 8568SOL    HW228084  10.754   6.694   6.492  0.6765 -0.7207  1.3185
 8569SOL     OW28085   4.165  10.759  10.730  0.0109  0.5626 -0.6694
 8569SOL    HW128086   4.188  10.679  10.683  1.4547 -0.3090  1.4051
 8569SOL    HW228087   4.121  10.813  10.664  0.0819 -1.4091 -2.4488
 8570SOL     OW28088   6.628   6.802   2.181  0.2584  0.1668  0.1337
 8570SOL    HW128089   6.532   6.808   2.187  0.1505 -1.4959  0.5018
 8570SOL    HW228090   6.647   6.813   2.088 -0.5477 -2.0879 -0.3569
 8571SOL     OW28091   9.117   7.751   6.788 -0.1291  0.4612  0.6396
 8571SOL    HW128092   9.125   7.838   6.749  0.6224 -0.6595 -1.9444
 8571SOL    HW228093   9.027   7.746   6.819  0.3838  2.8467  2.8063
 8572SOL     OW28094   8.931   4.308   2.949  0.4421 -0.1380 -0.4388
 8572SOL    HW128095   8.887   4.305   3.034  2.1035 -0.0082  0.4743
 8572SOL    HW228096   9.023   4.328   2.970  1.1897 -1.4897 -2.1665
 8573SOL     OW28097   7.462   3.791   4.832 -0.0667  0.1382  0.4422
 8573SOL    HW128098   7.374   3.818   4.806 -0.1528 -1.5831 -1.3592
 8573SOL    HW228099   7.513   3.796   4.751  0.6216 -2.0469  0.6729
 8574SOL     OW28100   8.886   1.331   2.564  0.1384  0.9702  0.1935
 8574SOL    HW128101   8.971   1.322   2.605 -0.7924  0.6523  2.1603
 8574SOL    HW228102   8.825   1.346   2.637 -1.6585 -0.0371 -1.0168
 8575SOL     OW28103   7.856   7.792   1.472 -0.3799 -0.2207 -0.0041
 8575SOL    HW128104   7.773   7.795   1.425 -0.0926  1.0303 -0.4931
 8575SOL    HW228105   7.921   7.768   1.406  0.1898  2.5751 -0.6137
 8576SOL     OW28106  10.731   3.547   4.361 -0.2154 -0.1544  0.4645
 8576SOL    HW128107  10.684   3.518   4.439 -0.2863 -0.9104  0.1558
 8576SOL    HW228108  10.663   3.557   4.294 -0.4170  2.2482  0.9403
 8577SOL     OW28109   6.146   2.590   4.728 -0.3555  0.0909 -0.8118
 8577SOL    HW128110   6.078   2.553   4.784 -2.3912  1.8442 -1.9664
 8577SOL    HW228111   6.103   2.603   4.644  1.6803  0.5112 -1.8330
 8578SOL     OW28112   7.287  10.717   8.162 -0.2645 -0.0014 -0.6230
 8578SOL    HW128113   7.213  10.657   8.163 -1.4195  1.3637 -0.5853
 8578SOL    HW228114   7.339  10.690   8.087 -1.5533 -0.1299 -1.5045
 8579SOL     OW28115   3.523   7.921   6.494 -0.4721 -0.3995  0.9097
 8579SOL    HW128116   3.442   7.954   6.454 -0.8100  0.2635  2.0885
 8579SOL    HW228117   3.564   7.999   6.531  2.0864 -0.2372 -1.9006
 8580SOL     OW28118   8.087  10.506   3.211 -0.3546 -0.9278  0.0684
 8580SOL    HW128119   8.104  10.593   3.246 -2.1610  0.0214 -1.2614
 8580SOL    HW228120   8.172  10.476   3.179  0.7339 -0.6184  2.5094
 8581SOL     OW28121  10.311   9.632   2.078 -0.7396  0.5255  0.2321
 8581SOL    HW128122  10.296   9.622   2.172 -1.8928 -0.0060  0.0114
 8581SOL    HW228123  10.242   9.691   2.049  0.5661  1.9949 -0.0432
 8582SOL     OW28124   3.491   4.837   0.582 -0.1378 -0.1092 -0.5092
 8582SOL    HW128125   3.563   4.782   0.613 -0.1190 -0.6296 -1.4112
 8582SOL    HW228126   3.494   4.827   0.486 -2.5360 -1.6439 -0.5077
 8583SOL     OW28127   2.438   6.290   7.874 -0.4344 -0.0892 -0.3559
 8583SOL    HW128128   2.367   6.350   7.895 -0.0494  0.6317 -1.0718
 8583SOL    HW228129   2.408   6.205   7.908 -1.6525  0.1828 -0.7049
 8584SOL     OW28130   7.723   4.304   4.062  0.3956  0.6237  0.2342
 8584SOL    HW128131   7.628   4.314   4.064  0.4788  1.4240  0.4280
 8584SOL    HW228132   7.741   4.230   4.121 -0.1193  0.3363  0.0321
 8585SOL     OW28133   2.089   6.015  10.470  0.2254  0.1381 -0.2049
 8585SOL    HW128134   2.019   6.073  10.500  0.4309 -0.4647  1.5530
 8585SOL    HW228135   2.125   6.059  10.393 -2.2552  0.3145 -1.3610
 8586SOL     OW28136   5.488   2.896   5.472  0.2796  0.4725  0.0179
 8586SOL    HW128137   5.458   2.857   5.554 -0.2479  1.6247  0.3934
 8586SOL    HW228138   5.413   2.892   5.414  0.8856 -1.0704 -0.7144
 8587SOL     OW28139   0.791   0.230   5.981  0.3060  0.2629 -0.1692
 8587SOL    HW128140   0.723   0.195   6.039  0.2945 -0.9880 -0.8814
 8587SOL    HW228141   0.872   0.190   6.012  0.9219  2.4478  1.2430
 8588SOL     OW28142   4.368   1.209   1.638 -0.1498 -0.4050  0.0803
 8588SOL    HW128143   4.444   1.161   1.670  0.0517 -0.6262 -0.7214
 8588SOL    HW228144   4.342   1.265   1.712  1.2478  0.2423  0.1032
 8589SOL     OW28145   4.797   2.533   6.251 -0.7350 -0.5304  0.0390
 8589SOL    HW128146   4.760   2.447   6.272 -0.1970 -0.7359  0.1585
 8589SOL    HW228147   4.871   2.543   6.310 -0.0010 -0.5508 -0.8484
 8590SOL     OW28148   2.778   4.999   8.727 -0.5089 -0.0584 -0.3016
 8590SOL    HW128149   2.758   4.922   8.780 -0.1355 -0.2215 -0.3903
 8590SOL    HW228150   2.747   5.073   8.779  2.4837  0.0590  1.6064
 8591SOL     OW28151  10.355   9.996   5.694 -0.1368  0.6542  0.3892
 8591SOL    HW128152  10.419  10.062   5.721  1.1908 -1.0352  1.5898
 8591SOL    HW228153  10.360   9.929   5.763 -1.6525 -0.5456 -0.6234
 8592SOL     OW28154   5.170   6.411   6.983  0.0359  0.2303 -0.1910
 8592SOL    HW128155   5.225   6.489   6.981 -0.1771  0.3791 -1.8546
 8592SOL    HW228156   5.193   6.367   7.065  0.2825  1.9396  0.7089
 8593SOL     OW28157   1.434   3.658  10.102  0.3507 -0.5902 -0.3240
 8593SOL    HW128158   1.508   3.611  10.062  0.2985 -0.6571 -0.3415
 8593SOL    HW228159   1.417   3.610  10.183  1.0640  0.0999  0.2495
 8594SOL     OW28160   2.407   6.016   7.974  0.0273  0.2273 -0.4565
 8594SOL    HW128161   2.455   5.990   8.053 -0.2753  0.9124 -0.0405
 8594SOL    HW228162   2.469   6.002   7.902  0.0902 -1.0362 -0.1862
 8595SOL     OW28163   9.079   7.054   0.550  0.4461 -0.4007 -0.0518
 8595SOL    HW128164   9.074   7.121   0.481  0.4941  1.3977  1.5898
 8595SOL    HW228165   9.027   6.981   0.516  0.4358  0.4300 -1.9621
 8596SOL     OW28166   0.995  10.226  10.721 -0.0690 -0.1673  0.1124
 8596SOL    HW128167   1.076  10.239  10.673  2.3286 -1.5469  3.4116
 8596SOL    HW228168   0.986  10.305  10.775 -0.5162 -0.3347  0.2891
 8597SOL     OW28169   1.882   4.065   6.149 -0.8073  0.4255 -0.6207
 8597SOL    HW128170   1.867   4.005   6.222  1.0860  0.4225 -0.1921
 8597SOL    HW228171   1.830   4.143   6.170 -0.3021  0.4096  0.7357
 8598SOL     OW28172   6.630   3.169   0.866  0.6004  0.1248  0.2333
 8598SOL    HW128173   6.559   3.135   0.921 -0.1894 -1.3041 -1.5408
 8598SOL    HW228174   6.709   3.127   0.900 -0.2401 -3.1051 -1.3592
 8599SOL     OW28175  10.405   1.640   3.520 -0.6307 -0.0726  0.4539
 8599SOL    HW128176  10.382   1.592   3.441 -0.4806  0.5544  0.0167
 8599SOL    HW228177  10.478   1.592   3.558 -1.4657 -1.0526  0.8665
 8600SOL     OW28178   5.934   4.156   4.741 -0.3943 -0.1370  0.2931
 8600SOL    HW128179   6.007   4.219   4.737 -1.0731  0.5827 -2.4456
 8600SOL    HW228180   5.856   4.211   4.743 -0.9325 -0.9178  1.2760
 8601SOL     OW28181   0.516   0.933   8.727 -0.4347  0.4560  0.0123
 8601SOL    HW128182   0.582   0.941   8.658 -1.2621  3.3788 -0.5449
 8601SOL    HW228183   0.567   0.917   8.807  0.8825  1.5575 -0.5717
 8602SOL     OW28184   3.677   3.917   4.445 -0.6528  0.0955 -0.4586
 8602SOL    HW128185   3.764   3.879   4.458 -1.1169 -0.2119  2.3488
 8602SOL    HW228186   3.692   4.012   4.444 -0.1743  0.0225 -1.2627
 8603SOL     OW28187   2.879  10.057   9.971  0.0620  0.3025 -0.0476
 8603SOL    HW128188   2.812  10.015  10.024 -1.2086  1.7585 -0.4333
 8603SOL    HW228189   2.947  10.083  10.033  0.0832 -0.8106  0.4076
 8604SOL     OW28190   8.510   5.875   2.123  0.0168  0.0329 -0.0642
 8604SOL    HW128191   8.573   5.940   2.092  0.1702 -0.6264 -1.1910
 8604SOL    HW228192   8.463   5.919   2.194  0.7962  1.0157 -0.1315
 8605SOL     OW28193   3.818   9.370   0.816  0.1096  0.6087  0.2046
 8605SOL    HW128194   3.724   9.388   0.812  0.0884  0.5855  0.5431
 8605SOL    HW228195   3.844   9.396   0.904  0.3624  0.3353  0.2141
 8606SOL     OW28196   6.660   6.370   4.122 -0.4343  0.3832 -0.0878
 8606SOL    HW128197   6.663   6.320   4.203 -1.7510  2.4821  1.3587
 8606SOL    HW228198   6.630   6.307   4.056 -0.7529 -1.0410  1.3406
 8607SOL     OW28199   1.619   9.651   0.538  0.0364 -0.1949 -0.5423
 8607SOL    HW128200   1.529   9.680   0.535 -0.1469 -0.5553  0.8041
 8607SOL    HW228201   1.629   9.611   0.624  0.9416 -1.8965 -1.3817
 8608SOL     OW28202   3.340   8.050   5.410  0.1161  0.2807  0.1255
 8608SOL    HW128203   3.271   7.988   5.389 -0.2295  0.4368  0.7738
 8608SOL    HW228204   3.388   8.010   5.483  3.1786 -1.6795 -2.6509
 8609SOL     OW28205   1.023   6.871   4.106 -0.0274  0.2601  0.3547
 8609SOL    HW128206   0.983   6.810   4.167 -0.2598  0.7058  0.6526
 8609SOL    HW228207   0.976   6.858   4.024  1.1631 -1.2960 -0.1410
 8610SOL     OW28208  10.438   7.545   6.000 -0.3717  0.1848  0.0574
 8610SOL    HW128209  10.474   7.604   6.066  1.0808 -0.2561 -0.3151
 8610SOL    HW228210  10.473   7.459   6.023  2.9826  0.4692 -3.0920
 8611SOL     OW28211   7.210   0.851   3.369  0.0437  0.0658  0.2128
 8611SOL    HW128212   7.182   0.770   3.326 -0.0755  0.3481 -0.2597
 8611SOL    HW228213   7.193   0.837   3.462  2.2487 -1.3720  0.4755
 8612SOL     OW28214  10.118   3.600   9.087  0.0640 -0.1864  0.1884
 8612SOL    HW128215  10.153   3.672   9.139  1.9950 -2.1215  1.7672
 8612SOL    HW228216  10.060   3.553   9.147  0.0035 -0.7916 -0.3353
 8613SOL     OW28217   1.369   3.059   2.953 -0.1665 -0.1839 -0.0991
 8613SOL    HW128218   1.280   3.060   2.989  0.0270  0.3357  0.3882
 8613SOL    HW228219   1.426   3.055   3.030  0.2311 -0.3672 -0.4012
 8614SOL     OW28220   9.393   1.059   4.422  0.2417  0.1990 -0.1956
 8614SOL    HW128221   9.360   1.036   4.335 -0.5412 -3.5403  0.8805
 8614SOL    HW228222   9.488   1.052   4.415  0.1664 -0.3897 -0.6974
 8615SOL     OW28223   7.213   3.278  10.737  0.0013  0.1564 -0.0427
 8615SOL    HW128224   7.254   3.357  10.700  0.9209  0.3085  1.2460
 8615SOL    HW228225   7.231   3.210  10.672  0.6301  0.6446 -0.3958
 8616SOL     OW28226   7.533   6.598   6.915 -0.3215 -0.1090 -0.4208
 8616SOL    HW128227   7.539   6.690   6.888 -2.5048  0.3475  0.3782
 8616SOL    HW228228   7.478   6.558   6.848 -0.0898 -0.6258 -0.3016
 8617SOL     OW28229   8.134   0.423   2.815 -0.1141 -0.4808 -0.1730
 8617SOL    HW128230   8.127   0.442   2.909  1.6407 -0.6515  0.0220
 8617SOL    HW228231   8.169   0.334   2.812  1.1410  0.0118 -0.9539
 8618SOL     OW28232   0.987   7.335   6.675 -0.0538  0.2022  0.0412
 8618SOL    HW128233   0.944   7.286   6.745  0.0002  0.6198  0.3705
 8618SOL    HW228234   1.052   7.389   6.720 -0.3470  0.8322 -0.2826
 8619SOL     OW28235   7.923   5.288   8.176 -0.6234 -0.5229  0.3698
 8619SOL    HW128236   7.916   5.291   8.080  1.9719 -1.5099  0.0563
 8619SOL    HW228237   7.903   5.197   8.198  0.0880 -0.6352  0.5861
 8620SOL     OW28238   9.960   7.891   9.590  0.4720 -0.1875  0.0606
 8620SOL    HW128239   9.876   7.927   9.561  1.4179  2.2829  0.1342
 8620SOL    HW228240  10.025   7.934   9.534  1.7232 -1.9755  0.0597
 8621SOL     OW28241   4.852   7.250   4.818  0.0667  0.2418  0.1015
 8621SOL    HW128242   4.855   7.321   4.754 -0.1582  0.3799  0.2392
 8621SOL    HW228243   4.848   7.170   4.766 -1.0158  0.3918 -0.0680
 8622SOL     OW28244   0.555   7.976   4.027  0.4169 -0.2369 -0.1274
 8622SOL    HW128245   0.605   7.910   4.075 -2.2431 -1.8770  0.6002
 8622SOL    HW228246   0.569   7.954   3.935  2.2736  0.3890 -0.0461
 8623SOL     OW28247   6.289   3.189  10.263 -0.0676 -0.3690 -0.3752
 8623SOL    HW128248   6.294   3.263  10.323  3.2119 -0.5219 -0.2932
 8623SOL    HW228249   6.303   3.227  10.176 -4.1829 -0.2354 -1.1934
 8624SOL     OW28250   5.351   9.178   2.580 -0.1683 -0.5512 -0.6963
 8624SOL    HW128251   5.258   9.190   2.597  0.2467  0.8850  0.8547
 8624SOL    HW228252   5.391   9.173   2.668  1.2858 -0.4618 -1.3190
 8625SOL     OW28253   0.863   4.997   2.291  0.4619 -0.3885  0.4721
 8625SOL    HW128254   0.831   4.980   2.203  1.6799  0.4223 -0.1550
 8625SOL    HW228255   0.797   4.959   2.349 -0.6693 -0.3612 -0.7743
 8626SOL     OW28256   3.470   8.136  10.105  0.4596 -0.2358 -0.1288
 8626SOL    HW128257   3.556   8.095  10.098  0.9755  0.5031  1.3665
 8626SOL    HW228258   3.484   8.210  10.164 -0.9212  0.7240 -0.9511
 8627SOL     OW28259   7.620   3.205   8.653  0.0288 -0.0741 -0.2843
 8627SOL    HW128260   7.625   3.300   8.653  0.6052 -0.0893  0.4175
 8627SOL    HW228261   7.712   3.176   8.654 -0.1378 -0.6268 -0.2185
 8628SOL     OW28262  10.055   5.682   0.550  0.4742 -0.0733 -0.1261
 8628SOL    HW128263  10.055   5.601   0.500 -0.2847 -0.7256  0.8788
 8628SOL    HW228264   9.997   5.664   0.625  0.5324  1.2896  0.2796
 8629SOL     OW28265   9.475   8.110   3.235 -0.6358 -0.1973  0.0047
 8629SOL    HW128266   9.544   8.043   3.233 -1.5850 -1.2118  0.0520
 8629SOL    HW228267   9.470   8.141   3.144 -0.2612 -0.2584 -0.0405
 8630SOL     OW28268   0.077   8.190   5.128  0.1823 -0.2978  0.0778
 8630SOL    HW128269   0.094   8.251   5.056 -1.5567  0.7942  0.5118
 8630SOL    HW228270   0.119   8.231   5.204 -1.6033  0.8200  0.5231
 8631SOL     OW28271   0.866   7.012   1.630 -0.0834 -0.1825 -0.2746
 8631SOL    HW128272   0.824   6.944   1.578 -0.9613  1.2698 -1.5741
 8631SOL    HW228273   0.849   7.093   1.581  0.8323  0.9841  1.2451
 8632SOL     OW28274   7.499   2.344   7.296  0.1243  0.3018  0.5378
 8632SOL    HW128275   7.491   2.345   7.391 -2.1317 -0.7871  0.4437
 8632SOL    HW228276   7.508   2.251   7.274  1.0024  0.5713 -0.2955
 8633SOL     OW28277   9.961   0.782   2.793  0.0887  0.1569 -0.0777
 8633SOL    HW128278   9.892   0.730   2.751  1.3730 -0.1903 -1.8825
 8633SOL    HW228279   9.976   0.855   2.733  1.1449  0.3390  0.3778
 8634SOL     OW28280   6.090   8.535   2.186  0.6233 -0.2141  0.0532
 8634SOL    HW128281   6.074   8.628   2.176  0.3014 -0.1556  0.9690
 8634SOL    HW228282   6.119   8.525   2.277 -0.5428 -1.1474  0.3591
 8635SOL     OW28283   2.231   7.005   9.828 -0.0556  0.0220 -0.1460
 8635SOL    HW128284   2.299   6.997   9.894 -1.3428  0.2077  1.2412
 8635SOL    HW228285   2.248   7.088   9.785 -0.1553  0.6872  1.0718
 8636SOL     OW28286   6.039   5.764   0.242  0.4328  0.2351  0.5217
 8636SOL    HW128287   6.060   5.686   0.191 -0.6539 -1.1921  2.1550
 8636SOL    HW228288   5.974   5.810   0.189  0.2003 -0.6012  0.0632
 8637SOL     OW28289   3.926   7.724   8.328  0.4665 -0.1536 -0.1885
 8637SOL    HW128290   3.877   7.805   8.339 -2.0775 -1.7607  1.5001
 8637SOL    HW228291   3.910   7.697   8.238  0.0774  0.4780 -0.3101
 8638SOL     OW28292   1.932   8.412   0.657 -0.6841  0.1652  0.2947
 8638SOL    HW128293   2.026   8.408   0.643 -0.8055 -0.2371 -0.4758
 8638SOL    HW228294   1.920   8.382   0.747 -0.0330  0.7725  0.5855
 8639SOL     OW28295  10.530   7.346   2.460 -0.0325  0.1201 -0.0409
 8639SOL    HW128296  10.447   7.322   2.501  0.3713 -0.0837  0.6841
 8639SOL    HW228297  10.592   7.350   2.533  0.6291  0.1020 -0.5943
 8640SOL     OW28298   8.070   5.345   7.180 -0.1475  0.0145  0.1625
 8640SOL    HW128299   8.159   5.378   7.189 -0.1203  0.3464 -1.1310
 8640SOL    HW228300   8.025   5.409   7.125 -1.1288 -0.2574  0.6181
 8641SOL     OW28301   5.022   1.578   5.968 -0.2397  0.0544 -0.1977
 8641SOL    HW128302   5.068   1.518   5.909 -1.3638 -2.0743  0.9318
 8641SOL    HW228303   4.941   1.599   5.922 -1.2099 -1.7671  0.5489
 8642SOL     OW28304   6.987   6.592   6.741 -0.2563  0.5581 -0.1389
 8642SOL    HW128305   6.975   6.580   6.647 -0.9605 -0.6130  0.0847
 8642SOL    HW228306   6.963   6.507   6.779  2.3004  0.2119  0.9059
 8643SOL     OW28307   0.651   5.721   9.004  0.9377 -0.7073  0.3517
 8643SOL    HW128308   0.604   5.792   8.960  0.9126  0.1696  1.7172
 8643SOL    HW228309   0.737   5.757   9.023  1.7615 -1.8729 -0.9960
 8644SOL     OW28310   0.334   7.453  10.677  0.0124 -0.7686  0.5883
 8644SOL    HW128311   0.303   7.541  10.657 -1.1383 -1.2570  0.1618
 8644SOL    HW228312   0.417   7.445  10.631 -0.4582 -0.3194 -0.3663
 8645SOL     OW28313   6.561   8.143   0.919  0.6567  0.1949  0.0022
 8645SOL    HW128314   6.574   8.058   0.961 -0.3434 -0.4379 -0.9063
 8645SOL    HW228315   6.610   8.205   0.974  1.8256 -1.0274  0.3925
 8646SOL     OW28316   2.782   6.124   0.749 -0.1378  0.2837  0.0055
 8646SOL    HW128317   2.720   6.128   0.821 -1.7916  0.4860 -1.3669
 8646SOL    HW228318   2.768   6.038   0.709  2.2309 -0.7170  1.1059
 8647SOL     OW28319   2.859   5.313   2.035  0.1490  0.4707  0.8382
 8647SOL    HW128320   2.908   5.231   2.028 -0.5989 -0.1287  2.1379
 8647SOL    HW228321   2.883   5.363   1.957  0.1116 -1.2575 -0.3400
 8648SOL     OW28322   4.225   2.766   1.465  0.4388  0.1673  0.0121
 8648SOL    HW128323   4.273   2.786   1.545  0.7824 -1.9473  0.3813
 8648SOL    HW228324   4.234   2.671   1.454 -3.2558 -0.2920 -0.1771
 8649SOL     OW28325   0.909  10.782   3.908  0.1578 -0.1818  0.1877
 8649SOL    HW128326   0.965  10.792   3.986 -0.7363 -1.2437  1.0012
 8649SOL    HW228327   0.821  10.772   3.944 -0.2820 -0.5683 -0.9832
 8650SOL     OW28328   5.375   9.571   3.413  0.2994  0.3887 -0.2082
 8650SOL    HW128329   5.346   9.611   3.330  1.5760  1.5934 -0.1037
 8650SOL    HW228330   5.352   9.479   3.404 -0.6782  0.7205 -1.4080
 8651SOL     OW28331   3.858   4.438   5.167 -0.3347 -0.4980  0.0179
 8651SOL    HW128332   3.942   4.450   5.122 -0.1467  1.6372  0.7983
 8651SOL    HW228333   3.799   4.500   5.125 -0.5658  0.4386  1.6404
 8652SOL     OW28334   8.396   2.742   2.142 -0.6254  0.0798 -0.3407
 8652SOL    HW128335   8.361   2.830   2.158  0.1189  0.3828 -0.3056
 8652SOL    HW228336   8.469   2.734   2.203  0.0712 -0.0897 -1.1711
 8653SOL     OW28337   8.983   7.739   8.384  0.5738 -0.1292  0.0034
 8653SOL    HW128338   8.999   7.687   8.305 -0.6984 -0.0723 -0.3058
 8653SOL    HW228339   8.890   7.725   8.404  1.1167 -1.1624  2.2198
 8654SOL     OW28340   0.283  10.448   0.388  0.1723 -0.0552  0.5453
 8654SOL    HW128341   0.276  10.543   0.380  1.0338 -0.0801 -1.0536
 8654SOL    HW228342   0.368  10.427   0.348 -0.0345 -1.4953  0.8050
 8655SOL     OW28343   9.224   9.990   6.786  0.5043 -0.3694  0.0521
 8655SOL    HW128344   9.218   9.946   6.871  0.3847 -1.3098 -0.4182
 8655SOL    HW228345   9.255   9.921   6.727  0.3275  0.1977 -0.7108
 8656SOL     OW28346   9.146   2.385   7.096 -0.9814 -0.5586 -0.4691
 8656SOL    HW128347   9.077   2.452   7.094  0.0152  0.4814 -2.3265
 8656SOL    HW228348   9.123   2.325   7.026  0.5208  0.3943 -1.8388
 8657SOL     OW28349   4.338   1.181   9.537 -0.0325  0.4770  0.0505
 8657SOL    HW128350   4.350   1.116   9.468  0.3217 -0.2495  0.7829
 8657SOL    HW228351   4.405   1.247   9.519  1.2780 -0.6181  0.7239
 8658SOL     OW28352   6.897   8.479   7.582  0.2815 -0.0795 -0.5435
 8658SOL    HW128353   6.884   8.572   7.601 -1.0421  0.1936 -2.4700
 8658SOL    HW228354   6.892   8.473   7.487 -1.0908 -2.3085 -0.4053
 8659SOL     OW28355   4.358   6.840   1.311 -0.1716 -0.1639 -0.2518
 8659SOL    HW128356   4.431   6.862   1.253 -0.0778  1.3075  0.4064
 8659SOL    HW228357   4.291   6.803   1.252  0.7548 -0.7286 -0.9752
 8660SOL     OW28358   6.522   6.654   1.505 -0.0861 -0.2863 -0.6684
 8660SOL    HW128359   6.532   6.586   1.571 -3.2068 -1.0398 -0.8052
 8660SOL    HW228360   6.576   6.726   1.536  0.0790 -1.3269  1.6767
 8661SOL     OW28361   3.266   5.802   4.418 -0.6782 -0.0827 -0.4073
 8661SOL    HW128362   3.271   5.732   4.353 -0.2540 -0.3542 -0.0824
 8661SOL    HW228363   3.357   5.830   4.431 -0.5467 -1.1597  1.2864
 8662SOL     OW28364   8.800   9.404  10.321 -0.2770  0.2595 -0.6261
 8662SOL    HW128365   8.882   9.452  10.322 -0.3590  0.4064  0.7054
 8662SOL    HW228366   8.733   9.471  10.314 -0.3744  0.3679  0.8874
 8663SOL     OW28367   9.291   8.851   9.827  0.4529 -0.2132 -0.2029
 8663SOL    HW128368   9.327   8.807   9.904  0.7172 -0.0530 -0.2317
 8663SOL    HW228369   9.207   8.887   9.856 -0.4688 -1.9569 -0.5652
 8664SOL     OW28370   7.254   5.155  10.384 -0.1644 -0.2407 -0.0988
 8664SOL    HW128371   7.229   5.153  10.292  0.4449 -3.7502 -0.3268
 8664SOL    HW228372   7.336   5.105  10.387  1.1442  1.8271  2.0677
 8665SOL     OW28373   4.013   6.252   4.642  0.1861  0.5215 -0.2094
 8665SOL    HW128374   3.996   6.170   4.689  0.0556  1.0125  0.6244
 8665SOL    HW228375   3.961   6.245   4.562 -2.1296  0.9933  1.1621
 8666SOL     OW28376   2.935   8.652   5.800 -0.2451  0.0903 -0.1200
 8666SOL    HW128377   2.869   8.585   5.820 -1.3538  0.9013 -0.8858
 8666SOL    HW228378   2.922   8.671   5.707  1.8665 -0.5301 -0.5964
 8667SOL     OW28379   4.573   1.361   2.384  0.3925  0.4650 -0.0969
 8667SOL    HW128380   4.514   1.325   2.318 -0.7308  0.6890  0.7440
 8667SOL    HW228381   4.637   1.411   2.334 -0.5373  0.7754 -1.0154
 8668SOL     OW28382   7.606   8.277   1.323  0.9307 -0.5698  0.5810
 8668SOL    HW128383   7.647   8.288   1.238 -0.7852 -1.6273 -0.4500
 8668SOL    HW228384   7.670   8.229   1.375  2.0484  0.1891 -0.0419
 8669SOL     OW28385   1.513   5.040   2.549 -0.1335 -0.0343 -0.1757
 8669SOL    HW128386   1.427   5.000   2.564 -0.6404  1.2942  0.6014
 8669SOL    HW228387   1.547   4.996   2.470 -0.5905 -2.0586  0.6893
 8670SOL     OW28388   3.604   2.630   2.518  0.1393  0.5404 -0.1433
 8670SOL    HW128389   3.675   2.604   2.459 -0.0638 -1.0003  0.2561
 8670SOL    HW228390   3.558   2.700   2.471 -0.5499 -1.2054 -2.2455
 8671SOL     OW28391   9.465   6.808   2.269 -0.4637  0.1288  0.2946
 8671SOL    HW128392   9.533   6.747   2.297 -0.9122 -0.1589  0.7760
 8671SOL    HW228393   9.447   6.784   2.178 -1.6744 -1.4433  0.9058
 8672SOL     OW28394   1.887   5.140   9.463  0.4546 -0.4506  0.0723
 8672SOL    HW128395   1.936   5.194   9.401  0.7803 -1.8336 -0.9042
 8672SOL    HW228396   1.919   5.168   9.549  0.7721  0.7480 -0.4165
 8673SOL     OW28397   2.159   8.286   6.163 -0.4293  0.3183 -0.3546
 8673SOL    HW128398   2.197   8.198   6.159 -0.9754  0.0883 -0.6535
 8673SOL    HW228399   2.108   8.293   6.082 -0.7607  0.7363 -0.1108
 8674SOL     OW28400   9.384   1.856   5.939  0.3547  0.2094  0.1339
 8674SOL    HW128401   9.306   1.815   5.901  0.0496  0.5960  0.3297
 8674SOL    HW228402   9.369   1.950   5.927  0.4464  0.3182  0.8276
 8675SOL     OW28403  10.030   1.351   8.992  0.5144 -0.6542  0.2341
 8675SOL    HW128404  10.072   1.265   8.998  1.3126 -0.3372 -0.5634
 8675SOL    HW228405  10.086   1.409   9.043 -0.9088 -0.8820  2.1786
 8676SOL     OW28406   4.623   0.351   2.221  0.2156  0.3937  0.0822
 8676SOL    HW128407   4.575   0.361   2.139  0.6808 -0.9372 -0.3800
 8676SOL    HW228408   4.556   0.334   2.287 -0.0339 -0.5124 -0.3907
 8677SOL     OW28409   1.462   3.692   8.432  0.0867 -0.0268  0.3438
 8677SOL    HW128410   1.495   3.602   8.422 -3.3044 -1.2947 -1.1245
 8677SOL    HW228411   1.382   3.682   8.482 -1.1357  1.9423 -1.0904
 8678SOL     OW28412   0.895   6.250   5.852  0.4278  0.0076 -0.3133
 8678SOL    HW128413   0.963   6.193   5.887 -0.1373 -0.1273  0.5756
 8678SOL    HW228414   0.820   6.238   5.910  0.4066  1.9045  0.1188
 8679SOL     OW28415   3.172   8.250   2.140 -0.3023  0.0319  0.4902
 8679SOL    HW128416   3.136   8.199   2.212 -0.0020  0.1816  0.7500
 8679SOL    HW228417   3.096   8.281   2.092 -0.5043 -0.0508  0.7545
 8680SOL     OW28418   1.181   1.212   1.729 -0.1531 -0.2244  0.1880
 8680SOL    HW128419   1.226   1.276   1.785  0.9881 -0.9019  0.0899
 8680SOL    HW228420   1.091   1.212   1.760 -0.1491  1.3197  0.2884
 8681SOL     OW28421   0.250   6.987   2.638  0.0645  0.0345  0.2022
 8681SOL    HW128422   0.288   6.960   2.721  1.1435  0.5920 -0.0981
 8681SOL    HW228423   0.281   7.077   2.625  1.0546 -0.5142 -1.4528
 8682SOL     OW28424   0.922   0.801   8.575 -0.0420 -0.7694  0.3803
 8682SOL    HW128425   0.902   0.711   8.600  3.2769 -1.3862  1.3197
 8682SOL    HW228426   0.997   0.794   8.517 -1.3299  1.3222 -1.7079
 8683SOL     OW28427   6.280   1.904   2.768 -0.1672 -0.2652  0.2151
 8683SOL    HW128428   6.261   1.866   2.682 -0.5633 -1.7914  0.9541
 8683SOL    HW228429   6.194   1.915   2.809  0.0971 -0.9660  0.9854
 8684SOL     OW28430   8.748   9.325   3.452  0.5546  0.3260  0.2153
 8684SOL    HW128431   8.833   9.352   3.486  2.0246 -0.8053 -2.2773
 8684SOL    HW228432   8.744   9.363   3.364  0.6502 -3.3437 -1.5548
 8685SOL     OW28433   0.957   8.090   2.706 -0.0583  0.4972  0.1378
 8685SOL    HW128434   1.033   8.072   2.761  0.4378 -0.8594 -0.9384
 8685SOL    HW228435   0.970   8.037   2.628 -1.2326  1.6191 -0.8748
 8686SOL     OW28436   7.419   0.137   3.367  0.4930 -0.2631  0.2413
 8686SOL    HW128437   7.338   0.089   3.379  0.1139  0.0899 -0.7692
 8686SOL    HW228438   7.448   0.114   3.279  2.3078 -1.5609  1.1226
 8687SOL     OW28439   4.634  10.238  10.495  0.2267  0.1519 -0.5820
 8687SOL    HW128440   4.626  10.304  10.564  1.9978  0.5455 -0.6974
 8687SOL    HW228441   4.545  10.207  10.480 -0.1171 -0.6074  2.4935
 8688SOL     OW28442   8.405  10.111   8.941  0.0685 -0.8199  0.5123
 8688SOL    HW128443   8.457  10.107   8.861 -0.1844 -1.7544  0.3753
 8688SOL    HW228444   8.447  10.179   8.994 -0.6583  0.9231 -1.0229
 8689SOL     OW28445   1.231  10.717   7.525 -0.5194  0.4560 -0.2418
 8689SOL    HW128446   1.323  10.691   7.520 -0.6525 -1.0543  2.7640
 8689SOL    HW228447   1.187  10.660   7.461  0.3417 -0.6800  0.1423
 8690SOL     OW28448   0.085  10.784   8.049 -0.0961  0.3261 -0.4621
 8690SOL    HW128449   0.044  10.700   8.069 -0.4010 -0.0701 -2.5128
 8690SOL    HW228450   0.166  10.761   8.003  0.7460  1.1596  0.5408
 8691SOL     OW28451   7.388   8.511   4.884  0.1386  0.0842 -0.2979
 8691SOL    HW128452   7.385   8.437   4.946  0.6192  1.0207  0.8843
 8691SOL    HW228453   7.445   8.481   4.814  2.1271  0.0745  1.2317
 8692SOL     OW28454   0.856   6.932   2.919  0.0894 -0.1223 -0.0908
 8692SOL    HW128455   0.948   6.950   2.904  0.1614  0.1882  0.6584
 8692SOL    HW228456   0.824   7.007   2.971 -0.4686 -0.4323  0.0318
 8693SOL     OW28457   8.782   1.307   3.145  0.3472  0.2361 -0.2818
 8693SOL    HW128458   8.836   1.382   3.171 -0.1323  0.6540 -0.4746
 8693SOL    HW228459   8.720   1.296   3.216 -0.5499  0.9755 -0.9308
 8694SOL     OW28460   0.035   8.543   9.354  0.0643  0.5975 -0.6815
 8694SOL    HW128461   0.040   8.621   9.299 -1.9060  0.0662 -1.7034
 8694SOL    HW228462   0.095   8.481   9.314  0.1284  0.8978 -1.0565
 8695SOL     OW28463  10.430   1.873   2.593 -0.7970 -0.8779  0.4078
 8695SOL    HW128464  10.402   1.897   2.682  0.7513  1.7999  0.2584
 8695SOL    HW228465  10.378   1.930   2.536 -0.1967 -1.0128 -0.2764
 8696SOL     OW28466   6.506   4.146   5.968  0.0200 -0.6570  0.6040
 8696SOL    HW128467   6.494   4.229   5.922  0.0576 -0.5940  0.7052
 8696SOL    HW228468   6.500   4.079   5.900 -0.6916 -0.6197  0.6193
 8697SOL     OW28469   1.570   5.701   4.923  0.2934 -0.0558 -0.1797
 8697SOL    HW128470   1.549   5.771   4.861 -0.8289 -0.9538 -0.8484
 8697SOL    HW228471   1.510   5.715   4.996  0.8856  0.3695  0.2347
 8698SOL     OW28472   8.546   7.852   4.600  0.2043 -0.2314 -0.0979
 8698SOL    HW128473   8.611   7.783   4.612 -0.8892 -1.0151  1.7925
 8698SOL    HW228474   8.578   7.925   4.654  0.5142  0.1423 -0.7738
 8699SOL     OW28475   2.492   6.292   5.235 -0.2736 -0.5434  0.4627
 8699SOL    HW128476   2.551   6.226   5.198  2.3649  1.3206  1.1063
 8699SOL    HW228477   2.468   6.258   5.321 -0.8172 -1.6805 -0.1173
 8700SOL     OW28478   4.738   8.846   1.235  0.1693  0.3037  0.2496
 8700SOL    HW128479   4.733   8.941   1.222 -0.7333  0.5370  2.0479
 8700SOL    HW228480   4.779   8.836   1.320  0.0997 -0.9368  0.1459
 8701SOL     OW28481   4.652   0.652   4.161 -0.1627  0.1549  0.0301
 8701SOL    HW128482   4.626   0.583   4.100  3.0656 -2.0454  0.8982
 8701SOL    HW228483   4.617   0.733   4.123 -0.9656 -1.4828 -3.0111
 8702SOL     OW28484   7.511   0.352   5.368  0.2683 -0.0165 -0.6306
 8702SOL    HW128485   7.431   0.336   5.418 -0.2294  0.0539 -1.3988
 8702SOL    HW228486   7.481   0.384   5.284  1.1660  2.0558 -0.2212
 8703SOL     OW28487   9.790   8.902   1.456  0.1445  0.6418 -0.3297
 8703SOL    HW128488   9.736   8.824   1.448 -0.2568  0.7922  0.8123
 8703SOL    HW228489   9.756   8.948   1.533  2.9462 -0.0904  1.4926
 8704SOL     OW28490  10.617   6.215   8.952  0.2760  0.3202  0.2646
 8704SOL    HW128491  10.616   6.158   9.029  1.4526  1.0249  0.8311
 8704SOL    HW228492  10.525   6.220   8.925  0.0831 -1.5602  0.3857
 8705SOL     OW28493  10.800   3.449   5.937  0.3192  0.2081  0.1759
 8705SOL    HW128494  10.740   3.462   6.010 -2.2842  0.2340 -1.8317
 8705SOL    HW228495  10.763   3.501   5.865  3.7830  1.7469 -0.7428
 8706SOL     OW28496   6.155   6.165   2.576  0.3295 -0.1484  0.4229
 8706SOL    HW128497   6.093   6.204   2.514 -0.4595 -1.1204  0.5654
 8706SOL    HW228498   6.101   6.108   2.631  1.5110 -1.9104 -0.1747
 8707SOL     OW28499   9.707   3.806   7.174 -0.3983 -0.4755 -0.2779
 8707SOL    HW128500   9.622   3.792   7.217  0.5200 -0.2243  1.7419
 8707SOL    HW228501   9.762   3.734   7.205  0.3393 -0.2494 -1.0189
 8708SOL     OW28502  10.575   1.757   3.220  0.1201  0.3840 -0.1213
 8708SOL    HW128503  10.595   1.807   3.141  1.4291  0.4425  0.2239
 8708SOL    HW228504  10.532   1.820   3.279  1.4476  1.0402  0.1796
 8709SOL     OW28505   9.489   5.754   9.465 -0.3784 -0.1957 -0.0816
 8709SOL    HW128506   9.441   5.732   9.385  0.0616  0.1923 -0.4551
 8709SOL    HW228507   9.442   5.829   9.502 -0.2259 -0.0006 -0.2889
 8710SOL     OW28508   2.717   2.472   5.456 -0.1368  0.6242 -0.8362
 8710SOL    HW128509   2.714   2.495   5.549 -1.0823 -2.4771  0.0104
 8710SOL    HW228510   2.809   2.458   5.437 -0.0273  0.3461 -0.1029
 8711SOL     OW28511   2.272   1.471   8.119 -0.3112  0.3293 -0.2085
 8711SOL    HW128512   2.190   1.424   8.137 -0.8050 -0.1298 -3.1561
 8711SOL    HW228513   2.310   1.425   8.045  1.0749  2.3935 -0.8639
 8712SOL     OW28514   4.931   2.520   4.751 -0.5851  0.1977 -0.0263
 8712SOL    HW128515   4.858   2.572   4.718  1.1017  1.4138 -2.1150
 8712SOL    HW228516   4.928   2.439   4.701  0.8580  1.2741 -2.0250
 8713SOL     OW28517  10.290   8.342   2.599 -0.3475  0.0922 -0.7150
 8713SOL    HW128518  10.342   8.263   2.614 -2.4215 -1.6466 -2.0272
 8713SOL    HW228519  10.317   8.402   2.668 -0.0935 -2.5298  1.6396
 8714SOL     OW28520   3.955   9.466   1.062 -0.0904 -0.0533  0.2726
 8714SOL    HW128521   4.047   9.489   1.044 -0.6333  0.4876 -2.1691
 8714SOL    HW228522   3.925   9.535   1.122  0.2276  1.7679 -1.5448
 8715SOL     OW28523   9.892   1.627   1.461 -0.0217 -0.1660 -0.0487
 8715SOL    HW128524   9.973   1.620   1.411 -0.2140 -0.1519 -0.3658
 8715SOL    HW228525   9.899   1.711   1.506 -0.0236  0.0122 -0.3725
 8716SOL     OW28526   2.342   1.295   8.734 -0.6606 -0.2150  0.4056
 8716SOL    HW128527   2.396   1.258   8.664 -1.2588  1.5714 -1.0465
 8716SOL    HW228528   2.406   1.320   8.801 -0.0165 -1.2272  0.2033
 8717SOL     OW28529   6.976   4.174   5.749  0.3386 -0.9079  0.4503
 8717SOL    HW128530   6.916   4.243   5.720  1.5786 -0.2040 -0.5525
 8717SOL    HW228531   6.963   4.168   5.843 -0.0032  0.5016  0.5042
 8718SOL     OW28532   1.964   2.912  10.620  0.0499 -0.1143  0.1133
 8718SOL    HW128533   2.001   2.962  10.547 -0.3489  1.2544  0.8043
 8718SOL    HW228534   1.869   2.916  10.605  0.0418 -1.3631 -0.2415
 8719SOL     OW28535   4.102   4.634   5.255 -0.3025  0.2147 -0.4243
 8719SOL    HW128536   4.187   4.669   5.280 -0.1268  0.2578 -1.0716
 8719SOL    HW228537   4.122   4.551   5.212 -0.7148 -0.7530  1.1477
 8720SOL     OW28538   1.891   0.664   3.921  0.4134  0.0653 -0.0030
 8720SOL    HW128539   1.832   0.712   3.862 -1.0888 -0.7620  0.7528
 8720SOL    HW228540   1.934   0.732   3.973  1.6220  0.7943 -1.8636
 8721SOL     OW28541   0.049   8.423   0.270  0.5146 -0.3489  0.1060
 8721SOL    HW128542   0.111   8.353   0.252  0.8414  0.1271 -0.6941
 8721SOL    HW228543   0.096   8.483   0.328  1.2831  0.6354 -1.4696
 8722SOL     OW28544   1.133   7.848  10.277  0.2791  0.0127  0.0449
 8722SOL    HW128545   1.158   7.901  10.201  1.5473  0.9495  1.0699
 8722SOL    HW228546   1.094   7.910  10.338 -1.5742 -0.8845 -0.1682
 8723SOL     OW28547   4.310   5.002   6.764  0.1624 -0.4187  0.1207
 8723SOL    HW128548   4.214   4.995   6.757  0.2788 -1.5356 -0.6712
 8723SOL    HW228549   4.325   5.033   6.853 -0.9109 -1.2023  0.5964
 8724SOL     OW28550   8.354   2.594   9.750  0.1059 -0.0048  0.3377
 8724SOL    HW128551   8.449   2.601   9.740  0.2408  0.0467  1.5126
 8724SOL    HW228552   8.320   2.675   9.713  0.5530  0.1855  0.3388
 8725SOL     OW28553   4.759   2.873   5.166 -0.4259 -0.5601 -0.5798
 8725SOL    HW128554   4.835   2.918   5.203  0.2953 -1.2672 -1.1834
 8725SOL    HW228555   4.756   2.789   5.211 -2.9721  0.7503  2.0543
 8726SOL     OW28556   2.838   9.469   2.457 -0.0504  0.2832  0.1002
 8726SOL    HW128557   2.822   9.562   2.472  0.7886  0.8576 -2.1342
 8726SOL    HW228558   2.774   9.425   2.512 -1.3683  2.2196  0.2345
 8727SOL     OW28559   6.149   7.432   5.308 -0.6144  0.2691  0.0055
 8727SOL    HW128560   6.064   7.460   5.341 -0.1469  3.0435 -0.8884
 8727SOL    HW228561   6.211   7.492   5.350  0.7400 -0.7205 -0.5210
 8728SOL     OW28562   7.328  10.479   7.221  0.0541 -0.3015 -0.3818
 8728SOL    HW128563   7.257  10.482   7.285 -0.7893  0.7198 -1.3572
 8728SOL    HW228564   7.360  10.388   7.226 -1.0401 -0.6659  0.3517
 8729SOL     OW28565   0.186   1.886   9.748  0.3199  0.1984  0.5513
 8729SOL    HW128566   0.256   1.824   9.770 -0.6516 -1.1209  0.0217
 8729SOL    HW228567   0.196   1.956   9.813  0.4683 -1.2778  2.2119
 8730SOL     OW28568   4.449   0.213   8.986  0.3510  0.4364  0.1468
 8730SOL    HW128569   4.499   0.282   8.943  0.1951 -1.1740 -2.8794
 8730SOL    HW228570   4.358   0.229   8.962 -0.0328  0.6519  1.6529
 8731SOL     OW28571   2.139  10.318   3.785  0.3068 -0.3251  0.4266
 8731SOL    HW128572   2.223  10.322   3.830  1.3193  0.2276 -1.3754
 8731SOL    HW228573   2.118  10.410   3.765  0.5482 -0.5898 -1.2563
 8732SOL     OW28574   8.416   4.227   0.150 -0.1377 -0.6878 -0.6189
 8732SOL    HW128575   8.482   4.217   0.082 -0.6997  0.6459 -1.3986
 8732SOL    HW228576   8.334   4.243   0.103 -0.6533 -0.3754  0.3510
 8733SOL     OW28577   1.489   4.517   4.081 -0.3551 -0.1851  0.0450
 8733SOL    HW128578   1.461   4.572   4.008 -0.2621 -0.2742 -0.0595
 8733SOL    HW228579   1.483   4.428   4.047  0.2874 -0.1935 -0.0689
 8734SOL     OW28580   1.293   9.817   9.713  0.4271 -0.0449 -0.5360
 8734SOL    HW128581   1.328   9.843   9.798  0.9507  0.8674 -1.0171
 8734SOL    HW228582   1.364   9.834   9.651  0.5980 -2.1109 -0.9853
 8735SOL     OW28583   9.561   0.785   6.914  0.6001  0.1611 -0.0214
 8735SOL    HW128584   9.642   0.777   6.864  0.7306  0.7258  0.0870
 8735SOL    HW228585   9.581   0.748   7.000  0.9730  0.9450  0.2441
 8736SOL     OW28586   0.904   5.388   9.181 -0.3914  0.1074  0.5140
 8736SOL    HW128587   0.980   5.435   9.213 -0.1780 -0.4100  0.7805
 8736SOL    HW228588   0.909   5.302   9.223  0.8959 -1.3070 -2.2395
 8737SOL     OW28589   7.185   8.001   7.678  0.1189 -0.5655  0.6034
 8737SOL    HW128590   7.151   8.035   7.760 -1.1323  0.1438 -0.1721
 8737SOL    HW228591   7.107   7.975   7.629  0.6093  1.3197 -1.3431
 8738SOL     OW28592   5.948   1.084   9.766 -0.1734  0.6416  0.1130
 8738SOL    HW128593   5.958   1.120   9.678  0.0923 -0.0756 -0.1574
 8738SOL    HW228594   6.026   1.030   9.779 -0.3954  0.4414  0.6424
 8739SOL     OW28595   4.803   8.750   2.348  0.3997 -0.1189 -0.1494
 8739SOL    HW128596   4.765   8.673   2.391 -0.9899  0.7150  0.1916
 8739SOL    HW228597   4.794   8.820   2.413 -0.8453  0.9464 -1.4163
 8740SOL     OW28598   5.422   3.541   1.555  0.8873 -0.5203 -0.2905
 8740SOL    HW128599   5.456   3.584   1.633 -0.7651 -1.3586  0.9616
 8740SOL    HW228600   5.372   3.609   1.509  0.7337 -0.3550  0.1192
 8741SOL     OW28601   1.454   2.710   4.980 -0.1757  0.4165 -0.6539
 8741SOL    HW128602   1.414   2.646   5.040  0.2574  0.4457 -0.3335
 8741SOL    HW228603   1.501   2.770   5.036 -0.7184  1.1293 -0.9452
 8742SOL     OW28604   5.825   9.249   6.736  0.1149 -0.2702 -0.0178
 8742SOL    HW128605   5.759   9.288   6.678 -0.6206 -0.4714  0.6544
 8742SOL    HW228606   5.824   9.305   6.814 -1.9855 -2.3224  1.5774
 8743SOL     OW28607   7.911   4.649   6.863  0.8358  0.2381  0.1749
 8743SOL    HW128608   7.955   4.615   6.942 -0.8714  0.7848  1.4167
 8743SOL    HW228609   7.836   4.591   6.851  1.7631 -0.6650 -1.9060
 8744SOL     OW28610   7.758   6.114   5.388  0.0644 -0.2503  0.0830
 8744SOL    HW128611   7.825   6.177   5.361  0.8058 -1.5706 -1.3425
 8744SOL    HW228612   7.677   6.145   5.346  0.5475 -0.5319 -1.1008
 8745SOL     OW28613   3.701   6.311   4.450 -1.0316  0.1642  0.0936
 8745SOL    HW128614   3.789   6.282   4.424 -0.5380  0.9109  0.8661
 8745SOL    HW228615   3.661   6.340   4.368 -0.5422 -0.1430 -0.2637
 8746SOL     OW28616   0.166   7.196   9.589 -0.0324  0.3816  0.6134
 8746SOL    HW128617   0.129   7.258   9.652  1.2239  1.8857 -0.0551
 8746SOL    HW228618   0.091   7.166   9.538 -0.6859  1.3810  0.9564
 8747SOL     OW28619   7.545   0.985   3.894  0.0184  0.2490 -0.2852
 8747SOL    HW128620   7.627   1.009   3.851  0.0170  1.3473  0.2793
 8747SOL    HW228621   7.480   1.047   3.860 -0.1838  0.5310  0.5801
 8748SOL     OW28622   6.277   9.673   7.395  0.4330 -0.2651  0.2395
 8748SOL    HW128623   6.347   9.668   7.330 -0.5356  0.5244 -0.9033
 8748SOL    HW228624   6.297   9.602   7.456  3.0529  0.8788  0.8171
 8749SOL     OW28625  10.111   1.833   5.801  0.1249  0.0074  0.4629
 8749SOL    HW128626  10.053   1.769   5.761  0.8436  0.2127 -0.9509
 8749SOL    HW228627  10.154   1.877   5.728  1.9021  0.0268  1.4524
 8750SOL     OW28628   3.783   4.760   6.550 -0.4241  0.1214 -0.0995
 8750SOL    HW128629   3.876   4.763   6.575 -0.1689  1.4879 -1.0871
 8750SOL    HW228630   3.751   4.677   6.585  0.5362  0.7493  2.4763
 8751SOL     OW28631   7.442   7.332  10.092  0.2429  0.2180  0.4133
 8751SOL    HW128632   7.378   7.366  10.030  0.6344 -0.1827 -0.2221
 8751SOL    HW228633   7.452   7.240  10.068  3.0338  0.8307 -1.3140
 8752SOL     OW28634   9.269   0.111   4.012  0.2548 -0.4322 -0.4010
 8752SOL    HW128635   9.227   0.099   4.097  0.5267 -1.7785 -0.4309
 8752SOL    HW228636   9.357   0.143   4.032 -0.3604  1.3049 -0.2939
 8753SOL     OW28637   9.766   3.438   4.190 -0.3141  0.7556  0.3173
 8753SOL    HW128638   9.733   3.357   4.150  1.0578  0.5228 -0.3775
 8753SOL    HW228639   9.854   3.416   4.220 -0.5778  1.5002  1.7443
 8754SOL     OW28640   7.844   4.431   8.060  0.4016  0.4409  0.0764
 8754SOL    HW128641   7.828   4.387   8.144  0.9859  1.3811  0.7054
 8754SOL    HW228642   7.763   4.419   8.011 -0.8181  1.7411  1.6428
 8755SOL     OW28643   4.402  10.587   0.542  0.0999 -0.6477  0.5065
 8755SOL    HW128644   4.409  10.543   0.457 -1.9793 -2.5073  1.2024
 8755SOL    HW228645   4.383  10.678   0.520 -3.1924 -1.5715 -1.1637
 8756SOL     OW28646   0.982   5.282   6.362 -0.5324 -0.7449  0.3263
 8756SOL    HW128647   1.032   5.225   6.303 -0.6378 -0.3360 -0.1694
 8756SOL    HW228648   1.033   5.363   6.366 -1.6456  0.0734 -1.0186
 8757SOL     OW28649   1.435   2.023   5.583  0.5547 -0.1513  0.1266
 8757SOL    HW128650   1.500   1.962   5.548  0.9916  0.1976  0.3161
 8757SOL    HW228651   1.435   2.007   5.677  0.6804  0.1466  0.1795
 8758SOL     OW28652   3.453   5.813   4.689  0.3426 -0.3268 -0.2745
 8758SOL    HW128653   3.383   5.765   4.735  0.4277  0.6019  0.8864
 8758SOL    HW228654   3.460   5.770   4.604 -2.0604 -0.0858 -0.6776
 8759SOL     OW28655   2.966   1.592   6.358 -0.9037  0.0712  0.1747
 8759SOL    HW128656   2.871   1.578   6.361 -0.9229  0.1009 -0.1963
 8759SOL    HW228657   2.976   1.686   6.373 -0.8077 -0.2053  2.1152
 8760SOL     OW28658   4.167   6.223   7.012  0.3234 -0.2721 -0.3344
 8760SOL    HW128659   4.094   6.174   6.975  1.0318 -2.0611  0.4865
 8760SOL    HW228660   4.238   6.211   6.949  0.2492  0.4700 -0.5631
 8761SOL     OW28661   1.234   9.279   9.749  0.1659  0.6883 -0.2425
 8761SOL    HW128662   1.278   9.309   9.829 -0.4670  1.1540 -0.0678
 8761SOL    HW228663   1.148   9.322   9.751 -0.8979 -1.3310  0.1755
 8762SOL     OW28664   7.376   9.383   8.781  0.2559 -0.7202 -0.2616
 8762SOL    HW128665   7.369   9.360   8.688 -0.3983 -0.2607 -0.3390
 8762SOL    HW228666   7.466   9.361   8.805  1.1867  1.2928 -1.6078
 8763SOL     OW28667   9.026   2.988   2.575  0.1021  0.7904 -0.2629
 8763SOL    HW128668   9.012   2.905   2.620 -1.3381 -1.1723 -3.9141
 8763SOL    HW228669   9.117   2.986   2.548  0.1772  0.6357 -0.0070
 8764SOL     OW28670   3.930   9.184   2.685  0.1140 -0.0777 -0.3065
 8764SOL    HW128671   3.983   9.252   2.644 -0.7073  0.9136  0.2394
 8764SOL    HW228672   3.844   9.191   2.642 -0.2095 -0.2327  0.3056
 8765SOL     OW28673   8.380   5.989   2.329  0.2601 -0.2793 -0.0559
 8765SOL    HW128674   8.311   5.949   2.382 -1.6721  2.7047 -0.1004
 8765SOL    HW228675   8.411   6.062   2.382  0.1369  1.1893 -1.9341
 8766SOL     OW28676   5.436   9.240   8.235 -0.4283  0.1439  0.3619
 8766SOL    HW128677   5.450   9.157   8.281 -0.1381 -1.0139 -1.7290
 8766SOL    HW228678   5.476   9.227   8.149 -0.9955  2.2225 -0.2650
 8767SOL     OW28679   1.776   7.706   9.416  0.4257  0.1113  0.2918
 8767SOL    HW128680   1.863   7.712   9.376 -0.4355 -0.4431 -1.8296
 8767SOL    HW228681   1.767   7.613   9.438  0.6478  0.3069  1.2713
 8768SOL     OW28682   8.373   8.311   5.877 -0.2737  0.0697  0.5058
 8768SOL    HW128683   8.284   8.302   5.843 -0.1311  1.6877 -0.3715
 8768SOL    HW228684   8.387   8.405   5.885  1.8635 -0.0845 -0.7357
 8769SOL     OW28685   1.075   0.502   2.332  0.3568  0.0029  0.0563
 8769SOL    HW128686   1.102   0.530   2.420  0.0387  0.6396 -0.0439
 8769SOL    HW228687   0.981   0.517   2.330  0.2571 -0.6093 -0.1867
 8770SOL     OW28688   7.826   1.801   3.732  0.1017 -0.4994 -0.0583
 8770SOL    HW128689   7.789   1.720   3.698 -2.3665 -0.3192  1.9741
 8770SOL    HW228690   7.886   1.773   3.801  1.2762 -0.6441 -1.0994
 8771SOL     OW28691   1.789   5.244   2.161 -0.2394 -0.1019  0.0770
 8771SOL    HW128692   1.783   5.149   2.152 -2.3231 -0.3218  2.5530
 8771SOL    HW228693   1.728   5.278   2.095  0.0832 -0.4969 -0.4316
 8772SOL     OW28694  10.476   7.019  10.556  0.3205 -0.4813  0.7674
 8772SOL    HW128695  10.388   7.050  10.534  0.8394  1.0046  0.6444
 8772SOL    HW228696  10.508   6.981  10.474 -0.0110 -0.5344  0.6586
 8773SOL     OW28697   6.113   4.982   4.086 -0.2021 -0.4770  0.0944
 8773SOL    HW128698   6.143   5.017   4.170  0.3025  0.8614 -0.6098
 8773SOL    HW228699   6.189   4.991   4.028 -0.7344 -0.8184 -0.6758
 8774SOL     OW28700   2.710   7.834   7.741 -0.4190 -0.4823 -0.0660
 8774SOL    HW128701   2.673   7.916   7.707 -1.4952 -0.3715  1.2871
 8774SOL    HW228702   2.660   7.816   7.821  1.8972 -0.8281  1.3850
 8775SOL     OW28703   7.932   1.284   6.524 -0.1158  0.0946 -0.4260
 8775SOL    HW128704   8.021   1.250   6.510 -0.5413 -1.5838  0.6501
 8775SOL    HW228705   7.936   1.325   6.610 -0.8241 -1.7634  0.5480
 8776SOL     OW28706   7.261   3.714   0.027 -0.4225 -0.9637 -0.1039
 8776SOL    HW128707   7.291   3.677   0.110  0.7083 -0.2733 -0.1883
 8776SOL    HW228708   7.165   3.710   0.032 -0.4262  0.2213  1.7815
 8777SOL     OW28709   6.091   7.820  10.269  0.4067  0.6324  0.0577
 8777SOL    HW128710   6.059   7.791  10.354  1.5709 -0.1474  0.2602
 8777SOL    HW228711   6.092   7.741  10.215  0.9012  0.8522 -0.2664
 8778SOL     OW28712   7.779   5.421   3.027 -0.8364 -0.0153 -0.8021
 8778SOL    HW128713   7.872   5.411   3.046 -0.8372  0.1185 -0.7319
 8778SOL    HW228714   7.777   5.444   2.934 -0.7806  0.3525 -0.7120
 8779SOL     OW28715   0.862   4.246   2.031  0.3386  0.5675  0.5321
 8779SOL    HW128716   0.876   4.154   2.008  2.7413  0.7794  0.9239
 8779SOL    HW228717   0.832   4.244   2.122 -2.0594  0.1139 -0.1883
 8780SOL     OW28718   6.661   2.456   4.714 -0.3968  0.2225 -0.4688
 8780SOL    HW128719   6.697   2.525   4.771 -0.5291 -0.5689  0.6041
 8780SOL    HW228720   6.589   2.499   4.667 -0.3425  0.8762  0.0288
 8781SOL     OW28721   5.765   0.369   2.961  0.2271 -0.3979  0.3605
 8781SOL    HW128722   5.780   0.275   2.957 -0.4039 -0.5747  1.7045
 8781SOL    HW228723   5.820   0.399   3.033 -2.6367 -0.4353  2.7283
 8782SOL     OW28724   8.365   5.317   7.187  0.4507  1.0636 -0.4319
 8782SOL    HW128725   8.392   5.279   7.104 -0.4800 -0.0172 -0.2559
 8782SOL    HW228726   8.359   5.411   7.170  2.7103  1.1690 -0.8950
 8783SOL     OW28727   2.228  10.706   8.557 -0.2858 -0.0081 -0.4349
 8783SOL    HW128728   2.300  10.695   8.494  0.1236 -0.3840  0.0833
 8783SOL    HW228729   2.209  10.617   8.587 -1.0071  0.0880 -0.6109
 8784SOL     OW28730   2.773   1.972   9.971 -0.2445  0.0139 -0.0174
 8784SOL    HW128731   2.865   1.958   9.947 -0.6438 -0.7035 -1.2003
 8784SOL    HW228732   2.733   1.885   9.963 -1.0436  0.3300  0.4317
 8785SOL     OW28733   1.289   6.997   5.579  0.0126  0.0109  0.6566
 8785SOL    HW128734   1.225   7.023   5.513  2.0575 -1.6600 -2.2307
 8785SOL    HW228735   1.328   7.079   5.609  0.5491  0.7675 -1.9328
 8786SOL     OW28736   7.547   8.654   0.006 -0.8388  0.0446 -0.1663
 8786SOL    HW128737   7.481   8.659   0.075  1.1032 -1.8163  1.9934
 8786SOL    HW228738   7.577   8.563   0.008  2.0876  0.8842 -0.6818
 8787SOL     OW28739   5.293   8.768   5.353 -0.1999 -0.5251 -0.6659
 8787SOL    HW128740   5.315   8.679   5.325  1.4519 -0.7859  1.2271
 8787SOL    HW228741   5.374   8.802   5.390 -1.0324  1.4771 -0.5707
 8788SOL     OW28742   9.973   0.433   1.996  0.6606  0.3096 -0.1262
 8788SOL    HW128743   9.926   0.356   2.029 -0.0060  0.1820 -1.2886
 8788SOL    HW228744   9.979   0.492   2.071  0.2610 -0.4400  0.5150
 8789SOL     OW28745   0.711   7.368   1.089  0.8047 -0.0954 -0.5028
 8789SOL    HW128746   0.710   7.401   1.179  0.2681  0.4072 -0.6842
 8789SOL    HW228747   0.793   7.401   1.052  1.1421 -0.5033 -0.1317
 8790SOL     OW28748   4.335   7.664   5.595 -0.4844  0.1274  0.3971
 8790SOL    HW128749   4.307   7.701   5.511 -0.5947 -1.9940 -0.5453
 8790SOL    HW228750   4.427   7.690   5.603 -0.7679  1.2886  0.1986
 8791SOL     OW28751   5.482   8.858   8.153 -0.7675 -0.2524 -0.3607
 8791SOL    HW128752   5.391   8.869   8.125 -0.7387 -1.8295 -1.2110
 8791SOL    HW228753   5.532   8.850   8.072  0.0074 -0.2615  0.1090
 8792SOL     OW28754   0.356   3.156   5.098  0.0255 -0.3400 -0.3919
 8792SOL    HW128755   0.391   3.090   5.038 -1.3415 -1.1844 -0.2869
 8792SOL    HW228756   0.308   3.217   5.042  0.3914 -0.0164 -0.3621
 8793SOL     OW28757   6.800  10.042   3.569  0.1827 -0.1795 -0.1089
 8793SOL    HW128758   6.893  10.064   3.558 -0.0431  0.9698  0.1506
 8793SOL    HW228759   6.766  10.111   3.627 -1.1948  0.3458 -1.4847
 8794SOL     OW28760  10.022   2.881   4.258 -0.0204  0.1229 -0.1148
 8794SOL    HW128761  10.117   2.880   4.273  0.1006  1.5309 -0.6233
 8794SOL    HW228762   9.988   2.810   4.313  1.6219 -2.4584 -2.1614
 8795SOL     OW28763   9.656   5.442   0.103 -0.0241  0.2540 -0.3247
 8795SOL    HW128764   9.673   5.388   0.026 -0.6410  0.2245 -0.4521
 8795SOL    HW228765   9.599   5.388   0.158  0.0658  0.4380 -0.0506
 8796SOL     OW28766   1.692   2.654   8.232  0.3773 -0.5728  0.1471
 8796SOL    HW128767   1.751   2.585   8.205  0.3923 -0.1279 -0.9941
 8796SOL    HW228768   1.648   2.682   8.152 -1.4858 -0.9788  0.9704
 8797SOL     OW28769   2.299   9.565   3.878  0.2221  0.4761  0.4513
 8797SOL    HW128770   2.297   9.472   3.859  0.4146  0.6785 -0.6058
 8797SOL    HW228771   2.217   9.582   3.925  0.6833 -0.4069  1.6139
 8798SOL     OW28772   4.534   3.632   0.423  0.4611  0.5119  0.1648
 8798SOL    HW128773   4.576   3.714   0.448 -0.8237  0.9313  1.0769
 8798SOL    HW228774   4.534   3.632   0.328  1.5126  1.0104  0.1577
 8799SOL     OW28775   1.897   6.476   5.518  0.2372 -0.1156 -0.3292
 8799SOL    HW128776   1.946   6.397   5.493  1.1562  0.4869 -0.4989
 8799SOL    HW228777   1.951   6.548   5.486  0.9670  0.6744  2.3932
 8800SOL     OW28778   8.080   4.875   9.992 -0.1780  0.7485  0.4001
 8800SOL    HW128779   8.047   4.842  10.075 -2.2265 -0.5796 -0.8551
 8800SOL    HW228780   8.174   4.854   9.994 -0.2356  0.4907  2.2142
 8801SOL     OW28781   1.244   6.309   6.670  0.3455  0.1838 -0.1955
 8801SOL    HW128782   1.270   6.233   6.619 -0.9943 -0.1736 -0.3730
 8801SOL    HW228783   1.313   6.318   6.736  1.5021 -0.0280 -1.3242
 8802SOL     OW28784   7.038   2.885  10.525 -0.7914 -0.4603  0.3436
 8802SOL    HW128785   7.090   2.911  10.601  2.9934 -1.2911 -1.6824
 8802SOL    HW228786   7.029   2.790  10.533 -2.3327 -0.3024  0.7860
 8803SOL     OW28787   6.022   8.196   6.323  0.2615 -0.0938  0.0808
 8803SOL    HW128788   6.102   8.152   6.352 -0.1618 -1.0617 -0.1469
 8803SOL    HW228789   5.956   8.126   6.323 -1.0773  1.0355  2.1317
 8804SOL     OW28790   6.009   4.554   2.883  0.5425 -0.2535  0.1701
 8804SOL    HW128791   5.918   4.571   2.858  0.6457 -0.3813 -0.3004
 8804SOL    HW228792   6.014   4.581   2.975  0.0991  0.0035  0.1207
 8805SOL     OW28793   1.854   4.433   1.084 -0.1565  0.1849  0.4246
 8805SOL    HW128794   1.900   4.497   1.030 -1.4706  0.2286 -0.6950
 8805SOL    HW228795   1.763   4.460   1.081 -1.1703 -2.9313 -1.9549
 8806SOL     OW28796   5.001  10.644   9.741 -0.0774 -0.2324  0.0652
 8806SOL    HW128797   5.024  10.734   9.717  1.8644 -0.9019 -0.7902
 8806SOL    HW228798   4.918  10.628   9.697 -1.4919  1.7329  1.8150
 8807SOL     OW28799   6.073   6.954   5.936  0.1539  0.1185  0.0396
 8807SOL    HW128800   6.047   7.028   5.991  0.5779  1.4385 -1.4474
 8807SOL    HW228801   6.161   6.931   5.967  0.0156  0.2311  0.5240
 8808SOL     OW28802   8.526   3.629   2.511 -0.1617 -0.0512 -0.0892
 8808SOL    HW128803   8.587   3.703   2.523  0.9399 -0.9642  0.1042
 8808SOL    HW228804   8.527   3.583   2.594 -0.8060 -0.3202 -0.2260
 8809SOL     OW28805   8.903  10.133   6.182  0.3531  0.1856 -0.1408
 8809SOL    HW128806   8.961  10.176   6.119  0.2942  0.1823 -0.1978
 8809SOL    HW228807   8.891  10.197   6.252  2.2836 -0.6302  1.0290
 8810SOL     OW28808   9.890   3.139   3.843 -0.3573  0.3277 -0.2651
 8810SOL    HW128809   9.908   3.215   3.899 -0.4306 -0.0564  0.2947
 8810SOL    HW228810   9.951   3.072   3.875 -0.6353 -0.0025 -0.4262
 8811SOL     OW28811   4.220   1.672   2.453 -0.0162  0.0174 -0.1725
 8811SOL    HW128812   4.250   1.683   2.363 -1.7066 -0.6942 -0.8694
 8811SOL    HW228813   4.205   1.761   2.485  1.5026  0.3244 -0.2330
 8812SOL     OW28814   1.188   6.288   9.830 -0.5735 -0.5787  0.0433
 8812SOL    HW128815   1.244   6.352   9.787  0.2922 -0.6790  0.9812
 8812SOL    HW228816   1.225   6.279   9.918 -2.5305 -0.0424  0.9829
 8813SOL     OW28817   0.345   1.785   0.005  0.0226  0.3865  0.0861
 8813SOL    HW128818   0.270   1.828   0.048 -1.0721 -0.4046 -0.9754
 8813SOL    HW228819   0.358   1.705   0.055  0.7265  0.9174  0.7841
 8814SOL     OW28820   4.868   0.879   3.533  0.6297 -0.0709  0.3654
 8814SOL    HW128821   4.832   0.968   3.530 -1.2637 -0.7758  0.4180
 8814SOL    HW228822   4.933   0.881   3.603 -0.4085  0.9391  1.3400
 8815SOL     OW28823   2.282   3.839   4.179  0.4573  0.2962 -0.2193
 8815SOL    HW128824   2.219   3.824   4.109  0.5960  0.4363 -0.3772
 8815SOL    HW228825   2.336   3.761   4.180 -0.7255 -0.5450  0.9988
 8816SOL     OW28826   1.724  10.710  10.572 -0.3419 -0.2294 -0.1103
 8816SOL    HW128827   1.664  10.782  10.590 -0.9593 -0.8206  0.2108
 8816SOL    HW228828   1.669  10.641  10.535  0.4900  0.0118 -1.8888
 8817SOL     OW28829  10.549   3.903   4.513  0.5235 -0.6270 -0.5500
 8817SOL    HW128830  10.592   3.861   4.587  0.4459  1.8081  0.9851
 8817SOL    HW228831  10.610   3.892   4.440  2.1411 -0.3301  0.6979
 8818SOL     OW28832   7.014   9.541   7.545  0.8151 -0.0042 -0.3909
 8818SOL    HW128833   7.012   9.449   7.574 -3.2347  0.3497  1.1154
 8818SOL    HW228834   7.058   9.587   7.616 -1.7249 -0.2745  1.5451
 8819SOL     OW28835   7.181   8.096   1.642 -0.1953  0.2801  0.4854
 8819SOL    HW128836   7.255   8.130   1.592 -0.1541 -1.2333 -0.5625
 8819SOL    HW228837   7.106   8.107   1.583 -0.5278  0.3229  0.9075
 8820SOL     OW28838   6.058   2.487   7.429 -0.0193 -0.0055 -0.3755
 8820SOL    HW128839   6.009   2.567   7.412 -0.8229 -0.5257 -0.5364
 8820SOL    HW228840   6.134   2.517   7.479 -1.1130  0.6708  0.9696
 8821SOL     OW28841   3.289   2.525   3.256 -0.0657 -0.2185 -0.5351
 8821SOL    HW128842   3.245   2.494   3.177 -0.4431  1.0003 -0.8343
 8821SOL    HW228843   3.261   2.617   3.264 -0.7669 -0.5469  1.5118
 8822SOL     OW28844   9.897   0.694   0.457  0.3609 -0.0320  0.5507
 8822SOL    HW128845   9.925   0.683   0.366  2.2284 -1.1300  1.1843
 8822SOL    HW228846   9.802   0.689   0.455  0.1964  2.2462 -1.5995
 8823SOL     OW28847   1.558   3.389   1.245 -0.4573 -0.5483  0.3389
 8823SOL    HW128848   1.475   3.407   1.200 -0.3107 -1.3061 -0.2571
 8823SOL    HW228849   1.531   3.362   1.333 -0.7619  0.6061  0.6105
 8824SOL     OW28850   9.459   0.796   1.616  0.0141  0.4982 -0.4547
 8824SOL    HW128851   9.483   0.734   1.547 -0.9621 -0.6918  0.2289
 8824SOL    HW228852   9.540   0.840   1.639  0.9206 -1.1484 -0.3746
 8825SOL     OW28853   9.167   5.604   8.482  0.2633  0.0648  0.3585
 8825SOL    HW128854   9.262   5.603   8.468  0.4893  1.3074  1.5729
 8825SOL    HW228855   9.144   5.697   8.478 -1.0696 -0.2893 -0.8316
 8826SOL     OW28856   9.720   6.382   8.543 -0.5852  0.0607  0.7575
 8826SOL    HW128857   9.738   6.466   8.586  1.2706 -0.1862  0.5396
 8826SOL    HW228858   9.642   6.349   8.588 -0.8598  1.5010  1.4086
 8827SOL     OW28859   0.990   4.685   5.840  0.2886 -0.2714 -0.4904
 8827SOL    HW128860   1.037   4.753   5.791 -0.3851  0.6811  0.1363
 8827SOL    HW228861   1.015   4.700   5.931 -2.4727  1.4265  0.1280
 8828SOL     OW28862   3.170   0.933  10.708  0.3431  0.3250  0.5742
 8828SOL    HW128863   3.183   0.851  10.754  0.3728 -0.4582 -0.7702
 8828SOL    HW228864   3.095   0.916  10.650 -0.3325  1.5901  1.0448
 8829SOL     OW28865   1.494   9.253   4.957 -0.1900 -0.1875  0.0697
 8829SOL    HW128866   1.510   9.163   4.983 -3.0766 -0.6493  0.6016
 8829SOL    HW228867   1.459   9.247   4.868  0.5656  0.5302 -0.2938
 8830SOL     OW28868   2.272   3.180   1.741  0.2140  0.3834 -0.3786
 8830SOL    HW128869   2.195   3.155   1.791 -0.4389  1.0286 -1.0462
 8830SOL    HW228870   2.330   3.221   1.805  0.0761 -0.2515  0.1565
 8831SOL     OW28871   8.032   7.194   5.640  0.2137 -0.1209  0.3274
 8831SOL    HW128872   7.985   7.232   5.714 -1.3001 -1.2107 -0.0015
 8831SOL    HW228873   7.975   7.211   5.564  0.0960 -1.8507 -0.0162
 8832SOL     OW28874   7.260   6.302   6.866  0.0450 -0.3979 -0.0707
 8832SOL    HW128875   7.282   6.282   6.957 -0.9992  1.7599  0.7050
 8832SOL    HW228876   7.267   6.217   6.821 -0.0315 -1.6352  2.1104
 8833SOL     OW28877   1.081   4.343   9.007 -0.3939 -0.2040 -0.2513
 8833SOL    HW128878   1.081   4.310   9.097  0.8379  0.1132 -0.1165
 8833SOL    HW228879   1.123   4.274   8.956 -0.2304  0.0190 -0.4198
 8834SOL     OW28880   5.416   8.061   5.274  0.0959 -0.6132  0.2202
 8834SOL    HW128881   5.359   8.128   5.312 -1.9063 -1.9605 -0.2650
 8834SOL    HW228882   5.458   8.104   5.200 -3.3166 -0.5268 -1.8778
 8835SOL     OW28883   6.592   6.302   2.181  0.3546  0.2625 -0.2872
 8835SOL    HW128884   6.660   6.369   2.178 -0.4228  1.0730 -0.2373
 8835SOL    HW228885   6.515   6.348   2.214  0.5071 -1.2741  2.5017
 8836SOL     OW28886   1.229   6.181   4.362  0.0381  0.5265 -0.4589
 8836SOL    HW128887   1.285   6.121   4.412 -1.3918 -0.8580 -0.4221
 8836SOL    HW228888   1.239   6.153   4.271 -1.1849 -0.3024 -0.3657
 8837SOL     OW28889   9.511   0.551   9.905  0.4939 -0.2311 -0.8947
 8837SOL    HW128890   9.562   0.625   9.871  0.0458  0.3431 -0.3467
 8837SOL    HW228891   9.566   0.515   9.976  1.2822 -1.2273 -1.9741
 8838SOL     OW28892   5.194   9.274   4.294  0.1607  0.8444  0.2467
 8838SOL    HW128893   5.258   9.203   4.301  1.9250  2.3664  0.2789
 8838SOL    HW228894   5.129   9.242   4.232  0.4276 -1.1162  0.8908
 8839SOL     OW28895   7.520   2.504   0.570  0.1527  0.0248 -0.4773
 8839SOL    HW128896   7.524   2.536   0.480 -0.2666 -0.5940 -0.7243
 8839SOL    HW228897   7.436   2.459   0.576  0.4579 -0.4994  0.0337
 8840SOL     OW28898   4.092   3.896   7.964 -0.2361  0.3097 -0.8873
 8840SOL    HW128899   4.079   3.991   7.955 -0.0876  0.3820 -0.3569
 8840SOL    HW228900   4.078   3.879   8.057  0.0773 -0.1386 -0.9203
 8841SOL     OW28901   1.818   7.442   2.974  0.7842  0.2026  0.0961
 8841SOL    HW128902   1.833   7.536   2.964 -1.8389  0.4843 -2.3283
 8841SOL    HW228903   1.901   7.402   2.947  1.0675  1.7674 -1.5278
 8842SOL     OW28904   2.068   3.555   0.066 -0.4282  0.5776  0.1067
 8842SOL    HW128905   2.017   3.599   0.134  2.0600  2.4724  0.9207
 8842SOL    HW228906   2.157   3.551   0.103  0.6549  0.1671 -2.3718
 8843SOL     OW28907   4.011   8.039  10.194 -0.2775  0.3946  0.5730
 8843SOL    HW128908   4.002   8.081  10.279 -1.2056  0.0001  0.6900
 8843SOL    HW228909   4.088   7.982  10.203  1.0844  2.1371  0.3568
 8844SOL     OW28910   2.842   3.936   4.361  0.1065  0.1511  0.1013
 8844SOL    HW128911   2.835   3.881   4.284 -0.0584  1.4830 -0.8658
 8844SOL    HW228912   2.776   3.901   4.421  0.5707 -1.2002 -0.1391
 8845SOL     OW28913   1.539   9.157   7.839 -0.0921 -0.5920  0.6714
 8845SOL    HW128914   1.531   9.144   7.933  0.2803  0.9609  0.9521
 8845SOL    HW228915   1.624   9.200   7.827 -0.1637 -0.7048 -0.3573
 8846SOL     OW28916   2.365   3.329   3.627 -0.1201  0.2790 -0.1766
 8846SOL    HW128917   2.297   3.294   3.685  0.6357 -1.8022 -0.4561
 8846SOL    HW228918   2.446   3.322   3.678  0.1359  1.2558 -0.4222
 8847SOL     OW28919   1.775   6.695   9.948 -0.0211 -0.1461  0.1922
 8847SOL    HW128920   1.829   6.615   9.953 -1.1633 -0.8799  1.2218
 8847SOL    HW228921   1.833   6.760   9.907  1.2613 -1.2205  0.2274
 8848SOL     OW28922   8.357   9.149  10.513 -0.0198  0.3404  0.9664
 8848SOL    HW128923   8.350   9.054  10.499 -0.4378  0.6941 -1.9043
 8848SOL    HW228924   8.281   9.185  10.467  1.6008  2.2103 -0.4129
 8849SOL     OW28925   9.712   7.336   9.380 -0.7421 -0.3849 -0.7014
 8849SOL    HW128926   9.801   7.324   9.347 -1.2693 -0.5189 -2.1833
 8849SOL    HW228927   9.690   7.426   9.354 -0.2947  0.4761  1.6225
 8850SOL     OW28928   9.545   3.169   8.367 -0.2484 -0.3718  0.4068
 8850SOL    HW128929   9.640   3.163   8.360 -0.0263  1.7711  0.9807
 8850SOL    HW228930   9.528   3.166   8.462 -0.6206  0.5765  0.3789
 8851SOL     OW28931   0.795   4.550  10.571  0.4045 -0.3762 -0.4951
 8851SOL    HW128932   0.787   4.496  10.650  0.9663 -1.6612 -1.2973
 8851SOL    HW228933   0.705   4.558  10.538  0.3359 -0.9315 -0.4451
 8852SOL     OW28934   9.210   9.807   6.231  0.2215  0.0646 -0.2297
 8852SOL    HW128935   9.116   9.794   6.226  0.1040  0.5431  0.5178
 8852SOL    HW228936   9.237   9.826   6.141 -0.8321  2.7125 -0.0727
 8853SOL     OW28937   2.637   0.816   0.589  0.0513 -0.0829  0.2075
 8853SOL    HW128938   2.645   0.911   0.598  1.6224 -0.1347 -0.3090
 8853SOL    HW228939   2.720   0.788   0.549  0.3053 -1.8668  1.8273
 8854SOL     OW28940   0.212   9.001   9.601  0.5147  0.3652 -0.4079
 8854SOL    HW128941   0.164   8.965   9.675 -1.1097  0.6419 -1.2839
 8854SOL    HW228942   0.266   8.928   9.570  2.6199  0.7248  2.0671
 8855SOL     OW28943   8.321   9.327   1.765 -0.6554  0.8918 -0.0187
 8855SOL    HW128944   8.411   9.311   1.738 -0.9510 -0.2553 -0.4117
 8855SOL    HW228945   8.268   9.294   1.692 -1.4024  1.0539  0.4366
 8856SOL     OW28946   5.967   7.665   1.942  0.2103 -0.3185  0.1586
 8856SOL    HW128947   6.052   7.627   1.964  1.5360  1.7204 -1.0170
 8856SOL    HW228948   5.938   7.617   1.865 -0.5135 -2.0548  1.4544
 8857SOL     OW28949   9.398   4.208   1.537  0.5966  0.3605 -0.4174
 8857SOL    HW128950   9.319   4.169   1.499  0.6284 -2.1418  1.7786
 8857SOL    HW228951   9.469   4.181   1.478  0.1828 -0.1214 -0.7039
 8858SOL     OW28952   6.661   0.408  10.086  0.1485 -0.4336 -0.5393
 8858SOL    HW128953   6.702   0.451  10.011 -1.5626 -0.1087 -1.3482
 8858SOL    HW228954   6.619   0.331  10.049  0.7811 -1.2628  0.4226
 8859SOL     OW28955   2.899   8.053   3.004  0.8835  0.7872  0.0936
 8859SOL    HW128956   2.846   8.123   3.043  0.9375  0.3227  1.0269
 8859SOL    HW228957   2.973   8.098   2.963  0.0729  1.3992 -0.7384
 8860SOL     OW28958   4.605   9.769   5.139  0.0314  0.0008  0.2984
 8860SOL    HW128959   4.649   9.702   5.086 -0.8435 -0.8091  0.5704
 8860SOL    HW228960   4.589   9.727   5.223  0.0100  0.7614  0.6855
 8861SOL     OW28961   7.839   1.622   0.575 -0.0623 -0.2264  0.2866
 8861SOL    HW128962   7.825   1.581   0.489  1.0733 -0.8052  0.3629
 8861SOL    HW228963   7.931   1.650   0.573  0.3748 -1.4407  1.8013
 8862SOL     OW28964   8.750   1.001   5.868  0.1673  0.9309  0.0139
 8862SOL    HW128965   8.705   0.977   5.787 -2.0472 -0.3619  1.5281
 8862SOL    HW228966   8.784   0.918   5.902  0.3570  1.3213  0.8058
 8863SOL     OW28967   1.618   5.867   8.167 -0.1712  0.8838  0.3098
 8863SOL    HW128968   1.643   5.950   8.208 -0.4650  1.2847 -0.3147
 8863SOL    HW228969   1.697   5.814   8.170  0.1498  1.3560  0.2832
 8864SOL     OW28970   1.275   7.852   1.953  0.0246  0.3899 -0.5044
 8864SOL    HW128971   1.193   7.831   1.908  0.3617 -0.0043 -0.9470
 8864SOL    HW228972   1.323   7.907   1.890  1.2210 -1.5397 -1.3644
 8865SOL     OW28973   3.212   8.187   6.133 -0.9903 -0.1705  0.3309
 8865SOL    HW128974   3.239   8.135   6.208  0.1284 -1.0118 -0.6154
 8865SOL    HW228975   3.135   8.236   6.163 -2.2426 -2.5235  1.1917
 8866SOL     OW28976   7.762   2.697   0.309  0.8033  0.9796  0.3684
 8866SOL    HW128977   7.673   2.732   0.298  0.3035 -0.4103 -0.2422
 8866SOL    HW228978   7.803   2.709   0.224  0.7090  0.3382  0.2268
 8867SOL     OW28979   7.003   2.289   9.670  0.3458  0.3234 -0.1506
 8867SOL    HW128980   6.998   2.263   9.762  1.6426  0.4078 -0.0331
 8867SOL    HW228981   6.972   2.213   9.621 -0.1013  0.1816  0.3422
 8868SOL     OW28982  10.074   2.863   3.602 -0.6995  0.8243  0.0431
 8868SOL    HW128983  10.011   2.792   3.614 -2.1061  1.9631 -0.3462
 8868SOL    HW228984  10.021   2.938   3.574  0.7827  1.9374  0.0936
 8869SOL     OW28985   1.972   4.297  10.744 -0.1960  0.2021 -0.7506
 8869SOL    HW128986   2.022   4.299  10.825  1.2043 -0.4960 -1.5550
 8869SOL    HW228987   1.880   4.297  10.771  0.2325  1.0013  0.7823
 8870SOL     OW28988   7.752   1.615   6.267 -0.0794 -0.6852 -0.2035
 8870SOL    HW128989   7.709   1.622   6.182 -1.7498 -3.1500  0.3298
 8870SOL    HW228990   7.779   1.523   6.273  2.2847 -0.0079  0.9485
 8871SOL     OW28991   8.508   5.954   8.772 -0.3969  0.1396 -0.8367
 8871SOL    HW128992   8.477   5.863   8.769 -0.8196  0.2980 -1.5456
 8871SOL    HW228993   8.535   5.967   8.863  0.5879 -0.9936 -0.9373
 8872SOL     OW28994   2.352   7.469   4.506 -0.3680 -0.6057 -0.1680
 8872SOL    HW128995   2.380   7.542   4.562 -0.5399 -1.6265  1.3120
 8872SOL    HW228996   2.359   7.503   4.417  1.1889  0.6580  0.3889
 8873SOL     OW28997   9.543  10.769   7.198  0.3625 -0.3098  0.5947
 8873SOL    HW128998   9.613  10.753   7.134  0.3697 -1.3877  0.8387
 8873SOL    HW228999   9.588  10.767   7.283  0.3568  1.1304  0.6476
 8874SOL     OW29000   9.364   5.804   1.159  0.3591 -0.2388  0.3502
 8874SOL    HW129001   9.342   5.895   1.139  2.0219  0.1206 -0.0207
 8874SOL    HW229002   9.392   5.806   1.251  0.7250 -0.3054  0.2413
 8875SOL     OW29003   8.727   2.875   0.891 -0.8979  0.2176  0.3461
 8875SOL    HW129004   8.726   2.935   0.965 -1.1596 -1.0214  1.3949
 8875SOL    HW229005   8.811   2.890   0.848 -0.2627  0.2258  1.5441
 8876SOL     OW29006   5.459   3.473   9.501  0.3467 -0.0444 -0.0838
 8876SOL    HW129007   5.532   3.523   9.536  0.0937  1.3238 -1.4136
 8876SOL    HW229008   5.493   3.433   9.421 -0.6435  1.6327 -1.4061
 8877SOL     OW29009   3.470   5.270   6.284 -0.4063  0.3121  0.2227
 8877SOL    HW129010   3.467   5.298   6.376  2.7561 -0.0640  0.5506
 8877SOL    HW229011   3.421   5.188   6.283 -1.3596  0.8251  1.3132
 8878SOL     OW29012   2.141   6.144   1.131  0.2422  0.6843 -0.0075
 8878SOL    HW129013   2.164   6.234   1.105 -0.6879  1.1840  0.8438
 8878SOL    HW229014   2.156   6.092   1.052  1.4702  1.4535 -0.3215
 8879SOL     OW29015   2.308   7.920   8.896 -0.2844  0.1839  0.2574
 8879SOL    HW129016   2.280   7.881   8.979 -0.5095  0.7501  0.4499
 8879SOL    HW229017   2.237   7.900   8.835  0.6284 -1.7035 -0.2588
 8880SOL     OW29018   7.153   7.702   3.467  0.3029 -0.3243 -0.4062
 8880SOL    HW129019   7.093   7.678   3.396  0.5550  0.8825 -1.0603
 8880SOL    HW229020   7.164   7.621   3.517  0.4560 -1.3313 -1.9780
 8881SOL     OW29021   2.679  10.582   4.098 -0.7285  0.4367  0.1207
 8881SOL    HW129022   2.773  10.584   4.111 -0.9077 -1.4548  2.2011
 8881SOL    HW229023   2.646  10.656   4.148 -0.6170 -1.5638  3.4928
 8882SOL     OW29024   2.242  10.723   4.936  0.1649  0.4451 -0.0298
 8882SOL    HW129025   2.309  10.792   4.933 -2.1483  2.8668 -1.1191
 8882SOL    HW229026   2.257  10.672   4.857  2.3438 -0.8346  1.1388
 8883SOL     OW29027  10.689   0.693   7.378 -0.4592 -0.1463 -0.4521
 8883SOL    HW129028  10.778   0.670   7.350  0.0309  0.2590  0.7269
 8883SOL    HW229029  10.642   0.710   7.296  0.0686 -2.0092 -1.1847
 8884SOL     OW29030   4.192   7.306   4.791 -0.1869 -0.2388 -0.5286
 8884SOL    HW129031   4.199   7.370   4.720 -1.9980  0.2009 -0.3610
 8884SOL    HW229032   4.159   7.227   4.749 -2.2872  0.3344 -0.0896
 8885SOL     OW29033   3.825   7.613   3.406 -0.0430 -0.4210  0.2654
 8885SOL    HW129034   3.863   7.587   3.322 -0.1735 -2.1208  0.7083
 8885SOL    HW229035   3.731   7.600   3.394 -0.0486 -0.8032  0.7138
 8886SOL     OW29036   2.202   7.074   2.954  0.3897  0.1189  0.1256
 8886SOL    HW129037   2.275   7.133   2.936 -0.8158  0.8530 -2.8514
 8886SOL    HW229038   2.217   6.999   2.897  0.0673 -0.9023  1.3223
 8887SOL     OW29039   1.203   8.383   5.122 -0.0037 -0.1964 -0.2870
 8887SOL    HW129040   1.145   8.307   5.130  0.6461 -0.7976 -1.1139
 8887SOL    HW229041   1.226   8.405   5.213 -2.1172  0.5549  0.1090
 8888SOL     OW29042   4.941   5.581   2.011 -0.5270 -0.5214  0.2884
 8888SOL    HW129043   4.872   5.561   2.075 -2.2628  2.0661 -0.6441
 8888SOL    HW229044   5.023   5.565   2.059 -1.7484 -1.3182  2.2377
 8889SOL     OW29045   7.358   4.735   0.364  0.5927 -0.9230 -0.2631
 8889SOL    HW129046   7.449   4.740   0.337  0.9583 -0.6839  0.9413
 8889SOL    HW229047   7.354   4.784   0.446 -0.4121 -1.7477  0.2115
 8890SOL     OW29048   2.656   9.774   6.504 -0.1546 -0.9472  0.0818
 8890SOL    HW129049   2.714   9.746   6.434  0.0210 -2.0027  0.6370
 8890SOL    HW229050   2.714   9.809   6.571 -0.2847 -0.4677 -0.0497
 8891SOL     OW29051   8.647   2.185   2.050 -0.1916  0.0457 -0.3033
 8891SOL    HW129052   8.553   2.172   2.042 -0.2529  0.1620  0.1933
 8891SOL    HW229053   8.659   2.280   2.054 -0.0252  0.0431 -0.6877
 8892SOL     OW29054   3.357   3.710   3.412 -0.5405 -0.0470  0.0546
 8892SOL    HW129055   3.376   3.649   3.340 -2.6173  0.3479 -0.8872
 8892SOL    HW229056   3.276   3.676   3.451 -0.7357  1.0993  0.6771
 8893SOL     OW29057   2.121  10.595   3.781  0.5804  0.8625 -0.3198
 8893SOL    HW129058   2.204  10.588   3.734  0.3333  0.7010 -0.7327
 8893SOL    HW229059   2.086  10.680   3.754  0.8856  1.2029  0.3123
 8894SOL     OW29060   0.323   4.364   2.456 -0.3523 -0.1565  0.0510
 8894SOL    HW129061   0.244   4.331   2.498 -0.3960  1.9371  1.7833
 8894SOL    HW229062   0.300   4.452   2.425  1.1750  0.3618  0.2688
 8895SOL     OW29063   8.029   7.563  10.246 -0.6013  0.3064  0.2172
 8895SOL    HW129064   8.014   7.506  10.321  2.1668 -2.2267 -0.9516
 8895SOL    HW229065   8.102   7.618  10.271 -0.6569  0.5151 -0.0697
 8896SOL     OW29066   8.717   4.449   6.745  0.2546  0.4527 -0.1065
 8896SOL    HW129067   8.641   4.393   6.763  1.1371 -0.8519 -0.3336
 8896SOL    HW229068   8.713   4.465   6.651  0.0868  0.6652 -0.0654
 8897SOL     OW29069   3.717   7.453   6.031  0.3250 -0.5125  0.3364
 8897SOL    HW129070   3.729   7.533   5.979 -1.2280  0.3450  1.2075
 8897SOL    HW229071   3.691   7.387   5.967 -0.1694  0.1690 -0.1893
 8898SOL     OW29072  10.421   2.324   1.579  0.2552  0.3442  0.3676
 8898SOL    HW129073  10.391   2.235   1.560  0.8499  0.2525 -0.1586
 8898SOL    HW229074  10.504   2.332   1.533  0.6247  0.8906  1.1067
 8899SOL     OW29075   4.066   4.061   7.188  0.3247  0.0139  0.5320
 8899SOL    HW129076   4.049   3.968   7.199  1.2515 -0.0136  2.0519
 8899SOL    HW229077   4.115   4.067   7.106  0.2626 -0.8273  0.4223
 8900SOL     OW29078  10.599   7.449  10.562  0.2060  0.2378  0.3372
 8900SOL    HW129079  10.628   7.527  10.514 -0.2473  1.1015  1.4120
 8900SOL    HW229080  10.530   7.411  10.507 -1.3637  2.0599  0.9403
 8901SOL     OW29081   3.235   5.669  10.112  0.3414  0.2531  0.1050
 8901SOL    HW129082   3.199   5.639  10.028 -1.3687  1.0552  0.5078
 8901SOL    HW229083   3.328   5.684  10.094 -0.1145  1.0534 -1.8450
 8902SOL     OW29084   8.204  10.635   0.356  0.1997  0.2354  0.8035
 8902SOL    HW129085   8.266  10.669   0.420  1.5152 -0.1432 -0.2224
 8902SOL    HW229086   8.224  10.682   0.275  0.8685 -1.6763 -0.1852
 8903SOL     OW29087   8.559   2.840   0.655 -0.0070 -0.3940 -0.6763
 8903SOL    HW129088   8.623   2.841   0.727 -0.6528 -0.5196 -0.0911
 8903SOL    HW229089   8.608   2.873   0.579  0.6279 -0.0494 -0.1309
 8904SOL     OW29090  10.468   9.643   7.191 -0.0479 -0.7483  0.2818
 8904SOL    HW129091  10.549   9.667   7.237 -0.1694 -1.2015  0.7412
 8904SOL    HW229092  10.438   9.564   7.236 -1.9425  0.6312  1.5668
 8905SOL     OW29093   3.212   7.663   6.175  0.3516  0.2224 -0.1265
 8905SOL    HW129094   3.268   7.598   6.218  0.1865  0.1788  0.0227
 8905SOL    HW229095   3.266   7.742   6.171 -0.2449  0.7920  1.8107
 8906SOL     OW29096   5.098   7.635   5.477 -0.1070 -0.5717 -0.0614
 8906SOL    HW129097   5.119   7.576   5.405  0.6404  1.0511 -1.2554
 8906SOL    HW229098   5.176   7.634   5.532  1.0617  1.2702 -1.5427
 8907SOL     OW29099   0.895   1.249  10.348  0.2403  0.2478  0.0982
 8907SOL    HW129100   0.935   1.278  10.266  1.5607  0.3611  0.7527
 8907SOL    HW229101   0.924   1.312  10.414  2.0821 -1.7126  1.2951
 8908SOL     OW29102   1.101  10.118   5.735  0.6076  0.4226  0.2721
 8908SOL    HW129103   1.175  10.171   5.765  0.3640  0.3255  1.0436
 8908SOL    HW229104   1.026  10.150   5.785  0.2360  0.1218 -0.0835
 8909SOL     OW29105   0.424   3.709   3.938  0.5953 -0.4685  0.0853
 8909SOL    HW129106   0.427   3.804   3.926  1.5991 -0.2534  1.7265
 8909SOL    HW229107   0.486   3.675   3.873  0.9527  0.0715  0.1400
 8910SOL     OW29108   5.121   9.683   7.731  0.5269  0.7652 -0.6538
 8910SOL    HW129109   5.039   9.712   7.692  1.0725  0.3403 -2.1745
 8910SOL    HW229110   5.095   9.640   7.813 -0.5384  2.6993  0.0745
 8911SOL     OW29111  10.042   3.665   2.638 -0.1177 -0.4310 -0.5400
 8911SOL    HW129112  10.117   3.692   2.585  0.5683 -1.2415 -0.0113
 8911SOL    HW229113   9.969   3.664   2.576 -0.1037  2.1047 -0.6857
 8912SOL     OW29114   5.981   3.880  10.254  0.1548  0.3207 -0.1609
 8912SOL    HW129115   5.969   3.975  10.247  1.3647  0.4414 -0.7692
 8912SOL    HW229116   5.907   3.851  10.308  0.9731  1.8951  1.9270
 8913SOL     OW29117   3.770   3.012   2.596  0.3728 -0.7639 -0.0513
 8913SOL    HW129118   3.686   2.981   2.562 -0.6694  0.1435  1.5878
 8913SOL    HW229119   3.752   3.099   2.630  1.8987 -0.6958  0.6684
 8914SOL     OW29120   2.502   8.806   3.618 -0.2440 -0.0316 -0.1702
 8914SOL    HW129121   2.586   8.768   3.593 -0.2322 -1.2408  1.5746
 8914SOL    HW229122   2.510   8.899   3.596  1.5424 -0.1249 -0.0431
 8915SOL     OW29123   6.808   0.382   1.899  0.2664  0.4754  0.0550
 8915SOL    HW129124   6.898   0.403   1.873  0.4984 -0.0993  0.3741
 8915SOL    HW229125   6.817   0.312   1.964 -0.4235  0.2152 -0.1152
 8916SOL     OW29126   0.944   4.616   1.889 -0.4482 -0.3123  0.2529
 8916SOL    HW129127   0.886   4.584   1.958 -1.3045 -1.0964 -0.7955
 8916SOL    HW229128   1.019   4.556   1.889  0.0604  0.3077  1.1693
 8917SOL     OW29129   5.704   3.024   7.440  0.4173  0.3409  0.4360
 8917SOL    HW129130   5.678   3.093   7.502 -2.3448 -0.0853 -0.0884
 8917SOL    HW229131   5.629   2.964   7.440  1.2376 -0.7738 -1.7610
 8918SOL     OW29132   1.296   2.630   6.945  0.4002  0.3164 -0.5930
 8918SOL    HW129133   1.211   2.658   6.912  1.1692  1.8969 -1.3424
 8918SOL    HW229134   1.320   2.555   6.891 -1.2175 -1.2131  0.7180
 8919SOL     OW29135   7.143   8.598   1.903 -0.0777  0.3032 -0.0241
 8919SOL    HW129136   7.177   8.667   1.846  0.1979 -0.4387 -0.7891
 8919SOL    HW229137   7.108   8.533   1.843 -2.8841  0.9845  0.7169
 8920SOL     OW29138   1.476   5.312   5.182 -0.1905  0.3977  0.3114
 8920SOL    HW129139   1.557   5.357   5.207  0.4767 -0.1557 -0.7823
 8920SOL    HW229140   1.422   5.381   5.144  1.3646  0.1572 -2.6266
 8921SOL     OW29141   3.499   7.808   0.518 -0.3339  0.3478 -0.0328
 8921SOL    HW129142   3.553   7.784   0.593 -1.0328  0.7266  0.5977
 8921SOL    HW229143   3.458   7.891   0.542 -2.3994 -0.6538  0.1634
 8922SOL     OW29144   8.322   5.938   6.062 -0.2105 -0.2459 -0.4386
 8922SOL    HW129145   8.299   5.850   6.033  0.3147 -0.5575  0.0538
 8922SOL    HW229146   8.418   5.940   6.059 -0.2482  1.0925 -2.6759
 8923SOL     OW29147   6.720   2.115   4.432  0.5415 -0.1588  0.7205
 8923SOL    HW129148   6.631   2.149   4.436  1.0683  1.1259  1.8020
 8923SOL    HW229149   6.713   2.038   4.374 -1.2237 -0.0070  0.6844
 8924SOL     OW29150  10.320   8.839   1.710 -0.0566 -0.0951  0.3205
 8924SOL    HW129151  10.315   8.888   1.792  1.8590 -0.8323  0.9495
 8924SOL    HW229152  10.321   8.747   1.737  2.6078 -0.3416 -0.2742
 8925SOL     OW29153   9.667  10.685   0.971 -0.0577 -0.1736  0.0370
 8925SOL    HW129154   9.718  10.654   0.896  0.7488  0.9874  0.0801
 8925SOL    HW229155   9.716  10.760   1.004 -1.0703  0.1110  0.9535
 8926SOL     OW29156  10.001   2.088   7.844  0.3161  0.4746  0.0738
 8926SOL    HW129157  10.078   2.053   7.800  0.2465  1.2128 -0.6711
 8926SOL    HW229158  10.027   2.175   7.873 -0.2256  0.7381 -0.1989
 8927SOL     OW29159   8.036   8.717   5.044 -0.0339 -0.0614  0.5373
 8927SOL    HW129160   8.074   8.712   4.955 -0.6632  1.1717  0.1804
 8927SOL    HW229161   8.088   8.784   5.088 -0.6008  0.3090  0.6503
 8928SOL     OW29162   5.232  10.162   7.361  0.3654  0.1012  0.2044
 8928SOL    HW129163   5.303  10.099   7.371  0.0370 -0.6084 -1.5712
 8928SOL    HW229164   5.272  10.238   7.318  0.0925 -0.2616 -0.7140
 8929SOL     OW29165  10.563   0.612   7.616  0.0566  0.1483  0.3169
 8929SOL    HW129166  10.624   0.622   7.690 -1.1654  0.4016  1.3344
 8929SOL    HW229167  10.608   0.653   7.542  1.8675 -1.2607  0.5761
 8930SOL     OW29168   3.669   6.843   4.070  0.3239 -0.0511 -1.2486
 8930SOL    HW129169   3.753   6.886   4.084 -0.1074  0.6535 -0.7078
 8930SOL    HW229170   3.610   6.914   4.044 -0.6279 -0.1043  0.6024
 8931SOL     OW29171   4.619   9.117  10.771  0.3843 -0.2141 -0.5919
 8931SOL    HW129172   4.678   9.058  10.725 -0.3914 -0.8782 -0.7689
 8931SOL    HW229173   4.535   9.107  10.725 -0.4048 -0.8450  0.8948
 8932SOL     OW29174   3.757   0.917   4.811  0.7803 -0.0443 -0.1527
 8932SOL    HW129175   3.796   0.858   4.875  0.3880  1.2572  1.3256
 8932SOL    HW229176   3.818   0.990   4.805  0.0507  0.5853 -0.0808
 8933SOL     OW29177   2.471   5.860   0.717  0.3624  0.0021 -0.2982
 8933SOL    HW129178   2.479   5.938   0.771  1.9332 -0.5854  0.4009
 8933SOL    HW229179   2.557   5.852   0.674 -0.7675  0.3504 -2.7820
 8934SOL     OW29180   4.278   8.062   2.311  0.1999  0.1803 -0.3816
 8934SOL    HW129181   4.191   8.026   2.327  0.3461 -0.1707 -0.3615
 8934SOL    HW229182   4.334   7.985   2.299  0.7897  0.3400  1.1007
 8935SOL     OW29183   5.492   6.720   5.171 -0.4529 -0.1950 -0.4390
 8935SOL    HW129184   5.548   6.665   5.226 -0.2670  0.4971  0.0733
 8935SOL    HW229185   5.552   6.776   5.123 -0.6056 -0.9238 -1.5111
 8936SOL     OW29186   4.954   1.915   6.608 -0.3763  1.2778  0.1497
 8936SOL    HW129187   4.911   1.860   6.673 -0.9268  1.4940 -0.0264
 8936SOL    HW229188   5.047   1.905   6.626 -0.5209  1.3072  0.9433
 8937SOL     OW29189   3.897   1.037   4.457  0.2215 -0.5508 -0.4474
 8937SOL    HW129190   3.822   1.076   4.501  1.3994  1.0696  0.2294
 8937SOL    HW229191   3.909   1.091   4.379  1.9394  0.6237  0.5567
 8938SOL     OW29192   9.724   8.923   3.477  0.3741 -0.2834 -0.2495
 8938SOL    HW129193   9.679   8.924   3.392 -1.0073  0.2706  0.4637
 8938SOL    HW229194   9.805   8.875   3.460  0.9983  1.3669 -2.3031
 8939SOL     OW29195   4.407  10.372  10.148  0.7443 -0.0194  0.4933
 8939SOL    HW129196   4.464  10.295  10.138 -0.5610 -0.9946  0.1570
 8939SOL    HW229197   4.381  10.393  10.058  0.4374  0.2947  0.6558
 8940SOL     OW29198   9.180   7.942   4.870 -0.2023 -0.4864 -0.0476
 8940SOL    HW129199   9.237   7.872   4.902 -0.1667 -1.0492 -1.2667
 8940SOL    HW229200   9.192   7.941   4.775 -0.2217  1.1793 -0.0866
 8941SOL     OW29201   1.388   6.936  10.479 -0.2338  0.0375  0.2250
 8941SOL    HW129202   1.438   6.861  10.510  0.6238  0.6687  0.3995
 8941SOL    HW229203   1.319   6.948  10.544  0.0997 -0.1171  0.6104
 8942SOL     OW29204   2.450   2.745   2.099  0.2108 -0.1121  0.4923
 8942SOL    HW129205   2.494   2.700   2.171  0.6656 -1.2664 -0.4684
 8942SOL    HW229206   2.366   2.774   2.135  0.0820 -1.3874  1.2488
 8943SOL     OW29207   6.288   9.275   6.402  0.4593 -0.3116  0.6938
 8943SOL    HW129208   6.233   9.208   6.361  2.6101 -0.5488 -2.1044
 8943SOL    HW229209   6.226   9.340   6.435 -1.5676 -2.1445  0.7527
 8944SOL     OW29210   1.920   1.379   7.802 -0.7301 -0.2501  0.0677
 8944SOL    HW129211   1.997   1.323   7.789 -1.2717 -0.6807 -1.4500
 8944SOL    HW229212   1.858   1.352   7.734 -3.0989 -1.3198  2.4719
 8945SOL     OW29213  10.178   1.073   0.492 -0.6786  0.4122  0.0179
 8945SOL    HW129214  10.131   0.997   0.524 -0.1606  0.1617  0.2022
 8945SOL    HW229215  10.232   1.040   0.420  1.0200  0.1627  1.3257
 8946SOL     OW29216   3.202   0.131   3.103  0.0954 -0.9365 -0.0985
 8946SOL    HW129217   3.203   0.069   3.031  2.0001 -1.8280  0.6212
 8946SOL    HW229218   3.184   0.079   3.181  0.4307 -0.3920  0.3586
 8947SOL     OW29219   3.493   4.177   4.756 -0.1216 -0.0423  0.4725
 8947SOL    HW129220   3.425   4.189   4.689 -0.9320  3.4159  1.7057
 8947SOL    HW229221   3.472   4.093   4.797 -3.0967  0.4367  0.1246
 8948SOL     OW29222   7.278   7.438   9.906 -0.3049 -0.4976 -0.0867
 8948SOL    HW129223   7.288   7.463   9.814  1.3702  2.0383  0.6879
 8948SOL    HW229224   7.183   7.445   9.922 -0.3931  1.2350 -1.1016
 8949SOL     OW29225   8.181   5.938  10.191  0.1479 -0.4871  0.3447
 8949SOL    HW129226   8.276   5.949  10.198  0.1430 -1.0547  1.4808
 8949SOL    HW229227   8.168   5.896  10.105  0.8315  0.4797 -0.2471
 8950SOL     OW29228  10.345   2.243   7.471 -0.6323  0.0472  0.6482
 8950SOL    HW129229  10.306   2.156   7.460  0.6038 -0.6422  1.4583
 8950SOL    HW229230  10.398   2.257   7.392  0.3653 -0.6150  1.1745
 8951SOL     OW29231   2.556   8.693   6.120 -0.8839 -0.0291 -0.1858
 8951SOL    HW129232   2.582   8.775   6.078 -1.3658  0.5165  0.5694
 8951SOL    HW229233   2.637   8.658   6.156 -0.3744 -0.7048 -1.8513
 8952SOL     OW29234   9.989   4.727   8.904 -0.2621 -0.7741  0.0373
 8952SOL    HW129235  10.027   4.654   8.856 -0.0590 -1.2830  0.9445
 8952SOL    HW229236   9.996   4.802   8.844  0.3084 -1.3060 -0.5741
 8953SOL     OW29237   8.121  10.614  10.577 -0.0801  0.2216 -0.2253
 8953SOL    HW129238   8.055  10.658  10.522 -0.1048  0.4575 -0.0074
 8953SOL    HW229239   8.140  10.533  10.530 -0.5099  0.1611 -0.3032
 8954SOL     OW29240   4.270   4.534   3.704  0.6923  0.4936  0.0204
 8954SOL    HW129241   4.306   4.470   3.765  1.8436 -1.2483 -2.3121
 8954SOL    HW229242   4.231   4.481   3.634  0.8235  2.3274 -1.5382
 8955SOL     OW29243   7.416   4.309   4.691  0.2928  0.0295 -0.0622
 8955SOL    HW129244   7.421   4.267   4.777  0.1393 -0.2628 -0.1941
 8955SOL    HW229245   7.358   4.252   4.640  1.6564 -0.6787 -0.8610
 8956SOL     OW29246   5.470   6.787   8.966  0.5820  0.2996 -0.2496
 8956SOL    HW129247   5.518   6.704   8.962  0.5835  0.2013  1.3611
 8956SOL    HW229248   5.402   6.778   8.900  2.4189  0.2384 -2.2536
 8957SOL     OW29249   1.923   0.358   8.580  0.1682 -0.2159 -0.2185
 8957SOL    HW129250   1.969   0.439   8.558 -1.5944  0.8174 -0.2926
 8957SOL    HW229251   1.867   0.341   8.503  0.4708 -1.4708 -0.1773
 8958SOL     OW29252   9.780   3.784   1.313  0.0038 -0.0901  0.4825
 8958SOL    HW129253   9.834   3.727   1.367  0.3697  0.3047  0.5410
 8958SOL    HW229254   9.691   3.771   1.346  0.2119  0.0844  1.1250
 8959SOL     OW29255   5.016   6.388   9.890  0.2832  0.4959 -0.3528
 8959SOL    HW129256   5.078   6.414   9.822 -0.0956  2.2786 -0.0513
 8959SOL    HW229257   5.055   6.419   9.971 -0.3042  0.3025  0.0101
 8960SOL     OW29258   6.115   1.634   3.234 -0.0440 -0.5246 -0.7010
 8960SOL    HW129259   6.142   1.695   3.166 -0.8854 -0.0516 -0.6174
 8960SOL    HW229260   6.028   1.663   3.260 -0.0541 -1.1677  0.0333
 8961SOL     OW29261   1.048   6.226   8.819 -0.0920 -0.7677 -0.1100
 8961SOL    HW129262   1.044   6.210   8.913 -0.3586 -1.5335 -0.2442
 8961SOL    HW229263   1.129   6.182   8.791  0.5328  0.3369 -0.0786
 8962SOL     OW29264   9.754   8.013   6.025 -0.0354  0.5796 -0.4774
 8962SOL    HW129265   9.781   8.067   5.950 -0.8133  0.7734 -0.6380
 8962SOL    HW229266   9.819   7.944   6.030  2.3610  2.7658  1.1441
 8963SOL     OW29267   6.623   3.119  10.421 -0.1962 -0.4649  0.1330
 8963SOL    HW129268   6.658   3.179  10.355  0.4072 -1.0047 -0.0427
 8963SOL    HW229269   6.673   3.038  10.410 -2.0956 -1.6123 -0.7652
 8964SOL     OW29270   3.846   1.899   1.181 -0.0269 -0.0801  0.1826
 8964SOL    HW129271   3.851   1.940   1.267  0.7661 -0.9565  0.5735
 8964SOL    HW229272   3.795   1.961   1.128 -0.7159  0.3691  1.3259
 8965SOL     OW29273   3.824   1.931   8.436 -0.1059  0.1441  0.1011
 8965SOL    HW129274   3.883   1.894   8.370  0.3724  1.9630 -0.5384
 8965SOL    HW229275   3.825   2.025   8.419 -2.4347  0.3378  0.7101
 8966SOL     OW29276   5.655   3.074   5.906 -0.0276  0.4228 -0.3435
 8966SOL    HW129277   5.649   3.016   5.982  1.4771 -0.8484 -1.1340
 8966SOL    HW229278   5.732   3.042   5.857 -2.0969 -0.2101 -3.5260
 8967SOL     OW29279   6.815   1.346   7.341  0.3472 -0.3564  0.0596
 8967SOL    HW129280   6.785   1.255   7.329  0.1621 -0.1473 -1.2384
 8967SOL    HW229281   6.755   1.398   7.287  1.0331  0.4312  0.0392
 8968SOL     OW29282   5.476   3.604   8.815  0.1876 -0.2816  0.3369
 8968SOL    HW129283   5.554   3.657   8.797 -0.9399  1.1341 -0.5848
 8968SOL    HW229284   5.428   3.653   8.881 -0.6745 -0.3363 -0.2350
 8969SOL     OW29285   5.897   0.151   0.422  0.3328  0.1554  0.0393
 8969SOL    HW129286   5.974   0.175   0.474  0.4076  1.6677 -0.7082
 8969SOL    HW229287   5.932   0.095   0.353  0.5079 -0.4156  0.5800
 8970SOL     OW29288   7.020   5.577   4.942  0.3498 -0.3525 -0.0175
 8970SOL    HW129289   7.093   5.557   4.883  2.1372  0.8329  1.6679
 8970SOL    HW229290   7.021   5.673   4.948 -0.5708 -0.3983  0.9861
 8971SOL     OW29291   1.161   1.046   5.808 -1.0568  0.4400  0.1343
 8971SOL    HW129292   1.071   1.071   5.790 -1.1252  0.9169  1.1328
 8971SOL    HW229293   1.169   1.047   5.903  0.6481  2.7636  0.0609
 8972SOL     OW29294   2.851   7.863   3.584 -0.1292 -0.5807  0.0476
 8972SOL    HW129295   2.926   7.922   3.595 -0.3689  0.0861 -1.5059
 8972SOL    HW229296   2.871   7.813   3.505 -1.7509  0.3816 -1.0473
 8973SOL     OW29297   1.061   5.383   8.076 -0.1229 -0.6258  0.8396
 8973SOL    HW129298   0.999   5.316   8.047  1.5001 -2.0995  0.5661
 8973SOL    HW229299   1.018   5.426   8.150 -1.5701 -1.3730  0.4706
 8974SOL     OW29300   4.460   3.453   5.682  0.6479 -0.2511  0.2810
 8974SOL    HW129301   4.545   3.439   5.640  0.5999 -1.8852  0.6648
 8974SOL    HW229302   4.401   3.476   5.610  1.1612 -0.2575 -0.1445
 8975SOL     OW29303   1.503   6.657   0.873  0.0960 -0.1296  0.2653
 8975SOL    HW129304   1.426   6.641   0.927 -0.1245 -0.7275 -0.2099
 8975SOL    HW229305   1.577   6.645   0.932 -0.1582 -0.2799  0.5522
 8976SOL     OW29306   7.928   7.306   5.163  0.0298  0.6080  0.1774
 8976SOL    HW129307   7.950   7.281   5.073 -0.0165 -3.7772  1.1992
 8976SOL    HW229308   7.991   7.375   5.184  0.1425  1.6851 -3.0842
 8977SOL     OW29309   1.365   3.877   3.515  0.2680 -1.0302 -0.6630
 8977SOL    HW129310   1.335   3.950   3.569  2.4788  0.6842 -1.6528
 8977SOL    HW229311   1.343   3.799   3.567 -0.8274  0.3610  1.0782
 8978SOL     OW29312   5.538   6.824   8.506 -0.2713 -0.9547 -0.5767
 8978SOL    HW129313   5.443   6.828   8.516 -0.1054 -0.8412  1.3316
 8978SOL    HW229314   5.562   6.737   8.537  0.2664 -0.9112 -0.8587
 8979SOL     OW29315   1.129   7.093   9.346  0.0865  0.1891  0.3780
 8979SOL    HW129316   1.072   7.046   9.407  0.3454 -1.3467 -0.5131
 8979SOL    HW229317   1.120   7.185   9.372 -0.0168 -0.3599  2.5384
 8980SOL     OW29318   0.783   2.562  10.580  0.1375  0.3981 -0.0016
 8980SOL    HW129319   0.811   2.555  10.671 -3.1101 -0.2693  1.0518
 8980SOL    HW229320   0.812   2.480  10.540 -1.4917 -0.9695  1.4489
 8981SOL     OW29321   3.488   8.847   5.544  0.3020 -0.1465  0.1368
 8981SOL    HW129322   3.581   8.831   5.528  0.3123 -0.2176  0.2629
 8981SOL    HW229323   3.483   8.939   5.570  0.0892  0.4313 -1.8066
 8982SOL     OW29324   6.678   3.991   4.944  0.1041 -0.5573 -0.2458
 8982SOL    HW129325   6.717   3.982   5.031 -2.5594  0.4292  1.1583
 8982SOL    HW229326   6.592   3.951   4.952 -1.3410  2.0504 -1.5890
 8983SOL     OW29327   1.655   1.623   8.334 -0.1460  0.1675  0.2314
 8983SOL    HW129328   1.720   1.686   8.303  0.6235 -0.4207  0.5942
 8983SOL    HW229329   1.707   1.547   8.361 -0.8125  0.3748  2.2750
 8984SOL     OW29330   9.779   3.395   2.609 -0.2361  0.3150  0.6712
 8984SOL    HW129331   9.847   3.421   2.671 -1.1054 -0.7053  2.1074
 8984SOL    HW229332   9.796   3.448   2.531  0.9083  1.6220  1.7583
 8985SOL     OW29333   4.714   6.591   8.808 -0.0770 -0.5387 -0.2676
 8985SOL    HW129334   4.643   6.655   8.812  0.7458  0.3734  0.1365
 8985SOL    HW229335   4.679   6.519   8.756 -2.0131 -1.0305  1.5745
 8986SOL     OW29336   5.295   1.750   3.878  0.7024 -0.5590  0.1036
 8986SOL    HW129337   5.213   1.719   3.838  0.3330  0.0537  0.3765
 8986SOL    HW229338   5.294   1.845   3.865 -0.2134 -0.1026  2.9576
 8987SOL     OW29339   6.192   5.153   3.405 -0.7190 -0.7927  0.1624
 8987SOL    HW129340   6.264   5.098   3.373 -0.0024  0.9650 -1.4596
 8987SOL    HW229341   6.233   5.216   3.463 -0.8018  0.5234 -1.1396
 8988SOL     OW29342   2.282   2.743  10.091 -0.3338  0.2957  0.1611
 8988SOL    HW129343   2.356   2.702  10.047 -2.0567 -3.0877  0.0170
 8988SOL    HW229344   2.275   2.830  10.053  0.5697 -1.0671 -3.5369
 8989SOL     OW29345   4.483   5.423   4.310 -0.1501 -0.2773 -0.4184
 8989SOL    HW129346   4.453   5.334   4.331  0.0838 -0.5340 -1.1529
 8989SOL    HW229347   4.578   5.414   4.298 -0.1352  0.0654 -0.5518
 8990SOL     OW29348   3.127   7.776   3.477  0.1589  0.0554  0.3525
 8990SOL    HW129349   3.204   7.724   3.501  0.7900  0.8100  0.0013
 8990SOL    HW229350   3.079   7.720   3.416 -0.6113 -1.2136  2.0357
 8991SOL     OW29351   0.638   8.804   6.171 -0.4218 -0.0631  0.0556
 8991SOL    HW129352   0.617   8.897   6.162  1.4161  0.4359  0.5212
 8991SOL    HW229353   0.725   8.803   6.211 -0.1361 -1.9812 -0.5197
 8992SOL     OW29354   1.926   8.932   7.216  0.4569  0.1170 -0.1532
 8992SOL    HW129355   1.945   9.024   7.197 -1.4110  0.6190  0.1972
 8992SOL    HW229356   1.830   8.927   7.215  0.5239 -2.0068 -0.9544
 8993SOL     OW29357   1.077   0.361   9.935 -0.0296  0.6253  0.1716
 8993SOL    HW129358   1.154   0.304   9.942  1.2280  1.8974 -2.2257
 8993SOL    HW229359   1.105   0.445   9.971  0.6285  1.8162 -2.8024
 8994SOL     OW29360   3.240   6.122   5.160  0.1073 -0.2916 -0.0054
 8994SOL    HW129361   3.266   6.070   5.084  0.3487 -1.1771  0.6715
 8994SOL    HW229362   3.303   6.099   5.228 -1.1450 -0.8495  1.0072
 8995SOL     OW29363   7.572   4.790   9.620 -0.0468 -0.1000 -0.2092
 8995SOL    HW129364   7.629   4.729   9.667  0.7833  0.9749  0.2120
 8995SOL    HW229365   7.623   4.819   9.545 -0.1904  0.5719 -0.0521
 8996SOL     OW29366   7.299   5.055   0.771 -0.1804  0.3778 -0.2802
 8996SOL    HW129367   7.204   5.070   0.773 -0.3321 -0.4551 -0.6658
 8996SOL    HW229368   7.308   4.963   0.745  0.7197  0.1722  0.6835
 8997SOL     OW29369   3.586   5.408   3.452  0.2981 -0.0805 -0.0007
 8997SOL    HW129370   3.502   5.366   3.432  0.0611  0.1518  0.4927
 8997SOL    HW229371   3.587   5.416   3.547  0.9900 -0.2949  0.0168
 8998SOL     OW29372   1.906   2.175   2.582 -0.1933 -0.2022  0.6284
 8998SOL    HW129373   1.945   2.093   2.552  2.0784  1.1117 -0.2959
 8998SOL    HW229374   1.882   2.221   2.502 -0.5086  0.4723  1.0981
 8999SOL     OW29375   1.994   5.601   3.471 -0.1026  0.8610  0.6630
 8999SOL    HW129376   1.905   5.623   3.445  1.1715  2.9500 -2.5226
 8999SOL    HW229377   2.003   5.508   3.452 -0.9631  1.1277 -1.2433
 9000SOL     OW29378   6.528   4.775   8.423 -0.2600  0.1975 -0.1090
 9000SOL    HW129379   6.561   4.790   8.334  1.8656 -0.4780  0.5184
 9000SOL    HW229380   6.600   4.802   8.480 -1.6320  0.7263  1.4411
 9001SOL     OW29381   3.163   4.934   4.622 -0.1411  0.1433  0.0116
 9001SOL    HW129382   3.149   5.015   4.572 -2.2703  0.2434  0.6472
 9001SOL    HW229383   3.208   4.876   4.562 -1.3930  0.7386 -1.5765
 9002SOL     OW29384   9.477   8.701   8.703 -0.5039 -0.5819 -0.0690
 9002SOL    HW129385   9.564   8.662   8.691 -0.4363 -0.8232  1.0711
 9002SOL    HW229386   9.430   8.638   8.756 -1.5801 -0.7023 -1.1222
 9003SOL     OW29387   8.799   5.436   3.731  0.1876  0.0135 -0.0864
 9003SOL    HW129388   8.707   5.460   3.718  0.3189  0.4486 -0.2449
 9003SOL    HW229389   8.840   5.452   3.646  0.3145 -0.6410 -0.1526
 9004SOL     OW29390   8.870   4.628  10.438 -0.0293  0.0734 -0.0288
 9004SOL    HW129391   8.785   4.668  10.421  0.7486  1.8653  0.0074
 9004SOL    HW229392   8.925   4.655  10.364  0.9917  0.5445  0.8579
 9005SOL     OW29393   3.658   1.735   7.869  0.6324  1.2338  0.3036
 9005SOL    HW129394   3.618   1.715   7.954  0.9110 -0.3131  0.0885
 9005SOL    HW229395   3.615   1.675   7.808 -1.0288  3.6372 -1.0952
 9006SOL     OW29396  10.788   8.256   4.401 -0.3449 -0.4876  0.5404
 9006SOL    HW129397  10.719   8.321   4.410 -2.7894 -3.0820  2.2041
 9006SOL    HW229398  10.800   8.245   4.307  0.7992  2.8269  0.1652
 9007SOL     OW29399   8.623   4.884   1.829  0.3002  0.2172 -0.3764
 9007SOL    HW129400   8.630   4.863   1.735 -0.6536 -0.9388 -0.2105
 9007SOL    HW229401   8.635   4.800   1.873 -0.0366  0.6190  0.4979
 9008SOL     OW29402   2.135   8.273   4.256  0.2364  0.6277  0.2504
 9008SOL    HW129403   2.058   8.297   4.306  0.9904  0.6460  1.4483
 9008SOL    HW229404   2.103   8.211   4.190 -0.7200  0.2886  1.0122
 9009SOL     OW29405   4.282   9.001   3.618 -0.2338 -0.5945  0.3498
 9009SOL    HW129406   4.330   8.956   3.549 -0.7006 -0.0427 -0.3470
 9009SOL    HW229407   4.316   8.963   3.699  0.6540 -0.9232 -0.1600
 9010SOL     OW29408   7.259   4.338   5.794 -0.0105  0.6091 -0.5317
 9010SOL    HW129409   7.351   4.356   5.808 -0.0499 -0.3936  1.3156
 9010SOL    HW229410   7.257   4.246   5.767 -0.4992  0.5082 -0.1584
 9011SOL     OW29411   2.508   8.454   0.602  0.5795 -0.2041 -0.6047
 9011SOL    HW129412   2.436   8.395   0.578  1.7516 -2.5108  1.1517
 9011SOL    HW229413   2.464   8.530   0.643 -0.9278 -0.2699 -2.0012
 9012SOL     OW29414   6.551   6.528   9.104 -0.5238  0.7725 -0.2866
 9012SOL    HW129415   6.534   6.451   9.050  0.3312 -1.2588  2.0922
 9012SOL    HW229416   6.601   6.587   9.048  0.5398 -1.3153 -1.6479
 9013SOL     OW29417   6.164   5.661   7.468  1.1458 -0.2841 -0.0561
 9013SOL    HW129418   6.100   5.599   7.501 -0.1950  0.2744 -1.5102
 9013SOL    HW229419   6.202   5.700   7.547  1.5267 -2.3869  0.8814
 9014SOL     OW29420   4.567   5.125   3.771  0.0235 -0.1313  0.4302
 9014SOL    HW129421   4.535   5.060   3.708 -1.3744  0.4335  0.5257
 9014SOL    HW229422   4.614   5.189   3.718  0.7555 -0.8027  0.2455
 9015SOL     OW29423   3.789   2.925   7.675 -0.5056  0.6633  0.0857
 9015SOL    HW129424   3.788   2.831   7.694 -1.0113  0.7720  0.6437
 9015SOL    HW229425   3.769   2.967   7.759 -2.7472  1.1753 -0.6321
 9016SOL     OW29426   5.366   3.020   7.987  0.3163 -0.0564 -0.2264
 9016SOL    HW129427   5.318   3.084   8.039 -0.7354  0.1633 -1.4169
 9016SOL    HW229428   5.454   3.019   8.025 -0.3513  0.2161  1.4142
 9017SOL     OW29429   4.302   4.525   7.476 -0.0102 -0.3109  0.2974
 9017SOL    HW129430   4.293   4.447   7.421 -1.2054 -0.5148  0.7563
 9017SOL    HW229431   4.396   4.539   7.481  0.4085 -2.9120  1.8158
 9018SOL     OW29432   1.445   1.133   9.094  0.1689 -0.4984 -0.3906
 9018SOL    HW129433   1.388   1.096   9.162  0.5546  0.1900  0.3231
 9018SOL    HW229434   1.413   1.094   9.013  0.8409 -2.8145  0.3530
 9019SOL     OW29435   7.326   0.138   8.337 -0.0797 -0.2922  1.0926
 9019SOL    HW129436   7.319   0.062   8.280  1.9495  0.0048  0.3868
 9019SOL    HW229437   7.307   0.213   8.280  2.2209  0.0272  0.6442
 9020SOL     OW29438   5.144   6.514  10.083  0.0392  0.5148 -0.1613
 9020SOL    HW129439   5.130   6.500  10.177  0.2465  0.0163 -0.1999
 9020SOL    HW229440   5.230   6.556  10.078 -0.0395  0.6825 -0.1204
 9021SOL     OW29441   9.926   8.455   5.552  0.0542 -0.0113 -0.0692
 9021SOL    HW129442   9.880   8.525   5.505 -0.6874  0.0740  0.7535
 9021SOL    HW229443  10.002   8.497   5.591  0.1166  0.1313 -0.3435
 9022SOL     OW29444   1.186  10.763   9.723  0.3968 -0.3731  0.1817
 9022SOL    HW129445   1.165  10.771   9.630  1.4403 -2.5509 -0.3084
 9022SOL    HW229446   1.148  10.679   9.750 -0.5754  0.5725  1.9596
 9023SOL     OW29447   5.869   6.284   4.317 -0.6744 -0.0879 -0.6911
 9023SOL    HW129448   5.918   6.294   4.235 -1.1909  0.6175 -0.9245
 9023SOL    HW229449   5.918   6.336   4.380 -0.1617 -0.7959 -0.4847
 9024SOL     OW29450   5.731   7.308   2.796 -0.0169  0.1191 -0.4404
 9024SOL    HW129451   5.674   7.349   2.860  1.4343  1.3837  0.1081
 9024SOL    HW229452   5.748   7.376   2.731  1.8567  0.2293  0.0941
 9025SOL     OW29453   2.614   6.150   6.382 -0.3737  0.1568  0.3948
 9025SOL    HW129454   2.615   6.108   6.468  0.0847 -0.6888 -0.0089
 9025SOL    HW229455   2.705   6.172   6.365  0.0852 -2.4895 -1.1740
 9026SOL     OW29456   3.300   9.424   6.957 -0.0466  0.2406  0.1346
 9026SOL    HW129457   3.274   9.410   6.866  1.2444  0.8367 -0.3479
 9026SOL    HW229458   3.307   9.519   6.966  0.7085  0.1489  0.5945
 9027SOL     OW29459   6.672   1.215   6.045 -0.4528  0.4815 -0.3484
 9027SOL    HW129460   6.641   1.166   6.121  1.1271  0.6929  0.4661
 9027SOL    HW229461   6.594   1.260   6.012 -1.6549 -1.4344 -0.2844
 9028SOL     OW29462   0.488   5.400   6.251  0.1778  0.2739 -0.1594
 9028SOL    HW129463   0.438   5.398   6.170  0.7792  0.2814 -0.5343
 9028SOL    HW229464   0.570   5.442   6.228  0.0198  1.0689  0.6501
 9029SOL     OW29465  10.070  10.018   2.139 -0.4124 -0.1876 -0.3694
 9029SOL    HW129466  10.073  10.097   2.085  0.0678 -1.2430 -1.9655
 9029SOL    HW229467  10.137   9.961   2.101  0.0761 -0.9246  1.4847
 9030SOL     OW29468   2.325   5.023   7.658 -0.0919 -0.1574 -0.3980
 9030SOL    HW129469   2.270   4.979   7.594 -1.0484 -0.8805  0.8729
 9030SOL    HW229470   2.392   5.067   7.606 -1.2534 -0.1089 -1.9301
 9031SOL     OW29471   3.528   2.764   7.189  0.7053  0.0054 -0.2599
 9031SOL    HW129472   3.554   2.826   7.257  1.8616  0.0424 -0.7134
 9031SOL    HW229473   3.492   2.690   7.237  1.5968 -0.0084  0.4238
 9032SOL     OW29474   4.018   4.267   4.353  0.6608  0.3569 -0.1338
 9032SOL    HW129475   3.954   4.255   4.283  0.7695 -0.6347 -0.0706
 9032SOL    HW229476   3.965   4.272   4.433  0.4847  2.1639 -0.3268
 9033SOL     OW29477   2.355   0.127   0.357  0.5975  0.3816  0.4843
 9033SOL    HW129478   2.260   0.138   0.361  0.5756 -0.1450  1.6598
 9033SOL    HW229479   2.390   0.192   0.418  0.8419 -1.0551  1.9300
 9034SOL     OW29480   5.807   0.338   7.998  0.2961 -0.4367  0.3112
 9034SOL    HW129481   5.874   0.288   8.044  0.1412 -1.1753 -0.2396
 9034SOL    HW229482   5.762   0.388   8.066  0.2466 -1.2980  0.9275
 9035SOL     OW29483   5.854   0.944   2.120 -0.0815  0.1446 -0.2462
 9035SOL    HW129484   5.844   0.949   2.025 -1.2083 -0.9678 -0.2063
 9035SOL    HW229485   5.784   1.000   2.154 -0.3535 -0.2977 -0.0684
 9036SOL     OW29486   2.058   1.332   9.050 -0.2213  0.4405 -0.2096
 9036SOL    HW129487   1.999   1.279   8.996 -0.7523 -0.3653  1.1096
 9036SOL    HW229488   2.106   1.386   8.987 -1.3478  0.0869 -1.4215
 9037SOL     OW29489  10.661   4.212   5.033 -0.0922  0.2143 -0.0855
 9037SOL    HW129490  10.611   4.139   5.068 -0.1802 -0.4756 -1.5888
 9037SOL    HW229491  10.619   4.290   5.069 -1.5873 -0.3879 -0.4648
 9038SOL     OW29492   1.767   0.439   7.727  0.4488  0.2278 -0.0025
 9038SOL    HW129493   1.750   0.462   7.818  0.0046 -0.2080  0.0318
 9038SOL    HW229494   1.750   0.519   7.677 -1.2293 -0.0161  0.0899
 9039SOL     OW29495   5.946   2.368   7.720  0.2098 -0.3943 -0.0611
 9039SOL    HW129496   6.006   2.296   7.702  1.2433  0.8923 -2.1705
 9039SOL    HW229497   6.001   2.446   7.724 -1.1487  0.6607 -0.7298
 9040SOL     OW29498   5.447   9.525   8.795 -0.2218 -0.1324 -0.5532
 9040SOL    HW129499   5.462   9.451   8.736 -0.1854  0.6750 -1.5811
 9040SOL    HW229500   5.361   9.558   8.770 -0.3061  0.0929  0.0117
 9041SOL     OW29501   1.842   4.877   5.130  0.4083  0.3484 -0.3040
 9041SOL    HW129502   1.790   4.913   5.201  0.1255 -0.5014 -0.0722
 9041SOL    HW229503   1.930   4.910   5.145  0.2946  0.3784  0.2930
 9042SOL     OW29504   8.807   5.137   5.342  0.1897  0.0423  0.5020
 9042SOL    HW129505   8.890   5.147   5.296 -1.0658 -1.7940 -2.4250
 9042SOL    HW229506   8.822   5.063   5.402  0.9589  0.4818  0.8733
 9043SOL     OW29507   8.306   8.948   0.138 -0.4421  0.0114  0.6403
 9043SOL    HW129508   8.353   9.018   0.093  0.9101 -1.4544 -0.3534
 9043SOL    HW229509   8.223   8.940   0.091 -0.6938  1.0759  0.8998
 9044SOL     OW29510   5.682   5.536   9.906  0.3855  0.7451  0.0619
 9044SOL    HW129511   5.698   5.605   9.971  0.6414  0.5491  0.2083
 9044SOL    HW229512   5.589   5.517   9.915  0.1057  1.7249 -0.6322
 9045SOL     OW29513   8.126   4.099   1.197  0.2291  0.3148 -0.4276
 9045SOL    HW129514   8.145   4.175   1.143 -1.7664  1.4583  0.3516
 9045SOL    HW229515   8.030   4.094   1.198  0.2962 -1.4547  0.5617
 9046SOL     OW29516   2.124   4.801   9.767 -0.2803  0.3180 -0.0621
 9046SOL    HW129517   2.213   4.804   9.731 -0.4520  0.2628 -0.4947
 9046SOL    HW229518   2.137   4.782   9.860  0.1906  0.9331  0.0023
 9047SOL     OW29519   4.720   2.410   2.458 -0.5115  0.1626 -0.1645
 9047SOL    HW129520   4.703   2.343   2.524 -2.1991  0.6854 -0.0164
 9047SOL    HW229521   4.683   2.490   2.495  3.2315  1.7417  0.5684
 9048SOL     OW29522   9.498   9.544   0.754  0.2458  0.1880  0.0852
 9048SOL    HW129523   9.413   9.501   0.766  0.0359  0.7265  0.6105
 9048SOL    HW229524   9.548   9.522   0.832  1.2561 -1.5601 -0.9949
 9049SOL     OW29525   0.676   1.068   9.008  0.1399  0.1539  0.6077
 9049SOL    HW129526   0.762   1.036   8.980  0.5385  0.4685  1.4554
 9049SOL    HW229527   0.630   0.990   9.039  0.3886  0.1019  0.8446
 9050SOL     OW29528   6.851   5.394   3.300 -0.7105 -0.5840 -0.2076
 9050SOL    HW129529   6.835   5.363   3.211 -2.1798 -1.6391  0.3792
 9050SOL    HW229530   6.781   5.354   3.352 -0.4116  0.7161  1.2719
 9051SOL     OW29531   2.445   7.525   0.196 -0.4179 -0.3212 -0.0177
 9051SOL    HW129532   2.462   7.619   0.190  0.5632 -0.5807 -3.0192
 9051SOL    HW229533   2.529   7.487   0.223 -0.9151 -0.3473  1.5665
 9052SOL     OW29534   2.114   5.266   0.934  0.1704 -0.2154 -0.3218
 9052SOL    HW129535   2.069   5.256   1.018  1.3765  0.8303  0.4857
 9052SOL    HW229536   2.060   5.327   0.885  0.1058  0.1681  0.2121
 9053SOL     OW29537   6.099   3.566   1.381  0.1800 -0.1906 -0.0956
 9053SOL    HW129538   6.046   3.487   1.390 -0.0499  0.0175  0.3985
 9053SOL    HW229539   6.189   3.537   1.396  0.3449 -0.7197 -1.8302
 9054SOL     OW29540   5.608  10.596   4.007 -0.6006 -0.4019 -0.1058
 9054SOL    HW129541   5.595  10.612   3.914  0.9896  1.1373 -0.1008
 9054SOL    HW229542   5.534  10.640   4.049 -1.0594 -0.6834 -0.6002
 9055SOL     OW29543   3.230   2.921   2.329 -0.5765 -0.1290  0.1839
 9055SOL    HW129544   3.219   3.000   2.276 -0.6645 -0.9455 -1.0521
 9055SOL    HW229545   3.298   2.945   2.393 -0.7246  0.9959 -0.0524
 9056SOL     OW29546  10.403   5.763   0.896 -0.0061 -0.2015  0.0927
 9056SOL    HW129547  10.415   5.671   0.871 -1.0389 -0.0140 -1.2404
 9056SOL    HW229548  10.351   5.800   0.824 -0.4274  1.1902  1.0766
 9057SOL     OW29549   0.810   4.427   0.967  0.4959  0.7345 -0.4125
 9057SOL    HW129550   0.733   4.460   0.920  0.2055  0.4433 -0.1458
 9057SOL    HW229551   0.847   4.362   0.908  0.5478  0.8855 -0.5483
 9058SOL     OW29552   6.695   8.017   4.100 -0.0792 -0.4052  0.0487
 9058SOL    HW129553   6.779   8.002   4.144 -0.1728 -0.3520  0.2506
 9058SOL    HW229554   6.675   8.109   4.117 -0.2984 -0.4808  0.2191
 9059SOL     OW29555   5.785   0.031   4.365 -0.3199 -0.0347 -0.0514
 9059SOL    HW129556   5.782   0.040   4.461 -0.3350  2.2962 -0.2066
 9059SOL    HW229557   5.698  -0.002   4.342 -1.7392  2.9062  0.5445
 9060SOL     OW29558   3.000   9.748   9.687  0.1586  0.3483  0.1928
 9060SOL    HW129559   3.052   9.799   9.626  0.3474 -0.1616 -0.0841
 9060SOL    HW229560   2.921   9.725   9.637  0.9411 -1.2665 -0.3667
 9061SOL     OW29561   2.385  10.250   9.471 -0.4655  0.6464  0.0600
 9061SOL    HW129562   2.389  10.279   9.380  0.7678  0.0704 -0.0850
 9061SOL    HW229563   2.393  10.330   9.522  1.1255  0.7760 -0.3427
 9062SOL     OW29564   2.017   1.098   7.263 -0.1152  0.0638  0.3121
 9062SOL    HW129565   2.111   1.118   7.258  0.0431 -0.8066 -0.5397
 9062SOL    HW229566   2.011   1.020   7.317 -0.3388  0.0621  0.2866
 9063SOL     OW29567   4.872   1.648   9.299  0.4012  0.1186  0.3244
 9063SOL    HW129568   4.777   1.643   9.310  0.1138  1.7468 -1.0004
 9063SOL    HW229569   4.889   1.611   9.213  1.2554 -2.0436  1.3625
 9064SOL     OW29570   8.712   6.427   2.460  0.2052 -0.1910  0.5152
 9064SOL    HW129571   8.708   6.469   2.375  0.3463  3.6220  2.2007
 9064SOL    HW229572   8.803   6.397   2.468  0.3409 -0.0378 -0.4244
 9065SOL     OW29573   3.955   2.378   3.669  0.1429 -0.0606 -0.2536
 9065SOL    HW129574   3.903   2.428   3.606  3.7476  0.0171 -3.5462
 9065SOL    HW229575   3.994   2.444   3.726  0.4065  0.3495 -0.9027
 9066SOL     OW29576   1.823   3.509   0.556 -0.3570  0.2450  0.2994
 9066SOL    HW129577   1.728   3.504   0.553 -0.3777 -0.5992  1.6594
 9066SOL    HW229578   1.853   3.418   0.549  0.3122  0.4101  0.8762
 9067SOL     OW29579   4.969   1.144   1.261  0.1409  0.0670 -0.5788
 9067SOL    HW129580   4.903   1.132   1.329 -0.8817  0.1534 -1.5303
 9067SOL    HW229581   5.019   1.063   1.262  0.6785  0.3909  0.8220
 9068SOL     OW29582  10.663   5.740   1.527 -0.0417 -0.1327  0.3899
 9068SOL    HW129583  10.676   5.737   1.621  3.5124  0.2371  0.0245
 9068SOL    HW229584  10.688   5.653   1.496  1.9250  0.6877 -0.4543
 9069SOL     OW29585   3.582   3.684   5.829  0.2415 -0.1114  0.2245
 9069SOL    HW129586   3.564   3.594   5.802 -1.7169  0.5557 -0.9014
 9069SOL    HW229587   3.675   3.684   5.851  0.0344 -2.6896  1.5094
 9070SOL     OW29588   3.816  10.700   1.529 -0.1430 -0.7505  0.1883
 9070SOL    HW129589   3.804  10.646   1.451  0.0321 -1.4044  0.6074
 9070SOL    HW229590   3.839  10.638   1.599  2.0099  0.0313  0.2603
 9071SOL     OW29591   6.568   9.007   7.175 -0.1178  0.1543  0.1863
 9071SOL    HW129592   6.504   8.942   7.146 -0.8620  0.4155  1.1937
 9071SOL    HW229593   6.606   8.969   7.255 -1.2402  1.3468  1.3293
 9072SOL     OW29594   2.210   7.183   8.166 -0.1364 -0.1657  0.2216
 9072SOL    HW129595   2.226   7.260   8.220  1.3512 -1.1054  1.2198
 9072SOL    HW229596   2.219   7.109   8.226  0.8473 -1.2137 -1.1300
 9073SOL     OW29597   9.234   3.628   0.140  0.0096  0.0943  0.0079
 9073SOL    HW129598   9.267   3.711   0.173 -0.5482 -0.2139  1.4358
 9073SOL    HW229599   9.304   3.565   0.156  0.2616  0.1971 -0.6648
 9074SOL     OW29600   7.627   1.400   1.367 -0.4110 -0.8248 -0.3950
 9074SOL    HW129601   7.651   1.387   1.276  0.3792 -0.7566 -0.2033
 9074SOL    HW229602   7.611   1.312   1.401 -0.0822 -0.9032 -0.4375
 9075SOL     OW29603   6.589   7.485   8.825 -0.4517 -0.2184  0.7664
 9075SOL    HW129604   6.677   7.451   8.811 -0.6406 -0.2411 -0.4385
 9075SOL    HW229605   6.598   7.580   8.817 -0.4134 -0.1593  1.4127
 9076SOL     OW29606   9.144   8.083   2.940  0.2578 -0.1381 -0.4763
 9076SOL    HW129607   9.193   8.072   2.858  2.6415  1.6306  0.5901
 9076SOL    HW229608   9.204   8.053   3.008 -0.8536  0.4200  0.7884
 9077SOL     OW29609   4.330  10.349   1.936 -0.1973  0.1761  0.3210
 9077SOL    HW129610   4.341  10.348   2.031 -0.5741 -0.6065  0.3666
 9077SOL    HW229611   4.420  10.347   1.902 -0.0054  1.7770  0.6341
 9078SOL     OW29612   4.899   9.761   1.790  0.2770 -0.0811  0.0759
 9078SOL    HW129613   4.853   9.735   1.870 -0.2279  0.3103 -0.0888
 9078SOL    HW229614   4.939   9.680   1.758 -0.0971 -0.3758  0.3473
 9079SOL     OW29615   2.864   2.956   6.416 -0.6874 -0.4618  0.2775
 9079SOL    HW129616   2.776   2.992   6.417  0.0389  1.4223  1.8539
 9079SOL    HW229617   2.905   2.989   6.496  2.0058  0.1633 -1.2287
 9080SOL     OW29618   6.261   6.844   9.673  0.5102  0.4781  0.2483
 9080SOL    HW129619   6.284   6.896   9.750 -0.3396  0.8176  0.2813
 9080SOL    HW229620   6.242   6.757   9.707 -3.2214  1.4223  0.9562
 9081SOL     OW29621   8.287   0.670   2.770 -0.3108 -0.0752 -0.7310
 9081SOL    HW129622   8.357   0.626   2.817  0.8130  0.3095 -2.0046
 9081SOL    HW229623   8.219   0.603   2.758  0.1516 -0.6531 -0.1584
 9082SOL     OW29624   1.470   7.225   7.230 -0.2349 -0.5653 -0.2759
 9082SOL    HW129625   1.442   7.280   7.157 -0.5244 -1.9411 -1.2350
 9082SOL    HW229626   1.461   7.282   7.307 -0.0937  0.8520 -1.2718
 9083SOL     OW29627   4.190   9.272   2.328  0.0207 -0.1730  0.1938
 9083SOL    HW129628   4.220   9.182   2.316  1.1153  0.1587  0.3000
 9083SOL    HW229629   4.204   9.290   2.421  1.6601  0.7145 -0.1823
 9084SOL     OW29630   9.471   4.953   8.328  0.4333  0.3062 -0.2402
 9084SOL    HW129631   9.491   5.036   8.284 -1.1093  0.7560 -0.1673
 9084SOL    HW229632   9.486   4.886   8.261  1.8254  0.6070 -0.2557
 9085SOL     OW29633   0.800   1.792  10.640  0.4096 -0.3452 -0.5445
 9085SOL    HW129634   0.719   1.831  10.608 -1.3681 -3.8049 -0.7398
 9085SOL    HW229635   0.841   1.754  10.563  0.4266 -1.5350  0.0318
 9086SOL     OW29636  10.158   0.646   6.905  0.0014  0.0547  0.0811
 9086SOL    HW129637  10.213   0.714   6.865  0.5237 -0.0923  0.5375
 9086SOL    HW229638  10.069   0.667   6.875  0.5120 -0.8770 -2.3349
 9087SOL     OW29639   8.178  10.045   3.974  0.2232  0.8018 -0.0416
 9087SOL    HW129640   8.137  10.120   4.017 -0.0262 -0.0834  1.3342
 9087SOL    HW229641   8.270  10.050   3.999  0.7862  2.0484 -2.0646
 9088SOL     OW29642   5.025   9.150   4.096  0.0270  0.5644 -0.1937
 9088SOL    HW129643   5.065   9.068   4.067 -0.4482  0.2816 -0.0573
 9088SOL    HW229644   4.940   9.153   4.052 -1.0556 -0.2637  1.7288
 9089SOL     OW29645   5.678   5.487   5.212  0.2684 -0.2811  0.1978
 9089SOL    HW129646   5.661   5.550   5.142 -0.5335 -0.1968  0.4571
 9089SOL    HW229647   5.658   5.402   5.173 -0.8199 -0.1824  0.5020
 9090SOL     OW29648   7.039   9.677   7.293 -0.2582  0.0997 -0.0293
 9090SOL    HW129649   7.012   9.609   7.355  0.6171 -0.0729  0.1766
 9090SOL    HW229650   7.115   9.718   7.335 -0.6687  1.0952 -0.2311
 9091SOL     OW29651   2.942  10.763   0.294 -0.2227 -0.1991  0.0316
 9091SOL    HW129652   3.004  10.791   0.361 -0.9324  0.7285  0.3170
 9091SOL    HW229653   2.857  10.761   0.339 -0.7640  0.7612 -0.8999
 9092SOL     OW29654   6.206   6.037   0.732  0.0137 -0.0327 -0.7988
 9092SOL    HW129655   6.153   5.981   0.790  1.7550 -1.0138 -0.0976
 9092SOL    HW229656   6.175   6.015   0.644 -0.7972 -0.5096 -0.4129
 9093SOL     OW29657   0.245   6.926   9.592 -0.4470  0.3746 -0.2499
 9093SOL    HW129658   0.337   6.923   9.564  0.6131 -0.2122  2.9101
 9093SOL    HW229659   0.223   7.019   9.590  0.7978  0.7172  0.5215
 9094SOL     OW29660   7.051   4.296   8.852  0.3112 -0.6226  0.2615
 9094SOL    HW129661   6.989   4.230   8.884  0.6269 -0.4658  1.2246
 9094SOL    HW229662   7.042   4.368   8.914  1.1338 -0.4188  0.1516
 9095SOL     OW29663   4.508   6.397   2.776  0.5810  0.3912 -0.3915
 9095SOL    HW129664   4.514   6.487   2.810  0.1427  0.7901 -1.3147
 9095SOL    HW229665   4.591   6.356   2.800  0.1236  0.4800  1.5629
 9096SOL     OW29666   8.814   4.535   1.793  0.0453  0.4383  0.3285
 9096SOL    HW129667   8.745   4.561   1.854 -0.5811 -1.1378  0.3419
 9096SOL    HW229668   8.868   4.613   1.783  0.9718  0.4452  3.9394
 9097SOL     OW29669   1.532   5.226  10.578 -0.0389  0.0720  0.3031
 9097SOL    HW129670   1.482   5.212  10.497  0.9496  0.7260 -0.4515
 9097SOL    HW229671   1.491   5.168  10.642 -1.1209 -0.1412 -0.5479
 9098SOL     OW29672   1.627   8.802   9.835 -0.4625 -0.0598 -0.3066
 9098SOL    HW129673   1.666   8.884   9.805 -3.4897  1.2015 -1.1893
 9098SOL    HW229674   1.566   8.778   9.765 -2.4056 -1.0106  1.6117
 9099SOL     OW29675   3.570   5.060   3.844 -0.0757 -0.3289  0.0708
 9099SOL    HW129676   3.640   5.074   3.780  0.8571  0.5581  1.2514
 9099SOL    HW229677   3.531   5.146   3.857  1.6865  0.1470  2.8398
 9100SOL     OW29678   3.340   7.899   9.654 -0.3782 -0.2380  1.0376
 9100SOL    HW129679   3.285   7.897   9.576  0.6616  0.0052  0.2774
 9100SOL    HW229680   3.279   7.885   9.727 -1.3291 -0.7531  0.1714
 9101SOL     OW29681   1.052   3.143   4.016 -0.0148  0.1214 -0.0669
 9101SOL    HW129682   1.124   3.142   4.079 -1.1146  1.7139  1.2942
 9101SOL    HW229683   1.076   3.076   3.951  3.1571  1.2974 -0.2675
 9102SOL     OW29684   6.201   7.989   1.898  0.1222  0.0610  0.5015
 9102SOL    HW129685   6.247   8.062   1.938  0.2758 -0.8048  1.9829
 9102SOL    HW229686   6.263   7.916   1.904  0.2184 -0.0861 -1.5089
 9103SOL     OW29687   9.292   2.136   1.791  0.6954  0.0868 -0.7574
 9103SOL    HW129688   9.202   2.132   1.758 -0.2504  1.0153  1.5545
 9103SOL    HW229689   9.338   2.192   1.728 -1.0187  1.7711 -0.5905
 9104SOL     OW29690   2.724   8.268   8.467  0.2473 -0.3310  0.3525
 9104SOL    HW129691   2.756   8.185   8.503 -1.7549 -0.5734  1.7394
 9104SOL    HW229692   2.733   8.330   8.539  1.9151  0.7713 -0.7382
 9105SOL     OW29693   5.386   5.267   9.685  0.9286  0.4539  0.3267
 9105SOL    HW129694   5.390   5.216   9.604  0.1090  0.0609  0.5224
 9105SOL    HW229695   5.383   5.201   9.755  2.4039  0.7872  0.7373
 9106SOL     OW29696   6.922   2.805   9.518  0.0078 -0.3715  0.0104
 9106SOL    HW129697   6.978   2.866   9.566  0.1297 -0.3503 -0.1568
 9106SOL    HW229698   6.982   2.736   9.490  0.0369 -0.1159 -0.5643
 9107SOL     OW29699   3.245   1.924   6.893  0.2838  0.1499 -0.3934
 9107SOL    HW129700   3.222   1.878   6.812  0.5229 -1.0107  0.1681
 9107SOL    HW229701   3.341   1.920   6.895  0.6508  3.9318 -2.1423
 9108SOL     OW29702   5.294   3.641   1.863 -0.1708 -0.1178  0.4796
 9108SOL    HW129703   5.297   3.735   1.847 -0.5781 -0.2551 -0.4735
 9108SOL    HW229704   5.386   3.614   1.865 -0.0681  0.1674 -0.1216
 9109SOL     OW29705   1.721   2.355   4.025 -0.5638  0.0937 -0.8778
 9109SOL    HW129706   1.793   2.417   4.036 -0.6156  0.3025 -1.6679
 9109SOL    HW229707   1.645   2.410   4.005 -0.5420 -0.2360 -1.9077
 9110SOL     OW29708   2.672   6.009   4.789  0.3388 -0.6613 -0.2457
 9110SOL    HW129709   2.693   5.918   4.765 -0.0310 -0.7389 -0.2847
 9110SOL    HW229710   2.743   6.061   4.751 -0.7604 -0.6613 -2.4896
 9111SOL     OW29711   5.016   4.307  10.541 -0.8163 -0.5870  0.4384
 9111SOL    HW129712   5.102   4.305  10.500 -1.0339  1.3919 -0.2434
 9111SOL    HW229713   5.033   4.327  10.633 -0.5286  0.1968  0.2299
 9112SOL     OW29714   3.414   3.059   5.868 -0.2279  0.0107 -0.6581
 9112SOL    HW129715   3.332   3.067   5.819 -0.6747 -1.7717 -0.3011
 9112SOL    HW229716   3.392   2.999   5.940  1.4472 -0.7111 -0.7121
 9113SOL     OW29717   5.528   0.589   6.918 -0.3999  0.1291  0.2208
 9113SOL    HW129718   5.453   0.548   6.874 -1.4473  1.2187  0.9397
 9113SOL    HW229719   5.519   0.682   6.900  0.4945  0.3384  0.7669
 9114SOL     OW29720  10.258   9.345   2.001 -0.0500 -0.3934 -0.1655
 9114SOL    HW129721  10.201   9.418   2.025 -0.3558 -1.5573  3.0944
 9114SOL    HW229722  10.345   9.384   1.992 -0.2813  0.4632  1.1036
 9115SOL     OW29723   3.708   0.567   2.624  0.2915 -0.9469 -0.3811
 9115SOL    HW129724   3.721   0.657   2.594  1.1173 -1.0744 -0.4350
 9115SOL    HW229725   3.787   0.521   2.596  1.3605 -0.9621  2.3809
 9116SOL     OW29726   6.195   1.347   6.064  0.3780  0.0544 -0.3077
 9116SOL    HW129727   6.274   1.389   6.030  0.7600  0.9573  1.5891
 9116SOL    HW229728   6.192   1.262   6.020  0.8520  1.1160 -2.5024
 9117SOL     OW29729   0.583   4.919   1.282 -0.0743  0.0254 -0.1895
 9117SOL    HW129730   0.608   4.879   1.365 -5.4772 -2.0641  0.8270
 9117SOL    HW229731   0.627   4.866   1.215  1.3131 -0.7415  1.2708
 9118SOL     OW29732   8.445   5.237   5.960  0.1842 -0.2846 -0.2900
 9118SOL    HW129733   8.458   5.227   6.055 -1.7770 -1.3376 -0.0647
 9118SOL    HW229734   8.356   5.204   5.945 -0.8367  2.8343 -2.0368
 9119SOL     OW29735  10.658   4.871   6.014  0.2533 -0.1079 -0.5714
 9119SOL    HW129736  10.630   4.944   5.959 -0.9550  1.0994  1.5185
 9119SOL    HW229737  10.593   4.803   5.998  0.3640 -0.0756 -1.1967
 9120SOL     OW29738   6.992   1.335   2.064 -0.5666  0.3531 -0.0843
 9120SOL    HW129739   7.057   1.264   2.062 -0.1016  0.7868 -1.1373
 9120SOL    HW229740   6.910   1.291   2.086 -0.3031 -0.5461 -0.8109
 9121SOL     OW29741   4.759   7.830   8.960 -0.2472 -0.5280 -0.5601
 9121SOL    HW129742   4.720   7.827   9.047 -0.8376  0.9861 -0.7390
 9121SOL    HW229743   4.853   7.835   8.976 -0.4178  1.1522  0.0626
 9122SOL     OW29744   7.222   6.544  10.508  0.6095 -0.1227  0.5984
 9122SOL    HW129745   7.175   6.462  10.497  0.0547  0.5475 -2.9537
 9122SOL    HW229746   7.157   6.605  10.543 -0.3668 -0.0033 -1.3473
 9123SOL     OW29747  10.549   4.147   5.300 -0.4344  0.2926  0.0032
 9123SOL    HW129748  10.516   4.119   5.385 -2.2363  1.0341 -0.4059
 9123SOL    HW229749  10.510   4.086   5.238 -1.0373  1.1458 -0.4856
 9124SOL     OW29750   6.160   1.969   2.205 -0.1251 -0.0979  0.1085
 9124SOL    HW129751   6.167   2.062   2.184 -1.0315  0.2856  1.3844
 9124SOL    HW229752   6.247   1.934   2.187 -0.2721  0.5619 -2.2652
 9125SOL     OW29753   0.365   1.566   9.365  0.1446 -0.0260  0.0382
 9125SOL    HW129754   0.326   1.479   9.369  2.1090 -1.0017 -0.4614
 9125SOL    HW229755   0.346   1.597   9.277  2.5505 -1.6094 -1.1517
 9126SOL     OW29756   2.633   6.275   4.035 -0.0391  0.2290 -0.0960
 9126SOL    HW129757   2.609   6.362   4.003 -0.0678  0.6119  0.9500
 9126SOL    HW229758   2.700   6.245   3.974  0.7218  1.4148  0.1349
 9127SOL     OW29759   3.845   6.124   1.198 -0.7566 -0.3652  0.5082
 9127SOL    HW129760   3.855   6.039   1.155  0.7665  0.1531 -0.2731
 9127SOL    HW229761   3.751   6.137   1.205 -1.1639 -0.4614 -2.8967
 9128SOL     OW29762  10.774   7.262   8.325 -0.0934 -0.0893  0.4769
 9128SOL    HW129763  10.773   7.167   8.312 -1.8842 -0.1618  0.8677
 9128SOL    HW229764  10.785   7.273   8.420 -0.7592  0.0511  0.5443
 9129SOL     OW29765   8.213   4.191   9.805  0.0790  0.0199  0.0667
 9129SOL    HW129766   8.174   4.273   9.776  1.8440  0.5874 -0.8315
 9129SOL    HW229767   8.162   4.165   9.882 -1.2091  1.3624 -0.3168
 9130SOL     OW29768   0.333  10.205   1.762  0.2147 -0.8789  0.0467
 9130SOL    HW129769   0.358  10.113   1.760 -0.1273 -0.9614 -0.4783
 9130SOL    HW229770   0.244  10.205   1.798 -0.0417 -0.8193 -0.5657
 9131SOL     OW29771   4.662   9.710   5.832 -0.6198  0.4624 -0.3453
 9131SOL    HW129772   4.653   9.726   5.738 -2.1576  0.2051 -0.2649
 9131SOL    HW229773   4.624   9.624   5.846 -2.2645  1.3126  0.7718
 9132SOL     OW29774   4.931   7.747   7.880  0.0650 -0.6288 -0.1436
 9132SOL    HW129775   5.015   7.792   7.890 -0.7364  1.5091 -2.2007
 9132SOL    HW229776   4.937   7.672   7.940  3.2976 -0.4023  0.0007
 9133SOL     OW29777   4.661   1.340   6.401 -0.4076 -0.1727  0.1227
 9133SOL    HW129778   4.627   1.427   6.420 -2.3275 -0.8534  0.1084
 9133SOL    HW229779   4.583   1.288   6.384  0.8166 -0.9482 -4.1336
 9134SOL     OW29780   5.195   1.751   4.681  0.5611  0.0232 -0.1889
 9134SOL    HW129781   5.276   1.701   4.669 -0.4001 -1.6311 -0.1053
 9134SOL    HW229782   5.198   1.779   4.773  0.6077 -0.8710  0.0960
 9135SOL     OW29783   3.015   8.229   3.370 -0.0564 -0.0861  0.0697
 9135SOL    HW129784   3.086   8.293   3.370 -0.7031  0.6463 -0.1587
 9135SOL    HW229785   3.052   8.152   3.326  0.9928 -0.1902  1.0838
 9136SOL     OW29786   2.616   7.169   3.298 -0.0877  0.5045  0.0152
 9136SOL    HW129787   2.688   7.105   3.306 -0.3209  0.3762  1.2661
 9136SOL    HW229788   2.544   7.119   3.259  0.6663  0.7868 -1.8304
 9137SOL     OW29789   3.985   5.615   7.682 -0.0709 -0.1008 -0.4375
 9137SOL    HW129790   4.067   5.626   7.730 -0.2962 -2.4257  0.5941
 9137SOL    HW229791   3.933   5.692   7.705  1.5049  1.0565 -0.5470
 9138SOL     OW29792   5.177   9.053   5.639 -0.6408  0.2647 -0.4472
 9138SOL    HW129793   5.147   9.009   5.718  1.8761 -0.5444  0.1594
 9138SOL    HW229794   5.195   9.143   5.668 -0.3621  0.1465 -0.2408
 9139SOL     OW29795   6.663   5.159   2.920 -0.0914 -0.2752  0.2093
 9139SOL    HW129796   6.592   5.118   2.871  1.5110 -0.4527 -2.1110
 9139SOL    HW229797   6.678   5.101   2.994 -2.1879 -0.3393  0.6324
 9140SOL     OW29798   7.834   9.833   3.768 -0.2737 -0.0193 -0.4996
 9140SOL    HW129799   7.801   9.747   3.740  0.4762 -0.2059 -0.8112
 9140SOL    HW229800   7.755   9.888   3.773 -0.5920 -0.3643 -1.5796
 9141SOL     OW29801   5.376   9.778   5.685 -0.2289  0.4698  0.1836
 9141SOL    HW129802   5.361   9.858   5.635 -1.3573  1.8155  2.4799
 9141SOL    HW229803   5.424   9.808   5.762 -1.3544 -0.9061  1.4755
 9142SOL     OW29804   2.174   2.343   6.177 -0.2029 -0.0269 -0.0817
 9142SOL    HW129805   2.121   2.264   6.162 -0.2953 -0.0404  0.3179
 9142SOL    HW229806   2.257   2.310   6.210 -0.1941  0.0369 -0.0406
 9143SOL     OW29807   8.286   7.768   6.377  0.4065  0.4382  0.8415
 9143SOL    HW129808   8.345   7.734   6.444 -0.4436 -1.3934  0.7221
 9143SOL    HW229809   8.331   7.752   6.294  0.8465  1.4284  0.8727
 9144SOL     OW29810   3.566   3.539   8.335 -0.1420 -0.3915 -0.3087
 9144SOL    HW129811   3.655   3.519   8.364 -0.1075 -2.0314 -1.4048
 9144SOL    HW229812   3.555   3.632   8.353  1.3437 -0.4311  0.9921
 9145SOL     OW29813   7.679   3.009   3.469  0.7501  0.0766  0.0136
 9145SOL    HW129814   7.616   3.047   3.408  0.5898  1.3962  0.9544
 9145SOL    HW229815   7.635   3.010   3.554  1.9726  0.9730  0.6873
 9146SOL     OW29816   7.481   7.167   9.118  0.2071 -0.5370 -0.4737
 9146SOL    HW129817   7.544   7.095   9.111  0.6341 -0.1909 -0.2364
 9146SOL    HW229818   7.534   7.243   9.142 -0.3163 -0.2638 -0.1666
 9147SOL     OW29819   6.683  10.267   2.399 -0.8618  0.3988 -0.0010
 9147SOL    HW129820   6.722  10.333   2.342  0.3138 -0.0754  0.2324
 9147SOL    HW229821   6.640  10.206   2.339 -0.1628  0.2427 -0.3431
 9148SOL     OW29822   8.017   5.339   1.091  0.4691  0.0909  0.1035
 9148SOL    HW129823   8.096   5.392   1.079  1.3121 -0.6674  1.9420
 9148SOL    HW229824   8.038   5.255   1.051  0.8613 -0.3236  1.1524
 9149SOL     OW29825   1.018   1.815   8.938  0.7979 -0.2685 -0.5740
 9149SOL    HW129826   0.925   1.831   8.949  0.9875  0.5958 -0.1562
 9149SOL    HW229827   1.045   1.876   8.870  0.5968 -2.2179 -2.5306
 9150SOL     OW29828   2.576   6.141   0.919  0.2314 -0.3609 -0.1835
 9150SOL    HW129829   2.531   6.083   0.980 -0.2635 -0.0561 -0.2517
 9150SOL    HW229830   2.574   6.227   0.961  1.7869 -0.5409  0.3549
 9151SOL     OW29831   6.826   2.203   5.305  0.0868  0.1072 -0.1438
 9151SOL    HW129832   6.734   2.227   5.300 -0.3051 -1.1660  0.3902
 9151SOL    HW229833   6.870   2.282   5.335 -1.1159  0.2152  1.4644
 9152SOL     OW29834  10.768   2.411   4.460 -0.0580  0.1356 -0.2580
 9152SOL    HW129835  10.692   2.466   4.444  0.2881  0.6462 -0.1891
 9152SOL    HW229836  10.842   2.473   4.463  0.6071 -0.5025 -2.0538
 9153SOL     OW29837   2.787   9.603   1.532  0.4619 -0.6338 -0.2673
 9153SOL    HW129838   2.878   9.632   1.533  0.5345 -0.8588  0.2281
 9153SOL    HW229839   2.792   9.509   1.518  0.2488 -0.4866 -1.4122
 9154SOL     OW29840  10.704   8.292   6.523 -0.0647  0.7113  0.0317
 9154SOL    HW129841  10.678   8.349   6.595  0.2287 -0.6800  1.3145
 9154SOL    HW229842  10.797   8.311   6.510 -0.4097  1.8647 -0.8737
 9155SOL     OW29843   2.320   7.512   6.680  0.1896  0.1414 -0.3991
 9155SOL    HW129844   2.329   7.477   6.769  0.8053  1.4811  0.0909
 9155SOL    HW229845   2.267   7.590   6.690  1.6571  1.2613 -0.9170
 9156SOL     OW29846   9.670   0.518   1.522  0.1381 -0.5001  0.7763
 9156SOL    HW129847   9.741   0.500   1.582  0.7759  0.6818  0.4091
 9156SOL    HW229848   9.594   0.536   1.578 -0.3438 -3.2807  1.1671
 9157SOL     OW29849   8.310   1.022   1.783  0.0810  0.0273  0.4748
 9157SOL    HW129850   8.364   0.944   1.769 -2.1064 -1.5050  0.0831
 9157SOL    HW229851   8.335   1.082   1.712  0.5013 -1.0752 -0.3321
 9158SOL     OW29852   5.210   6.330   8.550 -0.0162  0.4090 -0.6263
 9158SOL    HW129853   5.199   6.237   8.572 -1.8509  0.9050  0.7962
 9158SOL    HW229854   5.197   6.376   8.633 -1.6157  2.0674 -1.7049
 9159SOL     OW29855   3.749   9.574   9.017 -0.2766 -0.2508  0.0054
 9159SOL    HW129856   3.809   9.613   9.080  1.1463  0.9177 -1.9436
 9159SOL    HW229857   3.734   9.644   8.953  2.3474 -2.6754 -3.6471
 9160SOL     OW29858  10.524  10.797   0.645 -0.0057  0.0357 -0.1520
 9160SOL    HW129859  10.484  10.711   0.658 -1.4903  0.8222  0.8102
 9160SOL    HW229860  10.501  10.846   0.724  0.1034  1.5645 -1.0414
 9161SOL     OW29861   3.274   3.005   2.609  0.3502  0.0338 -0.8183
 9161SOL    HW129862   3.193   3.054   2.596  0.9193  0.9130 -1.1396
 9161SOL    HW229863   3.245   2.916   2.630 -0.6883  0.0193 -2.1427
 9162SOL     OW29864   3.920   3.436   9.367  0.7588  0.0338  0.6861
 9162SOL    HW129865   3.927   3.532   9.368  0.9480  0.0250  0.3178
 9162SOL    HW229866   3.984   3.408   9.302 -1.1189 -0.1647 -1.2106
 9163SOL     OW29867   1.629   1.210   0.782 -0.2571  0.2838 -0.0884
 9163SOL    HW129868   1.553   1.233   0.729  0.2350 -0.5509 -1.1859
 9163SOL    HW229869   1.625   1.270   0.857 -2.2753 -0.0942  0.1590
 9164SOL     OW29870   6.684   4.978   3.131 -0.5029  0.5387  0.4353
 9164SOL    HW129871   6.735   5.008   3.206  0.4735 -2.0410  0.9095
 9164SOL    HW229872   6.594   4.975   3.163  0.1282 -2.4499  2.3113
 9165SOL     OW29873   9.970  10.708   4.766 -0.0399  0.3823 -0.0202
 9165SOL    HW129874   9.888  10.685   4.724 -0.2636 -0.3743  0.7989
 9165SOL    HW229875   9.979  10.645   4.838  0.6289  1.2473  0.6781
 9166SOL     OW29876  10.697  10.453  10.261  0.5766 -0.2380  0.0914
 9166SOL    HW129877  10.765  10.459  10.328  0.1412 -3.5408  1.0096
 9166SOL    HW229878  10.666  10.362  10.266 -1.4899  0.1749 -2.6679
 9167SOL     OW29879   5.873   0.562   5.482 -0.0888  0.2128 -0.6559
 9167SOL    HW129880   5.957   0.548   5.440  0.7866  2.6199  0.1326
 9167SOL    HW229881   5.873   0.655   5.507 -3.3319  0.5545 -1.4134
 9168SOL     OW29882   5.947   6.317  10.303  0.4347  0.8997  0.3190
 9168SOL    HW129883   5.853   6.321  10.319  0.3339 -1.8049  0.8378
 9168SOL    HW229884   5.986   6.358  10.380 -0.2824  0.8509  0.7178
 9169SOL     OW29885   1.395   5.015   0.953  0.2754  0.2298  0.0206
 9169SOL    HW129886   1.369   4.993   0.864  0.9567  0.7246 -0.3066
 9169SOL    HW229887   1.456   4.945   0.978  1.7081  1.2003 -0.6752
 9170SOL     OW29888   4.786   6.125   2.541  0.8332  0.2288 -0.6651
 9170SOL    HW129889   4.872   6.090   2.518  0.7609 -0.1075 -0.4239
 9170SOL    HW229890   4.724   6.056   2.515  0.7529 -0.2197  0.6394
 9171SOL     OW29891   5.593   1.737  10.351  0.0879 -0.5199  0.4319
 9171SOL    HW129892   5.595   1.694  10.265 -0.0368 -0.7537  0.5456
 9171SOL    HW229893   5.649   1.814  10.340  0.4963 -0.8290  0.2883
 9172SOL     OW29894   5.100   3.315   4.813  0.3867 -0.1622 -0.0187
 9172SOL    HW129895   5.156   3.355   4.746  1.8937  0.2350  1.3984
 9172SOL    HW229896   5.139   3.230   4.830 -0.6093 -0.7047 -0.3671
 9173SOL     OW29897  10.032   2.438   2.791 -0.3332 -0.3944 -0.0925
 9173SOL    HW129898  10.019   2.445   2.696  0.9279 -2.0962 -0.4478
 9173SOL    HW229899  10.127   2.432   2.801 -0.4639 -0.4425  1.2844
 9174SOL     OW29900   6.647   0.075   4.717 -0.4056  0.2954  0.3743
 9174SOL    HW129901   6.610   0.163   4.709 -2.7670 -0.7006 -0.4907
 9174SOL    HW229902   6.701   0.065   4.639 -1.4911  0.4187 -0.4220
 9175SOL     OW29903   1.753   0.101   8.455 -0.2425  0.6139 -0.0371
 9175SOL    HW129904   1.743   0.075   8.547 -0.1989  1.1028  0.1091
 9175SOL    HW229905   1.846   0.087   8.436  0.1451  2.1968  0.5317
 9176SOL     OW29906   8.390   7.347   1.230  0.0491 -0.3300  0.3160
 9176SOL    HW129907   8.381   7.361   1.135  0.4643 -1.1243  0.1592
 9176SOL    HW229908   8.359   7.258   1.244  0.4314 -0.3798  0.8633
 9177SOL     OW29909   5.043   3.725   8.830 -0.5160 -0.2291 -0.3239
 9177SOL    HW129910   5.108   3.793   8.846 -1.5975  0.8578 -0.3497
 9177SOL    HW229911   4.993   3.719   8.911 -1.4901  0.2192 -0.8693
 9178SOL     OW29912   1.262   7.407   3.824  0.1501  0.0159 -0.7400
 9178SOL    HW129913   1.185   7.448   3.863  1.4070  0.6515  1.2257
 9178SOL    HW229914   1.305   7.363   3.897  1.3294 -0.8369 -1.9097
 9179SOL     OW29915   1.360   4.512   7.471  0.2825  1.1028 -0.0858
 9179SOL    HW129916   1.340   4.569   7.545  0.6121  0.9484  0.1218
 9179SOL    HW229917   1.452   4.489   7.482  0.1541  0.5391 -0.1770
 9180SOL     OW29918   9.377   6.903   8.349 -0.5707  0.6393 -0.3261
 9180SOL    HW129919   9.282   6.899   8.363 -0.4713  0.4195  0.3469
 9180SOL    HW229920   9.412   6.932   8.433  0.1054 -1.1152  0.0580
 9181SOL     OW29921   6.089   2.698   6.555  0.3930  0.0738 -0.1137
 9181SOL    HW129922   6.176   2.715   6.518  0.1821  1.7767  0.0723
 9181SOL    HW229923   6.101   2.706   6.650  0.2491 -0.8200 -0.0152
 9182SOL     OW29924   7.193   1.463   7.517  0.6277  0.1477 -0.1110
 9182SOL    HW129925   7.186   1.367   7.520  1.0450  0.1058  2.6385
 9182SOL    HW229926   7.212   1.488   7.608  0.5892  2.8515 -0.7646
 9183SOL     OW29927   8.725   9.055   0.012  0.3322  0.2076  0.2972
 9183SOL    HW129928   8.631   9.037   0.005 -0.0520  1.0911  2.4139
 9183SOL    HW229929   8.738   9.074   0.104  2.2984  1.8441 -0.2642
 9184SOL     OW29930   7.614   8.979  10.018  0.0508 -0.3577  0.0142
 9184SOL    HW129931   7.595   8.898  10.065 -2.0392 -0.1332 -0.3149
 9184SOL    HW229932   7.608   8.954   9.926  1.4151 -0.2304 -0.1183
 9185SOL     OW29933   7.013   3.277   0.851 -0.7561 -0.1482  0.2857
 9185SOL    HW129934   6.961   3.357   0.864 -0.8214 -0.3544  1.4322
 9185SOL    HW229935   7.023   3.270   0.756 -2.5245  0.1001  0.0348
 9186SOL     OW29936   7.357   8.172   4.502 -0.2015  0.2457 -0.7049
 9186SOL    HW129937   7.360   8.188   4.596  0.8536 -1.6661 -0.3720
 9186SOL    HW229938   7.349   8.259   4.463  0.7659  1.1926  1.1031
 9187SOL     OW29939   2.852  10.276   4.317 -0.4269 -0.0148 -0.5727
 9187SOL    HW129940   2.781  10.213   4.326 -0.1117 -0.5131 -1.4963
 9187SOL    HW229941   2.916  10.250   4.382 -1.6369  1.2394  1.2151
 9188SOL     OW29942   0.225   2.319   5.009  0.2426  0.0939 -0.6556
 9188SOL    HW129943   0.168   2.253   4.968 -0.4885  0.4913 -0.2965
 9188SOL    HW229944   0.285   2.268   5.063  0.6297 -0.3746 -1.5093
 9189SOL     OW29945   4.414   5.500   0.661 -0.6348 -0.2211 -0.4993
 9189SOL    HW129946   4.461   5.577   0.694 -1.8489  0.0339  0.7341
 9189SOL    HW229947   4.465   5.426   0.692 -1.5369  0.0225  1.7687
 9190SOL     OW29948   4.249   1.005  10.101 -0.8610 -0.6014  0.0592
 9190SOL    HW129949   4.251   1.067  10.027  0.6008  0.9981  1.3530
 9190SOL    HW229950   4.330   0.954  10.091  0.5115  1.1004  1.6465
 9191SOL     OW29951   8.828  10.734   4.340 -0.4472  0.4424 -0.4516
 9191SOL    HW129952   8.772  10.810   4.352  0.3879  1.0747 -0.5441
 9191SOL    HW229953   8.872  10.723   4.424 -0.9690 -0.2844 -0.2577
 9192SOL     OW29954   8.625   3.835  10.660  0.2067  0.2769  0.1420
 9192SOL    HW129955   8.649   3.747  10.631 -0.4849 -0.5819  2.0649
 9192SOL    HW229956   8.639   3.890  10.582  0.6752 -1.5001 -1.0910
 9193SOL     OW29957   7.446   6.405   5.915 -0.1674 -0.0154 -0.1133
 9193SOL    HW129958   7.419   6.406   6.007  0.6423 -0.1467  0.1327
 9193SOL    HW229959   7.483   6.492   5.900  1.9912 -0.7950  0.4023
 9194SOL     OW29960   4.779   6.003   1.000  0.3145 -0.0467  0.0369
 9194SOL    HW129961   4.797   6.013   0.906  0.8848  1.5234  0.2709
 9194SOL    HW229962   4.840   5.935   1.029  0.9933  0.3059 -0.5192
 9195SOL     OW29963   2.361   4.357   7.491 -0.0293  0.0228  0.1047
 9195SOL    HW129964   2.445   4.372   7.534 -0.0263  1.5844 -0.3888
 9195SOL    HW229965   2.383   4.348   7.398 -0.4088  0.4794 -0.0318
 9196SOL     OW29966   9.487   4.012   9.811 -0.2791  0.0891  0.0030
 9196SOL    HW129967   9.541   4.004   9.889  0.9163  0.4806 -0.7585
 9196SOL    HW229968   9.437   3.930   9.807  1.7944 -1.2069 -0.3989
 9197SOL     OW29969   8.257   6.065   2.096 -0.5030 -0.1910  0.5605
 9197SOL    HW129970   8.269   6.045   2.189 -2.6465 -1.0073  0.7226
 9197SOL    HW229971   8.302   6.149   2.084  1.0425 -0.7539  1.9744
 9198SOL     OW29972   6.320   7.780   4.517  1.0461 -0.1695 -0.1529
 9198SOL    HW129973   6.352   7.807   4.604 -0.1851 -0.2613  0.3406
 9198SOL    HW229974   6.233   7.818   4.510  0.5771 -1.3156 -0.7836
 9199SOL     OW29975   2.464   8.864   5.313 -0.0893  0.0194 -0.2178
 9199SOL    HW129976   2.390   8.919   5.340 -1.2999 -1.8960  0.5923
 9199SOL    HW229977   2.506   8.840   5.395  0.0480 -0.7301 -0.5023
 9200SOL     OW29978   8.288   3.031   6.053 -0.0319  0.1099  0.2516
 9200SOL    HW129979   8.227   3.006   6.123 -0.3517 -0.9363 -0.3838
 9200SOL    HW229980   8.245   3.002   5.972  0.5370  0.9024 -0.3541
 9201SOL     OW29981   3.275  10.149   0.818  0.1073  0.4222  0.0107
 9201SOL    HW129982   3.190  10.141   0.860  0.2881 -1.5641  0.1157
 9201SOL    HW229983   3.307  10.059   0.811  2.1316  1.0900 -0.1836
 9202SOL     OW29984   5.607   9.340   3.525  0.0439  0.5731 -0.3901
 9202SOL    HW129985   5.674   9.349   3.593 -0.2319 -0.0220 -0.0370
 9202SOL    HW229986   5.623   9.414   3.466  0.1580  1.2313  0.4353
 9203SOL     OW29987   8.050   9.593   3.321  0.4180 -0.3089 -0.5507
 9203SOL    HW129988   7.979   9.654   3.341  0.3674 -0.4524 -0.2841
 9203SOL    HW229989   8.008   9.507   3.319  0.9484 -0.7101  1.9811
 9204SOL     OW29990   0.044  10.257   6.440 -0.4773  0.2164 -0.1351
 9204SOL    HW129991   0.023  10.172   6.479 -1.2005  0.6920  0.5499
 9204SOL    HW229992   0.127  10.243   6.395  0.7188 -0.2343  2.0552
 9205SOL     OW29993   4.081   2.617   2.682  0.4064  0.4033  0.3247
 9205SOL    HW129994   4.152   2.583   2.626 -1.9194 -1.3617 -1.7560
 9205SOL    HW229995   4.032   2.676   2.625 -0.4655  0.7197  1.3764
 9206SOL     OW29996   3.311   9.859   0.825 -0.2041 -0.0316 -0.2144
 9206SOL    HW129997   3.260   9.836   0.903  0.3462  2.7307  1.0647
 9206SOL    HW229998   3.346   9.775   0.795 -2.9826 -1.6209  0.6068
 9207SOL     OW29999   6.285   2.955   3.782 -0.3943  0.1292 -0.1151
 9207SOL    HW130000   6.295   2.860   3.788 -1.8619 -0.2722 -2.8260
 9207SOL    HW230001   6.368   2.985   3.747 -0.7256 -0.4636 -1.4553
 9208SOL     OW30002   7.188   5.073   7.589 -0.2974  0.7430 -0.7356
 9208SOL    HW130003   7.221   5.110   7.506  2.1237  0.8288  0.1728
 9208SOL    HW230004   7.260   5.086   7.650 -1.1581 -1.3540  0.8301
 9209SOL     OW30005   7.710   3.531   4.033  0.6240  0.3498 -0.2655
 9209SOL    HW130006   7.706   3.521   4.128 -0.7333  0.1997 -0.3102
 9209SOL    HW230007   7.765   3.458   4.003  0.4906 -0.0136  0.3538
 9210SOL     OW30008   5.267   0.256   9.238 -0.1316 -0.4434  0.2648
 9210SOL    HW130009   5.330   0.325   9.217  0.0405 -0.4016  0.8987
 9210SOL    HW230010   5.293   0.225   9.325 -1.8040  0.5327  1.1860
 9211SOL     OW30011   6.286   4.099   6.154 -0.0326 -0.3210  0.3954
 9211SOL    HW130012   6.377   4.094   6.124 -0.3456 -0.8587 -0.5264
 9211SOL    HW230013   6.234   4.100   6.073 -0.7943  1.7504  0.8517
 9212SOL     OW30014   9.849   6.353   8.935  0.0901 -0.0117 -0.0818
 9212SOL    HW130015   9.883   6.443   8.938 -0.2272  0.0919  0.7330
 9212SOL    HW230016   9.863   6.319   9.024  2.0407 -1.4850 -0.8667
 9213SOL     OW30017   0.402   0.435   1.075  0.4883  0.1538 -0.2994
 9213SOL    HW130018   0.463   0.504   1.046  0.1896  0.3421 -0.4884
 9213SOL    HW230019   0.425   0.420   1.167 -0.3094  1.4512  0.1375
 9214SOL     OW30020   6.067   3.004   6.900  0.0125 -0.2846  0.4487
 9214SOL    HW130021   6.143   3.062   6.894  0.5643 -0.8709  1.4777
 9214SOL    HW230022   6.041   3.007   6.993 -2.5887  1.5815 -0.2098
 9215SOL     OW30023   7.608   1.675   4.776  0.2529  0.0807 -0.3029
 9215SOL    HW130024   7.673   1.609   4.751 -0.0765 -0.6308  0.6581
 9215SOL    HW230025   7.540   1.626   4.822  1.2575  1.3682  2.7971
 9216SOL     OW30026   0.332   9.261   4.367 -0.4868  0.1725  0.0371
 9216SOL    HW130027   0.264   9.326   4.350 -1.2870 -0.6885 -0.1184
 9216SOL    HW230028   0.285   9.187   4.405  0.2281 -0.7999 -0.9318
 9217SOL     OW30029   9.398   3.962   3.815  0.0843  0.9333 -0.5983
 9217SOL    HW130030   9.342   3.892   3.781 -2.6779  2.5823  0.2797
 9217SOL    HW230031   9.458   3.917   3.875 -0.2114 -0.9296 -1.6322
 9218SOL     OW30032   2.179   0.684   8.628  0.3060 -0.3562  0.6691
 9218SOL    HW130033   2.106   0.701   8.686 -0.5614 -0.3477 -0.3992
 9218SOL    HW230034   2.242   0.637   8.682 -0.4908 -0.3757  1.6011
 9219SOL     OW30035   0.036   6.245   2.948 -0.9829  0.2650 -0.3908
 9219SOL    HW130036   0.090   6.306   2.897 -0.8035  2.8139  2.5486
 9219SOL    HW230037   0.060   6.159   2.914  6.3647  0.8448  1.4860
 9220SOL     OW30038   3.884   6.043   3.756  0.1620  1.2088 -0.3156
 9220SOL    HW130039   3.850   6.039   3.666  0.3001  1.8830 -0.4035
 9220SOL    HW230040   3.855   5.961   3.796  1.3141  0.2171 -1.3949
 9221SOL     OW30041   5.257   8.967   9.852 -0.2426  0.3049 -0.3807
 9221SOL    HW130042   5.177   9.009   9.885 -0.2390  2.9135 -3.2523
 9221SOL    HW230043   5.233   8.936   9.765  1.0616 -1.9012 -0.0307
 9222SOL     OW30044  10.049   1.486   8.555 -0.5569 -0.5885 -0.0050
 9222SOL    HW130045  10.104   1.479   8.478 -0.7140  0.3888 -0.2103
 9222SOL    HW230046   9.978   1.544   8.530 -1.3523 -1.3241  0.4570
 9223SOL     OW30047   4.533   8.255   4.446  0.4944  0.2236  0.0658
 9223SOL    HW130048   4.560   8.212   4.528 -1.3149  0.6547  0.9562
 9223SOL    HW230049   4.453   8.208   4.421  1.5615 -0.5853 -2.0723
 9224SOL     OW30050   5.760  10.751   2.008  0.5604 -0.2944 -0.2401
 9224SOL    HW130051   5.676  10.707   2.020  0.6910 -0.1678  1.3520
 9224SOL    HW230052   5.825  10.686   2.031  0.7889  0.3573  1.0768
 9225SOL     OW30053   9.430   7.757   1.139 -0.0084 -0.1896 -0.4637
 9225SOL    HW130054   9.455   7.832   1.193 -0.5158 -1.3670  1.5083
 9225SOL    HW230055   9.400   7.796   1.057  2.1077  1.5992 -0.4688
 9226SOL     OW30056   9.918   7.717   4.700 -0.1791 -0.2991 -0.3369
 9226SOL    HW130057   9.976   7.712   4.624  2.1232 -0.4270  1.3165
 9226SOL    HW230058   9.832   7.736   4.663  1.2067  1.8491 -2.8264
 9227SOL     OW30059   1.346   3.894   5.720  0.6429 -0.2740  0.3242
 9227SOL    HW130060   1.420   3.866   5.667  0.6547  2.2069 -1.1762
 9227SOL    HW230061   1.269   3.857   5.675  0.8176 -0.6387  0.3246
 9228SOL     OW30062   0.278   5.977   0.693 -0.2356 -0.6027 -0.2129
 9228SOL    HW130063   0.353   5.932   0.732  0.4038  0.7424  0.2007
 9228SOL    HW230064   0.219   5.994   0.767 -0.1877 -0.2474 -0.2534
 9229SOL     OW30065   1.977   8.026   7.942 -0.6391 -0.5236 -0.0093
 9229SOL    HW130066   2.014   7.975   8.014 -2.0216  0.6811  1.6409
 9229SOL    HW230067   1.929   8.097   7.985 -2.0375 -0.0997 -2.1165
 9230SOL     OW30068   2.103   3.314   2.349 -0.2326  0.1105  0.3356
 9230SOL    HW130069   2.159   3.319   2.272  1.6274  1.3579  1.6653
 9230SOL    HW230070   2.033   3.377   2.332  0.2985  0.5534 -0.2368
 9231SOL     OW30071   0.213   4.248   2.978 -0.4100 -0.1001 -0.0880
 9231SOL    HW130072   0.139   4.213   3.029  1.2942  0.1503  2.8180
 9231SOL    HW230073   0.261   4.302   3.041  2.8905 -1.2042 -1.4651
 9232SOL     OW30074   3.932   6.202   2.035  0.3219 -0.1398  0.2030
 9232SOL    HW130075   4.027   6.205   2.046  0.4299 -0.2932 -0.6557
 9232SOL    HW230076   3.907   6.292   2.015  0.1736  0.0621  1.2419
 9233SOL     OW30077   7.240   2.840   5.241  0.2584  0.1233 -0.1273
 9233SOL    HW130078   7.231   2.745   5.241  0.5240  0.0250  2.3794
 9233SOL    HW230079   7.167   2.871   5.189  0.1915 -1.4413 -1.0329
 9234SOL     OW30080   2.887  10.446   9.778 -0.3225  0.0864  0.3781
 9234SOL    HW130081   2.935  10.519   9.736  0.7684 -0.2185  1.0567
 9234SOL    HW230082   2.923  10.441   9.866 -2.1847  0.3310  1.1851
 9235SOL     OW30083   1.657   5.961   0.477 -0.6301 -0.2718 -0.1499
 9235SOL    HW130084   1.651   5.979   0.571 -1.4072  2.5888 -0.6381
 9235SOL    HW230085   1.566   5.952   0.449 -0.5421  0.9769 -0.9108
 9236SOL     OW30086   2.876   0.663   9.000  0.1447  0.2410 -0.5198
 9236SOL    HW130087   2.893   0.745   8.953  0.0563  0.8587  0.4793
 9236SOL    HW230088   2.907   0.680   9.089  0.7635 -1.0666 -0.4677
 9237SOL     OW30089   8.871   2.975   4.184  0.2141 -0.0398  0.7632
 9237SOL    HW130090   8.929   3.052   4.182  0.6547 -0.3372  1.5468
 9237SOL    HW230091   8.825   2.982   4.268 -1.4320  0.5611 -0.1371
 9238SOL     OW30092   6.605  10.634  10.009  0.5885 -0.2145  0.3178
 9238SOL    HW130093   6.544  10.639  10.082  0.2165  1.2459 -0.0505
 9238SOL    HW230094   6.683  10.681  10.039 -0.1752  1.8455 -0.7470
 9239SOL     OW30095   7.718   6.456   9.903  0.4842  0.0710 -0.0611
 9239SOL    HW130096   7.633   6.418   9.927 -0.0023  1.2086  0.0790
 9239SOL    HW230097   7.776   6.430   9.974  0.0039  0.1223  0.3560
 9240SOL     OW30098  10.419   0.446   6.904 -0.0122  0.0462 -0.0957
 9240SOL    HW130099  10.407   0.494   6.822  0.1625 -1.0852 -0.7934
 9240SOL    HW230100  10.330   0.421   6.930 -0.0379  0.1069 -0.1238
 9241SOL     OW30101   3.626   2.080   1.456  0.1577 -0.6147  0.1696
 9241SOL    HW130102   3.654   2.125   1.536  0.4278 -0.1978 -0.1511
 9241SOL    HW230103   3.688   2.110   1.389 -1.6094  1.1200 -0.7902
 9242SOL     OW30104   2.142   3.328   9.017 -1.1200 -0.1355  0.0993
 9242SOL    HW130105   2.070   3.284   8.972  0.0902 -1.6031 -0.4686
 9242SOL    HW230106   2.199   3.257   9.047  0.2554  0.9922  0.2581
 9243SOL     OW30107   4.715   2.263   6.037  0.3095  0.8936  0.6558
 9243SOL    HW130108   4.738   2.261   5.944  1.5309  1.4301  0.9221
 9243SOL    HW230109   4.744   2.178   6.070 -1.0946  0.2739  0.3526
 9244SOL     OW30110  10.762  10.128   1.034  0.2663 -0.2926 -0.0165
 9244SOL    HW130111  10.831  10.061   1.035  1.4115  0.8723  0.9782
 9244SOL    HW230112  10.711  10.110   1.113  2.2529  1.6261  1.8409
 9245SOL     OW30113   5.447   7.330  10.249 -0.4995  0.7121  0.1642
 9245SOL    HW130114   5.494   7.413  10.246  0.3525  0.2417  0.0511
 9245SOL    HW230115   5.358   7.351  10.220 -0.3334  1.6061  0.2868
 9246SOL     OW30116  10.631   8.274   7.035  0.6365  0.3450  0.4329
 9246SOL    HW130117  10.713   8.226   7.047  0.5813  0.1976  0.2245
 9246SOL    HW230118  10.575   8.246   7.107  0.7244  0.3497  0.5026
 9247SOL     OW30119   8.061   3.052   0.980 -0.0012  0.5980  0.5546
 9247SOL    HW130120   8.022   2.980   0.930  0.3243  0.4902  0.4524
 9247SOL    HW230121   8.054   3.127   0.921 -0.9611  0.8088  0.9281
 9248SOL     OW30122   6.484   7.840   0.769 -0.2827  0.1783 -0.4657
 9248SOL    HW130123   6.403   7.800   0.736  0.4067 -1.4259 -0.3054
 9248SOL    HW230124   6.514   7.896   0.698 -0.9955 -0.0230 -0.9361
 9249SOL     OW30125  10.394   5.338  10.025  0.0960  0.5217  0.2062
 9249SOL    HW130126  10.456   5.298  10.087  0.1824  0.8348  0.3203
 9249SOL    HW230127  10.399   5.431  10.043  2.1053  0.9593 -2.0411
 9250SOL     OW30128   8.370   9.599   9.054  0.0955 -0.1430  0.2681
 9250SOL    HW130129   8.454   9.579   9.095  0.2329  1.2122  0.6965
 9250SOL    HW230130   8.313   9.624   9.127  0.5521  3.0219 -0.3145
 9251SOL     OW30131   5.116   6.465   3.146 -0.3525  0.3381 -0.2015
 9251SOL    HW130132   5.082   6.388   3.191  2.1745 -0.2560  0.8374
 9251SOL    HW230133   5.050   6.484   3.078 -2.3393 -1.0899  1.1995
 9252SOL     OW30134   9.511   2.467   2.097 -0.0846 -0.1842 -0.7386
 9252SOL    HW130135   9.570   2.402   2.135  0.7343  2.2538  2.6277
 9252SOL    HW230136   9.567   2.522   2.043  0.6671  1.3636  1.4512
 9253SOL     OW30137   4.808   1.589   0.906 -0.0122 -0.4726 -0.1425
 9253SOL    HW130138   4.829   1.537   0.828  0.8426  0.4201 -0.5290
 9253SOL    HW230139   4.811   1.526   0.978 -2.2240 -1.6245 -0.9449
 9254SOL     OW30140   9.578   4.871   7.214 -0.1782  0.0797 -0.0556
 9254SOL    HW130141   9.651   4.811   7.196 -0.5845 -1.1600  2.1031
 9254SOL    HW230142   9.619   4.957   7.221  0.4821  0.0668 -2.7846
 9255SOL     OW30143  10.457  10.006   7.023  0.9340  0.1231 -0.2576
 9255SOL    HW130144  10.431  10.018   7.115 -0.2975 -0.2517 -0.5343
 9255SOL    HW230145  10.423  10.084   6.979  2.3761  0.7857 -0.2578
 9256SOL     OW30146   1.983   4.568   9.694 -0.1029  0.2351 -0.4082
 9256SOL    HW130147   2.011   4.657   9.716  0.7576 -0.0769 -0.2209
 9256SOL    HW230148   2.008   4.558   9.602 -2.6116  1.1099 -1.2953
 9257SOL     OW30149   8.905   2.732   4.433  0.1741 -0.4479  0.2406
 9257SOL    HW130150   8.965   2.756   4.362 -0.9871 -1.1924 -1.0398
 9257SOL    HW230151   8.924   2.640   4.450 -0.4542 -0.6280 -0.0251
 9258SOL     OW30152   0.999   5.992   0.709 -0.5671 -0.3379 -0.2918
 9258SOL    HW130153   1.041   6.078   0.718  0.1702 -0.7394  0.1815
 9258SOL    HW230154   0.950   5.981   0.790  1.3979 -1.4407  0.8305
 9259SOL     OW30155   9.284   5.400   1.925 -0.1433  0.1656  0.4478
 9259SOL    HW130156   9.265   5.493   1.913 -1.7285 -0.2049 -0.3018
 9259SOL    HW230157   9.198   5.358   1.921  0.5045 -1.2968  1.2004
 9260SOL     OW30158   0.092   9.918   4.693 -0.0491  0.0684  0.1480
 9260SOL    HW130159   0.119  10.009   4.680  0.1577  0.0882  0.6983
 9260SOL    HW230160   0.009   9.911   4.647 -0.3032  0.6685  0.4983
 9261SOL     OW30161   4.321   1.614   5.380  0.3614 -0.3393  0.0295
 9261SOL    HW130162   4.252   1.618   5.314  1.1072  0.1196 -0.7580
 9261SOL    HW230163   4.290   1.551   5.444 -1.8815  1.5638  0.9855
 9262SOL     OW30164   1.965   6.450   1.435 -0.3138  0.0115  0.2951
 9262SOL    HW130165   1.983   6.537   1.472 -0.2399 -0.2732  0.9453
 9262SOL    HW230166   1.888   6.463   1.381 -0.9743  0.2739  1.2654
 9263SOL     OW30167   0.815   2.482   0.505 -0.5576  0.2826  0.4608
 9263SOL    HW130168   0.825   2.572   0.474 -1.0175  0.3419  0.4762
 9263SOL    HW230169   0.896   2.464   0.553 -1.1660  1.2809  1.9187
 9264SOL     OW30170   6.199   5.407   6.686  0.4845 -0.2844  0.2142
 9264SOL    HW130171   6.286   5.412   6.646  0.8996 -1.3269  0.9442
 9264SOL    HW230172   6.146   5.468   6.635  2.2074  2.2612  1.2506
 9265SOL     OW30173   8.219   5.067   2.938 -0.0629 -0.0260 -0.0201
 9265SOL    HW130174   8.177   5.143   2.897  0.2384  0.4403  0.5213
 9265SOL    HW230175   8.165   5.048   3.014  1.6323  1.6999  1.7272
 9266SOL     OW30176   9.901   0.637   8.232  0.2931  0.0732 -0.8165
 9266SOL    HW130177   9.918   0.662   8.141 -1.6795 -1.7892 -1.7930
 9266SOL    HW230178   9.915   0.542   8.234  2.4084  0.3330  1.4329
 9267SOL     OW30179   5.096   4.360   1.134  0.5385  0.5329  0.2832
 9267SOL    HW130180   5.027   4.309   1.091  0.5513  0.8107 -0.0711
 9267SOL    HW230181   5.118   4.428   1.071  3.0240 -1.1185 -0.7616
 9268SOL     OW30182   4.009   6.550   8.905  0.2680 -0.5701  0.0263
 9268SOL    HW130183   3.960   6.471   8.879  0.7355 -0.6503 -0.6443
 9268SOL    HW230184   3.990   6.613   8.835 -1.2541  0.4252  1.2619
 9269SOL     OW30185   6.258   1.368   1.343 -0.1935  0.1026  0.0534
 9269SOL    HW130186   6.239   1.276   1.359  0.6591 -0.6071 -2.4977
 9269SOL    HW230187   6.172   1.410   1.335 -0.6097 -0.7961 -0.2704
 9270SOL     OW30188   7.205   3.046   4.476  0.4682  0.5346  0.1738
 9270SOL    HW130189   7.264   3.104   4.524  1.9176 -0.2906 -0.5496
 9270SOL    HW230190   7.254   2.965   4.466  0.3186  0.7322 -2.8495
 9271SOL     OW30191   7.817   7.979   9.210 -0.0037  0.3258 -0.8044
 9271SOL    HW130192   7.850   7.997   9.122 -1.5476  0.0056 -1.4717
 9271SOL    HW230193   7.736   8.028   9.216 -0.6452 -0.7825 -0.0816
 9272SOL     OW30194   8.030   5.446   3.799  0.4387  0.0914  0.1770
 9272SOL    HW130195   8.079   5.508   3.853  0.0933  1.7674 -1.3415
 9272SOL    HW230196   8.095   5.409   3.739 -0.0360  2.2897 -1.8151
 9273SOL     OW30197   3.515  10.573   9.923  0.2011 -0.1383  0.0012
 9273SOL    HW130198   3.478  10.590  10.010 -0.9762  1.9412 -0.8491
 9273SOL    HW230199   3.606  10.601   9.930 -0.0402  0.5655  0.4251
 9274SOL     OW30200   5.263   5.048   5.054  0.1142  0.6891 -0.1498
 9274SOL    HW130201   5.224   4.983   5.112  1.4699  0.4865  0.5749
 9274SOL    HW230202   5.193   5.070   4.992 -1.0607  0.1814  0.9402
 9275SOL     OW30203   7.821   8.221   1.901  0.0079  0.2324  0.4100
 9275SOL    HW130204   7.890   8.254   1.844 -1.2474  3.0882  0.3871
 9275SOL    HW230205   7.745   8.211   1.843 -0.8436  1.6313  1.2535
 9276SOL     OW30206   5.783   3.759  10.424  0.0791 -0.3423  0.0698
 9276SOL    HW130207   5.787   3.725  10.513  0.0288 -1.7887 -0.4449
 9276SOL    HW230208   5.706   3.716  10.386  0.1123  0.2379 -0.6867
 9277SOL     OW30209   3.774   3.006   6.067 -0.2183  0.9993  0.4419
 9277SOL    HW130210   3.805   3.076   6.124 -2.3227  2.5337 -0.1688
 9277SOL    HW230211   3.819   3.021   5.983  0.1933  0.8991  0.6416
 9278SOL     OW30212   7.773   2.020   1.004  0.3322 -0.0167 -0.4636
 9278SOL    HW130213   7.824   1.992   0.928 -2.5291 -3.1643 -1.5024
 9278SOL    HW230214   7.714   2.087   0.969  0.1826 -0.2046 -0.5687
 9279SOL     OW30215   7.525   2.878   1.287  0.1577  0.1609  0.4496
 9279SOL    HW130216   7.531   2.952   1.347 -1.3040 -0.0947  0.9720
 9279SOL    HW230217   7.432   2.854   1.289 -0.0402  0.3739 -2.2166
 9280SOL     OW30218   7.390  10.624   6.557 -0.3835  0.8814  0.2446
 9280SOL    HW130219   7.383  10.557   6.625  0.6035  1.3598  0.8307
 9280SOL    HW230220   7.344  10.586   6.481  0.1017 -0.4278  0.5853
 9281SOL     OW30221  10.199   1.635   1.423 -0.5639 -0.0251 -0.0312
 9281SOL    HW130222  10.263   1.637   1.352 -2.8913 -0.3475 -2.3035
 9281SOL    HW230223  10.200   1.544   1.453  2.2625  0.6292  2.3109
 9282SOL     OW30224   0.119   7.019   7.415  0.1230  0.4991  0.3396
 9282SOL    HW130225   0.134   6.925   7.425  0.8493  0.5673 -0.0678
 9282SOL    HW230226   0.198   7.052   7.372  0.5934  1.5730  1.9135
 9283SOL     OW30227   5.724  10.748  10.411  0.2077 -1.0487  0.3936
 9283SOL    HW130228   5.677  10.670  10.442 -0.1626 -0.3031  1.7880
 9283SOL    HW230229   5.674  10.822  10.445 -0.5329 -0.0982 -2.4693
 9284SOL     OW30230   1.842   0.140   5.162  0.8877  0.1675  0.2104
 9284SOL    HW130231   1.915   0.097   5.117  1.9378  1.2335  0.8589
 9284SOL    HW230232   1.867   0.232   5.167 -1.1469  0.8335 -0.7971
 9285SOL     OW30233   9.326   1.859  10.004  0.1060  0.8166 -0.3332
 9285SOL    HW130234   9.303   1.766   9.997  1.7204  0.4913 -2.4928
 9285SOL    HW230235   9.302   1.883  10.093 -1.1193 -1.4493  0.0229
 9286SOL     OW30236   1.784   7.781   3.577 -0.4518  0.5771 -0.0514
 9286SOL    HW130237   1.701   7.792   3.529 -0.6838 -1.0282 -0.0517
 9286SOL    HW230238   1.813   7.871   3.593 -3.0907  1.2750  1.5247
 9287SOL     OW30239   8.686   8.494   8.948 -0.1759 -0.4273  0.4378
 9287SOL    HW130240   8.779   8.483   8.927 -0.0155 -0.9631  1.3767
 9287SOL    HW230241   8.670   8.588   8.937  1.0023  0.0323  2.2641
 9288SOL     OW30242  10.752   4.769   8.891  0.2280  1.4263  0.0493
 9288SOL    HW130243  10.836   4.759   8.935 -0.0471 -1.7747  0.0209
 9288SOL    HW230244  10.695   4.809   8.957  0.6616 -0.3683  1.5889
 9289SOL     OW30245   1.381   7.620   8.137 -0.0192 -0.5214  0.2240
 9289SOL    HW130246   1.476   7.613   8.149  0.0784 -1.8344 -1.0521
 9289SOL    HW230247   1.344   7.583   8.217  0.5340 -0.2038  0.6343
 9290SOL     OW30248   3.293   5.058   6.280  1.2785  0.2944  0.4313
 9290SOL    HW130249   3.224   5.105   6.234  1.7744  0.3554 -0.2501
 9290SOL    HW230250   3.298   4.973   6.236  1.1385  0.0033  0.9568
 9291SOL     OW30251   2.688   4.314   1.995 -0.2072  0.2486 -0.4586
 9291SOL    HW130252   2.692   4.404   2.026 -0.3236 -0.3455  1.3634
 9291SOL    HW230253   2.637   4.267   2.061 -3.3180 -0.4904 -3.0964
 9292SOL     OW30254   7.127  10.212   8.050  0.1701  0.4547  0.5636
 9292SOL    HW130255   7.053  10.157   8.076  0.1473  0.3717  0.3295
 9292SOL    HW230256   7.204  10.167   8.085  0.1929  0.0187 -0.0321
 9293SOL     OW30257   0.258   1.249   4.897 -0.2856 -0.1795 -0.8781
 9293SOL    HW130258   0.278   1.321   4.837  1.1555 -0.2255 -0.4935
 9293SOL    HW230259   0.244   1.291   4.982  1.4806 -0.3711 -0.4458
 9294SOL     OW30260   8.016   3.671   4.990 -0.2041 -0.4242  0.7040
 9294SOL    HW130261   7.948   3.635   5.048 -0.9054 -2.2990 -1.1688
 9294SOL    HW230262   7.974   3.744   4.946 -0.4539 -0.5128  0.7915
 9295SOL     OW30263  10.644   9.638   9.788 -0.4576 -0.2404 -0.4595
 9295SOL    HW130264  10.638   9.674   9.876  2.1856 -2.8303  0.9966
 9295SOL    HW230265  10.557   9.602   9.771 -1.5711  1.9627  0.2120
 9296SOL     OW30266   4.425   8.232   3.175 -0.0789 -0.2608 -0.6408
 9296SOL    HW130267   4.489   8.162   3.186  1.8170  1.4413 -0.0028
 9296SOL    HW230268   4.446   8.271   3.090  0.0978  0.5989 -0.2247
 9297SOL     OW30269   6.765   5.138   1.608  0.1553  0.0004 -0.0720
 9297SOL    HW130270   6.801   5.210   1.556  1.8665  1.1500  2.5494
 9297SOL    HW230271   6.840   5.084   1.631 -0.4623 -0.2044  1.5848
 9298SOL     OW30272   3.165   0.356   0.730  0.0198  0.3659 -0.5404
 9298SOL    HW130273   3.260   0.356   0.721  0.0385 -0.5602 -0.4258
 9298SOL    HW230274   3.142   0.265   0.748 -0.7430  0.8298  1.0069
 9299SOL     OW30275   6.016   3.183   6.197  0.3827 -0.4008  0.3520
 9299SOL    HW130276   6.015   3.098   6.242 -2.3497  0.8288  2.9321
 9299SOL    HW230277   5.928   3.191   6.160  1.1618  0.6221 -1.3789
 9300SOL     OW30278   7.879   9.658   0.894 -0.4353  0.7443 -0.3282
 9300SOL    HW130279   7.860   9.623   0.981  1.7150 -0.8551 -0.4228
 9300SOL    HW230280   7.932   9.591   0.852  0.9106  2.6583 -1.8850
 9301SOL     OW30281   5.025   6.756  10.093  0.0565  0.0432 -0.2256
 9301SOL    HW130282   4.944   6.705  10.101  0.9382 -1.2517  1.0993
 9301SOL    HW230283   5.093   6.689  10.079  0.9877  1.0535 -0.6586
 9302SOL     OW30284  10.414   0.061   4.068 -0.1919 -0.6570 -0.2225
 9302SOL    HW130285  10.506   0.071   4.044  1.1782 -2.8961  3.2234
 9302SOL    HW230286  10.397  -0.033   4.056 -0.8812 -0.9213  2.2724
 9303SOL     OW30287   2.727   7.336   1.640  0.5056 -0.5567  0.3855
 9303SOL    HW130288   2.782   7.415   1.641  2.3544 -1.7712 -0.6052
 9303SOL    HW230289   2.738   7.298   1.727 -0.3449  0.1903  0.8478
 9304SOL     OW30290   5.795   2.925   4.089  0.1073  0.3571 -0.3225
 9304SOL    HW130291   5.834   2.948   4.005 -1.4997  0.8635 -0.9795
 9304SOL    HW230292   5.702   2.911   4.069 -0.7936  2.6769  1.7169
 9305SOL     OW30293  10.116  10.153   7.287  0.3244  0.2084  0.0045
 9305SOL    HW130294  10.071  10.124   7.208  0.7030 -1.5872  0.4171
 9305SOL    HW230295  10.053  10.210   7.330 -0.5261 -0.1308 -0.7610
 9306SOL     OW30296   8.527   6.275   7.658  0.6691  0.5481  0.3559
 9306SOL    HW130297   8.606   6.316   7.695  1.0054  1.9465 -1.7397
 9306SOL    HW230298   8.560   6.202   7.606  0.3751 -0.1455  1.1215
 9307SOL     OW30299   8.532   7.654   4.259 -0.1356  0.1986 -0.4414
 9307SOL    HW130300   8.586   7.690   4.189  1.0901 -0.8436 -0.0592
 9307SOL    HW230301   8.503   7.731   4.309 -0.3658  0.8853 -1.5928
 9308SOL     OW30302   5.582   8.922   6.027  0.1686  0.8151 -0.0975
 9308SOL    HW130303   5.644   8.909   5.955  1.0038 -2.8888  1.0470
 9308SOL    HW230304   5.637   8.919   6.106 -1.0443  1.6667  0.8118
 9309SOL     OW30305   5.751   4.724   0.024  0.1547  0.3282 -0.3350
 9309SOL    HW130306   5.708   4.789   0.080 -1.6195 -2.2023  1.4154
 9309SOL    HW230307   5.696   4.721  -0.055 -0.1128  0.5211 -0.1588
 9310SOL     OW30308   2.000   1.633   3.097  0.8351  0.0560 -0.0432
 9310SOL    HW130309   2.086   1.646   3.138 -0.0321 -0.2791  2.0218
 9310SOL    HW230310   1.943   1.607   3.169 -1.1059  0.6220 -1.2865
 9311SOL     OW30311   9.114   5.663   9.829 -0.1640 -0.0722 -0.1736
 9311SOL    HW130312   9.047   5.721   9.866  0.4252  0.1791  0.5135
 9311SOL    HW230313   9.080   5.575   9.842 -0.8748  0.0985 -0.8444
 9312SOL     OW30314   7.076  10.308  10.517 -0.1731 -0.3377 -0.2762
 9312SOL    HW130315   7.152  10.268  10.474 -1.1172 -2.2624 -0.2633
 9312SOL    HW230316   7.071  10.264  10.602 -1.1712 -0.0712 -0.1867
 9313SOL     OW30317   5.721   4.262   1.352  0.4672  0.0722 -0.4054
 9313SOL    HW130318   5.651   4.238   1.413  1.3341 -0.4894  0.3916
 9313SOL    HW230319   5.762   4.339   1.392  0.1251  0.5992 -1.0333
 9314SOL     OW30320   8.764   6.889   1.664 -0.8783  0.1399 -0.4133
 9314SOL    HW130321   8.806   6.839   1.594 -1.6197 -1.2588  0.1262
 9314SOL    HW230322   8.836   6.937   1.706  0.1335 -1.7927  0.1485
 9315SOL     OW30323   1.406   4.177   9.169 -0.3029  0.2476  0.5904
 9315SOL    HW130324   1.313   4.176   9.148 -0.2516  1.9532  0.0743
 9315SOL    HW230325   1.450   4.154   9.087 -0.2702 -1.3786  1.0466
 9316SOL     OW30326   8.152   5.858   9.940  0.0701  0.2195  0.4454
 9316SOL    HW130327   8.239   5.831   9.911  0.1246  0.4639  0.3772
 9316SOL    HW230328   8.092   5.813   9.881  0.1187 -0.5312  0.9539
 9317SOL     OW30329   3.060  10.417   9.213 -0.2495 -0.6050 -0.2119
 9317SOL    HW130330   2.995  10.476   9.175 -1.2777 -2.1960 -1.0202
 9317SOL    HW230331   3.141  10.468   9.213 -1.3123  1.1835  0.1710
 9318SOL     OW30332   2.430   6.190   3.194 -0.3932 -0.0303  0.2432
 9318SOL    HW130333   2.454   6.123   3.131  0.5032 -0.1794  0.7166
 9318SOL    HW230334   2.365   6.244   3.149  0.3788 -0.0067 -0.8901
 9319SOL     OW30335   0.441   4.286   0.023 -0.1409 -0.7535 -0.2976
 9319SOL    HW130336   0.460   4.309  -0.068 -0.9748 -0.4533 -0.4106
 9319SOL    HW230337   0.486   4.203   0.037  1.0598 -0.1725 -0.5801
 9320SOL     OW30338  10.434   6.510   3.766 -0.1716  0.1270 -0.1161
 9320SOL    HW130339  10.416   6.417   3.779 -0.9141  0.4223  1.0891
 9320SOL    HW230340  10.524   6.521   3.795  0.0757 -0.2914 -0.6997
 9321SOL     OW30341   2.791  10.626   2.248  1.1472  0.2145 -0.4354
 9321SOL    HW130342   2.805  10.699   2.188  2.7272 -0.7716 -1.3398
 9321SOL    HW230343   2.878  10.589   2.261  0.3444 -1.7877 -0.3737
 9322SOL     OW30344   9.682   2.449   3.535  0.2237 -0.1403 -0.0569
 9322SOL    HW130345   9.686   2.413   3.446  0.6299 -2.2974  0.7760
 9322SOL    HW230346   9.709   2.377   3.591  0.1604  1.2365  1.8285
 9323SOL     OW30347   7.942   1.545   9.767  0.1326  0.4949 -0.6260
 9323SOL    HW130348   8.001   1.593   9.824  1.2650  2.1727 -3.0338
 9323SOL    HW230349   7.965   1.453   9.780 -0.0518  0.7429  1.9370
 9324SOL     OW30350   2.293  10.793   0.970 -0.0500 -0.0115  0.0647
 9324SOL    HW130351   2.240  10.725   0.929  0.2823  0.4206 -1.1043
 9324SOL    HW230352   2.366  10.806   0.910  0.4888  0.5972  0.8297
 9325SOL     OW30353   2.723   9.973   6.213 -0.5723 -0.0565  0.0210
 9325SOL    HW130354   2.721  10.020   6.130 -0.4720  0.5780  0.3742
 9325SOL    HW230355   2.683   9.888   6.194 -0.1895 -0.0623 -0.7625
 9326SOL     OW30356   7.504   1.760   3.988  0.4566  0.1139  0.0565
 9326SOL    HW130357   7.423   1.761   3.937  0.1023 -0.2706  0.5869
 9326SOL    HW230358   7.556   1.833   3.954  0.4400 -0.4212 -1.1665
 9327SOL     OW30359   9.473   2.724   4.876  0.6183 -0.5149  0.4120
 9327SOL    HW130360   9.481   2.641   4.922  2.3994  0.1439  1.3637
 9327SOL    HW230361   9.534   2.718   4.803  0.1400 -0.3436 -0.0134
 9328SOL     OW30362   8.772   6.421   2.784 -0.2297  0.1750  0.0722
 9328SOL    HW130363   8.795   6.492   2.844 -0.1316 -0.4388  0.7707
 9328SOL    HW230364   8.853   6.371   2.775 -0.5282 -0.3473  0.2724
 9329SOL     OW30365   2.896   0.737   0.877  0.2575 -0.1286 -0.7001
 9329SOL    HW130366   2.933   0.811   0.829  0.3221 -0.0143 -0.4749
 9329SOL    HW230367   2.801   0.748   0.870  0.2656 -0.1743 -0.8961
 9330SOL     OW30368   3.121   0.897   7.586  0.0631 -0.2029  0.4094
 9330SOL    HW130369   3.067   0.866   7.513  1.0566  0.2281 -0.5257
 9330SOL    HW230370   3.195   0.940   7.545 -0.6392  2.3947  1.6639
 9331SOL     OW30371   0.323   6.523   7.685 -0.2502  0.0760 -0.5937
 9331SOL    HW130372   0.365   6.608   7.696  1.8457 -1.1435  1.7843
 9331SOL    HW230373   0.382   6.474   7.628 -0.4800 -0.3745 -0.4502
 9332SOL     OW30374  10.630   3.444   8.653  0.1071 -0.0721 -0.5146
 9332SOL    HW130375  10.667   3.410   8.734  0.8763 -1.3458 -1.3573
 9332SOL    HW230376  10.707   3.474   8.603 -0.4270  1.5037 -0.4391
 9333SOL     OW30377   1.871   9.133   8.165 -0.0584 -0.2533  0.1877
 9333SOL    HW130378   1.964   9.150   8.151  0.0171 -0.1270  0.8299
 9333SOL    HW230379   1.855   9.052   8.116 -0.0523  0.7159 -1.4908
 9334SOL     OW30380   0.147   0.387   6.003 -0.1931  0.6017  0.0697
 9334SOL    HW130381   0.149   0.292   5.993  0.4386  0.5672  0.4903
 9334SOL    HW230382   0.153   0.401   6.098 -1.9896  1.0206  0.1586
 9335SOL     OW30383  10.010   9.328   4.386 -0.1214 -0.3019 -0.3583
 9335SOL    HW130384   9.949   9.380   4.334 -0.1788  0.2087  0.2117
 9335SOL    HW230385  10.063   9.281   4.322 -0.8682 -0.4681 -0.8614
 9336SOL     OW30386   0.539   2.127  10.231 -0.4068 -0.1848  0.0256
 9336SOL    HW130387   0.600   2.063  10.268 -0.7286  0.2258  1.3220
 9336SOL    HW230388   0.454   2.084  10.233 -0.4188 -0.1746 -0.2767
 9337SOL     OW30389   6.985   2.403   4.606 -0.0101  0.5228  0.5927
 9337SOL    HW130390   6.984   2.309   4.622 -1.7069  0.6489  1.4196
 9337SOL    HW230391   6.935   2.414   4.525  0.0398  0.7248  0.5890
 9338SOL     OW30392   7.649   0.486   6.901 -0.0392  0.0986  0.1462
 9338SOL    HW130393   7.615   0.486   6.991 -0.8862  2.4772 -0.0916
 9338SOL    HW230394   7.738   0.521   6.910 -0.0544  0.1529  0.0816
 9339SOL     OW30395   9.666   7.657   3.331 -0.0413  0.0460 -0.4910
 9339SOL    HW130396   9.655   7.598   3.257 -0.5413 -0.1817 -0.2407
 9339SOL    HW230397   9.747   7.629   3.373 -0.2688 -0.4567 -0.3849
 9340SOL     OW30398   6.897   5.925   2.049 -0.2632 -0.5075  0.7901
 9340SOL    HW130399   6.912   5.871   2.127  0.3212 -3.4842 -1.1998
 9340SOL    HW230400   6.983   5.959   2.026 -0.3662  0.0455  1.2241
 9341SOL     OW30401   2.276   8.662   1.764  0.3272 -0.5702 -0.1744
 9341SOL    HW130402   2.358   8.623   1.733  1.2693 -1.4819  3.0967
 9341SOL    HW230403   2.245   8.604   1.833 -0.8208  1.9227  1.6027
 9342SOL     OW30404   8.857   3.150   5.964  0.0342  0.4464  0.2796
 9342SOL    HW130405   8.899   3.231   5.991  0.4162  0.3854 -0.1173
 9342SOL    HW230406   8.878   3.142   5.871 -0.5576  0.2300  0.1624
 9343SOL     OW30407   7.181  10.568   3.607 -0.3921  0.1289  0.2772
 9343SOL    HW130408   7.126  10.634   3.650  0.3132  0.0850  1.2793
 9343SOL    HW230409   7.267  10.578   3.647  0.0217 -0.6462 -0.3736
 9344SOL     OW30410   6.534   0.385   1.250 -0.0181 -0.1571  0.0733
 9344SOL    HW130411   6.494   0.435   1.320 -0.9052 -1.4764  0.5555
 9344SOL    HW230412   6.624   0.369   1.279 -0.4079 -0.7795  0.9757
 9345SOL     OW30413   6.923   5.650   9.722 -0.1687 -1.3144  0.6925
 9345SOL    HW130414   6.984   5.631   9.794 -1.6896 -0.6465  2.2335
 9345SOL    HW230415   6.904   5.565   9.683  0.6653 -1.6941  1.0757
 9346SOL     OW30416   2.943  10.129   7.706  0.1606  0.5602 -0.2370
 9346SOL    HW130417   3.013  10.077   7.743  2.1933  2.9975 -0.3699
 9346SOL    HW230418   2.982  10.171   7.629 -1.4275  2.0308 -0.3082
 9347SOL     OW30419  10.147   9.734   4.110 -0.2786  0.1957 -0.4055
 9347SOL    HW130420  10.215   9.758   4.047 -0.6037  2.2252 -0.0679
 9347SOL    HW230421  10.096   9.667   4.065  3.1469 -3.1531  0.1631
 9348SOL     OW30422   1.538   8.053   0.636  0.0776  0.4367 -0.8321
 9348SOL    HW130423   1.619   8.073   0.590  0.3095 -0.6335 -0.9030
 9348SOL    HW230424   1.541   8.107   0.715  0.5434  0.8938 -1.1559
 9349SOL     OW30425   0.786   8.718   2.985 -0.1201  0.0378 -0.4924
 9349SOL    HW130426   0.813   8.788   3.044 -1.0900  0.2021 -0.2254
 9349SOL    HW230427   0.717   8.671   3.033  1.7761 -2.3004  0.1378
 9350SOL     OW30428   0.454   0.907   1.123  0.4980 -0.2024 -0.5657
 9350SOL    HW130429   0.432   0.892   1.215  2.9461 -0.5565  0.0268
 9350SOL    HW230430   0.490   0.823   1.094  0.3498  0.1069 -1.6734
 9351SOL     OW30431   2.153   0.917   7.067  0.1391  0.0687 -0.2010
 9351SOL    HW130432   2.197   0.914   6.982 -0.7900 -0.5736 -0.6731
 9351SOL    HW230433   2.120   1.007   7.073 -0.0198  0.0472 -0.6480
 9352SOL     OW30434   5.232  10.115   6.700  0.3589 -0.0587 -0.0971
 9352SOL    HW130435   5.263  10.025   6.716 -0.7424 -0.5015 -0.3885
 9352SOL    HW230436   5.170  10.132   6.771 -0.1904  0.1004 -0.6072
 9353SOL     OW30437   2.251   2.322   6.471 -0.2076 -0.2557  0.0982
 9353SOL    HW130438   2.343   2.343   6.459 -0.6362  1.1621 -0.8986
 9353SOL    HW230439   2.232   2.257   6.402  0.0758 -0.6706  0.4092
 9354SOL     OW30440   3.725   7.644   0.158  0.0219  0.2378  0.1928
 9354SOL    HW130441   3.815   7.612   0.152 -0.1082 -0.4870  1.7633
 9354SOL    HW230442   3.690   7.634   0.069  1.1676 -0.4329 -0.1975
 9355SOL     OW30443  10.506  10.330   6.097 -0.0258  0.2543  0.5762
 9355SOL    HW130444  10.591  10.289   6.083 -1.2635 -2.2126 -0.4158
 9355SOL    HW230445  10.525  10.410   6.145  2.9917  0.6654 -1.0618
 9356SOL     OW30446   9.411   2.668   9.008  0.4207  0.2091  0.4511
 9356SOL    HW130447   9.378   2.756   8.996  1.0860  0.3769 -0.2056
 9356SOL    HW230448   9.373   2.639   9.091 -3.0819 -0.4054 -1.1912
 9357SOL     OW30449   3.419   5.246   1.964 -0.3271 -0.3469 -0.4920
 9357SOL    HW130450   3.456   5.240   2.052 -3.5123 -0.7324  0.9756
 9357SOL    HW230451   3.401   5.155   1.940 -0.1878 -0.1847 -1.2353
 9358SOL     OW30452   4.328   5.257   9.866  0.1766  0.7482 -0.0753
 9358SOL    HW130453   4.323   5.277   9.773  2.8052  1.0600 -0.2055
 9358SOL    HW230454   4.390   5.185   9.872 -0.2188  0.4959  1.4310
 9359SOL     OW30455   6.466   9.987   5.921  0.4490  0.3630 -0.6426
 9359SOL    HW130456   6.534  10.007   5.986  0.6865 -1.3574 -0.2928
 9359SOL    HW230457   6.404   9.932   5.968 -0.4182  0.7134 -1.3605
 9360SOL     OW30458   4.450   6.970   8.425  0.1247  0.0382  0.2165
 9360SOL    HW130459   4.431   7.000   8.513  0.0759  0.6210  0.0123
 9360SOL    HW230460   4.517   7.030   8.393 -0.8818  0.7436 -0.6510
 9361SOL     OW30461   8.698  10.426   2.443  0.5392  0.2017 -0.1377
 9361SOL    HW130462   8.713  10.456   2.354  0.4043  0.7653  0.0261
 9361SOL    HW230463   8.782  10.390   2.471 -0.1630 -2.9334 -1.5776
 9362SOL     OW30464   5.662   6.793   6.443 -0.1236  0.4619 -0.3874
 9362SOL    HW130465   5.607   6.871   6.437  0.1050  0.8285  1.5659
 9362SOL    HW230466   5.627   6.745   6.518  0.0237 -1.1226 -1.2794
 9363SOL     OW30467   5.334   9.926   6.878 -0.2304 -0.0101  0.0495
 9363SOL    HW130468   5.391   9.851   6.859  0.4803  0.9613 -1.9448
 9363SOL    HW230469   5.393  10.001   6.880 -1.2225  0.7984 -0.3125
 9364SOL     OW30470   0.795  10.580   8.016  0.4255  0.4629 -0.6893
 9364SOL    HW130471   0.731  10.515   7.988 -0.2547  0.6994  0.2441
 9364SOL    HW230472   0.864  10.530   8.060 -0.1024  0.3640  0.0377
 9365SOL     OW30473   2.159   7.960   2.926 -0.1637  0.1233 -0.3098
 9365SOL    HW130474   2.201   8.035   2.968 -0.9070  0.9852 -1.0665
 9365SOL    HW230475   2.077   7.948   2.973  0.2542 -0.6591  0.2443
 9366SOL     OW30476   2.203   8.655   4.464 -0.5381 -0.3676 -0.0963
 9366SOL    HW130477   2.220   8.572   4.419 -1.0953 -1.1718  1.1343
 9366SOL    HW230478   2.125   8.690   4.422 -1.5945 -1.5614  0.7838
 9367SOL     OW30479   6.953   3.506   3.030  0.1033  0.5392  0.0183
 9367SOL    HW130480   6.992   3.570   2.971  1.1630  0.3122  0.4630
 9367SOL    HW230481   6.909   3.443   2.972 -0.5709  1.4127 -0.4346
 9368SOL     OW30482   1.275   2.528   7.985 -0.0531  0.0875  0.4323
 9368SOL    HW130483   1.241   2.580   7.912  0.9370 -0.2085 -0.2614
 9368SOL    HW230484   1.197   2.502   8.035 -0.6923  0.8009 -0.1707
 9369SOL     OW30485   3.570   6.031   0.239 -0.3669  0.0742  0.2646
 9369SOL    HW130486   3.553   6.118   0.204 -0.2222  0.1383  0.3555
 9369SOL    HW230487   3.639   6.043   0.304 -0.3514 -0.1060  0.2843
 9370SOL     OW30488   0.996   4.327   4.128 -0.4495 -0.1942  0.4984
 9370SOL    HW130489   0.944   4.247   4.117 -1.5668  0.8212 -2.5456
 9370SOL    HW230490   0.939   4.388   4.174 -0.9174 -0.0278 -0.2902
 9371SOL     OW30491   9.185   0.475   2.152 -0.1608  0.5372 -0.0733
 9371SOL    HW130492   9.271   0.503   2.183  0.9248 -1.5510 -1.0472
 9371SOL    HW230493   9.127   0.548   2.175  1.7904  1.8906  0.8360
 9372SOL     OW30494   4.774   8.723   0.692 -0.0649 -0.1298  0.5936
 9372SOL    HW130495   4.854   8.678   0.721 -0.8684 -0.3475  2.6792
 9372SOL    HW230496   4.750   8.778   0.767 -0.4746  1.9258 -0.9552
 9373SOL     OW30497   6.339   0.109   9.392  0.1825 -0.3475  0.0370
 9373SOL    HW130498   6.384   0.193   9.399 -1.6182  0.5847  1.4174
 9373SOL    HW230499   6.344   0.072   9.480 -0.4138 -0.9129 -0.1591
 9374SOL     OW30500   8.295   0.373   2.384  0.0414 -0.1678 -0.3987
 9374SOL    HW130501   8.384   0.343   2.363 -0.1264 -1.6830  0.8807
 9374SOL    HW230502   8.306   0.465   2.407  1.1098 -0.0702 -1.1914
 9375SOL     OW30503   6.407   2.277   9.098  0.6240 -0.4190 -0.0572
 9375SOL    HW130504   6.459   2.350   9.064 -0.6429  0.1862 -0.7696
 9375SOL    HW230505   6.447   2.256   9.182  2.5634 -0.5766 -0.9758
 9376SOL     OW30506   6.405   2.575   4.843 -0.1847 -0.3228 -0.4639
 9376SOL    HW130507   6.409   2.609   4.754  0.1433  0.4095 -0.1832
 9376SOL    HW230508   6.366   2.488   4.835  0.3886 -0.5010 -1.3743
 9377SOL     OW30509   6.535   6.028   7.550 -0.3652  0.8004  0.3041
 9377SOL    HW130510   6.508   5.975   7.625 -1.5542  0.7265 -0.1428
 9377SOL    HW230511   6.539   6.118   7.584 -2.4273  1.0079  0.1546
 9378SOL     OW30512   7.692   8.020  10.228  0.0323  0.0166  0.3507
 9378SOL    HW130513   7.683   8.041  10.321  2.3019 -0.3513  0.7282
 9378SOL    HW230514   7.748   7.942  10.227 -0.0404 -0.0458 -1.3183
 9379SOL     OW30515   9.774  10.765   9.528 -0.1325 -0.2269  0.2400
 9379SOL    HW130516   9.774  10.859   9.510 -0.0139 -0.1438  0.6625
 9379SOL    HW230517   9.696  10.732   9.485 -1.8186  0.5340  2.5258
 9380SOL     OW30518   8.027   3.381   6.468  0.3159  0.5602 -0.6141
 9380SOL    HW130519   7.960   3.348   6.408 -0.0196  0.6753 -0.3041
 9380SOL    HW230520   7.998   3.470   6.489  2.6643  2.2694 -3.7180
 9381SOL     OW30521   4.251  10.691   3.926  0.2046  0.5022 -0.0318
 9381SOL    HW130522   4.257  10.782   3.954 -0.7777  0.5202  0.1508
 9381SOL    HW230523   4.239  10.642   4.007 -0.1870  0.3042 -0.2083
 9382SOL     OW30524   8.094   6.634   9.017 -0.2269  0.0264  0.2804
 9382SOL    HW130525   8.144   6.665   9.092 -1.8454  0.1824  1.3280
 9382SOL    HW230526   8.051   6.713   8.983  1.5021  0.2280 -1.6759
 9383SOL     OW30527   5.742   2.492   1.556  0.1204  0.5285 -0.1592
 9383SOL    HW130528   5.730   2.399   1.538  0.3125  0.7499 -1.5261
 9383SOL    HW230529   5.810   2.495   1.624  0.3227 -0.3102 -0.3149
 9384SOL     OW30530   5.037   7.478   2.879 -0.4840  0.2118 -0.3073
 9384SOL    HW130531   5.058   7.565   2.914  1.5007 -0.2150 -0.3281
 9384SOL    HW230532   5.045   7.489   2.784  1.9051 -0.4232 -0.2501
 9385SOL     OW30533   5.731   7.595   0.659  0.4031 -0.2099 -0.4919
 9385SOL    HW130534   5.785   7.520   0.681  1.7254  0.1230 -2.3127
 9385SOL    HW230535   5.743   7.656   0.732  0.6199 -1.0876  0.2204
 9386SOL     OW30536   8.807   9.426   4.731  0.9104 -0.8437 -0.1590
 9386SOL    HW130537   8.778   9.448   4.642  0.8240 -1.0890 -0.1920
 9386SOL    HW230538   8.838   9.509   4.767 -0.7004 -0.3688  0.2188
 9387SOL     OW30539   9.065   2.162  10.281 -0.0122  0.0958 -0.3010
 9387SOL    HW130540   9.038   2.253  10.286  3.5733  1.3515 -0.9638
 9387SOL    HW230541   9.028   2.122  10.359 -1.7444  2.0231 -0.0337
 9388SOL     OW30542   2.336   4.701   2.520 -0.0262  0.0236 -0.2938
 9388SOL    HW130543   2.313   4.643   2.592 -1.8506  1.2592  0.1805
 9388SOL    HW230544   2.317   4.789   2.552 -0.7008  0.6238 -2.1933
 9389SOL     OW30545   5.422   4.611   4.418  0.1760  0.0684 -0.1262
 9389SOL    HW130546   5.410   4.701   4.447  0.3792 -0.2323  0.9378
 9389SOL    HW230547   5.364   4.602   4.342  1.2793  1.5186 -1.2068
 9390SOL     OW30548   6.203   8.061   4.515 -0.3045 -0.0050 -0.6596
 9390SOL    HW130549   6.281   8.037   4.465  0.6998 -1.2103  1.3670
 9390SOL    HW230550   6.144   7.987   4.504  0.2882 -0.6938  0.6091
 9391SOL     OW30551   2.815  10.665   9.389  0.0647  0.1172 -0.0332
 9391SOL    HW130552   2.793  10.572   9.391 -0.4419  0.2471  1.0398
 9391SOL    HW230553   2.898  10.671   9.436  0.8639  0.0376 -1.3725
 9392SOL     OW30554   1.735   4.663   7.150  0.5923 -0.5751 -0.0696
 9392SOL    HW130555   1.814   4.668   7.204  1.5578  2.1056 -1.5261
 9392SOL    HW230556   1.669   4.712   7.200  1.2535  1.1979 -0.8363
 9393SOL     OW30557   5.577   2.567   2.028  0.3943  0.0782  0.4362
 9393SOL    HW130558   5.600   2.490   1.975 -1.9946 -1.0577  0.9003
 9393SOL    HW230559   5.661   2.601   2.058  1.7369 -0.4555 -2.3156
 9394SOL     OW30560   8.975   6.877   8.750 -0.0763  0.0035 -0.4710
 9394SOL    HW130561   8.929   6.829   8.819  1.6378 -1.1196 -0.0453
 9394SOL    HW230562   9.015   6.952   8.795 -0.0439  0.0024 -0.4984
 9395SOL     OW30563   3.114   6.424  10.446 -0.1658 -0.0417  0.0337
 9395SOL    HW130564   3.193   6.473  10.469  1.6491 -3.0571  0.8777
 9395SOL    HW230565   3.042   6.482  10.467  1.7824  2.2506  0.7907
 9396SOL     OW30566  10.179  10.561  10.000  0.1063 -0.3361 -0.2693
 9396SOL    HW130567  10.125  10.638  10.015 -0.6013 -0.9606  0.4612
 9396SOL    HW230568  10.260  10.578  10.049 -0.2682 -0.2987  0.3341
 9397SOL     OW30569   4.150   8.937   1.284  0.7412  0.2969  0.4461
 9397SOL    HW130570   4.234   8.943   1.330  0.3787  3.1908  0.9078
 9397SOL    HW230571   4.091   8.995   1.333 -1.3098 -0.9624 -0.3895
 9398SOL     OW30572   9.623   3.610  10.732  0.0208 -0.0788  0.2233
 9398SOL    HW130573   9.656   3.578  10.648 -0.3569 -0.3190  0.1626
 9398SOL    HW230574   9.603   3.702  10.717 -0.4958 -0.2392 -0.0885
 9399SOL     OW30575  10.062   5.206   3.190  0.7893  0.1000  0.0453
 9399SOL    HW130576  10.133   5.195   3.127  1.6348  1.4445  0.7089
 9399SOL    HW230577  10.083   5.147   3.261  1.1178  0.3105  0.1251
 9400SOL     OW30578   9.814   1.157   6.083 -0.0832 -0.0151  0.0985
 9400SOL    HW130579   9.822   1.114   6.167  0.0660  1.7096  1.0160
 9400SOL    HW230580   9.890   1.128   6.033  0.2883 -0.4006  0.8725
 9401SOL     OW30581  10.015  10.656   0.321 -0.2153 -0.1581 -0.4343
 9401SOL    HW130582   9.986  10.701   0.242 -0.8987  0.4052  0.1237
 9401SOL    HW230583  10.053  10.724   0.375  2.4858 -0.9012 -1.2318
 9402SOL     OW30584   0.015   1.934   3.452  0.5130  0.5609 -0.3451
 9402SOL    HW130585   0.084   1.986   3.411  0.8821 -0.3963 -0.9796
 9402SOL    HW230586   0.053   1.846   3.458 -0.7738 -0.0577 -1.0011
 9403SOL     OW30587   1.380   0.549   9.493 -0.6875 -0.0422  0.2562
 9403SOL    HW130588   1.470   0.537   9.462 -0.8550  0.1585 -0.3300
 9403SOL    HW230589   1.328   0.487   9.442 -0.8947 -0.1015  0.5349
 9404SOL     OW30590   5.621   0.825   5.114 -0.0843  0.3283  0.0929
 9404SOL    HW130591   5.546   0.767   5.111  1.8826 -2.3173 -1.3714
 9404SOL    HW230592   5.627   0.851   5.206  1.0975 -4.9905  1.8604
 9405SOL     OW30593   4.494   1.224   8.009  0.2803 -0.4658 -0.2386
 9405SOL    HW130594   4.559   1.258   8.071  1.5336 -1.9763 -0.6864
 9405SOL    HW230595   4.533   1.238   7.923 -0.5772 -0.1934 -0.5899
 9406SOL     OW30596   2.498   7.536   2.984  0.1847 -0.2833  0.1954
 9406SOL    HW130597   2.415   7.580   3.003 -0.7565 -0.8683 -2.2372
 9406SOL    HW230598   2.565   7.593   3.022 -1.2906 -0.2488  3.0612
 9407SOL     OW30599   2.310   1.161   6.669 -0.0090  0.1275 -0.2836
 9407SOL    HW130600   2.337   1.210   6.592 -1.2703  0.1715 -0.7109
 9407SOL    HW230601   2.300   1.071   6.638  2.3406 -0.4869  0.5063
 9408SOL     OW30602   7.639   8.796   4.263 -0.9559  0.3985 -0.0581
 9408SOL    HW130603   7.629   8.817   4.170 -0.0058  0.7055 -0.0937
 9408SOL    HW230604   7.682   8.872   4.300  1.0761 -0.7816  0.1289
 9409SOL     OW30605  10.446   0.862   1.966 -0.1840  0.6672 -0.6269
 9409SOL    HW130606  10.514   0.903   2.019 -1.5236  0.5649  1.2575
 9409SOL    HW230607  10.495   0.812   1.900  1.5204  1.7686 -0.2801
 9410SOL     OW30608   6.472   6.762   7.061 -0.2984 -0.1141  0.2285
 9410SOL    HW130609   6.517   6.825   7.117  0.6782  1.0682 -1.7662
 9410SOL    HW230610   6.535   6.692   7.048  0.0548  0.3194 -0.5096
 9411SOL     OW30611   4.561   6.072   8.793  0.1728 -0.1729  0.4807
 9411SOL    HW130612   4.549   6.121   8.712 -3.3395 -0.7049  0.4865
 9411SOL    HW230613   4.591   5.985   8.764 -0.5404 -0.1969 -0.2299
 9412SOL     OW30614   3.853   9.495   7.119  0.5119 -0.0621 -0.2544
 9412SOL    HW130615   3.763   9.463   7.110 -0.2308  2.0279 -0.8362
 9412SOL    HW230616   3.904   9.439   7.060 -0.6879 -0.2453 -1.1613
 9413SOL     OW30617   5.423   7.024   5.015 -0.4778  0.6121  0.4885
 9413SOL    HW130618   5.393   7.059   4.931  0.8551 -0.0465 -0.3012
 9413SOL    HW230619   5.362   6.953   5.035  0.5411 -0.7996 -1.1482
 9414SOL     OW30620   5.648   3.162  10.378  0.1930 -0.0253 -0.4846
 9414SOL    HW130621   5.685   3.250  10.368  0.3705 -0.0859 -0.3663
 9414SOL    HW230622   5.716   3.103  10.344  0.7429 -0.2236  0.8564
 9415SOL     OW30623   9.109   2.073  10.575 -0.3792  0.4894  0.3215
 9415SOL    HW130624   9.188   2.021  10.591  0.6182  1.1465 -1.9493
 9415SOL    HW230625   9.133   2.162  10.598  1.0548  1.4349 -3.9441
 9416SOL     OW30626   2.640   7.998   1.120 -0.0990  0.3609 -0.6973
 9416SOL    HW130627   2.608   8.059   1.187 -1.4552  0.4266 -1.3778
 9416SOL    HW230628   2.725   8.035   1.094  0.7423  0.0199  1.3571
 9417SOL     OW30629   3.075   4.705   9.347 -0.6612  0.3417 -0.1376
 9417SOL    HW130630   2.982   4.722   9.331 -0.4038  1.6324 -0.4112
 9417SOL    HW230631   3.088   4.614   9.321 -1.7954  0.2150 -0.3092
 9418SOL     OW30632   4.584   1.236   4.325  0.1966  0.0869 -0.0152
 9418SOL    HW130633   4.575   1.180   4.402  0.9169  0.1726  0.1423
 9418SOL    HW230634   4.642   1.187   4.266  2.2790  1.3753  0.8573
 9419SOL     OW30635   0.169   9.541   6.901  0.1554 -0.1828 -0.5082
 9419SOL    HW130636   0.181   9.628   6.938 -0.6285 -0.4407  0.3958
 9419SOL    HW230637   0.106   9.498   6.959  0.2370 -1.2235 -1.1495
 9420SOL     OW30638   8.298   8.294   5.521  0.0105  0.0354  0.8155
 9420SOL    HW130639   8.204   8.275   5.514 -0.2122  1.5122 -1.0810
 9420SOL    HW230640   8.302   8.381   5.561  0.3529  1.2078 -1.5637
 9421SOL     OW30641   5.476   9.050   6.406 -0.8847 -0.1361  0.4102
 9421SOL    HW130642   5.498   9.102   6.484 -0.6140 -0.0964  0.3084
 9421SOL    HW230643   5.436   8.970   6.441 -0.2107 -0.3939  0.6276
 9422SOL     OW30644   3.269   2.357   0.800  0.6569 -0.3669 -0.3760
 9422SOL    HW130645   3.252   2.420   0.870  1.0910  0.4768 -1.0240
 9422SOL    HW230646   3.194   2.364   0.742  0.0902 -1.3687  0.1933
 9423SOL     OW30647   1.292   0.702   4.229 -0.0284  0.1238  0.2527
 9423SOL    HW130648   1.328   0.781   4.270 -0.6547  0.1240  0.8059
 9423SOL    HW230649   1.364   0.669   4.175 -0.0456  1.5771 -0.7210
 9424SOL     OW30650   5.679   8.714   5.651  0.0478  0.2506  0.0741
 9424SOL    HW130651   5.595   8.758   5.662  0.2792  0.5594  0.6198
 9424SOL    HW230652   5.675   8.677   5.562 -0.4383  0.7329 -0.1082
 9425SOL     OW30653   6.589  10.657   1.459  0.2522 -0.9153 -0.1913
 9425SOL    HW130654   6.643  10.676   1.536  0.2589 -0.8824 -0.2044
 9425SOL    HW230655   6.579  10.741   1.415  0.3702 -0.9617 -0.3060
 9426SOL     OW30656   1.301   0.345   6.252  0.4431 -0.5269  0.5026
 9426SOL    HW130657   1.308   0.366   6.345  0.3718  1.2317  0.1541
 9426SOL    HW230658   1.247   0.416   6.216  1.1812 -0.6941 -1.0178
 9427SOL     OW30659   6.843   0.606   7.105 -0.2505  0.1415 -0.6858
 9427SOL    HW130660   6.821   0.553   7.028  1.3359  1.1244 -1.8830
 9427SOL    HW230661   6.784   0.575   7.173 -0.4321 -2.0634 -1.7619
 9428SOL     OW30662   3.346  10.162   3.934 -0.0386  0.1827  0.1985
 9428SOL    HW130663   3.399  10.154   3.855 -0.6094 -2.0533 -0.0433
 9428SOL    HW230664   3.328  10.255   3.942  3.6556  1.0431  0.1769
 9429SOL     OW30665   0.192   7.614   5.742 -1.0441  0.4128 -0.3894
 9429SOL    HW130666   0.170   7.545   5.804  0.9902 -1.0240 -1.1772
 9429SOL    HW230667   0.193   7.570   5.657 -0.7243  1.6631 -1.0589
 9430SOL     OW30668   8.466   2.421   7.781 -0.1415  0.4358  0.0220
 9430SOL    HW130669   8.432   2.500   7.824 -1.0056  0.7829 -1.2374
 9430SOL    HW230670   8.435   2.349   7.836  0.6705  0.9340  1.2018
 9431SOL     OW30671   7.880   7.828   5.157  0.4021  0.3248 -0.5972
 9431SOL    HW130672   7.831   7.905   5.185 -0.4145 -0.2406 -0.4392
 9431SOL    HW230673   7.945   7.815   5.226 -0.5085 -0.0751  0.2055
 9432SOL     OW30674  10.571   2.175   6.615  0.2392 -0.3893  0.0837
 9432SOL    HW130675  10.608   2.114   6.679  1.2967  0.1127 -0.0211
 9432SOL    HW230676  10.601   2.261   6.645  0.4678 -0.1149 -0.8926
 9433SOL     OW30677   3.183   0.954   9.046 -0.0417  0.0334 -0.3957
 9433SOL    HW130678   3.201   0.983   9.135 -0.5101 -1.4943  0.2388
 9433SOL    HW230679   3.187   0.858   9.051  0.1708 -0.0770 -2.0736
 9434SOL     OW30680   0.903   4.372   9.751 -0.7501 -0.0871 -0.6238
 9434SOL    HW130681   0.963   4.304   9.784  0.0950  0.3054 -1.3172
 9434SOL    HW230682   0.891   4.350   9.659 -0.9631  0.3533 -0.7023
 9435SOL     OW30683   8.103   0.310   1.507 -0.6005  0.0180 -0.2951
 9435SOL    HW130684   8.085   0.244   1.574  2.7112 -2.2488 -1.3992
 9435SOL    HW230685   8.018   0.327   1.466 -2.0589 -1.2570  2.0164
 9436SOL     OW30686   7.923   3.741   6.189 -0.0796 -0.2722 -0.5900
 9436SOL    HW130687   8.012   3.720   6.161  0.0035  0.7045 -1.1175
 9436SOL    HW230688   7.929   3.749   6.284  0.2829 -0.7158 -0.5713
 9437SOL     OW30689   3.174  10.704   9.324  0.2248 -0.5462 -0.1595
 9437SOL    HW130690   3.128  10.693   9.407 -0.4485  2.4206 -0.0060
 9437SOL    HW230691   3.246  10.642   9.328  1.3918  0.7502  3.5696
 9438SOL     OW30692   7.266  10.574   9.039  0.1065  0.2554 -0.1952
 9438SOL    HW130693   7.261  10.479   9.051  0.1897  0.4532  1.6205
 9438SOL    HW230694   7.210  10.591   8.964  0.6974 -1.3026 -1.0436
 9439SOL     OW30695   9.734   8.627   8.593 -0.0891 -0.3834 -0.1198
 9439SOL    HW130696   9.718   8.662   8.505  0.8610 -0.1891 -0.2193
 9439SOL    HW230697   9.724   8.532   8.583  0.8411 -0.4331 -0.6265
 9440SOL     OW30698   4.215   9.034   5.390  0.0583 -0.3336  0.0174
 9440SOL    HW130699   4.135   9.087   5.395  1.7573  2.4380 -0.1433
 9440SOL    HW230700   4.199   8.975   5.316 -2.1648 -0.5340  0.5677
 9441SOL     OW30701  10.729   6.500   2.250 -0.0543 -0.1606 -0.0361
 9441SOL    HW130702  10.760   6.440   2.318  0.6112 -0.7368 -0.8170
 9441SOL    HW230703  10.762   6.462   2.168  0.4359  1.3020 -0.5519
 9442SOL     OW30704   0.617   0.312   2.661 -0.1596  0.3390 -0.6200
 9442SOL    HW130705   0.695   0.263   2.636 -0.9824 -0.8776 -0.8764
 9442SOL    HW230706   0.629   0.397   2.619 -0.2282 -0.7378 -2.9864
 9443SOL     OW30707   6.968   7.089  10.657  0.5378  0.2668 -0.1101
 9443SOL    HW130708   6.939   7.132  10.737 -0.2301 -1.5184  0.6099
 9443SOL    HW230709   6.933   7.000  10.663 -0.4515  0.3734 -2.9015
 9444SOL     OW30710   4.378   9.459   2.263  0.5266 -0.2185  0.5066
 9444SOL    HW130711   4.291   9.419   2.261  0.0971  0.7026  0.1136
 9444SOL    HW230712   4.396   9.470   2.357  0.1039 -0.1800  0.5887
 9445SOL     OW30713   4.080   0.614   1.630 -0.1044 -0.0687 -0.0128
 9445SOL    HW130714   4.086   0.689   1.690 -1.4160  0.3163 -0.3255
 9445SOL    HW230715   4.084   0.538   1.688  2.2176  0.1644  0.2276
 9446SOL     OW30716   8.509  10.433   6.712  0.2476 -0.7479  0.4225
 9446SOL    HW130717   8.423  10.436   6.670 -0.1263 -0.1126  1.2278
 9446SOL    HW230718   8.504  10.359   6.772  0.5784 -1.2684 -0.1665
 9447SOL     OW30719   9.297   6.698   5.110  0.1174  0.0045  0.9048
 9447SOL    HW130720   9.250   6.755   5.049  0.4618 -0.4225  0.2452
 9447SOL    HW230721   9.374   6.748   5.135 -0.8781  0.9128  2.3581
 9448SOL     OW30722   8.297   0.772   8.631 -0.1114 -0.2627  0.2441
 9448SOL    HW130723   8.268   0.767   8.539  1.4952 -0.1749 -0.3025
 9448SOL    HW230724   8.282   0.684   8.665 -1.3018 -0.1382  0.1062
 9449SOL     OW30725   0.407   5.630   9.113  0.0292  0.3886  0.7108
 9449SOL    HW130726   0.381   5.654   9.202  2.7324  0.3100  1.6161
 9449SOL    HW230727   0.489   5.678   9.098  0.2612 -0.5219 -1.2871
 9450SOL     OW30728   4.799   6.368   9.389 -0.2757 -0.3663 -0.2862
 9450SOL    HW130729   4.818   6.381   9.296 -2.1592 -2.3902 -1.0322
 9450SOL    HW230730   4.772   6.455   9.420 -1.1247  0.0261 -2.0330
 9451SOL     OW30731   2.113   7.709   6.620 -0.4205  0.5870 -0.0975
 9451SOL    HW130732   2.167   7.785   6.600  0.1930 -0.4129 -2.5619
 9451SOL    HW230733   2.023   7.738   6.606 -0.2326  1.0069 -0.4553
 9452SOL     OW30734   1.389   4.345   2.813 -0.0985  0.3006  0.3155
 9452SOL    HW130735   1.412   4.270   2.868 -1.4643 -1.0595 -0.8665
 9452SOL    HW230736   1.350   4.408   2.874 -1.3374 -1.0632  0.9900
 9453SOL     OW30737   8.741   3.560   6.457 -0.0531 -0.5013  0.1631
 9453SOL    HW130738   8.668   3.603   6.502  0.5967  2.3477 -1.2998
 9453SOL    HW230739   8.702   3.518   6.381 -0.4177 -0.7225  0.4694
 9454SOL     OW30740   5.128   8.841   6.142  0.2095 -0.2009  0.6006
 9454SOL    HW130741   5.218   8.811   6.151  0.5793  0.7938  0.3347
 9454SOL    HW230742   5.087   8.778   6.083  0.4900 -1.1264  1.3690
 9455SOL     OW30743   7.426   0.602   6.371 -0.2881  0.0294  0.6295
 9455SOL    HW130744   7.477   0.527   6.401  1.4908  0.0211 -2.0840
 9455SOL    HW230745   7.416   0.656   6.449 -0.8408 -2.5352  2.4590
 9456SOL     OW30746   0.593   9.004   0.802  0.0300 -0.5653 -0.1579
 9456SOL    HW130747   0.592   8.926   0.857 -0.1196 -0.8745 -0.5938
 9456SOL    HW230748   0.569   8.973   0.715 -0.6410  0.0581 -0.2175
 9457SOL     OW30749   4.413   3.291   3.307  0.5442  0.1694  0.5314
 9457SOL    HW130750   4.362   3.274   3.228 -0.9754  0.2616  1.4611
 9457SOL    HW230751   4.423   3.205   3.349  1.5613  0.0799  0.1397
 9458SOL     OW30752   9.875   1.601   2.866 -0.3566 -0.1811 -0.1320
 9458SOL    HW130753   9.938   1.653   2.914 -1.1817  0.8127 -0.0792
 9458SOL    HW230754   9.837   1.542   2.931  0.2398 -0.5299 -0.0917
 9459SOL     OW30755   1.721   6.899  10.233  0.4162 -0.0932  0.5271
 9459SOL    HW130756   1.776   6.875  10.307  0.1892 -0.7378  0.4904
 9459SOL    HW230757   1.698   6.816  10.192  3.4586  0.2931 -2.4201
 9460SOL     OW30758  10.371  10.375   3.822  0.2747  0.0909 -0.2102
 9460SOL    HW130759  10.343  10.441   3.886 -1.8243 -1.4637  0.5874
 9460SOL    HW230760  10.397  10.300   3.875 -0.2216 -0.7570 -1.1216
 9461SOL     OW30761   7.797   1.092   1.612 -0.9336  0.0229 -0.0796
 9461SOL    HW130762   7.797   1.000   1.638 -0.3406 -0.4966 -1.7740
 9461SOL    HW230763   7.886   1.122   1.628  0.0885 -0.8999 -3.1870
 9462SOL     OW30764   4.082   7.676   7.454  0.2685 -1.1352  0.2521
 9462SOL    HW130765   4.027   7.735   7.403  0.3579 -0.4709  0.9191
 9462SOL    HW230766   4.060   7.695   7.545 -1.1721 -3.5201  0.4943
 9463SOL     OW30767   7.358   2.963  10.765  0.3999  0.4074 -0.1354
 9463SOL    HW130768   7.269   2.941  10.795  0.2798  0.6488 -0.3098
 9463SOL    HW230769   7.406   2.881  10.771 -0.5427 -0.4249 -2.6491
 9464SOL     OW30770   0.762   7.704   7.933 -0.2363 -0.1940  0.0411
 9464SOL    HW130771   0.700   7.726   8.003 -0.2253 -0.8908  0.2724
 9464SOL    HW230772   0.848   7.719   7.971 -0.2462  1.1812 -0.4130
 9465SOL     OW30773   9.970   5.439   6.513 -0.0073 -0.7009  0.1739
 9465SOL    HW130774   9.927   5.416   6.595 -0.7214  0.2539  0.0767
 9465SOL    HW230775  10.063   5.445   6.535 -0.2372 -0.1155  0.9826
 9466SOL     OW30776  10.748   1.978   8.602  0.3457  0.1555 -0.3658
 9466SOL    HW130777  10.725   1.992   8.511  1.3366 -0.1015 -0.6720
 9466SOL    HW230778  10.728   2.060   8.646  0.9641  0.6875 -1.0518
 9467SOL     OW30779   4.251   4.032   3.818  0.0703 -0.1199  0.4660
 9467SOL    HW130780   4.253   3.953   3.872  2.1581 -0.3728  0.1327
 9467SOL    HW230781   4.180   4.017   3.755 -1.7661 -0.2304  2.4534
 9468SOL     OW30782   0.612   7.153   7.806 -0.2267 -0.7581  0.5284
 9468SOL    HW130783   0.656   7.235   7.787 -1.4567  0.2717  1.9314
 9468SOL    HW230784   0.631   7.136   7.898 -1.6786 -0.9327  0.8259
 9469SOL     OW30785   6.437   8.168   8.334 -0.2776 -0.4211  0.0078
 9469SOL    HW130786   6.424   8.229   8.407 -0.6986 -2.0700  1.3708
 9469SOL    HW230787   6.369   8.102   8.346 -0.5259 -0.6255 -2.0600
 9470SOL     OW30788   5.408   8.505   5.267 -0.0178  0.5997 -0.6762
 9470SOL    HW130789   5.470   8.482   5.198  0.7477  0.6527 -0.0186
 9470SOL    HW230790   5.377   8.421   5.302  2.5301  0.4369  1.5064
 9471SOL     OW30791   3.254   3.536   0.984  0.0839  0.3343  0.0560
 9471SOL    HW130792   3.242   3.631   0.973  0.5952  0.3863 -0.0658
 9471SOL    HW230793   3.337   3.528   1.031  0.4229 -0.0809 -0.5956
 9472SOL     OW30794  10.538   1.151   2.168 -1.0584  0.0813 -0.0193
 9472SOL    HW130795  10.497   1.235   2.147  0.7153  1.4851  1.8102
 9472SOL    HW230796  10.553   1.154   2.262 -0.5285 -2.1256  0.0327
 9473SOL     OW30797   3.524   2.424   6.168  0.0698  0.1151  0.8015
 9473SOL    HW130798   3.462   2.479   6.216 -1.2778 -0.1022 -0.5888
 9473SOL    HW230799   3.522   2.340   6.214  0.5119  0.5767  1.6746
 9474SOL     OW30800   1.352   6.015   2.572 -0.6355  0.2413  0.1645
 9474SOL    HW130801   1.351   5.934   2.623 -0.7967  0.5225  0.6008
 9474SOL    HW230802   1.349   6.085   2.636 -1.4979  0.5950 -0.2563
 9475SOL     OW30803   2.890   3.629   1.523  0.2245 -0.0347 -0.1588
 9475SOL    HW130804   2.906   3.723   1.512  1.8901 -0.3027 -0.3278
 9475SOL    HW230805   2.834   3.623   1.600 -0.1551  1.1170 -0.3231
 9476SOL     OW30806   8.699   7.781   0.107 -0.1906 -0.1708 -0.2558
 9476SOL    HW130807   8.629   7.840   0.080  0.3084  0.1559 -0.8702
 9476SOL    HW230808   8.662   7.732   0.181 -0.0560  2.1007  1.4262
 9477SOL     OW30809   7.660   5.665   7.629 -0.2773  0.1644 -0.3302
 9477SOL    HW130810   7.634   5.717   7.706 -0.9984  0.1328 -0.5393
 9477SOL    HW230811   7.753   5.683   7.618 -0.6660  2.0476 -0.8738
 9478SOL     OW30812   3.818  10.491   6.134  0.1196 -0.3335  0.1340
 9478SOL    HW130813   3.837  10.487   6.040 -0.4143  0.8001 -0.0394
 9478SOL    HW230814   3.831  10.583   6.157 -1.5069 -0.2360  0.7891
 9479SOL     OW30815  10.022   8.402   4.451 -0.7122 -0.0223 -0.0487
 9479SOL    HW130816  10.072   8.323   4.471 -1.6415 -0.5107  0.4668
 9479SOL    HW230817  10.017   8.449   4.534 -2.7673 -0.9870  0.4513
 9480SOL     OW30818   7.127  10.551   1.270 -0.8434 -0.5081  0.1919
 9480SOL    HW130819   7.041  10.512   1.284 -0.6333 -0.7387  0.8402
 9480SOL    HW230820   7.153  10.520   1.183 -1.3159 -0.6057  0.0800
 9481SOL     OW30821   6.819   6.879   1.318  0.8457 -0.3081 -0.0692
 9481SOL    HW130822   6.733   6.913   1.343  0.4175 -0.3974 -1.3471
 9481SOL    HW230823   6.881   6.929   1.371 -0.0337 -1.1930  1.8983
 9482SOL     OW30824   7.658   4.059   0.556  0.0960  0.5526 -0.1512
 9482SOL    HW130825   7.620   3.989   0.502  0.8088  0.2903 -0.3202
 9482SOL    HW230826   7.601   4.062   0.634  0.7396 -1.0526  0.4263
 9483SOL     OW30827   3.362   6.885   9.357 -0.0033 -0.0782 -0.4800
 9483SOL    HW130828   3.368   6.974   9.323 -0.1892  0.5693  1.1009
 9483SOL    HW230829   3.441   6.875   9.410 -0.4605 -0.4977  0.1325
 9484SOL     OW30830   8.579   7.811   7.093  0.3869  0.7063  0.0326
 9484SOL    HW130831   8.614   7.795   7.181  0.2054  1.6379  0.2761
 9484SOL    HW230832   8.654   7.842   7.043  0.0420  2.2120  0.4209
 9485SOL     OW30833   7.840   8.219  10.553  0.0225 -0.1808  0.1931
 9485SOL    HW130834   7.772   8.152  10.544 -1.6330  1.2730  1.0421
 9485SOL    HW230835   7.850   8.229  10.648 -0.6354  1.5590  0.1035
 9486SOL     OW30836   2.054   7.668   5.807 -0.3529 -1.1172 -0.0074
 9486SOL    HW130837   2.043   7.725   5.883 -1.6311 -1.8801  0.3992
 9486SOL    HW230838   2.148   7.671   5.789 -0.1904 -0.0474  0.9084
 9487SOL     OW30839   1.843   8.811  10.051 -0.3629 -0.0367 -0.2909
 9487SOL    HW130840   1.748   8.819  10.042 -0.5600 -2.2608 -0.5483
 9487SOL    HW230841   1.878   8.867   9.982 -1.4248  1.5237  0.3549
 9488SOL     OW30842  10.716   9.236   4.895  0.5110  0.1618 -0.3075
 9488SOL    HW130843  10.713   9.326   4.927 -1.2454 -0.5942  1.8737
 9488SOL    HW230844  10.703   9.244   4.800  0.1789  2.1912 -0.1245
 9489SOL     OW30845   9.880   6.093   5.020 -0.5339 -0.0634 -0.0263
 9489SOL    HW130846   9.842   6.178   4.999 -3.8889 -1.2678  0.5075
 9489SOL    HW230847   9.867   6.083   5.115 -0.0638 -1.1001 -0.0537
 9490SOL     OW30848  10.470   6.333   8.068 -0.3043  0.2809 -0.6186
 9490SOL    HW130849  10.493   6.400   8.132 -0.1981  0.1229 -0.4924
 9490SOL    HW230850  10.423   6.266   8.118 -1.3308  0.7505 -0.9253
 9491SOL     OW30851   4.435  10.003   3.551 -0.0627 -0.0262  0.0603
 9491SOL    HW130852   4.379  10.079   3.570  0.4672  0.0117  1.5225
 9491SOL    HW230853   4.462  10.017   3.460 -1.3416  0.6493 -0.2455
 9492SOL     OW30854   2.939   2.503   7.211 -0.3237  0.5448 -0.2205
 9492SOL    HW130855   3.018   2.557   7.206  1.0715 -1.3135  0.3310
 9492SOL    HW230856   2.972   2.416   7.238 -2.9214  0.5675  3.8253
 9493SOL     OW30857   1.580  10.039   4.574 -0.2352 -0.5370  0.1810
 9493SOL    HW130858   1.675  10.033   4.566 -0.0887 -0.7853  1.8069
 9493SOL    HW230859   1.547   9.976   4.510  0.6965 -0.7100 -0.1516
 9494SOL     OW30860  10.231   5.006   0.724  0.0061  1.1085  0.2606
 9494SOL    HW130861  10.162   4.940   0.726 -0.6232  1.7644  0.4111
 9494SOL    HW230862  10.312   4.957   0.742 -0.3324  0.2393 -0.4714
 9495SOL     OW30863   1.656   4.408   6.412 -0.4016 -0.2186  0.1856
 9495SOL    HW130864   1.563   4.424   6.399 -0.4726  0.0455  0.9332
 9495SOL    HW230865   1.689   4.490   6.449  0.1309 -0.3068 -0.0836
 9496SOL     OW30866   5.206   1.157   9.490  0.0904 -0.3056  0.1776
 9496SOL    HW130867   5.173   1.185   9.576 -2.0976  1.5680 -1.1411
 9496SOL    HW230868   5.153   1.080   9.468  0.2644 -0.4532  0.2755
 9497SOL     OW30869  10.744   8.564   3.463 -0.0197  0.1109 -0.3501
 9497SOL    HW130870  10.816   8.501   3.469  0.3453  0.5182 -0.3973
 9497SOL    HW230871  10.782   8.647   3.493 -0.7925  0.0741  0.8031
 9498SOL     OW30872   6.733   0.595   2.167 -0.3461  0.0636 -0.3389
 9498SOL    HW130873   6.693   0.522   2.120 -0.2543 -1.0425  1.2029
 9498SOL    HW230874   6.806   0.556   2.215 -0.6462  1.0212  0.9765
 9499SOL     OW30875   6.844   1.280   4.819 -0.2251  0.1325  0.1935
 9499SOL    HW130876   6.785   1.206   4.828  0.1628 -0.2456 -0.3262
 9499SOL    HW230877   6.888   1.286   4.904  0.5495 -0.9453 -0.1040
 9500SOL     OW30878   9.578   2.537   5.065  0.0722  0.1230  0.4618
 9500SOL    HW130879   9.651   2.592   5.095  1.9708 -2.5681  1.2118
 9500SOL    HW230880   9.561   2.477   5.138 -0.5099 -1.5538 -0.9641
 9501SOL     OW30881   4.894   9.278   9.525 -0.2007  0.9007  0.0593
 9501SOL    HW130882   4.930   9.302   9.611 -0.4028  2.0313 -0.1483
 9501SOL    HW230883   4.897   9.360   9.475  2.1605 -0.2283 -1.8511
 9502SOL     OW30884   0.961   1.951   1.590  0.7500  0.0643 -0.1999
 9502SOL    HW130885   0.989   1.860   1.579  1.3919  0.4300 -1.8206
 9502SOL    HW230886   0.994   1.996   1.512 -1.1830  1.3098 -0.3566
 9503SOL     OW30887  10.541   0.092   4.878 -0.3267 -0.1492 -0.3195
 9503SOL    HW130888  10.562   0.110   4.970 -0.6923 -1.9307  0.1535
 9503SOL    HW230889  10.578   0.166   4.830  0.6052  0.4014  1.1818
 9504SOL     OW30890   7.238   5.527   2.613 -0.3207  0.3026 -0.1092
 9504SOL    HW130891   7.331   5.505   2.625 -0.4834 -1.0970 -1.2023
 9504SOL    HW230892   7.195   5.489   2.689 -0.1107  0.0775 -0.0988
 9505SOL     OW30893   8.595   2.496   8.369  0.2895 -0.5138  0.0303
 9505SOL    HW130894   8.557   2.479   8.283  1.4413  1.3423 -0.9197
 9505SOL    HW230895   8.612   2.591   8.369  2.1543 -0.7852  1.5164
 9506SOL     OW30896   6.727   2.520   2.139  0.0736 -0.8663  0.3329
 9506SOL    HW130897   6.798   2.530   2.203 -0.3246 -1.5148  0.8973
 9506SOL    HW230898   6.771   2.496   2.058  0.5691 -0.3223  0.4310
 9507SOL     OW30899   0.652   8.617   8.669 -0.0433 -0.6199  0.1228
 9507SOL    HW130900   0.608   8.665   8.599  2.0489 -0.3056 -1.0847
 9507SOL    HW230901   0.635   8.525   8.650  0.3572 -0.5271 -0.7189
 9508SOL     OW30902   8.044  10.110   4.802  0.8446 -0.4835 -0.4457
 9508SOL    HW130903   8.037  10.097   4.897  1.7696 -0.0204 -0.2979
 9508SOL    HW230904   8.045  10.022   4.765  0.2992 -0.6667 -0.0504
 9509SOL     OW30905   0.283   5.748   8.302  0.3299  0.0173 -0.2967
 9509SOL    HW130906   0.365   5.735   8.349  0.3654  0.7003 -0.1575
 9509SOL    HW230907   0.218   5.760   8.371  0.1242 -0.4429 -0.4075
 9510SOL     OW30908   1.386  10.380  10.059 -0.4480  0.8580 -0.4721
 9510SOL    HW130909   1.343  10.420  10.135 -1.8057 -0.5737 -0.4508
 9510SOL    HW230910   1.318  10.373   9.993 -0.0249 -0.5087 -0.8085
 9511SOL     OW30911   1.242   9.469   5.848 -0.1344 -0.3748 -0.2965
 9511SOL    HW130912   1.269   9.508   5.765 -2.0716 -0.5942 -1.0713
 9511SOL    HW230913   1.290   9.519   5.914  1.1167  0.0817 -1.5030
 9512SOL     OW30914   3.953   3.661   9.545  0.8765  0.0782  0.3270
 9512SOL    HW130915   3.902   3.709   9.479  0.1610 -0.1824  0.6774
 9512SOL    HW230916   4.035   3.710   9.553  1.6165 -0.6870 -1.8345
 9513SOL     OW30917   3.299   4.596   5.603  0.3323 -0.6201  0.2639
 9513SOL    HW130918   3.258   4.548   5.531  0.3410  0.4022 -0.4340
 9513SOL    HW230919   3.321   4.681   5.566 -1.3945  0.6466  1.9542
 9514SOL     OW30920   5.595   9.224  10.599  0.4232 -0.3932  0.0254
 9514SOL    HW130921   5.654   9.170  10.652  1.7097  0.8203 -0.1128
 9514SOL    HW230922   5.653   9.288  10.557 -1.2265  2.5622  1.9132
 9515SOL     OW30923   9.818   0.137   5.351  0.3832  0.0998 -0.2727
 9515SOL    HW130924   9.861   0.074   5.408  0.8537  0.1465 -0.5763
 9515SOL    HW230925   9.826   0.100   5.263 -0.4919 -0.0564 -0.2947
 9516SOL     OW30926   9.314   9.455   2.960  0.1085 -0.1059  0.7072
 9516SOL    HW130927   9.305   9.494   3.047 -1.5466 -1.2260  1.0849
 9516SOL    HW230928   9.228   9.465   2.920 -0.3103 -2.8823  0.6671
 9517SOL     OW30929   1.375   9.957   5.282  0.2562 -0.1362 -0.0172
 9517SOL    HW130930   1.340  10.012   5.212 -2.2075 -0.0600  1.1838
 9517SOL    HW230931   1.314   9.968   5.355  1.5283 -1.8920  1.4201
 9518SOL     OW30932   9.967   2.662   2.936  0.2647 -0.0331 -0.2712
 9518SOL    HW130933  10.000   2.573   2.923  2.4167  0.3124  2.1168
 9518SOL    HW230934   9.882   2.650   2.979  0.6390 -0.9548  0.2500
 9519SOL     OW30935   2.327  10.177   5.047 -0.6056 -0.3383  0.0301
 9519SOL    HW130936   2.312  10.271   5.049 -0.3336 -0.2023 -1.9536
 9519SOL    HW230937   2.420  10.168   5.028 -0.8467 -0.9631 -0.9366
 9520SOL     OW30938   2.051   7.648   1.119 -0.3463  0.6038 -0.3571
 9520SOL    HW130939   2.132   7.597   1.117  0.2165  1.4001  0.8553
 9520SOL    HW230940   1.991   7.600   1.062 -0.1158 -1.8943  1.3268
 9521SOL     OW30941   1.935   2.820   8.676 -0.1211  0.0760  0.6164
 9521SOL    HW130942   2.023   2.854   8.659 -0.0696 -0.2142  0.2868
 9521SOL    HW230943   1.897   2.807   8.589 -0.6455  0.5981  0.7686
 9522SOL     OW30944   7.546   6.247  10.761  0.4762  0.9046  0.0771
 9522SOL    HW130945   7.636   6.227  10.737 -0.5068 -2.1892 -1.5770
 9522SOL    HW230946   7.509   6.289  10.683  0.2614  1.4556  0.4670
 9523SOL     OW30947   8.143   4.727   0.548 -0.5092  0.7122  0.0569
 9523SOL    HW130948   8.190   4.760   0.471 -1.0628 -0.4446 -0.8036
 9523SOL    HW230949   8.051   4.741   0.527 -0.6814  0.0731  0.3641
 9524SOL     OW30950   8.602   4.051   2.597  0.1901  0.4902 -0.2527
 9524SOL    HW130951   8.632   4.063   2.506  0.7378 -1.0686 -0.3087
 9524SOL    HW230952   8.667   4.098   2.650  0.6076  0.2962 -0.5894
 9525SOL     OW30953   6.339   6.944   9.939 -0.3278  0.2480  0.0328
 9525SOL    HW130954   6.300   6.890  10.007  1.4268 -0.3491  0.6210
 9525SOL    HW230955   6.300   7.031   9.952 -0.3509  0.0382  1.5259
 9526SOL     OW30956   0.758   0.747   5.319  0.3519  0.1185  0.1868
 9526SOL    HW130957   0.802   0.829   5.342  0.9829 -0.5770  1.5813
 9526SOL    HW230958   0.821   0.679   5.343 -0.6841 -0.8267  0.3032
 9527SOL     OW30959   2.807   7.402   9.706  0.5167 -0.7596 -0.5274
 9527SOL    HW130960   2.784   7.316   9.742  1.0153 -1.3777 -1.6531
 9527SOL    HW230961   2.764   7.465   9.765  1.0301 -1.7349  0.9499
 9528SOL     OW30962   8.185   6.662   9.514  0.8429  0.2918 -0.0422
 9528SOL    HW130963   8.266   6.638   9.559 -0.6200 -0.4015  2.4270
 9528SOL    HW230964   8.143   6.724   9.573 -1.1289 -0.5359 -0.5194
 9529SOL     OW30965   0.076   2.197   9.629  0.0003  0.1616  0.4923
 9529SOL    HW130966   0.059   2.134   9.559 -0.0656  0.2282  0.4486
 9529SOL    HW230967   0.018   2.170   9.700  0.2710 -0.0794  0.6277
 9530SOL     OW30968   9.341   0.907   1.334 -0.7526  0.6150 -0.0292
 9530SOL    HW130969   9.339   0.817   1.367  0.4618 -0.6931 -3.2021
 9530SOL    HW230970   9.428   0.940   1.357 -0.3151  0.0952 -0.8884
 9531SOL     OW30971   3.733   2.395   8.527  0.0043  0.2590 -0.0755
 9531SOL    HW130972   3.638   2.405   8.533  0.0486  0.3192  0.6783
 9531SOL    HW230973   3.746   2.316   8.475 -0.4536  0.4412 -0.4694
 9532SOL     OW30974   4.061   7.564   6.829  0.2800 -0.1887 -0.2317
 9532SOL    HW130975   4.021   7.482   6.856  0.7744 -0.1478  0.6833
 9532SOL    HW230976   4.019   7.630   6.885 -1.5956  0.5108 -2.3308
 9533SOL     OW30977   3.416   3.515   5.344 -0.6978  0.0351 -0.1326
 9533SOL    HW130978   3.447   3.428   5.371  0.0789  0.3449 -0.0157
 9533SOL    HW230979   3.368   3.547   5.421 -0.8194 -0.2069 -0.1049
 9534SOL     OW30980   9.103   0.101   5.206 -0.6924  0.1875 -0.3498
 9534SOL    HW130981   9.017   0.080   5.171 -1.1905  2.6178 -0.7450
 9534SOL    HW230982   9.090   0.183   5.254  1.6501  1.4333 -1.6574
 9535SOL     OW30983   1.364   1.033   8.203 -0.5303  0.1565 -0.2275
 9535SOL    HW130984   1.323   1.025   8.290 -1.7125  0.1786 -0.7663
 9535SOL    HW230985   1.449   0.991   8.213 -1.3758 -1.4876  0.4755
 9536SOL     OW30986   9.122   9.133   6.536 -0.2255 -0.2977  0.4019
 9536SOL    HW130987   9.049   9.185   6.503 -0.1940  0.0624  0.8902
 9536SOL    HW230988   9.177   9.117   6.459 -0.8542 -0.6443  0.0157
 9537SOL     OW30989   1.711   8.024  10.096  0.2127  0.4738 -0.4372
 9537SOL    HW130990   1.705   7.939  10.053 -0.7371 -0.1115  0.7778
 9537SOL    HW230991   1.761   8.079  10.035 -1.1384 -0.2741 -2.3059
 9538SOL     OW30992  10.145   3.616   8.573 -0.1780  0.4118  0.4603
 9538SOL    HW130993  10.084   3.628   8.645  0.4560  0.8319  0.9365
 9538SOL    HW230994  10.231   3.609   8.615  0.0557 -0.6701 -0.1629
 9539SOL     OW30995   7.108   2.710   6.316 -0.1609  0.6116  0.3454
 9539SOL    HW130996   7.133   2.633   6.367  1.1407 -0.2240 -1.4677
 9539SOL    HW230997   7.013   2.703   6.308 -0.0925 -0.6696  0.4433
 9540SOL     OW30998   3.210   1.725   3.192  0.1621  0.7302 -0.1669
 9540SOL    HW130999   3.243   1.738   3.102  1.2723  1.5106  0.3163
 9540SOL    HW231000   3.290   1.715   3.244 -0.3973  1.9088  0.9571
 9541SOL     OW31001   2.342   3.201   6.537  0.5668 -0.0577 -0.1539
 9541SOL    HW131002   2.397   3.199   6.459  1.6537 -0.4879  0.5912
 9541SOL    HW231003   2.369   3.123   6.587  0.2915  0.5052  0.8996
 9542SOL     OW31004   4.691   0.415   6.994 -0.0881 -0.1061 -0.4695
 9542SOL    HW131005   4.630   0.475   7.036  0.6417  1.0395 -0.9853
 9542SOL    HW231006   4.685   0.436   6.900 -0.2224 -1.2223 -0.7176
 9543SOL     OW31007   2.914   8.596   1.909 -0.0753  0.3501  0.3174
 9543SOL    HW131008   2.986   8.576   1.849 -0.4911  1.1616 -0.4735
 9543SOL    HW231009   2.903   8.516   1.961 -0.0527 -0.5743 -1.0467
 9544SOL     OW31010   2.242   1.984   3.736  0.2477 -0.3572  0.4807
 9544SOL    HW131011   2.284   1.927   3.801  0.5879 -0.8473 -0.1586
 9544SOL    HW231012   2.193   1.924   3.679  2.5185 -0.3180 -1.6571
 9545SOL     OW31013   8.273   8.707  10.219 -0.0276  0.4111 -0.4152
 9545SOL    HW131014   8.218   8.715  10.141  0.7138  0.7523 -0.9028
 9545SOL    HW231015   8.329   8.631  10.202  0.3770  0.6959 -0.3612
 9546SOL     OW31016   4.739   8.780   4.472  0.0733 -0.0446 -0.0004
 9546SOL    HW131017   4.720   8.763   4.564 -0.7851 -0.8633 -0.3128
 9546SOL    HW231018   4.793   8.706   4.445 -2.3746 -1.6146 -0.9630
 9547SOL     OW31019   2.386   3.138   1.313  0.2010  0.1921  0.1767
 9547SOL    HW131020   2.352   3.177   1.233  2.3770 -1.8802 -1.9151
 9547SOL    HW231021   2.391   3.044   1.294 -2.0926 -0.9339  3.8989
 9548SOL     OW31022   6.913   9.802   0.665 -0.5275 -0.4344 -0.3742
 9548SOL    HW131023   7.006   9.808   0.687 -0.9913 -0.8471  2.0554
 9548SOL    HW231024   6.868   9.843   0.740 -2.3063  0.1581 -1.6878
 9549SOL     OW31025   3.908   0.557   7.485 -0.7775 -0.3896 -0.1435
 9549SOL    HW131026   3.928   0.559   7.391 -2.2629 -0.0132 -0.4831
 9549SOL    HW231027   3.953   0.479   7.517  1.9781  0.8922 -0.5884
 9550SOL     OW31028   2.215   8.437  10.207  0.1522  0.0031  0.7493
 9550SOL    HW131029   2.131   8.391  10.196  0.4756 -0.2989 -0.5512
 9550SOL    HW231030   2.191   8.528  10.224 -0.4537 -0.2302  1.1632
 9551SOL     OW31031   4.740   1.826   1.959 -0.2624 -0.3458 -0.1162
 9551SOL    HW131032   4.763   1.735   1.978  0.5259  0.1053  1.2264
 9551SOL    HW231033   4.818   1.863   1.918 -0.6875 -0.3377 -0.9420
 9552SOL     OW31034   0.478   2.558   0.014  0.2594 -0.3583 -0.4162
 9552SOL    HW131035   0.560   2.606   0.028  0.5399 -0.7729 -0.6092
 9552SOL    HW231036   0.427   2.574   0.093  0.0303  0.8741 -0.7889
 9553SOL     OW31037   2.318   6.298   7.595  0.1750 -0.3889 -0.0316
 9553SOL    HW131038   2.246   6.235   7.584 -2.1280  1.8352  1.2907
 9553SOL    HW231039   2.362   6.269   7.675 -0.3092 -0.8392  0.0822
 9554SOL     OW31040   3.421   0.462   7.514  0.3029 -0.3889 -0.0962
 9554SOL    HW131041   3.409   0.556   7.528 -0.2846 -0.5594  0.6593
 9554SOL    HW231042   3.386   0.446   7.426 -0.2170 -0.0076  0.0367
 9555SOL     OW31043   5.372   9.630   8.367 -0.4491 -0.3362 -0.1589
 9555SOL    HW131044   5.316   9.707   8.361  1.8063  1.3357 -0.7355
 9555SOL    HW231045   5.407   9.619   8.279  1.0543 -0.6226  0.4562
 9556SOL     OW31046   3.573   3.725   8.584  0.0106 -0.8454 -0.6270
 9556SOL    HW131047   3.629   3.799   8.606 -2.1608  0.3518  1.2858
 9556SOL    HW231048   3.514   3.759   8.516 -1.5951 -0.4345  0.9033
 9557SOL     OW31049   7.869   8.429   8.647 -0.1706 -0.0428  0.1202
 9557SOL    HW131050   7.855   8.334   8.644 -0.9397  0.0566  0.2968
 9557SOL    HW231051   7.884   8.449   8.739 -2.4747  0.3061  0.4956
 9558SOL     OW31052   3.676  10.280   7.736  0.2571  0.2193 -0.0856
 9558SOL    HW131053   3.772  10.282   7.732  0.3231 -1.4768 -0.0851
 9558SOL    HW231054   3.648  10.337   7.665  1.2746  0.3788 -0.3710
 9559SOL     OW31055   5.310   3.960   5.960 -0.4717 -0.0004 -0.2668
 9559SOL    HW131056   5.348   4.043   5.991  2.0743 -0.5037 -1.7264
 9559SOL    HW231057   5.260   3.984   5.882  0.4564  0.1839 -0.8262
 9560SOL     OW31058   7.756   0.515   3.459 -0.0220 -0.5218  0.2415
 9560SOL    HW131059   7.700   0.526   3.536  0.5158  0.2068  0.5311
 9560SOL    HW231060   7.845   0.525   3.492  0.2301 -0.6584 -0.3952
 9561SOL     OW31061   7.741   6.898  10.580  0.3907  0.2041  0.5095
 9561SOL    HW131062   7.760   6.968  10.517 -0.2858 -2.8113 -3.4745
 9561SOL    HW231063   7.692   6.941  10.650 -2.0509  3.4781 -2.7907
 9562SOL     OW31064   3.173   3.852   2.043 -0.2536 -0.7743 -0.1259
 9562SOL    HW131065   3.111   3.914   2.083  0.3769  0.4845 -1.0309
 9562SOL    HW231066   3.118   3.783   2.007 -1.2559  0.7392 -1.6615
 9563SOL     OW31067   0.069   9.349   8.768 -0.1700 -0.8286 -0.1752
 9563SOL    HW131068   0.124   9.366   8.845  0.1198 -1.4320 -0.2471
 9563SOL    HW231069   0.122   9.376   8.694 -0.0751 -1.1549 -0.2268
 9564SOL     OW31070   4.653   4.645   8.943  0.2665  0.3431 -0.3176
 9564SOL    HW131071   4.663   4.551   8.960 -0.2317  0.6466  2.0014
 9564SOL    HW231072   4.742   4.679   8.942  0.4150 -0.0481 -0.4464
 9565SOL     OW31073   6.874   2.713   0.139 -0.4811  0.3762 -0.4203
 9565SOL    HW131074   6.905   2.651   0.073  0.4752 -0.7846  1.0532
 9565SOL    HW231075   6.786   2.737   0.109 -0.8181 -1.5491 -1.1602
 9566SOL     OW31076   4.264  10.569   3.677 -0.3835 -0.0227 -0.0016
 9566SOL    HW131077   4.235  10.612   3.758  1.7085  0.1798  0.7127
 9566SOL    HW231078   4.215  10.487   3.674 -0.0877 -0.3173  1.8275
 9567SOL     OW31079   3.592   0.724   2.196  0.1184  0.1990 -0.0901
 9567SOL    HW131080   3.622   0.743   2.106 -1.3983 -0.4117 -0.7555
 9567SOL    HW231081   3.550   0.806   2.224  0.1603  0.2338 -0.1276
 9568SOL     OW31082  10.089   9.058   2.602 -0.3934  0.2415  0.7596
 9568SOL    HW131083  10.071   8.998   2.675 -0.6548 -2.6022 -1.4431
 9568SOL    HW231084  10.178   9.038   2.575  0.0820  2.0172  0.9158
 9569SOL     OW31085   5.639   3.170   3.560  0.7704 -0.3637  0.5698
 9569SOL    HW131086   5.696   3.171   3.638  1.6691 -1.1826 -0.0429
 9569SOL    HW231087   5.625   3.077   3.543  1.4628 -0.2275 -0.8611
 9570SOL     OW31088  10.415  10.627   7.826  0.0770  0.4381  0.7600
 9570SOL    HW131089  10.429  10.542   7.785 -3.3858  0.2601 -0.3604
 9570SOL    HW231090  10.472  10.687   7.777 -0.1559 -0.6396 -0.9057
 9571SOL     OW31091   5.949   3.289   9.009 -0.2859  0.1203 -0.4178
 9571SOL    HW131092   5.982   3.368   9.052 -3.0067  1.5061 -0.6400
 9571SOL    HW231093   5.872   3.264   9.060 -2.0263  0.2409 -2.8049
 9572SOL     OW31094   4.948   1.036  10.564  0.3002 -0.2430  0.2919
 9572SOL    HW131095   4.966   1.121  10.603  2.9977 -0.2894 -0.6916
 9572SOL    HW231096   4.900   0.988  10.632 -2.4953  2.3953  0.4108
 9573SOL     OW31097   4.322  10.037   5.909 -0.0089  0.8176 -0.4673
 9573SOL    HW131098   4.250  10.014   5.851 -1.2712  1.1106  0.9339
 9573SOL    HW231099   4.380  10.091   5.854 -0.4851  0.0209 -1.8026
 9574SOL     OW31100   8.085   2.127   5.098 -0.1961 -0.3102 -0.0688
 9574SOL    HW131101   8.029   2.179   5.041 -1.0019 -1.3651 -0.2716
 9574SOL    HW231102   8.037   2.045   5.111  0.1757 -0.2911  1.7395
 9575SOL     OW31103   2.417   6.383  10.680 -0.2761 -0.8697  0.0555
 9575SOL    HW131104   2.367   6.305  10.659 -0.3978 -0.9320  0.5679
 9575SOL    HW231105   2.477   6.356  10.749 -1.1440 -0.2246  1.0838
 9576SOL     OW31106   2.651   3.975   1.248  0.0963  0.0674 -0.4907
 9576SOL    HW131107   2.701   4.021   1.181 -1.3701  0.9579 -1.0189
 9576SOL    HW231108   2.572   3.946   1.202  0.7566 -2.6423 -0.0735
 9577SOL     OW31109   6.983   2.671   1.415 -0.5841 -0.2274  0.0951
 9577SOL    HW131110   6.985   2.623   1.332 -3.4641 -1.3622  0.5627
 9577SOL    HW231111   7.075   2.678   1.441  0.3990  0.0723 -3.0888
 9578SOL     OW31112   3.412   9.242   4.123 -0.7130  0.4958  0.4244
 9578SOL    HW131113   3.482   9.307   4.117 -1.4413  1.2034 -0.5587
 9578SOL    HW231114   3.455   9.159   4.099  0.1870  0.5987  1.5650
 9579SOL     OW31115   4.593   5.017   8.124 -0.5144  0.2334  0.0210
 9579SOL    HW131116   4.589   5.020   8.028 -0.4647  0.1307  0.0160
 9579SOL    HW231117   4.647   5.092   8.148  2.8119 -1.8864 -0.2138
 9580SOL     OW31118   4.521   7.970  10.218  0.5512 -0.4185 -0.4201
 9580SOL    HW131119   4.593   7.961  10.280 -0.2647  0.4774  0.6962
 9580SOL    HW231120   4.506   8.064  10.212 -0.9505 -0.6098 -0.1161
 9581SOL     OW31121  10.421   2.712   0.335  0.2295  0.0313 -0.0392
 9581SOL    HW131122  10.393   2.791   0.381  0.2626 -0.6362  1.1805
 9581SOL    HW231123  10.492   2.742   0.278  0.3682  0.8553  0.5391
 9582SOL     OW31124   1.067   8.362   4.229  0.7280 -0.5923 -0.4577
 9582SOL    HW131125   1.129   8.416   4.279 -0.5369  0.7134 -0.2249
 9582SOL    HW231126   1.038   8.295   4.291 -0.6968  0.9114  0.5938
 9583SOL     OW31127   2.806   5.347   0.908 -0.2267  0.5694 -0.5670
 9583SOL    HW131128   2.886   5.397   0.923 -0.0346  0.3991 -1.0237
 9583SOL    HW231129   2.821   5.300   0.826 -0.2086 -0.6671  0.1337
 9584SOL     OW31130   9.552   8.172   9.390 -0.6024 -0.4483 -0.5605
 9584SOL    HW131131   9.488   8.180   9.460 -1.3159  1.0036 -1.3371
 9584SOL    HW231132   9.501   8.146   9.313  0.1339 -1.7790 -0.6385
 9585SOL     OW31133   1.854   0.693   6.634  0.9247 -0.3112 -0.2227
 9585SOL    HW131134   1.804   0.773   6.652  0.6427 -0.7900  1.3154
 9585SOL    HW231135   1.918   0.719   6.568 -0.2653  0.7406 -1.0193
 9586SOL     OW31136   4.319   2.224   1.353 -0.7812 -0.3877 -0.5775
 9586SOL    HW131137   4.236   2.196   1.390  0.2348 -0.0282  2.2130
 9586SOL    HW231138   4.384   2.163   1.388  0.3174  0.1504 -1.5818
 9587SOL     OW31139   0.867   7.465   9.003 -0.1341 -0.4785 -0.4807
 9587SOL    HW131140   0.959   7.440   9.013 -0.1037 -0.1214  0.1906
 9587SOL    HW231141   0.850   7.458   8.909  1.1713  1.4560 -0.9183
 9588SOL     OW31142   5.622   8.820   0.708 -0.0104 -0.3943 -0.1543
 9588SOL    HW131143   5.581   8.896   0.750  0.7726 -1.1104  2.0736
 9588SOL    HW231144   5.684   8.857   0.646  0.3783  0.8295  0.9194
 9589SOL     OW31145   1.816   5.127   7.793 -0.3897 -0.1183  0.2470
 9589SOL    HW131146   1.811   5.166   7.706  0.1178 -2.9511 -1.1715
 9589SOL    HW231147   1.770   5.043   7.784 -0.6083 -0.3503  2.8281
 9590SOL     OW31148   2.212   8.657   7.014 -0.3492  0.8696 -0.3408
 9590SOL    HW131149   2.280   8.723   7.022  0.6570 -0.1910  0.1576
 9590SOL    HW231150   2.258   8.574   7.025 -1.9133  0.1744  1.4669
 9591SOL     OW31151   6.330   7.486   6.418 -0.1825 -0.0735 -0.1973
 9591SOL    HW131152   6.399   7.523   6.363  0.0073 -1.0321 -0.6186
 9591SOL    HW231153   6.277   7.562   6.444  1.6551  0.8470  1.0781
 9592SOL     OW31154   1.172   7.907   8.150  0.5309 -0.3217  0.1511
 9592SOL    HW131155   1.264   7.896   8.122  0.7968  1.9188 -0.0061
 9592SOL    HW231156   1.178   7.936   8.241 -0.0440 -0.4836  0.2401
 9593SOL     OW31157   7.378   6.360   8.408  0.2577  0.3855 -0.5672
 9593SOL    HW131158   7.396   6.382   8.500  4.6496  0.4025 -1.2133
 9593SOL    HW231159   7.377   6.265   8.406  0.6677  0.3820 -0.5816
 9594SOL     OW31160   3.387   5.268   2.478 -0.2480  0.1961  0.3921
 9594SOL    HW131161   3.433   5.289   2.559  0.0001 -1.9399  0.8464
 9594SOL    HW231162   3.372   5.174   2.481 -1.7788  0.3079 -1.2584
 9595SOL     OW31163   2.391  10.592   8.864 -0.0646  0.2927  0.4766
 9595SOL    HW131164   2.451  10.665   8.849 -1.2550  1.0155 -0.9660
 9595SOL    HW231165   2.304  10.631   8.859 -0.6960 -0.9716  1.2219
 9596SOL     OW31166   5.738   1.564   9.830 -0.1875 -0.4007  0.2633
 9596SOL    HW131167   5.674   1.571   9.901 -0.9857 -0.5530 -0.4193
 9596SOL    HW231168   5.773   1.475   9.839  0.4126 -0.0954  1.0317
 9597SOL     OW31169   7.567  10.296   1.494  0.1450 -0.1137  0.0320
 9597SOL    HW131170   7.646  10.338   1.461  1.1855 -1.7780  0.2480
 9597SOL    HW231171   7.497  10.359   1.478  1.3152  0.9061 -1.2830
 9598SOL     OW31172   6.111   6.872   1.702 -0.0528  0.6941 -0.0385
 9598SOL    HW131173   6.139   6.939   1.764  1.3478  0.2402 -0.1483
 9598SOL    HW231174   6.016   6.884   1.695 -1.0361 -1.5679  5.0326
 9599SOL     OW31175   0.394   3.107   7.026 -0.0515 -0.1121 -0.8069
 9599SOL    HW131176   0.440   3.129   6.944  0.7827 -0.1451 -0.3539
 9599SOL    HW231177   0.410   3.182   7.083  0.4726 -0.6634 -0.2184
 9600SOL     OW31178   0.186   2.379   5.305  0.0453  0.0921  0.2768
 9600SOL    HW131179   0.240   2.321   5.251 -0.6908 -0.0360 -0.3378
 9600SOL    HW231180   0.097   2.347   5.293 -0.2985  0.9720  0.4184
 9601SOL     OW31181   4.348   8.155   0.662  0.3518  0.9633 -0.2144
 9601SOL    HW131182   4.420   8.203   0.620  0.8593  0.3503 -0.0566
 9601SOL    HW231183   4.273   8.168   0.603  1.3165 -0.7955 -1.9789
 9602SOL     OW31184  10.184  10.795   4.597  0.0308  0.2990  0.0598
 9602SOL    HW131185  10.175  10.764   4.507  1.6439 -1.1272  0.3339
 9602SOL    HW231186  10.107  10.761   4.642 -0.2658  0.1488 -0.5515
 9603SOL     OW31187   2.040   0.487  10.092 -0.2173 -0.3393  0.0114
 9603SOL    HW131188   2.005   0.446  10.013  0.6267 -0.5588 -0.2662
 9603SOL    HW231189   2.042   0.417  10.157 -0.3286 -0.3187  0.0367
 9604SOL     OW31190   3.789   3.534   5.547 -0.7188  0.1613 -0.1492
 9604SOL    HW131191   3.732   3.462   5.519  2.8482 -2.2061 -2.0717
 9604SOL    HW231192   3.828   3.503   5.629 -0.2889  0.5551 -0.2015
 9605SOL     OW31193   8.806   7.962   2.745 -0.1022  0.5458 -0.0892
 9605SOL    HW131194   8.723   7.933   2.783  0.2665 -0.1133  0.2356
 9605SOL    HW231195   8.799   8.057   2.741 -0.5552  0.5564  0.7005
 9606SOL     OW31196   5.804   1.713   4.709  0.5859 -0.0771 -0.3679
 9606SOL    HW131197   5.805   1.688   4.616 -0.1201 -1.4017 -0.0532
 9606SOL    HW231198   5.792   1.807   4.709  0.3245 -0.0963 -1.6230
 9607SOL     OW31199   1.261   3.898  10.673  0.0072 -0.0808  0.0685
 9607SOL    HW131200   1.243   3.967  10.610  0.4606 -1.1017 -1.2069
 9607SOL    HW231201   1.355   3.881  10.665  0.0679 -0.2528  1.0029
 9608SOL     OW31202   0.468   1.842   6.930  0.3067  0.5034  0.5182
 9608SOL    HW131203   0.483   1.903   6.859  0.8735  2.0547  1.9057
 9608SOL    HW231204   0.537   1.776   6.921 -0.4995 -0.1783 -1.1739
 9609SOL     OW31205   3.511   6.550   5.082 -0.5545 -0.2499 -0.5514
 9609SOL    HW131206   3.423   6.547   5.045 -1.7287 -0.2360  2.0583
 9609SOL    HW231207   3.544   6.460   5.074 -0.6408 -0.1794 -1.8393
 9610SOL     OW31208   5.880   5.105   4.143  0.0020 -0.4229  0.3313
 9610SOL    HW131209   5.909   5.195   4.159 -0.8997  0.2279 -1.3792
 9610SOL    HW231210   5.956   5.062   4.103 -0.3040  0.3395 -1.1557
 9611SOL     OW31211   7.898   0.984   9.879 -0.1969 -0.3977 -0.4364
 9611SOL    HW131212   7.859   0.947   9.800 -0.3836 -0.9512 -0.0909
 9611SOL    HW231213   7.826   0.989   9.942  0.4785 -2.6795  0.6544
 9612SOL     OW31214   0.343  10.240   9.555  0.4798 -0.1986 -0.1148
 9612SOL    HW131215   0.398  10.220   9.631 -1.2652 -0.3786  1.1625
 9612SOL    HW231216   0.330  10.335   9.559 -2.0599 -0.5379  1.6543
 9613SOL     OW31217   5.677   3.691   2.552 -0.1994  0.0193  0.2515
 9613SOL    HW131218   5.680   3.741   2.471 -1.4822  0.6128  0.5436
 9613SOL    HW231219   5.740   3.735   2.609 -0.4970  0.6245  0.1225
 9614SOL     OW31220   6.725   9.984  10.361 -0.8170 -0.4173  0.2276
 9614SOL    HW131221   6.732  10.077  10.341  0.5828 -0.5378  0.0540
 9614SOL    HW231222   6.759   9.975  10.450  1.0555 -1.0171 -0.5074
 9615SOL     OW31223   8.170   5.943   8.682 -0.2786  0.4264  0.3613
 9615SOL    HW131224   8.160   6.028   8.726  0.8121  0.9598 -0.3613
 9615SOL    HW231225   8.184   5.880   8.752  0.1569  1.0580  0.8496
 9616SOL     OW31226  10.760   0.303   5.304 -0.3215 -0.2224 -0.1294
 9616SOL    HW131227  10.828   0.341   5.248  0.4120  0.5101  1.2297
 9616SOL    HW231228  10.683   0.356   5.287  0.5638  1.6849  1.3894
 9617SOL     OW31229   2.825   1.443   5.906  0.6684  0.3118  0.0493
 9617SOL    HW131230   2.919   1.462   5.894  0.9619 -0.4210  1.1162
 9617SOL    HW231231   2.811   1.450   6.000 -0.6831  1.8059 -0.2112
 9618SOL     OW31232   9.617   6.048   4.734  0.6867  0.7611  0.0973
 9618SOL    HW131233   9.697   6.010   4.771  1.4051  1.8168 -0.3074
 9618SOL    HW231234   9.644   6.080   4.648 -0.1442  1.2744  0.0197
 9619SOL     OW31235   1.345   1.778   4.618  0.1010 -0.0180  0.6562
 9619SOL    HW131236   1.278   1.810   4.679  0.8502  3.2499 -0.0559
 9619SOL    HW231237   1.426   1.815   4.651  0.5106  2.1179 -2.3623
 9620SOL     OW31238   0.479   2.813  10.267 -0.5910  0.3291 -0.1671
 9620SOL    HW131239   0.550   2.854  10.218  0.2280  0.5612  1.1563
 9620SOL    HW231240   0.509   2.723  10.282 -0.2632  0.6067  0.9411
 9621SOL     OW31241   1.857   8.443   1.254  0.1582 -0.0613  0.7372
 9621SOL    HW131242   1.791   8.512   1.247 -1.4187 -1.5103  0.6982
 9621SOL    HW231243   1.940   8.488   1.238 -0.4327  2.4253  3.7695
 9622SOL     OW31244   2.052  10.510   0.109 -0.1344  0.2737 -0.0343
 9622SOL    HW131245   2.015  10.425   0.085 -2.0706  1.0893 -0.1221
 9622SOL    HW231246   2.124  10.523   0.047  1.1776 -1.9062  0.9009
 9623SOL     OW31247   1.235  10.746   5.446  0.6414 -0.3866  0.2694
 9623SOL    HW131248   1.168  10.752   5.514 -0.5789 -2.0478 -0.7184
 9623SOL    HW231249   1.301  10.810   5.472 -1.8144  2.1655  0.6985
 9624SOL     OW31250   6.216   2.591   5.070 -0.1257 -0.6546  0.5267
 9624SOL    HW131251   6.295   2.615   5.120  1.7721 -1.7249 -1.7511
 9624SOL    HW231252   6.179   2.516   5.118  0.3683 -0.2819  1.5115
 9625SOL     OW31253   0.858   7.402   3.444  0.2282 -0.0780 -0.0860
 9625SOL    HW131254   0.911   7.479   3.421 -0.5596  0.5008 -0.0174
 9625SOL    HW231255   0.892   7.374   3.529  0.6997  0.0385 -0.2362
 9626SOL     OW31256  10.350  10.190   4.540 -0.5860 -0.0135  0.1540
 9626SOL    HW131257  10.382  10.209   4.628 -3.1144  0.9789  0.9182
 9626SOL    HW231258  10.310  10.103   4.547  1.3823 -1.0683 -0.7035
 9627SOL     OW31259   2.776   6.769   8.937  0.0100  0.0527  0.0561
 9627SOL    HW131260   2.772   6.683   8.981 -2.6156 -0.9084 -1.7758
 9627SOL    HW231261   2.863   6.771   8.897  0.3839 -1.4545  0.6966
 9628SOL     OW31262   6.771   3.460   8.818 -0.0978  0.5062  0.0065
 9628SOL    HW131263   6.691   3.470   8.871 -0.3427 -0.9388 -0.0516
 9628SOL    HW231264   6.768   3.533   8.757 -0.6187  1.3178  0.9653
 9629SOL     OW31265  10.024   8.660   2.111 -0.0698  0.5942  0.3001
 9629SOL    HW131266   9.990   8.581   2.069 -0.9120 -1.0526  3.7159
 9629SOL    HW231267  10.119   8.651   2.105 -0.1069 -1.4202  1.6882
 9630SOL     OW31268   4.499   3.275   8.073  0.2561 -0.2462  0.3789
 9630SOL    HW131269   4.547   3.295   8.154 -0.1136  1.4102  0.2170
 9630SOL    HW231270   4.549   3.318   8.004 -0.5074  0.0036 -0.0245
 9631SOL     OW31271   0.275   8.249   1.139  0.4330 -0.0787  0.8125
 9631SOL    HW131272   0.289   8.306   1.214  0.6055 -0.0433  0.7536
 9631SOL    HW231273   0.221   8.178   1.172 -2.0613  1.4460  0.2956
 9632SOL     OW31274   6.077   0.461   8.403  0.4711 -0.7506 -0.3932
 9632SOL    HW131275   6.001   0.511   8.372  1.2867  0.5732 -0.3090
 9632SOL    HW231276   6.043   0.411   8.477 -0.2685 -0.0055 -0.2083
 9633SOL     OW31277   5.123   3.892  10.331  0.6998 -0.3590 -0.3101
 9633SOL    HW131278   5.036   3.887  10.291 -0.1578 -0.0115  1.4232
 9633SOL    HW231279   5.113   3.853  10.418  1.6767  1.7245  0.8327
 9634SOL     OW31280   3.748   6.463   2.160  0.2070 -0.0205 -0.0314
 9634SOL    HW131281   3.841   6.484   2.163  0.1750  0.2339 -0.7197
 9634SOL    HW231282   3.729   6.423   2.246  0.4698  1.8887  0.9527
 9635SOL     OW31283   2.147   9.553   9.023 -0.5950  0.5910  0.5977
 9635SOL    HW131284   2.167   9.565   9.116 -2.1073 -1.8900  1.3283
 9635SOL    HW231285   2.134   9.459   9.012 -0.3394  0.7782 -2.1883
 9636SOL     OW31286   5.755   2.828   8.311 -0.4941  0.3751  0.3118
 9636SOL    HW131287   5.834   2.805   8.361  0.0158  1.2865 -0.0631
 9636SOL    HW231288   5.688   2.770   8.347  0.2087 -0.0351  1.0214
 9637SOL     OW31289   4.794   5.799   6.011 -0.2811 -0.5709 -0.5762
 9637SOL    HW131290   4.805   5.753   5.927  0.6808  1.0567 -1.3948
 9637SOL    HW231291   4.759   5.885   5.987  2.4233  0.9154  0.3594
 9638SOL     OW31292   5.226   8.112   0.685  0.1028 -0.8584  0.1952
 9638SOL    HW131293   5.204   8.199   0.718  0.0985 -0.7911  0.0195
 9638SOL    HW231294   5.288   8.077   0.748  1.1332 -0.1989 -0.4245
 9639SOL     OW31295   5.569  10.150   7.595  0.3159 -0.0779 -0.3743
 9639SOL    HW131296   5.516  10.071   7.590  0.0273  0.1583 -1.1475
 9639SOL    HW231297   5.652  10.122   7.633 -0.3053 -0.4750  0.7535
 9640SOL     OW31298   2.140   6.048   5.601 -0.0924  0.1598  0.1266
 9640SOL    HW131299   2.225   6.092   5.596 -0.0002  0.0612  0.7807
 9640SOL    HW231300   2.078   6.110   5.562  0.1507  0.5682  0.3906
 9641SOL     OW31301   8.993   4.613   5.108  0.4167 -0.0633  0.0401
 9641SOL    HW131302   9.009   4.566   5.027 -0.2133 -0.3787  0.0919
 9641SOL    HW231303   9.009   4.549   5.177  1.4964  0.3557  0.2012
 9642SOL     OW31304   5.934   5.086   4.438 -0.0376 -0.0731  0.1373
 9642SOL    HW131305   6.017   5.074   4.392  0.1822 -0.1627  0.5455
 9642SOL    HW231306   5.892   5.159   4.393 -0.3543 -0.8853 -0.9150
 9643SOL     OW31307   5.165   7.439   5.312 -0.2126  0.0272 -0.0776
 9643SOL    HW131308   5.189   7.349   5.288  1.4195  0.4510 -0.1526
 9643SOL    HW231309   5.199   7.493   5.240  2.1750  1.0313  1.6711
 9644SOL     OW31310   9.838   1.467   4.778  0.3882 -0.4008  0.9758
 9644SOL    HW131311   9.797   1.475   4.864  0.9447  0.4275  1.1795
 9644SOL    HW231312   9.769   1.487   4.716  0.0427 -0.7702  1.2375
 9645SOL     OW31313   0.549   8.953   5.409 -0.3714 -0.1349 -0.0044
 9645SOL    HW131314   0.606   8.989   5.477 -1.3285  1.0387  0.2055
 9645SOL    HW231315   0.529   8.864   5.439  0.7632 -0.3230  0.2560
 9646SOL     OW31316   0.830   3.634   1.778 -0.1762  0.0451  0.0183
 9646SOL    HW131317   0.883   3.604   1.852  1.2856 -1.5475 -1.5896
 9646SOL    HW231318   0.771   3.561   1.759  0.2319 -0.0255 -1.0647
 9647SOL     OW31319   3.081   0.237   9.369 -0.6678 -0.0756  0.3224
 9647SOL    HW131320   3.142   0.175   9.408 -1.7254 -0.8405  0.7987
 9647SOL    HW231321   3.112   0.249   9.279 -0.7218 -1.6637  0.0703
 9648SOL     OW31322   6.722   9.498   7.702 -0.0396 -0.4715 -0.1060
 9648SOL    HW131323   6.709   9.419   7.754 -0.4700 -0.3499 -0.0180
 9648SOL    HW231324   6.736   9.466   7.613  3.2695 -0.8227  0.4130
 9649SOL     OW31325   3.514   6.446   9.576 -0.0724  0.0338 -0.4112
 9649SOL    HW131326   3.537   6.518   9.635  0.8595 -0.2735 -0.3819
 9649SOL    HW231327   3.536   6.367   9.625 -1.6104 -0.3017 -0.2341
 9650SOL     OW31328   5.138   7.184   8.698 -0.1353 -0.6496  0.2706
 9650SOL    HW131329   5.187   7.171   8.779  0.7643  1.4149  0.1045
 9650SOL    HW231330   5.181   7.127   8.635  1.3134  0.2091  0.4427
 9651SOL     OW31331   0.078   4.361   8.925  0.9328 -0.1084 -0.0578
 9651SOL    HW131332   0.074   4.266   8.911  1.5523 -0.0424 -0.6581
 9651SOL    HW231333   0.126   4.371   9.007  0.5146 -0.3215  0.2205
 9652SOL     OW31334   5.750   2.082   6.346  1.0367 -0.4367 -0.7628
 9652SOL    HW131335   5.701   2.016   6.298  0.6729  0.5545 -1.8148
 9652SOL    HW231336   5.685   2.147   6.373  1.0779 -1.3839  1.9362
 9653SOL     OW31337   1.359   3.150   6.168  0.1879 -0.5387 -0.0421
 9653SOL    HW131338   1.362   3.096   6.089  1.2102 -1.3752  0.5526
 9653SOL    HW231339   1.438   3.127   6.217 -0.8565 -0.7106  1.6634
 9654SOL     OW31340   9.629   0.577   7.106 -0.1904  0.3480  0.0944
 9654SOL    HW131341   9.631   0.586   7.202  0.5920 -0.1477  0.1305
 9654SOL    HW231342   9.597   0.488   7.091  0.4649  0.1372 -0.0828
 9655SOL     OW31343   8.409   7.029   0.271  0.6051 -0.0803  0.4094
 9655SOL    HW131344   8.344   7.055   0.336  2.6644  0.3325  2.4239
 9655SOL    HW231345   8.425   6.936   0.287  1.5214  0.1502  0.9168
 9656SOL     OW31346   4.114   3.799  10.534  0.4043 -0.4834  0.1736
 9656SOL    HW131347   4.145   3.833  10.618 -1.3070  0.2279  0.5676
 9656SOL    HW231348   4.183   3.822  10.472  2.3681 -2.2628  1.5701
 9657SOL     OW31349   1.912   6.468   9.909 -0.3194 -0.5058  0.3210
 9657SOL    HW131350   2.000   6.481   9.876 -0.5510 -1.6192 -0.7995
 9657SOL    HW231351   1.875   6.400   9.854 -2.1869  0.5315  0.2014
 9658SOL     OW31352   5.425   5.686   0.944  0.2465  0.4470  0.2101
 9658SOL    HW131353   5.493   5.631   0.983 -0.3507  0.3507  1.1290
 9658SOL    HW231354   5.425   5.765   0.998 -0.5019  0.3652  0.3337
 9659SOL     OW31355   1.368   4.836   9.889  0.4307 -0.0284 -0.0024
 9659SOL    HW131356   1.403   4.868   9.806  1.9075  0.0259  0.6071
 9659SOL    HW231357   1.445   4.824   9.945 -0.5784  0.6986  1.6269
 9660SOL     OW31358   7.848   5.061   7.953 -0.0742 -0.5005 -0.4273
 9660SOL    HW131359   7.790   5.136   7.967  0.8858  0.2324 -0.2654
 9660SOL    HW231360   7.884   5.042   8.040 -0.6236 -1.4285 -0.3885
 9661SOL     OW31361   7.559   0.698   1.153 -0.0872 -0.0815  0.4733
 9661SOL    HW131362   7.583   0.606   1.141  0.7099  0.2167 -0.3299
 9661SOL    HW231363   7.496   0.697   1.225 -1.7714 -1.5170 -0.9213
 9662SOL     OW31364   5.881   0.216   1.574  0.0880 -0.0617 -0.0399
 9662SOL    HW131365   5.866   0.274   1.648  0.5806  0.7282 -0.5373
 9662SOL    HW231366   5.842   0.132   1.600  0.7528  0.0269  1.3305
 9663SOL     OW31367   7.771   6.000   7.315  0.0533 -0.0504  0.1846
 9663SOL    HW131368   7.693   6.037   7.357 -0.7023  0.1337 -1.3140
 9663SOL    HW231369   7.818   5.957   7.386  0.0387  2.2155  1.6581
 9664SOL     OW31370   8.750   8.657   8.194 -0.0066 -0.6141 -0.3176
 9664SOL    HW131371   8.818   8.650   8.127  0.7795 -0.4452  0.4358
 9664SOL    HW231372   8.698   8.733   8.167  0.9024  0.0626 -0.2331
 9665SOL     OW31373   3.440   2.555   4.745 -0.3659 -0.3993  0.5371
 9665SOL    HW131374   3.470   2.468   4.773 -0.0343 -0.7664 -0.8841
 9665SOL    HW231375   3.432   2.548   4.650 -0.9154  0.9583  0.4687
 9666SOL     OW31376   9.009   7.181   7.830 -0.1991 -0.4809 -0.0539
 9666SOL    HW131377   9.093   7.219   7.855 -0.9022  0.9918  0.2115
 9666SOL    HW231378   9.027   7.088   7.818  1.2418 -0.3785  1.0233
 9667SOL     OW31379   1.282   2.742   5.672  0.5227  0.0216 -0.1674
 9667SOL    HW131380   1.327   2.770   5.752  2.1466 -1.1175 -0.6170
 9667SOL    HW231381   1.248   2.655   5.693 -2.6622  1.3091  0.5520
 9668SOL     OW31382   0.921   3.091   8.374 -0.0780  0.0806  0.4391
 9668SOL    HW131383   0.988   3.034   8.411 -0.0953 -0.5641 -0.5004
 9668SOL    HW231384   0.878   3.130   8.450  0.6931 -0.2685  1.0690
 9669SOL     OW31385   0.866  10.575   7.365  0.4557 -0.2107 -0.2658
 9669SOL    HW131386   0.829  10.538   7.445 -0.9736  1.3383 -0.1648
 9669SOL    HW231387   0.945  10.523   7.349 -0.9409 -2.7162  0.3345
 9670SOL     OW31388   1.380   6.892   2.696 -0.1501  0.4305  0.6326
 9670SOL    HW131389   1.415   6.981   2.700  1.0434  0.1411 -1.7289
 9670SOL    HW231390   1.387   6.859   2.786  1.5984  1.9124  1.0859
 9671SOL     OW31391   8.865   7.047   4.305 -0.2660  0.6330  0.1613
 9671SOL    HW131392   8.931   6.978   4.295 -0.1748  0.8466 -0.8279
 9671SOL    HW231393   8.781   7.001   4.301 -0.2078  0.5875 -0.6211
 9672SOL     OW31394   9.379   2.911   0.872 -0.2809  0.0516  0.1009
 9672SOL    HW131395   9.353   2.847   0.938 -2.3210  1.0215  0.3250
 9672SOL    HW231396   9.473   2.921   0.883 -0.1153 -2.0033  0.8367
 9673SOL     OW31397   4.615   3.186  10.552  0.4944  0.0107  0.2879
 9673SOL    HW131398   4.655   3.100  10.565  1.0975  0.5508  2.4951
 9673SOL    HW231399   4.558   3.197  10.628  0.2085  1.4362 -0.1105
 9674SOL     OW31400   5.329   4.723   5.386 -0.3195 -0.7860  1.0574
 9674SOL    HW131401   5.236   4.746   5.389 -0.0546  0.4651  0.5303
 9674SOL    HW231402   5.355   4.718   5.478 -1.4334 -3.6157  1.2932
 9675SOL     OW31403   4.247   8.439   7.260  0.2072 -0.1235 -0.1910
 9675SOL    HW131404   4.160   8.456   7.295  1.2761  1.3050  1.9925
 9675SOL    HW231405   4.296   8.402   7.334  2.9298  4.1170  0.4933
 9676SOL     OW31406   5.340   3.990   5.621 -0.0723  0.6552 -0.6012
 9676SOL    HW131407   5.260   4.036   5.647  0.5933  1.1251  0.7113
 9676SOL    HW231408   5.337   3.907   5.668  0.5860  1.0114  0.0790
 9677SOL     OW31409   6.604   6.227   9.546 -0.3405  0.4404 -0.4008
 9677SOL    HW131410   6.587   6.198   9.456 -2.5434  1.0032 -0.2193
 9677SOL    HW231411   6.599   6.147   9.598 -2.7504  0.5430 -0.3659
 9678SOL     OW31412   5.402   5.937   1.058 -0.2363  0.4437  0.2772
 9678SOL    HW131413   5.437   5.950   1.146  1.5319 -2.5635  0.1565
 9678SOL    HW231414   5.308   5.951   1.066 -0.3468 -1.2133  3.0401
 9679SOL     OW31415   6.695   3.660   6.147 -0.5338 -0.3438  0.1695
 9679SOL    HW131416   6.677   3.744   6.189  0.8337  0.1370 -0.1390
 9679SOL    HW231417   6.659   3.595   6.206 -1.2365  0.4394  0.6271
 9680SOL     OW31418   7.225   7.221   8.505 -0.1134 -0.5774 -0.1494
 9680SOL    HW131419   7.295   7.277   8.539 -0.4517 -1.1345  1.5490
 9680SOL    HW231420   7.158   7.282   8.475  1.4588 -0.0078 -2.7420
 9681SOL     OW31421   5.189   3.908   9.328  0.0836 -0.0991  0.1297
 9681SOL    HW131422   5.239   3.847   9.382 -1.7525 -1.1410  0.7345
 9681SOL    HW231423   5.130   3.951   9.390 -0.9590 -0.1517 -0.8043
 9682SOL     OW31424   1.973   3.627   7.038 -0.2883 -0.1263 -0.2592
 9682SOL    HW131425   1.928   3.595   6.960  0.3994 -1.0636 -0.2878
 9682SOL    HW231426   1.919   3.598   7.111 -0.3712 -0.1781 -0.3416
 9683SOL     OW31427   2.317   0.126   6.837 -0.9423 -0.1445 -0.5307
 9683SOL    HW131428   2.312   0.046   6.785 -1.7559 -0.7219  0.3889
 9683SOL    HW231429   2.228   0.160   6.839 -0.4438  1.3183 -1.6721
 9684SOL     OW31430   3.043   4.491  10.244  0.1272 -0.1935  0.0197
 9684SOL    HW131431   2.959   4.451  10.221 -1.1932  1.6935  1.2666
 9684SOL    HW231432   3.082   4.431  10.307 -0.2061 -1.1543 -0.6652
 9685SOL     OW31433   4.008   5.272   0.236 -0.3220 -0.2423 -0.3806
 9685SOL    HW131434   3.969   5.289   0.151  1.2429  1.6192 -0.7967
 9685SOL    HW231435   4.103   5.278   0.221  0.0017 -0.4468  1.3682
 9686SOL     OW31436   2.523   4.053   7.342 -0.3183  0.3884 -0.5803
 9686SOL    HW131437   2.471   3.980   7.375 -0.8194  0.9084 -0.2055
 9686SOL    HW231438   2.568   4.017   7.265  1.6150 -1.1260  1.1459
 9687SOL     OW31439   3.883  10.725   6.234 -0.3076 -0.0361  0.3892
 9687SOL    HW131440   3.974  10.753   6.221 -0.8582  1.8286  0.3647
 9687SOL    HW231441   3.859  10.761   6.319  0.0865 -3.6758  2.2327
 9688SOL     OW31442   5.342   3.875   5.363  0.1673  0.5669 -0.6904
 9688SOL    HW131443   5.431   3.845   5.344  0.2855 -0.3825  1.1174
 9688SOL    HW231444   5.347   3.910   5.452 -1.5805 -1.0147  0.1121
 9689SOL     OW31445   0.876   4.325   5.194  0.1477  0.2393 -0.1686
 9689SOL    HW131446   0.796   4.361   5.233 -0.7079 -1.1335 -0.5729
 9689SOL    HW231447   0.845   4.255   5.137  1.6324 -0.0759 -0.6227
 9690SOL     OW31448   4.240   0.165   3.500 -0.0676 -0.0406 -0.8254
 9690SOL    HW131449   4.305   0.222   3.460  0.2815 -0.0266 -0.2526
 9690SOL    HW231450   4.247   0.083   3.451  0.1990  0.0520 -0.9450
 9691SOL     OW31451   3.447   6.810   3.243 -0.2314 -0.7652 -0.3344
 9691SOL    HW131452   3.455   6.750   3.317 -0.9831 -0.8010 -0.2683
 9691SOL    HW231453   3.359   6.849   3.253 -0.6958 -1.4101 -1.6670
 9692SOL     OW31454   1.336   1.905   6.304 -0.6601 -0.2182 -0.0334
 9692SOL    HW131455   1.423   1.866   6.306 -0.6024 -0.0511  1.1000
 9692SOL    HW231456   1.285   1.846   6.248  0.4251  0.2744 -1.6305
 9693SOL     OW31457   6.909  10.661   6.910  0.4266  0.0532 -0.3845
 9693SOL    HW131458   6.924  10.686   6.819  1.8922 -3.4554 -1.2786
 9693SOL    HW231459   6.995  10.666   6.951 -0.2789  1.9483  1.0042
 9694SOL     OW31460   2.981   7.278   2.092  0.4618  0.1921 -0.1795
 9694SOL    HW131461   3.063   7.240   2.061  0.8449 -1.5771  2.6165
 9694SOL    HW231462   3.000   7.306   2.181 -2.2245 -1.4691  1.0501
 9695SOL     OW31463   9.835  10.469   1.242 -0.4299 -0.4535  0.6014
 9695SOL    HW131464   9.874  10.517   1.315 -0.9401 -0.3211  0.7928
 9695SOL    HW231465   9.743  10.459   1.266 -0.7358  0.1042 -0.2883
 9696SOL     OW31466   2.709   9.353   7.184  0.1675  0.1842 -0.1370
 9696SOL    HW131467   2.777   9.294   7.150 -1.1502  0.2090 -3.0234
 9696SOL    HW231468   2.648   9.294   7.229  0.5528 -0.2155 -0.1246
 9697SOL     OW31469   2.947   9.833   5.025 -0.8557  0.2277  0.3615
 9697SOL    HW131470   2.865   9.787   5.041 -0.1262 -1.2624  0.0189
 9697SOL    HW231471   2.934   9.878   4.941 -0.9633 -0.9187 -0.2565
 9698SOL     OW31472   5.095   7.370   9.153 -0.0598 -0.0933 -0.1763
 9698SOL    HW131473   5.147   7.343   9.229  1.2334 -1.5940 -1.5085
 9698SOL    HW231474   5.160   7.391   9.086 -1.1734  0.0271 -1.2582
 9699SOL     OW31475   7.445   4.970   4.310 -0.6444  0.6021  0.0729
 9699SOL    HW131476   7.437   5.031   4.236 -0.3805  0.8298  0.2282
 9699SOL    HW231477   7.369   4.913   4.303 -0.4787  0.4481 -0.5323
 9700SOL     OW31478   4.648   7.191   6.370 -0.1468  0.1088  0.2404
 9700SOL    HW131479   4.566   7.204   6.418 -0.7381 -0.8368 -0.4665
 9700SOL    HW231480   4.638   7.242   6.290  0.5839  1.1911  0.8231
 9701SOL     OW31481   4.854   6.234   2.091 -0.2572 -0.1824  0.5667
 9701SOL    HW131482   4.799   6.255   2.016  0.8562  0.7673 -0.0170
 9701SOL    HW231483   4.918   6.172   2.058  0.2772  0.2896  0.6943
 9702SOL     OW31484   3.526   4.424   6.842  0.0761 -0.5171 -0.0277
 9702SOL    HW131485   3.537   4.349   6.900  0.1854 -0.2366  0.3143
 9702SOL    HW231486   3.515   4.499   6.900 -0.1511 -0.2812 -0.3677
 9703SOL     OW31487   5.858   4.537   3.395 -0.2341  0.4518 -0.0099
 9703SOL    HW131488   5.802   4.496   3.329 -0.1437  0.2522  0.0372
 9703SOL    HW231489   5.801   4.598   3.441 -0.3083  0.5632 -0.2474
 9704SOL     OW31490   9.092  10.524   2.631  0.2076 -0.5135  0.1510
 9704SOL    HW131491   9.016  10.471   2.609 -1.1030  0.9031  1.0650
 9704SOL    HW231492   9.093  10.593   2.565  1.0035 -0.7973 -0.1454
 9705SOL     OW31493   5.997   0.521   0.822  0.0259 -0.0155  0.1220
 9705SOL    HW131494   5.938   0.462   0.868  1.2585 -2.6348 -1.4423
 9705SOL    HW231495   6.076   0.524   0.877  0.1195 -0.1674 -0.0037
 9706SOL     OW31496   9.971   0.914   5.759 -0.0942  0.0059 -0.1072
 9706SOL    HW131497  10.002   0.838   5.710 -1.8129  0.3480 -1.8722
 9706SOL    HW231498   9.882   0.930   5.726 -0.5331  1.5985  1.6198
 9707SOL     OW31499   2.600   8.385   6.078 -0.3886 -0.2919  0.0480
 9707SOL    HW131500   2.528   8.443   6.051 -1.6093 -1.0483  1.5841
 9707SOL    HW231501   2.642   8.361   5.995 -2.3663 -0.4345 -0.9729
 9708SOL     OW31502   7.704   8.467   4.942 -0.7101  0.2848 -0.0484
 9708SOL    HW131503   7.667   8.547   4.979  1.0024  1.1527 -0.1106
 9708SOL    HW231504   7.751   8.427   5.014  1.0892  1.0260 -0.7517
 9709SOL     OW31505   7.506   2.712   8.328 -0.3096 -0.1426  0.0926
 9709SOL    HW131506   7.521   2.751   8.414  2.0570 -1.6374  0.4477
 9709SOL    HW231507   7.514   2.618   8.343  1.0493 -0.3993 -1.8726
 9710SOL     OW31508   5.452   9.081   6.842  0.4637 -0.3595  0.6500
 9710SOL    HW131509   5.437   9.021   6.769 -0.3291 -1.4570  1.6806
 9710SOL    HW231510   5.384   9.148   6.833  0.6540 -0.2314  0.1363
 9711SOL     OW31511  10.461   3.225   8.984  0.3481  0.2622 -0.6262
 9711SOL    HW131512  10.387   3.285   8.980 -0.3160 -0.5291 -0.4686
 9711SOL    HW231513  10.475   3.209   9.077  1.2479  1.0363 -0.6161
 9712SOL     OW31514   0.745   5.724   5.125 -0.2348  0.0217 -0.0668
 9712SOL    HW131515   0.670   5.779   5.102  0.4416  1.1563  0.3198
 9712SOL    HW231516   0.707   5.652   5.174 -1.2804 -0.4922 -1.5558
 9713SOL     OW31517   0.162   6.012   0.949 -0.7137  0.4989 -0.4585
 9713SOL    HW131518   0.072   5.991   0.926  0.0297 -3.0521 -0.7020
 9713SOL    HW231519   0.177   5.966   1.032  1.1079  0.2299 -0.9002
 9714SOL     OW31520   7.294   5.393   6.436 -0.2370  0.5838 -0.9901
 9714SOL    HW131521   7.215   5.436   6.402 -0.8645 -0.3844 -0.7963
 9714SOL    HW231522   7.312   5.437   6.519 -0.8973  0.4503 -0.7704
 9715SOL     OW31523   7.552   0.678   8.461 -0.1367  0.0463  0.8138
 9715SOL    HW131524   7.611   0.746   8.493 -1.0220  0.6321  1.2285
 9715SOL    HW231525   7.533   0.625   8.538  2.7675 -2.4773  0.0269
 9716SOL     OW31526   9.597   3.794   7.702 -0.2053 -0.3132 -0.6515
 9716SOL    HW131527   9.577   3.848   7.626 -0.8632  0.8160  0.2907
 9716SOL    HW231528   9.515   3.791   7.752 -0.0798 -1.9028 -0.4988
 9717SOL     OW31529   2.080   9.595   4.292 -0.0018  0.0267  0.2303
 9717SOL    HW131530   2.097   9.666   4.230 -0.1546 -0.0673  0.0797
 9717SOL    HW231531   2.163   9.549   4.301  0.3756  0.8450  1.1199
 9718SOL     OW31532   1.927  10.439   5.997  0.1963 -0.5494  0.1666
 9718SOL    HW131533   1.939  10.411   5.907 -2.1020 -1.2470  0.0252
 9718SOL    HW231534   1.970  10.372   6.050  1.2048 -0.3453 -0.3785
 9719SOL     OW31535   7.713   1.923   3.950  0.3687  0.1533  0.2688
 9719SOL    HW131536   7.763   1.877   3.883 -0.0196  1.5962 -1.0675
 9719SOL    HW231537   7.766   1.999   3.972 -0.6308  1.0288 -0.2536
 9720SOL     OW31538   2.982   2.299   0.685 -0.0580  0.3830  0.2401
 9720SOL    HW131539   2.888   2.282   0.676  0.1199 -0.7094  0.2567
 9720SOL    HW231540   3.018   2.276   0.600  0.4974 -1.6347  0.9486
 9721SOL     OW31541   9.254   6.627   1.452 -0.7622 -0.4021  0.0251
 9721SOL    HW131542   9.337   6.581   1.441 -1.0532 -0.8574 -0.3251
 9721SOL    HW231543   9.268   6.712   1.410  0.4404  0.6883  2.4407
 9722SOL     OW31544   6.483   4.588   7.237  0.2279 -0.2866  0.0456
 9722SOL    HW131545   6.457   4.502   7.271 -0.1794 -0.8711 -1.6148
 9722SOL    HW231546   6.575   4.596   7.259  0.8502 -2.1390 -1.5952
 9723SOL     OW31547   2.868   7.798   5.302  0.4023 -0.4296 -0.0112
 9723SOL    HW131548   2.930   7.857   5.260 -0.1626 -0.2424 -0.5951
 9723SOL    HW231549   2.921   7.722   5.328  1.5082  1.0506  2.3831
 9724SOL     OW31550   0.045   0.134   6.770  0.1053  0.3243 -0.3877
 9724SOL    HW131551   0.053   0.088   6.854  0.6330 -0.2293 -0.7330
 9724SOL    HW231552  -0.049   0.145   6.757 -0.1403 -1.9355 -0.9655
 9725SOL     OW31553   2.520   1.823   9.507  0.3773  0.0548 -0.2083
 9725SOL    HW131554   2.529   1.804   9.601 -0.3450  1.1820  0.1066
 9725SOL    HW231555   2.609   1.834   9.476  0.6352 -0.5504  0.2954
 9726SOL     OW31556   2.505   4.671   3.628 -0.5032 -0.3060  0.0085
 9726SOL    HW131557   2.586   4.673   3.679  0.0738  2.4126 -0.8596
 9726SOL    HW231558   2.451   4.739   3.668 -2.5779 -2.2643  0.7685
 9727SOL     OW31559   5.509   1.522   0.584 -0.8823 -1.0113 -0.5170
 9727SOL    HW131560   5.581   1.527   0.521 -0.5465  0.5849 -0.0472
 9727SOL    HW231561   5.535   1.581   0.655 -1.9291 -1.6451  0.4313
 9728SOL     OW31562   2.181  10.581   5.877 -0.1574  0.6149  0.1476
 9728SOL    HW131563   2.195  10.676   5.886 -1.4539  0.7862  0.5736
 9728SOL    HW231564   2.202  10.545   5.963 -2.5424  0.9352  0.9481
 9729SOL     OW31565   8.423   1.815   7.127  0.0736  0.1885  0.6464
 9729SOL    HW131566   8.387   1.884   7.071  0.0959  1.0524  1.6811
 9729SOL    HW231567   8.471   1.759   7.066 -0.0207  1.0293 -0.2330
 9730SOL     OW31568   1.863   2.353   6.284 -0.3175 -0.2040 -1.0328
 9730SOL    HW131569   1.908   2.279   6.324  0.4411  0.2373 -1.0458
 9730SOL    HW231570   1.843   2.324   6.195 -1.7689 -1.0910 -0.4448
 9731SOL     OW31571   6.447   8.270  10.435  0.3300 -0.1008 -0.0271
 9731SOL    HW131572   6.453   8.330  10.510 -1.5253 -0.9586  0.8519
 9731SOL    HW231573   6.382   8.310  10.377  1.1220  0.1067 -0.8130
 9732SOL     OW31574   6.798  10.276   9.329  0.4147  0.0732  0.2929
 9732SOL    HW131575   6.862  10.209   9.356 -0.1526 -0.9753 -0.9008
 9732SOL    HW231576   6.840  10.321   9.256 -0.5133 -1.2144 -1.0941
 9733SOL     OW31577   4.938  10.392  10.657  0.9602 -0.3324 -0.1536
 9733SOL    HW131578   4.932  10.436  10.742 -0.6966  0.3355 -0.5887
 9733SOL    HW231579   4.891  10.309  10.670 -0.1818  0.2193 -0.6788
 9734SOL     OW31580   7.083   1.670   1.344 -0.2894  0.2827  0.8086
 9734SOL    HW131581   7.039   1.704   1.266  0.1175  1.6657  1.1574
 9734SOL    HW231582   7.164   1.720   1.350  0.0697 -0.3706  1.6713
 9735SOL     OW31583   9.400   9.319   7.228 -0.0886  0.3187 -0.7324
 9735SOL    HW131584   9.384   9.351   7.139  0.0708  0.8775 -0.5639
 9735SOL    HW231585   9.472   9.373   7.261 -0.2327  0.2036 -0.2181
 9736SOL     OW31586   0.022   4.744   1.561  0.4723  0.5888 -0.2828
 9736SOL    HW131587   0.042   4.837   1.571  0.2094  0.5878  0.3187
 9736SOL    HW231588   0.029   4.727   1.467 -1.0988  1.6087 -0.6258
 9737SOL     OW31589   3.801  10.279   3.568  0.7443 -0.2877  0.9407
 9737SOL    HW131590   3.866  10.283   3.498  0.3155  0.2975  0.5593
 9737SOL    HW231591   3.800  10.368   3.604  0.0165 -0.2282  0.8003
 9738SOL     OW31592   7.555   2.067   7.215  0.0163 -0.8610 -0.3091
 9738SOL    HW131593   7.484   2.015   7.252  1.1267 -0.3371  2.8441
 9738SOL    HW231594   7.570   2.029   7.128 -2.0369 -2.9704  0.1598
 9739SOL     OW31595   4.623   5.235   4.749  0.3305  0.3275  0.3359
 9739SOL    HW131596   4.573   5.264   4.825  1.2657 -0.1335  1.1497
 9739SOL    HW231597   4.633   5.313   4.695 -0.8263  0.5304  0.3899
 9740SOL     OW31598   3.010   7.746   7.138 -0.2262 -0.2235  0.6619
 9740SOL    HW131599   2.947   7.687   7.179 -0.8070  0.0282  0.1447
 9740SOL    HW231600   2.961   7.827   7.124 -0.0769 -0.3371 -0.6087
 9741SOL     OW31601   0.664   7.760   2.756 -0.4442 -0.4681  0.3407
 9741SOL    HW131602   0.662   7.837   2.699 -0.0487  0.1598  1.1524
 9741SOL    HW231603   0.574   7.728   2.755 -0.2153 -1.1513 -1.5202
 9742SOL     OW31604   0.949   2.383   4.165 -0.3012 -0.8902 -0.3539
 9742SOL    HW131605   0.985   2.306   4.209 -0.4944 -1.1213 -0.6008
 9742SOL    HW231606   0.881   2.349   4.107 -2.0261 -0.3211  1.2194
 9743SOL     OW31607  10.121   0.696   1.785 -0.3906 -0.8525 -0.2249
 9743SOL    HW131608  10.186   0.694   1.855 -0.3669 -0.9775 -0.2513
 9743SOL    HW231609  10.101   0.789   1.774 -1.2698 -0.9143  0.7431
 9744SOL     OW31610  10.199   0.032   5.574 -0.3496 -0.0404 -0.0199
 9744SOL    HW131611  10.231   0.105   5.521  1.2147 -0.2736  0.5407
 9744SOL    HW231612  10.262  -0.038   5.560  0.0415 -0.1663  1.9807
 9745SOL     OW31613   6.552   0.600   2.732 -0.2747 -0.6240  0.2588
 9745SOL    HW131614   6.571   0.673   2.673  0.0251 -0.7785  0.1642
 9745SOL    HW231615   6.629   0.544   2.728  0.5526  0.2581  2.1716
 9746SOL     OW31616   4.239   4.006   7.609  0.3973  0.1432  0.0469
 9746SOL    HW131617   4.237   4.098   7.638 -0.4008 -0.0491  0.6552
 9746SOL    HW231618   4.155   3.970   7.639  0.4397 -0.6290 -0.7219
 9747SOL     OW31619   5.115   0.281  10.736  0.7323  0.3632  0.4628
 9747SOL    HW131620   5.039   0.250  10.687 -1.4008  3.7476  1.2842
 9747SOL    HW231621   5.089   0.271  10.828  0.9367  2.1474  0.7449
 9748SOL     OW31622   0.727   7.443   7.828  0.0951  0.0736 -0.0094
 9748SOL    HW131623   0.809   7.395   7.845 -1.4280 -2.1052  1.7228
 9748SOL    HW231624   0.743   7.530   7.863  0.8845 -1.0815  2.8074
 9749SOL     OW31625  10.787   0.112  10.303 -0.0809  0.6064 -0.2672
 9749SOL    HW131626  10.705   0.073  10.334 -0.6007  0.7789 -1.3868
 9749SOL    HW231627  10.789   0.093  10.209  0.5579  1.6654 -0.4878
 9750SOL     OW31628   3.019   0.667   2.934  0.3568  0.4218  0.0123
 9750SOL    HW131629   3.077   0.635   2.865  3.1323  2.9198  1.0137
 9750SOL    HW231630   2.973   0.741   2.895  1.0814  1.1221  0.4608
 9751SOL     OW31631   4.935   2.903  10.172  0.4788 -0.5185  0.2669
 9751SOL    HW131632   4.977   2.857  10.244  1.6212  0.5325  0.3156
 9751SOL    HW231633   5.000   2.968  10.144 -0.8234  0.6514 -0.1811
 9752SOL     OW31634   6.855   1.341   4.271  0.7380 -0.1172  0.2949
 9752SOL    HW131635   6.864   1.246   4.259  0.7076 -0.2451  1.2294
 9752SOL    HW231636   6.760   1.355   4.272  0.7393 -0.1238  0.5027
 9753SOL     OW31637  10.237   1.978  10.289 -0.4772 -0.0949  0.2570
 9753SOL    HW131638  10.149   1.941  10.294 -0.4446 -0.2579 -0.3101
 9753SOL    HW231639  10.295   1.904  10.303 -0.4260 -0.0682  0.1867
 9754SOL     OW31640   9.710   4.791   9.454 -0.3021  0.3242  0.2167
 9754SOL    HW131641   9.791   4.841   9.445 -0.3180  0.3451  0.1893
 9754SOL    HW231642   9.727   4.730   9.525  0.2299 -0.6348 -0.7142
 9755SOL     OW31643   1.594   0.380   9.990 -0.3827 -0.8278  0.9071
 9755SOL    HW131644   1.627   0.299   9.950  0.1841  0.0385 -0.4548
 9755SOL    HW231645   1.513   0.399   9.943  0.4721  0.3904 -0.1377
 9756SOL     OW31646  10.627   5.735   0.217 -0.3570  0.3048 -0.5989
 9756SOL    HW131647  10.598   5.735   0.308 -0.1249  2.3115 -0.4796
 9756SOL    HW231648  10.548   5.717   0.167 -0.3060 -1.8491 -0.0188
 9757SOL     OW31649   8.660   0.006   7.175 -0.1835  0.5842  0.1826
 9757SOL    HW131650   8.643  -0.061   7.108  0.1291 -0.2315  0.8957
 9757SOL    HW231651   8.684   0.084   7.126 -2.4484  0.7454 -0.7343
 9758SOL     OW31652   5.352  10.009   5.522  0.1766 -0.2442  0.3590
 9758SOL    HW131653   5.383  10.096   5.497 -0.9608 -0.0544 -0.4346
 9758SOL    HW231654   5.393   9.950   5.459 -0.1139 -0.1258  0.0552
 9759SOL     OW31655   3.888   4.526   5.442  0.7726 -0.4902 -0.0997
 9759SOL    HW131656   3.854   4.468   5.374  0.4399  1.6014 -1.8313
 9759SOL    HW231657   3.963   4.569   5.401  0.6612  0.7017  0.8968
 9760SOL     OW31658   4.707  10.720   2.435 -0.4410  0.1947  0.0915
 9760SOL    HW131659   4.679  10.773   2.360 -0.8321  0.3426  0.3408
 9760SOL    HW231660   4.778  10.770   2.475  0.8509 -0.6200 -1.0894
 9761SOL     OW31661   9.977   6.483   6.353 -0.3577  0.5737 -0.0279
 9761SOL    HW131662   9.931   6.479   6.269 -0.3073  1.1287 -0.0875
 9761SOL    HW231663  10.043   6.552   6.341  0.7328 -0.4446 -0.0586
 9762SOL     OW31664   3.572   3.241   6.903 -0.1787  0.0602  0.1378
 9762SOL    HW131665   3.497   3.289   6.939  0.6289  1.2296  0.3112
 9762SOL    HW231666   3.585   3.169   6.965  0.2823  1.2130  1.4432
 9763SOL     OW31667   7.463   7.703   8.460 -0.2617 -0.2563  0.1120
 9763SOL    HW131668   7.384   7.722   8.409  0.5069  1.4492 -0.5201
 9763SOL    HW231669   7.527   7.766   8.429  1.7878 -2.3871 -0.2907
 9764SOL     OW31670   7.001   3.749   7.381 -0.0172 -0.6339  0.3796
 9764SOL    HW131671   6.989   3.842   7.359 -0.2676 -0.9143 -0.7260
 9764SOL    HW231672   6.959   3.739   7.466 -0.6438  0.1073  0.1686
 9765SOL     OW31673   2.890   9.780   2.375 -0.2136  0.1735 -0.1780
 9765SOL    HW131674   2.984   9.788   2.355 -0.6449  0.1521 -2.5228
 9765SOL    HW231675   2.872   9.851   2.436  1.2508  0.4094  0.0129
 9766SOL     OW31676   6.834   6.811  10.035 -0.3335  0.0110 -0.5049
 9766SOL    HW131677   6.905   6.836   9.976 -1.5275  0.7155 -1.7027
 9766SOL    HW231678   6.840   6.873  10.108 -0.0877  0.4664 -0.9095
 9767SOL     OW31679   4.140   0.875   0.832 -0.0771  0.0335 -0.2269
 9767SOL    HW131680   4.148   0.963   0.870  0.6993 -0.4440  0.7707
 9767SOL    HW231681   4.204   0.823   0.881 -0.9623 -1.2341 -0.3912
 9768SOL     OW31682   7.705   0.314   0.905 -0.7396  0.2298  0.2640
 9768SOL    HW131683   7.763   0.255   0.951  0.9210  1.1203 -0.6032
 9768SOL    HW231684   7.666   0.261   0.836  0.0863 -0.0787  0.0238
 9769SOL     OW31685   9.739   7.967   6.682 -0.2595  0.1310  0.6728
 9769SOL    HW131686   9.689   7.997   6.606 -0.2970 -0.1611  0.5787
 9769SOL    HW231687   9.762   8.046   6.730  0.5288  0.4007 -0.1161
 9770SOL     OW31688   5.412   1.282   9.382  0.4934 -0.1236 -0.0546
 9770SOL    HW131689   5.341   1.232   9.422  0.4309  0.9493  1.2359
 9770SOL    HW231690   5.492   1.247   9.421  0.6579 -0.8790 -1.0167
 9771SOL     OW31691  10.679   1.328   5.670 -0.5853 -0.3469 -0.2988
 9771SOL    HW131692  10.693   1.251   5.614 -2.8560 -0.6225 -0.5887
 9771SOL    HW231693  10.740   1.315   5.743 -0.4380 -2.0908 -0.6721
 9772SOL     OW31694   1.170   2.687   6.608  0.2473 -0.2231  0.2015
 9772SOL    HW131695   1.159   2.746   6.534 -0.2622  0.0817  0.5180
 9772SOL    HW231696   1.200   2.605   6.569 -0.9154 -0.3547 -0.4464
 9773SOL     OW31697   7.592   7.750  10.421  0.1941  0.2960  0.4906
 9773SOL    HW131698   7.511   7.775  10.466 -0.2165  2.9567 -1.4580
 9773SOL    HW231699   7.662   7.784  10.476 -0.2058  1.3213  0.3992
 9774SOL     OW31700   8.589   2.902   7.787  0.1112  0.6126 -0.0538
 9774SOL    HW131701   8.681   2.883   7.805 -0.5120 -1.4421  1.3227
 9774SOL    HW231702   8.570   2.855   7.706  0.2468  0.9915 -0.3082
 9775SOL     OW31703   1.888   2.792  10.192 -0.7937 -0.8278  0.1936
 9775SOL    HW131704   1.805   2.763  10.230 -2.4921  1.4458 -1.4963
 9775SOL    HW231705   1.864   2.863  10.133  2.1385 -1.6013 -2.1623
 9776SOL     OW31706   9.279   4.075   3.450 -0.0520 -0.2593  0.0490
 9776SOL    HW131707   9.273   4.125   3.368  0.1506  0.3823  0.4212
 9776SOL    HW231708   9.245   3.988   3.427 -0.7672  0.1541 -0.5125
 9777SOL     OW31709   1.681   4.318   1.644 -0.1339 -0.1870  0.7066
 9777SOL    HW131710   1.675   4.371   1.723  0.1575 -0.2929  0.8017
 9777SOL    HW231711   1.765   4.272   1.652 -0.6699 -1.1508  0.9340
 9778SOL     OW31712   1.476   1.026  10.569 -0.2812 -0.0088  0.4543
 9778SOL    HW131713   1.433   1.044  10.652  1.0630  1.3097  0.8940
 9778SOL    HW231714   1.568   1.044  10.584  0.0004  0.2508 -1.3145
 9779SOL     OW31715   6.028   4.131   3.004  0.2001 -0.0724  0.1420
 9779SOL    HW131716   5.982   4.163   2.927 -1.3546  0.7992  1.3691
 9779SOL    HW231717   6.014   4.036   3.002  0.7184 -0.1324 -0.9714
 9780SOL     OW31718   4.875   3.318   9.452  0.1678  0.3586 -0.0183
 9780SOL    HW131719   4.845   3.365   9.530  0.8524 -1.4094  1.3738
 9780SOL    HW231720   4.828   3.234   9.455  1.2183 -0.2755 -0.7552
 9781SOL     OW31721  10.249   6.708   0.853  0.0866  0.3307 -0.2056
 9781SOL    HW131722  10.244   6.633   0.912 -0.2030  0.4228 -0.1083
 9781SOL    HW231723  10.334   6.699   0.810 -0.8240 -1.3175 -1.8487
 9782SOL     OW31724   9.964   2.630  10.410  0.1430  0.6823  0.2563
 9782SOL    HW131725   9.946   2.622  10.504 -1.7110  0.4297 -0.0836
 9782SOL    HW231726   9.980   2.541  10.381  0.1258  0.6858  0.2362
 9783SOL     OW31727   4.128   3.997   1.936 -0.5113 -0.9087  0.4818
 9783SOL    HW131728   4.125   3.910   1.975  0.3125 -1.3444 -0.4073
 9783SOL    HW231729   4.167   4.052   2.005  1.0915 -1.7052  0.2727
 9784SOL     OW31730   5.979   0.010   0.745  0.1074 -0.2662 -0.1077
 9784SOL    HW131731   6.049   0.045   0.690  0.2850 -0.8070 -0.2333
 9784SOL    HW231732   5.907   0.071   0.734  1.1099  1.2406  1.3399
 9785SOL     OW31733   5.664   4.807  10.383 -0.2777 -0.3223  0.1091
 9785SOL    HW131734   5.584   4.841  10.342  0.3499  0.7049 -0.2970
 9785SOL    HW231735   5.731   4.873  10.364  1.1300 -2.0087 -1.1442
 9786SOL     OW31736   2.996   1.211   4.865 -0.0271  0.2738 -0.3933
 9786SOL    HW131737   2.906   1.224   4.895 -0.3328 -2.5677  0.1330
 9786SOL    HW231738   3.046   1.279   4.912 -1.6979  1.1842  0.1702
 9787SOL     OW31739   9.459   1.831   4.115 -0.2785 -0.0823  0.1428
 9787SOL    HW131740   9.409   1.758   4.152  0.8362 -0.7821  0.3185
 9787SOL    HW231741   9.407   1.909   4.135 -2.3345 -0.9401 -1.4899
 9788SOL     OW31742   3.433  10.648   5.819 -0.2691 -0.7340  0.1004
 9788SOL    HW131743   3.339  10.657   5.803 -0.3266 -0.7126  0.4411
 9788SOL    HW231744   3.465  10.596   5.745 -0.2507  0.6599 -0.9015
 9789SOL     OW31745   6.206  10.576   9.099 -0.3992 -0.1842  0.1523
 9789SOL    HW131746   6.281  10.517   9.107  0.6200  0.3010 -3.7370
 9789SOL    HW231747   6.164  10.551   9.016 -1.1160  3.1708 -0.6473
 9790SOL     OW31748   6.934   4.591   9.804 -0.2423  0.0400 -0.4190
 9790SOL    HW131749   6.896   4.665   9.851 -0.6484 -0.3105 -0.1881
 9790SOL    HW231750   6.865   4.525   9.803 -0.4830  0.2731 -2.0678
 9791SOL     OW31751   6.291   4.126  10.011 -0.3595 -0.2697  0.0899
 9791SOL    HW131752   6.278   4.150  10.103 -0.4677 -0.1238  0.0356
 9791SOL    HW231753   6.298   4.209   9.964 -0.7702 -0.3408 -0.1013
 9792SOL     OW31754   0.922   6.118   3.424 -0.4904 -0.8163  0.3828
 9792SOL    HW131755   0.833   6.153   3.436 -0.4054  1.0800 -3.1812
 9792SOL    HW231756   0.908   6.028   3.396 -1.5415 -0.0089 -1.9626
 9793SOL     OW31757   2.102   5.833   4.809  0.1173  0.9199 -0.6713
 9793SOL    HW131758   2.197   5.840   4.798  0.2655 -0.8607 -0.9419
 9793SOL    HW231759   2.090   5.751   4.857 -1.2467  1.7095  0.3862
 9794SOL     OW31760   2.524   8.404   1.116  0.5185  0.1943  0.6098
 9794SOL    HW131761   2.467   8.418   1.041  0.7037 -1.8920  0.0114
 9794SOL    HW231762   2.611   8.425   1.085  0.6574 -1.1136  0.0572
 9795SOL     OW31763   9.428   1.707   9.143  0.1558  0.7208 -0.0871
 9795SOL    HW131764   9.336   1.678   9.146 -0.2513  1.9537  0.2771
 9795SOL    HW231765   9.423   1.801   9.164  1.6757  0.4300  1.9121
 9796SOL     OW31766   5.959   3.113   7.524  0.4331  0.2354 -0.3463
 9796SOL    HW131767   5.935   3.156   7.442 -0.8368 -0.9445 -0.6281
 9796SOL    HW231768   5.898   3.040   7.532  1.2469 -0.3342  1.1108
 9797SOL     OW31769   0.552   9.370   0.715 -0.3100 -0.1489 -0.1682
 9797SOL    HW131770   0.606   9.333   0.645  2.9924 -0.4839  2.3311
 9797SOL    HW231771   0.490   9.300   0.737  0.0351 -0.8325 -1.2723
 9798SOL     OW31772   2.007   6.600   4.395 -0.5077 -0.5839  0.2365
 9798SOL    HW131773   1.979   6.613   4.305  3.0144  1.0837 -0.7859
 9798SOL    HW231774   2.100   6.579   4.389 -0.5970 -2.6766  3.4171
 9799SOL     OW31775   5.621   8.159  10.036 -0.5883 -0.2405  0.0299
 9799SOL    HW131776   5.577   8.195  10.113  1.9204 -1.5302  2.2065
 9799SOL    HW231777   5.684   8.227  10.011  0.0661 -0.6703  0.4783
 9800SOL     OW31778  10.011   9.807   8.993 -0.6225  0.0298 -0.6010
 9800SOL    HW131779   9.942   9.850   9.044 -0.5522  0.4549 -0.8576
 9800SOL    HW231780  10.085   9.800   9.053 -0.3091  1.1481 -0.8382
 9801SOL     OW31781   1.424   9.181   9.511  0.0445 -0.0179 -0.2633
 9801SOL    HW131782   1.349   9.210   9.565  0.0250  0.3331 -0.4743
 9801SOL    HW231783   1.497   9.236   9.541  0.2752 -0.5100  0.0927
 9802SOL     OW31784   2.326   2.362   4.527 -0.3968 -0.1910 -0.5228
 9802SOL    HW131785   2.315   2.368   4.433  0.7519  0.4588 -0.6386
 9802SOL    HW231786   2.348   2.271   4.543  0.1532 -0.1411 -0.9797
 9803SOL     OW31787  10.526   9.637   7.503  0.2520 -0.3384 -0.4375
 9803SOL    HW131788  10.494   9.549   7.524 -0.8385 -0.0618 -0.8747
 9803SOL    HW231789  10.448   9.693   7.511  0.6310  0.3599 -1.5377
 9804SOL     OW31790   0.019   4.463   4.997  0.0430  0.3318 -0.7116
 9804SOL    HW131791   0.029   4.368   5.008 -0.0479  0.2445 -1.3235
 9804SOL    HW231792  -0.061   4.485   5.043  0.6010  0.2802  0.3120
 9805SOL     OW31793   8.318   8.572   6.334  0.4591  0.1981 -0.2655
 9805SOL    HW131794   8.282   8.516   6.264  1.0071 -1.0169  0.3826
 9805SOL    HW231795   8.409   8.588   6.307  0.3980  0.5089 -0.2863
 9806SOL     OW31796  10.387   3.760   5.433 -0.2421 -0.4247  0.1419
 9806SOL    HW131797  10.300   3.752   5.394 -0.1543 -0.3683 -0.0679
 9806SOL    HW231798  10.390   3.849   5.468  0.2137  0.0596 -1.0520
 9807SOL     OW31799   3.709   1.022   5.940 -0.0886 -0.0861  0.4620
 9807SOL    HW131800   3.694   0.985   6.027 -0.1548 -1.9379 -0.2720
 9807SOL    HW231801   3.804   1.021   5.930 -0.1001 -0.3165  0.3556
 9808SOL     OW31802   6.979   0.594   8.206 -0.3327  0.5005  0.2931
 9808SOL    HW131803   6.908   0.538   8.237  0.7906 -0.6492  0.9043
 9808SOL    HW231804   7.056   0.563   8.254  0.6023  1.6441 -0.4201
 9809SOL     OW31805   5.346   8.914   8.535  0.4984  0.2142  0.2466
 9809SOL    HW131806   5.409   8.971   8.580 -0.2872  2.2193 -1.0233
 9809SOL    HW231807   5.260   8.950   8.559 -0.2111 -2.0314  1.3798
 9810SOL     OW31808   7.911   7.082   9.267  0.3251 -0.3130 -0.5531
 9810SOL    HW131809   8.006   7.089   9.278  0.3177 -0.4614 -0.3915
 9810SOL    HW231810   7.896   6.994   9.234 -0.0109 -1.5396  2.5553
 9811SOL     OW31811   5.010   7.778   8.818 -0.6714  0.1474  0.1591
 9811SOL    HW131812   5.081   7.804   8.877 -1.2289 -0.1258  0.9607
 9811SOL    HW231813   5.032   7.688   8.793 -0.4679  0.2402  0.0037
 9812SOL     OW31814   6.474   3.261   6.579 -0.2845  0.0264  0.0150
 9812SOL    HW131815   6.541   3.220   6.635 -0.4561  1.3199  1.2412
 9812SOL    HW231816   6.398   3.204   6.587 -0.5821  0.5858  1.8511
 9813SOL     OW31817   1.263  10.710   6.315  0.5946  0.5690 -0.1700
 9813SOL    HW131818   1.300  10.697   6.227  1.0199  1.3452 -0.1159
 9813SOL    HW231819   1.338  10.738   6.368  0.1949  0.8339  0.2608
 9814SOL     OW31820   6.231   0.279   2.429 -0.2110 -0.2209  0.0682
 9814SOL    HW131821   6.252   0.190   2.401 -2.5560 -0.8056 -0.0823
 9814SOL    HW231822   6.215   0.271   2.523 -0.7683 -0.0489 -0.0083
 9815SOL     OW31823   7.473   1.985   0.194 -0.6160  0.2026 -0.2038
 9815SOL    HW131824   7.516   1.981   0.109  1.6076  0.2820  0.8265
 9815SOL    HW231825   7.519   1.919   0.247 -0.8932  1.2150  1.3592
 9816SOL     OW31826   9.645   4.294   2.682  0.0635 -0.5101  0.4978
 9816SOL    HW131827   9.632   4.201   2.664  1.5247 -0.4736 -0.9587
 9816SOL    HW231828   9.707   4.296   2.755 -0.3182 -0.6690  0.8293
 9817SOL     OW31829   4.884   5.765   9.405  0.1908 -0.6890  0.1226
 9817SOL    HW131830   4.908   5.673   9.398  1.3632 -0.3847 -0.1108
 9817SOL    HW231831   4.892   5.785   9.498  2.3605 -0.2338 -0.1148
 9818SOL     OW31832   2.889   5.146   2.735  0.5735  0.4506 -0.0815
 9818SOL    HW131833   2.833   5.097   2.796  0.2442  1.3349  0.3428
 9818SOL    HW231834   2.891   5.092   2.656  2.7993 -1.8543  1.3905
 9819SOL     OW31835   5.727  10.256   1.945  0.1902 -0.2742  0.2263
 9819SOL    HW131836   5.685  10.171   1.938  1.7113 -1.1924  1.5310
 9819SOL    HW231837   5.755  10.277   1.855  0.7876 -1.6874  0.0647
 9820SOL     OW31838   5.325   8.415   2.558 -0.4091  0.9275 -0.0010
 9820SOL    HW131839   5.375   8.439   2.480 -1.3783 -0.3308 -1.0573
 9820SOL    HW231840   5.284   8.496   2.587 -0.4464  1.3200 -1.1133
 9821SOL     OW31841   1.065   2.262   5.596  0.0180  0.0028 -0.5129
 9821SOL    HW131842   1.033   2.346   5.564  1.3527  0.4621 -0.6902
 9821SOL    HW231843   1.017   2.247   5.677  1.4259  2.0776  0.7713
 9822SOL     OW31844   4.687   2.315   7.004  0.0467 -0.1453  0.5438
 9822SOL    HW131845   4.671   2.241   6.946  3.8289 -0.6532 -0.1430
 9822SOL    HW231846   4.628   2.302   7.078 -0.1991 -3.2317 -0.0654
 9823SOL     OW31847  10.260   8.494   5.140 -0.0279  0.3725 -0.5207
 9823SOL    HW131848  10.306   8.503   5.223  1.5321 -0.7759 -1.1884
 9823SOL    HW231849  10.283   8.572   5.090  0.7026  0.1174 -0.5973
 9824SOL     OW31850   0.598  10.410  10.642  0.3733  0.6244 -0.1752
 9824SOL    HW131851   0.532  10.343  10.623 -0.6005  2.1764 -2.7263
 9824SOL    HW231852   0.550  10.479  10.687  1.2747 -0.0409  1.9796
 9825SOL     OW31853   5.814   7.435   7.791  0.5122 -0.1867  0.4595
 9825SOL    HW131854   5.738   7.379   7.780  0.0835 -0.0348  2.2948
 9825SOL    HW231855   5.882   7.395   7.738 -0.6947 -0.6149 -0.7995
 9826SOL     OW31856   5.474   1.183   1.726  0.2370  0.1219 -0.0576
 9826SOL    HW131857   5.505   1.094   1.708 -0.1474  0.0389 -0.3339
 9826SOL    HW231858   5.553   1.236   1.730  0.4653 -0.2250  0.0549
 9827SOL     OW31859  10.316   9.745   3.695 -0.5374 -0.4439  0.2068
 9827SOL    HW131860  10.398   9.715   3.656 -1.2651 -2.8014  0.3310
 9827SOL    HW231861  10.328   9.732   3.789 -0.5308  0.6494  0.3700
 9828SOL     OW31862   3.204   2.525   6.288 -0.0119  0.3699  0.2495
 9828SOL    HW131863   3.279   2.582   6.271 -0.1000 -0.6107 -5.0298
 9828SOL    HW231864   3.129   2.584   6.294  0.5601  1.0588  0.9110
 9829SOL     OW31865   4.176   1.740  10.400  0.2522 -0.2633  0.0971
 9829SOL    HW131866   4.135   1.787  10.327  0.8741  0.2525  0.0640
 9829SOL    HW231867   4.147   1.650  10.390  2.6787 -0.9392 -2.6471
 9830SOL     OW31868   0.807   9.164   3.822  0.3741  0.0373 -0.9332
 9830SOL    HW131869   0.895   9.127   3.826  0.4667  0.1282 -1.8137
 9830SOL    HW231870   0.821   9.259   3.822  0.2394  0.0566 -0.4271
 9831SOL     OW31871   1.044   1.609   2.977 -0.3915 -0.1958 -0.3215
 9831SOL    HW131872   1.008   1.534   2.929 -0.2079 -0.0650 -0.6682
 9831SOL    HW231873   1.035   1.682   2.916 -0.7397  0.1023  0.0882
 9832SOL     OW31874   8.868   7.702   5.017  0.3463 -0.0295 -0.1594
 9832SOL    HW131875   8.795   7.731   5.073  1.5982  1.7635  0.6478
 9832SOL    HW231876   8.946   7.737   5.060  1.4421  0.7128 -2.5892
 9833SOL     OW31877   5.335   7.117   4.748  0.4832 -0.2625  0.4766
 9833SOL    HW131878   5.394   7.146   4.678  1.1543 -0.1151  1.0817
 9833SOL    HW231879   5.268   7.184   4.753 -0.5581 -1.1193 -1.1555
 9834SOL     OW31880   7.444   3.363   3.200  0.9724  0.2657  0.2665
 9834SOL    HW131881   7.520   3.413   3.231  0.7044  2.2073 -1.9333
 9834SOL    HW231882   7.369   3.420   3.216  0.0416 -1.2162  1.4996
 9835SOL     OW31883   6.317   9.418   8.641  0.1152 -0.3091 -0.5544
 9835SOL    HW131884   6.251   9.356   8.611 -1.8595  1.9127 -1.0462
 9835SOL    HW231885   6.317   9.409   8.736 -1.4299  0.1131 -0.4856
 9836SOL     OW31886   8.090   7.855   8.080 -0.0062  0.1293 -0.3792
 9836SOL    HW131887   8.020   7.803   8.040 -0.4821  1.3245 -1.1672
 9836SOL    HW231888   8.043   7.921   8.131  0.5753 -1.6509  2.6631
 9837SOL     OW31889   0.705   7.236   6.073  0.6012  0.0776  0.2253
 9837SOL    HW131890   0.644   7.165   6.053  2.2860 -1.4234  0.1775
 9837SOL    HW231891   0.671   7.274   6.154 -0.3216 -0.8074  0.2769
 9838SOL     OW31892   8.756   1.656   7.784 -0.0936 -0.3964  0.1864
 9838SOL    HW131893   8.827   1.705   7.742 -0.0052 -0.2281  0.5235
 9838SOL    HW231894   8.676   1.693   7.747 -0.0352  0.1880  0.6279
 9839SOL     OW31895   1.252   9.749   4.100  0.2669  0.3110 -0.1125
 9839SOL    HW131896   1.347   9.747   4.084  0.5187  2.0544  0.8839
 9839SOL    HW231897   1.243   9.728   4.193 -0.0998  2.3705  0.3547
 9840SOL     OW31898  10.048   9.881   4.979  0.8231 -0.5604 -0.1079
 9840SOL    HW131899   9.982   9.891   5.048  3.6593  3.2465  2.4828
 9840SOL    HW231900  10.038   9.961   4.926  3.1404  0.0728  0.3085
 9841SOL     OW31901   9.378   8.986   8.653  0.0575  0.4009 -0.2718
 9841SOL    HW131902   9.292   8.986   8.611  0.3766 -0.5211 -0.9684
 9841SOL    HW231903   9.412   8.897   8.638  0.0991 -0.0817  2.1218
 9842SOL     OW31904  10.371   5.217   8.888 -0.0486  0.3274  0.0531
 9842SOL    HW131905  10.338   5.176   8.808 -1.0559  0.7198  0.2530
 9842SOL    HW231906  10.324   5.173   8.958 -2.9451  3.3322  0.1793
 9843SOL     OW31907   3.955   9.811   9.062 -0.1532  0.7238 -0.4625
 9843SOL    HW131908   3.993   9.744   9.119 -0.9928  0.2821 -0.4042
 9843SOL    HW231909   4.031   9.853   9.021  0.4894  1.2417  1.1629
 9844SOL     OW31910   7.441   4.865   7.690  0.4633  0.0766  0.6509
 9844SOL    HW131911   7.409   4.929   7.626 -1.7852 -1.6431 -0.0579
 9844SOL    HW231912   7.504   4.812   7.641  0.3673  0.1009  0.5024
 9845SOL     OW31913   2.588   5.698   7.897 -0.1035  0.3809  0.1449
 9845SOL    HW131914   2.611   5.607   7.878  1.3708  0.3214  1.9215
 9845SOL    HW231915   2.501   5.693   7.937  0.3415 -0.3798  1.0604
 9846SOL     OW31916   6.055   7.669   8.440  0.2848 -0.2078 -0.2870
 9846SOL    HW131917   5.997   7.593   8.433  0.3953 -0.3789  0.5205
 9846SOL    HW231918   6.005   7.741   8.402  0.0829 -0.6294 -0.8450
 9847SOL     OW31919  10.773   6.341   9.276  0.3189 -0.2137 -0.7617
 9847SOL    HW131920  10.726   6.260   9.296  1.9745 -1.1594 -0.5398
 9847SOL    HW231921  10.812   6.325   9.190  1.8431 -0.2674 -0.1010
 9848SOL     OW31922   6.266   5.633   9.341 -0.2239 -0.0418  0.6688
 9848SOL    HW131923   6.236   5.644   9.432 -0.5709 -0.9497  0.6780
 9848SOL    HW231924   6.229   5.549   9.314  1.1906 -0.5380  0.2199
 9849SOL     OW31925   6.018   0.350   0.585  0.0446 -0.0100  0.1595
 9849SOL    HW131926   5.943   0.403   0.613 -0.3523  0.6682 -2.0063
 9849SOL    HW231927   6.093   0.391   0.629 -0.7412 -0.4376  2.0115
 9850SOL     OW31928   5.040   7.832   2.617  0.6724 -0.1052  0.1224
 9850SOL    HW131929   5.032   7.737   2.612  0.2013 -0.1096  0.7844
 9850SOL    HW231930   5.016   7.863   2.530  0.9168 -0.5982 -0.1233
 9851SOL     OW31931   1.543   5.972  10.654  0.3075  0.5759  0.1234
 9851SOL    HW131932   1.469   5.967  10.593  0.2863 -0.3325  0.2045
 9851SOL    HW231933   1.536   6.059  10.693 -0.5310  0.6247 -0.1062
 9852SOL     OW31934   8.302   5.766  10.705  0.2638  0.2293  0.0842
 9852SOL    HW131935   8.236   5.803  10.763 -1.5745  0.3335 -1.9724
 9852SOL    HW231936   8.260   5.689  10.666  1.7356 -0.3142 -0.5337
 9853SOL     OW31937   0.241   9.971  10.582  0.0194  0.4391  0.1223
 9853SOL    HW131938   0.264  10.010  10.667  0.0409  1.3191 -0.2733
 9853SOL    HW231939   0.174  10.029  10.547  0.7778  0.7006 -0.9404
 9854SOL     OW31940   9.601   7.795  10.247  0.0312  0.9005  0.3086
 9854SOL    HW131941   9.669   7.734  10.273  0.3656  0.4731 -1.4163
 9854SOL    HW231942   9.519   7.755  10.277  0.2768 -0.2540 -0.4991
 9855SOL     OW31943   1.500   5.424   5.732  0.0887  0.1443 -0.2519
 9855SOL    HW131944   1.451   5.505   5.716  0.5374  0.2281 -1.3105
 9855SOL    HW231945   1.527   5.430   5.824 -0.0331  1.1144 -0.2654
 9856SOL     OW31946   1.140   6.475  10.728  0.1812  0.2388 -0.3463
 9856SOL    HW131947   1.098   6.453  10.811  1.6802 -0.4062  0.2805
 9856SOL    HW231948   1.145   6.571  10.728 -0.6544  0.2920 -0.1383
 9857SOL     OW31949   6.931   1.464   9.065  0.3715  0.5755 -0.3051
 9857SOL    HW131950   6.879   1.536   9.102 -0.0232  0.1401 -0.0061
 9857SOL    HW231951   6.869   1.415   9.011  0.9683  1.2777 -1.6752
 9858SOL     OW31952   7.856   8.437   5.578 -0.2895  0.0796  0.0394
 9858SOL    HW131953   7.915   8.455   5.651 -0.1559  0.2137 -0.1020
 9858SOL    HW231954   7.892   8.359   5.536 -1.2286 -0.9272  1.0368
 9859SOL     OW31955   6.072   2.886   0.770 -0.3329  0.0191  0.0398
 9859SOL    HW131956   6.062   2.837   0.851 -0.6323  0.4713  0.2781
 9859SOL    HW231957   5.989   2.932   0.759  0.4226  1.5730  0.5550
 9860SOL     OW31958   9.851   0.277   6.626 -0.0454  0.4980  0.0311
 9860SOL    HW131959   9.871   0.241   6.539  0.0390  0.2770  0.1413
 9860SOL    HW231960   9.931   0.323   6.651  0.0523  0.2716  0.1381
 9861SOL     OW31961   4.087   2.718   3.437  0.3969  0.3865 -0.7946
 9861SOL    HW131962   4.138   2.676   3.368 -0.2190 -2.4581  0.3681
 9861SOL    HW231963   3.997   2.719   3.402 -0.2681 -2.7159  0.4976
 9862SOL     OW31964   0.317   9.225   7.198 -0.1565 -0.2643  0.5916
 9862SOL    HW131965   0.241   9.283   7.203 -0.7396 -1.1116  2.6922
 9862SOL    HW231966   0.314   9.189   7.110  0.2950  2.8884 -0.8395
 9863SOL     OW31967   0.173   7.415   2.188 -0.2048 -0.4610 -0.0655
 9863SOL    HW131968   0.108   7.350   2.163  0.1861 -0.5092 -1.0018
 9863SOL    HW231969   0.125   7.497   2.194 -0.8478 -0.9311  1.8475
 9864SOL     OW31970   6.210   8.487   6.607  0.1930 -0.0862  0.3926
 9864SOL    HW131971   6.130   8.439   6.584 -1.4270  2.7276 -0.4371
 9864SOL    HW231972   6.204   8.498   6.702 -1.6312  1.8439  0.1463
 9865SOL     OW31973   1.143   8.040   7.587  0.0103  0.0448 -0.2396
 9865SOL    HW131974   1.168   8.023   7.496  0.0368  0.4794 -0.3131
 9865SOL    HW231975   1.048   8.054   7.584 -0.0665 -0.4156 -0.1283
 9866SOL     OW31976   2.736   9.617   8.852 -0.1104  0.0539  0.2573
 9866SOL    HW131977   2.786   9.539   8.878 -0.9004 -1.3462 -2.1144
 9866SOL    HW231978   2.676   9.631   8.925  0.7882 -0.8813  1.2269
 9867SOL     OW31979   8.144   5.426   5.009 -0.0881 -0.2265  0.1918
 9867SOL    HW131980   8.168   5.335   4.990 -0.3704 -0.3570  0.4396
 9867SOL    HW231981   8.221   5.477   4.986 -0.0687 -0.4876 -0.3188
 9868SOL     OW31982   0.795   8.784   3.822  0.1224 -0.0327 -0.3149
 9868SOL    HW131983   0.833   8.713   3.874 -1.8548 -1.2430 -0.4300
 9868SOL    HW231984   0.732   8.826   3.881  0.7932  1.2366 -0.4649
 9869SOL     OW31985   9.988   4.897   3.573 -0.6475  0.0310  0.0443
 9869SOL    HW131986  10.014   4.840   3.646 -2.3219 -0.2480  0.4649
 9869SOL    HW231987   9.928   4.843   3.522 -1.4742  1.0812 -0.1089
 9870SOL     OW31988   8.632   0.043   9.142  0.4321  0.2078  0.5092
 9870SOL    HW131989   8.570   0.003   9.081  0.5126  0.1586  0.4600
 9870SOL    HW231990   8.579   0.061   9.221 -0.2246  2.3182 -0.3431
 9871SOL     OW31991   9.802   5.744  10.138 -0.0542 -0.0125 -0.7551
 9871SOL    HW131992   9.839   5.796  10.067  1.7910  1.1488  0.9666
 9871SOL    HW231993   9.860   5.669  10.146  0.2130  0.2630  0.0003
 9872SOL     OW31994   9.894  10.700   9.267  0.0990 -0.5844  0.5843
 9872SOL    HW131995   9.859  10.764   9.330 -0.1769  3.3140 -3.0286
 9872SOL    HW231996   9.976  10.671   9.305  0.8048  2.8838  2.1088
 9873SOL     OW31997   1.412   8.359   0.609 -0.5567 -0.4581 -0.0131
 9873SOL    HW131998   1.412   8.421   0.681 -0.3649  0.6812 -0.9560
 9873SOL    HW231999   1.478   8.294   0.633 -0.6604 -0.2220  0.9327
 9874SOL     OW32000   8.813   6.498   0.484 -0.7310  0.0668  0.2242
 9874SOL    HW132001   8.794   6.493   0.578 -3.2677 -2.7616 -0.2836
 9874SOL    HW232002   8.908   6.496   0.478 -0.5199 -2.1008  2.7099
 9875SOL     OW32003   5.210  10.751   0.159  0.3804 -0.7590 -0.4191
 9875SOL    HW132004   5.283  10.808   0.183 -0.3675  0.5049 -1.0399
 9875SOL    HW232005   5.245  10.695   0.089  0.4095  0.7567 -1.6710
 9876SOL     OW32006   9.536   8.065   6.401 -0.4575  0.0578 -0.5459
 9876SOL    HW132007   9.568   7.975   6.398 -0.1080  0.0089  2.2108
 9876SOL    HW232008   9.441   8.057   6.392 -0.2861 -0.2913 -2.7646
 9877SOL     OW32009   7.594   3.829   2.416 -0.4193 -0.1986 -0.7692
 9877SOL    HW132010   7.656   3.862   2.350  0.3435 -2.0493 -1.0374
 9877SOL    HW232011   7.649   3.782   2.479 -1.2258  0.9196  0.8325
 9878SOL     OW32012   3.529   2.724   4.027 -0.0132 -0.6059 -0.1973
 9878SOL    HW132013   3.575   2.641   4.027 -0.1901 -0.7063  0.1061
 9878SOL    HW232014   3.473   2.721   3.950 -1.4005 -1.5502  0.7880
 9879SOL     OW32015   6.222   2.358   2.358 -0.2109  0.2379 -0.1594
 9879SOL    HW132016   6.235   2.278   2.410 -0.2579  0.1795 -0.2371
 9879SOL    HW232017   6.221   2.429   2.423 -2.2880 -0.0223  0.1567
 9880SOL     OW32018  10.633   3.514   3.692 -0.2412  0.3002  0.0281
 9880SOL    HW132019  10.652   3.603   3.664  2.0442 -0.1179  0.0480
 9880SOL    HW232020  10.718   3.476   3.712 -0.8070 -2.7193 -2.4487
 9881SOL     OW32021   3.541   1.438   0.526  0.1063 -0.6122  0.0791
 9881SOL    HW132022   3.555   1.453   0.432 -1.0243 -1.3728 -0.2285
 9881SOL    HW232023   3.457   1.481   0.544  0.4311 -0.2749  0.8072
 9882SOL     OW32024   7.279  10.173   9.751 -0.0953  0.3232  0.0912
 9882SOL    HW132025   7.205  10.136   9.799 -1.5467  2.2506 -0.4983
 9882SOL    HW232026   7.346  10.189   9.818 -1.3939  1.3168  1.2316
 9883SOL     OW32027   2.142   6.281   9.377 -0.0964 -0.2154  0.3006
 9883SOL    HW132028   2.158   6.313   9.288  0.8621  1.3655  1.0001
 9883SOL    HW232029   2.067   6.332   9.408  1.8745  2.0599  1.6746
 9884SOL     OW32030   8.939   5.571   2.722 -0.5503 -0.0191 -0.5313
 9884SOL    HW132031   8.940   5.518   2.643  2.0202 -0.7081 -0.1329
 9884SOL    HW232032   9.006   5.638   2.707 -0.1538 -0.0508  0.9720
 9885SOL     OW32033   4.109   2.137   6.194  0.5012  0.4427  0.4841
 9885SOL    HW132034   4.087   2.045   6.180  1.5862  0.2475 -0.1150
 9885SOL    HW232035   4.033   2.185   6.162  0.3159 -0.2238 -0.1231
 9886SOL     OW32036   4.326   2.084   5.808 -0.0145  0.1399 -0.2653
 9886SOL    HW132037   4.375   2.002   5.800 -1.0486 -0.5067 -0.1577
 9886SOL    HW232038   4.327   2.104   5.901 -0.8279 -0.4347 -0.1247
 9887SOL     OW32039   2.989   8.448   8.756  0.0515  0.3307  0.4869
 9887SOL    HW132040   2.916   8.511   8.751 -0.6862 -0.4929  0.6771
 9887SOL    HW232041   3.021   8.442   8.666 -1.5283 -0.9164 -0.0337
 9888SOL     OW32042   3.037   7.485   8.516  0.7690 -0.0408 -0.1979
 9888SOL    HW132043   3.047   7.392   8.534  1.0249 -0.1298 -0.7867
 9888SOL    HW232044   3.118   7.511   8.473  0.6246  0.4135 -0.2096
 9889SOL     OW32045   6.747   4.247   9.428  0.2965 -0.1025  0.2119
 9889SOL    HW132046   6.771   4.163   9.391 -1.0273 -0.3639 -0.0973
 9889SOL    HW232047   6.693   4.226   9.504  0.4409  0.4677  0.4855
 9890SOL     OW32048   9.226   6.387   9.061 -0.5420  0.4596 -0.2934
 9890SOL    HW132049   9.165   6.318   9.085 -0.5319  0.5447 -0.0263
 9890SOL    HW232050   9.194   6.465   9.105 -1.4018  0.9741 -1.7603
 9891SOL     OW32051   2.871   1.116   3.657  0.0289  0.5823 -0.4219
 9891SOL    HW132052   2.946   1.126   3.599  0.8823  1.5586  0.8068
 9891SOL    HW232053   2.842   1.205   3.675 -1.5604  0.2205 -1.0113
 9892SOL     OW32054   3.490   6.059   3.603 -0.0400  0.0086 -0.7253
 9892SOL    HW132055   3.582   6.046   3.580 -0.1596 -0.3988 -0.9868
 9892SOL    HW232056   3.458   5.971   3.621  0.5336  0.3812  2.9263
 9893SOL     OW32057   0.053   5.991   4.896  0.2392 -0.4184 -0.0044
 9893SOL    HW132058  -0.030   6.025   4.863  0.3028 -0.1118  0.1449
 9893SOL    HW232059   0.082   6.057   4.959 -0.0727 -1.1738  0.9557
 9894SOL     OW32060   4.004   8.428   4.763  0.6965  0.0975 -0.6271
 9894SOL    HW132061   4.045   8.392   4.684  1.3597  0.1037 -0.2824
 9894SOL    HW232062   4.051   8.388   4.836  0.8772  0.9970 -0.2336
 9895SOL     OW32063   3.462   6.511   5.868 -0.4518  0.7765 -0.0252
 9895SOL    HW132064   3.547   6.513   5.912 -1.4828  0.0738  2.1130
 9895SOL    HW232065   3.464   6.429   5.818 -0.7930 -0.6277  2.1186
 9896SOL     OW32066   9.062   1.907   2.956  0.0565 -0.0527 -0.4094
 9896SOL    HW132067   9.158   1.906   2.949  0.2979  2.0137  1.5299
 9896SOL    HW232068   9.044   1.956   3.036 -2.6637 -0.2440 -0.8088
 9897SOL     OW32069   7.755   9.204   5.199 -0.2546  0.7241  0.1531
 9897SOL    HW132070   7.849   9.187   5.208 -0.6076 -1.5460  0.1502
 9897SOL    HW232071   7.738   9.278   5.257  1.5015  1.0663  0.2860
 9898SOL     OW32072   5.984   3.993   8.931  0.3834 -0.3590  0.6966
 9898SOL    HW132073   5.972   3.937   9.007 -0.4446 -0.3065  0.6083
 9898SOL    HW232074   6.063   3.960   8.889 -0.1917 -1.5740  0.5439
 9899SOL     OW32075   3.989   6.793   2.231 -0.3667  0.5802 -0.5914
 9899SOL    HW132076   4.023   6.703   2.238  0.4216  0.8416 -0.9279
 9899SOL    HW232077   4.023   6.824   2.147 -4.3306 -0.3334 -2.7994
 9900SOL     OW32078   3.382   3.993   6.354 -0.3067 -0.4944 -0.5779
 9900SOL    HW132079   3.404   4.074   6.308 -1.6800 -1.6619 -3.6000
 9900SOL    HW232080   3.286   3.995   6.360 -0.3905 -2.0445 -1.0724
 9901SOL     OW32081   3.623   0.580   7.009 -0.3459 -0.1984  0.1476
 9901SOL    HW132082   3.671   0.533   7.077 -1.6561 -1.3760  0.2857
 9901SOL    HW232083   3.552   0.624   7.056  0.9160  2.1504  0.0581
 9902SOL     OW32084   3.468  10.326   5.746  0.0516  0.2296 -0.0243
 9902SOL    HW132085   3.547  10.280   5.716 -1.0272 -1.4392 -0.4553
 9902SOL    HW232086   3.397  10.286   5.696 -1.2176  0.8482  1.2228
 9903SOL     OW32087   5.771  10.388   4.074  0.0066 -0.3636 -0.3715
 9903SOL    HW132088   5.723  10.306   4.089  1.1700 -1.1278 -0.6871
 9903SOL    HW232089   5.705  10.448   4.040 -0.7432 -1.3880 -0.8017
 9904SOL     OW32090   9.134   6.861   7.367  0.1571  0.2745 -0.1451
 9904SOL    HW132091   9.084   6.855   7.285  0.7909 -0.3023 -0.5035
 9904SOL    HW232092   9.069   6.851   7.436 -0.1740 -0.9643 -0.6050
 9905SOL     OW32093   0.725   0.549   3.927  0.4501 -0.4236  0.1343
 9905SOL    HW132094   0.684   0.464   3.910 -0.6461  0.3605 -1.4604
 9905SOL    HW232095   0.652   0.605   3.954  1.1709 -0.0005  1.2346
 9906SOL     OW32096   5.636   3.150   6.573 -0.2873  0.3136  0.3783
 9906SOL    HW132097   5.559   3.164   6.627 -0.2354  0.1293  0.5016
 9906SOL    HW232098   5.687   3.083   6.621  0.6345  1.4374  1.0341
 9907SOL     OW32099   0.014   5.027   6.891 -0.4315 -0.6714 -0.3169
 9907SOL    HW132100   0.072   5.100   6.868  0.3863 -1.2603 -0.1805
 9907SOL    HW232101   0.018   5.021   6.986 -2.0409  0.3277 -0.1497
 9908SOL     OW32102   7.328   3.007   0.978 -0.5351 -0.0010 -0.0458
 9908SOL    HW132103   7.383   3.058   0.918 -0.3005  0.1395  0.2864
 9908SOL    HW232104   7.258   3.068   1.002  0.4423  0.6223  1.3589
 9909SOL     OW32105   0.078   3.041   3.299 -0.1632  0.2088 -0.3943
 9909SOL    HW132106   0.035   3.055   3.383  0.3769  0.5154 -0.1654
 9909SOL    HW232107   0.030   2.968   3.259  0.3334 -0.7449  0.7058
 9910SOL     OW32108   4.111   5.739   0.953 -0.3575 -0.1684 -0.3134
 9910SOL    HW132109   4.203   5.746   0.981 -0.6667 -1.2617  1.0958
 9910SOL    HW232110   4.116   5.700   0.865  0.5755  1.6434 -1.1280
 9911SOL     OW32111   0.703   3.406   2.143  0.5015  0.1457  0.4473
 9911SOL    HW132112   0.760   3.336   2.174 -0.0133 -1.0880 -1.2798
 9911SOL    HW232113   0.619   3.389   2.187  0.3473 -0.3861 -0.0518
 9912SOL     OW32114   1.333  10.254   7.576  0.0286  0.3617  0.7083
 9912SOL    HW132115   1.249  10.223   7.611  0.3388 -2.0937 -0.5046
 9912SOL    HW232116   1.398  10.224   7.639  0.2316 -0.6670  0.0515
 9913SOL     OW32117  10.358   7.265   6.560  0.3082  0.2609  0.0558
 9913SOL    HW132118  10.429   7.327   6.579  1.2233 -0.8908  0.4967
 9913SOL    HW232119  10.378   7.232   6.472 -1.1246  1.8145 -0.9125
 9914SOL     OW32120   5.034   7.638   0.972  0.5194 -0.2306 -0.1287
 9914SOL    HW132121   5.017   7.700   0.901  1.4155 -0.9969 -1.0433
 9914SOL    HW232122   5.116   7.668   1.011 -0.1380  0.3803  0.8168
 9915SOL     OW32123   0.566   6.607   3.296  0.2942  0.0290 -0.6981
 9915SOL    HW132124   0.567   6.546   3.222  2.4212  0.4647 -1.0987
 9915SOL    HW232125   0.595   6.690   3.259 -2.1001  1.2125 -0.0552
 9916SOL     OW32126   3.362   0.741  10.036 -0.0605  0.0440  0.2034
 9916SOL    HW132127   3.399   0.668  10.084 -0.4038 -0.6935 -0.6347
 9916SOL    HW232128   3.349   0.708   9.947 -1.0934  0.8303  0.0430
 9917SOL     OW32129   4.433   3.667   7.022  0.7500 -0.3371  0.4518
 9917SOL    HW132130   4.401   3.702   7.105  1.2877 -0.1689  0.5915
 9917SOL    HW232131   4.451   3.745   6.969 -3.3171 -0.3321 -1.3614
 9918SOL     OW32132   2.541   6.467   0.600  0.4540 -0.6040 -0.0761
 9918SOL    HW132133   2.468   6.419   0.559  0.0874 -0.1033 -0.0144
 9918SOL    HW232134   2.609   6.466   0.533 -0.4597  0.9806 -1.0785
 9919SOL     OW32135  10.205   4.794   1.992 -0.2844  0.6326  0.1561
 9919SOL    HW132136  10.133   4.828   1.940  1.1652  4.2335  0.2193
 9919SOL    HW232137  10.266   4.758   1.927  0.5067  3.0896 -0.5745
 9920SOL     OW32138   5.228   4.721   6.058  0.0384 -0.1873 -0.1561
 9920SOL    HW132139   5.215   4.795   5.999 -0.6463  1.6130  2.0774
 9920SOL    HW232140   5.252   4.648   6.001  3.2532  2.2876 -2.3413
 9921SOL     OW32141   9.963   8.136   9.292 -0.2063 -0.1780  0.3122
 9921SOL    HW132142   9.889   8.100   9.341  0.1929  1.1357  1.9449
 9921SOL    HW232143   9.929   8.214   9.249 -0.2602 -0.6926 -0.6065
 9922SOL     OW32144   1.397   7.153   9.501  0.5654  0.1233 -0.7295
 9922SOL    HW132145   1.378   7.088   9.433  0.2207 -0.4093 -0.1395
 9922SOL    HW232146   1.475   7.118   9.545  0.6840  0.3762 -0.7390
 9923SOL     OW32147   2.157   8.414   3.282 -0.2712 -0.0303  0.2999
 9923SOL    HW132148   2.146   8.323   3.312  1.8687 -0.4411  0.0639
 9923SOL    HW232149   2.131   8.412   3.190 -1.0990 -0.1871  0.5318
 9924SOL     OW32150   1.370   4.312   9.932 -0.1473 -0.0481 -0.6939
 9924SOL    HW132151   1.402   4.387   9.883  1.2640  1.0156  1.6721
 9924SOL    HW232152   1.371   4.240   9.869  3.1238  0.8494 -1.8495
 9925SOL     OW32153   8.423   5.379   6.689  0.4003 -0.1097 -0.3916
 9925SOL    HW132154   8.341   5.344   6.725 -0.2558  1.2490 -0.5089
 9925SOL    HW232155   8.438   5.327   6.610  0.7220 -1.6925  0.6533
 9926SOL     OW32156   9.290   2.639   5.247  0.1773  0.2533 -0.3831
 9926SOL    HW132157   9.358   2.592   5.296 -0.1699  1.4049  1.2798
 9926SOL    HW232158   9.337   2.681   5.175  1.0858  0.3778  0.2738
 9927SOL     OW32159   1.030   0.430   5.940  0.2331 -0.3333  0.4107
 9927SOL    HW132160   0.945   0.471   5.950 -1.4159 -3.3880 -0.0019
 9927SOL    HW232161   1.011   0.339   5.917  3.6102 -1.1826  0.3918
 9928SOL     OW32162   8.621   6.560   4.799  0.1722 -0.1478 -0.3524
 9928SOL    HW132163   8.562   6.525   4.732 -0.7689 -0.4629  0.6220
 9928SOL    HW232164   8.648   6.484   4.850  1.0082  0.0678 -0.4529
 9929SOL     OW32165   1.342   4.885   2.967 -0.0346 -0.7420  0.0990
 9929SOL    HW132166   1.304   4.930   2.891  0.2165  0.5504  0.7140
 9929SOL    HW232167   1.435   4.874   2.945 -0.2585 -1.7752 -0.4101
 9930SOL     OW32168   0.039  10.794   4.267 -0.4698  0.0351  0.1943
 9930SOL    HW132169   0.131  10.822   4.269 -0.2081 -0.8281  1.4974
 9930SOL    HW232170   0.031  10.742   4.187  0.0784  0.4077 -0.1090
 9931SOL     OW32171   3.822   8.761   5.093  0.3887  0.3868 -0.3207
 9931SOL    HW132172   3.856   8.684   5.140 -1.2719  0.4074  1.0010
 9931SOL    HW232173   3.877   8.766   5.015  2.1894 -0.6556  0.7698
 9932SOL     OW32174   5.370   4.786   8.515  0.0107  0.2081 -0.1022
 9932SOL    HW132175   5.383   4.749   8.602 -0.1799  0.2849 -0.0401
 9932SOL    HW232176   5.276   4.799   8.508 -0.0499 -0.4662 -0.5976
 9933SOL     OW32177   5.858   0.543   3.210 -0.5611  0.3576  0.2621
 9933SOL    HW132178   5.778   0.594   3.218 -0.8202  0.0989 -0.5935
 9933SOL    HW232179   5.904   0.581   3.136 -1.0305 -0.9808 -0.7548
 9934SOL     OW32180   1.039   1.800  10.246  0.3683  0.4293 -0.1096
 9934SOL    HW132181   1.012   1.770  10.159 -0.1962 -0.7733  0.4570
 9934SOL    HW232182   1.099   1.872  10.229  0.3776  0.1208 -1.4981
 9935SOL     OW32183   7.595   1.766   2.906 -0.0131 -0.3760 -0.1553
 9935SOL    HW132184   7.599   1.703   2.977  1.8062 -0.0554  0.0760
 9935SOL    HW232185   7.531   1.831   2.934 -0.8162 -1.3220  0.2489
 9936SOL     OW32186  10.140   6.134  10.361 -0.3369 -0.2951 -0.1076
 9936SOL    HW132187  10.230   6.156  10.339 -0.3650 -1.6601 -1.8394
 9936SOL    HW232188  10.147   6.055  10.415 -0.4831 -1.3322 -1.5314
 9937SOL     OW32189   6.356  10.180   9.971 -0.1970 -0.5512  0.3333
 9937SOL    HW132190   6.363  10.219   9.884  1.8521 -0.3743  0.5246
 9937SOL    HW232191   6.306  10.099   9.957  0.1637 -0.5645 -1.0239
 9938SOL     OW32192   1.385   1.038   7.098  0.1486 -0.9291 -0.8882
 9938SOL    HW132193   1.452   1.032   7.166 -1.1034 -0.8077  0.3924
 9938SOL    HW232194   1.410   1.116   7.047  0.9970 -0.9142 -0.4625
 9939SOL     OW32195   6.752   2.031   8.871 -0.4228  0.5214 -0.2830
 9939SOL    HW132196   6.718   1.942   8.870 -0.0555  0.3805 -0.7217
 9939SOL    HW232197   6.819   2.031   8.939 -0.8625  0.6345  0.1536
 9940SOL     OW32198   0.451   9.318   6.513 -0.5548  0.9637  0.0495
 9940SOL    HW132199   0.433   9.224   6.523  2.7739  0.1310 -0.5097
 9940SOL    HW232200   0.417   9.339   6.426  0.4428 -0.3049 -0.6921
 9941SOL     OW32201   0.719   0.460   6.537 -0.0055 -0.6467 -0.5375
 9941SOL    HW132202   0.731   0.528   6.602 -0.9455 -0.6523 -0.3447
 9941SOL    HW232203   0.721   0.378   6.587 -1.7772 -0.6030 -0.3320
 9942SOL     OW32204   9.726   9.763   4.481 -0.0679 -0.2023 -0.0078
 9942SOL    HW132205   9.703   9.755   4.388 -1.2723 -1.6550  0.3840
 9942SOL    HW232206   9.820   9.744   4.483  0.4213  1.7859 -1.1383
 9943SOL     OW32207   3.471  10.796   0.127 -0.1762 -0.1200  0.1873
 9943SOL    HW132208   3.551  10.763   0.087  0.1727 -0.0300  0.8044
 9943SOL    HW232209   3.420  10.718   0.149 -0.3272 -0.1731 -0.3318
 9944SOL     OW32210   7.057   1.738   7.151 -0.6642  0.0828  0.2098
 9944SOL    HW132211   7.144   1.731   7.110 -0.6622  1.1852 -0.0066
 9944SOL    HW232212   7.053   1.664   7.211  0.5965  0.2304  0.5101
 9945SOL     OW32213   0.314   4.386   4.794  0.0880 -0.4951  0.1367
 9945SOL    HW132214   0.368   4.452   4.751  0.8319 -1.2246 -0.0615
 9945SOL    HW232215   0.336   4.392   4.886  0.8426 -1.0771  0.0057
 9946SOL     OW32216   8.724   2.797   8.760 -0.2830 -0.0576 -0.2373
 9946SOL    HW132217   8.760   2.870   8.711  1.1858 -1.4139 -1.2885
 9946SOL    HW232218   8.692   2.836   8.841 -0.8040  1.9233 -1.3214
 9947SOL     OW32219   2.092   3.330   4.360 -0.4069 -0.1307 -0.6396
 9947SOL    HW132220   2.070   3.240   4.384 -0.4866 -0.1490 -0.7841
 9947SOL    HW232221   2.130   3.323   4.273  0.8725 -0.1997 -0.1118
 9948SOL     OW32222   0.572   6.112   2.736 -0.6168 -0.4357  0.0645
 9948SOL    HW132223   0.633   6.089   2.666 -0.9809 -1.2473 -0.0055
 9948SOL    HW232224   0.530   6.029   2.758 -0.2209 -0.2632  1.5251
 9949SOL     OW32225   0.014   8.859   2.943  0.6134 -0.1428  0.4004
 9949SOL    HW132226   0.093   8.893   2.985  0.5225  0.8858 -0.2324
 9949SOL    HW232227   0.047   8.818   2.862  0.7327 -1.6880  1.1922
 9950SOL     OW32228   1.387   9.575   6.427  0.0622  0.0783 -0.3985
 9950SOL    HW132229   1.360   9.660   6.391  1.0658  2.6668  4.1870
 9950SOL    HW232230   1.479   9.566   6.401 -0.0517  0.3816 -0.9245
 9951SOL     OW32231  10.526   0.446   5.275  0.2086  0.2286 -0.1324
 9951SOL    HW132232  10.578   0.510   5.324  3.8444 -1.6727 -1.1790
 9951SOL    HW232233  10.490   0.496   5.201  0.8840  1.5466  0.3980
 9952SOL     OW32234   1.887   5.853   5.853  0.5040 -0.2118  0.1525
 9952SOL    HW132235   1.970   5.858   5.806  0.1950  3.5362 -0.2726
 9952SOL    HW232236   1.905   5.895   5.937 -0.8276  0.3237  0.1905
 9953SOL     OW32237   0.690   1.790   8.626 -0.0598 -0.5426 -0.4483
 9953SOL    HW132238   0.682   1.867   8.683 -0.6802  0.6402 -2.0208
 9953SOL    HW232239   0.651   1.719   8.676  0.9884  0.0208  1.2719
 9954SOL     OW32240   1.255   5.424   3.173  0.3005 -0.6134  0.3619
 9954SOL    HW132241   1.162   5.402   3.178  0.2192 -0.2827  0.3366
 9954SOL    HW232242   1.297   5.344   3.140 -0.0192 -0.6474  0.0327
 9955SOL     OW32243  10.120   9.153  10.366  0.4159  0.4100 -0.1364
 9955SOL    HW132244  10.180   9.084  10.394  0.3022  0.7505  0.9731
 9955SOL    HW232245  10.035   9.109  10.359  0.4749  0.2875 -0.0922
 9956SOL     OW32246   9.344   6.581   2.074 -0.3573  0.7290 -0.2107
 9956SOL    HW132247   9.284   6.592   2.147 -0.1623  1.0793 -0.1028
 9956SOL    HW232248   9.385   6.496   2.089  2.2540  2.2055  2.0009
 9957SOL     OW32249   0.194   7.184   0.215  0.3119  0.2046  0.1299
 9957SOL    HW132250   0.164   7.114   0.156 -0.7028  1.1785 -0.5573
 9957SOL    HW232251   0.272   7.219   0.173 -0.1108  0.5525 -0.3752
 9958SOL     OW32252  10.252   7.756   4.287  0.1912  0.3382  0.7975
 9958SOL    HW132253  10.342   7.789   4.283  1.2537 -1.9969  3.0117
 9958SOL    HW232254  10.245   7.697   4.212  0.2919  0.9063  0.3261
 9959SOL     OW32255   0.887   1.756   4.506 -0.4803 -0.5219  0.2561
 9959SOL    HW132256   0.864   1.671   4.469 -0.8223 -0.1422 -0.4144
 9959SOL    HW232257   0.979   1.769   4.480 -0.8328 -0.0834 -0.8123
 9960SOL     OW32258   5.544   2.629   2.320  0.1272  0.2157  0.5359
 9960SOL    HW132259   5.624   2.648   2.369 -0.1206 -0.8070  1.3585
 9960SOL    HW232260   5.569   2.562   2.256  0.2499  0.9374 -0.1948
 9961SOL     OW32261   7.646   3.486   1.117  0.3004 -0.3890  0.0247
 9961SOL    HW132262   7.639   3.407   1.170  2.1355  0.1171  1.1176
 9961SOL    HW232263   7.655   3.454   1.027 -3.9287 -1.2448 -0.2935
 9962SOL     OW32264   4.807   5.738   7.120 -0.4950 -0.2018 -0.7193
 9962SOL    HW132265   4.823   5.704   7.208 -1.1771  0.3554 -0.3695
 9962SOL    HW232266   4.853   5.822   7.118  1.9100 -1.4257 -1.8617
 9963SOL     OW32267   2.824   9.968   5.701 -0.1873 -0.2860  0.0938
 9963SOL    HW132268   2.797   9.952   5.610 -1.6405 -2.3080  0.7959
 9963SOL    HW232269   2.907   9.922   5.710 -0.2924 -0.5095 -0.0735
 9964SOL     OW32270  10.367   5.496   1.542 -0.1752  0.0478 -0.1069
 9964SOL    HW132271  10.281   5.475   1.579 -0.2021 -0.6646 -0.5563
 9964SOL    HW232272  10.417   5.531   1.616 -0.8473  0.4715  0.1555
 9965SOL     OW32273   9.476   3.570   3.544  0.0392 -0.1705 -0.1543
 9965SOL    HW132274   9.426   3.494   3.515  1.1187  0.0306 -2.8021
 9965SOL    HW232275   9.450   3.582   3.635 -2.4731 -1.8391 -0.5403
 9966SOL     OW32276   2.868   6.342   6.359  0.2917 -0.1160  0.3027
 9966SOL    HW132277   2.958   6.340   6.392  0.2685 -1.7299  0.3224
 9966SOL    HW232278   2.820   6.396   6.422  1.3575  1.3321 -0.0690
 9967SOL     OW32279   3.412   6.048   4.926 -0.3287  0.1849 -0.0434
 9967SOL    HW132280   3.419   6.001   4.843 -0.6460 -1.0813  0.6204
 9967SOL    HW232281   3.429   5.981   4.993 -0.5211  1.0810  0.9273
 9968SOL     OW32282   8.726   6.152   9.314  0.4346  0.4951  0.4318
 9968SOL    HW132283   8.771   6.181   9.393 -1.7987 -0.6726  2.2320
 9968SOL    HW232284   8.633   6.163   9.334 -0.2487 -1.2952 -1.4453
 9969SOL     OW32285   8.432   6.540   5.354 -0.3233  0.0075  0.0201
 9969SOL    HW132286   8.497   6.470   5.348  0.2960  0.5472  0.3393
 9969SOL    HW232287   8.349   6.498   5.329 -0.6865 -1.7978  3.6453
 9970SOL     OW32288   1.315  10.082   2.768 -0.2707  0.4699  0.1418
 9970SOL    HW132289   1.273  10.130   2.839 -1.0139  0.6459 -0.4043
 9970SOL    HW232290   1.295   9.990   2.786  0.0460  0.4622  0.4734
 9971SOL     OW32291   0.033  10.280   8.922  0.2393 -0.1253  0.2151
 9971SOL    HW132292   0.053  10.352   8.863 -0.3572  0.0733  0.2480
 9971SOL    HW232293  -0.041  10.311   8.974 -0.8193 -1.2028 -0.5872
 9972SOL     OW32294   0.781   7.687   3.827  0.0243  0.0702 -0.0364
 9972SOL    HW132295   0.717   7.618   3.811 -0.4532  0.5497 -0.2327
 9972SOL    HW232296   0.742   7.765   3.787  1.0975  0.1967 -0.8491
 9973SOL     OW32297   6.645   5.058   1.989  0.0079 -0.7292 -0.0443
 9973SOL    HW132298   6.703   5.101   1.927 -1.9125 -0.7575 -1.9862
 9973SOL    HW232299   6.590   5.128   2.024  0.0448 -0.9444  0.4631
 9974SOL     OW32300   5.490   8.845   9.670 -0.3884 -0.2665 -0.2715
 9974SOL    HW132301   5.433   8.858   9.594  0.5255 -0.3624 -0.9973
 9974SOL    HW232302   5.446   8.891   9.741 -2.1960 -1.7366 -0.3877
 9975SOL     OW32303   6.839   3.283   3.269 -0.3551  0.3173 -0.1538
 9975SOL    HW132304   6.814   3.339   3.195 -0.3017 -0.6466 -0.9186
 9975SOL    HW232305   6.910   3.228   3.235 -0.5762 -0.3911  0.5021
 9976SOL     OW32306   5.348   6.172   1.323 -0.1447  0.0573  0.6229
 9976SOL    HW132307   5.305   6.092   1.352  1.5859 -0.9547  0.5042
 9976SOL    HW232308   5.438   6.146   1.304 -0.0054  1.6202 -1.2578
 9977SOL     OW32309   3.475   2.546   4.447  0.6262  0.2526 -0.0228
 9977SOL    HW132310   3.568   2.537   4.467  0.4909  1.3530  1.2299
 9977SOL    HW232311   3.471   2.620   4.386  0.5992  0.0750 -0.2341
 9978SOL     OW32312   7.382   6.865   9.322 -0.0296 -0.1560  0.5683
 9978SOL    HW132313   7.321   6.925   9.365  1.3425  0.8678  1.1720
 9978SOL    HW232314   7.331   6.785   9.309 -1.7923  0.9890  0.0865
 9979SOL     OW32315   2.557  10.419   8.988  0.1102  0.3901 -0.0830
 9979SOL    HW132316   2.505  10.482   8.938  1.3356  0.8090 -0.8730
 9979SOL    HW232317   2.613  10.473   9.044  1.2576  0.0295 -0.8523
 9980SOL     OW32318   9.057   3.020   0.086 -0.4007 -0.7798 -0.3732
 9980SOL    HW132319   8.992   3.057   0.026  0.3755  0.2608 -0.6055
 9980SOL    HW232320   9.061   3.083   0.158  1.8108  0.2971 -1.3377
 9981SOL     OW32321   9.437   0.818   3.432  0.6628  0.1267  0.2938
 9981SOL    HW132322   9.383   0.757   3.482  2.0678 -0.8458  0.6689
 9981SOL    HW232323   9.410   0.804   3.341 -0.5386  0.5195  0.5681
 9982SOL     OW32324   6.230   1.720   4.787  0.6034 -0.0970  0.0028
 9982SOL    HW132325   6.299   1.784   4.802  1.8505 -1.4014  0.1376
 9982SOL    HW232326   6.245   1.653   4.854 -0.4348 -0.7104 -0.3539
 9983SOL     OW32327   6.670   1.774   5.622 -0.0501 -0.0997 -0.6302
 9983SOL    HW132328   6.700   1.785   5.532 -0.3559 -0.1600 -0.7402
 9983SOL    HW232329   6.733   1.823   5.674 -0.4503  0.7901 -0.9655
 9984SOL     OW32330   0.235  10.171   5.207  0.0907  0.3808  0.8203
 9984SOL    HW132331   0.177  10.238   5.243  0.0681  0.0302  1.4430
 9984SOL    HW232332   0.305  10.221   5.164 -0.1669  0.8010  0.8784
 9985SOL     OW32333   9.521   4.892   6.400 -0.0236 -0.3126  0.2597
 9985SOL    HW132334   9.573   4.812   6.405  2.1233  0.8185 -1.7829
 9985SOL    HW232335   9.444   4.868   6.350  0.8728 -1.0285 -0.8290
 9986SOL     OW32336   5.360   0.941   7.328  0.3330  0.4511  0.4198
 9986SOL    HW132337   5.418   1.018   7.334  2.1999 -0.9778  2.5572
 9986SOL    HW232338   5.350   0.913   7.419  0.8726 -2.6441 -0.3821
 9987SOL     OW32339   5.512   4.979   1.136 -0.1520  0.9034 -0.0025
 9987SOL    HW132340   5.441   5.042   1.152 -0.0304  0.9129  0.5105
 9987SOL    HW232341   5.585   5.033   1.107 -0.3724  0.8856 -0.6269
 9988SOL     OW32342   3.148   2.060   0.717 -0.5997 -0.1720 -0.0953
 9988SOL    HW132343   3.189   2.095   0.796 -1.3788 -1.2715  0.8165
 9988SOL    HW232344   3.127   2.138   0.665  2.0833  0.4943 -0.3836
 9989SOL     OW32345   8.435   7.926   8.862  0.4246 -0.1119 -0.2082
 9989SOL    HW132346   8.371   7.902   8.796  0.0405 -0.9749  0.4611
 9989SOL    HW232347   8.520   7.906   8.822  0.1345 -2.3303  0.1854
 9990SOL     OW32348   5.048   3.848   2.532  0.0440 -0.2496 -0.3669
 9990SOL    HW132349   4.961   3.822   2.502 -0.7888  0.2541  1.4593
 9990SOL    HW232350   5.033   3.930   2.580  1.3411 -0.7385  0.9388
 9991SOL     OW32351   6.687  10.095   2.076  0.1733 -0.0898 -0.0098
 9991SOL    HW132352   6.643  10.057   2.153  2.3429  0.0505  1.3886
 9991SOL    HW232353   6.777  10.064   2.083  1.0069  1.9167 -1.1802
 9992SOL     OW32354   6.751   8.375   4.756  1.1977  0.3043  0.0207
 9992SOL    HW132355   6.761   8.318   4.680  0.3498 -0.2868  0.3345
 9992SOL    HW232356   6.656   8.382   4.768  1.3109  1.0835  0.5097
 9993SOL     OW32357   3.519   9.932   5.137 -0.5695  0.5050 -0.0768
 9993SOL    HW132358   3.517   9.978   5.053 -0.3295 -1.6458 -1.3184
 9993SOL    HW232359   3.435   9.954   5.178 -1.1776  0.7025 -1.3900
 9994SOL     OW32360   3.637   3.706   0.447  0.2026  0.8549  0.2082
 9994SOL    HW132361   3.715   3.749   0.413  0.7927 -0.3185  0.0205
 9994SOL    HW232362   3.664   3.671   0.532 -0.1449  0.5382  0.1900
 9995SOL     OW32363   2.902   3.320   4.648  0.1428 -0.4236 -0.6496
 9995SOL    HW132364   2.946   3.306   4.732 -1.5308  1.1295  0.5817
 9995SOL    HW232365   2.809   3.329   4.672 -0.6702 -1.9339 -2.9210
 9996SOL     OW32366   7.708   9.993   1.287  0.3047 -0.3806 -0.2981
 9996SOL    HW132367   7.679   9.946   1.209 -1.8655  0.2608  0.0341
 9996SOL    HW232368   7.772   9.935   1.328 -0.1600 -1.7176 -1.3929
 9997SOL     OW32369   4.565   9.511   1.277  0.6579  0.0868  0.1479
 9997SOL    HW132370   4.538   9.526   1.187 -0.7132 -1.4649  0.2457
 9997SOL    HW232371   4.499   9.556   1.330  0.7849  0.0038  0.3800
 9998SOL     OW32372   4.904   6.618   6.089 -0.8866  0.1429  0.1354
 9998SOL    HW132373   4.811   6.642   6.084 -0.6942  0.9725  0.3724
 9998SOL    HW232374   4.951   6.700   6.073 -0.1877 -0.3296 -0.2938
 9999SOL     OW32375   2.055  10.713   4.508 -0.4458 -0.0071 -0.3173
 9999SOL    HW132376   2.011  10.796   4.490 -2.0310 -0.2947  1.7888
 9999SOL    HW232377   1.993  10.665   4.564  0.0289 -3.0055 -2.1564
10000SOL     OW32378   0.419   9.747   1.400  0.1132 -0.2199  0.0795
10000SOL    HW132379   0.373   9.673   1.361 -1.3997  0.5169  0.4140
10000SOL    HW232380   0.470   9.785   1.328 -1.4927  0.2491 -0.8526
10001SOL     OW32381   5.312   9.367   3.829 -0.0108 -0.4487 -0.0024
10001SOL    HW132382   5.323   9.294   3.768 -1.2583  0.2249 -1.0504
10001SOL    HW232383   5.288   9.442   3.775  3.1876  1.3540  0.7787
10002SOL     OW32384   1.510   3.876   2.507 -0.0121 -0.0374  0.1373
10002SOL    HW132385   1.536   3.967   2.492  0.9748 -0.1888  0.7535
10002SOL    HW232386   1.592   3.826   2.499 -0.9427 -1.2804 -2.9460
10003SOL     OW32387   5.313   3.883   4.566  0.4954  0.1898  0.2214
10003SOL    HW132388   5.277   3.849   4.649 -3.2545  0.0662 -1.2335
10003SOL    HW232389   5.327   3.976   4.583 -1.1692  0.3776  0.8226
10004SOL     OW32390   8.472   3.587   5.856  0.6159  0.0031  0.3115
10004SOL    HW132391   8.439   3.521   5.917  0.8854  0.2162  0.6886
10004SOL    HW232392   8.435   3.561   5.771 -1.2501  0.7033  0.8439
10005SOL     OW32393   5.090   5.028   4.718  0.3303 -0.3647 -0.8185
10005SOL    HW132394   5.031   5.011   4.644 -0.8457  1.3168 -0.2990
10005SOL    HW232395   5.155   4.957   4.712 -0.1947 -0.7523 -2.9652
10006SOL     OW32396   0.160   7.689   0.926 -0.2085 -0.2284  0.4580
10006SOL    HW132397   0.224   7.618   0.927  0.5103  0.3657 -1.0762
10006SOL    HW232398   0.195   7.755   0.986  0.3411 -0.1461  0.0490
10007SOL     OW32399   3.984   4.498   0.925  0.0080  0.1581  0.7073
10007SOL    HW132400   4.029   4.427   0.971  1.8809 -0.3225 -1.6432
10007SOL    HW232401   3.909   4.456   0.883  1.5875 -0.7518 -1.3872
10008SOL     OW32402   8.250   1.496   4.842  0.3925  0.9481  0.2602
10008SOL    HW132403   8.325   1.483   4.785  0.3882  2.0876 -0.0274
10008SOL    HW232404   8.265   1.582   4.882 -0.6887  1.1351  0.2877
10009SOL     OW32405   1.350   9.932   7.671  0.0400 -0.4254  0.3725
10009SOL    HW132406   1.371   9.975   7.754  0.3929 -0.7944  0.4720
10009SOL    HW232407   1.291   9.861   7.695  0.2902 -0.6466  0.3256
10010SOL     OW32408   3.331   5.791   3.494 -0.1781  0.0003  0.1390
10010SOL    HW132409   3.357   5.802   3.585 -2.7030  1.0677  0.8232
10010SOL    HW232410   3.388   5.722   3.461  0.3577 -0.8947  2.7098
10011SOL     OW32411   2.192   1.850   2.038  0.0664  0.0004 -0.3316
10011SOL    HW132412   2.156   1.842   2.127 -0.2726  0.4225 -0.4249
10011SOL    HW232413   2.282   1.881   2.052  0.3924 -1.0253 -0.0978
10012SOL     OW32414   7.357   2.720   2.499  0.3533  0.2282  0.4458
10012SOL    HW132415   7.374   2.800   2.449  5.4921 -0.9118 -0.1872
10012SOL    HW232416   7.364   2.649   2.435 -1.4449 -0.9506  1.4606
10013SOL     OW32417   5.644   8.876   9.360 -0.6182 -0.0577  0.7241
10013SOL    HW132418   5.572   8.938   9.372  0.0802  0.6438  1.4559
10013SOL    HW232419   5.720   8.921   9.397  0.7503  0.2384 -2.1435
10014SOL     OW32420  10.335   1.717   5.440  0.0860  0.2953  0.4005
10014SOL    HW132421  10.332   1.780   5.512  0.9603 -0.0537  0.7574
10014SOL    HW232422  10.396   1.649   5.470 -0.0979 -0.2250 -0.3729
10015SOL     OW32423   1.606   0.311   0.196 -0.5255 -0.0426 -0.6415
10015SOL    HW132424   1.529   0.364   0.217 -0.7182 -0.8011  0.6924
10015SOL    HW232425   1.677   0.353   0.245 -0.5144 -0.5240 -0.2382
10016SOL     OW32426   1.199   7.920  10.712 -0.5437  0.5953 -0.2553
10016SOL    HW132427   1.229   7.832  10.689 -2.7542 -1.1485  2.7892
10016SOL    HW232428   1.279   7.973  10.716  0.9309 -1.4191 -1.4664
10017SOL     OW32429   9.376   4.916   5.581 -0.3722 -0.3982  0.2366
10017SOL    HW132430   9.363   4.859   5.657 -1.3792 -0.7600 -0.1974
10017SOL    HW232431   9.340   4.866   5.507  0.5245 -0.0174 -0.4688
10018SOL     OW32432   8.067   0.484   0.042 -0.0364 -0.0515  0.2618
10018SOL    HW132433   8.026   0.570   0.038 -0.5619 -0.2723  0.7796
10018SOL    HW232434   8.107   0.472  -0.044 -0.6802  0.3467 -0.0984
10019SOL     OW32435   0.288   9.788   3.900  0.2430 -0.5242  0.4402
10019SOL    HW132436   0.307   9.804   3.992  2.4520 -2.3117  0.3962
10019SOL    HW232437   0.359   9.731   3.870 -2.0962 -2.6750 -1.5470
10020SOL     OW32438   3.458   7.048   6.749  0.6239 -0.0355 -0.7594
10020SOL    HW132439   3.418   7.055   6.836  0.6596 -1.0744 -0.6427
10020SOL    HW232440   3.385   7.062   6.688  0.1398 -1.4255 -0.5474
10021SOL     OW32441  10.301   7.227   6.051 -0.3667  0.5392 -0.1181
10021SOL    HW132442  10.245   7.276   5.991 -1.2407 -0.9870 -0.5945
10021SOL    HW232443  10.386   7.270   6.044 -1.0652  1.9173 -0.5709
10022SOL     OW32444   6.172   1.802   1.869 -0.7218  0.4067 -0.2001
10022SOL    HW132445   6.130   1.867   1.925 -1.4808  0.5948 -0.9667
10022SOL    HW232446   6.243   1.850   1.826 -0.3175  0.3330  0.3751
10023SOL     OW32447   9.334   4.987   9.992 -0.1733 -0.4412  0.1802
10023SOL    HW132448   9.293   5.070   9.967  1.3748  1.5902  3.5334
10023SOL    HW232449   9.422   4.992   9.953  0.3822  0.2176  1.4411
10024SOL     OW32450   1.451   2.875   0.925  0.4979  0.0588  0.2149
10024SOL    HW132451   1.536   2.918   0.911  0.3532  0.2956  0.0716
10024SOL    HW232452   1.410   2.925   0.996 -0.3323  1.1292 -0.9803
10025SOL     OW32453  10.604   4.935   6.718  0.0098  0.3313  0.3003
10025SOL    HW132454  10.663   4.933   6.793 -2.2458 -1.1854  2.1682
10025SOL    HW232455  10.632   4.861   6.664 -0.2444 -0.4861  1.2610
10026SOL     OW32456   8.055   4.918   7.408 -0.7882 -0.2373  0.1153
10026SOL    HW132457   7.992   4.869   7.356 -2.7311 -0.1432  2.1875
10026SOL    HW232458   8.023   5.009   7.405 -1.6902 -0.4066  2.2886
10027SOL     OW32459   1.971  10.122   6.410  0.5215  0.2744 -0.1718
10027SOL    HW132460   1.970  10.028   6.392  1.8355  0.6275 -2.4099
10027SOL    HW232461   1.889  10.154   6.373  1.1076  0.3011 -1.5147
10028SOL     OW32462   1.876   8.645   5.019 -0.0788 -0.0989  0.1397
10028SOL    HW132463   1.881   8.741   5.023 -0.5608 -0.0928  2.2603
10028SOL    HW232464   1.787   8.627   4.991  0.3103  0.0313 -1.2672
10029SOL     OW32465   2.169   0.736   7.289  0.1278  0.0116 -0.2139
10029SOL    HW132466   2.188   0.655   7.241  1.4890  0.0903  0.1550
10029SOL    HW232467   2.154   0.801   7.221  0.8913 -0.1398 -0.5470
10030SOL     OW32468   5.293   7.335   9.346 -0.4021  0.2564 -0.7250
10030SOL    HW132469   5.285   7.292   9.431 -1.1663  2.1012  0.1869
10030SOL    HW232470   5.370   7.295   9.306  0.9994  0.5119  1.5505
10031SOL     OW32471   5.099  10.567   4.689 -0.0898 -0.3085  0.3011
10031SOL    HW132472   5.153  10.521   4.625 -0.5208 -0.2161 -0.1297
10031SOL    HW232473   5.129  10.534   4.774 -0.3643 -1.3540  0.0026
10032SOL     OW32474   8.496   3.553   7.699  0.0375 -0.8537 -0.0032
10032SOL    HW132475   8.491   3.458   7.692  0.3294 -0.9338  0.6813
10032SOL    HW232476   8.405   3.581   7.710 -0.0873 -1.0139 -0.6230
10033SOL     OW32477   9.796   3.510   3.462 -0.4419 -0.2943 -0.2372
10033SOL    HW132478   9.718   3.489   3.411 -0.0648 -0.3178 -0.8007
10033SOL    HW232479   9.787   3.604   3.482 -0.1779 -0.0961 -1.0457
10034SOL     OW32480   3.396   9.515   5.205 -0.0970  0.5451 -0.6156
10034SOL    HW132481   3.451   9.591   5.225 -0.2448  0.7259 -0.8980
10034SOL    HW232482   3.458   9.448   5.177 -0.1436  1.3437 -2.8449
10035SOL     OW32483   5.470   0.243   9.638 -0.1766  0.0433  0.4520
10035SOL    HW132484   5.552   0.203   9.667 -0.6425 -0.0323  1.7261
10035SOL    HW232485   5.451   0.311   9.703 -0.2447  1.2541 -0.7864
10036SOL     OW32486   2.079   5.180   1.205  0.0436  0.1180 -0.3023
10036SOL    HW132487   2.013   5.168   1.273 -1.3407  2.1407 -1.1911
10036SOL    HW232488   2.141   5.242   1.242 -1.4666  2.3237 -1.2745
10037SOL     OW32489   0.806   7.276   4.130 -0.6623  0.4518 -0.1441
10037SOL    HW132490   0.899   7.269   4.111 -0.8520  1.0638 -1.4188
10037SOL    HW232491   0.780   7.361   4.094 -1.2657  1.3199  2.2022
10038SOL     OW32492   4.898   8.056   9.120  0.4380 -0.4518 -0.3647
10038SOL    HW132493   4.862   8.134   9.078 -1.1282 -1.3550 -0.7814
10038SOL    HW232494   4.973   8.088   9.171 -1.4241  1.7119  1.2415
10039SOL     OW32495   5.141   4.854   9.098 -0.4750 -0.3182  0.2702
10039SOL    HW132496   5.108   4.937   9.063 -0.7111 -0.7463 -0.5298
10039SOL    HW232497   5.145   4.796   9.023 -0.7286 -1.1773  0.9051
10040SOL     OW32498   7.947   2.001   2.643 -0.3752 -0.2784 -0.2979
10040SOL    HW132499   8.025   1.957   2.607  0.2012  1.4465 -1.2505
10040SOL    HW232500   7.881   1.932   2.648  0.6459 -1.3713 -1.2456
10041SOL     OW32501  10.217   1.874  10.606  0.2884 -0.6106 -0.2144
10041SOL    HW132502  10.258   1.788  10.599  0.2246 -0.5344 -1.8645
10041SOL    HW232503  10.138   1.868  10.553  0.4513  0.5486 -0.6208
10042SOL     OW32504   0.765   8.053   6.521  0.3546 -0.1538 -0.0732
10042SOL    HW132505   0.794   8.105   6.596  1.6865 -1.9015  0.6901
10042SOL    HW232506   0.840   8.052   6.462 -0.8793  1.7082 -1.8036
10043SOL     OW32507   7.975   5.214   2.573  0.1056 -0.3872  0.1148
10043SOL    HW132508   7.926   5.132   2.558  3.2028 -2.1374 -1.4179
10043SOL    HW232509   7.997   5.244   2.485 -2.1927  3.0841  0.5472
10044SOL     OW32510   1.409   4.914   8.083  0.0809 -0.4349  0.0920
10044SOL    HW132511   1.369   4.897   7.998 -1.6108 -0.6625  0.8928
10044SOL    HW232512   1.502   4.902   8.069 -0.2285 -1.0866 -1.5808
10045SOL     OW32513   2.895   8.153   1.025  0.0003  0.7633  0.0758
10045SOL    HW132514   2.937   8.134   1.108 -1.4716  1.8442  1.1337
10045SOL    HW232515   2.957   8.209   0.978  1.1645 -0.4707  0.0697
10046SOL     OW32516   3.984  10.564   4.926 -0.4424 -0.4946  0.4313
10046SOL    HW132517   4.035  10.618   4.986 -1.5649  0.1133  0.8833
10046SOL    HW232518   3.961  10.624   4.855 -1.4395 -0.4349  0.7851
10047SOL     OW32519   3.075   2.597   8.203 -0.1326  0.2588  0.2367
10047SOL    HW132520   3.019   2.671   8.225  0.7867  0.5217  1.9174
10047SOL    HW232521   3.130   2.628   8.132 -2.0848 -0.0228 -1.4753
10048SOL     OW32522   5.610   3.210  10.662 -0.2899 -0.0067  0.2581
10048SOL    HW132523   5.664   3.191  10.585 -0.6536  0.8705 -0.2346
10048SOL    HW232524   5.671   3.249  10.725 -0.3863  1.2681 -0.4144
10049SOL     OW32525   2.446   4.168   0.986 -0.2682  0.0114  0.5392
10049SOL    HW132526   2.537   4.141   0.970 -0.5529 -0.4500 -0.3401
10049SOL    HW232527   2.430   4.236   0.920 -0.7872 -0.4175  0.2208
10050SOL     OW32528  10.180   1.370   5.764 -0.0465 -0.2368 -0.7082
10050SOL    HW132529  10.154   1.297   5.709  2.1077 -0.3197 -1.7373
10050SOL    HW232530  10.200   1.441   5.702  1.1351  0.1024  0.0196
10051SOL     OW32531   7.715   3.799   6.784 -0.4434  0.3173  0.4806
10051SOL    HW132532   7.697   3.736   6.714 -0.8624  2.0892 -1.1080
10051SOL    HW232533   7.630   3.842   6.799  0.3101  2.1641 -0.2501
10052SOL     OW32534   8.538   6.651   9.494 -0.5884 -0.1794 -0.1571
10052SOL    HW132535   8.579   6.732   9.465 -0.0227 -0.5125 -0.3105
10052SOL    HW232536   8.532   6.597   9.415 -0.7051 -0.3928 -0.0059
10053SOL     OW32537   8.996   7.415   4.956  0.1520  0.0100 -0.2509
10053SOL    HW132538   9.027   7.325   4.969  0.0446 -0.4308 -2.5447
10053SOL    HW232539   8.904   7.413   4.981  0.5283 -0.0924  1.2077
10054SOL     OW32540   0.692   1.429   5.554 -0.0861 -0.6028 -0.1979
10054SOL    HW132541   0.684   1.334   5.549 -1.2557 -0.5512  0.4371
10054SOL    HW232542   0.690   1.459   5.463 -0.2345 -1.1393 -0.3724
10055SOL     OW32543   7.746   0.808   4.972  0.0615 -0.4028  0.2279
10055SOL    HW132544   7.828   0.770   5.001  0.4282 -0.2788 -0.6221
10055SOL    HW232545   7.749   0.803   4.877  0.0126  1.4978  0.0908
10056SOL     OW32546   8.151   2.184   2.715  0.2769 -0.0708  0.3555
10056SOL    HW132547   8.211   2.197   2.642  0.4658 -0.0017  0.5225
10056SOL    HW232548   8.082   2.127   2.680 -0.8695  1.7925 -0.5460
10057SOL     OW32549   2.228   0.919   9.709  0.1540  0.0603 -0.2990
10057SOL    HW132550   2.204   0.969   9.631 -1.4515  1.3182  0.9268
10057SOL    HW232551   2.315   0.952   9.732 -0.6674  2.0115  0.2017
10058SOL     OW32552   0.176   6.160   2.649  0.1000  0.1892  0.0552
10058SOL    HW132553   0.203   6.086   2.705  0.6829  0.9364  0.7898
10058SOL    HW232554   0.083   6.143   2.631  0.0060 -0.2881  0.9112
10059SOL     OW32555   5.505   2.152   9.970 -0.1894  0.1006  0.1052
10059SOL    HW132556   5.413   2.162   9.992  0.0071  0.8824  0.6155
10059SOL    HW232557   5.506   2.139   9.875 -0.7643  1.0333 -0.0343
10060SOL     OW32558   9.781   5.672   6.769 -0.1197  0.1959  0.3214
10060SOL    HW132559   9.791   5.684   6.864 -0.7147  0.7632  0.3233
10060SOL    HW232560   9.853   5.721   6.731  2.2881 -2.8862  0.5407
10061SOL     OW32561   6.114   4.081   0.580 -0.1077  0.3091  0.2647
10061SOL    HW132562   6.103   4.148   0.513  2.2626  0.4552 -0.0849
10061SOL    HW232563   6.170   4.015   0.539 -0.9007 -1.0022  1.2052
10062SOL     OW32564   0.441   6.431   8.226  0.4370  0.5764 -0.3285
10062SOL    HW132565   0.386   6.358   8.197 -0.0561  0.8067  0.0185
10062SOL    HW232566   0.494   6.454   8.149 -0.3970  0.7663 -0.8500
10063SOL     OW32567   4.635   7.811   5.567 -0.4220  0.3401  0.2145
10063SOL    HW132568   4.700   7.749   5.533 -0.7576  0.5507 -0.8710
10063SOL    HW232569   4.632   7.794   5.661  0.1539 -0.6669  0.0681
10064SOL     OW32570   0.007   2.158   1.470  0.0173  0.5196 -0.2347
10064SOL    HW132571   0.069   2.205   1.414 -0.2366 -0.8712 -1.7573
10064SOL    HW232572  -0.079   2.183   1.435 -0.3212  1.9458  1.4657
10065SOL     OW32573   0.577   3.500   4.840  0.3406  0.1444  0.1394
10065SOL    HW132574   0.548   3.526   4.753 -1.3195  1.1587  0.9523
10065SOL    HW232575   0.648   3.439   4.824 -0.3056 -0.1338 -1.9295
10066SOL     OW32576   0.669   2.929   0.120 -0.2988 -0.5824 -0.1560
10066SOL    HW132577   0.671   2.944   0.215 -1.2110  3.5745 -0.6236
10066SOL    HW232578   0.577   2.918   0.099 -0.2569  0.1460 -0.7460
10067SOL     OW32579   8.373   5.680   4.104 -0.0158  0.0688  0.2291
10067SOL    HW132580   8.280   5.660   4.095 -0.4465  0.5098  2.7884
10067SOL    HW232581   8.380   5.772   4.077 -0.4346  0.1927  0.5273
10068SOL     OW32582   5.698   9.574   3.431 -0.6923 -0.4299 -0.1701
10068SOL    HW132583   5.650   9.640   3.380 -0.7366 -0.4728 -0.1847
10068SOL    HW232584   5.757   9.625   3.486  0.7085 -0.4433 -1.5952
10069SOL     OW32585   2.572   0.486  10.399 -0.2402 -0.2281  0.3193
10069SOL    HW132586   2.563   0.570  10.443 -0.5527 -1.0765  1.9470
10069SOL    HW232587   2.636   0.502  10.330 -0.9239  1.5376  0.0492
10070SOL     OW32588   9.842   0.928   1.698 -0.3132 -0.3037  0.1030
10070SOL    HW132589   9.914   0.939   1.760 -0.8786 -1.2941  0.9685
10070SOL    HW232590   9.885   0.918   1.613  0.6080 -1.3351  0.6615
10071SOL     OW32591   2.574   4.219   8.843  0.3564 -0.5622 -0.0155
10071SOL    HW132592   2.488   4.182   8.862  0.2332  0.2173  1.0292
10071SOL    HW232593   2.587   4.204   8.749 -1.8561  1.1660 -0.6905
10072SOL     OW32594   9.871   2.528   3.774 -0.5383  0.3355 -0.1807
10072SOL    HW132595   9.803   2.520   3.708  1.8613 -2.0420 -2.6160
10072SOL    HW232596   9.854   2.457   3.836 -1.5402  1.2104  0.5813
10073SOL     OW32597   8.826  10.604   1.717  0.8454  0.3830 -0.0749
10073SOL    HW132598   8.917  10.635   1.718  0.7545  0.6581  0.4792
10073SOL    HW232599   8.823  10.540   1.646  0.7444  2.5256 -2.1388
10074SOL     OW32600   8.839   9.858   1.198 -0.3715 -0.4479  0.5882
10074SOL    HW132601   8.751   9.893   1.180  0.1917  0.0891 -1.2862
10074SOL    HW232602   8.824   9.786   1.259 -1.9871  0.3934  1.2535
10075SOL     OW32603   3.013   3.039   6.650  0.5753  0.4402 -0.7215
10075SOL    HW132604   3.104   3.066   6.637  1.1929 -1.4754 -0.6295
10075SOL    HW232605   2.987   3.082   6.732  0.8433  2.2636 -1.5413
10076SOL     OW32606   7.536   2.158   6.271  0.0093  0.0578  0.4607
10076SOL    HW132607   7.614   2.144   6.325  0.1080 -1.4912 -0.0519
10076SOL    HW232608   7.569   2.165   6.182 -0.2115  2.0662  0.4774
10077SOL     OW32609   4.648   8.085   7.480  0.2564  0.3659  0.1480
10077SOL    HW132610   4.564   8.057   7.517 -0.5730  2.1385 -0.2864
10077SOL    HW232611   4.627   8.165   7.430  2.2411  0.9979  0.2401
10078SOL     OW32612   0.794   9.486   7.694 -0.3628  0.4087  0.0202
10078SOL    HW132613   0.714   9.457   7.737 -0.3126 -1.3232 -0.9649
10078SOL    HW232614   0.859   9.490   7.764 -1.2489  1.6875  0.7984
10079SOL     OW32615   4.910   5.433   4.652 -0.3049  0.0491 -0.0350
10079SOL    HW132616   4.885   5.474   4.735 -1.0172  1.4438 -0.9196
10079SOL    HW232617   4.872   5.488   4.584 -0.4318 -1.5102 -1.3083
10080SOL     OW32618   1.048   4.193   9.855  0.9523  0.2054 -0.4814
10080SOL    HW132619   1.031   4.101   9.874  1.4956 -0.1724 -1.6699
10080SOL    HW232620   1.025   4.239   9.935 -1.8408 -0.6531 -0.6996
10081SOL     OW32621   9.389   2.028   9.829 -0.1418  0.0275 -0.4633
10081SOL    HW132622   9.445   2.091   9.873 -0.4119 -0.3439  0.4393
10081SOL    HW232623   9.374   1.959   9.894  1.0146 -1.5356 -1.7578
10082SOL     OW32624   0.164   5.919  10.049  0.0836 -0.6664 -0.6169
10082SOL    HW132625   0.141   5.841   9.999  0.4990 -1.0833 -0.1737
10082SOL    HW232626   0.180   5.886  10.138  0.7699 -0.1596 -0.5413
10083SOL     OW32627   9.609  10.513   4.973  0.0369  0.1300  0.1786
10083SOL    HW132628   9.641  10.445   4.914 -1.0929  0.7504 -1.2234
10083SOL    HW232629   9.652  10.496   5.057 -0.1934 -2.2798 -0.1416
10084SOL     OW32630   6.799   8.072   3.216 -0.2662  0.0454  0.6743
10084SOL    HW132631   6.829   8.057   3.305  0.4664 -2.2044  0.1228
10084SOL    HW232632   6.878   8.068   3.163 -0.7349  0.9586 -0.1215
10085SOL     OW32633   8.810   8.296   3.198  0.2350 -0.3393 -0.5196
10085SOL    HW132634   8.718   8.322   3.187  0.6556  1.1083 -0.8685
10085SOL    HW232635   8.844   8.291   3.109  0.1527 -2.2856 -0.4643
10086SOL     OW32636  10.774   4.849   1.198 -0.4259 -0.0522  0.0930
10086SOL    HW132637  10.850   4.792   1.210 -0.4819 -0.2344 -0.3852
10086SOL    HW232638  10.808   4.923   1.147 -0.8118 -0.7154 -1.1899
10087SOL     OW32639   9.048   8.707   6.475  0.3929 -0.5058 -0.4599
10087SOL    HW132640   9.087   8.692   6.562 -0.1554 -1.5350 -0.3701
10087SOL    HW232641   8.998   8.627   6.458 -1.4773  0.6557 -0.6806
10088SOL     OW32642   2.855  10.369   3.437 -0.6317  0.5479  0.0535
10088SOL    HW132643   2.762  10.374   3.417 -0.4678  2.3983 -0.4028
10088SOL    HW232644   2.898  10.413   3.364  0.7267 -1.2346 -0.3139
10089SOL     OW32645   7.524   2.558   3.866  0.2998  0.0137 -0.1393
10089SOL    HW132646   7.591   2.564   3.797 -0.1500 -0.0780 -0.5891
10089SOL    HW232647   7.549   2.481   3.917  1.5462  0.9681  0.7869
10090SOL     OW32648   2.064   6.429   4.157 -0.2642 -0.2065  0.1668
10090SOL    HW132649   2.047   6.364   4.225 -0.6313 -2.0898 -1.6270
10090SOL    HW232650   2.156   6.419   4.137 -0.2407  0.0902  0.1269
10091SOL     OW32651   3.350   0.614   1.488 -0.3658 -0.0226 -0.2484
10091SOL    HW132652   3.291   0.665   1.433  1.5515  1.2234 -1.2640
10091SOL    HW232653   3.323   0.634   1.578 -0.3137  2.0259 -0.6579
10092SOL     OW32654   8.374   0.196   1.438  0.2365 -0.6342  0.0516
10092SOL    HW132655   8.335   0.157   1.516 -0.3166  0.3790  0.2994
10092SOL    HW232656   8.301   0.239   1.393  0.8186  0.1478 -0.1779
10093SOL     OW32657   9.884   2.170   0.257 -0.1653 -0.1445  0.1767
10093SOL    HW132658   9.818   2.174   0.327 -1.2179 -0.3723 -0.7686
10093SOL    HW232659   9.900   2.076   0.246  1.4116 -0.0513  1.3625
10094SOL     OW32660   9.143   0.743   2.895  0.0596  0.5200 -0.7945
10094SOL    HW132661   9.192   0.824   2.910  0.0018  0.0936  2.2825
10094SOL    HW232662   9.051   0.769   2.899  0.0355  0.3093  0.5725
10095SOL     OW32663   7.876  10.784   5.843 -0.0025  0.1475  0.2287
10095SOL    HW132664   7.821  10.802   5.919 -0.1008  0.1059  0.1673
10095SOL    HW232665   7.956  10.835   5.858  0.2446 -0.3628  0.6751
10096SOL     OW32666  10.311   3.554   4.285  0.1406  0.1719  0.6734
10096SOL    HW132667  10.317   3.506   4.367 -0.7837 -2.1191 -0.4946
10096SOL    HW232668  10.395   3.538   4.241 -0.5228 -1.3200 -0.1381
10097SOL     OW32669   6.632   7.793   1.769 -0.2506  0.2158  0.1760
10097SOL    HW132670   6.540   7.797   1.744 -0.2848  0.0514  0.2694
10097SOL    HW232671   6.679   7.797   1.686 -0.3877 -1.1016  0.0093
10098SOL     OW32672   6.402  10.146   2.675 -0.0538 -0.3224 -0.2230
10098SOL    HW132673   6.494  10.124   2.661  0.4134  2.4149 -2.3811
10098SOL    HW232674   6.354  10.067   2.649  1.6240 -1.0190 -1.3919
10099SOL     OW32675   8.470   4.502   1.447 -0.2081  0.0248  0.5610
10099SOL    HW132676   8.420   4.490   1.366  1.1154 -0.1706 -0.2609
10099SOL    HW232677   8.456   4.594   1.470 -1.0465 -0.0638  0.4217
10100SOL     OW32678   2.758   8.820   8.951 -0.3492 -0.0143  0.7496
10100SOL    HW132679   2.738   8.727   8.939  0.4624 -0.0647 -0.3743
10100SOL    HW232680   2.842   8.820   8.998  1.1600  0.0634 -1.7591
10101SOL     OW32681  10.126   7.022   1.572  0.7505 -0.0530 -0.1078
10101SOL    HW132682  10.131   7.116   1.588  0.2502 -0.2239  1.1980
10101SOL    HW232683  10.217   6.994   1.560  0.9662  0.4777  0.2755
10102SOL     OW32684   2.153   6.353   2.776 -0.1753 -0.2393 -0.2377
10102SOL    HW132685   2.221   6.312   2.723  0.3561 -0.8141  0.8479
10102SOL    HW232686   2.071   6.331   2.732  0.2531 -0.5419 -0.9065
10103SOL     OW32687   3.285   1.281   9.030  0.2236  0.7595  0.3683
10103SOL    HW132688   3.214   1.343   9.011 -0.4317  0.3777  1.4487
10103SOL    HW232689   3.280   1.217   8.959  0.2607  1.3828 -0.2100
10104SOL     OW32690   3.091   1.662   4.192  0.8214  0.5154 -0.1924
10104SOL    HW132691   3.160   1.652   4.258  1.6411  0.1103 -1.0768
10104SOL    HW232692   3.073   1.756   4.190  0.2591  0.4496  1.1133
10105SOL     OW32693   4.614   2.751   0.611 -0.2821  0.2378 -0.1052
10105SOL    HW132694   4.527   2.721   0.587 -0.8073  2.7837 -1.9022
10105SOL    HW232695   4.601   2.804   0.689 -0.6476  1.7170 -1.1246
10106SOL     OW32696   4.328   6.949   0.781 -0.1946  0.0861  0.3283
10106SOL    HW132697   4.288   6.960   0.867  0.8931 -0.3302  0.9046
10106SOL    HW232698   4.307   6.859   0.756  1.1204 -0.4494  1.0506
10107SOL     OW32699   3.048   3.838   7.420 -0.0892 -0.2325  0.4729
10107SOL    HW132700   3.055   3.745   7.441 -1.1119 -0.9124 -1.8186
10107SOL    HW232701   3.109   3.851   7.347 -1.4752  0.3430 -0.6476
10108SOL     OW32702   9.273   0.191  10.282  0.4467  0.0296  0.1135
10108SOL    HW132703   9.345   0.196  10.345 -0.5433 -1.3042  1.4368
10108SOL    HW232704   9.266   0.098  10.261  0.9449  0.4691 -2.2897
10109SOL     OW32705   8.931   3.726   8.430  0.6058 -0.0547  0.1449
10109SOL    HW132706   8.855   3.669   8.444  1.4485 -1.2550  0.0507
10109SOL    HW232707   8.953   3.714   8.338 -0.4574  2.0906 -0.4412
10110SOL     OW32708  10.553   4.861   1.345  0.1244 -0.1366  0.1695
10110SOL    HW132709  10.628   4.867   1.287 -0.4037  0.7368 -0.4387
10110SOL    HW232710  10.528   4.768   1.342 -0.8961  0.1387 -2.3336
10111SOL     OW32711   3.794   8.415   8.587  0.0127  0.0814 -0.3396
10111SOL    HW132712   3.762   8.451   8.505  0.5172 -0.7586 -0.9220
10111SOL    HW232713   3.716   8.378   8.629 -0.4910  1.6907  0.2178
10112SOL     OW32714   8.090   4.005   0.345 -0.3068  0.0575 -0.3361
10112SOL    HW132715   8.034   4.056   0.286 -1.2040 -0.4826  0.0298
10112SOL    HW232716   8.042   4.002   0.428 -0.2922 -1.4137 -0.3628
10113SOL     OW32717   2.187   7.796   3.608 -0.2059  0.1192  0.1386
10113SOL    HW132718   2.185   7.818   3.701 -1.2249  0.8566 -0.0334
10113SOL    HW232719   2.101   7.756   3.592 -0.2286  0.4459 -0.5783
10114SOL     OW32720   2.640   9.191   1.779 -0.2002 -0.2661  0.0320
10114SOL    HW132721   2.574   9.122   1.769 -1.5923  1.2593 -2.2178
10114SOL    HW232722   2.618   9.232   1.863 -1.6962 -0.2693 -0.3225
10115SOL     OW32723   9.991   9.312   8.141  0.1215  0.0435 -0.1845
10115SOL    HW132724  10.006   9.403   8.168  0.4521 -0.7130  2.5853
10115SOL    HW232725   9.916   9.316   8.082  1.2389  2.2637 -1.6063
10116SOL     OW32726   8.234   7.235   6.406 -0.3315  0.0138 -0.2860
10116SOL    HW132727   8.286   7.314   6.421  0.5965 -0.4942 -0.7977
10116SOL    HW232728   8.286   7.163   6.440 -0.3612 -0.5808 -1.4202
10117SOL     OW32729   6.911   5.564   7.206  0.4600  0.2725  0.1088
10117SOL    HW132730   7.001   5.593   7.220  0.4743  0.4818 -0.4101
10117SOL    HW232731   6.918   5.502   7.133  0.3660 -0.6913  0.8906
10118SOL     OW32732   8.555   6.853   4.029 -0.1975  0.2922 -0.1079
10118SOL    HW132733   8.481   6.900   4.066 -0.4936  0.5182 -0.9787
10118SOL    HW232734   8.517   6.775   3.989  0.0381  0.3783 -0.5097
10119SOL     OW32735   2.864   2.798   9.227 -0.5309 -0.1410 -0.4141
10119SOL    HW132736   2.850   2.867   9.163 -1.0728 -1.3657 -1.6619
10119SOL    HW232737   2.779   2.789   9.271 -1.0510 -1.2718 -1.5801
10120SOL     OW32738   8.805   6.846   9.901  0.2021  0.2232  0.3521
10120SOL    HW132739   8.841   6.824   9.815  0.8909  3.2763 -0.2288
10120SOL    HW232740   8.864   6.802   9.963  1.4482  0.3667 -0.6972
10121SOL     OW32741   7.994   9.506   8.373  0.1308 -0.1061  0.3467
10121SOL    HW132742   7.962   9.560   8.301  0.7888  0.4046  0.4259
10121SOL    HW232743   8.022   9.425   8.332 -1.9895 -0.9182  0.3668
10122SOL     OW32744   8.037   1.945   0.269 -0.6409  0.4286 -0.5667
10122SOL    HW132745   7.962   1.930   0.327  0.1619  1.1608  0.6980
10122SOL    HW232746   8.005   1.920   0.182 -1.3009 -2.5147  0.4047
10123SOL     OW32747   7.651   2.937   2.364  0.0479 -0.2669  0.6761
10123SOL    HW132748   7.616   3.017   2.324  0.0322  0.0372  1.2926
10123SOL    HW232749   7.746   2.944   2.352  0.0025 -0.4717  0.1571
10124SOL     OW32750   0.292   0.136   0.696  0.3376  0.2153  0.0838
10124SOL    HW132751   0.239   0.163   0.620  0.3713 -0.6698 -0.2687
10124SOL    HW232752   0.311   0.218   0.742  0.1316  0.7464 -0.7408
10125SOL     OW32753   1.836   6.251   9.212 -0.2121 -0.2067 -0.4215
10125SOL    HW132754   1.869   6.321   9.156  0.0149 -0.6952 -0.9078
10125SOL    HW232755   1.823   6.292   9.297 -1.4980  0.7914 -1.0694
10126SOL     OW32756   3.033   4.676   5.881 -0.3406  0.0392  0.5482
10126SOL    HW132757   2.985   4.754   5.855 -0.1276  0.1459  0.4740
10126SOL    HW232758   3.124   4.704   5.887 -0.1738 -0.3441 -0.0735
10127SOL     OW32759   5.903   8.247   7.286  0.1431  0.4148  0.2173
10127SOL    HW132760   5.919   8.311   7.218 -0.4237 -0.5936 -0.9164
10127SOL    HW232761   5.876   8.298   7.362  0.0330  1.5224 -0.5496
10128SOL     OW32762   3.188   0.487   3.871 -0.1107 -0.5343 -0.1853
10128SOL    HW132763   3.252   0.550   3.838  0.2491 -0.8905 -0.1777
10128SOL    HW232764   3.103   0.529   3.859  0.0849 -0.2989 -0.7341
10129SOL     OW32765   3.982   7.594   0.887 -0.4162 -0.5723 -0.0281
10129SOL    HW132766   4.042   7.662   0.918 -2.6554  0.9880  1.2154
10129SOL    HW232767   4.026   7.512   0.908  1.8495  0.4550 -0.4511
10130SOL     OW32768   0.002   9.090   4.166 -0.0435 -0.6010  0.0397
10130SOL    HW132769   0.066   9.160   4.154  0.8194 -1.4471 -0.4205
10130SOL    HW232770   0.016   9.059   4.255  0.6329 -1.2115 -0.2749
10131SOL     OW32771   6.416   1.096   6.747 -0.5563 -0.1472  0.0763
10131SOL    HW132772   6.471   1.019   6.755 -1.2753 -0.8082 -1.0389
10131SOL    HW232773   6.327   1.063   6.758 -0.9098  0.4089 -0.9487
10132SOL     OW32774   2.059   7.645   7.755 -0.5055 -0.0868  0.0271
10132SOL    HW132775   2.093   7.661   7.667  0.4017  0.3276  0.4371
10132SOL    HW232776   2.137   7.633   7.809 -1.0478 -0.3240  0.7829
10133SOL     OW32777   8.053   8.170   2.615 -0.2251 -0.6423 -0.4537
10133SOL    HW132778   8.009   8.150   2.532 -0.2801 -0.9911 -0.3425
10133SOL    HW232779   8.146   8.155   2.597 -0.2576 -0.9259 -0.3959
10134SOL     OW32780   3.139   2.507   7.796  0.0615 -0.3100  0.0426
10134SOL    HW132781   3.151   2.529   7.704 -1.6903 -1.7277 -0.5877
10134SOL    HW232782   3.098   2.420   7.795  1.6156 -1.1711  2.2191
10135SOL     OW32783   7.883   1.745  10.567  0.4502 -0.6496 -0.0476
10135SOL    HW132784   7.898   1.822  10.513 -0.3062 -0.8312 -0.5205
10135SOL    HW232785   7.789   1.743  10.582  0.5300 -1.1715  0.4267
10136SOL     OW32786   2.156   3.271   0.147  0.1019  0.4029  0.0196
10136SOL    HW132787   2.219   3.200   0.156 -0.4876 -0.1322 -0.0595
10136SOL    HW232788   2.190   3.325   0.076  1.2023  0.8902  0.8910
10137SOL     OW32789   3.141   8.581   0.305 -0.0511  0.0878  0.1963
10137SOL    HW132790   3.117   8.509   0.363 -1.7068  0.7055  0.3184
10137SOL    HW232791   3.212   8.625   0.352  0.5237 -1.0445  0.4301
10138SOL     OW32792   9.002   7.022   2.015 -0.3801  0.2092 -0.1864
10138SOL    HW132793   8.988   7.028   1.920  3.1855  1.6773 -0.8038
10138SOL    HW232794   8.960   7.101   2.050 -2.2864 -0.6705 -0.3787
10139SOL     OW32795  10.609   4.794   2.319 -0.1543 -0.2082 -0.1443
10139SOL    HW132796  10.516   4.792   2.338 -0.3534  0.0881 -1.0105
10139SOL    HW232797  10.617   4.754   2.232  0.5517 -0.4494  0.0197
10140SOL     OW32798   6.444   9.813   5.681 -0.1401  0.0610  0.5025
10140SOL    HW132799   6.514   9.750   5.698  0.3536  0.9377  1.8135
10140SOL    HW232800   6.425   9.851   5.766 -0.1863  1.9460 -0.3163
10141SOL     OW32801   9.692   7.836   4.311  0.0749  0.0386 -0.0934
10141SOL    HW132802   9.598   7.838   4.329  0.1265  4.6636  1.1929
10141SOL    HW232803   9.701   7.882   4.227  1.1951 -0.9732 -0.5542
10142SOL     OW32804   3.098   3.394   3.985 -0.2858 -0.4715 -0.3427
10142SOL    HW132805   3.173   3.335   3.975 -0.3975 -0.8351  0.8716
10142SOL    HW232806   3.037   3.346   4.042 -1.9402 -0.6433 -2.1486
10143SOL     OW32807   2.331   6.698   5.458  0.0658 -0.0341 -0.4346
10143SOL    HW132808   2.363   6.780   5.420 -0.7866  1.0942  1.1929
10143SOL    HW232809   2.261   6.670   5.399 -1.2008  1.6581  0.1831
10144SOL     OW32810   6.273   3.737  10.706 -0.3415  0.5240  0.2476
10144SOL    HW132811   6.340   3.803  10.686 -0.4948  1.1412  1.7054
10144SOL    HW232812   6.319   3.673  10.761 -0.1317 -0.7444 -1.3368
10145SOL     OW32813   8.035   7.262   0.041 -0.3271 -0.4500  0.1586
10145SOL    HW132814   7.977   7.251  -0.035 -0.8341 -0.5163  0.5540
10145SOL    HW232815   8.042   7.174   0.078 -1.6200 -0.0912  1.3104
10146SOL     OW32816   3.108  10.399   5.660  0.1620  0.4412  0.3386
10146SOL    HW132817   3.187  10.355   5.694 -0.2764 -0.1302  0.6407
10146SOL    HW232818   3.043  10.329   5.654 -0.0439  0.7160 -0.8418
10147SOL     OW32819   4.194   3.443  10.048 -0.0166  0.7616 -0.8858
10147SOL    HW132820   4.143   3.364  10.064 -0.8189  1.1600 -1.3849
10147SOL    HW232821   4.257   3.447  10.120  0.0596 -0.3451 -0.8795
10148SOL     OW32822   4.574   1.217  10.041  0.1514 -0.4811 -0.1488
10148SOL    HW132823   4.566   1.311  10.052  0.2349 -0.5930  1.0115
10148SOL    HW232824   4.490   1.190  10.005 -0.8395 -0.2494  1.8126
10149SOL     OW32825   5.727   3.620   9.978  0.1278 -0.3735 -0.2815
10149SOL    HW132826   5.770   3.554  10.032 -0.1243  0.2349  0.7038
10149SOL    HW232827   5.778   3.700   9.992 -1.1944  0.3290  0.8114
10150SOL     OW32828   9.198   3.339   1.169  0.0192 -0.2874  0.1890
10150SOL    HW132829   9.289   3.367   1.163  0.1128 -0.5690  0.2524
10150SOL    HW232830   9.180   3.298   1.084 -0.9751  2.4457 -1.0148
10151SOL     OW32831   2.297   0.512   0.643 -0.4913  0.4276  0.9709
10151SOL    HW132832   2.216   0.554   0.615 -0.6469  0.4718  1.4789
10151SOL    HW232833   2.338   0.575   0.702  0.6516  1.0345 -0.4096
10152SOL     OW32834   1.208   1.245   0.869  0.0881  0.6620 -0.2850
10152SOL    HW132835   1.131   1.250   0.926  0.1281 -0.9002 -0.0380
10152SOL    HW232836   1.199   1.319   0.809 -0.3068  1.9553  1.2971
10153SOL     OW32837   2.291   5.772  10.037 -0.1603 -0.2263 -0.1129
10153SOL    HW132838   2.287   5.677  10.035 -0.9771 -0.2229 -2.3897
10153SOL    HW232839   2.378   5.794  10.002  0.6626 -0.0908  1.8889
10154SOL     OW32840   4.359   2.253   3.729 -0.0079 -0.0609 -0.1428
10154SOL    HW132841   4.399   2.185   3.784 -1.1570 -0.5556  0.1057
10154SOL    HW232842   4.337   2.208   3.648 -0.2446  0.1560 -0.1994
10155SOL     OW32843   9.155   3.268   9.967 -0.3588  0.0783  0.3034
10155SOL    HW132844   9.065   3.251   9.939 -0.9911 -2.0373  3.1680
10155SOL    HW232845   9.190   3.182   9.991  1.8608  1.0633  0.9052
10156SOL     OW32846   7.229   0.666   4.271  0.5197  0.3636  0.0873
10156SOL    HW132847   7.257   0.578   4.246  0.7046  0.5996 -0.5491
10156SOL    HW232848   7.306   0.704   4.314 -0.4114 -0.7569  2.9645
10157SOL     OW32849   3.371   4.171   8.566  0.0005  0.6052 -0.0511
10157SOL    HW132850   3.327   4.135   8.489  1.1235  1.5330 -1.1677
10157SOL    HW232851   3.308   4.158   8.637 -0.5286 -1.5217 -0.8067
10158SOL     OW32852   8.794   5.431   4.653  0.1758 -0.3675  0.1853
10158SOL    HW132853   8.719   5.402   4.600  0.8463 -0.2610 -0.8540
10158SOL    HW232854   8.794   5.371   4.728  0.3013 -1.7543 -0.8743
10159SOL     OW32855  10.760   6.444   8.169  0.1006  0.5383  0.3052
10159SOL    HW132856  10.758   6.469   8.261 -0.5087  1.8533 -0.0365
10159SOL    HW232857  10.852   6.453   8.143  0.4346 -0.6695  0.9664
10160SOL     OW32858   9.150  10.577   9.846  0.3211 -0.5261  0.0666
10160SOL    HW132859   9.189  10.496   9.813  0.2929  0.9010 -4.1651
10160SOL    HW232860   9.062  10.578   9.808  0.4053  1.5187 -0.1801
10161SOL     OW32861   3.278   9.455   6.103 -0.3652  0.0257  0.0081
10161SOL    HW132862   3.259   9.446   6.009 -1.7592 -0.1469  0.2862
10161SOL    HW232863   3.318   9.372   6.128  0.2491  0.1693 -0.4804
10162SOL     OW32864   1.409   6.988   6.282 -0.2520  0.2224  0.2908
10162SOL    HW132865   1.354   6.910   6.283 -1.2473  0.8582 -1.2764
10162SOL    HW232866   1.398   7.024   6.194  0.3990  1.9791  0.8863
10163SOL     OW32867   6.092   1.445   8.088  0.9285 -0.1233  0.0748
10163SOL    HW132868   6.123   1.426   8.177  0.5398  0.6067  0.3712
10163SOL    HW232869   6.071   1.538   8.089 -0.8507 -0.4781 -0.2251
10164SOL     OW32870   1.442   2.998   0.586 -0.1078 -0.5771 -0.0666
10164SOL    HW132871   1.531   2.967   0.569 -0.9958 -2.2388 -2.1667
10164SOL    HW232872   1.398   2.994   0.501 -1.6486  2.2249  0.4651
10165SOL     OW32873   9.941   5.417   1.374  0.1252  0.2521  0.3350
10165SOL    HW132874   9.953   5.413   1.279 -1.2150 -0.9988  0.1843
10165SOL    HW232875   9.880   5.490   1.387  0.1105  0.2616  0.2172
10166SOL     OW32876   8.334   7.906   7.946 -0.1185 -0.0573  0.1195
10166SOL    HW132877   8.243   7.888   7.967  0.3130  0.6848  2.9971
10166SOL    HW232878   8.354   7.987   7.992  1.9326 -0.0505 -0.6720
10167SOL     OW32879   6.334   9.480   7.574  0.7265 -0.1058  0.5824
10167SOL    HW132880   6.271   9.428   7.623  1.1068 -1.2752 -0.1443
10167SOL    HW232881   6.346   9.433   7.492 -1.2645  2.7006 -1.5068
10168SOL     OW32882   0.062   3.437   4.124 -0.1599  0.6132  0.0503
10168SOL    HW132883   0.091   3.350   4.151  1.5501  1.0946 -0.1097
10168SOL    HW232884  -0.028   3.444   4.157  0.0107 -0.8380  0.9092
10169SOL     OW32885   0.997   6.571   0.613 -0.5207 -0.0695  0.6878
10169SOL    HW132886   1.022   6.620   0.535 -3.6163  0.1232 -0.3164
10169SOL    HW232887   0.969   6.638   0.675 -0.1236 -0.3415  1.1649
10170SOL     OW32888   0.120   1.955   3.113  0.7892  0.5571 -0.2991
10170SOL    HW132889   0.076   2.035   3.139  2.1371  1.1915  0.1081
10170SOL    HW232890   0.168   1.927   3.190  0.0258 -0.9011 -0.3006
10171SOL     OW32891   7.453   4.735   9.280  0.1904  0.0876 -0.0109
10171SOL    HW132892   7.508   4.772   9.350  0.9825 -0.9281 -0.0732
10171SOL    HW232893   7.506   4.744   9.201 -1.0189  1.9718 -0.6813
10172SOL     OW32894  10.126   6.073  10.676 -0.2926 -0.3248 -0.0205
10172SOL    HW132895  10.051   6.030  10.718  0.2961  0.8822  2.5068
10172SOL    HW232896  10.198   6.011  10.687 -0.2367 -0.1837  0.4690
10173SOL     OW32897   7.158   6.477   2.612 -0.5762 -0.1235  0.5146
10173SOL    HW132898   7.083   6.490   2.555 -0.5922 -0.2101  0.5152
10173SOL    HW232899   7.218   6.548   2.590 -0.4997 -0.2671  0.2513
10174SOL     OW32900   0.627   5.713   4.379  0.0616  0.1110  0.1209
10174SOL    HW132901   0.632   5.621   4.405  0.2386  0.0882  0.0115
10174SOL    HW232902   0.661   5.761   4.455 -1.0941  0.1639  0.6145
10175SOL     OW32903   9.625   4.937   5.062  0.5341 -0.4967 -0.6643
10175SOL    HW132904   9.617   4.901   5.150 -0.5978 -0.2718 -0.6594
10175SOL    HW232905   9.606   5.030   5.072 -4.4087 -1.1259 -1.7304
10176SOL     OW32906  10.626   1.579   1.734 -0.3932  0.0053  0.3227
10176SOL    HW132907  10.615   1.626   1.651 -2.4718 -0.4250  0.3061
10176SOL    HW232908  10.688   1.633   1.784 -0.2362  1.0380 -0.9354
10177SOL     OW32909   4.289   3.673   8.681 -0.3354 -0.3473 -0.1949
10177SOL    HW132910   4.365   3.692   8.627 -0.5392 -1.4677 -0.9057
10177SOL    HW232911   4.324   3.660   8.769 -0.0776  2.2395  0.1801
10178SOL     OW32912   4.125   3.700   2.230  0.4409  0.1770 -0.6930
10178SOL    HW132913   4.134   3.639   2.303  0.9246  0.9949 -0.0491
10178SOL    HW232914   4.200   3.759   2.239  0.9157 -0.1384 -2.2736
10179SOL     OW32915   4.616   7.160   8.339 -0.6415 -0.0645 -0.3023
10179SOL    HW132916   4.646   7.125   8.255 -1.4737 -1.6542  0.0344
10179SOL    HW232917   4.692   7.206   8.375  0.4283 -1.3496 -0.8608
10180SOL     OW32918   3.970   1.700   4.025 -0.0678 -0.2888  0.0646
10180SOL    HW132919   3.896   1.760   4.017  1.5867  1.7380 -1.3224
10180SOL    HW232920   4.047   1.757   4.026  1.5483 -2.3479  0.1271
10181SOL     OW32921   1.631   9.216   1.714 -0.4040  0.1451  0.2613
10181SOL    HW132922   1.619   9.208   1.619  0.6965  1.0080  0.0352
10181SOL    HW232923   1.623   9.310   1.732  0.9006  0.1654  0.7985
10182SOL     OW32924   3.991   5.433   3.039  0.0914  0.0587  0.4722
10182SOL    HW132925   3.969   5.343   3.059  1.5436 -1.0599 -2.3287
10182SOL    HW232926   4.086   5.437   3.048  0.1964  0.8903 -0.7012
10183SOL     OW32927   1.547   5.987   7.025  0.5071  0.6886 -0.3934
10183SOL    HW132928   1.504   5.964   6.942 -0.0626  2.7541 -0.7285
10183SOL    HW232929   1.488   5.955   7.092  0.6134 -0.3589 -0.7793
10184SOL     OW32930   0.870   6.534   7.118 -0.2438 -0.3252  0.4071
10184SOL    HW132931   0.965   6.532   7.127 -0.1699  0.3578 -0.0798
10184SOL    HW232932   0.837   6.490   7.196  0.4726 -0.4342  0.6527
10185SOL     OW32933   5.038  10.056   1.226 -0.1618  0.0213  0.1036
10185SOL    HW132934   4.966  10.098   1.273  0.2406  0.9703 -0.1026
10185SOL    HW232935   5.023  10.078   1.134  1.6805  2.3314  0.2672
10186SOL     OW32936   8.648   4.439   9.655 -0.3051 -0.6019 -0.6185
10186SOL    HW132937   8.606   4.353   9.660  1.0525 -1.2314  0.3110
10186SOL    HW232938   8.653   4.457   9.561  1.5222 -2.6329 -0.9781
10187SOL     OW32939   3.138   3.411   0.406  0.2725 -0.1246  0.0157
10187SOL    HW132940   3.232   3.400   0.417 -0.1392 -2.9972  1.5734
10187SOL    HW232941   3.116   3.355   0.330 -0.2513  0.0186  0.0567
10188SOL     OW32942   8.406   3.297  10.045  0.1849  0.3707 -0.1232
10188SOL    HW132943   8.403   3.331   9.955 -1.7604 -0.9393 -0.6240
10188SOL    HW232944   8.362   3.364  10.097  0.6666  0.8031 -0.2614
10189SOL     OW32945   4.133   5.486   3.761  0.4549  0.2176 -0.0965
10189SOL    HW132946   4.205   5.433   3.796  1.0942  1.4764  0.5712
10189SOL    HW232947   4.069   5.422   3.730  0.2584 -1.0072  2.5081
10190SOL     OW32948   2.198   6.009   3.355  0.3248 -0.4761 -0.1539
10190SOL    HW132949   2.256   6.077   3.388 -1.7126  1.0281  0.5945
10190SOL    HW232950   2.256   5.941   3.321  2.5122  0.1455  2.0314
10191SOL     OW32951   6.595   4.419   4.422  0.0088 -0.5091 -0.3874
10191SOL    HW132952   6.662   4.486   4.414  0.0461 -0.6910 -1.8995
10191SOL    HW232953   6.513   4.468   4.433  0.2205 -0.2619  0.1166
10192SOL     OW32954   3.579   4.539   7.719  0.0695  0.7164  0.7531
10192SOL    HW132955   3.664   4.541   7.675 -0.4137 -0.1730 -0.2593
10192SOL    HW232956   3.590   4.597   7.795  1.9531 -0.3189  1.3376
10193SOL     OW32957   7.288   4.797   0.659 -0.0834 -0.6904 -0.4886
10193SOL    HW132958   7.303   4.720   0.713  1.4203  0.0221  0.1727
10193SOL    HW232959   7.195   4.795   0.639 -0.6829 -1.0388  2.0329
10194SOL     OW32960   1.903   0.634   0.843  0.4442  0.1170 -0.8074
10194SOL    HW132961   1.875   0.645   0.934  0.4551  0.6300 -0.8639
10194SOL    HW232962   1.936   0.544   0.839 -0.7916 -0.3520 -0.6353
10195SOL     OW32963   6.036   8.581   3.401 -0.0051  0.1710 -0.0568
10195SOL    HW132964   6.050   8.637   3.477 -0.7385 -0.2773  0.4168
10195SOL    HW232965   5.957   8.616   3.360 -0.5236 -0.5766  0.2998
10196SOL     OW32966   1.853   3.464   1.030 -1.0384 -0.1747  0.2989
10196SOL    HW132967   1.836   3.464   1.124 -0.4330 -0.4164  0.4169
10196SOL    HW232968   1.924   3.528   1.018  0.0277 -1.3146  0.2481
10197SOL     OW32969   0.153   8.107   1.731  0.1022  0.1456 -0.7854
10197SOL    HW132970   0.199   8.172   1.783 -1.7238  0.5771  0.3853
10197SOL    HW232971   0.209   8.030   1.733 -0.6198 -0.4827  3.3861
10198SOL     OW32972  10.765  10.675   0.199 -0.8713 -0.3837 -0.1567
10198SOL    HW132973  10.684  10.663   0.149 -0.8647  0.4151 -0.3630
10198SOL    HW232974  10.736  10.686   0.289 -1.0714  0.8183 -0.3492
10199SOL     OW32975   0.364   9.050   2.735  0.2963 -0.1483 -0.2211
10199SOL    HW132976   0.361   9.079   2.644 -2.0708 -0.8261 -0.4508
10199SOL    HW232977   0.298   9.104   2.779  0.1544 -1.0115  0.6655
10200SOL     OW32978   2.246   4.830   3.216  0.3450  0.4409  0.0275
10200SOL    HW132979   2.308   4.879   3.162  0.1596 -0.9749 -1.5450
10200SOL    HW232980   2.160   4.858   3.185  0.2319 -1.0711 -1.1714
10201SOL     OW32981   8.238   9.308   1.352 -0.7960  0.2429 -0.0376
10201SOL    HW132982   8.282   9.322   1.268 -1.5011 -0.6184 -0.5623
10201SOL    HW232983   8.308   9.312   1.417 -0.3932  2.1044 -0.5207
10202SOL     OW32984   9.423   0.347   9.759 -0.4732  0.1642  0.6063
10202SOL    HW132985   9.443   0.274   9.817 -0.1961 -0.7350 -0.5674
10202SOL    HW232986   9.458   0.424   9.803  0.5754 -0.6207  1.1791
10203SOL     OW32987   1.604  10.278   8.611  0.1102  0.2903 -0.4080
10203SOL    HW132988   1.690  10.250   8.642 -0.2783 -0.4006  0.0877
10203SOL    HW232989   1.542  10.224   8.660 -0.6137  0.8648 -0.6643
10204SOL     OW32990   9.466   0.355   3.046  0.3649 -0.1784  0.1168
10204SOL    HW132991   9.403   0.427   3.050  0.2013 -0.3463  0.6113
10204SOL    HW232992   9.472   0.324   3.136  2.6632  1.1438  0.5014
10205SOL     OW32993   3.187   7.197   5.455  0.0164  0.0642  0.4922
10205SOL    HW132994   3.264   7.148   5.484  1.6872 -0.8033 -4.4232
10205SOL    HW232995   3.142   7.137   5.396 -1.8384  2.1648 -0.3457
10206SOL     OW32996   2.215   4.559   3.343  0.5169 -0.1157 -0.4353
10206SOL    HW132997   2.236   4.643   3.302 -0.0854  0.6309  0.7337
10206SOL    HW232998   2.293   4.537   3.394 -0.3418  1.1718  1.5189
10207SOL     OW32999   7.842   4.420   1.668 -0.5448  0.2531  0.3235
10207SOL    HW133000   7.754   4.434   1.633 -0.7560  0.8302  1.0816
10207SOL    HW233001   7.901   4.442   1.595 -0.9304  2.6717  0.6598
10208SOL     OW33002   3.607   4.029   0.275  0.0816  0.1509 -0.0661
10208SOL    HW133003   3.668   3.957   0.285 -0.8925 -0.6176  0.5029
10208SOL    HW233004   3.539   3.995   0.216  0.0916  0.9246 -0.5426
10209SOL     OW33005   7.025   5.062   1.535 -0.2217  0.2215  0.1039
10209SOL    HW133006   7.060   4.975   1.520  0.4108  0.4619  0.1848
10209SOL    HW233007   7.098   5.113   1.570 -0.2818  1.0932 -0.9882
10210SOL     OW33008   2.166   2.701   4.324 -0.3509  0.1154  0.0958
10210SOL    HW133009   2.162   2.702   4.229 -2.0997 -0.2262  0.1234
10210SOL    HW233010   2.256   2.726   4.345 -0.3639  1.7662 -1.5910
10211SOL     OW33011   8.532   2.076   2.602  0.1968 -0.3261  0.1309
10211SOL    HW133012   8.607   2.018   2.616 -0.3078 -0.6450  1.8602
10211SOL    HW233013   8.498   2.092   2.691  0.7107  3.1772 -0.1916
10212SOL     OW33014   5.544   9.466   7.665  0.1010 -0.1372  0.4501
10212SOL    HW133015   5.638   9.476   7.680 -0.0135  0.6523  0.6758
10212SOL    HW233016   5.531   9.500   7.576  0.0977 -0.6982  0.2312
10213SOL     OW33017   6.430   5.157   5.014 -0.6709 -0.0798  0.0970
10213SOL    HW133018   6.396   5.180   5.100  0.9360 -0.7631  0.9420
10213SOL    HW233019   6.495   5.225   4.994  1.4729 -1.7435  1.0096
10214SOL     OW33020   8.868   1.703   9.373 -0.4286  0.0788  0.5896
10214SOL    HW133021   8.945   1.659   9.409  1.1232  2.5147  0.5138
10214SOL    HW233022   8.864   1.673   9.282 -0.5783 -1.3206  1.0442
10215SOL     OW33023   8.663  10.448   7.622 -0.2606 -0.0414 -0.3776
10215SOL    HW133024   8.610  10.434   7.543 -0.8099 -0.7236  0.1049
10215SOL    HW233025   8.742  10.492   7.590 -1.0135  0.7958 -1.1441
10216SOL     OW33026   5.164   5.987  10.094 -0.0749  0.3575 -0.1084
10216SOL    HW133027   5.077   5.952  10.076 -0.5883  0.9476  1.1728
10216SOL    HW233028   5.149   6.067  10.145  1.1998  0.7087 -0.2335
10217SOL     OW33029   3.268   9.967   1.477  0.2713  0.2396 -0.7849
10217SOL    HW133030   3.291   9.920   1.397 -1.6365 -1.2420 -0.5425
10217SOL    HW233031   3.298   9.910   1.548 -0.5348  0.1691 -0.4856
10218SOL     OW33032   3.111   3.738   4.460 -0.1670 -0.2674  0.5084
10218SOL    HW133033   3.123   3.826   4.424 -0.4404  0.0314  1.1324
10218SOL    HW233034   3.182   3.686   4.422 -0.4624  0.0245 -0.4795
10219SOL     OW33035   8.620   8.809   4.885 -0.2117  0.5703 -0.0258
10219SOL    HW133036   8.630   8.902   4.864  1.0212  0.1446 -1.4653
10219SOL    HW233037   8.581   8.770   4.807  4.3094 -1.0249 -1.8117
10220SOL     OW33038   3.761   7.303   5.122 -0.1652 -0.4152 -0.0497
10220SOL    HW133039   3.691   7.251   5.160 -1.3738  0.3885 -1.0974
10220SOL    HW233040   3.837   7.245   5.122 -0.7121 -1.1779  1.4650
10221SOL     OW33041   6.961   1.449   9.916  0.3954  0.2516 -0.1116
10221SOL    HW133042   6.975   1.354   9.908 -1.2782 -0.0949  0.6956
10221SOL    HW233043   7.043   1.487   9.885  0.7800 -1.4327 -1.3485
10222SOL     OW33044   3.340   7.868   4.487 -0.3834  0.1402 -0.2688
10222SOL    HW133045   3.297   7.789   4.456 -1.0892 -0.1017  1.2193
10222SOL    HW233046   3.285   7.939   4.457 -1.3784 -0.1196  0.8761
10223SOL     OW33047   0.843   7.314   5.420 -0.6442 -0.0215 -0.1336
10223SOL    HW133048   0.871   7.374   5.351 -2.4107  1.4150  0.3180
10223SOL    HW233049   0.791   7.248   5.373 -1.5748  0.7718 -0.2445
10224SOL     OW33050   4.370   8.253   9.946  0.0155  0.1182 -0.0965
10224SOL    HW133051   4.431   8.274   9.875 -1.2748  1.3340 -0.8804
10224SOL    HW233052   4.356   8.158   9.938  1.9211 -0.2312  0.2257
10225SOL     OW33053   0.466   2.109   9.506 -0.1392  0.7881 -0.4014
10225SOL    HW133054   0.484   2.027   9.460  2.1284  1.8204 -1.5388
10225SOL    HW233055   0.482   2.089   9.598 -0.5879 -0.2570 -0.5294
10226SOL     OW33056   4.077   9.857   6.410  0.1695  0.2552 -0.5242
10226SOL    HW133057   4.104   9.939   6.452  0.4754  0.3804 -0.9560
10226SOL    HW233058   4.146   9.839   6.346 -1.1352  1.0141 -2.2268
10227SOL     OW33059   2.491   4.788   1.979  0.4776 -0.0146  0.4044
10227SOL    HW133060   2.402   4.806   2.009 -0.5144 -0.8210 -1.8588
10227SOL    HW233061   2.536   4.754   2.056 -1.2165  0.2336  1.5524
10228SOL     OW33062   7.533   3.494   3.722 -0.3964 -0.1747 -0.2937
10228SOL    HW133063   7.531   3.427   3.791  0.2391 -1.5029 -1.5172
10228SOL    HW233064   7.443   3.526   3.717 -0.0814  1.4611  2.5364
10229SOL     OW33065   7.679   6.014   7.974  0.0963 -0.3870  0.8104
10229SOL    HW133066   7.743   6.025   7.903 -0.1960  0.2636  0.6338
10229SOL    HW233067   7.731   6.019   8.054  0.4230 -1.0628  0.6455
10230SOL     OW33068   6.710   3.596  10.121  0.5514  0.3547  0.0276
10230SOL    HW133069   6.698   3.690  10.135  0.5300  0.4422 -0.5332
10230SOL    HW233070   6.803   3.581  10.141  0.6065  0.5382 -0.0849
10231SOL     OW33071   1.481   2.235   0.521 -0.2549 -0.4139 -0.7306
10231SOL    HW133072   1.422   2.304   0.492  0.6322  0.7941  0.2648
10231SOL    HW233073   1.526   2.207   0.441 -0.9180 -0.1387 -1.2085
10232SOL     OW33074   6.598   4.454   0.695 -0.1393 -0.0321 -0.0994
10232SOL    HW133075   6.677   4.460   0.750 -0.5231  0.2633  0.4256
10232SOL    HW233076   6.526   4.476   0.753 -0.5270  0.6245 -0.8101
10233SOL     OW33077   0.191   9.241   2.886 -0.5026 -0.1143 -0.5833
10233SOL    HW133078   0.111   9.260   2.837 -1.6011  0.6720  1.4166
10233SOL    HW233079   0.261   9.277   2.832 -1.4833 -0.6264 -2.2846
10234SOL     OW33080   9.162   9.089   0.106 -0.3296  0.1686  0.1321
10234SOL    HW133081   9.218   9.153   0.061  0.2398  0.4274  1.1721
10234SOL    HW233082   9.086   9.079   0.049  0.9316 -0.4972 -1.5515
10235SOL     OW33083   0.630   2.365   0.681 -0.2250  0.5221 -0.0614
10235SOL    HW133084   0.691   2.407   0.621 -1.0316  0.8455 -0.6638
10235SOL    HW233085   0.545   2.404   0.662 -0.8656 -0.8462 -0.1389
10236SOL     OW33086   8.251   1.432   9.144  0.2338 -0.1727  0.1012
10236SOL    HW133087   8.248   1.339   9.167  1.4113 -0.1599  0.3419
10236SOL    HW233088   8.282   1.476   9.223  0.8538  0.2841 -0.3842
10237SOL     OW33089   6.366  10.115   2.977  0.1048 -0.9597 -0.2733
10237SOL    HW133090   6.411  10.127   2.893 -0.3141 -0.4631 -0.4365
10237SOL    HW233091   6.409  10.177   3.036 -1.2895  0.5707 -0.8081
10238SOL     OW33092   2.733   6.467   1.951  0.0097  0.1622  0.5138
10238SOL    HW133093   2.710   6.380   1.984 -0.3210  0.1123  0.1606
10238SOL    HW233094   2.658   6.494   1.898  1.0549 -0.3600 -1.3537
10239SOL     OW33095   8.090   2.961   8.685  0.1263  0.5976  0.5774
10239SOL    HW133096   8.106   2.942   8.592 -0.5579 -0.4612  0.6456
10239SOL    HW233097   8.165   3.012   8.713  0.7780  0.1745 -0.3475
10240SOL     OW33098   1.190   7.416  10.726 -0.5819  0.0927  0.4189
10240SOL    HW133099   1.097   7.415  10.703 -0.5819 -0.1244  0.4269
10240SOL    HW233100   1.202   7.498  10.774 -0.8017  0.0494  0.5482
10241SOL     OW33101   8.338   4.686   5.871  0.0168  0.7357 -0.1318
10241SOL    HW133102   8.257   4.667   5.917  0.2029 -1.7772 -0.6874
10241SOL    HW233103   8.310   4.712   5.783 -0.2256  1.7178  0.2312
10242SOL     OW33104   8.947   6.603   8.697  0.7796  0.2532 -0.3591
10242SOL    HW133105   8.977   6.691   8.720  0.0322  0.2727  0.6007
10242SOL    HW233106   9.023   6.562   8.656  1.5884  0.8549  0.4949
10243SOL     OW33107   9.877   4.491  10.493 -0.5327 -0.4096  0.0305
10243SOL    HW133108   9.896   4.579  10.525 -2.8140  0.7791 -1.6205
10243SOL    HW233109   9.803   4.502  10.434  0.0943 -3.2462 -1.4601
10244SOL     OW33110   1.270   3.897   8.060 -0.8303 -0.1997  0.4863
10244SOL    HW133111   1.241   3.836   8.127 -1.3124  0.6967  1.1111
10244SOL    HW233112   1.365   3.898   8.067 -0.8074 -1.0176  0.3358
10245SOL     OW33113   2.305   4.363   8.087 -0.6920  0.6864 -0.2871
10245SOL    HW133114   2.237   4.403   8.141  1.7006  1.9053  2.0368
10245SOL    HW233115   2.343   4.436   8.037  1.4141  0.8393  1.3967
10246SOL     OW33116  10.234   3.926   8.284 -0.3111  0.2853 -0.1164
10246SOL    HW133117  10.292   3.868   8.334  0.6130  0.3976 -1.0292
10246SOL    HW233118  10.169   3.956   8.348  0.0720 -0.5907  0.7066
10247SOL     OW33119   2.392   3.059   2.441  0.6636  0.1056  0.2666
10247SOL    HW133120   2.297   3.063   2.446  0.4016 -3.5797  1.0598
10247SOL    HW233121   2.421   3.149   2.459 -2.6122  1.4231 -0.3990
10248SOL     OW33122   0.232   7.238   7.272  0.3674 -0.2959  0.4908
10248SOL    HW133123   0.279   7.283   7.202 -0.6020  0.0721  0.0508
10248SOL    HW233124   0.232   7.300   7.345  0.5025 -0.2735  0.4714
10249SOL     OW33125   6.228   5.503   7.893  0.1510 -0.9759  0.0025
10249SOL    HW133126   6.264   5.416   7.873  0.1384 -0.9475 -0.1392
10249SOL    HW233127   6.163   5.486   7.961  1.2713 -0.8878  1.1418
10250SOL     OW33128   3.753   4.620   9.178  0.4639 -0.2671 -0.7049
10250SOL    HW133129   3.761   4.524   9.181 -0.7268 -0.3753 -0.3348
10250SOL    HW233130   3.755   4.647   9.270 -0.6797 -0.0893 -0.7216
10251SOL     OW33131   1.183  10.146   0.534  0.1008  0.1190  0.2174
10251SOL    HW133132   1.158  10.224   0.584  2.0685  1.1137 -0.2305
10251SOL    HW233133   1.243  10.099   0.592  0.1581 -0.2191 -0.1154
10252SOL     OW33134   4.462   0.244   2.441 -0.0356 -0.1540  0.6553
10252SOL    HW133135   4.442   0.257   2.533  0.5039 -0.7305  0.8643
10252SOL    HW233136   4.392   0.188   2.408 -0.3312  0.2082  0.6669
10253SOL     OW33137  10.300   9.174  10.120  0.4414  0.2616  0.4001
10253SOL    HW133138  10.347   9.255  10.140 -0.0387  0.0360  2.6374
10253SOL    HW233139  10.209   9.201  10.113  0.5128  0.2256 -1.0761
10254SOL     OW33140  10.300   7.124   3.532 -0.2939 -0.6330  0.6814
10254SOL    HW133141  10.261   7.040   3.507 -0.2239 -0.4679 -0.0010
10254SOL    HW233142  10.277   7.134   3.625  0.0520 -1.5925  0.8786
10255SOL     OW33143  10.601  10.482   4.159 -0.7085  0.0832  0.2042
10255SOL    HW133144  10.591  10.453   4.249  1.6937  3.1282  1.6316
10255SOL    HW233145  10.513  10.508   4.132 -1.4135 -0.5269  1.8173
10256SOL     OW33146   8.531   0.619   6.366  0.0643 -0.2518  0.6519
10256SOL    HW133147   8.480   0.617   6.286 -1.7182  0.4869  1.7191
10256SOL    HW233148   8.580   0.701   6.362 -0.4579  0.0576  0.5758
10257SOL     OW33149  10.503  10.024   5.280 -0.5883  0.7199 -0.4708
10257SOL    HW133150  10.418   9.979   5.282 -0.3238  0.2438  0.2844
10257SOL    HW233151  10.561   9.967   5.330  0.0599  1.2882 -0.5749
10258SOL     OW33152   0.243   4.647   6.041 -0.0345  0.6894 -0.0526
10258SOL    HW133153   0.156   4.634   6.080  0.5088  0.5931  1.1877
10258SOL    HW233154   0.236   4.609   5.954 -1.0849  0.1871  0.2331
10259SOL     OW33155  10.496   3.032   6.938 -0.1431 -0.3174  0.0987
10259SOL    HW133156  10.477   3.037   7.032  0.7287 -0.1867  0.2802
10259SOL    HW233157  10.590   3.050   6.932 -0.4519  1.1053 -0.9370
10260SOL     OW33158   1.903   3.337   1.484 -0.6959  0.2667 -0.4246
10260SOL    HW133159   1.853   3.256   1.489  0.3104 -0.3725 -0.4605
10260SOL    HW233160   1.856   3.398   1.541 -0.1892 -1.0442  1.4916
10261SOL     OW33161   1.228   7.584   0.240  0.0008  0.1255 -0.7438
10261SOL    HW133162   1.149   7.596   0.294 -0.6981 -1.4090 -1.3611
10261SOL    HW233163   1.208   7.631   0.160  0.1837  0.6843 -0.4634
10262SOL     OW33164   8.010   0.450   1.015  0.5665  0.3180 -0.2510
10262SOL    HW133165   8.088   0.456   1.070 -0.7560  0.5318  1.7240
10262SOL    HW233166   8.043   0.457   0.925  2.9056 -0.6804  0.4466
10263SOL     OW33167   7.753   3.311   8.992  0.1980 -0.3488  0.4478
10263SOL    HW133168   7.661   3.283   8.994 -0.9714  2.6058 -2.2059
10263SOL    HW233169   7.753   3.397   9.033  1.4652  0.2730 -0.7478
10264SOL     OW33170  10.365   3.951   0.285  0.1861 -0.8658  0.1465
10264SOL    HW133171  10.414   3.955   0.367 -1.8192  0.4598  1.3926
10264SOL    HW233172  10.306   3.876   0.296 -0.8263 -0.0586  0.4294
10265SOL     OW33173   1.383   9.522   4.942 -0.3614  0.0820 -0.0568
10265SOL    HW133174   1.402   9.431   4.968  2.8657  0.7688  0.3997
10265SOL    HW233175   1.361   9.566   5.024 -1.1056 -0.0853 -0.1599
10266SOL     OW33176   6.594   6.267   0.795 -0.5712 -0.1094  0.1943
10266SOL    HW133177   6.686   6.293   0.799 -0.2295 -1.0999 -0.7374
10266SOL    HW233178   6.594   6.174   0.816 -1.6511  0.3189  2.4823
10267SOL     OW33179   6.544   9.478   5.448  0.2694  0.5053 -0.1880
10267SOL    HW133180   6.459   9.440   5.426 -0.7878  2.4266  0.3653
10267SOL    HW233181   6.568   9.528   5.370  0.7923  0.1550 -0.2554
10268SOL     OW33182   1.590   6.056   2.443  0.3545 -0.1349  0.1229
10268SOL    HW133183   1.617   6.119   2.510  0.4541  0.7108 -0.7047
10268SOL    HW233184   1.502   6.029   2.470  1.6405 -2.4500  2.4977
10269SOL     OW33185   5.632   4.007   6.137  0.3472 -0.1776 -0.2036
10269SOL    HW133186   5.607   3.951   6.211 -0.5946 -1.1474 -1.2074
10269SOL    HW233187   5.691   3.953   6.084 -0.0903 -0.0235 -0.8676
10270SOL     OW33188   9.528   8.474   8.940 -0.1237  0.2007  0.1157
10270SOL    HW133189   9.556   8.383   8.929 -1.0565 -0.3284  1.7524
10270SOL    HW233190   9.441   8.468   8.980 -0.1871  1.8165  0.2931
10271SOL     OW33191   9.256   8.652   7.065 -0.1306 -0.0013 -0.6895
10271SOL    HW133192   9.199   8.714   7.111  1.4918  1.2142 -0.1838
10271SOL    HW233193   9.245   8.569   7.112 -1.3539  0.2476 -0.5241
10272SOL     OW33194   2.623   8.331   7.513 -0.3837  0.0465  0.8414
10272SOL    HW133195   2.574   8.330   7.431  0.8614 -0.4152  0.0757
10272SOL    HW233196   2.640   8.424   7.530  0.4226  0.0824 -0.1002
10273SOL     OW33197   0.341   7.735   2.479  0.0397  0.1122  0.2474
10273SOL    HW133198   0.413   7.790   2.450  0.4091  1.3678  3.1950
10273SOL    HW233199   0.336   7.665   2.413  1.1840  2.2367 -2.2713
10274SOL     OW33200   0.450   5.981   5.354  0.3183 -0.2885  0.5635
10274SOL    HW133201   0.375   5.982   5.413 -1.2156 -1.1556 -1.2966
10274SOL    HW233202   0.479   6.073   5.352 -1.0686  0.1838  0.8424
10275SOL     OW33203   8.435   6.864   5.087  0.3603 -0.4469  0.4426
10275SOL    HW133204   8.394   6.785   5.051 -0.1520  1.0148 -2.4924
10275SOL    HW233205   8.529   6.845   5.086  0.1710 -1.5818  1.3921
10276SOL     OW33206   8.677   9.501   8.706  0.2964 -0.1308  0.1221
10276SOL    HW133207   8.755   9.532   8.752  0.4010 -0.2640  0.0359
10276SOL    HW233208   8.699   9.411   8.680  0.7487  0.3769 -1.3451
10277SOL     OW33209   6.062   4.288   7.515 -0.2292 -0.1530 -0.2005
10277SOL    HW133210   6.082   4.254   7.602 -0.8774  1.7218  0.7168
10277SOL    HW233211   6.050   4.382   7.527 -0.0500  0.2101 -2.3711
10278SOL     OW33212   5.217   8.157   8.120 -0.0333 -0.4939  0.6933
10278SOL    HW133213   5.299   8.194   8.086 -0.6841 -0.2264 -0.6426
10278SOL    HW233214   5.245   8.101   8.192  1.0891  1.6449  2.0134
10279SOL     OW33215   3.981   7.570   3.171 -0.2515  0.3465  0.1468
10279SOL    HW133216   4.058   7.527   3.208  0.5472 -0.0780 -1.9233
10279SOL    HW233217   4.006   7.662   3.165 -0.5693  0.5060  1.0567
10280SOL     OW33218   3.332   0.357   5.233 -0.1629 -0.5920 -0.1381
10280SOL    HW133219   3.399   0.290   5.247  0.8605  0.5663  0.6916
10280SOL    HW233220   3.310   0.349   5.141 -1.0538 -2.9437  0.1919
10281SOL     OW33221   3.673   2.208   1.754 -0.4061  0.0268  0.4635
10281SOL    HW133222   3.763   2.203   1.784  0.0610  0.7983 -0.7089
10281SOL    HW233223   3.659   2.301   1.735 -0.6642 -0.3647 -1.5508
10282SOL     OW33224   7.389  10.138   8.163  0.2395  0.1785  0.0558
10282SOL    HW133225   7.422  10.197   8.095  2.5596 -0.2818  0.6941
10282SOL    HW233226   7.456  10.070   8.170 -0.8847 -0.8309  1.4710
10283SOL     OW33227   2.939   9.376   9.913  0.1478 -0.2940  0.0893
10283SOL    HW133228   3.015   9.383   9.971 -0.3252 -1.1983  0.8427
10283SOL    HW233229   2.910   9.467   9.900  1.8667  0.1693 -0.9564
10284SOL     OW33230   0.237   6.807   4.271  0.1680  0.7224  0.5251
10284SOL    HW133231   0.310   6.869   4.261 -0.4465  1.4195  0.2418
10284SOL    HW233232   0.277   6.729   4.310  0.5995  2.0845  3.0443
10285SOL     OW33233   5.136   6.682   5.359  0.1260  0.3683  0.0086
10285SOL    HW133234   5.193   6.759   5.366  0.7956 -0.2671  4.6501
10285SOL    HW233235   5.196   6.609   5.342 -0.1769  0.4546 -1.5676
10286SOL     OW33236   4.668   2.850   3.248  0.4092 -0.0033  0.0209
10286SOL    HW133237   4.669   2.807   3.334  2.1892 -0.0830  0.0094
10286SOL    HW233238   4.607   2.799   3.196 -1.1543  0.3821  1.3864
10287SOL     OW33239   9.673   9.101   8.326 -0.0620  0.1609  0.6265
10287SOL    HW133240   9.637   9.027   8.278 -0.6321  0.8348 -0.0014
10287SOL    HW233241   9.662   9.077   8.418 -0.4680 -0.4205  0.4333
10288SOL     OW33242  10.051   6.841  10.007 -0.8940  0.0549 -0.4261
10288SOL    HW133243  10.109   6.913  10.032  0.6642 -1.0113 -0.8238
10288SOL    HW233244   9.963   6.873  10.027 -0.1388  1.4496  0.9005
10289SOL     OW33245   9.360   2.597   7.200 -0.1522  0.4773 -0.4246
10289SOL    HW133246   9.445   2.559   7.221 -1.3355 -1.6003  0.9702
10289SOL    HW233247   9.313   2.528   7.154 -1.3708  1.2976 -0.4809
10290SOL     OW33248   3.562   3.638   7.075 -0.0859  0.4832 -0.4256
10290SOL    HW133249   3.472   3.609   7.085 -0.9953  3.0303 -0.5466
10290SOL    HW233250   3.584   3.680   7.158  2.4654 -3.4260  1.1446
10291SOL     OW33251   3.753   9.669   4.951 -0.0568  0.2066  0.1848
10291SOL    HW133252   3.677   9.712   4.913  0.4924  0.0722 -1.1453
10291SOL    HW233253   3.825   9.732   4.941  0.3100 -0.2156  0.0994
10292SOL     OW33254  10.518   4.912   5.265  0.3120  0.6387  0.1654
10292SOL    HW133255  10.441   4.860   5.242  0.6012  0.1098  0.3607
10292SOL    HW233256  10.534   4.891   5.357  0.9743  0.3570 -0.0058
10293SOL     OW33257  10.766   1.330   1.990  0.2895  0.5977 -0.0115
10293SOL    HW133258  10.707   1.304   2.060  1.4349 -1.9561  0.1113
10293SOL    HW233259  10.830   1.387   2.033  0.3249 -0.0357  0.7981
10294SOL     OW33260   0.982   2.034   6.051  0.1245  0.0447 -0.0479
10294SOL    HW133261   1.057   2.074   6.095  1.3838 -0.3293 -1.7321
10294SOL    HW233262   0.975   2.082   5.968 -1.8774  0.4338  0.2972
10295SOL     OW33263   2.862   1.502   2.787 -0.4173  0.4633  0.1457
10295SOL    HW133264   2.928   1.446   2.829 -1.1486  0.2386  1.0517
10295SOL    HW233265   2.822   1.447   2.720 -1.1865 -0.1557  1.0864
10296SOL     OW33266   9.405  10.488   5.149 -0.1799 -0.6454  0.3878
10296SOL    HW133267   9.337  10.440   5.101 -0.5860 -0.5929  0.8929
10296SOL    HW233268   9.477  10.497   5.087 -0.8746 -0.1520 -0.3685
10297SOL     OW33269  10.788   7.150   7.996 -0.1342  0.5024  0.2089
10297SOL    HW133270  10.868   7.188   8.033  0.2228  1.3718 -1.3417
10297SOL    HW233271  10.717   7.195   8.041  0.2113 -0.3709  1.6998
10298SOL     OW33272   1.467   6.856   4.917  0.1921  0.0999 -0.0333
10298SOL    HW133273   1.448   6.816   5.002 -0.6148  0.7275  0.0909
10298SOL    HW233274   1.516   6.935   4.938  2.3792 -1.1067 -0.3133
10299SOL     OW33275   5.050   3.440   5.146  0.2330  0.3367 -0.5538
10299SOL    HW133276   5.008   3.462   5.229  2.5937  2.1764  0.2629
10299SOL    HW233277   5.009   3.357   5.120 -0.6738 -0.2656  2.3700
10300SOL     OW33278   9.167   4.467   4.139  0.1061 -0.8505  0.3136
10300SOL    HW133279   9.129   4.468   4.051 -2.3153 -1.0268  1.2720
10300SOL    HW233280   9.247   4.415   4.131  0.4223 -0.1081 -1.9388
10301SOL     OW33281   4.762   3.901   4.610 -0.1320  0.1286  0.3875
10301SOL    HW133282   4.711   3.907   4.690 -0.3313 -1.0553  0.3762
10301SOL    HW233283   4.699   3.876   4.543  0.1207  0.6206 -0.0413
10302SOL     OW33284   3.148  10.003   7.846 -0.1945 -0.0330 -0.0454
10302SOL    HW133285   3.130   9.937   7.913 -2.3792 -0.3822 -0.8867
10302SOL    HW233286   3.230  10.044   7.874 -1.6438  0.7994  3.5903
10303SOL     OW33287   9.848  10.620   0.691  0.2426 -0.5610  0.4306
10303SOL    HW133288   9.852  10.706   0.732 -0.5862  0.7176 -2.0135
10303SOL    HW233289   9.939  10.590   0.688  0.8181  1.1755 -0.5364
10304SOL     OW33290   0.417  10.313  10.120 -0.2988  0.3751  0.2538
10304SOL    HW133291   0.493  10.279  10.168  0.7931  1.4298 -0.6515
10304SOL    HW233292   0.451  10.390  10.074 -1.8882  0.7548 -0.3343
10305SOL     OW33293  10.337   9.054   9.851 -0.0019  0.0382 -0.0492
10305SOL    HW133294  10.332   9.088   9.940  1.2901  0.8469 -0.2559
10305SOL    HW233295  10.421   9.008   9.847  0.1426  0.3448 -0.9460
10306SOL     OW33296  10.035   1.932   9.200 -0.6004 -0.0279  0.0531
10306SOL    HW133297  10.116   1.982   9.188 -0.5853  0.1827  0.9340
10306SOL    HW233298   9.986   1.981   9.265 -1.7396  0.1810 -0.9411
10307SOL     OW33299   8.888   4.717   9.524 -0.3060  0.2404  0.5327
10307SOL    HW133300   8.912   4.627   9.502  1.1179  0.6391  0.3985
10307SOL    HW233301   8.792   4.715   9.531 -0.3485 -1.1239 -0.1486
10308SOL     OW33302   9.427   7.887   4.408 -0.1409 -0.1785  0.2300
10308SOL    HW133303   9.392   7.961   4.357  1.9782  1.2207  0.6511
10308SOL    HW233304   9.417   7.915   4.499  0.1736 -0.6659  0.4119
10309SOL     OW33305   2.170   3.670   1.354  0.2827  0.1970  0.3804
10309SOL    HW133306   2.226   3.614   1.408 -0.2048  0.8416  1.5916
10309SOL    HW233307   2.089   3.678   1.404  0.6420  2.6835  0.7172
10310SOL     OW33308   5.295   4.200   9.004 -0.7438  0.6903  0.0622
10310SOL    HW133309   5.307   4.181   8.911  0.3176 -1.6808  0.6216
10310SOL    HW233310   5.360   4.267   9.024 -0.4473  0.6503 -0.7382
10311SOL     OW33311   8.139   2.520   0.170  0.1658  0.0760 -0.4261
10311SOL    HW133312   8.167   2.476   0.089 -0.4646  0.2235 -0.7352
10311SOL    HW233313   8.126   2.448   0.232  0.0805 -0.0951 -0.6382
10312SOL     OW33314   9.836   9.520   0.060  0.0766 -0.1152 -0.1513
10312SOL    HW133315   9.823   9.425   0.065 -0.1044 -0.0993 -0.3065
10312SOL    HW233316   9.748   9.556   0.062  0.1731  0.0916  0.7439
10313SOL     OW33317   3.819   7.726   5.894  0.4954 -0.1473 -0.0091
10313SOL    HW133318   3.799   7.768   5.977  0.5583 -1.4351  0.6853
10313SOL    HW233319   3.871   7.791   5.845  3.0491 -0.4011  2.1468
10314SOL     OW33320   2.615   2.839   9.273 -0.0885 -0.0248 -0.0311
10314SOL    HW133321   2.564   2.898   9.217  1.3176  1.6957  0.4124
10314SOL    HW233322   2.560   2.761   9.281 -0.3753 -0.3429 -3.7013
10315SOL     OW33323   6.601   1.883  10.527  0.2225 -0.6479 -0.3070
10315SOL    HW133324   6.594   1.932  10.445  1.0446 -0.6525 -0.3854
10315SOL    HW233325   6.693   1.857  10.532  0.3166 -0.1101  0.9369
10316SOL     OW33326   9.006   8.560  10.558 -0.3537 -0.3137  0.2927
10316SOL    HW133327   9.083   8.509  10.579  0.9741  1.3589 -0.2429
10316SOL    HW233328   8.934   8.518  10.605  0.5937 -2.7450 -0.3028
10317SOL     OW33329   4.816   1.663  10.424  0.3050  0.0845 -0.2025
10317SOL    HW133330   4.753   1.709  10.369  1.3274  0.3603 -1.1919
10317SOL    HW233331   4.901   1.697  10.396  1.0938 -2.2048 -0.8334
10318SOL     OW33332   2.367   1.584   5.289 -0.0918 -0.3919  0.4092
10318SOL    HW133333   2.454   1.579   5.330  0.4918 -0.4486 -0.7862
10318SOL    HW233334   2.306   1.566   5.360  0.9358 -1.6065  1.0280
10319SOL     OW33335   4.447   5.266   0.394 -0.3062 -0.2069 -0.7132
10319SOL    HW133336   4.439   5.251   0.488 -0.3660  1.1015 -0.4944
10319SOL    HW233337   4.529   5.223   0.370 -0.7781 -1.3966 -0.2610
10320SOL     OW33338   1.687   4.913   0.124 -0.2878  0.0344 -0.2685
10320SOL    HW133339   1.766   4.897   0.071  0.5682 -0.3110  1.0434
10320SOL    HW233340   1.656   4.825   0.146 -0.1311  0.1597  0.4857
10321SOL     OW33341   5.345   0.424   2.884 -0.8728 -0.4915  0.7510
10321SOL    HW133342   5.282   0.486   2.847  0.8444 -0.7747 -3.1958
10321SOL    HW233343   5.412   0.479   2.924 -2.3102 -0.1358  2.8512
10322SOL     OW33344   5.634   3.302   2.179  0.6712  0.1311 -0.0796
10322SOL    HW133345   5.569   3.370   2.194 -0.1586 -0.6560 -0.0434
10322SOL    HW233346   5.666   3.319   2.090 -1.5243 -1.0290 -1.1648
10323SOL     OW33347   6.223   3.227   3.683  0.2992 -0.6991  0.0697
10323SOL    HW133348   6.141   3.209   3.636 -0.3764 -0.4511  1.1149
10323SOL    HW233349   6.256   3.141   3.707  1.6427 -0.9718 -2.4039
10324SOL     OW33350   8.065   3.047   2.600  0.3778 -0.1130  0.3719
10324SOL    HW133351   8.102   3.096   2.674  0.4252 -0.0722  0.3216
10324SOL    HW233352   8.114   2.966   2.598 -2.0738 -1.8469  2.7483
10325SOL     OW33353   7.149   2.146   1.106 -0.2188  0.5919 -0.4885
10325SOL    HW133354   7.219   2.102   1.155  0.2521  1.4839 -0.3505
10325SOL    HW233355   7.109   2.205   1.170  0.1108  1.4415 -1.0608
10326SOL     OW33356   9.980   9.180   3.346  0.2923 -0.9148  0.8490
10326SOL    HW133357   9.948   9.238   3.416  1.4607  2.0165 -0.8490
10326SOL    HW233358   9.927   9.205   3.270  3.4378  0.9709 -0.9340
10327SOL     OW33359   6.015   7.452   3.109 -0.4969 -1.0448  0.1845
10327SOL    HW133360   6.090   7.491   3.065  0.0735 -0.0978  1.8996
10327SOL    HW233361   5.999   7.370   3.061  2.4088 -1.8992  0.4881
10328SOL     OW33362   0.600   9.063   3.654  0.0490  0.0054 -0.0047
10328SOL    HW133363   0.673   9.054   3.715 -0.0878  1.1871  0.3462
10328SOL    HW233364   0.547   9.133   3.690 -1.4314 -1.0244 -0.0998
10329SOL     OW33365   0.800   3.816   1.556  0.4847 -0.3474 -0.2552
10329SOL    HW133366   0.808   3.756   1.630 -0.0947  0.6352  0.6258
10329SOL    HW233367   0.885   3.860   1.551 -0.4047  1.8183  1.8422
10330SOL     OW33368   2.365   8.153   2.064 -0.0697 -0.2483  0.1125
10330SOL    HW133369   2.358   8.246   2.087 -0.2346 -0.1883 -0.1782
10330SOL    HW233370   2.286   8.134   2.013  0.2284 -0.4122 -0.2981
10331SOL     OW33371   6.718   2.557   7.127  0.8752  0.3248 -0.8003
10331SOL    HW133372   6.689   2.614   7.056 -1.6127 -0.3844 -0.4812
10331SOL    HW233373   6.748   2.617   7.195  1.0319  1.1080 -1.5359
10332SOL     OW33374   2.718   2.655   0.050 -0.2608  0.1732 -0.0587
10332SOL    HW133375   2.791   2.657  -0.012 -0.6426  1.5006 -0.5075
10332SOL    HW233376   2.641   2.677  -0.003 -0.6097  1.2171  0.8412
10333SOL     OW33377   2.022   9.308   6.506  0.3910  0.1728 -0.5098
10333SOL    HW133378   1.958   9.304   6.577  0.4808  0.0071 -0.4384
10333SOL    HW233379   2.050   9.217   6.493 -0.5255  0.0211 -1.5851
10334SOL     OW33380   1.373   4.241   8.094 -0.0311 -0.1591 -0.0283
10334SOL    HW133381   1.441   4.198   8.147  0.4143  0.5848  0.0137
10334SOL    HW233382   1.353   4.322   8.141 -1.6302 -0.7945  0.4566
10335SOL     OW33383   4.315   3.881   2.295 -0.0369 -0.7552 -0.4033
10335SOL    HW133384   4.282   3.969   2.313  0.5426 -0.1197 -2.2909
10335SOL    HW233385   4.407   3.884   2.322  0.2812 -0.4311 -1.5047
10336SOL     OW33386   5.981   1.900   0.876  0.1159  0.3416  0.1096
10336SOL    HW133387   6.069   1.920   0.908  0.0074 -1.0964  1.4412
10336SOL    HW233388   5.952   1.981   0.833  2.8099  0.2428 -2.1917
10337SOL     OW33389   2.722   8.301   9.511 -0.0406 -0.6591 -0.6542
10337SOL    HW133390   2.644   8.324   9.561  0.5133  0.4347 -0.2578
10337SOL    HW233391   2.694   8.302   9.420 -0.6418 -0.9342 -0.4751
10338SOL     OW33392   4.348   0.682   1.506  0.7920  0.1699 -0.3927
10338SOL    HW133393   4.295   0.644   1.576  0.1670  0.3609 -0.7585
10338SOL    HW233394   4.338   0.776   1.516  1.6089  0.2264 -0.0511
10339SOL     OW33395   0.210   2.900   6.010  0.4183 -0.1495  0.1312
10339SOL    HW133396   0.196   2.819   5.959 -1.1369  0.8702 -1.1651
10339SOL    HW233397   0.306   2.908   6.015  0.6554 -2.6133  1.2647
10340SOL     OW33398   1.283   4.260   4.609 -0.4150 -0.0593  0.2265
10340SOL    HW133399   1.287   4.184   4.551  1.1553  0.9522 -1.0504
10340SOL    HW233400   1.212   4.313   4.573  1.1773  1.0322 -1.4372
10341SOL     OW33401   9.804   8.177   0.023 -0.1878 -0.3912 -0.1613
10341SOL    HW133402   9.871   8.110   0.018  1.0707  0.8956 -1.2863
10341SOL    HW233403   9.765   8.180  -0.065 -1.6523 -1.0156  0.4294
10342SOL     OW33404  10.451   1.532   0.076 -0.5945 -0.3285 -0.1096
10342SOL    HW133405  10.539   1.512   0.107 -0.1951  0.2386 -0.8444
10342SOL    HW233406  10.400   1.549   0.155 -0.2281 -1.3475  0.3623
10343SOL     OW33407   7.107  10.713   4.845 -0.1746 -0.6282 -0.1719
10343SOL    HW133408   7.121  10.735   4.753 -0.3831  1.5810  0.2524
10343SOL    HW233409   7.047  10.639   4.844 -1.8095  0.6190 -1.8401
10344SOL     OW33410   6.491   3.552   8.768 -0.0417 -0.2124 -0.4392
10344SOL    HW133411   6.421   3.601   8.723 -0.6386 -1.2415 -0.6640
10344SOL    HW233412   6.473   3.461   8.747  0.7511 -0.5745  0.4033
10345SOL     OW33413   0.146  10.391   3.160 -0.3388 -0.1828 -0.3246
10345SOL    HW133414   0.147  10.399   3.065 -0.9541  0.0315 -0.3137
10345SOL    HW233415   0.058  10.360   3.181 -0.0111 -0.8140  0.1295
10346SOL     OW33416   0.734   2.280   9.606 -0.0597 -0.4401 -0.1215
10346SOL    HW133417   0.756   2.348   9.670  0.6600 -1.0396  0.2724
10346SOL    HW233418   0.667   2.227   9.649  1.0875 -1.4050  0.5308
10347SOL     OW33419   4.381   8.112   7.219  0.2291  0.1410 -0.0922
10347SOL    HW133420   4.331   8.136   7.297  0.1237 -1.0046  0.2081
10347SOL    HW233421   4.363   8.182   7.157  0.9066  1.4529  1.1480
10348SOL     OW33422   4.077   3.702   8.961 -0.0433 -0.1351  0.3431
10348SOL    HW133423   4.167   3.730   8.980 -0.4422  1.1729  0.4324
10348SOL    HW233424   4.033   3.783   8.935 -0.7749 -1.0534 -1.3786
10349SOL     OW33425   6.093   0.526   3.352  0.6481 -0.3689 -0.3294
10349SOL    HW133426   6.152   0.491   3.285  1.3882  1.2100 -0.5469
10349SOL    HW233427   6.006   0.520   3.312  0.8186 -1.3247 -0.5971
10350SOL     OW33428   5.417   2.535   0.066  0.4257 -0.0593  0.2572
10350SOL    HW133429   5.325   2.546   0.041  0.4403 -1.4821 -0.5067
10350SOL    HW233430   5.465   2.540  -0.017  1.4339  3.7556  0.9055
10351SOL     OW33431   1.219   6.787   3.174 -0.2466  0.5081 -0.1154
10351SOL    HW133432   1.220   6.882   3.182 -1.7714  0.5246  0.0741
10351SOL    HW233433   1.129   6.766   3.149 -0.1165 -0.9455  0.5723
10352SOL     OW33434   0.345   5.502   1.940  0.0394 -0.7210 -0.6188
10352SOL    HW133435   0.302   5.425   1.904  0.7034 -0.9214 -1.0040
10352SOL    HW233436   0.423   5.514   1.885  2.1133 -2.1193  1.7684
10353SOL     OW33437   0.454   8.681   5.486  0.0538 -0.6657  0.3884
10353SOL    HW133438   0.428   8.667   5.577  1.4528 -1.4497  0.7051
10353SOL    HW233439   0.528   8.621   5.473 -2.0213 -2.9530 -2.1958
10354SOL     OW33440   9.528  10.310   3.348  0.4009 -0.4507 -0.4977
10354SOL    HW133441   9.499  10.356   3.269 -1.5562  0.5175  0.7090
10354SOL    HW233442   9.447  10.276   3.387  1.4708 -2.0640  0.4186
10355SOL     OW33443   7.729   0.317   4.369 -0.3830 -0.5228  0.4651
10355SOL    HW133444   7.811   0.363   4.354 -0.5694 -0.8588 -1.9017
10355SOL    HW233445   7.726   0.304   4.464  1.0886  1.6510  0.8758
10356SOL     OW33446   8.983   1.586   1.178 -0.4997 -0.1269 -0.2583
10356SOL    HW133447   8.950   1.552   1.095 -1.3232  0.5997 -0.2471
10356SOL    HW233448   9.073   1.554   1.183 -0.4285 -0.1637 -1.4457
10357SOL     OW33449   6.186   1.016  10.286 -0.6617  0.2719 -0.0600
10357SOL    HW133450   6.106   1.055  10.322 -1.0569 -0.4865 -0.0912
10357SOL    HW233451   6.233   1.090  10.248 -0.9129  0.8693  0.7508
10358SOL     OW33452   4.620   0.052   0.746  0.3960  0.1345 -0.6754
10358SOL    HW133453   4.634   0.067   0.653  1.3434  1.0025 -0.4056
10358SOL    HW233454   4.598   0.138   0.781  0.8634 -0.0265  0.0397
10359SOL     OW33455   1.600   2.949   5.083  0.2487 -0.3096 -0.4272
10359SOL    HW133456   1.688   2.981   5.102  0.6677 -1.4036 -0.4338
10359SOL    HW233457   1.580   2.983   4.996  0.7005 -0.1218 -0.4606
10360SOL     OW33458   4.912   8.606   3.409  0.6513 -0.3412 -0.2480
10360SOL    HW133459   4.955   8.587   3.325 -0.1523 -0.6516 -0.5957
10360SOL    HW233460   4.886   8.698   3.402  0.9569 -0.2463 -0.1665
10361SOL     OW33461  10.055   8.886   0.758 -0.5407 -0.1960  0.2091
10361SOL    HW133462  10.070   8.980   0.755  1.0282 -0.3925  1.0214
10361SOL    HW233463  10.063   8.858   0.667  0.7031  0.2402  0.1632
10362SOL     OW33464   7.970   4.295   9.501 -0.1299 -0.4042 -0.1976
10362SOL    HW133465   7.943   4.262   9.415 -2.1545  1.3930 -0.3505
10362SOL    HW233466   8.014   4.377   9.483 -0.8491  0.1456  0.4605
10363SOL     OW33467   2.457   8.831   4.839  0.0299  0.0061 -0.3064
10363SOL    HW133468   2.419   8.793   4.918  1.8157 -3.3869 -0.9291
10363SOL    HW233469   2.534   8.878   4.869  0.4701 -0.9246  0.0447
10364SOL     OW33470   9.782   8.021   7.762  0.4957 -0.2187  0.3732
10364SOL    HW133471   9.723   8.050   7.832  0.5323  0.3219  0.1832
10364SOL    HW233472   9.759   7.929   7.748 -0.8894  0.1986 -0.2741
10365SOL     OW33473   7.274   6.121   4.837 -0.2503 -0.6359  0.2566
10365SOL    HW133474   7.339   6.052   4.852  0.0029 -0.1508  1.5114
10365SOL    HW233475   7.214   6.113   4.912 -0.5190  0.1648  0.1286
10366SOL     OW33476   2.366   2.024   9.964  0.1758  0.7050 -0.6974
10366SOL    HW133477   2.278   2.059   9.977 -0.0330  0.0385 -0.2492
10366SOL    HW233478   2.384   1.973  10.043  1.0787  1.0525 -0.6573
10367SOL     OW33479   6.260   7.164   3.991  0.0069  0.1444  0.6837
10367SOL    HW133480   6.334   7.140   4.047 -0.5721 -0.0700  1.3668
10367SOL    HW233481   6.290   7.142   3.902 -0.7431 -4.0116  1.2671
10368SOL     OW33482   8.012   4.978   0.097  0.1183 -0.3079  0.4190
10368SOL    HW133483   8.083   5.029   0.136  0.7741  1.2920 -2.5272
10368SOL    HW233484   7.996   5.020   0.012 -3.0047 -1.8601  0.0889
10369SOL     OW33485   9.818   7.387   3.560  0.5255 -0.0016  0.1021
10369SOL    HW133486   9.831   7.478   3.534  0.5601  0.2298  0.8993
10369SOL    HW233487   9.885   7.338   3.511  2.2547  0.7449  1.5949
10370SOL     OW33488   0.459   5.895   4.231 -0.3372 -0.2900 -0.2867
10370SOL    HW133489   0.363   5.894   4.231 -0.3546  0.5230  0.4696
10370SOL    HW233490   0.483   5.828   4.295 -0.4106  0.0111  0.0559
10371SOL     OW33491   1.498   0.144   0.454 -0.2654 -0.1830  0.2872
10371SOL    HW133492   1.590   0.171   0.447  0.3809 -2.0420  1.0084
10371SOL    HW233493   1.453   0.194   0.386  1.3269  0.5196 -0.3003
10372SOL     OW33494   3.276   8.571   8.839 -0.7514 -0.1108 -0.1772
10372SOL    HW133495   3.272   8.489   8.790 -1.0334 -0.2250  0.0404
10372SOL    HW233496   3.185   8.594   8.857 -0.6467 -0.1100  0.3663
10373SOL     OW33497   9.951   4.212   4.109  0.2198  0.3047  0.3967
10373SOL    HW133498   9.933   4.195   4.201 -0.5235  1.6735  0.5290
10373SOL    HW233499   9.884   4.164   4.062  0.7647 -0.6199  0.5405
10374SOL     OW33500   6.340  10.185   0.138  0.0979 -0.0724  0.1468
10374SOL    HW133501   6.267  10.137   0.100  1.3771 -2.6839  0.7657
10374SOL    HW233502   6.304  10.227   0.217 -1.3796  1.2904 -1.1785
10375SOL     OW33503  10.013   7.982   6.909  0.1111  0.2095 -0.7827
10375SOL    HW133504  10.006   8.075   6.888 -0.2836  0.3832  0.0904
10375SOL    HW233505   9.976   7.937   6.832 -0.1279  0.7812 -1.0053
10376SOL     OW33506   0.098  10.425   0.153  0.4217  0.2958  0.3341
10376SOL    HW133507   0.066  10.516   0.159 -1.3553 -0.2755  0.1398
10376SOL    HW233508   0.124  10.404   0.243  2.6332  1.5516  0.0701
10377SOL     OW33509   0.433   4.435   3.111  0.4361  0.3989 -0.2804
10377SOL    HW133510   0.401   4.510   3.162 -0.5089 -0.6528  0.7322
10377SOL    HW233511   0.458   4.370   3.178  1.8016  0.0151 -1.1223
10378SOL     OW33512   2.800   3.500   6.860 -0.3085  0.4216  0.1249
10378SOL    HW133513   2.845   3.585   6.870 -0.4247  0.4448  0.4392
10378SOL    HW233514   2.844   3.459   6.785 -2.0468  1.9190 -1.8533
10379SOL     OW33515   2.775   0.721   4.375  0.3294 -0.0765  0.8054
10379SOL    HW133516   2.746   0.699   4.287  1.2662 -0.4068  0.5666
10379SOL    HW233517   2.839   0.791   4.363 -0.8158  1.1111  1.3760
10380SOL     OW33518  10.134   2.762   1.577 -0.0308 -0.1095 -0.5586
10380SOL    HW133519  10.108   2.745   1.486  1.3122  2.9243 -1.6618
10380SOL    HW233520  10.228   2.745   1.579  0.3013  1.5365 -0.3007
10381SOL     OW33521   5.515  10.407   9.036  0.1322 -0.1452 -0.3924
10381SOL    HW133522   5.432  10.428   9.079  0.3028 -0.5038  0.1365
10381SOL    HW233523   5.541  10.324   9.076  0.4603 -0.3275 -0.9742
10382SOL     OW33524   1.233   9.543   3.281 -0.1863 -0.4276  0.0020
10382SOL    HW133525   1.235   9.513   3.372  1.1463 -0.9057 -0.1618
10382SOL    HW233526   1.273   9.630   3.283  0.0118 -0.5115 -0.1349
10383SOL     OW33527   4.869   0.158   9.963 -0.3621  0.1676 -0.2603
10383SOL    HW133528   4.908   0.101  10.029 -0.4756  2.6808  2.2069
10383SOL    HW233529   4.901   0.246   9.986 -2.4063  1.4758 -2.0429
10384SOL     OW33530   5.499   1.512   2.777  0.1580  0.4744 -0.1404
10384SOL    HW133531   5.537   1.453   2.842 -0.0515  1.0026  0.4734
10384SOL    HW233532   5.522   1.473   2.693  0.3654 -0.2653  0.2487
10385SOL     OW33533   4.598   0.986   1.707 -0.5354  0.4872 -0.2646
10385SOL    HW133534   4.638   1.065   1.744  1.0761  0.0284 -0.9208
10385SOL    HW233535   4.577   0.931   1.783 -0.0686  0.8270  0.1131
10386SOL     OW33536   0.524   1.906  10.624  0.2902  0.2659  0.0618
10386SOL    HW133537   0.563   1.977  10.675  0.9062 -0.0345  0.0284
10386SOL    HW233538   0.455   1.871  10.680 -0.6791  1.4997 -0.3119
10387SOL     OW33539   3.694   5.150   4.780 -0.1272 -0.7097 -0.4510
10387SOL    HW133540   3.780   5.117   4.756  1.0119  2.3526 -1.0003
10387SOL    HW233541   3.712   5.228   4.833 -2.5882 -2.9423  4.3004
10388SOL     OW33542   2.804   6.711   7.149 -0.3989  0.0549 -0.0329
10388SOL    HW133543   2.783   6.627   7.189 -2.0040 -0.0914 -1.1120
10388SOL    HW233544   2.790   6.775   7.219  1.5366 -0.5683  1.0135
10389SOL     OW33545   0.824   6.491   8.421 -0.3584 -0.2431 -0.2933
10389SOL    HW133546   0.824   6.584   8.398 -2.6733 -0.2556 -0.5690
10389SOL    HW233547   0.754   6.482   8.485  1.2437 -1.4808  1.3836
10390SOL     OW33548   4.092   6.868   1.678  0.8644  0.5082  0.3268
10390SOL    HW133549   4.084   6.793   1.620 -0.0691 -0.8545  2.1349
10390SOL    HW233550   4.016   6.923   1.658 -0.4600 -0.8436  1.4258
10391SOL     OW33551  10.183   0.431   0.481 -0.4987  0.1898  0.2344
10391SOL    HW133552  10.148   0.482   0.554 -0.7507 -0.5203  0.6078
10391SOL    HW233553  10.262   0.389   0.516  0.9028  1.9170 -0.6404
10392SOL     OW33554   1.575   9.518  10.765  0.3190 -0.6140  0.3980
10392SOL    HW133555   1.662   9.512  10.805 -0.5427 -2.6538  2.1400
10392SOL    HW233556   1.539   9.601  10.797  1.5151  0.1596 -0.1986
10393SOL     OW33557   5.176   5.837   7.701  0.1451  0.1863  0.5624
10393SOL    HW133558   5.110   5.898   7.734 -1.1816 -0.9130 -0.0064
10393SOL    HW233559   5.207   5.877   7.620 -0.1024  0.5180  0.6293
10394SOL     OW33560   0.105  10.190   7.900 -0.5564 -0.8218  0.4582
10394SOL    HW133561   0.019  10.166   7.932 -1.2394  1.1024  0.1750
10394SOL    HW233562   0.105  10.286   7.897  1.1851 -0.7926 -0.6256
10395SOL     OW33563   3.927   1.003   7.640  0.2541 -0.2653 -0.4898
10395SOL    HW133564   3.920   0.968   7.552  1.2624  0.4287 -0.8678
10395SOL    HW233565   4.020   1.023   7.650 -0.0484  0.8239  0.2764
10396SOL     OW33566   9.544   0.449   7.740  0.0778  0.1011 -0.2946
10396SOL    HW133567   9.476   0.470   7.804  1.8566  1.6799  1.2141
10396SOL    HW233568   9.501   0.393   7.676 -2.4849  0.6350  0.8520
10397SOL     OW33569  10.146   7.047   2.508 -0.4854  0.5745  0.0564
10397SOL    HW133570  10.091   7.125   2.497 -0.5797  0.7462  1.4427
10397SOL    HW233571  10.086   6.981   2.543 -0.1272  0.3133  0.1866
10398SOL     OW33572   6.210   4.405   6.754 -0.1287 -0.3734 -0.0933
10398SOL    HW133573   6.276   4.384   6.688  0.0753  0.9939 -0.3503
10398SOL    HW233574   6.142   4.338   6.742  0.0652 -0.3569 -1.4629
10399SOL     OW33575   4.847   8.535   7.232 -0.1327 -0.6964 -0.3907
10399SOL    HW133576   4.926   8.565   7.188 -0.3236 -1.4171 -1.2627
10399SOL    HW233577   4.782   8.528   7.162 -0.6911 -1.0350  0.1501
10400SOL     OW33578   7.224   1.817   0.240  0.7621 -0.4892 -0.0276
10400SOL    HW133579   7.311   1.841   0.207 -0.0318 -1.4692 -3.2327
10400SOL    HW233580   7.225   1.721   0.243 -0.7197 -0.6194 -1.9562
10401SOL     OW33581   5.971   7.151   1.081  0.0412  0.2802 -0.9091
10401SOL    HW133582   6.067   7.153   1.075  0.4245 -0.5740  2.7854
10401SOL    HW233583   5.951   7.193   1.165 -2.6899 -1.0511 -0.7859
10402SOL     OW33584   3.001   7.680   5.050  0.5904  0.1658  0.0403
10402SOL    HW133585   3.007   7.775   5.063  0.9819  0.3170 -1.0745
10402SOL    HW233586   3.092   7.651   5.048  0.5298  0.0192 -1.2135
10403SOL     OW33587   2.211   1.405   2.066  0.1818  0.2748 -0.8063
10403SOL    HW133588   2.158   1.346   2.120  0.1241  1.0845  0.0410
10403SOL    HW233589   2.301   1.389   2.094  0.4932 -1.5081 -2.6400
10404SOL     OW33590   3.323  10.263   3.089  0.3168  0.4163 -0.7075
10404SOL    HW133591   3.258  10.251   3.159  2.2099 -1.8222  0.7929
10404SOL    HW233592   3.290  10.339   3.040 -0.9138  2.4116  2.8243
10405SOL     OW33593   6.367   8.324   1.696  0.1983 -0.2329 -0.3578
10405SOL    HW133594   6.453   8.364   1.709  0.9970 -1.7343 -0.7745
10405SOL    HW233595   6.306   8.382   1.741  1.3777  1.0721 -0.3892
10406SOL     OW33596   6.268   5.244   1.115 -0.5477 -0.0011  0.4296
10406SOL    HW133597   6.277   5.333   1.147  1.0787  0.0783 -0.1881
10406SOL    HW233598   6.291   5.189   1.189 -1.5242  0.0611  0.8017
10407SOL     OW33599   0.903   2.680   8.048  0.4485  0.2438 -0.3913
10407SOL    HW133600   0.941   2.768   8.054  0.6242  0.1640 -0.3441
10407SOL    HW233601   0.892   2.666   7.954 -0.2108  0.5876 -0.3702
10408SOL     OW33602   2.448   3.146   5.965 -0.0768 -0.4987  0.3648
10408SOL    HW133603   2.487   3.097   6.037 -0.1763 -1.2469 -0.0852
10408SOL    HW233604   2.355   3.152   5.988  0.0644  0.2112  0.8207
10409SOL     OW33605   6.573   8.267   3.980 -0.5245  0.3138 -0.0160
10409SOL    HW133606   6.615   8.207   3.918  1.5512  0.3909  1.2340
10409SOL    HW233607   6.581   8.353   3.939  1.7836  0.5162  0.7373
10410SOL     OW33608   0.338   5.461   9.968  0.4276 -0.3772  0.8332
10410SOL    HW133609   0.314   5.523  10.036  0.3683 -1.1179  1.5085
10410SOL    HW233610   0.290   5.381   9.990  0.8436 -0.8012  0.2413
10411SOL     OW33611   8.188   0.495   0.815  0.7344  0.0703  0.4206
10411SOL    HW133612   8.269   0.520   0.859  2.0103 -0.1099 -1.6830
10411SOL    HW233613   8.216   0.465   0.728 -1.5711 -0.2201 -0.2932
10412SOL     OW33614   9.641   5.661   2.535  0.0066 -0.3782  0.4229
10412SOL    HW133615   9.645   5.601   2.461 -0.0600  0.3585 -0.1936
10412SOL    HW233616   9.640   5.605   2.613 -0.7326 -1.1883 -0.1597
10413SOL     OW33617   4.122   7.425   1.370  0.2663 -0.4110 -0.3665
10413SOL    HW133618   4.164   7.501   1.329 -2.0277  1.4826  0.5670
10413SOL    HW233619   4.077   7.381   1.297  1.6046 -0.9294 -0.9127
10414SOL     OW33620   2.225   8.396   7.365  0.1064 -0.2391 -0.1859
10414SOL    HW133621   2.176   8.363   7.290 -0.3101  0.0336 -0.0407
10414SOL    HW233622   2.189   8.484   7.380 -0.9282 -0.8858  1.3135
10415SOL     OW33623   4.345   2.594   8.249 -0.2903 -0.4903  0.3955
10415SOL    HW133624   4.426   2.548   8.268  0.6474  1.4734  1.4805
10415SOL    HW233625   4.288   2.574   8.324 -0.3201 -0.8073  0.2887
10416SOL     OW33626   4.458   5.610   9.883  0.2794 -0.1705 -0.5964
10416SOL    HW133627   4.398   5.603   9.809 -2.1020 -1.8745  1.3430
10416SOL    HW233628   4.497   5.523   9.890 -0.2598 -0.3155  0.7179
10417SOL     OW33629   8.515   6.253   6.998  1.1351 -0.5507 -1.0513
10417SOL    HW133630   8.457   6.270   6.923 -0.4040 -2.4148 -0.3558
10417SOL    HW233631   8.572   6.182   6.969  1.4390 -0.3658 -0.9066
10418SOL     OW33632   6.405   4.691   9.094 -0.5491 -0.0622 -0.0412
10418SOL    HW133633   6.395   4.601   9.126 -0.7060  0.2307  0.7570
10418SOL    HW233634   6.492   4.717   9.123 -1.3384  0.7955  1.6901
10419SOL     OW33635   6.925   5.624   3.452 -0.4208 -0.3348 -0.5356
10419SOL    HW133636   6.917   5.585   3.539 -1.6618  1.1870  0.0986
10419SOL    HW233637   6.897   5.556   3.391  1.8267 -1.9190  0.0683
10420SOL     OW33638   7.741   6.756   8.194  0.1944 -0.2985 -0.0477
10420SOL    HW133639   7.736   6.849   8.175 -3.7657 -0.6046 -1.4811
10420SOL    HW233640   7.761   6.714   8.111  2.4924 -0.8024  0.6872
10421SOL     OW33641   9.172   6.116   9.762  0.0848  0.1179 -0.3609
10421SOL    HW133642   9.158   6.046   9.698 -1.7681  0.0373  0.0915
10421SOL    HW233643   9.263   6.142   9.748  0.3375 -1.2730 -1.6366
10422SOL     OW33644   5.264   0.758   5.732  0.2135  0.0928 -0.0287
10422SOL    HW133645   5.287   0.669   5.705  2.1266  0.2165  0.9668
10422SOL    HW233646   5.250   0.805   5.651  0.0527 -0.8964 -0.5979
10423SOL     OW33647   8.468   9.612   5.391  0.5763 -0.6486  0.4407
10423SOL    HW133648   8.561   9.613   5.414  0.6292  2.1107  0.3900
10423SOL    HW233649   8.464   9.563   5.309  2.0624 -0.3836  0.1793
10424SOL     OW33650  10.302   6.369   9.938  0.1167  0.3518 -0.1567
10424SOL    HW133651  10.375   6.319   9.975  0.2467  0.3562 -0.4039
10424SOL    HW233652  10.296   6.338   9.847 -0.9315 -0.4975  0.1749
10425SOL     OW33653   1.296   7.647   8.476  0.0831 -0.2260 -0.2320
10425SOL    HW133654   1.375   7.664   8.527  0.9312  0.3777 -1.6734
10425SOL    HW233655   1.243   7.726   8.487  0.4612  0.0873 -0.6141
10426SOL     OW33656  10.551   4.802   0.553 -1.1343  0.1096 -0.4848
10426SOL    HW133657  10.645   4.820   0.557 -1.0354 -0.4054 -0.3415
10426SOL    HW233658  10.533   4.787   0.461 -1.3237  1.4351 -0.6760
10427SOL     OW33659   4.684   6.619   9.489 -0.8018 -0.5719 -0.3348
10427SOL    HW133660   4.674   6.662   9.574 -1.9787  0.9344 -1.1736
10427SOL    HW233661   4.619   6.549   9.489 -1.3896 -0.0316 -0.3020
10428SOL     OW33662  10.700   7.886   5.942 -0.1900  0.3265  0.0378
10428SOL    HW133663  10.780   7.929   5.911 -0.0768 -0.7535 -1.2524
10428SOL    HW233664  10.725   7.844   6.024  0.1405  1.2587  0.4338
10429SOL     OW33665   3.547   6.771   0.796  0.2587 -0.2092  0.6212
10429SOL    HW133666   3.552   6.835   0.725 -0.5652 -0.2309  0.5334
10429SOL    HW233667   3.633   6.729   0.797  0.6462  0.5688  0.3723
10430SOL     OW33668   5.120   0.784   7.603 -0.0863 -0.5134  0.4563
10430SOL    HW133669   5.138   0.711   7.662 -0.8488 -0.4922  0.7225
10430SOL    HW233670   5.101   0.858   7.661 -2.1645 -0.8167  0.2208
10431SOL     OW33671   4.477   2.063   5.551 -0.2909  0.1041  0.6523
10431SOL    HW133672   4.532   2.000   5.597  0.9682  0.5748 -0.1476
10431SOL    HW233673   4.414   2.093   5.616 -2.1118 -3.2393  0.6572
10432SOL     OW33674   8.798   5.586   0.125 -0.1014 -0.3933 -0.0834
10432SOL    HW133675   8.826   5.647   0.056 -1.1878  2.1332  1.5332
10432SOL    HW233676   8.874   5.578   0.182  0.0739 -0.6315 -0.3491
10433SOL     OW33677   8.465   8.172   4.191  0.4052 -0.3671 -0.1406
10433SOL    HW133678   8.395   8.108   4.182  0.2135  0.0253 -1.9461
10433SOL    HW233679   8.540   8.132   4.148  1.4783 -0.9610  2.1438
10434SOL     OW33680   7.266   5.669  10.445  0.3111 -0.1212  0.1170
10434SOL    HW133681   7.353   5.636  10.468 -0.0177 -0.2814  1.1589
10434SOL    HW233682   7.206   5.602  10.476 -0.1092 -1.2873 -2.9005
10435SOL     OW33683   6.314   8.994   6.630  0.1410  0.1922  0.1769
10435SOL    HW133684   6.220   9.008   6.630  0.2173  0.9112 -1.5652
10435SOL    HW233685   6.351   9.080   6.650  0.4533 -0.3076  1.9666
10436SOL     OW33686   4.537   8.728   8.667  0.1522  0.1319  0.0372
10436SOL    HW133687   4.510   8.728   8.576 -0.2684  0.4457  0.1584
10436SOL    HW233688   4.612   8.668   8.670  0.3963  0.4000 -0.5760
10437SOL     OW33689   9.934   6.476   4.023 -0.3059  0.1713 -0.9937
10437SOL    HW133690   9.852   6.458   4.067  0.6486 -0.1943  0.7009
10437SOL    HW233691   9.919   6.559   3.977 -1.8540 -0.3074 -1.4164
10438SOL     OW33692   6.971   5.039   5.115 -0.2545  0.2836 -0.2387
10438SOL    HW133693   6.993   5.115   5.061 -1.8300  1.1751  0.3036
10438SOL    HW233694   7.000   5.064   5.203 -1.5302  0.6287  0.0963
10439SOL     OW33695  10.455   1.707   8.389 -0.5031  0.0985  0.2719
10439SOL    HW133696  10.382   1.645   8.388 -0.7537  0.3738  0.9099
10439SOL    HW233697  10.518   1.669   8.450  1.1332 -1.4992 -2.2060
10440SOL     OW33698   2.478   7.893   6.561  0.2871 -0.0878 -0.4873
10440SOL    HW133699   2.476   7.883   6.656  0.0410  0.2500 -0.4532
10440SOL    HW233700   2.420   7.968   6.544 -0.1420 -0.5191 -0.9451
10441SOL     OW33701   9.935   7.505   8.097  0.1900 -0.3479 -0.5880
10441SOL    HW133702   9.936   7.598   8.073  1.4116 -0.1732  0.0445
10441SOL    HW233703   9.992   7.500   8.174 -0.9061 -1.4215  0.1939
10442SOL     OW33704   6.645   6.994   9.092  0.5968  0.2480  0.6613
10442SOL    HW133705   6.575   7.019   9.031  1.1810  0.1624 -0.0587
10442SOL    HW233706   6.676   6.910   9.058  0.1134 -0.4026  1.7952
10443SOL     OW33707   2.022   4.800   5.992 -0.2409 -0.3609 -0.0931
10443SOL    HW133708   2.099   4.775   5.941 -0.4962 -0.3743 -0.4750
10443SOL    HW233709   1.986   4.717   6.024  0.3251 -0.3099  0.7172
10444SOL     OW33710   5.371   3.983   3.209 -0.1520  0.6700  0.4056
10444SOL    HW133711   5.419   4.065   3.214 -0.1145  0.6616  0.1727
10444SOL    HW233712   5.314   3.984   3.287  1.4111 -0.0781  1.6126
10445SOL     OW33713   1.274   1.742   1.760  0.1551  0.3030  0.2914
10445SOL    HW133714   1.211   1.777   1.823 -1.0815 -2.4441  0.7289
10445SOL    HW233715   1.336   1.691   1.813 -0.3317 -1.2330 -0.5444
10446SOL     OW33716   0.743   2.074   7.940  0.8349  0.6798  0.3475
10446SOL    HW133717   0.722   2.121   8.021 -1.3752  0.2626  0.0958
10446SOL    HW233718   0.769   1.986   7.969  3.5826  1.5492  0.7383
10447SOL     OW33719   5.558   1.182  10.018  0.3024 -0.6592  0.2266
10447SOL    HW133720   5.633   1.201   9.962 -1.0305  2.2720 -0.7779
10447SOL    HW233721   5.560   1.250  10.086 -1.3098 -0.6106  0.2752
10448SOL     OW33722   2.260   2.411   9.269 -0.3838 -0.0209 -0.3840
10448SOL    HW133723   2.166   2.429   9.277 -0.1768  1.5228 -1.0971
10448SOL    HW233724   2.281   2.358   9.346 -1.6208  0.5989  0.4177
10449SOL     OW33725   3.558   1.155   5.030  0.3714 -0.2409  0.2538
10449SOL    HW133726   3.498   1.081   5.015 -0.9975  1.1836 -1.9503
10449SOL    HW233727   3.511   1.212   5.090  0.8719 -0.5471  0.9433
10450SOL     OW33728   4.720   0.196   6.351  0.1089  0.1229 -0.1489
10450SOL    HW133729   4.731   0.113   6.306 -1.6822  0.4084 -1.1894
10450SOL    HW233730   4.735   0.176   6.444 -0.0779 -1.2943 -0.4133
10451SOL     OW33731   3.339   7.394   8.755  0.3642  0.0485  0.0005
10451SOL    HW133732   3.263   7.336   8.764  0.7879 -0.1575  4.0684
10451SOL    HW233733   3.302   7.482   8.747 -0.3483 -0.1513  0.9433
10452SOL     OW33734  10.639   8.319  10.653  0.5624  0.4607 -0.4558
10452SOL    HW133735  10.635   8.223  10.653 -1.1262  0.4763  1.2525
10452SOL    HW233736  10.727   8.339  10.620  1.6328 -1.7272  0.8325
10453SOL     OW33737   9.220   0.239   4.781 -0.0150 -0.3399 -0.3783
10453SOL    HW133738   9.172   0.167   4.739  0.5753 -0.4564 -0.8656
10453SOL    HW233739   9.266   0.197   4.854 -0.9603 -0.1552  0.3475
10454SOL     OW33740  10.100   1.148   0.795 -0.1728 -0.4792  0.2380
10454SOL    HW133741  10.118   1.167   0.703 -1.4984 -0.9354 -0.1430
10454SOL    HW233742  10.186   1.132   0.834  0.4168 -0.0984 -0.8782
10455SOL     OW33743   0.062   5.088   1.036 -0.7850 -0.3861  0.0686
10455SOL    HW133744   0.150   5.125   1.047 -0.4091 -1.3915  0.5610
10455SOL    HW233745   0.015   5.153   0.983  0.2013  0.2386 -0.0643
10456SOL     OW33746   3.556  10.564   7.038  0.1055  0.3830  0.2239
10456SOL    HW133747   3.467  10.568   7.073  1.2412  0.3268  3.3852
10456SOL    HW233748   3.578  10.471   7.039  0.3609  0.4377 -0.1497
10457SOL     OW33749   9.329   2.886   2.205 -0.1306  0.6919 -0.1145
10457SOL    HW133750   9.249   2.927   2.173 -0.6792  0.1144  0.4898
10457SOL    HW233751   9.310   2.792   2.204  0.5679  0.5455 -0.0393
10458SOL     OW33752   3.859   2.636   6.745 -0.1746 -0.3455  0.0058
10458SOL    HW133753   3.865   2.542   6.725  0.0455 -0.0128 -1.5964
10458SOL    HW233754   3.799   2.641   6.819  0.8325 -1.8590  0.9980
10459SOL     OW33755   0.157   9.447   4.645  0.2967  0.5623 -0.3350
10459SOL    HW133756   0.065   9.471   4.654 -0.6475 -2.4649 -0.7771
10459SOL    HW233757   0.168   9.432   4.551  1.3801  1.2905 -0.3353
10460SOL     OW33758   8.972   9.294   1.842  0.2113 -1.2550  0.1167
10460SOL    HW133759   9.021   9.212   1.845  1.0755 -0.9314 -2.2223
10460SOL    HW233760   9.028   9.357   1.888  2.4971 -0.7685 -2.9460
10461SOL     OW33761   2.086   4.420   4.118 -0.5056  0.2593 -0.0437
10461SOL    HW133762   2.129   4.335   4.126 -1.6853 -0.3277  0.2989
10461SOL    HW233763   2.033   4.413   4.038 -0.0505  0.9459 -0.4208
10462SOL     OW33764   7.034   9.452   1.672  0.5390 -0.1657 -0.1950
10462SOL    HW133765   7.119   9.479   1.708  0.1951  0.0736  0.4507
10462SOL    HW233766   6.984   9.533   1.665  0.5794 -0.2208 -1.1776
10463SOL     OW33767   7.164   7.566   0.017 -0.0168  0.0880  0.0856
10463SOL    HW133768   7.071   7.574  -0.004  0.4062  0.3939 -1.7928
10463SOL    HW233769   7.198   7.655   0.010  0.3288  0.0699  1.3259
10464SOL     OW33770   5.838   0.243   4.047  0.2003  0.2264 -0.3193
10464SOL    HW133771   5.768   0.191   4.007 -0.8692  0.6975  0.8662
10464SOL    HW233772   5.820   0.333   4.021  1.9257  0.0909 -2.1895
10465SOL     OW33773   8.113   2.366   0.495  0.0185  0.1194 -0.1253
10465SOL    HW133774   8.160   2.293   0.455 -0.5158 -1.0107  1.2108
10465SOL    HW233775   8.036   2.325   0.536 -1.5440  1.7477 -1.2736
10466SOL     OW33776   9.312   3.571   8.065  0.5108  0.1475 -0.1850
10466SOL    HW133777   9.265   3.491   8.042 -0.2912  0.6662 -0.3778
10466SOL    HW233778   9.403   3.543   8.076 -0.0840 -1.1941  1.8791
10467SOL     OW33779   9.237   1.966   8.157  0.1522 -0.1648  0.2721
10467SOL    HW133780   9.243   2.059   8.135  0.1003 -0.5383 -1.4291
10467SOL    HW233781   9.261   1.962   8.250  5.3231  0.9759 -0.6690
10468SOL     OW33782   9.238   7.761   5.792 -0.3044 -0.4295  0.1416
10468SOL    HW133783   9.182   7.790   5.720 -0.7608  0.9944  1.0232
10468SOL    HW233784   9.315   7.817   5.787 -0.4216 -0.1950  0.8681
10469SOL     OW33785   2.301   1.056   7.686 -0.1752  0.0231  0.6185
10469SOL    HW133786   2.332   0.972   7.722 -0.7691 -0.7747 -0.6419
10469SOL    HW233787   2.370   1.082   7.624  0.2958  0.7962  1.4463
10470SOL     OW33788   2.436   3.853   6.069 -0.0832 -0.1668  0.0200
10470SOL    HW133789   2.451   3.947   6.082 -0.7930  0.4061 -2.6904
10470SOL    HW233790   2.351   3.848   6.025  1.4180 -1.7358 -2.9906
10471SOL     OW33791   2.837   6.202   0.042  0.5430 -0.2615  0.5155
10471SOL    HW133792   2.794   6.118   0.057 -0.3798  0.5683  2.9862
10471SOL    HW233793   2.928   6.187   0.066  0.5767 -0.7642  0.0901
10472SOL     OW33794   2.410   8.514   3.192  0.2606 -0.2997  0.2382
10472SOL    HW133795   2.328   8.473   3.219 -0.2118 -0.5951 -1.5214
10472SOL    HW233796   2.384   8.574   3.122  1.5357 -0.2942 -0.2480
10473SOL     OW33797   2.873   6.653   3.062  0.3084  0.4167 -0.1659
10473SOL    HW133798   2.778   6.665   3.051  0.2722  0.1947 -0.0854
10473SOL    HW233799   2.905   6.641   2.973  0.5470  2.5498 -0.4335
10474SOL     OW33800   4.732   0.948   6.840  0.1559 -0.3404  0.5940
10474SOL    HW133801   4.692   0.866   6.812  0.2197 -0.1955  0.0531
10474SOL    HW233802   4.726   0.947   6.935 -1.6605 -0.0542  0.5232
10475SOL     OW33803   6.086   4.319   8.139 -0.4307  0.1890 -0.0546
10475SOL    HW133804   6.068   4.391   8.200  0.4353  1.5097 -1.2931
10475SOL    HW233805   6.163   4.275   8.176 -0.4445  0.4263  0.2587
10476SOL     OW33806   6.244   0.700   5.621 -0.2642 -0.1221 -0.7604
10476SOL    HW133807   6.239   0.654   5.537 -0.3145 -0.4877 -0.5588
10476SOL    HW233808   6.232   0.632   5.687 -0.1816  0.1563 -0.4525
10477SOL     OW33809   1.053   0.140   8.089 -0.0485  0.4586 -0.6393
10477SOL    HW133810   1.080   0.088   8.164  1.3000  1.9324 -0.0532
10477SOL    HW233811   0.958   0.129   8.085 -0.0585 -0.1973  0.8501
10478SOL     OW33812   0.538   1.143   5.077 -0.3010  0.8778  0.0044
10478SOL    HW133813   0.456   1.190   5.089 -0.9053  0.4027 -1.9416
10478SOL    HW233814   0.589   1.198   5.017 -1.2617 -1.0665 -2.8093
10479SOL     OW33815   9.806   8.950   7.703  0.5109 -0.4793  0.4737
10479SOL    HW133816   9.876   9.007   7.735  1.5062 -1.6005  0.3598
10479SOL    HW233817   9.767   8.912   7.783  0.6988 -0.6185  0.4994
10480SOL     OW33818   6.424   4.476   5.243 -0.4488 -0.5496 -0.4508
10480SOL    HW133819   6.482   4.516   5.178 -0.5986 -0.2731 -0.4151
10480SOL    HW233820   6.480   4.464   5.320 -0.7400  0.8417 -0.0034
10481SOL     OW33821   7.025  10.336  10.236 -0.1224  0.7259  0.4460
10481SOL    HW133822   7.022  10.353  10.331  0.4789  0.4673  0.5117
10481SOL    HW233823   7.066  10.250  10.229 -0.9201  0.3696 -0.0111
10482SOL     OW33824  10.330   1.606   1.201 -0.4980 -0.2001 -0.6260
10482SOL    HW133825  10.422   1.631   1.211 -0.3867 -0.7880 -0.0557
10482SOL    HW233826  10.311   1.622   1.109  0.4404 -0.9065 -0.9660
10483SOL     OW33827   9.600   2.868   2.466  0.5997 -0.4444  0.3967
10483SOL    HW133828   9.597   2.774   2.446  1.6844 -0.3737 -0.1778
10483SOL    HW233829   9.682   2.880   2.514  0.4997  0.2188  0.4151
10484SOL     OW33830   1.744   9.938   2.142  0.1554 -0.5030 -0.2407
10484SOL    HW133831   1.699   9.939   2.226  2.5442 -0.9252  1.1314
10484SOL    HW233832   1.775  10.028   2.129 -2.2900  0.2118 -1.9909
10485SOL     OW33833   2.508   3.146   9.912  0.0830  0.3327  0.3026
10485SOL    HW133834   2.574   3.093   9.866 -0.0200  0.3157  0.1731
10485SOL    HW233835   2.483   3.092   9.987 -0.2608  0.0470 -0.0076
10486SOL     OW33836   2.954   8.102   6.309 -0.1243 -0.4822  0.1718
10486SOL    HW133837   2.948   8.046   6.386  0.7461 -0.6537  0.1208
10486SOL    HW233838   2.946   8.042   6.235  0.7974 -0.5464  0.1165
10487SOL     OW33839   8.339   0.861   7.350  0.5826 -0.5182  0.3680
10487SOL    HW133840   8.366   0.796   7.285  1.6471 -0.3547  0.6156
10487SOL    HW233841   8.381   0.832   7.431 -0.5087 -0.5721  0.9289
10488SOL     OW33842   0.137   1.568   9.907 -0.0954 -0.3148 -0.2898
10488SOL    HW133843   0.166   1.483   9.941  2.5809  1.0354  1.1079
10488SOL    HW233844   0.140   1.559   9.812 -0.8034 -2.0379 -0.1824
10489SOL     OW33845   2.112  10.414   9.599  0.4225 -0.0966  0.4396
10489SOL    HW133846   2.048  10.342   9.604  1.0727 -0.7037  0.1594
10489SOL    HW233847   2.091  10.470   9.674  0.1607 -0.7943  0.8969
10490SOL     OW33848   4.495   1.268   2.775  0.3757 -0.0128  0.1574
10490SOL    HW133849   4.533   1.355   2.791  1.1351 -0.1994 -0.5601
10490SOL    HW233850   4.561   1.223   2.721 -1.3058  0.0174 -2.0628
10491SOL     OW33851   7.419   7.710   1.938  0.0183  0.1645  0.1703
10491SOL    HW133852   7.333   7.688   1.972  0.8014 -0.7669  1.6384
10491SOL    HW233853   7.409   7.798   1.901 -1.3856  0.3383  0.9255
10492SOL     OW33854   5.246   6.051   8.352  0.6602  0.5545 -0.4349
10492SOL    HW133855   5.339   6.072   8.358  0.5173  1.5816 -1.4513
10492SOL    HW233856   5.205   6.131   8.319 -1.0994  1.2715  3.0306
10493SOL     OW33857   6.250   5.400   4.460  0.2283 -0.8036 -0.1561
10493SOL    HW133858   6.178   5.432   4.515  0.2184 -0.8138 -0.1631
10493SOL    HW233859   6.276   5.476   4.408 -0.3926 -1.0417 -0.8258
10494SOL     OW33860   4.178   5.224   4.955 -0.3074 -0.1584  0.2625
10494SOL    HW133861   4.234   5.242   4.879 -1.6851 -2.3833 -1.4051
10494SOL    HW233862   4.220   5.151   5.000 -1.1303 -1.0219 -0.3027
10495SOL     OW33863  10.481   8.343   9.403 -0.3982  0.1927 -0.1652
10495SOL    HW133864  10.528   8.393   9.337  1.9070  0.4529  1.5695
10495SOL    HW233865  10.441   8.410   9.460 -0.8794 -0.0113 -0.2547
10496SOL     OW33866   3.816   5.585   3.190 -0.8649  0.3663 -0.2818
10496SOL    HW133867   3.746   5.554   3.133 -0.5628  0.9135 -0.9711
10496SOL    HW233868   3.896   5.551   3.150 -0.7765 -1.3592  1.2118
10497SOL     OW33869  10.381   5.937   2.291  0.1452 -0.6189 -0.8412
10497SOL    HW133870  10.302   5.936   2.344  0.6704  0.0361 -0.0265
10497SOL    HW233871  10.351   5.964   2.204 -0.7428 -1.8871 -0.9463
10498SOL     OW33872   6.587  10.016  10.007 -0.0786 -0.5009  0.2272
10498SOL    HW133873   6.576   9.969  10.089  0.7608  0.2910  0.8227
10498SOL    HW233874   6.506  10.065   9.996 -0.2052 -0.6287  0.5868
10499SOL     OW33875   8.802   0.927  10.577  0.8656 -0.3468 -0.3049
10499SOL    HW133876   8.850   0.962  10.652  1.3763 -1.3413 -0.1569
10499SOL    HW233877   8.728   0.988  10.566 -0.0411 -0.9518  1.8870
10500SOL     OW33878   4.410   0.772  10.015 -0.3218  0.1466 -0.5018
10500SOL    HW133879   4.464   0.759  10.092 -0.2807 -3.2050 -0.9379
10500SOL    HW233880   4.472   0.772   9.942 -0.5575  0.8819 -0.7097
10501SOL     OW33881   3.944   8.605   8.070  0.1657 -0.4377 -0.1379
10501SOL    HW133882   3.933   8.516   8.105 -2.5344 -1.2501 -2.5814
10501SOL    HW233883   3.999   8.593   7.992  1.1312  0.3151  0.4217
10502SOL     OW33884   6.216  10.605   0.335  0.2262  0.1127 -0.2646
10502SOL    HW133885   6.179  10.530   0.288  2.3175  0.7220 -3.1259
10502SOL    HW233886   6.265  10.566   0.407 -1.9822 -0.9407  0.7735
10503SOL     OW33887  10.344   3.078   5.774 -0.7462  0.1374 -0.5764
10503SOL    HW133888  10.410   3.148   5.771  0.5020 -1.0184 -2.1102
10503SOL    HW233889  10.266   3.121   5.808  0.0237  2.2428 -1.2399
10504SOL     OW33890   4.009   6.207   4.130  0.5519 -0.1484 -0.5388
10504SOL    HW133891   4.091   6.252   4.149  0.6001 -0.3628 -0.2477
10504SOL    HW233892   3.980   6.245   4.047  1.5467 -0.9342 -1.2653
10505SOL     OW33893   7.188   6.370  10.010 -0.8338  0.0174  0.2463
10505SOL    HW133894   7.143   6.455  10.011  0.4064  0.7125  0.0786
10505SOL    HW233895   7.167   6.330  10.094 -1.1701  0.6503  0.4727
10506SOL     OW33896   7.783   4.323   5.956 -0.0308  0.5461 -0.1275
10506SOL    HW133897   7.821   4.317   6.044 -1.0927  0.2146  0.3238
10506SOL    HW233898   7.732   4.404   5.957  0.7298  1.0450 -0.7651
10507SOL     OW33899   3.775   8.757   1.390 -0.0180 -0.3179 -1.0644
10507SOL    HW133900   3.802   8.698   1.319 -2.9935 -2.0394 -0.9234
10507SOL    HW233901   3.688   8.787   1.365 -0.0254  1.2652  0.5958
10508SOL     OW33902   5.049   2.606   0.565 -0.7479  0.3326 -0.0494
10508SOL    HW133903   5.007   2.587   0.649  1.4519 -1.5327  0.7108
10508SOL    HW233904   5.117   2.670   0.585 -0.1790 -0.1543 -0.4024
10509SOL     OW33905   7.127   9.526  10.293  0.3816  0.4995 -1.3801
10509SOL    HW133906   7.068   9.601  10.302 -0.5364 -0.3293 -0.2322
10509SOL    HW233907   7.096   9.481  10.214 -0.3218  0.2592 -0.9762
10510SOL     OW33908   3.538   9.261   5.885 -0.3592 -0.1785 -0.0181
10510SOL    HW133909   3.560   9.331   5.823  1.9687 -1.2224 -0.5216
10510SOL    HW233910   3.563   9.296   5.970 -0.9661  0.2786 -0.0281
10511SOL     OW33911  10.156   1.602   1.759  0.7560  0.0319  0.0670
10511SOL    HW133912  10.158   1.568   1.670  0.7379  2.1983 -0.8200
10511SOL    HW233913  10.090   1.671   1.757 -0.4443 -0.9671  2.2171
10512SOL     OW33914   3.115   5.760   1.437  0.0606  0.8274  0.3631
10512SOL    HW133915   3.152   5.681   1.476 -0.6958  0.5528  0.5446
10512SOL    HW233916   3.125   5.747   1.342 -1.7159 -0.3518  0.2879
10513SOL     OW33917   9.602   5.005   2.218  0.0305 -0.1941  0.3262
10513SOL    HW133918   9.643   5.025   2.134 -1.2619 -1.3506 -0.6232
10513SOL    HW233919   9.598   4.909   2.221 -0.0553 -0.1748  1.6551
10514SOL     OW33920   3.202   5.721   8.817  0.1113  0.0832 -0.1575
10514SOL    HW133921   3.275   5.754   8.869 -0.6699  0.3748  0.7823
10514SOL    HW233922   3.134   5.789   8.825 -0.6001 -0.5992 -0.2630
10515SOL     OW33923   1.648   3.493   3.337 -1.0791 -0.0349  0.0179
10515SOL    HW133924   1.633   3.566   3.397 -0.8070  1.2378 -1.4239
10515SOL    HW233925   1.578   3.501   3.272 -1.3686 -1.4006  0.1337
10516SOL     OW33926   7.163   4.354   2.105 -0.8394  0.0329  0.0490
10516SOL    HW133927   7.245   4.403   2.113 -1.8642  1.8469  0.0374
10516SOL    HW233928   7.177   4.294   2.032 -0.6976  2.9177 -2.4890
10517SOL     OW33929  10.068   8.237   0.393  0.0963 -0.0246  0.0390
10517SOL    HW133930  10.058   8.160   0.337 -0.0961  0.5669 -0.7516
10517SOL    HW233931  10.161   8.259   0.387  0.3083 -0.6469  0.8832
10518SOL     OW33932   1.038   9.400   0.113  0.0810 -0.3756  0.6019
10518SOL    HW133933   1.095   9.462   0.158  1.9108 -1.2756 -0.4155
10518SOL    HW233934   0.998   9.451   0.042  0.6033 -0.0677  0.5280
10519SOL     OW33935   2.489   7.591   7.004 -0.0993  0.4624  0.3056
10519SOL    HW133936   2.460   7.655   7.070 -1.9055  0.9142 -0.8599
10519SOL    HW233937   2.458   7.507   7.038 -0.6945  0.6464  0.2390
10520SOL     OW33938   0.047   4.554   6.210 -0.3331  0.7447 -0.0498
10520SOL    HW133939   0.070   4.506   6.290 -0.3802 -0.3711 -0.6847
10520SOL    HW233940  -0.035   4.513   6.181 -0.0107  0.7549 -0.9795
10521SOL     OW33941   8.751   0.024   6.889 -0.8841  0.0207 -0.7898
10521SOL    HW133942   8.810  -0.031   6.940  0.2008 -0.0685 -2.0869
10521SOL    HW233943   8.665  -0.015   6.903 -0.9393  0.9575  2.2354
10522SOL     OW33944   0.561   9.195  10.362  0.1071  0.2098  0.1663
10522SOL    HW133945   0.582   9.280  10.401 -0.5224  0.9741 -1.1007
10522SOL    HW233946   0.646   9.153  10.349  0.6092  1.5960 -1.2383
10523SOL     OW33947   1.486   2.201   2.481  0.1620  0.1454 -0.2720
10523SOL    HW133948   1.425   2.128   2.492  1.0406 -0.4209  1.1393
10523SOL    HW233949   1.554   2.168   2.423 -0.8171  0.7739 -1.8390
10524SOL     OW33950   5.184  10.201   8.077 -0.3760 -0.2976 -0.3496
10524SOL    HW133951   5.112  10.154   8.120 -1.0595  0.2782 -0.8313
10524SOL    HW233952   5.148  10.288   8.059  0.7258  0.2873  0.1499
10525SOL     OW33953   0.407   1.804   6.162 -0.8075  0.3115  0.7504
10525SOL    HW133954   0.465   1.728   6.160 -1.2960 -0.0783  1.1537
10525SOL    HW233955   0.372   1.810   6.073  1.0655  1.5257  0.0291
10526SOL     OW33956  10.383   3.606   7.933 -0.0594  0.3723 -0.2914
10526SOL    HW133957  10.470   3.643   7.947 -0.3843  1.2460 -0.5232
10526SOL    HW233958  10.387   3.567   7.845  0.0675  0.5216 -0.3525
10527SOL     OW33959   4.341   9.597   6.352  0.4115 -0.0618 -0.4786
10527SOL    HW133960   4.434   9.579   6.366  0.0993 -0.2719  1.9074
10527SOL    HW233961   4.319   9.664   6.417 -0.8003  1.0928 -2.0092
10528SOL     OW33962   1.712   9.397   7.374 -0.5338 -0.3266 -0.9049
10528SOL    HW133963   1.744   9.381   7.286  0.1955 -0.1740 -0.6757
10528SOL    HW233964   1.617   9.385   7.368 -0.3554 -1.6875 -1.4004
10529SOL     OW33965   6.490   0.845   8.628 -0.1476  0.3343 -0.4238
10529SOL    HW133966   6.534   0.761   8.641  0.1983  0.3497 -1.3750
10529SOL    HW233967   6.423   0.827   8.562  0.4385  0.9517 -1.2146
10530SOL     OW33968   2.195  10.243   8.302 -0.3314  0.2824 -0.0566
10530SOL    HW133969   2.288  10.239   8.325 -0.3156 -0.3815 -0.1994
10530SOL    HW233970   2.150  10.226   8.385 -0.3211  0.3692 -0.0327
10531SOL     OW33971   9.340   0.645   1.377  0.1675  0.2928 -0.3496
10531SOL    HW133972   9.259   0.616   1.418  1.0368  0.2894  1.4900
10531SOL    HW233973   9.356   0.582   1.306 -0.1429 -1.2241  0.8791
10532SOL     OW33974   8.801   6.669  10.578 -0.2846  0.5969 -0.8098
10532SOL    HW133975   8.837   6.738  10.633 -0.0457  0.0874 -0.3169
10532SOL    HW233976   8.714   6.700  10.554 -0.3825  0.8437 -0.1608
10533SOL     OW33977   2.499   7.640   1.179  0.6666 -0.7718  0.1971
10533SOL    HW133978   2.572   7.634   1.241  0.5669 -0.0100  0.3983
10533SOL    HW233979   2.541   7.664   1.096  0.5045  1.4486  0.6999
10534SOL     OW33980   4.397   0.996   5.897  0.2278  0.0184  0.0742
10534SOL    HW133981   4.390   0.991   5.801  2.2680  0.3208 -0.1254
10534SOL    HW233982   4.479   0.952   5.917  0.3387  0.8610  1.5998
10535SOL     OW33983   5.462   2.131   6.155 -0.0347  0.0928 -0.2505
10535SOL    HW133984   5.460   2.198   6.086  1.0023  0.2513 -0.1441
10535SOL    HW233985   5.385   2.150   6.208 -0.4669  0.3982 -0.9691
10536SOL     OW33986   4.258   9.807   6.213 -0.0675  0.3266 -0.2522
10536SOL    HW133987   4.193   9.802   6.142  0.9170  0.1594 -1.1609
10536SOL    HW233988   4.317   9.733   6.197  2.7722  2.7532 -1.9085
10537SOL     OW33989   6.897   1.871   6.985 -0.5282 -0.2588 -1.1319
10537SOL    HW133990   6.945   1.840   7.062 -1.5153 -1.5627 -1.0186
10537SOL    HW233991   6.965   1.884   6.919  0.1431 -0.7761 -0.5656
10538SOL     OW33992   9.565   3.811   3.354  0.7242  0.1694 -0.1864
10538SOL    HW133993   9.536   3.737   3.407  0.8754  0.0919 -0.2131
10538SOL    HW233994   9.606   3.871   3.417 -1.7948  1.5208  0.3348
10539SOL     OW33995   6.491   8.685   7.966 -0.0359  0.3653 -0.0371
10539SOL    HW133996   6.434   8.738   8.022  0.4371  0.7850  0.0598
10539SOL    HW233997   6.576   8.728   7.972  0.7097 -1.2060  1.1141
10540SOL     OW33998   2.240   3.690   3.653  0.0319 -0.7427  0.6441
10540SOL    HW133999   2.221   3.629   3.582 -2.2090  0.0632  0.4664
10540SOL    HW234000   2.250   3.774   3.610  1.5736 -0.7049  1.0391
10541SOL     OW34001  10.455  10.748   9.842  0.1024  0.4753 -0.2289
10541SOL    HW134002  10.398  10.800   9.785  0.1831  1.8330  0.8653
10541SOL    HW234003  10.451  10.660   9.806 -1.7209  0.7899 -0.9162
10542SOL     OW34004   7.198   7.136   9.994  0.4259 -0.8783  0.1352
10542SOL    HW134005   7.275   7.123   9.939  1.6035  1.0522  1.2045
10542SOL    HW234006   7.224   7.101  10.079  0.4250  0.4625  0.6997
10543SOL     OW34007   0.269   5.625   0.559  0.4498 -0.2529 -0.1852
10543SOL    HW134008   0.245   5.575   0.481 -0.6505 -1.0914  0.6525
10543SOL    HW234009   0.353   5.665   0.537  0.2611 -0.6384 -1.7138
10544SOL     OW34010   8.826   6.104   6.610 -0.2399  0.6813 -0.4666
10544SOL    HW134011   8.897   6.122   6.549 -0.7132  2.4307 -0.5782
10544SOL    HW234012   8.753   6.078   6.555 -0.0916  0.2498 -0.4640
10545SOL     OW34013   7.332   6.661   7.612 -0.0284  0.1891  0.5478
10545SOL    HW134014   7.295   6.705   7.536  0.1143  1.4053  1.1637
10545SOL    HW234015   7.421   6.697   7.619  0.5774 -1.1894  0.2883
10546SOL     OW34016  10.234   2.793   8.952 -0.0499 -0.2223 -0.3420
10546SOL    HW134017  10.184   2.845   8.890 -0.6185 -0.6377 -0.2366
10546SOL    HW234018  10.280   2.729   8.898 -0.2740 -0.3620 -0.3697
10547SOL     OW34019   0.435   9.279   5.415  0.1387  0.0706  0.4186
10547SOL    HW134020   0.378   9.343   5.371  0.5027 -0.0500 -0.2463
10547SOL    HW234021   0.523   9.302   5.387  0.2935 -0.5854  0.3502
10548SOL     OW34022   0.560   2.546   3.479 -0.6615 -0.4810  0.7002
10548SOL    HW134023   0.579   2.638   3.457 -0.5496 -0.8829 -1.0026
10548SOL    HW234024   0.482   2.551   3.534 -0.5466  0.6589  0.7949
10549SOL     OW34025   4.341   6.112   0.875 -0.4820 -0.6486  0.2275
10549SOL    HW134026   4.272   6.175   0.891 -1.7441 -1.9354  0.0376
10549SOL    HW234027   4.414   6.141   0.929 -1.5436  0.1283  1.2825
10550SOL     OW34028   6.412   1.944   3.246  0.6182 -0.1711 -0.0102
10550SOL    HW134029   6.504   1.923   3.230  1.1037  0.9812  1.0331
10550SOL    HW234030   6.411   2.040   3.254 -0.6893 -0.1583 -0.1225
10551SOL     OW34031   8.609   6.695  10.311 -0.2914 -0.1232  0.0365
10551SOL    HW134032   8.559   6.691  10.229  0.0898 -0.7276 -0.1757
10551SOL    HW234033   8.681   6.633  10.298 -0.7726 -0.9662  1.2043
10552SOL     OW34034   0.523   8.173   2.815  0.1139  0.4802 -0.3830
10552SOL    HW134035   0.510   8.151   2.723 -0.4128  2.3882 -0.8234
10552SOL    HW234036   0.578   8.251   2.813  2.5224 -1.0476  1.0636
10553SOL     OW34037   6.901   2.020   1.425  0.3043  0.4434 -0.0909
10553SOL    HW134038   6.932   1.997   1.338  0.8573  0.8116  0.0066
10553SOL    HW234039   6.908   1.939   1.475 -1.0270 -0.0540 -0.6585
10554SOL     OW34040   5.193   2.170   7.014 -0.0514 -0.2116 -0.1441
10554SOL    HW134041   5.121   2.234   7.019  0.1629  0.1415 -1.3590
10554SOL    HW234042   5.272   2.224   7.017  0.1785 -0.5759  0.8027
10555SOL     OW34043   0.918   2.127   2.344  0.0128 -0.0522  0.0589
10555SOL    HW134044   0.962   2.172   2.416  1.4778 -3.1344  1.2464
10555SOL    HW234045   0.988   2.104   2.284 -0.5382 -1.5191 -0.0489
10556SOL     OW34046   5.780   0.137   2.418 -0.0537  0.5409 -0.2592
10556SOL    HW134047   5.867   0.107   2.392 -0.6604 -0.3550 -1.3003
10556SOL    HW234048   5.725   0.059   2.416 -1.2116  1.3414 -1.0572
10557SOL     OW34049   7.975  10.018   8.267  0.5312 -0.4712  0.6796
10557SOL    HW134050   8.060  10.051   8.294  0.2532  1.4614 -0.6005
10557SOL    HW234051   7.991   9.928   8.238  2.3850  0.2668 -0.7300
10558SOL     OW34052   9.565   7.606   6.580 -0.4933 -0.2051  0.0190
10558SOL    HW134053   9.522   7.681   6.541 -1.1675 -0.7376 -0.2926
10558SOL    HW234054   9.606   7.560   6.507 -2.5998 -1.7502 -0.2704
10559SOL     OW34055   4.359  10.174   2.374  0.1610  0.0784 -0.2653
10559SOL    HW134056   4.332  10.085   2.349  1.4639 -0.0506 -1.3290
10559SOL    HW234057   4.448  10.164   2.407  0.0372  0.8960  0.3403
10560SOL     OW34058  10.031   9.281  10.681  0.5577  0.4797 -0.7280
10560SOL    HW134059  10.021   9.324  10.596 -1.5273 -2.5460 -2.1983
10560SOL    HW234060  10.060   9.192  10.659 -0.1921 -0.4477  1.7260
10561SOL     OW34061   0.423   4.202   4.539  0.0406  0.3578 -0.0392
10561SOL    HW134062   0.388   4.193   4.628  0.6729  0.0398  0.1850
10561SOL    HW234063   0.477   4.280   4.542  1.3581 -0.5443  0.3009
10562SOL     OW34064  10.678   3.576   9.015 -0.4213  0.5502 -0.2401
10562SOL    HW134065  10.589   3.564   8.983 -0.2298  0.1972 -0.6555
10562SOL    HW234066  10.683   3.669   9.036 -0.6680  0.7255 -0.9170
10563SOL     OW34067   5.897   4.025   8.659 -0.6442  0.1456 -0.0187
10563SOL    HW134068   5.950   3.979   8.594 -1.5586 -1.7636  0.5105
10563SOL    HW234069   5.932   3.996   8.743 -1.0456  0.6715  0.3336
10564SOL     OW34070   0.390   3.834  10.637 -0.2048 -0.0656  0.1176
10564SOL    HW134071   0.390   3.798  10.549  1.3282 -0.1037  0.1090
10564SOL    HW234072   0.374   3.759  10.694  1.0980 -0.4558 -0.0077
10565SOL     OW34073   2.351   6.898   9.013  0.2570 -0.3838 -0.5614
10565SOL    HW134074   2.446   6.905   9.027  0.2787  1.8650 -1.3545
10565SOL    HW234075   2.313   6.942   9.089 -0.0465  0.6308 -1.2815
10566SOL     OW34076   7.554   9.666   9.906 -0.3765 -0.1448  0.6147
10566SOL    HW134077   7.605   9.595   9.946  0.6131  1.0288  1.5096
10566SOL    HW234078   7.463   9.639   9.918 -0.0289 -1.9411 -0.3669
10567SOL     OW34079   3.030   0.527   1.474  0.0909  0.0859  0.0783
10567SOL    HW134080   2.937   0.544   1.460  0.2423  0.9975  0.1326
10567SOL    HW234081   3.075   0.596   1.426  0.7458 -0.4105 -0.0359
10568SOL     OW34082   8.159   3.820   8.361 -0.2426  0.2941  0.3677
10568SOL    HW134083   8.174   3.725   8.362  1.8924  0.5061 -1.5202
10568SOL    HW234084   8.091   3.834   8.426  1.9769 -2.1090  3.5676
10569SOL     OW34085   1.060   2.037   8.777 -1.1406 -0.1256 -0.0122
10569SOL    HW134086   1.143   2.081   8.759  0.4464 -1.8763  2.3990
10569SOL    HW234087   1.027   2.012   8.690  1.9605 -1.2366 -0.9972
10570SOL     OW34088  10.688   5.907   5.871  0.4828 -0.2434 -0.3294
10570SOL    HW134089  10.715   5.993   5.902 -1.0177  1.1572 -2.5458
10570SOL    HW234090  10.661   5.860   5.949  2.1789  0.9337  1.0428
10571SOL     OW34091   5.941  10.398   6.017  0.6243  0.2462  0.3871
10571SOL    HW134092   5.904  10.484   6.000  2.4876  1.1141  0.4993
10571SOL    HW234093   5.903  10.342   5.949 -1.5205  0.8372  1.0184
10572SOL     OW34094  10.105   8.009   2.773  0.3477 -0.0920 -0.0360
10572SOL    HW134095  10.198   7.999   2.793  0.1900  1.8761  2.1131
10572SOL    HW234096  10.066   8.040   2.855 -1.6310  2.1554 -1.6784
10573SOL     OW34097  10.585   2.269   1.350 -0.2584 -0.4907 -0.0005
10573SOL    HW134098  10.570   2.361   1.325 -2.4824 -0.6061  0.6911
10573SOL    HW234099  10.519   2.220   1.301 -0.1410 -1.5266  0.8488
10574SOL     OW34100   6.773   1.817   8.032  0.5980  0.3716  0.0580
10574SOL    HW134101   6.831   1.794   7.959 -1.1134 -0.2848 -1.1565
10574SOL    HW234102   6.824   1.879   8.084  2.2666  0.0580 -1.0998
10575SOL     OW34103   1.664   3.269   4.858 -0.0455  0.1839 -0.7647
10575SOL    HW134104   1.591   3.207   4.866 -0.0672 -0.0954 -2.6796
10575SOL    HW234105   1.710   3.242   4.778  2.0763  0.4620  0.2893
10576SOL     OW34106   9.066  10.019  10.269 -0.2323 -0.3584 -0.2805
10576SOL    HW134107   9.002   9.949  10.277  0.0956 -0.5892  0.4207
10576SOL    HW234108   9.148   9.974  10.248  0.0824 -0.2379  0.6536
10577SOL     OW34109   3.735   5.909   9.964 -0.5655 -0.1453  0.1670
10577SOL    HW134110   3.681   5.987   9.953 -3.1011 -1.9528 -1.4391
10577SOL    HW234111   3.777   5.898   9.878 -0.2812 -0.5984  0.3631
10578SOL     OW34112   9.863   2.079   4.650  0.0378  0.0958  0.0001
10578SOL    HW134113   9.824   1.999   4.614  0.0909  0.6125 -1.2302
10578SOL    HW234114   9.827   2.150   4.597  1.4276  0.7299 -0.1332
10579SOL     OW34115   5.164   7.794   2.279 -0.5758 -0.1073  0.1372
10579SOL    HW134116   5.104   7.723   2.257 -0.6111  0.1031 -0.4811
10579SOL    HW234117   5.216   7.807   2.199 -0.2889  0.2839  0.3831
10580SOL     OW34118   5.634   3.118   1.519  0.2293 -0.7266 -0.0742
10580SOL    HW134119   5.679   3.050   1.569 -0.9879 -2.4556 -1.2288
10580SOL    HW234120   5.548   3.081   1.499 -0.3304  1.0010 -1.0918
10581SOL     OW34121   5.076   4.469   4.051  0.2596  0.1207 -0.2005
10581SOL    HW134122   5.008   4.534   4.069  0.7303  1.3466 -2.4705
10581SOL    HW234123   5.128   4.507   3.981  1.9206 -1.7840 -0.1047
10582SOL     OW34124   1.507  10.688  10.092  0.2541  0.5842 -0.3605
10582SOL    HW134125   1.584  10.680  10.148  0.2280 -1.4700 -0.5189
10582SOL    HW234126   1.541  10.671  10.004 -0.4744 -1.5363 -0.3055
10583SOL     OW34127   1.099   1.237   7.986 -0.0318 -0.5421  0.1531
10583SOL    HW134128   1.169   1.269   8.043 -0.0524  0.5503 -0.4014
10583SOL    HW234129   1.061   1.317   7.948  0.6246 -1.2134 -2.1119
10584SOL     OW34130   7.373   3.403   6.982  0.1679 -0.1429  0.1609
10584SOL    HW134131   7.335   3.334   7.036 -1.2910 -1.1212 -1.9473
10584SOL    HW234132   7.308   3.473   6.983 -0.1099 -0.3743 -0.6699
10585SOL     OW34133   7.690   5.711   7.183 -0.2472 -0.1216 -0.4525
10585SOL    HW134134   7.683   5.643   7.250  0.8319  0.1553 -0.0354
10585SOL    HW234135   7.689   5.794   7.232  0.9170  0.0707 -0.7211
10586SOL     OW34136   8.874   8.182   2.953 -0.1805 -0.6559  0.1558
10586SOL    HW134137   8.850   8.203   2.863  1.1939  1.3213  0.1893
10586SOL    HW234138   8.954   8.128   2.945  1.2388  1.3464  0.1558
10587SOL     OW34139   2.670   0.202   3.833  0.4752 -0.1584 -0.3539
10587SOL    HW134140   2.701   0.113   3.814 -0.1293 -0.7917  1.3435
10587SOL    HW234141   2.749   0.253   3.848  0.8087 -0.7827  0.0613
10588SOL     OW34142   1.385   8.996   5.979 -0.0687  0.1858 -0.5501
10588SOL    HW134143   1.324   9.067   6.000 -1.3432 -1.0146 -0.0082
10588SOL    HW234144   1.381   8.989   5.883 -0.3508  0.4977 -0.5620
10589SOL     OW34145   9.371   1.185   9.325  0.1053  0.0220 -0.5135
10589SOL    HW134146   9.330   1.255   9.274 -0.8844 -0.4767 -0.4331
10589SOL    HW234147   9.341   1.201   9.415 -1.3490 -1.3210 -0.7138
10590SOL     OW34148   3.267   8.602   7.618 -0.3674 -0.5295  0.4126
10590SOL    HW134149   3.319   8.632   7.544 -1.4234  2.2089  0.6475
10590SOL    HW234150   3.314   8.634   7.695 -1.0558 -0.2576  0.7372
10591SOL     OW34151   2.453   4.418   5.838 -0.1680  0.1400  0.5812
10591SOL    HW134152   2.457   4.458   5.751  0.1873 -0.8478  0.1268
10591SOL    HW234153   2.516   4.467   5.891  0.8138 -0.2834 -0.1652
10592SOL     OW34154   6.096  10.663   1.457  0.1304  0.3372  0.1222
10592SOL    HW134155   6.069  10.691   1.369  1.1919  1.0728  0.0143
10592SOL    HW234156   6.178  10.709   1.473 -0.7570  1.3383  2.0998
10593SOL     OW34157   7.035   4.879   8.157  0.5228 -0.2541  0.4014
10593SOL    HW134158   6.943   4.854   8.165  0.2939  0.8725  1.5251
10593SOL    HW234159   7.042   4.915   8.068  0.3514 -2.0917 -0.4038
10594SOL     OW34160   2.929   1.890   9.517  0.5181  0.0180 -0.2149
10594SOL    HW134161   2.934   1.808   9.566 -1.9033  0.0155  0.1526
10594SOL    HW234162   2.875   1.870   9.441 -0.5962  1.3506  0.1655
10595SOL     OW34163   6.947   1.161   7.816 -0.5228 -0.1449  0.1589
10595SOL    HW134164   7.018   1.107   7.851 -0.6373 -0.3572  0.0605
10595SOL    HW234165   6.877   1.099   7.796 -0.3987 -0.0412 -0.6061
10596SOL     OW34166   1.292   3.030   0.354  0.2097 -0.6256  0.1590
10596SOL    HW134167   1.305   3.123   0.373  0.1102 -0.8941  1.6659
10596SOL    HW234168   1.350   3.012   0.280 -2.6268  1.5211 -2.8993
10597SOL     OW34169   8.353   2.126   5.986  0.0838 -0.0505 -0.2351
10597SOL    HW134170   8.290   2.188   5.949 -0.2179 -0.3273 -0.1946
10597SOL    HW234171   8.427   2.128   5.925 -0.3765 -0.4389 -0.8262
10598SOL     OW34172   4.716   4.545   3.766 -0.3934  0.5342 -0.4172
10598SOL    HW134173   4.707   4.586   3.852  1.4682  1.1561 -0.4710
10598SOL    HW234174   4.790   4.486   3.775 -1.1493 -0.5655 -1.1910
10599SOL     OW34175   0.553   4.163   8.164 -0.0077  0.0999  0.5014
10599SOL    HW134176   0.623   4.164   8.229  1.0453  1.2621 -0.6104
10599SOL    HW234177   0.525   4.254   8.156  1.1873  0.3450 -1.9781
10600SOL     OW34178   8.400   1.567   8.753  0.5986 -0.2725 -0.2841
10600SOL    HW134179   8.450   1.492   8.783  0.3699 -1.0593 -1.7950
10600SOL    HW234180   8.327   1.530   8.704 -0.3302  0.9066  0.1329
10601SOL     OW34181  10.749   3.173   6.096 -0.3722 -0.1503  0.0866
10601SOL    HW134182  10.841   3.174   6.121 -0.3693  0.1105  0.0654
10601SOL    HW234183  10.706   3.225   6.163 -0.5480 -0.5125  0.2607
10602SOL     OW34184   2.733   8.412   0.861  0.1814 -0.6405 -0.0862
10602SOL    HW134185   2.744   8.329   0.908 -3.0214  0.2756  2.6738
10602SOL    HW234186   2.768   8.478   0.921  0.8076  0.2176 -1.3478
10603SOL     OW34187   0.871   5.862   3.598  0.1643 -0.3460 -0.2473
10603SOL    HW134188   0.859   5.835   3.507  2.6103 -3.0064  0.0727
10603SOL    HW234189   0.938   5.931   3.594  1.5852 -1.6855 -0.4146
10604SOL     OW34190   0.215   8.132   7.432  0.5786  0.4163 -0.2456
10604SOL    HW134191   0.255   8.055   7.392 -0.2843 -1.1911  1.8222
10604SOL    HW234192   0.283   8.168   7.489  0.2460 -0.2731  0.6153
10605SOL     OW34193   0.814   6.789   7.239 -0.3015 -0.4936 -0.6641
10605SOL    HW134194   0.842   6.880   7.249 -1.1706 -0.2364 -0.4590
10605SOL    HW234195   0.895   6.740   7.224  0.4707 -0.0401  1.6773
10606SOL     OW34196   0.666   3.741   5.698 -0.3235  0.0776 -0.0746
10606SOL    HW134197   0.584   3.731   5.650  1.0100 -0.9512 -2.3146
10606SOL    HW234198   0.706   3.820   5.663  0.6746 -0.6929 -0.7534
10607SOL     OW34199   6.631   9.074   0.936 -0.5216 -0.1547 -0.4831
10607SOL    HW134200   6.633   9.041   0.846 -0.1299  2.0563 -1.3446
10607SOL    HW234201   6.661   9.164   0.929 -0.8012  0.1777  1.8508
10608SOL     OW34202   0.275   0.957   4.577  0.0766  0.0372 -0.4568
10608SOL    HW134203   0.344   1.014   4.542 -0.4556  0.8070 -0.2629
10608SOL    HW234204   0.276   0.881   4.519  3.7498 -1.8939  1.7196
10609SOL     OW34205   1.809   5.112   4.253 -0.0247  0.8427  0.4182
10609SOL    HW134206   1.842   5.124   4.164  0.7736  2.0493  0.8571
10609SOL    HW234207   1.866   5.044   4.290  0.7255  1.5146  0.5306
10610SOL     OW34208   6.772   6.279   1.722 -0.2116 -0.0994 -0.4010
10610SOL    HW134209   6.696   6.235   1.683 -1.2795  0.5931  0.8562
10610SOL    HW234210   6.844   6.256   1.663 -0.6626 -3.5687  0.1482
10611SOL     OW34211   9.153   0.265   1.959  0.0452  0.1713  0.0998
10611SOL    HW134212   9.232   0.314   1.981  0.6032 -0.2752 -0.8572
10611SOL    HW234213   9.102   0.265   2.040  0.6401  1.1739  0.4931
10612SOL     OW34214   3.426   4.542   0.960 -0.1558 -0.1050  0.6582
10612SOL    HW134215   3.391   4.594   1.032 -0.8587  0.5196 -0.1079
10612SOL    HW234216   3.401   4.452   0.981 -1.3875  0.2065  0.6305
10613SOL     OW34217   3.980   9.562   8.802  0.1555  0.0400 -0.1683
10613SOL    HW134218   3.929   9.595   8.875  0.5657  1.1867 -0.3876
10613SOL    HW234219   4.048   9.508   8.842 -1.2771 -1.6552  0.1204
10614SOL     OW34220   0.533   9.128   1.067  0.1471  0.2033 -0.4056
10614SOL    HW134221   0.518   9.120   0.973  0.2323  1.7942 -0.5794
10614SOL    HW234222   0.627   9.146   1.075 -0.3787  3.6404 -0.3551
10615SOL     OW34223   8.047   7.901   8.515 -0.6560  0.4781 -0.0610
10615SOL    HW134224   8.082   7.823   8.473  2.1445  2.0027 -0.7928
10615SOL    HW234225   7.957   7.878   8.537  0.5421 -3.5700  1.4446
10616SOL     OW34226   9.385   7.358   2.569  0.6793  0.5721 -0.3830
10616SOL    HW134227   9.352   7.394   2.651  0.6011  0.2692 -0.2810
10616SOL    HW234228   9.383   7.432   2.508 -1.8587  0.2172 -0.8835
10617SOL     OW34229   6.735   9.327   7.456  0.2065  0.1858 -0.0402
10617SOL    HW134230   6.816   9.307   7.502 -0.1867 -0.0639  0.5604
10617SOL    HW234231   6.762   9.347   7.366  1.0805  1.5076  0.4902
10618SOL     OW34232   4.961   0.152   0.488 -0.0702 -0.3380 -0.1070
10618SOL    HW134233   4.996   0.069   0.454 -0.4536  0.4318 -2.5900
10618SOL    HW234234   4.866   0.141   0.486 -0.1040 -0.3639  1.0523
10619SOL     OW34235   9.330   7.059   0.343  0.3496 -0.0297  0.2296
10619SOL    HW134236   9.373   7.106   0.272  0.4272 -0.2640  0.1180
10619SOL    HW234237   9.344   7.113   0.420  0.3893  0.1551  0.0915
10620SOL     OW34238   7.730   5.997   1.692 -0.0014  0.3199 -0.0571
10620SOL    HW134239   7.683   6.074   1.723 -2.1212 -1.2055  0.8021
10620SOL    HW234240   7.822   6.017   1.706 -0.4840  2.6873  0.0800
10621SOL     OW34241   6.949   9.712   5.054 -0.5448  0.0839  0.0816
10621SOL    HW134242   6.885   9.779   5.079 -1.1938 -0.3742 -0.3282
10621SOL    HW234243   6.972   9.733   4.963 -1.3129 -0.6808 -0.2970
10622SOL     OW34244   9.071   3.163   4.176  0.3138 -0.6133 -0.1644
10622SOL    HW134245   9.041   3.253   4.185  0.7687 -0.2955 -1.6502
10622SOL    HW234246   9.156   3.161   4.220 -0.4634 -0.7878  1.4191
10623SOL     OW34247   5.171   2.174   6.141 -0.1524 -0.1771  0.3093
10623SOL    HW134248   5.132   2.162   6.054  1.7848 -0.7108 -0.5318
10623SOL    HW234249   5.196   2.267   6.143 -2.1178  0.3832  1.1805
10624SOL     OW34250   3.938   9.276   2.230  0.6902 -0.5932  0.8301
10624SOL    HW134251   4.022   9.280   2.276  0.6532 -0.6102  0.8998
10624SOL    HW234252   3.881   9.336   2.278  0.1377 -1.8781  1.8673
10625SOL     OW34253   3.144   1.899   3.575  0.4000  0.2103  0.0606
10625SOL    HW134254   3.127   1.925   3.665  1.1538 -1.5254  0.7500
10625SOL    HW234255   3.058   1.889   3.536  0.0687  2.2706  0.1443
10626SOL     OW34256  10.606   5.782   8.590  0.4617  0.3852 -0.1440
10626SOL    HW134257  10.583   5.766   8.499  0.8268 -0.9960 -0.0186
10626SOL    HW234258  10.650   5.868   8.589 -0.8253  1.0693 -1.0139
10627SOL     OW34259   8.483   1.916   7.930  0.3423 -0.3068  0.1213
10627SOL    HW134260   8.576   1.910   7.950  0.8437  1.0938 -1.6037
10627SOL    HW234261   8.473   1.867   7.848  0.0305  1.4828 -0.9536
10628SOL     OW34262   4.347   9.175   0.603 -0.3133  0.2711  0.2508
10628SOL    HW134263   4.403   9.111   0.647 -2.4809 -2.0139 -0.0586
10628SOL    HW234264   4.341   9.144   0.513 -2.4118  0.1233  0.3879
10629SOL     OW34265   8.244   3.337   3.376 -0.2102  0.7590 -0.3775
10629SOL    HW134266   8.196   3.270   3.424 -0.1365  0.6510 -0.4537
10629SOL    HW234267   8.336   3.316   3.391 -0.1875  0.6883 -0.6139
10630SOL     OW34268   8.273   0.654   0.543 -0.4542 -0.1523  0.3070
10630SOL    HW134269   8.273   0.700   0.627 -0.8172  1.0774 -0.3384
10630SOL    HW234270   8.248   0.564   0.565  1.4465 -0.3897  1.7619
10631SOL     OW34271   3.308   4.710   7.909  0.3439 -0.6670  0.4869
10631SOL    HW134272   3.222   4.719   7.952 -0.0158  0.9946 -0.4825
10631SOL    HW234273   3.334   4.620   7.927 -2.1066 -1.5770 -0.0924
10632SOL     OW34274   5.027  10.084   8.305 -0.1093 -0.0212 -0.6507
10632SOL    HW134275   5.039  10.054   8.395 -0.5372 -1.5521 -1.0687
10632SOL    HW234276   4.960  10.152   8.311  0.2631  0.2756  0.2413
10633SOL     OW34277  10.448   9.312   7.936  0.6754  0.0072 -0.0628
10633SOL    HW134278  10.437   9.288   8.028 -0.4666  1.1390  0.1236
10633SOL    HW234279  10.526   9.264   7.908  2.0327  0.9074  1.9459
10634SOL     OW34280   2.153   2.222   8.537  0.2689  0.1679 -0.1795
10634SOL    HW134281   2.116   2.239   8.623  0.2743  2.2435 -0.5297
10634SOL    HW234282   2.246   2.205   8.553  0.4488  1.4140  0.1712
10635SOL     OW34283   8.507   1.033  10.178 -0.3238 -0.3626 -0.2555
10635SOL    HW134284   8.566   1.093  10.223  0.5136  0.3429 -2.1729
10635SOL    HW234285   8.498   0.958  10.237  0.8264  0.4343  0.9746
10636SOL     OW34286   1.345   5.495   2.732 -0.4808  0.4453 -0.1819
10636SOL    HW134287   1.364   5.413   2.685  0.8609  1.1426 -0.9076
10636SOL    HW234288   1.423   5.512   2.784 -1.4575  0.3628  1.3676
10637SOL     OW34289   2.623   1.058   6.570  0.6921 -0.6634 -0.7503
10637SOL    HW134290   2.568   1.088   6.642  2.3172 -0.0546  0.2857
10637SOL    HW234291   2.575   0.984   6.533 -0.1440 -1.0621  1.0248
10638SOL     OW34292   7.135   8.488   0.394 -0.3974 -0.1149 -0.5047
10638SOL    HW134293   7.164   8.570   0.433 -0.2924 -0.1711 -0.4630
10638SOL    HW234294   7.041   8.497   0.385 -0.5501 -0.4804  0.6324
10639SOL     OW34295   0.388   9.407   7.501 -0.0019  0.8927  0.2670
10639SOL    HW134296   0.333   9.484   7.489 -0.5305  0.2795 -1.5999
10639SOL    HW234297   0.387   9.363   7.415  1.3516 -0.4798  0.9072
10640SOL     OW34298   9.017   8.175   6.216  0.6257 -0.0624  0.0172
10640SOL    HW134299   9.014   8.129   6.132 -0.4699 -0.9117  0.4968
10640SOL    HW234300   8.983   8.263   6.196 -0.6265 -0.5894 -0.2333
10641SOL     OW34301   0.534   8.006   9.077  0.4030 -0.5843  0.0544
10641SOL    HW134302   0.506   7.984   9.166  0.6310 -1.8925 -0.1724
10641SOL    HW234303   0.497   7.936   9.022 -0.8813  0.9214 -1.1019
10642SOL     OW34304   8.052  10.103   9.986  0.0080  0.1249  0.4611
10642SOL    HW134305   8.104  10.071  10.060  0.5188 -1.5876 -0.5902
10642SOL    HW234306   7.987  10.035   9.972  0.6433 -0.1412 -1.3810
10643SOL     OW34307   4.844   3.725   0.854  0.6836  0.4814  0.2567
10643SOL    HW134308   4.803   3.699   0.936 -2.2067  2.3282 -0.4503
10643SOL    HW234309   4.864   3.642   0.810 -2.3433 -0.6275  0.7392
10644SOL     OW34310   1.834  10.592   8.084 -0.4461 -0.4367  0.0554
10644SOL    HW134311   1.823  10.549   7.999 -0.9521  0.9180 -0.5971
10644SOL    HW234312   1.928  10.601   8.095 -0.2819 -2.3508  0.5698
10645SOL     OW34313   0.473  10.181   5.434 -0.0955  0.2456  0.2295
10645SOL    HW134314   0.560  10.212   5.460  0.1422 -0.3203  0.1155
10645SOL    HW234315   0.414  10.252   5.461  0.3749  0.5508  0.4819
10646SOL     OW34316   1.747   4.427   6.858 -0.1066 -0.2193 -0.1879
10646SOL    HW134317   1.665   4.395   6.821 -0.2825  0.8163 -0.7379
10646SOL    HW234318   1.749   4.520   6.835  0.6612  0.0359  0.8484
10647SOL     OW34319   7.589   9.572   1.818 -0.3150  0.3838  0.2923
10647SOL    HW134320   7.676   9.563   1.857  0.7301 -0.9868 -2.1778
10647SOL    HW234321   7.581   9.665   1.799 -0.4299  0.9247  2.6527
10648SOL     OW34322   1.184   0.292   4.474  0.1615 -0.1074  0.2067
10648SOL    HW134323   1.229   0.246   4.403  1.2081  0.5258  0.4386
10648SOL    HW234324   1.170   0.226   4.541 -1.1221 -0.7929 -0.6894
10649SOL     OW34325   2.410   4.908   4.583  0.4572  0.1172 -0.4330
10649SOL    HW134326   2.416   4.845   4.655  0.6900  0.2202 -0.3630
10649SOL    HW234327   2.364   4.983   4.620 -1.8264 -0.8761 -1.1071
10650SOL     OW34328   1.904   6.838   5.582 -0.0836  0.4344 -0.1076
10650SOL    HW134329   1.958   6.916   5.578  0.2934  0.1189 -1.8826
10650SOL    HW234330   1.955   6.770   5.538  0.0337 -1.1346  2.2262
10651SOL     OW34331   3.812   6.250   6.315  0.2294 -0.1485  0.1286
10651SOL    HW134332   3.897   6.229   6.276 -0.5493 -1.4312 -0.9867
10651SOL    HW234333   3.802   6.344   6.300 -0.0517 -0.5558 -3.0150
10652SOL     OW34334   1.423   1.870   3.397  0.0079 -0.4268  0.4264
10652SOL    HW134335   1.501   1.901   3.350 -0.7063  0.0765 -0.4617
10652SOL    HW234336   1.437   1.897   3.488  1.8518 -2.2460  0.7442
10653SOL     OW34337   3.761   5.527   2.008  0.3686  0.1249  0.5066
10653SOL    HW134338   3.683   5.507   1.955  1.2756  2.8840 -2.0891
10653SOL    HW234339   3.733   5.597   2.066  0.0339 -1.3326  2.2125
10654SOL     OW34340   4.726   0.186   3.742  0.0436  0.1278 -0.0732
10654SOL    HW134341   4.736   0.096   3.712 -0.6044 -0.0556  0.2494
10654SOL    HW234342   4.676   0.229   3.673  0.6495  0.3405 -0.3924
10655SOL     OW34343   8.546  10.147   1.293  0.0227 -0.1844 -0.5913
10655SOL    HW134344   8.455  10.121   1.305 -0.2246  0.5331 -0.8077
10655SOL    HW234345   8.571  10.109   1.209 -0.3065  0.2091 -0.8689
10656SOL     OW34346   8.389   4.797   9.694  0.1392 -0.2543 -0.1624
10656SOL    HW134347   8.376   4.834   9.782  0.4057 -0.1368 -0.1705
10656SOL    HW234348   8.362   4.706   9.703 -0.6695 -0.0191 -0.1830
10657SOL     OW34349   8.716   0.294   3.170 -0.3040  0.1285  0.5915
10657SOL    HW134350   8.665   0.225   3.128 -1.9945  0.1184  2.5351
10657SOL    HW234351   8.684   0.298   3.260 -0.2688  3.3965  0.6045
10658SOL     OW34352   5.830   6.828   7.358  0.7049  0.1585 -0.0443
10658SOL    HW134353   5.917   6.868   7.354  0.7539  0.5339  2.9141
10658SOL    HW234354   5.805   6.832   7.450 -2.3484 -0.2294 -0.7365
10659SOL     OW34355   6.647   8.596   6.615 -0.2157 -0.4087 -0.0550
10659SOL    HW134356   6.639   8.645   6.697  0.1710  1.4769 -1.0845
10659SOL    HW234357   6.738   8.609   6.588 -0.1149 -1.6837 -0.4164
10660SOL     OW34358   6.418   4.257   3.700  0.1589  0.2325 -0.1543
10660SOL    HW134359   6.335   4.210   3.704  0.0901  0.2830 -0.8781
10660SOL    HW234360   6.396   4.340   3.656  0.5069  0.4268  0.0386
10661SOL     OW34361   8.528   3.148   4.517  0.3324 -0.2171 -0.0135
10661SOL    HW134362   8.452   3.123   4.571  0.1556  0.4401  0.0519
10661SOL    HW234363   8.497   3.222   4.465  0.9314  0.0597  0.0168
10662SOL     OW34364   5.957   5.444   9.405 -0.7367 -0.5321  0.3151
10662SOL    HW134365   5.910   5.518   9.367  0.9340 -1.0274 -3.2066
10662SOL    HW234366   5.889   5.380   9.426 -1.9027  0.0094 -1.5666
10663SOL     OW34367  10.476   6.994   1.050  0.3165  0.1259  0.0518
10663SOL    HW134368  10.461   7.054   1.124  0.5468  1.1092 -0.6791
10663SOL    HW234369  10.389   6.982   1.012  0.4763  1.2441 -0.7206
10664SOL     OW34370   3.706   8.671   4.770  0.8215  0.0876  0.2217
10664SOL    HW134371   3.658   8.624   4.701  2.1332 -0.0454 -0.6406
10664SOL    HW234372   3.672   8.636   4.852  1.0105 -1.6121 -0.3971
10665SOL     OW34373   1.787   0.353   3.672 -0.5951  0.1726  0.1798
10665SOL    HW134374   1.818   0.326   3.586 -0.9603 -0.4957  0.2513
10665SOL    HW234375   1.712   0.296   3.689 -2.5838  2.4211 -0.4520
10666SOL     OW34376   3.896   5.423   1.607 -0.4472 -0.1753 -0.1571
10666SOL    HW134377   3.954   5.349   1.590  0.4581  0.7493 -1.2573
10666SOL    HW234378   3.928   5.492   1.551 -1.3828  1.0208  0.7169
10667SOL     OW34379   6.784   1.240   8.981  0.1364  0.1327 -0.0695
10667SOL    HW134380   6.825   1.181   8.918 -0.1446  1.5406 -1.6238
10667SOL    HW234381   6.690   1.230   8.965  0.1087  1.5744 -0.9286
10668SOL     OW34382   2.164  10.511   7.074  0.3622  0.0007 -0.0493
10668SOL    HW134383   2.220  10.587   7.056 -0.1138  0.2163 -0.6670
10668SOL    HW234384   2.123  10.491   6.990  0.4322 -0.9119  0.1173
10669SOL     OW34385   0.198   6.910   6.052  0.1589 -0.1382  0.6592
10669SOL    HW134386   0.263   6.925   6.120 -0.4018 -1.9166  1.6508
10669SOL    HW234387   0.193   6.815   6.044 -1.7748 -0.0286  0.0735
10670SOL     OW34388   6.427   7.885   1.266 -0.3097 -0.1584  0.6558
10670SOL    HW134389   6.342   7.928   1.258  0.3902  0.9566 -1.3521
10670SOL    HW234390   6.464   7.887   1.178  2.1209  0.0175  1.6036
10671SOL     OW34391   4.155  10.673   7.240  0.0215  0.4605 -0.5220
10671SOL    HW134392   4.248  10.684   7.259  0.0329 -0.0978 -0.2460
10671SOL    HW234393   4.152  10.608   7.170 -0.0529  2.0756 -2.0978
10672SOL     OW34394   3.016   4.047   7.681  0.5325  0.0812 -1.1418
10672SOL    HW134395   2.969   4.105   7.620  1.4182 -0.1016 -2.0226
10672SOL    HW234396   3.026   3.965   7.633 -0.3802 -0.7162 -0.0434
10673SOL     OW34397   1.488   7.970  10.237  0.1070 -0.5232 -0.0570
10673SOL    HW134398   1.574   7.974  10.195  0.9301  3.2538  1.5386
10673SOL    HW234399   1.450   7.889  10.206  3.4886 -1.4685 -2.3103
10674SOL     OW34400   4.177   8.096   6.382 -0.4392 -0.0665  0.1684
10674SOL    HW134401   4.109   8.037   6.349  1.0283 -0.5208 -2.2585
10674SOL    HW234402   4.194   8.156   6.309  2.4700 -0.6254  0.2853
10675SOL     OW34403  10.773   7.790   1.382  1.4376 -0.3345  0.9382
10675SOL    HW134404  10.859   7.752   1.363  2.1124  0.1644  2.8376
10675SOL    HW234405  10.744   7.743   1.460  0.6216  0.5035  1.1431
10676SOL     OW34406   3.996   6.843   7.921  0.5000 -0.3684 -0.4288
10676SOL    HW134407   3.936   6.797   7.862  0.1736 -0.3866 -0.0910
10676SOL    HW234408   3.955   6.928   7.935  1.2100  0.1230 -1.2223
10677SOL     OW34409   3.138   8.488   9.197  0.1030 -0.2157 -0.5313
10677SOL    HW134410   3.166   8.579   9.185 -2.3479  0.6994  0.0923
10677SOL    HW234411   3.074   8.491   9.268  0.0872 -2.4818 -0.3665
10678SOL     OW34412   2.513   8.356   4.435 -0.1313  0.0293 -0.6687
10678SOL    HW134413   2.545   8.372   4.346  1.1252  2.0588  0.0623
10678SOL    HW234414   2.464   8.435   4.458  0.6461  0.1290  0.8384
10679SOL     OW34415   4.739   9.249   6.742  0.4088 -0.5722  0.1414
10679SOL    HW134416   4.659   9.281   6.700  1.7967  1.4064 -1.2111
10679SOL    HW234417   4.763   9.171   6.693 -0.0932 -0.5237 -0.1819
10680SOL     OW34418   9.184   2.921   9.468  0.3159 -0.0767  0.6228
10680SOL    HW134419   9.106   2.871   9.491 -0.4345  0.4995 -0.5536
10680SOL    HW234420   9.191   2.988   9.536 -0.8434  0.5183  0.1835
10681SOL     OW34421   2.352   5.738   8.613 -0.3183  0.3078  0.4918
10681SOL    HW134422   2.361   5.741   8.709 -0.5950  2.3825  0.4945
10681SOL    HW234423   2.441   5.725   8.581 -0.0789  0.6205  1.0136
10682SOL     OW34424   9.307  10.774   3.655  0.3626  0.5335 -0.9382
10682SOL    HW134425   9.337  10.847   3.710  1.4967 -0.8043  0.2834
10682SOL    HW234426   9.269  10.712   3.716  2.6547 -1.5060 -1.4208
10683SOL     OW34427   3.435   5.422   2.727 -0.4982 -0.3158 -0.4605
10683SOL    HW134428   3.344   5.451   2.725 -0.5934 -0.5984 -0.2670
10683SOL    HW234429   3.486   5.501   2.710 -0.6913  0.2840  1.4881
10684SOL     OW34430   4.164   8.541   1.241 -0.6531  0.6797 -0.3217
10684SOL    HW134431   4.072   8.550   1.213 -1.3943 -1.5879  1.0985
10684SOL    HW234432   4.211   8.521   1.160 -1.8131 -0.3627 -0.7700
10685SOL     OW34433   6.575   5.034   5.791 -0.5944  0.0265 -0.0903
10685SOL    HW134434   6.567   4.942   5.814  2.2928  0.2092  2.2853
10685SOL    HW234435   6.668   5.054   5.805 -1.1636  3.3382 -0.2770
10686SOL     OW34436   7.346   0.701   2.694  0.4567 -0.0254  0.0818
10686SOL    HW134437   7.293   0.622   2.706  0.5792  0.1062  1.7424
10686SOL    HW234438   7.282   0.773   2.696  0.4058 -0.0328 -0.8660
10687SOL     OW34439   5.673   1.000   7.809 -0.4379 -0.0044  0.0670
10687SOL    HW134440   5.608   0.948   7.762 -1.7877  0.8975  0.8718
10687SOL    HW234441   5.648   1.091   7.792  0.0053  0.3463  1.2033
10688SOL     OW34442   4.594   7.082   2.053 -0.5188 -0.0058  0.1158
10688SOL    HW134443   4.617   7.151   2.115 -0.4396 -0.0328  0.1171
10688SOL    HW234444   4.623   7.114   1.968 -0.2352 -0.1532  0.1560
10689SOL     OW34445   3.300   0.439   7.236  0.0516 -0.4026  0.0535
10689SOL    HW134446   3.315   0.531   7.218 -0.7507 -0.1940  0.3651
10689SOL    HW234447   3.337   0.393   7.162 -1.6290  0.3135 -1.3006
10690SOL     OW34448   5.958   2.205   1.354  0.1626 -0.4917 -0.3225
10690SOL    HW134449   5.867   2.176   1.353  0.1439 -0.4839  0.4749
10690SOL    HW234450   5.990   2.183   1.442  0.3787  1.1749  0.0511
10691SOL     OW34451   7.536   8.207   2.673  0.0953  0.1823  0.2487
10691SOL    HW134452   7.481   8.254   2.610 -0.2004 -0.3768  0.0855
10691SOL    HW234453   7.546   8.120   2.636  0.0572 -0.1040  0.8999
10692SOL     OW34454  10.140   1.555   5.569 -0.0119  0.0590 -0.4113
10692SOL    HW134455  10.191   1.616   5.515 -0.5697 -0.9539 -2.1822
10692SOL    HW234456  10.107   1.491   5.507 -1.4720 -0.6680  1.0426
10693SOL     OW34457   8.336   0.298   6.363  0.3849  0.3432  1.4140
10693SOL    HW134458   8.282   0.219   6.356 -0.9149  1.3339 -2.8086
10693SOL    HW234459   8.276   0.366   6.394 -0.5638  1.0213 -1.5125
10694SOL     OW34460   4.850   7.104   2.357  0.4406 -0.5070  0.0066
10694SOL    HW134461   4.866   7.047   2.282  0.9092 -0.4159  0.0288
10694SOL    HW234462   4.833   7.190   2.318  0.8959 -0.4136  0.0078
10695SOL     OW34463   3.401   2.135   5.233 -0.0553  0.2905  0.0629
10695SOL    HW134464   3.490   2.101   5.222 -0.2833 -0.1831 -0.3683
10695SOL    HW234465   3.400   2.171   5.322 -0.4759 -3.0330  1.5952
10696SOL     OW34466   5.996   1.220   7.746 -0.2254  0.6394  0.3982
10696SOL    HW134467   6.078   1.264   7.769  0.0650  0.0827  0.4241
10696SOL    HW234468   5.946   1.287   7.699  0.4784  0.8088 -0.1256
10697SOL     OW34469   5.962   9.336   1.042 -0.4787 -0.4982 -0.9612
10697SOL    HW134470   6.057   9.332   1.053 -0.6914  0.4857  2.3287
10697SOL    HW234471   5.934   9.245   1.045  0.1164 -0.7316  2.7954
10698SOL     OW34472   8.256   4.251   8.749  0.4347 -0.1144  0.7476
10698SOL    HW134473   8.254   4.346   8.753  0.6844 -0.0785  0.1548
10698SOL    HW234474   8.201   4.222   8.822 -1.5338  0.5052 -0.4242
10699SOL     OW34475   3.940   3.759   4.371 -0.1592 -0.0344  0.0654
10699SOL    HW134476   3.950   3.782   4.278  1.1772 -0.6471  0.0384
10699SOL    HW234477   3.907   3.669   4.371 -2.4926  0.7571  0.1994
10700SOL     OW34478   4.720   0.782   1.067 -0.1236  0.1121 -0.3882
10700SOL    HW134479   4.786   0.850   1.054 -0.2944  0.8167  1.9713
10700SOL    HW234480   4.725   0.760   1.160 -1.9639 -1.1449 -0.5112
10701SOL     OW34481   2.083   7.524   6.152  0.9338 -0.6352 -0.4538
10701SOL    HW134482   2.045   7.497   6.069  0.8262 -0.3253 -0.5061
10701SOL    HW234483   2.036   7.604   6.175  3.6022  1.6045 -2.0853
10702SOL     OW34484   9.398   8.191   9.650  0.2514 -0.6235 -0.4061
10702SOL    HW134485   9.340   8.255   9.691 -2.1682 -2.0955 -1.3417
10702SOL    HW234486   9.447   8.153   9.723  0.4337  0.9926  0.3583
10703SOL     OW34487   9.108  10.038  10.683  0.0317  0.5664  0.1292
10703SOL    HW134488   9.016  10.058  10.664  0.6649  1.3743 -2.4343
10703SOL    HW234489   9.118  10.059  10.776 -2.5893 -0.5135  0.7736
10704SOL     OW34490   0.872  10.031   3.191 -0.0480 -0.0120 -0.2182
10704SOL    HW134491   0.871  10.127   3.189 -1.6732  0.0008 -0.4845
10704SOL    HW234492   0.867  10.009   3.284 -0.0064  0.1634 -0.1744
10705SOL     OW34493   3.729   2.922   5.285  0.2735 -0.0453  0.0764
10705SOL    HW134494   3.663   2.968   5.336 -1.3926 -1.8853 -0.2935
10705SOL    HW234495   3.718   2.830   5.309  2.0819 -0.5142 -0.7120
10706SOL     OW34496   7.335   9.991   0.745  0.1784 -0.2811 -0.1807
10706SOL    HW134497   7.287  10.010   0.826  1.3064  0.3827  0.3657
10706SOL    HW234498   7.283   9.924   0.701 -0.8978 -0.0435  0.6884
10707SOL     OW34499   4.036   2.945   1.129 -0.0595  0.4886 -0.0217
10707SOL    HW134500   4.013   2.888   1.055  0.3332  0.5570 -0.2006
10707SOL    HW234501   4.094   3.011   1.091  1.6053 -0.5105  0.6724
10708SOL     OW34502   3.272   3.245   3.202 -0.1133 -1.2441  0.8218
10708SOL    HW134503   3.231   3.160   3.192 -0.6719 -0.7701 -1.4884
10708SOL    HW234504   3.204   3.308   3.176  1.7828 -0.4036 -2.7035
10709SOL     OW34505   9.365   6.242   4.130 -0.2593  0.0225 -0.2258
10709SOL    HW134506   9.374   6.331   4.163  0.6930  0.0991 -0.6579
10709SOL    HW234507   9.287   6.208   4.173  0.8397  0.1661  1.9889
10710SOL     OW34508   5.552   5.115   8.356 -1.0105  0.1507 -0.2421
10710SOL    HW134509   5.464   5.117   8.394 -2.2762 -0.7371 -2.8497
10710SOL    HW234510   5.573   5.207   8.338 -2.1256  0.2560 -1.0668
10711SOL     OW34511   0.558   2.784   8.249 -0.0065 -0.0030  0.0218
10711SOL    HW134512   0.644   2.802   8.288  0.3661 -1.3276 -0.1314
10711SOL    HW234513   0.508   2.864   8.264  1.0633  0.5825  0.6376
10712SOL     OW34514   6.140   6.073   2.051  0.1791  0.6962  0.2603
10712SOL    HW134515   6.231   6.100   2.046 -0.1574  1.7782 -0.3449
10712SOL    HW234516   6.137   6.009   2.122  1.2953  1.0889  0.6727
10713SOL     OW34517   4.990   4.022   0.608 -1.0082 -0.5600 -0.1374
10713SOL    HW134518   4.938   3.953   0.568 -0.8182 -0.9133  0.2166
10713SOL    HW234519   4.931   4.096   0.615 -1.3743 -0.8612 -0.0233
10714SOL     OW34520   2.761   9.045   7.511 -0.0910 -0.8334  0.3163
10714SOL    HW134521   2.814   8.990   7.569  0.5197 -0.4872  0.1008
10714SOL    HW234522   2.818   9.062   7.436  0.4627  1.6175  1.1963
10715SOL     OW34523   8.273   2.629   4.960 -0.0218  0.2217  0.0940
10715SOL    HW134524   8.186   2.670   4.961 -0.6560 -1.0765 -0.0877
10715SOL    HW234525   8.333   2.701   4.977 -1.0945  1.2368 -0.2607
10716SOL     OW34526  10.449   2.225   3.889  0.4766 -0.0800 -0.1375
10716SOL    HW134527  10.508   2.184   3.952  0.1377  0.4905  0.5619
10716SOL    HW234528  10.430   2.155   3.825  2.1928 -0.1708 -0.6003
10717SOL     OW34529   2.091   4.125   8.212 -0.1806 -0.3447 -0.2863
10717SOL    HW134530   2.012   4.080   8.183  0.2675 -0.8010 -0.8362
10717SOL    HW234531   2.083   4.214   8.178 -0.2064 -0.5465 -0.8149
10718SOL     OW34532  10.297   3.673   2.943 -0.0985 -0.1807 -0.3729
10718SOL    HW134533  10.242   3.595   2.953 -0.8431  0.5667  1.7984
10718SOL    HW234534  10.250   3.743   2.988  1.2934  1.1630 -0.9058
10719SOL     OW34535   5.031   2.961   5.862  0.1050 -0.0275  0.2953
10719SOL    HW134536   5.008   3.011   5.940 -0.6014  1.7993 -1.0189
10719SOL    HW234537   5.052   3.027   5.796  0.5611 -1.5095 -1.1115
10720SOL     OW34538   5.930   5.464   4.071  0.2016  0.1793  0.0603
10720SOL    HW134539   5.986   5.392   4.098  1.0547  0.8221  0.0247
10720SOL    HW234540   5.990   5.534   4.048 -0.5807  0.5544 -0.9281
10721SOL     OW34541   6.578   4.404   2.788 -0.1520 -0.2161 -0.0299
10721SOL    HW134542   6.593   4.339   2.719 -0.8429 -0.5497  0.1239
10721SOL    HW234543   6.652   4.463   2.781 -0.3938 -0.0240 -1.3192
10722SOL     OW34544   9.909   1.135   6.681 -0.5267 -0.5304 -0.4165
10722SOL    HW134545   9.969   1.160   6.611 -0.5796  0.1153 -0.2359
10722SOL    HW234546   9.823   1.131   6.639 -0.5389 -0.2714 -0.4160
10723SOL     OW34547  10.419   2.800   6.101 -0.5788 -0.4102  0.2920
10723SOL    HW134548  10.475   2.868   6.138  0.0008 -0.2395 -0.8616
10723SOL    HW234549  10.402   2.740   6.174  2.0398 -1.0742  0.4520
10724SOL     OW34550   7.432   9.983   9.134 -0.2401 -0.1137  0.5396
10724SOL    HW134551   7.453   9.982   9.041  0.9572  3.1396  0.6770
10724SOL    HW234552   7.360  10.045   9.142 -1.6580 -1.7824  1.6366
10725SOL     OW34553   2.342   5.981   1.658 -0.4706 -0.6419 -0.2412
10725SOL    HW134554   2.250   5.993   1.638 -0.5278  0.0769  0.4018
10725SOL    HW234555   2.361   6.047   1.725  0.1638 -1.7098  0.6666
10726SOL     OW34556   4.976   7.731   4.093  0.5498 -0.0162 -0.0362
10726SOL    HW134557   5.014   7.800   4.148  0.9870 -0.7439  0.5949
10726SOL    HW234558   4.923   7.779   4.029  2.3821  1.0453 -0.8460
10727SOL     OW34559   8.442   2.687   1.165  0.6248 -0.8337  0.5505
10727SOL    HW134560   8.448   2.672   1.071  1.0977  1.9224  0.0396
10727SOL    HW234561   8.350   2.708   1.181  0.8311  0.2336  0.3949
10728SOL     OW34562   2.761   6.478   7.314  0.2290  0.4585  0.7010
10728SOL    HW134563   2.800   6.397   7.347  1.9999  1.1719  0.4965
10728SOL    HW234564   2.681   6.489   7.365  0.0504 -1.3015  0.8739
10729SOL     OW34565   5.052   6.426   8.789 -0.1030  0.1163  0.2873
10729SOL    HW134566   5.022   6.479   8.715  0.3649  1.0743  0.7616
10729SOL    HW234567   5.025   6.475   8.867  0.1096 -0.4780  0.7414
10730SOL     OW34568   3.590   6.756   4.938 -0.3578 -0.0805 -0.0539
10730SOL    HW134569   3.570   6.669   4.972 -1.7385 -1.9632 -4.8333
10730SOL    HW234570   3.683   6.754   4.919 -0.2398 -0.2017  0.5184
10731SOL     OW34571   3.988  10.148   0.276 -0.0036 -0.1270 -0.5839
10731SOL    HW134572   4.052  10.079   0.259  1.9017  1.1756  0.8510
10731SOL    HW234573   4.025  10.197   0.350 -2.6863  0.7064  0.3100
10732SOL     OW34574   9.119   9.241   0.692 -0.0021  0.3152 -0.0002
10732SOL    HW134575   9.151   9.286   0.771 -2.0960 -0.3474  1.2995
10732SOL    HW234576   9.186   9.175   0.674  0.0056 -0.2631  1.9037
10733SOL     OW34577   3.125   2.737   6.895 -0.3782  0.2815  0.1586
10733SOL    HW134578   3.089   2.825   6.892  1.3822  1.0463 -3.1385
10733SOL    HW234579   3.104   2.699   6.809  3.2272 -0.5288 -0.5426
10734SOL     OW34580   5.499   4.297   1.952  0.1094  0.0496  0.7182
10734SOL    HW134581   5.415   4.343   1.959 -0.2363 -0.6947  1.6828
10734SOL    HW234582   5.541   4.335   1.875 -1.4397 -0.0913 -0.2297
10735SOL     OW34583   8.217   8.125   1.962 -0.4022 -0.0113 -0.1448
10735SOL    HW134584   8.241   8.215   1.940 -2.0460  0.8005  1.1419
10735SOL    HW234585   8.188   8.087   1.880 -0.3251  0.8541 -0.5842
10736SOL     OW34586   1.590   3.979   7.773 -0.2388 -0.0145 -0.4541
10736SOL    HW134587   1.558   3.894   7.740 -1.2245  0.7558 -1.5689
10736SOL    HW234588   1.577   3.974   7.867  0.6418 -1.4766 -0.3746
10737SOL     OW34589   8.173   4.797  10.702  0.1521  0.2083  0.0794
10737SOL    HW134590   8.261   4.759  10.708 -0.6978 -2.0680 -0.8245
10737SOL    HW234591   8.188   4.892  10.698  2.4276  0.0106  1.9710
10738SOL     OW34592   8.931   0.623   4.670 -0.0524  0.3844 -0.3472
10738SOL    HW134593   8.983   0.636   4.749 -0.6131  2.4697 -0.2639
10738SOL    HW234594   8.996   0.603   4.602  0.5768  0.1264  0.3126
10739SOL     OW34595   7.112   8.843   2.898 -0.2466 -0.3107  0.1565
10739SOL    HW134596   7.162   8.817   2.975  0.0656 -0.2206 -0.0115
10739SOL    HW234597   7.097   8.761   2.850  0.5646 -0.2185 -0.2714
10740SOL     OW34598   9.663   1.835   5.303  0.2084 -0.7994 -0.0710
10740SOL    HW134599   9.575   1.822   5.268  0.8501 -2.0546 -1.2831
10740SOL    HW234600   9.722   1.811   5.232  1.5832  2.2271 -0.0856
10741SOL     OW34601   6.566   0.086   5.889 -0.1953 -0.3725  0.1023
10741SOL    HW134602   6.631   0.137   5.840  1.4350  0.2745  2.6974
10741SOL    HW234603   6.515   0.152   5.936  1.4934 -0.8852  2.9708
10742SOL     OW34604   5.068   4.784   6.929  0.2371 -0.3560  0.6252
10742SOL    HW134605   4.972   4.785   6.922  0.2388  1.6545  0.2395
10742SOL    HW234606   5.097   4.857   6.874  2.2343 -2.7125 -1.7312
10743SOL     OW34607  10.473   5.165   8.355  0.4906 -0.4339  0.7256
10743SOL    HW134608  10.551   5.150   8.301  0.5092  0.0267  0.6180
10743SOL    HW234609  10.472   5.092   8.417  0.0098 -1.4171 -0.4155
10744SOL     OW34610   2.453   7.131   3.773  0.2438  0.1252  0.2448
10744SOL    HW134611   2.433   7.047   3.731 -0.3099 -0.2863  1.3057
10744SOL    HW234612   2.470   7.190   3.700  0.3381 -0.8285 -0.5341
10745SOL     OW34613   3.256   0.568   8.318 -0.3458 -0.5761 -0.4239
10745SOL    HW134614   3.245   0.486   8.270 -1.1219 -0.0226 -1.2315
10745SOL    HW234615   3.223   0.635   8.258 -1.0218  0.1849  0.7608
10746SOL     OW34616   5.654  10.049   8.123 -0.4256 -0.0770  0.4828
10746SOL    HW134617   5.639  10.129   8.073  0.4285 -0.6584 -0.7371
10746SOL    HW234618   5.569  10.031   8.165 -2.3015 -1.3935 -3.4360
10747SOL     OW34619   9.854   9.987   5.154 -0.1601  0.3289  0.3518
10747SOL    HW134620   9.765   9.963   5.129  0.8759 -1.5449 -2.0269
10747SOL    HW234621   9.846  10.076   5.188 -2.8975  0.3013  0.0310
10748SOL     OW34622  10.078   7.689  10.187 -0.2843 -0.4636  0.0943
10748SOL    HW134623  10.148   7.693  10.122 -1.2771 -2.4841 -1.1921
10748SOL    HW234624  10.092   7.767  10.241  2.2492 -0.1910 -0.7951
10749SOL     OW34625   8.109   8.035   1.629  0.3534 -0.6792  0.5780
10749SOL    HW134626   8.039   7.987   1.673 -0.1435  0.5320  1.1481
10749SOL    HW234627   8.189   8.008   1.676  0.2816 -1.9460  0.0236
10750SOL     OW34628   4.072   0.255   4.995 -0.1829  0.6306 -0.5927
10750SOL    HW134629   4.095   0.215   4.911 -3.8382  1.3730 -2.1201
10750SOL    HW234630   4.082   0.185   5.059  2.0514 -0.1248 -1.6451
10751SOL     OW34631   7.475   2.682   4.176  0.1491 -0.9228 -0.3303
10751SOL    HW134632   7.567   2.703   4.163 -0.1524  1.2049  0.5647
10751SOL    HW234633   7.473   2.627   4.254  0.5603  0.3889  0.6309
10752SOL     OW34634   6.567   0.163   7.574 -0.4879  0.4079  0.2997
10752SOL    HW134635   6.611   0.217   7.639 -0.6181  0.1990  0.5611
10752SOL    HW234636   6.492   0.125   7.620 -0.6805  0.3967 -0.0169
10753SOL     OW34637   1.736   8.439   1.756 -0.3290  0.4528 -0.3242
10753SOL    HW134638   1.794   8.404   1.688 -1.0570 -0.4249 -0.5105
10753SOL    HW234639   1.776   8.409   1.838 -1.2399 -1.3558 -0.4986
10754SOL     OW34640   5.419   0.006   4.018 -0.1043 -0.5140  1.0517
10754SOL    HW134641   5.337  -0.022   4.060  0.2109 -2.0141  0.7289
10754SOL    HW234642   5.420   0.101   4.028 -1.0281 -0.6317  2.6324
10755SOL     OW34643   0.302   8.615   7.774 -0.4221 -0.3799 -0.0379
10755SOL    HW134644   0.318   8.522   7.790 -0.2612 -0.4066 -0.3508
10755SOL    HW234645   0.207   8.624   7.776 -0.3935 -0.2477  1.6908
10756SOL     OW34646   9.537   5.269   1.314 -0.7097  0.1034 -0.3247
10756SOL    HW134647   9.595   5.295   1.243  0.0221  0.9070  0.5332
10756SOL    HW234648   9.586   5.203   1.363 -0.3264  1.0459  0.6161
10757SOL     OW34649   4.691   7.758   0.715 -0.0739 -0.0516  0.3802
10757SOL    HW134650   4.627   7.687   0.722  0.3281 -0.4537  0.0317
10757SOL    HW234651   4.770   7.724   0.757  0.1908  0.1036  0.0144
10758SOL     OW34652   8.222   8.584   9.728 -0.4551  0.1453  0.3652
10758SOL    HW134653   8.130   8.590   9.703 -0.8554  2.4305  1.9992
10758SOL    HW234654   8.231   8.497   9.768 -1.2856 -1.0025 -1.8192
10759SOL     OW34655   3.499   1.174   6.460 -0.0691  0.5062 -0.3170
10759SOL    HW134656   3.498   1.207   6.549 -1.1165  1.0121 -0.4983
10759SOL    HW234657   3.427   1.110   6.457  2.1469 -2.1934  0.1406
10760SOL     OW34658   1.138   2.213   6.747  0.4380 -0.4370 -0.7004
10760SOL    HW134659   1.208   2.179   6.691  0.9708  0.2174 -0.4434
10760SOL    HW234660   1.110   2.138   6.799  0.2232 -0.9545 -1.5345
10761SOL     OW34661  10.669   3.488   2.889 -0.0294  0.2101 -0.2463
10761SOL    HW134662  10.765   3.479   2.889  0.0770  1.2222  0.0047
10761SOL    HW234663  10.640   3.424   2.823  0.7532 -0.6363  0.1986
10762SOL     OW34664   5.445   3.831   3.818  0.3659 -0.0553  0.4457
10762SOL    HW134665   5.404   3.807   3.902 -0.3312 -1.1451 -0.1849
10762SOL    HW234666   5.512   3.894   3.842  1.1780 -1.4381  2.0192
10763SOL     OW34667  10.453   7.770   6.712 -0.4321 -0.7343  0.0314
10763SOL    HW134668  10.430   7.744   6.801  0.6237  1.0020  0.8672
10763SOL    HW234669  10.407   7.853   6.699  0.4517 -0.3238 -0.5514
10764SOL     OW34670   2.083   8.208   8.916  0.2662 -0.0374 -0.2721
10764SOL    HW134671   2.085   8.229   9.009 -0.7526  2.8728 -0.7982
10764SOL    HW234672   2.161   8.249   8.880  0.3521 -0.6491 -0.8086
10765SOL     OW34673   9.880  10.132  10.079  0.0050 -0.3379  0.2641
10765SOL    HW134674   9.946  10.086  10.027  0.2109 -0.3749  0.5513
10765SOL    HW234675   9.931  10.179  10.146 -0.2822 -0.7899  0.8134
10766SOL     OW34676  10.787   6.117  10.486 -0.4715 -0.3768 -0.2616
10766SOL    HW134677  10.807   6.121  10.580  0.9011 -0.9904 -0.5066
10766SOL    HW234678  10.759   6.205  10.464 -2.5503 -0.6211  1.0636
10767SOL     OW34679   7.809   2.786   6.328  0.9464  0.2236  0.0998
10767SOL    HW134680   7.831   2.849   6.397  0.9585  0.2785  0.0458
10767SOL    HW234681   7.807   2.838   6.248 -0.2158  0.3832  0.2147
10768SOL     OW34682   9.155   5.074   8.084 -0.2699  0.2264  0.4134
10768SOL    HW134683   9.206   5.085   8.004  2.0588  1.4271  1.9664
10768SOL    HW234684   9.093   5.147   8.083 -1.1461 -0.4889 -0.8435
10769SOL     OW34685   4.805   6.511  10.527  0.1438 -0.1475  0.7070
10769SOL    HW134686   4.865   6.442  10.555  0.9133  0.8738  1.6631
10769SOL    HW234687   4.718   6.480  10.552  0.3914 -1.0968  0.4314
10770SOL     OW34688   5.659   9.438   5.472  0.4064  0.6131  0.4441
10770SOL    HW134689   5.578   9.436   5.522  0.2847  2.4648  0.3996
10770SOL    HW234690   5.671   9.531   5.450  1.6179  0.1447 -1.0442
10771SOL     OW34691   6.149   7.732   5.080  0.3124 -0.0762 -0.4642
10771SOL    HW134692   6.096   7.719   5.159  0.7801 -0.3101 -0.1802
10771SOL    HW234693   6.201   7.810   5.099 -1.5753  1.5581 -1.6640
10772SOL     OW34694   2.462   7.960   3.385  0.4115  0.0648  0.0486
10772SOL    HW134695   2.518   7.955   3.462 -0.9284  0.4127  1.0899
10772SOL    HW234696   2.495   8.035   3.335  1.1737 -0.0502  0.3671
10773SOL     OW34697   4.458   5.835   3.890 -0.4774  0.4155  0.2151
10773SOL    HW134698   4.364   5.851   3.898 -0.6375 -0.6162  0.4685
10773SOL    HW234699   4.475   5.758   3.944  0.8608  1.6838  1.7029
10774SOL     OW34700   4.018   0.721   6.132  0.5531 -0.4042 -0.6021
10774SOL    HW134701   4.071   0.794   6.099  0.7936 -0.1580  0.3063
10774SOL    HW234702   3.961   0.760   6.198 -0.0025 -0.8739 -0.7889
10775SOL     OW34703   8.768   2.770   5.545  0.2153  0.4684 -0.1854
10775SOL    HW134704   8.771   2.739   5.635 -1.2566 -1.8654 -0.8625
10775SOL    HW234705   8.788   2.693   5.492  1.6665  1.9173 -1.9055
10776SOL     OW34706   4.201   4.219   4.154  0.4703 -0.1769 -0.8760
10776SOL    HW134707   4.155   4.223   4.238 -0.3788 -0.7138 -1.3002
10776SOL    HW234708   4.189   4.306   4.116  2.1904  0.5941  0.2130
10777SOL     OW34709   4.012   0.774   3.523  0.0947  0.6069 -0.1366
10777SOL    HW134710   4.044   0.684   3.532  0.2845  0.5797 -0.9994
10777SOL    HW234711   4.010   0.808   3.613 -0.6174 -0.4687  0.2777
10778SOL     OW34712   4.875   1.739   7.406 -0.7294 -0.3975 -0.0292
10778SOL    HW134713   4.938   1.689   7.354 -0.9063 -0.9967  0.3250
10778SOL    HW234714   4.789   1.714   7.371 -0.7818  2.3285 -2.2767
10779SOL     OW34715   1.822  10.756   1.217 -0.3027  0.5961 -0.3676
10779SOL    HW134716   1.882  10.738   1.289  1.8718  0.5559 -2.0696
10779SOL    HW234717   1.759  10.818   1.253  0.0165 -0.2751  1.8494
10780SOL     OW34718   5.509   2.698   8.425  0.3149  0.1143 -0.6264
10780SOL    HW134719   5.441   2.643   8.386 -0.3185  0.7508 -0.4401
10780SOL    HW234720   5.583   2.639   8.440 -0.2486 -0.6129 -0.6979
10781SOL     OW34721  10.053  10.775   2.028  0.1447  0.1801  0.5311
10781SOL    HW134722   9.982  10.718   1.999 -0.3439  1.6602 -1.3986
10781SOL    HW234723  10.083  10.736   2.110  0.3832 -3.2675 -1.0068
10782SOL     OW34724   8.952   6.178  10.396  0.5192 -0.0079 -0.4061
10782SOL    HW134725   8.864   6.159  10.427  0.5623 -0.1427 -0.3651
10782SOL    HW234726   9.009   6.125  10.452  0.6465  0.2919 -0.2466
10783SOL     OW34727   7.256   1.800   9.102 -0.0560  0.3154 -0.5487
10783SOL    HW134728   7.293   1.734   9.161  0.5907  0.5522 -0.6764
10783SOL    HW234729   7.302   1.881   9.126 -2.5752  1.3348  1.3247
10784SOL     OW34730   7.881   7.804   3.240  0.2750 -0.1389 -0.0161
10784SOL    HW134731   7.815   7.870   3.259 -1.3492 -1.4236 -0.9732
10784SOL    HW234732   7.844   7.752   3.169  2.9150 -0.0746 -1.5833
10785SOL     OW34733   8.723   6.149   2.849  0.4990  0.4804 -0.2132
10785SOL    HW134734   8.671   6.086   2.799  1.9113 -1.0620  0.1384
10785SOL    HW234735   8.692   6.234   2.820 -0.1703 -0.3573 -2.1699
10786SOL     OW34736   3.701   6.890   2.199 -0.6823 -0.3287  0.3144
10786SOL    HW134737   3.789   6.875   2.234 -0.7609  1.0513  1.1682
10786SOL    HW234738   3.702   6.980   2.168 -1.1730 -0.9419 -1.6643
10787SOL     OW34739   9.468   1.251   6.130 -0.2603  0.0743 -0.3602
10787SOL    HW134740   9.388   1.290   6.097 -1.5926 -0.7287  1.7133
10787SOL    HW234741   9.517   1.324   6.168  0.6625  0.7744 -2.7408
10788SOL     OW34742   9.280   2.312   6.033 -0.2374 -0.1305 -0.1779
10788SOL    HW134743   9.201   2.355   6.000  1.1586  1.3517 -1.7859
10788SOL    HW234744   9.336   2.384   6.061  1.7212 -0.9023 -1.8632
10789SOL     OW34745   5.791   7.157   0.858 -0.1017  0.0066 -0.2099
10789SOL    HW134746   5.845   7.169   0.936  0.5833  0.9259 -0.8041
10789SOL    HW234747   5.783   7.062   0.849  1.3878 -0.1605 -0.0772
10790SOL     OW34748   9.240   2.638   8.304 -0.6137 -0.9789 -0.0631
10790SOL    HW134749   9.273   2.581   8.373 -0.7440 -0.4880  0.4134
10790SOL    HW234750   9.317   2.681   8.268 -0.7409  1.3019  2.0452
10791SOL     OW34751   1.471   3.165   9.570  0.3395 -0.6831 -0.7488
10791SOL    HW134752   1.450   3.185   9.479  1.1042  0.1013 -0.7697
10791SOL    HW234753   1.387   3.167   9.616  0.1764  1.0141 -1.0617
10792SOL     OW34754   7.849   1.881   1.234  0.7195 -0.2586  0.3764
10792SOL    HW134755   7.944   1.877   1.221  0.7670 -0.1914  0.7068
10792SOL    HW234756   7.819   1.948   1.171  0.7716 -0.9136 -0.3663
10793SOL     OW34757   5.618   3.656   9.658  0.5932 -0.8914 -0.4419
10793SOL    HW134758   5.554   3.706   9.709 -0.2100 -1.2915 -1.0216
10793SOL    HW234759   5.676   3.722   9.621  1.1950 -0.6048  0.9818
10794SOL     OW34760   5.191   5.037   6.451 -0.0709 -0.2443 -0.3560
10794SOL    HW134761   5.120   5.011   6.392  0.4654 -2.7017 -0.0319
10794SOL    HW234762   5.253   4.965   6.446  1.0696  0.5428  1.5052
10795SOL     OW34763   8.056   7.305   1.238  0.1093  0.1023  0.8383
10795SOL    HW134764   8.020   7.366   1.302  0.0729 -0.1514  1.0645
10795SOL    HW234765   8.087   7.360   1.166 -0.4272  0.3489  0.7875
10796SOL     OW34766   4.031   1.306   1.091 -0.8000 -0.0149 -0.4689
10796SOL    HW134767   4.011   1.377   1.151 -0.9049  0.1402 -0.6853
10796SOL    HW234768   3.969   1.316   1.019 -0.5364 -0.0662 -0.7101
10797SOL     OW34769   6.455   1.197   0.637 -0.0688 -0.2540  0.7465
10797SOL    HW134770   6.408   1.280   0.649 -1.8465 -0.7447 -1.9713
10797SOL    HW234771   6.504   1.209   0.556  0.5410 -1.5160  0.9024
10798SOL     OW34772   7.779   8.440   7.917 -0.1729 -0.0238 -0.3402
10798SOL    HW134773   7.837   8.380   7.870 -0.1856 -0.4466  0.1733
10798SOL    HW234774   7.810   8.437   8.008  0.0186  0.9843 -0.3657
10799SOL     OW34775   2.327   4.745   8.635  0.2485 -0.0117  0.6534
10799SOL    HW134776   2.302   4.800   8.710 -0.2499 -0.0689  0.5313
10799SOL    HW234777   2.394   4.796   8.590  2.0201 -0.8266  2.2329
10800SOL     OW34778   6.938   5.289   5.394 -0.0506  0.2621  0.0935
10800SOL    HW134779   7.024   5.262   5.362  0.0444  1.8964 -1.2108
10800SOL    HW234780   6.894   5.208   5.418  1.3657 -0.7159 -0.5178
10801SOL     OW34781   1.216   9.178   1.784  0.3683 -0.6529  0.0205
10801SOL    HW134782   1.231   9.083   1.781  2.1742 -0.3858 -0.2696
10801SOL    HW234783   1.279   9.210   1.848  0.2827  0.4417 -0.4304
10802SOL     OW34784   9.476  10.556   4.512  0.3852 -0.1010 -0.3306
10802SOL    HW134785   9.486  10.461   4.521  2.0951  0.0719 -0.1002
10802SOL    HW234786   9.406  10.567   4.447  0.1667 -1.5076 -0.3584
10803SOL     OW34787   5.726   1.822   1.803 -0.1782 -0.6592 -0.0811
10803SOL    HW134788   5.777   1.865   1.734  0.8625 -1.5832  0.0684
10803SOL    HW234789   5.670   1.760   1.756 -1.3307  0.4790 -0.2599
10804SOL     OW34790   8.528   3.117   7.961 -0.5708  0.4293  0.3135
10804SOL    HW134791   8.470   3.076   8.026  1.0320 -0.3726  1.2913
10804SOL    HW234792   8.538   3.051   7.893  0.6516 -0.1757  1.0572
10805SOL     OW34793   4.453   6.045   5.515  0.6146  0.0404  0.1847
10805SOL    HW134794   4.391   6.114   5.491  1.2410  0.4641 -0.2483
10805SOL    HW234795   4.401   5.965   5.515 -0.0481  0.4613  0.3576
10806SOL     OW34796   9.717   7.064  10.346  0.1772 -0.1944 -0.0817
10806SOL    HW134797   9.685   7.074  10.435 -0.5746 -0.1558 -0.3456
10806SOL    HW234798   9.655   7.004  10.304  0.2569  0.1422 -0.7018
10807SOL     OW34799   9.593   9.476   7.301 -0.3120 -0.0760 -0.1769
10807SOL    HW134800   9.670   9.420   7.307 -0.5016 -0.2923  0.2210
10807SOL    HW234801   9.628   9.564   7.285 -0.0228 -0.3270 -0.9712
10808SOL     OW34802   7.769   5.140   5.459 -0.2607  0.3623 -0.2842
10808SOL    HW134803   7.856   5.179   5.458 -0.1097  0.0227 -0.6430
10808SOL    HW234804   7.762   5.099   5.546  0.5133 -0.8583 -0.7617
10809SOL     OW34805   4.856   9.335   8.935  0.5640  0.0422 -0.1387
10809SOL    HW134806   4.901   9.355   9.017 -0.5009 -0.4211  0.5769
10809SOL    HW234807   4.763   9.347   8.956  0.2417 -0.7259 -1.0990
10810SOL     OW34808   7.572   0.127   5.710 -0.1718  0.0660  0.0494
10810SOL    HW134809   7.588   0.043   5.754 -0.6530 -0.9969 -1.6920
10810SOL    HW234810   7.486   0.116   5.669  0.2437  0.9849 -1.1133
10811SOL     OW34811   6.466   1.355   5.932  0.0866  0.1246 -0.3384
10811SOL    HW134812   6.471   1.441   5.973 -0.3725 -0.4942  1.0749
10811SOL    HW234813   6.480   1.372   5.839  0.8787  1.6106  0.0219
10812SOL     OW34814   6.728  10.292   9.798 -0.6419  0.5719 -0.7127
10812SOL    HW134815   6.793  10.304   9.728  0.1515  0.3766 -0.0333
10812SOL    HW234816   6.682  10.211   9.776 -0.3195  0.4526 -0.9534
10813SOL     OW34817   4.161   3.603   0.248 -0.8858 -0.0989  0.0836
10813SOL    HW134818   4.226   3.575   0.184 -0.6896 -0.8480  0.6011
10813SOL    HW234819   4.201   3.584   0.333 -1.3212  0.4838  0.4277
10814SOL     OW34820   5.504   8.392   7.255 -0.2890 -0.2135  0.0860
10814SOL    HW134821   5.548   8.477   7.249  0.7285 -0.7748 -0.9615
10814SOL    HW234822   5.505   8.358   7.165  1.8244 -2.5085  0.8475
10815SOL     OW34823   2.552   7.495   7.796 -0.8074  0.1207  0.2987
10815SOL    HW134824   2.573   7.494   7.889 -0.1090 -2.3530  0.1942
10815SOL    HW234825   2.528   7.586   7.777 -1.4167  0.5957  2.9687
10816SOL     OW34826   3.163   9.053   6.188 -0.3258 -0.6707  0.0345
10816SOL    HW134827   3.081   9.042   6.140  0.9276 -0.2013 -2.3641
10816SOL    HW234828   3.206   8.967   6.183 -0.0998 -0.5674  0.1745
10817SOL     OW34829   1.523   0.900   4.781 -0.2342  0.0929  0.1251
10817SOL    HW134830   1.445   0.877   4.730 -0.1082 -1.7882  0.7155
10817SOL    HW234831   1.577   0.821   4.780  1.0010  0.8959  0.9375
10818SOL     OW34832  10.232   9.709   4.647 -0.1199 -0.5900  0.0005
10818SOL    HW134833  10.306   9.687   4.591  0.1070  0.4253 -0.1237
10818SOL    HW234834  10.201   9.793   4.613  0.6320  0.5528  1.9654
10819SOL     OW34835  10.712   6.139   2.599 -0.1009 -0.0076  0.0861
10819SOL    HW134836  10.646   6.125   2.668 -0.5975  1.1232 -0.1477
10819SOL    HW234837  10.671   6.106   2.519 -0.3516  0.6186 -0.0444
10820SOL     OW34838   1.463   5.977   9.153  0.4606  1.0247 -0.2541
10820SOL    HW134839   1.454   5.961   9.059 -1.1812  0.4614 -0.0413
10820SOL    HW234840   1.435   6.068   9.165  0.5545  1.0593 -0.2977
10821SOL     OW34841   0.917   2.329   3.730  0.2082  0.4071 -0.1792
10821SOL    HW134842   0.956   2.253   3.773 -0.3542 -0.1261 -0.5973
10821SOL    HW234843   0.983   2.357   3.667 -0.8546 -1.7947 -2.4093
10822SOL     OW34844   3.194   7.037  10.251  0.0455  0.6074  0.0013
10822SOL    HW134845   3.234   7.071  10.330 -0.1869 -0.5660  0.6492
10822SOL    HW234846   3.127   7.102  10.228 -0.7964  0.3342  1.5335
10823SOL     OW34847   3.899   1.567   6.029  0.6141 -0.7489 -0.0037
10823SOL    HW134848   3.874   1.660   6.031  1.2512 -0.5798  0.4257
10823SOL    HW234849   3.967   1.559   6.096  0.0485 -1.6781  0.4733
10824SOL     OW34850   8.125  10.764   3.324 -0.3225 -0.1115 -0.2779
10824SOL    HW134851   8.043  10.789   3.366 -1.3483  2.3978 -3.3436
10824SOL    HW234852   8.183  10.839   3.338  0.3475 -0.5235 -0.7638
10825SOL     OW34853   9.903  10.413   9.639  0.3376  0.1285 -0.1293
10825SOL    HW134854   9.936  10.500   9.660  0.6752 -0.0287  0.0138
10825SOL    HW234855   9.935  10.358   9.711  1.0856 -0.3222 -0.7870
10826SOL     OW34856   7.869   1.539   4.865 -0.1473  0.1158 -0.0280
10826SOL    HW134857   7.896   1.591   4.941 -0.0618 -0.0698  0.0688
10826SOL    HW234858   7.799   1.482   4.899 -0.7576  0.6906 -0.3081
10827SOL     OW34859   1.166   9.188   0.037 -0.3541 -0.4070 -0.0470
10827SOL    HW134860   1.105   9.246   0.082 -0.8151 -0.1166 -1.0223
10827SOL    HW234861   1.130   9.178  -0.051  1.2318  0.1784 -0.8172
10828SOL     OW34862  10.678   3.534   0.104 -0.2335  0.3256 -0.4560
10828SOL    HW134863  10.647   3.611   0.153  2.6328  0.5908  1.1905
10828SOL    HW234864  10.733   3.571   0.035  1.0487 -0.1743  0.2624
10829SOL     OW34865   8.007   9.939   6.063  0.5302 -0.4704  0.4683
10829SOL    HW134866   8.099   9.964   6.056 -0.2862  2.7519 -0.1222
10829SOL    HW234867   7.983   9.909   5.975  0.5612  0.5648  0.0948
10830SOL     OW34868   2.551   5.550   8.777 -0.2296  0.1447  0.1422
10830SOL    HW134869   2.562   5.541   8.682 -2.3722  0.4714 -0.2006
10830SOL    HW234870   2.619   5.613   8.803  1.1988 -0.8834 -0.9224
10831SOL     OW34871   7.585   3.202   1.668  0.2044 -0.2878 -0.0714
10831SOL    HW134872   7.623   3.159   1.745  2.2607  1.3984 -0.0479
10831SOL    HW234873   7.494   3.172   1.666  0.9785 -3.0159  1.0414
10832SOL     OW34874  10.457   1.279   3.794 -0.2791 -0.3348 -0.1796
10832SOL    HW134875  10.548   1.281   3.764 -0.0540 -0.4194  0.4721
10832SOL    HW234876  10.406   1.263   3.715  0.2671 -0.2203 -0.5643
10833SOL     OW34877   4.412   8.060   5.384  0.2029  0.0087 -0.1503
10833SOL    HW134878   4.349   7.991   5.369 -0.5681  0.6030  0.2915
10833SOL    HW234879   4.396   8.089   5.473  1.2726 -0.0003  0.0596
10834SOL     OW34880   6.682   7.254   1.184 -0.2970  0.7633 -0.2020
10834SOL    HW134881   6.752   7.204   1.142  0.4131  1.2067  0.4180
10834SOL    HW234882   6.694   7.343   1.151 -2.9569  0.2055 -3.1109
10835SOL     OW34883   4.327   9.188  10.613  0.5226 -0.4302  0.1410
10835SOL    HW134884   4.234   9.211  10.614  0.2149 -1.4833  2.4894
10835SOL    HW234885   4.371   9.266  10.648  0.5240 -0.0347 -0.7111
10836SOL     OW34886   9.068   7.507   5.693 -0.0168 -0.0830  0.3748
10836SOL    HW134887   9.155   7.545   5.703  0.1113  0.2807 -1.8223
10836SOL    HW234888   9.040   7.490   5.783  1.9607  0.5666  1.1749
10837SOL     OW34889   1.539   2.607   7.994 -0.1610  0.1111  0.2885
10837SOL    HW134890   1.539   2.654   7.911 -1.5998  1.3561  0.9539
10837SOL    HW234891   1.448   2.583   8.009  0.1937 -0.8252  1.1356
10838SOL     OW34892   3.945  10.466   0.439  0.4399 -0.2466 -0.0606
10838SOL    HW134893   3.958  10.543   0.493 -2.2974 -0.7744  1.5268
10838SOL    HW234894   3.939  10.393   0.501 -0.3112 -1.2543 -1.2650
10839SOL     OW34895   2.981   6.031   0.347 -0.6447  0.2947 -0.5900
10839SOL    HW134896   3.026   6.071   0.272  1.0054 -1.3929 -0.5911
10839SOL    HW234897   2.995   5.937   0.335 -1.6346 -0.0988  1.0703
10840SOL     OW34898   4.770   9.777   9.789  0.0635 -0.2823  0.7030
10840SOL    HW134899   4.726   9.862   9.783  1.5347  0.4258 -1.2199
10840SOL    HW234900   4.707   9.721   9.835 -1.7137  1.3488  0.4143
10841SOL     OW34901   2.183   1.692   1.262 -1.2641 -0.2730 -0.5611
10841SOL    HW134902   2.236   1.736   1.196 -1.8128  0.6940 -0.3773
10841SOL    HW234903   2.095   1.689   1.223 -1.4783 -0.1676 -0.0880
10842SOL     OW34904   1.609   8.227   5.965 -0.8993 -0.0857 -0.2325
10842SOL    HW134905   1.629   8.318   5.945 -2.8276  0.3471 -0.4575
10842SOL    HW234906   1.583   8.228   6.057  0.2434 -0.6478  0.1124
10843SOL     OW34907   5.085   2.993   6.151 -0.9620  0.2610 -0.5450
10843SOL    HW134908   5.087   3.082   6.186  0.9022  0.2513 -0.5516
10843SOL    HW234909   5.173   2.959   6.166 -1.8226 -1.8462  0.0830
10844SOL     OW34910   6.500  10.233   1.588 -0.5644 -0.2609  0.0506
10844SOL    HW134911   6.539  10.233   1.676  0.1750  1.4809 -0.2338
10844SOL    HW234912   6.443  10.310   1.588  0.5395  0.6066 -1.4176
10845SOL     OW34913   5.882   1.404   6.365  0.4781 -0.7167  0.8360
10845SOL    HW134914   5.963   1.409   6.314 -0.3612  0.7070 -0.4443
10845SOL    HW234915   5.816   1.445   6.309 -1.5488 -3.3838  1.1223
10846SOL     OW34916   2.848   8.007   9.979 -0.2546 -0.4921 -0.1836
10846SOL    HW134917   2.933   8.030  10.016  0.2762  1.6830 -2.4646
10846SOL    HW234918   2.787   8.070  10.017  0.2178  1.4675 -2.4190
10847SOL     OW34919   5.372   3.092   7.731 -0.3765 -0.0594  0.2210
10847SOL    HW134920   5.324   3.025   7.683  0.9272 -1.8031  1.2086
10847SOL    HW234921   5.378   3.058   7.820  2.9083 -0.1523  0.1023
10848SOL     OW34922   0.452   8.029   3.010 -0.3308 -0.1378  0.3859
10848SOL    HW134923   0.508   7.951   3.009  0.0424  0.1055  1.1426
10848SOL    HW234924   0.486   8.084   2.939  1.1790  0.5195  1.5500
10849SOL     OW34925   6.544   1.430   5.281 -0.7652  0.2701 -0.4858
10849SOL    HW134926   6.518   1.395   5.195 -0.7820 -0.8325 -0.0558
10849SOL    HW234927   6.600   1.362   5.318 -1.8300  0.1121  0.9212
10850SOL     OW34928  10.585   8.407   5.731  0.0529  0.0979  0.1956
10850SOL    HW134929  10.658   8.378   5.675 -0.6266  0.2197 -0.7680
10850SOL    HW234930  10.560   8.492   5.696  0.8146  1.0522  1.8549
10851SOL     OW34931  10.344   7.632   6.416  0.0679 -0.6644 -0.1790
10851SOL    HW134932  10.409   7.655   6.482 -0.9118  0.6338  0.3616
10851SOL    HW234933  10.261   7.663   6.451 -0.6742 -1.1611 -1.4202
10852SOL     OW34934   5.069   3.061   7.411  0.3111 -0.2280 -0.0508
10852SOL    HW134935   4.983   3.042   7.373 -1.6464  2.0143  2.7758
10852SOL    HW234936   5.098   3.140   7.366 -0.1855  0.2565  0.4648
10853SOL     OW34937   8.736   4.513   5.759  0.5556  0.0032  0.0240
10853SOL    HW134938   8.703   4.575   5.824  1.5994 -0.0395  0.6058
10853SOL    HW234939   8.661   4.456   5.740 -0.3484  1.2731 -0.3347
10854SOL     OW34940   6.908   1.170   5.924  0.0173  0.0872 -0.5616
10854SOL    HW134941   6.822   1.190   5.963  0.1313 -0.5997  0.0765
10854SOL    HW234942   6.925   1.079   5.951  0.1496 -0.3878 -2.1537
10855SOL     OW34943   8.267   1.592   1.913  0.0310 -0.3082  0.3368
10855SOL    HW134944   8.249   1.499   1.928  1.8896 -0.7089  0.3469
10855SOL    HW234945   8.294   1.625   1.999  0.6197 -0.0921  0.0767
10856SOL     OW34946   2.824   4.682   9.654 -0.3770  0.3060  0.1206
10856SOL    HW134947   2.845   4.700   9.745  0.9820  1.8282 -0.4298
10856SOL    HW234948   2.841   4.589   9.642  3.4316  0.7963  0.5142
10857SOL     OW34949   3.721   3.633   2.839  0.4485 -0.6281  0.0008
10857SOL    HW134950   3.771   3.557   2.866  2.6108  0.5270 -0.4942
10857SOL    HW234951   3.759   3.706   2.889 -2.4745  0.0045  1.5437
10858SOL     OW34952   3.282   1.537   4.604  0.1459 -0.2839  0.1122
10858SOL    HW134953   3.323   1.580   4.679  0.8599  0.3526 -0.6262
10858SOL    HW234954   3.190   1.530   4.628  0.6295 -1.6925  1.7864
10859SOL     OW34955   7.929   6.694   2.400  0.3221 -0.4831 -0.2644
10859SOL    HW134956   8.006   6.744   2.427 -0.7621  2.0779 -1.5526
10859SOL    HW234957   7.857   6.731   2.451 -0.3649 -1.5499 -0.4238
10860SOL     OW34958   9.358   9.056   4.815 -0.0255 -0.1898  0.4372
10860SOL    HW134959   9.437   9.011   4.845  0.1834  1.1111  2.0237
10860SOL    HW234960   9.332   9.010   4.736  2.9860  0.0490 -0.8240
10861SOL     OW34961   8.291   5.062   0.219  0.1113 -0.2917 -0.2702
10861SOL    HW134962   8.381   5.039   0.194  0.0048 -0.3816 -0.5708
10861SOL    HW234963   8.290   5.157   0.220 -0.1672 -0.2703 -1.6468
10862SOL     OW34964   0.588   0.922   6.725  0.3308  0.1583 -0.5349
10862SOL    HW134965   0.680   0.895   6.722  0.0405 -0.9932  0.1191
10862SOL    HW234966   0.583   0.980   6.801  0.5921  0.5460 -0.8110
10863SOL     OW34967   9.670   1.031   7.770 -0.5789 -0.6635  0.1891
10863SOL    HW134968   9.740   0.975   7.803  1.5227  1.9160  0.4312
10863SOL    HW234969   9.597   1.017   7.831  0.6017 -1.5282  1.4667
10864SOL     OW34970  10.153   5.261   1.473  0.0787  0.1968 -0.1554
10864SOL    HW134971  10.137   5.168   1.459 -0.0940  0.3115 -0.7337
10864SOL    HW234972  10.076   5.305   1.438  0.3674  0.5868 -0.3073
10865SOL     OW34973   8.597   0.568   4.556  0.3806 -0.0841  0.2433
10865SOL    HW134974   8.648   0.648   4.565  0.5296  0.1698 -2.1538
10865SOL    HW234975   8.511   0.598   4.524  0.2742 -0.8221 -0.1968
10866SOL     OW34976   6.583   9.885   1.387 -0.1276  0.2403 -0.3816
10866SOL    HW134977   6.641   9.813   1.362  0.8716  1.1999 -0.9144
10866SOL    HW234978   6.502   9.842   1.416  1.1134 -1.1843  1.1907
10867SOL     OW34979   2.260  10.469   2.591 -0.2925 -0.5252 -0.4533
10867SOL    HW134980   2.280  10.381   2.622  0.6707 -0.0642  0.2949
10867SOL    HW234981   2.210  10.456   2.510  0.5109 -1.7463 -0.7651
10868SOL     OW34982   0.289   1.108   9.179 -0.1439 -0.2578 -0.3396
10868SOL    HW134983   0.323   1.111   9.090  0.9208  1.5435  0.0854
10868SOL    HW234984   0.355   1.151   9.233 -1.8341  0.9012  0.9526
10869SOL     OW34985   2.457  10.025   9.792 -0.2385  0.0789 -0.1097
10869SOL    HW134986   2.418  10.016   9.878 -0.6650  0.4538 -0.2572
10869SOL    HW234987   2.528   9.961   9.790 -0.4042 -0.1212  0.4147
10870SOL     OW34988   1.117   3.738   1.457  0.0408  0.1554 -0.1887
10870SOL    HW134989   1.086   3.817   1.502  0.7560  0.4294 -0.1493
10870SOL    HW234990   1.182   3.771   1.395 -1.1941 -0.1749 -1.6916
10871SOL     OW34991   2.809   9.176  10.071 -0.7845 -0.5522 -0.3706
10871SOL    HW134992   2.835   9.246  10.011  1.0828  1.0562  2.0849
10871SOL    HW234993   2.726   9.205  10.108 -0.5967 -0.1944 -0.2232
10872SOL     OW34994   9.975   2.524  10.643  0.1926  0.0418 -0.3225
10872SOL    HW134995   9.910   2.463  10.678  1.2688 -0.5022  0.8180
10872SOL    HW234996  10.058   2.479  10.653  1.1280  1.9653  1.2866
10873SOL     OW34997   9.329   9.996   7.975  0.0146 -0.2953  0.0162
10873SOL    HW134998   9.239   9.973   7.994 -0.1362  0.9637  0.9528
10873SOL    HW234999   9.371  10.005   8.060  1.2055 -1.4621 -0.4060
10874SOL     OW35000   3.421   8.754   1.937 -0.4346 -0.2295 -0.1967
10874SOL    HW135001   3.383   8.822   1.994 -0.6508 -0.1599 -0.4252
10874SOL    HW235002   3.348   8.696   1.917 -0.2065 -0.6504  0.1651
10875SOL     OW35003   1.956   7.667   8.141  0.5996  0.5682 -0.5287
10875SOL    HW135004   2.019   7.609   8.098  1.8898  1.8870 -0.5199
10875SOL    HW235005   2.001   7.752   8.144 -0.0668  0.8882  2.0453
10876SOL     OW35006   5.647   9.242   3.930  0.3620  0.0107 -0.4721
10876SOL    HW135007   5.627   9.157   3.968  1.1924  0.8256  1.9606
10876SOL    HW235008   5.742   9.239   3.913  0.1627 -0.0042 -1.7062
10877SOL     OW35009  10.101   7.014   6.661 -0.2363 -0.2452 -0.2109
10877SOL    HW135010  10.188   6.987   6.630 -0.2083  0.6832 -0.9637
10877SOL    HW235011  10.058   7.049   6.583 -1.3334 -0.7903  0.1334
10878SOL     OW35012   4.374   5.538   5.449  0.6427  0.1359 -0.2712
10878SOL    HW135013   4.327   5.545   5.366  2.2944 -0.3247 -1.2991
10878SOL    HW235014   4.378   5.444   5.466  2.4717  0.0295 -1.0306
10879SOL     OW35015   4.253   1.508   5.046  0.2709 -0.2808 -0.0603
10879SOL    HW135016   4.276   1.415   5.053  0.4543 -0.1696  1.0444
10879SOL    HW235017   4.218   1.518   4.957  0.4664 -1.3543 -0.2695
10880SOL     OW35018   8.014   8.576   6.708  0.2705  0.0675 -0.2432
10880SOL    HW135019   8.035   8.587   6.615  0.1791 -0.5764 -0.3487
10880SOL    HW235020   7.945   8.640   6.725  0.5932  0.4915 -0.5086
10881SOL     OW35021   9.007   6.466  10.322 -0.2906  0.4070 -0.3295
10881SOL    HW135022   9.047   6.528  10.383 -1.6833  1.1696 -0.1596
10881SOL    HW235023   8.994   6.386  10.373  1.8637 -0.2144 -0.6528
10882SOL     OW35024  10.538   0.688   3.617 -0.8665  0.1111  0.8186
10882SOL    HW135025  10.442   0.691   3.623 -0.9367 -0.2480 -0.0119
10882SOL    HW235026  10.556   0.673   3.524  0.0513  1.6707  0.7235
10883SOL     OW35027  10.703   1.213   1.515 -0.1709 -0.6246 -0.5334
10883SOL    HW135028  10.777   1.180   1.464 -0.9323 -0.8250 -1.5585
10883SOL    HW235029  10.709   1.308   1.508  0.1861 -0.6295 -0.3112
10884SOL     OW35030   6.134   4.574   1.452 -0.1265 -0.0723  0.3986
10884SOL    HW135031   6.147   4.653   1.506 -0.2958 -0.4426  0.9928
10884SOL    HW235032   6.130   4.607   1.362  3.0894  0.2831  0.2660
10885SOL     OW35033   4.827   5.861   0.535  0.2029  0.1249  0.3003
10885SOL    HW135034   4.889   5.790   0.551 -0.6832 -0.4212  1.4230
10885SOL    HW235035   4.752   5.820   0.493 -0.0805  0.4908  0.4383
10886SOL     OW35036   7.705  10.633   5.059 -0.4320  0.3226  0.4921
10886SOL    HW135037   7.731  10.604   5.147  2.0456  1.0525  0.0813
10886SOL    HW235038   7.620  10.592   5.045 -0.2205 -1.0437  2.6428
10887SOL     OW35039   0.098   1.862   0.638 -0.1825 -0.4763 -0.1548
10887SOL    HW135040   0.100   1.921   0.562  0.3554 -0.3587 -0.0509
10887SOL    HW235041   0.009   1.826   0.638 -0.4609  0.1959 -0.3286
10888SOL     OW35042  10.689   4.810   8.360 -0.0988 -0.0727  0.0289
10888SOL    HW135043  10.774   4.786   8.323  1.1096  1.4475  1.6237
10888SOL    HW235044  10.688   4.771   8.447 -0.7230  0.5047  0.2941
10889SOL     OW35045  10.624   0.992   8.262 -0.2115  0.0758  0.0732
10889SOL    HW135046  10.716   1.004   8.287 -0.0528 -3.0996  1.5453
10889SOL    HW235047  10.578   0.980   8.346 -1.3917 -1.4402 -0.7398
10890SOL     OW35048   2.173   6.944   6.489 -0.4628 -0.1787  0.6455
10890SOL    HW135049   2.132   6.888   6.423  1.2923 -0.8149  0.0545
10890SOL    HW235050   2.103   7.004   6.516 -1.7335 -1.1281 -0.4082
10891SOL     OW35051   0.293   2.269   9.419 -0.3209 -0.1158 -0.5191
10891SOL    HW135052   0.259   2.313   9.497 -2.8480  0.4281 -1.8062
10891SOL    HW235053   0.350   2.200   9.453 -0.2311  0.9814  1.7320
10892SOL     OW35054   2.151   7.251   3.160 -0.1194 -0.4641  0.5675
10892SOL    HW135055   2.164   7.171   3.108  2.1836  0.4002 -0.3570
10892SOL    HW235056   2.188   7.230   3.245 -0.5407 -0.7205  0.6919
10893SOL     OW35057   1.281   6.935   9.185  0.2859 -0.6316  0.3416
10893SOL    HW135058   1.249   6.965   9.099  2.5393 -1.6772 -0.9555
10893SOL    HW235059   1.220   6.973   9.248 -2.8019 -1.6275 -1.8157
10894SOL     OW35060   1.198   2.662   2.823  0.0705 -0.6219 -0.7020
10894SOL    HW135061   1.190   2.591   2.887  0.4270  0.5839  0.7397
10894SOL    HW235062   1.113   2.706   2.824  1.0893  1.5312  1.6298
10895SOL     OW35063   6.295   4.339   4.821  0.6670 -0.1774  0.3059
10895SOL    HW135064   6.305   4.434   4.820  0.1099 -0.0879  1.5867
10895SOL    HW235065   6.214   4.323   4.870  0.1230 -1.2739 -0.8669
10896SOL     OW35066   0.013   5.325   0.876 -0.0615 -0.9544 -0.2222
10896SOL    HW135067  -0.047   5.368   0.937  0.5853 -0.1382 -0.1377
10896SOL    HW235068   0.082   5.390   0.860 -0.0722 -1.2608 -1.6176
10897SOL     OW35069   8.263   2.702   0.339  0.0147 -0.5178  0.2860
10897SOL    HW135070   8.245   2.658   0.257  2.2463 -1.2126  0.0775
10897SOL    HW235071   8.186   2.687   0.393 -0.2894 -2.6342 -0.6508
10898SOL     OW35072   6.167   8.278   7.845 -0.3058  0.0177 -0.6011
10898SOL    HW135073   6.121   8.313   7.769  0.4281 -0.4944 -1.3040
10898SOL    HW235074   6.217   8.352   7.879 -0.4401  0.1867 -0.7719
10899SOL     OW35075   7.092   9.160   8.763 -0.1547  0.2289 -0.2115
10899SOL    HW135076   7.162   9.159   8.829  0.6011 -1.5122 -0.9787
10899SOL    HW235077   7.042   9.239   8.784  0.5210  0.1772  1.9382
10900SOL     OW35078   8.500   5.131  10.460  0.1169 -0.1639 -0.1827
10900SOL    HW135079   8.488   5.131  10.555  2.0032  1.5657  0.1204
10900SOL    HW235080   8.442   5.061  10.429 -0.4324 -0.8875  2.2338
10901SOL     OW35081   9.959   6.873   5.532  0.1600  0.0167  0.6429
10901SOL    HW135082   9.957   6.788   5.575 -0.9221  0.2578  1.1048
10901SOL    HW235083   9.987   6.934   5.601  1.9596 -0.0807  0.0533
10902SOL     OW35084   1.153   6.847   2.089 -0.5695 -0.3672 -0.4962
10902SOL    HW135085   1.128   6.917   2.029 -0.6056 -1.5924 -1.9592
10902SOL    HW235086   1.228   6.882   2.137 -0.3344  0.5284 -1.4864
10903SOL     OW35087   8.144   9.867   5.214  0.5351 -0.1903 -0.2408
10903SOL    HW135088   8.196   9.912   5.147 -0.6692 -0.6005 -1.4877
10903SOL    HW235089   8.160   9.774   5.198  1.5184 -0.2836  1.1139
10904SOL     OW35090   3.104   3.834   6.522  0.8491  0.9967 -0.3135
10904SOL    HW135091   3.147   3.849   6.438  0.4335  1.3012 -0.4737
10904SOL    HW235092   3.050   3.911   6.537 -0.3044  0.2586 -0.5280
10905SOL     OW35093   8.489   6.485   5.897 -0.0161 -0.0758 -0.2523
10905SOL    HW135094   8.503   6.580   5.898  0.4698 -0.1468  0.1346
10905SOL    HW235095   8.555   6.450   5.957 -0.1739 -0.6642 -0.4110
10906SOL     OW35096   5.096   9.142   7.088 -0.6568  0.1711 -0.5280
10906SOL    HW135097   5.032   9.085   7.046  0.5910  0.3813 -2.8544
10906SOL    HW235098   5.181   9.115   7.053  0.4940  0.5146  1.7489
10907SOL     OW35099   7.887   8.349   3.649  0.8442 -0.2132  0.4161
10907SOL    HW135100   7.922   8.317   3.566 -0.4190  0.0976 -0.2590
10907SOL    HW235101   7.793   8.361   3.633  0.6974  0.5297  1.6754
10908SOL     OW35102   0.194   4.610   5.526  0.0136  0.0748  0.5709
10908SOL    HW135103   0.237   4.694   5.512  0.4687 -0.1109  0.8259
10908SOL    HW235104   0.102   4.631   5.534  0.0688  0.4944  0.1288
10909SOL     OW35105   8.703   3.607   8.299  0.3481  0.7860  0.5808
10909SOL    HW135106   8.661   3.663   8.363  0.8565  1.1685  0.5813
10909SOL    HW235107   8.713   3.522   8.344  0.1763  0.8840  0.8036
10910SOL     OW35108   0.598   9.711   4.978  0.0830  0.0801  0.0173
10910SOL    HW135109   0.652   9.771   5.029  1.3773 -0.8340 -0.2196
10910SOL    HW235110   0.586   9.635   5.035  1.0672 -0.7127 -0.7871
10911SOL     OW35111   0.887   6.886   8.947  0.1177  0.3763  0.5117
10911SOL    HW135112   0.893   6.936   9.028 -4.2923  0.7531  0.8569
10911SOL    HW235113   0.828   6.814   8.967 -2.1113  1.1372 -2.5485
10912SOL     OW35114  10.305   1.323  10.757  0.0370 -0.2532 -0.3995
10912SOL    HW135115  10.281   1.317  10.850 -2.4762  1.3054 -0.8548
10912SOL    HW235116  10.381   1.382  10.756  1.4711 -1.9576  0.7611
10913SOL     OW35117   6.483   8.862  10.273  1.0736 -0.0267  0.4526
10913SOL    HW135118   6.463   8.797  10.340 -2.0127  0.2450 -0.0554
10913SOL    HW235119   6.458   8.946  10.312  1.9819  0.4826 -0.0247
10914SOL     OW35120  10.687   0.889   3.725 -0.3132 -0.2855 -0.4807
10914SOL    HW135121  10.616   0.952   3.740 -1.4952 -1.8959  1.1398
10914SOL    HW235122  10.654   0.833   3.654  0.3056  0.2771 -1.2277
10915SOL     OW35123   9.423   2.872   9.388  0.0521 -0.5200  0.2401
10915SOL    HW135124   9.344   2.906   9.431  0.4418  0.3520  0.2869
10915SOL    HW235125   9.441   2.935   9.318  1.4326  0.0083  1.0347
10916SOL     OW35126   8.165   0.497   8.382 -0.1634 -0.2417 -0.0039
10916SOL    HW135127   8.091   0.558   8.380 -0.9823 -1.2000  0.4156
10916SOL    HW235128   8.141   0.431   8.448  1.3598 -0.2084  0.6352
10917SOL     OW35129   0.975   6.087   9.878  0.5643 -0.6140 -0.4102
10917SOL    HW135130   1.030   6.164   9.862 -0.8370  0.1770 -1.5363
10917SOL    HW235131   1.028   6.013   9.847  0.5491  0.2551 -2.6912
10918SOL     OW35132   0.781   3.985   9.145  0.1729 -0.2409  0.5666
10918SOL    HW135133   0.776   4.073   9.183 -0.3337  0.1170 -0.3123
10918SOL    HW235134   0.704   3.940   9.182  0.5675 -0.4038  1.2110
10919SOL     OW35135   9.326   5.419   1.391 -0.1333  0.3107  0.1897
10919SOL    HW135136   9.397   5.361   1.363 -2.1580 -1.6062 -1.2919
10919SOL    HW235137   9.292   5.379   1.471  0.3888  1.2336  0.9041
10920SOL     OW35138   8.396   1.012   1.264 -0.3617  0.4251 -0.2589
10920SOL    HW135139   8.349   0.935   1.296 -0.2200  0.8679  1.1108
10920SOL    HW235140   8.328   1.077   1.249 -0.2941  0.8301  1.0282
10921SOL     OW35141   8.285   2.121   0.105  0.2718 -0.3235  0.0395
10921SOL    HW135142   8.263   2.068   0.028  1.8005 -1.5493  0.3810
10921SOL    HW235143   8.280   2.211   0.074 -1.4686 -0.6897 -0.8308
10922SOL     OW35144   7.589   9.149   6.812  0.2745 -0.2542 -0.1349
10922SOL    HW135145   7.589   9.213   6.883  1.3405  0.3695 -0.6662
10922SOL    HW235146   7.635   9.073   6.848  1.9099  0.5096 -0.4977
10923SOL     OW35147  10.475   7.344   4.883  0.0506 -0.0063  0.1870
10923SOL    HW135148  10.517   7.282   4.824  0.2912  1.8971 -1.7312
10923SOL    HW235149  10.490   7.308   4.970  2.0671 -1.4984 -0.7196
10924SOL     OW35150   2.931   5.520   7.611 -0.3051  0.6569 -0.2331
10924SOL    HW135151   2.951   5.560   7.526  0.1293 -0.6541 -0.7789
10924SOL    HW235152   3.007   5.543   7.666 -0.4571  1.2743 -0.2660
10925SOL     OW35153   1.541   2.749   6.896 -0.0951  0.2654 -0.4650
10925SOL    HW135154   1.591   2.676   6.933  0.8526  0.4458 -1.3368
10925SOL    HW235155   1.451   2.733   6.924  0.3965 -0.2152  0.9293
10926SOL     OW35156   9.530  10.562   7.564 -0.8103  0.0943  0.0976
10926SOL    HW135157   9.554  10.602   7.647  0.0755 -0.7651  0.2790
10926SOL    HW235158   9.538  10.468   7.580 -1.7039 -0.1153 -0.6427
10927SOL     OW35159   4.329   6.628   0.680 -0.5577  0.4708  0.2111
10927SOL    HW135160   4.249   6.581   0.656 -0.3400  0.6401 -0.8845
10927SOL    HW235161   4.340   6.693   0.612 -1.4002  2.8578  2.2039
10928SOL     OW35162   4.507   4.078   8.311  0.0921 -0.1326  0.1649
10928SOL    HW135163   4.517   4.019   8.236  0.3082  0.5566 -0.3673
10928SOL    HW235164   4.413   4.085   8.324  0.0707 -0.6807  0.2961
10929SOL     OW35165   0.546   0.202   1.747 -0.0319  0.0445  0.3744
10929SOL    HW135166   0.453   0.183   1.751  0.0787 -0.8098 -0.7712
10929SOL    HW235167   0.551   0.297   1.735 -0.7351  0.1262  0.7053
10930SOL     OW35168   0.788   0.173   6.394 -0.2990 -0.4261  0.1248
10930SOL    HW135169   0.868   0.136   6.358 -0.6638 -0.6304 -0.5011
10930SOL    HW235170   0.810   0.265   6.412 -0.6166  0.2323 -2.4390
10931SOL     OW35171   2.043   7.588   8.649  0.8824 -0.1000 -0.1523
10931SOL    HW135172   2.006   7.531   8.716 -3.6065  2.4531 -0.0552
10931SOL    HW235173   2.012   7.551   8.566  1.1905  0.0786 -0.3493
10932SOL     OW35174   6.901   0.263   8.476  0.0392  0.2764  0.5242
10932SOL    HW135175   6.968   0.332   8.483 -0.4051  0.5857  2.2818
10932SOL    HW235176   6.937   0.190   8.526 -0.2476 -0.1368  0.1290
10933SOL     OW35177   9.527   4.869   0.418 -0.4304 -0.4185  0.0696
10933SOL    HW135178   9.487   4.931   0.479 -0.8043 -0.1245 -0.4637
10933SOL    HW235179   9.476   4.789   0.429 -0.2014 -0.5105  0.4735
10934SOL     OW35180   1.709   5.981   3.810 -0.5959  0.2025  0.7577
10934SOL    HW135181   1.705   5.990   3.905 -0.7200  0.0659  0.7665
10934SOL    HW235182   1.692   6.070   3.777 -1.9427 -0.0002  0.8382
10935SOL     OW35183  10.769   1.251   4.966 -0.0186  0.0583 -0.4553
10935SOL    HW135184  10.814   1.273   4.884  0.9145 -0.7049 -0.1700
10935SOL    HW235185  10.676   1.254   4.944  0.2159 -0.2613 -1.5874
10936SOL     OW35186   6.362   9.783   1.520 -0.0868 -0.4022  0.0231
10936SOL    HW135187   6.338   9.730   1.595  0.4440 -0.2492  0.3065
10936SOL    HW235188   6.303   9.858   1.523  1.1726  0.5941  1.4178
10937SOL     OW35189   7.714   8.018   2.833 -0.1882 -0.3498  0.0317
10937SOL    HW135190   7.634   7.976   2.801  0.3311 -2.8447  1.7472
10937SOL    HW235191   7.785   7.975   2.784  0.2719 -0.2008  0.5608
10938SOL     OW35192   0.515   1.171   1.177 -0.4560  0.4780 -0.3928
10938SOL    HW135193   0.469   1.138   1.255 -2.0137  1.3219 -0.8973
10938SOL    HW235194   0.526   1.094   1.122  0.7475 -0.1480  0.6830
10939SOL     OW35195   1.234   2.653   1.444 -0.0214 -0.2454 -0.2584
10939SOL    HW135196   1.226   2.739   1.402 -0.6393  0.6383  1.5791
10939SOL    HW235197   1.145   2.630   1.469  0.2107 -1.2126 -0.2768
10940SOL     OW35198   2.491   4.961   6.031  0.3249  0.5388  0.4299
10940SOL    HW135199   2.481   5.035   5.971  0.6882 -1.5975 -2.5146
10940SOL    HW235200   2.570   4.916   6.000 -1.2903 -2.4854  0.3639
10941SOL     OW35201   1.782   3.258   3.420  0.1669  0.2078  0.0610
10941SOL    HW135202   1.786   3.232   3.328 -1.6696 -1.7984  0.4674
10941SOL    HW235203   1.738   3.343   3.418 -0.0265  0.0975 -0.8954
10942SOL     OW35204   6.488   1.586   0.289  0.1498 -0.0736 -0.4829
10942SOL    HW135205   6.420   1.549   0.345 -0.5246 -1.2956 -2.0309
10942SOL    HW235206   6.507   1.517   0.225  3.8452 -0.3096  0.6732
10943SOL     OW35207  10.662   9.797   0.673  0.4093 -0.0052 -0.2167
10943SOL    HW135208  10.711   9.716   0.664 -0.1069 -0.2260 -1.1663
10943SOL    HW235209  10.575   9.770   0.701  0.2277  0.2091 -0.5576
10944SOL     OW35210   1.775   2.202   8.679 -0.6509  0.3132  0.1243
10944SOL    HW135211   1.718   2.263   8.724 -1.1175  0.7132 -0.9722
10944SOL    HW235212   1.717   2.131   8.651 -0.2284 -0.3225  0.8259
10945SOL     OW35213   7.591   6.590   9.153 -0.0144  0.0205 -0.2279
10945SOL    HW135214   7.646   6.610   9.229 -1.0301  0.2809  0.4637
10945SOL    HW235215   7.507   6.562   9.191 -0.8559  1.0511 -1.2434
10946SOL     OW35216   0.615   2.289   1.516 -0.2841  0.5213  0.4007
10946SOL    HW135217   0.530   2.246   1.512 -0.1591  0.3321 -0.2417
10946SOL    HW235218   0.651   2.280   1.428 -0.5113  2.4690  0.0595
10947SOL     OW35219   9.991   6.345   6.886 -0.5219  0.7365  0.3638
10947SOL    HW135220   9.942   6.427   6.879  2.0665  2.4277  0.6194
10947SOL    HW235221  10.014   6.338   6.979  0.2264  0.3288  0.1585
10948SOL     OW35222   9.828   7.429   5.648  0.3646  0.0924  0.0224
10948SOL    HW135223   9.815   7.365   5.578 -1.3667 -0.2253  0.6080
10948SOL    HW235224   9.779   7.395   5.722 -0.3583  1.9441  0.4471
10949SOL     OW35225   6.240   5.463   5.941  0.3333 -0.2924  0.2923
10949SOL    HW135226   6.308   5.476   6.008  0.4691  1.2557 -0.1090
10949SOL    HW235227   6.288   5.432   5.864  0.8044  1.7947 -0.3233
10950SOL     OW35228   0.834   9.996   7.741  0.0914  0.0526  0.3013
10950SOL    HW135229   0.901   9.933   7.768 -0.0633 -0.5126 -0.5944
10950SOL    HW235230   0.751   9.947   7.747 -0.5319  1.2226  3.0480
10951SOL     OW35231   6.020   3.217   4.318  0.0090  0.0104  0.1641
10951SOL    HW135232   6.074   3.260   4.385  0.7993 -0.3814 -0.2091
10951SOL    HW235233   6.033   3.123   4.334 -1.1769 -0.0984  0.5501
10952SOL     OW35234   6.385   2.283   4.416  0.1462  0.0639 -0.4083
10952SOL    HW135235   6.396   2.189   4.403  0.0188  0.0799 -0.6480
10952SOL    HW235236   6.292   2.293   4.438  0.2926  0.0700  0.2184
10953SOL     OW35237  10.393   7.821   5.597  0.0353  0.4290 -0.2133
10953SOL    HW135238  10.438   7.745   5.560  3.5056  1.7897  0.8319
10953SOL    HW235239  10.419   7.822   5.689 -2.7610  1.0127  0.6638
10954SOL     OW35240   3.025   4.451   4.568 -1.2802 -0.1202  0.0772
10954SOL    HW135241   3.081   4.434   4.492 -1.9515  0.4055 -0.5527
10954SOL    HW235242   3.067   4.403   4.640  0.8225  1.4608  0.0112
10955SOL     OW35243   3.350   4.959   9.696 -0.6985  0.0071 -0.0577
10955SOL    HW135244   3.387   4.987   9.612 -3.0560  0.3499 -1.0727
10955SOL    HW235245   3.289   4.889   9.673 -1.4197  0.1244  1.3669
10956SOL     OW35246   0.955   9.240   2.244  0.7183 -0.1029 -0.4554
10956SOL    HW135247   0.960   9.297   2.167 -1.9277  1.1711  0.1698
10956SOL    HW235248   0.861   9.224   2.255  1.1384 -1.5381  1.6123
10957SOL     OW35249   3.357   4.172   3.049  0.2351  0.2047  0.2974
10957SOL    HW135250   3.367   4.088   3.093  1.4243  0.5666  0.7361
10957SOL    HW235251   3.403   4.234   3.105  0.1068  1.0085 -0.4741
10958SOL     OW35252   3.070   1.974  10.311  0.6435 -0.0543 -0.3145
10958SOL    HW135253   2.991   1.937  10.352  0.7382 -0.5199 -0.5517
10958SOL    HW235254   3.100   1.907  10.251  0.8837  0.3665 -0.6733
10959SOL     OW35255   3.301   5.805   7.781 -0.6080  0.0720  0.3211
10959SOL    HW135256   3.273   5.893   7.805 -0.7043  0.1161  0.0446
10959SOL    HW235257   3.362   5.819   7.708 -2.1926 -0.2149 -1.1165
10960SOL     OW35258   9.261   4.406   9.082 -0.7511  0.0164  0.2455
10960SOL    HW135259   9.344   4.390   9.127 -0.2690  1.4760 -0.0780
10960SOL    HW235260   9.254   4.502   9.077 -2.0975 -0.0881 -0.3923
10961SOL     OW35261   5.009   1.539   4.262 -0.1821 -0.1812 -0.3448
10961SOL    HW135262   4.928   1.551   4.312 -0.5759  1.8647 -1.3814
10961SOL    HW235263   4.981   1.499   4.180 -0.0930  0.2165 -0.5683
10962SOL     OW35264   1.320   6.017   6.011 -0.1688  0.5738 -0.7366
10962SOL    HW135265   1.274   6.070   5.946  0.8430  1.0094 -1.1237
10962SOL    HW235266   1.397   6.069   6.034 -0.6271  0.5487  1.0158
10963SOL     OW35267   1.671   3.075   6.030 -0.3028  0.6446 -0.4973
10963SOL    HW135268   1.607   3.102   5.963  0.0659  0.6700 -0.8470
10963SOL    HW235269   1.756   3.092   5.989  0.0376  4.0416  1.2196
10964SOL     OW35270   2.515   7.620   8.342  0.2434 -0.2485 -0.2357
10964SOL    HW135271   2.509   7.610   8.247 -1.1887  1.7670 -0.4127
10964SOL    HW235272   2.601   7.586   8.364  0.4910 -1.0511 -2.2066
10965SOL     OW35273   0.704   9.061   5.583  0.0499 -0.5218 -0.0437
10965SOL    HW135274   0.764   9.131   5.558 -0.8259 -0.1776 -1.2916
10965SOL    HW235275   0.637   9.105   5.636 -0.5820 -0.3500 -0.9512
10966SOL     OW35276   2.875   7.369   5.436 -0.2401  0.1545 -0.0346
10966SOL    HW135277   2.781   7.380   5.451 -0.2984  2.0095 -1.4021
10966SOL    HW235278   2.882   7.284   5.391 -1.4044  0.4621 -0.8562
10967SOL     OW35279   5.492   0.378   5.471  0.3663  0.4690  0.2487
10967SOL    HW135280   5.581   0.389   5.503  0.3290  0.6139  0.3041
10967SOL    HW235281   5.500   0.381   5.375  0.3082  1.4025  0.2668
10968SOL     OW35282   0.922   0.782   5.569 -0.0945  0.7950 -0.3470
10968SOL    HW135283   0.934   0.856   5.510  0.7814  0.4986 -0.5509
10968SOL    HW235284   0.895   0.821   5.652  1.5989  1.4574 -0.0755
10969SOL     OW35285   1.629   4.179   1.229  0.5806 -0.3498 -0.6845
10969SOL    HW135286   1.674   4.110   1.180 -0.2983  0.1703 -2.3102
10969SOL    HW235287   1.542   4.184   1.189  0.1016  0.6733  0.4246
10970SOL     OW35288   4.351   9.086   5.629 -0.1296  0.2453 -0.7892
10970SOL    HW135289   4.293   9.081   5.552 -0.4972  1.5934 -0.6256
10970SOL    HW235290   4.303   9.039   5.698 -0.3044 -0.0122 -1.0839
10971SOL     OW35291   6.252  10.306   0.357  0.8636  0.5083 -0.6703
10971SOL    HW135292   6.345  10.329   0.369  0.1347  3.0609  0.9108
10971SOL    HW235293   6.221  10.290   0.446  0.3028 -3.1424 -1.3595
10972SOL     OW35294   4.687   6.624   5.791  0.2295  0.1590  0.7565
10972SOL    HW135295   4.624   6.697   5.790 -0.9522 -0.7962  1.8414
10972SOL    HW235296   4.772   6.666   5.802 -0.3583  1.4082  0.6980
10973SOL     OW35297   8.866   7.554   5.519 -0.2996 -0.3492  0.2244
10973SOL    HW135298   8.850   7.648   5.513  0.3474 -0.2951 -1.1483
10973SOL    HW235299   8.943   7.545   5.574  0.5177  0.0493 -0.8212
10974SOL     OW35300   4.136   5.239   6.169  0.2840  0.4786 -0.1775
10974SOL    HW135301   4.069   5.249   6.237  1.1855 -0.6678  0.9247
10974SOL    HW235302   4.087   5.207   6.093 -0.5478  0.5219  0.3174
10975SOL     OW35303   4.070   4.218  10.287 -0.1190 -0.1756  0.3332
10975SOL    HW135304   4.141   4.280  10.300 -0.4243  0.9043 -2.4573
10975SOL    HW235305   4.113   4.136  10.261  0.1505 -0.1243  0.6170
10976SOL     OW35306   3.788   2.198   8.356 -0.1468  0.4811 -0.4463
10976SOL    HW135307   3.702   2.204   8.315 -0.0793 -1.6414 -1.0017
10976SOL    HW235308   3.849   2.222   8.286 -0.1589 -0.8847 -0.9548
10977SOL     OW35309   7.090   9.688   8.124 -0.5464 -0.0207 -0.1061
10977SOL    HW135310   7.080   9.619   8.058 -0.7570  0.5622 -0.6929
10977SOL    HW235311   7.182   9.684   8.148  0.0018  1.0212 -1.8697
10978SOL     OW35312   7.893   1.816   8.422 -1.2349  0.3285 -0.2783
10978SOL    HW135313   7.828   1.746   8.431 -0.4308 -0.4117 -0.0875
10978SOL    HW235314   7.890   1.840   8.329  0.2134 -1.7034 -0.9081
10979SOL     OW35315   8.722   6.854   6.309  0.4340 -0.0824 -0.3385
10979SOL    HW135316   8.767   6.938   6.302  1.5274 -0.6306 -0.1043
10979SOL    HW235317   8.791   6.789   6.296 -0.4117 -0.9439 -0.5794
10980SOL     OW35318   1.524   1.238   2.872 -0.7604 -0.4765 -0.4540
10980SOL    HW135319   1.544   1.202   2.785 -0.3495  1.3838 -1.1735
10980SOL    HW235320   1.469   1.171   2.913  1.1855 -2.5988 -1.0975
10981SOL     OW35321   7.545   8.159   8.002  0.0500  0.4258  0.5772
10981SOL    HW135322   7.494   8.149   7.922  0.8921 -1.3135  0.2122
10981SOL    HW235323   7.631   8.121   7.981  1.0495  1.9772  1.6036
10982SOL     OW35324   1.324   4.024   5.337 -0.2810 -0.3651  0.2152
10982SOL    HW135325   1.267   4.085   5.291 -0.2314  0.1792  0.8612
10982SOL    HW235326   1.310   3.940   5.293 -1.3066 -0.1658  0.1326
10983SOL     OW35327   8.237   2.247   4.126 -0.0747  0.1413 -0.4771
10983SOL    HW135328   8.146   2.264   4.103 -0.2022  0.2974  0.1166
10983SOL    HW235329   8.234   2.219   4.217  0.2132 -2.3152 -1.1620
10984SOL     OW35330   4.450   0.261   0.227 -0.2099 -0.7062  0.3809
10984SOL    HW135331   4.424   0.178   0.188  1.1348 -0.8853 -0.2076
10984SOL    HW235332   4.528   0.240   0.279  0.2823  0.1965  0.0465
10985SOL     OW35333   9.837   1.824   2.163 -0.2559 -0.1883  0.4546
10985SOL    HW135334   9.757   1.774   2.147  0.6267 -1.0922 -1.4364
10985SOL    HW235335   9.903   1.758   2.183  0.7888  0.1898 -1.4812
10986SOL     OW35336   9.005  10.349   1.184 -0.1073 -0.2097 -0.0709
10986SOL    HW135337   8.951  10.330   1.261 -0.9064  2.8872  0.2872
10986SOL    HW235338   8.942  10.359   1.113  0.0758  1.7124 -0.0216
10987SOL     OW35339   1.495   5.701   3.661  0.0931 -0.2221  0.3325
10987SOL    HW135340   1.479   5.767   3.594  0.3974  0.2276  0.6956
10987SOL    HW235341   1.545   5.633   3.616  0.3584  0.1095  0.1158
10988SOL     OW35342  10.764   7.386   5.061 -0.2418 -0.3341 -0.2924
10988SOL    HW135343  10.773   7.475   5.028  0.1450 -0.3564 -0.2513
10988SOL    HW235344  10.822   7.334   5.006  1.8780 -0.0804  1.5567
10989SOL     OW35345   6.225   9.454   2.458  0.5942 -0.0795  0.0256
10989SOL    HW135346   6.235   9.455   2.363  0.6911 -1.5086  0.0020
10989SOL    HW235347   6.130   9.459   2.472  0.6180  0.9622 -0.1068
10990SOL     OW35348   0.252  10.586   9.048 -0.1328  0.5428  0.3708
10990SOL    HW135349   0.223  10.512   9.101  1.3295  0.0554  0.5220
10990SOL    HW235350   0.207  10.574   8.964  1.0357 -1.2501 -0.0506
10991SOL     OW35351   3.719   7.520   8.741 -0.0740 -0.4605 -0.4164
10991SOL    HW135352   3.771   7.583   8.790  0.5651 -1.1645 -0.1659
10991SOL    HW235353   3.755   7.435   8.766 -1.3458 -0.9682 -0.2299
10992SOL     OW35354   7.820   5.367   1.764 -0.3861 -0.2262 -0.2981
10992SOL    HW135355   7.755   5.334   1.703 -0.2590 -0.7527 -0.1500
10992SOL    HW235356   7.885   5.297   1.771  0.0845  0.2043 -0.2769
10993SOL     OW35357   6.731   7.719   8.760 -0.1225  0.6613  0.6689
10993SOL    HW135358   6.792   7.768   8.815  0.0235  0.6529  0.5179
10993SOL    HW235359   6.768   7.726   8.672  0.1440 -0.0960  0.7092
10994SOL     OW35360  10.161   2.558   6.507  0.1906  0.0187  0.1506
10994SOL    HW135361  10.125   2.550   6.595  0.2617  1.3474  0.3249
10994SOL    HW235362  10.255   2.552   6.518  0.1466 -1.2410 -0.0295
10995SOL     OW35363   6.879   6.225   6.247  0.0624  0.2134 -0.5106
10995SOL    HW135364   6.943   6.173   6.294 -0.3037 -1.2302 -1.5444
10995SOL    HW235365   6.867   6.304   6.301  2.0364  0.1266  0.1169
10996SOL     OW35366   8.337   7.344   0.500  0.2656 -0.0114 -0.2377
10996SOL    HW135367   8.378   7.425   0.530  1.7428 -1.2209  1.2387
10996SOL    HW235368   8.324   7.293   0.580 -0.3430 -1.3519 -1.1559
10997SOL     OW35369   7.166   2.062   5.409  0.0589  0.1194  0.1480
10997SOL    HW135370   7.185   1.980   5.454  0.9370  1.1472  1.7208
10997SOL    HW235371   7.120   2.035   5.329 -1.0178 -1.7915  1.3399
10998SOL     OW35372  10.361   0.143   6.453  0.0589  0.2522  0.1740
10998SOL    HW135373  10.409   0.225   6.438 -0.1556  0.0201 -2.1363
10998SOL    HW235374  10.366   0.097   6.369  0.7815 -2.4712  1.5888
10999SOL     OW35375  10.620  10.086   3.495 -0.1034 -0.7830  0.1591
10999SOL    HW135376  10.655  10.025   3.559  0.6791 -0.1072  0.3916
10999SOL    HW235377  10.542  10.124   3.537  1.4930  1.1233  1.5694
11000SOL     OW35378   0.501   5.596   8.705  0.3390  0.2236  0.4751
11000SOL    HW135379   0.473   5.657   8.774  1.0874 -1.7649  2.6505
11000SOL    HW235380   0.420   5.561   8.669 -0.0695 -0.2080  1.7770
11001SOL     OW35381  10.194   1.413   0.243 -0.4130  1.0349 -0.0177
11001SOL    HW135382  10.212   1.466   0.321 -1.1291 -0.8794  1.5329
11001SOL    HW235383  10.272   1.359   0.233  0.5796  2.6746 -1.9593
11002SOL     OW35384   3.748   8.207   9.431 -0.1860 -0.3940  0.2034
11002SOL    HW135385   3.802   8.284   9.454  1.4438 -2.0172  2.2331
11002SOL    HW235386   3.750   8.204   9.335  1.4301  0.9401  0.1454
11003SOL     OW35387   2.018   5.094   3.453  0.0303  0.6141 -0.5384
11003SOL    HW135388   2.045   5.171   3.402 -0.6388  0.9021 -0.4634
11003SOL    HW235389   2.100   5.047   3.470  0.3730  1.0032 -1.0805
11004SOL     OW35390   9.585   1.976   1.659  0.1797  0.1957 -0.1554
11004SOL    HW135391   9.546   2.053   1.617 -0.9880 -0.4051 -0.2232
11004SOL    HW235392   9.511   1.931   1.700  0.8104 -0.9861 -0.2696
11005SOL     OW35393   0.005   1.628   7.411  0.1245 -0.9357  0.2269
11005SOL    HW135394  -0.056   1.698   7.386  0.3517 -1.3206 -1.5983
11005SOL    HW235395   0.083   1.673   7.442  0.9550 -0.2522 -2.5949
11006SOL     OW35396   9.834  10.684   6.916 -0.0676  0.3664 -0.1031
11006SOL    HW135397   9.793  10.755   6.866 -1.0736 -0.3668 -0.3725
11006SOL    HW235398   9.928  10.700   6.909 -0.1013 -0.0613 -2.8375
11007SOL     OW35399   5.472   9.806   3.950 -0.2690  0.1941 -0.6846
11007SOL    HW135400   5.484   9.749   3.873 -0.6556  0.6815 -1.1118
11007SOL    HW235401   5.398   9.768   3.996 -1.5826  1.2690 -1.8410
11008SOL     OW35402   6.254   2.864   0.028 -0.1850 -0.3613 -0.2519
11008SOL    HW135403   6.215   2.911   0.101 -0.3248 -1.5078  0.4457
11008SOL    HW235404   6.245   2.923  -0.046 -0.2383  0.7433  0.6047
11009SOL     OW35405   0.479   8.630   8.254 -0.6906  0.3097  0.2527
11009SOL    HW135406   0.550   8.572   8.281 -0.2967  0.1661 -1.0117
11009SOL    HW235407   0.415   8.572   8.213 -0.5302  0.6994 -0.5576
11010SOL     OW35408   9.683   5.419   7.152  0.4448  0.7245 -0.1286
11010SOL    HW135409   9.753   5.464   7.104 -0.2634  2.3316  0.2711
11010SOL    HW235410   9.656   5.482   7.218 -0.4917 -0.3886  0.5831
11011SOL     OW35411   2.887  10.303   5.970 -0.3482  0.1138  0.2712
11011SOL    HW135412   2.817  10.357   6.007 -1.5776 -0.1781 -1.4963
11011SOL    HW235413   2.956  10.306   6.036 -1.3377  1.8186  1.3288
11012SOL     OW35414   6.102   0.918   5.228  0.1562  0.0029  0.2114
11012SOL    HW135415   6.094   0.866   5.308  0.8241  0.0083  0.2881
11012SOL    HW235416   6.013   0.921   5.192 -0.4044  1.0543  1.6116
11013SOL     OW35417   5.830   2.806   6.823  0.0199  0.0369 -0.4368
11013SOL    HW135418   5.920   2.778   6.805 -0.6258 -1.0414 -2.3984
11013SOL    HW235419   5.790   2.732   6.867  0.1510  0.6369  0.7202
11014SOL     OW35420   0.248   6.897   8.893  0.4815 -0.9232  0.0620
11014SOL    HW135421   0.178   6.836   8.918  0.4504 -1.5180 -1.3536
11014SOL    HW235422   0.209   6.950   8.823  0.5558  0.6675  1.1823
11015SOL     OW35423   3.507   9.704   9.766  0.0011  0.2185  0.4656
11015SOL    HW135424   3.496   9.797   9.746  1.0919 -0.2486 -3.0457
11015SOL    HW235425   3.601   9.694   9.782 -0.1966 -0.2114  1.4084
11016SOL     OW35426   4.475   6.568   5.545 -0.4945  0.2444 -0.0637
11016SOL    HW135427   4.467   6.577   5.640 -2.3746  1.5716 -0.2789
11016SOL    HW235428   4.413   6.633   5.510  1.9165  1.5385 -2.2457
11017SOL     OW35429   8.435   9.567   3.130  0.1787  0.4202 -0.1319
11017SOL    HW135430   8.430   9.554   3.225 -2.0019 -1.7994 -0.4328
11017SOL    HW235431   8.425   9.661   3.119 -0.7412  0.6242  1.8370
11018SOL     OW35432   8.855   7.504   9.375  0.4546  0.0034  0.2267
11018SOL    HW135433   8.772   7.531   9.338  0.1220 -2.0390 -0.6408
11018SOL    HW235434   8.909   7.482   9.300 -0.4604 -4.8938  0.6731
11019SOL     OW35435   4.884   2.778   1.343 -0.2272 -0.2690 -0.4528
11019SOL    HW135436   4.793   2.759   1.319  0.3591 -0.0653 -3.0419
11019SOL    HW235437   4.932   2.778   1.261  1.8409  1.3648  0.6561
11020SOL     OW35438  10.427   6.607  10.225 -0.6446  0.2821 -0.0637
11020SOL    HW135439  10.332   6.608  10.239 -0.5293  0.9709  0.7602
11020SOL    HW235440  10.439   6.657  10.144 -0.9533  0.5423  0.0467
11021SOL     OW35441   2.130   6.848   4.750  0.2057  0.1994 -0.2189
11021SOL    HW135442   2.203   6.786   4.748 -1.0047 -1.3175  0.6467
11021SOL    HW235443   2.066   6.812   4.688  0.3044  1.7036 -1.2543
11022SOL     OW35444   5.151   3.440   1.474 -0.1571 -0.4986 -0.3595
11022SOL    HW135445   5.112   3.492   1.545 -0.7560 -0.3051 -0.8308
11022SOL    HW235446   5.176   3.505   1.408  0.8596 -0.6286 -0.1261
11023SOL     OW35447  10.753   3.410   6.464  0.1638  0.2607  0.2804
11023SOL    HW135448  10.842   3.380   6.483 -0.1924 -0.7764  0.3422
11023SOL    HW235449  10.707   3.403   6.548 -0.6799 -1.7538 -0.2908
11024SOL     OW35450   1.157   3.058   1.005  0.6958 -0.2281 -0.5342
11024SOL    HW135451   1.096   2.985   1.021  0.1570  0.3122 -0.0780
11024SOL    HW235452   1.169   3.058   0.910 -0.4137 -0.0390 -0.6847
11025SOL     OW35453   3.209   1.645   2.230  0.6217 -0.7734  0.3717
11025SOL    HW135454   3.195   1.651   2.135  0.3186  1.2916  0.5145
11025SOL    HW235455   3.300   1.616   2.238  0.5676 -1.2489 -0.5458
11026SOL     OW35456   4.928   4.486   3.420 -0.0624  0.0662  0.1923
11026SOL    HW135457   4.883   4.402   3.426 -0.6077  0.1719 -1.6568
11026SOL    HW235458   4.982   4.478   3.341 -0.7901  1.7342 -0.5110
11027SOL     OW35459   0.834   6.448   5.333 -0.2213 -0.4530 -0.2656
11027SOL    HW135460   0.860   6.509   5.264 -0.6517  0.9121  0.7280
11027SOL    HW235461   0.900   6.460   5.402  0.6764 -2.3846 -0.7198
11028SOL     OW35462   1.224   6.657   9.118  0.5247  0.1286 -0.2049
11028SOL    HW135463   1.236   6.737   9.169 -0.3046  0.5677 -0.6816
11028SOL    HW235464   1.232   6.587   9.182  1.1969  0.5925  0.2302
11029SOL     OW35465  10.248   2.262   5.566 -0.7710 -0.3298  0.1273
11029SOL    HW135466  10.266   2.201   5.494  0.0684 -0.2711  0.2678
11029SOL    HW235467  10.273   2.213   5.645 -0.1805  0.1491  0.2466
11030SOL     OW35468   6.805   3.521   9.249 -0.6605 -0.2729 -0.1039
11030SOL    HW135469   6.772   3.453   9.191  0.1606 -0.8112  0.0391
11030SOL    HW235470   6.853   3.473   9.317 -1.7567  0.3240  1.1444
11031SOL     OW35471  10.453   5.191   0.489  0.4166  0.2051  0.0150
11031SOL    HW135472  10.544   5.171   0.513  0.1642 -1.0494 -0.0123
11031SOL    HW235473  10.453   5.196   0.394  0.2137 -1.1352 -0.0677
11032SOL     OW35474   4.591   8.080   9.048 -0.6323 -0.5601  0.5029
11032SOL    HW135475   4.587   8.013   8.980 -0.2250 -0.4091  0.3288
11032SOL    HW235476   4.648   8.148   9.012  0.2653 -0.8601  1.3223
11033SOL     OW35477   1.315   0.744   8.184 -0.2290  0.0708 -0.0442
11033SOL    HW135478   1.379   0.812   8.164  1.4099 -1.2739  0.4574
11033SOL    HW235479   1.298   0.701   8.100 -1.5319  1.2452 -0.4317
11034SOL     OW35480   2.943   3.034   8.350 -0.0991  0.3867  0.0129
11034SOL    HW135481   2.956   2.977   8.426  0.9181  1.1351  0.4141
11034SOL    HW235482   2.912   3.117   8.387 -0.0566  0.6005 -0.4244
11035SOL     OW35483   2.277   4.295   1.711 -0.0986  0.0374 -0.3711
11035SOL    HW135484   2.240   4.277   1.624 -0.6809 -0.7738  0.0348
11035SOL    HW235485   2.369   4.315   1.694  0.4856 -2.7239 -0.9668
11036SOL     OW35486  10.469  10.595   8.334 -0.2995  0.2217  0.3848
11036SOL    HW135487  10.417  10.519   8.363 -0.0640 -0.9601 -2.0540
11036SOL    HW235488  10.554  10.582   8.375 -0.7958  0.1468  1.4227
11037SOL     OW35489   2.444   6.888   5.084  0.2097 -0.3452 -0.2247
11037SOL    HW135490   2.395   6.813   5.117  0.6075 -1.3185 -1.7313
11037SOL    HW235491   2.424   6.959   5.145 -2.4289 -0.9122 -0.2952
11038SOL     OW35492   1.190  10.218   2.978  0.0184  0.0409 -0.3247
11038SOL    HW135493   1.134  10.286   2.939  1.3426  2.3626  1.5653
11038SOL    HW235494   1.148  10.199   3.062 -0.4645 -1.7275 -0.9331
11039SOL     OW35495   4.889   1.791  10.091  0.0954 -0.6157  0.6650
11039SOL    HW135496   4.851   1.705  10.109 -1.4266  0.2403  1.7554
11039SOL    HW235497   4.984   1.775  10.087 -0.1327 -2.2786  1.2333
11040SOL     OW35498   9.470   5.068   9.293 -0.7486  0.1070  0.6412
11040SOL    HW135499   9.498   5.046   9.204  2.4453  1.8669  1.0586
11040SOL    HW235500   9.438   5.158   9.286 -0.8071  0.1333  1.2272
11041SOL     OW35501   9.373   7.581   4.710  0.2222 -0.3621 -0.3929
11041SOL    HW135502   9.405   7.514   4.771  2.8522  1.5748  0.5496
11041SOL    HW235503   9.412   7.558   4.626 -0.3326 -0.9632 -0.4923
11042SOL     OW35504   6.841  10.797   9.110 -0.1920  0.1811  0.0001
11042SOL    HW135505   6.780  10.804   9.183 -0.4091  0.4982 -0.2095
11042SOL    HW235506   6.900  10.725   9.134 -1.2433 -0.7897 -0.2224
11043SOL     OW35507   2.295   5.062   9.986 -0.4014  0.1289  0.7781
11043SOL    HW135508   2.201   5.079   9.994 -0.5581 -0.3929  0.1246
11043SOL    HW235509   2.311   4.987  10.043 -0.4036  0.1398  0.7932
11044SOL     OW35510   8.173   7.512   0.106 -0.3372  0.4334 -0.3784
11044SOL    HW135511   8.139   7.431   0.068  1.8880 -0.8407  0.1599
11044SOL    HW235512   8.190   7.568   0.031 -2.0037  0.4747 -0.7562
11045SOL     OW35513   5.707  10.238   5.301 -0.2309 -0.2544 -0.4206
11045SOL    HW135514   5.762  10.159   5.294  0.9147  0.5542 -0.9656
11045SOL    HW235515   5.769  10.307   5.325 -1.1319  0.5868 -0.4752
11046SOL     OW35516   3.292   6.586   4.881 -0.4441 -0.8130 -0.1825
11046SOL    HW135517   3.233   6.661   4.872  2.7621  1.8233 -0.8865
11046SOL    HW235518   3.340   6.583   4.798  1.9440 -1.3740  1.1232
11047SOL     OW35519   6.200   6.888  10.371 -0.5574 -0.0310  0.0025
11047SOL    HW135520   6.195   6.822  10.302 -1.3663 -0.0840  0.0985
11047SOL    HW235521   6.290   6.883  10.403 -1.0768 -2.4867  1.3396
11048SOL     OW35522   8.622   8.640   8.531  0.2659  0.7682  0.7675
11048SOL    HW135523   8.676   8.564   8.511  0.0124  0.2702  1.8668
11048SOL    HW235524   8.685   8.709   8.553  0.4953  0.8752 -0.2155
11049SOL     OW35525   8.849   9.956   1.502 -0.3133 -0.2026 -0.0022
11049SOL    HW135526   8.841   9.888   1.436 -1.2789  1.5788 -1.8222
11049SOL    HW235527   8.915   9.923   1.563 -0.0082 -2.2797 -1.3675
11050SOL     OW35528   3.472   2.260   8.332  0.0018  0.6541 -0.2248
11050SOL    HW135529   3.455   2.333   8.392  0.5716 -0.8574  1.8698
11050SOL    HW235530   3.385   2.223   8.314 -0.1529  1.0025 -0.2118
11051SOL     OW35531   9.985   2.262   5.563 -0.4688 -0.5530  0.0044
11051SOL    HW135532  10.077   2.288   5.560 -0.7925  0.6951  0.3693
11051SOL    HW235533   9.984   2.175   5.524  0.8950 -0.6776  0.1824
11052SOL     OW35534   8.258   6.071   0.209 -1.1593 -0.5484 -0.0606
11052SOL    HW135535   8.278   5.983   0.178  1.0890  0.1536 -0.8176
11052SOL    HW235536   8.290   6.129   0.139 -1.6229  0.9017  0.8803
11053SOL     OW35537   9.910  10.550   7.704  0.5884  0.8789  0.3567
11053SOL    HW135538   9.882  10.467   7.665  0.6107  1.0966 -0.1279
11053SOL    HW235539   9.944  10.525   7.790 -0.2997  0.5068  0.6085
11054SOL     OW35540   7.957   5.989   8.017  0.9547  0.0329  0.1475
11054SOL    HW135541   7.932   6.010   7.927 -1.4880  1.1265  1.0083
11054SOL    HW235542   8.000   6.068   8.049  0.5444  0.1691  0.3681
11055SOL     OW35543   4.388   5.184   6.301 -0.1043  0.2268  0.3427
11055SOL    HW135544   4.299   5.202   6.270 -0.4235 -2.0420 -0.2339
11055SOL    HW235545   4.443   5.247   6.255 -1.2018  0.3869 -0.8113
11056SOL     OW35546   1.932   9.824   2.696  0.0553 -0.2092 -0.3648
11056SOL    HW135547   1.882   9.795   2.619 -1.9934 -0.4637  1.0058
11056SOL    HW235548   1.891   9.906   2.721 -1.6485 -1.7677  2.4354
11057SOL     OW35549   2.156   7.882   7.327  0.0691  0.5091  0.4105
11057SOL    HW135550   2.128   7.854   7.414  2.0042 -3.0482  0.1035
11057SOL    HW235551   2.233   7.936   7.341  1.1468 -1.1089  0.9579
11058SOL     OW35552   5.784   7.544   5.955  1.1107  0.0994  0.1136
11058SOL    HW135553   5.857   7.605   5.954  1.2458 -0.0447 -1.3257
11058SOL    HW235554   5.759   7.536   5.863  0.5471 -1.3639  0.3749
11059SOL     OW35555   9.603   4.455   0.300  1.1790  0.0512  0.1306
11059SOL    HW135556   9.599   4.377   0.356 -2.1753 -0.7687 -1.0185
11059SOL    HW235557   9.524   4.504   0.322  1.1808  1.0874 -1.9647
11060SOL     OW35558   6.687   9.094   2.198  0.0109 -0.5670 -0.2355
11060SOL    HW135559   6.738   9.164   2.157 -1.1159 -1.1168 -2.7537
11060SOL    HW235560   6.603   9.133   2.218  0.1735 -0.6020  0.5261
11061SOL     OW35561   0.091   8.779   1.937 -0.0678  0.1415 -0.1367
11061SOL    HW135562   0.030   8.852   1.948  0.6326  0.7614 -0.2699
11061SOL    HW235563   0.048   8.721   1.874 -0.5256  0.5599 -0.2155
11062SOL     OW35564  10.573   5.247   2.149  0.1777  0.2376 -0.3368
11062SOL    HW135565  10.516   5.195   2.206 -0.0556 -1.2000 -1.7812
11062SOL    HW235566  10.616   5.310   2.207 -0.5752 -0.6848  1.2755
11063SOL     OW35567   8.224   3.614   3.844 -0.1694 -0.2956 -0.4321
11063SOL    HW135568   8.185   3.571   3.920  0.2219  0.3267  0.1428
11063SOL    HW235569   8.257   3.543   3.790 -1.2361 -0.7815 -0.4517
11064SOL     OW35570   4.486   3.101   4.075  0.0165 -0.7006  0.4068
11064SOL    HW135571   4.504   3.170   4.012  0.1663 -0.1775  1.0043
11064SOL    HW235572   4.459   3.026   4.023  1.3701 -0.6881 -0.3551
11065SOL     OW35573   5.544   5.132   7.488 -0.2912  0.1483  0.0718
11065SOL    HW135574   5.480   5.173   7.430 -0.5560 -1.8144 -1.0819
11065SOL    HW235575   5.499   5.126   7.572 -2.2710 -2.3974 -1.0178
11066SOL     OW35576   1.103   7.195   5.441  0.4986  0.0154 -0.1249
11066SOL    HW135577   1.022   7.244   5.435 -0.0071 -0.7799  0.0526
11066SOL    HW235578   1.122   7.167   5.351  0.1675 -0.4333 -0.0590
11067SOL     OW35579   7.084   7.692   0.824  0.0584  0.4243  0.3302
11067SOL    HW135580   7.027   7.747   0.877  1.2669  0.1225  2.0163
11067SOL    HW235581   7.172   7.724   0.842  0.4847  1.1944 -2.5570
11068SOL     OW35582   2.609   4.584   6.464 -0.8358  0.2558  0.4805
11068SOL    HW135583   2.552   4.650   6.425 -0.8221 -1.9871 -3.9289
11068SOL    HW235584   2.695   4.599   6.425 -0.3236 -1.0807  1.0195
11069SOL     OW35585   5.265   4.376  10.729  0.2828 -0.3483  0.3002
11069SOL    HW135586   5.331   4.397  10.663 -0.3349 -0.7725 -0.4662
11069SOL    HW235587   5.277   4.282  10.745 -1.2741 -0.8444 -1.1645
11070SOL     OW35588   7.750   8.685   0.199 -0.1143  0.2182  0.0252
11070SOL    HW135589   7.714   8.671   0.111 -1.1543 -0.9592  0.6000
11070SOL    HW235590   7.781   8.775   0.198 -1.5657  0.7439 -1.0591
11071SOL     OW35591  10.774   4.140   1.273  0.8656  0.0961 -0.4006
11071SOL    HW135592  10.823   4.065   1.307 -0.9172  0.0106  2.3352
11071SOL    HW235593  10.716   4.103   1.207  1.5299 -0.5283 -0.6427
11072SOL     OW35594   5.674   3.396   1.501 -0.3038  0.2444  0.2383
11072SOL    HW135595   5.627   3.313   1.502 -0.3593  0.0777 -3.5408
11072SOL    HW235596   5.611   3.459   1.467  0.8731  0.9801 -0.6603
11073SOL     OW35597   7.926   3.347   4.297 -0.2642 -0.0850  0.2843
11073SOL    HW135598   7.955   3.259   4.276 -1.1264  0.0246 -1.6008
11073SOL    HW235599   7.863   3.336   4.368  0.4133 -0.8593  0.7709
11074SOL     OW35600   6.554   5.290   3.297  0.5402 -0.3336  0.1594
11074SOL    HW135601   6.585   5.303   3.386 -2.4815  0.9861  1.1746
11074SOL    HW235602   6.526   5.199   3.293  2.0568 -0.8164  0.0218
11075SOL     OW35603   2.208   0.754   1.725 -0.1896 -0.6050 -0.7287
11075SOL    HW135604   2.182   0.788   1.639 -0.0582 -0.8181 -0.8525
11075SOL    HW235605   2.287   0.803   1.747 -0.0900 -0.7157 -0.8361
11076SOL     OW35606   4.958   9.958   6.181  0.1926 -0.8227 -0.5522
11076SOL    HW135607   4.916   9.932   6.263  1.1514  0.9921  0.5624
11076SOL    HW235608   4.886   9.962   6.118 -1.0560  0.3866  0.8652
11077SOL     OW35609   6.460   2.535   1.356 -0.2493 -0.2668  0.2781
11077SOL    HW135610   6.469   2.581   1.440 -1.3788  0.3431  0.0794
11077SOL    HW235611   6.375   2.562   1.323 -0.0572 -0.9466 -0.8112
11078SOL     OW35612   9.008   1.582  10.559  0.2286 -0.0430 -0.1179
11078SOL    HW135613   9.077   1.602  10.495  2.4146  1.1646  2.4399
11078SOL    HW235614   8.977   1.668  10.588 -2.9881 -0.5218 -1.6374
11079SOL     OW35615   2.075   2.994   8.429 -0.0921 -0.1008  0.6317
11079SOL    HW135616   2.055   2.922   8.369  0.4193  0.6212 -0.4305
11079SOL    HW235617   2.004   3.057   8.416 -0.0118  0.0329  0.8291
11080SOL     OW35618   1.303   8.962   5.716 -0.4189 -0.1442 -0.7842
11080SOL    HW135619   1.293   8.934   5.625  0.2703 -0.4953 -0.7676
11080SOL    HW235620   1.215   8.955   5.754 -0.5135 -1.0670 -1.1365
11081SOL     OW35621   2.713   1.720   6.869 -0.4496  0.2100 -0.6886
11081SOL    HW135622   2.775   1.793   6.861 -1.0739  0.5604 -2.8370
11081SOL    HW235623   2.664   1.740   6.948  2.1166 -0.0808  1.1250
11082SOL     OW35624   4.615   4.254   9.979  0.4232  0.2587 -0.0302
11082SOL    HW135625   4.539   4.202  10.007  0.2824  0.4208 -0.1116
11082SOL    HW235626   4.690   4.198   9.999  0.2515 -0.1464 -0.4833
11083SOL     OW35627   9.283   5.896   1.423  0.3102 -0.0911 -0.1587
11083SOL    HW135628   9.240   5.844   1.491  0.3243 -1.0052 -0.8277
11083SOL    HW235629   9.294   5.983   1.462 -1.1411 -0.1370  0.4382
11084SOL     OW35630  10.381   7.767   7.638 -0.2698 -0.5495  0.9579
11084SOL    HW135631  10.362   7.784   7.731  2.6777 -0.7232  1.6899
11084SOL    HW235632  10.398   7.673   7.633  0.0948 -0.4569  0.3443
11085SOL     OW35633   4.799   1.934   0.462  0.1951  0.9271 -0.1576
11085SOL    HW135634   4.787   1.887   0.380 -0.4114 -0.9810  0.9529
11085SOL    HW235635   4.854   1.877   0.515 -3.5429 -0.5155  2.6517
11086SOL     OW35636   5.134  10.736   5.106 -0.4890  0.1664  0.0402
11086SOL    HW135637   5.219  10.717   5.065 -1.0108 -0.5461 -0.7465
11086SOL    HW235638   5.154  10.802   5.173  0.3346  1.7772 -1.6963
11087SOL     OW35639   7.214   0.813   7.759 -0.4006  1.1176 -0.2066
11087SOL    HW135640   7.192   0.741   7.699  0.5576 -0.6542  1.4497
11087SOL    HW235641   7.260   0.877   7.704  0.0213 -0.2179 -1.4660
11088SOL     OW35642   1.649  10.160   7.745 -0.3583  0.7553 -0.1917
11088SOL    HW135643   1.736  10.136   7.778 -0.2561 -0.1278 -1.0482
11088SOL    HW235644   1.662  10.245   7.703  0.3314  0.1800 -1.1874
11089SOL     OW35645   3.785   4.385  10.599 -0.5181  0.0749 -0.2958
11089SOL    HW135646   3.855   4.322  10.581  0.4195  0.8976  0.3362
11089SOL    HW235647   3.714   4.333  10.634 -0.8979 -1.0330 -2.5117
11090SOL     OW35648   6.623   7.159   5.043 -0.6663  0.6220  0.3709
11090SOL    HW135649   6.624   7.131   5.134  1.8874 -0.1695  0.1712
11090SOL    HW235650   6.627   7.078   4.992  1.7449  1.1048 -0.3153
11091SOL     OW35651   7.835   7.194   4.237  0.4969  0.3136  0.4951
11091SOL    HW135652   7.828   7.162   4.327 -1.1221  1.0107  0.6569
11091SOL    HW235653   7.794   7.280   4.240  1.6570  0.9278 -0.6487
11092SOL     OW35654   2.538   0.555  10.730 -0.1684 -0.1922 -0.3182
11092SOL    HW135655   2.460   0.570  10.784  0.3536 -0.0915  0.4328
11092SOL    HW235656   2.519   0.597  10.647 -0.8586 -0.0509 -0.0934
11093SOL     OW35657   8.495   8.242   6.574  0.4157 -0.3012  0.2555
11093SOL    HW135658   8.548   8.167   6.546 -1.2632 -1.5957  0.4172
11093SOL    HW235659   8.519   8.312   6.513  0.3221 -1.6545 -1.4025
11094SOL     OW35660   3.365   8.422   0.524 -0.3436 -0.4442  0.1235
11094SOL    HW135661   3.403   8.419   0.436 -1.3371 -0.0763 -0.3323
11094SOL    HW235662   3.360   8.515   0.545 -1.4998 -0.4536 -0.0592
11095SOL     OW35663   3.060   7.763   1.037  0.4156  0.1578  0.6095
11095SOL    HW135664   2.993   7.738   0.973  0.8895 -1.0497  0.5483
11095SOL    HW235665   3.066   7.858   1.030 -1.0403  0.2504  0.3738
11096SOL     OW35666   8.914   9.491   6.967 -0.2320  0.2765  0.0874
11096SOL    HW135667   8.890   9.547   7.042  1.8878  0.0645  0.9982
11096SOL    HW235668   8.950   9.552   6.903 -1.3792  0.3684 -0.4913
11097SOL     OW35669   3.704   5.445   6.914 -0.3363  0.0263 -0.6513
11097SOL    HW135670   3.735   5.440   6.824  1.5440  0.0997 -0.0558
11097SOL    HW235671   3.653   5.527   6.918 -0.4546  0.0113 -1.6255
11098SOL     OW35672   4.113   1.832   9.293 -0.4645  0.4354  0.3789
11098SOL    HW135673   4.054   1.809   9.365 -1.3230  1.7304  0.1186
11098SOL    HW235674   4.056   1.872   9.227  0.4147 -0.1172 -0.7366
11099SOL     OW35675   8.079   4.486   8.376  0.2819 -0.3574  0.0822
11099SOL    HW135676   8.094   4.545   8.302  1.1805 -0.9146 -0.1892
11099SOL    HW235677   8.117   4.531   8.451 -1.9311  0.8902  0.5259
11100SOL     OW35678   4.273   6.105   9.350 -0.7499  0.2723  0.0568
11100SOL    HW135679   4.194   6.094   9.296 -2.7539  0.9873  2.6303
11100SOL    HW235680   4.277   6.027   9.404  1.3754 -0.5528 -1.1685
11101SOL     OW35681   6.173   1.824   5.549 -0.0996  0.4741 -0.1269
11101SOL    HW135682   6.155   1.749   5.494 -0.7592 -0.4669  1.3123
11101SOL    HW235683   6.199   1.787   5.634  0.6710  1.8628  0.2905
11102SOL     OW35684   4.470   3.485   0.062  0.3183  0.2564  0.3296
11102SOL    HW135685   4.382   3.487   0.023  0.3717 -0.3698  0.1552
11102SOL    HW235686   4.460   3.432   0.141  0.4633  0.4928  0.5065
11103SOL     OW35687   6.423   3.164   4.836  0.1637 -0.0859  0.1795
11103SOL    HW135688   6.436   3.242   4.890 -0.5524  0.2994 -0.1798
11103SOL    HW235689   6.329   3.164   4.817  0.4872  0.1886 -1.6095
11104SOL     OW35690   5.577   4.751  10.618 -0.1220 -0.9641 -0.5335
11104SOL    HW135691   5.614   4.784  10.536 -1.0601  0.0314 -0.5874
11104SOL    HW235692   5.533   4.670  10.593 -2.8596  0.7304 -1.6819
11105SOL     OW35693   2.006   4.393   6.000 -0.2513  0.2071 -0.1535
11105SOL    HW135694   2.054   4.444   5.934 -0.8350  0.7010 -0.2072
11105SOL    HW235695   1.993   4.308   5.960  1.2691 -0.2001  0.1707
11106SOL     OW35696   3.588   2.233   8.979 -0.0704 -0.2884  0.1274
11106SOL    HW135697   3.604   2.150   9.023  2.1022  0.2670  0.4930
11106SOL    HW235698   3.523   2.277   9.034 -0.2058 -1.1628  0.6857
11107SOL     OW35699   6.641   9.412   6.668  0.2799 -0.2280  0.3179
11107SOL    HW135700   6.693   9.422   6.747 -1.5020 -1.1201  1.6924
11107SOL    HW235701   6.636   9.318   6.654 -1.3496 -0.2213  0.5707
11108SOL     OW35702   9.725   7.388   8.456 -0.0820 -0.0464 -0.4270
11108SOL    HW135703   9.710   7.472   8.413 -2.6347 -0.2913 -0.1556
11108SOL    HW235704   9.791   7.407   8.523 -0.6447  1.7695 -0.3433
11109SOL     OW35705   2.100   1.933   9.969  0.1078 -0.0141  0.6203
11109SOL    HW135706   2.123   1.858   9.915 -2.5208 -0.9030  0.5924
11109SOL    HW235707   2.004   1.933   9.971  0.0088  2.8420  1.3350
11110SOL     OW35708   2.011   9.554   2.102 -0.2761  0.3092  0.3479
11110SOL    HW135709   2.052   9.587   2.022  1.8519 -2.0650  0.3277
11110SOL    HW235710   1.963   9.476   2.075 -0.9575  0.4348  1.1466
11111SOL     OW35711   1.313   2.853   7.467 -0.4913  0.5396 -0.4263
11111SOL    HW135712   1.332   2.850   7.561 -0.4603 -1.5628 -0.4605
11111SOL    HW235713   1.387   2.902   7.430 -0.7102  1.7560  0.6550
11112SOL     OW35714   4.183   9.365   0.724  0.3816 -0.2654 -0.4225
11112SOL    HW135715   4.239   9.288   0.730  0.3077 -0.2668  0.5420
11112SOL    HW235716   4.235   9.430   0.679  0.3600 -0.9484 -1.4669
11113SOL     OW35717  10.749   0.810   4.747 -0.3598 -0.3220  0.1531
11113SOL    HW135718  10.741   0.813   4.652 -1.9913 -0.3697  0.2589
11113SOL    HW235719  10.811   0.880   4.768  0.2105 -0.4727 -0.9497
11114SOL     OW35720   3.985   7.575   0.044  0.2900  0.6123 -0.3359
11114SOL    HW135721   3.949   7.653   0.002  0.1918  1.7692  1.7158
11114SOL    HW235722   4.063   7.607   0.090  0.0366 -0.3877  0.8458
11115SOL     OW35723   5.792   5.021  10.245  0.0983 -0.3319  0.0287
11115SOL    HW135724   5.734   5.094  10.221 -0.0772 -0.3453  0.4089
11115SOL    HW235725   5.863   5.063  10.293  0.7836 -0.2233 -1.0476
11116SOL     OW35726   0.057   0.284   1.905  0.9788 -0.1119  0.1583
11116SOL    HW135727   0.054   0.212   1.969 -0.1615  0.7237  1.0759
11116SOL    HW235728   0.008   0.252   1.830  0.9010 -0.4757  0.3621
11117SOL     OW35729   4.347   4.255   8.012 -0.6858 -0.4083 -0.2842
11117SOL    HW135730   4.306   4.341   8.025 -2.8229 -1.2497 -0.8761
11117SOL    HW235731   4.273   4.197   7.993  0.6185 -2.5359  0.7944
11118SOL     OW35732   2.118   0.286   2.541  0.5800 -0.7377  0.1460
11118SOL    HW135733   2.082   0.207   2.581 -0.7701  0.0942  0.6264
11118SOL    HW235734   2.163   0.331   2.612  0.2500 -0.4488  0.1735
11119SOL     OW35735   3.911   6.336   6.719  0.2341  0.0837  0.1525
11119SOL    HW135736   3.989   6.357   6.667  1.3549 -1.1083  1.2735
11119SOL    HW235737   3.887   6.248   6.691 -0.2162  0.1317  0.3893
11120SOL     OW35738   2.575  10.070  10.262 -0.4703 -0.5705 -0.1927
11120SOL    HW135739   2.566   9.992  10.316  2.7991 -1.2655 -0.4859
11120SOL    HW235740   2.554  10.142  10.321  0.5673 -1.4650  1.3306
11121SOL     OW35741  10.595   1.882   3.586  0.4620  0.2289  0.5201
11121SOL    HW135742  10.617   1.790   3.604 -0.8785 -0.1437  0.3806
11121SOL    HW235743  10.672   1.916   3.541  1.4269 -0.5111  1.5607
11122SOL     OW35744   6.007   8.258   0.942  0.2859  0.2110 -0.2745
11122SOL    HW135745   6.081   8.214   0.900  0.8818 -2.3154  3.0167
11122SOL    HW235746   5.934   8.197   0.933 -0.2615  0.7976  0.0995
11123SOL     OW35747   1.636   9.665   7.518 -0.2772  0.2474  0.4600
11123SOL    HW135748   1.631   9.579   7.476 -0.9008 -0.2899  1.5850
11123SOL    HW235749   1.723   9.697   7.497 -0.3546 -0.2601 -0.7191
11124SOL     OW35750   6.880   6.439   9.947 -0.1353 -0.7450 -0.3023
11124SOL    HW135751   6.854   6.484  10.027  1.3994 -1.3968  0.6021
11124SOL    HW235752   6.934   6.502   9.900  0.1450 -0.8563 -0.1306
11125SOL     OW35753   2.736   5.792   8.727  0.3339 -0.1142 -0.2500
11125SOL    HW135754   2.794   5.865   8.748  0.8685 -0.9348  1.2226
11125SOL    HW235755   2.750   5.777   8.633 -0.9430  2.6311 -0.9955
11126SOL     OW35756   1.569   6.062   7.674 -0.1197 -0.1046 -0.5473
11126SOL    HW135757   1.572   6.047   7.769  0.2389  0.6116 -0.4379
11126SOL    HW235758   1.478   6.086   7.656  0.3958  2.8402  0.1435
11127SOL     OW35759   6.988   4.814   1.197 -0.2615  0.1362  0.4773
11127SOL    HW135760   7.019   4.898   1.164 -1.5551  0.1389 -0.8535
11127SOL    HW235761   6.895   4.828   1.215 -0.8654 -1.3752 -1.2152
11128SOL     OW35762   8.421   0.096   7.306 -0.0017 -0.1113 -0.4930
11128SOL    HW135763   8.464   0.178   7.332  0.0731 -0.5899  0.9442
11128SOL    HW235764   8.492   0.042   7.271 -0.1846  0.7208 -2.2708
11129SOL     OW35765   6.081   9.321   6.038  0.4254 -0.4680  0.5774
11129SOL    HW135766   6.114   9.234   6.058  0.4494 -0.4297  0.7060
11129SOL    HW235767   6.053   9.316   5.946 -1.2328 -1.1056  1.0967
11130SOL     OW35768   3.863   7.707   8.898 -0.2394  0.3408  0.1482
11130SOL    HW135769   3.836   7.798   8.912  0.1940  0.5348 -0.2824
11130SOL    HW235770   3.955   7.713   8.873  0.8065 -0.4099  3.3111
11131SOL     OW35771   6.165   8.659   9.664 -0.0186  0.0600 -0.1989
11131SOL    HW135772   6.097   8.720   9.637  0.0219 -0.3105 -1.1719
11131SOL    HW235773   6.247   8.700   9.637 -0.0509 -0.9175 -1.9236
11132SOL     OW35774   8.146   9.251   7.742  0.1477 -0.1149  0.2444
11132SOL    HW135775   8.161   9.251   7.647  3.0093 -3.1717  0.5598
11132SOL    HW235776   8.195   9.327   7.774  0.2265  0.1875 -0.5709
11133SOL     OW35777   1.462  10.572   5.687  0.0879 -0.0403 -0.2410
11133SOL    HW135778   1.415  10.491   5.669 -0.6435  0.1979  0.5103
11133SOL    HW235779   1.470  10.614   5.601 -1.1012 -0.0935 -0.4070
11134SOL     OW35780   8.135   3.608   0.536  0.7233  0.0095  0.2081
11134SOL    HW135781   8.074   3.637   0.469  1.3234 -2.7156 -1.6711
11134SOL    HW235782   8.083   3.604   0.616 -1.3634 -1.3273 -1.1216
11135SOL     OW35783   0.034   0.161   4.723  0.0617 -0.4305 -0.0077
11135SOL    HW135784   0.002   0.234   4.670  0.3889  0.2622  0.7310
11135SOL    HW235785   0.112   0.131   4.678 -0.3200 -0.6142 -0.5553
11136SOL     OW35786   4.147   1.551   9.313  0.3626  0.2633 -0.0337
11136SOL    HW135787   4.112   1.638   9.291  0.1421 -0.1877 -1.5894
11136SOL    HW235788   4.241   1.565   9.324  0.2310  0.8146  0.4598
11137SOL     OW35789   0.130   9.000   1.055 -0.0523 -0.3600  0.0285
11137SOL    HW135790   0.164   8.917   1.020  1.8942  0.8676 -1.2261
11137SOL    HW235791   0.183   9.016   1.133 -2.1336 -1.4436  1.7775
11138SOL     OW35792   1.142   5.090   1.091 -0.6250  0.0324 -0.0955
11138SOL    HW135793   1.107   5.005   1.119 -1.8704 -1.1164 -4.4454
11138SOL    HW235794   1.222   5.068   1.043 -0.4002  1.4704 -0.4204
11139SOL     OW35795   7.124   4.130   7.977  0.3707  0.0986  0.0249
11139SOL    HW135796   7.208   4.170   7.998 -0.0720 -0.0061  2.1703
11139SOL    HW235797   7.125   4.046   8.024  0.2260 -1.3227 -2.3125
11140SOL     OW35798   6.750  10.759   4.238 -0.1568  0.1768 -0.0619
11140SOL    HW135799   6.670  10.749   4.187 -0.2308  1.8034 -0.2902
11140SOL    HW235800   6.794  10.674   4.229 -0.7478  0.0226 -1.8276
11141SOL     OW35801   6.869  10.431   9.108 -0.3124  0.0337  0.1196
11141SOL    HW135802   6.907  10.490   9.173 -0.8389  1.1450 -0.5598
11141SOL    HW235803   6.904  10.461   9.024  0.9824 -1.8653 -0.1135
11142SOL     OW35804   0.197   9.952   0.330  0.3224  0.3151 -0.1596
11142SOL    HW135805   0.114   9.956   0.282  0.3036 -1.5496 -0.3901
11142SOL    HW235806   0.172   9.920   0.417  0.7666  0.0262 -0.1392
11143SOL     OW35807  10.094   1.778  10.097  0.4174 -0.1058 -0.2818
11143SOL    HW135808  10.068   1.770  10.006  1.3077 -2.5524 -0.4003
11143SOL    HW235809  10.018   1.814  10.141 -1.1100 -1.6624 -1.5322
11144SOL     OW35810   4.713   8.103   3.569 -0.2190  0.2040 -0.1711
11144SOL    HW135811   4.747   8.152   3.494  0.3771  0.9036  0.5263
11144SOL    HW235812   4.791   8.086   3.624 -0.7609  0.4758  0.7068
11145SOL     OW35813   3.716   9.239   8.304  0.1853 -0.3365 -0.1867
11145SOL    HW135814   3.748   9.315   8.256 -0.1853 -0.4291 -0.5846
11145SOL    HW235815   3.796   9.196   8.337  0.4883 -0.6195 -1.2480
11146SOL     OW35816   7.374   7.927   2.530  0.2440 -0.0366  0.2443
11146SOL    HW135817   7.313   7.998   2.512 -0.9618 -0.7637  1.2722
11146SOL    HW235818   7.431   7.924   2.453 -0.3268  1.3509 -0.2725
11147SOL     OW35819   2.830   6.294   5.857 -0.1059  0.7947  0.1724
11147SOL    HW135820   2.886   6.226   5.819  2.3370  2.6983  0.1584
11147SOL    HW235821   2.860   6.303   5.947 -0.5493  1.7081  0.2412
11148SOL     OW35822   7.311   9.930   1.544 -0.4152 -0.4408  0.1552
11148SOL    HW135823   7.388   9.985   1.528 -1.6032  1.1644 -0.3151
11148SOL    HW235824   7.310   9.868   1.471 -0.7876  0.9818 -1.0775
11149SOL     OW35825  10.192   0.867   8.489  0.3370  0.0182  0.4236
11149SOL    HW135826  10.101   0.855   8.461  0.2701  1.2893 -0.0085
11149SOL    HW235827  10.186   0.922   8.567  0.6685 -1.2048  1.3220
11150SOL     OW35828   9.696   6.868   5.670 -0.1740  0.2275  0.5533
11150SOL    HW135829   9.774   6.894   5.621 -0.2431 -0.0403  0.2985
11150SOL    HW235830   9.729   6.838   5.755  0.2121 -1.9112 -0.2971
11151SOL     OW35831   5.828   8.554   3.652 -0.0908 -0.3013  0.1526
11151SOL    HW135832   5.791   8.498   3.583  0.0963 -1.4274  0.9235
11151SOL    HW235833   5.796   8.514   3.733 -0.4659  1.1154  0.7218
11152SOL     OW35834   8.907   7.891   4.827 -0.1215 -0.0829  0.2162
11152SOL    HW135835   8.882   7.819   4.885  0.8549 -1.9402 -1.5269
11152SOL    HW235836   8.999   7.907   4.846 -0.4614  1.1330  0.9614
11153SOL     OW35837  10.290   4.447   5.215 -0.4529 -0.2152  0.5906
11153SOL    HW135838  10.263   4.379   5.276 -0.0962 -0.4470  0.4965
11153SOL    HW235839  10.274   4.410   5.128  1.3705 -0.8956  0.5017
11154SOL     OW35840   5.681   7.562   8.836 -0.0031  0.4939 -0.6695
11154SOL    HW135841   5.658   7.640   8.785  1.2619  0.8409 -0.7468
11154SOL    HW235842   5.777   7.564   8.840  0.0912 -1.4317 -1.2530
11155SOL     OW35843   5.212   3.537   4.163 -0.3641  0.2700 -0.4274
11155SOL    HW135844   5.159   3.591   4.223  0.2300 -1.9325  2.3041
11155SOL    HW235845   5.148   3.491   4.110 -1.1950 -0.7963  1.3950
11156SOL     OW35846   0.428   0.025   2.504 -0.0933  0.4855  0.2135
11156SOL    HW135847   0.410   0.115   2.531 -1.1684  0.4417 -0.3126
11156SOL    HW235848   0.345  -0.007   2.472  0.0038 -1.0884  1.4462
11157SOL     OW35849   7.100   5.503   0.682 -0.4069  0.2948  0.3455
11157SOL    HW135850   7.011   5.472   0.662  0.0943 -0.5069 -0.7638
11157SOL    HW235851   7.154   5.464   0.613  0.6728  1.4970  0.4862
11158SOL     OW35852   5.915   7.176  10.547  0.3903 -0.1866  0.6230
11158SOL    HW135853   5.988   7.231  10.575  0.8139 -0.3325 -0.1642
11158SOL    HW235854   5.858   7.235  10.498 -0.4076  0.0947  1.8567
11159SOL     OW35855   8.024   4.333   2.666  0.1710  0.3787 -0.6018
11159SOL    HW135856   8.093   4.382   2.711 -0.1423  0.5497 -0.3001
11159SOL    HW235857   8.016   4.375   2.581 -1.7164  2.4551  0.4659
11160SOL     OW35858   1.070   3.163  10.006  0.2973 -0.4728  0.1387
11160SOL    HW135859   1.132   3.217   9.956  1.0091 -1.3249  0.0608
11160SOL    HW235860   0.984   3.188   9.973  0.7040 -0.4407 -0.9608
11161SOL     OW35861   6.937   3.927   4.007  0.4220  0.0936 -0.3637
11161SOL    HW135862   6.872   3.930   4.078 -0.4112 -2.3924 -0.9327
11161SOL    HW235863   7.020   3.917   4.052  0.0260 -0.2031  0.3261
11162SOL     OW35864   7.752   1.795   7.987  0.0787  0.4721 -0.5604
11162SOL    HW135865   7.767   1.712   7.941 -2.6660 -0.5587  0.2055
11162SOL    HW235866   7.838   1.821   8.018  1.0868 -1.9130 -1.1167
11163SOL     OW35867   3.748   3.152   7.487  0.7058  0.4012  0.3892
11163SOL    HW135868   3.739   3.234   7.535 -2.9291  0.3884  0.0169
11163SOL    HW235869   3.760   3.085   7.555  2.2341  1.0117  0.7673
11164SOL     OW35870   9.264   3.771   3.444 -0.0955  0.2082  0.0490
11164SOL    HW135871   9.339   3.755   3.501  1.9823  0.0823 -2.5050
11164SOL    HW235872   9.279   3.714   3.369 -3.5175 -0.8255 -0.0370
11165SOL     OW35873   3.239   7.691   0.073  0.2122 -0.5990  0.5893
11165SOL    HW135874   3.310   7.717   0.014 -0.5691  0.3679  0.0523
11165SOL    HW235875   3.281   7.686   0.159  1.1418 -1.0094  0.1378
11166SOL     OW35876   4.279   4.275   0.430  0.6322  0.7132 -1.2921
11166SOL    HW135877   4.372   4.277   0.408  0.3439 -2.1150 -3.3637
11166SOL    HW235878   4.234   4.300   0.350 -0.4566  2.7805 -0.1107
11167SOL     OW35879   2.768  10.016   9.507  0.7901 -0.2022  0.1048
11167SOL    HW135880   2.775  10.046   9.598 -1.2994  0.8155 -0.0265
11167SOL    HW235881   2.675  10.003   9.493  1.0574 -0.2135 -1.9560
11168SOL     OW35882   7.540   9.396   7.956 -0.3701 -0.2615 -0.3921
11168SOL    HW135883   7.586   9.479   7.968 -1.2965  0.1020  0.8903
11168SOL    HW235884   7.607   9.336   7.923  0.5383  0.7501 -0.4476
11169SOL     OW35885   3.420   8.236   4.756  0.2262 -0.1889 -0.3386
11169SOL    HW135886   3.488   8.199   4.700 -1.4905 -3.1841 -0.6659
11169SOL    HW235887   3.445   8.211   4.845  1.0105  1.3091 -0.1029
11170SOL     OW35888   6.201   8.976  10.767  0.5864 -0.5272 -0.7851
11170SOL    HW135889   6.241   9.042  10.824  0.7138 -0.6288 -0.7565
11170SOL    HW235890   6.264   8.904  10.766  0.0531 -1.0164 -0.1103
11171SOL     OW35891   6.343   0.355   5.398 -0.0464 -0.6422  0.0923
11171SOL    HW135892   6.432   0.387   5.391  0.1464 -1.2932 -0.6621
11171SOL    HW235893   6.342   0.301   5.477  0.5803 -1.6505 -0.5628
11172SOL     OW35894   8.149   5.172  10.444 -0.4175 -0.4964  0.0462
11172SOL    HW135895   8.178   5.232  10.375  1.1949 -0.4898  0.6934
11172SOL    HW235896   8.166   5.218  10.526 -1.7584 -0.7462  0.4892
11173SOL     OW35897   2.293   2.523   2.352 -0.2257 -0.2554  0.1135
11173SOL    HW135898   2.382   2.558   2.342 -0.0924 -0.4972  0.4320
11173SOL    HW235899   2.241   2.599   2.379 -0.4908  0.2885 -1.7716
11174SOL     OW35900   4.009   1.559   5.761  0.2889  0.1228  0.3361
11174SOL    HW135901   3.996   1.642   5.715 -1.8184 -0.9381 -1.1098
11174SOL    HW235902   3.992   1.580   5.853  0.9706  1.4982  0.1856
11175SOL     OW35903   1.253   9.537   1.999 -0.5117  0.5066 -0.1144
11175SOL    HW135904   1.288   9.565   1.915 -0.4509  0.2001 -0.1920
11175SOL    HW235905   1.264   9.613   2.056  0.4396  0.3602 -0.0853
11176SOL     OW35906   9.479   9.425   6.975 -0.4316 -0.2704  0.1912
11176SOL    HW135907   9.445   9.410   6.887 -0.1033 -0.0273  0.0206
11176SOL    HW235908   9.510   9.515   6.974 -0.3153 -0.3047  0.5186
11177SOL     OW35909   4.381   1.000  10.470 -0.0191  0.6268  0.2483
11177SOL    HW135910   4.421   0.935  10.528 -0.8346 -1.4163 -1.3416
11177SOL    HW235911   4.444   1.012  10.400  0.4013  2.0883  0.8577
11178SOL     OW35912   2.566   4.709   9.961 -0.4258  0.4177  0.3557
11178SOL    HW135913   2.614   4.785   9.996 -1.0259  1.3607 -0.7924
11178SOL    HW235914   2.630   4.638   9.962  0.8511  1.5060 -0.6436
11179SOL     OW35915   3.069  10.743   8.361 -0.1682  0.0194 -0.0414
11179SOL    HW135916   2.994  10.715   8.309 -1.3248  2.6114  0.0492
11179SOL    HW235917   3.090  10.668   8.416 -2.0179 -1.1351 -0.8245
11180SOL     OW35918  10.223   1.140   9.320 -0.1525  0.6049  0.3471
11180SOL    HW135919  10.274   1.191   9.257 -0.7628 -0.8848 -1.4268
11180SOL    HW235920  10.284   1.074   9.352 -0.4978 -0.1653 -0.5544
11181SOL     OW35921   5.060   4.629   0.684 -0.3591  0.5294  0.2865
11181SOL    HW135922   4.999   4.693   0.647 -0.3472 -0.0792 -0.8174
11181SOL    HW235923   5.147   4.661   0.658 -0.2558  0.7715  0.8856
11182SOL     OW35924   5.045   3.790   9.115 -0.1176 -0.4176  0.1621
11182SOL    HW135925   5.096   3.823   9.189 -0.2883  1.8163 -0.6474
11182SOL    HW235926   5.095   3.716   9.082  0.9520 -0.2394  1.3214
11183SOL     OW35927   8.712   3.304  10.474 -0.4706  0.0977  0.4309
11183SOL    HW135928   8.702   3.278  10.382  0.7195  0.6430  0.1329
11183SOL    HW235929   8.682   3.228  10.524 -3.4692  0.6323 -0.3424
11184SOL     OW35930  10.460   8.728  10.760  0.8964 -0.8568  0.1125
11184SOL    HW135931  10.434   8.808  10.714  3.3471  1.2602  2.0965
11184SOL    HW235932  10.497   8.672  10.692 -1.8633 -0.9250 -1.5146
11185SOL     OW35933   3.316   6.745   8.061  0.4405  0.1100  0.5780
11185SOL    HW135934   3.250   6.712   8.122  1.1517  0.4955  1.6075
11185SOL    HW235935   3.399   6.729   8.106  1.3182 -2.7217 -1.7891
11186SOL     OW35936   3.958   7.572   6.578  0.4313  0.6899  0.0994
11186SOL    HW135937   4.036   7.611   6.618 -0.1177  1.6553  0.2572
11186SOL    HW235938   3.913   7.528   6.650  0.1743  1.2253  0.2700
11187SOL     OW35939   0.710   1.707   9.260  0.4285  0.1020  0.5187
11187SOL    HW135940   0.738   1.656   9.336 -0.3156  0.5260  1.0934
11187SOL    HW235941   0.655   1.647   9.210  0.2178  0.0827  0.7690
11188SOL     OW35942   1.101   0.668   8.993  0.4811 -0.8890  0.6302
11188SOL    HW135943   1.022   0.704   9.032  1.4422  1.2213  0.7483
11188SOL    HW235944   1.084   0.669   8.899  0.9239  1.1261  0.5282
11189SOL     OW35945   3.911   1.633   7.575  0.2991  0.6859 -0.1598
11189SOL    HW135946   3.846   1.702   7.567  0.2231  0.6467  0.0917
11189SOL    HW235947   3.963   1.658   7.652  0.7302  0.8399 -0.5025
11190SOL     OW35948   4.941   6.252   4.713 -0.0650  0.0557  0.2762
11190SOL    HW135949   4.856   6.208   4.708 -1.4330  2.3961  1.1240
11190SOL    HW235950   4.951   6.296   4.628  0.4286 -0.4164  0.0862
11191SOL     OW35951   9.725   4.425   3.462  0.0677  0.5307 -0.0683
11191SOL    HW135952   9.640   4.393   3.491  1.1255 -1.4964  1.0873
11191SOL    HW235953   9.741   4.503   3.515 -1.2982  1.3014 -0.7455
11192SOL     OW35954   8.198   3.426   0.342  0.2022  0.2414 -0.1910
11192SOL    HW135955   8.188   3.508   0.391  1.0747  1.3452 -1.7475
11192SOL    HW235956   8.121   3.374   0.364 -0.4405  1.5354  0.7200
11193SOL     OW35957   3.611   7.922   7.079  0.5334 -0.1771 -0.3403
11193SOL    HW135958   3.523   7.952   7.053  0.2560 -1.2706 -0.6994
11193SOL    HW235959   3.660   7.919   6.997  0.7139 -0.2078 -0.2313
11194SOL     OW35960   9.584   5.210   6.191 -0.2742  0.7683 -0.1102
11194SOL    HW135961   9.621   5.244   6.110 -0.6878  0.1343 -0.5825
11194SOL    HW235962   9.610   5.118   6.193 -0.9293  0.5785  0.0740
11195SOL     OW35963   2.664   8.371   4.944 -0.2864  0.0402  0.4183
11195SOL    HW135964   2.644   8.278   4.954 -0.2639  0.0274  0.3426
11195SOL    HW235965   2.578   8.412   4.933 -0.2087 -0.2099 -1.5805
11196SOL     OW35966   3.851   3.470   3.064  0.5540 -0.5532  0.3096
11196SOL    HW135967   3.819   3.524   3.137  0.4494  1.9452 -1.4649
11196SOL    HW235968   3.933   3.512   3.037  0.8950 -1.7713 -0.6689
11197SOL     OW35969   4.609   5.826   3.664 -0.0264 -0.3355  0.4406
11197SOL    HW135970   4.544   5.872   3.611  0.5832  0.5711  0.4551
11197SOL    HW235971   4.575   5.832   3.754 -2.1880 -3.7428  0.0588
11198SOL     OW35972   1.230   7.303   5.926 -0.7299 -0.3142 -0.1894
11198SOL    HW135973   1.147   7.279   5.967 -1.2641  2.0581  0.2258
11198SOL    HW235974   1.268   7.368   5.985  0.7562 -0.3036 -1.1053
11199SOL     OW35975   3.366   8.569   7.042  0.4206  0.3391 -0.4274
11199SOL    HW135976   3.393   8.565   7.134 -1.3831 -0.5125  0.1012
11199SOL    HW235977   3.296   8.504   7.034  2.2228 -1.5077 -3.0102
11200SOL     OW35978   9.847   2.081   9.389 -0.2758  0.1606 -0.0733
11200SOL    HW135979   9.918   2.135   9.354  1.5000 -0.9414  1.6494
11200SOL    HW235980   9.794   2.142   9.440  1.2046  0.5220  1.1159
11201SOL     OW35981   5.925   2.418   0.984  0.2069  0.4650  1.1119
11201SOL    HW135982   5.921   2.327   1.011  0.6713  0.0956 -0.0066
11201SOL    HW235983   5.990   2.419   0.914  0.0982  1.6290  1.0099
11202SOL     OW35984   6.762   4.133   9.710  0.3473 -0.3200  0.4528
11202SOL    HW135985   6.777   4.040   9.692  1.7945 -0.0744  0.2555
11202SOL    HW235986   6.838   4.177   9.673 -1.2265  1.1847 -1.1982
11203SOL     OW35987  10.598   2.949  10.586  0.0499  0.0618 -0.1967
11203SOL    HW135988  10.502   2.959  10.591  0.1809  2.4547 -1.0034
11203SOL    HW235989  10.629   2.990  10.667  0.4200  0.0303 -0.3243
11204SOL     OW35990   1.692   9.166   5.895  0.4603 -0.3880  0.1174
11204SOL    HW135991   1.744   9.230   5.845  1.4494 -0.6769  0.7595
11204SOL    HW235992   1.633   9.220   5.948 -2.6050 -0.0230 -3.2279
11205SOL     OW35993   7.381   6.056   9.998  0.3287  0.3270 -0.1852
11205SOL    HW135994   7.406   6.148  10.002  1.3351  0.0537  0.1050
11205SOL    HW235995   7.402   6.021  10.085 -1.1693  0.0872  0.1050
11206SOL     OW35996   0.558   6.251   5.389  0.5041 -0.2826  0.3141
11206SOL    HW135997   0.635   6.241   5.445 -0.6099 -0.9021  1.7871
11206SOL    HW235998   0.533   6.343   5.398  0.1356 -0.4521  1.1375
11207SOL     OW35999   0.570   4.584   9.413 -0.5263  0.6748  0.2549
11207SOL    HW136000   0.589   4.641   9.339 -2.0419 -0.7447 -1.3173
11207SOL    HW236001   0.503   4.631   9.463  0.1363  1.4172  0.4585
11208SOL     OW36002   4.399   9.673   3.219  0.2844  0.0475 -0.1779
11208SOL    HW136003   4.331   9.697   3.157  0.7536 -1.1236 -1.1712
11208SOL    HW236004   4.356   9.679   3.305 -0.7349  0.3942 -0.6947
11209SOL     OW36005  10.479   4.110   1.902  0.6578  0.1991  0.3784
11209SOL    HW136006  10.460   4.070   1.987  1.0754  1.8443  1.2910
11209SOL    HW236007  10.407   4.083   1.846 -1.2343  1.4259  2.0811
11210SOL     OW36008   1.148   8.529   5.768  0.0991 -0.0451 -1.3014
11210SOL    HW136009   1.113   8.529   5.857  3.2051  1.0064  0.0593
11210SOL    HW236010   1.204   8.452   5.765  0.1928  0.0549 -2.2749
11211SOL     OW36011   9.540   5.477   9.572 -0.3536  0.1622  0.2689
11211SOL    HW136012   9.501   5.557   9.538 -1.4496  0.2812  1.7156
11211SOL    HW236013   9.594   5.506   9.646  1.6094 -0.1377 -0.9823
11212SOL     OW36014   7.564   0.666   1.455 -0.4227 -0.0644 -0.2062
11212SOL    HW136015   7.563   0.735   1.521  0.0145  0.0699 -0.3356
11212SOL    HW236016   7.656   0.646   1.442 -0.4918  0.0372 -0.9085
11213SOL     OW36017   4.121   6.380   6.557 -0.0906  0.3937 -0.2727
11213SOL    HW136018   4.202   6.380   6.608  0.4196  1.1076 -1.0728
11213SOL    HW236019   4.134   6.447   6.490 -2.2228  2.1829  0.9616
11214SOL     OW36020   8.481   8.902   3.668 -0.7474  0.2449  0.1993
11214SOL    HW136021   8.559   8.920   3.616 -1.2475  0.8203 -0.3716
11214SOL    HW236022   8.428   8.843   3.614 -1.1306  0.6077  0.1632
11215SOL     OW36023   7.747   3.472   9.298 -0.5729 -0.1693  0.2197
11215SOL    HW136024   7.672   3.525   9.273 -0.4112 -0.8275 -1.9014
11215SOL    HW236025   7.823   3.526   9.276 -0.4140 -0.1324  0.8440
11216SOL     OW36026   4.945   4.304   3.032 -0.0530 -0.2798  0.6861
11216SOL    HW136027   4.931   4.210   3.042 -1.4588 -0.5958 -2.8413
11216SOL    HW236028   4.860   4.343   3.053 -0.0068  0.0213  0.3166
11217SOL     OW36029   8.414   6.206   7.269 -0.0625 -0.1434  0.3561
11217SOL    HW136030   8.426   6.197   7.175 -1.2579 -0.1227  0.1880
11217SOL    HW236031   8.386   6.297   7.282 -0.0310 -0.1818  0.7077
11218SOL     OW36032   7.307  10.517   5.739 -0.4384  0.0075  0.2446
11218SOL    HW136033   7.297  10.531   5.644  1.1689  0.6452  0.1300
11218SOL    HW236034   7.362  10.439   5.746  0.4355  0.6456  0.6129
11219SOL     OW36035  10.060   7.474   6.214  0.4076  0.2047 -0.0843
11219SOL    HW136036  10.021   7.445   6.296 -0.8249 -0.7768 -0.9754
11219SOL    HW236037   9.991   7.462   6.149  0.2157  3.9006 -0.8156
11220SOL     OW36038   0.735   7.850   8.675 -0.3704  0.1397 -0.2695
11220SOL    HW136039   0.765   7.895   8.753 -1.1643 -1.8149  1.2546
11220SOL    HW236040   0.656   7.897   8.647 -0.0153  0.9140  0.0376
11221SOL     OW36041   3.848   5.276   3.383  0.3889 -0.4914 -0.5418
11221SOL    HW136042   3.769   5.324   3.407  1.6258  0.9511  0.8270
11221SOL    HW236043   3.855   5.289   3.288  0.7835  2.3536 -0.2314
11222SOL     OW36044   4.563   1.684   0.902 -0.4348 -0.5456 -0.4850
11222SOL    HW136045   4.560   1.761   0.845  3.0581 -1.6456 -2.4399
11222SOL    HW236046   4.656   1.666   0.913 -0.9218 -1.4181  4.3661
11223SOL     OW36047   3.282   9.447   5.752  0.0426  0.0226 -0.5183
11223SOL    HW136048   3.284   9.378   5.686  0.4620 -0.7230  0.2613
11223SOL    HW236049   3.372   9.477   5.759  0.0380 -0.0537 -0.1241
11224SOL     OW36050  10.235   7.235   5.288 -0.8107  0.0625  0.0823
11224SOL    HW136051  10.258   7.183   5.364 -0.1679 -0.6497 -0.5869
11224SOL    HW236052  10.265   7.323   5.309  0.3548 -0.3574  0.2118
11225SOL     OW36053   1.261   4.993   5.962  0.1328  0.0062  0.1935
11225SOL    HW136054   1.302   5.007   5.876  0.3478  3.4767  0.7052
11225SOL    HW236055   1.178   5.041   5.957  1.2272  2.3910  2.5700
11226SOL     OW36056   4.496   0.808   1.956 -0.4054 -0.3778  0.0123
11226SOL    HW136057   4.505   0.874   2.025 -1.2323  0.7347 -0.8965
11226SOL    HW236058   4.412   0.765   1.974 -0.3459 -0.4813  0.0401
11227SOL     OW36059   3.662   4.934   6.134 -0.2031  0.5574  0.0494
11227SOL    HW136060   3.644   4.924   6.227 -1.0994  0.1343 -0.1554
11227SOL    HW236061   3.707   4.853   6.109  1.3838  1.3022  0.4095
11228SOL     OW36062   6.680   8.034   1.383  0.3901 -0.3554 -0.1811
11228SOL    HW136063   6.652   8.089   1.457  0.0940  0.0790 -0.6058
11228SOL    HW236064   6.599   8.018   1.334  0.4737 -1.1819 -0.0595
11229SOL     OW36065   2.626   9.714   6.111  0.0302  0.4278 -0.0847
11229SOL    HW136066   2.594   9.659   6.182  1.2406 -0.6112 -0.3126
11229SOL    HW236067   2.547   9.740   6.064 -0.5658 -1.4993 -0.2440
11230SOL     OW36068   2.139   3.017   7.590 -0.1921  0.2583  0.4206
11230SOL    HW136069   2.072   3.019   7.660 -0.6884 -0.7673  0.0035
11230SOL    HW236070   2.161   3.109   7.575 -2.7799  0.8118 -0.6095
11231SOL     OW36071  10.280   9.512   2.707  0.1405  0.4605 -0.4977
11231SOL    HW136072  10.248   9.562   2.782 -1.6139 -1.4809  0.1456
11231SOL    HW236073  10.223   9.538   2.634 -1.0494 -0.8084 -0.0644
11232SOL     OW36074   8.895   6.201   9.531  0.0474 -0.3936 -0.1688
11232SOL    HW136075   8.862   6.113   9.549  0.3174 -0.5591 -0.4704
11232SOL    HW236076   8.986   6.200   9.561  0.2104 -0.3823 -0.6483
11233SOL     OW36077   5.467   0.733   9.160  0.4066 -0.5468 -0.0662
11233SOL    HW136078   5.423   0.784   9.228 -1.8520  0.4443 -2.1524
11233SOL    HW236079   5.558   0.763   9.164  0.1037  0.3006  1.7167
11234SOL     OW36080   6.075   5.303   6.142  0.0357  0.2101  0.5428
11234SOL    HW136081   6.037   5.327   6.058 -1.1196 -1.3644  0.5890
11234SOL    HW236082   6.164   5.339   6.138  0.3750 -0.6830 -1.7708
11235SOL     OW36083   7.484   6.348   4.865  0.0005  0.2004  0.1336
11235SOL    HW136084   7.574   6.379   4.855  0.5721 -1.7943 -1.6177
11235SOL    HW236085   7.441   6.373   4.784 -1.3497  1.9458  1.3279
11236SOL     OW36086   5.891   4.950   2.331  0.0012 -0.1532 -0.4741
11236SOL    HW136087   5.807   4.943   2.376  1.1828 -2.9126  1.5732
11236SOL    HW236088   5.877   4.906   2.247 -0.8980  0.5861 -0.7318
11237SOL     OW36089   0.537   3.514   4.570 -0.5588  1.1768  0.4824
11237SOL    HW136090   0.587   3.507   4.489  0.2817 -1.3567  1.0972
11237SOL    HW236091   0.452   3.475   4.549 -0.4167  0.7178  0.7399
11238SOL     OW36092   0.810   9.942   2.556 -0.1875 -0.0511  0.1077
11238SOL    HW136093   0.866   9.865   2.559 -1.3188 -0.8623  2.1302
11238SOL    HW236094   0.827   9.988   2.638 -2.1117 -0.1298  0.6170
11239SOL     OW36095   0.043   0.037   9.431 -0.0120  0.5140  0.2559
11239SOL    HW136096  -0.032   0.005   9.480 -0.3284  1.3669  0.3455
11239SOL    HW236097   0.063  -0.033   9.369  0.9326 -0.9696  2.1333
11240SOL     OW36098   8.907   2.192   6.147  0.1007  0.1773 -0.0469
11240SOL    HW136099   8.921   2.276   6.103 -1.4345  0.8749  0.6960
11240SOL    HW236100   8.896   2.215   6.240 -1.5726 -0.6480  0.0101
11241SOL     OW36101   2.792   2.344   0.362 -0.4573 -0.4629 -0.3050
11241SOL    HW136102   2.810   2.254   0.389 -0.7026 -0.3924  0.1025
11241SOL    HW236103   2.869   2.370   0.311 -1.0422 -1.4182 -1.7454
11242SOL     OW36104   0.201   4.635   8.431 -0.1533 -0.0946  0.5257
11242SOL    HW136105   0.176   4.614   8.521  3.0644  0.1716  1.5914
11242SOL    HW236106   0.251   4.559   8.401 -0.3062  0.2602 -0.7046
11243SOL     OW36107   4.592   8.027   3.139  0.6306 -0.0154  0.3377
11243SOL    HW136108   4.587   7.938   3.174 -2.5286 -0.5181 -1.0157
11243SOL    HW236109   4.620   8.015   3.048 -0.7602  0.1958 -0.1481
11244SOL     OW36110   9.269   4.590   1.178 -0.0436  0.3663 -0.1803
11244SOL    HW136111   9.338   4.626   1.122 -0.8449  0.2877 -1.2350
11244SOL    HW236112   9.240   4.665   1.231 -2.2493  1.6483 -2.8998
11245SOL     OW36113  10.707   8.382   1.268  0.5487 -0.0843  0.1065
11245SOL    HW136114  10.698   8.355   1.177  2.5829  0.1635 -0.2261
11245SOL    HW236115  10.754   8.310   1.310  1.1838  0.5506  0.5190
11246SOL     OW36116   0.395  10.323   8.274 -0.0191  0.4246  0.1370
11246SOL    HW136117   0.417  10.259   8.207  1.9945  1.9242 -0.7480
11246SOL    HW236118   0.472  10.380   8.279 -1.3769  2.2696  1.4468
11247SOL     OW36119   0.773   6.440   1.416  0.1036  0.7635 -0.1742
11247SOL    HW136120   0.833   6.476   1.351  0.9884  0.8177  0.6541
11247SOL    HW236121   0.753   6.353   1.384  0.3796  0.8567 -0.6171
11248SOL     OW36122   0.212   4.434   0.571 -0.1494  0.5944  0.0863
11248SOL    HW136123   0.139   4.387   0.530  0.5909  0.1087 -0.6974
11248SOL    HW236124   0.268   4.366   0.606  0.7765  0.8839 -0.7850
11249SOL     OW36125   5.858   5.878   7.411 -0.0907  0.2650  0.6736
11249SOL    HW136126   5.838   5.920   7.495 -0.1879  0.2179  0.6746
11249SOL    HW236127   5.774   5.877   7.365  0.1022  0.9234  0.2945
11250SOL     OW36128   5.439   0.178   3.687 -0.0661 -0.0153 -0.2803
11250SOL    HW136129   5.509   0.231   3.648 -0.1130  0.5327  0.3648
11250SOL    HW236130   5.377   0.163   3.615  0.2003  0.3725 -0.5927
11251SOL     OW36131   3.527   7.384   6.927  0.6811 -0.5716  0.1636
11251SOL    HW136132   3.611   7.347   6.899 -0.4585 -2.4994 -0.9159
11251SOL    HW236133   3.465   7.357   6.860 -1.4521 -2.0339  2.5115
11252SOL     OW36134   7.010   6.117   4.014 -0.0241  0.1871 -0.2586
11252SOL    HW136135   6.922   6.079   4.011 -0.0314  0.1636  0.2034
11252SOL    HW236136   7.004   6.194   3.957 -0.1182 -0.2685 -0.8686
11253SOL     OW36137   5.642  10.484   3.675 -0.2323  0.3938  0.5778
11253SOL    HW136138   5.729  10.520   3.658 -0.2032  1.0842  2.0200
11253SOL    HW236139   5.641  10.400   3.628  0.8277  0.8505 -0.3002
11254SOL     OW36140   7.353   4.999   2.948 -0.5034  0.7651  0.4835
11254SOL    HW136141   7.286   5.011   3.016 -1.7930 -1.2699 -0.3478
11254SOL    HW236142   7.333   5.066   2.883 -0.4349  1.4926  1.1867
11255SOL     OW36143   6.651   0.507   6.017  0.4150 -0.2265 -0.0509
11255SOL    HW136144   6.727   0.482   6.070  0.7646 -1.8663 -1.2149
11255SOL    HW236145   6.608   0.424   5.998  0.2253  0.2902 -2.1629
11256SOL     OW36146  10.074   3.266   9.695  0.3000 -0.2500  0.1758
11256SOL    HW136147   9.990   3.236   9.661 -0.4145  1.8879 -0.0924
11256SOL    HW236148  10.129   3.277   9.617  0.0593  0.5446  0.1091
11257SOL     OW36149   0.147   3.208   6.656 -0.8611 -0.6714 -0.1617
11257SOL    HW136150   0.087   3.162   6.597 -0.5631 -0.9209 -0.2736
11257SOL    HW236151   0.096   3.221   6.736 -1.8728  1.2047 -1.0322
11258SOL     OW36152   0.240   7.561   1.171  0.1912 -0.2703 -0.1934
11258SOL    HW136153   0.219   7.530   1.084 -1.5889 -0.2155  0.1873
11258SOL    HW236154   0.276   7.649   1.157  2.2856 -1.1704 -1.0085
11259SOL     OW36155   9.020   8.688   1.964  0.2668 -0.4873  0.0258
11259SOL    HW136156   8.992   8.720   1.879 -0.0799  1.8215  0.9489
11259SOL    HW236157   9.113   8.669   1.954  0.3980  0.4709 -0.6861
11260SOL     OW36158   2.372   2.390   0.056  0.1627 -0.4656 -0.5295
11260SOL    HW136159   2.357   2.303   0.095 -0.3850 -0.8057 -1.4623
11260SOL    HW236160   2.421   2.372  -0.024  0.3249  0.1239 -0.5631
11261SOL     OW36161  10.715   8.982   1.982 -0.3072 -0.0191  0.3638
11261SOL    HW136162  10.705   9.028   2.065 -1.4139 -2.4931  1.7068
11261SOL    HW236163  10.648   9.020   1.925 -1.3189 -0.0409  1.4894
11262SOL     OW36164   2.808   9.185   7.909 -0.6905 -0.3438 -0.0930
11262SOL    HW136165   2.838   9.138   7.986 -0.7479  2.1947  1.5956
11262SOL    HW236166   2.889   9.216   7.867 -0.6657 -1.5825 -0.9970
11263SOL     OW36167   5.474   2.755   7.799 -0.1630 -0.2701  0.2384
11263SOL    HW136168   5.528   2.752   7.878 -0.2912 -0.6950  0.3108
11263SOL    HW236169   5.533   2.787   7.731 -0.7904  3.1824  1.1157
11264SOL     OW36170   2.947   0.264   1.426 -0.2342 -0.4124 -0.6275
11264SOL    HW136171   2.871   0.287   1.372 -0.3722 -0.6699 -0.5495
11264SOL    HW236172   3.011   0.333   1.409  0.3030 -1.2539 -2.2766
11265SOL     OW36173   7.608   5.075   8.866  0.6560 -0.1880  0.3124
11265SOL    HW136174   7.607   5.170   8.877  0.5651 -0.0703 -0.6760
11265SOL    HW236175   7.683   5.046   8.918  0.1445  0.3224  1.3561
11266SOL     OW36176   9.267   4.891   2.840 -0.0125 -0.1006 -0.0445
11266SOL    HW136177   9.248   4.812   2.889  1.1134 -0.3461  0.0197
11266SOL    HW236178   9.206   4.889   2.767  0.0025 -1.0383 -0.0439
11267SOL     OW36179   0.204   8.483   5.168 -0.2637 -0.1075 -0.0652
11267SOL    HW136180   0.156   8.505   5.088 -1.6718  1.4404  1.1332
11267SOL    HW236181   0.275   8.547   5.172 -0.9481  0.6402  0.5228
11268SOL     OW36182   3.563   0.345   4.761 -0.1104 -0.0551 -0.0928
11268SOL    HW136183   3.616   0.415   4.724 -1.1679  0.5869 -0.4339
11268SOL    HW236184   3.555   0.280   4.691 -1.3848  0.7582 -0.7370
11269SOL     OW36185   2.994   4.352   1.402 -0.1228  0.2801  0.4078
11269SOL    HW136186   2.907   4.359   1.440  0.1604  0.9224  0.9545
11269SOL    HW236187   2.995   4.418   1.332 -0.8626 -1.3303 -1.2077
11270SOL     OW36188   8.238   1.596   9.613 -0.4894 -0.0420 -0.4145
11270SOL    HW136189   8.246   1.678   9.661  2.0204  0.1749 -1.0805
11270SOL    HW236190   8.255   1.528   9.678  2.8497  0.2496 -0.8228
11271SOL     OW36191   6.270   6.297   8.136 -0.1996  0.0555 -0.2323
11271SOL    HW136192   6.199   6.269   8.079 -0.7508  1.0465 -0.0612
11271SOL    HW236193   6.322   6.218   8.152 -0.1883 -0.2961 -1.8804
11272SOL     OW36194   9.342   6.953   2.946 -0.0872  0.2244 -0.4328
11272SOL    HW136195   9.329   6.861   2.924 -1.0750  0.2624 -0.0676
11272SOL    HW236196   9.329   7.000   2.863  0.1671  0.0578 -0.5678
11273SOL     OW36197   2.946   1.967   2.125  0.1412  0.1393 -0.3364
11273SOL    HW136198   3.025   1.952   2.176 -0.9511  1.8153  1.9827
11273SOL    HW236199   2.978   1.980   2.035  2.3547 -0.3947  0.3183
11274SOL     OW36200   2.699   6.488   5.244  0.5819 -0.1267 -0.4293
11274SOL    HW136201   2.705   6.414   5.304 -0.2626  1.0618  1.1823
11274SOL    HW236202   2.616   6.475   5.199 -1.6526  1.8117  2.7508
11275SOL     OW36203   9.557   4.005   9.137 -0.2419  0.3523  0.3154
11275SOL    HW136204   9.484   3.959   9.095 -0.0834  0.5131 -0.1381
11275SOL    HW236205   9.635   3.958   9.108 -0.1673  0.1434  0.8490
11276SOL     OW36206   7.807  10.255   0.156  0.0920  0.1466  0.1123
11276SOL    HW136207   7.835  10.337   0.114 -1.1273  2.3202  3.1481
11276SOL    HW236208   7.880  10.233   0.214  0.0239 -0.3983 -0.0120
11277SOL     OW36209  10.587   4.353   6.508  0.0122 -0.8417 -0.8335
11277SOL    HW136210  10.514   4.394   6.462 -0.0191  0.5468  0.3682
11277SOL    HW236211  10.582   4.389   6.597  0.9761 -2.2534 -0.1752
11278SOL     OW36212   0.515  10.591   1.691 -1.0876  0.5534  0.1699
11278SOL    HW136213   0.454  10.590   1.617  0.7282 -1.6329 -1.4362
11278SOL    HW236214   0.575  10.663   1.672  0.0523 -0.6995 -1.1493
11279SOL     OW36215   5.562   5.239   3.781 -0.1835 -0.3144  0.3560
11279SOL    HW136216   5.600   5.151   3.791 -0.4047 -0.5387 -0.7161
11279SOL    HW236217   5.633   5.298   3.807  0.0204 -0.7992  0.9320
11280SOL     OW36218   1.587   8.016   3.520  0.2232  0.3034  0.4070
11280SOL    HW136219   1.603   8.082   3.587 -1.5321  0.1845  0.9718
11280SOL    HW236220   1.643   8.043   3.447  1.8296  0.6810  1.7211
11281SOL     OW36221   0.902   9.044   1.050  0.2865  0.2113 -0.2103
11281SOL    HW136222   0.953   9.099   1.110 -0.9176  0.0129  1.0558
11281SOL    HW236223   0.885   8.964   1.099 -0.5485 -0.0518 -0.9021
11282SOL     OW36224   6.925   2.962   0.647 -0.5880 -0.3286  0.0691
11282SOL    HW136225   6.956   3.046   0.615 -0.4565  0.5146  2.2287
11282SOL    HW236226   7.004   2.914   0.672 -0.6703 -1.0533 -0.9918
11283SOL     OW36227   4.611  10.321   0.374  0.6448  0.1553  0.8017
11283SOL    HW136228   4.683  10.311   0.437 -0.2251  0.4533  1.8806
11283SOL    HW236229   4.557  10.243   0.387 -0.2852  0.8811  1.4350
11284SOL     OW36230  10.304   8.982   6.775 -0.3553  0.4906  0.5919
11284SOL    HW136231  10.348   8.900   6.755  0.2513  0.5394  1.6266
11284SOL    HW236232  10.211   8.963   6.767 -0.2879 -0.7334  2.3327
11285SOL     OW36233  10.369   2.951  10.281  0.0787 -0.0669  0.7963
11285SOL    HW136234  10.291   2.896  10.287  0.2853 -0.5135 -0.4302
11285SOL    HW236235  10.442   2.890  10.287  0.3095  0.0603 -0.4248
11286SOL     OW36236   8.320   1.894   2.762  0.1608 -0.7260  0.0056
11286SOL    HW136237   8.274   1.955   2.820  0.3773  0.1695 -0.7494
11286SOL    HW236238   8.259   1.877   2.691 -0.3881 -2.3983  0.8220
11287SOL     OW36239   0.576   8.640   0.464  0.0305 -0.5289 -0.1244
11287SOL    HW136240   0.503   8.578   0.460 -0.7442  0.3853 -3.6421
11287SOL    HW236241   0.641   8.605   0.402  0.7562  0.7500 -0.1160
11288SOL     OW36242   4.921   5.356   4.042 -0.2196  0.0467 -0.1133
11288SOL    HW136243   4.905   5.304   3.963  0.5079  1.1945 -1.0598
11288SOL    HW236244   4.979   5.426   4.012  0.4102  0.2676  1.5457
11289SOL     OW36245   9.698   5.223   5.129 -0.3127 -0.5766  0.4877
11289SOL    HW136246   9.605   5.216   5.151  0.2814 -2.8360  2.6204
11289SOL    HW236247   9.725   5.306   5.168 -1.2427 -0.2263  0.4330
11290SOL     OW36248   3.464  10.216   9.227 -0.1541 -0.3801  0.6983
11290SOL    HW136249   3.373  10.201   9.250 -0.1126 -0.9303  0.5234
11290SOL    HW236250   3.513  10.189   9.305 -0.1667  0.3923  0.9774
11291SOL     OW36251   9.558   8.916   3.946 -0.7218 -0.1494  0.0116
11291SOL    HW136252   9.633   8.936   3.889  0.3197  1.2389  1.7400
11291SOL    HW236253   9.527   9.002   3.975 -1.7534 -0.7857  0.8588
11292SOL     OW36254   2.464   7.293   8.564 -0.0607 -0.2224  0.2513
11292SOL    HW136255   2.442   7.240   8.641 -1.0801  0.0632  0.1739
11292SOL    HW236256   2.429   7.380   8.583 -2.0748 -0.6122 -1.2899
11293SOL     OW36257   8.329   3.959  10.477 -0.0896 -0.0505  0.6305
11293SOL    HW136258   8.236   3.943  10.494  0.0576  0.2946  1.8998
11293SOL    HW236259   8.362   3.997  10.559  1.3090 -0.7350  0.4097
11294SOL     OW36260   3.765   8.115  10.092  0.7108 -0.1070  0.1257
11294SOL    HW136261   3.841   8.065  10.123  0.5668 -0.5834 -0.2717
11294SOL    HW236262   3.790   8.206  10.102  1.6999 -0.2523 -0.8556
11295SOL     OW36263   7.638   6.227   0.691 -0.3435  0.0017 -0.2415
11295SOL    HW136264   7.657   6.157   0.629  0.6856  0.2727 -0.2494
11295SOL    HW236265   7.723   6.265   0.713 -0.6807 -0.0303  1.2777
11296SOL     OW36266   2.626   0.919   8.202 -0.2987  0.0805  0.1327
11296SOL    HW136267   2.604   0.836   8.245 -0.3291  0.3843  0.7045
11296SOL    HW236268   2.565   0.983   8.240  1.7055  1.0117  1.9589
11297SOL     OW36269   0.208   3.262   4.858  0.2714 -0.0416  0.6423
11297SOL    HW136270   0.274   3.215   4.806  0.4246 -0.3440  1.1106
11297SOL    HW236271   0.140   3.285   4.794  1.3043  1.1827 -0.0613
11298SOL     OW36272   8.803   4.114   7.507 -0.2401 -0.1601 -0.6653
11298SOL    HW136273   8.835   4.024   7.507  0.0219 -0.1119  1.0500
11298SOL    HW236274   8.809   4.141   7.599 -0.1494  1.6667 -1.1720
11299SOL     OW36275   6.441   0.217   6.202 -0.0253  0.1220  0.0908
11299SOL    HW136276   6.534   0.224   6.224 -0.2668  0.1278  1.1912
11299SOL    HW236277   6.418   0.128   6.226 -0.1719 -0.0800 -0.7671
11300SOL     OW36278   9.413   8.766   0.226  0.3347  0.4395 -0.2467
11300SOL    HW136279   9.411   8.861   0.214  2.2604  0.4066 -1.2736
11300SOL    HW236280   9.489   8.751   0.283  0.6550 -0.5271 -0.9006
11301SOL     OW36281   0.903   6.205   7.198 -0.0180 -0.6918  0.4258
11301SOL    HW136282   0.855   6.137   7.149 -1.5057  0.2251  0.5557
11301SOL    HW236283   0.884   6.186   7.290 -0.0987 -0.3285  0.4822
11302SOL     OW36284   3.781   0.783   9.085  0.1754 -0.0888  0.0427
11302SOL    HW136285   3.728   0.721   9.035  1.0437 -0.9644  0.1680
11302SOL    HW236286   3.870   0.770   9.053  0.4182  0.9335  0.2489
11303SOL     OW36287   5.296  10.419   3.001 -0.4632  0.0050  0.5324
11303SOL    HW136288   5.268  10.464   3.081  0.1517  0.2168  0.6313
11303SOL    HW236289   5.382  10.455   2.982 -1.4329  1.4834 -1.4018
11304SOL     OW36290   9.778   9.890   9.198  0.2798  0.9871 -0.1477
11304SOL    HW136291   9.698   9.938   9.176  0.2865  0.8450 -0.4878
11304SOL    HW236292   9.754   9.798   9.188  0.6994  0.9639 -1.0056
11305SOL     OW36293   1.740  10.082   6.909 -0.2685 -0.3559  0.0183
11305SOL    HW136294   1.701  10.154   6.860  1.0823  1.8104  1.9294
11305SOL    HW236295   1.675  10.060   6.975 -0.1526 -0.0068  0.2468
11306SOL     OW36296   6.581   6.534   7.821 -0.6102  0.5151 -0.0888
11306SOL    HW136297   6.596   6.465   7.886 -1.4196 -0.9117 -1.3426
11306SOL    HW236298   6.663   6.538   7.771 -1.2792 -1.1838 -1.4327
11307SOL     OW36299   9.884   5.798   8.629 -0.0067 -0.7104 -0.1685
11307SOL    HW136300   9.809   5.758   8.583  0.0567 -0.7665 -0.2232
11307SOL    HW236301   9.849   5.822   8.715 -0.9110  1.9065 -1.1535
11308SOL     OW36302   4.784   6.312   1.085 -0.3868  0.2279  0.1201
11308SOL    HW136303   4.780   6.375   1.013 -0.9111 -0.4990 -0.5132
11308SOL    HW236304   4.795   6.227   1.042  0.2029 -0.1303  0.9503
11309SOL     OW36305  10.538   8.932   2.970  0.2620  0.1353 -0.0485
11309SOL    HW136306  10.495   8.993   2.911  0.2081  0.6273  0.4832
11309SOL    HW236307  10.628   8.928   2.939  0.4170  0.9546  0.2567
11310SOL     OW36308   9.240   3.554   5.381 -0.1447 -0.0553  0.2583
11310SOL    HW136309   9.148   3.578   5.380 -0.7135 -2.0850 -0.3257
11310SOL    HW236310   9.244   3.474   5.434  0.9061 -1.2469 -1.4972
11311SOL     OW36311   5.270   9.329   1.521 -0.5130  0.2322  0.3232
11311SOL    HW136312   5.205   9.273   1.479  0.9019 -0.9383 -0.3653
11311SOL    HW236313   5.243   9.418   1.497 -0.0280 -0.3409 -2.7616
11312SOL     OW36314   7.307   1.762   7.847  0.6273  0.8118 -0.3686
11312SOL    HW136315   7.352   1.692   7.895  0.4478  0.8063 -0.2071
11312SOL    HW236316   7.251   1.804   7.913 -0.9202 -0.2891 -0.9214
11313SOL     OW36317   3.631   1.160   5.723  0.4542 -0.3772 -0.3292
11313SOL    HW136318   3.667   1.248   5.722 -1.9177  0.7038  0.5442
11313SOL    HW236319   3.663   1.121   5.805  1.0271 -0.1003 -0.4239
11314SOL     OW36320   0.477   8.354   5.914  0.0329  0.2987  0.4155
11314SOL    HW136321   0.558   8.353   5.966  0.2578  0.6750  0.0850
11314SOL    HW236322   0.481   8.438   5.867  0.4171 -0.5413 -1.1232
11315SOL     OW36323   1.376   6.034   0.429  0.4458 -0.3489  0.3222
11315SOL    HW136324   1.394   6.119   0.468 -1.1754  0.2381 -0.1261
11315SOL    HW236325   1.282   6.035   0.410  0.1071 -2.7154  1.4488
11316SOL     OW36326   0.688   2.333   4.623  0.5540  0.4109  0.1610
11316SOL    HW136327   0.735   2.402   4.669  0.9470 -0.7787  1.6346
11316SOL    HW236328   0.605   2.373   4.597  0.0400  1.0202  2.4772
11317SOL     OW36329   7.009   9.222   5.927 -0.0922 -0.0762 -0.5617
11317SOL    HW136330   7.076   9.248   5.864  1.7313  1.1624  1.6965
11317SOL    HW236331   6.955   9.300   5.938 -0.6418 -0.4118 -0.8912
11318SOL     OW36332   3.285   6.053   6.382 -0.4221 -0.0565 -0.6603
11318SOL    HW136333   3.377   6.037   6.362 -0.3625 -0.0805 -0.3686
11318SOL    HW236334   3.282   6.144   6.412 -0.1436 -0.6707  1.3779
11319SOL     OW36335   7.054   0.663  10.645 -0.0154 -0.3371  0.1354
11319SOL    HW136336   7.017   0.685  10.731  0.4980  2.1908 -0.2110
11319SOL    HW236337   7.141   0.629  10.666 -0.4550 -1.1587  0.6775
11320SOL     OW36338   1.394   5.833   0.098  0.3226  0.2338 -0.5963
11320SOL    HW136339   1.473   5.868   0.141 -0.7707  1.1528  0.7652
11320SOL    HW236340   1.324   5.892   0.125 -1.2842 -1.9218  0.2384
11321SOL     OW36341   9.471   6.383   6.667 -0.8096 -0.7328  0.2634
11321SOL    HW136342   9.506   6.413   6.583 -2.0456  0.3032  0.0867
11321SOL    HW236343   9.534   6.317   6.697  0.6550  0.2387 -0.5619
11322SOL     OW36344   0.832   3.138   8.082 -0.2308 -0.2399  0.0051
11322SOL    HW136345   0.799   3.106   8.166 -0.2923  0.3679  0.2163
11322SOL    HW236346   0.824   3.233   8.088 -0.9465 -0.2207 -0.9829
11323SOL     OW36347  10.025   8.461   6.702 -0.5917 -0.3790  0.6080
11323SOL    HW136348   9.944   8.510   6.718 -0.1948  1.3140 -1.8936
11323SOL    HW236349  10.088   8.499   6.763 -1.4320 -1.1541  2.0129
11324SOL     OW36350   0.210   8.017   1.285 -0.6036  0.2765  0.2020
11324SOL    HW136351   0.140   8.056   1.338  0.3635  1.0760  0.9235
11324SOL    HW236352   0.288   8.023   1.340  0.0445 -0.6217 -0.5803
11325SOL     OW36353   7.147   2.958   8.321 -0.3675 -0.4604  0.7311
11325SOL    HW136354   7.237   2.982   8.299 -0.5508  0.1614  0.6561
11325SOL    HW236355   7.152   2.865   8.346 -0.1786 -1.3998 -2.3168
11326SOL     OW36356   7.388   4.572  10.252  0.7668  0.8351 -0.0529
11326SOL    HW136357   7.308   4.612  10.219  0.3922  0.9869  1.0162
11326SOL    HW236358   7.380   4.575  10.347  1.4602 -0.3281  0.0679
11327SOL     OW36359  10.391   6.444   2.941 -0.3010 -0.7860  0.5972
11327SOL    HW136360  10.434   6.418   2.859 -1.1947 -0.9878  0.1816
11327SOL    HW236361  10.448   6.512   2.977  0.3469 -1.0199  0.0423
11328SOL     OW36362   6.694   6.155   4.323 -0.2192  0.2206 -0.2760
11328SOL    HW136363   6.604   6.122   4.320 -0.0630 -0.3377  0.7828
11328SOL    HW236364   6.748   6.077   4.335  0.3689  0.5997 -0.4088
11329SOL     OW36365   7.347   6.190   7.124  0.2176  0.2924  0.5726
11329SOL    HW136366   7.303   6.250   7.185 -0.6037  0.8020 -0.4927
11329SOL    HW236367   7.359   6.109   7.174 -0.8638  0.5473  1.2678
11330SOL     OW36368  10.208   2.361   8.125 -0.1264 -0.3890  0.0670
11330SOL    HW136369  10.292   2.360   8.079  0.4140 -0.4118  1.0333
11330SOL    HW236370  10.199   2.272   8.160 -0.5115 -0.3612  0.0450
11331SOL     OW36371   6.305   4.148  10.561 -0.1984  0.5141 -0.0448
11331SOL    HW136372   6.338   4.237  10.568  1.0317 -0.0556  2.1378
11331SOL    HW236373   6.377   4.099  10.520  0.2200  0.0186  1.2476
11332SOL     OW36374   1.513   3.928  10.592 -0.4587 -0.5330 -0.1396
11332SOL    HW136375   1.559   4.001  10.632 -2.0094  0.9147 -0.8278
11332SOL    HW236376   1.568   3.852  10.608  1.0961  0.7422  0.8309
11333SOL     OW36377   6.137   4.657   8.891  0.3761 -0.0409  0.2617
11333SOL    HW136378   6.169   4.621   8.974  0.0371 -1.9818 -0.4099
11333SOL    HW236379   6.207   4.640   8.828  0.2706  0.6444 -0.0511
11334SOL     OW36380  10.496   3.888  10.036  0.0244 -0.7920  0.0537
11334SOL    HW136381  10.521   3.796  10.042 -1.3736 -1.1897  0.0610
11334SOL    HW236382  10.464   3.911  10.123  2.0914  0.2710  0.6071
11335SOL     OW36383   8.982   2.064   3.993 -0.1190  0.2371 -0.5751
11335SOL    HW136384   9.015   2.057   3.903  0.4641 -0.1332 -0.3431
11335SOL    HW236385   8.902   2.011   3.993 -0.5756  0.9082 -1.0765
11336SOL     OW36386   5.466   9.577   7.369  0.5532  0.3271 -0.3673
11336SOL    HW136387   5.377   9.598   7.396  0.1221 -1.1216 -0.5854
11336SOL    HW236388   5.456   9.514   7.297  1.7461  0.6881 -0.8872
11337SOL     OW36389   4.749   9.126   1.250 -0.3527 -0.1168  0.0348
11337SOL    HW136390   4.712   9.174   1.324  1.7306  0.0000  1.0779
11337SOL    HW236391   4.796   9.192   1.200  0.5660 -0.6623  0.1658
11338SOL     OW36392   6.082   6.111   3.866 -0.1769 -0.0407  0.0624
11338SOL    HW136393   6.014   6.070   3.920 -1.1911 -2.4036 -2.7928
11338SOL    HW236394   6.147   6.043   3.853  0.4898  0.7671 -0.9548
11339SOL     OW36395   5.721   0.082   0.029 -0.2784 -0.0058 -0.0089
11339SOL    HW136396   5.697   0.157  -0.025 -2.3298 -0.5327  0.0925
11339SOL    HW236397   5.741   0.012  -0.034  0.8981  0.3856 -0.0921
11340SOL     OW36398   6.963   6.597   1.572  0.1503  0.1493 -0.2222
11340SOL    HW136399   6.930   6.602   1.483 -1.4015  0.7108  0.3495
11340SOL    HW236400   6.937   6.510   1.603 -0.7376  0.5573  0.2003
11341SOL     OW36401   3.382   3.012   8.287 -0.0070  0.1994  0.2081
11341SOL    HW136402   3.402   2.976   8.373 -1.8475  1.4868  1.2544
11341SOL    HW236403   3.427   3.097   8.285 -0.6428  0.5523  0.2797
11342SOL     OW36404   2.779   2.404   7.860  0.0552  0.2940 -0.2011
11342SOL    HW136405   2.851   2.416   7.798  0.7448  1.6122  0.7917
11342SOL    HW236406   2.788   2.313   7.889 -0.7323 -0.5925 -2.5167
11343SOL     OW36407   9.447   8.294   9.907  0.5062  0.5769  0.0994
11343SOL    HW136408   9.375   8.353   9.887 -1.6344 -1.6818  0.7705
11343SOL    HW236409   9.444   8.285  10.002  0.4832 -0.9578 -0.0341
11344SOL     OW36410   2.676   0.538   5.838  0.2213  0.1774  0.1515
11344SOL    HW136411   2.630   0.610   5.796  1.1677  0.9435  0.3725
11344SOL    HW236412   2.616   0.464   5.833 -1.0761  1.1597  0.5541
11345SOL     OW36413   4.711   1.213   6.037 -0.5934  0.0153  0.9577
11345SOL    HW136414   4.704   1.174   5.949 -0.0235  2.8375 -0.4555
11345SOL    HW236415   4.621   1.212   6.069 -0.8791 -0.7196  0.2089
11346SOL     OW36416   5.186   6.850   5.067  0.1986  0.4195 -0.6058
11346SOL    HW136417   5.211   6.763   5.097  0.7838  0.4080 -1.1018
11346SOL    HW236418   5.168   6.840   4.974 -1.2863  0.5194 -0.3540
11347SOL     OW36419   6.748   8.293   2.497  0.2199 -0.5493 -1.0990
11347SOL    HW136420   6.786   8.233   2.433 -0.1582 -1.0042 -0.9050
11347SOL    HW236421   6.745   8.243   2.579 -1.0170 -0.6233 -1.1679
11348SOL     OW36422   4.839   4.303   1.710 -0.1522 -0.1860  0.0820
11348SOL    HW136423   4.856   4.210   1.697  0.3753 -0.1558  0.5500
11348SOL    HW236424   4.776   4.306   1.782  0.7257 -0.1355  0.8607
11349SOL     OW36425   3.175   1.210   5.124  0.0415 -0.4165  0.2216
11349SOL    HW136426   3.242   1.152   5.160  0.2182  0.2190  0.9464
11349SOL    HW236427   3.223   1.270   5.066 -0.0056 -0.4331  0.1655
11350SOL     OW36428   8.366   5.718   4.422  0.1825  0.1006  0.7257
11350SOL    HW136429   8.318   5.694   4.343  0.8554  2.0055 -0.3337
11350SOL    HW236430   8.449   5.672   4.415  1.0720  1.8085 -0.7870
11351SOL     OW36431   4.623  10.103   1.497  0.5385 -0.3635  0.9758
11351SOL    HW136432   4.634  10.011   1.523 -0.4138 -0.8048 -0.0508
11351SOL    HW236433   4.550  10.134   1.551  0.8927 -0.1995  1.3576
11352SOL     OW36434   1.007   2.968   6.962 -0.3893  0.6508 -0.1135
11352SOL    HW136435   1.051   2.998   6.882  1.2999 -1.7750 -0.1993
11352SOL    HW236436   1.052   3.015   7.032 -2.3051  3.2890 -0.4874
11353SOL     OW36437   8.600   4.868   4.574  0.1290 -0.1042  0.6076
11353SOL    HW136438   8.626   4.845   4.663 -0.1922 -0.2745  0.6558
11353SOL    HW236439   8.612   4.963   4.570 -3.0414  0.4598  1.9013
11354SOL     OW36440   1.320   2.287   8.971  0.3940 -0.5045  0.1605
11354SOL    HW136441   1.369   2.279   8.889  0.5876 -0.6903  0.2927
11354SOL    HW236442   1.311   2.197   9.002  0.3625 -0.4292  0.3694
11355SOL     OW36443   8.955   0.135   0.313 -0.2978 -0.4122 -0.1719
11355SOL    HW136444   8.978   0.110   0.402 -1.0042  0.3008  0.2281
11355SOL    HW236445   8.993   0.223   0.302  1.0572 -1.0819 -1.1003
11356SOL     OW36446   3.741   5.396   5.001 -0.2324 -0.0451  0.0227
11356SOL    HW136447   3.700   5.460   5.059  0.3476  0.8034 -0.4958
11356SOL    HW236448   3.764   5.323   5.058  0.3571  0.7899  0.8795
11357SOL     OW36449  10.691   4.619   6.976  0.1394  0.0950 -0.0249
11357SOL    HW136450  10.768   4.656   6.932  0.0679 -0.3089 -0.5045
11357SOL    HW236451  10.696   4.652   7.065  1.3176 -0.5710  0.1721
11358SOL     OW36452   4.490   7.399   5.834  0.3593  0.5231 -0.1514
11358SOL    HW136453   4.536   7.320   5.862  1.8442  1.4262  0.0457
11358SOL    HW236454   4.459   7.379   5.746 -0.5154 -0.7662  0.4195
11359SOL     OW36455   2.333   0.957   1.296 -0.3066  0.5588 -0.6832
11359SOL    HW136456   2.266   0.943   1.363 -2.4706  1.2803 -2.5542
11359SOL    HW236457   2.372   0.871   1.282 -3.0807 -0.6411 -1.6821
11360SOL     OW36458   9.206   3.450   0.809  0.5301  0.1756 -0.4344
11360SOL    HW136459   9.143   3.497   0.865  0.3755  0.4075 -0.8003
11360SOL    HW236460   9.151   3.396   0.752  0.7098 -0.6457  0.1410
11361SOL     OW36461  10.151   3.598   6.062  0.0719  0.3181  0.2150
11361SOL    HW136462  10.153   3.503   6.049 -1.4477  0.4308 -1.1362
11361SOL    HW236463  10.075   3.613   6.117  0.0180  0.7954  0.0183
11362SOL     OW36464   0.009   7.627   2.263 -0.1182 -0.3623 -0.0160
11362SOL    HW136465  -0.054   7.622   2.335 -0.1635 -2.6887 -0.1517
11362SOL    HW236466  -0.041   7.598   2.186  0.4023  0.4127 -0.6614
11363SOL     OW36467   7.703   8.530   0.878  0.1299  1.3463 -0.1675
11363SOL    HW136468   7.794   8.559   0.868  0.6811 -0.7993 -2.3955
11363SOL    HW236469   7.664   8.545   0.792 -0.7358 -0.4843 -0.1359
11364SOL     OW36470   1.777  10.208   3.196 -1.0024 -0.5607 -0.4266
11364SOL    HW136471   1.723  10.181   3.270 -0.4469 -3.6868 -1.0271
11364SOL    HW236472   1.865  10.180   3.219  0.2150  3.0787 -0.1305
11365SOL     OW36473   7.773   2.494   3.362 -0.2448 -0.2114  0.4402
11365SOL    HW136474   7.765   2.542   3.279  2.1086 -1.6978 -0.7533
11365SOL    HW236475   7.707   2.424   3.355  0.0982 -0.4755 -0.3096
11366SOL     OW36476   4.286   5.817   7.082  0.1142  0.2211  0.8341
11366SOL    HW136477   4.333   5.889   7.041 -0.1173 -0.1738 -0.1548
11366SOL    HW236478   4.353   5.750   7.098 -0.0905 -0.4273 -0.7685
11367SOL     OW36479   4.083   5.579   1.446 -0.4665  0.3646 -0.8440
11367SOL    HW136480   4.156   5.576   1.507 -0.7088  2.3063 -0.3806
11367SOL    HW236481   4.084   5.494   1.402  0.6054 -0.5262  0.8170
11368SOL     OW36482   4.825   4.353   5.541 -0.0461 -0.4301  0.3533
11368SOL    HW136483   4.799   4.359   5.633 -1.5435  0.7137 -0.1007
11368SOL    HW236484   4.891   4.284   5.539 -1.6341 -2.0944  1.9427
11369SOL     OW36485   4.219   1.775   8.912 -0.0780  0.2014  0.1381
11369SOL    HW136486   4.159   1.752   8.840 -1.2573  1.7389  0.5661
11369SOL    HW236487   4.222   1.871   8.910  0.7087  0.2248  1.4809
11370SOL     OW36488   6.281   9.655   1.766  0.5184  0.4503  0.1083
11370SOL    HW136489   6.240   9.575   1.732  1.4491  0.9070 -2.3483
11370SOL    HW236490   6.207   9.708   1.796 -0.1741 -1.0037  1.0818
11371SOL     OW36491   4.433   4.885   3.279 -0.0002 -0.1714  0.4127
11371SOL    HW136492   4.435   4.790   3.277  0.5403 -0.1469 -0.6550
11371SOL    HW236493   4.519   4.911   3.311  0.5991 -0.0278 -1.2038
11372SOL     OW36494   3.427   9.441   9.254 -0.0742  0.0975 -0.3019
11372SOL    HW136495   3.332   9.437   9.241 -0.3094 -1.2096  1.5236
11372SOL    HW236496   3.438   9.477   9.342  1.1001 -0.3187 -0.2586
11373SOL     OW36497   9.089   4.652  10.260  0.1437  0.7052  0.0582
11373SOL    HW136498   9.162   4.645  10.322  1.3999  1.6718 -1.2517
11373SOL    HW236499   9.102   4.736  10.216 -0.9842  0.2717 -1.1808
11374SOL     OW36500   9.751   8.297   4.754 -0.0614 -0.6366 -0.0104
11374SOL    HW136501   9.776   8.387   4.772  0.5595 -0.6451 -0.7807
11374SOL    HW236502   9.805   8.244   4.812 -0.3539 -0.5281  0.3681
11375SOL     OW36503   3.901   2.425   3.977 -0.6745  0.5966  0.0489
11375SOL    HW136504   3.973   2.372   4.011 -2.0936 -0.1867  1.9566
11375SOL    HW236505   3.945   2.497   3.931  1.3006 -0.7346 -0.2886
11376SOL     OW36506   8.403   1.877   6.373  0.4205  0.2234 -0.2648
11376SOL    HW136507   8.340   1.930   6.326  1.3925  1.1270 -0.5961
11376SOL    HW236508   8.468   1.853   6.307  0.9799  0.1960  0.2849
11377SOL     OW36509   2.891  10.646   2.596  0.2895  0.5922  0.6695
11377SOL    HW136510   2.899  10.738   2.573 -0.4183  0.9702  1.8379
11377SOL    HW236511   2.800  10.635   2.623  0.7972  0.0082  2.3317
11378SOL     OW36512   6.167   2.880   8.214  0.0368  0.1691 -0.0121
11378SOL    HW136513   6.181   2.789   8.241  1.4161  0.7019  1.1907
11378SOL    HW236514   6.253   2.911   8.185 -0.3245  1.2161 -0.0287
11379SOL     OW36515   9.135   8.658   8.554 -0.2606 -0.1822 -0.1055
11379SOL    HW136516   9.210   8.697   8.508  1.4425 -3.3554 -0.3980
11379SOL    HW236517   9.058   8.695   8.511  1.2225 -0.1970 -3.0623
11380SOL     OW36518   7.337   9.888   5.412 -0.4856  0.0773 -0.3289
11380SOL    HW136519   7.399   9.904   5.340 -0.0625 -0.7963 -0.1755
11380SOL    HW236520   7.263   9.845   5.370  0.1823 -1.3328 -0.1172
11381SOL     OW36521   0.459   8.658  10.376 -0.7598  0.7645 -0.0229
11381SOL    HW136522   0.516   8.589  10.342 -0.6889  0.8537 -0.0856
11381SOL    HW236523   0.517   8.734  10.389 -0.9072  0.9265 -0.3087
11382SOL     OW36524   1.417   3.383   7.964 -0.0714  1.3949  0.0825
11382SOL    HW136525   1.380   3.431   8.038 -0.0539  1.1840  0.2306
11382SOL    HW236526   1.359   3.307   7.954  0.6302  0.7754  0.6594
11383SOL     OW36527   2.389  10.100   9.036 -0.3021 -0.3372 -0.0770
11383SOL    HW136528   2.331  10.159   9.084 -0.4593 -0.3760 -0.2185
11383SOL    HW236529   2.440  10.056   9.104  0.0041  0.1508  0.0186
11384SOL     OW36530   9.587   1.315   7.824  0.0170 -0.5492 -0.4341
11384SOL    HW136531   9.630   1.343   7.905 -0.5629  1.7196 -0.8410
11384SOL    HW236532   9.609   1.222   7.816  1.5214 -0.4122  1.4087
11385SOL     OW36533   7.963   8.801  10.540  1.1352  0.4847 -0.1126
11385SOL    HW136534   7.872   8.773  10.538  0.6146  2.0964  0.0422
11385SOL    HW236535   8.013   8.722  10.518 -0.1844 -0.8426  1.4190
11386SOL     OW36536   0.336  10.549   7.570 -0.5734 -0.3467  0.0839
11386SOL    HW136537   0.367  10.506   7.490 -1.6847 -1.2315  0.1068
11386SOL    HW236538   0.252  10.587   7.545  1.1548  3.6048 -0.5042
11387SOL     OW36539  10.468   8.119   8.286 -0.5883 -0.2854 -0.2001
11387SOL    HW136540  10.479   8.213   8.303  1.6151 -0.6599  0.7703
11387SOL    HW236541  10.484   8.110   8.192  2.3119 -0.0067  0.1899
11388SOL     OW36542   8.733  10.419   8.509  0.0425 -0.0777 -0.2249
11388SOL    HW136543   8.745  10.487   8.575 -1.9209 -0.4597  0.6161
11388SOL    HW236544   8.771  10.341   8.548 -0.6679 -0.1871  0.2850
11389SOL     OW36545   8.048   6.996   4.671  0.3416  0.3324 -0.4903
11389SOL    HW136546   8.122   6.935   4.674 -0.5340 -0.7183  0.6646
11389SOL    HW236547   8.011   6.993   4.759 -1.6897  0.0412 -1.3043
11390SOL     OW36548   9.377   6.903   6.989  0.4873 -0.1208  0.3795
11390SOL    HW136549   9.428   6.868   7.062  0.8714 -0.0201  0.1665
11390SOL    HW236550   9.398   6.844   6.916 -0.1909 -0.4459  0.4438
11391SOL     OW36551   0.260  10.413   2.279  0.1998 -0.0753 -0.5066
11391SOL    HW136552   0.222  10.475   2.217 -0.0867 -0.6286 -0.8966
11391SOL    HW236553   0.242  10.449   2.365  1.1802  1.0506 -0.7459
11392SOL     OW36554   0.505   4.963   6.523  0.3766  0.1616 -0.0353
11392SOL    HW136555   0.572   5.000   6.466  0.2407  0.1690 -0.1886
11392SOL    HW236556   0.437   4.931   6.464  1.3981 -2.2085 -0.0596
11393SOL     OW36557   9.878  10.673   3.261  0.1700 -0.1619  0.2773
11393SOL    HW136558   9.805  10.722   3.222 -0.4951 -0.6007  0.9535
11393SOL    HW236559   9.842  10.585   3.277  1.3719 -0.9396 -1.0276
11394SOL     OW36560   5.375   6.031  10.375 -0.0390 -0.5979  0.2899
11394SOL    HW136561   5.396   6.072  10.459  0.7379  2.0167 -1.0686
11394SOL    HW236562   5.458   5.994  10.346  0.0435 -0.1651 -0.0197
11395SOL     OW36563   2.455   6.749   3.992  0.2567  1.3979 -0.3400
11395SOL    HW136564   2.380   6.807   3.982 -0.3373  0.5702 -0.9012
11395SOL    HW236565   2.521   6.802   4.035 -0.6592  2.1408  0.1941
11396SOL     OW36566   7.209   9.826   6.606 -0.3835  0.6477  0.0242
11396SOL    HW136567   7.296   9.862   6.588  0.7579 -0.8421  2.2320
11396SOL    HW236568   7.155   9.904   6.623  0.8611  1.5296  0.1003
11397SOL     OW36569   8.672   7.563   3.518 -0.5097 -0.3910  0.6544
11397SOL    HW136570   8.586   7.585   3.554 -0.3047  0.4907  0.6284
11397SOL    HW236571   8.730   7.562   3.594 -0.2602  0.5378  0.4973
11398SOL     OW36572   3.379   8.276   0.913  0.0550 -0.2147 -0.3344
11398SOL    HW136573   3.289   8.266   0.884 -0.2483  1.1923  0.0194
11398SOL    HW236574   3.409   8.187   0.932 -2.1937 -0.5498  2.2923
11399SOL     OW36575   7.911   3.272   2.547  0.6933  0.4423  0.7948
11399SOL    HW136576   7.905   3.256   2.453  0.1990 -1.9389  1.1514
11399SOL    HW236577   7.979   3.211   2.577  2.9072  3.1095  1.6702
11400SOL     OW36578   6.713   9.228   1.689  0.0116  0.0709 -0.9603
11400SOL    HW136579   6.645   9.231   1.757 -0.2742  0.5794 -1.2586
11400SOL    HW236580   6.795   9.227   1.737 -0.2042 -0.6652 -0.5896
11401SOL     OW36581   9.383   2.987   1.876 -0.2070 -0.8359 -0.1754
11401SOL    HW136582   9.414   2.898   1.894 -1.2609 -1.2514 -0.3313
11401SOL    HW236583   9.443   3.043   1.925  0.4757 -1.6334 -0.0749
11402SOL     OW36584   4.550   6.229  10.143 -0.6264 -0.0936 -0.1733
11402SOL    HW136585   4.500   6.305  10.114 -0.0530  0.9521  1.4462
11402SOL    HW236586   4.491   6.183  10.203  0.3522  1.3607  2.0605
11403SOL     OW36587   8.467   8.843   3.108 -0.3160  0.1905  0.0634
11403SOL    HW136588   8.430   8.881   3.188  0.9496  0.8067  0.3741
11403SOL    HW236589   8.432   8.897   3.037 -1.2940 -0.2431  0.1955
11404SOL     OW36590   6.653  10.505  10.262  0.1588 -0.1436 -0.1513
11404SOL    HW136591   6.560  10.486  10.250  0.0472  0.1574  0.1998
11404SOL    HW236592   6.654  10.578  10.324  0.6132  0.1366 -0.4880
11405SOL     OW36593   4.773   3.543   0.599  0.0053  0.0007  0.1394
11405SOL    HW136594   4.790   3.494   0.519  0.5032  0.8496 -0.2922
11405SOL    HW236595   4.737   3.626   0.569  2.3395  1.2796  0.6064
11406SOL     OW36596   2.622   4.013   0.817  0.3545  0.4528 -0.6256
11406SOL    HW136597   2.658   3.948   0.878  0.5090  1.5055  0.4353
11406SOL    HW236598   2.529   3.991   0.811  0.0497  1.1654  1.0939
11407SOL     OW36599   9.319   6.879   3.213  0.1632  0.1894  0.5312
11407SOL    HW136600   9.332   6.903   3.121 -0.9244 -2.5290 -0.4465
11407SOL    HW236601   9.242   6.822   3.212  0.0411  0.1855  3.1819
11408SOL     OW36602  10.118   4.720   3.772  1.0572  0.0767  0.3378
11408SOL    HW136603  10.089   4.645   3.824 -0.2789  2.4212  3.3229
11408SOL    HW236604  10.209   4.732   3.797  0.6855  0.6324  1.4833
11409SOL     OW36605   0.544   0.371   9.359 -0.3116  0.3203 -0.5237
11409SOL    HW136606   0.480   0.301   9.343  1.4041 -1.6889  0.7596
11409SOL    HW236607   0.519   0.408   9.444 -0.6508  0.6036 -0.7451
11410SOL     OW36608  10.176   2.409   7.596 -0.3059  0.0238 -0.2980
11410SOL    HW136609  10.182   2.350   7.671  0.7421  1.3136  0.6847
11410SOL    HW236610  10.236   2.372   7.531 -0.9049 -0.8762 -0.3523
11411SOL     OW36611   2.917   1.612   0.754  0.3981 -0.7404 -0.0264
11411SOL    HW136612   2.969   1.547   0.801  1.0770 -1.6623 -1.9468
11411SOL    HW236613   2.982   1.671   0.715  0.0346 -1.4648 -1.8268
11412SOL     OW36614   5.662   4.766   6.501 -0.0373  0.3277 -0.0170
11412SOL    HW136615   5.754   4.793   6.502 -0.4843  2.0556  2.2921
11412SOL    HW236616   5.648   4.726   6.587 -1.2222 -0.8747 -0.7291
11413SOL     OW36617  10.545  10.703   4.681 -0.3121  0.0552  0.4743
11413SOL    HW136618  10.568  10.756   4.605  0.2666  0.0757  0.6594
11413SOL    HW236619  10.528  10.766   4.751 -1.5957  0.0705  0.1748
11414SOL     OW36620   7.780   9.988   4.628 -0.3584 -0.0384 -0.0448
11414SOL    HW136621   7.731   9.942   4.560 -0.7945  1.8429 -1.0910
11414SOL    HW236622   7.714  10.010   4.695 -0.8319  1.6544 -1.0002
11415SOL     OW36623   2.919   4.147   1.925  0.5290  0.1278  0.1303
11415SOL    HW136624   2.832   4.172   1.956 -0.4670 -0.9255 -1.6881
11415SOL    HW236625   2.960   4.106   2.001 -1.1860 -0.8857  0.5668
11416SOL     OW36626   2.807   2.597   3.609  0.0526  0.8378  0.3202
11416SOL    HW136627   2.850   2.630   3.530 -1.9156  0.2606 -1.0911
11416SOL    HW236628   2.876   2.551   3.657  1.2184  0.7775 -1.3339
11417SOL     OW36629   8.823   0.253   1.545 -0.0906 -0.1920 -0.2011
11417SOL    HW136630   8.746   0.306   1.524  0.6456  1.4819  1.1306
11417SOL    HW236631   8.792   0.192   1.611  0.2698  2.3885  2.5479
11418SOL     OW36632   1.232   7.882   4.967  0.1583 -0.5731  0.5584
11418SOL    HW136633   1.180   7.835   5.033  0.3317 -0.8648  0.4901
11418SOL    HW236634   1.309   7.827   4.954  2.2181  1.4716  3.1202
11419SOL     OW36635   5.382   5.497   4.037 -0.1837  0.3125  0.2937
11419SOL    HW136636   5.354   5.448   4.115  0.4373 -0.7437 -0.1253
11419SOL    HW236637   5.475   5.511   4.049  0.4204 -1.8258 -1.2257
11420SOL     OW36638   8.784   7.960   9.244  0.0919  0.1883  0.2515
11420SOL    HW136639   8.839   7.998   9.313  1.2830 -0.8471 -0.0999
11420SOL    HW236640   8.727   7.899   9.290  0.3354  0.0854  0.4200
11421SOL     OW36641   5.979  10.169   6.926 -0.4079 -0.2058 -0.4446
11421SOL    HW136642   6.019  10.256   6.928  0.5883 -0.6399 -0.7417
11421SOL    HW236643   5.983  10.139   7.016 -0.7257  0.0359 -0.3468
11422SOL     OW36644   0.418   4.756   4.201  0.5454 -0.5292 -0.3494
11422SOL    HW136645   0.437   4.846   4.230  1.3533 -0.4880 -0.9745
11422SOL    HW236646   0.369   4.767   4.119 -0.4512 -0.6590  0.2142
11423SOL     OW36647   7.099  10.069   6.692  1.0781  0.5802 -0.2749
11423SOL    HW136648   7.149  10.112   6.761 -0.5133  0.5351  0.9719
11423SOL    HW236649   7.027  10.128   6.674  0.3527 -0.3258 -0.4385
11424SOL     OW36650   0.392   3.103   4.705  0.4816  0.4047 -0.4189
11424SOL    HW136651   0.475   3.139   4.676 -0.1917  1.1326 -1.5046
11424SOL    HW236652   0.351   3.069   4.625 -1.1410  1.8823 -0.2750
11425SOL     OW36653   1.115   5.320   4.757  0.0732  0.2791 -0.0281
11425SOL    HW136654   1.081   5.316   4.847  0.4036  1.6819  0.1808
11425SOL    HW236655   1.210   5.309   4.768  0.0808  0.1328 -0.2405
11426SOL     OW36656   1.666   6.776   5.379  0.6766 -0.4906 -0.6001
11426SOL    HW136657   1.580   6.760   5.418  0.1256 -0.8198 -1.8904
11426SOL    HW236658   1.728   6.756   5.449 -0.1570 -3.6125 -0.6247
11427SOL     OW36659   4.264   6.402   4.589 -0.0519 -0.4797 -1.1218
11427SOL    HW136660   4.328   6.333   4.574  1.1441  0.4244 -0.3592
11427SOL    HW236661   4.179   6.357   4.587  0.6318 -1.8044 -1.5069
11428SOL     OW36662   9.404   6.589  10.554 -0.6345 -0.1874 -0.3502
11428SOL    HW136663   9.440   6.660  10.606 -2.0139 -0.2584  0.7721
11428SOL    HW236664   9.463   6.581  10.479 -0.0751  1.6605 -0.1456
11429SOL     OW36665   7.252   2.593   8.709  0.1039  0.1599 -0.0972
11429SOL    HW136666   7.216   2.681   8.718  0.0177  0.1456 -0.2951
11429SOL    HW236667   7.239   2.552   8.795  1.3452  0.7871  0.4140
11430SOL     OW36668   4.321   2.431   3.915 -0.0500 -0.2528 -0.5984
11430SOL    HW136669   4.407   2.410   3.953 -0.2906 -0.2123 -0.0185
11430SOL    HW236670   4.309   2.366   3.846 -0.3318 -1.3941  0.4895
11431SOL     OW36671   0.676   1.963   4.463  0.1094 -0.0741  0.2477
11431SOL    HW136672   0.649   1.984   4.553  2.0420 -0.1826  0.9130
11431SOL    HW236673   0.771   1.951   4.470 -0.0849 -3.2426 -1.2153
11432SOL     OW36674   5.863   3.506   9.558 -0.7496  0.7561  0.6877
11432SOL    HW136675   5.834   3.590   9.594  0.3214  0.9331  1.1912
11432SOL    HW236676   5.798   3.485   9.491 -1.1242  1.9084  0.6561
11433SOL     OW36677   8.477   3.326   5.477 -0.1177  0.5399 -0.3832
11433SOL    HW136678   8.466   3.381   5.400 -1.1848  1.0321  0.1066
11433SOL    HW236679   8.540   3.373   5.532  0.1798  0.4872 -0.6791
11434SOL     OW36680   6.226   1.612   8.729 -0.0858  0.4002 -0.1787
11434SOL    HW136681   6.321   1.616   8.739 -0.2923  0.5791  2.3783
11434SOL    HW236682   6.200   1.703   8.714  0.1613  0.2866 -1.3838
11435SOL     OW36683   4.445   6.388   1.353 -0.6850 -0.3179 -0.6064
11435SOL    HW136684   4.420   6.303   1.387  0.2101  0.5688  2.6100
11435SOL    HW236685   4.541   6.390   1.361 -0.7339  1.1863  0.0219
11436SOL     OW36686   0.949   4.213   5.642 -0.8005  1.2441 -0.1156
11436SOL    HW136687   0.875   4.261   5.607 -0.7960  0.0077 -1.9427
11436SOL    HW236688   1.020   4.278   5.646 -1.6987  2.2080  0.8043
11437SOL     OW36689   2.420   2.797   4.552 -0.1601 -0.6812 -0.0423
11437SOL    HW136690   2.506   2.756   4.542 -0.7311 -1.9152 -0.0993
11437SOL    HW236691   2.370   2.735   4.606 -0.9438  0.1288  0.1854
11438SOL     OW36692   9.046   8.838   2.191 -0.2657 -0.7639  0.0235
11438SOL    HW136693   9.119   8.790   2.231  0.6410 -0.6786 -1.4606
11438SOL    HW236694   9.022   8.786   2.115 -1.9155 -0.8875  0.6015
11439SOL     OW36695   8.259   9.519   4.398  0.1821  0.7688  0.3239
11439SOL    HW136696   8.233   9.584   4.333 -0.4278  1.7181  1.4636
11439SOL    HW236697   8.342   9.552   4.432  0.9847 -0.2292 -0.6170
11440SOL     OW36698   9.018   6.217   4.144  0.6609  0.2011 -0.2796
11440SOL    HW136699   8.930   6.206   4.107  0.8338  1.3005 -1.0463
11440SOL    HW236700   9.073   6.159   4.092  0.8114  1.3626 -1.4708
11441SOL     OW36701   9.978   2.569   1.804 -0.2711 -0.3046 -0.5615
11441SOL    HW136702   9.992   2.491   1.752 -1.5078 -0.1393 -1.1859
11441SOL    HW236703  10.041   2.633   1.771  0.4169 -0.8820 -0.3696
11442SOL     OW36704   9.647   2.206   0.527  0.0789  0.4334  0.4394
11442SOL    HW136705   9.701   2.130   0.506 -0.8145  0.0890 -0.7912
11442SOL    HW236706   9.594   2.178   0.601 -1.5555 -0.8868 -1.1186
11443SOL     OW36707   0.662   7.911   8.127  0.3031  0.8898 -0.6246
11443SOL    HW136708   0.593   7.948   8.073  1.3364  2.9615 -0.6064
11443SOL    HW236709   0.743   7.931   8.080  1.0921  1.1174  0.7869
11444SOL     OW36710   5.777   9.416   1.891  0.3028  0.2435  0.0089
11444SOL    HW136711   5.836   9.341   1.882  0.9239  0.6976  0.2699
11444SOL    HW236712   5.708   9.399   1.827 -0.2815 -1.2107  0.9587
11445SOL     OW36713   6.028   0.517   7.475 -0.0911 -0.0052  0.2697
11445SOL    HW136714   5.971   0.535   7.401 -0.4836  0.4087  0.6723
11445SOL    HW236715   6.110   0.563   7.454 -0.2212  0.1609  0.1273
11446SOL     OW36716   8.626   4.838   4.860  0.4423  0.0252 -0.5055
11446SOL    HW136717   8.659   4.803   4.943 -1.7084  0.5843  0.6447
11446SOL    HW236718   8.594   4.925   4.881 -0.0698  0.2099 -1.9490
11447SOL     OW36719   8.254   8.178   4.399 -0.6013  0.0714 -0.2812
11447SOL    HW136720   8.346   8.198   4.415 -0.6108  0.1650 -0.3454
11447SOL    HW236721   8.206   8.255   4.430 -0.5963  0.4135 -1.0907
11448SOL     OW36722  10.346   3.809   0.749  0.5568 -0.4862 -0.1164
11448SOL    HW136723  10.406   3.763   0.809  0.5424 -0.0353  0.2532
11448SOL    HW236724  10.313   3.882   0.801 -0.2638 -0.6940 -0.3473
11449SOL     OW36725   8.144   1.972  10.114 -0.0398 -0.2262 -0.0690
11449SOL    HW136726   8.075   1.910  10.091  0.0412 -0.3347 -0.0194
11449SOL    HW236727   8.225   1.927  10.093  0.1030 -0.8858  1.6610
11450SOL     OW36728   2.832   9.375   4.955  0.7884 -0.0131 -0.2357
11450SOL    HW136729   2.864   9.457   4.994 -1.2627  1.1440 -0.8079
11450SOL    HW236730   2.813   9.319   5.030  0.2951  0.8187  0.2817
11451SOL     OW36731  10.229   4.693   2.711 -0.3887 -0.0718 -0.5595
11451SOL    HW136732  10.152   4.642   2.734  0.1276  0.3516  2.4513
11451SOL    HW236733  10.198   4.783   2.705 -0.2204  0.0435  0.2369
11452SOL     OW36734   9.881   0.197   2.128 -0.1088  0.5665 -0.6212
11452SOL    HW136735   9.909   0.136   2.059 -0.3178  1.4961 -1.5414
11452SOL    HW236736   9.806   0.153   2.169 -0.4310  0.3202 -1.4563
11453SOL     OW36737   1.821   5.116   3.285  0.4853  0.7732 -0.3188
11453SOL    HW136738   1.844   5.137   3.195 -0.3956 -0.6696 -0.9133
11453SOL    HW236739   1.905   5.102   3.328  0.8899 -1.3461 -1.6707
11454SOL     OW36740   7.408   5.240   4.187 -0.4691 -0.0347 -0.1173
11454SOL    HW136741   7.411   5.329   4.154  2.0228 -0.3221 -0.8562
11454SOL    HW236742   7.467   5.240   4.262 -0.9318 -0.9324  0.2664
11455SOL     OW36743   6.520   8.032  10.518  0.4247  0.2964 -0.5484
11455SOL    HW136744   6.504   8.120  10.481  0.6028  0.4092 -0.3588
11455SOL    HW236745   6.439   8.012  10.566 -0.1098 -0.1690 -1.6135
11456SOL     OW36746   6.370   3.527   5.958 -0.1593  0.6743 -0.5151
11456SOL    HW136747   6.278   3.506   5.976  0.0784  0.0360 -0.0225
11456SOL    HW236748   6.380   3.618   5.986 -0.5119  0.5805 -0.0894
11457SOL     OW36749   5.065   7.960   3.886 -0.6284  0.4179  0.3976
11457SOL    HW136750   5.107   7.939   3.970  0.2274  1.8049  0.3535
11457SOL    HW236751   4.982   8.002   3.910 -0.5656  0.4588  0.5435
11458SOL     OW36752   7.826   3.204   1.262 -0.4802 -0.3801 -0.2660
11458SOL    HW136753   7.786   3.290   1.269  1.8074  0.5905  3.6725
11458SOL    HW236754   7.910   3.220   1.219 -0.9340 -1.0780 -1.4626
11459SOL     OW36755   3.844   8.005   3.908 -0.0478  0.0994  0.4317
11459SOL    HW136756   3.793   8.048   3.839 -0.6196 -1.2613 -0.0307
11459SOL    HW236757   3.932   7.997   3.870  0.3218  1.6086  0.8716
11460SOL     OW36758   1.347   1.313  10.484 -0.1318  0.1331 -0.6680
11460SOL    HW136759   1.415   1.378  10.469 -0.9299  1.0259 -0.5191
11460SOL    HW236760   1.353   1.253  10.410  0.2538  0.7023 -1.1013
11461SOL     OW36761  10.374  10.319   9.234 -0.6304 -0.1824  0.8687
11461SOL    HW136762  10.329  10.293   9.314  0.1737  0.8814  1.6943
11461SOL    HW236763  10.459  10.352   9.264 -1.4375  3.0993 -0.0740
11462SOL     OW36764   3.250   4.277   9.591  0.5312  0.3187  0.7548
11462SOL    HW136765   3.340   4.258   9.564  1.2934  1.5618  2.2651
11462SOL    HW236766   3.250   4.371   9.612 -0.7382  0.0572  2.1352
11463SOL     OW36767   1.869   1.443  10.566 -0.8841 -0.0148  0.0669
11463SOL    HW136768   1.859   1.529  10.608  0.2109  0.0038  0.3229
11463SOL    HW236769   1.790   1.395  10.589 -2.1414  1.3624 -1.1623
11464SOL     OW36770   2.567   1.714   9.144 -0.3586 -0.6623  0.0784
11464SOL    HW136771   2.526   1.796   9.170  0.7508 -0.2752  0.6562
11464SOL    HW236772   2.526   1.692   9.060  1.8388  2.4149 -2.0447
11465SOL     OW36773   1.980   7.242   9.738  0.0209 -0.3457  0.1343
11465SOL    HW136774   2.073   7.261   9.749  0.0325  0.3348 -1.0153
11465SOL    HW236775   1.941   7.325   9.711 -0.9935 -0.5298  0.9580
11466SOL     OW36776   8.872   6.446  10.709  0.5004  0.0710 -0.5861
11466SOL    HW136777   8.854   6.361  10.668 -1.0483  0.1720 -0.1781
11466SOL    HW236778   8.866   6.509  10.638 -0.4492  0.0563 -0.5260
11467SOL     OW36779   4.560   7.580   3.219 -0.2236  0.6450 -0.0844
11467SOL    HW136780   4.519   7.520   3.157 -0.4693  0.6949  0.0260
11467SOL    HW236781   4.646   7.542   3.236  0.5424  1.5318 -1.7549
11468SOL     OW36782   3.542   6.763   2.374 -0.0264  0.8658  0.3690
11468SOL    HW136783   3.597   6.822   2.322 -0.2308 -0.2969 -1.2421
11468SOL    HW236784   3.453   6.794   2.359 -0.1334  0.1907 -0.4707
11469SOL     OW36785   2.649   8.582  10.647 -0.2378  0.5090 -0.1249
11469SOL    HW136786   2.630   8.501  10.695  0.3522 -0.1809 -1.0302
11469SOL    HW236787   2.566   8.604  10.604 -0.9014  1.3791  1.5235
11470SOL     OW36788   5.574   3.001   0.994  0.2085  0.3346  0.0006
11470SOL    HW136789   5.616   3.047   1.067  0.4426  0.6694 -0.3419
11470SOL    HW236790   5.497   2.959   1.034  0.1247  0.8203  0.3685
11471SOL     OW36791   2.689   9.882  10.099 -0.0457 -0.4127  0.0541
11471SOL    HW136792   2.655   9.962  10.138  0.4135  0.2548 -0.8788
11471SOL    HW236793   2.740   9.841  10.169 -0.8497 -0.2495  0.7496
11472SOL     OW36794   1.197   5.457  10.100  0.0954 -0.4495  0.0795
11472SOL    HW136795   1.276   5.475  10.152  0.3892 -0.9319 -0.1946
11472SOL    HW236796   1.207   5.513  10.023 -1.1435  1.5334  1.2864
11473SOL     OW36797   7.606   5.007   7.150 -0.2327  0.1711 -0.6107
11473SOL    HW136798   7.627   5.096   7.177 -0.7534  0.6762 -1.8207
11473SOL    HW236799   7.686   4.976   7.106  0.1047 -0.1383  0.1924
11474SOL     OW36800   7.224   9.407   9.495  0.5172  0.6090 -0.3393
11474SOL    HW136801   7.302   9.452   9.462 -0.7327  1.5526 -2.1962
11474SOL    HW236802   7.151   9.461   9.465 -1.0186 -1.9423 -1.5241
11475SOL     OW36803   0.707   7.251  10.396  1.2633  0.1850 -0.0984
11475SOL    HW136804   0.628   7.236  10.344  2.1437  0.0695 -1.4448
11475SOL    HW236805   0.731   7.165  10.429  2.7546 -0.4504 -2.5994
11476SOL     OW36806   8.987   1.966   4.759 -0.1643  0.4042 -0.0577
11476SOL    HW136807   9.051   1.977   4.829 -1.4185 -0.3167  1.2645
11476SOL    HW236808   9.024   1.897   4.703  0.9078  1.0746 -0.1899
11477SOL     OW36809   3.525   1.346   7.741 -0.1080  0.0710  0.2557
11477SOL    HW136810   3.571   1.262   7.744 -0.4995 -0.1246  1.1975
11477SOL    HW236811   3.533   1.375   7.650 -0.8359 -1.4795 -0.3380
11478SOL     OW36812  10.540   8.008   0.486 -0.2928  0.8727  0.0272
11478SOL    HW136813  10.629   8.028   0.457 -0.4430  1.1877 -0.2211
11478SOL    HW236814  10.520   7.924   0.444  1.2447 -1.1827  3.0169
11479SOL     OW36815   8.139  10.186   0.911  0.0442 -0.0988  0.1776
11479SOL    HW136816   8.056  10.144   0.936 -0.0601  0.7105  1.2866
11479SOL    HW236817   8.144  10.175   0.816 -2.1937  1.3155 -0.1734
11480SOL     OW36818   4.233   6.810   6.985 -0.2908  0.1124  0.1536
11480SOL    HW136819   4.239   6.722   6.948  0.1400  0.6043 -1.0236
11480SOL    HW236820   4.324   6.833   7.007 -0.2646  0.6018 -0.4281
11481SOL     OW36821   8.452   3.622   0.405  0.8892 -0.0114 -0.2632
11481SOL    HW136822   8.450   3.549   0.467  0.5972  0.4094  0.2325
11481SOL    HW236823   8.426   3.583   0.321 -0.5628 -0.2296  0.2652
11482SOL     OW36824   9.036   7.707   1.999  0.1271  0.3387 -0.3407
11482SOL    HW136825   9.055   7.798   2.022  1.3675  0.8736 -3.1299
11482SOL    HW236826   9.119   7.674   1.964 -0.5219 -1.6658 -0.0943
11483SOL     OW36827   8.028   0.622   5.952 -0.1281 -0.0528 -0.0176
11483SOL    HW136828   8.069   0.579   6.027 -0.2347 -0.3678 -0.1374
11483SOL    HW236829   8.011   0.551   5.890 -0.0429  0.2045 -0.3397
11484SOL     OW36830   1.896   7.899   0.734  0.7275  0.1588 -0.2300
11484SOL    HW136831   1.886   7.958   0.660  0.9777 -0.0854 -0.4624
11484SOL    HW236832   1.827   7.925   0.795 -0.3870 -0.5417 -1.1429
11485SOL     OW36833   6.762   8.576  10.468 -0.0767 -0.2974 -0.4676
11485SOL    HW136834   6.829   8.642  10.449 -0.6090  0.5589  0.4583
11485SOL    HW236835   6.745   8.533  10.385  2.4919 -1.4055 -0.4938
11486SOL     OW36836   7.391   9.668   3.215  0.5501 -0.2333 -0.0089
11486SOL    HW136837   7.328   9.641   3.148  0.7054  2.2916 -1.3024
11486SOL    HW236838   7.344   9.657   3.297 -0.7361 -0.6227 -0.7644
11487SOL     OW36839  10.567   6.209   7.850 -0.1174  0.0897  0.1189
11487SOL    HW136840  10.554   6.258   7.931 -0.1631 -0.0402  0.1912
11487SOL    HW236841  10.532   6.265   7.781 -1.5733 -0.4750  0.3639
11488SOL     OW36842   2.601   0.370   6.562 -0.4996  0.0345 -0.2105
11488SOL    HW136843   2.514   0.409   6.554 -0.7336 -0.6687 -1.3624
11488SOL    HW236844   2.591   0.281   6.526  1.3933  1.0127 -3.5783
11489SOL     OW36845   9.549  10.680   4.258  0.3906 -0.5501 -0.0379
11489SOL    HW136846   9.519  10.737   4.329  1.0561 -0.4623  0.1796
11489SOL    HW236847   9.477  10.619   4.244  0.6783 -1.2761  1.4722
11490SOL     OW36848   4.595   1.523   7.660 -0.1031 -0.3100  0.2306
11490SOL    HW136849   4.683   1.518   7.698  0.5593 -3.4546 -1.3608
11490SOL    HW236850   4.540   1.473   7.719 -0.2684 -0.5373 -0.1149
11491SOL     OW36851   7.006   8.436   3.805 -0.3022  0.2579  0.2545
11491SOL    HW136852   6.915   8.427   3.836 -0.1613 -3.2825  0.0124
11491SOL    HW236853   7.001   8.419   3.711  0.7782 -2.1096  0.5591
11492SOL     OW36854   5.896   5.615   4.864  0.4303 -0.1166  0.3807
11492SOL    HW136855   5.811   5.624   4.908  0.1222 -1.2496  0.0472
11492SOL    HW236856   5.926   5.527   4.888  1.8779  0.5388  1.1194
11493SOL     OW36857   6.162   3.373   8.587 -0.6027  0.6600  0.2316
11493SOL    HW136858   6.123   3.295   8.625 -0.4374 -1.2819 -3.2069
11493SOL    HW236859   6.099   3.402   8.521  2.3859 -1.2525 -3.9103
11494SOL     OW36860   7.312   6.191   3.811  0.2899  0.1765 -0.0408
11494SOL    HW136861   7.388   6.238   3.845 -0.1709  1.1347 -0.2847
11494SOL    HW236862   7.298   6.118   3.871  1.8950 -0.5023 -0.4531
11495SOL     OW36863   7.229   3.248   7.709 -1.0743 -0.4911  0.5320
11495SOL    HW136864   7.210   3.320   7.649 -2.0984 -0.5987  0.7257
11495SOL    HW236865   7.147   3.230   7.754 -1.0490 -2.2699 -0.0402
11496SOL     OW36866   6.745   0.752   8.306  0.0580 -0.5882  0.0283
11496SOL    HW136867   6.797   0.704   8.241  3.5550  1.1492  1.2818
11496SOL    HW236868   6.735   0.691   8.379  0.1138 -1.0167 -0.3176
11497SOL     OW36869   5.063   9.607   9.976 -0.1336  0.7695  0.0221
11497SOL    HW136870   5.141   9.613   9.920 -0.2593  0.0794 -0.2284
11497SOL    HW236871   5.058   9.693  10.019  1.6541  0.3205  1.2441
11498SOL     OW36872   9.158   7.317   1.200 -0.3142  0.4779 -0.0161
11498SOL    HW136873   9.157   7.413   1.189 -3.7707  0.5403 -0.0667
11498SOL    HW236874   9.159   7.304   1.295 -2.0120  0.6800  0.0618
11499SOL     OW36875   7.864   2.847   7.290  0.5155  0.3632 -0.3158
11499SOL    HW136876   7.849   2.779   7.356 -3.1939  0.0251 -1.2434
11499SOL    HW236877   7.867   2.929   7.340  1.3813 -0.1658  0.5277
11500SOL     OW36878   3.003   3.987   2.872 -0.5927 -0.1077  0.1987
11500SOL    HW136879   3.059   3.950   2.804 -0.2410  0.4545  0.1827
11500SOL    HW236880   3.038   4.074   2.888 -1.1011  0.0273  0.6092
11501SOL     OW36881   0.626   3.001   0.821 -0.3090 -0.2152 -0.3094
11501SOL    HW136882   0.630   2.916   0.776  1.1425 -0.0752 -0.4961
11501SOL    HW236883   0.533   3.013   0.842 -0.7249 -1.2185 -1.4816
11502SOL     OW36884   1.716   4.316   8.189 -0.2010 -0.4070  0.2944
11502SOL    HW136885   1.700   4.384   8.123 -1.7650 -1.8137 -0.8464
11502SOL    HW236886   1.706   4.361   8.273 -0.4094  0.9421 -0.4289
11503SOL     OW36887   9.293   2.954   5.502 -0.3595  0.0993 -0.2700
11503SOL    HW136888   9.277   2.999   5.584  0.5350  0.3352 -0.2222
11503SOL    HW236889   9.337   3.018   5.447 -1.9463  0.3167 -1.3488
11504SOL     OW36890   9.865   3.888   6.246 -0.4826  0.2217  0.2096
11504SOL    HW136891   9.873   3.944   6.169 -0.1344 -0.5999 -0.3609
11504SOL    HW236892   9.835   3.947   6.315  0.6799  1.2805 -0.1622
11505SOL     OW36893   2.231   1.938   4.185  0.0027  0.4755 -0.1264
11505SOL    HW136894   2.282   1.900   4.256 -0.5884  0.2243  0.1636
11505SOL    HW236895   2.266   2.027   4.175  0.3298  0.3876  0.2290
11506SOL     OW36896   8.962   3.101   3.145 -0.1988  0.2687  0.2030
11506SOL    HW136897   8.976   3.026   3.088 -1.2716  0.2135 -0.0166
11506SOL    HW236898   9.014   3.082   3.223  0.4444 -0.1537 -0.3259
11507SOL     OW36899   8.936   6.163   1.198  0.1300 -0.6086  0.0015
11507SOL    HW136900   8.903   6.130   1.114 -1.9502  1.4153 -0.0680
11507SOL    HW236901   8.895   6.107   1.264 -0.7803 -0.2238 -0.2290
11508SOL     OW36902   4.552   4.361   6.696  0.9478 -0.5511 -0.0277
11508SOL    HW136903   4.538   4.441   6.645  2.4851 -0.4826 -0.4004
11508SOL    HW236904   4.482   4.361   6.762 -1.4040 -0.8668 -2.3457
11509SOL     OW36905  10.571  10.159  10.336  0.6134 -0.2959 -0.2841
11509SOL    HW136906  10.619  10.078  10.318 -1.3232 -1.3210 -1.1747
11509SOL    HW236907  10.497  10.157  10.275 -0.3120  1.4093  0.7044
11510SOL     OW36908   9.603   0.244   7.383 -0.2417  0.7388 -0.2257
11510SOL    HW136909   9.576   0.194   7.460 -1.1462 -1.4439 -1.8551
11510SOL    HW236910   9.696   0.223   7.372  0.0449  1.5375  0.5835
11511SOL     OW36911   8.369   6.542   4.425 -0.5015 -0.3650 -0.2610
11511SOL    HW136912   8.399   6.463   4.379 -1.3051 -0.5285 -0.5259
11511SOL    HW236913   8.387   6.524   4.517  1.3799  0.0758 -0.5000
11512SOL     OW36914   4.158   8.882   5.182  0.0196  0.1944  0.1962
11512SOL    HW136915   4.212   8.814   5.142  0.9472  0.9166  0.1949
11512SOL    HW236916   4.119   8.928   5.108 -0.9124 -0.5405  0.1990
11513SOL     OW36917  10.587   1.995  10.337  0.3514 -0.7695 -0.1384
11513SOL    HW136918  10.625   2.013  10.251  1.0485  0.9151  0.4615
11513SOL    HW236919  10.662   1.972  10.392 -0.0830 -1.7871  0.0368
11514SOL     OW36920   7.885   6.343   0.817  0.7255  0.0174 -0.0725
11514SOL    HW136921   7.875   6.430   0.778  1.6066  0.3096  0.3466
11514SOL    HW236922   7.962   6.350   0.873  0.8922 -1.0766 -0.1470
11515SOL     OW36923   5.506   1.537   1.659 -0.4209 -0.2216  0.2976
11515SOL    HW136924   5.418   1.512   1.687 -0.5912  0.9676  0.8722
11515SOL    HW236925   5.493   1.578   1.574 -0.2218 -1.3635 -0.3141
11516SOL     OW36926   2.352   0.293   0.823  1.0692  0.4785  0.6274
11516SOL    HW136927   2.282   0.235   0.854  2.2500 -0.7549  1.1126
11516SOL    HW236928   2.308   0.356   0.766 -0.7247  0.9353  2.3911
11517SOL     OW36929   2.985   0.260   1.011  0.2955 -0.7751 -0.0457
11517SOL    HW136930   3.027   0.278   1.096 -1.2925 -2.0943  1.1007
11517SOL    HW236931   2.935   0.339   0.992 -1.1208 -1.2527  1.4271
11518SOL     OW36932   5.158   8.858   0.400 -0.0829  0.2999  0.6489
11518SOL    HW136933   5.252   8.844   0.408 -0.2460 -1.0689  0.4285
11518SOL    HW236934   5.119   8.801   0.466 -0.7703  0.7262  0.6259
11519SOL     OW36935   2.082   1.563   4.085  0.2161  0.0548  0.1751
11519SOL    HW136936   2.050   1.614   4.011  2.0572 -0.2666 -0.9211
11519SOL    HW236937   2.147   1.504   4.047  0.2033 -1.1199  1.8473
11520SOL     OW36938   4.943   0.374   8.407 -0.3226  0.3445 -0.1206
11520SOL    HW136939   4.959   0.430   8.332 -0.6977  0.1918 -0.3211
11520SOL    HW236940   5.022   0.380   8.460 -0.3690  1.0847 -0.1223
11521SOL     OW36941   0.013   8.662  10.763  0.3556 -0.2532  0.1943
11521SOL    HW136942  -0.038   8.673  10.843  1.1352 -0.1007  0.6864
11521SOL    HW236943   0.027   8.751  10.732  2.2966 -0.0872  1.3617
11522SOL     OW36944   9.842   9.568   3.254  0.1385  0.3369 -0.6743
11522SOL    HW136945   9.802   9.485   3.280 -0.9536  0.8661 -0.5992
11522SOL    HW236946   9.935   9.548   3.247  0.2115 -0.3678  1.4891
11523SOL     OW36947   5.267   1.181   5.942  0.4565 -0.1414 -0.3476
11523SOL    HW136948   5.217   1.244   5.890 -0.0884  0.0401  0.3675
11523SOL    HW236949   5.297   1.116   5.879 -0.5663 -0.1733 -0.8311
11524SOL     OW36950   6.274   4.041   5.722 -0.9113 -0.1427 -0.4506
11524SOL    HW136951   6.340   4.102   5.687 -1.5256  0.8025 -0.0015
11524SOL    HW236952   6.205   4.098   5.756 -1.3225 -1.0929  0.3342
11525SOL     OW36953  10.055   5.388   0.822  0.6252  0.3470 -0.3564
11525SOL    HW136954  10.094   5.354   0.902 -0.9977 -1.9781 -0.4637
11525SOL    HW236955  10.113   5.359   0.752 -0.0038 -1.0573 -0.3196
11526SOL     OW36956   1.704   0.177  10.798 -0.1146 -0.1466  0.1373
11526SOL    HW136957   1.650   0.226  10.860  0.8319 -0.3672  1.1571
11526SOL    HW236958   1.794   0.191  10.828  0.3219 -0.7701 -0.8247
11527SOL     OW36959   1.830   4.939   8.530 -0.2903 -0.0461  0.3184
11527SOL    HW136960   1.915   4.909   8.498  0.2720  0.0211  1.6435
11527SOL    HW236961   1.841   5.033   8.541 -1.0977  0.2329 -1.0639
11528SOL     OW36962   8.994   3.543   1.761  0.4116  0.0086 -0.0754
11528SOL    HW136963   9.066   3.605   1.748  0.8680 -0.5574 -0.3295
11528SOL    HW236964   8.941   3.581   1.831 -1.2746  2.4358 -2.4495
11529SOL     OW36965   9.568   0.646   8.051 -0.0521  0.1333  0.3180
11529SOL    HW136966   9.511   0.625   8.125  1.9386  0.8092  2.1741
11529SOL    HW236967   9.614   0.564   8.033 -3.0296 -1.1103 -2.7429
11530SOL     OW36968   1.499   2.571   1.456  0.4995 -0.3328  0.3484
11530SOL    HW136969   1.423   2.628   1.440  1.4096  0.9009  0.2326
11530SOL    HW236970   1.462   2.488   1.484 -0.9119  0.0442 -0.3338
11531SOL     OW36971   3.214   2.684   9.378  0.1453  0.0535  0.0355
11531SOL    HW136972   3.130   2.638   9.383 -1.6997  3.1593  0.6289
11531SOL    HW236973   3.250   2.659   9.293 -1.3914 -1.3676 -0.2465
11532SOL     OW36974   0.501   3.612   7.980 -0.2185 -0.3141 -0.1908
11532SOL    HW136975   0.551   3.594   8.060 -0.6796  1.3425  0.4933
11532SOL    HW236976   0.415   3.641   8.010 -0.2433  0.8204 -1.2617
11533SOL     OW36977   8.568   8.724   6.476  0.1582  0.4619 -0.2833
11533SOL    HW136978   8.547   8.776   6.399  0.0033 -1.3458 -1.5212
11533SOL    HW236979   8.652   8.757   6.507 -0.1144  1.6609 -0.7934
11534SOL     OW36980   1.069   0.040   8.964 -0.0059 -0.3666  0.0751
11534SOL    HW136981   1.140   0.037   9.027  0.9666 -0.8835 -1.0000
11534SOL    HW236982   1.100   0.101   8.896 -2.2369  2.5098  1.4403
11535SOL     OW36983   1.851   3.053   4.377  0.1681 -0.1729  0.1939
11535SOL    HW136984   1.907   2.984   4.413 -0.6145 -1.5649 -1.1408
11535SOL    HW236985   1.768   3.043   4.424  0.1085 -0.0105  0.1231
11536SOL     OW36986   5.344   1.087   3.801  0.2358 -0.1114  0.2860
11536SOL    HW136987   5.292   1.132   3.735  0.1877 -1.7494 -0.8507
11536SOL    HW236988   5.405   1.033   3.751 -0.5017 -2.2226  1.5234
11537SOL     OW36989   9.775   5.525   5.505 -0.5734 -0.3511  0.6827
11537SOL    HW136990   9.861   5.505   5.468  0.4195  0.6037  2.3681
11537SOL    HW236991   9.719   5.452   5.478  1.1601 -1.7942  0.8545
11538SOL     OW36992   5.425   1.536   0.985  0.3357 -0.0931 -0.6670
11538SOL    HW136993   5.453   1.596   0.916  0.6252  0.7471  0.1674
11538SOL    HW236994   5.473   1.565   1.063 -1.6362  0.3763  0.4261
11539SOL     OW36995   5.251   7.257   8.215  0.4734 -0.0880  0.5680
11539SOL    HW136996   5.297   7.257   8.132  0.2561  1.0393  0.4285
11539SOL    HW236997   5.221   7.167   8.226 -0.7808  0.0461 -1.2954
11540SOL     OW36998   1.803  10.098   9.138 -0.4753 -0.0027 -0.6132
11540SOL    HW136999   1.837  10.060   9.219 -2.1567  1.4005  0.8421
11540SOL    HW237000   1.771  10.184   9.163  2.2109  2.0681 -3.5649
11541SOL     OW37001   4.818   0.683   9.210  0.6377 -0.1031 -0.1239
11541SOL    HW137002   4.880   0.744   9.250  2.8527 -0.2786 -2.9403
11541SOL    HW237003   4.817   0.607   9.268  0.8305  1.0527  1.4295
11542SOL     OW37004   4.094   7.925   2.696  0.6663  0.5361 -0.1996
11542SOL    HW137005   4.016   7.883   2.733  0.1964  0.4608 -1.2318
11542SOL    HW237006   4.091   8.015   2.729  0.6524  0.2875  0.5036
11543SOL     OW37007   9.191   1.472   6.701 -0.3881 -1.1222  0.3837
11543SOL    HW137008   9.247   1.547   6.718 -1.5658  0.5578 -2.4014
11543SOL    HW237009   9.105   1.499   6.732 -0.8945 -1.1105 -0.9558
11544SOL     OW37010   3.507   2.985   2.532 -0.3318 -0.7015  0.4883
11544SOL    HW137011   3.420   2.982   2.572 -1.0565 -1.8679 -1.0802
11544SOL    HW237012   3.504   3.062   2.476  0.5604  0.7212  2.2887
11545SOL     OW37013   6.066   5.608   8.394  0.6202  0.1162 -0.1692
11545SOL    HW137014   6.027   5.626   8.479 -0.5685 -0.4866 -0.5605
11545SOL    HW237015   6.067   5.512   8.388  2.4352  0.0953 -0.0738
11546SOL     OW37016   0.524   4.407   1.606  0.0728  0.2667 -0.2434
11546SOL    HW137017   0.544   4.315   1.621 -0.3313  0.3165  0.6585
11546SOL    HW237018   0.461   4.407   1.534 -0.7252 -0.2438  0.4381
11547SOL     OW37019   1.255   2.398   9.380 -0.4849  0.4225 -0.5603
11547SOL    HW137020   1.337   2.432   9.343  0.1847  0.6402  1.0091
11547SOL    HW237021   1.208   2.361   9.305  0.4432  1.4889 -1.7216
11548SOL     OW37022   3.071   6.489   6.539 -0.0162 -0.6151  0.0596
11548SOL    HW137023   3.043   6.460   6.626 -0.5256  0.4875  0.2756
11548SOL    HW237024   3.154   6.443   6.524  0.5077 -0.1902  1.4791
11549SOL     OW37025   7.987   8.279   7.819 -0.5149 -0.1858 -0.3662
11549SOL    HW137026   8.062   8.239   7.776  0.8584 -0.8330  2.3751
11549SOL    HW237027   7.998   8.373   7.804 -0.0086 -0.3771 -1.2635
11550SOL     OW37028   2.783   2.513   6.975 -0.3137  0.4637 -0.2411
11550SOL    HW137029   2.824   2.590   6.934 -0.7288  1.6595  1.4762
11550SOL    HW237030   2.829   2.502   7.058  0.9546 -2.3085 -1.1954
11551SOL     OW37031   9.266   4.062   7.520  0.4864 -0.0762  0.0801
11551SOL    HW137032   9.261   4.132   7.585 -0.6712  0.4327 -0.5162
11551SOL    HW237033   9.207   3.994   7.552 -0.8291  0.5826 -0.8779
11552SOL     OW37034   9.795   5.523   9.049 -0.0947  0.1162  0.4149
11552SOL    HW137035   9.888   5.524   9.073  0.1143 -0.6100 -0.3591
11552SOL    HW237036   9.791   5.476   8.966 -1.0331  1.0309 -0.0873
11553SOL     OW37037   0.393   2.769   9.799  0.6530 -0.1578  0.2984
11553SOL    HW137038   0.316   2.730   9.758  1.4898 -1.0693 -0.4377
11553SOL    HW237039   0.402   2.723   9.883 -0.1882  0.6810  0.8795
11554SOL     OW37040   7.223   0.505   2.982 -0.4739  0.0863  0.2634
11554SOL    HW137041   7.292   0.442   3.000 -0.6864 -0.1109  0.3857
11554SOL    HW237042   7.195   0.535   3.068 -1.5270 -0.8926  0.2714
11555SOL     OW37043   9.226   8.227   1.496  0.2828  0.3312  0.5099
11555SOL    HW137044   9.314   8.258   1.514  0.2366  0.3468  0.7110
11555SOL    HW237045   9.168   8.288   1.542  0.1560  0.4673  0.1762
11556SOL     OW37046   0.554   1.260   1.503 -0.5385 -0.0805  0.6749
11556SOL    HW137047   0.508   1.177   1.501  0.5241 -0.6795 -0.1053
11556SOL    HW237048   0.503   1.317   1.445 -0.5858 -0.5793  0.2190
11557SOL     OW37049   1.397   6.655   6.483  0.5100  0.0720  0.6509
11557SOL    HW137050   1.319   6.691   6.442 -0.9185 -3.2733  0.0924
11557SOL    HW237051   1.470   6.699   6.439 -1.0333  0.9330 -1.1851
11558SOL     OW37052   5.188   3.071   9.273 -0.6606 -0.1776  0.1807
11558SOL    HW137053   5.154   3.118   9.349  0.1351  0.6828  0.0338
11558SOL    HW237054   5.202   2.982   9.303 -0.7841  0.0453  0.9167
11559SOL     OW37055   7.280   2.415   9.850  0.3795 -0.3996 -0.3111
11559SOL    HW137056   7.243   2.330   9.874 -1.2654  0.6625  1.1106
11559SOL    HW237057   7.363   2.393   9.808 -0.4326 -2.7415 -0.8589
11560SOL     OW37058   3.436   8.105   3.519 -0.4531 -0.6067 -0.0646
11560SOL    HW137059   3.490   8.044   3.569  0.2989 -0.2256 -0.3830
11560SOL    HW237060   3.489   8.185   3.513  0.2660 -1.1744 -2.9028
11561SOL     OW37061   2.970   1.304   5.602 -0.1497  0.5224  0.6342
11561SOL    HW137062   2.945   1.318   5.511  0.8825 -2.1441 -0.1587
11561SOL    HW237063   2.893   1.329   5.652 -1.3715  0.4030 -1.1050
11562SOL     OW37064   8.926   2.612   1.466  0.1053  0.3328  0.2078
11562SOL    HW137065   9.011   2.651   1.447  0.3860 -0.2684  0.2104
11562SOL    HW237066   8.867   2.650   1.401  0.7624 -0.6656 -1.0138
11563SOL     OW37067   4.395   9.294   5.131 -0.1593 -0.4413 -0.1582
11563SOL    HW137068   4.366   9.308   5.221  0.2783  0.2332 -0.1124
11563SOL    HW237069   4.413   9.382   5.098 -0.4868 -0.6705 -0.9644
11564SOL     OW37070   0.055   1.504   2.214  0.0420 -0.1059 -0.2416
11564SOL    HW137071   0.052   1.580   2.157 -0.5403  1.9145  2.3017
11564SOL    HW237072  -0.019   1.516   2.274  2.0417 -0.7144  2.5330
11565SOL     OW37073  10.519   7.796   0.133  0.6040 -0.4263 -0.0202
11565SOL    HW137074  10.441   7.758   0.093 -0.0068  0.7088  0.0542
11565SOL    HW237075  10.496   7.804   0.226  1.5511 -1.8873  0.3729
11566SOL     OW37076   2.446   7.215   4.317 -0.4126 -0.4376  0.1341
11566SOL    HW137077   2.440   7.254   4.230  1.0124 -0.5561 -0.0416
11566SOL    HW237078   2.404   7.129   4.308 -1.1055 -0.0739 -0.1825
11567SOL     OW37079   1.482   7.779   4.134  0.2211 -0.4168 -0.1149
11567SOL    HW137080   1.519   7.867   4.143 -2.0228  0.5114  0.6779
11567SOL    HW237081   1.515   7.731   4.209  0.2228  0.2490  0.3234
11568SOL     OW37082   7.167   2.641   1.725 -0.0419  0.2803  0.2816
11568SOL    HW137083   7.226   2.712   1.750 -0.0864  1.0107 -1.4969
11568SOL    HW237084   7.080   2.680   1.725 -0.0324  0.3626 -1.0216
11569SOL     OW37085   0.453   2.794   5.978 -0.6459  0.0458  0.0478
11569SOL    HW137086   0.513   2.824   5.910 -1.1031 -1.0462 -0.8633
11569SOL    HW237087   0.472   2.850   6.053 -0.2565  1.4043 -1.0319
11570SOL     OW37088   5.083   6.576   4.630 -0.2545 -0.6357  0.1363
11570SOL    HW137089   5.030   6.509   4.586 -0.3623 -1.1136  0.9792
11570SOL    HW237090   5.170   6.566   4.593 -0.6394 -0.1547 -0.9249
11571SOL     OW37091   7.798  10.447   7.752 -0.0615 -0.1829 -0.7911
11571SOL    HW137092   7.743  10.376   7.786  1.0883 -1.1050 -0.8206
11571SOL    HW237093   7.769  10.525   7.800 -1.2788 -0.6734 -0.6992
11572SOL     OW37094   5.218   8.323   5.615 -0.3700  0.3105  0.1754
11572SOL    HW137095   5.137   8.364   5.643  0.4331  0.9980  1.5971
11572SOL    HW237096   5.245   8.269   5.689 -1.4864 -3.1034 -1.6839
11573SOL     OW37097   4.807   9.523   8.089  0.0210 -0.0506  0.6972
11573SOL    HW137098   4.825   9.592   8.153  0.5025 -0.1543  0.6731
11573SOL    HW237099   4.744   9.466   8.133  0.6595 -0.3498  1.2422
11574SOL     OW37100  10.754   6.837   1.430  0.2694  0.2439  0.4541
11574SOL    HW137101  10.728   6.777   1.360  1.1283  0.6396 -0.2194
11574SOL    HW237102  10.691   6.820   1.500 -0.2641 -0.5568 -0.1955
11575SOL     OW37103   3.003   0.275   7.814 -0.0050 -0.1338 -0.3797
11575SOL    HW137104   3.090   0.252   7.845  0.6425  1.3302 -1.0086
11575SOL    HW237105   2.977   0.201   7.759  1.5428  0.1039 -1.5006
11576SOL     OW37106   6.389   5.186   5.287 -0.0238  0.1247  0.3912
11576SOL    HW137107   6.445   5.174   5.363 -0.8678  1.6117  1.3054
11576SOL    HW237108   6.304   5.150   5.313  0.0718 -0.7053 -0.4039
11577SOL     OW37109   5.135   0.423   9.691  0.0399  0.5420 -0.4020
11577SOL    HW137110   5.137   0.495   9.754  0.4596 -0.3233  0.6179
11577SOL    HW237111   5.042   0.398   9.687  0.1557 -0.2532  0.9427
11578SOL     OW37112   1.685   0.651   2.846  0.3743  0.3802 -0.0357
11578SOL    HW137113   1.653   0.691   2.927 -0.2727  1.7607 -0.9516
11578SOL    HW237114   1.684   0.721   2.782 -0.1662 -0.9537 -1.5496
11579SOL     OW37115   9.486   1.888   5.514 -0.3538 -0.4751  0.0160
11579SOL    HW137116   9.416   1.916   5.455  0.9690  0.4712 -1.1751
11579SOL    HW237117   9.566   1.897   5.462  0.6330 -1.8603  1.2193
11580SOL     OW37118   7.224  10.293   5.457  0.3667 -0.3898  0.3631
11580SOL    HW137119   7.157  10.352   5.490  0.7870 -0.6875  1.8641
11580SOL    HW237120   7.222  10.219   5.518  0.6667 -1.3509 -0.7684
11581SOL     OW37121   3.937   6.480   0.361  0.1426 -0.9230  0.2105
11581SOL    HW137122   3.848   6.502   0.387  0.8479  0.2767  1.8066
11581SOL    HW237123   3.929   6.395   0.318 -1.9316 -0.1992 -0.9558
11582SOL     OW37124   3.824   1.238   9.469  0.3969  0.3131 -0.0918
11582SOL    HW137125   3.875   1.319   9.475  0.4555  0.4196 -1.5339
11582SOL    HW237126   3.761   1.244   9.541  0.0728  1.9001 -0.4570
11583SOL     OW37127   5.173   7.202   0.760  0.4912 -0.2205 -0.0674
11583SOL    HW137128   5.239   7.153   0.809 -0.7094 -1.0334  0.7671
11583SOL    HW237129   5.135   7.262   0.824 -1.1573 -1.3608  0.0675
11584SOL     OW37130   3.429   8.940   9.854 -0.2161  0.9419 -0.6087
11584SOL    HW137131   3.477   9.006   9.804  0.4991  1.6625  0.9912
11584SOL    HW237132   3.415   8.979   9.940  0.2850 -0.9964  0.4070
11585SOL     OW37133   7.047   2.593   7.417 -0.0201 -0.2132  0.0535
11585SOL    HW137134   7.085   2.515   7.377  2.8126  0.0241  1.9480
11585SOL    HW237135   7.072   2.587   7.509 -2.7930  1.2149  0.9996
11586SOL     OW37136   2.727   1.703   3.249 -0.0843 -0.1791 -0.2482
11586SOL    HW137137   2.795   1.767   3.230  0.7350 -0.3044  1.9245
11586SOL    HW237138   2.651   1.755   3.275 -1.1000 -0.0201 -3.2412
11587SOL     OW37139   1.425   7.658   4.568 -0.1335 -0.0561 -0.2085
11587SOL    HW137140   1.423   7.600   4.644 -0.6454 -1.3016 -1.1341
11587SOL    HW237141   1.333   7.672   4.546  0.0287 -0.8594 -1.4379
11588SOL     OW37142  10.644   4.548   4.106 -0.1441  0.7599  0.1278
11588SOL    HW137143  10.572   4.602   4.138 -0.5020  0.6905 -0.5543
11588SOL    HW237144  10.719   4.608   4.102 -0.7315  1.4414 -1.4154
11589SOL     OW37145  10.207   8.753   6.466  0.1890  0.2416  0.9754
11589SOL    HW137146  10.219   8.729   6.374  0.2941  0.5169  0.9175
11589SOL    HW237147  10.288   8.724   6.508  0.1136  0.0545  0.9944
11590SOL     OW37148   8.813   7.886   4.251 -0.0196  0.1672 -0.3935
11590SOL    HW137149   8.891   7.942   4.259  0.1424 -0.2209  0.9358
11590SOL    HW237150   8.827   7.816   4.315 -1.2424 -0.1724 -0.4784
11591SOL     OW37151   7.889   8.589   0.416 -0.5759  0.2118  0.0959
11591SOL    HW137152   7.825   8.630   0.357 -0.3171 -0.9915 -1.0857
11591SOL    HW237153   7.914   8.508   0.371  0.6410 -0.0951  1.2605
11592SOL     OW37154   7.442   1.331   4.703 -0.1198 -0.8794  0.0222
11592SOL    HW137155   7.360   1.371   4.732  1.4866  1.5603  1.5023
11592SOL    HW237156   7.496   1.327   4.782  1.5398 -1.5557 -1.0855
11593SOL     OW37157   5.348   1.360   3.239  0.2474 -0.3350 -0.8374
11593SOL    HW137158   5.292   1.403   3.174 -1.2406  0.0198  0.6304
11593SOL    HW237159   5.429   1.411   3.238 -0.6921  1.2116 -0.6375
11594SOL     OW37160   6.647   6.938   9.373 -0.2738  0.0291  0.5644
11594SOL    HW137161   6.620   6.974   9.289  0.3080 -0.6198  0.0841
11594SOL    HW237162   6.720   6.993   9.401 -1.2692  1.0391  1.2847
11595SOL     OW37163   6.196   1.331   5.285  0.1511 -0.3025 -0.1715
11595SOL    HW137164   6.264   1.338   5.218  1.2434 -2.2536  0.6371
11595SOL    HW237165   6.119   1.297   5.239  0.4557 -0.3070 -0.6825
11596SOL     OW37166   9.864   1.826   1.140  0.0437  0.0271  0.2908
11596SOL    HW137167   9.822   1.912   1.131 -0.7641 -0.2449  1.2869
11596SOL    HW237168   9.927   1.823   1.068 -0.5209  1.1049 -0.2800
11597SOL     OW37169   2.424   0.106   2.546 -0.0337 -0.1018 -0.0764
11597SOL    HW137170   2.344   0.070   2.584  0.2546 -0.3195  0.3343
11597SOL    HW237171   2.408   0.201   2.544 -0.2538 -0.1319  0.1184
11598SOL     OW37172   9.977   9.495   1.611  0.2514 -0.3355 -0.0677
11598SOL    HW137173  10.061   9.452   1.595  1.3959  2.3229 -2.0599
11598SOL    HW237174   9.926   9.476   1.532 -0.8609 -1.4092  0.8640
11599SOL     OW37175   1.720   6.676   4.985 -0.0708  0.1981 -0.0200
11599SOL    HW137176   1.790   6.659   4.921 -1.1488 -0.0359 -1.1856
11599SOL    HW237177   1.705   6.770   4.978  0.5358  0.3540  0.6848
11600SOL     OW37178   4.239   4.295   7.326  0.2892 -0.2807  0.1129
11600SOL    HW137179   4.213   4.234   7.257 -1.4068 -0.2874  0.7129
11600SOL    HW237180   4.296   4.244   7.383 -0.5732 -1.1314  0.2460
11601SOL     OW37181   6.805  10.255   0.246  0.1189 -0.3907 -0.1102
11601SOL    HW137182   6.745  10.254   0.171  2.2048 -1.3152 -1.8763
11601SOL    HW237183   6.757  10.301   0.315 -1.4205  1.6413 -2.3995
11602SOL     OW37184   1.639   8.836   2.992 -0.2591 -0.2682  0.2206
11602SOL    HW137185   1.600   8.906   2.939  0.1531  0.4646  0.8526
11602SOL    HW237186   1.685   8.781   2.929 -1.0749 -0.3046 -0.3580
11603SOL     OW37187   2.819   3.196   4.435  0.4385 -0.0473  0.2378
11603SOL    HW137188   2.849   3.251   4.507 -1.3138  0.2114  0.8247
11603SOL    HW237189   2.749   3.247   4.394 -1.1036 -1.7061  0.6766
11604SOL     OW37190  10.170   1.498   9.204  0.5711 -0.1076 -0.5204
11604SOL    HW137191  10.262   1.522   9.219  0.1484  0.5757  1.2422
11604SOL    HW237192  10.123   1.538   9.277 -1.0470 -1.0254 -1.0172
11605SOL     OW37193   6.834   2.599   6.592  0.2202  0.0508  0.1880
11605SOL    HW137194   6.844   2.527   6.530  1.5254 -1.2215  1.7678
11605SOL    HW237195   6.740   2.605   6.608 -0.0044 -0.5234 -0.8586
11606SOL     OW37196   7.646   9.374   1.080  0.4182 -0.1988  0.1604
11606SOL    HW137197   7.577   9.333   1.132  0.9583 -0.0616  0.9967
11606SOL    HW237198   7.701   9.301   1.051  0.6637 -0.1831  0.5886
11607SOL     OW37199   5.950  10.135   4.636  0.2497 -0.5257  0.3981
11607SOL    HW137200   5.871  10.166   4.681 -0.8158 -0.2392 -1.5480
11607SOL    HW237201   6.007  10.211   4.633  0.4669 -0.6242  1.4624
11608SOL     OW37202   5.719   1.958  10.655  0.1278  0.5128  0.1232
11608SOL    HW137203   5.772   1.942  10.577 -0.7337 -0.7206 -0.2525
11608SOL    HW237204   5.649   1.892  10.650 -1.3306  1.9616  0.6772
11609SOL     OW37205   7.892   2.317   4.380  0.3032 -0.4474  0.3333
11609SOL    HW137206   7.927   2.281   4.298  0.1655 -1.2436  0.6185
11609SOL    HW237207   7.807   2.275   4.390 -0.2419  0.6098  0.2407
11610SOL     OW37208   1.934   9.433   4.623 -0.2023 -0.2124  0.4472
11610SOL    HW137209   1.911   9.514   4.578 -0.0915 -0.2881  0.2519
11610SOL    HW237210   1.860   9.375   4.606  0.0003 -0.3627  0.0527
11611SOL     OW37211  10.385   1.876   9.592 -0.4289  0.4874  0.0300
11611SOL    HW137212  10.310   1.901   9.538 -0.2783 -3.3258 -2.3600
11611SOL    HW237213  10.353   1.802   9.644  0.9475  0.6035  1.0961
11612SOL     OW37214   1.497   3.700   8.931 -0.5990 -0.2661 -0.1698
11612SOL    HW137215   1.526   3.641   8.862 -0.4855  0.4458 -0.7524
11612SOL    HW237216   1.578   3.744   8.960 -0.5453 -1.0454  0.8930
11613SOL     OW37217   0.364   0.349   0.821  0.1796 -0.1514  0.2194
11613SOL    HW137218   0.395   0.338   0.911 -0.4337 -0.3621  0.4101
11613SOL    HW237219   0.320   0.434   0.821  1.5132  0.5815 -0.2798
11614SOL     OW37220   7.614   4.669   3.157 -0.4162 -0.1616 -0.1985
11614SOL    HW137221   7.629   4.763   3.162 -1.1258  0.2278 -3.4897
11614SOL    HW237222   7.540   4.658   3.098 -1.3722 -2.7670  1.2960
11615SOL     OW37223   5.325   3.217   0.343  0.2312  0.0304  0.0220
11615SOL    HW137224   5.302   3.184   0.429  0.2596 -0.1475 -0.0393
11615SOL    HW237225   5.417   3.241   0.349  0.4740 -0.8121 -0.2152
11616SOL     OW37226   8.787   3.749   0.987  0.0522 -0.6553 -0.7695
11616SOL    HW137227   8.770   3.840   0.964  0.3856 -0.7465 -1.4084
11616SOL    HW237228   8.751   3.739   1.076 -0.0584  0.0693 -0.7279
11617SOL     OW37229   9.733   0.912   0.722  0.0029  0.0490 -0.1171
11617SOL    HW137230   9.799   0.924   0.791  0.6467 -0.6155 -0.6039
11617SOL    HW237231   9.765   0.966   0.649 -1.1359  1.4638  0.3860
11618SOL     OW37232   1.905   7.365   4.010 -0.2676  0.3485  0.8911
11618SOL    HW137233   1.947   7.294   4.058  0.9325  1.4558  1.5363
11618SOL    HW237234   1.861   7.322   3.937 -0.3948 -1.1528  1.8121
11619SOL     OW37235   9.681   1.442   0.370  0.1560  0.0370  0.4653
11619SOL    HW137236   9.699   1.481   0.285  3.4705 -2.3044 -0.0849
11619SOL    HW237237   9.620   1.371   0.351 -1.5316  1.3546  0.6405
11620SOL     OW37238   7.450   8.083   8.582 -0.1015  0.1854  0.3411
11620SOL    HW137239   7.502   8.027   8.524 -0.8312 -0.5612  0.3990
11620SOL    HW237240   7.490   8.170   8.572  0.4456 -0.1388 -0.4768
11621SOL     OW37241   9.594   8.186   3.467 -0.2873 -0.0304 -0.2871
11621SOL    HW137242   9.547   8.264   3.495  0.7296  0.1717  0.9639
11621SOL    HW237243   9.576   8.179   3.373 -3.3638 -0.3664  0.2069
11622SOL     OW37244   9.640   4.240   0.474 -0.2075  0.2207 -0.0246
11622SOL    HW137245   9.702   4.240   0.546  0.2930  1.7732 -0.4041
11622SOL    HW237246   9.668   4.169   0.417  0.5884  0.2490  0.3277
11623SOL     OW37247  10.238  10.302   0.772 -0.6483 -0.0495 -0.5934
11623SOL    HW137248  10.321  10.307   0.820 -0.4686  1.4235 -0.9908
11623SOL    HW237249  10.225  10.209   0.755  0.3228 -0.4120  0.5112
11624SOL     OW37250   5.094   0.271   0.257  0.5048  0.6855  0.1605
11624SOL    HW137251   5.066   0.250   0.346 -0.4082  0.6126 -0.1309
11624SOL    HW237252   5.159   0.340   0.267  1.5559 -0.3853  0.9733
11625SOL     OW37253   7.834   6.397   3.003  0.2054 -0.0908  0.0916
11625SOL    HW137254   7.902   6.343   3.043 -0.5101 -0.8879  0.2609
11625SOL    HW237255   7.840   6.377   2.909  0.1527 -0.2248  0.1164
11626SOL     OW37256   8.929   0.948   7.726 -0.3116 -0.0929 -0.2726
11626SOL    HW137257   8.840   0.984   7.725 -1.2007 -2.1313 -0.6439
11626SOL    HW237258   8.951   0.937   7.633  0.1412 -0.0163 -0.1753
11627SOL     OW37259   8.732   1.910   0.829 -0.0933 -0.3904  0.3620
11627SOL    HW137260   8.777   1.827   0.814  0.3066 -0.2804  0.9385
11627SOL    HW237261   8.793   1.962   0.881 -0.7787 -0.1537  0.9535
11628SOL     OW37262   1.812   7.059   9.851  0.2878 -0.0279  0.1826
11628SOL    HW137263   1.871   6.989   9.879 -0.0329 -0.2101  0.4130
11628SOL    HW237264   1.869   7.136   9.843  0.1227  0.5222  3.2121
11629SOL     OW37265  10.314   5.228   1.228  0.0688 -0.4701  0.1627
11629SOL    HW137266  10.283   5.223   1.138 -0.9598  1.2733  0.3861
11629SOL    HW237267  10.279   5.310   1.262  0.7675 -0.8834  2.0382
11630SOL     OW37268   4.805   2.107   4.725  0.7219  0.1756 -0.2014
11630SOL    HW137269   4.862   2.164   4.673  1.4154 -1.2371 -1.0763
11630SOL    HW237270   4.831   2.018   4.699  0.2411 -0.5665  1.6861
11631SOL     OW37271   5.271   6.929   1.606 -0.3516 -0.4374 -0.6259
11631SOL    HW137272   5.176   6.941   1.594 -0.2388 -0.7386 -1.9984
11631SOL    HW237273   5.283   6.834   1.602  0.2229 -0.3132 -2.4532
11632SOL     OW37274  10.107  10.239   1.997 -0.2048  0.5705  0.1620
11632SOL    HW137275  10.036  10.278   1.946  0.6606  1.8294 -0.1310
11632SOL    HW237276  10.176  10.221   1.933 -0.2706 -0.7470  0.4218
11633SOL     OW37277   1.460   3.129   7.659 -0.1720  0.1087 -0.1164
11633SOL    HW137278   1.371   3.094   7.666  0.2061 -0.6678  1.1578
11633SOL    HW237279   1.450   3.223   7.673 -0.8085  0.0524 -0.1489
11634SOL     OW37280   6.394   4.944   7.821 -0.2039 -1.1498 -0.2338
11634SOL    HW137281   6.450   4.932   7.745  0.1006  0.9009 -0.3679
11634SOL    HW237282   6.436   4.892   7.891  1.0747 -0.7629 -0.7005
11635SOL     OW37283   1.716   4.467   3.416  0.0111 -0.1695  0.2603
11635SOL    HW137284   1.722   4.557   3.383  1.0966  0.1095  1.1592
11635SOL    HW237285   1.794   4.424   3.380  0.2006 -0.3760  0.9100
11636SOL     OW37286  10.309   2.919   0.724  0.1470  0.0488 -0.5884
11636SOL    HW137287  10.297   2.975   0.647 -0.4274  1.6362  0.5830
11636SOL    HW237288  10.376   2.963   0.775 -0.7341  0.0119  0.6526
11637SOL     OW37289   7.738   0.183   3.748 -0.2367  1.2149 -0.4212
11637SOL    HW137290   7.828   0.152   3.749 -0.2262  1.1922  1.2145
11637SOL    HW237291   7.715   0.190   3.656  0.1364 -2.5316 -0.9262
11638SOL     OW37292   0.757   1.013   0.391  0.1273  0.4848 -0.0656
11638SOL    HW137293   0.743   1.102   0.360 -0.6110  0.5238  0.3412
11638SOL    HW237294   0.755   0.959   0.312  0.8986  0.8569 -0.3452
11639SOL     OW37295   7.468   7.038  10.607 -0.0248 -0.0369  0.4164
11639SOL    HW137296   7.434   6.960  10.564 -4.3228  1.1259  1.1401
11639SOL    HW237297   7.499   7.007  10.692  2.7605 -1.4526 -0.9793
11640SOL     OW37298   7.176   4.911   2.399 -0.1875 -0.1927 -0.0989
11640SOL    HW137299   7.084   4.887   2.392 -0.7867  2.1154 -0.9576
11640SOL    HW237300   7.218   4.863   2.328 -0.6237 -1.5033  0.4848
11641SOL     OW37301   8.072   1.114   1.072 -0.7710 -0.3259  0.0041
11641SOL    HW137302   8.063   1.114   0.977 -0.5976  3.4092 -0.1400
11641SOL    HW237303   7.982   1.107   1.104 -0.7708 -2.5201 -0.3260
11642SOL     OW37304   5.356   0.466   2.155 -0.1911  0.1810 -0.3048
11642SOL    HW137305   5.318   0.538   2.205  0.7198  0.2099  0.3688
11642SOL    HW237306   5.437   0.502   2.119  0.3117 -0.5212  0.1006
11643SOL     OW37307   3.316   2.175   1.826  0.0770  1.0549 -0.6164
11643SOL    HW137308   3.279   2.262   1.809  2.6365  2.3276 -0.0351
11643SOL    HW237309   3.333   2.139   1.739 -0.5920  1.2960 -0.8526
11644SOL     OW37310   0.683   4.427   5.346  0.8396  0.2236 -0.5305
11644SOL    HW137311   0.669   4.355   5.408  1.6709  0.9500  0.5318
11644SOL    HW237312   0.711   4.501   5.401  1.6349  0.8747 -1.7674
11645SOL     OW37313   1.020   7.923   2.992 -0.5659  0.1576  0.1110
11645SOL    HW137314   1.055   7.997   2.943  1.0229 -0.6879 -0.0903
11645SOL    HW237315   1.097   7.872   3.017 -1.5246 -0.7166  1.4024
11646SOL     OW37316   2.577   5.968   7.058  0.3691 -0.5175  0.5498
11646SOL    HW137317   2.639   6.007   7.120  3.5727 -2.0348 -1.3752
11646SOL    HW237318   2.598   6.010   6.975 -1.5268 -0.8394 -0.1320
11647SOL     OW37319   8.961   0.377  10.428  0.2274 -0.4485  0.2939
11647SOL    HW137320   8.909   0.319  10.373 -1.0523  0.6298  0.3317
11647SOL    HW237321   9.028   0.412  10.369  0.2733 -1.0368 -0.0088
11648SOL     OW37322   2.163   2.407   2.955  0.0184  0.3294  1.1402
11648SOL    HW137323   2.133   2.381   2.868 -0.0727 -0.8928  1.5236
11648SOL    HW237324   2.088   2.453   2.994 -0.3317 -0.1160  0.9908
11649SOL     OW37325   3.865  10.560   8.802 -0.0909 -0.2119  0.2081
11649SOL    HW137326   3.929  10.631   8.800  0.3967 -0.6060  1.0940
11649SOL    HW237327   3.790  10.593   8.752 -0.3990  1.4616  1.6532
11650SOL     OW37328   2.774   2.955   9.538 -0.0398  0.2659 -0.4161
11650SOL    HW137329   2.869   2.954   9.523  0.0823 -0.7992  0.2846
11650SOL    HW237330   2.736   2.948   9.450  0.5289  0.8079 -0.7083
11651SOL     OW37331   6.629  10.552   0.740 -0.3610  0.2003 -0.1020
11651SOL    HW137332   6.715  10.532   0.778 -0.9066 -0.4951  0.8006
11651SOL    HW237333   6.639  10.640   0.705  1.2004 -0.4654 -1.4628
11652SOL     OW37334   3.723   5.374   5.309  0.2411 -0.1606 -0.0544
11652SOL    HW137335   3.660   5.399   5.376 -1.1973 -0.8209 -1.0845
11652SOL    HW237336   3.730   5.279   5.317  0.1731 -0.2280 -0.7256
11653SOL     OW37337   8.732   3.442   0.540  0.6585  0.0475  0.0459
11653SOL    HW137338   8.684   3.365   0.572  0.3370  0.7166  1.2506
11653SOL    HW237339   8.812   3.406   0.502  0.0134 -0.9583 -0.4297
11654SOL     OW37340   4.994   6.370   5.675  0.6778  0.0382 -0.7836
11654SOL    HW137341   5.002   6.360   5.770 -3.7750 -0.4062 -0.2483
11654SOL    HW237342   5.045   6.298   5.639 -0.2381 -1.8677  1.4565
11655SOL     OW37343   3.326   5.748   6.644 -0.6993  0.3269 -0.1883
11655SOL    HW137344   3.263   5.764   6.574 -1.7500 -0.1292  0.6194
11655SOL    HW237345   3.400   5.805   6.624 -1.7728  1.6013 -0.6587
11656SOL     OW37346   5.192   6.239   8.928 -0.4227 -0.0847  0.0168
11656SOL    HW137347   5.200   6.257   9.021  1.5884 -0.4332 -0.0398
11656SOL    HW237348   5.163   6.322   8.890 -1.5286 -0.0204  0.9700
11657SOL     OW37349   1.267   0.791   5.567 -0.1608  0.2198  0.7229
11657SOL    HW137350   1.205   0.723   5.591 -0.2337 -0.2223 -0.6638
11657SOL    HW237351   1.231   0.830   5.487  0.8120  0.6364  0.4713
11658SOL     OW37352   7.822   4.222   2.040  0.2030  0.6689  0.1593
11658SOL    HW137353   7.804   4.316   2.041 -1.3994  0.4532 -1.7029
11658SOL    HW237354   7.835   4.201   1.947  0.3761 -0.9720  0.5313
11659SOL     OW37355   8.759   9.181  10.085 -0.0130  0.5738 -0.2851
11659SOL    HW137356   8.746   9.098  10.040  0.2714 -0.6288  1.7603
11659SOL    HW237357   8.681   9.232  10.064  0.0889  0.0791 -2.0697
11660SOL     OW37358  10.766   5.681   1.166  0.1968  0.0373  0.3653
11660SOL    HW137359  10.773   5.616   1.235  0.4051 -1.4709 -1.0105
11660SOL    HW237360  10.713   5.638   1.098 -0.0474  1.4771 -0.3871
11661SOL     OW37361   0.663   3.857   1.857 -0.0433  0.2814 -0.1323
11661SOL    HW137362   0.686   3.925   1.793  2.4658 -0.4942 -0.1778
11661SOL    HW237363   0.729   3.789   1.844 -0.9512 -1.0227  1.6337
11662SOL     OW37364   9.158   6.387   1.510  0.1273 -0.6692 -0.3885
11662SOL    HW137365   9.186   6.475   1.485 -0.2877 -1.1594 -2.8540
11662SOL    HW237366   9.171   6.383   1.605 -0.5971  2.2992 -0.0801
11663SOL     OW37367   4.181   2.137  10.451 -0.1977  0.5560 -0.1582
11663SOL    HW137368   4.268   2.135  10.490 -0.4114  0.6632  0.3220
11663SOL    HW237369   4.198   2.134  10.356  0.3413  1.0271 -0.0838
11664SOL     OW37370   8.742   9.488   4.434 -0.1315 -0.1812  0.1841
11664SOL    HW137371   8.825   9.443   4.420  0.7060  0.7595  1.8286
11664SOL    HW237372   8.679   9.417   4.449  0.6248 -0.8756  0.1615
11665SOL     OW37373   9.057   0.489   1.804 -0.0112  0.1222 -0.0755
11665SOL    HW137374   9.111   0.563   1.833  0.8550 -0.9369  1.1197
11665SOL    HW237375   9.091   0.414   1.853 -0.3462 -1.2385 -1.8368
11666SOL     OW37376   5.893   8.841   1.929 -0.0004 -0.7271 -0.5759
11666SOL    HW137377   5.837   8.767   1.906 -2.9912  0.4407  2.0175
11666SOL    HW237378   5.967   8.803   1.975 -0.7974 -2.1963 -0.4601
11667SOL     OW37379  10.116  10.766   6.894 -0.4933 -0.0083 -0.0430
11667SOL    HW137380  10.130  10.826   6.821 -0.5244  0.7774  0.5891
11667SOL    HW237381  10.203  10.751   6.930 -0.4993 -0.2534 -0.1303
11668SOL     OW37382   5.565   8.775   1.759 -0.4886 -0.4449  0.4998
11668SOL    HW137383   5.633   8.736   1.814 -1.9689 -0.6312  2.2842
11668SOL    HW237384   5.544   8.858   1.802 -1.5093 -0.4784  0.0979
11669SOL     OW37385   6.843  10.341   6.450 -0.1472 -0.0298  0.1405
11669SOL    HW137386   6.801  10.423   6.423  2.0105  1.2047  0.2777
11669SOL    HW237387   6.902  10.320   6.377  0.2038 -0.7890  0.6395
11670SOL     OW37388   4.900   6.886   2.686 -0.2999 -0.0250 -0.3088
11670SOL    HW137389   4.899   6.982   2.680 -0.2761  0.0008  0.0850
11670SOL    HW237390   4.981   6.860   2.642 -0.1867  0.1504 -0.2056
11671SOL     OW37391   7.259   5.179   7.327  0.3452 -0.6964 -0.2284
11671SOL    HW137392   7.271   5.274   7.332 -0.9256 -0.5156 -0.2770
11671SOL    HW237393   7.231   5.163   7.237 -1.0911 -0.8989  0.2342
11672SOL     OW37394   2.013   5.386   3.095  0.0244 -0.2225  0.3465
11672SOL    HW137395   1.930   5.341   3.080 -0.1626  0.2679 -0.1365
11672SOL    HW237396   2.052   5.395   3.008  0.8019 -0.8395  0.6160
11673SOL     OW37397   4.653   1.050   7.463  0.1106 -0.0015  0.2147
11673SOL    HW137398   4.663   1.016   7.552  0.0073  2.5827  1.3227
11673SOL    HW237399   4.642   0.973   7.408  0.1864 -1.6877  2.4374
11674SOL     OW37400  10.182   7.715   2.025  0.2418 -0.4223 -0.1613
11674SOL    HW137401  10.217   7.790   1.977 -0.5004 -0.8919 -1.4902
11674SOL    HW237402  10.146   7.752   2.106  1.5721  0.3815  0.0954
11675SOL     OW37403   5.099   1.004   4.131 -0.4747  0.3621  0.1730
11675SOL    HW137404   5.028   1.060   4.099  0.6257  1.4179 -0.5157
11675SOL    HW237405   5.114   0.942   4.060 -1.2925 -0.4588  0.6926
11676SOL     OW37406   3.991   6.718   8.689 -0.0509 -0.8536 -0.2977
11676SOL    HW137407   4.031   6.805   8.683  0.1459 -0.8439  0.9215
11676SOL    HW237408   4.017   6.674   8.607  0.4166 -0.0089 -0.6189
11677SOL     OW37409   3.205   3.398   5.776  0.5048  0.7367  0.5034
11677SOL    HW137410   3.159   3.450   5.709 -1.2065 -0.6862  0.5145
11677SOL    HW237411   3.265   3.343   5.726 -0.6134 -0.1655  0.1088
11678SOL     OW37412   5.479   5.734   3.869 -0.5971 -0.2728 -0.0829
11678SOL    HW137413   5.486   5.639   3.862 -1.1121 -0.2517 -1.2894
11678SOL    HW237414   5.389   5.749   3.898 -0.7028 -0.1535 -0.4584
11679SOL     OW37415   3.816   4.728   6.042 -0.4260 -0.2805 -0.3030
11679SOL    HW137416   3.789   4.683   6.122 -1.6951 -1.0601 -1.1345
11679SOL    HW237417   3.859   4.660   5.990  2.5861  0.7349  0.6271
11680SOL     OW37418   3.595   6.330   6.538  0.2948 -0.1630 -1.1406
11680SOL    HW137419   3.637   6.387   6.473  2.2116 -0.2983 -0.0911
11680SOL    HW237420   3.614   6.372   6.622 -1.8013 -0.2068 -0.5902
11681SOL     OW37421   6.903   2.935   5.364 -0.1463  0.6801 -0.2884
11681SOL    HW137422   6.919   2.944   5.270  1.5266 -0.4594 -0.1614
11681SOL    HW237423   6.904   3.025   5.397  1.0000  1.0117 -1.1330
11682SOL     OW37424   2.466   3.937   2.579 -0.3380 -0.0075  0.3430
11682SOL    HW137425   2.490   3.998   2.509  0.0967  1.3947  1.6522
11682SOL    HW237426   2.525   3.862   2.567  0.5197  0.7164 -0.1036
11683SOL     OW37427   6.716   9.394   1.434 -0.3464 -0.2388 -0.5701
11683SOL    HW137428   6.745   9.378   1.524 -1.4832 -0.1535 -0.1634
11683SOL    HW237429   6.725   9.488   1.422  2.0039 -0.5044 -1.3787
11684SOL     OW37430   4.547  10.599   6.612 -0.4300  0.1199 -0.1843
11684SOL    HW137431   4.540  10.672   6.673 -1.1143  0.6524 -0.8835
11684SOL    HW237432   4.640  10.576   6.613 -0.5307 -0.2790  1.4956
11685SOL     OW37433   6.766   3.349   7.974  0.3349 -0.8690  0.1906
11685SOL    HW137434   6.700   3.349   7.905 -0.2557 -1.0249  0.7511
11685SOL    HW237435   6.742   3.422   8.031  0.7139 -0.8481  0.3282
11686SOL     OW37436   1.099   3.028   3.471 -0.1373 -0.0751 -0.0984
11686SOL    HW137437   1.107   3.119   3.440 -1.1466  0.0852  0.0706
11686SOL    HW237438   1.005   3.011   3.471  0.0757 -1.4109 -0.8997
11687SOL     OW37439   8.363  10.326   7.193 -0.1955  0.0709 -0.2734
11687SOL    HW137440   8.298  10.268   7.154 -0.8632 -1.0913  2.3628
11687SOL    HW237441   8.317  10.409   7.204 -0.6113 -0.1533 -0.2827
11688SOL     OW37442   7.019   1.375   3.930  0.3025  0.5956  0.2015
11688SOL    HW137443   7.010   1.325   4.012  1.2422 -0.4437 -0.3043
11688SOL    HW237444   7.070   1.452   3.955  0.0363  0.6120  0.7137
11689SOL     OW37445   0.197  10.736   3.428  0.0498 -0.1253  0.8449
11689SOL    HW137446   0.154  10.787   3.497 -0.1297 -0.1605  0.7604
11689SOL    HW237447   0.275  10.787   3.407 -0.3095  0.3009  0.5128
11690SOL     OW37448   3.726   4.271   4.848  0.2084 -0.1214 -0.1817
11690SOL    HW137449   3.650   4.224   4.815  0.9517 -1.2106 -0.4018
11690SOL    HW237450   3.690   4.341   4.902 -0.9349 -0.6655 -0.2180
11691SOL     OW37451   2.788   3.134   2.407  0.1526 -0.3139  0.4266
11691SOL    HW137452   2.761   3.219   2.443 -1.1820 -1.0002  1.1415
11691SOL    HW237453   2.730   3.071   2.450 -1.0393 -1.2768 -2.3788
11692SOL     OW37454  10.714   0.504   8.059 -0.2588 -0.2190 -0.0287
11692SOL    HW137455  10.653   0.526   8.130  0.5576 -1.2693  1.0411
11692SOL    HW237456  10.670   0.436   8.009 -0.6145  0.1480 -0.2224
11693SOL     OW37457   5.062   7.069   7.515  0.3316  0.0609 -0.0866
11693SOL    HW137458   5.078   7.082   7.422 -2.2603  0.5467 -0.5361
11693SOL    HW237459   5.078   7.154   7.555 -0.4046  0.3582 -0.4097
11694SOL     OW37460   8.586   4.952   6.802 -0.2435  0.6258  0.4874
11694SOL    HW137461   8.601   5.011   6.728  0.4561 -0.8752 -0.6293
11694SOL    HW237462   8.673   4.939   6.840  0.0112 -1.2663 -0.5888
11695SOL     OW37463   6.009   0.313   6.643  0.2316 -0.3914 -0.3311
11695SOL    HW137464   6.048   0.258   6.575  0.8194  0.0393 -0.3523
11695SOL    HW237465   6.082   0.332   6.702 -0.0781 -0.0298 -0.0675
11696SOL     OW37466   6.645   1.860   6.216 -0.0136 -0.6756 -0.1470
11696SOL    HW137467   6.649   1.765   6.216  0.8535 -0.7605  2.9711
11696SOL    HW237468   6.612   1.883   6.303  1.2995  1.8717 -0.1938
11697SOL     OW37469   0.391   2.969   0.446  0.2491  0.5471  0.5757
11697SOL    HW137470   0.315   2.960   0.387 -0.1576  1.0603  1.0178
11697SOL    HW237471   0.358   2.942   0.531  0.2856  1.7093  0.9737
11698SOL     OW37472   3.478   8.604   9.078 -0.0636  0.1484 -0.5309
11698SOL    HW137473   3.560   8.617   9.031 -0.3332 -0.6579 -1.2475
11698SOL    HW237474   3.434   8.533   9.031 -0.2897 -0.7783  1.0090
11699SOL     OW37475   2.878   0.058   7.633 -0.0683  0.5261  0.2217
11699SOL    HW137476   2.932   0.039   7.556  1.6104  0.8405  1.2611
11699SOL    HW237477   2.827  -0.021   7.648  0.3803  0.0762 -0.5796
11700SOL     OW37478   6.129   4.455   9.843 -0.7367  0.8643  0.2372
11700SOL    HW137479   6.223   4.470   9.849 -0.6929  0.2746  1.2756
11700SOL    HW237480   6.111   4.452   9.749  0.2657  1.0445  0.0260
11701SOL     OW37481   7.020   3.631   8.722  0.3399  0.4451 -0.6976
11701SOL    HW137482   7.043   3.566   8.789 -0.5112 -1.1136 -1.8424
11701SOL    HW237483   7.102   3.643   8.673  0.6100  0.5530 -0.2315
11702SOL     OW37484   1.651   4.979   4.916  1.1255  0.3027 -0.3738
11702SOL    HW137485   1.642   5.072   4.934  1.6471  0.2835 -0.0241
11702SOL    HW237486   1.738   4.955   4.947  0.5602 -0.5530  0.6337
11703SOL     OW37487   2.652   1.348   0.257 -0.0821 -0.0430 -0.3709
11703SOL    HW137488   2.684   1.393   0.335  1.0331 -0.9842 -0.2669
11703SOL    HW237489   2.564   1.384   0.243  0.3161  1.2858  0.3884
11704SOL     OW37490  10.368   7.324   4.024 -0.7236  0.0600 -0.1247
11704SOL    HW137491  10.440   7.362   3.975 -1.2898  0.3402 -0.7394
11704SOL    HW237492  10.323   7.268   3.962 -1.1187 -0.0140  0.2216
11705SOL     OW37493   5.014  10.290   2.094 -0.3655  0.3266 -0.0026
11705SOL    HW137494   4.925  10.292   2.129 -0.1601  1.1527  0.5123
11705SOL    HW237495   5.066  10.336   2.160  0.8981 -2.1942  0.8814
11706SOL     OW37496   4.337   5.468  10.115 -0.0841 -0.2003 -0.2078
11706SOL    HW137497   4.334   5.549  10.065  6.2717  0.6788  0.0995
11706SOL    HW237498   4.383   5.406  10.059 -1.4220 -2.4974  1.0442
11707SOL     OW37499   4.007   2.461   8.217 -0.0082 -0.0704  0.8097
11707SOL    HW137500   4.044   2.459   8.305  0.8810  1.5599  0.5229
11707SOL    HW237501   4.023   2.551   8.187  0.9552 -0.9456 -1.5163
11708SOL     OW37502   7.920   7.131   5.378  0.7134  0.1174 -0.0107
11708SOL    HW137503   7.827   7.141   5.400  0.5854 -0.2973 -0.3612
11708SOL    HW237504   7.925   7.154   5.285  0.6992 -1.3938 -0.4002
11709SOL     OW37505   9.112   5.181   0.802 -0.0839  0.0789 -0.0462
11709SOL    HW137506   9.030   5.132   0.797  1.2496 -2.4687  0.9041
11709SOL    HW237507   9.120   5.223   0.716 -2.3583  0.4164 -0.1431
11710SOL     OW37508   1.218   7.734   9.437  0.1814 -0.5565  0.3472
11710SOL    HW137509   1.153   7.675   9.397 -0.1923 -0.3972  0.7141
11710SOL    HW237510   1.233   7.801   9.370  0.2596 -0.8117  0.1080
11711SOL     OW37511   2.016   5.056  10.276  0.0416 -0.2991 -0.2101
11711SOL    HW137512   1.969   4.973  10.267  1.3915 -1.0194 -1.1292
11711SOL    HW237513   2.035   5.081  10.185  0.9431  0.2305  0.1183
11712SOL     OW37514   2.761   7.059   3.581  0.3579  0.0709 -0.3790
11712SOL    HW137515   2.669   7.033   3.579 -0.4575  2.5160  0.8379
11712SOL    HW237516   2.792   7.031   3.667  0.0723  1.1812  0.1030
11713SOL     OW37517   4.709   0.757   5.587  0.3597  0.0353  0.1215
11713SOL    HW137518   4.743   0.838   5.549  0.5016 -0.5743 -1.1178
11713SOL    HW237519   4.727   0.691   5.521 -1.1809 -0.7250  0.4244
11714SOL     OW37520   8.066   7.393   1.539 -0.0423  0.0938 -0.0261
11714SOL    HW137521   7.982   7.368   1.577 -0.7886 -0.0119 -1.6376
11714SOL    HW237522   8.104   7.454   1.602 -1.2094 -0.0384  0.8398
11715SOL     OW37523  10.411   4.201   3.656  0.0829 -0.1081  0.0948
11715SOL    HW137524  10.338   4.263   3.665  1.0931  1.1673 -0.1461
11715SOL    HW237525  10.488   4.253   3.677  0.8625 -1.6737  1.3041
11716SOL     OW37526   3.059  10.191   3.120 -0.1746  0.0630 -0.3512
11716SOL    HW137527   3.130  10.170   3.059 -1.5974  0.8598 -2.3958
11716SOL    HW237528   3.015  10.107   3.135  1.0001 -0.3876  0.7361
11717SOL     OW37529   8.019   0.420   2.490  0.2460 -0.3257  0.6456
11717SOL    HW137530   8.104   0.404   2.451  0.1030 -0.7024  0.4851
11717SOL    HW237531   7.975   0.480   2.430  0.5991  0.3131  1.0046
11718SOL     OW37532   1.727   7.452   7.415  0.1573  0.0583  0.0202
11718SOL    HW137533   1.816   7.420   7.432  0.6259  1.3852  0.2502
11718SOL    HW237534   1.738   7.514   7.343 -0.5774  0.2516  0.0720
11719SOL     OW37535   8.386   9.494   4.062 -0.4986  0.0774  0.0254
11719SOL    HW137536   8.322   9.430   4.030 -0.0308 -0.0456 -0.6855
11719SOL    HW237537   8.461   9.442   4.090 -0.3079  0.2822 -0.0955
11720SOL     OW37538   8.683   4.382   3.214  0.3213  0.3687  0.0571
11720SOL    HW137539   8.614   4.315   3.207 -1.7625  2.5189 -1.9828
11720SOL    HW237540   8.639   4.456   3.256  1.8262  1.3115  0.0172
11721SOL     OW37541   3.427   2.152   8.767 -0.7050 -0.1117  0.0207
11721SOL    HW137542   3.492   2.171   8.835 -0.6996  1.0344 -0.2831
11721SOL    HW237543   3.479   2.142   8.687 -0.8878  0.8479 -0.2305
11722SOL     OW37544   5.900   7.931   3.079  0.3146  0.0841 -0.9396
11722SOL    HW137545   5.910   7.850   3.128  1.5050  1.2352  0.8760
11722SOL    HW237546   5.965   7.926   3.010 -0.5215 -1.0342 -1.6748
11723SOL     OW37547   9.191   2.913   8.643  0.6845  0.0762  0.0412
11723SOL    HW137548   9.181   3.006   8.659  1.3420 -0.1807  2.3749
11723SOL    HW237549   9.282   2.894   8.666  1.1414 -0.8390 -2.2585
11724SOL     OW37550   9.851   5.724   7.963  0.2817 -0.0751 -0.1830
11724SOL    HW137551   9.779   5.663   7.977 -0.5309  0.7527 -0.6611
11724SOL    HW237552   9.819   5.783   7.895  2.0905 -0.7706 -1.7251
11725SOL     OW37553   3.771   2.895   6.535  0.0962 -0.2966  0.0269
11725SOL    HW137554   3.804   2.899   6.624  1.0291 -0.0830 -0.3167
11725SOL    HW237555   3.806   2.973   6.492 -0.1153 -0.5389 -0.6029
11726SOL     OW37556   6.202   3.420   0.384  0.2479  0.9369 -0.5088
11726SOL    HW137557   6.236   3.363   0.315  1.6368 -0.0356  0.9022
11726SOL    HW237558   6.273   3.481   0.401 -0.5530  1.9556 -0.7518
11727SOL     OW37559   4.405   3.891   3.075  0.1321 -0.2447 -0.1137
11727SOL    HW137560   4.446   3.931   2.998 -0.2712 -1.0025 -0.7442
11727SOL    HW237561   4.311   3.891   3.054  0.1496 -1.8633 -0.3309
11728SOL     OW37562   1.596   5.248   5.551  0.3748 -0.0556  0.1954
11728SOL    HW137563   1.558   5.308   5.615  1.6985 -0.9509  1.8746
11728SOL    HW237564   1.690   5.255   5.562  0.6492 -0.3449 -1.5836
11729SOL     OW37565   5.789   2.623   2.476 -0.5189  0.0746  0.3863
11729SOL    HW137566   5.832   2.545   2.442 -1.7238 -0.2550 -0.4268
11729SOL    HW237567   5.832   2.640   2.560  0.6115 -0.7162 -0.0209
11730SOL     OW37568   8.544   1.763   2.271 -0.4925 -0.5455  0.1258
11730SOL    HW137569   8.555   1.677   2.232  0.4046  0.1442 -1.2204
11730SOL    HW237570   8.549   1.748   2.365 -0.8718 -2.0194 -0.0707
11731SOL     OW37571   0.880   9.968   7.451 -0.6494 -0.0776 -0.1277
11731SOL    HW137572   0.859   9.980   7.544  0.8026  0.2198  0.1875
11731SOL    HW237573   0.931   9.887   7.449 -0.5713 -0.0152 -0.6575
11732SOL     OW37574   7.328   9.551   9.800 -0.2275 -0.2665 -0.1400
11732SOL    HW137575   7.336   9.509   9.714 -0.9265 -0.3709 -0.1627
11732SOL    HW237576   7.247   9.515   9.836 -1.3256  1.6890 -0.5164
11733SOL     OW37577   3.655   0.631   4.643 -0.4281 -0.0453  0.4711
11733SOL    HW137578   3.566   0.654   4.666 -0.6199  0.5216 -0.7835
11733SOL    HW237579   3.710   0.687   4.698 -0.8086 -0.7727  1.6364
11734SOL     OW37580   8.138   3.962   4.550  0.1972 -0.3609 -0.0475
11734SOL    HW137581   8.201   3.896   4.520 -0.2210  0.2179 -2.3900
11734SOL    HW237582   8.168   3.986   4.637  1.7539 -1.8946 -0.1086
11735SOL     OW37583   4.036   8.891   2.018 -1.0386  0.1460  0.3421
11735SOL    HW137584   3.982   8.822   1.979 -1.1988  0.7631 -0.5623
11735SOL    HW237585   4.041   8.958   1.951 -0.7619  0.9609  1.1574
11736SOL     OW37586   7.975   9.103   2.132 -0.0246  0.1829 -0.3595
11736SOL    HW137587   7.953   9.188   2.092 -0.3827  0.0518 -0.4387
11736SOL    HW237588   8.053   9.122   2.184 -0.8995  0.8912  0.7471
11737SOL     OW37589  10.149   7.217   7.647  0.3102  0.4534  0.3485
11737SOL    HW137590  10.187   7.144   7.696  1.0405  1.1979  0.9200
11737SOL    HW237591  10.056   7.217   7.672  0.5634  0.4839  1.3380
11738SOL     OW37592   9.739   6.316   0.739 -0.0611  0.3735 -0.1085
11738SOL    HW137593   9.831   6.334   0.756  0.4912 -0.0569 -2.3039
11738SOL    HW237594   9.722   6.232   0.781  0.9437 -0.1962 -0.8076
11739SOL     OW37595   4.216   7.716   0.204 -0.0829 -0.9948 -0.0587
11739SOL    HW137596   4.297   7.666   0.211  0.8029  0.4200  0.1845
11739SOL    HW237597   4.208   7.761   0.288 -0.2956  0.0737 -0.6424
11740SOL     OW37598   6.259   0.104   4.921 -0.0392 -0.1946 -0.3571
11740SOL    HW137599   6.299   0.173   4.973  0.0414  0.3905 -1.1755
11740SOL    HW237600   6.166   0.125   4.919  0.1417  0.5951 -1.6071
11741SOL     OW37601   1.495   5.761   5.250  0.0535  0.0779 -0.8170
11741SOL    HW137602   1.469   5.853   5.240  0.7669  0.5257  1.0925
11741SOL    HW237603   1.590   5.765   5.261  0.2036 -0.9961 -1.5757
11742SOL     OW37604   4.458   5.142   1.843  0.4811 -0.3093  0.7472
11742SOL    HW137605   4.403   5.219   1.858  1.9611  1.1350 -0.8645
11742SOL    HW237606   4.535   5.158   1.898  0.5338 -0.9448  0.8588
11743SOL     OW37607   5.088   1.314   1.885 -0.1168 -0.5288 -0.4513
11743SOL    HW137608   5.119   1.285   1.971 -3.1509  0.2571  1.0420
11743SOL    HW237609   5.152   1.379   1.857  0.1277  0.3816  1.9942
11744SOL     OW37610   3.220   3.162   2.180  0.0069 -0.2361 -0.5914
11744SOL    HW137611   3.256   3.248   2.159 -0.7752  0.5619  1.1077
11744SOL    HW237612   3.150   3.149   2.116 -2.1033  1.9731  1.0693
11745SOL     OW37613   2.974   1.571   8.206  0.1045 -0.4768  0.2876
11745SOL    HW137614   3.001   1.479   8.215 -0.3081 -0.7192 -0.8032
11745SOL    HW237615   2.897   1.579   8.261 -0.2944 -0.9907 -0.1808
11746SOL     OW37616   5.378   5.681   8.062  0.6404 -0.6179 -0.1771
11746SOL    HW137617   5.394   5.587   8.073  1.7644 -0.1867  2.8433
11746SOL    HW237618   5.465   5.720   8.061  0.1592  0.4967 -0.2691
11747SOL     OW37619   9.190   6.329   5.072  0.0848  0.2559 -0.1774
11747SOL    HW137620   9.258   6.358   5.133 -1.0846  2.5089  0.1790
11747SOL    HW237621   9.187   6.234   5.082  4.2541 -0.1844 -1.4297
11748SOL     OW37622   6.337   1.829   6.047 -0.3568 -0.1594  0.5990
11748SOL    HW137623   6.337   1.737   6.070 -0.1695  0.3373  2.7674
11748SOL    HW237624   6.297   1.873   6.121  1.4917  1.7030  0.6066
11749SOL     OW37625   9.584   2.412   1.737 -0.5801  0.0721 -0.0384
11749SOL    HW137626   9.494   2.382   1.724 -0.5034  0.3537 -1.3621
11749SOL    HW237627   9.633   2.375   1.663 -0.1868  2.1846 -0.9271
11750SOL     OW37628   8.471   9.987   3.870  0.3355 -0.5889  0.7284
11750SOL    HW137629   8.430  10.072   3.854  1.3254 -0.2146  0.0589
11750SOL    HW237630   8.488   9.951   3.783 -0.3612 -1.6375  1.0052
11751SOL     OW37631   3.881   9.761   4.127  0.1777 -0.1289 -0.2278
11751SOL    HW137632   3.916   9.723   4.208 -0.1284 -1.3811 -0.6751
11751SOL    HW237633   3.957   9.767   4.069  0.1033 -0.6507 -0.3788
11752SOL     OW37634   4.901   3.653   4.694 -0.2498  0.0446  0.0297
11752SOL    HW137635   4.830   3.717   4.702  0.3728  0.6962  0.5026
11752SOL    HW237636   4.909   3.638   4.600 -0.2518  0.8522 -0.1086
11753SOL     OW37637   8.314   8.146  10.517 -0.4005  0.3780 -0.2523
11753SOL    HW137638   8.220   8.153  10.503 -0.3751 -0.9515 -1.2783
11753SOL    HW237639   8.345   8.087  10.447  0.7088 -1.6991  1.8349
11754SOL     OW37640  10.612   8.373   2.881 -1.1540  0.1753 -0.3261
11754SOL    HW137641  10.640   8.320   2.806 -1.5777 -1.3485  0.5524
11754SOL    HW237642  10.694   8.402   2.922 -0.8287 -1.6771  0.4429
11755SOL     OW37643   3.521   7.216   8.692 -0.4526 -0.0707 -0.1164
11755SOL    HW137644   3.549   7.247   8.606 -0.3984 -0.3051 -0.1868
11755SOL    HW237645   3.468   7.287   8.728 -1.1403 -0.2868 -0.6742
11756SOL     OW37646   4.477   4.079   1.680  0.8772  0.0994  0.0555
11756SOL    HW137647   4.382   4.076   1.671  0.9371 -1.3161 -0.4235
11756SOL    HW237648   4.500   4.171   1.668 -0.3936  0.4110 -0.1223
11757SOL     OW37649   8.574   5.415   2.339 -0.6899 -0.0159  0.7259
11757SOL    HW137650   8.602   5.504   2.320 -1.2067 -0.3433 -1.9686
11757SOL    HW237651   8.479   5.422   2.353 -0.7797 -0.1582  0.2176
11758SOL     OW37652   7.076   0.468   4.443 -0.4191 -0.4493 -0.2488
11758SOL    HW137653   7.096   0.549   4.395 -0.1988 -1.2239 -1.5146
11758SOL    HW237654   7.147   0.460   4.507 -0.7732  0.6638  0.3051
11759SOL     OW37655   8.089   1.866   2.229 -0.0200  0.2643 -0.0091
11759SOL    HW137656   8.020   1.834   2.287  0.5870 -1.1265 -0.0129
11759SOL    HW237657   8.091   1.960   2.244 -0.7192  0.0976  1.3087
11760SOL     OW37658   1.789  10.341   2.741  0.3081  0.0251 -0.0727
11760SOL    HW137659   1.755  10.351   2.830 -0.5868  1.2052 -0.5245
11760SOL    HW237660   1.805  10.430   2.711  1.2694 -0.3927 -0.8565
11761SOL     OW37661   0.530   7.184   6.276 -0.1740  0.6778 -0.0231
11761SOL    HW137662   0.592   7.162   6.346  0.2053  0.9968 -0.2496
11761SOL    HW237663   0.488   7.101   6.254  1.2014  0.1608 -0.8414
11762SOL     OW37664   4.410   1.160   6.475 -0.6796  0.3272 -0.0387
11762SOL    HW137665   4.443   1.211   6.548  0.6904  1.5695 -1.4454
11762SOL    HW237666   4.447   1.072   6.488 -0.6413  0.4660  0.8555
11763SOL     OW37667   6.034   9.738   8.558 -0.3085  0.1614  0.1815
11763SOL    HW137668   5.979   9.661   8.572  2.2298 -1.9882 -0.7808
11763SOL    HW237669   5.982   9.796   8.504 -2.8187 -0.2151  2.0383
11764SOL     OW37670   0.789   3.402   8.088 -0.0446  0.2401  0.5282
11764SOL    HW137671   0.850   3.469   8.056  0.2564  0.6358  1.8550
11764SOL    HW237672   0.718   3.452   8.129 -1.0319 -0.2298 -0.5362
11765SOL     OW37673   3.958   7.449   2.213 -0.4832 -0.1373 -0.7999
11765SOL    HW137674   4.029   7.406   2.261 -1.7911 -0.9710  0.4773
11765SOL    HW237675   3.977   7.542   2.219 -0.4512 -0.2414  1.1275
11766SOL     OW37676   3.494   8.464   4.330  0.2448  0.6734 -0.1143
11766SOL    HW137677   3.505   8.546   4.377  0.9328 -0.3954  1.6992
11766SOL    HW237678   3.400   8.458   4.313 -0.0502  1.0801  1.2253
11767SOL     OW37679  10.122   9.889  10.324  0.0406 -0.5832  0.2421
11767SOL    HW137680  10.047   9.890  10.384  0.8942  0.0444  1.3458
11767SOL    HW237681  10.140   9.982  10.308  1.9361 -0.6185  1.7905
11768SOL     OW37682   3.910   9.093   4.539 -0.5529  0.0530 -0.3469
11768SOL    HW137683   3.931   9.000   4.530 -0.2582  0.1496 -0.6822
11768SOL    HW237684   3.824   9.103   4.497 -0.6732 -0.1057 -0.1354
11769SOL     OW37685   5.111   2.670   4.599  0.2783  0.4704 -0.6295
11769SOL    HW137686   5.056   2.609   4.649  0.2917  0.9616 -0.0082
11769SOL    HW237687   5.069   2.676   4.514 -0.9471  1.2635  0.0089
11770SOL     OW37688   1.761   3.985   5.086  0.1253  0.1263 -0.1347
11770SOL    HW137689   1.699   4.000   5.015 -0.8519  1.7538  0.9819
11770SOL    HW237690   1.716   3.924   5.145  0.7234 -0.8175 -0.6300
11771SOL     OW37691   7.846   1.696   6.782  0.6534 -0.2095 -0.5486
11771SOL    HW137692   7.897   1.765   6.825  0.4999 -0.2608 -0.2804
11771SOL    HW237693   7.865   1.707   6.689  0.7803  0.0750 -0.4923
11772SOL     OW37694   4.403   6.673  10.302 -0.1191  0.3070  0.6034
11772SOL    HW137695   4.447   6.755  10.326  2.4382 -0.9447  0.4489
11772SOL    HW237696   4.340   6.699  10.235  0.7334  2.1377  0.4346
11773SOL     OW37697   7.417   6.133   9.149  0.2310 -0.1458  0.2347
11773SOL    HW137698   7.484   6.180   9.200  0.3060 -0.6790  0.6344
11773SOL    HW237699   7.398   6.055   9.201 -0.6421 -0.0416  0.0784
11774SOL     OW37700   3.234   0.084   8.844  0.4538 -0.3401 -0.2706
11774SOL    HW137701   3.254   0.046   8.929 -3.3600  0.5733  1.2506
11774SOL    HW237702   3.238   0.010   8.783 -0.7159 -1.9330  1.4783
11775SOL     OW37703   3.835   7.223   6.237  0.2631 -0.4076 -0.2859
11775SOL    HW137704   3.792   7.294   6.189 -0.0357  0.7916  1.6597
11775SOL    HW237705   3.902   7.266   6.290  1.2985 -1.8151 -0.3841
11776SOL     OW37706   4.302  10.447   4.806 -0.2040  0.2722  0.3258
11776SOL    HW137707   4.295  10.370   4.749 -0.1389  1.2066 -0.9868
11776SOL    HW237708   4.394  10.449   4.832  0.0406  0.4961 -0.5206
11777SOL     OW37709   3.243   9.059   5.185 -0.3637 -0.1726 -0.1125
11777SOL    HW137710   3.304   9.026   5.119 -1.2142  0.2857 -1.1584
11777SOL    HW237711   3.160   9.070   5.138 -0.5180  1.9461  0.5609
11778SOL     OW37712   7.097   8.873   8.022  0.0594  0.0486 -0.5118
11778SOL    HW137713   7.151   8.864   7.944  0.3094 -0.6492 -0.2684
11778SOL    HW237714   7.160   8.880   8.094 -0.1601 -0.7249 -0.2317
11779SOL     OW37715  10.354   3.341   7.796 -0.0552  0.4595 -0.0744
11779SOL    HW137716  10.279   3.282   7.803  0.3709 -0.4016 -2.0918
11779SOL    HW237717  10.425   3.294   7.841  0.4533 -0.9575 -2.2228
11780SOL     OW37718   3.113   8.403   8.496 -0.0603  0.6081 -0.0118
11780SOL    HW137719   3.068   8.439   8.420 -0.5851  1.1998  0.5713
11780SOL    HW237720   3.094   8.309   8.494  0.3459  0.5384 -0.8867
11781SOL     OW37721   2.913   2.535   8.770  0.0254 -0.1588 -0.5752
11781SOL    HW137722   2.998   2.492   8.771  1.5533  2.6363  0.0501
11781SOL    HW237723   2.914   2.588   8.690  0.4465  2.5774  1.0972
11782SOL     OW37724   9.153   0.718   8.929  0.3819 -0.1174 -0.0889
11782SOL    HW137725   9.102   0.798   8.913 -2.5812 -1.6769  0.7504
11782SOL    HW237726   9.213   0.712   8.855  0.4662  2.6870 -0.3344
11783SOL     OW37727   9.930   7.912   5.358 -0.1608 -0.3839 -0.3174
11783SOL    HW137728  10.009   7.867   5.389 -0.5634 -0.8548  0.0465
11783SOL    HW237729   9.928   7.994   5.407 -0.2398 -0.6594  0.1370
11784SOL     OW37730   7.374   7.924   1.758 -0.5048  0.5060 -0.8553
11784SOL    HW137731   7.409   7.908   1.670  1.0874  0.8821 -0.3270
11784SOL    HW237732   7.296   7.978   1.743 -0.0963  0.8097 -2.0281
11785SOL     OW37733   2.229   9.732   4.501  0.2623  0.5693  0.0148
11785SOL    HW137734   2.290   9.782   4.447  0.2850  0.2318 -0.2741
11785SOL    HW237735   2.280   9.657   4.532  0.1011  0.4892  0.0878
11786SOL     OW37736  10.791   0.455   6.788  0.0691 -0.5008  0.4583
11786SOL    HW137737  10.865   0.396   6.776 -0.4416 -1.1202  0.2331
11786SOL    HW237738  10.788   0.472   6.882  1.6341  1.0791  0.2702
11787SOL     OW37739   2.861   7.312   6.218 -0.1356 -0.2042  0.4313
11787SOL    HW137740   2.906   7.285   6.298  1.4015 -0.6986 -0.5491
11787SOL    HW237741   2.902   7.259   6.149 -0.5252  1.1201 -0.8517
11788SOL     OW37742   9.979  10.053   0.551 -0.2805  0.7771  0.1980
11788SOL    HW137743  10.007  10.143   0.567 -2.7907  1.5961  0.4475
11788SOL    HW237744   9.896  10.061   0.505 -1.3377 -1.3537  1.5341
11789SOL     OW37745  10.445   5.718   8.367  0.0731  0.4597 -0.1325
11789SOL    HW137746  10.402   5.725   8.283 -0.6697  0.9952  0.2801
11789SOL    HW237747  10.440   5.625   8.390  2.4526 -0.1606 -1.7684
11790SOL     OW37748   5.163   0.570   4.738  0.1856  0.1133  0.3222
11790SOL    HW137749   5.101   0.519   4.790 -2.5230  1.5458 -1.2945
11790SOL    HW237750   5.146   0.661   4.762  1.6220  0.5746 -0.2556
11791SOL     OW37751   8.343   7.416   9.087 -0.4899  0.0837  0.2519
11791SOL    HW137752   8.404   7.479   9.049 -0.9028  0.0707 -0.4568
11791SOL    HW237753   8.363   7.416   9.181  0.7926 -0.1368 -0.0048
11792SOL     OW37754   7.658   7.222   5.369  0.0982  0.1183 -0.0935
11792SOL    HW137755   7.565   7.243   5.378  0.4760  0.8644  3.0496
11792SOL    HW237756   7.699   7.306   5.347  0.1487 -0.0301 -0.5781
11793SOL     OW37757   8.233   5.260  10.703 -0.0222  0.2629  0.4268
11793SOL    HW137758   8.259   5.272  10.794 -0.7284 -0.7924  0.7884
11793SOL    HW237759   8.299   5.200  10.667 -0.0924  0.1868  0.4238
11794SOL     OW37760   2.272   4.956   2.624  0.2036  0.3134 -0.6987
11794SOL    HW137761   2.243   5.003   2.546  0.3261  1.0994 -0.2891
11794SOL    HW237762   2.348   5.005   2.655 -1.1667  1.4006  1.1741
11795SOL     OW37763   1.563   0.203   5.193 -0.8069  0.2321 -0.2601
11795SOL    HW137764   1.530   0.161   5.113  3.3897 -0.2355 -2.0460
11795SOL    HW237765   1.652   0.167   5.203 -0.7410  1.0520  4.1344
11796SOL     OW37766   6.120   2.155   6.561 -0.1597 -0.4885  0.5399
11796SOL    HW137767   6.091   2.189   6.476  2.2031 -2.0622 -1.0048
11796SOL    HW237768   6.163   2.230   6.603 -0.4348  0.0234 -0.0731
11797SOL     OW37769   0.275   3.272   7.680 -0.3132 -0.0169 -0.3085
11797SOL    HW137770   0.351   3.285   7.736 -0.7727  1.1635  0.0658
11797SOL    HW237771   0.289   3.332   7.606 -0.1673 -0.8779 -0.9932
11798SOL     OW37772   5.243   9.952   1.858  0.0146 -0.4507 -0.1459
11798SOL    HW137773   5.193   9.929   1.779 -2.3192  0.9418  0.8180
11798SOL    HW237774   5.214  10.040   1.879  3.2091  0.5873  0.3604
11799SOL     OW37775   4.892   7.128   4.447  0.2510  0.0705 -0.0959
11799SOL    HW137776   4.912   7.221   4.439 -0.0139  0.0959 -0.5280
11799SOL    HW237777   4.921   7.090   4.364 -2.3702  0.2852 -1.2068
11800SOL     OW37778   2.193   9.286   2.012 -0.3322 -0.3786  0.0345
11800SOL    HW137779   2.245   9.357   2.049 -0.4987 -1.1238  1.7479
11800SOL    HW237780   2.131   9.330   1.953  1.1440  0.6571 -0.8105
11801SOL     OW37781   7.360   2.535   5.888  0.0944 -0.5797  0.6344
11801SOL    HW137782   7.374   2.458   5.944  4.6449  0.4923  1.2948
11801SOL    HW237783   7.429   2.530   5.822 -1.2866  1.4875 -1.1043
11802SOL     OW37784   7.167   8.523   8.146 -0.2757 -0.6194  0.5154
11802SOL    HW137785   7.185   8.429   8.148  0.3009 -0.5034  1.1069
11802SOL    HW237786   7.188   8.550   8.057  3.4362 -0.3436  1.3354
11803SOL     OW37787   7.589   8.385   8.158  0.6067 -0.1579 -0.1418
11803SOL    HW137788   7.573   8.305   8.108  2.3827  0.5358 -1.9574
11803SOL    HW237789   7.684   8.393   8.161  0.4860  1.4418  0.7624
11804SOL     OW37790   1.074   7.245   4.085  0.2094 -0.0681  0.0353
11804SOL    HW137791   1.117   7.326   4.110  0.8903 -0.9210  1.8247
11804SOL    HW237792   1.092   7.185   4.157  0.0977 -1.9499 -1.4094
11805SOL     OW37793   3.912   5.942   8.611 -0.0298 -0.0716 -0.0903
11805SOL    HW137794   3.836   5.997   8.591  0.3087 -0.3420 -2.3650
11805SOL    HW237795   3.986   6.002   8.609  0.0801 -0.2134 -0.2266
11806SOL     OW37796   2.948   4.302   0.178 -0.0628 -0.5640  0.4263
11806SOL    HW137797   2.983   4.363   0.243  2.0852 -0.8463 -0.3909
11806SOL    HW237798   2.984   4.332   0.095 -1.9038 -0.8441 -0.5295
11807SOL     OW37799   5.962   1.631   4.909  0.8245 -0.0916 -0.0201
11807SOL    HW137800   5.887   1.672   4.866  1.7930  1.2829 -0.4399
11807SOL    HW237801   6.035   1.689   4.891  1.6542 -0.4562  1.9218
11808SOL     OW37802   5.032   6.405   1.807  0.0877 -0.5927  0.4637
11808SOL    HW137803   4.965   6.345   1.841 -1.2235  0.2098 -0.6103
11808SOL    HW237804   5.018   6.405   1.713  0.5979  0.7778  0.3755
11809SOL     OW37805   5.359   3.094   9.008  0.2481 -0.4819 -0.4799
11809SOL    HW137806   5.313   3.128   8.931  0.1647 -0.1868 -0.3042
11809SOL    HW237807   5.289   3.063   9.065  0.3534 -1.4669 -0.8771
11810SOL     OW37808   5.129   1.854   3.561  0.6386  0.3040 -0.0952
11810SOL    HW137809   5.103   1.878   3.650  0.2553 -1.2598  0.2419
11810SOL    HW237810   5.047   1.849   3.513  0.7762  0.3447 -0.3348
11811SOL     OW37811   9.009   4.928   9.362  0.5006  0.0128  0.1818
11811SOL    HW137812   9.052   4.991   9.421 -1.1090  0.9249  0.4444
11811SOL    HW237813   9.011   4.845   9.409  2.0652 -0.0215  0.1188
11812SOL     OW37814  10.436   5.224   1.487 -0.2297 -0.4773  0.0440
11812SOL    HW137815  10.343   5.245   1.478 -0.0489  0.3413 -0.0255
11812SOL    HW237816  10.481   5.306   1.466  0.4906 -0.7505  0.4817
11813SOL     OW37817   2.532   0.075   3.134 -0.0631  0.3767  0.2620
11813SOL    HW137818   2.624   0.061   3.157 -0.1472 -0.1879  0.2495
11813SOL    HW237819   2.511   0.005   3.072 -0.0697  1.3923 -0.9343
11814SOL     OW37820   5.756   2.101   5.570  0.5451  0.0396  0.4021
11814SOL    HW137821   5.680   2.138   5.615  1.4032  1.4739  0.7497
11814SOL    HW237822   5.737   2.008   5.563 -0.7227  0.1842  1.5170
11815SOL     OW37823   8.910   1.247  10.202  0.4850  0.5819 -0.2902
11815SOL    HW137824   8.830   1.203  10.229  0.8987  0.2080  0.3426
11815SOL    HW237825   8.980   1.184  10.219  1.2100  1.7838  1.5506
11816SOL     OW37826   3.066   1.965   1.865  0.1463 -0.4158 -0.6468
11816SOL    HW137827   3.133   2.033   1.857 -1.2829  1.0555 -0.6398
11816SOL    HW237828   3.072   1.915   1.784  0.1770  0.7345 -1.3725
11817SOL     OW37829   1.047   6.879   1.395  0.0125  0.6266 -0.6969
11817SOL    HW137830   1.081   6.937   1.463 -1.0739  0.8884 -0.3580
11817SOL    HW237831   1.102   6.801   1.401  1.1693  1.4063 -0.8243
11818SOL     OW37832   4.069   7.125   0.730  0.4436  0.8224 -0.3825
11818SOL    HW137833   4.005   7.059   0.757 -0.1169  1.5846  0.2419
11818SOL    HW237834   4.136   7.077   0.681 -0.1454 -0.1323 -0.2652
11819SOL     OW37835   3.461   4.411  10.491 -0.1094 -0.3244  0.2731
11819SOL    HW137836   3.420   4.329  10.465 -2.1930  0.8474 -0.3665
11819SOL    HW237837   3.430   4.475  10.427  0.0553  1.2990  1.7358
11820SOL     OW37838   9.315   1.602   8.437 -0.2865 -0.1443  0.1385
11820SOL    HW137839   9.243   1.540   8.435  0.4354 -0.9776 -0.5879
11820SOL    HW237840   9.349   1.596   8.526  0.8945 -2.1415 -0.3852
11821SOL     OW37841   4.176   5.899   2.011  0.1940  0.7727  0.0847
11821SOL    HW137842   4.153   5.923   1.921 -1.2972  0.4952  0.3573
11821SOL    HW237843   4.162   5.805   2.016  1.4937  0.5752  0.2816
11822SOL     OW37844   2.497   6.731   5.956 -0.1502  0.7548  0.4416
11822SOL    HW137845   2.447   6.773   6.025 -2.0256 -0.4559 -0.0978
11822SOL    HW237846   2.435   6.721   5.884  1.2348  0.3291 -0.7355
11823SOL     OW37847   4.054  10.271   9.993 -0.3347 -0.1406 -0.2182
11823SOL    HW137848   3.996  10.281  10.069  0.7588 -1.0391  0.7709
11823SOL    HW237849   4.047  10.178   9.970  1.9159 -0.6799  0.9736
11824SOL     OW37850   7.460  10.075  10.129 -0.0769  0.3456 -0.5398
11824SOL    HW137851   7.390  10.060  10.065 -1.0472 -2.3009  1.0058
11824SOL    HW237852   7.499   9.989  10.143 -0.0977  0.7229  2.6098
11825SOL     OW37853   4.219   9.181   8.285  0.2539  0.1474  0.5049
11825SOL    HW137854   4.276   9.258   8.278  0.5002 -0.0443  0.4004
11825SOL    HW237855   4.153   9.206   8.350  0.5407  0.3176  0.7322
11826SOL     OW37856   1.756   0.591   6.266 -0.0180 -0.7584 -0.6184
11826SOL    HW137857   1.720   0.503   6.270 -0.4256 -0.6139 -0.9087
11826SOL    HW237858   1.691   0.645   6.311 -1.2657 -0.1659 -2.9349
11827SOL     OW37859   6.189   6.619   9.860 -0.2984  0.0348 -0.6548
11827SOL    HW137860   6.145   6.534   9.869  0.9410 -0.4962  0.9620
11827SOL    HW237861   6.281   6.597   9.844  1.6640  0.5775  6.4869
11828SOL     OW37862   9.688   7.403   9.056  0.0350 -0.0398 -0.3766
11828SOL    HW137863   9.690   7.433   8.965 -0.6110  0.4190 -0.2497
11828SOL    HW237864   9.780   7.391   9.080  0.4365  2.7993 -0.1527
11829SOL     OW37865   5.729   3.597   7.650  0.0530  0.3505 -0.3756
11829SOL    HW137866   5.799   3.533   7.652  0.8385  1.1976 -0.2609
11829SOL    HW237867   5.757   3.666   7.710 -1.6042 -0.0223  0.9090
11830SOL     OW37868   6.562   4.323  10.631 -0.1127  0.0147  0.2453
11830SOL    HW137869   6.524   4.323  10.543 -0.6677  2.2711  0.4110
11830SOL    HW237870   6.652   4.353  10.619 -0.3358  0.7969  0.4759
11831SOL     OW37871   3.090   1.159   9.336 -0.1719  0.4124  0.3572
11831SOL    HW137872   3.184   1.166   9.318 -0.1147 -0.2577  0.3506
11831SOL    HW237873   3.074   1.064   9.341 -0.8703  0.5181  0.2223
11832SOL     OW37874   6.316  10.028   1.867 -0.3833  0.0885  0.3997
11832SOL    HW137875   6.396  10.067   1.832 -0.6825 -0.4212 -0.9193
11832SOL    HW237876   6.263  10.102   1.894 -0.6370  0.6147 -1.3778
11833SOL     OW37877   1.809   6.971   7.005  0.1092 -0.6812  0.1130
11833SOL    HW137878   1.741   6.983   7.071 -1.0422 -2.7675 -0.5895
11833SOL    HW237879   1.891   6.989   7.051 -0.8797  2.8811  0.7230
11834SOL     OW37880   3.939   7.243   2.011  0.1751 -0.2758 -0.8775
11834SOL    HW137881   4.017   7.251   1.956  1.0493  0.8966  0.4623
11834SOL    HW237882   3.945   7.316   2.072 -1.1379 -1.1073  0.3157
11835SOL     OW37883   2.590   2.740   2.640  0.0684 -0.2361 -0.4112
11835SOL    HW137884   2.654   2.673   2.662 -0.0631 -0.1482  0.2469
11835SOL    HW237885   2.506   2.704   2.669  0.2963  1.3338  2.6054
11836SOL     OW37886   0.072   5.521  10.191 -0.0010 -0.3500 -0.4453
11836SOL    HW137887   0.165   5.506  10.211 -0.1785  1.0850  1.7144
11836SOL    HW237888   0.032   5.434  10.196  0.9088 -0.7329  0.3999
11837SOL     OW37889  10.171   8.503  10.036 -0.5207 -0.1892  0.5540
11837SOL    HW137890  10.216   8.587  10.040 -0.3821 -0.2058 -0.4481
11837SOL    HW237891  10.236   8.443  10.000 -1.1544 -0.3432 -0.3573
11838SOL     OW37892   0.525   2.797   5.234  0.1103 -0.3766 -0.0190
11838SOL    HW137893   0.544   2.874   5.180  0.1067 -0.0413  0.4524
11838SOL    HW237894   0.518   2.831   5.324 -1.4614 -0.6644  0.0121
11839SOL     OW37895   9.100   4.391   3.426 -0.5428  0.0641 -0.0600
11839SOL    HW137896   9.180   4.436   3.453 -0.5706 -0.1681  0.4264
11839SOL    HW237897   9.080   4.332   3.499  0.6205 -2.2695 -1.5050
11840SOL     OW37898   2.364   0.883   6.893 -0.0547  0.2007  0.3346
11840SOL    HW137899   2.399   0.794   6.889 -0.0201  0.1600  1.4472
11840SOL    HW237900   2.372   0.915   6.803  0.0849 -0.8543 -0.0436
11841SOL     OW37901   8.554   7.113   3.027  0.1565  0.1225 -0.7758
11841SOL    HW137902   8.563   7.199   3.069 -0.9026  0.5455 -1.3784
11841SOL    HW237903   8.591   7.052   3.090  1.2582  1.0476 -0.4790
11842SOL     OW37904   1.146  10.553   0.544 -0.2218 -0.0672  0.3091
11842SOL    HW137905   1.054  10.530   0.546 -0.3872  0.1780 -2.2850
11842SOL    HW237906   1.192  10.470   0.539 -0.5229 -0.1435 -2.2088
11843SOL     OW37907   5.634   4.835   4.640 -0.8326 -0.4486 -0.7174
11843SOL    HW137908   5.634   4.865   4.549  1.4367  1.1880 -0.2600
11843SOL    HW237909   5.664   4.744   4.635  1.5978  0.3059 -1.5293
11844SOL     OW37910   2.488   9.991   9.530 -0.2307 -0.7471  0.1204
11844SOL    HW137911   2.465  10.022   9.617 -1.9057 -0.4897 -0.3568
11844SOL    HW237912   2.457  10.060   9.471  1.7045 -0.4855 -0.6474
11845SOL     OW37913   3.098   4.122   7.275 -0.1175 -0.4347  0.3089
11845SOL    HW137914   3.044   4.066   7.331 -1.6246 -0.8892 -1.4833
11845SOL    HW237915   3.035   4.171   7.223  1.1444  2.8721  1.6316
11846SOL     OW37916   9.923  10.601   5.833  0.0734  0.5611 -0.5518
11846SOL    HW137917   9.904  10.532   5.897  0.0707  1.3456  0.3190
11846SOL    HW237918   9.841  10.649   5.825 -0.0235  0.2627 -1.4198
11847SOL     OW37919   0.241   1.287   7.665  0.2641  0.9232 -0.5588
11847SOL    HW137920   0.232   1.344   7.589 -0.2510  1.6075 -0.0043
11847SOL    HW237921   0.152   1.279   7.700  0.6677  1.7652  0.7576
11848SOL     OW37922   5.754   4.887   1.484 -0.0873  0.7069  0.4148
11848SOL    HW137923   5.751   4.856   1.393 -1.3069  0.1028  0.6310
11848SOL    HW237924   5.813   4.961   1.482 -0.7431  1.2348 -1.0521
11849SOL     OW37925   9.175   3.554   9.196  0.4338  0.2463 -0.3483
11849SOL    HW137926   9.261   3.541   9.158  0.8197  0.1078  0.5462
11849SOL    HW237927   9.146   3.466   9.219  0.7549  0.4358  0.8297
11850SOL     OW37928   3.915   4.904   0.528  0.0820  0.4854 -0.1079
11850SOL    HW137929   3.887   4.993   0.507 -2.0243 -0.4132 -1.5187
11850SOL    HW237930   3.985   4.915   0.592 -0.6162  3.1227  0.3301
11851SOL     OW37931   1.790   8.103   0.270  0.4826  0.2081 -0.2689
11851SOL    HW137932   1.735   8.026   0.285  0.8080  0.1038  0.3922
11851SOL    HW237933   1.746   8.150   0.198  0.3011 -0.6044 -0.6972
11852SOL     OW37934   8.817   1.085   8.939  0.1888 -0.0676  1.0290
11852SOL    HW137935   8.756   1.069   9.010  0.8752  0.4277  1.7590
11852SOL    HW237936   8.823   1.181   8.934  0.0748 -0.0978  0.2416
11853SOL     OW37937   8.491   1.896   2.986 -0.1794  0.2060  0.0058
11853SOL    HW137938   8.451   1.875   2.901 -0.0565 -0.1783  0.0411
11853SOL    HW237939   8.529   1.813   3.015 -1.4892 -0.0279  1.1221
11854SOL     OW37940   6.020   5.401   5.625 -0.0020 -0.0933  0.6785
11854SOL    HW137941   6.091   5.338   5.613 -0.1720 -0.1917  0.1626
11854SOL    HW237942   5.964   5.388   5.548 -1.0729 -0.6688  1.5378
11855SOL     OW37943   4.373   7.061   8.684  0.1881  0.0805 -0.1666
11855SOL    HW137944   4.314   7.134   8.700 -0.4823 -0.0604 -1.8474
11855SOL    HW237945   4.454   7.085   8.729 -0.5276  1.1381  0.5914
11856SOL     OW37946   5.218   6.127   2.555  0.1098 -0.2451 -0.0936
11856SOL    HW137947   5.195   6.041   2.589  0.4904 -0.1670  0.3702
11856SOL    HW237948   5.298   6.112   2.504  0.9661  0.0497  1.1169
11857SOL     OW37949   7.418   4.189   5.457 -0.1012 -0.2855 -0.3569
11857SOL    HW137950   7.490   4.150   5.507 -1.2450 -0.8480  0.9237
11857SOL    HW237951   7.437   4.169   5.366  1.3628 -0.4177 -0.0382
11858SOL     OW37952   9.521   8.507   4.858  1.1800  0.0005  0.0270
11858SOL    HW137953   9.508   8.602   4.856  0.5790 -0.0849 -0.7999
11858SOL    HW237954   9.585   8.492   4.928 -0.3530  0.8170  1.6751
11859SOL     OW37955   3.411   2.396   1.353 -0.4657 -0.3495 -0.1360
11859SOL    HW137956   3.440   2.485   1.371 -1.0847  0.1444 -1.4349
11859SOL    HW237957   3.316   2.398   1.367 -0.4036 -0.9796  0.4355
11860SOL     OW37958   8.130   5.944   0.440 -0.4438 -0.3266 -0.2149
11860SOL    HW137959   8.048   5.914   0.402  0.0629 -1.0512 -0.7746
11860SOL    HW237960   8.186   5.962   0.365  0.1391 -0.5200  0.1593
11861SOL     OW37961   8.711   0.049   0.195 -0.1474 -0.2860  0.3391
11861SOL    HW137962   8.680   0.140   0.201 -0.0995 -0.2119 -0.4638
11861SOL    HW237963   8.803   0.053   0.220 -0.1150 -0.0941  0.1878
11862SOL     OW37964   6.571   2.296   5.235  0.0803 -0.0431 -0.6453
11862SOL    HW137965   6.567   2.387   5.203 -0.9823  0.4154  0.6897
11862SOL    HW237966   6.486   2.282   5.277  1.2258 -0.7118  1.6176
11863SOL     OW37967   9.247   4.955   8.498 -0.6783 -0.1525 -0.2366
11863SOL    HW137968   9.328   4.936   8.450 -0.7026 -0.7035 -0.0652
11863SOL    HW237969   9.276   5.004   8.576 -0.5494 -0.0419 -0.3525
11864SOL     OW37970   2.399   4.758   6.391  0.5668 -0.2838 -0.1565
11864SOL    HW137971   2.355   4.759   6.476  0.8395  3.4242  0.0960
11864SOL    HW237972   2.350   4.821   6.338  1.2674 -1.4654 -2.3284
11865SOL     OW37973   7.030   2.312   8.793  0.2907  0.3980 -0.2755
11865SOL    HW137974   7.077   2.349   8.718 -1.0606  1.9617 -0.4069
11865SOL    HW237975   7.080   2.341   8.869  1.3074 -0.6588 -0.5112
11866SOL     OW37976   2.306   2.251   4.994 -0.2149 -0.2982  0.4650
11866SOL    HW137977   2.216   2.283   4.986  0.0294  0.5891  1.1382
11866SOL    HW237978   2.300   2.173   5.048 -0.5581 -0.1550  0.6321
11867SOL     OW37979   0.807   2.907   1.571 -0.0769 -0.4905 -0.1912
11867SOL    HW137980   0.782   2.889   1.481 -0.8224  0.3521 -0.1544
11867SOL    HW237981   0.870   2.838   1.592 -0.1115 -0.8596 -1.2562
11868SOL     OW37982   4.778   5.201   1.575 -0.4591 -0.3299 -0.3066
11868SOL    HW137983   4.724   5.264   1.623  1.3374 -0.0594  1.4682
11868SOL    HW237984   4.756   5.116   1.615 -0.3736 -0.3655 -0.3363
11869SOL     OW37985   3.852   3.045   8.451 -0.6365  0.5980 -0.2430
11869SOL    HW137986   3.905   3.124   8.445  2.3559 -1.2735 -0.8358
11869SOL    HW237987   3.827   3.038   8.543  0.7588  1.2145  0.1940
11870SOL     OW37988   8.111   4.364   8.002 -0.0470 -0.0632 -0.4435
11870SOL    HW137989   8.029   4.383   8.047  1.0917 -0.5212  2.0385
11870SOL    HW237990   8.086   4.334   7.915 -2.5043 -0.7884  0.4542
11871SOL     OW37991   4.383   3.992   0.196  0.1949 -0.1252  0.0220
11871SOL    HW137992   4.442   4.058   0.161 -0.4147  0.2626 -0.2980
11871SOL    HW237993   4.423   3.908   0.171 -0.2171  0.1309 -1.6415
11872SOL     OW37994   5.056   8.963   4.621  0.4505 -0.0463 -0.1134
11872SOL    HW137995   5.142   8.936   4.589  1.1006  0.2891  1.2380
11872SOL    HW237996   5.003   8.975   4.542  2.0699  1.1504 -1.0953
11873SOL     OW37997   0.857   9.793  10.082  0.0209 -0.4107  0.0561
11873SOL    HW137998   0.789   9.861  10.075 -0.7593 -1.1213  0.5751
11873SOL    HW237999   0.916   9.811  10.008  0.1942  1.2110  0.5483
11874SOL     OW38000   0.259   5.961   8.737  0.4301 -0.4247 -0.1641
11874SOL    HW138001   0.196   5.890   8.748 -1.1822  0.9947  0.3503
11874SOL    HW238002   0.234   6.026   8.803  3.1506 -0.2285  0.8115
11875SOL     OW38003   7.410  10.687   7.906  0.0131  0.6464 -0.5083
11875SOL    HW138004   7.474  10.757   7.917  0.5475 -0.0573  1.1626
11875SOL    HW238005   7.451  10.626   7.845  1.4486 -0.3109  1.3181
11876SOL     OW38006  10.280   6.327   9.671 -0.1171  0.2793 -0.2640
11876SOL    HW138007  10.309   6.385   9.600  1.5060 -0.2958 -0.0951
11876SOL    HW238008  10.222   6.264   9.628  0.4002  0.2817 -0.9664
11877SOL     OW38009   6.865   5.467   2.322 -0.5571  0.7655 -0.9162
11877SOL    HW138010   6.960   5.484   2.326 -0.5108  0.3277  0.0863
11877SOL    HW238011   6.858   5.374   2.301 -0.7181  0.3658  0.7233
11878SOL     OW38012   3.479   2.885   3.464  0.4731  0.0179  0.3763
11878SOL    HW138013   3.454   2.797   3.437  0.8114  0.0945 -0.1941
11878SOL    HW238014   3.395   2.929   3.480  0.2942 -0.3070  0.3543
11879SOL     OW38015   3.760   2.380   2.650 -0.1360  0.1229  0.2930
11879SOL    HW138016   3.780   2.459   2.601 -0.5800  0.8579  1.2512
11879SOL    HW238017   3.775   2.404   2.742 -0.1499 -0.9440  0.5912
11880SOL     OW38018   8.256   7.289   7.742  0.3793  0.0323  0.5595
11880SOL    HW138019   8.212   7.283   7.658 -0.6775 -1.4687  1.1647
11880SOL    HW238020   8.207   7.355   7.790  2.1878  2.3536 -0.6229
11881SOL     OW38021   5.059   9.558   8.007 -0.3130 -0.4599  0.6930
11881SOL    HW138022   4.982   9.508   7.981  0.8999 -1.8629 -0.4071
11881SOL    HW238023   5.119   9.493   8.044  2.0969 -0.3216 -2.5115
11882SOL     OW38024   2.730   9.979   4.278  0.0246 -0.4294  0.6799
11882SOL    HW138025   2.656  10.022   4.232 -0.8394 -0.8890  1.6061
11882SOL    HW238026   2.787   9.949   4.208 -0.9217 -0.4983 -0.0842
11883SOL     OW38027   6.940   3.415   2.400 -0.4367 -0.0553  0.2844
11883SOL    HW138028   6.854   3.392   2.365 -0.8107  0.0460  1.1108
11883SOL    HW238029   6.958   3.347   2.464 -0.0309  0.0937  0.3271
11884SOL     OW38030   9.619   7.739   6.800  0.0947  0.0448  0.0487
11884SOL    HW138031   9.627   7.826   6.760 -3.0091 -0.0179 -0.9185
11884SOL    HW238032   9.613   7.680   6.725  1.4001 -0.9607  0.7044
11885SOL     OW38033   5.956   1.113   7.137  0.7500 -0.1936  0.7768
11885SOL    HW138034   5.868   1.100   7.101  1.7863  0.0785 -2.0241
11885SOL    HW238035   5.941   1.155   7.222 -1.8016  0.2635  0.1721
11886SOL     OW38036   0.209   3.999   3.383  0.3327 -0.5785  0.3301
11886SOL    HW138037   0.182   4.002   3.474  2.0507  1.2744  0.8309
11886SOL    HW238038   0.260   3.918   3.376  0.0320 -0.8285  0.9285
11887SOL     OW38039   1.806   1.996   2.064 -0.4143  0.2719 -0.2338
11887SOL    HW138040   1.871   2.065   2.048 -1.9889  1.8350 -0.2554
11887SOL    HW238041   1.771   1.977   1.977 -0.4046 -0.1437 -0.1474
11888SOL     OW38042   6.219  10.360   7.785 -0.3858  0.3018  0.1101
11888SOL    HW138043   6.299  10.363   7.732 -0.8485 -0.2671 -0.6334
11888SOL    HW238044   6.174  10.442   7.764  0.3048  0.9605  1.0583
11889SOL     OW38045   1.280   3.488   8.997  0.1534  0.0551 -0.5936
11889SOL    HW138046   1.353   3.549   8.992  1.8854 -2.0120 -2.9328
11889SOL    HW238047   1.209   3.531   8.948  0.6519  1.0065 -0.4886
11890SOL     OW38048   1.955   6.498   5.140  0.2764 -0.0468  0.9348
11890SOL    HW138049   1.868   6.536   5.152  1.0974  2.5282 -0.3282
11890SOL    HW238050   1.975   6.515   5.048  1.1994 -2.7593  0.5639
11891SOL     OW38051   4.538   1.778   4.551  0.3927 -0.1800 -0.1179
11891SOL    HW138052   4.507   1.748   4.636 -3.5656  2.7770 -0.2130
11891SOL    HW238053   4.621   1.822   4.570  0.1636 -0.5576  2.0246
11892SOL     OW38054   0.250   7.392   8.387 -0.4987  0.2855  0.6080
11892SOL    HW138055   0.228   7.471   8.436 -1.9967  0.3056 -0.0484
11892SOL    HW238056   0.198   7.397   8.307  1.5854  0.0501 -0.8480
11893SOL     OW38057   7.521   4.418   8.376  0.4682 -0.3021 -0.0481
11893SOL    HW138058   7.616   4.433   8.380  0.1885  1.6104  0.1594
11893SOL    HW238059   7.511   4.344   8.317  2.0716 -0.3028 -0.3621
11894SOL     OW38060   6.683   3.010   3.207  0.2506 -0.1014 -0.3293
11894SOL    HW138061   6.610   2.992   3.267  1.4461 -0.0911  1.1816
11894SOL    HW238062   6.750   3.049   3.262  1.2774  0.2281 -1.7667
11895SOL     OW38063   5.512   0.082   4.813  0.5955  0.8433  0.2096
11895SOL    HW138064   5.454   0.158   4.816 -1.2897 -0.4866 -0.6091
11895SOL    HW238065   5.493   0.035   4.894  0.1424  0.1361 -0.3018
11896SOL     OW38066   5.980   5.760   5.532 -0.8783 -0.7233  0.6927
11896SOL    HW138067   5.922   5.756   5.456  1.5977  0.3088 -1.3982
11896SOL    HW238068   5.958   5.842   5.575 -1.8073 -0.9648  0.7040
11897SOL     OW38069   8.025   8.894   9.223 -0.0401 -0.1173 -0.8002
11897SOL    HW138070   7.956   8.878   9.287 -1.2798 -1.8277 -2.4588
11897SOL    HW238071   8.105   8.896   9.275 -1.0045 -1.1822  0.8422
11898SOL     OW38072   1.513  10.729   1.879  0.0352  0.1357 -0.2301
11898SOL    HW138073   1.444  10.781   1.921 -0.4944  0.1377 -1.0755
11898SOL    HW238074   1.555  10.790   1.819  0.2966 -0.0633 -0.2493
11899SOL     OW38075   5.609   7.703   1.092 -0.1792  0.1691 -0.4991
11899SOL    HW138076   5.648   7.716   1.178  1.7407 -0.8335 -1.1599
11899SOL    HW238077   5.586   7.791   1.062 -0.2870  0.5857  0.7683
11900SOL     OW38078   9.241   0.549   9.971  0.1659  0.0111 -0.5751
11900SOL    HW138079   9.330   0.575   9.948  0.8449 -0.5585  1.2200
11900SOL    HW238080   9.223   0.472   9.916  0.2969  0.8418 -1.8091
11901SOL     OW38081   2.716   0.077   5.536  0.0194 -0.6792 -0.1163
11901SOL    HW138082   2.797   0.115   5.570 -0.4014 -1.9079  2.5513
11901SOL    HW238083   2.744  -0.006   5.496  0.0054 -2.1035  2.5779
11902SOL     OW38084   3.662   4.167   2.877 -0.4117 -0.4137  0.0014
11902SOL    HW138085   3.593   4.233   2.874  1.1646  1.3031 -0.2981
11902SOL    HW238086   3.690   4.166   2.968 -1.5117 -1.9099  0.3623
11903SOL     OW38087   8.013   6.832   8.369 -0.3168  0.7079  0.1799
11903SOL    HW138088   7.961   6.761   8.332 -0.3119  1.3839 -1.2255
11903SOL    HW238089   7.983   6.840   8.459 -2.0226  0.4851 -0.3282
11904SOL     OW38090   8.977   9.137  10.273 -0.0948  0.6373  0.2578
11904SOL    HW138091   9.037   9.135  10.198  0.7637  0.4119  0.9353
11904SOL    HW238092   9.029   9.103  10.346 -1.4588 -0.8534  0.5854
11905SOL     OW38093  10.040   6.804   2.001  0.3974 -0.1254 -0.4089
11905SOL    HW138094  10.106   6.859   1.959 -0.0738  0.3452 -0.5500
11905SOL    HW238095   9.957   6.833   1.963  0.2712 -2.2601 -1.9535
11906SOL     OW38096   6.322   9.147   8.394  0.5279 -0.4115 -0.0669
11906SOL    HW138097   6.251   9.183   8.447 -0.0426 -0.4945 -0.7586
11906SOL    HW238098   6.389   9.215   8.394  0.0693  0.0504 -0.1487
11907SOL     OW38099   2.891   5.098   7.022  0.5662 -0.2808  0.1132
11907SOL    HW138100   2.883   5.150   6.942 -0.1718  0.8253  0.8717
11907SOL    HW238101   2.801   5.076   7.045  0.8281 -1.3361  0.1823
11908SOL     OW38102   6.381   5.263   3.581  0.1343  0.5634 -0.3799
11908SOL    HW138103   6.378   5.182   3.632  1.4716 -1.0362 -2.6644
11908SOL    HW238104   6.472   5.290   3.583  0.0824  0.8482 -1.3491
11909SOL     OW38105  10.555   3.784   5.881 -0.1351  0.5715 -0.2890
11909SOL    HW138106  10.628   3.737   5.841  0.3569  1.7698 -0.8356
11909SOL    HW238107  10.476   3.742   5.846  0.2343 -1.3976  1.0713
11910SOL     OW38108   4.873   0.246   9.206 -0.1991 -0.2994 -0.6573
11910SOL    HW138109   4.927   0.236   9.127  0.7851 -0.6137  0.0343
11910SOL    HW238110   4.893   0.335   9.236 -1.4848  0.2658 -1.4003
11911SOL     OW38111   4.137   8.439   6.578 -0.1724 -0.1366 -0.5615
11911SOL    HW138112   4.113   8.531   6.587  1.2600  0.2032  0.0892
11911SOL    HW238113   4.082   8.393   6.642  0.1998  0.4910  0.2238
11912SOL     OW38114   6.570   3.227   4.570  0.7323 -0.7368  0.1858
11912SOL    HW138115   6.603   3.149   4.526  0.8809 -0.8302  0.4608
11912SOL    HW238116   6.536   3.195   4.654 -0.2441 -0.6678 -0.1780
11913SOL     OW38117   0.666   4.151   9.781 -0.5527 -0.1960  0.1786
11913SOL    HW138118   0.716   4.172   9.702  1.0065 -1.7487  0.6801
11913SOL    HW238119   0.576   4.141   9.751  0.1013 -1.3520 -1.5333
11914SOL     OW38120   0.617   6.638   5.399 -0.1713 -0.6573 -0.0206
11914SOL    HW138121   0.679   6.565   5.391 -0.3843 -0.8538  0.1116
11914SOL    HW238122   0.531   6.596   5.394 -0.3073 -0.2565 -1.5897
11915SOL     OW38123   0.468   6.733   6.894  0.1078  0.0104  0.6961
11915SOL    HW138124   0.493   6.773   6.977 -0.9431  1.1538  0.5004
11915SOL    HW238125   0.478   6.639   6.908 -0.7525  0.1275  2.3637
11916SOL     OW38126   2.536   6.707   6.432  0.1371 -0.0850 -0.1050
11916SOL    HW138127   2.604   6.655   6.476  0.8219  1.5151  0.8589
11916SOL    HW238128   2.522   6.781   6.491 -0.6797  0.8936 -1.4767
11917SOL     OW38129   6.293   4.426   9.162  0.2557  0.1449 -0.1183
11917SOL    HW138130   6.281   4.406   9.255  1.4729  0.4203  0.1131
11917SOL    HW238131   6.383   4.400   9.144  0.4534  1.3165 -0.8890
11918SOL     OW38132   0.111   3.987   0.875 -0.3827  0.1186  0.4212
11918SOL    HW138133   0.018   3.988   0.898 -1.1215  0.8144 -2.2406
11918SOL    HW238134   0.135   4.080   0.869 -0.2600  0.0011 -1.4328
11919SOL     OW38135   1.823   6.078   6.134  0.2879 -0.6925  0.0801
11919SOL    HW138136   1.829   6.141   6.206 -0.4268  0.0518 -0.4884
11919SOL    HW238137   1.893   6.104   6.074 -1.1896  0.8339 -1.0889
11920SOL     OW38138   9.172   7.035  10.648 -0.8522 -0.4262  0.6443
11920SOL    HW138139   9.107   7.016  10.581 -0.4118 -2.6866  0.7481
11920SOL    HW238140   9.137   7.109  10.697 -1.7350  0.5199 -1.3229
11921SOL     OW38141   5.882   7.938   6.330  0.3276 -0.0114 -0.2447
11921SOL    HW138142   5.963   7.901   6.364  0.8274  0.5342 -0.8195
11921SOL    HW238143   5.839   7.977   6.406  1.3060  0.9661 -0.1752
11922SOL     OW38144   8.601   4.746  10.108  0.2234 -0.2281 -0.2804
11922SOL    HW138145   8.621   4.793  10.189  1.8911  0.4213 -1.0386
11922SOL    HW238146   8.686   4.725  10.070 -0.5283 -0.6259 -1.8238
11923SOL     OW38147   2.770   9.537   7.935  0.0176  0.1115 -0.6233
11923SOL    HW138148   2.713   9.465   7.963  1.4877 -1.0494 -0.4747
11923SOL    HW238149   2.721   9.616   7.955  0.0457 -0.6649  3.2290
11924SOL     OW38150   0.755   4.158   3.438  0.0776 -0.0874  0.0320
11924SOL    HW138151   0.710   4.181   3.520  0.6479  1.9482 -0.1799
11924SOL    HW238152   0.845   4.139   3.465  0.0501 -0.3058 -0.0268
11925SOL     OW38153   2.278   1.390   4.245 -0.0478  0.4916 -0.0036
11925SOL    HW138154   2.233   1.470   4.270 -2.3041 -1.1757  1.6300
11925SOL    HW238155   2.252   1.376   4.154  0.9610  1.9269 -0.5519
11926SOL     OW38156   3.739   9.868   8.019 -0.4071  0.2291 -0.2822
11926SOL    HW138157   3.675   9.874   8.089 -1.2527  1.5335 -1.1168
11926SOL    HW238158   3.823   9.864   8.064 -0.9879 -0.0910  0.8147
11927SOL     OW38159   6.679   3.370   4.179 -0.0032 -0.3453 -0.5014
11927SOL    HW138160   6.710   3.283   4.206  2.6852  0.8264  0.5745
11927SOL    HW238161   6.686   3.424   4.258  1.0046  1.4562 -1.7547
11928SOL     OW38162   5.032   3.464   7.850  0.5064  0.2378 -0.2593
11928SOL    HW138163   4.970   3.393   7.871  1.4735 -1.3090 -2.2508
11928SOL    HW238164   5.109   3.419   7.816  2.6675  2.1200  1.7988
11929SOL     OW38165   9.846   0.085   8.446 -0.3742  0.0618 -0.6961
11929SOL    HW138166   9.912   0.101   8.514 -1.2202 -0.9127  0.3869
11929SOL    HW238167   9.858  -0.006   8.421 -1.1290 -0.0471 -0.6841
11930SOL     OW38168   0.574   6.603   2.452  0.1067 -0.5191 -0.0197
11930SOL    HW138169   0.613   6.552   2.523  0.9525 -0.4804 -0.4366
11930SOL    HW238170   0.487   6.566   2.441  0.5369 -1.5732 -0.0069
11931SOL     OW38171   0.002   1.958  10.478 -0.1940 -0.1924 -0.6428
11931SOL    HW138172   0.068   1.891  10.496 -0.1927  0.0080  0.1341
11931SOL    HW238173  -0.051   1.962  10.558 -1.5528 -0.7905 -1.4851
11932SOL     OW38174   1.946   0.126  10.026  0.3264  0.0682  0.3009
11932SOL    HW138175   1.877   0.119  10.092  0.7437 -0.2607  0.7075
11932SOL    HW238176   2.027   0.127  10.076  0.5789  1.8931 -0.0850
11933SOL     OW38177   7.129   3.931   8.474 -0.2452 -0.2391 -0.0242
11933SOL    HW138178   7.200   3.903   8.532  0.1692  0.3079 -0.2625
11933SOL    HW238179   7.168   3.997   8.417 -0.6599 -0.7259 -0.9009
11934SOL     OW38180   4.469   8.889   2.216 -0.1762  0.1064  0.2046
11934SOL    HW138181   4.446   8.801   2.244  0.1729 -0.0409  0.0344
11934SOL    HW238182   4.558   8.881   2.182 -0.4851  0.3328 -0.6988
11935SOL     OW38183   3.457   7.095   9.574  0.0710  0.4039  0.4299
11935SOL    HW138184   3.516   7.160   9.611  0.5107  0.6510 -0.6478
11935SOL    HW238185   3.396   7.145   9.519 -0.0510 -0.0142  0.1713
11936SOL     OW38186   2.563   4.860   4.113  0.1571 -0.2685 -0.4607
11936SOL    HW138187   2.620   4.933   4.140  1.1012 -1.0517 -0.2702
11936SOL    HW238188   2.561   4.802   4.189  0.0634 -0.8238 -0.8807
11937SOL     OW38189   8.140   9.260  10.367  0.1294  0.3117  0.4713
11937SOL    HW138190   8.184   9.287  10.286  0.4124 -1.9274 -0.1969
11937SOL    HW238191   8.061   9.215  10.338  1.5359 -2.9328  1.1712
11938SOL     OW38192   8.455   8.601   1.654  0.0752  0.3928 -0.0080
11938SOL    HW138193   8.461   8.515   1.696  1.8951  0.5126  0.0827
11938SOL    HW238194   8.365   8.607   1.623 -0.4940 -0.9286  1.2862
11939SOL     OW38195  10.737   7.038   9.526  0.1961 -0.4655  0.2232
11939SOL    HW138196  10.784   6.969   9.573  0.2896  1.0775  2.5770
11939SOL    HW238197  10.650   7.001   9.510  0.8665 -1.8402 -0.4444
11940SOL     OW38198   1.611   8.660   2.461 -0.4436  0.5202  0.1570
11940SOL    HW138199   1.662   8.698   2.533  0.2308  0.6885 -0.4013
11940SOL    HW238200   1.545   8.605   2.505 -1.1413  1.9329  0.9803
11941SOL     OW38201   2.536   6.266   8.485 -0.6395 -0.2423 -0.2277
11941SOL    HW138202   2.463   6.284   8.544 -0.2259  2.1618 -0.3195
11941SOL    HW238203   2.495   6.238   8.404 -1.5006  1.0716 -0.2774
11942SOL     OW38204   2.742  10.058   0.528 -0.1113  0.3267 -0.5801
11942SOL    HW138205   2.676  10.125   0.547  0.7493  1.9034 -2.7194
11942SOL    HW238206   2.733  10.042   0.434  1.7838 -0.2503 -0.7076
11943SOL     OW38207   5.332   9.892   6.428 -0.5590 -0.0083 -0.2542
11943SOL    HW138208   5.278   9.832   6.478 -0.3201 -0.8702 -1.0039
11943SOL    HW238209   5.376   9.837   6.363 -0.6268  1.0161 -1.2118
11944SOL     OW38210  10.413  10.593   0.288 -0.5268 -0.0638  0.3831
11944SOL    HW138211  10.334  10.543   0.269 -0.6654 -0.4110  1.7598
11944SOL    HW238212  10.473  10.528   0.326  0.2739  0.2799 -0.2676
11945SOL     OW38213   9.567   4.920   5.866  0.4214 -0.3105  0.2909
11945SOL    HW138214   9.475   4.910   5.839  0.4674 -0.2642  0.1182
11945SOL    HW238215   9.565   4.907   5.961  0.0108  1.1360  0.5166
11946SOL     OW38216   8.102   8.334   5.200  0.3711 -0.1839  0.1305
11946SOL    HW138217   8.087   8.263   5.262  1.3239  0.4849  1.1737
11946SOL    HW238218   8.167   8.300   5.139  0.4121 -0.3975  0.2946
11947SOL     OW38219   1.094  10.438  10.200 -0.2676  0.0887  0.2536
11947SOL    HW138220   1.089  10.534  10.194  1.0585  0.1538  0.0207
11947SOL    HW238221   1.089  10.420  10.294  0.0955  0.4325  0.3428
11948SOL     OW38222   9.440   1.868   9.446  0.1944  0.6399 -0.1343
11948SOL    HW138223   9.488   1.832   9.371 -0.1716  1.1678 -0.6349
11948SOL    HW238224   9.443   1.963   9.433 -0.5761  0.7006  0.0667
11949SOL     OW38225   7.291   1.246   8.542 -0.2110  0.4167  0.1791
11949SOL    HW138226   7.245   1.312   8.593 -1.0991 -1.7830  2.3987
11949SOL    HW238227   7.235   1.169   8.546  2.9574 -2.0270  1.9376
11950SOL     OW38228   3.461   8.967   0.449 -0.6644  0.5699 -0.2872
11950SOL    HW138229   3.496   9.006   0.529 -0.9619  1.0402 -0.3828
11950SOL    HW238230   3.389   9.025   0.423 -2.1581 -0.8676  0.4173
11951SOL     OW38231   3.832   6.977   6.987  0.2623  0.0572 -0.3300
11951SOL    HW138232   3.779   7.017   7.056  0.7925 -0.6460  0.5115
11951SOL    HW238233   3.824   6.883   7.004 -0.3690 -0.1746 -1.8174
11952SOL     OW38234  10.212   2.821   1.074  0.1214 -0.5338  0.7588
11952SOL    HW138235  10.230   2.913   1.095  1.3362 -0.2752 -1.2183
11952SOL    HW238236  10.298   2.779   1.073 -0.3632 -1.5852  0.9935
11953SOL     OW38237   8.491   9.713   0.159  0.2715 -0.7327 -0.1768
11953SOL    HW138238   8.514   9.730   0.068  0.4576  0.1166  0.0230
11953SOL    HW238239   8.397   9.694   0.158  0.2641 -0.6769 -0.5351
11954SOL     OW38240   1.819   9.317   3.025  0.0175  0.3394  0.1656
11954SOL    HW138241   1.887   9.366   3.072  0.9254  2.2689 -2.8941
11954SOL    HW238242   1.749   9.381   3.010 -0.9098 -0.6499  0.1484
11955SOL     OW38243   0.444   5.622  10.747 -0.2527 -0.1612 -0.0468
11955SOL    HW138244   0.457   5.672  10.828 -0.3755 -0.8321  0.3984
11955SOL    HW238245   0.396   5.544  10.775 -0.0574 -0.5299 -0.7279
11956SOL     OW38246   0.497   4.277   2.248  0.5354  0.2869 -0.1919
11956SOL    HW138247   0.507   4.365   2.214 -2.2405  0.4954 -0.7341
11956SOL    HW238248   0.437   4.287   2.322 -1.3122 -1.2675 -1.3764
11957SOL     OW38249   1.769   0.713   1.068  0.1260 -0.0619  0.8301
11957SOL    HW138250   1.684   0.750   1.046 -0.2722  0.1139  2.5050
11957SOL    HW238251   1.766   0.703   1.163  1.3546 -1.6208  0.7330
11958SOL     OW38252   2.510   0.944   4.884  0.6469  0.8379  0.6585
11958SOL    HW138253   2.503   0.883   4.810  1.5100  0.8485  0.5586
11958SOL    HW238254   2.553   1.021   4.847  1.3372  0.7361  1.2389
11959SOL     OW38255   3.995   9.104   2.965  0.6281  0.6604 -0.0558
11959SOL    HW138256   3.986   9.144   2.878 -0.3413  1.7923  0.5489
11959SOL    HW238257   3.906   9.086   2.993  0.8166  1.6044  1.2780
11960SOL     OW38258   9.175   3.426   9.668 -0.5759  0.0562  0.0597
11960SOL    HW138259   9.099   3.471   9.632 -1.7218 -1.3485  0.5840
11960SOL    HW238260   9.142   3.339   9.690  0.8115 -0.0899  1.7420
11961SOL     OW38261   3.304   1.203   3.002 -0.0560  0.1797  0.3940
11961SOL    HW138262   3.354   1.284   3.005  0.3104 -0.0681  1.4463
11961SOL    HW238263   3.344   1.152   2.932  1.3806 -0.1307  1.3981
11962SOL     OW38264   8.213   8.331  10.158  0.3887  0.2104  0.1080
11962SOL    HW138265   8.124   8.341  10.192  0.2916  1.9834 -0.5510
11962SOL    HW238266   8.230   8.237  10.161 -1.9088 -0.2846 -0.7604
11963SOL     OW38267   8.972   6.483   4.981  0.5070 -0.4059  0.1379
11963SOL    HW138268   8.908   6.418   4.952 -1.1828  1.5204 -0.7230
11963SOL    HW238269   9.050   6.432   5.005 -1.1308 -2.7976  0.6750
11964SOL     OW38270   6.921  10.734   6.642  0.1872  0.1160 -0.3308
11964SOL    HW138271   6.995  10.780   6.683 -0.2566  0.8475 -0.3300
11964SOL    HW238272   6.961  10.681   6.573  1.0461 -1.7480  1.4963
11965SOL     OW38273   4.511   6.343   6.250 -0.1541  0.1813  0.1175
11965SOL    HW138274   4.479   6.422   6.207 -1.4365 -0.6739 -0.5653
11965SOL    HW238275   4.595   6.325   6.206  0.0294  1.0038  0.1052
11966SOL     OW38276   7.736   5.575   0.902 -0.7837  0.6479  0.0587
11966SOL    HW138277   7.684   5.531   0.969 -2.2124 -0.5745 -1.7354
11966SOL    HW238278   7.710   5.667   0.906  0.4257  0.9543  2.2453
11967SOL     OW38279   5.946   3.786   4.554 -0.4815  0.3148  0.2081
11967SOL    HW138280   5.988   3.803   4.470  3.1061 -2.0467  1.2429
11967SOL    HW238281   6.003   3.829   4.618 -1.3078 -0.5928  1.6034
11968SOL     OW38282   7.746   7.936   6.722  0.7400  0.1724  0.0548
11968SOL    HW138283   7.677   7.999   6.701 -1.0484 -1.1427  1.5506
11968SOL    HW238284   7.755   7.884   6.642 -0.9402 -0.3949  0.1799
11969SOL     OW38285   2.804   8.017   8.565 -0.4392 -0.7041 -0.3920
11969SOL    HW138286   2.900   8.017   8.560 -0.4104 -1.1861  0.0644
11969SOL    HW238287   2.785   8.014   8.658 -0.9093 -0.0950 -0.4584
11970SOL     OW38288   2.277   0.625   3.215 -0.5438  0.3798  0.0928
11970SOL    HW138289   2.277   0.617   3.311 -1.3573  0.8832  0.1457
11970SOL    HW238290   2.195   0.583   3.188 -0.0742 -0.2182 -0.4365
11971SOL     OW38291   4.768   2.330   0.641 -0.0387  0.5263  0.2393
11971SOL    HW138292   4.743   2.361   0.728  0.8136  0.1795  0.6085
11971SOL    HW238293   4.774   2.409   0.588  0.3655  0.8272  0.7325
11972SOL     OW38294   8.977   4.269   8.942 -0.2651  0.7437  0.1843
11972SOL    HW138295   9.055   4.257   8.995 -0.0195  1.6082  0.0352
11972SOL    HW238296   8.908   4.291   9.005 -0.5585 -0.6767  0.3851
11973SOL     OW38297   6.801   7.847   2.520  0.9203 -0.3538 -0.1518
11973SOL    HW138298   6.796   7.833   2.426  0.4158 -0.7686 -0.0628
11973SOL    HW238299   6.742   7.921   2.537 -0.3544 -1.3986  0.0719
11974SOL     OW38300   7.452   0.343   6.175 -0.1850 -0.3243  0.1431
11974SOL    HW138301   7.494   0.328   6.090 -1.9138  1.7709 -1.1979
11974SOL    HW238302   7.472   0.265   6.226 -0.4860 -2.4502 -2.7605
11975SOL     OW38303   7.825   9.217   6.373  0.4266  0.7451 -0.1710
11975SOL    HW138304   7.851   9.188   6.285  1.3947 -0.5798  0.5150
11975SOL    HW238305   7.848   9.310   6.375 -1.9752  1.4908 -2.1508
11976SOL     OW38306   6.138   9.636   5.763 -0.5341  0.0453 -0.3809
11976SOL    HW138307   6.058   9.592   5.737  0.4938 -1.6116 -0.8622
11976SOL    HW238308   6.207   9.594   5.712  1.0016 -0.3883  1.8874
11977SOL     OW38309   4.313   0.808   0.493 -0.5666  0.4672 -0.1669
11977SOL    HW138310   4.357   0.772   0.570 -1.1601  0.5241  0.2022
11977SOL    HW238311   4.384   0.845   0.440 -0.2143  0.9754  0.6426
11978SOL     OW38312   5.807   0.691   2.253  0.0219 -0.0097  0.0475
11978SOL    HW138313   5.840   0.777   2.230 -0.0194  0.2033  0.7844
11978SOL    HW238314   5.865   0.660   2.322  1.4056 -1.5180 -1.6801
11979SOL     OW38315   5.636   6.059   8.107 -0.0540  0.5534 -0.4117
11979SOL    HW138316   5.622   6.095   8.019  0.0024 -0.8608 -1.0274
11979SOL    HW238317   5.598   5.971   8.103  1.6655 -0.2708  0.3706
11980SOL     OW38318   0.535   4.023  10.774 -0.1184 -1.0149  0.2995
11980SOL    HW138319   0.531   3.965  10.850  0.4477 -0.4111  0.8021
11980SOL    HW238320   0.488   3.975  10.705 -1.2866 -1.2538  1.2265
11981SOL     OW38321   5.396   0.954  10.464  0.1555  0.3496 -0.0391
11981SOL    HW138322   5.315   0.999  10.440 -0.9998 -0.9204  1.2281
11981SOL    HW238323   5.404   0.883  10.400  0.8667  1.1082 -0.8068
11982SOL     OW38324   7.640   2.278   4.908 -0.1896  0.2588  0.5878
11982SOL    HW138325   7.625   2.229   4.828  0.5153 -1.0147  1.1979
11982SOL    HW238326   7.619   2.369   4.886  0.7915  0.0732 -1.2589
11983SOL     OW38327  10.333   4.395   8.410  0.0300 -0.5506  1.0372
11983SOL    HW138328  10.421   4.414   8.442  0.7159 -1.4569 -0.2356
11983SOL    HW238329  10.296   4.335   8.475  0.6346 -0.7546  1.1954
11984SOL     OW38330   2.213   8.229   9.188 -0.4564 -0.2459 -0.2161
11984SOL    HW138331   2.215   8.323   9.169  0.8520  0.2282  1.9819
11984SOL    HW238332   2.288   8.194   9.141  1.6929  0.6195  2.3328
11985SOL     OW38333   7.332   8.616   3.506 -0.3349  0.2796 -0.0830
11985SOL    HW138334   7.327   8.561   3.585  0.5233  0.2802 -0.0143
11985SOL    HW238335   7.264   8.581   3.448 -1.5900  0.8632  1.0022
11986SOL     OW38336   8.452   5.930   4.168 -0.1118  0.6903  1.0562
11986SOL    HW138337   8.535   5.882   4.172  0.9679  2.3948  0.4313
11986SOL    HW238338   8.454   5.988   4.244 -0.5236  1.0478  0.7973
11987SOL     OW38339   1.686  10.730   4.448  0.2178  0.0808  0.5842
11987SOL    HW138340   1.684  10.800   4.383  2.0055  0.1825  0.5784
11987SOL    HW238341   1.657  10.652   4.401 -0.7446  0.5962  0.3023
11988SOL     OW38342   2.175   9.197   4.261 -0.3146  0.0081 -0.6107
11988SOL    HW138343   2.240   9.239   4.205 -0.8419  1.5550 -0.1182
11988SOL    HW238344   2.225   9.165   4.336 -0.1756  1.9831  0.2056
11989SOL     OW38345   7.087   9.996   1.267  0.5531  0.1562 -0.3183
11989SOL    HW138346   7.054  10.051   1.197 -1.7451 -1.6636 -0.7915
11989SOL    HW238347   7.023  10.006   1.338 -1.1734 -3.2443 -1.1439
11990SOL     OW38348   2.519   7.946  10.171 -0.4866 -0.1286  0.6049
11990SOL    HW138349   2.565   7.989  10.099 -1.0536 -1.2153 -0.4417
11990SOL    HW238350   2.524   8.008  10.244  0.8495  0.6352 -0.0957
11991SOL     OW38351   9.547   5.309   2.268  0.5758 -0.3893 -0.1229
11991SOL    HW138352   9.522   5.311   2.176 -1.0674 -2.0681  0.2179
11991SOL    HW238353   9.642   5.309   2.267  0.7126  3.3894 -1.6250
11992SOL     OW38354   9.645   5.698   4.697  0.0222 -0.5013  0.4103
11992SOL    HW138355   9.571   5.759   4.706 -0.0275 -0.0447 -2.2801
11992SOL    HW238356   9.695   5.710   4.778 -1.6647  0.7976  1.3449
11993SOL     OW38357   0.210   4.672   8.085 -0.1504  0.3300  0.2060
11993SOL    HW138358   0.286   4.614   8.088  0.0572  0.6473  1.0918
11993SOL    HW238359   0.245   4.759   8.098 -0.5148  0.6383 -0.7401
11994SOL     OW38360  10.021   6.276   1.109  0.3148 -0.1338  0.5564
11994SOL    HW138361  10.094   6.216   1.094 -0.7343 -1.0180 -1.4002
11994SOL    HW238362   9.957   6.254   1.041 -1.2927  1.3845  1.4775
11995SOL     OW38363   8.322   5.348   0.198 -0.1492 -0.0114 -0.4194
11995SOL    HW138364   8.399   5.403   0.182  0.3032 -0.4850  0.0822
11995SOL    HW238365   8.290   5.375   0.285  0.2579 -0.7378 -0.0334
11996SOL     OW38366   1.601   3.577   8.011 -0.0740  0.4887 -0.1751
11996SOL    HW138367   1.545   3.505   7.984 -0.5301  1.0646 -0.8288
11996SOL    HW238368   1.658   3.593   7.935 -0.3285  1.1429 -0.2343
11997SOL     OW38369   3.893   2.143   9.309 -0.0284 -0.1152 -0.5377
11997SOL    HW138370   3.846   2.076   9.259  0.4340 -0.3746 -0.6325
11997SOL    HW238371   3.834   2.166   9.380 -0.2918 -0.4542 -0.6437
11998SOL     OW38372   2.521   9.290   9.854 -0.0654 -0.2142  0.1245
11998SOL    HW138373   2.556   9.361   9.801  1.5255 -0.4594  0.8188
11998SOL    HW238374   2.586   9.220   9.848 -1.0907 -1.2305  0.3200
11999SOL     OW38375   3.206   2.770   2.780  0.2649  0.1538 -0.0932
11999SOL    HW138376   3.133   2.756   2.719 -0.3878  3.1388 -0.1575
11999SOL    HW238377   3.167   2.756   2.866  0.5568 -1.6228 -0.2110
12000SOL     OW38378   8.211   0.784   5.781  0.3961 -0.1923  0.5958
12000SOL    HW138379   8.136   0.842   5.795  0.7971  0.6467 -0.5451
12000SOL    HW238380   8.209   0.723   5.855 -2.5218 -1.4291 -0.3575
12001SOL     OW38381   6.952   7.500   9.120  0.4616 -0.0790  0.7396
12001SOL    HW138382   6.982   7.590   9.106 -1.2928  0.6415  1.3822
12001SOL    HW238383   7.032   7.451   9.139  1.4360  1.3716  0.5373
12002SOL     OW38384   8.764   7.278   7.900 -0.6132 -0.3520 -0.4222
12002SOL    HW138385   8.738   7.223   7.974  1.3225  0.6018  1.0594
12002SOL    HW238386   8.853   7.251   7.880 -0.3138  0.9362 -0.9264
12003SOL     OW38387   8.564   6.406   0.411  0.7062  0.0987  0.3040
12003SOL    HW138388   8.645   6.446   0.441  0.0585  1.5291  0.2034
12003SOL    HW238389   8.496   6.441   0.468 -0.1167  0.5010 -0.8660
12004SOL     OW38390   9.024   1.084   5.094  0.6832  0.5909  0.3886
12004SOL    HW138391   9.023   1.178   5.112  0.0993  0.6632 -0.0097
12004SOL    HW238392   8.935   1.054   5.115  1.5221 -0.3740  3.0861
12005SOL     OW38393   3.936   6.165   4.397  0.2098 -0.1805 -0.0903
12005SOL    HW138394   3.969   6.185   4.310  2.2662 -1.0144  0.4404
12005SOL    HW238395   3.933   6.069   4.400 -0.0567 -0.1558  0.6818
12006SOL     OW38396  10.622   1.690   9.495 -0.4385 -0.3185  0.2024
12006SOL    HW138397  10.542   1.741   9.482 -0.4944 -0.8138 -1.7007
12006SOL    HW238398  10.592   1.604   9.523 -0.4829 -0.0600  0.9524
12007SOL     OW38399   6.034   8.401   1.153  0.6510  0.0764  0.9891
12007SOL    HW138400   6.068   8.482   1.114 -0.5154  0.6962  1.2399
12007SOL    HW238401   6.022   8.342   1.079  0.0248  0.6797  0.6014
12008SOL     OW38402   2.459   5.051   7.937 -0.4780 -0.1519 -0.2589
12008SOL    HW138403   2.372   5.076   7.907 -0.7191  0.3504  0.8025
12008SOL    HW238404   2.519   5.101   7.881 -0.9099  0.7923  0.1048
12009SOL     OW38405   4.389   9.998   6.771  0.2475 -0.5175 -0.2884
12009SOL    HW138406   4.421  10.034   6.853  0.1866  1.1283 -0.9454
12009SOL    HW238407   4.319  10.058   6.744 -0.1161 -1.3379 -1.2692
12010SOL     OW38408   9.172   8.720   7.579  0.1544 -0.3380  0.5823
12010SOL    HW138409   9.101   8.656   7.569  0.5749 -0.4630 -2.6992
12010SOL    HW238410   9.248   8.668   7.607 -0.2778 -0.6971  1.1167
12011SOL     OW38411   9.048   4.134   9.268  1.4300  0.5425  0.1235
12011SOL    HW138412   9.025   4.041   9.267 -0.4719  0.9803  0.1436
12011SOL    HW238413   9.067   4.153   9.360 -1.2007  0.8075  0.6966
12012SOL     OW38414   0.696   2.080   4.713 -0.2489 -0.2934 -0.0502
12012SOL    HW138415   0.703   2.172   4.688 -0.1837 -0.6050 -1.2575
12012SOL    HW238416   0.617   2.075   4.766  0.2064  0.6005  0.7291
12013SOL     OW38417   2.431   9.918   6.640 -0.0168  0.1380 -0.4326
12013SOL    HW138418   2.384   9.999   6.653  0.0625 -0.1204  1.9839
12013SOL    HW238419   2.512   9.929   6.690  0.9792 -0.6533 -1.8000
12014SOL     OW38420   1.326   7.367   2.329  0.2776  0.5563 -0.2960
12014SOL    HW138421   1.311   7.384   2.422  0.4758 -0.0606 -0.1481
12014SOL    HW238422   1.320   7.454   2.288  0.0969  0.8215  0.2748
12015SOL     OW38423   7.669   4.714   1.700 -0.2915 -0.2647  0.2262
12015SOL    HW138424   7.703   4.670   1.622  0.7527  0.2120  0.4013
12015SOL    HW238425   7.595   4.659   1.727 -0.4730 -0.6107 -0.9064
12016SOL     OW38426   2.868   5.019   3.857  0.6492 -0.4148  0.2293
12016SOL    HW138427   2.892   4.995   3.946  0.6623  0.7332  0.5483
12016SOL    HW238428   2.945   5.064   3.822  0.8151 -1.2453 -0.5363
12017SOL     OW38429   0.486   8.758   3.696  0.6045 -0.4357 -0.4415
12017SOL    HW138430   0.563   8.705   3.677 -1.4509 -2.8907 -2.8220
12017SOL    HW238431   0.465   8.801   3.613 -1.8796 -1.7733 -0.5943
12018SOL     OW38432  10.560   7.203  10.756  0.0391  0.1703  0.0247
12018SOL    HW138433  10.557   7.121  10.707  0.0853  0.1697  0.0224
12018SOL    HW238434  10.474   7.211  10.796  0.7605 -1.0454  1.9377
12019SOL     OW38435   3.879   8.576   2.563  0.2507  0.0849 -0.2182
12019SOL    HW138436   3.820   8.502   2.552 -0.4519  0.4201  1.1005
12019SOL    HW238437   3.929   8.556   2.642  0.2080  0.9110  0.0297
12020SOL     OW38438   2.739   0.962   6.225  0.1390  0.1508  0.5913
12020SOL    HW138439   2.776   1.033   6.278  1.9797  0.0012 -0.4228
12020SOL    HW238440   2.770   0.882   6.268  1.9448  0.0306 -0.8565
12021SOL     OW38441   3.012   5.457   4.099 -0.0880  0.1512  0.3996
12021SOL    HW138442   2.959   5.377   4.098  0.6286 -0.3340  0.1755
12021SOL    HW238443   3.005   5.491   4.010 -0.0919  0.1332  0.3930
12022SOL     OW38444   3.532   7.058   6.337  0.3380 -0.0998  0.0585
12022SOL    HW138445   3.522   6.968   6.306  1.5616 -0.0036 -0.6755
12022SOL    HW238446   3.609   7.091   6.291  0.5512  0.9759  1.1399
12023SOL     OW38447   1.479   7.022   2.128  0.5191 -0.9172  0.4846
12023SOL    HW138448   1.448   6.936   2.098  2.1176 -1.8353  1.3428
12023SOL    HW238449   1.520   7.061   2.051 -0.0909 -0.9651  0.1267
12024SOL     OW38450   1.099   0.339   3.944 -0.1392 -0.0952  0.1184
12024SOL    HW138451   1.113   0.281   3.869 -2.7599 -1.7917  0.8299
12024SOL    HW238452   1.063   0.419   3.907 -2.2064 -1.2274 -0.4619
12025SOL     OW38453   3.362   3.437   3.743  0.0402  0.3534 -0.4032
12025SOL    HW138454   3.348   3.460   3.651 -0.6363 -0.6438 -0.5602
12025SOL    HW238455   3.307   3.499   3.791  0.6541  1.1003 -0.6355
12026SOL     OW38456   5.570   7.508   6.805 -0.1352  0.3408  0.3155
12026SOL    HW138457   5.560   7.485   6.712  0.9945  0.2259  0.2161
12026SOL    HW238458   5.650   7.464   6.832 -1.1630 -0.7481  1.7219
12027SOL     OW38459   1.960   9.528   6.312 -0.3635  0.1417 -1.1431
12027SOL    HW138460   1.976   9.448   6.364  2.1415  1.0305 -0.3863
12027SOL    HW238461   2.018   9.593   6.351 -0.4100  1.6225 -3.3812
12028SOL     OW38462   9.908   9.142   5.886  0.4432 -0.1397  0.2164
12028SOL    HW138463   9.813   9.132   5.894  0.4713 -0.5279  0.1027
12028SOL    HW238464   9.920   9.225   5.841  0.1382 -0.3137 -0.1920
12029SOL     OW38465   0.318  10.174   3.612  0.7909  0.1305  0.2298
12029SOL    HW138466   0.232  10.152   3.649  0.7030 -1.7335 -0.9501
12029SOL    HW238467   0.300  10.241   3.546  0.3429  0.2071  0.4250
12030SOL     OW38468   6.261   9.467   6.181  0.4591  0.2932 -0.0675
12030SOL    HW138469   6.236   9.415   6.105  0.8911  0.4390 -0.3120
12030SOL    HW238470   6.287   9.403   6.247  1.7631  0.2061 -0.6369
12031SOL     OW38471  10.080   4.108   7.742  0.1841  0.0365  0.6903
12031SOL    HW138472  10.149   4.057   7.700 -0.1714 -0.3580  0.5802
12031SOL    HW238473  10.026   4.043   7.786 -0.0808  0.3507  0.8292
12032SOL     OW38474  10.088   5.679   8.504 -0.1897 -0.7053  0.0515
12032SOL    HW138475  10.145   5.744   8.543 -1.6347  0.7462 -0.1587
12032SOL    HW238476  10.003   5.693   8.545 -0.5948 -2.3649 -0.1299
12033SOL     OW38477   3.078   3.322   9.960 -0.8237  1.0008  0.2593
12033SOL    HW138478   3.010   3.379   9.925 -1.6571 -0.6001 -0.8845
12033SOL    HW238479   3.048   3.233   9.939  1.7718  0.2304 -0.6539
12034SOL     OW38480   5.797   6.380   8.003  1.0648  0.5625 -0.2033
12034SOL    HW138481   5.765   6.401   7.915  2.9975 -1.6522 -1.5698
12034SOL    HW238482   5.719   6.383   8.058 -0.5135  0.5424 -2.2934
12035SOL     OW38483   8.431   0.220   8.459  0.5661  0.6555 -0.4677
12035SOL    HW138484   8.357   0.182   8.412  1.3629 -0.5697 -0.7838
12035SOL    HW238485   8.447   0.304   8.416 -1.3742  1.5133  0.3889
12036SOL     OW38486   9.731   8.248   5.194 -0.4470  0.6526 -0.4100
12036SOL    HW138487   9.816   8.233   5.153  0.3517  0.5494  1.1822
12036SOL    HW238488   9.716   8.342   5.183  0.0023  0.7200 -0.4829
12037SOL     OW38489   9.727   6.980   2.685 -0.2175  0.4197 -0.1518
12037SOL    HW138490   9.771   6.966   2.601  0.7480 -1.9848  0.6668
12037SOL    HW238491   9.693   6.894   2.709  0.5972  0.7339  2.4783
12038SOL     OW38492   2.049   6.655   3.094 -0.0347  0.1137 -0.5429
12038SOL    HW138493   2.073   6.669   3.185  0.7186 -0.8408 -0.5690
12038SOL    HW238494   1.977   6.592   3.097  0.6834 -0.7317 -0.6264
12039SOL     OW38495   3.429   0.273   8.100 -0.5119 -0.3776 -0.2454
12039SOL    HW138496   3.365   0.207   8.129 -1.4756 -0.4233 -2.3092
12039SOL    HW238497   3.475   0.298   8.180 -2.1468 -1.3869  1.0846
12040SOL     OW38498   3.831   0.230   4.832 -0.0294  0.3824 -0.5019
12040SOL    HW138499   3.824   0.283   4.753 -0.0037  0.9144 -0.1475
12040SOL    HW238500   3.917   0.252   4.868 -1.4412  2.8670  1.6189
12041SOL     OW38501   0.890   5.598   7.407 -0.5813 -0.9271 -0.1343
12041SOL    HW138502   0.958   5.597   7.474  0.1576  1.0116 -0.7895
12041SOL    HW238503   0.918   5.532   7.344  0.8098 -0.0780 -0.4587
12042SOL     OW38504   1.825   5.141   2.511 -0.1981 -0.2988  0.4212
12042SOL    HW138505   1.823   5.222   2.461  0.4851 -0.2437  0.4634
12042SOL    HW238506   1.904   5.149   2.565 -0.9502 -0.3287  1.5599
12043SOL     OW38507   5.559   5.603   9.654 -0.1951 -0.1256  0.1438
12043SOL    HW138508   5.638   5.620   9.705  0.9219 -0.8343 -1.3154
12043SOL    HW238509   5.492   5.583   9.721  0.8436  0.3913  1.3888
12044SOL     OW38510   9.013   5.991   6.829  0.4268 -0.2472 -0.8288
12044SOL    HW138511   8.975   6.072   6.795 -0.4282  0.5395  1.7460
12044SOL    HW238512   9.076   6.020   6.895 -0.3859 -1.6239  0.6226
12045SOL     OW38513   8.032   8.602   3.680 -0.1273 -0.4212  0.6145
12045SOL    HW138514   7.980   8.527   3.708  1.4781 -1.5793  0.6480
12045SOL    HW238515   8.062   8.642   3.761 -1.2171  0.4663  0.6030
12046SOL     OW38516   9.392   1.809   1.022  0.7211  0.1395  0.2616
12046SOL    HW138517   9.473   1.781   0.981  0.0394 -0.9761 -0.3941
12046SOL    HW238518   9.324   1.760   0.976 -0.1056 -1.1297  2.6386
12047SOL     OW38519   0.154   3.412   4.600  0.4888 -0.2403  0.1802
12047SOL    HW138520   0.195   3.427   4.515 -0.7995  1.4199 -0.1918
12047SOL    HW238521   0.136   3.499   4.635 -0.4805 -0.8974  1.4332
12048SOL     OW38522   6.242  10.633   6.745 -0.1767 -0.2161  0.8291
12048SOL    HW138523   6.312  10.654   6.683  0.4761 -1.6103  1.0338
12048SOL    HW238524   6.161  10.648   6.697  0.2721  0.9979  0.4377
12049SOL     OW38525   8.195   1.434  10.341  0.3301 -0.2752  0.2387
12049SOL    HW138526   8.237   1.420  10.256  0.6248  0.7151  0.2099
12049SOL    HW238527   8.113   1.478  10.320  0.0988 -0.6068  0.4303
12050SOL     OW38528   9.613   9.865   5.157  0.2284 -0.7407  0.2484
12050SOL    HW138529   9.642   9.827   5.074 -0.8764  0.6121 -0.8162
12050SOL    HW238530   9.570   9.793   5.203 -0.4274 -1.1726 -1.0049
12051SOL     OW38531   5.427  10.326   8.757  0.5630  0.0168  0.1059
12051SOL    HW138532   5.366  10.391   8.722 -0.0542  0.1353  1.3317
12051SOL    HW238533   5.478  10.373   8.822 -2.2223 -1.2889  3.6331
12052SOL     OW38534   3.518   9.034   6.854  0.1166 -0.6738 -0.3157
12052SOL    HW138535   3.487   8.944   6.860  0.9371 -0.9164  0.5506
12052SOL    HW238536   3.529   9.063   6.944 -0.7619  0.5364 -0.5688
12053SOL     OW38537   5.339   1.012   8.908 -0.4819 -0.4522 -0.4727
12053SOL    HW138538   5.383   1.025   8.824 -0.8723 -0.0772 -0.6192
12053SOL    HW238539   5.409   0.980   8.966 -0.1664 -0.5163 -0.8830
12054SOL     OW38540   6.697   1.892   4.252  0.1343  0.0393 -0.6920
12054SOL    HW138541   6.745   1.810   4.248  0.4131  0.1884 -0.4132
12054SOL    HW238542   6.691   1.921   4.161 -1.8495 -1.3678 -1.0661
12055SOL     OW38543   9.416   4.636   6.086  0.3521  0.2677  0.1936
12055SOL    HW138544   9.440   4.597   6.002  0.6107  0.9203 -0.0407
12055SOL    HW238545   9.451   4.577   6.152  0.7741  0.1258 -0.1571
12056SOL     OW38546   8.139   4.133   8.514  0.0137 -0.1876  0.0291
12056SOL    HW138547   8.199   4.179   8.573  1.1363  0.2939 -1.4088
12056SOL    HW238548   8.052   4.153   8.548  0.5660  1.2370  0.7063
12057SOL     OW38549  10.371  10.482   4.738 -0.0869 -0.1833  0.4016
12057SOL    HW138550  10.402  10.571   4.725  0.2318 -0.1852  1.0817
12057SOL    HW238551  10.439  10.441   4.792 -1.0663 -0.3119  1.5749
12058SOL     OW38552   4.207  10.147   3.605  0.0835 -0.3635  0.5605
12058SOL    HW138553   4.128  10.104   3.637  0.4070 -0.1501  1.6851
12058SOL    HW238554   4.185  10.240   3.605 -0.5407 -0.4406 -1.6614
12059SOL     OW38555   0.559   7.765   3.028 -0.1778 -0.0316  0.3133
12059SOL    HW138556   0.627   7.823   3.064 -0.1470  0.2924 -0.2511
12059SOL    HW238557   0.593   7.739   2.943 -0.3706 -0.5764  0.4003
12060SOL     OW38558  10.106   3.389   7.344  0.2563  0.3275 -0.4782
12060SOL    HW138559  10.180   3.448   7.357  0.8007 -0.1268 -1.4157
12060SOL    HW238560  10.029   3.440   7.370  0.9827  0.3509  1.8647
12061SOL     OW38561   7.303  10.322   5.035 -0.2722  0.6869 -0.4113
12061SOL    HW138562   7.242  10.286   5.100  0.5866  0.5084  0.3095
12061SOL    HW238563   7.279  10.415   5.029  0.6021  1.0775  1.3240
12062SOL     OW38564   8.710   8.670   1.716 -0.3229  0.0617  0.0633
12062SOL    HW138565   8.614   8.665   1.706 -0.5075  0.9318  1.1278
12062SOL    HW238566   8.742   8.585   1.686 -1.0674  0.9662 -3.7709
12063SOL     OW38567   2.528   9.652   7.418 -0.3824 -0.2329 -0.4071
12063SOL    HW138568   2.456   9.676   7.360 -0.9624 -0.5939  0.1556
12063SOL    HW238569   2.486   9.622   7.499  0.3769  3.5275  1.6107
12064SOL     OW38570   1.379   4.971   4.975  0.2528 -0.3117 -0.5034
12064SOL    HW138571   1.455   4.928   4.934  1.2217 -0.3656  1.2687
12064SOL    HW238572   1.402   4.978   5.067 -2.2640 -1.0939  0.2640
12065SOL     OW38573   4.017   3.561   6.357 -0.2559  0.0393 -0.1254
12065SOL    HW138574   3.977   3.475   6.348  0.7854 -0.2685 -2.2724
12065SOL    HW238575   3.944   3.622   6.346 -0.6692 -0.5313 -0.6166
12066SOL     OW38576   7.501   9.914   2.413  0.6130  0.8078 -0.5209
12066SOL    HW138577   7.572   9.884   2.469 -1.1081  0.5871  1.6782
12066SOL    HW238578   7.486  10.005   2.439 -1.3089  0.2152  0.7064
12067SOL     OW38579   5.611   9.378   4.285  0.1602  0.1614 -0.2637
12067SOL    HW138580   5.556   9.393   4.209 -0.2724  1.7712  0.3297
12067SOL    HW238581   5.671   9.308   4.258 -1.6267 -1.0988 -1.1824
12068SOL     OW38582   1.320   5.299   5.980 -0.3755 -0.5814  0.0732
12068SOL    HW138583   1.230   5.289   5.948 -0.4113 -0.2702  0.0801
12068SOL    HW238584   1.313   5.362   6.052 -0.0768 -0.1635 -0.2581
12069SOL     OW38585   7.041  10.559   8.125 -0.2803 -0.2131  0.9469
12069SOL    HW138586   7.012  10.498   8.057  1.2470 -0.4548  0.4856
12069SOL    HW238587   6.960  10.594   8.161 -1.1621  1.2561 -2.1540
12070SOL     OW38588   4.516   7.570   1.093  0.4485 -0.4469 -0.7187
12070SOL    HW138589   4.604   7.593   1.062  0.8053  0.0704  0.6039
12070SOL    HW238590   4.493   7.492   1.044  1.9335 -0.9827 -0.6159
12071SOL     OW38591   1.435   2.193   5.152 -0.0394 -0.3198  0.6133
12071SOL    HW138592   1.512   2.199   5.094 -0.1309 -0.5991  0.4595
12071SOL    HW238593   1.461   2.239   5.231 -0.6911  2.0887 -0.4575
12072SOL     OW38594   4.032   5.823   1.388 -0.3898  0.3729 -0.4415
12072SOL    HW138595   4.109   5.866   1.426 -0.9222  0.0367  1.1105
12072SOL    HW238596   4.043   5.731   1.409 -0.2770  0.0279 -1.9312
12073SOL     OW38597   9.674   4.830   0.180  0.3699 -0.3382 -0.8988
12073SOL    HW138598   9.644   4.822   0.271  0.6843  0.1672 -0.7523
12073SOL    HW238599   9.747   4.769   0.173  0.9753  0.3294 -0.5389
12074SOL     OW38600   3.770  10.240   3.879  0.2938  0.1550  0.4036
12074SOL    HW138601   3.744  10.317   3.930 -0.0522  1.0625 -1.0709
12074SOL    HW238602   3.701  10.230   3.813  0.9070 -0.7409 -0.1268
12075SOL     OW38603   8.100  10.190   7.458 -0.4498 -0.1543  0.4855
12075SOL    HW138604   8.022  10.242   7.478 -0.5139 -0.1174  0.1419
12075SOL    HW238605   8.173  10.244   7.488 -0.5282  0.0430  0.3203
12076SOL     OW38606   7.318   9.387   7.796  0.1090 -0.1052  0.0541
12076SOL    HW138607   7.333   9.348   7.882 -0.1631  0.3647  0.3164
12076SOL    HW238608   7.370   9.334   7.736  1.2466  0.2990  0.6655
12077SOL     OW38609   8.274   7.444   4.159 -0.2419 -0.0960  0.3155
12077SOL    HW138610   8.246   7.372   4.215 -0.0182 -0.3537  0.1020
12077SOL    HW238611   8.239   7.523   4.200 -2.0166 -0.4656 -0.3977
12078SOL     OW38612   7.594   0.647   2.559  0.2541 -0.3103  0.1483
12078SOL    HW138613   7.512   0.666   2.605 -0.4206 -1.3168 -0.5681
12078SOL    HW238614   7.630   0.571   2.604 -0.2592 -1.1144 -0.7431
12079SOL     OW38615   0.703   7.060   9.926  0.7001 -0.4729  0.3666
12079SOL    HW138616   0.615   7.032   9.950  1.0967 -1.3533  0.8455
12079SOL    HW238617   0.751   7.063  10.010  0.5493  2.2199  0.4509
12080SOL     OW38618   9.124   6.979   7.083 -0.2136  0.0258 -0.3681
12080SOL    HW138619   9.203   6.926   7.090  0.2784  0.7836 -0.0057
12080SOL    HW238620   9.155   7.069   7.095 -1.3854  0.2173  1.6526
12081SOL     OW38621   2.438   2.414   3.018 -0.4160 -0.2479 -0.4230
12081SOL    HW138622   2.343   2.426   3.019 -0.4345 -0.1766  1.9981
12081SOL    HW238623   2.450   2.320   3.000 -0.9510 -0.2694 -0.6887
12082SOL     OW38624   0.579   0.806   9.027 -0.0437  0.7507  0.3450
12082SOL    HW138625   0.483   0.801   9.022  0.0420 -0.4362 -0.5918
12082SOL    HW238626   0.605   0.725   9.071  0.6054  0.0450 -1.2173
12083SOL     OW38627   5.610   7.982   8.356 -0.1915 -0.0104  0.2016
12083SOL    HW138628   5.636   8.070   8.331 -0.6347  0.0591 -0.0377
12083SOL    HW238629   5.690   7.930   8.348 -0.3022  0.0036 -1.4232
12084SOL     OW38630  10.469  10.213   4.811  0.0937  0.1105 -0.0756
12084SOL    HW138631  10.550  10.231   4.859 -0.9815  0.5482  1.6964
12084SOL    HW238632  10.416  10.162   4.872 -1.1698  0.2817 -0.9790
12085SOL     OW38633   5.828   3.316   0.018  0.3138  0.4068 -0.0513
12085SOL    HW138634   5.850   3.226   0.042  0.2594  0.6056  0.7775
12085SOL    HW238635   5.836   3.365   0.100 -2.2832  0.6535  0.1509
12086SOL     OW38636   4.089   8.669  10.231  0.3767 -0.2070  0.3128
12086SOL    HW138637   4.088   8.710  10.317  0.3559 -0.3422  0.3783
12086SOL    HW238638   4.018   8.711  10.182 -1.7270 -2.2604  1.3729
12087SOL     OW38639   2.572   3.620   4.761  0.6248  0.2699  0.0854
12087SOL    HW138640   2.655   3.576   4.780  0.0353 -0.5789  0.7685
12087SOL    HW238641   2.549   3.665   4.842 -1.4606 -2.6602  1.3059
12088SOL     OW38642   5.483  10.049   0.227 -0.0142  0.2991  0.4977
12088SOL    HW138643   5.500  10.143   0.216 -0.4701  0.3850  0.5202
12088SOL    HW238644   5.456  10.019   0.141 -0.5628  0.3359  0.6537
12089SOL     OW38645   5.968   1.096   2.879 -0.5618  0.3118  0.7148
12089SOL    HW138646   6.054   1.095   2.920 -0.5980 -1.8888  0.8845
12089SOL    HW238647   5.950   1.188   2.861  1.6846  0.8418  0.9526
12090SOL     OW38648   0.428   0.369   3.057  0.4864 -0.6868  0.0314
12090SOL    HW138649   0.366   0.349   3.127  0.8493  0.1987  0.6198
12090SOL    HW238650   0.468   0.285   3.037 -1.4286 -1.4398 -0.9059
12091SOL     OW38651   4.793   2.334   2.833  0.2229  0.2874  0.0541
12091SOL    HW138652   4.804   2.246   2.869  1.0053  0.1637 -0.4642
12091SOL    HW238653   4.769   2.388   2.908 -1.8519 -0.6395  0.1237
12092SOL     OW38654  10.150   6.171   6.682  0.5828  0.3985  0.0673
12092SOL    HW138655  10.109   6.234   6.741 -0.6889  0.5765 -0.9698
12092SOL    HW238656  10.239   6.161   6.716  0.1108  1.0303  1.5818
12093SOL     OW38657   8.698  10.195  10.013 -0.0946  0.5597  0.1840
12093SOL    HW138658   8.757  10.222  10.083  0.2173  0.5005 -0.0567
12093SOL    HW238659   8.755  10.176   9.939 -0.4432  0.8834 -0.1710
12094SOL     OW38660   2.911   1.446   6.153  0.1690  1.1160  0.3995
12094SOL    HW138661   2.931   1.488   6.236  0.7819  2.3814 -0.3574
12094SOL    HW238662   2.989   1.394   6.133 -0.0003  0.7676  0.6244
12095SOL     OW38663   1.653   5.606   7.384 -0.0519  0.2913  0.6187
12095SOL    HW138664   1.661   5.682   7.326  0.3690  0.8069  1.3427
12095SOL    HW238665   1.721   5.546   7.353  1.1018  1.1382  1.4118
12096SOL     OW38666   8.445   9.109  10.771  0.0126 -0.0059  0.2746
12096SOL    HW138667   8.441   9.125  10.677  0.9105 -0.5653  0.1269
12096SOL    HW238668   8.433   9.195  10.811 -0.0158  0.2888 -0.3622
12097SOL     OW38669   4.516   3.736   0.175 -0.3878  0.1558 -0.6276
12097SOL    HW138670   4.488   3.709   0.087 -0.3776  2.3528 -1.3783
12097SOL    HW238671   4.608   3.760   0.164 -0.5863  1.1680 -0.2184
12098SOL     OW38672   7.280   4.988   6.663 -0.0767  0.1255  0.0552
12098SOL    HW138673   7.319   5.068   6.698  2.0810 -1.4871  1.6274
12098SOL    HW238674   7.285   4.925   6.735  0.3163 -2.0509 -1.7494
12099SOL     OW38675   9.064   0.970   4.853  0.1841  0.4868 -0.1288
12099SOL    HW138676   9.075   0.876   4.869  0.5418  0.4161 -0.7559
12099SOL    HW238677   9.044   1.007   4.939 -0.5029 -0.2435  0.0335
12100SOL     OW38678   4.191   4.415   0.197 -0.1709 -0.4129 -0.1950
12100SOL    HW138679   4.247   4.474   0.247 -0.1131 -0.3323 -0.3526
12100SOL    HW238680   4.112   4.466   0.179 -0.2647 -0.5023 -0.0319
12101SOL     OW38681  10.177   1.952   8.484 -0.1178  0.2895  0.2389
12101SOL    HW138682  10.243   2.001   8.534 -0.4128  2.4209 -1.3102
12101SOL    HW238683  10.123   1.909   8.551 -0.3008  2.7419  1.8119
12102SOL     OW38684   8.553   9.841   3.443  0.3008 -0.1688 -0.0960
12102SOL    HW138685   8.469   9.796   3.453  0.9963 -1.6119 -0.3704
12102SOL    HW238686   8.531   9.928   3.410 -1.1226 -0.2460  0.6141
12103SOL     OW38687   6.807   5.847   1.512  0.6256  0.2585  0.2640
12103SOL    HW138688   6.873   5.907   1.478  2.4891  0.1193  3.2221
12103SOL    HW238689   6.744   5.903   1.557  1.5857  0.1619  1.7978
12104SOL     OW38690   9.936   4.927   1.060 -0.8364  0.1837  0.2428
12104SOL    HW138691  10.022   4.894   1.083 -1.5564 -0.1987  2.6840
12104SOL    HW238692   9.931   5.014   1.102 -1.5040  0.3423 -0.1420
12105SOL     OW38693   9.671   7.206  10.044  0.1035  0.1664 -0.4032
12105SOL    HW138694   9.727   7.283  10.050 -0.3597  0.5293 -0.6511
12105SOL    HW238695   9.591   7.231  10.091 -0.2089 -0.0179 -0.8354
12106SOL     OW38696   4.623   5.128   6.067 -0.5057 -0.4244 -0.0956
12106SOL    HW138697   4.605   5.173   5.985 -0.0365  0.6981  0.3846
12106SOL    HW238698   4.620   5.198   6.133 -1.1867 -1.3445  0.8837
12107SOL     OW38699   8.141   8.519   7.607  0.1293 -0.0730  0.0012
12107SOL    HW138700   8.153   8.551   7.697 -1.0691  0.5704 -0.0596
12107SOL    HW238701   8.176   8.430   7.609 -0.9710 -0.5037  1.4207
12108SOL     OW38702   5.027   0.180   6.436 -0.4867  0.0090 -0.0083
12108SOL    HW138703   5.014   0.272   6.459 -4.1541  0.1145 -1.7681
12108SOL    HW238704   5.010   0.132   6.517 -0.4562  0.7912  0.4724
12109SOL     OW38705   2.187   8.985   2.371  0.1952 -0.0417  0.3402
12109SOL    HW138706   2.181   9.054   2.437 -0.5446  0.8646 -0.6389
12109SOL    HW238707   2.281   8.974   2.357  0.4264 -1.1135  2.3851
12110SOL     OW38708   2.381  10.639  10.672  0.0753  0.5319 -0.3332
12110SOL    HW138709   2.296  10.681  10.689  0.8019  1.4092  1.3029
12110SOL    HW238710   2.394  10.651  10.578 -0.7276  2.1174 -0.2824
12111SOL     OW38711   5.541   2.089   0.264 -0.2258  0.6879 -0.1330
12111SOL    HW138712   5.555   2.108   0.356  2.1497 -0.3338 -0.1926
12111SOL    HW238713   5.618   2.126   0.220  0.7570 -2.2223 -1.1274
12112SOL     OW38714   2.516   7.645   1.530  0.2885 -0.0897 -0.3853
12112SOL    HW138715   2.434   7.686   1.500 -0.4704  0.0580  1.7042
12112SOL    HW238716   2.585   7.704   1.500 -0.5285  0.7753 -0.6078
12113SOL     OW38717   1.629   2.401   0.002 -0.0945  0.0988  0.3290
12113SOL    HW138718   1.536   2.409   0.024 -0.2478 -3.0318  1.2249
12113SOL    HW238719   1.644   2.307  -0.007  2.9607  0.5195 -0.0782
12114SOL     OW38720   8.357   2.147   9.430 -0.1291 -0.5736  0.6716
12114SOL    HW138721   8.405   2.227   9.408 -0.1062 -0.9105 -0.5289
12114SOL    HW238722   8.380   2.131   9.522  1.6190 -0.4259  0.2930
12115SOL     OW38723   8.809   4.142   2.748  0.1013  0.6492 -0.2049
12115SOL    HW138724   8.868   4.199   2.797 -0.3206  0.9448 -0.0318
12115SOL    HW238725   8.855   4.058   2.743 -0.9007 -0.2652  3.0451
12116SOL     OW38726   1.838   9.872  10.360 -0.1236 -0.4553  0.0812
12116SOL    HW138727   1.885   9.798  10.322  0.1025 -0.8132  1.0528
12116SOL    HW238728   1.794   9.837  10.437 -1.7602 -0.0591 -0.6144
12117SOL     OW38729   0.256   5.475   8.557  0.1145 -0.0998  0.3803
12117SOL    HW138730   0.258   5.451   8.650  0.1369  1.2205  0.7507
12117SOL    HW238731   0.260   5.392   8.510  2.1696 -0.7489  1.5522
12118SOL     OW38732   1.045   5.260   5.885  0.0031  0.3677  0.5010
12118SOL    HW138733   0.995   5.333   5.848  0.1485 -0.2292 -0.9556
12118SOL    HW238734   0.979   5.203   5.924 -1.0086 -1.8117 -3.7606
12119SOL     OW38735   6.857   0.819   4.472  0.0699  0.0873  0.0299
12119SOL    HW138736   6.926   0.822   4.406  0.7806 -0.2764  0.7323
12119SOL    HW238737   6.845   0.909   4.500  0.5222  0.1064  0.1638
12120SOL     OW38738   3.738   5.659   3.636  0.1658 -0.4903  0.2141
12120SOL    HW138739   3.752   5.730   3.699 -1.9915 -0.1808  0.4310
12120SOL    HW238740   3.699   5.588   3.688  1.0887 -1.3647 -0.2501
12121SOL     OW38741   1.455   8.625   7.564 -0.0528  0.0382 -0.2059
12121SOL    HW138742   1.379   8.572   7.537 -0.2361 -0.2493  0.8484
12121SOL    HW238743   1.531   8.578   7.529 -0.1165 -1.6312  1.7503
12122SOL     OW38744   7.496   0.411   4.069 -0.0603  0.1213 -0.1781
12122SOL    HW138745   7.525   0.337   4.015  0.3342  1.1335 -1.4395
12122SOL    HW238746   7.577   0.459   4.087 -0.3133  0.2573  0.6073
12123SOL     OW38747   3.301   7.443   3.268 -0.1385 -0.3810  0.6398
12123SOL    HW138748   3.242   7.369   3.272  1.7357 -2.0830 -0.8765
12123SOL    HW238749   3.315   7.469   3.359 -1.5394 -1.2838  1.1279
12124SOL     OW38750   0.305   7.058   1.957  0.5057  0.4894 -0.5476
12124SOL    HW138751   0.321   7.080   1.865 -0.9829  0.3147 -0.8720
12124SOL    HW238752   0.273   6.968   1.955  1.1750  0.2251  0.2251
12125SOL     OW38753   9.217  10.769   5.759 -0.3352 -0.8609  0.2279
12125SOL    HW138754   9.266  10.828   5.701  0.6678  0.1547  2.0072
12125SOL    HW238755   9.277  10.696   5.775 -1.0935 -1.7914 -0.9490
12126SOL     OW38756   3.997   7.742   9.754 -0.2297 -0.1197  0.3554
12126SOL    HW138757   4.005   7.780   9.842  2.1214  1.9828 -0.6537
12126SOL    HW238758   3.999   7.817   9.695  1.0574 -1.6092 -1.6216
12127SOL     OW38759   9.591   9.509   1.672 -0.6736 -0.1607  0.7348
12127SOL    HW138760   9.593   9.600   1.642  1.2343 -0.6983 -0.9169
12127SOL    HW238761   9.624   9.513   1.762  2.5596  0.5074 -0.3452
12128SOL     OW38762   2.047   7.498   7.418  0.2075  0.0122  0.1839
12128SOL    HW138763   2.004   7.578   7.445 -1.9608 -0.4947 -1.4878
12128SOL    HW238764   2.075   7.456   7.500 -3.0303  0.1206  1.4834
12129SOL     OW38765   7.518   1.732   2.490 -0.4047  0.2188  0.3756
12129SOL    HW138766   7.475   1.695   2.412 -0.7292 -0.4756  0.8722
12129SOL    HW238767   7.582   1.794   2.454 -0.7656  0.1436 -0.4341
12130SOL     OW38768   0.019   4.631   3.218 -0.4027  0.4781 -0.0022
12130SOL    HW138769   0.107   4.662   3.199 -0.7570  1.6672  0.1596
12130SOL    HW238770  -0.037   4.707   3.200 -1.2333  0.2030  1.2353
12131SOL     OW38771   5.132   9.746   2.016 -0.0316 -0.4180  0.1669
12131SOL    HW138772   5.182   9.812   1.969 -1.8833  0.9127 -0.0400
12131SOL    HW238773   5.128   9.779   2.106  0.7320 -1.2859  0.5274
12132SOL     OW38774   8.270   6.063   4.768 -0.3162 -1.0426  0.3817
12132SOL    HW138775   8.318   5.985   4.741  0.1712 -0.6066 -0.0265
12132SOL    HW238776   8.330   6.111   4.825 -0.2003 -0.4263 -0.2409
12133SOL     OW38777   4.034   7.140   5.462  0.1473 -0.2312  0.2182
12133SOL    HW138778   4.073   7.080   5.399  2.4153  0.6383  0.7104
12133SOL    HW238779   4.022   7.087   5.541  1.4667 -0.2471  0.4288
12134SOL     OW38780  10.434   6.971   6.103  0.3706  0.4340  0.3343
12134SOL    HW138781  10.415   6.953   6.195  0.8029  0.8125  0.5033
12134SOL    HW238782  10.392   7.056   6.086 -2.2085 -0.9301 -0.6332
12135SOL     OW38783   0.114   1.576   6.732 -0.0144  0.7970  0.0498
12135SOL    HW138784   0.090   1.555   6.642 -0.6313  1.4949  0.0398
12135SOL    HW238785   0.209   1.588   6.730  0.9209 -4.1885  0.5106
12136SOL     OW38786   9.182   0.255   3.743 -0.1635  0.3181  0.4788
12136SOL    HW138787   9.195   0.211   3.827  0.6312  0.2828  0.3366
12136SOL    HW238788   9.269   0.283   3.716 -0.4327  0.4508 -0.2734
12137SOL     OW38789   4.698   2.198   7.353 -0.0537  0.0109  0.3993
12137SOL    HW138790   4.617   2.233   7.389 -1.2141 -2.2937  0.2310
12137SOL    HW238791   4.729   2.137   7.420  1.1537  0.3212  0.1406
12138SOL     OW38792   7.928   5.526   0.442  0.7718 -0.0952 -0.0351
12138SOL    HW138793   7.843   5.516   0.400  1.4995 -1.3481 -1.2960
12138SOL    HW238794   7.910   5.521   0.535 -0.4157 -1.4973 -0.3174
12139SOL     OW38795   8.931   6.833   7.535  0.4498  0.7435 -0.0577
12139SOL    HW138796   8.847   6.877   7.546 -0.9937 -0.8792 -3.2380
12139SOL    HW238797   8.920   6.750   7.582  0.0010  0.2959 -0.9205
12140SOL     OW38798   2.473   6.971   7.897 -0.3055  0.2070  0.1489
12140SOL    HW138799   2.403   6.920   7.938 -1.2074  0.9728 -0.4077
12140SOL    HW238800   2.501   7.032   7.966 -1.5200  1.1924 -0.1827
12141SOL     OW38801   8.181   3.341   8.191 -0.0739  0.4639 -0.4885
12141SOL    HW138802   8.125   3.305   8.122 -0.5868  0.0033  0.1519
12141SOL    HW238803   8.261   3.368   8.146  0.2527 -1.2793 -1.0405
12142SOL     OW38804   2.642   9.312   4.559 -0.1064  0.1622 -0.2291
12142SOL    HW138805   2.605   9.399   4.547 -0.8067 -0.2171 -0.9847
12142SOL    HW238806   2.721   9.326   4.610 -0.1353  1.2542 -0.4581
12143SOL     OW38807   8.805   2.804   6.831  0.1973  0.3265  0.4585
12143SOL    HW138808   8.870   2.822   6.898  2.0440 -0.6906 -0.9599
12143SOL    HW238809   8.810   2.879   6.771  0.1718  0.1737  0.2620
12144SOL     OW38810  10.392   9.533   9.276  0.2046  0.0514 -0.1414
12144SOL    HW138811  10.466   9.590   9.296  0.9634 -1.1360  0.5541
12144SOL    HW238812  10.409   9.501   9.188 -0.5849  1.4068 -0.8172
12145SOL     OW38813   5.383   0.813   9.813 -0.0098  0.5031  0.3864
12145SOL    HW138814   5.402   0.851   9.899  0.1431  0.2378  0.4679
12145SOL    HW238815   5.379   0.889   9.754  1.0353  0.6036  0.4137
12146SOL     OW38816   9.436   3.586   9.109 -0.6567  0.2421 -0.0913
12146SOL    HW138817   9.443   3.495   9.137 -0.8986  0.0196 -0.7609
12146SOL    HW238818   9.512   3.629   9.150  0.3506 -0.5817 -1.0280
12147SOL     OW38819  10.473   3.576   6.481  0.2514 -0.7548 -0.2660
12147SOL    HW138820  10.463   3.485   6.451  1.1222 -0.5618 -1.1514
12147SOL    HW238821  10.511   3.622   6.407 -2.2099  0.8584 -0.6298
12148SOL     OW38822   5.523   6.246   6.738 -0.0797 -0.1951 -0.0350
12148SOL    HW138823   5.526   6.258   6.833  0.6865 -2.9469  0.3789
12148SOL    HW238824   5.431   6.229   6.718  0.0110 -1.4026  0.5172
12149SOL     OW38825   4.759   6.368   1.866 -0.1552  0.0263 -0.5780
12149SOL    HW138826   4.752   6.411   1.780 -0.2600  0.5056 -0.3309
12149SOL    HW238827   4.689   6.407   1.918 -0.2659 -0.4647 -0.3559
12150SOL     OW38828   6.542   5.693   9.374 -0.5181  0.3707 -0.0660
12150SOL    HW138829   6.449   5.672   9.381 -0.3173 -0.1205  1.6007
12150SOL    HW238830   6.587   5.612   9.396  0.2988  0.7015 -0.4919
12151SOL     OW38831   1.037   6.335   3.277  0.0851  0.0636  0.1492
12151SOL    HW138832   1.049   6.253   3.325  1.3099  0.4837  0.5973
12151SOL    HW238833   1.123   6.353   3.238 -0.4568  0.5749 -0.8580
12152SOL     OW38834   9.753   4.726   3.863 -0.1406 -0.3102 -0.1644
12152SOL    HW138835   9.662   4.746   3.884 -0.3987 -2.1348  0.6015
12152SOL    HW238836   9.802   4.751   3.942 -0.3056 -1.4673  0.3236
12153SOL     OW38837  10.280   1.543   8.652 -0.1531 -0.4956  0.2720
12153SOL    HW138838  10.259   1.599   8.727 -0.5873 -1.1624  0.6571
12153SOL    HW238839  10.195   1.521   8.614  0.1164  1.5937 -1.7611
12154SOL     OW38840   3.567   0.040   0.389  0.2265  0.2136  1.0757
12154SOL    HW138841   3.623  -0.036   0.373  2.5298  2.1276 -0.8720
12154SOL    HW238842   3.523   0.055   0.305 -2.9634 -0.9119  2.4174
12155SOL     OW38843   0.071   6.951   8.322 -0.6567 -0.0039  0.5755
12155SOL    HW138844   0.114   7.029   8.357 -1.4790  0.2952  0.9424
12155SOL    HW238845   0.125   6.878   8.354 -0.1111  0.3834  0.5637
12156SOL     OW38846   3.571   1.151   2.064 -0.8861 -0.2176 -0.5105
12156SOL    HW138847   3.595   1.241   2.084 -1.0181 -0.5251  1.1520
12156SOL    HW238848   3.652   1.110   2.033 -0.3242 -0.0452  0.6775
12157SOL     OW38849   4.138   9.167   9.670 -0.3187 -0.6210 -0.1312
12157SOL    HW138850   4.108   9.114   9.596 -0.2411  0.4476 -0.9432
12157SOL    HW238851   4.105   9.255   9.652  2.7471  0.5118 -0.7859
12158SOL     OW38852   6.807   8.495   5.493  0.2146 -0.1385 -0.7117
12158SOL    HW138853   6.754   8.572   5.509 -0.3749 -0.8701  1.0920
12158SOL    HW238854   6.818   8.493   5.398  0.1021  2.0350 -0.8113
12159SOL     OW38855   8.741   9.429   9.913  0.0070 -0.3728  0.3768
12159SOL    HW138856   8.771   9.498   9.853  0.8196 -1.4119 -0.4784
12159SOL    HW238857   8.822   9.388   9.944 -0.4543 -1.4419  0.2316
12160SOL     OW38858   9.629  10.325  10.384 -0.1899  0.4010 -0.2350
12160SOL    HW138859   9.633  10.274  10.303 -1.8917  2.7652 -1.9738
12160SOL    HW238860   9.540  10.363  10.383 -0.2950  0.4543  2.8134
12161SOL     OW38861   9.188  10.093   2.969 -0.0080  0.0780  0.0704
12161SOL    HW138862   9.158  10.128   3.053  0.1547 -0.0045  0.1635
12161SOL    HW238863   9.202  10.000   2.985 -0.8581 -0.1292 -0.2922
12162SOL     OW38864  10.185   1.242   8.237  0.0098 -0.0131 -0.0446
12162SOL    HW138865  10.222   1.317   8.192 -1.1499  0.2835 -0.5571
12162SOL    HW238866  10.253   1.213   8.297  1.3349  0.0358 -1.4591
12163SOL     OW38867   4.241   5.869   7.601 -0.0962 -0.0638 -0.2382
12163SOL    HW138868   4.174   5.907   7.545  0.3372 -1.1395 -1.5411
12163SOL    HW238869   4.257   5.782   7.564  2.9174  0.6153 -0.7970
12164SOL     OW38870   4.239   9.231   3.841  0.1768  0.4678  0.5481
12164SOL    HW138871   4.189   9.152   3.862  0.3889  0.4779  1.1071
12164SOL    HW238872   4.213   9.294   3.908 -1.1919  1.4088 -0.8043
12165SOL     OW38873   8.602   9.104   0.681  0.4453  0.2508  0.1902
12165SOL    HW138874   8.612   9.165   0.607 -1.7472  1.5806  0.8864
12165SOL    HW238875   8.691   9.087   0.711  1.1883  2.3267 -0.6902
12166SOL     OW38876   9.804   8.348   1.514 -0.3853 -0.5290  0.1660
12166SOL    HW138877   9.849   8.284   1.459 -0.8600  0.7085 -1.7932
12166SOL    HW238878   9.871   8.415   1.532 -1.0362  0.7326 -1.7828
12167SOL     OW38879   6.443   5.855   9.147 -0.6448  0.7241 -0.6227
12167SOL    HW138880   6.457   5.815   9.234  0.1331 -0.6482 -1.3446
12167SOL    HW238881   6.512   5.817   9.092 -0.8648  1.9011 -1.7489
12168SOL     OW38882  10.677   1.419   9.915 -0.1243  0.5028  0.1510
12168SOL    HW138883  10.746   1.485   9.910 -0.4566  0.8567  0.2235
12168SOL    HW238884  10.715   1.349   9.968  0.0010  0.9204  0.6187
12169SOL     OW38885   1.859   3.631  10.427  0.1608  0.2180 -0.1246
12169SOL    HW138886   1.935   3.618  10.484  0.0525  0.5988  0.1018
12169SOL    HW238887   1.883   3.584  10.347  0.8158  0.6792 -0.2136
12170SOL     OW38888   9.157   3.630   2.271  0.4649  0.4762  0.7895
12170SOL    HW138889   9.079   3.575   2.258  0.0938  1.0826  0.4400
12170SOL    HW238890   9.201   3.629   2.186  0.7162  0.3386  0.9183
12171SOL     OW38891   8.846   1.394   8.767 -0.1357  0.3695 -0.9088
12171SOL    HW138892   8.839   1.356   8.679 -0.7282  0.0661 -0.7373
12171SOL    HW238893   8.852   1.488   8.751  0.7719  0.2550 -1.3131
12172SOL     OW38894   0.040   2.244   5.927 -0.6129  0.2377  0.2989
12172SOL    HW138895   0.073   2.304   5.861  0.2316  1.6620  1.9198
12172SOL    HW238896  -0.019   2.297   5.981 -1.8564 -1.0608  0.2948
12173SOL     OW38897  10.503   0.611   9.393 -0.1330  0.6113 -0.2762
12173SOL    HW138898  10.511   0.521   9.361 -2.9544  0.3952 -0.5820
12173SOL    HW238899  10.432   0.608   9.457  0.4331  2.4468  0.5092
12174SOL     OW38900   1.766   7.219   6.039 -0.3319  0.2921 -0.2842
12174SOL    HW138901   1.808   7.210   6.124 -1.9909  1.8604  0.7647
12174SOL    HW238902   1.721   7.303   6.043 -2.6775 -0.8001 -1.6949
12175SOL     OW38903  10.606   6.635   5.548  0.3667 -0.0914  0.1988
12175SOL    HW138904  10.584   6.542   5.556  1.2423 -0.1392  3.2846
12175SOL    HW238905  10.688   6.636   5.498 -1.0385 -0.6720 -2.2865
12176SOL     OW38906   1.278   5.002   0.696  0.4888 -0.2276 -0.0012
12176SOL    HW138907   1.195   5.009   0.742  0.8058 -1.0510  0.7326
12176SOL    HW238908   1.290   5.087   0.654  0.3164  0.6478  1.6647
12177SOL     OW38909   6.946   9.460   5.593  0.5014 -0.1487  0.8536
12177SOL    HW138910   6.985   9.458   5.681  1.0834  0.7386  0.6241
12177SOL    HW238911   6.968   9.546   5.559 -0.1667 -0.2988  0.0278
12178SOL     OW38912   0.531   0.854   7.244  0.5287  0.0212 -0.2807
12178SOL    HW138913   0.594   0.802   7.292 -0.5981 -1.8165 -0.7049
12178SOL    HW238914   0.557   0.945   7.260  2.1266 -0.6353  1.0509
12179SOL     OW38915   1.910   6.376   1.867 -0.2293  0.0096  0.4184
12179SOL    HW138916   1.893   6.313   1.937  0.0800  1.1573  1.5958
12179SOL    HW238917   1.830   6.429   1.863 -0.2977 -0.1389 -0.2039
12180SOL     OW38918   2.556   1.896   5.073 -0.2292  0.0519  0.2881
12180SOL    HW138919   2.558   1.918   4.979  0.3072  0.0742  0.3027
12180SOL    HW238920   2.468   1.922   5.101  0.3283  2.1606  0.2870
12181SOL     OW38921   7.862   2.357   0.818 -0.1489  0.3596 -0.1241
12181SOL    HW138922   7.952   2.345   0.789  0.3654 -0.7418  1.8099
12181SOL    HW238923   7.830   2.431   0.766  1.6813  0.4455 -1.2023
12182SOL     OW38924   7.391   8.118   9.874 -0.2714 -0.1011 -0.1424
12182SOL    HW138925   7.409   8.037   9.921 -2.7948  0.5239  2.1514
12182SOL    HW238926   7.354   8.090   9.790  2.4256 -1.2264 -1.0769
12183SOL     OW38927   3.630   2.464   0.661  0.2298  0.0334 -0.2656
12183SOL    HW138928   3.703   2.505   0.615 -0.0620  1.8857  0.8074
12183SOL    HW238929   3.567   2.440   0.593  1.5951 -1.1561 -1.1563
12184SOL     OW38930   1.584   0.191   4.740 -0.3084  0.2667  0.0959
12184SOL    HW138931   1.632   0.269   4.770 -0.3431  0.0665  0.6827
12184SOL    HW238932   1.652   0.124   4.730 -0.1646  0.5794 -1.1640
12185SOL     OW38933  10.183  10.313   3.445 -0.7545 -0.9919 -0.7091
12185SOL    HW138934  10.188  10.253   3.371  1.0567  0.6777 -2.0586
12185SOL    HW238935  10.151  10.395   3.407  1.2005  0.2055  0.0933
12186SOL     OW38936   8.473   1.071   7.744  0.7388 -0.4272  0.3000
12186SOL    HW138937   8.406   1.048   7.808 -0.3928  0.4523 -0.5202
12186SOL    HW238938   8.527   1.138   7.787  0.3828 -0.3117  0.5651
12187SOL     OW38939   3.794   5.194   9.968  0.0282 -0.1364  0.6624
12187SOL    HW138940   3.817   5.273  10.017  0.7063 -0.2204  0.4961
12187SOL    HW238941   3.813   5.216   9.877 -3.1237  0.7185  0.1209
12188SOL     OW38942   7.380   5.030   3.809 -0.4933 -0.4199  0.0861
12188SOL    HW138943   7.451   5.035   3.873 -1.1594  0.4944  0.7796
12188SOL    HW238944   7.306   4.996   3.859 -0.9350  0.0109 -0.2725
12189SOL     OW38945   3.470   0.874   1.855 -0.1818 -0.0160 -0.6029
12189SOL    HW138946   3.382   0.841   1.835 -0.1419 -1.5876  1.4735
12189SOL    HW238947   3.455   0.962   1.890 -0.9817 -0.3688 -0.0143
12190SOL     OW38948   5.911   5.715   7.630 -0.0920  0.2105 -0.0742
12190SOL    HW138949   5.909   5.784   7.564  1.7187 -0.1941 -0.5936
12190SOL    HW238950   5.820   5.686   7.636 -0.4372  0.7736 -1.8506
12191SOL     OW38951   5.564   3.184   3.276  0.4045  0.7016  0.2363
12191SOL    HW138952   5.595   3.174   3.366 -1.7778  0.1186  1.0039
12191SOL    HW238953   5.469   3.188   3.285 -0.0501 -1.8285 -2.2195
12192SOL     OW38954   2.334   5.521   7.423 -0.0805  0.0213 -0.0996
12192SOL    HW138955   2.252   5.554   7.458  0.9067  0.9380  1.5079
12192SOL    HW238956   2.324   5.426   7.424 -1.2691  0.1394 -0.3421
12193SOL     OW38957  10.078   9.803   8.512  0.3659 -0.2964 -0.0888
12193SOL    HW138958  10.170   9.778   8.505  0.2184 -0.9618  0.2312
12193SOL    HW238959  10.078   9.898   8.506  1.0787 -0.2889 -0.0415
12194SOL     OW38960   8.918   3.377   6.325  0.7317  0.0615  0.1935
12194SOL    HW138961   8.835   3.328   6.318  0.6423  0.3671 -1.1433
12194SOL    HW238962   8.911   3.424   6.407 -0.4161  0.0534  0.1166
12195SOL     OW38963   4.603   3.721   8.864  0.0550 -0.3111  0.1276
12195SOL    HW138964   4.625   3.739   8.772  0.3602 -2.0888 -0.1714
12195SOL    HW238965   4.678   3.671   8.897  0.5673  1.3924  1.7620
12196SOL     OW38966   5.769   7.515   9.540  0.2151 -0.1176  0.4260
12196SOL    HW138967   5.719   7.501   9.620 -0.9543  1.9778  0.1211
12196SOL    HW238968   5.733   7.451   9.478 -0.8545  0.1550  0.7463
12197SOL     OW38969   2.509   1.036   9.767 -0.4339  0.3681  0.1940
12197SOL    HW138970   2.586   1.093   9.761 -0.1600 -0.0155  0.0085
12197SOL    HW238971   2.544   0.948   9.759 -0.9053  0.1938 -0.0053
12198SOL     OW38972   1.336   7.503   4.305 -0.6177 -0.2140  0.0959
12198SOL    HW138973   1.343   7.502   4.209 -1.9924 -1.2756 -0.0162
12198SOL    HW238974   1.408   7.559   4.333  0.5303 -0.8042 -1.4962
12199SOL     OW38975   7.644   1.874   6.279  0.0653  0.1914 -0.0811
12199SOL    HW138976   7.682   1.788   6.298  2.7690  1.1480 -0.8266
12199SOL    HW238977   7.552   1.865   6.305  0.6717 -2.3608  1.5299
12200SOL     OW38978   3.845  10.564   7.843 -0.3804 -0.7897 -0.0361
12200SOL    HW138979   3.875  10.526   7.925  0.7045 -1.5260 -0.7410
12200SOL    HW238980   3.862  10.496   7.777 -0.5537  0.0462 -0.9697
12201SOL     OW38981   8.447   3.872   2.765 -0.1063 -0.6743 -0.3111
12201SOL    HW138982   8.497   3.791   2.774  2.5845  1.0716  2.5639
12201SOL    HW238983   8.510   3.936   2.732 -1.0502  1.0620  1.0654
12202SOL     OW38984   8.589   7.325   2.801 -0.0787  0.3768  0.1328
12202SOL    HW138985   8.562   7.248   2.852 -0.2872 -0.2600 -0.9053
12202SOL    HW238986   8.538   7.397   2.837  0.6233  0.1764  1.5843
12203SOL     OW38987   2.299   6.439   0.862  0.1725  0.3448 -0.5499
12203SOL    HW138988   2.353   6.383   0.806 -0.3202 -0.8738  0.1577
12203SOL    HW238989   2.335   6.526   0.850  1.1735 -0.1618 -1.4406
12204SOL     OW38990   1.341   6.208   7.110 -0.3600  0.6951  0.7268
12204SOL    HW138991   1.421   6.172   7.071 -1.7875 -1.7186 -0.1983
12204SOL    HW238992   1.366   6.227   7.200  1.6246  1.4458  0.0956
12205SOL     OW38993   0.507   9.978   0.615 -0.0594 -0.4887 -0.7303
12205SOL    HW138994   0.505   9.909   0.682 -0.0312 -0.6328 -0.8780
12205SOL    HW238995   0.471   9.936   0.537  0.6091 -0.5398 -1.0117
12206SOL     OW38996   5.027   3.522   2.156  0.0372 -0.1073 -0.4268
12206SOL    HW138997   5.095   3.588   2.145 -0.5106  0.7691  1.1793
12206SOL    HW238998   5.076   3.440   2.168  0.9346  0.6734  1.9075
12207SOL     OW38999   4.804   5.291   7.683  0.7442  0.3188 -0.0314
12207SOL    HW139000   4.831   5.242   7.761  0.5958 -0.1352 -0.2642
12207SOL    HW239001   4.722   5.333   7.709  1.9251  2.2090  0.8879
12208SOL     OW39002   4.572   5.409   8.763 -0.3320 -0.7077  0.3157
12208SOL    HW139003   4.517   5.479   8.726 -1.0461  0.2611  2.9875
12208SOL    HW239004   4.649   5.408   8.706 -0.7905  1.5037 -0.4851
12209SOL     OW39005   3.298   9.791   1.703  0.1983 -0.0608  0.2213
12209SOL    HW139006   3.283   9.734   1.779  0.4588  1.3979  1.4185
12209SOL    HW239007   3.352   9.738   1.644 -0.8371 -1.5891  0.5791
12210SOL     OW39008   7.715   7.360   2.598 -0.1902  0.0960 -0.4871
12210SOL    HW139009   7.697   7.275   2.638  1.7596  0.1004  0.5257
12210SOL    HW239010   7.721   7.341   2.504 -0.2918 -0.7860 -0.3239
12211SOL     OW39011   6.442   4.738   0.612  0.3686  0.1510 -0.1835
12211SOL    HW139012   6.374   4.671   0.615 -0.2645  0.8095  0.4252
12211SOL    HW239013   6.418   4.793   0.536  0.4015  0.1967 -0.1607
12212SOL     OW39014   9.249   5.918   6.232 -0.2701  0.1564  0.1101
12212SOL    HW139015   9.258   5.829   6.197  0.4803 -0.0427  0.7931
12212SOL    HW239016   9.332   5.935   6.277 -0.8784  0.7478  1.0373
12213SOL     OW39017   4.261   1.580   1.197  0.2983  0.1374  0.3639
12213SOL    HW139018   4.220   1.512   1.250 -0.5374 -0.1644 -0.6314
12213SOL    HW239019   4.215   1.660   1.223 -0.7795 -0.1594 -0.5598
12214SOL     OW39020   0.757   6.292   7.959  0.5484 -0.0669 -0.3441
12214SOL    HW139021   0.724   6.338   7.882 -0.5252 -1.1741 -0.5784
12214SOL    HW239022   0.820   6.353   7.998  1.1050  0.5196 -2.0670
12215SOL     OW39023   3.835   9.442   6.422 -0.1697  0.5724 -0.0873
12215SOL    HW139024   3.812   9.349   6.422  0.6245  0.3626 -0.4774
12215SOL    HW239025   3.916   9.446   6.370 -1.1352  1.7155 -1.5868
12216SOL     OW39026  10.790   8.060   8.630 -0.2291  0.1183  0.1447
12216SOL    HW139027  10.737   8.080   8.708 -0.5252 -0.3620  0.0708
12216SOL    HW239028  10.744   7.988   8.588 -0.9416  1.4093 -1.3500
12217SOL     OW39029   8.899   9.702   7.905  0.2248 -0.2739  0.7360
12217SOL    HW139030   8.942   9.676   7.824 -1.6399  0.6022 -0.6136
12217SOL    HW239031   8.857   9.621   7.936  1.8965 -0.8952  1.5391
12218SOL     OW39032   5.326   3.064   0.553  0.7080 -0.2302 -0.6130
12218SOL    HW139033   5.386   3.083   0.625 -1.4171  0.8286  0.9834
12218SOL    HW239034   5.264   3.001   0.590 -1.3226  1.4770 -0.9562
12219SOL     OW39035   4.832  10.435   1.393 -0.1915 -0.1940  0.3027
12219SOL    HW139036   4.864  10.522   1.367  2.6958 -1.5151 -0.9714
12219SOL    HW239037   4.737  10.444   1.391 -0.0410  2.4812 -1.5156
12220SOL     OW39038  10.621   4.150  10.037  0.1675 -0.2504 -0.0574
12220SOL    HW139039  10.592   4.059  10.029 -0.5165  0.0004 -0.5090
12220SOL    HW239040  10.676   4.151  10.115  0.0348 -1.0139  0.0520
12221SOL     OW39041   5.918   1.679   7.100 -0.0447 -0.2370 -0.4132
12221SOL    HW139042   5.986   1.671   7.033  1.4124 -0.5919  1.0551
12221SOL    HW239043   5.913   1.773   7.118 -0.9326 -0.0575 -1.4546
12222SOL     OW39044   5.529   1.980   3.214  0.1559 -0.1408 -0.1796
12222SOL    HW139045   5.472   2.049   3.248  1.4856  0.4185  1.0302
12222SOL    HW239046   5.556   1.931   3.292 -1.0483 -2.3082 -1.0403
12223SOL     OW39047   6.363  10.707  10.185  0.6729  0.6188  0.9524
12223SOL    HW139048   6.284  10.668  10.223  0.6509  1.0437  1.3531
12223SOL    HW239049   6.378  10.786  10.237  1.6711  0.2611  1.2256
12224SOL     OW39050   8.791   8.200   7.619  0.2634  0.1192  0.1350
12224SOL    HW139051   8.791   8.223   7.712  1.5652  1.4807 -0.1708
12224SOL    HW239052   8.861   8.136   7.610  1.1506  1.1078 -0.1404
12225SOL     OW39053   9.701   5.033   8.701 -0.4174 -0.1545 -0.0191
12225SOL    HW139054   9.686   5.095   8.773 -0.4544  0.4273 -0.5194
12225SOL    HW239055   9.672   4.949   8.735 -0.7225  0.1718  0.5417
12226SOL     OW39056   3.321   6.567   5.566 -0.2165 -0.0848 -0.5257
12226SOL    HW139057   3.327   6.644   5.510  1.0136 -2.1549 -3.4761
12226SOL    HW239058   3.411   6.550   5.594 -0.5968 -0.0187  0.8100
12227SOL     OW39059   1.764   7.056   0.688 -0.4028 -0.3228 -0.3444
12227SOL    HW139060   1.724   6.969   0.689 -1.1514  0.0021  1.4258
12227SOL    HW239061   1.744   7.093   0.774  0.5707  1.3078 -0.7702
12228SOL     OW39062   4.803   7.466   3.954  0.3582 -0.4088  0.1708
12228SOL    HW139063   4.869   7.432   4.014  0.1732 -1.4931 -0.2199
12228SOL    HW239064   4.762   7.388   3.917 -2.0025  0.1880  1.3373
12229SOL     OW39065   3.543   7.311   0.523  0.2312  0.7687 -0.1427
12229SOL    HW139066   3.498   7.308   0.608  0.1657 -0.7222 -0.2033
12229SOL    HW239067   3.523   7.397   0.488 -1.3886  0.6770  0.4777
12230SOL     OW39068   1.185   4.893   2.562 -0.3919  0.0652 -0.0072
12230SOL    HW139069   1.247   4.824   2.584 -0.2853  0.1114 -0.1620
12230SOL    HW239070   1.099   4.850   2.565 -0.3528 -0.0011  0.1946
12231SOL     OW39071   4.577   8.314   5.673  0.0316 -0.3416 -0.1559
12231SOL    HW139072   4.500   8.258   5.661  0.3127 -1.0061  1.0162
12231SOL    HW239073   4.558   8.363   5.753  1.0902 -0.9702  0.4918
12232SOL     OW39074   2.025   5.596   8.350  0.1482  0.0415  0.1182
12232SOL    HW139075   2.090   5.577   8.282  2.0965  1.1185  1.5715
12232SOL    HW239076   2.036   5.525   8.414 -1.7089 -0.9943 -0.6334
12233SOL     OW39077   2.166   6.085   7.911  0.1707  0.1901  0.4469
12233SOL    HW139078   2.241   6.050   7.959  1.4862  0.9132 -0.9958
12233SOL    HW239079   2.159   6.030   7.833 -0.1829  0.7287  0.0904
12234SOL     OW39080   7.887   8.542   8.405 -0.1350  0.3697  0.3823
12234SOL    HW139081   7.980   8.564   8.402 -0.1768  0.5579  0.4262
12234SOL    HW239082   7.872   8.512   8.494  0.0054 -0.2148  0.2081
12235SOL     OW39083   2.195   6.774   1.894 -0.2993  0.7982 -0.4151
12235SOL    HW139084   2.235   6.826   1.963  1.1469 -1.7998  0.8585
12235SOL    HW239085   2.110   6.747   1.930 -1.0604  2.1863 -1.0854
12236SOL     OW39086   8.183   3.549   8.352  0.4504  0.1453 -0.7535
12236SOL    HW139087   8.254   3.533   8.414  1.1235  1.3763 -1.1633
12236SOL    HW239088   8.172   3.467   8.305  0.0024 -0.7880  0.8833
12237SOL     OW39089   1.929   8.593   3.641  0.4242 -0.1517  0.1220
12237SOL    HW139090   1.876   8.640   3.577  1.9237 -0.2193 -1.2264
12237SOL    HW239091   1.897   8.624   3.726 -1.2208  0.3734 -0.6465
12238SOL     OW39092   0.592   9.391   7.854  0.6532  0.2723  0.1582
12238SOL    HW139093   0.574   9.406   7.947  0.4207  2.5101 -0.1923
12238SOL    HW239094   0.559   9.302   7.837 -0.8801  0.4676  1.8257
12239SOL     OW39095   8.824   3.002   9.732 -0.5758  0.0591 -0.5614
12239SOL    HW139096   8.824   2.989   9.827  0.8802  1.7173 -0.2850
12239SOL    HW239097   8.861   2.920   9.697 -0.0265 -0.1198  0.3924
12240SOL     OW39098   3.798   8.902   8.821 -0.2163  0.4446 -0.1416
12240SOL    HW139099   3.732   8.845   8.860 -0.3703  0.2189 -0.7219
12240SOL    HW239100   3.748   8.964   8.768  0.0028  0.6173 -0.1478
12241SOL     OW39101   2.826   7.136   0.061 -0.0501  0.5574 -0.3177
12241SOL    HW139102   2.885   7.211   0.055  1.4157 -0.5738 -0.6462
12241SOL    HW239103   2.884   7.059   0.055 -1.4140 -0.6139  0.6892
12242SOL     OW39104   4.843   7.256   9.133 -0.1885 -0.5891 -0.0285
12242SOL    HW139105   4.913   7.305   9.176  0.8735  0.7796 -3.0569
12242SOL    HW239106   4.883   7.223   9.052 -2.2421 -2.3929 -0.3987
12243SOL     OW39107   4.451   5.255   9.284 -0.6680  0.4091  0.0974
12243SOL    HW139108   4.478   5.172   9.322 -0.3311  0.0702 -0.8394
12243SOL    HW239109   4.423   5.308   9.358  3.4892  1.1723  1.4103
12244SOL     OW39110   6.667   5.697   8.298 -0.0175  0.1736 -0.3051
12244SOL    HW139111   6.645   5.605   8.283  0.1682 -0.1287  1.1704
12244SOL    HW239112   6.608   5.724   8.368 -0.6861  1.4587 -1.3144
12245SOL     OW39113   1.545   3.302   1.543 -0.4321  0.8195  0.5043
12245SOL    HW139114   1.562   3.320   1.635 -0.5983  0.7793  0.5427
12245SOL    HW239115   1.457   3.264   1.541 -0.1789  0.2180  0.3980
12246SOL     OW39116   2.295  10.486   5.086 -0.1586  0.1285 -0.1150
12246SOL    HW139117   2.297  10.577   5.057 -1.3883  0.0146 -0.6256
12246SOL    HW239118   2.365  10.480   5.151 -0.9043  1.7958  0.9213
12247SOL     OW39119   5.786   4.785   3.484 -0.2268  0.3306 -0.0988
12247SOL    HW139120   5.695   4.772   3.510 -0.3412  0.7714 -0.2671
12247SOL    HW239121   5.789   4.876   3.453  0.1282  0.1234 -0.6856
12248SOL     OW39122   2.439   2.516   5.701  0.1104  0.0742 -0.5669
12248SOL    HW139123   2.522   2.469   5.693  0.0582  0.1125 -1.4249
12248SOL    HW239124   2.412   2.502   5.792  1.8134  1.3320  0.1893
12249SOL     OW39125   2.289   6.354   2.220  0.2653 -0.4433 -0.1664
12249SOL    HW139126   2.305   6.415   2.149  2.0912 -1.0279 -0.3092
12249SOL    HW239127   2.365   6.363   2.278 -0.6221 -0.8062  1.1108
12250SOL     OW39128   5.403   9.601   7.891 -0.2387 -0.3980  0.1458
12250SOL    HW139129   5.310   9.624   7.888  0.0871  1.0443 -0.1007
12250SOL    HW239130   5.418   9.554   7.809 -0.6117 -0.0110 -0.1547
12251SOL     OW39131   8.915   1.612   2.459 -0.1201 -0.2100 -0.0802
12251SOL    HW139132   8.931   1.603   2.365  2.3713 -2.2118  0.4460
12251SOL    HW239133   8.879   1.527   2.485  0.3308 -0.0870  0.9699
12252SOL     OW39134   8.994   3.165   3.518 -0.5428  0.1302 -0.0364
12252SOL    HW139135   9.049   3.145   3.442 -0.4988 -1.7198  0.4266
12252SOL    HW239136   9.055   3.187   3.588 -0.4497 -0.2781  0.0188
12253SOL     OW39137   5.634   8.847   3.165  0.2498 -0.5262  0.0166
12253SOL    HW139138   5.561   8.827   3.105  0.9915  0.5367 -1.2886
12253SOL    HW239139   5.591   8.872   3.247 -0.8731 -0.0652 -0.6860
12254SOL     OW39140   2.969   8.563   6.486  0.2140 -0.4659 -0.0450
12254SOL    HW139141   3.038   8.496   6.488 -0.6278 -1.5817 -2.8807
12254SOL    HW239142   2.893   8.521   6.526 -0.2591 -1.2051 -1.6509
12255SOL     OW39143   9.417   6.894   9.754  0.4176 -0.4171  1.1059
12255SOL    HW139144   9.464   6.971   9.785  1.1703 -0.7750  0.8713
12255SOL    HW239145   9.477   6.851   9.694 -0.9464  0.1702 -0.7828
12256SOL     OW39146   2.950   4.275   7.510  0.4742  0.3399  0.3140
12256SOL    HW139147   2.855   4.292   7.512  0.6567  1.6506 -0.5396
12256SOL    HW239148   2.989   4.362   7.521  1.6211 -0.3371  2.0200
12257SOL     OW39149   4.927   5.467  10.777  0.4143 -0.0774  0.3918
12257SOL    HW139150   4.916   5.383  10.822  1.7778 -0.1965  0.5180
12257SOL    HW239151   4.917   5.533  10.847  0.6335 -0.1834  0.5224
12258SOL     OW39152   0.815   3.687   0.513 -0.3288 -0.0976 -0.7778
12258SOL    HW139153   0.835   3.672   0.421  2.7228 -0.5100 -0.1456
12258SOL    HW239154   0.821   3.601   0.554  0.8513  0.4112  0.1846
12259SOL     OW39155   0.789   4.292   2.281  0.3432  0.0499 -0.1909
12259SOL    HW139156   0.708   4.315   2.236  0.8801  0.6655 -0.8573
12259SOL    HW239157   0.782   4.334   2.367  0.2979  0.7494 -0.5363
12260SOL     OW39158   3.418   2.379   0.117  0.0488 -0.2523 -0.1851
12260SOL    HW139159   3.361   2.303   0.110  0.7168 -1.1380  2.6446
12260SOL    HW239160   3.365   2.445   0.163 -0.2621  0.7794 -1.9258
12261SOL     OW39161   6.922   7.908   7.025 -0.2225  0.7316 -0.4484
12261SOL    HW139162   6.831   7.895   7.051  0.2854 -3.2588  0.1069
12261SOL    HW239163   6.924   7.886   6.932  0.3056 -0.5582 -0.1598
12262SOL     OW39164   8.655   8.870   2.156 -0.3870  0.4819 -0.0301
12262SOL    HW139165   8.694   8.789   2.123  0.7608  0.7311  0.6312
12262SOL    HW239166   8.692   8.939   2.100  1.0069  0.8311  1.2520
12263SOL     OW39167   9.786   4.450   6.502  0.1091 -0.0349 -0.1083
12263SOL    HW139168   9.846   4.399   6.448 -1.0905  2.0953 -3.8023
12263SOL    HW239169   9.711   4.392   6.516  1.3226 -1.3640  1.2603
12264SOL     OW39170   3.151   3.371   8.095  0.3054 -0.1356  0.1045
12264SOL    HW139171   3.175   3.282   8.118  1.1784 -0.0334 -0.3923
12264SOL    HW239172   3.197   3.389   8.014  1.1216  1.1795  0.8257
12265SOL     OW39173   6.728   8.794   7.962 -0.3349  0.1577 -0.2132
12265SOL    HW139174   6.768   8.878   7.983 -1.2574  1.2379 -2.3814
12265SOL    HW239175   6.801   8.735   7.943  0.3013  0.6180  0.7737
12266SOL     OW39176   5.338   3.330   8.428 -0.0803 -0.9625  0.1183
12266SOL    HW139177   5.254   3.359   8.394 -0.0679 -0.6740  0.3226
12266SOL    HW239178   5.345   3.372   8.514  0.8009  0.0178 -0.4010
12267SOL     OW39179   8.991  10.003   7.075  0.5670  0.4983 -0.2456
12267SOL    HW139180   9.010  10.093   7.048 -1.2710 -0.0359 -4.0077
12267SOL    HW239181   9.075   9.958   7.068  1.5123  1.8453  1.6892
12268SOL     OW39182   9.758   4.896  10.219  0.4339 -0.1263 -0.0674
12268SOL    HW139183   9.759   4.936  10.306  0.4563 -0.2010 -0.0338
12268SOL    HW239184   9.842   4.921  10.180  0.4304 -0.1057 -0.0617
12269SOL     OW39185   4.730   6.859   2.451 -0.2564 -0.0130  0.3101
12269SOL    HW139186   4.730   6.926   2.382  0.6153 -2.0244 -1.8101
12269SOL    HW239187   4.804   6.881   2.506 -0.8288  1.5271  0.5114
12270SOL     OW39188   6.251   7.427   8.527 -0.3567 -0.3695  0.2382
12270SOL    HW139189   6.235   7.410   8.434 -1.5040 -0.8843  0.5262
12270SOL    HW239190   6.232   7.521   8.537  3.0027  0.5675 -0.6957
12271SOL     OW39191   4.815   2.273   1.080 -0.2455 -0.6354 -0.2923
12271SOL    HW139192   4.780   2.221   1.008  1.0739 -1.5691 -0.3153
12271SOL    HW239193   4.764   2.245   1.156 -0.7798 -0.6047 -0.6357
12272SOL     OW39194   1.777  10.775   5.460 -0.5260  0.1007 -0.3569
12272SOL    HW139195   1.852  10.719   5.476  0.7425  1.6261 -0.6698
12272SOL    HW239196   1.704  10.715   5.449  0.8555 -1.5094 -1.2173
12273SOL     OW39197   6.562   0.154   9.970  0.1658 -0.7106 -0.2377
12273SOL    HW139198   6.578   0.140   9.876 -0.2877  1.2295 -0.6404
12273SOL    HW239199   6.616   0.087  10.013  0.7146 -1.3758 -1.8604
12274SOL     OW39200   8.751   7.625   8.252 -0.2165 -0.8197  0.3551
12274SOL    HW139201   8.709   7.629   8.167 -0.3840  0.4900  0.4793
12274SOL    HW239202   8.732   7.537   8.285  0.2785 -1.5203 -1.1566
12275SOL     OW39203   2.749   7.495   2.769  0.3677  0.1681  0.3959
12275SOL    HW139204   2.774   7.556   2.839 -0.3162  1.4315 -0.4328
12275SOL    HW239205   2.753   7.409   2.811 -1.9750  1.0043  2.5853
12276SOL     OW39206   3.259   9.349  10.761  0.4253 -0.6361  0.2992
12276SOL    HW139207   3.284   9.258  10.745 -1.2097 -1.1932  0.7741
12276SOL    HW239208   3.183   9.344  10.819  1.2038  1.0785  1.5610
12277SOL     OW39209   4.567   3.900   8.110 -0.3332  0.4235  0.1401
12277SOL    HW139210   4.581   3.941   8.025  0.0103 -0.0192 -0.0259
12277SOL    HW239211   4.509   3.826   8.092 -0.3345  0.3841  0.3047
12278SOL     OW39212   6.707   9.720   3.861  0.6688  0.3572  0.4856
12278SOL    HW139213   6.758   9.738   3.782 -0.5569  1.9046  0.0001
12278SOL    HW239214   6.651   9.796   3.871 -2.0942 -1.5463  0.5959
12279SOL     OW39215   2.494   7.941   6.296  0.6582  0.2013 -0.5927
12279SOL    HW139216   2.489   8.027   6.339 -0.0385  0.4567 -1.1603
12279SOL    HW239217   2.497   7.878   6.368 -2.7415  0.4707 -0.0610
12280SOL     OW39218   6.591   9.371   0.151  0.0308  0.1249 -0.0164
12280SOL    HW139219   6.616   9.309   0.220  0.4311  2.3058  1.9446
12280SOL    HW239220   6.616   9.457   0.186 -1.5797  1.5303 -2.0535
12281SOL     OW39221   6.219   2.512   0.149 -0.7544 -0.2438  0.5746
12281SOL    HW139222   6.248   2.594   0.110 -1.0926  0.0927  1.0152
12281SOL    HW239223   6.161   2.474   0.083  1.1412 -1.2478 -0.6026
12282SOL     OW39224   6.934   7.101  10.109  0.2541 -0.2610  0.0107
12282SOL    HW139225   6.999   7.160  10.073  3.6595 -3.7611 -0.2340
12282SOL    HW239226   6.923   7.129  10.200  1.2464  1.0917 -0.2637
12283SOL     OW39227   5.465   1.554   3.890  0.3286 -0.0459  0.1716
12283SOL    HW139228   5.466   1.493   3.963 -1.1743  0.3033  0.5243
12283SOL    HW239229   5.384   1.605   3.903  1.7569  2.3632  0.1827
12284SOL     OW39230   9.746   8.741   9.377 -0.6258 -0.1429 -0.3356
12284SOL    HW139231   9.688   8.776   9.444 -0.5265  0.3713 -0.5129
12284SOL    HW239232   9.692   8.738   9.298  0.2954  3.0508 -1.2521
12285SOL     OW39233   4.159   9.003   9.152 -0.0164 -0.0974  0.0002
12285SOL    HW139234   4.237   8.958   9.118 -1.0081 -2.3232  0.5280
12285SOL    HW239235   4.095   8.997   9.081  0.1095  1.3043 -0.2517
12286SOL     OW39236   2.631   7.959   9.202  0.7296  0.0502  0.0601
12286SOL    HW139237   2.724   7.937   9.202  0.3118 -1.8753 -0.2010
12286SOL    HW239238   2.594   7.907   9.274 -0.5880 -1.5001 -1.6333
12287SOL     OW39239  10.497   0.048   7.528  0.1754 -0.4272  0.4818
12287SOL    HW139240  10.522  -0.019   7.465  0.9110  0.8983 -0.6850
12287SOL    HW239241  10.561   0.118   7.516  0.3225 -0.0966  2.6960
12288SOL     OW39242   4.087   7.347   0.914  0.6061  0.2459  0.1322
12288SOL    HW139243   4.182   7.345   0.923  0.6296  0.2076 -0.1232
12288SOL    HW239244   4.065   7.266   0.867  0.4391  0.2114  0.2669
12289SOL     OW39245   4.134   8.297   4.140 -1.3286 -0.5513  0.2671
12289SOL    HW139246   4.122   8.369   4.201  0.5468 -1.3798  1.7209
12289SOL    HW239247   4.049   8.252   4.138 -2.3700  1.3402 -0.2922
12290SOL     OW39248   9.597   4.627   1.593 -0.1198  0.1564  0.0795
12290SOL    HW139249   9.507   4.596   1.596 -0.6232  1.4890 -0.5914
12290SOL    HW239250   9.650   4.548   1.608 -1.2819 -1.3329 -2.7604
12291SOL     OW39251   5.987   9.362   1.354 -0.6155  0.2792  0.3102
12291SOL    HW139252   6.036   9.431   1.398 -1.6627 -0.1113  2.1904
12291SOL    HW239253   5.961   9.401   1.270 -3.4127  3.2796  2.3343
12292SOL     OW39254   6.795   9.503   2.584 -0.0116 -0.0823 -0.0497
12292SOL    HW139255   6.727   9.545   2.636  0.9400  1.5724 -0.0631
12292SOL    HW239256   6.761   9.416   2.565 -0.9686 -0.2517  2.1702
12293SOL     OW39257   4.872   7.651   9.505  0.3685 -0.0011 -0.0272
12293SOL    HW139258   4.895   7.617   9.418 -1.9758  1.5095 -1.3467
12293SOL    HW239259   4.955   7.677   9.543  1.4653 -0.5648 -1.8747
12294SOL     OW39260   3.563   5.771   8.507  0.0130 -0.2305 -0.0852
12294SOL    HW139261   3.600   5.694   8.463 -1.1535 -1.6023  1.2017
12294SOL    HW239262   3.560   5.747   8.599 -1.3346  0.9616  0.2233
12295SOL     OW39263   1.660   0.240   6.755 -0.2346  0.3136  0.2329
12295SOL    HW139264   1.747   0.264   6.726 -0.2409 -1.0178 -1.0089
12295SOL    HW239265   1.674   0.164   6.813 -0.3248  2.1968  2.9205
12296SOL     OW39266   5.980   3.247   6.689  0.2220  0.6943  0.2567
12296SOL    HW139267   5.916   3.265   6.758 -0.8279 -0.5220 -0.3340
12296SOL    HW239268   6.064   3.241   6.734 -0.2107  1.4135  1.1956
12297SOL     OW39269   6.586   0.203   7.329 -0.0620  0.4666  0.5847
12297SOL    HW139270   6.598   0.154   7.410  2.8246  1.2531  0.7571
12297SOL    HW239271   6.539   0.282   7.354  0.6299  0.6090  1.4632
12298SOL     OW39272   0.918   3.442   9.358  0.3329  0.2499  0.1842
12298SOL    HW139273   0.879   3.529   9.348 -1.3963 -0.4871  0.2258
12298SOL    HW239274   0.875   3.389   9.292 -0.0629 -1.0289  1.4138
12299SOL     OW39275   4.298   0.370   7.215 -0.2263  0.5219  0.1017
12299SOL    HW139276   4.257   0.297   7.260  1.2696 -0.6841 -0.3943
12299SOL    HW239277   4.292   0.443   7.277 -0.1949 -0.4974  1.3495
12300SOL     OW39278   4.296  10.143   9.977 -0.1103  0.7759  0.0898
12300SOL    HW139279   4.238  10.218   9.970  0.3847  1.1989  0.4991
12300SOL    HW239280   4.361  10.156   9.908  0.9696  1.6106  1.2277
12301SOL     OW39281   7.077   1.323   0.385 -0.0848 -0.1299  0.2964
12301SOL    HW139282   7.054   1.330   0.477 -0.4537  1.8395  0.1031
12301SOL    HW239283   7.009   1.374   0.340  0.6985 -0.1560 -0.9503
12302SOL     OW39284   5.139   6.998   0.527  0.4120 -0.8270  0.1748
12302SOL    HW139285   5.178   7.035   0.606 -0.7734 -0.2764  0.5267
12302SOL    HW239286   5.162   6.906   0.529 -0.0726 -0.9452  1.4841
12303SOL     OW39287   3.975   0.603   1.379 -0.0374 -0.0120  0.4375
12303SOL    HW139288   3.994   0.616   1.472 -0.2904 -0.4659  0.5527
12303SOL    HW239289   4.049   0.644   1.334 -0.1659  0.6729  0.8229
12304SOL     OW39290   4.791   3.322   5.573  0.0127 -0.3505 -0.3336
12304SOL    HW139291   4.754   3.404   5.541 -1.2154 -0.8506 -0.2388
12304SOL    HW239292   4.859   3.350   5.634  0.1716  0.5940 -0.9135
12305SOL     OW39293  10.360   2.660   7.494  0.0041 -1.0568 -0.7781
12305SOL    HW139294  10.369   2.755   7.497  0.9092 -1.1701  0.5351
12305SOL    HW239295  10.268   2.646   7.469 -0.6576  0.1742  0.8171
12306SOL     OW39296   2.624   4.256  10.623  0.3338  0.3833  0.4357
12306SOL    HW139297   2.658   4.278  10.710  0.9107  0.6620  0.1442
12306SOL    HW239298   2.530   4.246  10.636  0.4993 -0.3087  1.2457
12307SOL     OW39299   5.733  10.107   4.107 -0.3443 -0.3361  0.6072
12307SOL    HW139300   5.798  10.089   4.175  0.5048 -0.7522 -0.2967
12307SOL    HW239301   5.754  10.045   4.037  2.2294  3.4873 -2.3983
12308SOL     OW39302  10.765   6.903   4.244 -0.7975  0.5911 -0.4295
12308SOL    HW139303  10.851   6.865   4.258 -0.5312  1.1057 -0.6587
12308SOL    HW239304  10.759   6.918   4.150 -2.2358 -2.0055 -0.8515
12309SOL     OW39305   7.821   4.527   8.709  0.3927  0.3747 -0.1149
12309SOL    HW139306   7.747   4.481   8.668  1.2746  1.0723 -2.7034
12309SOL    HW239307   7.781   4.581   8.777 -1.1531 -1.0870  0.2064
12310SOL     OW39308   4.136   1.857   7.683 -0.3408 -0.5114  0.2468
12310SOL    HW139309   4.104   1.912   7.612 -1.1380  0.6483  1.4440
12310SOL    HW239310   4.064   1.856   7.746  0.4643 -1.2398  1.1869
12311SOL     OW39311   4.067   9.009   3.955  0.8274 -0.3968 -0.1302
12311SOL    HW139312   4.040   9.044   4.040 -0.4035  0.1747 -0.7357
12311SOL    HW239313   4.056   8.915   3.964 -0.8606 -0.2276 -0.1598
12312SOL     OW39314   2.540   8.555   2.585  0.5436  0.4017  0.4653
12312SOL    HW139315   2.603   8.498   2.630  0.4644 -1.1497 -1.2773
12312SOL    HW239316   2.558   8.542   2.492  0.3927  3.1442 -0.0486
12313SOL     OW39317   4.964   8.367   2.727 -0.1543  0.2120  0.1625
12313SOL    HW139318   5.032   8.312   2.687 -1.7420 -0.8535 -1.2142
12313SOL    HW239319   4.899   8.305   2.759 -0.3946  1.2045  1.6682
12314SOL     OW39320   2.752  10.291   7.371 -0.4625  0.1022 -0.3935
12314SOL    HW139321   2.797  10.273   7.289 -0.7754 -1.0410 -0.3337
12314SOL    HW239322   2.779  10.380   7.394  0.9775 -0.1759 -0.8724
12315SOL     OW39323   3.784   9.914   5.364 -0.0486  0.3764 -0.7284
12315SOL    HW139324   3.784   9.878   5.453  0.4749 -0.2007 -0.9535
12315SOL    HW239325   3.786   9.837   5.308  2.9983  0.6959 -1.2212
12316SOL     OW39326   5.282   5.516   4.570 -0.4338  0.4198 -0.0250
12316SOL    HW139327   5.240   5.432   4.587  1.7043 -0.4743  1.2863
12316SOL    HW239328   5.259   5.537   4.479 -1.9381 -0.9824 -0.0042
12317SOL     OW39329   1.498   1.270   6.160  0.2255  0.5182 -0.2764
12317SOL    HW139330   1.567   1.211   6.189 -0.8045 -0.5844  0.0349
12317SOL    HW239331   1.444   1.216   6.102 -0.9039  1.0706  0.2310
12318SOL     OW39332   4.345   7.380   9.210  0.2994 -0.4506  0.3010
12318SOL    HW139333   4.433   7.407   9.237  0.3570 -1.4129  1.1309
12318SOL    HW239334   4.341   7.400   9.117  0.0867  3.0707  0.9249
12319SOL     OW39335   5.540   7.632  10.562  0.0034 -0.6594  0.1495
12319SOL    HW139336   5.577   7.645  10.474  0.3602 -0.8060  0.2807
12319SOL    HW239337   5.448   7.612  10.545 -0.0898 -0.0300 -0.1625
12320SOL     OW39338   2.512   9.293   0.540 -0.7853 -0.3594  0.0278
12320SOL    HW139339   2.489   9.383   0.564 -0.0371  0.3836 -1.8239
12320SOL    HW239340   2.436   9.241   0.566 -1.5530  0.9224  0.4509
12321SOL     OW39341  10.119   0.682   9.099  0.0095 -0.3852  0.2243
12321SOL    HW139342  10.076   0.721   9.023  0.2371 -0.5170  0.0255
12321SOL    HW239343  10.065   0.605   9.120 -2.6744  1.9873  2.9331
12322SOL     OW39344   6.917   9.155   6.754  0.0423  0.4214 -0.0458
12322SOL    HW139345   6.959   9.241   6.745 -3.3809  2.6820  2.7823
12322SOL    HW239346   6.926   9.133   6.846 -1.0585 -1.1405 -0.2743
12323SOL     OW39347   7.198   4.346   1.236 -0.2127  0.9054  0.1298
12323SOL    HW139348   7.149   4.415   1.281 -0.1885 -1.2213  3.8210
12323SOL    HW239349   7.184   4.268   1.290  0.3631 -1.8623 -3.4031
12324SOL     OW39350   7.735   7.833   3.952 -0.2500  0.0647  0.5516
12324SOL    HW139351   7.784   7.756   3.980  1.3349  1.0324  0.5479
12324SOL    HW239352   7.793   7.906   3.970 -2.7861  1.6286  3.2376
12325SOL     OW39353   2.770   3.298   9.961 -0.3058 -0.0238 -0.2860
12325SOL    HW139354   2.702   3.365   9.953 -0.5269 -0.0775  0.9307
12325SOL    HW239355   2.723   3.215   9.963 -0.1430 -0.1187 -0.3237
12326SOL     OW39356   2.501   2.232   6.017 -0.3132  0.1335  0.6669
12326SOL    HW139357   2.586   2.257   6.053 -0.3252  0.1003  0.7185
12326SOL    HW239358   2.463   2.314   5.984  1.1724 -0.3093 -2.4403
12327SOL     OW39359   2.744   6.107   9.857 -0.5105 -0.3409  0.0716
12327SOL    HW139360   2.812   6.172   9.842 -2.4689  1.8547  0.0360
12327SOL    HW239361   2.701   6.135   9.938 -2.6829 -0.3456 -0.9886
12328SOL     OW39362   1.341   8.132   3.468 -0.8190 -0.4671 -0.0038
12328SOL    HW139363   1.289   8.054   3.451 -1.9163  0.1874  0.2423
12328SOL    HW239364   1.423   8.099   3.503 -0.7413 -1.5679 -1.1314
12329SOL     OW39365   5.191   1.773   6.674 -0.2144 -0.4004  0.8406
12329SOL    HW139366   5.191   1.853   6.728  2.0233  0.4698 -0.3216
12329SOL    HW239367   5.257   1.717   6.714 -1.5998 -1.6410  1.4983
12330SOL     OW39368  10.004   7.487   6.713 -0.0416  0.5591  0.3513
12330SOL    HW139369  10.018   7.534   6.796  0.7665  0.2893  0.3720
12330SOL    HW239370  10.048   7.404   6.725  1.6047  1.1955 -0.9748
12331SOL     OW39371   8.133   9.312   1.948 -0.1756 -0.1547  0.3607
12331SOL    HW139372   8.193   9.321   1.873 -1.3134  2.8552 -0.3487
12331SOL    HW239373   8.048   9.339   1.914 -0.9341  0.3579  2.4813
12332SOL     OW39374   2.829   5.179   4.411  0.3213  0.2651  0.3930
12332SOL    HW139375   2.803   5.239   4.481 -1.8912  0.3166 -0.3903
12332SOL    HW239376   2.793   5.095   4.437  0.1060  0.1258 -0.3398
12333SOL     OW39377   1.852   9.691  10.095 -0.3207 -0.1140  0.3668
12333SOL    HW139378   1.908   9.716  10.022 -1.2633 -2.0735 -1.1356
12333SOL    HW239379   1.766   9.675  10.056 -0.3666 -3.3297  1.4158
12334SOL     OW39380  10.621   0.124   3.900 -0.3831  0.2725  0.0119
12334SOL    HW139381  10.605   0.218   3.904  0.3056  0.3565  2.5072
12334SOL    HW239382  10.704   0.115   3.854  0.1594  1.0013  0.8258
12335SOL     OW39383   3.552   1.592   4.984  0.0720 -0.5672  0.3605
12335SOL    HW139384   3.629   1.534   4.983 -0.5606 -1.4814  1.9151
12335SOL    HW239385   3.548   1.625   5.074 -0.2622  1.0101 -0.2056
12336SOL     OW39386   8.347   7.105   9.117 -0.6127  0.0214  0.3023
12336SOL    HW139387   8.399   7.079   9.042  1.0672 -0.0146  1.4131
12336SOL    HW239388   8.333   7.199   9.106 -0.7112 -0.0587 -0.2440
12337SOL     OW39389   3.724   1.958   0.705 -0.0027 -0.1291 -0.5727
12337SOL    HW139390   3.655   1.910   0.751 -0.9250  1.0633 -0.6476
12337SOL    HW239391   3.746   1.903   0.630 -0.3017 -0.9013 -0.1015
12338SOL     OW39392   2.343   0.936   2.577  0.4933  0.3645 -0.0259
12338SOL    HW139393   2.386   0.852   2.561  0.8631  0.2349  1.4926
12338SOL    HW239394   2.282   0.946   2.505 -0.4585 -1.8235  0.3995
12339SOL     OW39395   8.006   6.585   2.148  0.3431  0.0908 -0.2254
12339SOL    HW139396   7.969   6.627   2.225  0.3132  0.4275 -0.4198
12339SOL    HW239397   7.942   6.603   2.078  1.0230  0.9766 -0.6456
12340SOL     OW39398   1.473  10.395   6.095 -0.6227  0.0826  0.1557
12340SOL    HW139399   1.476  10.477   6.047  0.0377  0.1805  0.3518
12340SOL    HW239400   1.460  10.421   6.186 -0.6357 -0.0403  0.1893
12341SOL     OW39401   6.468   9.942  10.523 -0.6428 -0.1764  0.0886
12341SOL    HW139402   6.488  10.032  10.551 -0.1621 -0.3409  0.2850
12341SOL    HW239403   6.469   9.945  10.428  2.6078 -0.6354  0.0030
12342SOL     OW39404   2.400   6.502   0.192  0.0409  0.0066 -0.5818
12342SOL    HW139405   2.465   6.454   0.142 -0.0688 -0.5585 -0.1909
12342SOL    HW239406   2.451   6.557   0.251  0.1735  0.8474 -1.4579
12343SOL     OW39407   2.164   5.028   9.395 -0.6812 -0.6864  0.2746
12343SOL    HW139408   2.098   5.044   9.463 -1.5847  0.4887 -0.8300
12343SOL    HW239409   2.113   5.005   9.317  0.1434  0.8631 -0.7649
12344SOL     OW39410   6.822   3.049   3.468  0.1019 -0.0843 -0.1661
12344SOL    HW139411   6.830   3.089   3.554 -1.2717 -0.7207  0.2814
12344SOL    HW239412   6.910   3.020   3.446  0.4555  0.0258  1.0504
12345SOL     OW39413   2.333   9.262   3.535 -0.6868  0.0196  0.0700
12345SOL    HW139414   2.257   9.204   3.523 -0.5681  0.1593 -1.7065
12345SOL    HW239415   2.347   9.265   3.629 -1.3819 -1.9686  0.2817
12346SOL     OW39416   0.727   1.752   2.451 -0.2551  0.4365  0.1320
12346SOL    HW139417   0.662   1.697   2.406 -0.2924  1.1466 -0.7190
12346SOL    HW239418   0.783   1.784   2.380  2.1339 -1.5300  1.0045
12347SOL     OW39419   4.215   4.193   8.792  0.3688  0.1934  0.2684
12347SOL    HW139420   4.251   4.198   8.704  0.5741  0.9330  0.3818
12347SOL    HW239421   4.147   4.126   8.787  0.9989 -0.4271 -0.2219
12348SOL     OW39422   1.790  10.569   6.201 -0.1158  0.1288 -0.1557
12348SOL    HW139423   1.723  10.514   6.244  0.3942 -1.1944 -0.9889
12348SOL    HW239424   1.805  10.527   6.116 -0.0160  1.8408 -1.0252
12349SOL     OW39425   4.868   7.248   8.403 -0.4490  0.1013 -0.2575
12349SOL    HW139426   4.953   7.284   8.428  0.8439 -3.3272  0.7490
12349SOL    HW239427   4.871   7.243   8.308 -0.5188  2.0474 -0.4169
12350SOL     OW39428   0.402   1.754   2.990  0.3340 -0.1778  0.0955
12350SOL    HW139429   0.413   1.769   3.084  1.3488  1.4292 -0.2454
12350SOL    HW239430   0.314   1.787   2.971 -0.2151 -1.2962  0.6077
12351SOL     OW39431   2.578   8.516   2.328 -0.2302 -0.1790  0.0707
12351SOL    HW139432   2.536   8.585   2.277 -1.2249  0.3434  1.5195
12351SOL    HW239433   2.666   8.508   2.291 -0.2881  1.4811 -0.4997
12352SOL     OW39434   4.915   6.299   5.143 -0.3697  0.0423  0.1631
12352SOL    HW139435   4.824   6.297   5.113  0.3098  3.2852 -2.8472
12352SOL    HW239436   4.924   6.383   5.188  0.6213 -1.3605  2.7580
12353SOL     OW39437  10.066   8.732  10.399  0.0649  0.4406  0.4663
12353SOL    HW139438  10.153   8.694  10.409  0.2573  0.8540  0.3707
12353SOL    HW239439  10.008   8.656  10.391  0.0941  0.0759  2.9613
12354SOL     OW39440   9.639   6.012   9.004 -0.2330  0.4744 -0.4268
12354SOL    HW139441   9.661   6.048   8.918  0.3961 -0.8522 -0.8518
12354SOL    HW239442   9.712   5.953   9.025 -0.0241  1.2999  1.3411
12355SOL     OW39443   2.007   4.626   4.324 -0.2999  0.2116 -0.1784
12355SOL    HW139444   2.069   4.585   4.384 -1.0920 -1.0706 -0.1897
12355SOL    HW239445   2.005   4.567   4.248 -0.6302  0.8749 -0.6958
12356SOL     OW39446   2.496   5.723   9.363  0.2718  0.4000 -0.1825
12356SOL    HW139447   2.468   5.661   9.430  0.3167 -0.6404 -1.1054
12356SOL    HW239448   2.550   5.787   9.411 -1.9725  1.3218  1.2638
12357SOL     OW39449   7.730   5.024   3.419  0.3602 -0.5422 -0.2541
12357SOL    HW139450   7.795   5.023   3.350 -1.5414 -0.6414 -2.1494
12357SOL    HW239451   7.727   5.115   3.448 -0.7137  0.1395 -2.2919
12358SOL     OW39452  10.738   8.894   7.847  0.4369  0.0422  0.3841
12358SOL    HW139453  10.689   8.939   7.916  2.1422  1.4824  0.7351
12358SOL    HW239454  10.812   8.855   7.892  1.7604  1.2810 -0.6176
12359SOL     OW39455   8.767   3.403   1.100 -0.1318 -0.4216  0.1903
12359SOL    HW139456   8.744   3.310   1.102 -0.0241 -0.4531 -0.0122
12359SOL    HW239457   8.736   3.434   1.015  1.6388 -0.7507 -0.6253
12360SOL     OW39458   0.799   4.937   0.015 -0.2457 -0.0133 -0.1805
12360SOL    HW139459   0.762   5.003   0.073  1.8722  0.9257  0.2112
12360SOL    HW239460   0.724   4.902  -0.033 -1.5300  2.1578  0.1101
12361SOL     OW39461   4.344  10.414   9.047  0.7068  0.6068  0.5116
12361SOL    HW139462   4.250  10.412   9.034  0.9073  1.4716 -1.3758
12361SOL    HW239463   4.370  10.322   9.053 -0.1610  0.3406  0.2527
12362SOL     OW39464   7.856   3.769  10.216  0.2433 -0.0170 -0.4425
12362SOL    HW139465   7.800   3.823  10.271  1.2986  0.8395 -0.1771
12362SOL    HW239466   7.874   3.691  10.269  0.3115  0.2696 -0.0452
12363SOL     OW39467   1.202   4.533   6.535  0.5962 -0.7117  0.2597
12363SOL    HW139468   1.151   4.575   6.604  1.8810  0.6214  0.4564
12363SOL    HW239469   1.231   4.605   6.480 -0.3443 -1.7440 -1.6848
12364SOL     OW39470   2.976   6.833   1.550 -0.2406 -0.1293  0.1297
12364SOL    HW139471   2.898   6.818   1.497  0.1615 -0.8191 -0.2940
12364SOL    HW239472   3.046   6.787   1.503  0.2149 -0.3949  1.0412
12365SOL     OW39473   4.193   1.366   1.827 -0.3112 -0.7391  0.1990
12365SOL    HW139474   4.271   1.419   1.808 -0.8799 -1.0265 -3.5675
12365SOL    HW239475   4.120   1.416   1.791 -1.4022 -2.2189  0.2526
12366SOL     OW39476   5.662   8.708   4.594  0.0717  0.0933 -0.1057
12366SOL    HW139477   5.664   8.782   4.654 -1.0616  0.2040 -0.1743
12366SOL    HW239478   5.662   8.747   4.507  1.4882 -0.0622 -0.1972
12367SOL     OW39479   0.050   0.504   2.321 -0.3231  0.3197 -0.1157
12367SOL    HW139480   0.007   0.483   2.238  1.8171  0.4098 -1.3082
12367SOL    HW239481  -0.019   0.491   2.387 -1.1879 -3.2535 -1.4714
12368SOL     OW39482   9.899   9.362   7.685 -0.2442  0.0165 -0.7053
12368SOL    HW139483   9.877   9.422   7.613  0.8221  0.4671 -0.6801
12368SOL    HW239484   9.994   9.357   7.684 -0.1810  0.2508  0.8456
12369SOL     OW39485   4.801   1.127   3.468  0.2144 -0.1500 -0.4190
12369SOL    HW139486   4.728   1.189   3.467 -0.1826 -0.5733 -2.5026
12369SOL    HW239487   4.876   1.179   3.497 -0.1823  1.2281 -1.7377
12370SOL     OW39488   3.901   3.453   3.615  0.0552  0.5615 -0.3113
12370SOL    HW139489   3.906   3.433   3.709 -0.0622  1.5119 -0.1007
12370SOL    HW239490   3.844   3.385   3.580  1.3489 -0.7608  0.0174
12371SOL     OW39491   2.490   3.993   7.838  0.6477 -0.2382  0.4393
12371SOL    HW139492   2.456   3.996   7.928  1.1158 -1.1202  0.6641
12371SOL    HW239493   2.489   4.084   7.809  0.1415  0.0161  1.2065
12372SOL     OW39494   6.037   5.605   4.326 -0.3959 -0.2502 -0.4596
12372SOL    HW139495   6.057   5.680   4.271  0.9354 -1.5110 -1.8176
12372SOL    HW239496   6.118   5.589   4.375 -1.0439 -0.1213  0.6870
12373SOL     OW39497  10.357   8.168   0.107 -0.1515 -0.0131  0.0324
12373SOL    HW139498  10.360   8.092   0.165 -1.4550  0.3078  0.5553
12373SOL    HW239499  10.309   8.138   0.030  2.2038 -0.6588 -1.3040
12374SOL     OW39500   3.457   9.734   2.028  0.2934  0.2318 -0.3213
12374SOL    HW139501   3.529   9.673   2.010 -0.6285 -0.3865 -2.1778
12374SOL    HW239502   3.385   9.677   2.057  0.4093  0.8216  1.2537
12375SOL     OW39503   7.010   7.332   3.030 -0.4289 -0.9704  0.5618
12375SOL    HW139504   7.004   7.274   2.954  1.0394 -0.6546  0.1754
12375SOL    HW239505   7.103   7.335   3.051 -0.6293  0.1828  1.4212
12376SOL     OW39506   9.683   1.422   8.484 -0.1145  0.4562 -0.3021
12376SOL    HW139507   9.730   1.503   8.506  1.1115 -0.5188  0.8329
12376SOL    HW239508   9.729   1.354   8.532 -0.6193 -1.0574 -1.8601
12377SOL     OW39509   9.855   9.837   2.939 -0.0278 -0.0360 -0.2554
12377SOL    HW139510   9.801   9.873   2.868  0.6449  1.8130  0.1173
12377SOL    HW239511   9.796   9.777   2.985 -1.0749  0.2272 -1.2000
12378SOL     OW39512   5.830   2.696   2.156  0.0617  0.4375 -0.1207
12378SOL    HW139513   5.840   2.617   2.210  2.8803  1.3955  0.9601
12378SOL    HW239514   5.794   2.761   2.216  3.0789  1.4677  0.7544
12379SOL     OW39515   9.133   2.489   1.269  0.4250 -1.0874 -0.2641
12379SOL    HW139516   9.194   2.467   1.199  0.4505 -1.0900 -0.2415
12379SOL    HW239517   9.117   2.582   1.259  0.2781 -1.1264 -0.3907
12380SOL     OW39518   6.677   1.212   8.396  0.7491 -0.2528 -0.2554
12380SOL    HW139519   6.691   1.199   8.490  0.3239 -0.4009 -0.2080
12380SOL    HW239520   6.764   1.222   8.359  1.0509 -2.1101 -0.1272
12381SOL     OW39521   2.532  10.012   8.616  0.1345  0.2984  0.0035
12381SOL    HW139522   2.619   9.997   8.578  1.1904  1.0355  1.9759
12381SOL    HW239523   2.543  10.090   8.671 -2.3391  1.7161 -1.3290
12382SOL     OW39524   0.037   7.061   9.887 -0.0854 -0.6699  0.4310
12382SOL    HW139525   0.118   7.107   9.867  1.0369 -2.8185 -0.3244
12382SOL    HW239526  -0.031   7.108   9.840  0.8259  0.7200  0.4549
12383SOL     OW39527   2.360   5.837   2.138  0.8320 -0.2657  0.0938
12383SOL    HW139528   2.333   5.928   2.127 -1.7549 -0.9480  0.1935
12383SOL    HW239529   2.392   5.810   2.052  0.2325  0.3269 -0.3218
12384SOL     OW39530   5.156   1.967   7.213  0.2801  0.0963  0.4161
12384SOL    HW139531   5.112   2.002   7.290  1.0173  1.9170  0.0619
12384SOL    HW239532   5.157   2.039   7.151  2.0285 -0.4868 -0.3080
12385SOL     OW39533   3.797   2.527   0.476  0.1835 -0.2640 -0.3176
12385SOL    HW139534   3.805   2.621   0.488  1.6485 -0.5681  1.3946
12385SOL    HW239535   3.736   2.518   0.402 -0.7585  1.9800  0.0997
12386SOL     OW39536   7.691   7.397  10.738 -0.4288 -0.1965 -0.3240
12386SOL    HW139537   7.638   7.329  10.779 -0.3742 -0.7816 -1.1876
12386SOL    HW239538   7.680   7.381  10.644  0.6125  0.1902 -0.5155
12387SOL     OW39539   6.097   3.515   9.112  0.1063  0.0168 -0.2884
12387SOL    HW139540   6.140   3.596   9.086 -1.5154  0.4418 -1.8112
12387SOL    HW239541   6.062   3.533   9.199  0.1145  0.8144 -0.4413
12388SOL     OW39542   5.238   3.751   3.063 -0.1065  0.1783 -0.5292
12388SOL    HW139543   5.258   3.658   3.077 -1.3790 -0.1790 -0.9631
12388SOL    HW239544   5.263   3.794   3.144  1.7763 -0.3086 -0.7926
12389SOL     OW39545  10.183   0.576   4.424  0.0333  0.2922  0.2090
12389SOL    HW139546  10.210   0.492   4.461  0.9781  0.6015  0.2364
12389SOL    HW239547  10.087   0.574   4.428  0.0788 -0.2473  1.4010
12390SOL     OW39548  10.647   8.481   9.737  0.1820  0.1466 -0.2336
12390SOL    HW139549  10.703   8.544   9.690  0.5754  0.3068  0.4352
12390SOL    HW239550  10.561   8.522   9.738  0.8620  1.6715  1.9760
12391SOL     OW39551   4.562   4.548  10.151 -0.1029 -0.0929  0.5794
12391SOL    HW139552   4.478   4.586  10.126 -0.7599  0.0895  2.8872
12391SOL    HW239553   4.619   4.623  10.168  0.3804 -0.2147 -0.4281
12392SOL     OW39554  10.423   9.509   9.736  0.1869 -0.0730  0.5900
12392SOL    HW139555  10.369   9.432   9.753 -0.1605  0.0202 -0.0904
12392SOL    HW239556  10.366   9.569   9.688  0.2788  0.8334  1.5643
12393SOL     OW39557   1.958   2.559   8.129 -0.2118  0.0758  0.0715
12393SOL    HW139558   1.927   2.580   8.041  0.5585  1.8335  0.1616
12393SOL    HW239559   2.014   2.482   8.118 -1.3548 -0.6653 -0.7087
12394SOL     OW39560   6.143   4.106   9.667 -0.5795  0.0326  0.1385
12394SOL    HW139561   6.171   4.017   9.687  0.1005 -0.0430 -1.0897
12394SOL    HW239562   6.225   4.155   9.657 -0.9033  1.2811  2.6668
12395SOL     OW39563   1.843  10.373   0.782 -0.2208  1.0321 -0.2794
12395SOL    HW139564   1.763  10.411   0.818 -1.1741 -0.5136 -0.6947
12395SOL    HW239565   1.893  10.345   0.859 -1.8350 -1.4283 -0.0111
12396SOL     OW39566   9.184   8.317  10.666  0.2936 -0.0649 -0.0906
12396SOL    HW139567   9.146   8.230  10.677  0.3568 -0.2209 -1.0912
12396SOL    HW239568   9.261   8.317  10.724  0.5287 -0.8148 -0.3921
12397SOL     OW39569   6.883   9.363   3.891  0.1125  0.0099 -0.3063
12397SOL    HW139570   6.975   9.378   3.869 -0.2180 -0.1007 -1.9236
12397SOL    HW239571   6.877   9.379   3.985  1.5603  1.1636 -0.3835
12398SOL     OW39572   5.639   9.384   5.867  0.0032  0.2672 -0.0895
12398SOL    HW139573   5.645   9.391   5.962 -2.3639 -0.0968  0.1551
12398SOL    HW239574   5.620   9.292   5.851  1.8831  0.0034 -1.0745
12399SOL     OW39575   1.975   1.368   3.362 -0.5993 -0.0486  0.2892
12399SOL    HW139576   2.037   1.435   3.389  0.4181 -1.4950  1.7821
12399SOL    HW239577   2.018   1.285   3.383 -1.2569 -1.2738 -2.6283
12400SOL     OW39578   0.795   1.556   9.485  0.3024 -0.3245  0.3472
12400SOL    HW139579   0.747   1.560   9.568 -0.5394 -1.5173 -0.0497
12400SOL    HW239580   0.878   1.514   9.507  0.4262  0.1119  0.7227
12401SOL     OW39581   2.849   1.723   4.428  0.1273 -0.6873 -0.1251
12401SOL    HW139582   2.886   1.771   4.354 -0.1198  2.1207  1.4243
12401SOL    HW239583   2.839   1.789   4.497 -1.3055 -2.7858  1.8355
12402SOL     OW39584   9.621   2.077   5.743  0.2455  0.0980  0.3515
12402SOL    HW139585   9.546   2.048   5.692 -0.1481  0.6456  0.6074
12402SOL    HW239586   9.595   2.064   5.834 -0.1857  1.7716  0.5004
12403SOL     OW39587   5.191   4.196   9.592 -0.4083 -0.1856  0.1132
12403SOL    HW139588   5.262   4.144   9.629 -0.7381 -1.0796 -0.4748
12403SOL    HW239589   5.123   4.132   9.570 -0.6345  0.4169 -1.0492
12404SOL     OW39590   0.331   6.241   2.431 -0.1105 -0.1742  0.1761
12404SOL    HW139591   0.359   6.279   2.514  0.1671  0.8244 -0.3585
12404SOL    HW239592   0.237   6.228   2.441 -0.0992  0.0565  0.5944
12405SOL     OW39593   2.182   1.436   2.943  0.4693 -0.0124  0.1226
12405SOL    HW139594   2.129   1.356   2.947  0.5426 -0.0767 -0.1727
12405SOL    HW239595   2.220   1.445   3.030  0.5576 -0.3647  0.1198
12406SOL     OW39596   9.125  10.091   5.294  0.0553  0.1104  0.3571
12406SOL    HW139597   9.190  10.093   5.223 -0.1629  1.9122  0.1782
12406SOL    HW239598   9.041  10.084   5.248  0.0185 -0.6329  0.5293
12407SOL     OW39599   4.156   9.052   6.905 -0.2897  0.2896  0.5895
12407SOL    HW139600   4.177   9.028   6.815  0.4732 -1.5286  1.2255
12407SOL    HW239601   4.217   9.123   6.925 -1.4049  1.7077 -0.7467
12408SOL     OW39602   4.045   2.557   0.189 -0.0776  0.2953  0.4740
12408SOL    HW139603   4.015   2.467   0.198  1.2729 -0.0978  1.4032
12408SOL    HW239604   4.133   2.549   0.152 -0.0326  1.2547  0.3464
12409SOL     OW39605   6.317   0.601   6.656  0.0736  0.3552 -0.0460
12409SOL    HW139606   6.347   0.690   6.636 -0.1215  0.2394 -0.8859
12409SOL    HW239607   6.309   0.558   6.571  2.4775 -1.2348  0.4097
12410SOL     OW39608   3.516   6.301   1.789 -0.3264 -0.0380  0.6313
12410SOL    HW139609   3.423   6.277   1.797 -0.9664  2.2672  0.6824
12410SOL    HW239610   3.526   6.378   1.844  1.3761  0.4541 -0.2917
12411SOL     OW39611   3.143   2.741   1.411  0.0054 -0.1300  0.5175
12411SOL    HW139612   3.145   2.668   1.474  0.4029 -0.2245  0.4005
12411SOL    HW239613   3.114   2.701   1.329  0.6451 -0.2497  0.3427
12412SOL     OW39614   3.670   5.689   6.282  0.0314  0.1791  0.2023
12412SOL    HW139615   3.606   5.628   6.245 -0.0808  0.4790 -0.0987
12412SOL    HW239616   3.617   5.747   6.338  0.1066  0.1389  0.3155
12413SOL     OW39617  10.387   1.173   8.785 -0.3497  0.1908 -0.1126
12413SOL    HW139618  10.429   1.252   8.818 -0.5570  0.5051 -0.5940
12413SOL    HW239619  10.311   1.162   8.842 -0.1764  0.1881  0.1217
12414SOL     OW39620   8.380   6.475   6.536 -0.4061 -0.0675  0.6590
12414SOL    HW139621   8.443   6.410   6.505 -0.2636  0.6071 -0.5098
12414SOL    HW239622   8.397   6.553   6.482 -0.4165  1.0262  2.1518
12415SOL     OW39623   5.557   8.449   2.871  0.1795  0.2154  0.0105
12415SOL    HW139624   5.541   8.536   2.836 -1.8121 -0.0664  0.0902
12415SOL    HW239625   5.579   8.395   2.795  2.0719  0.8634  0.0364
12416SOL     OW39626   7.113   8.395  10.407  0.1254 -0.1787 -0.5215
12416SOL    HW139627   7.207   8.383  10.395 -0.0528 -0.2496 -2.0175
12416SOL    HW239628   7.073   8.360  10.327 -1.1568  0.1635 -0.0662
12417SOL     OW39629   0.637   9.709   4.019  0.3209 -0.3451 -1.0859
12417SOL    HW139630   0.578   9.652   4.069  0.3826 -0.2220 -0.8681
12417SOL    HW239631   0.585   9.787   3.999  0.9170  0.5569  0.6538
12418SOL     OW39632   5.579   4.843   7.083  0.4744  0.0934  0.7320
12418SOL    HW139633   5.631   4.776   7.039  0.5104  1.8894 -2.2536
12418SOL    HW239634   5.488   4.814   7.072  0.5634 -0.1695  0.6929
12419SOL     OW39635   8.755   3.102   3.604 -0.0652 -0.7949 -0.6524
12419SOL    HW139636   8.841   3.124   3.570 -0.5846  0.2066 -1.4035
12419SOL    HW239637   8.731   3.177   3.658 -0.3979 -1.1264 -0.3365
12420SOL     OW39638   7.797   3.210   3.252  0.3382 -0.9885  0.2289
12420SOL    HW139639   7.841   3.232   3.170 -0.7585  1.4064  0.2114
12420SOL    HW239640   7.867   3.182   3.311  1.5331  0.0895 -0.6282
12421SOL     OW39641   4.484   9.149   1.164  0.3035  0.1960 -0.2510
12421SOL    HW139642   4.570   9.159   1.204  1.0679  0.6463 -1.8980
12421SOL    HW239643   4.457   9.059   1.186  0.4771  0.5612  1.5470
12422SOL     OW39644   6.191  10.267   3.931  0.3725  0.0681 -0.3701
12422SOL    HW139645   6.100  10.286   3.908 -0.3274 -1.4147  0.9506
12422SOL    HW239646   6.210  10.325   4.005  0.9462  1.2706 -1.4344
12423SOL     OW39647   9.747   1.559   0.110  0.7659  0.1729 -0.0646
12423SOL    HW139648   9.789   1.538   0.027 -0.7407 -0.6005 -0.6678
12423SOL    HW239649   9.708   1.645   0.097  0.2159 -0.1057 -0.3063
12424SOL     OW39650   6.316   0.000   9.693  0.5455  0.3234 -0.4228
12424SOL    HW139651   6.329  -0.054   9.771  1.0929  0.0855 -0.6732
12424SOL    HW239652   6.221   0.012   9.687  0.5190  0.6397  0.4741
12425SOL     OW39653   7.655   5.680   9.312  0.1244 -0.2016  0.1291
12425SOL    HW139654   7.712   5.618   9.357 -1.3311 -1.3944  0.3635
12425SOL    HW239655   7.687   5.766   9.340 -0.6631 -0.8614  3.4462
12426SOL     OW39656   5.367   9.810   4.294  0.1111  0.1601 -0.1058
12426SOL    HW139657   5.379   9.761   4.213  0.2782  1.1102 -0.6606
12426SOL    HW239658   5.273   9.810   4.309  0.1276 -0.5434  0.0371
12427SOL     OW39659   5.607  10.186   5.686 -0.3052  0.0203  0.0739
12427SOL    HW139660   5.580  10.199   5.596  0.2628  1.2922  0.0674
12427SOL    HW239661   5.525  10.181   5.735 -0.6068 -0.2179 -0.4462
12428SOL     OW39662   0.835   0.163   3.712  0.1865 -0.0279  0.6558
12428SOL    HW139663   0.853   0.093   3.775  0.3977 -0.7415 -0.1776
12428SOL    HW239664   0.921   0.192   3.683  0.1184 -1.3651 -1.0729
12429SOL     OW39665   4.766   3.029   3.061  0.5570  0.1699 -0.1131
12429SOL    HW139666   4.692   3.090   3.062 -2.3240 -3.0019 -1.0849
12429SOL    HW239667   4.740   2.959   3.120  2.6091 -1.2834 -0.8289
12430SOL     OW39668   3.632   9.353   9.589 -0.1446 -0.7332 -0.2754
12430SOL    HW139669   3.677   9.405   9.655  3.8473 -2.4594 -1.3594
12430SOL    HW239670   3.580   9.416   9.539  0.1572  1.2425  1.7549
12431SOL     OW39671   6.509   6.263   9.005 -0.0806 -0.1466 -0.3124
12431SOL    HW139672   6.487   6.181   8.960 -4.3249  1.1681 -1.0108
12431SOL    HW239673   6.456   6.262   9.085 -0.2589  1.8998 -0.3636
12432SOL     OW39674   4.514   1.379   8.525  0.0456 -0.2951 -0.1090
12432SOL    HW139675   4.453   1.305   8.525 -0.4912  0.1419 -0.0623
12432SOL    HW239676   4.476   1.443   8.585  0.1466  0.3069 -0.6635
12433SOL     OW39677   4.288   4.795   5.717  0.0226  0.2593  0.0658
12433SOL    HW139678   4.370   4.842   5.701  0.6176 -1.1211 -1.2406
12433SOL    HW239679   4.312   4.702   5.710 -1.5358 -0.1887  0.2537
12434SOL     OW39680   7.568   0.203   8.484 -0.0644  0.9093 -0.2267
12434SOL    HW139681   7.594   0.120   8.524  0.4409  0.6934 -0.9885
12434SOL    HW239682   7.478   0.189   8.455  0.2238  0.4173 -0.9026
12435SOL     OW39683   9.789  10.296   0.733  0.4950 -0.2441 -0.7602
12435SOL    HW139684   9.763  10.388   0.738 -0.9569 -0.6888  1.2291
12435SOL    HW239685   9.735  10.260   0.662 -1.8328 -0.3394  0.9534
12436SOL     OW39686  10.074   9.753   2.656  0.7813 -0.0731  0.4412
12436SOL    HW139687  10.085   9.719   2.745 -0.3231 -1.6736  0.0183
12436SOL    HW239688  10.051   9.845   2.668  0.5211 -0.3011  1.8338
12437SOL     OW39689  10.478   7.438   6.274  0.1711  0.5828  0.3465
12437SOL    HW139690  10.410   7.495   6.311 -1.6693 -1.3538  0.1623
12437SOL    HW239691  10.463   7.353   6.316  1.6653 -0.2334 -0.6975
12438SOL     OW39692   4.419   5.814   5.351  0.3254  0.5017  0.0939
12438SOL    HW139693   4.509   5.833   5.324  0.8754  0.2479  1.6462
12438SOL    HW239694   4.422   5.725   5.384 -0.8358 -0.0315 -1.1199
12439SOL     OW39695   8.898   8.092   3.913 -0.0608 -0.4235  0.0872
12439SOL    HW139696   8.912   8.039   3.834  0.1853 -0.4722  0.1615
12439SOL    HW239697   8.955   8.168   3.901 -0.1163 -0.3707  0.1614
12440SOL     OW39698   4.035   1.494   7.091  0.5238  0.1476 -0.0627
12440SOL    HW139699   4.050   1.542   7.172 -1.0844  2.4480 -1.0173
12440SOL    HW239700   4.007   1.407   7.119 -1.2410  1.2739  1.9198
12441SOL     OW39701   3.659  10.214   5.095 -0.2014  0.1417  0.5294
12441SOL    HW139702   3.606  10.291   5.074 -0.5651  0.1466  1.4024
12441SOL    HW239703   3.648  10.156   5.020 -3.4106 -0.9012  1.5997
12442SOL     OW39704   2.087   0.800   2.794  0.3799  0.0810  0.0651
12442SOL    HW139705   2.058   0.723   2.746 -1.1887 -0.0077  1.0522
12442SOL    HW239706   2.159   0.769   2.848 -1.0877 -1.1073  1.4571
12443SOL     OW39707   1.888   9.679   4.504  0.0842 -0.3300 -0.0223
12443SOL    HW139708   1.979   9.706   4.491 -0.2451  0.9410  0.1530
12443SOL    HW239709   1.852   9.671   4.416  0.0293  0.4211 -0.0742
12444SOL     OW39710   2.447   6.136   6.653 -0.1635 -0.3289 -0.2619
12444SOL    HW139711   2.353   6.149   6.640 -0.4510 -0.7470  1.2758
12444SOL    HW239712   2.464   6.049   6.618 -0.1929  0.0133 -1.1735
12445SOL     OW39713   8.709   0.869   1.444  0.2090 -0.1277  0.1004
12445SOL    HW139714   8.696   0.963   1.458  0.0855 -0.0131 -0.7219
12445SOL    HW239715   8.649   0.827   1.506 -2.0299  0.3794 -1.5730
12446SOL     OW39716   5.539   7.829   3.866 -0.1797  0.4188 -0.2416
12446SOL    HW139717   5.561   7.762   3.931  0.2551  1.8973  1.1832
12446SOL    HW239718   5.512   7.779   3.789  1.6001 -1.4305  0.2437
12447SOL     OW39719   5.250   3.320   7.766 -0.4387  0.0991 -0.4609
12447SOL    HW139720   5.278   3.229   7.760 -0.8656 -0.1396  0.7231
12447SOL    HW239721   5.325   3.371   7.737  0.3654 -0.5911  0.3579
12448SOL     OW39722   9.715   2.372  10.533  0.1805 -0.1985 -0.3581
12448SOL    HW139723   9.736   2.366  10.626  4.7561  0.4147 -1.1376
12448SOL    HW239724   9.635   2.424  10.529  1.6200  2.6435  3.1595
12449SOL     OW39725   7.734   1.340   4.586 -0.6133  0.4199 -0.0111
12449SOL    HW139726   7.762   1.249   4.582  3.7456  1.4887  0.9849
12449SOL    HW239727   7.666   1.342   4.653  0.0230 -1.9596  0.7889
12450SOL     OW39728   0.228   1.832   1.281  0.0387 -0.1084 -0.2556
12450SOL    HW139729   0.192   1.757   1.328 -0.3130 -0.0888 -0.4906
12450SOL    HW239730   0.293   1.869   1.340 -0.2081 -0.2465  0.1007
12451SOL     OW39731   1.685   0.325   6.294 -0.0776 -0.1216 -0.0710
12451SOL    HW139732   1.728   0.240   6.283 -3.2006 -1.7220 -0.7714
12451SOL    HW239733   1.629   0.314   6.371 -0.7312  1.2303 -0.3264
12452SOL     OW39734   4.499   3.869   5.080  0.1883 -0.6241 -0.0594
12452SOL    HW139735   4.420   3.837   5.123  0.0375  0.5025  0.5242
12452SOL    HW239736   4.565   3.872   5.150  1.1180 -2.6878 -0.7737
12453SOL     OW39737   1.812   1.580   3.510  0.5178  0.4751 -0.2895
12453SOL    HW139738   1.872   1.513   3.543 -0.6811  0.9912  3.3784
12453SOL    HW239739   1.726   1.539   3.514 -0.3362  2.2587  2.6826
12454SOL     OW39740   2.860   6.831   7.867  0.5977  0.1257  0.1198
12454SOL    HW139741   2.866   6.791   7.780  2.8121 -0.0949  0.3074
12454SOL    HW239742   2.876   6.924   7.852 -0.9425  0.3970  0.0908
12455SOL     OW39743   2.645  10.165   9.155  0.0839 -0.1957  0.3297
12455SOL    HW139744   2.622  10.182   9.063 -0.9945  0.0788  0.6415
12455SOL    HW239745   2.713  10.098   9.150 -0.5964 -0.8432 -0.6340
12456SOL     OW39746   5.872   4.012   1.963 -0.8218 -0.2684 -0.0647
12456SOL    HW139747   5.779   3.989   1.965 -0.4631 -1.7865  1.3592
12456SOL    HW239748   5.913   3.952   2.025  0.8645  1.4826  0.6243
12457SOL     OW39749   9.797  10.719   6.101 -0.4537  0.3337 -0.0333
12457SOL    HW139750   9.705  10.742   6.101 -0.7741 -0.8026  1.2823
12457SOL    HW239751   9.829  10.746   6.015 -1.2270  3.6518  0.6195
12458SOL     OW39752   7.745   0.920   7.977 -0.7052 -0.5332 -0.9117
12458SOL    HW139753   7.650   0.929   7.969 -0.9058 -0.3728  1.1042
12458SOL    HW239754   7.766   0.964   8.060  1.0749 -0.9451 -1.1051
12459SOL     OW39755   1.186   1.389   5.503 -0.2614 -0.0523  0.0833
12459SOL    HW139756   1.203   1.329   5.430  0.3327  0.2666 -0.0493
12459SOL    HW239757   1.180   1.475   5.462 -0.8501  0.0148  0.3043
12460SOL     OW39758   6.380   3.112   6.296 -0.2451 -0.0696  0.3844
12460SOL    HW139759   6.409   3.198   6.326 -1.0752  0.1141  0.6921
12460SOL    HW239760   6.458   3.073   6.257  0.1996  0.7310  0.4422
12461SOL     OW39761   7.240   0.039   3.021  1.0564  0.5271  0.4095
12461SOL    HW139762   7.220  -0.053   3.036 -1.2516  0.0185 -3.8771
12461SOL    HW239763   7.157   0.085   3.035  1.8287  1.7591  1.1769
12462SOL     OW39764   0.517   9.057   6.176  0.8985 -0.4872  0.6455
12462SOL    HW139765   0.446   9.084   6.119  1.6798 -0.2281 -0.2158
12462SOL    HW239766   0.572   9.135   6.186  1.0237 -0.6581  1.3696
12463SOL     OW39767   0.745   2.727   4.477 -0.0046 -0.2366 -0.0283
12463SOL    HW139768   0.674   2.666   4.498 -0.7331  0.8834  0.8540
12463SOL    HW239769   0.765   2.771   4.559 -0.7666  2.0180 -0.9670
12464SOL     OW39770   0.692   3.380   8.589 -0.1537 -0.1391  0.1512
12464SOL    HW139771   0.773   3.419   8.555  0.3676 -1.7740 -0.6131
12464SOL    HW239772   0.683   3.416   8.677  0.4995  1.3447 -0.3609
12465SOL     OW39773   9.691   8.080   9.861 -0.8884 -0.1923  0.0810
12465SOL    HW139774   9.738   8.163   9.864 -0.5456 -0.3835  0.0928
12465SOL    HW239775   9.610   8.096   9.909 -1.4132  0.4929 -0.9978
12466SOL     OW39776   5.580   8.187   2.153 -0.4041 -0.0775  0.4053
12466SOL    HW139777   5.636   8.131   2.207 -0.0120  2.2050  2.5497
12466SOL    HW239778   5.502   8.202   2.206 -0.2590  1.7955  0.1431
12467SOL     OW39779   7.228   4.116   2.380  0.4014 -0.1695  0.0683
12467SOL    HW139780   7.251   4.126   2.472  0.5098  0.1976  0.0016
12467SOL    HW239781   7.144   4.161   2.371  2.2341  3.3984 -0.8455
12468SOL     OW39782   8.918   7.024  10.531  0.0738  0.0729  0.0705
12468SOL    HW139783   8.908   7.112  10.565 -0.6964 -0.0261  0.1150
12468SOL    HW239784   8.853   6.972  10.579  0.5855 -0.5383  0.1189
12469SOL     OW39785   3.475   5.682  10.743 -0.1762  0.2602  0.1687
12469SOL    HW139786   3.518   5.708  10.662  1.4582 -0.2793  0.8230
12469SOL    HW239787   3.397   5.634  10.715  1.0984 -1.1267 -1.1308
12470SOL     OW39788   7.472   5.326   3.694  0.0585 -0.3286  0.2348
12470SOL    HW139789   7.461   5.231   3.693  0.3720 -0.3680  0.2861
12470SOL    HW239790   7.551   5.340   3.747  1.0108 -0.1445 -1.1902
12471SOL     OW39791   5.752   1.154   4.127 -0.7810 -0.0523 -0.1086
12471SOL    HW139792   5.840   1.148   4.165 -1.4737  1.0288  1.8051
12471SOL    HW239793   5.756   1.099   4.049  0.6482 -2.7074  1.6842
12472SOL     OW39794   3.396   2.728   9.896  0.2634 -0.2857 -0.4822
12472SOL    HW139795   3.461   2.716   9.827 -0.0397  0.3774 -0.8852
12472SOL    HW239796   3.359   2.815   9.880 -0.2390 -0.3750  0.1525
12473SOL     OW39797   0.960   3.096   2.848 -0.0436 -0.1246  0.0883
12473SOL    HW139798   0.912   3.079   2.929 -0.8859  0.8926 -0.1795
12473SOL    HW239799   1.029   3.157   2.874 -0.0461 -0.1304  0.1096
12474SOL     OW39800   7.757   3.715   1.617  0.0927  0.5964 -0.4894
12474SOL    HW139801   7.767   3.806   1.592  0.8379  0.7574  0.3186
12474SOL    HW239802   7.679   3.685   1.571  0.0913  1.5147 -1.1032
12475SOL     OW39803   1.147   5.254   2.630  0.0985 -0.4229 -0.2578
12475SOL    HW139804   1.069   5.305   2.651  0.0004 -1.1570  1.3416
12475SOL    HW239805   1.154   5.258   2.535 -0.1943  2.0927 -0.2395
12476SOL     OW39806   8.250   3.940   6.276  1.1064 -0.0851 -0.2397
12476SOL    HW139807   8.235   4.030   6.303  2.5358 -0.0483  0.5566
12476SOL    HW239808   8.235   3.939   6.182  0.6264  0.8691 -0.1800
12477SOL     OW39809   0.310   3.443   3.677  0.2402  0.8807 -0.0537
12477SOL    HW139810   0.322   3.509   3.609 -1.4503  0.9343 -0.3634
12477SOL    HW239811   0.355   3.365   3.645  0.8372  1.3863 -0.4615
12478SOL     OW39812   4.589   2.076  10.111  0.0918 -0.4906  0.4873
12478SOL    HW139813   4.627   2.140  10.052 -1.3955 -1.4638 -1.6407
12478SOL    HW239814   4.657   2.060  10.177  0.7833  2.6492  0.6912
12479SOL     OW39815   7.952   9.750   8.199 -0.5112 -0.2679  0.3803
12479SOL    HW139816   7.860   9.741   8.172 -0.7270 -0.8520  1.2537
12479SOL    HW239817   8.001   9.757   8.117 -1.4055  0.8885 -0.0877
12480SOL     OW39818   8.889  10.552   7.981  0.0337  0.2831 -0.0486
12480SOL    HW139819   8.982  10.546   7.961 -0.0381  1.1393 -0.6807
12480SOL    HW239820   8.873  10.645   7.997 -0.8019  0.2197 -0.4458
12481SOL     OW39821   1.630   0.558   4.451  0.6065 -0.1927 -0.1971
12481SOL    HW139822   1.619   0.609   4.531  3.9682  1.2945 -0.5412
12481SOL    HW239823   1.615   0.467   4.478 -1.7808  0.5304  1.2548
12482SOL     OW39824   5.672   4.077   8.955  0.0618 -0.4799 -0.0778
12482SOL    HW139825   5.633   4.119   8.878  1.5976  1.7577  0.2738
12482SOL    HW239826   5.762   4.056   8.929  1.8091  3.4320  1.9295
12483SOL     OW39827   5.306   3.891   6.620 -0.2097  0.4403 -0.6929
12483SOL    HW139828   5.232   3.929   6.667  1.8511  3.2842  0.5767
12483SOL    HW239829   5.359   3.850   6.688  0.1498 -0.2126 -1.3548
12484SOL     OW39830   8.653   9.298   2.153 -0.4204 -0.2664  0.3643
12484SOL    HW139831   8.712   9.373   2.143 -1.1190  0.1262 -1.1194
12484SOL    HW239832   8.698   9.226   2.110  0.0166 -0.5810  1.3279
12485SOL     OW39833   7.258   6.589   1.545 -0.3720  0.2150 -0.4957
12485SOL    HW139834   7.282   6.530   1.616  1.1033  0.8668 -0.4195
12485SOL    HW239835   7.164   6.601   1.554 -0.1245  0.8477  1.8117
12486SOL     OW39836   6.679   2.611   4.220 -0.0990 -0.2747  0.4817
12486SOL    HW139837   6.614   2.651   4.163  0.6747 -2.4391 -2.0945
12486SOL    HW239838   6.630   2.548   4.273 -0.6929  1.1804  1.7355
12487SOL     OW39839  10.158   8.581   7.549  0.2630  0.4445  0.2067
12487SOL    HW139840  10.172   8.565   7.643 -1.8327 -0.1253  0.4686
12487SOL    HW239841  10.065   8.600   7.541  0.5547  1.3126 -1.6803
12488SOL     OW39842   3.792   5.048  10.712 -0.1067 -0.3300  0.0771
12488SOL    HW139843   3.806   5.021  10.621  0.6540 -1.3622  0.4763
12488SOL    HW239844   3.797   4.967  10.762 -2.7819 -0.1110  0.8494
12489SOL     OW39845   7.046   3.943   1.774  1.0194 -0.1214 -0.3486
12489SOL    HW139846   6.970   3.902   1.734  0.2463 -0.1465  1.0721
12489SOL    HW239847   7.119   3.921   1.716  0.1659 -1.2072 -1.0477
12490SOL     OW39848   4.965   7.802   9.159  0.1570 -0.6193 -0.2993
12490SOL    HW139849   5.059   7.822   9.155  0.1621 -0.0959  1.5675
12490SOL    HW239850   4.922   7.887   9.157 -0.3481 -0.8833 -1.8347
12491SOL     OW39851   3.380   0.261   1.321  0.5352 -0.3379 -0.2190
12491SOL    HW139852   3.444   0.322   1.359  0.3400 -1.3282  1.7641
12491SOL    HW239853   3.428   0.219   1.249  2.1500 -0.9998  1.1636
12492SOL     OW39854   9.400   7.834   2.270  0.0356  0.3227 -0.8420
12492SOL    HW139855   9.378   7.782   2.194 -0.0931  0.6993 -1.0627
12492SOL    HW239856   9.319   7.878   2.295 -0.2791 -0.8944  0.3738
12493SOL     OW39857   6.682   7.254   7.499  0.1339 -0.2559 -0.3272
12493SOL    HW139858   6.667   7.337   7.453  0.5252  0.0503  0.0904
12493SOL    HW239859   6.755   7.213   7.451  0.5594  0.0757  0.0312
12494SOL     OW39860   1.767   4.050   8.514  0.3053 -0.0255 -0.1538
12494SOL    HW139861   1.733   4.113   8.578  2.6379  1.3698 -0.1884
12494SOL    HW239862   1.851   4.022   8.550  0.7055 -0.8053 -1.6076
12495SOL     OW39863   3.221   1.892   8.410 -0.5451  0.3499 -0.2904
12495SOL    HW139864   3.283   1.920   8.343  0.4201 -0.9207  0.0316
12495SOL    HW239865   3.138   1.881   8.364  0.3152 -1.4523 -1.5193
12496SOL     OW39866   6.736   1.332   3.837  0.3961 -0.1672  0.1041
12496SOL    HW139867   6.723   1.376   3.920  1.5260 -0.0668  0.2422
12496SOL    HW239868   6.722   1.239   3.856  2.8636 -0.4240  0.9557
12497SOL     OW39869   7.075   3.610   5.180  0.2353  0.2237  0.0166
12497SOL    HW139870   6.988   3.651   5.175 -0.3201 -0.7570  1.1487
12497SOL    HW239871   7.074   3.543   5.111 -0.0299  0.0027  0.2337
12498SOL     OW39872   5.775   4.075   5.294 -0.0809 -0.1438 -0.2884
12498SOL    HW139873   5.827   4.090   5.215 -1.5668  0.5123 -1.1851
12498SOL    HW239874   5.813   4.133   5.360  0.4042  0.2258 -0.8872
12499SOL     OW39875   3.808   9.961   2.102  0.0242  0.4697  0.2614
12499SOL    HW139876   3.775   9.974   2.191 -0.2521  1.1092  0.0699
12499SOL    HW239877   3.757   9.887   2.069  3.4836 -3.2492  2.3128
12500SOL     OW39878   0.567   6.527   9.676  0.1967 -0.0543  0.6797
12500SOL    HW139879   0.631   6.465   9.641  0.2954 -0.5651  1.7322
12500SOL    HW239880   0.554   6.590   9.606  2.2863  0.3874  0.6287
12501SOL     OW39881   4.029   4.253   6.445 -0.1287  0.2621 -0.1499
12501SOL    HW139882   3.992   4.198   6.377  1.9989  0.4991 -1.6074
12501SOL    HW239883   4.012   4.206   6.526 -3.2262  0.2571 -0.6959
12502SOL     OW39884   5.835   6.517   9.223  0.6982 -0.0789  0.0450
12502SOL    HW139885   5.827   6.609   9.247 -0.9200 -0.0300 -0.5646
12502SOL    HW239886   5.756   6.476   9.257  1.9187 -1.5241  1.3316
12503SOL     OW39887   2.452   5.079   6.365 -0.3426 -0.0966  0.4289
12503SOL    HW139888   2.508   5.041   6.433 -1.6264 -1.3135  0.8477
12503SOL    HW239889   2.443   5.009   6.300  0.4477  0.8770 -0.7767
12504SOL     OW39890   3.524   3.408   0.215 -0.2561  0.2060  0.1199
12504SOL    HW139891   3.514   3.452   0.300  0.2419 -0.7350  0.6935
12504SOL    HW239892   3.490   3.319   0.231  2.1411 -0.7880  0.0813
12505SOL     OW39893   6.817   6.699   0.747  0.4571  0.0126  0.0662
12505SOL    HW139894   6.898   6.662   0.781  0.2596 -0.2347  0.2708
12505SOL    HW239895   6.761   6.712   0.824 -0.1803 -1.0127 -0.2005
12506SOL     OW39896  10.736   2.870   3.177 -0.3564  0.4083 -0.3731
12506SOL    HW139897  10.684   2.842   3.102  0.2240 -1.6978 -0.0392
12506SOL    HW239898  10.678   2.860   3.252 -0.3401  0.6971 -0.3221
12507SOL     OW39899   6.275   1.039   2.554  0.2900 -0.4671 -0.1603
12507SOL    HW139900   6.349   1.002   2.603  2.1976 -0.3091 -2.6971
12507SOL    HW239901   6.242   0.966   2.502 -0.6475 -0.2501  0.1030
12508SOL     OW39902   6.522   4.648  10.378  0.3114 -0.2476  0.5844
12508SOL    HW139903   6.440   4.694  10.397  0.7051  0.1149  1.4299
12508SOL    HW239904   6.570   4.648  10.461  0.8512 -1.1077  0.2798
12509SOL     OW39905   1.932   9.854   1.711 -0.1754 -0.6675  0.4809
12509SOL    HW139906   1.993   9.905   1.764  0.0462 -0.3371 -0.0865
12509SOL    HW239907   1.855   9.843   1.768  0.7696 -1.9535  1.5782
12510SOL     OW39908   9.534   1.911   2.758 -0.1819  0.3558  0.4595
12510SOL    HW139909   9.535   2.005   2.737 -0.2045  0.4497  0.8840
12510SOL    HW239910   9.587   1.871   2.689 -0.1758  0.6809  0.2737
12511SOL     OW39911   7.384   6.803   2.101 -0.0238 -0.2152  0.2989
12511SOL    HW139912   7.295   6.813   2.136 -0.2719  1.1718 -0.6248
12511SOL    HW239913   7.432   6.877   2.136  0.4944 -0.3998 -0.0172
12512SOL     OW39914   7.177   3.901   1.518 -0.5075 -0.1206 -0.6396
12512SOL    HW139915   7.258   3.853   1.539 -1.7819 -2.0760  0.0915
12512SOL    HW239916   7.128   3.841   1.462 -3.3623 -0.9830  2.4580
12513SOL     OW39917   1.582   3.418   3.839 -0.2140 -0.1898  0.2682
12513SOL    HW139918   1.625   3.413   3.753  0.4042 -1.5420  0.6302
12513SOL    HW239919   1.528   3.339   3.843 -3.0689  1.5861 -0.3003
12514SOL     OW39920   1.568   0.618  10.113 -0.5308  0.1870  0.1181
12514SOL    HW139921   1.580   0.540  10.059 -1.5820  1.4213 -2.0097
12514SOL    HW239922   1.527   0.682  10.055 -1.5078  1.6987  2.3197
12515SOL     OW39923   8.038   3.527   5.864 -0.6782  0.0800 -0.8809
12515SOL    HW139924   8.070   3.559   5.948  1.6302 -0.9864 -1.2646
12515SOL    HW239925   8.093   3.571   5.799 -1.7498  0.1240 -1.7905
12516SOL     OW39926   3.063  10.297   6.191 -0.6464 -0.1111 -0.7395
12516SOL    HW139927   2.996  10.292   6.260 -0.6026 -0.5424 -0.7245
12516SOL    HW239928   3.092  10.388   6.193 -1.0070  0.0040 -0.5302
12517SOL     OW39929   1.141   7.214   9.638  0.3266  0.3822 -0.6772
12517SOL    HW139930   1.077   7.143   9.639 -1.4692  1.9092 -1.4470
12517SOL    HW239931   1.219   7.175   9.597  0.1081 -1.6355  0.6604
12518SOL     OW39932   9.895   8.497   2.566  0.7613  0.1639  0.1123
12518SOL    HW139933   9.949   8.566   2.527 -0.7456  1.7123  0.5971
12518SOL    HW239934   9.829   8.545   2.617 -2.8950 -1.3580 -2.7143
12519SOL     OW39935   0.758   8.859   2.639  0.3159  0.0275 -0.1414
12519SOL    HW139936   0.822   8.791   2.622  0.1455  0.0914 -1.0711
12519SOL    HW239937   0.739   8.897   2.553 -2.3382 -1.1968 -0.1785
12520SOL     OW39938   4.832   2.860   1.633  0.1488 -0.0044 -0.6079
12520SOL    HW139939   4.881   2.863   1.551  1.5065 -1.6227  0.0774
12520SOL    HW239940   4.860   2.938   1.681  2.1728 -0.9135 -0.2155
12521SOL     OW39941   1.659   8.040   7.821 -0.0917  0.1272 -0.4762
12521SOL    HW139942   1.716   7.998   7.756 -2.8474 -2.6479 -1.3632
12521SOL    HW239943   1.615   8.109   7.772  0.5079  0.4657 -0.5425
12522SOL     OW39944   1.004  10.480  10.446 -0.5959  0.3844  0.0746
12522SOL    HW139945   1.040  10.537  10.515  1.7338  0.9923 -1.5108
12522SOL    HW239946   0.912  10.506  10.439 -0.6410  1.0261  2.2018
12523SOL     OW39947   3.863   0.858   0.822  0.1054  0.4725 -0.2578
12523SOL    HW139948   3.850   0.763   0.823  0.3341  0.3568 -2.4476
12523SOL    HW239949   3.957   0.868   0.805 -0.0835  1.0551 -1.0058
12524SOL     OW39950   2.818   4.623   4.526 -0.0195  0.1164  0.2652
12524SOL    HW139951   2.876   4.548   4.539 -1.9751 -1.2243  1.8634
12524SOL    HW239952   2.764   4.599   4.452  0.5991  0.8340 -0.4423
12525SOL     OW39953   4.622   6.471   4.108 -0.0774 -0.0900 -0.0016
12525SOL    HW139954   4.704   6.452   4.061  0.0788 -0.2709  0.3423
12525SOL    HW239955   4.647   6.473   4.200  0.2144  3.2401 -0.0382
12526SOL     OW39956   9.622   0.213   5.607 -0.3325 -0.2292 -0.5443
12526SOL    HW139957   9.580   0.260   5.535 -0.6914  0.4123  0.0777
12526SOL    HW239958   9.566   0.229   5.683  1.7393  1.8470  0.6658
12527SOL     OW39959   0.471   7.288   4.635 -0.4832  0.6297  0.2792
12527SOL    HW139960   0.505   7.240   4.711 -1.1310 -1.4345 -0.6556
12527SOL    HW239961   0.543   7.290   4.573 -0.4352  0.9206  0.3457
12528SOL     OW39962   7.288   4.728   7.877 -0.4729  0.5796  0.5104
12528SOL    HW139963   7.354   4.754   7.941  0.1539  2.3236 -0.7351
12528SOL    HW239964   7.324   4.757   7.793 -2.0034 -0.1065 -0.4354
12529SOL     OW39965   4.431   8.306  10.220  0.1673 -0.0000  0.0534
12529SOL    HW139966   4.415   8.280  10.130  1.6000 -0.2289 -0.1543
12529SOL    HW239967   4.393   8.394  10.227  2.4900  1.2336 -1.6146
12530SOL     OW39968   4.015   0.278   3.349 -0.0446 -0.2649 -0.2057
12530SOL    HW139969   4.082   0.246   3.409  0.7963 -0.2097 -1.0825
12530SOL    HW239970   3.968   0.199   3.321  1.0618 -0.5929 -1.2243
12531SOL     OW39971   2.488   1.924   6.054 -0.4300 -0.2190  0.2918
12531SOL    HW139972   2.412   1.909   6.110  0.1224  1.6103  1.6128
12531SOL    HW239973   2.472   2.010   6.014 -1.3023 -1.8509 -3.2950
12532SOL     OW39974   0.483  10.331   4.088 -0.4056  0.0326 -0.5169
12532SOL    HW139975   0.457  10.402   4.147 -0.3878 -1.3271  1.2003
12532SOL    HW239976   0.577  10.344   4.075  0.0012 -0.7505  1.3750
12533SOL     OW39977   2.026   2.121   6.070 -0.0615 -0.3216  0.2457
12533SOL    HW139978   2.002   2.031   6.092  0.7985 -0.7369 -0.4738
12533SOL    HW239979   2.004   2.129   5.977  0.3968  0.0318  0.1673
12534SOL     OW39980   9.582   8.585   3.173 -0.4004 -0.1399  0.1046
12534SOL    HW139981   9.504   8.529   3.175  0.5446 -1.4780  1.2984
12534SOL    HW239982   9.616   8.574   3.084 -0.9931 -0.3537 -0.1072
12535SOL     OW39983   0.975   6.801   4.418  0.4886 -0.3844  0.1795
12535SOL    HW139984   0.881   6.814   4.435  0.6596  1.5292 -0.1409
12535SOL    HW239985   1.015   6.803   4.505  0.6837  3.4175  0.1681
12536SOL     OW39986   9.924   5.942   5.275 -0.3413 -0.8830  0.5748
12536SOL    HW139987   9.910   5.869   5.216 -0.2313 -0.8693  0.5317
12536SOL    HW239988   9.848   5.941   5.333 -1.1200 -0.1035 -0.3845
12537SOL     OW39989   0.810   6.305   1.915 -0.2508  0.2946  0.0226
12537SOL    HW139990   0.767   6.350   1.843 -0.9668 -1.2647 -0.5758
12537SOL    HW239991   0.741   6.253   1.956  0.0708  1.3653  2.0489
12538SOL     OW39992   9.785   0.095   1.125  0.6131 -0.4218 -0.0919
12538SOL    HW139993   9.782   0.175   1.071 -0.5509 -0.9997 -0.9446
12538SOL    HW239994   9.701   0.095   1.171 -0.3216 -2.1662 -1.6828
12539SOL     OW39995   6.527   5.328   0.529  0.1663 -0.2621  0.3516
12539SOL    HW139996   6.555   5.396   0.469  0.6377 -2.2747 -1.8884
12539SOL    HW239997   6.437   5.351   0.552  0.5787  1.5016  0.3233
12540SOL     OW39998   7.220   4.907   9.377 -0.2062  0.2958 -0.1949
12540SOL    HW139999   7.155   4.848   9.415  1.5459 -0.4493  1.7973
12540SOL    HW240000   7.294   4.850   9.355  0.6444  1.4407 -0.3632
12541SOL     OW40001   9.387   6.660   7.753  0.2726  0.2383  0.2601
12541SOL    HW140002   9.440   6.733   7.721  0.4656 -0.2193 -0.5044
12541SOL    HW240003   9.316   6.652   7.690  0.4287 -0.4232  0.1568
12542SOL     OW40004   5.731   5.798   4.265  0.2587 -0.5392  0.3884
12542SOL    HW140005   5.695   5.781   4.352 -0.3635 -0.2308  0.1923
12542SOL    HW240006   5.825   5.810   4.280 -0.0844  1.3459  1.2813
12543SOL     OW40007   7.014   9.631  10.784 -0.2523 -0.3958  0.2596
12543SOL    HW140008   7.016   9.575  10.861 -1.6527 -2.4690 -1.1073
12543SOL    HW240009   7.078   9.593  10.724 -0.6447 -0.0598 -0.3885
12544SOL     OW40010   3.057   3.253   0.195  0.0433 -0.3797  0.4053
12544SOL    HW140011   2.972   3.212   0.214 -0.9258  1.1077 -0.5142
12544SOL    HW240012   3.097   3.196   0.130 -1.7461  0.5848 -1.6570
12545SOL     OW40013   4.580   7.326   2.783 -0.1643 -0.5846 -0.2055
12545SOL    HW140014   4.617   7.313   2.695 -0.5043  1.5933 -0.7320
12545SOL    HW240015   4.648   7.374   2.830 -0.4047 -0.8033  0.3652
12546SOL     OW40016   3.520   3.428   1.046 -0.3055 -0.0065  0.3593
12546SOL    HW140017   3.583   3.380   0.992 -1.2546 -0.7048 -0.1429
12546SOL    HW240018   3.575   3.477   1.108  0.7886  0.5533 -1.0024
12547SOL     OW40019   0.834   2.996   6.029 -0.9373 -0.5487 -0.3181
12547SOL    HW140020   0.896   2.990   5.956  0.1189  0.2727  0.4814
12547SOL    HW240021   0.879   2.955   6.102 -1.5346 -0.3533  0.1653
12548SOL     OW40022   9.282   1.323   3.319 -0.1276  0.6878 -0.1051
12548SOL    HW140023   9.328   1.268   3.255 -0.4164  1.4514 -0.9947
12548SOL    HW240024   9.319   1.297   3.403  0.7066  0.0845 -0.6321
12549SOL     OW40025   7.863   6.051   4.982  0.5890  0.4152 -0.1368
12549SOL    HW140026   7.855   5.956   4.973 -1.3467  0.6552 -1.5567
12549SOL    HW240027   7.773   6.081   4.995  1.2177  2.0361  0.6550
12550SOL     OW40028   6.712   9.024   2.957  0.0373  0.0942  0.2274
12550SOL    HW140029   6.769   9.090   2.918 -1.0242  1.3778  0.7731
12550SOL    HW240030   6.693   8.962   2.886 -0.2578  1.2788 -0.7501
12551SOL     OW40031   3.035   2.515   2.171  0.4331 -0.5869 -0.2084
12551SOL    HW140032   3.068   2.434   2.211  1.8646 -0.8593 -1.7997
12551SOL    HW240033   3.102   2.538   2.107 -0.1971  1.6152 -0.1368
12552SOL     OW40034   0.987   8.291   2.138  0.0397  0.5851  0.4450
12552SOL    HW140035   0.908   8.247   2.107 -0.3528  1.5630  0.0040
12552SOL    HW240036   0.963   8.325   2.224  0.0408  0.7213  0.3918
12553SOL     OW40037   6.100  10.546   0.769  0.4927 -0.6134  0.2778
12553SOL    HW140038   6.039  10.480   0.802 -0.9095 -0.1313 -1.1761
12553SOL    HW240039   6.050  10.628   0.773 -0.1472 -0.6177 -3.6032
12554SOL     OW40040   8.081   4.226   0.651  0.3863  0.2327  0.1345
12554SOL    HW140041   8.025   4.159   0.612  2.6449 -0.6521 -1.9079
12554SOL    HW240042   8.127   4.264   0.576  2.1290  1.2384  1.6359
12555SOL     OW40043   5.310   1.724   9.022  0.0782  0.1659 -0.5996
12555SOL    HW140044   5.233   1.744   8.968 -2.7989 -1.2381  2.5867
12555SOL    HW240045   5.295   1.773   9.103  2.4868 -0.3239  0.2146
12556SOL     OW40046   3.210   7.762   8.176 -0.1175  0.0299 -0.5446
12556SOL    HW140047   3.276   7.758   8.108  0.2903  0.2370 -0.1692
12556SOL    HW240048   3.133   7.800   8.134  0.3376  0.7667 -0.7291
12557SOL     OW40049   3.138   4.703   1.197 -0.1159 -0.8128  0.3583
12557SOL    HW140050   3.233   4.701   1.209 -0.1714  0.5589  1.1601
12557SOL    HW240051   3.126   4.746   1.112 -0.0075 -1.3596  0.0664
12558SOL     OW40052   7.288   0.898  10.783  0.1459 -0.5554  0.3843
12558SOL    HW140053   7.353   0.932  10.845 -0.7681  0.0930  1.0092
12558SOL    HW240054   7.339   0.874  10.706  1.2481 -0.9476  1.2107
12559SOL     OW40055   2.823   3.060   0.292  0.2870 -0.1497  0.1293
12559SOL    HW140056   2.818   3.069   0.197 -1.0887 -1.0075  0.0910
12559SOL    HW240057   2.777   2.978   0.311  0.2133  0.1885  1.5684
12560SOL     OW40058   2.342  10.018  10.057 -0.2416  0.1297  0.3360
12560SOL    HW140059   2.272  10.077  10.027 -0.4057  1.0102  2.2785
12560SOL    HW240060   2.351  10.038  10.150  2.2109 -0.3932  0.2658
12561SOL     OW40061   4.995   7.765   0.723 -0.6049  0.5323 -0.1097
12561SOL    HW140062   4.996   7.838   0.660 -0.4422  0.4962 -0.1491
12561SOL    HW240063   4.995   7.687   0.668  0.8155  0.4778 -0.0780
12562SOL     OW40064   2.526   1.027   7.931 -0.2852  0.0489 -0.1083
12562SOL    HW140065   2.562   0.980   8.007 -2.7245 -0.9776  0.5100
12562SOL    HW240066   2.496   0.957   7.873 -1.0352  0.8480 -0.6986
12563SOL     OW40067   3.076   7.387   3.940  0.2762  0.0582 -0.4836
12563SOL    HW140068   3.020   7.399   4.017  0.7452 -0.9814  0.0460
12563SOL    HW240069   3.163   7.369   3.976  0.2670 -1.6620 -1.1889
12564SOL     OW40070  10.675   4.701   0.985 -0.0905  0.0204  0.3609
12564SOL    HW140071  10.693   4.759   1.059  0.7429  0.2788 -0.0311
12564SOL    HW240072  10.639   4.759   0.917 -1.4912 -0.3218  0.7701
12565SOL     OW40073   8.968   3.811   5.167  0.4672  0.0811 -0.1557
12565SOL    HW140074   8.950   3.766   5.250 -0.2887  0.8738  0.1241
12565SOL    HW240075   9.018   3.889   5.193  0.7263  0.0317 -0.5085
12566SOL     OW40076   5.231   9.339   3.405 -0.5613 -0.2250 -0.2787
12566SOL    HW140077   5.155   9.367   3.354  0.8329  0.6161 -2.0012
12566SOL    HW240078   5.260   9.258   3.363  0.3697  0.2680 -0.6301
12567SOL     OW40079   7.714   4.958   5.651 -0.0080  0.6332  0.2422
12567SOL    HW140080   7.665   4.970   5.732 -0.7310 -0.4637 -0.0102
12567SOL    HW240081   7.680   4.876   5.614  1.4426  0.2656 -0.3555
12568SOL     OW40082   9.386   3.247   6.629 -0.2735 -0.7976 -0.8331
12568SOL    HW140083   9.401   3.338   6.603 -1.2851 -0.4503 -0.2535
12568SOL    HW240084   9.298   3.247   6.668 -0.1097 -1.9350 -0.4224
12569SOL     OW40085   8.938   5.476   3.965  0.2235  0.3116 -0.1086
12569SOL    HW140086   8.902   5.452   3.879  0.4155  1.6754 -0.5892
12569SOL    HW240087   8.875   5.442   4.028 -0.4165  0.1492 -0.8269
12570SOL     OW40088   8.977   4.033   4.874  0.2213 -0.0669  0.0687
12570SOL    HW140089   8.958   4.064   4.963  1.0691 -0.7921  0.5239
12570SOL    HW240090   8.905   4.067   4.821 -1.1995 -0.9599  1.3169
12571SOL     OW40091   9.449   1.037   7.930  0.2014 -0.5354  0.4087
12571SOL    HW140092   9.455   1.099   8.003 -2.5212  3.2871 -2.2480
12571SOL    HW240093   9.355   1.025   7.917  0.5226 -0.2341 -3.0125
12572SOL     OW40094  10.271   9.880   5.265 -0.4542  0.6601 -0.4755
12572SOL    HW140095  10.256   9.792   5.299  0.9448  0.4150 -0.4271
12572SOL    HW240096  10.190   9.927   5.283 -1.4722 -0.7859 -1.0783
12573SOL     OW40097   8.334   1.754   5.276  0.6236 -0.4282 -0.3278
12573SOL    HW140098   8.262   1.753   5.339  0.3880  0.5916 -0.5489
12573SOL    HW240099   8.388   1.828   5.303  0.0012  0.6387 -1.8492
12574SOL     OW40100   4.229   3.431   1.049 -0.0895  0.1407 -0.2964
12574SOL    HW140101   4.322   3.408   1.044 -0.4395 -1.0571 -2.9539
12574SOL    HW240102   4.216   3.496   0.980 -1.0943  0.9226  0.5996
12575SOL     OW40103   3.293   2.057   2.841  0.0543 -0.2701  0.5518
12575SOL    HW140104   3.228   2.072   2.910  0.8053  2.5327  0.7842
12575SOL    HW240105   3.245   2.074   2.760  0.0097 -0.1432  0.6038
12576SOL     OW40106   6.370   0.251   8.492 -0.1990  0.7044 -0.0364
12576SOL    HW140107   6.367   0.268   8.398  0.8733 -0.7085 -0.3584
12576SOL    HW240108   6.440   0.188   8.503 -0.9144  0.1323  1.6205
12577SOL     OW40109   1.024   4.098   3.235  0.5626  0.3852  0.4303
12577SOL    HW140110   1.053   4.007   3.234 -1.6378 -0.3965  0.7032
12577SOL    HW240111   1.090   4.145   3.286 -0.7688 -2.0692  4.9298
12578SOL     OW40112   9.137   2.370   8.537 -0.0909 -0.0676 -0.2484
12578SOL    HW140113   9.133   2.298   8.600  2.0453  1.1144  1.3545
12578SOL    HW240114   9.198   2.432   8.576 -0.6857  1.9191 -2.3140
12579SOL     OW40115   1.056   9.070   6.463  0.0957 -0.1586 -0.2700
12579SOL    HW140116   1.061   9.131   6.537  0.5940 -0.5554  0.0344
12579SOL    HW240117   1.101   9.116   6.392 -0.4601  0.2599 -0.3599
12580SOL     OW40118   1.735   8.482  10.777  0.9800 -0.4889  0.0947
12580SOL    HW140119   1.666   8.475  10.843  0.6095  1.8697  0.0690
12580SOL    HW240120   1.699   8.440  10.699  1.7288 -4.0450  1.4820
12581SOL     OW40121   6.251  10.008  10.718 -0.0544 -0.5497  0.1236
12581SOL    HW140122   6.320   9.941  10.719 -1.0637 -1.6210  1.8831
12581SOL    HW240123   6.192   9.983  10.788 -2.2427  0.3795 -1.2927
12582SOL     OW40124   6.922   1.076   0.859  0.0663  0.2826 -0.3446
12582SOL    HW140125   6.905   1.085   0.953 -0.7679  1.6336 -0.5909
12582SOL    HW240126   6.835   1.070   0.820  0.2119  2.7902 -1.2582
12583SOL     OW40127  10.396   8.573   3.257  0.0942 -0.1936  0.3952
12583SOL    HW140128  10.396   8.664   3.226 -2.4725 -0.1322  0.3485
12583SOL    HW240129  10.452   8.526   3.195  0.6981  1.1631 -0.1390
12584SOL     OW40130   2.656   7.572   9.870  0.1285  0.2872  0.1290
12584SOL    HW140131   2.678   7.627   9.946 -0.7698 -0.3920  0.9039
12584SOL    HW240132   2.562   7.554   9.880  0.5452 -2.0677  0.3684
12585SOL     OW40133   0.740   3.008   1.852  0.3481  0.4838 -0.1011
12585SOL    HW140134   0.712   2.969   1.769 -1.4858  1.3420  0.0748
12585SOL    HW240135   0.755   2.932   1.909  0.8080 -0.0848 -0.9471
12586SOL     OW40136   6.891   7.520   5.090 -0.1556  0.7797  0.2750
12586SOL    HW140137   6.932   7.489   5.171 -0.9002  0.7340  0.6428
12586SOL    HW240138   6.909   7.614   5.089 -1.1948  1.0034  1.1351
12587SOL     OW40139   4.058   5.375   5.460  0.1495  0.2043 -0.5840
12587SOL    HW140140   4.094   5.459   5.489  1.1863 -1.0798  2.1944
12587SOL    HW240141   3.983   5.360   5.518  1.0716 -1.5556  0.2432
12588SOL     OW40142   9.883   5.973   0.640  0.0031  0.3246 -0.2283
12588SOL    HW140143   9.791   5.950   0.654  0.1722  0.0029  0.3728
12588SOL    HW240144   9.882   6.025   0.559 -0.9165  1.6575  0.5833
12589SOL     OW40145   1.452   4.438   9.026 -0.0782  0.1753  0.1642
12589SOL    HW140146   1.469   4.347   9.002  1.1082 -0.1893  2.1025
12589SOL    HW240147   1.533   4.485   9.004 -0.6161  0.7424 -0.6608
12590SOL     OW40148   8.224   7.259   5.085 -0.1861 -0.9607  0.1022
12590SOL    HW140149   8.248   7.275   4.994 -0.4719 -2.4417 -0.2556
12590SOL    HW240150   8.256   7.336   5.132  1.8841 -1.1290 -0.9146
12591SOL     OW40151   4.720   0.508   5.958 -0.5684 -0.0819  0.4393
12591SOL    HW140152   4.639   0.460   5.941  0.1066 -1.8924  1.9583
12591SOL    HW240153   4.774   0.492   5.880 -0.3698 -1.8302  0.9042
12592SOL     OW40154   7.977   6.683  10.019 -0.1743  1.0281 -0.0789
12592SOL    HW140155   8.004   6.763  10.064 -3.2743  1.5478  1.1232
12592SOL    HW240156   7.881   6.689  10.016 -0.7130 -3.3678  1.5671
12593SOL     OW40157   2.886   4.080   9.817 -0.4406  0.1642 -0.2557
12593SOL    HW140158   2.940   4.021   9.870 -0.0502  0.6918 -0.0703
12593SOL    HW240159   2.942   4.103   9.743 -0.4378  0.6596 -0.0968
12594SOL     OW40160   6.431   1.328   8.329  0.4654 -0.7039 -0.2666
12594SOL    HW140161   6.420   1.295   8.240 -0.7679  0.5450 -0.6139
12594SOL    HW240162   6.516   1.294   8.357  1.0957 -0.7226 -2.0797
12595SOL     OW40163   1.636   1.964   9.459 -0.2968 -0.8416  0.0099
12595SOL    HW140164   1.682   2.002   9.384 -0.7443 -0.8625 -0.2831
12595SOL    HW240165   1.645   2.028   9.529 -1.6041  0.1297 -0.6691
12596SOL     OW40166   1.093   4.119   7.310  0.1339 -0.0344  0.4171
12596SOL    HW140167   1.079   4.035   7.354  1.5383 -1.2580 -1.3214
12596SOL    HW240168   1.126   4.177   7.379  0.6120 -1.3587  1.3499
12597SOL     OW40169   8.926   4.161   5.451 -0.3494  0.1338 -0.1036
12597SOL    HW140170   8.962   4.156   5.539  0.7650 -0.2020 -0.5641
12597SOL    HW240171   8.994   4.125   5.395 -0.9132  0.6421 -1.1460
12598SOL     OW40172   5.403   5.498   9.858 -0.5150  0.2448  0.1658
12598SOL    HW140173   5.338   5.488   9.928 -0.6516 -1.5074 -0.1676
12598SOL    HW240174   5.392   5.419   9.804  0.6691  0.7980 -0.9232
12599SOL     OW40175   2.126   7.877   2.457 -0.0991 -0.1842 -0.4517
12599SOL    HW140176   2.189   7.805   2.455 -0.8078 -0.9410  1.6792
12599SOL    HW240177   2.180   7.956   2.452  0.7316 -0.7941 -2.1195
12600SOL     OW40178   9.960  10.232   1.325 -0.0154  0.3891 -0.1697
12600SOL    HW140179   9.895  10.292   1.288  1.5265  2.7128  0.6299
12600SOL    HW240180   9.949  10.239   1.420  1.1303  0.5620 -0.0260
12601SOL     OW40181   6.121   3.877   5.926 -0.3974  0.1852 -0.1804
12601SOL    HW140182   6.060   3.913   5.990 -2.3518  0.0379 -1.8509
12601SOL    HW240183   6.121   3.941   5.855  0.1808 -0.6081 -0.9119
12602SOL     OW40184   2.667   0.679   4.090  0.2599 -0.1080  0.0620
12602SOL    HW140185   2.611   0.755   4.107 -0.6311 -0.5972 -0.5771
12602SOL    HW240186   2.742   0.715   4.042  0.4549  0.5426  0.8383
12603SOL     OW40187   8.331   7.613   6.865 -0.0219 -0.0123 -0.0068
12603SOL    HW140188   8.392   7.578   6.931 -0.4743  0.9844  0.9708
12603SOL    HW240189   8.332   7.708   6.879 -1.4607  0.0620 -0.2602
12604SOL     OW40190   3.759   2.206   3.828 -0.1330 -0.1823  0.3349
12604SOL    HW140191   3.829   2.165   3.777  0.7273  0.8268  0.6672
12604SOL    HW240192   3.795   2.291   3.854 -0.6295 -0.5554  2.4170
12605SOL     OW40193   0.136   9.857   0.583 -0.0030  0.6669  0.8655
12605SOL    HW140194   0.163   9.768   0.564  0.8761  0.4276  2.9406
12605SOL    HW240195   0.054   9.848   0.632  1.4763  0.7238  3.5671
12606SOL     OW40196   4.944   3.118   9.134  0.4124 -0.2064 -0.2433
12606SOL    HW140197   5.018   3.092   9.188  0.5118 -1.1111 -0.8009
12606SOL    HW240198   4.884   3.043   9.137  0.2260 -0.1008 -1.0436
12607SOL     OW40199   7.116   0.470   6.854  0.1750  0.4288  0.2271
12607SOL    HW140200   7.095   0.485   6.762 -2.0689 -0.1188  0.6016
12607SOL    HW240201   7.152   0.554   6.884  0.6903  0.6932 -1.0574
12608SOL     OW40202   5.874   5.057   9.343  0.0079 -0.1746  0.0223
12608SOL    HW140203   5.898   5.017   9.427 -1.4575 -0.5794  0.2830
12608SOL    HW240204   5.806   5.121   9.366  0.0632  0.1842 -0.7873
12609SOL     OW40205   2.289   4.628  10.709 -0.0879 -0.2420  0.0513
12609SOL    HW140206   2.343   4.596  10.781  0.1938  1.0699  0.4526
12609SOL    HW240207   2.251   4.710  10.742  0.7718  0.8804 -1.5775
12610SOL     OW40208   3.588   7.858   8.534  0.0025 -0.6410  0.1443
12610SOL    HW140209   3.560   7.770   8.511 -0.4239 -0.1300 -1.4380
12610SOL    HW240210   3.592   7.905   8.450  1.7036  0.4298  0.7546
12611SOL     OW40211   1.822   5.418   1.803 -0.2120 -1.2255 -0.7384
12611SOL    HW140212   1.807   5.324   1.814  2.0304 -1.4212  1.5624
12611SOL    HW240213   1.874   5.425   1.723 -1.5663 -1.7479 -1.7026
12612SOL     OW40214   9.884   1.129   4.553  0.4787 -0.4990  0.3240
12612SOL    HW140215   9.798   1.170   4.547  0.2929 -1.0244 -1.0507
12612SOL    HW240216   9.892   1.079   4.472  0.8786 -2.8387  1.7116
12613SOL     OW40217   9.756   0.195   3.809 -0.3720 -0.0533 -0.3105
12613SOL    HW140218   9.849   0.207   3.788  0.1238  0.8555  2.1295
12613SOL    HW240219   9.718   0.282   3.799 -0.6919 -0.1672 -0.0781
12614SOL     OW40220   5.224   9.266   7.871  0.4888 -0.3735  0.8990
12614SOL    HW140221   5.157   9.199   7.888  0.6415 -1.2422 -1.5133
12614SOL    HW240222   5.244   9.302   7.957 -2.8892 -0.2157  1.7654
12615SOL     OW40223   4.243   6.538   3.373  0.0211 -0.7298 -0.6648
12615SOL    HW140224   4.306   6.549   3.445  1.7458  1.6169 -2.3766
12615SOL    HW240225   4.286   6.478   3.313  0.5981  0.7072 -1.7363
12616SOL     OW40226   0.960   6.504   9.761  0.4061  0.6654  0.0025
12616SOL    HW140227   0.930   6.419   9.730 -0.0578  1.0566 -0.6387
12616SOL    HW240228   0.951   6.499   9.856  1.9558 -0.5889  0.1356
12617SOL     OW40229   8.823   2.171   3.078  0.0510  0.0880 -0.0891
12617SOL    HW140230   8.762   2.123   3.023  0.5085  0.1682 -0.6743
12617SOL    HW240231   8.785   2.259   3.085 -0.6586 -0.2735  0.7836
12618SOL     OW40232  10.096   5.532   3.946 -0.1632  0.3630  0.2922
12618SOL    HW140233  10.002   5.529   3.929 -0.2115 -2.0703  0.5918
12618SOL    HW240234  10.103   5.560   4.037 -0.5419  1.1637  0.0843
12619SOL     OW40235   8.960   2.813   8.496  0.3231 -0.4233 -0.7551
12619SOL    HW140236   8.967   2.717   8.497 -0.1233 -0.4565  0.5453
12619SOL    HW240237   9.047   2.843   8.521  0.8085 -0.4400 -2.3129
12620SOL     OW40238   4.328   1.312   4.346 -0.0404 -0.1930 -0.2738
12620SOL    HW140239   4.422   1.301   4.338 -0.1169 -1.1649  0.0503
12620SOL    HW240240   4.298   1.334   4.257  0.1718 -2.4680 -0.9663
12621SOL     OW40241   2.275   0.416   7.819 -0.4547  0.7463  0.1504
12621SOL    HW140242   2.350   0.361   7.796  0.4991  1.6400  1.0644
12621SOL    HW240243   2.212   0.400   7.748  1.2387  1.2200 -1.5310
12622SOL     OW40244   4.579   6.190   0.715 -0.4918  0.0007 -0.3996
12622SOL    HW140245   4.585   6.284   0.698 -0.3041 -0.0303 -0.5027
12622SOL    HW240246   4.489   6.167   0.690 -1.0922  0.4658  1.1731
12623SOL     OW40247   2.159   7.370   7.625 -0.0926  0.2952 -0.4500
12623SOL    HW140248   2.245   7.348   7.660  0.6212  1.1851 -1.5445
12623SOL    HW240249   2.097   7.324   7.681  1.0447  0.4846  1.0362
12624SOL     OW40250   1.048   1.630   2.357  0.0350 -1.1537 -0.4927
12624SOL    HW140251   1.116   1.583   2.405  0.4401 -1.6521 -1.5133
12624SOL    HW240252   0.981   1.564   2.340 -0.4551 -0.8006  0.0121
12625SOL     OW40253   8.099   4.779   2.312 -0.4298 -0.5244 -0.4000
12625SOL    HW140254   8.193   4.762   2.324 -0.1602  1.2811  0.2755
12625SOL    HW240255   8.093   4.830   2.232 -0.5569  1.3627  0.7585
12626SOL     OW40256   7.968   4.076   9.655  0.5943  0.9228  0.3425
12626SOL    HW140257   8.054   4.032   9.651  0.3052  0.1643  1.7680
12626SOL    HW240258   7.979   4.154   9.601  1.7968  0.2068 -0.5207
12627SOL     OW40259   3.716   2.615   6.316  0.2829  0.4819  0.1565
12627SOL    HW140260   3.689   2.536   6.269  0.9654  0.8115 -0.8120
12627SOL    HW240261   3.753   2.672   6.249  2.8953  0.2872  1.2921
12628SOL     OW40262   9.385   2.344   9.659  0.4377  0.2226  0.4199
12628SOL    HW140263   9.424   2.379   9.579 -0.9968  2.2725  0.5399
12628SOL    HW240264   9.300   2.311   9.632  0.1958  0.3673  0.9966
12629SOL     OW40265   6.646   9.359   4.621 -0.2501 -0.3111  0.4423
12629SOL    HW140266   6.600   9.405   4.691 -1.3903  0.3198 -0.6826
12629SOL    HW240267   6.629   9.411   4.542 -1.8765 -2.7543 -0.9716
12630SOL     OW40268   6.199   1.467   4.678  0.6865 -0.0605 -0.0852
12630SOL    HW140269   6.197   1.562   4.683 -0.5701 -0.0599 -0.1881
12630SOL    HW240270   6.124   1.439   4.730  0.6062 -0.9562 -0.6575
12631SOL     OW40271   7.874   4.195   8.652  0.6316 -0.1552 -0.0558
12631SOL    HW140272   7.812   4.263   8.624 -0.1147 -1.1273 -0.8109
12631SOL    HW240273   7.899   4.221   8.741  0.8705  1.4661 -0.5517
12632SOL     OW40274   1.909   0.257   2.182  0.2626  0.0233  0.4113
12632SOL    HW140275   1.935   0.321   2.116 -0.8017  0.5759  0.5125
12632SOL    HW240276   1.898   0.175   2.133  2.6365 -0.3990  0.4357
12633SOL     OW40277   6.289   4.363   6.279  0.2329 -0.3503 -0.2831
12633SOL    HW140278   6.368   4.407   6.249  0.7148 -1.8946 -1.3686
12633SOL    HW240279   6.282   4.285   6.224 -1.8512 -0.4400  0.0278
12634SOL     OW40280   8.111   8.633   7.248 -0.1059 -0.7566  0.4468
12634SOL    HW140281   8.157   8.698   7.301  2.2204 -2.2436  0.3975
12634SOL    HW240282   8.033   8.678   7.217  2.0319  2.4563 -0.6732
12635SOL     OW40283   1.035   2.144   9.228 -0.7388 -0.2218 -0.0802
12635SOL    HW140284   1.062   2.160   9.137  0.9838 -0.8380  0.3007
12635SOL    HW240285   0.967   2.210   9.244  0.0164  0.9213 -1.3247
12636SOL     OW40286   9.990   1.222   0.222 -0.0507 -0.2536 -0.4997
12636SOL    HW140287  10.043   1.299   0.245  0.2518 -0.1340 -1.5588
12636SOL    HW240288   9.973   1.179   0.306  0.8823  0.2605 -0.0327
12637SOL     OW40289   5.051   8.963   7.528 -0.4281 -0.0575 -0.3569
12637SOL    HW140290   5.047   9.032   7.461 -3.0194  0.1923 -0.0353
12637SOL    HW240291   4.980   8.904   7.506 -0.9177 -0.3439  1.7697
12638SOL     OW40292   1.449   3.615   0.094 -0.0574 -0.0205 -0.7133
12638SOL    HW140293   1.389   3.609   0.020 -1.6046 -0.2055  0.5213
12638SOL    HW240294   1.402   3.667   0.160  1.0973 -0.2340  0.3199
12639SOL     OW40295   0.911   5.161   7.904 -0.5269 -0.5586 -0.3115
12639SOL    HW140296   0.975   5.099   7.941  0.4064  0.7916  0.4551
12639SOL    HW240297   0.826   5.125   7.927 -0.0161 -1.7304 -0.1970
12640SOL     OW40298   1.743   4.513   5.956 -0.0741  0.1234 -0.4594
12640SOL    HW140299   1.748   4.560   5.873  1.4833  1.0025  0.0708
12640SOL    HW240300   1.827   4.467   5.962  0.2746  0.8811  1.0434
12641SOL     OW40301   0.088   4.689   4.120  0.9127 -0.3060 -0.4611
12641SOL    HW140302   0.152   4.657   4.184  0.7004  0.0311 -0.0752
12641SOL    HW240303   0.132   4.762   4.077  0.7200  0.0506 -0.0599
12642SOL     OW40304   0.999   4.029   5.393  0.3217  0.3958 -0.2704
12642SOL    HW140305   0.955   4.091   5.451  0.6111  0.6159 -0.2814
12642SOL    HW240306   1.032   4.084   5.321  1.2840  0.3544  0.1251
12643SOL     OW40307   6.250   7.959   8.390 -0.2484  0.4048  0.1103
12643SOL    HW140308   6.225   7.994   8.476 -1.3953  2.1946 -0.8988
12643SOL    HW240309   6.168   7.949   8.343  0.4607  0.6054 -1.2108
12644SOL     OW40310   6.898   6.117   8.126  0.3562  0.0926  0.5464
12644SOL    HW140311   6.854   6.060   8.189  1.0630  0.7390  1.6532
12644SOL    HW240312   6.991   6.109   8.147  0.6177  0.1561 -0.5568
12645SOL     OW40313   7.175   9.882   2.787  0.3056  0.3538  0.1724
12645SOL    HW140314   7.257   9.918   2.821  0.3246  0.9829 -0.5202
12645SOL    HW240315   7.157   9.807   2.844  1.6310 -0.1176  0.0165
12646SOL     OW40316   3.064   3.182   2.559  0.0416 -0.2196  0.2448
12646SOL    HW140317   3.039   3.237   2.485 -0.8412 -2.4629 -1.2509
12646SOL    HW240318   2.984   3.137   2.585  0.9991 -2.0733  0.2185
12647SOL     OW40319   3.198   6.943   5.100  0.6070  0.1227  0.3735
12647SOL    HW140320   3.200   6.952   5.004 -0.3058 -2.0631  0.0681
12647SOL    HW240321   3.290   6.935   5.126  0.8511  0.5012 -0.3531
12648SOL     OW40322   0.695   0.609   9.837  0.3080  0.2497 -0.0691
12648SOL    HW140323   0.619   0.581   9.887  0.6368 -2.3363 -0.8768
12648SOL    HW240324   0.767   0.557   9.871  1.3378  1.2488 -0.6315
12649SOL     OW40325   9.368   8.611   6.369 -0.0343  0.1453 -0.1931
12649SOL    HW140326   9.296   8.551   6.391  0.1298  0.0071 -0.0325
12649SOL    HW240327   9.325   8.684   6.326 -0.0380 -1.1100 -2.4932
12650SOL     OW40328   8.400   5.096   5.261 -0.0176  0.2476  1.1762
12650SOL    HW140329   8.459   5.021   5.253 -0.7973 -0.2454 -0.5559
12650SOL    HW240330   8.354   5.081   5.344  0.1851 -0.9564  1.1012
12651SOL     OW40331   5.115   0.852   5.953 -0.4823  0.0927  0.0255
12651SOL    HW140332   5.035   0.800   5.967 -0.7256  0.1607 -0.9731
12651SOL    HW240333   5.164   0.802   5.887  0.4998 -0.1517  0.9230
12652SOL     OW40334   2.706   9.423   9.523  0.0876 -0.5526  0.2954
12652SOL    HW140335   2.655   9.493   9.564  0.7928 -0.2025  0.6097
12652SOL    HW240336   2.795   9.436   9.557  0.5918 -0.5536 -0.9576
12653SOL     OW40337   4.904   5.853   9.942  0.2971 -0.1680 -0.1271
12653SOL    HW140338   4.868   5.787   9.882 -1.2850  0.3757  0.1675
12653SOL    HW240339   4.880   5.936   9.902 -1.0990  0.2068  1.3758
12654SOL     OW40340   7.700   3.455  10.536 -0.0715  0.0993 -0.1476
12654SOL    HW140341   7.732   3.545  10.535 -2.5640  1.0536 -0.0301
12654SOL    HW240342   7.780   3.401  10.531  1.8306  2.2029  3.2479
12655SOL     OW40343   3.791   3.256   9.755  0.6449 -0.1511  0.0831
12655SOL    HW140344   3.859   3.189   9.769  1.5115  0.5662 -0.6350
12655SOL    HW240345   3.708   3.207   9.759  1.2968 -1.4250 -1.2987
12656SOL     OW40346   7.545   7.400   1.178  0.2179  0.0242  0.0498
12656SOL    HW140347   7.613   7.442   1.230  0.2348 -1.4430  1.2761
12656SOL    HW240348   7.490   7.472   1.148  0.9666  1.0202  0.9962
12657SOL     OW40349   5.701   9.948   1.792 -0.1023 -0.4781  0.2945
12657SOL    HW140350   5.732   9.890   1.861  0.6583  0.1109  0.4510
12657SOL    HW240351   5.610   9.966   1.815  0.2674  0.0598  1.3888
12658SOL     OW40352  10.552   9.785   2.036 -0.0545 -0.0177  0.2669
12658SOL    HW140353  10.502   9.834   2.102 -1.7085 -0.3719 -0.6572
12658SOL    HW240354  10.500   9.706   2.022  1.3175 -0.8881 -0.0255
12659SOL     OW40355   1.578   1.355   5.046 -0.1974  0.1015  0.0011
12659SOL    HW140356   1.484   1.369   5.058 -0.1250  1.7371 -1.0615
12659SOL    HW240357   1.584   1.295   4.971 -0.3862 -0.2707  0.2800
12660SOL     OW40358   2.105   9.535   7.534 -0.1006 -0.3348  0.3441
12660SOL    HW140359   2.157   9.505   7.459 -0.0744 -1.0775  0.6513
12660SOL    HW240360   2.062   9.456   7.566  0.7520 -0.2460  1.7816
12661SOL     OW40361   3.530   7.449   4.838  0.2952  0.0307  0.0603
12661SOL    HW140362   3.621   7.478   4.836  0.4462 -0.3797  0.6166
12661SOL    HW240363   3.534   7.361   4.877 -0.0446 -1.1465 -2.3671
12662SOL     OW40364   2.917   8.450   8.318  0.0497  0.0449  0.1397
12662SOL    HW140365   2.856   8.523   8.306  0.2808  0.4249  1.1674
12662SOL    HW240366   2.868   8.387   8.371  0.1226 -0.2026 -0.0859
12663SOL     OW40367   2.579   2.979   6.134  0.1885 -0.1193  0.3731
12663SOL    HW140368   2.603   2.915   6.202 -1.1070 -2.6166 -1.3395
12663SOL    HW240369   2.589   2.931   6.052  1.4615  2.7134 -1.2503
12664SOL     OW40370   2.724   6.741   1.303 -0.3279  0.1164  0.8044
12664SOL    HW140371   2.673   6.813   1.267 -0.0602 -0.5017 -0.9314
12664SOL    HW240372   2.659   6.685   1.346 -0.8282  0.4133  0.4515
12665SOL     OW40373   7.198   8.134   4.833 -0.5139  0.1984 -0.1634
12665SOL    HW140374   7.166   8.047   4.857  0.1984  0.0832  0.4259
12665SOL    HW240375   7.125   8.175   4.786 -0.8834 -0.6834 -0.3698
12666SOL     OW40376   2.124   1.567   2.692  0.6627  0.2617  0.9907
12666SOL    HW140377   2.131   1.482   2.735 -0.1617 -0.1466  0.3440
12666SOL    HW240378   2.131   1.548   2.598  3.1039  1.2131  0.9180
12667SOL     OW40379   0.869   1.182   4.544 -0.4564  0.2915 -0.2114
12667SOL    HW140380   0.813   1.124   4.492 -0.4623 -1.5053  1.6569
12667SOL    HW240381   0.811   1.218   4.610 -0.2479  1.8017 -0.8070
12668SOL     OW40382   9.166   0.308   9.626 -0.2384  0.0348 -0.3220
12668SOL    HW140383   9.245   0.313   9.680 -0.4587 -1.8374  0.2562
12668SOL    HW240384   9.169   0.220   9.587 -0.8083  0.8282 -2.2657
12669SOL     OW40385   1.848   6.318   8.521  0.3364  0.1617 -0.0263
12669SOL    HW140386   1.944   6.316   8.522  0.3376  0.0972 -0.2425
12669SOL    HW240387   1.822   6.226   8.525  0.2946  0.1272 -1.0156
12670SOL     OW40388   8.611   0.176   2.732 -0.1248 -0.5523 -0.2442
12670SOL    HW140389   8.550   0.236   2.774  0.4278  0.5365 -0.9150
12670SOL    HW240390   8.648   0.124   2.803 -0.9614 -0.4137  0.3000
12671SOL     OW40391   0.288   1.098   6.704 -0.0476  0.2000  0.2118
12671SOL    HW140392   0.334   1.166   6.655  0.3830 -1.4568 -1.8410
12671SOL    HW240393   0.278   1.026   6.641  0.1869 -1.9287  2.4814
12672SOL     OW40394   8.421   5.954   2.986 -0.5834 -0.0961 -0.1234
12672SOL    HW140395   8.356   5.992   2.926 -0.6589  0.7161  0.4489
12672SOL    HW240396   8.420   6.013   3.062  0.3428 -0.4556  0.1796
12673SOL     OW40397   9.580   8.974   4.475 -0.3720 -0.0487 -0.1985
12673SOL    HW140398   9.485   8.967   4.471 -0.2300 -2.0715 -2.2641
12673SOL    HW240399   9.609   8.889   4.511  0.6814  0.4476  0.1890
12674SOL     OW40400   2.659   5.219   1.732 -0.2651  0.5448  0.1548
12674SOL    HW140401   2.701   5.303   1.715  1.8437 -0.3687  0.6063
12674SOL    HW240402   2.624   5.228   1.821 -0.2403  0.9947  0.1235
12675SOL     OW40403   0.826   9.548  10.187 -0.4395 -0.0552 -0.1418
12675SOL    HW140404   0.738   9.558  10.224 -0.1589  0.2847  0.4346
12675SOL    HW240405   0.854   9.638  10.168  1.0248  0.1664  2.5768
12676SOL     OW40406   9.585   2.592  10.037  0.1057 -0.3815 -0.3940
12676SOL    HW140407   9.617   2.678  10.010 -1.2952  0.0246 -0.8463
12676SOL    HW240408   9.543   2.557   9.959 -3.0768  0.3508  0.8531
12677SOL     OW40409   4.892   7.140   2.631 -0.2672 -0.1847  0.1471
12677SOL    HW140410   4.895   7.144   2.536  0.8886  1.0894  0.1884
12677SOL    HW240411   4.935   7.221   2.659  0.2957 -0.9934  1.7495
12678SOL     OW40412   0.750   5.351  10.799 -0.2634 -0.4318 -0.0530
12678SOL    HW140413   0.846   5.347  10.804 -0.1467  1.6696  0.0068
12678SOL    HW240414   0.721   5.274  10.849  1.3768 -0.1541  1.4231
12679SOL     OW40415   8.471   1.068   1.519 -0.1858  0.3292 -0.4908
12679SOL    HW140416   8.465   1.031   1.431 -0.6945  1.2324 -0.8521
12679SOL    HW240417   8.546   1.127   1.516  0.7532 -0.8041  0.1410
12680SOL     OW40418   7.799   3.716   4.301  0.2384  0.1235 -0.7212
12680SOL    HW140419   7.725   3.657   4.286  0.5884 -0.5018 -0.0602
12680SOL    HW240420   7.798   3.732   4.395  2.4735 -2.0239 -0.2367
12681SOL     OW40421  10.515   3.717   0.956  0.0445  0.4796 -0.0159
12681SOL    HW140422  10.609   3.728   0.946  0.2747 -1.1564  0.1648
12681SOL    HW240423  10.487   3.794   1.005  1.4759  0.4248  0.9409
12682SOL     OW40424  10.294   9.451   8.957 -0.0699 -0.1976  0.0284
12682SOL    HW140425  10.254   9.478   8.874 -1.3175 -1.0821  0.3303
12682SOL    HW240426  10.254   9.367   8.977  0.3476 -0.0748  1.4549
12683SOL     OW40427   7.842  10.097   6.233 -0.5729 -0.1590 -0.0908
12683SOL    HW140428   7.891  10.030   6.186  0.3681 -1.6267  2.7388
12683SOL    HW240429   7.909  10.158   6.265 -0.8548 -0.5659  1.3481
12684SOL     OW40430   0.013  10.430   1.073 -0.1185  0.0378  0.3640
12684SOL    HW140431  -0.031  10.497   1.020 -0.3503  1.2642  2.0178
12684SOL    HW240432  -0.017  10.347   1.037 -1.3514  0.8444 -0.5384
12685SOL     OW40433   0.523   7.080   1.529  0.4589  0.4211  0.1393
12685SOL    HW140434   0.541   7.035   1.447 -2.5911 -2.8510  1.0175
12685SOL    HW240435   0.560   7.023   1.596 -1.4205  0.3598  1.1987
12686SOL     OW40436   0.271   0.162   1.671 -0.0626 -0.0937 -0.0369
12686SOL    HW140437   0.272   0.200   1.584  1.7170  1.8048  0.7083
12686SOL    HW240438   0.189   0.192   1.710  0.2953  1.1960 -0.2305
12687SOL     OW40439   9.019   4.278   6.589 -0.2016  0.3475 -0.6189
12687SOL    HW140440   8.931   4.316   6.585  0.1029  1.5309  2.2362
12687SOL    HW240441   9.077   4.347   6.558 -0.0354  0.7025  0.4476
12688SOL     OW40442   5.771   3.198   8.681  0.1653 -0.0902 -0.3791
12688SOL    HW140443   5.695   3.147   8.709  0.9754 -0.0814  2.0952
12688SOL    HW240444   5.763   3.203   8.586 -2.5951 -0.5922 -0.2664
12689SOL     OW40445   1.112   1.574   0.030  0.5050  0.3199  0.1516
12689SOL    HW140446   1.156   1.563   0.114 -1.0358  0.6845  1.0505
12689SOL    HW240447   1.058   1.652   0.041  0.3819  0.4527 -1.2377
12690SOL     OW40448   9.187   0.981   9.624  0.2337 -0.8350 -0.2702
12690SOL    HW140449   9.136   0.992   9.704  0.9812  1.9577 -0.0521
12690SOL    HW240450   9.165   0.893   9.593 -0.0138 -2.0802  3.0136
12691SOL     OW40451   0.260   2.784  10.672  0.3137  0.0914  0.1799
12691SOL    HW140452   0.166   2.784  10.692  0.3684 -0.3818  0.4713
12691SOL    HW240453   0.267   2.732  10.592  0.0915  2.0134 -1.1549
12692SOL     OW40454   2.364   2.315   7.097 -0.1909  0.3754  0.0400
12692SOL    HW140455   2.459   2.310   7.088 -0.0431  2.2785  0.1245
12692SOL    HW240456   2.333   2.229   7.067  1.5067 -0.1113 -0.4684
12693SOL     OW40457   8.923   8.089   6.467 -0.5227  0.0861 -0.5309
12693SOL    HW140458   8.957   8.115   6.382  2.8226  0.2497  0.7061
12693SOL    HW240459   8.925   7.994   6.467  1.0837  0.0982 -0.1131
12694SOL     OW40460   1.145   1.813  10.540  0.4078 -0.5241 -0.2826
12694SOL    HW140461   1.097   1.857  10.470  2.2127  1.0141 -0.6430
12694SOL    HW240462   1.185   1.737  10.498 -0.6875 -1.1347 -0.2547
12695SOL     OW40463   3.403   3.462   1.926 -0.9949  0.1416 -0.3271
12695SOL    HW140464   3.386   3.369   1.907 -2.1315  0.1070  0.7899
12695SOL    HW240465   3.416   3.501   1.839  4.0591 -1.7995 -0.8063
12696SOL     OW40466   7.939   7.806   1.999 -0.5403  0.2358 -0.5039
12696SOL    HW140467   7.955   7.895   2.033  2.6167 -0.5672  0.4245
12696SOL    HW240468   7.972   7.808   1.909 -1.4341  0.2525 -0.8376
12697SOL     OW40469   0.482  10.655   2.004 -0.5525 -0.9225  1.2331
12697SOL    HW140470   0.445  10.730   1.957 -0.0383 -1.4070  0.0285
12697SOL    HW240471   0.453  10.578   1.955  1.5460 -1.3456  0.5632
12698SOL     OW40472   0.524   7.280   1.974  0.0441 -0.3175  0.2414
12698SOL    HW140473   0.601   7.250   2.023 -0.1065 -2.5015 -0.7170
12698SOL    HW240474   0.465   7.204   1.974 -1.1902  0.5966 -0.8466
12699SOL     OW40475   0.218   8.318   4.581 -0.8324  0.1519 -0.1659
12699SOL    HW140476   0.129   8.319   4.544 -1.3721 -0.2878  1.0677
12699SOL    HW240477   0.275   8.321   4.504 -1.8825 -2.5416 -1.1691
12700SOL     OW40478   6.109   4.008   8.468 -0.5562  0.6303 -0.1411
12700SOL    HW140479   6.168   3.942   8.431 -2.1359 -2.4969  2.3601
12700SOL    HW240480   6.166   4.065   8.519  0.5621 -1.4367  1.0646
12701SOL     OW40481   2.965   2.473   5.349  0.0301 -0.4054  0.5606
12701SOL    HW140482   3.054   2.453   5.378  0.2455 -0.1506  0.0817
12701SOL    HW240483   2.973   2.492   5.256 -0.4597  0.0387  0.6004
12702SOL     OW40484   1.932   7.011   1.147  0.3347 -0.5541 -0.3844
12702SOL    HW140485   2.004   6.997   1.208  1.0784  0.1327 -1.0788
12702SOL    HW240486   1.856   6.971   1.189  0.4388  1.3310  1.7801
12703SOL     OW40487   2.180   6.722   9.311 -0.4804  0.1972 -0.3502
12703SOL    HW140488   2.087   6.722   9.286 -0.4898  0.2608 -0.3129
12703SOL    HW240489   2.223   6.676   9.239 -0.6099 -0.2970 -0.1136
12704SOL     OW40490   7.005   6.089   2.308  0.3497  0.3339 -0.2775
12704SOL    HW140491   7.092   6.125   2.326  0.9056 -0.7913 -0.5954
12704SOL    HW240492   7.018   5.994   2.311 -0.7869  0.1528 -0.7309
12705SOL     OW40493  10.654   4.019   2.818  0.1845  0.8427  0.2882
12705SOL    HW140494  10.678   3.936   2.859  2.2033  0.7218 -0.9993
12705SOL    HW240495  10.568   4.002   2.781  1.3178 -1.4107 -1.6356
12706SOL     OW40496   6.051   9.256   5.341 -0.5518  0.6564 -0.4996
12706SOL    HW140497   5.974   9.220   5.297 -1.7136 -0.4271  2.1994
12706SOL    HW240498   6.021   9.340   5.376 -0.3702  0.4748  0.1107
12707SOL     OW40499   8.391   7.880   6.931 -0.1905  0.3975 -0.2026
12707SOL    HW140500   8.408   7.962   6.885 -0.0448 -0.5946 -2.0137
12707SOL    HW240501   8.472   7.861   6.979  1.0004 -0.2719 -2.3589
12708SOL     OW40502  10.367   6.910   1.527  0.0754 -0.1058 -0.8429
12708SOL    HW140503  10.390   6.820   1.504 -0.1183  0.1101 -1.9551
12708SOL    HW240504  10.436   6.963   1.486  1.6227  0.1514  1.8779
12709SOL     OW40505   0.794  10.043   4.633 -0.4812 -0.2367 -0.0560
12709SOL    HW140506   0.828   9.955   4.619  0.1894 -0.1033  0.6805
12709SOL    HW240507   0.858  10.101   4.591  0.1566  0.0055  1.2089
12710SOL     OW40508   4.145   8.546   5.774 -0.0163  0.1072  0.0222
12710SOL    HW140509   4.134   8.624   5.828 -0.2388  0.3721 -0.3981
12710SOL    HW240510   4.094   8.565   5.695  0.2633 -0.2963 -0.2542
12711SOL     OW40511   5.205   1.140   0.688 -0.7943 -0.2620  0.1163
12711SOL    HW140512   5.158   1.142   0.771 -1.1641 -0.7644 -0.0749
12711SOL    HW240513   5.223   1.232   0.668  0.5552 -0.1929  1.4380
12712SOL     OW40514   0.179   5.812  10.299  0.4287 -0.0215 -0.7685
12712SOL    HW140515   0.204   5.847  10.384  1.4929  0.9103 -1.4344
12712SOL    HW240516   0.251   5.754  10.274 -0.3759 -1.1417 -0.5824
12713SOL     OW40517   0.760   4.665   6.204  0.1046 -0.1351  0.0653
12713SOL    HW140518   0.751   4.752   6.165  2.6129 -0.2754 -0.9941
12713SOL    HW240519   0.843   4.668   6.252  0.5159 -2.0826 -0.4204
12714SOL     OW40520   2.547   8.559   1.346 -0.6469 -0.0981  0.2272
12714SOL    HW140521   2.515   8.519   1.265  1.2097  1.7733 -1.5397
12714SOL    HW240522   2.518   8.650   1.341  4.5355  1.8464 -1.6197
12715SOL     OW40523   3.787   5.101  10.251  0.0029 -0.0221 -0.4918
12715SOL    HW140524   3.764   5.170  10.314 -3.2458 -2.1073  0.8827
12715SOL    HW240525   3.738   5.125  10.172 -1.8571 -1.0656  0.2741
12716SOL     OW40526   5.124   9.462   8.440 -0.2792 -0.0526 -0.3242
12716SOL    HW140527   5.213   9.489   8.421 -0.3472 -0.4126 -1.2386
12716SOL    HW240528   5.128   9.423   8.527  0.8700 -1.8289 -1.1199
12717SOL     OW40529   6.098   0.719   3.534  0.2236  0.3413  0.0430
12717SOL    HW140530   6.098   0.646   3.473 -0.6835  0.7448 -0.4694
12717SOL    HW240531   6.191   0.739   3.548  0.5197 -1.3748  0.8079
12718SOL     OW40532   9.540   7.189   8.508  0.5989  0.3001  0.7223
12718SOL    HW140533   9.469   7.241   8.546  1.6438  1.7931  0.7466
12718SOL    HW240534   9.612   7.252   8.497  0.6749 -0.2163 -2.9552
12719SOL     OW40535   0.430   1.535   2.002  0.6898 -0.1867  0.1235
12719SOL    HW140536   0.513   1.559   1.961  0.9271  1.4245  1.4107
12719SOL    HW240537   0.444   1.446   2.034  1.5352 -0.3366 -0.6081
12720SOL     OW40538   4.491   5.146   7.312 -0.1244 -0.1167  0.2838
12720SOL    HW140539   4.583   5.135   7.335 -0.3105 -0.4914  0.8871
12720SOL    HW240540   4.445   5.085   7.370 -0.8328  0.7627  0.6736
12721SOL     OW40541   9.018   7.695   0.311  0.4518 -0.2988  0.3924
12721SOL    HW140542   8.975   7.623   0.267  0.2608  0.1945 -0.2353
12721SOL    HW240543   9.086   7.724   0.250  0.8285 -0.2388  0.8322
12722SOL     OW40544   0.367  10.364   3.361 -0.1287  0.2906 -0.1397
12722SOL    HW140545   0.440  10.318   3.318  0.9884  2.0026 -0.1804
12722SOL    HW240546   0.306  10.382   3.290  0.4203  0.6926 -0.5216
12723SOL     OW40547   5.188   3.178   2.799 -0.8009  0.5149  0.1858
12723SOL    HW140548   5.181   3.250   2.861  0.1518  0.7110  0.0789
12723SOL    HW240549   5.104   3.132   2.806 -1.0324  1.0374  0.9856
12724SOL     OW40550   7.428   1.611   1.196  0.2942 -0.1070 -0.7217
12724SOL    HW140551   7.458   1.524   1.169  2.0086 -0.2696  1.3722
12724SOL    HW240552   7.497   1.642   1.254 -2.0498  1.0345  1.6460
12725SOL     OW40553   1.498  10.273   4.976 -0.5543  0.1669 -0.4463
12725SOL    HW140554   1.563  10.256   5.044 -2.1820 -0.8903  0.9190
12725SOL    HW240555   1.495  10.192   4.925 -1.4977 -0.1938  0.1462
12726SOL     OW40556   6.753   0.995   7.591 -0.2841 -0.2530 -0.3725
12726SOL    HW140557   6.768   0.964   7.680  0.7805  1.0957 -0.0497
12726SOL    HW240558   6.834   0.975   7.544  0.3444  1.6479 -0.2199
12727SOL     OW40559   8.895   8.451   1.077  0.0389 -0.7049  0.2358
12727SOL    HW140560   8.859   8.540   1.080  1.0422 -0.3213  2.2086
12727SOL    HW240561   8.863   8.416   0.993 -1.0282  1.2137 -0.2356
12728SOL     OW40562   7.804   7.948   0.920 -0.3417  0.1413 -0.5853
12728SOL    HW140563   7.859   7.956   0.842 -2.2523  1.1218 -1.9089
12728SOL    HW240564   7.827   7.863   0.957  0.4859 -0.4372 -2.3124
12729SOL     OW40565   8.756   3.900   9.026 -0.0846  0.0388 -0.1427
12729SOL    HW140566   8.840   3.895   9.072 -0.7433  1.7642  1.4003
12729SOL    HW240567   8.703   3.831   9.066 -0.3670  0.9652  1.1728
12730SOL     OW40568  10.745   1.868   1.399 -0.2286 -0.8509 -0.5499
12730SOL    HW140569  10.760   1.956   1.434 -3.2988 -0.6654  0.5749
12730SOL    HW240570  10.761   1.877   1.305 -0.9335  1.0556 -0.5397
12731SOL     OW40571   2.019  10.410   4.053 -0.7593  0.0321  0.2417
12731SOL    HW140572   2.045  10.369   3.971 -2.5149 -1.2865  0.2748
12731SOL    HW240573   1.957  10.479   4.027 -0.5993  0.2382  0.4022
12732SOL     OW40574   0.389   3.624   7.708  0.3357 -0.0538 -0.0932
12732SOL    HW140575   0.340   3.656   7.633 -0.1568 -1.0946 -0.2255
12732SOL    HW240576   0.322   3.592   7.769  0.6659  1.5530  1.1848
12733SOL     OW40577   1.295   0.290   3.049 -0.1641  0.2902 -0.7699
12733SOL    HW140578   1.207   0.311   3.080  0.4955  0.6256  0.9913
12733SOL    HW240579   1.299   0.328   2.961 -1.6695  0.5181 -0.7659
12734SOL     OW40580   3.852   1.079   9.125 -0.0428 -0.2652 -0.2450
12734SOL    HW140581   3.850   1.005   9.065 -1.4519  0.5885 -1.3251
12734SOL    HW240582   3.907   1.144   9.082  1.6738 -0.8347  0.9667
12735SOL     OW40583   8.758   6.398   9.024  0.4330  0.0371 -0.4503
12735SOL    HW140584   8.706   6.431   8.951 -1.4426  1.8332  1.5605
12735SOL    HW240585   8.810   6.474   9.052 -0.1024 -0.1205  1.0515
12736SOL     OW40586   0.096   8.778   3.457 -0.0368  0.4379 -0.0722
12736SOL    HW140587   0.110   8.870   3.476 -0.0688  0.3002  0.6424
12736SOL    HW240588   0.182   8.737   3.472 -0.1003  0.3018 -0.0738
12737SOL     OW40589   1.885   5.781   1.128  0.8609 -0.3500 -0.2044
12737SOL    HW140590   1.800   5.822   1.110  0.8806 -1.0831 -2.1966
12737SOL    HW240591   1.936   5.795   1.049  3.1175  1.1505  1.3887
12738SOL     OW40592   9.950   1.231  10.612  0.0395 -0.2843  0.2059
12738SOL    HW140593  10.035   1.227  10.568 -0.5440 -2.4567 -0.8538
12738SOL    HW240594   9.926   1.324  10.609  1.6062  0.1234 -0.9785
12739SOL     OW40595   7.706   2.922   5.084 -0.4932 -0.0596  0.1064
12739SOL    HW140596   7.616   2.902   5.056 -0.7442  0.0955  0.7886
12739SOL    HW240597   7.719   3.013   5.059  0.1530 -0.6111 -1.7126
12740SOL     OW40598   4.241   3.455   5.065  0.6468 -0.4438 -0.4473
12740SOL    HW140599   4.167   3.497   5.021  0.0183 -0.9658  0.0822
12740SOL    HW240600   4.247   3.500   5.149  0.7720 -0.5669 -0.3913
12741SOL     OW40601   8.378   9.746   8.796 -0.1547 -0.1382 -0.5598
12741SOL    HW140602   8.398   9.714   8.884 -0.0716  1.7737  0.1692
12741SOL    HW240603   8.389   9.670   8.740 -0.4975 -1.4842  1.1109
12742SOL     OW40604   5.971   9.256   3.269 -0.7198 -0.1396  1.0135
12742SOL    HW140605   6.023   9.185   3.232  1.8788  2.4815 -0.8489
12742SOL    HW240606   5.919   9.214   3.338  1.5189 -3.5788  0.8892
12743SOL     OW40607   0.670   0.499   8.424  0.0040 -0.5445 -0.3889
12743SOL    HW140608   0.665   0.499   8.520 -2.0947  0.5697 -0.4314
12743SOL    HW240609   0.595   0.552   8.396 -0.3056 -2.0364 -2.6901
12744SOL     OW40610   5.488   6.109   3.840  0.3532  0.0611 -0.3448
12744SOL    HW140611   5.547   6.138   3.910  0.4155  0.5927 -0.6154
12744SOL    HW240612   5.410   6.077   3.886  0.8046 -0.5751  0.0170
12745SOL     OW40613   3.660   0.089   5.516 -0.5112  0.1568  0.0107
12745SOL    HW140614   3.582   0.140   5.539 -0.2845  0.1745  0.7699
12745SOL    HW240615   3.732   0.152   5.519 -0.2558 -0.1576  0.7881
12746SOL     OW40616   8.276   1.314   7.587  0.0108 -0.6430 -0.1872
12746SOL    HW140617   8.342   1.245   7.586  1.8074  0.9814 -0.8619
12746SOL    HW240618   8.241   1.314   7.498  1.1442  0.2750 -0.6660
12747SOL     OW40619  10.728   5.777   2.800  0.5093  0.2039  0.2649
12747SOL    HW140620  10.795   5.839   2.829  1.7243 -1.4621  1.2647
12747SOL    HW240621  10.723   5.713   2.872 -2.2955  0.3396  0.2977
12748SOL     OW40622   1.438   6.317   2.103 -0.4612 -0.0078 -0.1626
12748SOL    HW140623   1.414   6.225   2.116 -0.1194 -0.0551  0.1412
12748SOL    HW240624   1.533   6.319   2.114 -0.4825  0.4043 -0.0292
12749SOL     OW40625   2.507   3.329   9.679 -0.3694 -0.3275 -0.6141
12749SOL    HW140626   2.466   3.263   9.734  0.8750 -1.6982 -1.2872
12749SOL    HW240627   2.486   3.304   9.590  0.1444  0.1628 -0.8852
12750SOL     OW40628   8.902   0.700  10.696 -0.1519 -0.5168 -0.0872
12750SOL    HW140629   8.853   0.773  10.658 -0.8446 -1.0805 -0.3105
12750SOL    HW240630   8.994   0.725  10.689 -0.4135  0.7760  0.7498
12751SOL     OW40631   7.835  10.463   9.555  0.4320 -0.3430  0.3476
12751SOL    HW140632   7.791  10.427   9.478  1.4665 -0.3543 -0.2618
12751SOL    HW240633   7.771  10.522   9.594  0.6815  1.6088 -1.9349
12752SOL     OW40634   0.300   3.768   1.490 -0.4162 -0.0173  0.3459
12752SOL    HW140635   0.340   3.808   1.567  0.6396 -0.6650  0.1531
12752SOL    HW240636   0.288   3.676   1.513 -0.9169 -0.0318  0.0489
12753SOL     OW40637   5.415   6.572   2.430  0.3457  0.1934 -0.0518
12753SOL    HW140638   5.339   6.521   2.402  0.6336 -0.5094  0.4278
12753SOL    HW240639   5.425   6.552   2.523  0.2929  1.3520  0.2205
12754SOL     OW40640   7.120   4.699   4.092 -0.4571  0.4461 -0.1852
12754SOL    HW140641   7.132   4.610   4.126  0.8919  0.7834  0.3012
12754SOL    HW240642   7.122   4.755   4.169 -0.1928  0.9877 -0.5746
12755SOL     OW40643   4.233   3.013   1.344 -0.0060  0.4659  0.0939
12755SOL    HW140644   4.222   2.921   1.369  0.3557  0.8247  1.7448
12755SOL    HW240645   4.167   3.028   1.277 -0.9846 -0.6492  0.7699
12756SOL     OW40646   5.328   1.162   3.415  0.6388  0.1144  0.6120
12756SOL    HW140647   5.379   1.091   3.375 -0.5928  0.0615 -0.9528
12756SOL    HW240648   5.303   1.217   3.342 -1.6404  0.0827  1.2969
12757SOL     OW40649   1.438   5.035   6.536  0.6474 -0.5622  0.0177
12757SOL    HW140650   1.363   5.038   6.596  0.7252 -1.4762  0.1822
12757SOL    HW240651   1.428   4.951   6.490  0.5166  0.1681 -1.3579
12758SOL     OW40652   6.655   5.168   9.309 -0.0567 -0.0348 -0.2933
12758SOL    HW140653   6.679   5.259   9.329 -0.7277  0.2459 -0.7291
12758SOL    HW240654   6.682   5.119   9.386  1.3983  0.3407 -0.5222
12759SOL     OW40655   3.338  10.309  10.113  0.8616 -0.0816 -0.2654
12759SOL    HW140656   3.279  10.246  10.155  0.5847  0.5540  0.3268
12759SOL    HW240657   3.316  10.306  10.020 -0.0146  0.0514 -0.0682
12760SOL     OW40658   4.634   0.510   4.390  0.0360  0.4392  0.5348
12760SOL    HW140659   4.624   0.586   4.333  1.6769 -0.5438 -1.1747
12760SOL    HW240660   4.720   0.475   4.367 -0.9068 -2.2832  0.8426
12761SOL     OW40661   4.995   1.658   4.898 -0.1312 -1.0693  0.3112
12761SOL    HW140662   5.042   1.741   4.899 -2.2049  0.1659  1.2218
12761SOL    HW240663   5.045   1.603   4.837  0.2813  1.4641 -1.8326
12762SOL     OW40664   4.818   0.021   4.732  0.3456 -0.4321  0.1133
12762SOL    HW140665   4.908   0.033   4.703  0.0423 -0.2026 -0.7607
12762SOL    HW240666   4.789   0.109   4.757  0.6286 -0.6385  1.2257
12763SOL     OW40667   9.781   6.707   7.789  0.0571 -0.5020 -0.4304
12763SOL    HW140668   9.726   6.700   7.867 -0.1419  0.5452 -0.4612
12763SOL    HW240669   9.814   6.796   7.791  2.4889 -1.3505  0.0391
12764SOL     OW40670   4.833   3.984   3.672  0.6369 -0.0784  0.1556
12764SOL    HW140671   4.842   3.894   3.702 -1.5193 -0.8461 -1.2644
12764SOL    HW240672   4.740   3.993   3.651  0.2439  3.3032  2.6783
12765SOL     OW40673  10.271   7.156   0.460 -0.3204  0.0508 -0.2063
12765SOL    HW140674  10.289   7.212   0.385 -2.1469  0.8133 -0.1332
12765SOL    HW240675  10.190   7.110   0.437  0.5563 -1.7672  0.1854
12766SOL     OW40676   8.577   3.267   0.178 -0.4453 -0.0850 -0.1828
12766SOL    HW140677   8.515   3.241   0.245 -0.2939  3.4952  1.5981
12766SOL    HW240678   8.633   3.190   0.166 -1.6594 -1.5081  2.3829
12767SOL     OW40679   9.800   7.358  10.365  0.3154 -0.0439 -0.2336
12767SOL    HW140680   9.841   7.348  10.450  2.5714  1.1037 -1.0988
12767SOL    HW240681   9.789   7.269  10.333  1.3076 -0.4183  0.4314
12768SOL     OW40682   3.892   0.795   8.596  0.5818  0.0260 -0.0020
12768SOL    HW140683   3.870   0.781   8.504 -0.4734  0.0548  0.2241
12768SOL    HW240684   3.894   0.891   8.606 -1.5912  0.0779  0.4683
12769SOL     OW40685   2.580   4.557   0.667 -0.2732 -0.3117  0.4504
12769SOL    HW140686   2.633   4.549   0.746  0.4207 -1.3146 -0.0985
12769SOL    HW240687   2.606   4.640   0.628  0.8482 -0.7540  0.2305
12770SOL     OW40688  10.280   2.023   9.182  0.0901  0.1101  0.0626
12770SOL    HW140689  10.341   1.994   9.114 -0.7910 -0.1316 -0.6412
12770SOL    HW240690  10.323   2.099   9.222  1.4862 -0.8896  0.5426
12771SOL     OW40691   3.301   0.331   7.713  0.4287  0.6114 -0.7581
12771SOL    HW140692   3.366   0.276   7.756 -0.7754 -1.2735 -1.2483
12771SOL    HW240693   3.349   0.374   7.641  0.8605 -1.9573 -2.1073
12772SOL     OW40694  10.241   1.454   3.033  0.3837  0.5636 -0.0476
12772SOL    HW140695  10.172   1.392   3.011 -0.1005  1.1273 -0.1212
12772SOL    HW240696  10.242   1.456   3.129  0.2386  0.6255 -0.0481
12773SOL     OW40697   9.853   7.428   2.246 -0.0770 -0.5755  0.2186
12773SOL    HW140698   9.767   7.453   2.212  0.4684 -0.9756 -1.5780
12773SOL    HW240699   9.900   7.510   2.255 -0.9833 -0.2086  2.4132
12774SOL     OW40700   5.335   3.590   7.149 -0.0620 -0.6281 -0.1035
12774SOL    HW140701   5.275   3.606   7.222  0.0575 -2.0062  0.3228
12774SOL    HW240702   5.278   3.583   7.073 -0.1554  1.2422 -0.2611
12775SOL     OW40703   7.823   6.791   5.301  0.8494  0.0417 -0.0937
12775SOL    HW140704   7.796   6.881   5.321  0.9824  0.3088 -1.0920
12775SOL    HW240705   7.741   6.743   5.291  0.7625 -0.2574  1.6684
12776SOL     OW40706   5.358   4.379   2.794 -0.4101  0.1604 -0.2382
12776SOL    HW140707   5.296   4.449   2.813  0.5710  0.6651  1.2891
12776SOL    HW240708   5.304   4.300   2.788 -1.3245  0.7698 -0.1855
12777SOL     OW40709   2.364   6.248   3.444 -0.5741 -0.0384  0.3817
12777SOL    HW140710   2.388   6.341   3.445 -1.5901  0.2392  0.2666
12777SOL    HW240711   2.403   6.213   3.364  1.1626 -0.0976  1.2192
12778SOL     OW40712   0.201   8.678   4.596  0.5284 -0.4596 -0.5238
12778SOL    HW140713   0.285   8.637   4.617  0.4136 -0.5196 -0.1832
12778SOL    HW240714   0.206   8.696   4.502  1.4301  0.6934 -0.2805
12779SOL     OW40715   0.344   0.376   7.619 -0.3285  0.0318 -0.1913
12779SOL    HW140716   0.375   0.322   7.546 -0.6792 -1.5156  0.7615
12779SOL    HW240717   0.412   0.442   7.631 -0.3132  0.3994 -1.9698
12780SOL     OW40718   8.266   2.597   3.002 -0.6208 -0.1597 -0.0660
12780SOL    HW140719   8.352   2.564   3.030  0.0584  0.5427 -1.2098
12780SOL    HW240720   8.207   2.574   3.073  0.9386  1.3391  1.8573
12781SOL     OW40721   4.582   3.357   4.541  0.1212  0.5190 -0.1562
12781SOL    HW140722   4.593   3.449   4.566 -1.0637  0.7350 -0.3632
12781SOL    HW240723   4.577   3.359   4.446 -4.4252  0.8812 -0.1064
12782SOL     OW40724   6.819   1.100   4.507 -0.3874  0.1549  0.1316
12782SOL    HW140725   6.779   1.107   4.594 -0.2725 -0.2985  0.2225
12782SOL    HW240726   6.904   1.142   4.515 -0.2172 -0.2285  0.3420
12783SOL     OW40727   7.890   7.054   6.546 -0.0782 -0.3184 -0.3826
12783SOL    HW140728   7.893   7.041   6.641 -0.6744 -1.3753 -0.4835
12783SOL    HW240729   7.912   7.146   6.533  1.3821 -0.4731  0.6856
12784SOL     OW40730   9.793   7.788   8.982  0.7293 -0.0710  0.1965
12784SOL    HW140731   9.753   7.783   8.896  2.0810 -1.0133 -0.4108
12784SOL    HW240732   9.870   7.731   8.977 -0.0181 -1.4550  2.5115
12785SOL     OW40733   8.507   4.892   9.065 -0.3263  0.0955  0.0757
12785SOL    HW140734   8.516   4.912   9.159  0.8277 -1.2115  0.2769
12785SOL    HW240735   8.597   4.883   9.034 -0.6660  1.3618 -1.3823
12786SOL     OW40736  10.784   2.561   8.244  0.4960  0.2528  0.5600
12786SOL    HW140737  10.764   2.648   8.277  0.4982  1.5062 -2.4773
12786SOL    HW240738  10.876   2.547   8.268  0.3835  0.8966  1.4112
12787SOL     OW40739  10.374   2.369   6.337 -0.1915  0.2176 -0.1064
12787SOL    HW140740  10.448   2.371   6.276 -2.0815  1.5110 -2.5814
12787SOL    HW240741  10.333   2.284   6.321  1.3662 -1.1021  2.2523
12788SOL     OW40742   9.187   7.241   9.234  0.1072 -0.4493 -0.2986
12788SOL    HW140743   9.279   7.255   9.211  0.3123 -0.4813  0.4699
12788SOL    HW240744   9.178   7.281   9.321 -0.5545 -0.6199 -0.2883
12789SOL     OW40745   8.857   6.595   2.988 -0.0174 -0.0856 -0.9142
12789SOL    HW140746   8.940   6.642   2.997 -1.0252  2.4073 -3.2155
12789SOL    HW240747   8.829   6.578   3.078  2.5623 -0.3350 -0.0759
12790SOL     OW40748   2.627   5.063   4.754  0.1660 -0.5972  0.1787
12790SOL    HW140749   2.554   5.068   4.815  0.0845  0.9733  0.0044
12790SOL    HW240750   2.704   5.054   4.810 -0.0432 -0.7893  0.4357
12791SOL     OW40751   7.166   9.798   6.239  0.4105  0.0161  0.0894
12791SOL    HW140752   7.232   9.849   6.192 -0.9401  2.5536  0.7155
12791SOL    HW240753   7.103   9.773   6.172  1.5649 -1.7700 -0.3849
12792SOL     OW40754   7.693   6.791   6.249  0.1333  0.5783  0.0393
12792SOL    HW140755   7.609   6.760   6.216  0.3647  1.2330 -1.2394
12792SOL    HW240756   7.758   6.734   6.208  0.3320  0.0312  1.0722
12793SOL     OW40757   3.471   8.759   8.258  0.5336 -0.7263  0.5908
12793SOL    HW140758   3.527   8.765   8.181 -0.2291  0.3147  0.0855
12793SOL    HW240759   3.426   8.674   8.249  0.6042 -0.7017 -0.0027
12794SOL     OW40760   2.532   6.389   6.186  0.5212  0.2947 -0.5594
12794SOL    HW140761   2.557   6.342   6.107 -0.9383  0.2337 -1.0253
12794SOL    HW240762   2.568   6.338   6.258  0.2689 -0.6985 -1.1259
12795SOL     OW40763   8.445   3.467   9.833  0.0145  0.0366  0.1069
12795SOL    HW140764   8.537   3.493   9.835  0.3382 -1.0288 -0.0220
12795SOL    HW240765   8.398   3.545   9.803  0.6851  1.0797  1.6810
12796SOL     OW40766   3.601   4.047   1.360  0.2304 -0.5320 -0.0118
12796SOL    HW140767   3.559   4.031   1.444 -0.8612  0.0644 -0.4252
12796SOL    HW240768   3.539   4.014   1.295  1.5881 -2.1260 -0.5715
12797SOL     OW40769   0.606  10.221   4.474  0.5983  0.3704  0.1190
12797SOL    HW140770   0.643  10.278   4.407 -2.0563  0.0999 -1.7398
12797SOL    HW240771   0.511  10.234   4.467  0.1431 -0.8851  2.7584
12798SOL     OW40772   0.769   6.229   5.563  0.1779  0.3237  0.5910
12798SOL    HW140773   0.802   6.220   5.653 -1.1249 -1.0462  0.9649
12798SOL    HW240774   0.815   6.161   5.514 -1.5941 -1.2535  1.0063
12799SOL     OW40775   9.027   5.064   1.334  0.1498 -0.1444  0.4452
12799SOL    HW140776   9.023   5.040   1.242  0.4458 -0.6462  0.5543
12799SOL    HW240777   9.121   5.062   1.355 -0.0374 -2.5190  1.3726
12800SOL     OW40778   5.078   5.728   3.358  0.1302  0.4309 -0.1874
12800SOL    HW140779   5.163   5.702   3.392  0.0832  1.5008  0.8267
12800SOL    HW240780   5.015   5.696   3.423 -0.2122 -0.0659 -0.7612
12801SOL     OW40781  10.730   0.540   2.053  0.3672 -0.2532  0.0328
12801SOL    HW140782  10.699   0.630   2.067 -1.9675 -0.8068 -1.0272
12801SOL    HW240783  10.650   0.490   2.036  1.7577 -2.2064 -1.1514
12802SOL     OW40784   7.304   2.628   1.076 -0.0265  0.2707  0.7367
12802SOL    HW140785   7.269   2.598   0.992  0.0901 -1.4204  1.2524
12802SOL    HW240786   7.360   2.702   1.053 -0.1900  0.0019 -0.6489
12803SOL     OW40787   2.336   5.774  10.331 -0.6921 -0.5610  0.2700
12803SOL    HW140788   2.318   5.750  10.240 -0.9563  0.2063  0.1167
12803SOL    HW240789   2.379   5.697  10.367  2.0934  0.0954 -1.3086
12804SOL     OW40790   5.193   3.556   6.812  0.1670 -0.0021 -0.0524
12804SOL    HW140791   5.139   3.560   6.733 -1.1685  0.8120  0.8859
12804SOL    HW240792   5.132   3.563   6.885  1.5118  0.9007  1.0531
12805SOL     OW40793   2.052   7.740   9.331  0.0705  0.1164 -0.4952
12805SOL    HW140794   2.097   7.823   9.314  1.3775 -0.5555 -0.3978
12805SOL    HW240795   2.110   7.693   9.391 -0.8331 -0.7255 -0.2574
12806SOL     OW40796   4.925   5.442   5.907 -0.4015 -0.2690  0.4399
12806SOL    HW140797   4.879   5.361   5.886 -1.1467  0.0449  0.8318
12806SOL    HW240798   4.856   5.509   5.912  0.4020  0.8797 -2.0744
12807SOL     OW40799   4.449   8.847   1.134  0.1046 -0.4607 -0.0355
12807SOL    HW140800   4.394   8.772   1.112  0.5512 -1.3795  1.7952
12807SOL    HW240801   4.440   8.857   1.229  0.7469  1.2598 -0.1209
12808SOL     OW40802   8.404   7.739   5.070  0.0517 -0.2359 -0.6731
12808SOL    HW140803   8.352   7.789   5.131 -1.4506 -0.6189 -1.5928
12808SOL    HW240804   8.492   7.778   5.075 -0.4131  0.6951  0.5848
12809SOL     OW40805   6.755   6.755   5.186  0.4970 -0.3453 -0.4797
12809SOL    HW140806   6.726   6.843   5.210 -1.0059 -1.3824  1.8550
12809SOL    HW240807   6.810   6.768   5.109 -0.6585  2.4935 -0.9409
12810SOL     OW40808   9.404   4.394   5.591 -0.1663 -0.5768 -0.0124
12810SOL    HW140809   9.463   4.465   5.569  1.0273 -1.8833 -1.2720
12810SOL    HW240810   9.419   4.328   5.523 -0.7395 -2.3123  1.4346
12811SOL     OW40811   1.142   2.988   6.435  0.6970 -0.5223 -0.3238
12811SOL    HW140812   1.201   2.924   6.396  1.3118  0.2744 -0.7360
12811SOL    HW240813   1.161   3.070   6.388 -0.0974 -0.0499  0.1587
12812SOL     OW40814   6.993  10.442   5.523 -0.1589 -0.2703  0.1162
12812SOL    HW140815   6.945  10.471   5.445 -0.5445 -0.8858  0.1190
12812SOL    HW240816   6.961  10.499   5.593 -3.3143 -2.6120  0.8278
12813SOL     OW40817   3.046   0.894   0.378  0.6304 -0.2758 -0.4038
12813SOL    HW140818   3.138   0.877   0.360  0.7579  0.9233 -0.9665
12813SOL    HW240819   3.014   0.939   0.300 -0.3342 -0.3274 -0.0498
12814SOL     OW40820   3.448   6.869   5.152  0.2314  0.0667 -0.2070
12814SOL    HW140821   3.523   6.929   5.141 -0.1162  0.2668 -1.7658
12814SOL    HW240822   3.469   6.794   5.097  1.1639 -1.8436  2.5651
12815SOL     OW40823   4.965   3.404   9.184  0.3392 -0.3367 -0.3854
12815SOL    HW140824   4.952   3.322   9.134 -2.5422  0.1666 -0.6720
12815SOL    HW240825   4.923   3.387   9.268 -1.1168  1.0787 -0.7774
12816SOL     OW40826  10.638   0.745   0.527  0.1359  0.0164 -0.1748
12816SOL    HW140827  10.567   0.794   0.569 -1.4746 -2.1319 -0.2160
12816SOL    HW240828  10.717   0.776   0.571 -1.2055 -0.1704  2.6413
12817SOL     OW40829  10.106   7.569   8.298  0.5573 -0.1595 -0.1482
12817SOL    HW140830  10.108   7.654   8.342  0.8932  0.1158 -0.6844
12817SOL    HW240831  10.190   7.529   8.319  0.5493 -0.2030 -0.1978
12818SOL     OW40832   3.137   8.547   6.132  0.3205  0.3422 -0.2020
12818SOL    HW140833   3.063   8.494   6.162  0.0302  1.2248  0.6945
12818SOL    HW240834   3.099   8.612   6.074  0.9114 -1.5055 -2.8559
12819SOL     OW40835   5.609  10.798   6.043  0.3705  0.0008  0.1840
12819SOL    HW140836   5.633  10.887   6.067  0.7083 -0.0105 -0.0990
12819SOL    HW240837   5.530  10.807   5.991 -1.6062 -0.1188  2.9631
12820SOL     OW40838   0.678   3.267   2.559 -0.2032  0.1593  0.2970
12820SOL    HW140839   0.770   3.269   2.532  0.8551 -1.6422  3.2518
12820SOL    HW240840   0.630   3.254   2.477  2.1931  0.5654 -1.2939
12821SOL     OW40841   6.328   1.645   9.473  0.3105  0.2187  0.8270
12821SOL    HW140842   6.274   1.723   9.483 -0.2971 -0.3194  1.9891
12821SOL    HW240843   6.418   1.678   9.481  0.0949  0.8985  0.5409
12822SOL     OW40844   5.162   5.104   3.562  0.6428  0.4063 -0.4855
12822SOL    HW140845   5.156   5.011   3.585 -2.5092  0.5931 -0.1338
12822SOL    HW240846   5.217   5.142   3.631 -1.3884 -0.5573  1.7974
12823SOL     OW40847  10.107   4.604   4.344 -0.8588 -0.4043 -0.5773
12823SOL    HW140848  10.150   4.663   4.406 -1.6234  0.8778 -1.2365
12823SOL    HW240849  10.059   4.542   4.399 -0.1987 -0.3120  0.1190
12824SOL     OW40850   7.623   9.120   6.545  0.3164 -0.0553  0.0819
12824SOL    HW140851   7.626   9.153   6.635 -0.2699  0.0807  0.0562
12824SOL    HW240852   7.702   9.156   6.503  0.0310  0.7705  0.2439
12825SOL     OW40853   9.893   9.682   9.848 -0.5774 -0.2658  0.0830
12825SOL    HW140854   9.849   9.599   9.835 -1.7726  0.0340  1.8678
12825SOL    HW240855   9.971   9.661   9.900 -1.3150 -0.2134  1.2512
12826SOL     OW40856   5.515   5.205   2.903 -0.1246 -0.4099 -0.4702
12826SOL    HW140857   5.557   5.120   2.893 -1.0914 -0.8521 -0.9470
12826SOL    HW240858   5.533   5.230   2.994 -0.9416 -1.7547  0.0867
12827SOL     OW40859   2.520   1.319   8.972 -0.2996  0.3672  0.8723
12827SOL    HW140860   2.591   1.255   8.975 -0.0610  0.6446  1.4335
12827SOL    HW240861   2.471   1.304   9.053 -0.5166  0.5887  0.7837
12828SOL     OW40862   4.671   0.937   8.887  0.2191 -0.4882  0.2500
12828SOL    HW140863   4.677   0.847   8.919  0.7475 -0.8627 -0.8449
12828SOL    HW240864   4.756   0.976   8.907 -0.1508 -0.0760  1.1040
12829SOL     OW40865   1.570   6.993   9.240 -0.1626  0.1429 -0.1217
12829SOL    HW140866   1.484   6.973   9.204  0.0803 -0.9116 -0.1501
12829SOL    HW240867   1.565   6.965   9.331  0.3296 -0.4655 -0.2789
12830SOL     OW40868   9.901   5.936   9.953 -0.0299  0.1957 -0.1034
12830SOL    HW140869   9.852   6.003   9.905  1.4170  0.6840 -0.9828
12830SOL    HW240870   9.952   5.986  10.017 -1.1411 -0.3627  1.2593
12831SOL     OW40871  10.676  10.323   3.173  0.3312  0.0736  0.1982
12831SOL    HW140872  10.604  10.352   3.228 -0.8795  0.4707 -1.5125
12831SOL    HW240873  10.652  10.234   3.147 -0.0420  0.5443 -1.1342
12832SOL     OW40874   2.452   8.109   9.047 -0.1701 -0.0795 -0.7327
12832SOL    HW140875   2.513   8.060   9.102  0.5404 -0.1174 -1.5241
12832SOL    HW240876   2.407   8.042   8.995 -1.7831 -0.1503  0.6889
12833SOL     OW40877   5.816   0.414   7.257  0.5885  0.4021  0.1933
12833SOL    HW140878   5.804   0.380   7.169  2.2124  1.0302 -0.2968
12833SOL    HW240879   5.794   0.507   7.250  2.2841  0.8178  0.0465
12834SOL     OW40880   9.101   9.327   4.968  0.4536  0.4818  0.3807
12834SOL    HW140881   9.187   9.329   4.927  0.8479 -2.7137  0.8470
12834SOL    HW240882   9.107   9.392   5.038  2.9256 -0.4576  1.1437
12835SOL     OW40883   9.499   7.998   1.249  0.0361 -0.6190 -0.1041
12835SOL    HW140884   9.532   8.076   1.204 -1.6282 -0.1895 -0.6595
12835SOL    HW240885   9.559   7.985   1.323  1.2040  0.2958 -0.8472
12836SOL     OW40886   5.570   3.635   1.760 -0.4886  0.2627  0.1507
12836SOL    HW140887   5.599   3.726   1.761  1.3214 -0.2367 -1.4302
12836SOL    HW240888   5.650   3.584   1.753 -1.3740 -1.5650  2.2396
12837SOL     OW40889   2.183   2.335   6.775 -0.5225  0.4568 -0.1694
12837SOL    HW140890   2.112   2.273   6.795  1.1421 -0.8019  2.3421
12837SOL    HW240891   2.168   2.359   6.683 -3.8910 -0.0794  0.1117
12838SOL     OW40892   2.258   5.528   4.450  0.5097 -0.1440 -0.2200
12838SOL    HW140893   2.186   5.591   4.461  1.3813  0.9366 -0.5289
12838SOL    HW240894   2.217   5.443   4.467 -0.2627  0.6247  2.3801
12839SOL     OW40895   7.750   6.519   7.338  0.0584  0.3837 -0.3975
12839SOL    HW140896   7.731   6.612   7.351 -1.8740  0.0127 -0.3138
12839SOL    HW240897   7.770   6.511   7.245  1.8756  1.1028 -0.1197
12840SOL     OW40898   0.769   9.058   6.759  0.4029  0.0448 -0.3597
12840SOL    HW140899   0.748   8.967   6.780 -0.4263  0.5920  1.3116
12840SOL    HW240900   0.864   9.060   6.755  0.4281 -0.9210 -0.6027
12841SOL     OW40901   8.263   1.336   3.633  0.2342 -0.3541 -1.1009
12841SOL    HW140902   8.185   1.282   3.624  0.5197 -0.7372 -1.3093
12841SOL    HW240903   8.291   1.323   3.724  1.4029 -2.1016 -1.6595
12842SOL     OW40904   1.044   7.064   6.449 -0.3977  0.5250  0.4215
12842SOL    HW140905   1.043   7.101   6.538  2.3831  1.2393  0.2544
12842SOL    HW240906   1.006   7.132   6.394 -0.6753  0.7259  0.8565
12843SOL     OW40907   9.077   2.633   3.457  0.4973  0.7801 -0.0916
12843SOL    HW140908   9.113   2.700   3.399  0.7569  1.4524  0.8127
12843SOL    HW240909   9.026   2.682   3.522 -0.8371 -0.0501 -0.4752
12844SOL     OW40910   9.927   7.335   2.904  0.0998  0.0977 -0.5447
12844SOL    HW140911   9.834   7.358   2.909  0.1120 -0.0039  0.2506
12844SOL    HW240912   9.928   7.240   2.914  0.4506  0.3136  2.1811
12845SOL     OW40913   3.041   2.779   7.927 -0.5809  0.4977 -0.3010
12845SOL    HW140914   3.112   2.715   7.920 -0.5097  0.5576 -0.1239
12845SOL    HW240915   3.003   2.782   7.839  0.2712  1.1819 -0.6712
12846SOL     OW40916   3.375   1.906   1.092  0.0837  0.2000  0.0592
12846SOL    HW140917   3.357   1.981   1.149 -2.3892  0.3939 -0.8733
12846SOL    HW240918   3.388   1.945   1.005  1.1756 -0.2982 -0.0118
12847SOL     OW40919   6.445   7.673   4.287  0.7647  0.2372 -0.0763
12847SOL    HW140920   6.423   7.698   4.377 -1.1634 -1.2064 -0.0983
12847SOL    HW240921   6.431   7.753   4.236 -0.9816  0.3391  0.4896
12848SOL     OW40922   1.771   2.420  10.137 -0.0226  0.6735 -0.2838
12848SOL    HW140923   1.720   2.500  10.133  0.4382  1.1313  1.7843
12848SOL    HW240924   1.846   2.442  10.193  0.5710 -0.9530 -0.3835
12849SOL     OW40925   0.595   7.318   1.446  0.2497 -0.0226 -0.1733
12849SOL    HW140926   0.547   7.323   1.363  0.6871  0.6890 -0.3866
12849SOL    HW240927   0.578   7.229   1.478 -1.8853  0.4426  0.1608
12850SOL     OW40928   6.958   1.591   2.133  0.2091 -0.0627 -0.3685
12850SOL    HW140929   6.883   1.566   2.186 -1.4883 -0.2636 -2.6837
12850SOL    HW240930   6.996   1.508   2.104  1.8675  0.0204  1.3969
12851SOL     OW40931   3.906   1.390   6.462 -0.5246 -0.0586 -0.0228
12851SOL    HW140932   3.973   1.326   6.487 -0.2294  0.0308 -0.5602
12851SOL    HW240933   3.890   1.440   6.542  0.1901  0.0456  0.0652
12852SOL     OW40934   9.652   8.202   1.151 -0.2488  0.1801 -0.0810
12852SOL    HW140935   9.725   8.223   1.093 -0.7386 -1.2044 -1.2751
12852SOL    HW240936   9.593   8.277   1.146  0.3259  0.6153 -0.3530
12853SOL     OW40937   1.412   7.300   8.117  0.4768  0.1857  0.2225
12853SOL    HW140938   1.319   7.289   8.136  0.3971  0.3765 -0.0517
12853SOL    HW240939   1.415   7.361   8.043  0.7900 -0.4946 -0.3298
12854SOL     OW40940   2.315   8.883   4.624  0.4577 -0.6543 -0.0705
12854SOL    HW140941   2.274   8.798   4.610 -2.5197  0.6295  0.0460
12854SOL    HW240942   2.368   8.872   4.702 -1.1038 -2.0575  0.8462
12855SOL     OW40943   7.799   7.492   1.723  0.0376  0.5084  0.4575
12855SOL    HW140944   7.732   7.559   1.731 -0.2382  0.2021  0.7105
12855SOL    HW240945   7.764   7.430   1.659  1.0143  1.4686 -1.0946
12856SOL     OW40946   7.123   1.010   9.606  0.0317 -0.1088 -0.1236
12856SOL    HW140947   7.215   0.994   9.626  0.4811 -0.6480 -2.3924
12856SOL    HW240948   7.119   1.104   9.585  0.4842 -0.4586 -1.8988
12857SOL     OW40949   8.642   3.380   3.104  0.5410 -0.3107  0.0253
12857SOL    HW140950   8.683   3.460   3.138  1.6121 -1.2742  1.1024
12857SOL    HW240951   8.668   3.312   3.166  0.1577 -1.6139 -1.2016
12858SOL     OW40952   1.073   3.348   8.766  0.3095  0.0461 -0.2760
12858SOL    HW140953   0.983   3.319   8.751  0.4769  0.7073 -3.0804
12858SOL    HW240954   1.124   3.305   8.697  1.1051  4.2001 -2.6452
12859SOL     OW40955   6.523  10.219   4.976  0.1610  0.4136 -0.0557
12859SOL    HW140956   6.581  10.258   5.042  0.0000 -0.8660  0.8867
12859SOL    HW240957   6.545  10.265   4.895  2.6404 -0.1142  0.2228
12860SOL     OW40958   7.182   6.697   9.248 -0.5977 -0.1307 -0.0439
12860SOL    HW140959   7.201   6.693   9.155  1.3883  1.1457  0.2222
12860SOL    HW240960   7.235   6.628   9.287 -0.4390  0.1413  0.2362
12861SOL     OW40961   4.675   2.311   6.353  0.0808 -0.4694 -0.1293
12861SOL    HW140962   4.730   2.297   6.430 -1.2233 -0.4871  0.8278
12861SOL    HW240963   4.636   2.225   6.336 -0.7903 -0.1353  0.1212
12862SOL     OW40964   1.477   8.151   6.222  0.2804 -0.5354  0.1010
12862SOL    HW140965   1.522   8.077   6.264  0.2476 -1.5586 -1.5801
12862SOL    HW240966   1.465   8.214   6.293  1.5391 -1.5556  1.2964
12863SOL     OW40967   2.162   7.671   5.041 -0.1643 -0.2614 -0.2402
12863SOL    HW140968   2.199   7.622   4.968 -1.4371 -2.0164  0.2297
12863SOL    HW240969   2.079   7.627   5.061 -1.3223  2.0208  0.3259
12864SOL     OW40970   3.207   2.494   1.013 -0.9062 -0.3550 -0.0579
12864SOL    HW140971   3.151   2.482   1.090 -0.0245  0.7743  0.8032
12864SOL    HW240972   3.286   2.536   1.047 -0.4322  0.0473 -1.5628
12865SOL     OW40973   6.273   8.705   8.982  0.7475 -0.5760  0.9450
12865SOL    HW140974   6.200   8.698   9.043  1.2287  1.7114  1.8692
12865SOL    HW240975   6.232   8.719   8.897  0.0497  0.7915  1.4723
12866SOL     OW40976   5.035   1.980   5.463  0.3978 -0.2985 -0.3921
12866SOL    HW140977   5.007   1.899   5.505 -0.1103 -0.1095 -0.3689
12866SOL    HW240978   4.996   1.978   5.376  0.3483 -0.0602 -0.3782
12867SOL     OW40979   1.622   3.724   3.477  0.3419  0.0157 -0.2805
12867SOL    HW140980   1.539   3.767   3.456  0.1612  0.1648  0.7032
12867SOL    HW240981   1.685   3.763   3.416 -0.0167  0.9758 -0.0460
12868SOL     OW40982   8.835   0.232   9.031 -0.3431  0.7455 -0.6227
12868SOL    HW140983   8.798   0.309   8.987 -1.7965  0.5289  0.1714
12868SOL    HW240984   8.759   0.185   9.065  0.6098 -0.3537  0.0427
12869SOL     OW40985   3.653   4.911   4.542  0.3772 -0.0935 -0.1003
12869SOL    HW140986   3.580   4.967   4.515  0.7903  0.6033  0.2287
12869SOL    HW240987   3.690   4.955   4.618 -0.2255 -1.5651  1.1092
12870SOL     OW40988   0.911   2.820   2.498 -0.4583  0.1414 -0.0108
12870SOL    HW140989   0.888   2.744   2.551  0.4359  1.4525  2.3948
12870SOL    HW240990   0.861   2.892   2.536  0.6128  1.2443 -0.6175
12871SOL     OW40991   8.127   2.011   8.981  0.2331  0.0838  0.5033
12871SOL    HW140992   8.093   2.033   8.894  0.4027 -1.8166 -0.0934
12871SOL    HW240993   8.112   2.090   9.033 -3.3908  0.0274 -0.2025
12872SOL     OW40994   6.369   8.759   0.067 -0.1818  0.2555  0.4901
12872SOL    HW140995   6.459   8.787   0.084  0.3978 -1.2490  0.0650
12872SOL    HW240996   6.337   8.730   0.153  0.2266 -0.4943  0.3969
12873SOL     OW40997   4.450  10.295   2.955  0.3123  0.1698 -0.4340
12873SOL    HW140998   4.452  10.233   2.882  0.9036 -0.7558  0.3467
12873SOL    HW240999   4.463  10.241   3.033  0.3772  1.2250  0.3068
12874SOL     OW41000   0.443   0.126   5.850  0.4274  0.3921 -0.5184
12874SOL    HW141001   0.397   0.115   5.934  2.1812 -0.2618  0.4081
12874SOL    HW241002   0.418   0.049   5.799 -0.1058  0.4466 -0.3515
12875SOL     OW41003   5.135   9.122   8.213 -0.5868 -0.2509  1.1526
12875SOL    HW141004   5.101   9.111   8.301 -1.3335 -1.7629  0.7121
12875SOL    HW241005   5.095   9.050   8.162  0.8470 -0.2229 -0.1009
12876SOL     OW41006   7.775   5.473   4.435  0.4839  0.7445 -0.0317
12876SOL    HW141007   7.735   5.391   4.405  1.4028  0.1865  0.2348
12876SOL    HW241008   7.715   5.506   4.502  1.2470 -0.9133  1.5336
12877SOL     OW41009   6.520   0.644   1.465  0.4388  0.4240 -0.3880
12877SOL    HW141010   6.428   0.618   1.470  0.5335  0.2932  2.0841
12877SOL    HW241011   6.522   0.732   1.503  1.6957 -0.9608  3.2313
12878SOL     OW41012   4.914   6.463   6.863 -0.1802 -0.4591  0.4869
12878SOL    HW141013   4.989   6.459   6.923  0.3510 -0.7818 -0.1857
12878SOL    HW241014   4.950   6.500   6.783 -0.8181 -0.3292  0.2592
12879SOL     OW41015  10.416  10.077   8.106 -0.5029 -0.1792  0.0674
12879SOL    HW141016  10.387  10.064   8.196 -3.4155 -1.2975 -0.9197
12879SOL    HW241017  10.415   9.990   8.067 -1.4094  0.5214 -1.5868
12880SOL     OW41018   8.646   2.023   8.288  0.0290  0.0935 -0.1014
12880SOL    HW141019   8.664   1.946   8.233 -0.0407  0.4090 -0.5722
12880SOL    HW241020   8.641   2.096   8.226 -0.5831  0.3734  0.2703
12881SOL     OW41021   9.236   7.816   0.185  0.2433 -0.4877 -0.0989
12881SOL    HW141022   9.305   7.882   0.193 -1.4842  1.3291  0.4124
12881SOL    HW241023   9.279   7.743   0.140  1.7997  1.6253 -2.2834
12882SOL     OW41024   4.821   9.167   0.178 -0.1939  0.4492 -0.0406
12882SOL    HW141025   4.787   9.132   0.260 -1.3035 -0.0982 -0.7147
12882SOL    HW241026   4.755   9.144   0.113 -0.0434  2.1586 -0.8363
12883SOL     OW41027   2.866   3.724   7.694 -0.9282  0.5515 -0.3557
12883SOL    HW141028   2.941   3.712   7.752 -0.6425 -0.1068 -0.8527
12883SOL    HW241029   2.794   3.747   7.752 -0.8419 -0.8942  0.3708
12884SOL     OW41030   2.752   2.095   9.666  0.2914 -0.4827  0.3263
12884SOL    HW141031   2.671   2.060   9.703  0.9048 -1.1190  1.0967
12884SOL    HW241032   2.807   2.017   9.652  0.3137 -0.2014 -1.3618
12885SOL     OW41033   2.749   5.624   1.980 -0.7382 -0.0978  0.4423
12885SOL    HW141034   2.828   5.588   2.021  1.7572  1.9328 -2.1248
12885SOL    HW241035   2.736   5.571   1.902  0.3603  1.6327 -1.0237
12886SOL     OW41036  10.691   2.171   7.747 -0.7233 -0.1522  0.5226
12886SOL    HW141037  10.623   2.106   7.733 -2.2489  1.5069 -0.1580
12886SOL    HW241038  10.644   2.249   7.776  1.0925  0.5131  1.8576
12887SOL     OW41039   9.557   4.192   9.608  0.2066  0.2834  1.0663
12887SOL    HW141040   9.525   4.145   9.530 -1.2948  2.1199  0.5059
12887SOL    HW241041   9.553   4.127   9.678  0.3055 -1.0417 -0.0953
12888SOL     OW41042   9.196   6.518   6.450 -0.2391  0.2870 -0.4888
12888SOL    HW141043   9.292   6.516   6.454 -0.1486  1.0523 -1.8033
12888SOL    HW241044   9.174   6.477   6.367 -0.9264  1.8925 -1.1417
12889SOL     OW41045  10.597   2.110   7.209  0.0482  0.2744  0.2151
12889SOL    HW141046  10.641   2.150   7.284 -1.0132  1.2909  0.3262
12889SOL    HW241047  10.575   2.184   7.152 -0.1104 -0.3787 -0.5826
12890SOL     OW41048   2.765   2.196   3.790  0.0731 -0.2233 -0.2618
12890SOL    HW141049   2.842   2.196   3.733  1.9265 -2.8461  1.9614
12890SOL    HW241050   2.771   2.280   3.837  2.7246 -1.0517  1.1110
12891SOL     OW41051   6.299   1.348   0.914 -0.6076  0.2547  0.5685
12891SOL    HW141052   6.380   1.301   0.932 -0.3856  0.6623  0.6540
12891SOL    HW241053   6.234   1.310   0.973 -0.9740 -1.3873 -0.7917
12892SOL     OW41054   4.618   0.056   2.229  0.3393 -0.0988  0.8351
12892SOL    HW141055   4.696   0.035   2.178  1.5173 -0.3233  2.6489
12892SOL    HW241056   4.613   0.152   2.228 -0.3124 -0.1187 -0.5925
12893SOL     OW41057   3.909   6.292   0.158 -0.2899  0.2579  0.3387
12893SOL    HW141058   3.999   6.318   0.138 -0.5581 -0.1899 -1.6810
12893SOL    HW241059   3.871   6.268   0.073 -2.5513  1.0973  1.0352
12894SOL     OW41060   7.333   8.839   1.039  0.1619 -0.4342 -0.2367
12894SOL    HW141061   7.263   8.904   1.033 -0.4736 -1.1726 -1.1050
12894SOL    HW241062   7.322   8.802   1.127 -1.5888 -1.6567 -0.9147
12895SOL     OW41063   5.561   5.126   1.730  0.0498  0.4153 -0.1313
12895SOL    HW141064   5.506   5.091   1.801 -1.8264  3.1517 -0.1117
12895SOL    HW241065   5.529   5.083   1.651  0.8761 -1.2218  0.3742
12896SOL     OW41066   7.271   8.912   2.283 -0.0979 -0.2727  0.5187
12896SOL    HW141067   7.355   8.930   2.241 -1.1209 -0.4359 -1.7505
12896SOL    HW241068   7.283   8.828   2.327  0.9727 -0.1769  0.4210
12897SOL     OW41069  10.392  10.349   5.851 -0.2755 -0.1171 -0.3031
12897SOL    HW141070  10.438  10.297   5.785  1.6274  1.6338 -0.4612
12897SOL    HW241071  10.442  10.336   5.932 -0.7082  0.2318  0.0285
12898SOL     OW41072  10.561   9.018   0.138  0.1228 -0.1069  0.2208
12898SOL    HW141073  10.620   9.092   0.152 -0.7183  0.8025 -0.8455
12898SOL    HW241074  10.497   9.050   0.075 -0.6077 -1.5701  0.1742
12899SOL     OW41075   2.489   8.898   2.310 -0.2150  0.0031 -0.0676
12899SOL    HW141076   2.543   8.951   2.368 -0.9392 -0.4124  1.0194
12899SOL    HW241077   2.484   8.949   2.229 -2.3081  2.5462  1.4708
12900SOL     OW41078  10.246   1.173   4.365  0.6452 -0.4079  0.3466
12900SOL    HW141079  10.301   1.218   4.301  0.5961 -0.5534  0.2001
12900SOL    HW241080  10.165   1.154   4.318  1.3908 -2.4327 -0.2369
12901SOL     OW41081   1.496   0.910   5.526 -0.2618  0.2797  0.1237
12901SOL    HW141082   1.435   0.837   5.515  0.3368  0.0060 -1.6179
12901SOL    HW241083   1.545   0.914   5.444  0.2271  2.1884  0.4495
12902SOL     OW41084   1.417   8.264   4.577  0.4480 -0.2185 -0.7131
12902SOL    HW141085   1.456   8.345   4.544  2.4631  0.1302  2.1711
12902SOL    HW241086   1.477   8.195   4.549  2.3335  0.1094  2.0803
12903SOL     OW41087   8.208   9.254   9.770  0.2675 -0.2300  0.0798
12903SOL    HW141088   8.299   9.252   9.740  0.6100  0.3588  1.0338
12903SOL    HW241089   8.191   9.347   9.787 -0.6622 -0.2814 -0.5020
12904SOL     OW41090   9.423   1.653   7.856  0.4728  0.3935  0.6534
12904SOL    HW141091   9.396   1.565   7.881  0.7583 -0.6376 -2.3205
12904SOL    HW241092   9.349   1.709   7.883 -0.1231 -0.8680  1.7325
12905SOL     OW41093   5.070   7.657  10.306 -0.2023 -0.2699 -0.1843
12905SOL    HW141094   4.995   7.691  10.354  0.7214 -0.2634  1.3141
12905SOL    HW241095   5.032   7.596  10.243 -1.5322  0.4409 -0.0998
12906SOL     OW41096   0.059   8.217   8.406 -0.2536 -0.2107  0.3193
12906SOL    HW141097   0.041   8.158   8.479 -0.3405  1.9049  2.0947
12906SOL    HW241098   0.142   8.259   8.428 -0.2672  0.4626 -0.8169
12907SOL     OW41099   3.188   7.375   4.246  0.8616  0.2316 -0.2288
12907SOL    HW141100   3.129   7.306   4.216  0.7121 -0.0045  0.5890
12907SOL    HW241101   3.265   7.366   4.190  1.3689 -1.4299  0.6512
12908SOL     OW41102   8.967   4.253   0.009 -0.1287 -0.1491 -0.1568
12908SOL    HW141103   8.957   4.334  -0.040  2.2392  0.6767  0.5860
12908SOL    HW241104   8.955   4.279   0.101  2.0851 -0.2792  0.2166
12909SOL     OW41105   6.541   6.711   4.766 -0.3232 -0.2039 -0.3324
12909SOL    HW141106   6.539   6.754   4.681  1.7418 -0.0192 -0.3173
12909SOL    HW241107   6.615   6.651   4.762 -0.4845 -0.5593  1.1673
12910SOL     OW41108   7.639   0.527  10.654  0.1114  0.5283  0.7038
12910SOL    HW141109   7.685   0.497  10.576 -0.2534  1.1371  0.2496
12910SOL    HW241110   7.594   0.449  10.687  1.3055 -0.0463  1.0630
12911SOL     OW41111   7.484   0.570   9.149  0.4647  0.5583  0.1099
12911SOL    HW141112   7.573   0.547   9.121  0.5024  0.3783  0.3714
12911SOL    HW241113   7.482   0.549   9.243  0.0056  0.1347  0.0078
12912SOL     OW41114   0.940   1.871   8.556 -0.2588  0.6521 -0.1747
12912SOL    HW141115   0.861   1.824   8.582 -0.6090  0.7891 -0.9812
12912SOL    HW241116   0.980   1.814   8.490 -1.7118  2.3440 -2.6574
12913SOL     OW41117   1.646   0.941   1.399 -0.3195 -0.2319  0.4608
12913SOL    HW141118   1.584   0.936   1.471  0.2143  1.5179  1.0887
12913SOL    HW241119   1.716   0.880   1.423 -0.4404 -0.1122  1.1290
12914SOL     OW41120   0.757   8.098   0.449 -0.2104 -0.0756  0.2894
12914SOL    HW141121   0.750   8.133   0.360 -0.9776 -0.7818  0.0539
12914SOL    HW241122   0.838   8.135   0.484 -0.1065  0.5220 -0.5632
12915SOL     OW41123   5.566   7.244   5.091 -0.2320  0.1906 -0.0451
12915SOL    HW141124   5.515   7.169   5.060 -0.3814  1.2556 -2.5415
12915SOL    HW241125   5.529   7.319   5.046  1.6717  1.4121  0.3009
12916SOL     OW41126   3.342   3.232   9.876  0.5787  0.1939 -0.0849
12916SOL    HW141127   3.434   3.243   9.901  0.6902  0.8613 -0.7511
12916SOL    HW241128   3.293   3.261   9.953  0.9194  0.3768  0.0680
12917SOL     OW41129   7.028   1.884   4.329  0.4221  0.0489  0.5803
12917SOL    HW141130   7.050   1.929   4.248  0.2503  0.6464  0.8574
12917SOL    HW241131   7.103   1.828   4.347 -0.5830 -2.0581 -1.3236
12918SOL     OW41132   1.935   1.289   4.777  0.0226 -0.1072  0.0222
12918SOL    HW141133   1.918   1.334   4.860 -1.9512 -0.3841 -0.1869
12918SOL    HW241134   1.856   1.303   4.726  0.5608 -1.3422 -1.2022
12919SOL     OW41135   9.427   6.072   8.278 -0.0881 -0.0279 -0.4676
12919SOL    HW141136   9.350   6.091   8.225 -0.6895 -0.9189  0.0410
12919SOL    HW241137   9.484   6.148   8.267 -0.3161 -0.0637 -2.1382
12920SOL     OW41138   5.359   4.886   7.745 -0.0812  0.4593 -0.5046
12920SOL    HW141139   5.341   4.792   7.746 -0.4279  0.4837  2.2743
12920SOL    HW241140   5.275   4.926   7.723  0.0027  0.1508 -1.4209
12921SOL     OW41141  10.793   5.451   1.322 -0.1420 -0.4879 -0.4718
12921SOL    HW141142  10.776   5.358   1.338  1.4486 -0.8078 -0.4276
12921SOL    HW241143  10.832   5.482   1.404 -0.4558  0.1695 -0.5697
12922SOL     OW41144   8.388   6.469   4.698 -0.2921  0.3415  0.3451
12922SOL    HW141145   8.406   6.393   4.753 -0.3552  0.0379 -0.0436
12922SOL    HW241146   8.324   6.520   4.747 -2.6321 -1.4045 -0.6903
12923SOL     OW41147   9.352   4.209  10.426  0.1792  0.2453  0.1767
12923SOL    HW141148   9.277   4.163  10.464 -0.7267  2.0770  0.7056
12923SOL    HW241149   9.321   4.239  10.340  0.7220 -0.0320 -0.1208
12924SOL     OW41150   5.696   1.335   1.719 -0.4686 -0.6581  0.0526
12924SOL    HW141151   5.786   1.331   1.686  0.4425  1.4716  1.9950
12924SOL    HW241152   5.655   1.406   1.669 -0.9543 -1.3205 -0.5077
12925SOL     OW41153   9.052   5.684   6.497  0.1022 -0.2599 -0.0439
12925SOL    HW141154   9.029   5.738   6.572  3.0906  3.3507 -1.4406
12925SOL    HW241155   9.001   5.721   6.424  0.7256 -0.6360 -0.6871
12926SOL     OW41156   4.956   2.697   3.494 -0.4494  0.4234  0.1905
12926SOL    HW141157   5.039   2.689   3.447 -0.5091  1.3512 -0.0987
12926SOL    HW241158   4.952   2.790   3.520 -1.4912  0.4453  0.0010
12927SOL     OW41159   0.501   7.362   9.881 -0.2119  0.0440 -0.1888
12927SOL    HW141160   0.592   7.343   9.904 -0.2653  1.0306  0.9204
12927SOL    HW241161   0.491   7.456   9.898 -1.1739  0.1612 -1.2404
12928SOL     OW41162   8.186   1.188   6.475 -0.1032 -0.2720  0.6469
12928SOL    HW141163   8.158   1.179   6.384 -0.2307 -1.6349  0.7996
12928SOL    HW241164   8.279   1.213   6.469 -0.8056  2.5010  0.1572
12929SOL     OW41165   1.711   8.700   9.526  0.6324 -0.1356  0.0225
12929SOL    HW141166   1.635   8.641   9.525  0.2542  0.3258 -1.9042
12929SOL    HW241167   1.674   8.787   9.514  1.2933  0.3944  1.6007
12930SOL     OW41168   7.457   9.435   6.269 -0.1986  0.5045 -0.2350
12930SOL    HW141169   7.492   9.352   6.236 -1.6972 -0.3514  0.2431
12930SOL    HW241170   7.382   9.453   6.213 -0.1055  1.3755 -0.0967
12931SOL     OW41171   9.811   9.131   4.430 -0.0146 -0.0953  0.2977
12931SOL    HW141172   9.887   9.190   4.431 -0.9304  1.1215  0.1696
12931SOL    HW241173   9.835   9.063   4.367  1.3591 -0.2791  0.9781
12932SOL     OW41174   1.584   0.599   5.802 -0.0782  0.4358  0.0779
12932SOL    HW141175   1.532   0.520   5.791  0.2863  0.3675 -1.3344
12932SOL    HW241176   1.624   0.613   5.716  0.0608  2.0099  0.3771
12933SOL     OW41177   4.395   6.193   0.038  0.2911 -0.8855 -0.7413
12933SOL    HW141178   4.383   6.115  -0.015 -0.8348 -1.5557  0.4433
12933SOL    HW241179   4.472   6.237  -0.000 -2.0982  0.2749 -4.7988
12934SOL     OW41180   5.797   1.295   9.889 -0.2697 -0.3017  0.2820
12934SOL    HW141181   5.866   1.239   9.854 -0.0458 -0.8539  1.5416
12934SOL    HW241182   5.827   1.318   9.977 -1.6707 -0.5264  0.8419
12935SOL     OW41183  10.392   3.968   2.119  0.4988  0.3761 -0.2882
12935SOL    HW141184  10.457   4.008   2.178  1.8226 -0.5508 -1.0535
12935SOL    HW241185  10.378   3.880   2.156  0.1274  0.3564 -0.4741
12936SOL     OW41186   8.009   8.932   6.794 -0.0599  0.3922  0.5075
12936SOL    HW141187   8.045   8.955   6.708 -0.0122  0.8214  0.6402
12936SOL    HW241188   7.930   8.883   6.774 -1.1486  2.2014  0.1995
12937SOL     OW41189   1.461   7.501   4.853  0.7030 -0.3310 -0.0702
12937SOL    HW141190   1.556   7.492   4.857  0.4626 -3.3465  1.5336
12937SOL    HW241191   1.441   7.573   4.913  1.8673 -0.7159  0.8021
12938SOL     OW41192   6.194   2.269   5.730 -0.1409  0.5514  0.2954
12938SOL    HW141193   6.131   2.210   5.688 -0.3906 -0.9982  2.6423
12938SOL    HW241194   6.279   2.237   5.702 -0.3013 -0.4879  0.9391
12939SOL     OW41195   1.500   4.523   9.760 -0.9443  0.6819 -0.1700
12939SOL    HW141196   1.430   4.569   9.806 -0.6660 -0.1063  1.0996
12939SOL    HW241197   1.580   4.558   9.800 -0.7077 -0.2375  0.1792
12940SOL     OW41198   1.273   6.163   8.687  0.0682 -0.0004 -0.4452
12940SOL    HW141199   1.238   6.115   8.611 -1.4035  0.5372 -0.1271
12940SOL    HW241200   1.282   6.253   8.656  0.6280 -0.0157 -0.3358
12941SOL     OW41201   9.035   4.931   8.688 -0.1135 -0.2253 -0.4353
12941SOL    HW141202   9.029   4.864   8.756 -1.6825 -0.1751 -0.4914
12941SOL    HW241203   9.052   5.012   8.736  0.3629 -0.4332 -0.2475
12942SOL     OW41204   7.537   4.867   2.623 -0.1002 -0.7937 -0.1397
12942SOL    HW141205   7.473   4.801   2.647 -2.4112  1.6656  1.0304
12942SOL    HW241206   7.496   4.915   2.551 -0.7657  2.2177  2.0344
12943SOL     OW41207   9.425   3.187   3.531 -0.2009 -0.1481  0.3886
12943SOL    HW141208   9.489   3.218   3.468 -0.0245 -1.6962 -0.2350
12943SOL    HW241209   9.477   3.146   3.600 -0.4565 -0.0984  0.6125
12944SOL     OW41210   6.805   1.075   4.239 -0.7213  0.0293 -0.2266
12944SOL    HW141211   6.848   0.989   4.241  1.4358  1.0328 -0.1284
12944SOL    HW241212   6.771   1.087   4.328  0.3834 -0.0976  0.2400
12945SOL     OW41213   2.991   8.805   4.811 -0.0332 -0.3411  0.5252
12945SOL    HW141214   3.074   8.818   4.856 -0.8720  1.1928  1.7623
12945SOL    HW241215   2.942   8.745   4.867 -1.2449  1.9019  2.0532
12946SOL     OW41216   0.379   4.658   8.767 -0.4613  0.7254 -0.1210
12946SOL    HW141217   0.449   4.593   8.779 -1.0715 -0.2099 -1.3898
12946SOL    HW241218   0.392   4.690   8.678 -0.6324  1.8203  0.2377
12947SOL     OW41219  10.408   0.964   5.827 -0.0656  0.1225  0.0520
12947SOL    HW141220  10.404   1.054   5.795  0.5516  0.4156  0.7550
12947SOL    HW241221  10.353   0.965   5.905  1.2374  0.3217  0.9981
12948SOL     OW41222   9.965   2.463   7.322 -0.0194  0.1065  0.4960
12948SOL    HW141223   9.982   2.369   7.320  1.2387  0.2921 -1.9890
12948SOL    HW241224  10.041   2.500   7.366  0.5060  0.0731 -0.3511
12949SOL     OW41225   7.086   4.834   6.532 -0.0558  0.0669  0.1878
12949SOL    HW141226   7.135   4.893   6.588 -0.0735 -0.0622  0.3387
12949SOL    HW241227   7.059   4.889   6.458 -0.2387  0.2960  0.4230
12950SOL     OW41228   6.692   3.154   6.706 -0.5619 -0.7177 -0.1245
12950SOL    HW141229   6.669   3.110   6.625 -0.9101  0.3592 -0.6303
12950SOL    HW241230   6.756   3.096   6.748 -1.1312 -1.7634 -0.6737
12951SOL     OW41231   8.643   5.022   9.594  0.4641  0.0943  0.3132
12951SOL    HW141232   8.639   4.977   9.678  2.5427  1.5986  1.3217
12951SOL    HW241233   8.736   5.023   9.572  0.0122  0.0655 -1.8619
12952SOL     OW41234   1.757   1.284   1.633 -0.2919  1.0257  0.2510
12952SOL    HW141235   1.701   1.314   1.562  1.6738 -0.6057 -2.1482
12952SOL    HW241236   1.822   1.228   1.591  0.9900 -0.0662  3.3591
12953SOL     OW41237   8.536   8.111   2.111  0.4258 -0.5743 -0.3716
12953SOL    HW141238   8.599   8.180   2.132  0.3883  0.0781 -2.2618
12953SOL    HW241239   8.586   8.030   2.117  0.7328 -0.3160  0.8213
12954SOL     OW41240  10.318   5.268   6.950 -0.0377  0.1369  0.1925
12954SOL    HW141241  10.402   5.263   6.903 -0.3558 -1.3859 -0.2815
12954SOL    HW241242  10.263   5.322   6.893  0.2823  0.2318 -0.0359
12955SOL     OW41243   5.313   5.195   3.752  0.2826 -0.7494  0.5964
12955SOL    HW141244   5.406   5.206   3.768  0.1575  2.9472 -0.2170
12955SOL    HW241245   5.272   5.270   3.796 -2.2047 -1.6883  0.0713
12956SOL     OW41246   4.774   0.455   0.440 -0.0621  0.6261  0.1290
12956SOL    HW141247   4.737   0.368   0.455  0.7763  0.5529  2.2307
12956SOL    HW241248   4.700   0.509   0.412 -0.4623 -0.8758 -1.9671
12957SOL     OW41249   1.990   7.140   8.557 -0.3942  1.0418 -0.1901
12957SOL    HW141250   1.930   7.077   8.598  0.8360 -0.5896 -0.8202
12957SOL    HW241251   2.074   7.095   8.555  0.5990  2.8416 -0.4014
12958SOL     OW41252   8.554   0.401   1.574  0.5432  0.2347  0.0779
12958SOL    HW141253   8.521   0.317   1.542 -0.1325 -0.0412  1.4273
12958SOL    HW241254   8.476   0.446   1.607  1.1686  0.5405  1.1986
12959SOL     OW41255   2.514   7.789   6.828 -0.2867 -0.3191 -0.4226
12959SOL    HW141256   2.496   7.700   6.857 -1.6928  0.1223  0.1053
12959SOL    HW241257   2.606   7.803   6.852 -0.1548 -1.4850 -0.1795
12960SOL     OW41258   5.672   5.243   9.412  0.0646 -0.0382 -0.5960
12960SOL    HW141259   5.678   5.242   9.317  1.4136  0.0094 -0.5340
12960SOL    HW241260   5.610   5.313   9.432 -0.9852 -0.6884 -1.4495
12961SOL     OW41261   5.188   7.633   4.429 -0.4953  0.2894  0.4089
12961SOL    HW141262   5.248   7.696   4.470  0.4243 -1.2174  1.4612
12961SOL    HW241263   5.110   7.685   4.408 -0.0166  1.6525  1.8006
12962SOL     OW41264   2.162   7.495   2.702  0.0412  0.0259 -0.2350
12962SOL    HW141265   2.235   7.556   2.701  0.6134 -0.6383 -0.1623
12962SOL    HW241266   2.117   7.509   2.618  2.3708 -2.0226 -1.9767
12963SOL     OW41267   5.920   2.357  10.319 -0.0834 -0.1367 -0.1283
12963SOL    HW141268   5.866   2.435  10.304  1.1776  1.3646  2.4558
12963SOL    HW241269   6.005   2.392  10.345  1.2637 -2.4336 -1.1422
12964SOL     OW41270  10.286   3.469  10.070 -0.4683  0.1915  0.2488
12964SOL    HW141271  10.281   3.437  10.160  0.8448  0.7317  0.5417
12964SOL    HW241272  10.254   3.559  10.075 -0.2662  0.2660  0.2081
12965SOL     OW41273   7.725   3.329   9.537  0.1981  0.0416  0.9614
12965SOL    HW141274   7.663   3.366   9.600  1.1818  0.7123  1.5609
12965SOL    HW241275   7.740   3.400   9.474  0.1246 -0.2269  0.6358
12966SOL     OW41276   1.008   6.486   1.955  0.1762  0.5204  0.3911
12966SOL    HW141277   0.946   6.417   1.932  0.3289  0.6086 -0.2897
12966SOL    HW241278   0.955   6.554   1.997 -0.0776  0.2921  0.4412
12967SOL     OW41279   7.088   6.947   0.316 -0.2210 -0.1186  0.1642
12967SOL    HW141280   7.018   6.882   0.318  0.8383 -1.5014 -2.6514
12967SOL    HW241281   7.138   6.932   0.396 -2.7530  0.5595  1.9683
12968SOL     OW41282   4.424   1.628  10.577  0.2931 -0.1234  0.8451
12968SOL    HW141283   4.379   1.703  10.618 -0.0519  0.3005 -0.2783
12968SOL    HW241284   4.358   1.589  10.520  1.3510  0.5971 -0.9662
12969SOL     OW41285   7.180   9.126   4.915  0.3608 -0.3961  0.3702
12969SOL    HW141286   7.230   9.065   4.969 -1.9900 -2.6319  0.2045
12969SOL    HW241287   7.207   9.212   4.946  2.9928 -1.4712  1.4055
12970SOL     OW41288   4.484   7.039   0.151 -0.3918 -0.3454 -0.1345
12970SOL    HW141289   4.476   7.134   0.162 -1.1227 -0.3205 -0.7558
12970SOL    HW241290   4.508   7.006   0.237  1.4600  0.5687 -0.2687
12971SOL     OW41291   4.920   5.043   7.865 -0.0639 -0.3296  0.5387
12971SOL    HW141292   4.898   4.999   7.947 -0.1820  0.3710  0.8884
12971SOL    HW241293   4.978   4.982   7.820 -0.8184 -1.1755  0.6772
12972SOL     OW41294   7.672   5.827  10.678 -0.4052 -0.4506  0.0704
12972SOL    HW141295   7.633   5.879  10.747 -0.5077  0.5378 -0.7050
12972SOL    HW241296   7.600   5.809  10.618 -0.1370 -0.5167 -0.2344
12973SOL     OW41297   2.151   3.639   6.159 -0.4558  0.1197  0.6675
12973SOL    HW141298   2.062   3.615   6.185 -1.4173  2.0412 -0.5517
12973SOL    HW241299   2.206   3.609   6.230 -2.1689 -0.4698  1.8149
12974SOL     OW41300   3.153   0.046   4.751  0.1622  0.3719  0.1833
12974SOL    HW141301   3.173   0.054   4.658  1.5124  2.9023  0.5886
12974SOL    HW241302   3.239   0.035   4.793 -0.4959 -1.7629  1.1252
12975SOL     OW41303   7.776   9.755   0.664 -0.3758  0.1400 -0.2495
12975SOL    HW141304   7.797   9.703   0.741 -1.9563 -1.1504 -0.6447
12975SOL    HW241305   7.711   9.818   0.694  0.8852  1.3557  0.0219
12976SOL     OW41306   0.734   0.625   4.971 -0.0268 -0.3164  0.7816
12976SOL    HW141307   0.685   0.606   5.051  0.2575 -0.8318  0.8365
12976SOL    HW241308   0.671   0.669   4.914  0.5348  3.0276  2.4400
12977SOL     OW41309   5.835   5.603   0.333  0.3302  0.3503 -0.1868
12977SOL    HW141310   5.910   5.662   0.341  0.5940  0.0781 -0.6783
12977SOL    HW241311   5.862   5.523   0.379  0.0749  0.5009  0.2390
12978SOL     OW41312   6.876   8.569   0.273 -0.1652 -0.0202 -0.0346
12978SOL    HW141313   6.876   8.589   0.179 -0.0710 -0.2368 -0.0825
12978SOL    HW241314   6.806   8.623   0.309 -0.7230 -0.5155 -0.3552
12979SOL     OW41315   1.273   9.089   7.746 -0.1179 -0.4608  0.5937
12979SOL    HW141316   1.334   9.139   7.691 -0.9012  0.2957  0.3827
12979SOL    HW241317   1.321   9.074   7.828  0.8328 -1.0646 -0.0636
12980SOL     OW41318   0.762   3.813   5.294 -0.0854  0.1997 -0.2243
12980SOL    HW141319   0.762   3.778   5.205  3.1930  3.1309 -1.5984
12980SOL    HW241320   0.854   3.830   5.314 -0.9395  2.4686  2.5303
12981SOL     OW41321   3.408   7.093   0.436  0.3255 -0.2421  0.2581
12981SOL    HW141322   3.423   7.186   0.453  0.1005 -0.3651  1.1818
12981SOL    HW241323   3.341   7.092   0.367  3.9289  0.3183 -3.6835
12982SOL     OW41324  10.766   6.701   0.232 -0.7117  0.2415  0.2776
12982SOL    HW141325  10.812   6.635   0.179 -0.8913  0.8215 -0.6141
12982SOL    HW241326  10.816   6.781   0.218 -1.7117  0.7685 -0.3121
12983SOL     OW41327   6.025   3.021   3.032 -0.1091  0.5232  0.3805
12983SOL    HW141328   5.938   2.983   3.020 -0.5267  1.0030  1.7187
12983SOL    HW241329   6.085   2.955   2.997 -0.9005 -0.6575  1.1889
12984SOL     OW41330   4.014   7.314   3.510 -0.1472 -0.1157 -0.2095
12984SOL    HW141331   4.038   7.406   3.516 -1.5571  0.2856 -0.2412
12984SOL    HW241332   3.999   7.298   3.417  2.7246 -1.1412 -0.5827
12985SOL     OW41333   3.902   9.449   8.100  1.0810  0.5520  0.2519
12985SOL    HW141334   3.994   9.465   8.079  1.3299  0.3860  1.1682
12985SOL    HW241335   3.903   9.427   8.193 -0.0189  1.7324  0.5729
12986SOL     OW41336   8.426   0.911   6.231  0.5411 -0.9245  0.0002
12986SOL    HW141337   8.511   0.917   6.275  0.5360 -1.4252  0.0917
12986SOL    HW241338   8.421   0.820   6.201 -0.0586 -0.9670  0.1996
12987SOL     OW41339   6.783  10.302   7.275 -0.5402 -0.0884  0.1083
12987SOL    HW141340   6.781  10.398   7.276 -0.4178 -0.0855  1.5090
12987SOL    HW241341   6.802  10.278   7.365  0.5874 -1.4194 -0.4525
12988SOL     OW41342   9.802   3.531   1.441  0.4893  0.2533 -0.3183
12988SOL    HW141343   9.778   3.445   1.406 -1.3945  1.5190 -2.4219
12988SOL    HW241344   9.744   3.544   1.516 -1.1474  0.7297 -1.6183
12989SOL     OW41345   8.654   4.205   1.757 -0.7869  0.5058  0.4937
12989SOL    HW141346   8.572   4.173   1.794 -0.8195  0.3180  0.2635
12989SOL    HW241347   8.634   4.293   1.726 -0.8534  0.5268  0.5958
12990SOL     OW41348   6.397   0.467   4.431  0.0748  0.7153 -0.2564
12990SOL    HW141349   6.320   0.499   4.384  0.7494  0.0424 -1.9187
12990SOL    HW241350   6.470   0.516   4.393  0.7943 -0.7983 -0.9153
12991SOL     OW41351   8.128  10.091   2.333  0.1905 -0.1358 -0.3881
12991SOL    HW141352   8.217  10.126   2.325  0.2057 -0.3598 -1.4696
12991SOL    HW241353   8.140  10.005   2.373  0.3333  0.3076  0.5546
12992SOL     OW41354   1.403   7.700   0.478 -0.1403 -0.1731 -0.0515
12992SOL    HW141355   1.362   7.716   0.393 -1.0167 -0.2695  0.3399
12992SOL    HW241356   1.410   7.605   0.484  0.3654 -0.1510 -0.2117
12993SOL     OW41357   0.553   2.529   5.156  0.1511  0.7438 -0.0476
12993SOL    HW141358   0.583   2.501   5.242  0.8374 -0.2680 -0.5848
12993SOL    HW241359   0.551   2.624   5.160 -0.4229  0.6932  1.2659
12994SOL     OW41360   4.696   0.301   5.084 -0.5232  0.3954  0.1429
12994SOL    HW141361   4.635   0.236   5.049 -0.2506  0.8772 -1.3194
12994SOL    HW241362   4.755   0.320   5.011  1.4131 -0.0611  1.5057
12995SOL     OW41363   0.443   8.651   5.765  0.0936 -0.0857  0.2903
12995SOL    HW141364   0.521   8.646   5.820  0.2224 -0.6083  0.0645
12995SOL    HW241365   0.376   8.689   5.822 -0.1698 -1.9078  1.2705
12996SOL     OW41366   9.553   1.355   4.708 -0.3318  0.5369  0.3330
12996SOL    HW141367   9.531   1.315   4.792  0.3018  1.2211  0.8430
12996SOL    HW241368   9.541   1.285   4.643  1.6442 -0.7912  1.2933
12997SOL     OW41369   8.002   2.032   5.850  0.3375 -0.3286  0.6372
12997SOL    HW141370   7.914   1.997   5.857  0.1196 -0.4385 -1.7704
12997SOL    HW241371   8.054   1.980   5.911 -0.6403 -2.5910 -0.3422
12998SOL     OW41372   5.349  10.252   3.943  0.7109 -0.2372  0.2953
12998SOL    HW141373   5.298  10.279   4.019  0.3204 -1.2494  0.4039
12998SOL    HW241374   5.356  10.331   3.889  1.2238  0.5742  1.4952
12999SOL     OW41375   8.575   6.440   0.020  0.5239  0.0724  0.2664
12999SOL    HW141376   8.551   6.479  -0.064 -1.3432  1.0902  1.2163
12999SOL    HW241377   8.667   6.464   0.032  0.5489  0.7101 -1.0476
13000SOL     OW41378   3.428   4.199   5.182  0.3075  0.5873 -0.4698
13000SOL    HW141379   3.499   4.230   5.238  0.8676 -0.4001 -0.5963
13000SOL    HW241380   3.431   4.255   5.105  0.9638  0.5453 -0.4787
13001SOL     OW41381   6.371   3.797   7.704  0.2087  0.2625 -0.4011
13001SOL    HW141382   6.451   3.758   7.740  1.1859  1.6004 -1.0278
13001SOL    HW241383   6.334   3.729   7.648 -0.8419 -1.5216  2.3125
13002SOL     OW41384  10.732   2.907   4.920  0.2625 -0.3151 -0.5696
13002SOL    HW141385  10.782   2.902   5.001 -1.7725 -3.9061  0.7228
13002SOL    HW241386  10.795   2.887   4.851  1.3900 -0.7358  0.5464
13003SOL     OW41387  10.756   1.681   6.162 -0.0265  0.1921  0.9915
13003SOL    HW141388  10.749   1.777   6.157  0.9240  0.2303 -0.0625
13003SOL    HW241389  10.787   1.664   6.251  0.1843  0.8929  1.0593
13004SOL     OW41390  10.108   0.335   6.988 -0.2406 -0.2711  0.3493
13004SOL    HW141391  10.120   0.372   6.901  1.6082  0.9113  1.0602
13004SOL    HW241392  10.038   0.388   7.027 -2.5322 -2.0867 -1.0333
13005SOL     OW41393   2.155   0.660   5.062  0.0091  0.4568  0.4174
13005SOL    HW141394   2.223   0.726   5.047 -0.0486  0.2730 -0.7229
13005SOL    HW241395   2.168   0.596   4.992 -0.6178 -0.1868  0.8746
13006SOL     OW41396   8.686   9.677   8.507 -0.1901  0.6394 -0.0726
13006SOL    HW141397   8.666   9.610   8.573  1.9154  0.6548  0.6620
13006SOL    HW241398   8.731   9.746   8.557 -1.9663  2.4838 -0.8667
13007SOL     OW41399   4.735   9.880   4.373  0.3534  0.9298  0.0516
13007SOL    HW141400   4.766   9.843   4.456 -1.5902 -1.0961 -0.0367
13007SOL    HW241401   4.722   9.973   4.392  0.9899  0.7134  1.7070
13008SOL     OW41402   6.277   0.650   7.460 -0.7112 -0.0884 -0.2249
13008SOL    HW141403   6.335   0.608   7.523 -0.9356 -1.8638 -1.1482
13008SOL    HW241404   6.312   0.739   7.452  1.5321 -0.8950 -0.2651
13009SOL     OW41405   4.380   9.864   2.971 -0.7268 -0.0824 -0.6092
13009SOL    HW141406   4.457   9.813   2.944 -1.4996 -1.1029 -0.9374
13009SOL    HW241407   4.396   9.885   3.063 -0.8756 -1.8755 -0.1372
13010SOL     OW41408   8.340   8.561   2.607 -0.2772 -0.3898 -0.3673
13010SOL    HW141409   8.412   8.623   2.619 -0.0462 -0.7659  0.2327
13010SOL    HW241410   8.312   8.574   2.517  0.2117  0.1123 -0.4533
13011SOL     OW41411   6.891   1.748   9.622  0.8069  0.4865  0.1257
13011SOL    HW141412   6.828   1.760   9.551  1.0871 -0.4960 -0.3117
13011SOL    HW241413   6.855   1.675   9.674  2.3832 -1.2882 -1.1214
13012SOL     OW41414   3.568   9.161   9.748  0.2059 -0.5492  0.8849
13012SOL    HW141415   3.647   9.157   9.803  0.2943  2.5079  1.1131
13012SOL    HW241416   3.589   9.225   9.680 -2.0273  0.1873  0.8285
13013SOL     OW41417   3.935   8.392  10.711  0.1222 -0.1390 -0.6051
13013SOL    HW141418   3.876   8.436  10.649 -1.1927 -1.3613 -0.2955
13013SOL    HW241419   3.992   8.461  10.744  0.4741  0.6676 -2.7135
13014SOL     OW41420   2.491   4.471   1.594  0.2050 -0.5296 -0.0073
13014SOL    HW141421   2.448   4.523   1.662 -0.0234 -0.8029  0.0610
13014SOL    HW241422   2.420   4.445   1.535  0.5670  0.7307 -1.0433
13015SOL     OW41423   2.054   8.609   9.153  0.1289 -0.0065 -0.4266
13015SOL    HW141424   2.091   8.685   9.109  0.3800 -0.9217 -1.8484
13015SOL    HW241425   2.055   8.632   9.246 -0.2647  1.9067 -0.8622
13016SOL     OW41426   7.901   4.854   1.795  0.0765 -0.0772 -0.1798
13016SOL    HW141427   7.822   4.818   1.755  0.0983  0.1617 -0.4428
13016SOL    HW241428   7.907   4.811   1.880  0.8447 -1.6849 -1.0181
13017SOL     OW41429  10.617   1.598   7.074  0.2166  0.6401 -0.2626
13017SOL    HW141430  10.620   1.656   6.998  0.5988  2.0979  0.8130
13017SOL    HW241431  10.704   1.557   7.076 -0.6074 -1.3322 -1.9912
13018SOL     OW41432   0.364   3.469  10.078 -0.2621 -0.0361  0.4370
13018SOL    HW141433   0.438   3.503  10.028 -0.4489  0.3987  0.4507
13018SOL    HW241434   0.364   3.375  10.060 -0.0908  0.0587 -0.0611
13019SOL     OW41435   5.108  10.011   7.167  0.0135 -0.1455 -0.3731
13019SOL    HW141436   5.162   9.931   7.162 -0.3808 -0.3993 -0.6117
13019SOL    HW241437   5.158  10.070   7.223 -0.2425 -1.0054  0.8059
13020SOL     OW41438   2.189  10.384   0.751 -0.1108 -0.4090  0.0858
13020SOL    HW141439   2.268  10.330   0.752  0.8102  0.8730 -0.8767
13020SOL    HW241440   2.146  10.364   0.834  1.1684 -1.2020  0.5941
13021SOL     OW41441   0.812   6.118   0.857 -0.5109 -0.0227  0.3373
13021SOL    HW141442   0.836   6.208   0.835 -0.2344 -0.2157 -0.1465
13021SOL    HW241443   0.834   6.110   0.950 -1.4386  0.7033  0.6371
13022SOL     OW41444   1.671   9.857   1.819 -0.2097  0.0837  0.3176
13022SOL    HW141445   1.663   9.817   1.732  1.1982 -0.6442  0.5065
13022SOL    HW241446   1.613   9.804   1.875 -2.5688  1.6558 -0.4754
13023SOL     OW41447   3.951   5.175   2.304  0.4380 -0.3841  0.3114
13023SOL    HW141448   3.996   5.178   2.388  1.9764  0.0695 -0.4887
13023SOL    HW241449   3.903   5.257   2.299  0.4474 -0.3548  0.6907
13024SOL     OW41450   1.208   6.527   5.884  0.0351  0.3573  0.7760
13024SOL    HW141451   1.179   6.471   5.812 -2.1988  0.3913  1.5628
13024SOL    HW241452   1.211   6.615   5.846 -1.3445  0.4080  0.7158
13025SOL     OW41453   7.230   8.890   7.390 -0.3617 -0.3850  0.1096
13025SOL    HW141454   7.212   8.979   7.420 -0.5591 -1.0395  2.0670
13025SOL    HW241455   7.147   8.844   7.402  0.0312 -1.0926  0.1383
13026SOL     OW41456   1.787   8.348   9.971 -0.1476 -0.0186  0.5633
13026SOL    HW141457   1.720   8.417   9.972 -0.4495 -0.3103  0.4851
13026SOL    HW241458   1.816   8.345   9.880  2.3521  2.3829  1.1541
13027SOL     OW41459   9.326   9.314   0.048  0.0548 -0.1027 -0.1322
13027SOL    HW141460   9.294   9.385  -0.008 -2.6391 -0.8771  0.2921
13027SOL    HW241461   9.320   9.350   0.137 -1.3869 -0.8347  0.0891
13028SOL     OW41462   6.322   8.007  10.274 -0.3837  0.2463 -1.0962
13028SOL    HW141463   6.334   7.917  10.306 -0.1875  0.3624 -0.8450
13028SOL    HW241464   6.402   8.026  10.225 -0.3498  0.3486 -1.0007
13029SOL     OW41465   5.857   7.791   2.540 -0.5447 -0.0078  0.1391
13029SOL    HW141466   5.773   7.795   2.586 -1.4546 -0.8111 -1.3680
13029SOL    HW241467   5.844   7.841   2.460  1.1170  1.6405  0.8041
13030SOL     OW41468   4.146   7.564   7.767 -0.3041 -0.4358  0.8033
13030SOL    HW141469   4.193   7.646   7.754 -0.3064 -0.3219  1.4745
13030SOL    HW241470   4.212   7.503   7.800 -0.4272 -0.5369  0.8648
13031SOL     OW41471   6.989   8.880   2.416 -0.1918  0.4609 -1.0957
13031SOL    HW141472   7.050   8.928   2.472 -1.2208  0.4303  0.0984
13031SOL    HW241473   6.976   8.937   2.340  0.1385  1.1618 -0.6375
13032SOL     OW41474   2.768   3.263   0.971  0.1424  0.2309 -0.5164
13032SOL    HW141475   2.822   3.256   0.892  0.2785  0.7299 -0.4763
13032SOL    HW241476   2.830   3.283   1.041  0.1547 -1.2535 -0.0741
13033SOL     OW41477   6.594  10.757   0.183 -0.0469 -0.2754 -0.2161
13033SOL    HW141478   6.644  10.828   0.223 -0.8473 -0.5876  1.4171
13033SOL    HW241479   6.545  10.798   0.112 -0.3518  0.7825  0.5893
13034SOL     OW41480   9.112   2.886   7.485  0.3457 -0.1767 -0.6773
13034SOL    HW141481   9.065   2.813   7.444 -0.7315  1.0123 -1.6523
13034SOL    HW241482   9.150   2.848   7.565 -0.7589 -1.6351 -0.7936
13035SOL     OW41483   2.464   8.947   0.448 -0.4463 -0.3702  0.6698
13035SOL    HW141484   2.405   9.007   0.494 -0.7653 -0.2589  0.1303
13035SOL    HW241485   2.424   8.936   0.361 -0.1910 -1.0635  0.6323
13036SOL     OW41486   1.881   3.251   0.502 -0.1098  0.1761  0.0001
13036SOL    HW141487   1.973   3.254   0.475  0.3163 -0.4160  1.2631
13036SOL    HW241488   1.866   3.159   0.524 -0.9300  0.3185  0.0584
13037SOL     OW41489   8.583   6.189   3.765 -0.2494 -0.1681  0.2656
13037SOL    HW141490   8.676   6.209   3.753 -0.2524  0.9176  1.7909
13037SOL    HW241491   8.582   6.111   3.821 -0.2666 -0.5394 -0.2456
13038SOL     OW41492   1.775   3.893   3.297 -0.1151 -0.1016  0.2827
13038SOL    HW141493   1.848   3.954   3.307 -0.9655  1.1864 -0.9853
13038SOL    HW241494   1.697   3.947   3.303 -1.0149 -1.4459  1.5432
13039SOL     OW41495   2.441   1.605   2.645 -0.2659 -0.1018  0.2174
13039SOL    HW141496   2.434   1.556   2.727  0.0536 -0.6618 -0.0818
13039SOL    HW241497   2.407   1.544   2.579  0.8908 -0.2348 -0.2728
13040SOL     OW41498   1.936   6.795   7.941  0.3581  0.3665 -0.5833
13040SOL    HW141499   1.960   6.875   7.988  1.0243 -0.0047 -0.2886
13040SOL    HW241500   1.898   6.827   7.859  1.1520  0.9821 -0.7255
13041SOL     OW41501   4.993   0.900   8.211 -0.3098  0.4399 -0.1940
13041SOL    HW141502   5.061   0.966   8.197  0.2726 -0.1629 -0.2599
13041SOL    HW241503   4.970   0.870   8.124 -1.0071  0.9738 -0.2036
13042SOL     OW41504   0.574   3.256   0.501 -0.5799 -0.2626  0.2136
13042SOL    HW141505   0.542   3.333   0.455 -1.5449 -1.8183 -1.9360
13042SOL    HW241506   0.498   3.223   0.549 -1.0473 -1.4166 -1.2206
13043SOL     OW41507   0.618   9.685   3.532  0.2370 -0.5374 -0.3829
13043SOL    HW141508   0.700   9.696   3.581 -2.4110  5.1061  3.9901
13043SOL    HW241509   0.616   9.761   3.472 -1.3913 -1.1433 -1.1615
13044SOL     OW41510   6.139   1.914   4.994 -0.2803  0.1974 -0.5146
13044SOL    HW141511   6.228   1.950   4.995  0.2155 -0.9901 -0.4909
13044SOL    HW241512   6.140   1.846   5.061 -1.1739  0.0860 -0.6049
13045SOL     OW41513   7.314   1.240   1.506  0.3802  0.3891 -0.1896
13045SOL    HW141514   7.346   1.231   1.416  1.3960  0.7326  0.1226
13045SOL    HW241515   7.219   1.243   1.497  0.4921  2.5051 -1.4759
13046SOL     OW41516   5.099   1.447   5.540  0.2887  0.0241 -0.7581
13046SOL    HW141517   5.024   1.424   5.485 -1.3329  0.7069  1.0502
13046SOL    HW241518   5.125   1.534   5.511 -0.1187  0.0954 -0.9116
13047SOL     OW41519  10.246   9.043   9.519  0.0347  0.4125 -0.1371
13047SOL    HW141520  10.194   9.102   9.464 -0.3882 -2.6610 -3.4247
13047SOL    HW241521  10.337   9.066   9.500 -0.1217  0.7474 -0.4893
13048SOL     OW41522   2.464   6.355   1.099 -0.3135  0.7396  0.0487
13048SOL    HW141523   2.404   6.358   1.174  0.2490  0.9014  0.4937
13048SOL    HW241524   2.414   6.396   1.028 -0.8337  0.6317  0.3411
13049SOL     OW41525   5.331   9.187   5.143  0.3651  0.3820 -0.1366
13049SOL    HW141526   5.330   9.207   5.236 -1.4636  2.1101 -0.4527
13049SOL    HW241527   5.302   9.096   5.138  0.7397  0.1846  0.9930
13050SOL     OW41528   5.798   9.188   0.450  0.6081 -0.5257  0.2494
13050SOL    HW141529   5.713   9.204   0.491 -0.0681  0.8636 -1.5720
13050SOL    HW241530   5.777   9.170   0.358  2.3582  1.2198 -0.5491
13051SOL     OW41531   3.828   7.560   5.461 -0.1633 -0.2305 -0.3319
13051SOL    HW141532   3.883   7.510   5.522 -0.9678 -1.2166 -0.3860
13051SOL    HW241533   3.818   7.501   5.386  0.6172  0.8712 -1.3313
13052SOL     OW41534   6.164   7.803   3.614 -0.8630  0.1122  0.4196
13052SOL    HW141535   6.118   7.842   3.689 -1.3960  0.6729 -0.1869
13052SOL    HW241536   6.108   7.732   3.585 -1.0885  0.4406  0.0297
13053SOL     OW41537   5.113   8.168   1.349 -0.7401  0.1524 -0.4188
13053SOL    HW141538   5.134   8.075   1.349 -0.0038  0.2934  0.4765
13053SOL    HW241539   5.075   8.185   1.263 -1.2730 -1.0534 -0.4394
13054SOL     OW41540   2.762   2.554   9.850  0.6502  0.0901 -0.1966
13054SOL    HW141541   2.797   2.474   9.889  0.8712 -0.5298 -1.6049
13054SOL    HW241542   2.790   2.551   9.758  2.5802  2.8630  0.1623
13055SOL     OW41543   5.232  10.068   0.406  0.0453 -0.0072 -0.3679
13055SOL    HW141544   5.269  10.062   0.318 -0.7370  2.7178 -0.9765
13055SOL    HW241545   5.289  10.130   0.452  0.2073 -1.0887  0.9583
13056SOL     OW41546   7.473   2.434   8.658  0.1507 -0.2960  0.6480
13056SOL    HW141547   7.491   2.390   8.741 -1.0299  0.8495  1.5398
13056SOL    HW241548   7.396   2.488   8.675  0.0627  0.1958 -1.1149
13057SOL     OW41549   5.604   6.486  10.625  0.9579  0.1108 -0.4597
13057SOL    HW141550   5.672   6.552  10.607 -1.6026  3.1336 -0.0300
13057SOL    HW241551   5.526   6.520  10.581 -0.5220 -2.8120 -0.3392
13058SOL     OW41552   8.295   1.939   1.969 -0.3707 -0.2083  0.2103
13058SOL    HW141553   8.200   1.942   1.970 -0.3607  1.1506  2.0648
13058SOL    HW241554   8.322   2.013   2.022  1.7135 -1.3227  0.8139
13059SOL     OW41555   6.120   9.865   1.865  0.0358 -0.3567  0.0928
13059SOL    HW141556   6.092   9.866   1.957 -0.6991  1.3545 -0.1079
13059SOL    HW241557   6.200   9.917   1.863 -0.5990  0.6354 -0.3939
13060SOL     OW41558   3.066   9.427   4.436  0.0915  0.6878  0.2772
13060SOL    HW141559   3.003   9.467   4.376  0.0519  0.8329  0.4172
13060SOL    HW241560   3.094   9.347   4.390  0.6741  1.2083 -0.3002
13061SOL     OW41561   5.719   1.162   2.607 -0.2452 -0.5869  0.1216
13061SOL    HW141562   5.807   1.199   2.605 -1.5260  2.7053 -0.7690
13061SOL    HW241563   5.724   1.086   2.548  1.7186  0.1952 -0.8181
13062SOL     OW41564   1.388   0.004   7.226  0.2642 -0.4676  0.4949
13062SOL    HW141565   1.471   0.036   7.262  0.6149 -0.7283 -0.0628
13062SOL    HW241566   1.321   0.055   7.271  0.7306 -0.2023  0.9028
13063SOL     OW41567   1.528  10.273   0.712 -0.4309  0.4004  0.2312
13063SOL    HW141568   1.486  10.331   0.648 -1.8474 -1.5006 -0.6765
13063SOL    HW241569   1.598  10.230   0.663  0.8428  1.4888  0.9937
13064SOL     OW41570   8.587   6.493   7.207  0.5937  0.3689 -0.0464
13064SOL    HW141571   8.601   6.399   7.192  0.3406  0.3542 -0.2119
13064SOL    HW241572   8.512   6.514   7.152  1.3907  0.9361 -0.9335
13065SOL     OW41573   2.473   9.309   0.929 -0.3640  0.4943  0.0360
13065SOL    HW141574   2.387   9.267   0.929 -0.2917  0.2746 -1.6752
13065SOL    HW241575   2.516   9.275   1.007 -1.9278  0.8665  1.1161
13066SOL     OW41576   2.284   9.735   9.942  0.2883  0.0126  0.1463
13066SOL    HW141577   2.294   9.775   9.855  0.2798  1.7234  0.8908
13066SOL    HW241578   2.373   9.735   9.978 -0.1388  2.3878  1.3819
13067SOL     OW41579   7.525   0.620   8.743  0.4095  0.2903  0.6460
13067SOL    HW141580   7.535   0.529   8.774  1.4830  0.9428  2.3830
13067SOL    HW241581   7.430   0.635   8.745  0.1547 -1.0208 -0.4177
13068SOL     OW41582   6.193  10.704   7.450  0.2875  0.1260 -0.4592
13068SOL    HW141583   6.258  10.769   7.422  0.1948 -0.7082 -2.8678
13068SOL    HW241584   6.245  10.631   7.483  0.4184  0.9109  1.1726
13069SOL     OW41585   9.916   0.671   8.885 -0.2194  0.4981 -0.5100
13069SOL    HW141586   9.916   0.585   8.926  3.3999  0.8586  0.5991
13069SOL    HW241587   9.861   0.661   8.807 -0.2605 -2.6647 -0.2019
13070SOL     OW41588   4.664   0.620   0.848 -0.1672 -0.1601 -0.1995
13070SOL    HW141589   4.750   0.614   0.807 -1.0883  0.9344 -2.4560
13070SOL    HW241590   4.682   0.651   0.937  1.8367 -1.4880 -0.0563
13071SOL     OW41591   6.437   0.029   0.436  0.2271  0.4258  0.0977
13071SOL    HW141592   6.491  -0.014   0.503 -0.3680 -0.7055 -0.1206
13071SOL    HW241593   6.443  -0.029   0.360 -1.0975  0.4133 -0.0105
13072SOL     OW41594   6.786   4.152   1.819 -0.1262 -0.0819  0.1869
13072SOL    HW141595   6.841   4.105   1.756 -0.7732 -0.9307  0.2288
13072SOL    HW241596   6.724   4.200   1.764 -1.2016 -1.4483  0.1437
13073SOL     OW41597   2.078   7.039   7.104  0.2887 -0.7300 -0.3145
13073SOL    HW141598   2.126   7.021   7.185  1.7160  0.3451 -0.8689
13073SOL    HW241599   2.129   6.996   7.036 -0.2663 -0.6704 -0.7742
13074SOL     OW41600   7.942   4.970   3.698 -0.0164  0.1031 -0.2321
13074SOL    HW141601   7.857   4.969   3.743 -0.1190 -1.3315 -0.4060
13074SOL    HW241602   7.924   4.934   3.611  0.1246  3.0878 -1.6214
13075SOL     OW41603   8.279  10.622   6.062 -0.0882 -0.0809  0.0677
13075SOL    HW141604   8.345  10.686   6.089 -0.7713  1.1149 -1.0305
13075SOL    HW241605   8.205  10.638   6.120  0.5616 -1.5073  1.3833
13076SOL     OW41606   6.813   7.980   0.824  0.0291 -0.2186 -0.5011
13076SOL    HW141607   6.867   7.982   0.745  0.7601  1.1267  0.0067
13076SOL    HW241608   6.739   7.924   0.800  1.0142 -1.1160 -1.6169
13077SOL     OW41609   5.055  10.361   9.429 -0.3480  0.3965 -0.2759
13077SOL    HW141610   4.980  10.408   9.394 -0.5696 -0.8286 -1.5434
13077SOL    HW241611   5.045  10.366   9.524 -1.5442  1.0122 -0.4214
13078SOL     OW41612   4.209   6.347   2.347 -0.0179 -0.3377 -0.1992
13078SOL    HW141613   4.225   6.253   2.360  0.1084 -0.3762 -0.6027
13078SOL    HW241614   4.283   6.390   2.390  0.0977 -0.4406 -0.2919
13079SOL     OW41615   0.599   3.321   5.503  0.5755 -0.3764  0.3074
13079SOL    HW141616   0.545   3.282   5.571  1.4715 -1.2301  0.5474
13079SOL    HW241617   0.630   3.403   5.541 -0.4892  0.1044  0.1836
13080SOL     OW41618   3.618   7.433   3.311  0.0634 -0.1174  0.0851
13080SOL    HW141619   3.687   7.373   3.337  1.1315  1.0781  0.1269
13080SOL    HW241620   3.573   7.388   3.239  1.9025 -0.3114 -1.0290
13081SOL     OW41621   4.495   1.494   5.798 -0.1313  0.0495 -0.2174
13081SOL    HW141622   4.461   1.488   5.887  0.6056 -0.0296  0.0706
13081SOL    HW241623   4.479   1.408   5.760  0.5376 -0.2730  0.2132
13082SOL     OW41624   4.346   1.519   9.680  0.1186 -0.3470 -0.5447
13082SOL    HW141625   4.412   1.492   9.616 -1.5362 -3.4905 -1.1076
13082SOL    HW241626   4.301   1.593   9.638  1.5906  0.1712 -1.2535
13083SOL     OW41627   4.355   1.279   4.755 -0.8074 -0.1691  0.0457
13083SOL    HW141628   4.294   1.298   4.684 -0.9880  0.1941  0.2928
13083SOL    HW241629   4.441   1.271   4.712 -0.7625  0.9556 -0.1150
13084SOL     OW41630   3.894   0.425  10.522  0.4235 -0.3915 -0.4768
13084SOL    HW141631   3.890   0.386  10.609  0.1752 -0.8092 -0.6734
13084SOL    HW241632   3.912   0.518  10.538  2.2344 -0.7794 -0.0421
13085SOL     OW41633   9.288   8.938   5.357  0.0197 -0.2969 -0.3853
13085SOL    HW141634   9.276   9.012   5.416  0.2394 -0.1986 -0.4648
13085SOL    HW241635   9.329   8.870   5.412  2.6334  0.6687 -1.0278
13086SOL     OW41636   0.746   3.756   5.949  0.4927 -0.1724  0.6212
13086SOL    HW141637   0.699   3.753   5.866  2.3171  0.1852 -0.4935
13086SOL    HW241638   0.838   3.746   5.925  1.0175 -1.0129  2.7024
13087SOL     OW41639   9.027   9.231   4.587 -0.3983 -0.2974  0.1910
13087SOL    HW141640   8.968   9.283   4.641 -0.2096  0.2779 -0.1493
13087SOL    HW241641   8.993   9.141   4.594 -2.1311  0.1983 -1.0190
13088SOL     OW41642   2.138   1.132   7.875  0.3223 -0.3453 -0.5101
13088SOL    HW141643   2.185   1.132   7.791 -0.6030 -0.5988 -1.0475
13088SOL    HW241644   2.144   1.042   7.906  1.9153  0.0571  0.4420
13089SOL     OW41645   3.168   6.231   0.700 -0.1061  0.3516 -0.0076
13089SOL    HW141646   3.234   6.287   0.739 -0.4437  0.6746  0.1075
13089SOL    HW241647   3.217   6.161   0.658  0.2926  0.3932  0.3816
13090SOL     OW41648   5.457   2.361   6.005  0.0209  0.0475  0.8630
13090SOL    HW141649   5.395   2.346   5.934  0.1302  1.0585  0.5368
13090SOL    HW241650   5.538   2.388   5.961  0.4681 -0.5125  1.3189
13091SOL     OW41651   4.397   0.874   8.821 -0.2864 -0.3677  0.2914
13091SOL    HW141652   4.487   0.900   8.836  0.3659 -1.3033 -1.7008
13091SOL    HW241653   4.345   0.952   8.841  1.3073  1.4695 -2.2459
13092SOL     OW41654   9.843   3.141   7.063 -0.3553 -0.4442  0.4925
13092SOL    HW141655   9.830   3.093   6.981 -1.1422  1.7823 -0.7683
13092SOL    HW241656   9.926   3.187   7.050 -0.7273  0.3046  0.7354
13093SOL     OW41657   4.431   8.615   0.398  0.1340 -0.2552  0.0087
13093SOL    HW141658   4.349   8.630   0.350 -0.7703 -2.5208  0.7017
13093SOL    HW241659   4.403   8.597   0.488  1.2147 -2.4119 -0.0247
13094SOL     OW41660   5.932   2.441   6.685  0.2220 -0.6070 -0.4577
13094SOL    HW141661   6.023   2.443   6.713  0.2600  1.6004 -0.5439
13094SOL    HW241662   5.932   2.485   6.600 -0.8240 -1.3660 -0.8773
13095SOL     OW41663   9.567   8.965   6.285 -0.4459  0.3222  0.1729
13095SOL    HW141664   9.589   8.874   6.264  0.5877  0.9587 -1.7876
13095SOL    HW241665   9.524   8.960   6.370 -1.6199 -2.1422 -0.4630
13096SOL     OW41666   7.908   1.909   5.087  0.2678  0.2110 -0.3176
13096SOL    HW141667   7.842   1.892   5.020  0.8600  2.5872 -1.6042
13096SOL    HW241668   7.857   1.937   5.164 -0.3582 -1.5872 -0.0429
13097SOL     OW41669   8.053   9.844   6.351 -0.3364 -0.1588  0.0365
13097SOL    HW141670   8.108   9.769   6.376 -1.1036 -0.2295  1.6060
13097SOL    HW241671   8.047   9.837   6.256 -1.0691 -2.6007  0.1860
13098SOL     OW41672   5.680  10.616   7.292  0.2051  0.3370  0.5953
13098SOL    HW141673   5.641  10.533   7.319  1.4049 -0.2621  0.5532
13098SOL    HW241674   5.631  10.641   7.213  0.8817 -1.1690 -0.3381
13099SOL     OW41675   5.858   5.329   4.337  0.9062  0.0859  0.4357
13099SOL    HW141676   5.785   5.374   4.296  1.4459  0.2650 -0.3429
13099SOL    HW241677   5.921   5.398   4.357  0.5049  0.0616  1.9322
13100SOL     OW41678   4.514   4.730   9.810  0.2610 -0.4520  0.2057
13100SOL    HW141679   4.532   4.641   9.778  2.3604  0.6496 -1.9934
13100SOL    HW241680   4.595   4.756   9.853  0.1192  0.7991 -0.2526
13101SOL     OW41681   4.974   0.849   1.387  0.1681 -0.1282  0.1658
13101SOL    HW141682   4.969   0.877   1.479  0.4227 -2.1005  0.8358
13101SOL    HW241683   4.885   0.822   1.366  0.2979 -0.5606  0.1558
13102SOL     OW41684   2.447   2.754   6.779 -0.2785  0.1975 -0.1248
13102SOL    HW141685   2.473   2.756   6.872  0.2219 -0.5292 -0.2431
13102SOL    HW241686   2.484   2.673   6.745 -0.5827  0.3860 -0.9355
13103SOL     OW41687   0.665  10.051   6.320  0.7432 -0.4105  0.3609
13103SOL    HW141688   0.708   9.966   6.326  0.7630 -0.6109 -1.8281
13103SOL    HW241689   0.705  10.093   6.244  0.1458  1.2304  0.8963
13104SOL     OW41690   5.569   5.812   6.953 -0.1231  0.1186 -0.2376
13104SOL    HW141691   5.595   5.779   6.867 -0.8703 -0.4304 -0.2622
13104SOL    HW241692   5.512   5.744   6.988  0.3775  0.2140  0.8111
13105SOL     OW41693   1.014   1.419   0.509  0.3357  0.1016  0.0950
13105SOL    HW141694   1.092   1.447   0.557  0.8960 -0.9894 -0.1458
13105SOL    HW241695   1.048   1.371   0.434 -0.5671 -1.0277  0.3749
13106SOL     OW41696   6.332   1.968   7.206  0.7906 -0.0635  0.0399
13106SOL    HW141697   6.381   2.051   7.202  1.0942 -0.1766  1.0567
13106SOL    HW241698   6.397   1.903   7.234  0.6397 -0.7241 -1.1056
13107SOL     OW41699   8.843   3.831   0.088  0.5016  0.6902  0.4111
13107SOL    HW141700   8.775   3.799   0.148  0.1311  0.0283 -0.3324
13107SOL    HW241701   8.797   3.843   0.005  1.2377  0.5286 -0.0231
13108SOL     OW41702   0.024   9.379   5.243 -0.0152 -0.3355  0.3867
13108SOL    HW141703  -0.064   9.348   5.264 -0.4896  0.8149  0.1868
13108SOL    HW241704   0.017   9.413   5.153  1.5305 -3.4855 -1.0774
13109SOL     OW41705   6.385   7.001   8.453  0.6679 -0.0841 -0.4700
13109SOL    HW141706   6.364   7.059   8.526 -0.2902 -1.3692  0.3159
13109SOL    HW241707   6.310   7.008   8.394  1.5216  1.0993 -1.4934
13110SOL     OW41708   5.176   5.325   7.840  0.1650 -0.4343  0.6058
13110SOL    HW141709   5.199   5.282   7.758  1.3753 -1.1530  1.2925
13110SOL    HW241710   5.201   5.416   7.827 -2.1497  0.0946 -0.7536
13111SOL     OW41711   6.099   4.740  10.706  0.3893  0.8155  0.0742
13111SOL    HW141712   6.027   4.791  10.669 -0.8283  0.9307  2.4524
13111SOL    HW241713   6.058   4.661  10.740  1.5906  0.3043  0.4176
13112SOL     OW41714   0.055  10.408   5.251 -0.0720  0.0261  0.9337
13112SOL    HW141715   0.093  10.410   5.339 -0.6775  0.1998  1.2009
13112SOL    HW241716   0.087  10.488   5.209 -0.6480  0.5090  1.3829
13113SOL     OW41717   0.231   9.929   2.917  0.2730  0.4543 -0.0260
13113SOL    HW141718   0.211   9.866   2.848 -1.2533  0.9209 -0.0479
13113SOL    HW241719   0.265   9.877   2.989 -0.2878 -0.3135 -0.3067
13114SOL     OW41720   7.873  10.147   0.985  0.2521 -0.0611  0.2300
13114SOL    HW141721   7.852  10.055   0.974  1.4191 -0.3612  0.3989
13114SOL    HW241722   7.796  10.184   1.030 -0.0354 -1.0380  0.5683
13115SOL     OW41723   2.046   5.805   3.169  0.2073  0.4270 -0.1763
13115SOL    HW141724   2.080   5.880   3.119  0.0304  0.5500 -0.1130
13115SOL    HW241725   2.115   5.739   3.162 -0.5821 -0.2540 -2.1619
13116SOL     OW41726   3.104   4.487   0.346 -0.3493 -0.0268 -0.8382
13116SOL    HW141727   3.196   4.480   0.373 -0.4378 -0.1858 -0.5724
13116SOL    HW241728   3.086   4.581   0.346 -0.7028 -0.0766  0.8780
13117SOL     OW41729   2.154   3.504   6.585 -0.1268  0.1406 -0.1400
13117SOL    HW141730   2.189   3.497   6.496  0.3264  0.7550 -0.0129
13117SOL    HW241731   2.231   3.507   6.642 -0.3494 -3.2165  0.5754
13118SOL     OW41732   9.072   4.141   3.637 -0.3430 -0.1856  0.0623
13118SOL    HW141733   9.042   4.066   3.687  0.1768  0.6262  1.6506
13118SOL    HW241734   9.160   4.117   3.607 -0.9669 -0.9934 -1.2210
13119SOL     OW41735   1.896   3.609   6.251 -0.0553 -0.1726  0.4479
13119SOL    HW141736   1.824   3.667   6.273 -0.3752 -0.9147  1.4687
13119SOL    HW241737   1.878   3.529   6.300  0.8392 -0.8066 -0.2163
13120SOL     OW41738   7.432   7.025   5.501  0.2812 -0.2614 -0.0095
13120SOL    HW141739   7.442   6.995   5.411  3.4574  1.4463 -0.3628
13120SOL    HW241740   7.350   7.074   5.502  0.8159  0.7921 -2.3326
13121SOL     OW41741   1.579   4.712  10.663  0.2874 -0.4286 -0.4151
13121SOL    HW141742   1.639   4.686  10.733 -1.4775 -0.5157  1.1566
13121SOL    HW241743   1.498   4.666  10.683 -0.7765  0.8385 -1.5812
13122SOL     OW41744   8.530   2.507  10.649  0.5803  0.0675 -0.2627
13122SOL    HW141745   8.525   2.478  10.558  0.9076  1.6303 -0.8079
13122SOL    HW241746   8.558   2.598  10.643 -0.6258  0.5820  1.3447
13123SOL     OW41747  10.772   5.167   1.364 -0.0481  0.0584 -0.2896
13123SOL    HW141748  10.735   5.107   1.429  0.2755  0.4991  0.3118
13123SOL    HW241749  10.712   5.161   1.290 -0.3057 -0.6139 -0.0391
13124SOL     OW41750   5.901   5.478   3.220  0.3079  0.5728 -0.8009
13124SOL    HW141751   5.828   5.462   3.279 -0.0128 -5.0970 -2.0976
13124SOL    HW241752   5.862   5.521   3.144 -1.4497 -0.8789 -0.7868
13125SOL     OW41753   5.790   8.902   4.811 -0.0856  0.0398  0.6247
13125SOL    HW141754   5.739   8.972   4.852 -0.0522 -1.0490  2.6634
13125SOL    HW241755   5.865   8.947   4.771 -0.1962  1.1998  1.6613
13126SOL     OW41756   0.373   7.810   1.730 -0.1399  0.0550 -0.0553
13126SOL    HW141757   0.410   7.754   1.662  0.1460 -0.7786  0.7563
13126SOL    HW241758   0.424   7.891   1.726  0.4075 -0.3003 -0.2991
13127SOL     OW41759   6.557   1.996   5.175 -0.0416 -0.3371  0.4110
13127SOL    HW141760   6.619   2.053   5.128 -0.9918  0.8970  0.5908
13127SOL    HW241761   6.573   2.015   5.267 -0.0623 -0.7021  0.4908
13128SOL     OW41762   1.068   5.446   0.974 -0.2267  0.4900 -0.0884
13128SOL    HW141763   0.977   5.421   0.959 -0.5285 -0.0592  2.2517
13128SOL    HW241764   1.119   5.376   0.933 -0.8905  0.1267 -0.3107
13129SOL     OW41765   0.421   6.609   0.738  0.0883 -0.1478  0.1766
13129SOL    HW141766   0.458   6.521   0.728 -1.6768 -0.8092 -0.8567
13129SOL    HW241767   0.428   6.648   0.651 -0.8961  0.0146  0.1646
13130SOL     OW41768   5.178   2.849   0.650 -0.4382  0.4007  0.5029
13130SOL    HW141769   5.238   2.801   0.706 -0.6033 -0.5636 -0.1227
13130SOL    HW241770   5.137   2.913   0.708 -0.3768 -0.3627  1.4121
13131SOL     OW41771   6.605   9.567   6.413 -0.3254 -0.2059  0.2036
13131SOL    HW141772   6.662   9.563   6.489  1.0132 -0.6587 -0.7837
13131SOL    HW241773   6.590   9.475   6.389  0.8772 -0.0766 -1.1956
13132SOL     OW41774   2.887   3.438   8.179  0.7356 -0.3189  0.1752
13132SOL    HW141775   2.860   3.416   8.090  2.1652 -0.3341 -0.2659
13132SOL    HW241776   2.980   3.417   8.183  1.4636  2.5108  0.7247
13133SOL     OW41777   9.276   0.251   6.654  0.3803 -0.0886  0.0325
13133SOL    HW141778   9.337   0.188   6.616 -0.5081 -1.1528  0.3155
13133SOL    HW241779   9.320   0.281   6.734  0.7940 -0.3713 -0.0832
13134SOL     OW41780   1.934   5.860   1.461 -0.6980 -0.5882  0.0966
13134SOL    HW141781   1.978   5.781   1.491 -0.9186 -0.6789  0.1796
13134SOL    HW241782   2.003   5.926   1.458 -0.3961 -0.9229 -0.5054
13135SOL     OW41783   3.496   6.499   6.772  0.2613  0.7323  0.6316
13135SOL    HW141784   3.586   6.528   6.789 -0.4938  2.4974  1.9445
13135SOL    HW241785   3.453   6.502   6.857 -1.1561  0.2821 -0.0384
13136SOL     OW41786   1.244   3.878   8.929 -0.1336  0.2490  0.0800
13136SOL    HW141787   1.223   3.800   8.877  1.0948  0.6617 -1.0792
13136SOL    HW241788   1.335   3.863   8.958 -0.5947  0.2950  1.6613
13137SOL     OW41789   7.891   1.246   4.363 -0.2687 -0.0298  0.4659
13137SOL    HW141790   7.842   1.302   4.423  1.3369 -0.5091  2.3589
13137SOL    HW241791   7.865   1.157   4.387  0.1270 -0.2135  0.2196
13138SOL     OW41792   0.880   3.976   6.859  0.7616  0.0390  0.3882
13138SOL    HW141793   0.942   3.983   6.932  1.1562 -0.3472  0.0956
13138SOL    HW241794   0.805   4.029   6.886  1.3994  0.8729  0.5639
13139SOL     OW41795   5.400   0.324   8.666  0.4612  0.3519  0.1432
13139SOL    HW141796   5.437   0.252   8.615 -1.4169 -1.7925  1.6163
13139SOL    HW241797   5.360   0.282   8.742 -2.3853  2.7609  0.1513
13140SOL     OW41798   4.556   3.351   4.267 -0.3152 -0.3197 -0.7129
13140SOL    HW141799   4.526   3.289   4.201 -0.7405  0.1828 -1.0050
13140SOL    HW241800   4.489   3.420   4.266  0.4362  0.4162 -0.7990
13141SOL     OW41801   8.302   9.104   5.837 -0.4602 -0.4289 -0.8099
13141SOL    HW141802   8.217   9.125   5.797 -0.3400 -0.1421 -0.9180
13141SOL    HW241803   8.290   9.123   5.930 -0.8912 -1.5621 -0.6189
13142SOL     OW41804   3.698  10.770   2.450  0.0216 -0.5700  0.1518
13142SOL    HW141805   3.651  10.693   2.418 -0.1998  0.2844 -1.6720
13142SOL    HW241806   3.751  10.799   2.376 -0.8438  1.7462  0.3469
13143SOL     OW41807   2.897  10.024   5.226 -0.0955 -0.0069 -0.2314
13143SOL    HW141808   2.938   9.990   5.146  0.5833  1.8505 -0.7286
13143SOL    HW241809   2.883  10.117   5.208 -0.4142  0.3431  1.6315
13144SOL     OW41810   5.618   4.877   6.069 -0.5125 -0.0160  0.0655
13144SOL    HW141811   5.586   4.791   6.096  0.0994 -0.4545 -0.5919
13144SOL    HW241812   5.556   4.905   6.001  0.1550 -0.6146 -0.8022
13145SOL     OW41813   6.088   8.728   4.572  0.8154  0.0946 -0.3342
13145SOL    HW141814   6.067   8.821   4.582  2.5002  0.4391  0.5157
13145SOL    HW241815   6.181   8.722   4.596  0.4214 -2.0124  0.9492
13146SOL     OW41816   3.371   5.224   4.190  0.2029  0.1729 -0.1196
13146SOL    HW141817   3.304   5.167   4.153 -1.0737  0.1025  2.1282
13146SOL    HW241818   3.406   5.175   4.264  3.6882 -0.3041 -1.8455
13147SOL     OW41819   9.548   8.775   5.889 -0.9789 -0.0104 -0.2233
13147SOL    HW141820   9.526   8.689   5.927  1.0631  0.4840  2.3650
13147SOL    HW241821   9.609   8.813   5.951 -0.2876  2.5423 -2.3128
13148SOL     OW41822   0.334   1.751   5.675 -0.5678  0.9514 -0.4421
13148SOL    HW141823   0.310   1.692   5.747  2.8231  0.8391  0.7430
13148SOL    HW241824   0.362   1.692   5.604  1.2140  1.0366  0.1431
13149SOL     OW41825   9.190   6.031   4.901  0.7142  0.0184 -0.6933
13149SOL    HW141826   9.223   5.947   4.935  1.2853  0.6074  0.2668
13149SOL    HW241827   9.097   6.030   4.922  0.6194 -0.5619 -1.1023
13150SOL     OW41828   3.731   9.396   7.576 -0.0476 -0.1129 -0.5389
13150SOL    HW141829   3.706   9.482   7.542  1.2452  0.4506 -0.1206
13150SOL    HW241830   3.756   9.413   7.667  0.3739 -0.9032 -0.5018
13151SOL     OW41831  10.025   3.036   7.282  0.0304 -0.0456 -0.2006
13151SOL    HW141832   9.987   2.976   7.346  0.5589  0.7911  0.9218
13151SOL    HW241833   9.953   3.052   7.220 -1.5693  1.5782  1.9249
13152SOL     OW41834   5.262   1.575   0.670  0.1534  0.9807  0.0032
13152SOL    HW141835   5.337   1.516   0.670 -0.6355 -0.0414  0.2254
13152SOL    HW241836   5.256   1.605   0.579  1.1177  1.4631  0.0871
13153SOL     OW41837   9.407   8.030   0.146  0.0109 -0.3449 -0.3783
13153SOL    HW141838   9.451   7.985   0.074 -1.1443 -0.5454 -0.9812
13153SOL    HW241839   9.445   8.118   0.147  1.2414 -0.8684 -0.1261
13154SOL     OW41840   1.527   6.056   4.249  0.3977 -0.1621  0.2457
13154SOL    HW141841   1.576   6.072   4.330 -1.2249  2.3510  0.8330
13154SOL    HW241842   1.466   5.986   4.272  0.8629 -0.4094  0.7650
13155SOL     OW41843   7.442   4.578   1.782 -0.7150 -0.0873  0.1523
13155SOL    HW141844   7.358   4.550   1.746 -0.5851 -1.1564  0.6317
13155SOL    HW241845   7.439   4.550   1.873 -0.0513  0.3427  0.3101
13156SOL     OW41846   4.509   8.531   8.018 -0.4134  0.3024 -0.5433
13156SOL    HW141847   4.499   8.529   7.923 -0.6503  0.7345 -0.5286
13156SOL    HW241848   4.420   8.532   8.052 -0.3532  1.9953 -0.3647
13157SOL     OW41849   9.177   0.755   8.082  0.4839 -0.5208 -0.0202
13157SOL    HW141850   9.222   0.703   8.016 -0.2815  1.1406 -1.9530
13157SOL    HW241851   9.134   0.690   8.138  0.7749 -1.9995 -1.4289
13158SOL     OW41852   8.738   4.385   5.190 -0.4097  0.6633 -0.2087
13158SOL    HW141853   8.822   4.428   5.204  1.1138 -1.8771 -0.9398
13158SOL    HW241854   8.712   4.354   5.277  0.0695  0.3352 -0.1814
13159SOL     OW41855   2.620   4.644   8.590 -0.2627 -0.7800  0.2829
13159SOL    HW141856   2.610   4.606   8.502 -1.7064 -0.6212  0.3489
13159SOL    HW241857   2.567   4.724   8.587  1.0280  0.1327  0.8005
13160SOL     OW41858  10.588   1.677  10.530 -0.1401 -0.0043  0.1575
13160SOL    HW141859  10.662   1.703  10.585  0.0372  1.0253 -0.5469
13160SOL    HW241860  10.596   1.582  10.523  0.3973 -0.0432  1.0959
13161SOL     OW41861   2.525   7.641  10.409 -0.4428  0.0617  0.5561
13161SOL    HW141862   2.575   7.564  10.382  0.8995  0.2925  2.1938
13161SOL    HW241863   2.506   7.625  10.501 -0.4130  1.5432  0.8344
13162SOL     OW41864   3.127   4.803   7.649 -0.7587  0.1369  0.3805
13162SOL    HW141865   3.213   4.785   7.688 -0.0776  0.7693 -0.7638
13162SOL    HW241866   3.124   4.899   7.643 -1.1292  0.0798 -0.4685
13163SOL     OW41867   4.763   8.111   8.851 -0.3932  0.1087  0.2892
13163SOL    HW141868   4.749   8.127   8.758 -0.8471  0.6491  0.4453
13163SOL    HW241869   4.783   8.017   8.857  2.0448  0.4893 -0.6258
13164SOL     OW41870   9.961   0.181   9.122  0.0138  0.1924 -0.5063
13164SOL    HW141871   9.871   0.154   9.144  0.0335 -0.7973 -1.5582
13164SOL    HW241872   9.951   0.235   9.044  0.3555 -0.0833 -0.7423
13165SOL     OW41873   0.375   1.516   7.785 -0.3199  0.7344  0.0587
13165SOL    HW141874   0.313   1.490   7.718 -0.4050  1.7618 -0.2736
13165SOL    HW241875   0.454   1.541   7.736  0.2291 -0.1733  0.4509
13166SOL     OW41876   9.740   9.369   9.224 -0.0322  0.3556  0.1731
13166SOL    HW141877   9.674   9.371   9.155  1.3641 -0.8246 -1.3028
13166SOL    HW241878   9.812   9.319   9.185  1.0905  0.2582  2.2697
13167SOL     OW41879   2.088   0.326   6.498  0.0893  0.1433 -0.0311
13167SOL    HW141880   2.103   0.398   6.436 -1.7070 -0.1128 -0.8191
13167SOL    HW241881   2.163   0.268   6.485 -0.4704 -0.1663 -2.3885
13168SOL     OW41882   5.198   8.096   2.937 -0.1369 -0.1798  0.0142
13168SOL    HW141883   5.249   8.067   3.012 -1.8131  0.3437  1.4349
13168SOL    HW241884   5.213   8.191   2.934 -0.4850 -0.1234  0.0257
13169SOL     OW41885   0.114   4.977   8.119 -0.4808 -0.0334  0.2118
13169SOL    HW141886   0.160   4.926   8.186 -0.1302  0.2454  0.1827
13169SOL    HW241887   0.166   5.056   8.109 -0.0381 -0.4571 -1.0263
13170SOL     OW41888   4.620   4.132   0.084 -0.4072 -0.6665 -0.2496
13170SOL    HW141889   4.645   4.053   0.036  0.9904 -0.6554  0.3995
13170SOL    HW241890   4.633   4.204   0.022  0.1678 -0.7757 -0.2629
13171SOL     OW41891   7.151   7.638   6.581  0.3037 -0.7379  0.3529
13171SOL    HW141892   7.209   7.640   6.505 -0.2372 -0.3712 -0.0632
13171SOL    HW241893   7.073   7.685   6.552  0.6171  0.6123  1.5810
13172SOL     OW41894  10.184  10.395   5.526  0.2773  0.6733  0.3000
13172SOL    HW141895  10.114  10.412   5.589 -0.6219  0.0529 -0.4989
13172SOL    HW241896  10.208  10.304   5.539  0.1070  0.5482 -0.2163
13173SOL     OW41897   3.330   6.043   9.506  0.2456 -0.7057  0.2081
13173SOL    HW141898   3.250   6.081   9.543 -0.1262  0.0616 -1.3263
13173SOL    HW241899   3.373   6.115   9.462  0.2815 -1.7141 -1.5132
13174SOL     OW41900   7.975   0.731   7.316  0.2732 -0.0602 -0.2904
13174SOL    HW141901   8.029   0.795   7.362 -0.4926 -1.1541  2.3030
13174SOL    HW241902   8.032   0.655   7.304  0.4820  0.2356 -1.2273
13175SOL     OW41903   7.260   1.780   1.079 -0.0777 -0.1062  0.2241
13175SOL    HW141904   7.312   1.859   1.096 -1.5521  1.0414 -0.3671
13175SOL    HW241905   7.294   1.716   1.141 -0.0064  1.5398  1.9857
13176SOL     OW41906   8.093   8.652   6.492 -0.1054 -0.6375 -0.5486
13176SOL    HW141907   8.166   8.616   6.442  1.1653  0.2705  0.5924
13176SOL    HW241908   8.124   8.737   6.522 -1.2465 -0.6840  0.8505
13177SOL     OW41909   9.638   5.737  10.529  0.1028  0.1203 -0.1859
13177SOL    HW141910   9.611   5.823  10.496  1.0647  0.6347  0.3272
13177SOL    HW241911   9.556   5.695  10.556 -0.5443  0.2828 -1.7747
13178SOL     OW41912   7.444   0.656   1.874 -0.2354  0.4262 -0.0352
13178SOL    HW141913   7.472   0.596   1.943 -0.2042  1.3167  0.7452
13178SOL    HW241914   7.385   0.717   1.918  0.0734  1.2283 -0.7098
13179SOL     OW41915  10.197   2.381   9.247  0.2650 -0.2703 -0.0747
13179SOL    HW141916  10.145   2.445   9.296  0.0192 -0.1279 -0.5137
13179SOL    HW241917  10.271   2.362   9.304  0.4056  0.4990  0.0152
13180SOL     OW41918   7.004   1.368   7.015 -0.0636  0.6059 -0.3156
13180SOL    HW141919   6.958   1.452   7.013  1.8716  1.7782  0.9080
13180SOL    HW241920   7.060   1.369   6.936  1.2960  1.3402  0.6113
13181SOL     OW41921   5.556   8.894   7.903 -0.0935  0.9803  0.1318
13181SOL    HW141922   5.492   8.905   7.833 -1.0737 -1.3890  0.5758
13181SOL    HW241923   5.614   8.824   7.871 -0.0029  0.5109  1.2771
13182SOL     OW41924   7.495   3.820   3.040 -0.6557 -0.3419  0.5375
13182SOL    HW141925   7.552   3.750   3.073  0.3093  0.0548 -0.2371
13182SOL    HW241926   7.553   3.876   2.989 -1.3571  1.1875  1.3490
13183SOL     OW41927   4.173   4.006   1.370 -0.0255  0.0049  0.0051
13183SOL    HW141928   4.167   4.018   1.276  0.9979  2.3136  0.1610
13183SOL    HW241929   4.084   3.984   1.398 -0.3936 -0.4056 -1.4587
13184SOL     OW41930   7.921   4.007   0.591 -0.2998  0.2074  0.3432
13184SOL    HW141931   7.920   3.930   0.648  0.4434 -0.8273 -0.9867
13184SOL    HW241932   7.828   4.024   0.573 -0.5120  0.1380  1.2799
13185SOL     OW41933   7.701   6.645   1.702 -0.1565 -0.3820  0.1759
13185SOL    HW141934   7.657   6.636   1.617 -1.9862  0.6705  0.9585
13185SOL    HW241935   7.694   6.738   1.722  0.1463 -0.6419  1.5521
13186SOL     OW41936   0.011   1.239   2.651  0.6231 -0.0059  0.3913
13186SOL    HW141937   0.031   1.150   2.623 -0.5781  0.0420 -0.6580
13186SOL    HW241938  -0.015   1.285   2.571  2.1066  1.5670  0.7326
13187SOL     OW41939   6.554   2.063   2.750 -0.3091 -0.2122 -0.5618
13187SOL    HW141940   6.519   2.015   2.675 -0.2709  0.8426 -1.2820
13187SOL    HW241941   6.485   2.057   2.816 -0.8781 -0.0952 -1.1371
13188SOL     OW41942   2.489   8.378   6.485 -0.4112  0.8149  0.4594
13188SOL    HW141943   2.536   8.461   6.496 -1.2615  1.4361 -0.4484
13188SOL    HW241944   2.398   8.399   6.504 -0.5998  0.0228  0.4758
13189SOL     OW41945   4.725   0.051   5.446 -0.0429 -0.4723  0.1622
13189SOL    HW141946   4.779   0.035   5.523 -0.3867 -1.4354  0.2255
13189SOL    HW241947   4.730  -0.032   5.397 -0.9558 -0.3581 -0.1366
13190SOL     OW41948   0.121   1.376   8.891 -0.4712  0.3914 -0.4657
13190SOL    HW141949   0.073   1.300   8.856  2.3677 -0.5271 -2.7526
13190SOL    HW241950   0.054   1.444   8.899 -2.5807 -1.4478 -1.2331
13191SOL     OW41951   2.489   4.381   9.333  0.1725 -0.0294  0.5615
13191SOL    HW141952   2.551   4.323   9.376 -1.5328 -1.5832  1.0772
13191SOL    HW241953   2.411   4.379   9.389 -1.0303  0.2877 -1.0123
13192SOL     OW41954   4.065   6.229   9.176  0.1572  0.1201  0.4474
13192SOL    HW141955   4.109   6.306   9.141 -2.2305  1.3095 -0.1837
13192SOL    HW241956   4.063   6.167   9.103  1.3070 -0.2137  0.6843
13193SOL     OW41957   4.359   6.610   5.811 -0.5222  0.7998  0.5153
13193SOL    HW141958   4.308   6.686   5.783 -0.7570  0.6320  0.4762
13193SOL    HW241959   4.365   6.619   5.906 -0.4458  0.9319  0.4975
13194SOL     OW41960   5.527   5.704   1.647 -1.2603  0.3462  0.2671
13194SOL    HW141961   5.432   5.706   1.637 -1.2910  2.0618  0.6091
13194SOL    HW241962   5.549   5.786   1.691  0.4278  0.2451 -0.2836
13195SOL     OW41963   2.526   9.052   3.521  0.3728  0.3112  0.7748
13195SOL    HW141964   2.592   9.100   3.571  0.4640 -0.0118  0.9669
13195SOL    HW241965   2.479   9.119   3.472  2.1860  0.3822 -0.9759
13196SOL     OW41966   9.195   7.697   4.147 -0.2794  0.2593  0.1077
13196SOL    HW141967   9.219   7.763   4.082 -0.7797  0.2438 -0.0974
13196SOL    HW241968   9.108   7.667   4.120  0.4772 -1.4654 -0.6048
13197SOL     OW41969   3.822   9.561   2.821  0.0387 -0.2060  0.5384
13197SOL    HW141970   3.895   9.501   2.836 -0.7096 -0.9643  1.2594
13197SOL    HW241971   3.847   9.610   2.743  1.5617 -0.0758  1.0635
13198SOL     OW41972  10.307   1.905   2.886 -0.3583  0.2361 -0.0495
13198SOL    HW141973  10.308   1.964   2.961 -0.3683 -0.3201  0.3949
13198SOL    HW241974  10.367   1.834   2.909 -0.1407  0.2051 -0.6865
13199SOL     OW41975   2.776  10.008   1.606  0.0956 -0.1088  0.3447
13199SOL    HW141976   2.822   9.955   1.671 -1.4069 -1.7831  0.1243
13199SOL    HW241977   2.706   9.951   1.575 -0.6124  1.4805 -1.0889
13200SOL     OW41978   5.740  10.486   2.283 -0.5750 -0.0236  0.1481
13200SOL    HW141979   5.765  10.421   2.217 -2.2805 -0.0324 -0.5386
13200SOL    HW241980   5.824  10.518   2.317  0.4384  0.8177 -2.8369
13201SOL     OW41981   8.142   2.659  10.572 -0.2042  0.4173  0.4185
13201SOL    HW141982   8.197   2.627  10.500 -0.5610  0.0732  0.2939
13201SOL    HW241983   8.052   2.652  10.538 -0.2284  3.8541 -0.5660
13202SOL     OW41984   3.880   8.913  10.344  0.8316 -0.1351  0.2105
13202SOL    HW141985   3.852   8.856  10.415 -0.5568 -0.7998 -0.8258
13202SOL    HW241986   3.844   8.999  10.366 -0.3668 -0.5391 -0.1007
13203SOL     OW41987   9.389   9.583   4.869  0.5566 -0.7344  0.5068
13203SOL    HW141988   9.381   9.496   4.832 -2.0978 -0.8448  1.0997
13203SOL    HW241989   9.366   9.572   4.962 -1.4994  0.7687  0.2522
13204SOL     OW41990   4.623   6.506   0.362  0.1117 -0.4798 -0.4958
13204SOL    HW141991   4.573   6.505   0.280 -1.6322 -1.9601  0.5330
13204SOL    HW241992   4.688   6.575   0.349 -0.5218 -0.2479 -2.8789
13205SOL     OW41993   2.356   0.227   4.663 -0.1943  0.4654  0.0031
13205SOL    HW141994   2.331   0.152   4.609  2.8101  0.4034 -1.4449
13205SOL    HW241995   2.363   0.190   4.751  2.4317 -1.3608 -0.8569
13206SOL     OW41996   9.023   1.778   3.656 -0.4404  0.0041  0.0929
13206SOL    HW141997   9.016   1.730   3.574  1.2023 -1.6158  0.8076
13206SOL    HW241998   8.933   1.782   3.689 -1.2895  1.5978 -2.2058
13207SOL     OW41999   8.952   9.042   7.392 -0.1940  0.6237  0.2203
13207SOL    HW142000   9.001   9.084   7.321 -0.6580  0.8972  0.0571
13207SOL    HW242001   9.019   9.019   7.456  0.1997  0.6039 -0.1908
13208SOL     OW42002   1.581   0.720   6.455  0.2401 -0.2442 -0.2125
13208SOL    HW142003   1.525   0.796   6.475  0.2411 -0.3474  0.1823
13208SOL    HW242004   1.617   0.694   6.539 -0.1303 -0.9817 -0.2799
13209SOL     OW42005   5.589   8.077   5.967  0.6838 -0.0956  0.4006
13209SOL    HW142006   5.535   8.089   6.046 -0.5951 -1.2263 -0.2493
13209SOL    HW242007   5.679   8.075   5.999  0.3668  1.8427  1.5302
13210SOL     OW42008  10.471   9.387  10.520 -0.1187 -0.2382  0.2122
13210SOL    HW142009  10.437   9.469  10.554 -0.7265 -0.0640 -0.8135
13210SOL    HW242010  10.556   9.377  10.564 -0.6484  0.2352  1.3820
13211SOL     OW42011   5.886   1.744   3.322  0.0129 -0.8320  0.2919
13211SOL    HW142012   5.874   1.813   3.258  0.2851  2.0812  3.1246
13211SOL    HW242013   5.798   1.707   3.334 -0.2737 -0.5220 -0.7782
13212SOL     OW42014   8.724   7.462  10.534 -0.2388  0.2858  0.1413
13212SOL    HW142015   8.630   7.464  10.517 -0.1234 -0.5240 -0.6873
13212SOL    HW242016   8.741   7.539  10.589 -1.6123 -0.3483  1.5334
13213SOL     OW42017   2.632   2.316   7.076  0.0816  0.1151 -0.0392
13213SOL    HW142018   2.684   2.236   7.079 -1.4489 -0.8690  1.3146
13213SOL    HW242019   2.691   2.380   7.035  1.8931 -1.2697  0.2490
13214SOL     OW42020   2.439   5.865   3.325 -0.4244  0.2960  0.0430
13214SOL    HW142021   2.482   5.780   3.320  0.1690  0.5707  0.2832
13214SOL    HW242022   2.492   5.915   3.387 -0.0400  1.2420 -0.9883
13215SOL     OW42023   1.551   5.574   1.668 -0.5888  0.3293 -0.0193
13215SOL    HW142024   1.573   5.595   1.759  1.0975 -0.2802 -0.2616
13215SOL    HW242025   1.630   5.596   1.618 -1.1837 -0.1631 -1.2179
13216SOL     OW42026   0.491   8.576   8.902  0.5860 -0.0607 -0.3562
13216SOL    HW142027   0.546   8.586   8.979  0.8389  0.4936 -0.6062
13216SOL    HW242028   0.546   8.602   8.828 -0.0527  0.6906 -0.5883
13217SOL     OW42029   7.570   3.029   8.464 -0.1396  0.0051 -0.5977
13217SOL    HW142030   7.595   3.102   8.520 -1.4204  1.2558 -1.6112
13217SOL    HW242031   7.483   3.003   8.496  0.3630 -1.2217 -0.1396
13218SOL     OW42032   3.551   6.174   3.060 -0.2612  0.0372 -0.1989
13218SOL    HW142033   3.507   6.216   3.134 -0.0852 -0.1060 -0.0129
13218SOL    HW242034   3.480   6.156   2.998 -0.8645 -2.2441  1.0363
13219SOL     OW42035  10.407   3.321   7.252 -0.1204 -0.0964  0.3426
13219SOL    HW142036  10.477   3.329   7.188 -0.3699 -0.9639 -0.0577
13219SOL    HW242037  10.350   3.252   7.217  0.1728 -1.1648  1.8732
13220SOL     OW42038   0.847   8.582   3.307  0.5470  0.1798 -0.7936
13220SOL    HW142039   0.899   8.535   3.372 -3.0629  1.0449  3.1296
13220SOL    HW242040   0.894   8.665   3.294  0.7968  0.5202  1.7803
13221SOL     OW42041   3.989   8.343   7.339 -0.2553 -0.0997  0.5354
13221SOL    HW142042   3.920   8.312   7.397  0.1610 -0.1020  1.0380
13221SOL    HW242043   3.947   8.349   7.253 -1.3723  1.5712  1.1480
13222SOL     OW42044   4.924   4.086   3.407 -0.0753 -0.2110  0.4119
13222SOL    HW142045   4.934   4.065   3.500 -0.2216 -0.5753  0.3476
13222SOL    HW242046   4.925   4.001   3.363  0.4032 -0.0150  0.0369
13223SOL     OW42047   7.433   2.505   1.549 -0.3777  0.0943  0.5202
13223SOL    HW142048   7.471   2.457   1.476 -0.8253  0.5934 -0.0562
13223SOL    HW242049   7.372   2.443   1.589  0.4945 -0.4663  1.0103
13224SOL     OW42050   3.532   6.164   2.352 -0.2716 -0.2326  0.0340
13224SOL    HW142051   3.525   6.190   2.260  0.5334  1.1352  0.3245
13224SOL    HW242052   3.626   6.156   2.367 -0.4085 -0.7059  0.6698
13225SOL     OW42053   3.618   6.591   5.581 -0.5554 -0.5047  0.1721
13225SOL    HW142054   3.641   6.666   5.635 -1.5097 -0.3469  0.3663
13225SOL    HW242055   3.686   6.526   5.600  0.4573  0.4080 -0.2363
13226SOL     OW42056   5.166   5.865   2.629 -0.2332  0.2084 -0.2245
13226SOL    HW142057   5.245   5.848   2.680  0.0975 -1.5151 -1.2461
13226SOL    HW242058   5.097   5.876   2.694  0.4061 -0.7002  0.6289
13227SOL     OW42059   7.774   1.310   1.957  0.0141 -0.6553 -0.3200
13227SOL    HW142060   7.789   1.225   1.999  1.3496 -1.4219 -2.2081
13227SOL    HW242061   7.855   1.327   1.908 -0.1127  1.8586  0.2052
13228SOL     OW42062   8.850   0.793   7.931  0.4144 -0.4684  0.2176
13228SOL    HW142063   8.892   0.855   7.872  0.8265 -0.0493  0.9444
13228SOL    HW242064   8.900   0.712   7.920  0.3123 -0.4808 -0.2075
13229SOL     OW42065   1.002   0.921   6.053  0.0292 -0.2680 -1.1278
13229SOL    HW142066   1.048   1.002   6.077  1.9945 -1.8862  1.0341
13229SOL    HW242067   1.071   0.855   6.047 -1.7481 -2.3214 -0.2159
13230SOL     OW42068   4.912   7.392   4.359 -0.0177  0.3305 -0.6287
13230SOL    HW142069   4.935   7.362   4.271  3.1707  0.4689  0.0262
13230SOL    HW242070   4.986   7.446   4.386 -0.0500 -1.0533  2.7627
13231SOL     OW42071   0.044   6.911   7.818 -0.9200  0.1936 -0.3440
13231SOL    HW142072   0.053   6.996   7.861  2.6552 -0.3753  0.3479
13231SOL    HW242073   0.120   6.861   7.847 -2.0812 -2.7382 -1.9256
13232SOL     OW42074  10.457   1.259  10.348 -0.3767  0.1146  0.2726
13232SOL    HW142075  10.538   1.210  10.329  0.2557  0.2016  2.4594
13232SOL    HW242076  10.408   1.258  10.266  1.0827 -1.4180 -0.6323
13233SOL     OW42077   1.344  10.774   4.100  0.0770  0.5857  0.0192
13233SOL    HW142078   1.327  10.777   4.194  1.4052  0.6872  0.2749
13233SOL    HW242079   1.379  10.686   4.085  0.0462  0.6373 -0.3530
13234SOL     OW42080   4.773   3.065   4.447 -0.1646 -0.7616 -0.9941
13234SOL    HW142081   4.822   3.011   4.509 -1.3932  0.8309  1.5005
13234SOL    HW242082   4.690   3.018   4.435 -0.2986 -0.6059 -0.6832
13235SOL     OW42083   3.986   9.834  10.572  0.3520  0.0327 -0.0934
13235SOL    HW142084   3.925   9.825  10.499 -0.2354 -2.8022  0.6171
13235SOL    HW242085   3.935   9.810  10.649  0.7523  3.6468  1.4784
13236SOL     OW42086   5.210   7.103  10.040 -0.4416 -0.3420 -0.6713
13236SOL    HW142087   5.263   7.039  10.088  0.4826  1.3250  0.6358
13236SOL    HW242088   5.125   7.101  10.084 -0.2054 -0.2090 -0.1963
13237SOL     OW42089  10.640   5.650   7.416 -0.3398 -0.2089  0.6204
13237SOL    HW142090  10.623   5.663   7.509 -2.1194  2.5290  0.0122
13237SOL    HW242091  10.707   5.714   7.395  0.0705 -0.8279 -0.0235
13238SOL     OW42092   2.371   2.678   7.959  0.0608 -0.4589  0.6867
13238SOL    HW142093   2.301   2.629   7.916 -0.6478  0.9738  0.1488
13238SOL    HW242094   2.443   2.677   7.896  0.2641 -1.2564  0.9125
13239SOL     OW42095   9.009   7.657   9.550 -0.2862 -0.0660  0.5299
13239SOL    HW142096   8.957   7.618   9.479 -3.1550  2.1774  1.2071
13239SOL    HW242097   9.064   7.723   9.507  0.4725 -0.9851  0.0568
13240SOL     OW42098   0.899  10.477   5.504  0.6321  0.8624 -0.1707
13240SOL    HW142099   0.854  10.558   5.480 -0.0541  0.4379 -0.3573
13240SOL    HW242100   0.929  10.492   5.594  0.3980  1.2783 -0.1591
13241SOL     OW42101   5.926   7.950   8.751  0.0417  0.0007 -0.3888
13241SOL    HW142102   5.939   7.883   8.818 -0.9361 -1.1364 -1.3033
13241SOL    HW242103   5.858   8.007   8.786 -0.4045 -0.5405 -0.3582
13242SOL     OW42104   6.596   7.797   7.862  0.4242  0.1180  0.4873
13242SOL    HW142105   6.635   7.710   7.855  1.8906  0.6997  0.9815
13242SOL    HW242106   6.643   7.850   7.797  0.4907  0.8407  1.1070
13243SOL     OW42107   7.711   7.503   2.330 -0.1723  0.1208  0.1722
13243SOL    HW142108   7.758   7.540   2.256 -2.1653  0.4277 -1.0236
13243SOL    HW242109   7.715   7.408   2.317 -0.1538  0.1591 -0.0890
13244SOL     OW42110   3.658   8.543   6.480 -0.0379 -0.1818 -0.5653
13244SOL    HW142111   3.637   8.591   6.560 -1.5092 -0.5429 -0.7000
13244SOL    HW242112   3.735   8.587   6.444  0.2417  0.3961  0.6876
13245SOL     OW42113   4.369   2.462   4.937  0.0797 -0.0855  0.0940
13245SOL    HW142114   4.373   2.471   4.842 -1.7338 -1.6677 -0.1961
13245SOL    HW242115   4.389   2.370   4.953 -0.2736  0.0112  1.1650
13246SOL     OW42116   8.487   7.035   0.709  0.6912  0.1763  0.3117
13246SOL    HW142117   8.496   7.129   0.696  1.3255  0.0215 -0.4057
13246SOL    HW242118   8.504   7.022   0.803 -0.3136  0.8751  0.5997
13247SOL     OW42119   3.024   9.162   5.821  0.0845  0.3688  0.3131
13247SOL    HW142120   2.995   9.152   5.730 -0.1698  0.6784  0.3582
13247SOL    HW242121   3.100   9.104   5.828 -1.2652 -1.4616  0.5535
13248SOL     OW42122   5.000  10.247   6.206  0.0318 -0.6354 -0.2002
13248SOL    HW142123   5.038  10.160   6.219 -0.2337 -0.7995 -0.4970
13248SOL    HW242124   4.999  10.287   6.293  0.4842 -0.7931 -0.1239
13249SOL     OW42125   3.033   2.678   8.532  0.0899  0.3869 -0.2026
13249SOL    HW142126   3.022   2.607   8.468 -0.5402  0.7781 -0.5327
13249SOL    HW242127   3.127   2.696   8.532  0.1085  0.3008 -0.9324
13250SOL     OW42128   4.808   2.089   7.631  0.3184 -0.2502  0.3419
13250SOL    HW142129   4.770   2.035   7.701  2.3066  0.1839  1.8647
13250SOL    HW242130   4.858   2.156   7.678  1.3238  0.3498 -1.5136
13251SOL     OW42131   9.386   1.019   5.216 -0.0320 -0.2247  0.4364
13251SOL    HW142132   9.345   0.941   5.253  0.2088 -0.2673  0.6148
13251SOL    HW242133   9.472   0.989   5.185 -0.1460 -0.1440  0.0334
13252SOL     OW42134   4.585   9.032   3.767 -0.5901 -0.2983  0.8301
13252SOL    HW142135   4.560   9.118   3.735 -0.0687 -0.9792 -1.6329
13252SOL    HW242136   4.512   9.004   3.821 -1.3362  1.1634  0.6230
13253SOL     OW42137   5.499   7.290   9.604 -0.3208 -0.2031  0.0464
13253SOL    HW142138   5.480   7.200   9.634  1.4300 -0.3455  0.8510
13253SOL    HW242139   5.579   7.281   9.553 -0.8733  0.7349 -1.0115
13254SOL     OW42140   4.614   3.217   5.199 -0.5276 -0.0578 -0.1372
13254SOL    HW142141   4.603   3.187   5.109  0.4143 -0.0479 -0.2673
13254SOL    HW242142   4.706   3.244   5.205 -0.7468  0.5799  0.6359
13255SOL     OW42143   2.102   0.997  10.627 -0.0558  0.0614  0.5352
13255SOL    HW142144   2.153   0.917  10.642  0.2678  0.3801  1.2030
13255SOL    HW242145   2.070   0.988  10.538 -0.0698 -0.8388  0.6132
13256SOL     OW42146   1.361   2.850   1.920  0.3210  0.0773  0.2491
13256SOL    HW142147   1.334   2.765   1.887  0.0666  0.2089  0.1101
13256SOL    HW242148   1.452   2.838   1.949  0.5759 -0.0226 -0.5785
13257SOL     OW42149   5.549   6.847   8.141  0.1203 -0.0680 -0.3362
13257SOL    HW142150   5.619   6.819   8.200 -0.8222  2.0194  1.9578
13257SOL    HW242151   5.594   6.871   8.060  2.0721  0.9859  0.9817
13258SOL     OW42152   7.843   2.572   8.993 -0.4519  0.6216 -0.2275
13258SOL    HW142153   7.842   2.636   8.922 -0.4619  0.0569 -0.7436
13258SOL    HW242154   7.827   2.488   8.950 -1.4570  0.3923  0.5770
13259SOL     OW42155   8.115  10.541   5.219  0.1287  0.4995 -0.0225
13259SOL    HW142156   8.144  10.513   5.306 -0.5813  0.4045  0.1849
13259SOL    HW242157   8.192  10.529   5.163 -0.0000 -1.4547  0.1599
13260SOL     OW42158   1.906   9.652   0.960  0.5028 -0.0791 -0.2803
13260SOL    HW142159   1.880   9.610   1.042 -0.5796  0.2339 -0.4482
13260SOL    HW242160   1.893   9.745   0.975  2.0683  0.1480 -0.2044
13261SOL     OW42161   0.057   0.924   9.959  0.4430  0.2755 -0.5747
13261SOL    HW142162   0.013   0.857   9.905 -0.5621  0.4337  0.0207
13261SOL    HW242163   0.080   0.878  10.040 -0.0388  0.5873 -0.2575
13262SOL     OW42164   0.783   9.793   0.843 -0.1532  0.1156 -0.4667
13262SOL    HW142165   0.793   9.782   0.938  0.1587  0.1854 -0.4883
13262SOL    HW242166   0.689   9.785   0.828 -0.6233  3.1869  0.2479
13263SOL     OW42167  10.025   8.062   7.973 -0.6176  0.4922 -0.1291
13263SOL    HW142168  10.039   8.121   8.047 -0.1648  2.5549 -1.7607
13263SOL    HW242169  10.014   8.120   7.898  1.3856 -1.4957 -2.1242
13264SOL     OW42170   9.692   8.722   4.821  0.4364  0.1179  0.3023
13264SOL    HW142171   9.733   8.803   4.790  0.4676 -0.2659 -0.6806
13264SOL    HW242172   9.762   8.676   4.867  0.8910 -0.1165 -0.5925
13265SOL     OW42173   1.068   5.841   6.621 -0.2899 -0.4664  0.1925
13265SOL    HW142174   0.976   5.819   6.618  0.1340 -2.3037 -1.3492
13265SOL    HW242175   1.086   5.879   6.534  0.8185 -2.2443 -0.4187
13266SOL     OW42176   9.632   4.107   4.045  0.2207 -0.1067 -0.3426
13266SOL    HW142177   9.652   4.151   3.962  3.2726 -0.1923  0.2313
13266SOL    HW242178   9.635   4.176   4.111  1.8144 -0.6161  0.1573
13267SOL     OW42179   0.163   5.064   9.454 -0.0481  0.3371  0.1500
13267SOL    HW142180   0.190   5.091   9.366 -2.2912  0.4294 -0.5704
13267SOL    HW242181   0.229   5.103   9.512  0.7365  1.4053 -1.3767
13268SOL     OW42182   1.870   5.917   3.365  0.2379  0.1281 -0.0100
13268SOL    HW142183   1.876   5.902   3.459  1.5828  2.9980  0.4834
13268SOL    HW242184   1.949   5.876   3.329  0.3385  0.0482  0.3032
13269SOL     OW42185   3.993   9.788   4.651  0.1815 -0.1126 -0.3762
13269SOL    HW142186   3.959   9.783   4.740  0.0013  2.0491 -0.2849
13269SOL    HW242187   4.068   9.729   4.650 -0.6466 -1.2352  0.7846
13270SOL     OW42188   3.237   8.732   4.480 -0.2650  0.2926  0.1745
13270SOL    HW142189   3.198   8.645   4.489 -0.9940  0.4150 -1.3977
13270SOL    HW242190   3.162   8.791   4.475  0.2040  0.9049  0.2944
13271SOL     OW42191   4.667   9.574   8.857 -0.0018 -0.3733  0.1911
13271SOL    HW142192   4.651   9.537   8.944  2.3714 -1.3644  0.2810
13271SOL    HW242193   4.627   9.512   8.797 -1.0752 -0.0244  0.5153
13272SOL     OW42194   8.630   5.708   8.500 -0.1746 -0.3280 -0.5255
13272SOL    HW142195   8.625   5.612   8.496 -0.2602 -0.4406  1.5707
13272SOL    HW242196   8.544   5.735   8.532  0.3945  0.3283  0.4808
13273SOL     OW42197   0.492   7.699   1.508 -0.0888  0.2414 -0.0501
13273SOL    HW142198   0.557   7.768   1.516  1.0718 -0.9398  1.1823
13273SOL    HW242199   0.532   7.622   1.549 -1.7292 -0.9006 -0.4513
13274SOL     OW42200   4.271   0.950   7.198  0.2594  0.1092  0.7885
13274SOL    HW142201   4.181   0.950   7.166  0.5976  1.0054 -0.2294
13274SOL    HW242202   4.267   0.994   7.283 -0.2619  0.1299  0.7553
13275SOL     OW42203   5.181   7.978   9.636 -0.8222 -0.0880  0.3211
13275SOL    HW142204   5.269   8.006   9.614 -0.8716 -0.0816  0.1285
13275SOL    HW242205   5.148   8.046   9.696 -1.8753  1.6944 -2.1214
13276SOL     OW42206   4.456   1.386   7.090 -0.7275  0.0243 -0.5252
13276SOL    HW142207   4.371   1.352   7.063 -1.1523  0.2326  0.5170
13276SOL    HW242208   4.467   1.354   7.179 -0.5082  1.4522 -0.0212
13277SOL     OW42209   1.935   3.231   8.449  0.5957  1.0202 -0.4674
13277SOL    HW142210   1.935   3.309   8.393  0.5646  1.3302 -0.0500
13277SOL    HW242211   1.984   3.258   8.527 -0.8337  1.1757  0.4150
13278SOL     OW42212   7.277   8.506   2.128 -0.1983  0.0404  0.2125
13278SOL    HW142213   7.222   8.519   2.205 -1.3103  1.6907 -0.8072
13278SOL    HW242214   7.229   8.548   2.057  1.6608  0.1782 -1.0230
13279SOL     OW42215   1.533   3.428   8.343  0.3382  0.0235 -0.4790
13279SOL    HW142216   1.571   3.348   8.378 -0.1895 -0.0483 -0.0505
13279SOL    HW242217   1.443   3.403   8.318  0.3047  0.3777 -0.7304
13280SOL     OW42218   5.306   7.730  10.778 -0.3597  0.0961 -0.1228
13280SOL    HW142219   5.281   7.675  10.703  0.3297  0.0521 -0.3316
13280SOL    HW242220   5.352   7.804  10.738  3.3024 -1.6800  0.3646
13281SOL     OW42221   0.609   8.176   3.689 -0.1091 -0.2510  0.2763
13281SOL    HW142222   0.567   8.260   3.705 -0.7375 -0.3403 -0.7725
13281SOL    HW242223   0.575   8.148   3.604  2.7623  0.1060 -1.0970
13282SOL     OW42224   8.305   7.255   7.177 -0.5465 -0.4528 -0.1268
13282SOL    HW142225   8.349   7.172   7.158 -1.7923 -0.9684 -0.9225
13282SOL    HW242226   8.376   7.318   7.185  0.4562 -1.6530  0.8936
13283SOL     OW42227   9.667   7.926   3.242 -0.5470  0.4494  0.9582
13283SOL    HW142228   9.669   7.911   3.147  0.4126  0.6700  0.9405
13283SOL    HW242229   9.653   7.838   3.279  0.5978  0.1242  0.6641
13284SOL     OW42230   9.374   9.371   1.541 -0.0239  0.6463  0.2956
13284SOL    HW142231   9.363   9.399   1.450 -0.4329 -0.7382 -0.1106
13284SOL    HW242232   9.460   9.405   1.567  0.1043  1.0327 -0.6169
13285SOL     OW42233   6.637   2.013   0.008  0.2635 -0.0898  0.6472
13285SOL    HW142234   6.583   2.088   0.031  0.3603  0.5698 -1.0947
13285SOL    HW242235   6.590   1.970  -0.064  1.6778  0.1202 -0.4748
13286SOL     OW42236   2.053   9.076  10.455 -0.4419 -0.1671 -0.3574
13286SOL    HW142237   2.004   9.014  10.509 -2.5114  1.9493  0.3530
13286SOL    HW242238   2.007   9.075  10.370 -1.0662  0.9825 -0.0569
13287SOL     OW42239   1.350   2.216   0.195  0.0393  0.4849 -0.4228
13287SOL    HW142240   1.294   2.186   0.123 -1.6405 -0.3220  1.1258
13287SOL    HW242241   1.342   2.312   0.192  1.0823  0.5631 -2.0878
13288SOL     OW42242   3.862   0.711   9.374 -0.4951  0.4614  0.0621
13288SOL    HW142243   3.887   0.802   9.390  1.2691 -0.0675  0.6135
13288SOL    HW242244   3.875   0.699   9.280  0.7854  0.3867  0.2312
13289SOL     OW42245   8.361   9.452  10.408  0.0460 -0.8407 -0.1887
13289SOL    HW142246   8.401   9.470  10.493 -1.2451 -0.7392  0.4204
13289SOL    HW242247   8.279   9.407  10.429 -0.4901 -0.4409 -1.3498
13290SOL     OW42248  10.085   1.702   5.224  0.5524 -0.6118 -0.1671
13290SOL    HW142249  10.145   1.644   5.270  0.5213 -0.6489 -0.1735
13290SOL    HW242250  10.097   1.788   5.266 -0.1737 -0.8497  0.5554
13291SOL     OW42251   2.184   4.600   3.018 -0.0232 -0.2950 -0.5445
13291SOL    HW142252   2.112   4.593   3.081 -0.7957 -0.0055 -1.3721
13291SOL    HW242253   2.222   4.686   3.033  0.8742 -0.8726  0.6321
13292SOL     OW42254   3.012   6.792   8.785 -0.0358 -0.0891 -0.2020
13292SOL    HW142255   2.979   6.880   8.768 -0.1486  0.2502  1.6045
13292SOL    HW242256   3.095   6.806   8.831  1.0621 -0.9528 -1.7934
13293SOL     OW42257   2.857   4.718   5.460  0.0918 -0.5697  0.1303
13293SOL    HW142258   2.909   4.797   5.445 -1.5081  0.5591  0.2484
13293SOL    HW242259   2.875   4.663   5.385  0.0893  0.5714 -0.7393
13294SOL     OW42260   8.899   1.661   5.449  0.2111 -0.6263 -0.0299
13294SOL    HW142261   8.917   1.755   5.451 -0.6089 -0.4636  0.1692
13294SOL    HW242262   8.944   1.626   5.526  1.8012 -0.6510 -0.9350
13295SOL     OW42263   8.501  10.402   9.921 -0.3389 -0.3447 -0.1956
13295SOL    HW142264   8.549  10.476   9.959 -0.6299  0.4844 -1.4085
13295SOL    HW242265   8.558  10.327   9.937 -0.8999 -0.2800  2.8117
13296SOL     OW42266   9.349   5.335   0.862  0.1881 -0.3948 -0.6837
13296SOL    HW142267   9.403   5.257   0.846 -1.3737 -2.1028  1.5276
13296SOL    HW242268   9.259   5.304   0.850 -0.4720  1.0825  0.1953
13297SOL     OW42269   2.557  10.470   2.259  0.0933 -0.0464 -0.7216
13297SOL    HW142270   2.641  10.514   2.267 -0.2238  0.4438  0.0232
13297SOL    HW242271   2.510  10.519   2.192 -0.3188  0.8747  0.2149
13298SOL     OW42272   2.928   2.306   7.584  0.1365  0.4679  0.4473
13298SOL    HW142273   2.980   2.293   7.663 -0.2581 -2.2937  0.3398
13298SOL    HW242274   2.912   2.218   7.551 -2.0729  1.3972 -1.1863
13299SOL     OW42275   3.463   2.291   4.774  0.7128  0.3807 -0.4683
13299SOL    HW142276   3.553   2.263   4.759  1.0405  0.6536  0.9301
13299SOL    HW242277   3.454   2.297   4.869  0.0089  2.9226 -0.6265
13300SOL     OW42278   9.177   8.892   0.886 -0.3754 -0.2281 -0.2581
13300SOL    HW142279   9.187   8.976   0.931 -1.2306  0.4536 -1.2760
13300SOL    HW242280   9.211   8.908   0.798  0.5191 -1.2962 -0.1159
13301SOL     OW42281   7.158   1.489   5.617  0.4359 -0.1450 -0.1368
13301SOL    HW142282   7.070   1.487   5.655 -0.1164 -1.2281 -1.4017
13301SOL    HW242283   7.213   1.525   5.687 -0.9984  0.5572  0.6796
13302SOL     OW42284   6.025   0.852   2.665 -0.4419 -0.3395 -0.3939
13302SOL    HW142285   6.090   0.819   2.727 -0.4676 -1.1940 -0.7996
13302SOL    HW242286   6.004   0.940   2.696 -0.6466 -0.8435  0.9565
13303SOL     OW42287   8.426   8.459   4.842 -0.4387  0.2513  0.1748
13303SOL    HW142288   8.464   8.474   4.929 -0.4071 -1.2741  0.4710
13303SOL    HW242289   8.487   8.500   4.781  0.5501 -0.2860  0.7709
13304SOL     OW42290   4.993   6.038   4.017  0.2484 -0.2571  0.0311
13304SOL    HW142291   5.042   6.075   3.944 -0.8136 -1.0001 -1.0905
13304SOL    HW242292   4.940   6.111   4.050  1.2914  0.2768  0.5837
13305SOL     OW42293  10.256   7.622   5.198 -0.0889  0.2618  0.3530
13305SOL    HW142294  10.239   7.674   5.119  0.4573 -1.2613 -0.8209
13305SOL    HW242295  10.345   7.645   5.223  0.2737 -0.3180 -0.3599
13306SOL     OW42296   2.334   6.738   0.860  0.4915  0.1704 -0.1389
13306SOL    HW142297   2.253   6.787   0.875  1.4221  1.2807  1.6215
13306SOL    HW242298   2.391   6.801   0.815  0.9896  0.0105  0.2653
13307SOL     OW42299   3.287   6.311   6.513 -0.0633  0.2282  0.2563
13307SOL    HW142300   3.283   6.268   6.599 -0.5619  2.3074  1.3420
13307SOL    HW242301   3.363   6.370   6.520  0.0021  0.2852 -0.8113
13308SOL     OW42302   2.674   1.584   1.873 -0.9377 -0.4383  0.7434
13308SOL    HW142303   2.700   1.528   1.946 -0.8013 -1.1243  0.1716
13308SOL    HW242304   2.628   1.526   1.812  0.8394 -0.3615 -0.7473
13309SOL     OW42305   3.924   8.669   8.728 -0.2119 -0.9449 -0.0379
13309SOL    HW142306   3.873   8.648   8.649 -0.9558  0.6958 -0.0348
13309SOL    HW242307   3.886   8.751   8.760  2.0680  0.0781  0.2834
13310SOL     OW42308   9.342   5.635   6.596  0.3748 -0.0939  0.0559
13310SOL    HW142309   9.268   5.602   6.544  0.7780 -1.1362  0.1199
13310SOL    HW242310   9.306   5.709   6.644  0.0209  1.0316 -1.8327
13311SOL     OW42311   7.132   7.611   6.839 -0.0116 -0.2531 -0.3571
13311SOL    HW142312   7.152   7.615   6.746  0.5121 -1.5654 -0.3291
13311SOL    HW242313   7.044   7.649   6.847  0.8086  1.9187 -1.0433
13312SOL     OW42314   4.546   9.139   6.498 -0.1968 -0.0378 -0.7233
13312SOL    HW142315   4.642   9.144   6.497 -0.0969 -1.2044  0.3365
13312SOL    HW242316   4.519   9.173   6.413  0.9392  3.8634  0.2633
13313SOL     OW42317   2.124   9.032   6.297 -0.1245  0.1491  0.4013
13313SOL    HW142318   2.053   9.093   6.274 -0.4922 -0.0518  0.9758
13313SOL    HW242319   2.139   9.047   6.391  0.9475  0.5463  0.1813
13314SOL     OW42320   9.348   7.192   5.108 -0.0465 -0.6075 -0.2845
13314SOL    HW142321   9.340   7.102   5.139 -1.6184 -0.1931  0.6318
13314SOL    HW242322   9.367   7.243   5.187 -0.1582 -0.0107 -0.6315
13315SOL     OW42323   6.336  10.407   1.873 -1.1526 -0.4389 -0.2924
13315SOL    HW142324   6.331  10.401   1.778 -0.3266 -0.2930 -0.3528
13315SOL    HW242325   6.281  10.482   1.896 -0.8837 -0.1127 -0.7077
13316SOL     OW42326   7.979   3.231   2.249  0.0083 -0.0610 -0.2697
13316SOL    HW142327   8.040   3.206   2.180  0.8766  1.3958 -0.0863
13316SOL    HW242328   7.911   3.282   2.203  1.3087  2.0972  0.0415
13317SOL     OW42329   0.436   9.249   3.740  0.5269 -0.5549  0.0518
13317SOL    HW142330   0.433   9.304   3.819  1.0210  1.1024 -1.0358
13317SOL    HW242331   0.391   9.301   3.673  1.4783 -1.2425 -1.1647
13318SOL     OW42332  10.269   4.472   2.114  0.7136 -0.4289 -0.6510
13318SOL    HW142333  10.252   4.455   2.207  1.1732  0.9045 -0.3000
13318SOL    HW242334  10.360   4.502   2.111  0.9873 -1.2651 -1.6643
13319SOL     OW42335  10.793   2.402   0.097  0.2028  0.0682  0.1716
13319SOL    HW142336  10.885   2.378   0.088 -0.0282 -0.0398 -2.7481
13319SOL    HW242337  10.754   2.329   0.144  1.2649 -0.7779 -0.2202
13320SOL     OW42338   7.927   4.952   2.496 -0.2812  0.2948 -0.3184
13320SOL    HW142339   8.009   4.933   2.541 -2.2218 -0.8583  3.0272
13320SOL    HW242340   7.935   4.906   2.412  1.7653 -1.2477  0.6410
13321SOL     OW42341   8.741   1.717   1.281  0.0359  0.3537 -0.3457
13321SOL    HW142342   8.749   1.716   1.186 -0.2843  1.5661 -0.4022
13321SOL    HW242343   8.825   1.683   1.313 -0.1514 -0.8292 -1.0490
13322SOL     OW42344   4.290   8.736   3.248 -0.4703  0.3776 -0.2130
13322SOL    HW142345   4.249   8.650   3.256  2.5797 -1.1545  0.8136
13322SOL    HW242346   4.326   8.738   3.159 -0.9480  0.8278 -0.4022
13323SOL     OW42347   4.636   8.662   4.722  0.3319 -0.1781  0.2726
13323SOL    HW142348   4.639   8.601   4.795 -1.0115  0.9284  1.3079
13323SOL    HW242349   4.561   8.634   4.670 -0.8548  1.0599  1.2453
13324SOL     OW42350   1.348   2.081   7.000 -0.0133 -0.2574  0.3960
13324SOL    HW142351   1.270   2.094   7.054 -0.5840 -0.1849 -0.4390
13324SOL    HW242352   1.371   1.989   7.013  0.3602 -0.0443  1.4114
13325SOL     OW42353   7.570   3.819   0.950  0.3535 -0.1639  0.1313
13325SOL    HW142354   7.604   3.906   0.969  0.9639 -0.4926  0.6010
13325SOL    HW242355   7.569   3.814   0.855  0.4037  0.3220  0.1018
13326SOL     OW42356   5.788   7.266   5.974 -0.0330 -0.1594 -0.5954
13326SOL    HW142357   5.851   7.256   6.045  0.4294 -0.3965 -1.0356
13326SOL    HW242358   5.775   7.361   5.967 -0.5776 -0.1570  0.2282
13327SOL     OW42359   6.650   5.707   5.910  0.1236  0.3267 -0.5035
13327SOL    HW142360   6.613   5.753   5.985  0.1275  0.5907 -0.6614
13327SOL    HW242361   6.597   5.735   5.836  0.9160  1.0824 -0.8108
13328SOL     OW42362   0.759   7.022  10.560  0.4396  0.0810  0.0194
13328SOL    HW142363   0.686   7.040  10.619 -1.2429 -1.9603 -1.2791
13328SOL    HW242364   0.804   6.947  10.599 -0.3415 -0.9159 -0.9436
13329SOL     OW42365   6.167   4.632   2.217  0.2757 -0.5581  0.0788
13329SOL    HW142366   6.096   4.633   2.153  1.2908 -2.3153 -1.1659
13329SOL    HW242367   6.138   4.570   2.284  0.6882 -1.4135 -0.5222
13330SOL     OW42368   3.465   6.792   6.325 -0.7257  0.2295 -0.1228
13330SOL    HW142369   3.418   6.770   6.405  0.0377  0.7552  0.4896
13330SOL    HW242370   3.430   6.733   6.259 -0.9204 -0.6499  0.7442
13331SOL     OW42371   9.835   9.665   8.449  0.3047 -0.5740 -0.5581
13331SOL    HW142372   9.788   9.642   8.529  1.2852  0.2383  0.2845
13331SOL    HW242373   9.912   9.713   8.479  0.1544  0.6926 -2.0477
13332SOL     OW42374   7.637   1.908   3.433 -0.0069 -0.3395  0.1300
13332SOL    HW142375   7.661   1.963   3.358  0.1074 -0.8367 -0.1986
13332SOL    HW242376   7.701   1.837   3.433 -0.2415 -0.5576  0.4662
13333SOL     OW42377   3.485   8.380   3.219 -0.8624  0.3145  0.1194
13333SOL    HW142378   3.559   8.439   3.233  0.5242 -1.3382  0.0680
13333SOL    HW242379   3.523   8.292   3.224 -2.5253 -0.5693 -1.5498
13334SOL     OW42380   3.435   4.542   8.119  0.1864 -0.1861  0.3015
13334SOL    HW142381   3.509   4.603   8.111  1.3924 -1.4746  1.2492
13334SOL    HW242382   3.394   4.564   8.203 -0.5046  0.4798 -0.1905
13335SOL     OW42383  10.535   8.584   8.791 -0.1440  0.1121 -0.1765
13335SOL    HW142384  10.593   8.542   8.727  0.3803  2.7153 -1.5308
13335SOL    HW242385  10.589   8.590   8.870 -0.7397 -2.9739  0.5948
13336SOL     OW42386  10.369   7.141   7.448  0.0816 -0.2887  0.2874
13336SOL    HW142387  10.434   7.211   7.438 -1.2868  1.1494  1.0242
13336SOL    HW242388  10.291   7.186   7.480 -0.8899 -2.1633  0.6456
13337SOL     OW42389   5.613   8.695   6.856 -0.3075  0.7087  0.3529
13337SOL    HW142390   5.658   8.764   6.807 -0.6248  1.5564  1.2203
13337SOL    HW242391   5.653   8.698   6.943  1.6184 -2.0319 -0.2620
13338SOL     OW42392   4.587   0.655   3.344 -0.2553  0.0584 -0.0441
13338SOL    HW142393   4.566   0.744   3.372 -1.4637 -0.0236 -0.6665
13338SOL    HW242394   4.503   0.614   3.325  0.3795 -0.6584 -1.4742
13339SOL     OW42395   6.613   8.550   8.726 -0.0174 -0.4748 -0.1361
13339SOL    HW142396   6.659   8.500   8.658 -2.1216 -1.5741 -0.8294
13339SOL    HW242397   6.608   8.639   8.691 -0.1741 -0.7975 -0.9541
13340SOL     OW42398   7.786   6.968   4.068 -0.1107  0.4165 -0.2086
13340SOL    HW142399   7.807   7.030   4.139  0.4624 -1.0577  0.9562
13340SOL    HW242400   7.785   6.883   4.111  2.0935 -0.7719 -2.3102
13341SOL     OW42401   4.318   9.947   8.052  0.2438 -0.0094 -0.0074
13341SOL    HW142402   4.358   9.865   8.083  1.1198  0.7798  1.0445
13341SOL    HW242403   4.242   9.959   8.109 -1.0655 -1.0586 -1.4386
13342SOL     OW42404   3.070   2.158   9.814  0.8686 -0.2747  0.3062
13342SOL    HW142405   3.049   2.189   9.726  1.6053  1.3122  0.6404
13342SOL    HW242406   3.120   2.230   9.852 -1.6918  0.3052  2.9698
13343SOL     OW42407  10.001   9.350   5.447 -0.4477  0.5065 -0.0693
13343SOL    HW142408   9.986   9.416   5.379 -0.9854 -0.5066 -0.9555
13343SOL    HW242409  10.078   9.302   5.418 -0.9475 -0.2222 -0.2127
13344SOL     OW42410   9.193   9.052   0.383 -0.6478 -0.3879 -0.0559
13344SOL    HW142411   9.207   9.066   0.290  1.4640  0.9159  0.3964
13344SOL    HW242412   9.105   9.013   0.389 -2.6257  3.1622 -2.3282
13345SOL     OW42413   4.756   8.404   1.593 -0.3901  0.7844 -0.5146
13345SOL    HW142414   4.814   8.359   1.655 -1.6040 -0.4403 -0.2202
13345SOL    HW242415   4.730   8.484   1.639  1.0314  1.3570 -0.6531
13346SOL     OW42416   9.178   0.625   1.041 -0.4706  0.0067 -0.1250
13346SOL    HW142417   9.222   0.547   1.073 -1.2300 -1.5421 -2.6246
13346SOL    HW242418   9.219   0.643   0.957 -1.3199  1.4393 -0.2674
13347SOL     OW42419   8.692   8.042   2.430  0.2343 -0.2517  0.0579
13347SOL    HW142420   8.717   7.984   2.502  1.6626 -0.2159 -0.3729
13347SOL    HW242421   8.636   8.108   2.471  1.2456 -0.0631  1.2033
13348SOL     OW42422   7.003   1.372   9.324  0.4211  0.3041 -0.0676
13348SOL    HW142423   6.924   1.324   9.351 -0.0366  1.5602  0.9457
13348SOL    HW242424   6.984   1.401   9.234 -0.4026  0.8129  0.2575
13349SOL     OW42425   7.852   5.581   4.205 -0.3565 -0.3826  0.2053
13349SOL    HW142426   7.790   5.654   4.210 -0.0198 -0.0557 -0.3571
13349SOL    HW242427   7.821   5.519   4.271 -0.4798  0.3922  0.8901
13350SOL     OW42428   7.017   7.991  10.761  0.1280 -0.7823 -0.0990
13350SOL    HW142429   6.926   7.985  10.788  0.3928 -0.0787  1.0152
13350SOL    HW242430   7.014   7.995  10.665 -1.0015 -0.8010 -0.0731
13351SOL     OW42431   5.083   0.897   0.154 -0.0348 -0.0497  0.2867
13351SOL    HW142432   5.042   0.953   0.089  1.1681  1.1045  0.4801
13351SOL    HW242433   5.059   0.936   0.238 -0.0624 -0.4534  0.4718
13352SOL     OW42434   2.780   7.563   3.893  0.2152  0.3143 -0.5176
13352SOL    HW142435   2.830   7.483   3.903 -0.4614 -0.2140 -1.2093
13352SOL    HW242436   2.711   7.541   3.830  0.7352  1.7638 -1.6578
13353SOL     OW42437  10.159   9.084   3.152 -0.1510  0.0045  0.2425
13353SOL    HW142438  10.246   9.109   3.182 -1.0336  4.4395 -0.1556
13353SOL    HW242439  10.104   9.088   3.230 -0.2881 -1.3188  0.2342
13354SOL     OW42440   1.701   6.420   1.267  0.1626 -0.0449 -0.1424
13354SOL    HW142441   1.666   6.482   1.203  1.4914  0.7750 -0.1150
13354SOL    HW242442   1.747   6.355   1.214 -0.8493 -0.7854 -0.1429
13355SOL     OW42443   8.417   9.533   8.623 -0.3951 -0.1927  0.0204
13355SOL    HW142444   8.423   9.508   8.531 -1.8556  1.7474 -0.6704
13355SOL    HW242445   8.506   9.523   8.656  0.3984  0.1065 -1.8997
13356SOL     OW42446   6.580   9.458   3.856  0.3073 -0.1631 -0.2068
13356SOL    HW142447   6.532   9.476   3.776  0.3304 -0.7355 -0.3568
13356SOL    HW242448   6.620   9.542   3.881 -2.0466  0.7317  0.8003
13357SOL     OW42449   2.321   4.241   3.507 -0.6999  0.2208 -0.3886
13357SOL    HW142450   2.274   4.202   3.581 -0.1029 -1.0669 -0.6519
13357SOL    HW242451   2.261   4.232   3.433 -1.0996  1.0594 -0.1786
13358SOL     OW42452   9.875   2.951   8.948 -0.2165 -0.0269  0.0996
13358SOL    HW142453   9.942   2.992   9.003  2.2586 -2.0220 -1.1786
13358SOL    HW242454   9.795   2.955   8.999  0.8464  2.4046  1.7822
13359SOL     OW42455   2.369   0.337   1.598  0.1943  0.1269  0.8168
13359SOL    HW142456   2.412   0.407   1.549 -1.0428 -0.0365 -0.5769
13359SOL    HW242457   2.287   0.377   1.628 -0.6685 -0.7598 -0.2477
13360SOL     OW42458   8.059   8.367   1.384 -0.0304  0.4599 -0.1994
13360SOL    HW142459   8.036   8.343   1.474  0.4651  0.6667 -0.0112
13360SOL    HW242460   8.045   8.288   1.333  1.6260 -0.2793  0.4140
13361SOL     OW42461   3.476   0.749   4.045 -0.1785  0.2089  0.0590
13361SOL    HW142462   3.570   0.760   4.031 -0.2454  0.6662 -0.0169
13361SOL    HW242463   3.446   0.699   3.969  0.0551 -0.2049  0.2346
13362SOL     OW42464   8.235   8.187   5.022  0.5207 -0.5102  0.0741
13362SOL    HW142465   8.248   8.185   4.927  0.6205  4.0353 -0.2061
13362SOL    HW242466   8.316   8.222   5.057  0.3767 -1.8604  1.8697
13363SOL     OW42467   1.785   6.879   7.398  0.4162  0.4570 -0.4676
13363SOL    HW142468   1.877   6.870   7.375  0.4405  0.5820 -0.4199
13363SOL    HW242469   1.759   6.965   7.365  1.3446  2.2005  2.8617
13364SOL     OW42470   2.125   1.102   8.765 -0.3908  0.3241 -0.4534
13364SOL    HW142471   2.195   1.059   8.815 -0.8987 -0.5648 -0.4946
13364SOL    HW242472   2.168   1.179   8.727  1.0447 -1.0756 -1.8552
13365SOL     OW42473   5.400   1.659   7.054 -0.5199 -0.4551 -0.0524
13365SOL    HW142474   5.490   1.626   7.049 -0.8075 -1.0375 -2.0459
13365SOL    HW242475   5.411   1.752   7.075  0.7334  0.0735 -2.6345
13366SOL     OW42476   3.737   5.592  10.280 -0.1980 -0.3647 -0.1414
13366SOL    HW142477   3.788   5.574  10.200 -0.7933  0.3058 -0.6919
13366SOL    HW242478   3.731   5.688  10.283 -0.9452 -0.4171  0.2185
13367SOL     OW42479   8.247   5.436   8.964  0.2081  0.2327 -0.4974
13367SOL    HW142480   8.305   5.422   9.039 -0.8928  0.7457  0.4949
13367SOL    HW242481   8.175   5.375   8.978 -0.7822  1.4042 -0.2767
13368SOL     OW42482   8.244   6.642   8.106  0.2298  0.0357 -0.3319
13368SOL    HW142483   8.330   6.626   8.066 -0.7338 -2.1763 -1.7416
13368SOL    HW242484   8.244   6.587   8.184  0.8308  1.7120  0.9086
13369SOL     OW42485   4.216   1.926   3.754  0.5492 -0.4634  0.0775
13369SOL    HW142486   4.297   1.976   3.748  0.5078 -0.3964  0.0881
13369SOL    HW242487   4.234   1.846   3.704  0.2691  0.0142 -0.8068
13370SOL     OW42488   0.665   5.554   0.507  0.0925 -0.0626 -0.6474
13370SOL    HW142489   0.613   5.631   0.529 -0.0246 -0.0961 -0.8078
13370SOL    HW242490   0.711   5.577   0.427  1.6314  0.5919  0.3681
13371SOL     OW42491   8.518   5.657   1.793 -0.0175 -0.2488  0.0221
13371SOL    HW142492   8.440   5.607   1.766 -0.2565  0.5393 -0.8071
13371SOL    HW242493   8.487   5.747   1.802  0.5568 -0.1225  0.8346
13372SOL     OW42494   4.352   3.219   5.281  0.3634  0.3632  0.3936
13372SOL    HW142495   4.446   3.202   5.274  0.5715  1.7722 -0.9786
13372SOL    HW242496   4.346   3.308   5.315 -0.4902  0.1431  0.8542
13373SOL     OW42497   0.065   9.019  10.008 -0.1439 -0.0033  0.3669
13373SOL    HW142498   0.086   8.939   9.959  0.1926 -0.4307  1.1840
13373SOL    HW242499   0.110   9.007  10.092  1.7661  2.0042 -0.2768
13374SOL     OW42500   0.508   2.021   2.879  0.2486 -0.2691  0.0374
13374SOL    HW142501   0.483   1.944   2.929  0.9683  0.2859  1.2910
13374SOL    HW242502   0.584   1.994   2.828 -0.4422 -0.8126 -0.7372
13375SOL     OW42503   0.406   7.671   2.744 -0.4070 -0.4647  0.3240
13375SOL    HW142504   0.375   7.697   2.657  0.2397  0.9869  0.4928
13375SOL    HW242505   0.348   7.717   2.805  1.5098  1.7343  0.6350
13376SOL     OW42506  10.521   7.102   3.143 -0.5547 -0.0896 -0.1774
13376SOL    HW142507  10.558   7.160   3.210 -0.8203  0.3933 -0.4413
13376SOL    HW242508  10.593   7.043   3.120 -0.2567  0.1821  0.0409
13377SOL     OW42509   1.632   6.425   1.562 -0.3476  0.1019  0.0444
13377SOL    HW142510   1.654   6.424   1.469 -1.7313  0.3407 -0.3032
13377SOL    HW242511   1.682   6.353   1.599  0.6990  0.3861 -0.7581
13378SOL     OW42512   8.028   2.385   3.806 -0.4475  0.3277 -0.1054
13378SOL    HW142513   8.101   2.324   3.820 -1.4796 -0.6094  1.5103
13378SOL    HW242514   8.009   2.379   3.712  2.1902  1.3811 -0.7845
13379SOL     OW42515  10.272   4.511  10.581  0.0581  0.2462 -0.1629
13379SOL    HW142516  10.351   4.476  10.622  0.4291 -0.0743 -1.1257
13379SOL    HW242517  10.279   4.606  10.593  1.3303  0.3539 -1.4700
13380SOL     OW42518  10.645  10.549   1.475 -0.2264  0.2326  0.0357
13380SOL    HW142519  10.667  10.473   1.528  0.8671  1.2618  1.1209
13380SOL    HW242520  10.598  10.513   1.399  1.4555 -1.6543 -0.1880
13381SOL     OW42521   0.220   6.354   5.341 -0.3179 -0.0005 -0.0133
13381SOL    HW142522   0.307   6.380   5.371 -0.2198  0.7076 -0.8757
13381SOL    HW242523   0.181   6.308   5.416  0.7189 -0.1561  0.4402
13382SOL     OW42524   0.042   3.649   1.255 -0.0749 -0.5923 -0.2060
13382SOL    HW142525   0.005   3.605   1.332 -2.7806 -1.4096 -1.8687
13382SOL    HW242526   0.057   3.739   1.285 -1.2531 -0.8278  1.2333
13383SOL     OW42527   6.976  10.401   0.104 -0.1203 -0.2826  0.4276
13383SOL    HW142528   6.929  10.336   0.156 -0.2484 -0.0917  0.5520
13383SOL    HW242529   6.915  10.475   0.097  0.4405  0.2604  1.2109
13384SOL     OW42530   3.936   6.281   7.504  0.5505  0.9427  0.2862
13384SOL    HW142531   3.959   6.299   7.595  1.6232  0.7364  0.0737
13384SOL    HW242532   3.885   6.356   7.477 -0.2528  0.7505  1.2180
13385SOL     OW42533   5.956  10.139   6.290  0.4763 -0.0991  0.4254
13385SOL    HW142534   5.881  10.169   6.238  0.8010  0.6307  0.3561
13385SOL    HW242535   5.917  10.106   6.371  0.0409 -0.2097  0.1733
13386SOL     OW42536   9.351  10.141   3.755  0.4490  0.4868 -0.6111
13386SOL    HW142537   9.435  10.117   3.794  0.1541  3.1833  2.0294
13386SOL    HW242538   9.369  10.222   3.707 -0.7883  2.0180  1.3092
13387SOL     OW42539   5.862   7.616   2.331  0.7256  0.6127  0.5210
13387SOL    HW142540   5.881   7.708   2.352 -0.3780  0.3443  3.1083
13387SOL    HW242541   5.947   7.573   2.329  1.5859  2.0671 -3.5539
13388SOL     OW42542   1.899   7.970   3.045  0.1484 -0.3036  0.3133
13388SOL    HW142543   1.907   7.932   3.133  0.2020 -0.3607  0.2840
13388SOL    HW242544   1.872   8.061   3.060  1.8924  0.2175  0.4537
13389SOL     OW42545   8.785  10.682   2.012 -0.6785  0.0219 -0.4636
13389SOL    HW142546   8.733  10.646   1.941 -0.6760  1.3662 -1.1736
13389SOL    HW242547   8.814  10.605   2.062 -1.7212 -0.8569 -1.1675
13390SOL     OW42548   9.945  10.750   8.946 -0.1812  0.0104  0.1692
13390SOL    HW142549   9.996  10.827   8.970  0.5653 -0.1716 -0.7702
13390SOL    HW242550   9.900  10.725   9.027  1.4760 -0.0156  1.1279
13391SOL     OW42551   1.136   8.172   6.504 -0.0714 -0.2292  0.1421
13391SOL    HW142552   1.155   8.245   6.445 -0.9428 -1.2804 -1.5395
13391SOL    HW242553   1.120   8.098   6.445  0.6485 -1.7559  1.7821
13392SOL     OW42554   8.236   8.097  10.771  0.4019 -1.0510  0.4545
13392SOL    HW142555   8.239   8.115  10.677 -0.5032 -0.7044  0.4793
13392SOL    HW242556   8.323   8.063  10.792  1.6535  1.6226  0.0336
13393SOL     OW42557   2.576   3.428   6.201  0.1745  0.2301  0.1169
13393SOL    HW142558   2.598   3.396   6.114  2.0108 -1.1948  1.0428
13393SOL    HW242559   2.626   3.509   6.211  0.5538 -0.0078  0.1305
13394SOL     OW42560   6.607   0.306   8.861  0.1778 -0.3648 -0.1302
13394SOL    HW142561   6.577   0.215   8.859  0.5731 -0.4849 -1.3012
13394SOL    HW242562   6.693   0.302   8.903  0.5239 -0.6322 -0.8664
13395SOL     OW42563   4.702  10.157   7.459 -0.1060  0.4500  0.1283
13395SOL    HW142564   4.676  10.200   7.378 -0.4064  0.6771  0.3449
13395SOL    HW242565   4.656  10.073   7.458  1.1312 -0.2520 -0.6991
13396SOL     OW42566   5.832   2.612  10.259 -0.2611 -0.1618 -0.1913
13396SOL    HW142567   5.897   2.679  10.280  0.1207 -1.0802  1.7827
13396SOL    HW242568   5.757   2.661  10.225 -0.6977  1.5363  2.8587
13397SOL     OW42569   5.928   4.902  10.536  0.0688  0.1262 -0.7105
13397SOL    HW142570   5.948   4.964  10.466  2.3687  0.4924  0.1673
13397SOL    HW242571   5.855   4.942  10.583  0.2117  1.1749 -1.3336
13398SOL     OW42572   8.212   4.067   2.870 -0.3390 -0.0865  0.0319
13398SOL    HW142573   8.230   3.985   2.824  1.0776 -1.4159  2.7616
13398SOL    HW242574   8.295   4.091   2.909 -0.8992  2.3453 -0.1287
13399SOL     OW42575   6.300   4.483   3.622 -0.3352 -0.3459  0.4958
13399SOL    HW142576   6.358   4.560   3.623 -1.3903  0.4901  2.4586
13399SOL    HW242577   6.233   4.505   3.558 -0.2477  0.0733  0.5423
13400SOL     OW42578   4.638   2.620   4.363 -0.1911 -0.6336 -0.0919
13400SOL    HW142579   4.552   2.596   4.327 -1.1987  1.6560  0.6370
13400SOL    HW242580   4.685   2.660   4.289  0.9303 -3.2367 -0.9094
13401SOL     OW42581   5.778   8.127   3.206 -0.1678 -0.3934  0.1649
13401SOL    HW142582   5.691   8.139   3.168  0.6676  1.1215 -1.3810
13401SOL    HW242583   5.812   8.047   3.164 -0.2620 -0.1915 -0.3006
13402SOL     OW42584   9.076   1.894   7.130 -0.1000 -0.3112  0.0004
13402SOL    HW142585   9.078   1.891   7.035 -0.7133  0.9556 -0.0678
13402SOL    HW242586   9.154   1.846   7.158  1.9401  2.1019 -1.1879
13403SOL     OW42587   4.354   2.574   7.147 -0.3939 -0.1960 -0.0839
13403SOL    HW142588   4.282   2.625   7.184  0.0890  0.3695  0.0817
13403SOL    HW242589   4.374   2.617   7.064 -0.6625 -0.7338 -0.4361
13404SOL     OW42590   1.369   0.570   7.961 -0.1167  0.1736  0.5179
13404SOL    HW142591   1.444   0.545   7.907 -1.5657 -0.0450 -1.5174
13404SOL    HW242592   1.323   0.488   7.977 -0.7221  0.4977  0.4602
13405SOL     OW42593   4.725   2.129  10.626  0.1269  0.6951 -0.0154
13405SOL    HW142594   4.789   2.115  10.695 -0.2054  1.0951  0.3761
13405SOL    HW242595   4.706   2.041  10.592  0.8213  0.5691 -0.0854
13406SOL     OW42596   2.329   2.108   0.199 -0.3437 -0.3892 -0.9753
13406SOL    HW142597   2.353   2.086   0.109  0.9173  0.8263 -0.9733
13406SOL    HW242598   2.236   2.133   0.194 -0.5553 -1.2860 -1.7383
13407SOL     OW42599   4.008   7.858   6.373  0.2253  0.0496  0.0426
13407SOL    HW142600   3.953   7.807   6.314 -1.5761 -1.3516  2.7248
13407SOL    HW242601   4.088   7.805   6.383  1.0359  0.8297 -1.8639
13408SOL     OW42602   8.928   6.495   3.859 -0.2411  0.1191  0.1356
13408SOL    HW142603   8.938   6.510   3.953  0.4022 -1.1952  0.3033
13408SOL    HW242604   8.986   6.559   3.817 -0.1360  0.3570  0.6451
13409SOL     OW42605   3.092   8.387   5.174  0.2122 -0.1503 -0.5875
13409SOL    HW142606   3.095   8.483   5.166 -0.2639 -0.1063 -0.2421
13409SOL    HW242607   3.020   8.370   5.233  0.5103 -0.7155 -0.3817
13410SOL     OW42608   0.877   5.189   9.456  0.0745  0.2136  0.1002
13410SOL    HW142609   0.803   5.162   9.509 -1.0367 -0.6032 -1.7823
13410SOL    HW242610   0.901   5.275   9.490 -0.9134 -0.0496  1.5475
13411SOL     OW42611   1.911   8.031   5.482  0.1414  0.0279  0.0498
13411SOL    HW142612   1.896   7.973   5.408 -1.2970  1.1609 -0.5959
13411SOL    HW242613   1.858   7.993   5.553  0.5809 -0.3923  0.1616
13412SOL     OW42614   3.060  10.598   7.952  0.4602  0.4407 -0.1248
13412SOL    HW142615   3.009  10.636   8.024  0.7370 -2.2345  1.6275
13412SOL    HW242616   2.997  10.545   7.904  1.1048 -1.1896  0.7729
13413SOL     OW42617   1.735   9.358   5.050 -0.6642 -0.1395  0.0810
13413SOL    HW142618   1.693   9.388   5.131  0.8505 -0.2731  0.9554
13413SOL    HW242619   1.662   9.331   4.994 -1.7566 -0.0097  1.3814
13414SOL     OW42620   8.399   9.378   9.598 -0.3065 -0.4921 -0.6999
13414SOL    HW142621   8.419   9.297   9.551  2.4505 -1.4768  1.8576
13414SOL    HW242622   8.480   9.429   9.595 -1.0536  0.8181  0.2564
13415SOL     OW42623   4.094   4.675   0.581 -0.2874  0.5537 -0.3177
13415SOL    HW142624   4.036   4.601   0.600  0.3686  0.3399  0.9133
13415SOL    HW242625   4.069   4.703   0.493 -1.0025 -0.7056 -0.5313
13416SOL     OW42626   1.666   9.091   2.231  0.5809 -1.2994 -0.1002
13416SOL    HW142627   1.612   9.038   2.173 -0.6953  1.1311 -1.2475
13416SOL    HW242628   1.656   9.049   2.317 -0.3155 -2.9195 -0.9466
13417SOL     OW42629   1.635   1.671   9.154 -0.2040 -0.3787  0.4057
13417SOL    HW142630   1.587   1.742   9.110  2.3199  0.7629 -0.7126
13417SOL    HW242631   1.591   1.662   9.238 -1.0163  2.1328  0.3561
13418SOL     OW42632   7.686   2.909   2.640 -0.3503 -0.5825 -0.1370
13418SOL    HW142633   7.668   2.902   2.547 -1.0136  1.0481 -0.1685
13418SOL    HW242634   7.773   2.869   2.651  1.4168  2.2841 -2.0928
13419SOL     OW42635   3.694   8.815   0.225 -0.0278  0.4047  0.9902
13419SOL    HW142636   3.674   8.765   0.304 -0.0130 -0.8884  0.2184
13419SOL    HW242637   3.657   8.762   0.154 -0.8063  1.9580  0.1856
13420SOL     OW42638   0.731   3.262   9.207 -0.2486 -0.0786 -0.0858
13420SOL    HW142639   0.702   3.233   9.120  2.5183  2.8937 -2.2511
13420SOL    HW242640   0.665   3.327   9.233  0.5718  1.4643 -1.6346
13421SOL     OW42641   4.645   8.975   2.443 -0.0320 -0.6103  0.4729
13421SOL    HW142642   4.591   8.965   2.521 -0.7198 -1.6762 -0.1070
13421SOL    HW242643   4.582   8.978   2.371  0.4415  2.3135  0.0378
13422SOL     OW42644   7.056   6.890   7.039 -0.4747 -0.0922 -0.3684
13422SOL    HW142645   7.143   6.922   7.065  1.1998 -3.4090 -1.2817
13422SOL    HW242646   6.995   6.944   7.089  2.1692  0.9500  2.0384
13423SOL     OW42647   5.014   4.203   2.442  0.4719 -0.0167  0.2693
13423SOL    HW142648   5.013   4.299   2.438  2.0428  0.0149 -0.3843
13423SOL    HW242649   4.935   4.176   2.395  0.6338  0.9604 -0.6022
13424SOL     OW42650   8.354   9.623   0.954 -0.1733  0.7426 -0.2517
13424SOL    HW142651   8.325   9.700   0.906 -0.1020  0.8214 -0.1695
13424SOL    HW242652   8.284   9.607   1.018 -2.3616 -1.8217 -2.9915
13425SOL     OW42653   6.337   5.639   4.824  0.3153 -0.0433 -0.8280
13425SOL    HW142654   6.336   5.581   4.901  2.7158 -1.2002 -1.5714
13425SOL    HW242655   6.245   5.660   4.809 -0.6490 -3.1611 -0.1046
13426SOL     OW42656   1.086   2.057   5.200  0.4223  0.3289 -0.0309
13426SOL    HW142657   1.070   2.057   5.106 -1.0418 -0.6896  0.1935
13426SOL    HW242658   1.157   1.994   5.212 -1.0373 -1.4393 -0.2479
13427SOL     OW42659   4.954   8.937   1.991 -0.1690 -0.5677  0.2264
13427SOL    HW142660   4.999   9.021   1.986 -0.9538 -0.1617 -0.1379
13427SOL    HW242661   5.024   8.872   1.980  0.4395  0.0306  0.4897
13428SOL     OW42662   8.720   7.505   8.762 -0.2935 -0.0350  0.0161
13428SOL    HW142663   8.667   7.431   8.792  2.2137 -1.4610  1.3103
13428SOL    HW242664   8.782   7.520   8.833  3.3245 -0.8507 -2.7057
13429SOL     OW42665   9.073   6.642   1.783  0.1676  0.1950 -0.2050
13429SOL    HW142666   9.129   6.706   1.738 -1.9376  2.2239 -0.1656
13429SOL    HW242667   9.005   6.622   1.720 -2.6704  2.8483  1.7063
13430SOL     OW42668   3.514   4.604   5.255  0.3008 -0.0852  0.5301
13430SOL    HW142669   3.491   4.631   5.166 -0.4134  0.4408  0.8662
13430SOL    HW242670   3.456   4.655   5.311  1.2165  0.0987  1.3353
13431SOL     OW42671   9.817   0.636   5.815 -0.2277 -0.3151 -0.1079
13431SOL    HW142672   9.908   0.666   5.807 -0.6358  0.6717 -1.3980
13431SOL    HW242673   9.798   0.643   5.909  1.0864 -0.7322  0.2090
13432SOL     OW42674   6.894  10.273   6.713  0.3922 -0.5674 -0.0345
13432SOL    HW142675   6.837  10.325   6.769  2.2710  0.8348  0.6675
13432SOL    HW242676   6.865  10.293   6.624 -0.4558 -0.1981  0.3117
13433SOL     OW42677   1.436   6.268   1.272 -0.2264 -0.1551 -0.2195
13433SOL    HW142678   1.431   6.224   1.356 -2.1078  3.0742  1.5533
13433SOL    HW242679   1.529   6.287   1.260  0.1811 -1.4729  0.6111
13434SOL     OW42680   3.560   1.674   8.402  0.2615 -0.4477 -0.4807
13434SOL    HW142681   3.487   1.658   8.342  0.7656  0.0764 -1.2697
13434SOL    HW242682   3.528   1.647   8.488 -0.7032 -0.6290 -0.8828
13435SOL     OW42683   0.668   2.561   1.619 -0.0551  1.0806  0.7757
13435SOL    HW142684   0.656   2.544   1.712 -4.3105  0.1348  0.2442
13435SOL    HW242685   0.656   2.476   1.577 -1.1565  1.9590 -0.7824
13436SOL     OW42686   6.440   7.347   5.546  0.0134 -0.4506  0.2069
13436SOL    HW142687   6.503   7.411   5.514  0.3866 -1.2261 -0.6491
13436SOL    HW242688   6.413   7.381   5.632  1.0557  0.2607  0.2756
13437SOL     OW42689   7.644   4.592   9.923 -0.0269 -0.0335  0.2870
13437SOL    HW142690   7.553   4.570   9.908  0.0093  1.0025 -1.6979
13437SOL    HW242691   7.657   4.576  10.017 -2.5331  0.8828  0.8749
13438SOL     OW42692  10.133   6.122   2.323 -0.0175  0.3958 -0.0405
13438SOL    HW142693  10.037   6.126   2.324 -0.0591 -0.1028  1.3706
13438SOL    HW242694  10.161   6.213   2.319 -0.5300  0.5058 -1.5071
13439SOL     OW42695   1.067   8.180   1.049 -0.1234 -0.1981  0.4363
13439SOL    HW142696   1.003   8.243   1.082 -0.1573  0.3167 -0.5681
13439SOL    HW242697   1.035   8.095   1.080 -1.2346  0.0652  0.0674
13440SOL     OW42698  10.739  10.305   7.584 -0.3964 -0.8270 -0.4054
13440SOL    HW142699  10.686  10.283   7.507 -0.5706 -2.0987  0.0532
13440SOL    HW242700  10.770  10.220   7.616  2.0129 -0.1129 -0.6988
13441SOL     OW42701   9.108   3.737   4.303 -0.1504  0.1680 -0.1860
13441SOL    HW142702   9.028   3.720   4.253  1.3838 -0.9059 -2.4337
13441SOL    HW242703   9.176   3.746   4.237  1.3008  3.3679  1.5098
13442SOL     OW42704   3.756   6.323   9.194  0.3687 -0.1726  0.3254
13442SOL    HW142705   3.817   6.397   9.190 -0.4414  0.6877  2.4947
13442SOL    HW242706   3.797   6.262   9.255  0.2831 -0.7996 -0.2407
13443SOL     OW42707   3.313   9.706   6.996 -0.3485 -0.2911  0.1232
13443SOL    HW142708   3.397   9.713   6.952 -0.3975  0.1236  0.0960
13443SOL    HW242709   3.278   9.795   6.997 -0.8079 -0.4680  0.0934
13444SOL     OW42710   5.900   4.440   1.388  0.3017 -0.2539 -0.0667
13444SOL    HW142711   5.983   4.468   1.426 -0.5121  1.6165  0.4272
13444SOL    HW242712   5.914   4.445   1.294  1.1697 -1.3387 -0.0178
13445SOL     OW42713  10.212   4.028   8.537  0.0377  0.4321 -0.2054
13445SOL    HW142714  10.144   3.984   8.588  1.3339  0.7167  1.8770
13445SOL    HW242715  10.220   4.115   8.577  1.5030  0.4604 -0.4988
13446SOL     OW42716   7.031   4.847   7.476  0.5969 -0.0794  0.7480
13446SOL    HW142717   7.100   4.890   7.527  0.0833  0.8503  0.6868
13446SOL    HW242718   7.040   4.884   7.388 -0.4667  0.6395  0.9314
13447SOL     OW42719   5.701   7.171   6.400  0.2233  0.0724  0.0029
13447SOL    HW142720   5.760   7.139   6.332  1.1070  1.7101 -0.0464
13447SOL    HW242721   5.643   7.233   6.354 -0.3841 -0.1922  0.3960
13448SOL     OW42722   0.067   2.120   4.947 -0.7750 -0.0496 -0.2077
13448SOL    HW142723   0.052   2.106   5.041  1.2119 -1.3346 -0.0010
13448SOL    HW242724   0.024   2.046   4.905 -0.4289 -0.2818 -0.1615
13449SOL     OW42725   1.661   8.493   8.722 -0.4457  0.4155  0.3918
13449SOL    HW142726   1.576   8.467   8.759  0.1686 -0.7170  1.0638
13449SOL    HW242727   1.722   8.425   8.752  0.9092  1.7655  0.8007
13450SOL     OW42728   7.218   7.169   9.210 -0.1365  0.1139  0.4551
13450SOL    HW142729   7.173   7.250   9.185 -0.9206 -0.2134  0.7585
13450SOL    HW242730   7.306   7.177   9.173 -1.0143 -0.0403 -1.8216
13451SOL     OW42731   8.413   6.902   2.587 -0.0671  0.2764  0.0277
13451SOL    HW142732   8.427   6.890   2.681 -0.8318 -1.6721 -0.0619
13451SOL    HW242733   8.500   6.895   2.549  0.0934 -0.2556  0.4830
13452SOL     OW42734   0.105   3.659   4.746  0.2004  0.4511  0.0517
13452SOL    HW142735   0.129   3.741   4.703 -0.7355 -0.0327 -1.4607
13452SOL    HW242736   0.174   3.645   4.812  2.3177  0.7219 -1.9725
13453SOL     OW42737   1.800   4.011   9.434  0.1056 -0.1705 -0.7458
13453SOL    HW142738   1.880   3.969   9.466 -0.5057  0.3492  1.6893
13453SOL    HW242739   1.818   4.105   9.441 -0.7213 -0.0496 -0.0743
13454SOL     OW42740  10.398   3.579   8.664 -0.4530 -0.5408 -0.2417
13454SOL    HW142741  10.406   3.589   8.759 -0.0888  1.5737 -0.4436
13454SOL    HW242742  10.480   3.536   8.637 -0.5329 -1.0909  0.3795
13455SOL     OW42743   5.280   2.317   5.035 -0.5550 -0.4750 -0.3568
13455SOL    HW142744   5.289   2.224   5.054  0.3507 -0.5047 -0.8566
13455SOL    HW242745   5.205   2.346   5.087  1.5075 -0.5928  3.0313
13456SOL     OW42746   6.951   1.956  10.315 -0.4113  0.1507  0.4349
13456SOL    HW142747   6.876   2.016  10.323 -1.1142 -0.8445  1.8020
13456SOL    HW242748   6.948   1.904  10.395 -0.0053 -1.9178 -0.8309
13457SOL     OW42749  10.768   3.212   6.934  0.0805  0.0047  0.0052
13457SOL    HW142750  10.756   3.285   6.995 -0.0642  0.2777 -0.3460
13457SOL    HW242751  10.813   3.145   6.986 -0.1594  0.1789  0.4501
13458SOL     OW42752   2.501   2.708   7.496 -0.5603  0.7128 -0.4081
13458SOL    HW142753   2.446   2.750   7.562 -1.0992 -0.0950 -0.3328
13458SOL    HW242754   2.453   2.629   7.472  0.6221 -0.0623 -0.2760
13459SOL     OW42755   2.939   1.301   9.160  0.2767  0.2197  0.1925
13459SOL    HW142756   2.992   1.241   9.212  0.1720  1.8744  2.3503
13459SOL    HW242757   2.991   1.317   9.081  0.4215 -2.4094 -0.3473
13460SOL     OW42758   9.414   9.943   9.343 -0.1885 -0.2697  0.0907
13460SOL    HW142759   9.463   9.985   9.273 -1.1885 -1.6098 -1.4900
13460SOL    HW242760   9.348   9.890   9.298 -0.8703 -1.1950  2.0489
13461SOL     OW42761  10.668   2.482   5.973  0.0300 -0.6146 -0.2048
13461SOL    HW142762  10.596   2.473   5.911  0.9631 -2.9048 -1.0807
13461SOL    HW242763  10.663   2.573   6.003 -2.0307 -0.1769 -1.6529
13462SOL     OW42764   7.253  10.741   0.931 -0.3163 -0.0197  0.4810
13462SOL    HW142765   7.345  10.715   0.931 -0.7758 -1.9182 -1.1139
13462SOL    HW242766   7.240  10.783   0.846 -1.2361 -1.2535 -0.0269
13463SOL     OW42767   7.357   5.446   5.278  0.0482 -0.0241  0.1296
13463SOL    HW142768   7.314   5.407   5.202 -2.5722  2.1904  0.2967
13463SOL    HW242769   7.363   5.375   5.342 -0.8535 -1.0943 -0.9340
13464SOL     OW42770   7.206   5.303  10.796  0.4062  0.4483  0.1294
13464SOL    HW142771   7.189   5.217  10.757  0.7981  1.5607 -2.7265
13464SOL    HW242772   7.122   5.349  10.789  0.8702  1.1654 -0.8155
13465SOL     OW42773   5.805   3.437   8.816  0.0656  0.5417  0.0302
13465SOL    HW142774   5.829   3.367   8.877 -0.5273 -1.0527 -1.4969
13465SOL    HW242775   5.779   3.392   8.736 -1.0165  2.4872 -0.7935
13466SOL     OW42776   2.796   7.827   6.608 -0.2499 -0.0122 -0.6973
13466SOL    HW142777   2.744   7.777   6.670  1.2791 -0.3759  0.3532
13466SOL    HW242778   2.851   7.763   6.564 -1.2184  0.2514 -2.4271
13467SOL     OW42779   9.011  10.185   0.098  0.0928  0.7767  0.3078
13467SOL    HW142780   8.934  10.150   0.142  0.2790  0.7589  0.6201
13467SOL    HW242781   8.980  10.264   0.054 -0.7442 -0.6202 -1.8066
13468SOL     OW42782   8.300  10.255   5.016  0.5759  0.1570  0.1526
13468SOL    HW142783   8.274  10.263   5.108  1.5835  1.3616  0.3493
13468SOL    HW242784   8.266  10.334   4.975  0.4913 -0.1790 -0.4311
13469SOL     OW42785   1.612   9.112   1.458  0.4354  0.2154  0.8835
13469SOL    HW142786   1.651   9.093   1.372 -2.0110 -0.4600 -0.1767
13469SOL    HW242787   1.581   9.027   1.489  0.5768  0.5880  2.0780
13470SOL     OW42788   8.969   1.043  10.756  0.2921  0.5375 -0.3987
13470SOL    HW142789   8.995   1.038  10.848  3.3529  1.6925 -1.0802
13470SOL    HW242790   8.970   1.137  10.736 -0.1056  0.2892 -1.6798
13471SOL     OW42791   6.898   4.879   0.830 -0.6733 -0.1608 -0.1142
13471SOL    HW142792   6.900   4.799   0.883 -1.2306 -0.0720  0.0570
13471SOL    HW242793   6.935   4.946   0.888  1.3994 -0.5978 -0.8484
13472SOL     OW42794  10.530   0.870   4.148  0.6061 -0.3145  0.3573
13472SOL    HW142795  10.457   0.809   4.160 -0.1693  0.4431 -0.3291
13472SOL    HW242796  10.562   0.888   4.236 -2.0713  1.7279  1.0576
13473SOL     OW42797   4.950   7.636   1.427  0.4344  0.2852  0.5113
13473SOL    HW142798   4.947   7.680   1.513  0.8012  0.6603  0.3356
13473SOL    HW242799   4.859   7.626   1.403  0.3177 -0.0954  1.0862
13474SOL     OW42800   1.047   4.700  10.590  0.2982  0.4453 -0.4598
13474SOL    HW142801   0.953   4.689  10.577 -0.0168  2.6225 -0.3258
13474SOL    HW242802   1.086   4.629  10.539 -1.3521  0.6943 -2.1956
13475SOL     OW42803   2.939   9.353   6.168  0.8431 -0.0421  0.1852
13475SOL    HW142804   2.962   9.397   6.087 -2.3740  1.7382  0.0426
13475SOL    HW242805   2.923   9.262   6.143 -0.1539  0.4976 -1.2574
13476SOL     OW42806  10.274   7.891   0.844 -0.4405  0.6760  0.1418
13476SOL    HW142807  10.236   7.868   0.759  1.5603 -1.9728 -0.1549
13476SOL    HW242808  10.346   7.951   0.822 -0.4786  0.6994  0.0769
13477SOL     OW42809   4.370   0.131   8.673 -0.0676  0.2104 -1.1694
13477SOL    HW142810   4.389   0.201   8.611 -0.1306  0.7585 -0.5746
13477SOL    HW242811   4.455   0.108   8.710  0.0974 -0.6943 -2.0407
13478SOL     OW42812   1.346   5.232   4.882  0.1777 -0.3364 -0.2257
13478SOL    HW142813   1.367   5.145   4.915  2.2035 -0.0125 -0.5513
13478SOL    HW242814   1.325   5.283   4.960  2.4635 -0.2355  0.3963
13479SOL     OW42815   2.402  10.017   4.657  0.2204 -0.5892  0.0901
13479SOL    HW142816   2.389   9.936   4.608 -0.4449  0.5706 -1.7443
13479SOL    HW242817   2.450   9.990   4.735  1.9992 -2.4239 -1.5277
13480SOL     OW42818   7.854   5.065   0.424  0.5593 -0.1248  0.2151
13480SOL    HW142819   7.907   5.129   0.471 -0.1777 -0.8520  2.1236
13480SOL    HW242820   7.764   5.082   0.452  0.4125 -2.4078  1.3663
13481SOL     OW42821  10.368   8.118   1.889 -0.3220  0.2714 -0.5255
13481SOL    HW142822  10.459   8.143   1.871 -0.1184 -0.7357 -0.9427
13481SOL    HW242823  10.349   8.158   1.974  0.7598 -0.1141 -0.0835
13482SOL     OW42824   1.636  10.375   2.147 -0.5180  0.5778 -0.2439
13482SOL    HW142825   1.617  10.444   2.211 -1.1667 -0.1332  0.3512
13482SOL    HW242826   1.661  10.422   2.068 -2.9706  1.5553 -0.5125
13483SOL     OW42827   3.178   7.293   1.530 -0.5326  0.0158  0.0277
13483SOL    HW142828   3.254   7.307   1.473 -1.3917  2.4336 -0.6332
13483SOL    HW242829   3.122   7.232   1.481 -0.7621  1.2257 -1.2735
13484SOL     OW42830   5.187   6.410   9.160 -0.1781  0.0219  0.0563
13484SOL    HW142831   5.255   6.344   9.172  0.7152  0.9440  0.1055
13484SOL    HW242832   5.150   6.422   9.247  0.4473  0.4213  0.2732
13485SOL     OW42833   3.204  10.535   6.137 -0.2801 -0.2146 -0.0776
13485SOL    HW142834   3.169  10.603   6.079 -0.8624 -0.4072  0.0373
13485SOL    HW242835   3.244  10.472   6.078  1.0974  0.6767 -0.1343
13486SOL     OW42836   1.932   9.075   8.445  0.7756  0.2962  0.0377
13486SOL    HW142837   1.903   9.069   8.354 -1.2662 -1.1718  0.7146
13486SOL    HW242838   2.023   9.106   8.439  0.1899  1.8371 -2.3942
13487SOL     OW42839   4.606   6.916   3.998 -0.3841 -0.2836 -0.1903
13487SOL    HW142840   4.551   6.981   3.956 -0.6201 -0.3637 -0.0059
13487SOL    HW242841   4.545   6.846   4.025 -0.5074  0.5058  1.7751
13488SOL     OW42842   0.975   8.240   0.557 -0.4723 -0.0620  0.0421
13488SOL    HW142843   1.013   8.173   0.614  0.2758 -0.5053 -0.9284
13488SOL    HW242844   1.004   8.323   0.595  0.9458 -0.3713 -0.2819
13489SOL     OW42845   5.518   0.444   0.290  0.0322  0.6657  0.5785
13489SOL    HW142846   5.556   0.477   0.371 -1.3294 -3.0802  3.0266
13489SOL    HW242847   5.583   0.382   0.257 -0.4604  0.3664  0.1603
13490SOL     OW42848   1.235   9.605   0.204  0.1108 -0.6807 -0.0828
13490SOL    HW142849   1.322   9.578   0.234  0.4814 -1.3571 -1.6960
13490SOL    HW242850   1.251   9.664   0.131 -0.7938 -0.0256  0.2244
13491SOL     OW42851   1.173   5.701   1.011  0.2654 -0.2032 -0.2384
13491SOL    HW142852   1.222   5.710   0.929  1.3877 -0.1480  0.4116
13491SOL    HW242853   1.120   5.622   0.999  0.7649 -0.4574 -0.8523
13492SOL     OW42854   9.892   5.266   2.591 -0.0439  0.3053  0.2621
13492SOL    HW142855   9.960   5.315   2.546 -0.7744  2.6191  1.5337
13492SOL    HW242856   9.841   5.226   2.521  1.6886 -0.2305 -0.7497
13493SOL     OW42857   5.601  10.314   7.373  0.3618 -0.1996 -0.1958
13493SOL    HW142858   5.681  10.265   7.353  0.1341 -1.2947  1.4364
13493SOL    HW242859   5.572  10.280   7.458 -1.7519  0.3052 -0.6627
13494SOL     OW42860   1.496   7.303   0.826  0.5336 -0.0471 -0.0682
13494SOL    HW142861   1.589   7.279   0.829  0.3871 -1.3280 -2.6120
13494SOL    HW242862   1.450   7.223   0.853  0.1659 -0.0426 -0.6549
13495SOL     OW42863   4.081   3.236   1.933 -0.5030 -0.1010  0.4613
13495SOL    HW142864   3.992   3.265   1.951 -0.6489 -0.1175 -0.2234
13495SOL    HW242865   4.127   3.314   1.903 -0.1421  0.0209  1.3020
13496SOL     OW42866   9.942   9.361   5.765 -0.5258 -0.5129  0.0192
13496SOL    HW142867   9.892   9.441   5.750 -1.0654 -0.7642  0.3972
13496SOL    HW242868   9.993   9.348   5.685  0.2854  0.7009  0.3187
13497SOL     OW42869   1.205   9.488   3.539 -0.0967 -0.6699 -0.2148
13497SOL    HW142870   1.109   9.485   3.534 -0.1880 -1.6612  1.4783
13497SOL    HW242871   1.225   9.580   3.555 -0.5492  0.0461 -3.2091
13498SOL     OW42872   6.689   1.300   1.977 -0.3588  0.1775 -0.2940
13498SOL    HW142873   6.666   1.294   2.070 -0.5011  0.1725 -0.3294
13498SOL    HW242874   6.650   1.382   1.948 -0.4011  0.1285 -0.3746
13499SOL     OW42875   6.306   3.464   7.824  0.1729  0.0142 -0.3635
13499SOL    HW142876   6.320   3.520   7.900 -0.0282 -2.3571  1.5301
13499SOL    HW242877   6.214   3.475   7.801  0.1930  0.6006 -0.1572
13500SOL     OW42878   6.883   3.875   2.482 -0.2704 -0.3564 -0.0405
13500SOL    HW142879   6.951   3.850   2.544  0.9663  0.8128 -0.8763
13500SOL    HW242880   6.911   3.836   2.399  0.4367  1.6810 -0.8202
13501SOL     OW42881   3.011   2.465   4.080 -0.1875  0.0727  0.0811
13501SOL    HW142882   3.027   2.471   4.175  2.2694 -0.9016 -0.2105
13501SOL    HW242883   3.073   2.525   4.041  2.0417 -2.7215 -1.0632
13502SOL     OW42884   7.420   5.804   6.312 -0.2141  0.9488 -0.0679
13502SOL    HW142885   7.415   5.710   6.296  1.7385  0.8882 -0.6267
13502SOL    HW242886   7.514   5.824   6.309 -0.6609  3.2578 -1.9942
13503SOL     OW42887   2.561   5.844   2.298 -0.3673 -0.6973  0.0916
13503SOL    HW142888   2.512   5.810   2.373 -0.0797 -2.0553 -0.3076
13503SOL    HW242889   2.496   5.847   2.227 -0.8679  1.4098  0.5470
13504SOL     OW42890   3.724  10.651   0.309  0.3194  0.0627 -0.2879
13504SOL    HW142891   3.661  10.582   0.332  1.8141 -1.1025  0.5178
13504SOL    HW242892   3.805  10.624   0.352  1.3063  1.6626 -1.0625
13505SOL     OW42893   8.963   9.591   5.776  0.4082  0.8162 -0.3342
13505SOL    HW142894   9.013   9.624   5.851  0.0355 -0.2192  0.3833
13505SOL    HW242895   8.941   9.670   5.726  0.7515  1.5124  0.5833
13506SOL     OW42896   1.023   0.508  10.527  0.3134 -0.0245  0.0987
13506SOL    HW142897   0.970   0.577  10.487 -1.2387 -1.4527 -0.4381
13506SOL    HW242898   0.977   0.486  10.608  0.2366 -1.0774 -0.2198
13507SOL     OW42899   1.407   1.594   8.787  0.2705  0.4532 -0.0641
13507SOL    HW142900   1.358   1.611   8.868 -0.1322  0.6705 -0.3526
13507SOL    HW242901   1.499   1.604   8.812  0.2671 -1.3122  0.8187
13508SOL     OW42902   7.641   2.628   9.574  0.3099  0.0071 -0.3326
13508SOL    HW142903   7.705   2.685   9.617  1.2379 -0.5630 -0.9113
13508SOL    HW242904   7.556   2.658   9.606  0.9401 -0.2923  1.7724
13509SOL     OW42905   3.897   4.350   6.008  0.1620  0.3409 -0.3725
13509SOL    HW142906   3.895   4.431   5.958 -1.7141  0.5615 -0.0125
13509SOL    HW242907   3.913   4.282   5.943 -2.3047  0.6158 -1.4032
13510SOL     OW42908   3.355   2.417   3.928  0.1808  0.1027 -0.2914
13510SOL    HW142909   3.449   2.437   3.934 -0.4153  3.1062  0.6688
13510SOL    HW242910   3.330   2.447   3.841 -0.6663  3.9414  1.0657
13511SOL     OW42911   9.694   6.349   7.434 -0.0313  0.3824 -0.1561
13511SOL    HW142912   9.676   6.396   7.515  1.6396  1.8769 -0.5959
13511SOL    HW242913   9.787   6.326   7.440 -0.3041 -1.0364 -0.9039
13512SOL     OW42914   1.784   2.078   4.800  0.0190  0.3897  0.1646
13512SOL    HW142915   1.742   2.127   4.871  1.4338  1.2374  0.4599
13512SOL    HW242916   1.830   2.144   4.749  1.2305 -0.4945  0.0414
13513SOL     OW42917   9.948   4.973   9.073 -0.4591 -0.0304  0.2629
13513SOL    HW142918   9.892   5.045   9.043  0.4027 -0.0794 -1.5541
13513SOL    HW242919   9.990   4.940   8.994  1.1802 -0.8323  1.4098
13514SOL     OW42920   2.605   2.118  10.749 -0.1206  0.3274 -0.1568
13514SOL    HW142921   2.656   2.050  10.793  0.4230  0.9585  0.1967
13514SOL    HW242922   2.648   2.200  10.772 -1.0719  0.8448 -0.1666
13515SOL     OW42923   0.555   7.499   3.838 -0.0301 -0.5034 -0.0963
13515SOL    HW142924   0.485   7.565   3.839  0.4921  0.0626 -0.3883
13515SOL    HW242925   0.519   7.426   3.888 -0.0837  0.5586  1.5023
13516SOL     OW42926   8.906   5.417   4.975  0.0965  0.3654 -0.7678
13516SOL    HW142927   8.831   5.461   5.016 -0.1412 -1.4408  0.8812
13516SOL    HW242928   8.981   5.440   5.030  0.2729  0.0812 -0.8852
13517SOL     OW42929   2.502   8.638   4.447 -0.0357 -0.4281  0.1989
13517SOL    HW142930   2.442   8.657   4.376  0.1838  1.2577  0.4244
13517SOL    HW242931   2.479   8.701   4.516  0.9705 -0.7796  0.8846
13518SOL     OW42932   1.166   3.076   2.244  0.0831 -0.6268  0.3386
13518SOL    HW142933   1.156   3.041   2.332  1.0844 -1.2431  0.2355
13518SOL    HW242934   1.079   3.068   2.204 -0.1022 -1.4507  0.8857
13519SOL     OW42935   2.721   0.207   4.506 -0.6774 -0.0076 -0.0625
13519SOL    HW142936   2.693   0.293   4.473 -1.5950 -0.5843 -0.8691
13519SOL    HW242937   2.718   0.216   4.601 -0.4184  0.9587 -0.1308
13520SOL     OW42938   0.153   7.815   5.394 -0.1739  0.6299 -0.7936
13520SOL    HW142939   0.197   7.896   5.421  0.6974  0.1666 -0.7771
13520SOL    HW242940   0.090   7.798   5.464  2.0360 -0.5314  1.0852
13521SOL     OW42941   3.192   9.186   6.430  0.5468  0.4960  0.5058
13521SOL    HW142942   3.166   9.188   6.338 -2.4515 -0.5710  1.2203
13521SOL    HW242943   3.229   9.099   6.442 -0.2067  0.1730  0.5508
13522SOL     OW42944   8.015   7.671   9.858 -0.4986 -0.4632  0.5576
13522SOL    HW142945   7.990   7.719   9.779  0.9635 -0.1001  0.2912
13522SOL    HW242946   7.935   7.669   9.910 -1.0888  0.6487 -0.2459
13523SOL     OW42947   0.025   8.588   4.241  0.0008  0.0608 -0.8050
13523SOL    HW142948   0.042   8.677   4.210  2.1831 -0.3612 -0.9862
13523SOL    HW242949   0.112   8.552   4.259 -0.9642 -1.0901  2.0526
13524SOL     OW42950   6.447   8.998   8.603  0.6682  0.1901  0.5814
13524SOL    HW142951   6.449   9.025   8.511  2.4594  1.3312  0.8925
13524SOL    HW242952   6.356   9.010   8.630 -0.0813 -1.0185 -1.2551
13525SOL     OW42953  10.712   7.543  10.093 -0.0064 -0.0262 -0.2007
13525SOL    HW142954  10.627   7.578  10.121 -0.0198 -0.0119 -0.2593
13525SOL    HW242955  10.737   7.482  10.162  0.8006  1.3214  0.7461
13526SOL     OW42956   5.261   8.313   7.332  0.2073  0.2432 -0.7482
13526SOL    HW142957   5.344   8.358   7.344 -0.2059  0.4722  1.5619
13526SOL    HW242958   5.246   8.266   7.414 -3.5972  3.0415  0.4129
13527SOL     OW42959  10.223   1.211  10.519  0.4773  0.3197 -0.1245
13527SOL    HW142960  10.228   1.268  10.596 -0.6983  0.7238 -0.3371
13527SOL    HW242961  10.284   1.251  10.456  0.7532  0.5052  0.2584
13528SOL     OW42962   5.324   0.468   8.074 -0.1646  0.1895  0.2343
13528SOL    HW142963   5.259   0.420   8.023 -0.5535  1.2505 -0.2979
13528SOL    HW242964   5.307   0.560   8.055  1.4132  0.5080  0.1991
13529SOL     OW42965   9.800  10.403   3.054 -0.2542  0.0803 -0.3284
13529SOL    HW142966   9.811  10.316   3.017 -0.7187 -0.1652  0.1024
13529SOL    HW242967   9.814  10.391   3.148 -2.3869  0.0498  0.0430
13530SOL     OW42968   1.095   1.759   7.876 -0.0086  0.1195 -0.3547
13530SOL    HW142969   0.999   1.760   7.876 -0.0049  0.3776 -0.2332
13530SOL    HW242970   1.119   1.737   7.966  0.0403 -0.4973 -0.5150
13531SOL     OW42971   6.992   3.581   2.607 -0.0754 -0.2775  0.2267
13531SOL    HW142972   6.990   3.529   2.527  1.3310 -1.2388  0.7865
13531SOL    HW242973   7.015   3.519   2.676  1.2504  0.9986  0.9908
13532SOL     OW42974   8.503   8.818   4.332 -0.3055 -0.3952  0.2140
13532SOL    HW142975   8.440   8.846   4.398  0.7879 -0.9472  1.5280
13532SOL    HW242976   8.449   8.794   4.256 -1.6407 -0.4910  1.1558
13533SOL     OW42977   4.597   5.580   3.724 -0.5376  0.5525 -0.0969
13533SOL    HW142978   4.611   5.669   3.693  0.1078  1.3208  2.1867
13533SOL    HW242979   4.577   5.590   3.817  0.0576 -1.7067  0.3407
13534SOL     OW42980   8.777   2.141   3.678  0.9589 -0.2525  0.1669
13534SOL    HW142981   8.763   2.234   3.694  0.7462 -0.2719  0.1001
13534SOL    HW242982   8.872   2.129   3.686  1.0562  0.0830 -0.4240
13535SOL     OW42983   6.979   0.500   2.277 -0.1071 -0.0041 -0.2778
13535SOL    HW142984   7.006   0.591   2.270 -0.1578  0.2107  1.7510
13535SOL    HW242985   7.037   0.453   2.218  1.5017  1.0591  0.3955
13536SOL     OW42986   0.758   0.901   1.303  0.3788 -0.1564 -0.5714
13536SOL    HW142987   0.746   0.859   1.388 -0.1064 -0.1609 -0.6351
13536SOL    HW242988   0.706   0.982   1.308  0.5070 -0.0580 -0.7917
13537SOL     OW42989   0.726   7.892   5.528 -0.0499  0.3619 -0.1575
13537SOL    HW142990   0.723   7.982   5.496  1.0741 -0.1726 -1.9185
13537SOL    HW242991   0.799   7.892   5.591 -1.5732  1.1633  1.7271
13538SOL     OW42992  10.304   8.632   8.904  0.4282 -0.0647 -0.3999
13538SOL    HW142993  10.383   8.589   8.870 -0.2471 -0.2280 -1.8724
13538SOL    HW242994  10.236   8.566   8.894 -0.1885  0.5991 -0.6007
13539SOL     OW42995   2.701   6.460   6.818  0.0910 -0.0796 -0.0415
13539SOL    HW142996   2.733   6.549   6.835  0.2755 -0.3188  0.9214
13539SOL    HW242997   2.617   6.473   6.774  0.5212  0.5647 -0.7039
13540SOL     OW42998   9.140   3.772   6.857 -0.0500 -0.6328  0.0462
13540SOL    HW142999   9.129   3.839   6.790  0.8805  0.5988  1.0812
13540SOL    HW243000   9.182   3.699   6.812 -0.6959 -0.3809 -1.0007
13541SOL     OW43001   2.294  10.037   5.389  0.3729 -0.1934  0.1155
13541SOL    HW143002   2.368  10.045   5.449  0.4026 -0.2011  0.0802
13541SOL    HW243003   2.281  10.125   5.354 -1.2373  0.3894  1.9968
13542SOL     OW43004   9.888   7.141   2.388 -0.1770 -0.0464 -0.3336
13542SOL    HW143005   9.872   7.046   2.388  0.7990 -0.2408  1.1602
13542SOL    HW243006   9.952   7.154   2.319  0.4585 -0.6335  0.1372
13543SOL     OW43007  10.554   8.601   0.653  0.0285  0.6562  0.6541
13543SOL    HW143008  10.620   8.670   0.667 -1.3630  1.7830  1.9849
13543SOL    HW243009  10.599   8.536   0.600  1.6540  2.2309 -0.0134
13544SOL     OW43010   2.983   2.487   5.094 -0.3882  0.2730 -0.2142
13544SOL    HW143011   2.897   2.468   5.056 -0.0847 -3.8880  0.6832
13544SOL    HW243012   3.038   2.507   5.018 -1.7141  1.2981 -0.9619
13545SOL     OW43013   3.512   8.596   9.363  0.3078  0.5089 -0.6706
13545SOL    HW143014   3.462   8.653   9.422  0.7799 -0.2780  0.5234
13545SOL    HW243015   3.487   8.625   9.275  0.8115  2.8169 -0.1172
13546SOL     OW43016   8.396   3.142   2.330 -0.2087  0.0069 -0.0184
13546SOL    HW143017   8.341   3.086   2.275  1.2776 -0.5369 -1.0187
13546SOL    HW243018   8.485   3.113   2.311  0.4127  0.4862  1.9575
13547SOL     OW43019   5.841   5.615   8.583 -0.1418  0.4441 -0.4344
13547SOL    HW143020   5.855   5.524   8.608  2.9664  1.7730  3.5215
13547SOL    HW243021   5.748   5.630   8.601 -0.8001 -1.8739 -1.4181
13548SOL     OW43022   5.641   7.024   8.943 -0.7221  0.4681  0.5098
13548SOL    HW143023   5.592   6.952   8.981  0.6664 -0.4375  0.6356
13548SOL    HW243024   5.599   7.040   8.858  0.0789 -1.7646 -0.3802
13549SOL     OW43025   9.555   9.638   0.471  0.3292 -0.2309 -0.0812
13549SOL    HW143026   9.565   9.609   0.562 -1.5892 -3.3076 -0.6991
13549SOL    HW243027   9.461   9.656   0.462  0.3099 -0.9332 -1.6569
13550SOL     OW43028   3.204   2.590   4.954 -0.3876 -0.3750  0.0548
13550SOL    HW143029   3.155   2.669   4.935 -1.7937 -1.0869  0.6091
13550SOL    HW243030   3.293   2.609   4.924 -1.1784  0.6100 -1.8174
13551SOL     OW43031   2.834   7.028   6.802 -0.2140 -1.0373  0.2651
13551SOL    HW143032   2.896   6.956   6.800 -0.0731 -0.9059 -0.7869
13551SOL    HW243033   2.884   7.103   6.832  0.1822 -0.9027 -0.7000
13552SOL     OW43034   5.602   7.862   5.337 -1.0146  0.3892 -0.0552
13552SOL    HW143035   5.549   7.783   5.343 -2.6543  1.4819  0.6776
13552SOL    HW243036   5.543   7.928   5.300  0.3885  1.2203 -0.9361
13553SOL     OW43037   1.772   8.218   1.431  0.3648 -0.2451 -0.5599
13553SOL    HW143038   1.812   8.294   1.390  1.2077 -0.0436  0.5751
13553SOL    HW243039   1.678   8.232   1.422  0.4924  1.3245  0.2781
13554SOL     OW43040   2.676   6.546   4.216  0.1561  0.1184 -0.0364
13554SOL    HW143041   2.748   6.488   4.191  0.2454  1.3367 -3.0856
13554SOL    HW243042   2.690   6.625   4.163 -0.8214  2.3628  2.7652
13555SOL     OW43043   8.310   9.520   0.525  0.0563 -0.2821 -0.7105
13555SOL    HW143044   8.265   9.598   0.558 -0.2887 -0.9454  0.4344
13555SOL    HW243045   8.345   9.477   0.603  0.1919 -1.3061 -1.3149
13556SOL     OW43046   4.663   7.932   6.600  0.2668 -0.4897 -0.5290
13556SOL    HW143047   4.607   7.988   6.546 -0.1120  0.6026  0.8973
13556SOL    HW243048   4.603   7.868   6.638  0.1461 -0.0204  0.1086
13557SOL     OW43049   8.828   1.870  10.313 -0.3377  0.5887  0.2702
13557SOL    HW143050   8.862   1.854  10.401  0.2195 -0.0504 -0.0579
13557SOL    HW243051   8.773   1.794  10.294 -0.3296  0.6480  0.0008
13558SOL     OW43052   1.470  10.769   7.851  0.4431  0.1969  0.2905
13558SOL    HW143053   1.387  10.811   7.829  0.6968 -0.5719 -2.5368
13558SOL    HW243054   1.524  10.840   7.885 -0.6116  1.2265 -0.1075
13559SOL     OW43055   9.145   1.412   2.180 -0.2177 -0.5520  0.0737
13559SOL    HW143056   9.076   1.476   2.197 -0.4864 -0.6981 -0.4457
13559SOL    HW243057   9.180   1.391   2.266  0.6707  1.1725  0.1821
13560SOL     OW43058   6.496   8.227   9.541 -0.4917 -0.3521  0.2329
13560SOL    HW143059   6.535   8.157   9.592  1.5489  0.8615  0.4242
13560SOL    HW243060   6.411   8.243   9.582 -0.4848 -1.9107  0.8811
13561SOL     OW43061  10.789   4.448   0.992 -0.4045  0.4054 -0.5769
13561SOL    HW143062  10.721   4.385   1.016 -0.4204  1.2240  1.8210
13561SOL    HW243063  10.741   4.529   0.974 -0.1466  0.8935  0.7912
13562SOL     OW43064  10.139   8.381   4.916 -0.0854 -0.1978  0.2148
13562SOL    HW143065  10.214   8.376   4.856 -1.1981 -1.8219 -1.1186
13562SOL    HW243066  10.178   8.407   4.999  1.7546  0.4675 -0.7849
13563SOL     OW43067   8.558   2.419   7.334 -0.4950  0.7264 -0.4299
13563SOL    HW143068   8.569   2.358   7.406  1.3101  1.4951  0.0014
13563SOL    HW243069   8.463   2.424   7.320 -0.8097 -0.1991  1.2058
13564SOL     OW43070   4.021   1.566   6.275  0.6567 -0.3500  0.5950
13564SOL    HW143071   4.115   1.582   6.288  0.9260 -0.7023 -0.7728
13564SOL    HW243072   4.004   1.484   6.321  0.9690 -0.1908  1.0055
13565SOL     OW43073   6.537   8.407   6.794 -0.3615  0.0280 -0.0461
13565SOL    HW143074   6.530   8.333   6.734 -0.9643  1.1610 -1.4051
13565SOL    HW243075   6.576   8.477   6.742 -2.8980  1.7323  0.1657
13566SOL     OW43076   8.483   7.385   0.061  0.1664  0.1842  0.4693
13566SOL    HW143077   8.454   7.449  -0.004 -0.8034 -0.4715  0.2426
13566SOL    HW243078   8.458   7.423   0.145 -0.5698  0.0237  0.3255
13567SOL     OW43079   7.796   3.997   2.239 -0.3811  0.2731 -0.6034
13567SOL    HW143080   7.823   4.068   2.181 -2.3852  1.2295 -0.4627
13567SOL    HW243081   7.873   3.942   2.248  0.2467  0.5343 -3.4920
13568SOL     OW43082   2.934   5.454   4.491 -0.0169 -0.1659  0.5827
13568SOL    HW143083   2.896   5.420   4.572 -1.5103 -0.0670 -0.0389
13568SOL    HW243084   2.998   5.388   4.465  0.2551 -0.3536  1.6495
13569SOL     OW43085  10.495   5.654   5.856  0.2509 -0.3050 -0.2523
13569SOL    HW143086  10.533   5.677   5.941 -0.9014  0.1340  0.1604
13569SOL    HW243087  10.538   5.572   5.833  1.0628 -0.0941  0.4352
13570SOL     OW43088   1.731  10.529   8.320  0.2377 -0.5295 -0.7887
13570SOL    HW143089   1.760  10.549   8.231  1.1490  0.8398 -0.2143
13570SOL    HW243090   1.792  10.463   8.351  0.6051 -0.1891 -0.7900
13571SOL     OW43091   0.675   4.977   8.348 -0.0020  0.3035 -0.1855
13571SOL    HW143092   0.690   4.906   8.286  0.5538 -0.4099  0.7332
13571SOL    HW243093   0.675   5.056   8.295 -2.9742 -0.5030 -1.6165
13572SOL     OW43094   7.561   3.115   9.512 -0.0709  0.6526 -0.8790
13572SOL    HW143095   7.593   3.205   9.504 -1.1259  1.2853  1.3055
13572SOL    HW243096   7.466   3.124   9.517 -0.3959 -0.8298 -2.8891
13573SOL     OW43097   2.616   1.985   8.479 -0.1426 -0.1892  0.4866
13573SOL    HW143098   2.682   1.941   8.532 -1.3715 -1.4920  0.9869
13573SOL    HW243099   2.665   2.018   8.404  1.4655  0.8695  1.9216
13574SOL     OW43100   1.876   6.575   6.575  0.4407 -0.7383  0.1937
13574SOL    HW143101   1.854   6.656   6.527 -0.7118 -1.0882  0.1102
13574SOL    HW243102   1.963   6.551   6.542  0.5088  0.1036 -0.2695
13575SOL     OW43103   5.090   5.017   1.875 -0.0849  0.8350  0.1538
13575SOL    HW143104   5.050   5.087   1.823 -0.3795  0.2834 -0.3773
13575SOL    HW243105   5.051   4.937   1.841  1.5619  0.2604 -0.4827
13576SOL     OW43106   1.905   0.435   5.738  0.3025 -0.0643 -0.3723
13576SOL    HW143107   1.841   0.479   5.681 -0.0301  0.2358  0.2203
13576SOL    HW243108   1.862   0.354   5.764  0.4540 -0.2000 -0.5386
13577SOL     OW43109   3.966   1.059   6.566 -0.1510 -0.5840 -0.5349
13577SOL    HW143110   3.945   0.968   6.590  1.3898 -0.8471 -0.0875
13577SOL    HW243111   3.888   1.108   6.592  0.4033 -1.2080  2.9222
13578SOL     OW43112   5.672   1.265   7.725 -0.3365  0.1096  0.3533
13578SOL    HW143113   5.584   1.299   7.709  0.3143  2.0702  0.6512
13578SOL    HW243114   5.731   1.338   7.704  1.3992 -1.7643 -1.8530
13579SOL     OW43115   6.718   0.126   0.963 -0.0307  0.3124  0.0319
13579SOL    HW143116   6.804   0.169   0.972 -1.2862  2.9041  0.5688
13579SOL    HW243117   6.701   0.129   0.869 -0.2119  1.2943  0.0834
13580SOL     OW43118   5.034   3.227   4.126  0.2648  0.7545  0.2530
13580SOL    HW143119   5.032   3.304   4.070  1.2521  1.0019  0.5303
13580SOL    HW243120   4.966   3.242   4.191 -0.7223  0.5743 -0.7169
13581SOL     OW43121   2.893   3.900   5.573 -0.5542 -0.0779 -0.0893
13581SOL    HW143122   2.857   3.985   5.600 -1.1225 -0.4191  0.2548
13581SOL    HW243123   2.953   3.876   5.644 -1.1717 -0.4331  0.3273
13582SOL     OW43124   5.040   5.910   4.888 -0.3395 -0.0827 -0.0105
13582SOL    HW143125   5.130   5.879   4.878 -0.0431  0.3846  1.1074
13582SOL    HW243126   5.013   5.878   4.974 -1.1258  0.0964 -0.1821
13583SOL     OW43127   2.765   7.681  10.727  0.1821  0.0118 -0.1800
13583SOL    HW143128   2.781   7.775  10.715 -0.8009  0.3977  1.2460
13583SOL    HW243129   2.823   7.655  10.798 -1.6135  0.2558  1.4631
13584SOL     OW43130   3.544   0.658   5.075 -0.1285 -0.2535  0.3727
13584SOL    HW143131   3.487   0.584   5.053 -0.0516 -0.4954  0.9779
13584SOL    HW243132   3.527   0.675   5.167 -0.0829  0.4373  0.2598
13585SOL     OW43133   2.222   3.913   6.525  0.1036 -0.1208  0.2615
13585SOL    HW143134   2.288   3.880   6.464 -0.5084 -0.7059 -0.0960
13585SOL    HW243135   2.154   3.950   6.468 -0.3804 -0.4911  0.5881
13586SOL     OW43136   8.238   5.988   0.683  0.3662 -0.5141 -0.1097
13586SOL    HW143137   8.297   6.062   0.669 -0.6664  0.6194  1.2608
13586SOL    HW243138   8.175   5.993   0.611 -0.4084  0.6895  0.6253
13587SOL     OW43139   2.972   9.694  10.704 -0.0060 -0.0549  0.1968
13587SOL    HW143140   3.039   9.677  10.638  0.9495  0.6553  0.9575
13587SOL    HW243141   2.950   9.608  10.739  0.2471 -0.3271 -0.3056
13588SOL     OW43142   1.594   0.133   1.708  0.3350  0.2243 -0.2056
13588SOL    HW143143   1.534   0.204   1.683  0.6106  0.4893 -0.1208
13588SOL    HW243144   1.667   0.140   1.647  0.6643  0.4138  0.2049
13589SOL     OW43145   2.960   3.735   5.825  0.0945 -0.0224  0.6189
13589SOL    HW143146   2.937   3.696   5.909 -0.5363 -0.4803  0.2320
13589SOL    HW243147   3.036   3.790   5.845  0.0458 -0.2483  1.4572
13590SOL     OW43148   4.633  10.441   8.988 -0.7634 -0.3119  0.6677
13590SOL    HW143149   4.561  10.496   9.019 -0.9560  1.2258 -2.2319
13590SOL    HW243150   4.704  10.502   8.971 -0.5491 -1.0781 -1.4068
13591SOL     OW43151   5.174   1.802   0.863  0.2384 -0.3521 -0.1747
13591SOL    HW143152   5.185   1.766   0.951  2.3468 -0.0291 -0.2462
13591SOL    HW243153   5.234   1.752   0.809  2.3626  2.3320 -0.5042
13592SOL     OW43154   4.351   8.191   9.636 -0.0135 -0.3111  0.7217
13592SOL    HW143155   4.353   8.237   9.552  0.4605 -4.1883 -1.6295
13592SOL    HW243156   4.435   8.212   9.677 -0.4851  2.0923  0.5862
13593SOL     OW43157   6.337   9.444   0.083 -0.1476 -0.3970 -0.4513
13593SOL    HW143158   6.324   9.427  -0.010  2.2265  2.4162 -1.4366
13593SOL    HW243159   6.428   9.421   0.099 -0.1235  0.5105  0.8457
13594SOL     OW43160   2.998   9.979   2.598  0.2686 -0.4380 -0.3369
13594SOL    HW143161   3.069   9.915   2.604  0.5992  0.0150  0.8347
13594SOL    HW243162   3.042  10.064   2.604 -0.2293 -0.1008 -1.2434
13595SOL     OW43163   5.460   0.542   5.701 -0.5474  0.8294  0.2203
13595SOL    HW143164   5.534   0.600   5.684 -0.8541  1.3362  0.5822
13595SOL    HW243165   5.452   0.489   5.622  2.8795 -2.2780  1.6444
13596SOL     OW43166   4.792   4.590   5.421  0.2379 -0.2320 -0.2897
13596SOL    HW143167   4.761   4.602   5.332 -0.0431  0.8394 -0.0586
13596SOL    HW243168   4.789   4.495   5.435 -1.6812 -0.2854 -0.7270
13597SOL     OW43169   0.338   5.373   2.751 -0.1056 -0.1369 -0.0599
13597SOL    HW143170   0.332   5.467   2.772 -0.8743 -0.2396  0.2325
13597SOL    HW243171   0.300   5.366   2.664  0.2564 -0.1331 -0.2186
13598SOL     OW43172   4.940   1.976   1.813  0.1034 -0.0943 -0.0842
13598SOL    HW143173   4.973   2.029   1.885  0.2193  1.1309 -1.0024
13598SOL    HW243174   5.006   1.907   1.802 -0.0927 -0.4969  1.1851
13599SOL     OW43175   0.993   2.569   9.538  0.2820 -0.5416  0.6328
13599SOL    HW143176   0.963   2.505   9.602  1.1540 -1.4297  0.1745
13599SOL    HW243177   1.039   2.517   9.472 -2.0337  0.0863 -1.6498
13600SOL     OW43178   6.571   2.115   9.831  0.2234  0.1940 -0.5067
13600SOL    HW143179   6.536   2.159   9.909 -1.5173 -3.6230  1.1393
13600SOL    HW243180   6.661   2.092   9.855  0.3337  0.7304 -0.4019
13601SOL     OW43181   2.668   9.448   6.213  0.1288 -0.2896  0.2181
13601SOL    HW143182   2.616   9.427   6.135  0.5243 -0.8771  0.1041
13601SOL    HW243183   2.757   9.425   6.189  0.1247 -1.3665  1.1667
13602SOL     OW43184   0.526   8.800   6.792  0.0257  0.3591 -0.5297
13602SOL    HW143185   0.535   8.861   6.865 -3.0527 -0.8981  1.0690
13602SOL    HW243186   0.433   8.802   6.770  0.1645 -2.2659 -1.7457
13603SOL     OW43187   1.963   3.713   0.679  0.1018 -0.4318  0.4247
13603SOL    HW143188   1.915   3.794   0.693  2.2025  0.8458  0.6582
13603SOL    HW243189   1.900   3.654   0.637 -1.1224  1.7382 -0.9484
13604SOL     OW43190  10.360   6.093   1.446  0.2116 -0.2217  0.1162
13604SOL    HW143191  10.449   6.111   1.474  0.5650 -1.1065 -0.3697
13604SOL    HW243192  10.364   6.003   1.413 -0.0110  0.8586 -3.2479
13605SOL     OW43193   0.288   3.664   2.682 -0.4710 -0.7972  0.4654
13605SOL    HW143194   0.360   3.674   2.743 -0.5262  0.7861  0.3284
13605SOL    HW243195   0.259   3.754   2.664 -2.7867 -1.3743  0.8832
13606SOL     OW43196   6.743   4.931  10.740 -0.0381 -0.2940  0.3753
13606SOL    HW143197   6.814   4.934  10.676 -1.0005 -0.2554 -0.7178
13606SOL    HW243198   6.741   5.019  10.777 -0.1784  0.0179 -0.3526
13607SOL     OW43199   0.858   7.911   0.788  0.5128  0.0548  0.4203
13607SOL    HW143200   0.924   7.861   0.837 -1.2571 -0.7351  2.1812
13607SOL    HW243201   0.846   7.991   0.839 -1.4208 -0.8190  1.4803
13608SOL     OW43202   1.250   2.061   2.993  0.3103  0.7901  0.0449
13608SOL    HW143203   1.320   1.997   2.982  0.2105  0.2544  2.1510
13608SOL    HW243204   1.290   2.132   3.043  0.0184  1.6966 -0.9803
13609SOL     OW43205   1.905   6.337   6.961 -0.1068  0.5933 -0.1411
13609SOL    HW143206   1.963   6.263   6.941 -1.6213 -0.9587  0.8583
13609SOL    HW243207   1.848   6.303   7.031 -1.0468  2.6379  0.1386
13610SOL     OW43208   3.429   0.298   6.124 -0.1980 -0.4592 -0.0215
13610SOL    HW143209   3.483   0.369   6.087 -0.5941 -0.4008 -0.4960
13610SOL    HW243210   3.414   0.240   6.050 -0.2465 -0.8128  0.2678
13611SOL     OW43211   6.305   0.626   2.647  0.3048 -0.0018  0.4466
13611SOL    HW143212   6.317   0.715   2.615 -0.0953  0.1822  0.8017
13611SOL    HW243213   6.390   0.602   2.684  0.3880  0.2639  0.4278
13612SOL     OW43214   1.979   0.203   9.475 -0.2298 -0.2739  0.3759
13612SOL    HW143215   1.993   0.184   9.568  0.7986  2.3648  0.8547
13612SOL    HW243216   2.053   0.161   9.431 -0.1673 -0.6998  0.8718
13613SOL     OW43217   8.678   1.658   6.461 -0.2953  0.0639 -0.0528
13613SOL    HW143218   8.712   1.699   6.381 -0.0904  0.8754  0.4404
13613SOL    HW243219   8.585   1.642   6.442 -0.8397  2.3827  0.3288
13614SOL     OW43220  10.359   5.651   0.084 -0.4169 -0.8200 -0.2209
13614SOL    HW143221  10.286   5.703   0.117  0.0488 -0.6048  0.5006
13614SOL    HW243222  10.367   5.677  -0.008  0.4191  1.1466  0.3436
13615SOL     OW43223   8.714   9.413   2.818 -0.1745 -0.3551  0.3809
13615SOL    HW143224   8.653   9.371   2.878 -0.2645 -0.4072  0.2525
13615SOL    HW243225   8.677   9.499   2.801 -2.0771 -1.5903 -2.4293
13616SOL     OW43226   4.045   7.313   5.030  0.3373 -0.1334  0.2621
13616SOL    HW143227   4.005   7.333   4.945  0.1144  0.1224  0.4265
13616SOL    HW243228   4.138   7.332   5.018  0.4938 -1.1375 -0.2535
13617SOL     OW43229   9.173   9.127   5.526  0.0437  0.1733  0.2736
13617SOL    HW143230   9.148   9.213   5.559 -0.8578  0.1356 -0.2733
13617SOL    HW243231   9.121   9.116   5.446  0.9386 -0.4285 -0.2441
13618SOL     OW43232   3.108   6.822   9.132  0.5681 -0.3513  0.1893
13618SOL    HW143233   3.147   6.821   9.220  1.9868  0.3224 -0.3853
13618SOL    HW243234   3.097   6.730   9.110  2.6942 -0.6352  0.0752
13619SOL     OW43235   9.517   9.202   9.849  0.3699  0.1897 -0.0291
13619SOL    HW143236   9.461   9.167   9.779  0.2763  0.5403 -0.1301
13619SOL    HW243237   9.536   9.291   9.822  1.0767  0.0361 -0.0512
13620SOL     OW43238   7.041   7.205   1.796  0.1902 -0.1556 -0.1644
13620SOL    HW143239   7.099   7.130   1.805 -1.0490 -1.0778  0.4954
13620SOL    HW243240   6.971   7.175   1.739 -1.1385 -0.0494  1.3286
13621SOL     OW43241   2.616   1.754   0.267  0.0200  0.3841  0.5486
13621SOL    HW143242   2.590   1.763   0.175 -0.9668 -0.7400  0.6783
13621SOL    HW243243   2.538   1.779   0.316  0.9515  2.2369  1.1432
13622SOL     OW43244   9.827   6.993   9.759  0.2666  0.1090 -0.4343
13622SOL    HW143245   9.825   6.929   9.831  0.2735 -0.2497 -0.7470
13622SOL    HW243246   9.737   7.024   9.753 -0.3732 -1.8516 -2.0103
13623SOL     OW43247   7.839   3.151   0.536 -0.4298  0.0522  0.4090
13623SOL    HW143248   7.934   3.147   0.524 -0.1227 -0.0628  2.4854
13623SOL    HW243249   7.815   3.238   0.503  0.3575  0.0286 -0.2766
13624SOL     OW43250   1.902  10.710   5.913  0.1651 -0.2869 -0.0625
13624SOL    HW143251   1.910  10.705   6.008  2.2679  0.8492 -0.1223
13624SOL    HW243252   1.943  10.629   5.882 -0.2252 -0.5051 -0.0058
13625SOL     OW43253   0.717   2.258   1.218 -0.1628  0.6023 -0.2618
13625SOL    HW143254   0.787   2.302   1.266  2.1337 -2.1485 -0.8488
13625SOL    HW243255   0.729   2.286   1.127  0.0323  0.3487 -0.3168
13626SOL     OW43256   8.705   5.851   2.594  0.0998 -0.6902  0.1105
13626SOL    HW143257   8.695   5.757   2.584 -0.3849 -0.7263  0.8202
13626SOL    HW243258   8.742   5.861   2.682  1.4029 -0.2787 -0.4630
13627SOL     OW43259   3.406  10.587   6.517 -0.4654  0.3323  0.2311
13627SOL    HW143260   3.472  10.596   6.448  0.7047  0.3393  1.2899
13627SOL    HW243261   3.322  10.596   6.473  0.2199 -0.4431 -1.2960
13628SOL     OW43262   9.535   4.358  10.034  0.1110 -0.3524 -0.0380
13628SOL    HW143263   9.517   4.448  10.061  2.1475 -0.1128  0.7119
13628SOL    HW243264   9.629   4.347  10.049 -0.0088 -2.4761 -0.5220
13629SOL     OW43265   9.146   6.389   8.547  0.0170 -0.3914  0.0628
13629SOL    HW143266   9.132   6.294   8.547 -0.5517 -0.3223  1.5142
13629SOL    HW243267   9.188   6.408   8.630 -1.3047  0.8189  0.5026
13630SOL     OW43268   2.908   6.184   1.797  0.2265  0.1507  0.0538
13630SOL    HW143269   2.842   6.118   1.774  1.8552 -0.8802 -1.8728
13630SOL    HW243270   2.934   6.161   1.886 -0.7683 -0.4620  0.2086
13631SOL     OW43271  10.460   6.553   2.209  0.7624  0.3055 -0.0129
13631SOL    HW143272  10.555   6.568   2.207  0.8412 -0.2344 -1.0728
13631SOL    HW243273  10.424   6.626   2.159  0.5085  1.0662  1.2212
13632SOL     OW43274   3.806   9.757   3.753 -0.7083 -0.1680  0.2597
13632SOL    HW143275   3.876   9.822   3.746 -1.0489  0.2372  0.5827
13632SOL    HW243276   3.851   9.672   3.745  0.1332 -0.0265  2.6890
13633SOL     OW43277   8.771   8.343   0.575 -0.3800  0.3810  0.0513
13633SOL    HW143278   8.841   8.315   0.515  0.6138 -2.3242  2.2444
13633SOL    HW243279   8.769   8.439   0.567  1.3303  0.2930 -2.4595
13634SOL     OW43280   7.717   1.550   1.589 -0.1267  0.1482 -0.0240
13634SOL    HW143281   7.750   1.640   1.580  1.0416  0.0553  2.6353
13634SOL    HW243282   7.696   1.524   1.499  1.8279  2.2029 -1.1816
13635SOL     OW43283   7.261   0.809   2.025  0.2672  0.1203 -0.1729
13635SOL    HW143284   7.175   0.768   2.019  0.8715 -1.3111  0.4990
13635SOL    HW243285   7.243   0.901   2.042 -1.1297 -0.0721 -0.5384
13636SOL     OW43286   9.266   6.389   4.812 -0.2222 -0.6590 -0.1426
13636SOL    HW143287   9.240   6.311   4.764  0.2933 -0.2204 -1.1500
13636SOL    HW243288   9.245   6.368   4.904 -2.9721 -0.8083 -0.7069
13637SOL     OW43289   3.775   1.478   7.279  0.5036  0.1433 -0.1671
13637SOL    HW143290   3.835   1.550   7.256  0.7204  0.1900  0.5276
13637SOL    HW243291   3.821   1.428   7.345 -0.3268  0.3312  0.5776
13638SOL     OW43292   4.756   9.294   5.387 -0.6323 -0.2643  0.5842
13638SOL    HW143293   4.768   9.233   5.314 -0.1066 -0.0011  0.4478
13638SOL    HW243294   4.661   9.298   5.400 -1.2037  2.8524 -2.8384
13639SOL     OW43295   3.343   8.859   6.008 -0.4930 -0.4496 -0.2574
13639SOL    HW143296   3.327   8.778   5.958 -0.7808 -0.6624  0.1762
13639SOL    HW243297   3.438   8.866   6.013 -0.4690 -0.8187 -0.2031
13640SOL     OW43298   8.185   2.960   5.813 -0.2702  0.1895  0.5316
13640SOL    HW143299   8.130   2.889   5.847  1.1280 -1.4777 -0.5206
13640SOL    HW243300   8.142   2.988   5.732 -0.8264  0.5740  0.9516
13641SOL     OW43301   6.474   5.420   2.684  0.6069 -0.3812  0.4017
13641SOL    HW143302   6.547   5.405   2.624  0.3530  0.0797 -0.0285
13641SOL    HW243303   6.408   5.467   2.632 -1.0726 -2.9617  0.0248
13642SOL     OW43304   1.628   7.697   3.081 -0.2956 -0.0616 -0.5379
13642SOL    HW143305   1.688   7.656   3.143  0.0463 -0.6705 -1.2622
13642SOL    HW243306   1.680   7.711   3.002 -0.4304  1.6571 -0.3718
13643SOL     OW43307   8.594   4.207  10.738  0.3774 -0.1803 -0.2039
13643SOL    HW143308   8.568   4.248  10.656  2.0172  0.7848 -0.2801
13643SOL    HW243309   8.673   4.158  10.716  0.2110 -0.8292  0.5802
13644SOL     OW43310   4.491   7.956   5.842 -0.4730  0.1101  0.8935
13644SOL    HW143311   4.480   7.898   5.917  1.1926  0.2976  1.3341
13644SOL    HW243312   4.556   8.020   5.872 -0.3237  0.6155 -0.4701
13645SOL     OW43313  10.181   0.655   1.209  0.3867  0.0611 -0.6823
13645SOL    HW143314  10.151   0.573   1.249 -0.2373  0.7980  0.4084
13645SOL    HW243315  10.175   0.719   1.279  2.9149  0.6397 -0.8810
13646SOL     OW43316  10.446   9.388   7.585 -0.2403 -0.4662  0.0083
13646SOL    HW143317  10.352   9.376   7.593  0.0088 -2.2891  0.8770
13646SOL    HW243318  10.477   9.308   7.542  0.7338  0.9330 -2.0699
13647SOL     OW43319   4.543   3.961   1.077 -0.4441  0.1131  0.5570
13647SOL    HW143320   4.568   4.021   1.007  0.4350 -0.3900  0.4214
13647SOL    HW243321   4.515   4.017   1.149  2.0016  0.7656  1.0666
13648SOL     OW43322   0.060   7.348  10.680 -0.9775  0.1919  0.2674
13648SOL    HW143323   0.042   7.309  10.594 -0.3355  1.9730 -0.7116
13648SOL    HW243324   0.155   7.359  10.683 -0.8493 -1.0093  1.7614
13649SOL     OW43325   9.443   5.930   6.881  0.1107 -0.0824 -0.6459
13649SOL    HW143326   9.466   5.851   6.931  2.3130  1.4825  0.9936
13649SOL    HW243327   9.486   5.918   6.797  2.4537  0.2851  0.4125
13650SOL     OW43328   2.017   3.220   9.998 -0.5804  0.0975  0.5800
13650SOL    HW143329   1.935   3.212  10.048  0.1265 -0.7095  1.6814
13650SOL    HW243330   2.037   3.313  10.000 -2.1523  0.5130 -0.8868
13651SOL     OW43331   4.893   9.603   0.711 -0.1181  0.0122  0.1774
13651SOL    HW143332   4.843   9.532   0.671  1.0817 -0.7331 -0.0689
13651SOL    HW243333   4.899   9.670   0.643 -1.8739  0.6885  0.6544
13652SOL     OW43334   8.972   2.714   7.813  0.1402 -0.6042  0.3014
13652SOL    HW143335   9.017   2.685   7.733 -1.0226 -0.5865 -0.3787
13652SOL    HW243336   9.007   2.658   7.882  2.2256  0.3184  0.0851
13653SOL     OW43337  10.111   4.366  10.392 -0.1021 -0.2020  0.3546
13653SOL    HW143338  10.029   4.408  10.418  0.3397  0.8383  0.1597
13653SOL    HW243339  10.179   4.418  10.436  0.4756 -0.6718  0.0332
13654SOL     OW43340   9.051  10.444   3.905  0.1540  0.2090  0.1240
13654SOL    HW143341   9.044  10.436   3.810 -0.8169  0.5254  0.1595
13654SOL    HW243342   8.962  10.464   3.934  0.6381  1.1912  0.9916
13655SOL     OW43343   5.631   7.598   8.266 -0.4426 -0.1172  0.1508
13655SOL    HW143344   5.677   7.673   8.229 -0.5664  0.3104  0.8300
13655SOL    HW243345   5.540   7.609   8.238 -0.3212 -0.4355 -0.3842
13656SOL     OW43346   4.205   1.358   3.042  0.0482 -0.9968  0.4811
13656SOL    HW143347   4.135   1.382   3.102 -1.6514 -3.0042 -0.5558
13656SOL    HW243348   4.165   1.363   2.955  1.3949 -1.5408 -0.1975
13657SOL     OW43349   6.569   3.879   1.522  0.0237 -0.6253 -0.6944
13657SOL    HW143350   6.558   3.882   1.427 -0.4556 -1.4832 -0.6698
13657SOL    HW243351   6.495   3.829   1.554 -0.2976  0.3894  0.2254
13658SOL     OW43352   2.123   9.275   5.481  0.3524  0.2432 -0.0177
13658SOL    HW143353   2.039   9.273   5.435 -0.7579 -1.4288  1.9276
13658SOL    HW243354   2.166   9.355   5.449 -0.9085 -0.0930 -2.8282
13659SOL     OW43355   4.552   7.832   1.188  0.1961 -0.3088  0.3880
13659SOL    HW143356   4.608   7.808   1.261 -0.0996 -0.7876  0.4687
13659SOL    HW243357   4.507   7.750   1.165  0.0462 -0.0901 -0.1154
13660SOL     OW43358   0.238   3.545   0.852  1.0446 -0.1796 -0.5410
13660SOL    HW143359   0.178   3.504   0.915  0.7867 -1.4393 -1.5511
13660SOL    HW243360   0.295   3.600   0.905 -0.0303 -0.1428  0.6280
13661SOL     OW43361   5.171   0.837   4.837 -0.3113 -0.4447 -0.1812
13661SOL    HW143362   5.264   0.852   4.854 -0.0702 -0.1926 -1.5544
13661SOL    HW243363   5.143   0.913   4.787 -1.6008  0.0886  1.2835
13662SOL     OW43364   4.515   5.996   9.766  0.1660  0.1991  0.2097
13662SOL    HW143365   4.453   6.038   9.707  0.6843 -0.2111 -0.6421
13662SOL    HW243366   4.460   5.953   9.832 -0.4627 -0.2018 -0.5600
13663SOL     OW43367   2.754   4.765   1.256  0.3749  0.9258 -0.2979
13663SOL    HW143368   2.809   4.837   1.287  0.2695  0.1551  1.8774
13663SOL    HW243369   2.679   4.764   1.316  0.3464 -0.9244 -0.2948
13664SOL     OW43370   3.154   9.651   7.214  0.1517 -0.0229  0.2521
13664SOL    HW143371   3.202   9.665   7.133  0.1877  1.1880  0.4625
13664SOL    HW243372   3.062   9.646   7.187  0.2154 -0.2639  0.0758
13665SOL     OW43373   1.892   5.464   7.743 -0.2283 -0.2277  0.2220
13665SOL    HW143374   1.797   5.467   7.732  0.0434 -0.8671 -4.0520
13665SOL    HW243375   1.921   5.402   7.677  3.3221  1.7187 -0.2874
13666SOL     OW43376   3.469   2.697   1.065 -0.3349  0.2024  0.5300
13666SOL    HW143377   3.496   2.612   1.030  1.0736  1.2761 -1.1456
13666SOL    HW243378   3.457   2.681   1.159 -0.4318 -1.8967  0.2228
13667SOL     OW43379   0.496   9.956   5.593  0.0662  0.0737  0.2669
13667SOL    HW143380   0.499   9.889   5.524  3.3329  0.6616 -0.3316
13667SOL    HW243381   0.493  10.039   5.546  2.0184  0.4718  0.7318
13668SOL     OW43382   3.313   3.131   4.495  0.1914 -0.0460  0.3194
13668SOL    HW143383   3.336   3.214   4.537  0.0381 -0.2454  0.8016
13668SOL    HW243384   3.259   3.086   4.559 -1.6451  0.4393 -0.8243
13669SOL     OW43385   9.169   9.086   2.122 -0.2658 -0.0009  0.4557
13669SOL    HW143386   9.201   9.056   2.037  2.1582 -1.2449  1.7115
13669SOL    HW243387   9.121   9.011   2.157 -2.0701  0.8289 -0.1504
13670SOL     OW43388   6.645   3.732   9.334 -0.3118 -0.1327  0.2134
13670SOL    HW143389   6.572   3.688   9.291  0.4428 -1.3548  0.1420
13670SOL    HW243390   6.720   3.676   9.317  0.5896  0.9343  0.5608
13671SOL     OW43391   9.568   8.001   2.135  0.3610 -0.2107 -0.0969
13671SOL    HW143392   9.620   8.042   2.204 -0.1143 -1.4742  1.0498
13671SOL    HW243393   9.508   7.943   2.181 -0.0486 -1.0112 -1.5702
13672SOL     OW43394   4.451   9.940   2.564  0.0863  0.2320  0.1812
13672SOL    HW143395   4.545   9.957   2.578  0.2291 -0.1664 -0.2567
13672SOL    HW243396   4.449   9.857   2.515 -0.5715 -1.3719  2.7293
13673SOL     OW43397   2.451   5.222   9.803  0.0102  0.2810  0.1688
13673SOL    HW143398   2.392   5.172   9.860 -1.2124  1.4940  0.0367
13673SOL    HW243399   2.426   5.196   9.714  0.6031 -0.1971  0.1417
13674SOL     OW43400   2.856   1.825   6.533 -0.4930 -0.1126  0.2390
13674SOL    HW143401   2.791   1.815   6.464 -2.5641 -1.6745  2.2884
13674SOL    HW243402   2.856   1.919   6.552  1.0599  0.5994 -2.5959
13675SOL     OW43403   6.966   8.891   9.285  0.0290  0.3450 -0.0768
13675SOL    HW143404   7.049   8.938   9.300 -1.0779  2.1079  0.9358
13675SOL    HW243405   6.954   8.840   9.365  0.4650 -0.4537 -0.5164
13676SOL     OW43406   7.202   9.652   1.811  0.5033  0.1134  0.0913
13676SOL    HW143407   7.272   9.664   1.746  0.1348  2.3246  0.0132
13676SOL    HW243408   7.238   9.687   1.892  0.0159 -0.1667  0.4325
13677SOL     OW43409   1.373   1.728   7.519  0.4187  0.3903  0.5849
13677SOL    HW143410   1.337   1.771   7.441 -0.6672 -0.6420  0.4744
13677SOL    HW243411   1.454   1.775   7.538  0.9805  0.3472 -1.4820
13678SOL     OW43412   6.878   9.906   6.787  0.6949  0.3648 -0.0455
13678SOL    HW143413   6.860   9.899   6.694  2.0180 -2.2645 -0.2010
13678SOL    HW243414   6.965   9.946   6.791  0.8447  0.0273  0.0460
13679SOL     OW43415   3.837   0.296   5.583 -0.0707 -0.0728  0.3862
13679SOL    HW143416   3.903   0.254   5.638  0.8098  1.4063  0.5081
13679SOL    HW243417   3.888   0.342   5.516 -1.0275  0.2580 -0.1272
13680SOL     OW43418  10.492   9.895   4.432 -0.4835  0.6927 -0.0877
13680SOL    HW143419  10.429   9.945   4.380 -0.0134  1.2283 -0.1539
13680SOL    HW243420  10.460   9.805   4.428 -1.8129  1.1019  0.7295
13681SOL     OW43421   2.247   1.193   5.352  0.6552  0.1679  0.2193
13681SOL    HW143422   2.221   1.131   5.421 -1.1578  0.6574  0.0259
13681SOL    HW243423   2.280   1.138   5.281  0.2983 -0.4824  0.5539
13682SOL     OW43424   6.824   9.362  10.455  0.5567 -0.3560 -0.6089
13682SOL    HW143425   6.893   9.313  10.499 -1.3046 -3.1608 -0.5756
13682SOL    HW243426   6.815   9.321  10.369  0.6658  1.7061 -1.6808
13683SOL     OW43427   2.224   7.931   4.960 -0.1059 -0.0748 -0.3812
13683SOL    HW143428   2.198   7.851   5.005  1.2381 -0.9043 -1.0199
13683SOL    HW243429   2.263   7.985   5.028 -0.3705 -0.2536 -0.0850
13684SOL     OW43430   3.109   0.742   1.332 -0.2419 -0.0308 -0.2971
13684SOL    HW143431   3.122   0.700   1.247 -2.1124  1.4309 -1.3803
13684SOL    HW243432   3.128   0.834   1.317 -2.4446  0.5927  0.2924
13685SOL     OW43433   0.557   9.624  10.644 -0.2815 -0.5007  0.7162
13685SOL    HW143434   0.601   9.547  10.608 -2.3589 -1.5799  0.3308
13685SOL    HW243435   0.569   9.692  10.578  0.4955 -0.8733  0.4687
13686SOL     OW43436   6.528   7.457   3.575 -0.1615 -0.7065  0.1898
13686SOL    HW143437   6.589   7.530   3.584 -0.1148 -0.9421  2.0047
13686SOL    HW243438   6.575   7.382   3.610 -0.7460 -1.3291 -0.3269
13687SOL     OW43439   9.156   3.003  10.610 -0.4520  0.0213 -0.5658
13687SOL    HW143440   9.170   3.024  10.702  1.0673 -3.3110  0.1023
13687SOL    HW243441   9.180   2.911  10.602 -0.6944  0.1215 -4.2918
13688SOL     OW43442   1.849   9.545   5.503 -0.1872  0.1297 -0.1929
13688SOL    HW143443   1.912   9.550   5.575 -2.0028 -0.7445  1.5291
13688SOL    HW243444   1.838   9.452   5.487  1.0819  0.3004 -2.5040
13689SOL     OW43445   9.808   9.606   5.687  0.4223 -0.1527 -0.1624
13689SOL    HW143446   9.859   9.682   5.714 -1.1990  1.3856 -1.1752
13689SOL    HW243447   9.746   9.591   5.758  1.7642 -1.6054  0.7674
13690SOL     OW43448   0.900   0.934   8.902 -0.0349 -0.2621 -0.5303
13690SOL    HW143449   0.909   0.892   8.988  0.1234 -1.0641 -0.9297
13690SOL    HW243450   0.989   0.933   8.866  0.1431  1.1957 -0.2098
13691SOL     OW43451   8.575   9.108   9.691  0.2402 -0.0816 -0.4660
13691SOL    HW143452   8.667   9.124   9.710  0.1366 -1.3474  1.4051
13691SOL    HW243453   8.575   9.026   9.641  0.0335 -2.0878  2.5779
13692SOL     OW43454   2.757   0.405   1.278 -0.1693  0.0103 -0.5996
13692SOL    HW143455   2.662   0.391   1.284 -0.3988  1.7037  0.4833
13692SOL    HW243456   2.771   0.440   1.190 -1.0478  2.6126  0.1924
13693SOL     OW43457   7.878   7.498   8.763  0.1917  0.1022  0.1510
13693SOL    HW143458   7.825   7.541   8.830 -1.0366 -1.9044  0.5670
13693SOL    HW243459   7.858   7.405   8.773  1.3282 -0.4268 -1.8747
13694SOL     OW43460   8.561   2.037   5.046 -0.4831 -0.1735 -0.3415
13694SOL    HW143461   8.632   2.038   4.983  0.0259 -1.4153  0.1708
13694SOL    HW243462   8.516   1.954   5.030 -1.2174  0.1497 -0.0173
13695SOL     OW43463   9.715   6.961   8.522 -0.7171 -0.6193  0.4835
13695SOL    HW143464   9.773   6.928   8.453 -2.5714 -2.0753 -0.4779
13695SOL    HW243465   9.679   7.042   8.487  1.0555  0.5915  1.3112
13696SOL     OW43466   2.250   2.795   6.018  0.2130  0.1726  0.2036
13696SOL    HW143467   2.192   2.724   6.044  0.6889 -0.0631  0.6491
13696SOL    HW243468   2.338   2.763   6.041  0.5255  0.4830 -0.5379
13697SOL     OW43469   2.248   2.085   6.994 -0.3563 -0.4440  0.1358
13697SOL    HW143470   2.170   2.128   6.959  0.0870 -0.4997 -0.9765
13697SOL    HW243471   2.255   2.004   6.943  1.8856  0.7912 -1.6898
13698SOL     OW43472   9.448   6.458   3.847 -0.0525  0.1618  0.3572
13698SOL    HW143473   9.511   6.442   3.917  0.3471 -0.7473 -0.1960
13698SOL    HW243474   9.364   6.468   3.892  0.6228  2.6725  1.2214
13699SOL     OW43475   2.516   7.474   9.240  0.0403 -0.5708 -0.7309
13699SOL    HW143476   2.495   7.447   9.150  0.1661  0.0920 -0.9690
13699SOL    HW243477   2.538   7.393   9.285  0.4502 -0.8676 -1.4349
13700SOL     OW43478   3.547   1.124   7.343 -0.2741 -0.2537  0.1275
13700SOL    HW143479   3.641   1.133   7.329 -0.5286  0.0812 -1.5439
13700SOL    HW243480   3.512   1.213   7.335 -0.7460 -0.3805  0.6967
13701SOL     OW43481   5.363   0.053   2.575  0.0624 -0.0428  0.1981
13701SOL    HW143482   5.285   0.051   2.520  0.4340  0.6043 -0.3746
13701SOL    HW243483   5.332   0.081   2.661 -0.2666  0.7937 -0.1771
13702SOL     OW43484   3.972   4.645   7.721 -0.0887  0.4297 -0.1294
13702SOL    HW143485   4.049   4.590   7.732 -0.8292 -0.3866  1.3200
13702SOL    HW243486   4.005   4.728   7.688  1.6159  0.6030  1.8147
13703SOL     OW43487   1.994   0.673   6.282 -0.5373 -0.1917  0.1975
13703SOL    HW143488   1.906   0.636   6.278  0.4069 -2.5594  0.0042
13703SOL    HW243489   2.052   0.598   6.291  1.4641  1.3287  0.8145
13704SOL     OW43490   3.679  10.233   1.317  0.0079  0.2066  0.0292
13704SOL    HW143491   3.598  10.185   1.299 -0.0341  0.2677  0.0561
13704SOL    HW243492   3.703  10.205   1.406 -0.3201  0.6637  0.2662
13705SOL     OW43493   3.497   4.674   0.166  0.0764  0.6322 -0.3971
13705SOL    HW143494   3.574   4.659   0.221  0.8007 -2.1955 -2.0126
13705SOL    HW243495   3.526   4.653   0.078 -2.4536 -0.1964 -1.1069
13706SOL     OW43496   9.141  10.255   7.261 -0.1796 -0.0092  0.1084
13706SOL    HW143497   9.099  10.270   7.177 -0.6629 -1.4579  0.0744
13706SOL    HW243498   9.232  10.234   7.239 -0.2236 -0.0620 -0.0190
13707SOL     OW43499   6.039   9.680   0.639 -0.1998 -0.5842 -0.8606
13707SOL    HW143500   6.075   9.603   0.683  1.1175  0.4481 -0.0530
13707SOL    HW243501   6.028   9.652   0.548 -0.6271 -1.9985 -0.3977
13708SOL     OW43502   7.880   8.778   8.621  0.0605  0.0500  0.2193
13708SOL    HW143503   7.831   8.715   8.569  2.4020 -2.9932  1.4090
13708SOL    HW243504   7.856   8.759   8.711  1.2839  0.4204  0.6398
13709SOL     OW43505   3.438  10.331   0.124 -0.0303 -0.4246  0.1929
13709SOL    HW143506   3.469  10.414   0.159  0.5141 -0.2614 -0.6758
13709SOL    HW243507   3.513  10.272   0.129 -0.5705 -1.0724  1.3717
13710SOL     OW43508   5.651   6.205  10.494  0.0756  0.1488 -0.3841
13710SOL    HW143509   5.588   6.175  10.559  0.7075  0.4622  0.3919
13710SOL    HW243510   5.673   6.294  10.520  2.2429 -0.5695  0.5267
13711SOL     OW43511   2.284  10.244   4.557  0.0728 -0.7570 -0.0681
13711SOL    HW143512   2.273  10.307   4.628  0.0137  0.1963 -0.8897
13711SOL    HW243513   2.334  10.173   4.595 -0.2038 -0.3974  1.0010
13712SOL     OW43514   1.809   3.368   2.303 -0.8169 -0.2161  0.1841
13712SOL    HW143515   1.804   3.369   2.398 -1.0955  1.1270  0.1716
13712SOL    HW243516   1.833   3.457   2.279 -0.4836 -0.6058 -0.9953
13713SOL     OW43517   7.888   4.138   5.471 -1.1975  0.1479  0.5196
13713SOL    HW143518   7.858   4.173   5.387 -0.4642 -1.7159 -0.5603
13713SOL    HW243519   7.937   4.210   5.510 -1.1689  0.9076 -0.8515
13714SOL     OW43520   7.582   8.322   3.392 -0.3224  0.0705 -0.3130
13714SOL    HW143521   7.526   8.315   3.314 -0.0252 -0.1763 -0.5110
13714SOL    HW243522   7.669   8.341   3.356 -0.2783  0.4424 -0.0096
13715SOL     OW43523   0.507   0.579   9.175  0.4254 -0.5300  0.0026
13715SOL    HW143524   0.464   0.636   9.239  2.2598 -1.2084  1.9842
13715SOL    HW243525   0.519   0.496   9.222  0.1670 -1.6978 -1.9133
13716SOL     OW43526   9.051   7.493   8.524  0.0233 -0.0509 -0.1507
13716SOL    HW143527   9.084   7.583   8.532  1.0996 -0.3081 -1.3956
13716SOL    HW243528   9.117   7.448   8.472 -0.6495 -1.5009  0.2076
13717SOL     OW43529   3.298   7.106   3.054 -0.0018 -0.2451  0.3728
13717SOL    HW143530   3.224   7.127   2.998 -0.5161 -1.9728  0.3361
13717SOL    HW243531   3.270   7.028   3.103  2.4266 -2.1263 -0.9929
13718SOL     OW43532   3.880   0.134   2.005  0.6785 -0.2538 -0.1006
13718SOL    HW143533   3.797   0.141   1.959  1.7860  1.0275 -2.0185
13718SOL    HW243534   3.908   0.225   2.019  1.1617 -0.6353  1.6922
13719SOL     OW43535   5.469   9.660   2.205  0.0214  0.1948 -0.3599
13719SOL    HW143536   5.564   9.655   2.220  0.1692  0.8891 -1.0078
13719SOL    HW243537   5.456   9.623   2.118 -0.4748 -1.1209  0.2541
13720SOL     OW43538   0.585   9.539   1.749 -0.1150  0.2528  0.4207
13720SOL    HW143539   0.571   9.448   1.777 -0.2238 -0.5860 -2.0656
13720SOL    HW243540   0.663   9.567   1.798  0.9976 -1.8234 -0.0158
13721SOL     OW43541   1.501   3.551   5.721  0.2443  0.9270  0.4711
13721SOL    HW143542   1.549   3.602   5.656 -0.1027  1.2065  0.4312
13721SOL    HW243543   1.533   3.583   5.806  1.7708 -0.4445  0.4652
13722SOL     OW43544   0.140   3.573   3.204  0.4693 -0.1879 -0.3850
13722SOL    HW143545   0.045   3.571   3.194  0.4612  1.4201 -0.7685
13722SOL    HW243546   0.163   3.483   3.227 -0.8040 -1.4543 -3.4468
13723SOL     OW43547   4.941   2.702   5.761 -0.3951 -0.1094 -0.2991
13723SOL    HW143548   4.910   2.670   5.845 -1.2289  1.8444  0.1869
13723SOL    HW243549   4.977   2.789   5.779 -1.3383  0.7121 -2.0436
13724SOL     OW43550   2.322  10.072   7.720 -0.5057  0.0408 -0.1467
13724SOL    HW143551   2.369  10.143   7.765 -2.3160  2.5778 -1.9538
13724SOL    HW243552   2.382  10.042   7.652  0.9776 -1.5602  1.7299
13725SOL     OW43553   6.659   0.781   9.572  0.4411 -0.1730  0.0210
13725SOL    HW143554   6.662   0.708   9.634 -0.2157 -1.6030 -1.5553
13725SOL    HW243555   6.718   0.846   9.610  0.0093 -0.9298  2.1717
13726SOL     OW43556   1.915   6.047   9.961 -0.1391  0.1633  0.5828
13726SOL    HW143557   1.888   5.957   9.976  0.3580 -0.1952 -0.5316
13726SOL    HW243558   2.009   6.047   9.980 -0.1421  0.4458  0.5971
13727SOL     OW43559   4.572   3.600   5.206  0.3381 -0.9999  0.2770
13727SOL    HW143560   4.508   3.554   5.259  1.3628 -1.8557  0.8195
13727SOL    HW243561   4.550   3.579   5.115 -1.4174  0.4587  0.3160
13728SOL     OW43562   6.194   2.258   9.558 -0.2564 -0.3905  0.2029
13728SOL    HW143563   6.105   2.268   9.593 -0.5086 -1.6996 -0.0288
13728SOL    HW243564   6.251   2.281   9.631 -0.7478  1.8523 -0.0468
13729SOL     OW43565   0.153   3.531   9.351  0.0891  0.6310  0.8996
13729SOL    HW143566   0.184   3.495   9.435 -0.4327 -2.7061 -0.1927
13729SOL    HW243567   0.058   3.537   9.361 -0.1831 -1.4734  0.0576
13730SOL     OW43568   5.224   6.425   9.698  0.0424  0.3597 -0.5959
13730SOL    HW143569   5.272   6.426   9.780 -2.2982 -2.4104  0.9562
13730SOL    HW243570   5.273   6.366   9.641  0.2625  0.2311 -0.2688
13731SOL     OW43571   7.018   3.499  10.514  0.0264  0.9249 -0.0040
13731SOL    HW143572   6.982   3.428  10.566  1.2330  0.0217 -0.3590
13731SOL    HW243573   6.962   3.575  10.534  0.6048  0.7041  2.8169
13732SOL     OW43574   6.342   8.506   7.785 -0.7410  0.4037  0.2956
13732SOL    HW143575   6.259   8.552   7.777 -0.7208  0.4233  0.1911
13732SOL    HW243576   6.396   8.562   7.840 -0.6682  0.5745  0.0515
13733SOL     OW43577   9.163   3.918   1.000 -0.4381  0.9017  0.2821
13733SOL    HW143578   9.162   3.873   0.915  0.8696  1.3798 -0.0195
13733SOL    HW243579   9.221   3.866   1.055 -2.1914 -0.0555  1.3010
13734SOL     OW43580   1.142   8.266  10.756  0.2584  0.8113  0.2014
13734SOL    HW143581   1.084   8.335  10.789 -0.7034  0.9271 -1.6275
13734SOL    HW243582   1.106   8.243  10.671  1.9974 -0.2526 -0.2893
13735SOL     OW43583   9.388  10.438   1.623 -0.4075 -0.3799 -0.2610
13735SOL    HW143584   9.430  10.387   1.692 -2.0953 -2.5933 -0.7705
13735SOL    HW243585   9.325  10.494   1.669  0.6703  0.4940  0.2029
13736SOL     OW43586   1.392   8.462   8.309 -0.2266  0.3969  0.0463
13736SOL    HW143587   1.437   8.431   8.230  0.1340  0.2021  0.3254
13736SOL    HW243588   1.320   8.401   8.321 -0.0066  0.1531  0.1294
13737SOL     OW43589   3.712   6.494   8.365  0.5325  0.1649 -0.6470
13737SOL    HW143590   3.757   6.423   8.411  1.2600  0.3622 -1.0466
13737SOL    HW243591   3.749   6.574   8.400 -1.0369  0.4142  0.5734
13738SOL     OW43592   8.828  10.469   9.227  0.2766  0.3019 -0.0615
13738SOL    HW143593   8.899  10.472   9.291  0.1455  0.5208  0.0785
13738SOL    HW243594   8.849  10.540   9.166 -0.5174  1.2653  0.7386
13739SOL     OW43595   9.342  10.567   4.748  0.3386 -0.2700 -0.4813
13739SOL    HW143596   9.366  10.554   4.656 -1.3475  2.7489 -1.4941
13739SOL    HW243597   9.424  10.591   4.790  0.8352  0.1637 -1.6440
13740SOL     OW43598   8.115   0.022   1.297  0.4670  0.9775  0.3121
13740SOL    HW143599   8.045   0.061   1.349  0.4739 -0.4956  1.5147
13740SOL    HW243600   8.155   0.096   1.251 -0.3634  2.1717  1.4262
13741SOL     OW43601   7.118   1.693   0.880 -0.1393  0.2309  0.4382
13741SOL    HW143602   7.158   1.734   0.956 -0.7004  0.4879  0.6003
13741SOL    HW243603   7.114   1.762   0.814 -1.4672  0.5641  0.8532
13742SOL     OW43604   9.109   4.832   7.788  0.3666  0.3316 -0.0112
13742SOL    HW143605   9.060   4.913   7.806 -1.6791 -0.8711  0.1378
13742SOL    HW243606   9.190   4.841   7.838 -0.2752  1.8556  0.8117
13743SOL     OW43607   3.621   5.510   5.937  0.6090  0.0221 -0.1023
13743SOL    HW143608   3.570   5.529   6.016  3.3056  1.8452  1.3618
13743SOL    HW243609   3.569   5.547   5.865 -0.2319  1.6626  1.2872
13744SOL     OW43610   5.091   9.808   4.292 -0.2658 -0.0620  0.1283
13744SOL    HW143611   5.071   9.843   4.205 -0.7952 -0.8841 -0.0864
13744SOL    HW243612   5.084   9.884   4.351 -2.1875  0.0512 -0.2021
13745SOL     OW43613   3.596   6.801   9.453  0.1252  0.1918 -0.1742
13745SOL    HW143614   3.646   6.746   9.393  0.3624 -0.0707  0.2574
13745SOL    HW243615   3.651   6.807   9.531 -0.8709 -0.7929  0.6408
13746SOL     OW43616   4.875   0.900  10.065 -0.0197 -0.3314  0.0484
13746SOL    HW143617   4.868   0.805  10.077 -0.7076 -0.2887  0.0183
13746SOL    HW243618   4.890   0.934  10.153  1.3708 -0.5501 -0.0760
13747SOL     OW43619   7.562   2.284   5.426 -0.1409 -0.1150  0.8872
13747SOL    HW143620   7.560   2.190   5.407  1.3271  0.2631 -1.5929
13747SOL    HW243621   7.595   2.324   5.345  0.8256  2.3881  2.4027
13748SOL     OW43622   0.672   4.558   3.294  0.6224  0.2837 -0.0832
13748SOL    HW143623   0.733   4.495   3.255  0.8099 -0.7557  1.7558
13748SOL    HW243624   0.620   4.590   3.220  2.1651 -0.1693 -1.4240
13749SOL     OW43625   6.400   9.967   8.739 -0.2179 -0.4399  0.6685
13749SOL    HW143626   6.403   9.897   8.674  2.0412  0.7224 -0.6242
13749SOL    HW243627   6.469   9.944   8.802  0.2433  0.3818  0.4769
13750SOL     OW43628   5.766  10.772   8.640 -0.3928  0.0924 -0.2674
13750SOL    HW143629   5.733  10.751   8.727 -0.0428 -0.2579 -0.2171
13750SOL    HW243630   5.784  10.866   8.643  0.2919 -0.0459  0.2687
13751SOL     OW43631   4.787   8.637   8.582  0.5048  0.0347 -0.0345
13751SOL    HW143632   4.869   8.681   8.561  0.6267  0.2903  0.9016
13751SOL    HW243633   4.788   8.556   8.531  0.9115  0.4719 -0.7284
13752SOL     OW43634   0.999   9.402   1.723 -0.2276  0.0227 -0.1269
13752SOL    HW143635   1.084   9.362   1.745 -1.5436 -1.6389  2.5037
13752SOL    HW243636   0.989   9.387   1.629  2.0105 -0.4429 -0.3558
13753SOL     OW43637   0.982   1.558   8.797 -0.2671  0.0425 -0.0136
13753SOL    HW143638   0.985   1.653   8.787 -1.1506  0.3904  2.4384
13753SOL    HW243639   0.908   1.542   8.855  1.1770 -1.9536  1.4043
13754SOL     OW43640   2.046   2.386  10.376  0.1076  1.0531  0.1358
13754SOL    HW143641   2.064   2.475  10.347  1.4888  0.3770 -1.2776
13754SOL    HW243642   2.111   2.333  10.330 -2.6185 -1.0929 -1.6084
13755SOL     OW43643   6.544   6.640   0.481 -0.1389 -0.0816  0.2654
13755SOL    HW143644   6.532   6.547   0.500 -1.5856  0.0113 -0.0426
13755SOL    HW243645   6.455   6.674   0.474  0.3587  0.9821 -1.3241
13756SOL     OW43646   2.675   5.487   7.702 -0.0560  0.6443 -0.5197
13756SOL    HW143647   2.627   5.558   7.659  0.3320 -0.5548 -3.1663
13756SOL    HW243648   2.762   5.488   7.661  0.2847 -0.7136  0.0913
13757SOL     OW43649   2.994   3.141   9.769  0.4740  0.0813 -0.1124
13757SOL    HW143650   2.916   3.157   9.716 -0.8149  0.9690  1.9178
13757SOL    HW243651   3.066   3.177   9.717 -0.4427 -0.6338 -1.9755
13758SOL     OW43652   7.542   9.425   9.222 -0.1370  0.3158  0.0483
13758SOL    HW143653   7.475   9.471   9.273  0.2055 -0.3261  1.0848
13758SOL    HW243654   7.622   9.435   9.272  0.0580 -0.9364  0.0069
13759SOL     OW43655   7.469   7.881   2.273  0.2712 -0.4421  0.1165
13759SOL    HW143656   7.521   7.916   2.201 -0.3008 -0.0485 -0.1162
13759SOL    HW243657   7.463   7.787   2.254  2.9833 -0.9929  1.4903
13760SOL     OW43658   6.583   3.947   8.666  0.1715  0.2801 -0.6971
13760SOL    HW143659   6.655   4.003   8.638  0.9552 -1.3418 -2.1228
13760SOL    HW243660   6.612   3.911   8.750 -0.7161  2.5622  0.6817
13761SOL     OW43661   3.339   8.762   8.510  0.6137 -0.2801  0.6855
13761SOL    HW143662   3.377   8.850   8.509 -0.5257  0.2452  1.7450
13761SOL    HW243663   3.333   8.738   8.417  0.1553  1.1159  0.3196
13762SOL     OW43664   8.244   3.300   6.046 -0.1886  0.3637 -0.0813
13762SOL    HW143665   8.165   3.249   6.061  0.3563 -0.3324  0.5006
13762SOL    HW243666   8.299   3.244   5.991  0.1701  0.5626  0.0689
13763SOL     OW43667   3.198   0.970   7.166 -1.0311  0.1485 -0.2579
13763SOL    HW143668   3.142   0.983   7.242 -1.2114  1.3543 -0.5723
13763SOL    HW243669   3.164   0.890   7.124 -2.6731  0.9565 -0.5580
13764SOL     OW43670   3.996   1.318   9.962  0.1735  0.2052 -0.0006
13764SOL    HW143671   3.948   1.306   9.880  0.4680 -0.3044 -0.1056
13764SOL    HW243672   4.068   1.377   9.939  1.0891 -1.0508 -0.4623
13765SOL     OW43673   6.074   3.982   1.198 -0.2793  0.3048  0.1420
13765SOL    HW143674   5.997   4.006   1.250 -0.1761 -0.7254  0.7988
13765SOL    HW243675   6.040   3.967   1.110 -0.8977 -0.4571  0.4997
13766SOL     OW43676   7.862   5.350   4.692  0.0403  0.3722 -0.0916
13766SOL    HW143677   7.778   5.344   4.647  0.7238  0.8423 -1.4620
13766SOL    HW243678   7.839   5.382   4.780 -1.2583 -0.1317 -0.2160
13767SOL     OW43679   2.077   6.472   7.168  0.2149  0.1917 -0.2139
13767SOL    HW143680   2.172   6.474   7.179  0.0600  0.3525  1.3414
13767SOL    HW243681   2.063   6.421   7.088  1.5725 -0.6170  0.0315
13768SOL     OW43682   5.048   7.967   0.554 -0.2985  0.4276  0.5649
13768SOL    HW143683   5.116   7.958   0.487 -0.8447  1.5885 -0.1749
13768SOL    HW243684   5.089   8.020   0.623  0.6758 -1.7615  1.7986
13769SOL     OW43685   1.051   2.715   2.257 -0.2342  0.6547 -0.5078
13769SOL    HW143686   1.142   2.732   2.234  0.3705  0.6604  1.6617
13769SOL    HW243687   1.008   2.800   2.253 -0.0106  0.7457 -0.9931
13770SOL     OW43688   4.686   3.774   7.442  0.1530 -0.0242 -0.0053
13770SOL    HW143689   4.617   3.774   7.509 -0.6564 -0.6753 -0.8140
13770SOL    HW243690   4.680   3.687   7.403  0.1989  0.5505 -1.3412
13771SOL     OW43691   2.200  10.127   8.771 -0.6482 -0.2055 -0.3022
13771SOL    HW143692   2.294  10.110   8.765 -0.6830 -0.2309 -0.8078
13771SOL    HW243693   2.172  10.082   8.851  0.0054  0.9115  0.5703
13772SOL     OW43694   8.995   4.532   2.779  0.0304  0.4022  0.4670
13772SOL    HW143695   8.972   4.448   2.817  0.8465  0.5602  1.3554
13772SOL    HW243696   8.925   4.591   2.806 -0.1616  0.1782  0.4596
13773SOL     OW43697   5.959   6.969   2.587  0.1266  0.6480  0.2814
13773SOL    HW143698   5.886   6.967   2.649 -0.3047 -0.4035 -0.2308
13773SOL    HW243699   5.918   6.984   2.502  0.5141  0.2566  0.0198
13774SOL     OW43700   9.243   1.291   0.393  0.3329  0.6341  0.6086
13774SOL    HW143701   9.319   1.322   0.342 -0.3603  0.1206 -0.7939
13774SOL    HW243702   9.233   1.200   0.366 -1.8243  1.1664 -0.5606
13775SOL     OW43703   0.231   9.458   8.577 -0.2327 -0.6051  0.0199
13775SOL    HW143704   0.278   9.386   8.536  0.4898 -0.5515  0.7183
13775SOL    HW243705   0.285   9.535   8.561 -0.4596 -0.4051  0.1897
13776SOL     OW43706   6.177   1.536   7.432  0.0260  0.1687 -0.1065
13776SOL    HW143707   6.178   1.443   7.452  0.6474  0.6495  2.4910
13776SOL    HW243708   6.085   1.556   7.416 -0.4659 -0.5036  1.6677
13777SOL     OW43709   3.791   3.213   5.170  0.1480 -0.2647  0.0217
13777SOL    HW143710   3.871   3.217   5.223  0.0674 -0.6130  0.1705
13777SOL    HW243711   3.799   3.287   5.109  0.5805 -0.2991  0.0351
13778SOL     OW43712   4.955   0.676   0.040  0.2865 -0.1847  0.1756
13778SOL    HW143713   4.898   0.627   0.098  2.2204  0.3091  2.6731
13778SOL    HW243714   4.982   0.752   0.091  0.0348  1.7563 -2.3644
13779SOL     OW43715   0.956   9.314  10.168 -0.3237  0.3722  0.3513
13779SOL    HW143716   0.995   9.365  10.098 -0.3653 -0.3854 -0.2348
13779SOL    HW243717   0.897   9.375  10.212 -1.7600  0.3725 -1.4583
13780SOL     OW43718   5.233   2.143   8.738  0.0299 -0.4208 -0.0346
13780SOL    HW143719   5.199   2.175   8.654  0.4368  0.2429  0.0466
13780SOL    HW243720   5.252   2.222   8.788 -0.9540 -0.8129  1.0049
13781SOL     OW43721  10.335   1.586   4.566 -0.1328 -0.0778 -0.7762
13781SOL    HW143722  10.302   1.501   4.538  1.8473 -1.6794  1.4425
13781SOL    HW243723  10.280   1.611   4.640 -0.3201  0.2842 -1.0342
13782SOL     OW43724   5.709   0.268   6.103 -0.1477  0.1772 -0.1475
13782SOL    HW143725   5.710   0.315   6.020 -0.8802 -0.1075 -0.3316
13782SOL    HW243726   5.796   0.230   6.111 -0.1296  0.0551 -0.8831
13783SOL     OW43727   6.418   2.043   8.968 -0.0417 -0.1588 -0.5286
13783SOL    HW143728   6.506   2.011   8.991 -0.9261 -1.0029  2.0550
13783SOL    HW243729   6.408   2.123   9.019 -2.3625 -2.4633  3.0289
13784SOL     OW43730   9.142   2.723   9.838  0.4671  0.6795 -0.2145
13784SOL    HW143731   9.140   2.696   9.929  1.6006  0.3392 -0.2748
13784SOL    HW243732   9.231   2.704   9.809  1.0116  3.3466 -0.5971
13785SOL     OW43733   0.917   2.682   8.588 -0.6742  0.3611 -0.4766
13785SOL    HW143734   0.995   2.652   8.541 -1.0984 -2.6112  0.5141
13785SOL    HW243735   0.917   2.632   8.669 -3.4430  0.4921 -0.3160
13786SOL     OW43736   4.339   6.254   8.378  0.4761  0.1229 -0.5988
13786SOL    HW143737   4.300   6.167   8.377 -1.4129  0.7553  2.5480
13786SOL    HW243738   4.422   6.242   8.425 -0.7527  0.2010  1.7646
13787SOL     OW43739   7.021   0.085   4.070  0.4182  0.1083 -0.0159
13787SOL    HW143740   7.101   0.041   4.100  0.8848  1.4948  0.8642
13787SOL    HW243741   6.982   0.121   4.149  0.8912  2.5901 -0.8100
13788SOL     OW43742   0.652   7.158   2.332 -0.1309  0.1131 -0.7639
13788SOL    HW143743   0.633   7.074   2.290 -0.6296  0.2429 -0.8018
13788SOL    HW243744   0.739   7.182   2.300 -0.1543 -0.1944 -1.0622
13789SOL     OW43745   7.030   9.776   5.986 -0.7806 -0.1444  0.3019
13789SOL    HW143746   6.940   9.772   5.955 -1.3742 -1.6392  1.9927
13789SOL    HW243747   7.061   9.862   5.961 -2.3595  0.0406 -1.1565
13790SOL     OW43748   7.381   3.400   0.810  0.2517 -0.0696  0.0372
13790SOL    HW143749   7.408   3.312   0.839  0.6774 -0.1300 -0.5283
13790SOL    HW243750   7.346   3.441   0.889  0.7234 -0.4914  0.4757
13791SOL     OW43751   6.078   4.891   1.993  0.1928 -0.2899 -0.4644
13791SOL    HW143752   5.987   4.875   2.019  1.0293 -1.5695  1.9687
13791SOL    HW243753   6.112   4.805   1.971  0.9468  0.1119 -0.9012
13792SOL     OW43754  10.272   2.131   6.575  0.2552  0.0217  0.2041
13792SOL    HW143755  10.360   2.168   6.571  0.8101 -1.3009 -0.5747
13792SOL    HW243756  10.280   2.056   6.635 -0.1857 -0.4734 -0.3386
13793SOL     OW43757   9.756   5.239   0.866 -0.7152 -0.1458 -0.1720
13793SOL    HW143758   9.831   5.179   0.872  0.5716  1.3006 -0.9054
13793SOL    HW243759   9.771   5.286   0.784 -3.0183 -0.5084 -0.8626
13794SOL     OW43760   0.240   7.036   2.212 -0.5480  0.8665  0.1099
13794SOL    HW143761   0.285   7.036   2.127  0.2927 -1.2001  0.4962
13794SOL    HW243762   0.194   6.953   2.214 -1.3267  1.3085  1.3097
13795SOL     OW43763   4.148  10.237   0.506  0.0406  0.1625 -0.1521
13795SOL    HW143764   4.179  10.292   0.578 -0.2678 -0.5635  0.5461
13795SOL    HW243765   4.057  10.217   0.529  0.1470 -0.6319 -0.4085
13796SOL     OW43766   4.464   0.174   6.692  0.2702 -0.1362 -0.1033
13796SOL    HW143767   4.425   0.147   6.775  2.1582  0.9344  1.2172
13796SOL    HW243768   4.397   0.227   6.650 -0.9104 -1.1300  0.4655
13797SOL     OW43769   7.203   9.640   5.581  0.0579 -0.1069 -0.0034
13797SOL    HW143770   7.160   9.681   5.506 -2.0972  0.7133  1.5746
13797SOL    HW243771   7.219   9.712   5.642  1.0756 -0.8598  0.6487
13798SOL     OW43772   9.975   6.135   4.522 -0.0585 -0.0739 -0.2751
13798SOL    HW143773   9.881   6.118   4.516 -0.2343  0.4150  0.9336
13798SOL    HW243774   9.982   6.221   4.562  0.9118  0.0126 -0.5879
13799SOL     OW43775   5.846   8.893   0.564  0.0419  0.5128  0.1896
13799SOL    HW143776   5.934   8.856   0.557 -1.1407 -2.4797 -0.1715
13799SOL    HW243777   5.826   8.923   0.475  0.2748  0.1309  0.0055
13800SOL     OW43778   1.899   5.621   6.035 -0.0574  0.3475  0.0160
13800SOL    HW143779   1.941   5.535   6.046  0.5404  0.5216 -0.8393
13800SOL    HW243780   1.959   5.670   5.980 -0.9760  0.9068 -0.5079
13801SOL     OW43781   9.899   5.629   9.364  0.0210  0.0660 -0.6392
13801SOL    HW143782   9.952   5.625   9.284 -0.5056  2.5925 -1.2135
13801SOL    HW243783   9.898   5.540   9.398  1.6545 -0.7316 -2.5503
13802SOL     OW43784   7.001   7.689   5.449  0.7852  0.1859 -0.4960
13802SOL    HW143785   6.944   7.623   5.489  1.3874  0.2071  0.4442
13802SOL    HW243786   7.087   7.647   5.446  0.9067  0.4741 -1.0743
13803SOL     OW43787   0.100   7.229   4.624  0.0954 -0.0369  0.1762
13803SOL    HW143788   0.156   7.168   4.575 -0.5650  0.3991 -1.1779
13803SOL    HW243789   0.107   7.312   4.577  0.0085  0.6081  1.2664
13804SOL     OW43790   3.809   5.844   3.303 -0.1003 -0.0040  0.5501
13804SOL    HW143791   3.780   5.904   3.233 -0.2947  0.3057  0.8929
13804SOL    HW243792   3.787   5.757   3.270 -3.5535  0.2682  1.6982
13805SOL     OW43793   6.009   2.165   6.304 -0.2274 -0.7664  0.3128
13805SOL    HW143794   5.998   2.178   6.209  0.8360  0.2497  0.3062
13805SOL    HW243795   5.926   2.126   6.332 -0.7911 -0.5359 -0.9378
13806SOL     OW43796   0.888   6.823  10.720 -0.2155  0.0479  0.1046
13806SOL    HW143797   0.971   6.775  10.711  0.5476  1.2739  0.3614
13806SOL    HW243798   0.824   6.757  10.745  0.5843 -1.0086 -0.5638
13807SOL     OW43799  10.307   6.799   9.043 -0.2837  0.1339  0.2334
13807SOL    HW143800  10.321   6.800   8.948  0.2944  0.3246  0.3173
13807SOL    HW243801  10.295   6.707   9.064 -0.0457  0.0527  0.0258
13808SOL     OW43802   8.394   7.395   9.377 -0.5234  0.3198 -0.1553
13808SOL    HW143803   8.487   7.389   9.400 -0.8157 -1.0928  0.8174
13808SOL    HW243804   8.348   7.370   9.458 -1.7040 -0.5538 -1.0618
13809SOL     OW43805   9.293   1.711   0.352  0.3811  0.1515 -0.0610
13809SOL    HW143806   9.371   1.692   0.300 -0.2821 -0.0348 -1.0092
13809SOL    HW243807   9.311   1.796   0.392  0.1570  1.2456 -2.1391
13810SOL     OW43808   1.712   2.208   9.979  0.2929 -0.0653 -0.1477
13810SOL    HW143809   1.781   2.217   9.914 -0.0009 -0.8050 -0.5747
13810SOL    HW243810   1.727   2.280  10.041  1.4289 -0.2122 -0.2395
13811SOL     OW43811   8.056   9.918   7.975 -0.3020  0.6822 -0.2466
13811SOL    HW143812   8.134   9.878   7.937  0.4139  0.1147  1.6958
13811SOL    HW243813   8.071  10.012   7.966 -0.1219  0.5691 -1.2555
13812SOL     OW43814   4.223   8.194   1.205  0.3256 -0.0972  0.3500
13812SOL    HW143815   4.259   8.114   1.243  2.3950  0.5854 -0.0789
13812SOL    HW243816   4.250   8.193   1.114  0.6760  1.2492  0.4134
13813SOL     OW43817   1.724   0.291   1.867  0.2894 -0.2948  0.3051
13813SOL    HW143818   1.802   0.300   1.814 -0.7786  1.8065 -1.0289
13813SOL    HW243819   1.666   0.233   1.816 -0.3066  0.8418 -0.3351
13814SOL     OW43820   5.446   3.527   1.238  0.0327  0.1136 -0.4076
13814SOL    HW143821   5.373   3.567   1.191 -0.1707 -0.3129 -0.4646
13814SOL    HW243822   5.476   3.595   1.298 -1.0834 -0.0197  0.3503
13815SOL     OW43823   2.687   3.861   4.133 -0.9607  0.2126 -0.5615
13815SOL    HW143824   2.769   3.851   4.083 -0.3953  1.2924  0.1133
13815SOL    HW243825   2.624   3.892   4.068 -0.7175 -0.1843 -0.9953
13816SOL     OW43826   1.907   5.027   7.057  0.2385  0.0282  0.7650
13816SOL    HW143827   1.986   5.081   7.044 -0.3678  1.0701  1.2772
13816SOL    HW243828   1.933   4.940   7.027  0.3136  1.2123 -3.2370
13817SOL     OW43829   3.076   6.032   2.043 -0.5227  0.1610 -0.4262
13817SOL    HW143830   3.008   5.967   2.056 -0.6514  0.3366 -0.2198
13817SOL    HW243831   3.158   5.983   2.047 -0.6350 -0.0477 -0.6570
13818SOL     OW43832   6.658   7.161   2.961 -0.3945 -0.1349 -0.5282
13818SOL    HW143833   6.723   7.231   2.970  0.3737 -0.5775 -2.2881
13818SOL    HW243834   6.668   7.108   3.040  1.5437 -0.3055 -0.8465
13819SOL     OW43835   1.657   0.003   6.912 -0.1129 -0.0076 -0.6202
13819SOL    HW143836   1.575  -0.017   6.867 -1.0046  0.0945  0.8868
13819SOL    HW243837   1.717  -0.066   6.885 -1.1064 -0.8425 -0.7435
13820SOL     OW43838   6.745   8.482  10.196 -0.5268 -0.3136  1.0279
13820SOL    HW143839   6.761   8.388  10.182 -1.2848 -0.5163  1.4953
13820SOL    HW243840   6.672   8.503  10.138 -1.1725 -0.3025  1.8169
13821SOL     OW43841   0.625   5.690   6.323  0.8497 -0.2706  0.6671
13821SOL    HW143842   0.584   5.672   6.239  0.5673  1.1468  0.4763
13821SOL    HW243843   0.692   5.623   6.333 -1.2108 -2.4306  0.7901
13822SOL     OW43844   3.965   5.383  10.452  0.5724  0.3980  0.0424
13822SOL    HW143845   4.015   5.317  10.403  1.1204  0.3820  0.6096
13822SOL    HW243846   3.941   5.448  10.386  1.6589  0.5894 -0.1782
13823SOL     OW43847   1.102   3.644   8.842 -0.1469 -0.2403 -0.1145
13823SOL    HW143848   1.055   3.562   8.828 -0.7363  0.0357  0.2409
13823SOL    HW243849   1.034   3.709   8.860  0.3426  0.2424  0.0282
13824SOL     OW43850   6.109   7.730   5.377  0.4831  0.0241  0.2793
13824SOL    HW143851   6.136   7.742   5.468 -1.0821  0.7459  0.6807
13824SOL    HW243852   6.015   7.750   5.377 -0.1401 -2.4786 -1.0051
13825SOL     OW43853   8.782   1.522   0.306 -0.9239  0.3484  0.3028
13825SOL    HW143854   8.692   1.498   0.285 -0.1261 -2.3386 -0.4303
13825SOL    HW243855   8.834   1.491   0.232  0.6742  1.5388  0.8506
13826SOL     OW43856   0.924   3.757   3.739  0.0799 -0.0821 -0.1302
13826SOL    HW143857   0.886   3.788   3.656  0.0307  0.9678  0.2729
13826SOL    HW243858   0.853   3.767   3.803 -0.4361 -2.4184 -0.2249
13827SOL     OW43859   6.286   1.416   3.012  0.2653  0.1662  0.3198
13827SOL    HW143860   6.268   1.505   2.981 -1.3848  0.2375  1.3309
13827SOL    HW243861   6.315   1.427   3.102  2.3160 -0.2086 -0.2522
13828SOL     OW43862   9.344   7.798   7.625  0.2851  0.1760  0.0182
13828SOL    HW143863   9.255   7.764   7.616  0.3439  0.0815 -0.2065
13828SOL    HW243864   9.380   7.796   7.536  0.7423 -0.4205  0.2088
13829SOL     OW43865   1.107   6.675   5.201  0.6158  0.0934  0.0107
13829SOL    HW143866   1.099   6.675   5.105  0.6722  0.1880  0.0061
13829SOL    HW243867   1.022   6.705   5.232  0.8478  0.8088 -0.0308
13830SOL     OW43868   8.320   1.272   4.268 -0.2539  0.3460  0.2245
13830SOL    HW143869   8.406   1.277   4.311  0.7174 -1.1488 -1.3673
13830SOL    HW243870   8.285   1.187   4.296 -0.2908  0.0500 -0.6974
13831SOL     OW43871   3.404   7.701   4.039  0.2330  0.5327  0.0031
13831SOL    HW143872   3.382   7.725   3.949 -0.8520 -0.8848 -0.1581
13831SOL    HW243873   3.319   7.690   4.082  0.6547 -1.4407  0.4359
13832SOL     OW43874   2.613   9.382   2.003 -0.2282  0.5275  0.7657
13832SOL    HW143875   2.612   9.458   1.945 -0.2503  0.0441  0.1248
13832SOL    HW243876   2.610   9.419   2.091  0.0504  1.2780  0.4677
13833SOL     OW43877   8.260   1.814   3.169  0.3544  0.1710 -0.1857
13833SOL    HW143878   8.271   1.781   3.258  0.7742  0.2435 -0.2100
13833SOL    HW243879   8.286   1.740   3.113 -0.0795  0.0647 -0.2524
13834SOL     OW43880   6.624   1.805   4.635 -0.1021  0.1720 -0.1661
13834SOL    HW143881   6.714   1.816   4.605  0.6190  0.2876  1.8689
13834SOL    HW243882   6.625   1.724   4.686 -1.0675  0.3229  0.1231
13835SOL     OW43883   9.466   9.654   9.173  0.3256 -0.8467 -0.0679
13835SOL    HW143884   9.404   9.722   9.148  0.9759 -0.2104  0.0479
13835SOL    HW243885   9.439   9.577   9.122  1.1996  0.2150 -2.2057
13836SOL     OW43886   3.496  10.451  10.545  0.0485 -0.2376  0.2992
13836SOL    HW143887   3.435  10.503  10.597 -0.3845  0.2394 -0.6618
13836SOL    HW243888   3.471  10.360  10.563 -1.0616 -0.0500 -0.1820
13837SOL     OW43889   5.802   8.773   5.055  0.5864  0.3176 -0.3796
13837SOL    HW143890   5.812   8.845   4.992 -1.4968  1.0329  0.0382
13837SOL    HW243891   5.804   8.816   5.141 -0.4586 -0.1388 -0.1173
13838SOL     OW43892   8.786   3.853   8.693 -0.2897  0.7654 -0.5995
13838SOL    HW143893   8.824   3.801   8.764  0.1969 -0.4186 -1.6854
13838SOL    HW243894   8.762   3.936   8.734  0.0301  0.1359  0.9271
13839SOL     OW43895   0.847   9.377   8.911  0.1086  0.2458  0.1573
13839SOL    HW143896   0.880   9.318   8.979  1.1800  2.6966  1.9028
13839SOL    HW243897   0.887   9.345   8.830  1.7144 -0.6393  1.2430
13840SOL     OW43898   4.396   2.533   4.272 -0.1963 -0.1014  0.0136
13840SOL    HW143899   4.315   2.571   4.308  0.2571 -0.0922  1.0766
13840SOL    HW243900   4.379   2.439   4.269 -0.1426 -0.1337  0.5464
13841SOL     OW43901   3.217   6.507   8.506 -0.0955  0.4276 -0.0192
13841SOL    HW143902   3.295   6.502   8.452 -0.7342 -0.9202 -0.8762
13841SOL    HW243903   3.248   6.541   8.590  1.4247 -0.2143 -0.2897
13842SOL     OW43904  10.506   9.520   8.342 -0.3610 -0.2596 -0.1373
13842SOL    HW143905  10.418   9.509   8.378 -0.0075 -0.2516  0.7452
13842SOL    HW243906  10.563   9.528   8.419  0.2584  0.9252 -0.6846
13843SOL     OW43907   4.728   1.130   2.073  0.3310  0.6229  0.3427
13843SOL    HW143908   4.676   1.054   2.100 -0.4026  0.5011 -1.2895
13843SOL    HW243909   4.801   1.132   2.134 -0.4602 -0.4818  1.3742
13844SOL     OW43910   3.685   5.678   7.444 -0.2572  0.4670  0.1590
13844SOL    HW143911   3.733   5.761   7.450  1.4373 -0.4518 -0.1030
13844SOL    HW243912   3.716   5.638   7.363  0.4473 -1.2718  1.2118
13845SOL     OW43913   6.251   1.539   6.390 -0.1856  0.1545  0.1330
13845SOL    HW143914   6.339   1.538   6.429 -0.1355  0.0934  0.0170
13845SOL    HW243915   6.210   1.617   6.427  0.8654  1.7894 -1.8956
13846SOL     OW43916   5.656   1.984   0.731  0.0700 -0.1888  0.3215
13846SOL    HW143917   5.616   2.037   0.663  0.3465  0.0389  0.3367
13846SOL    HW243918   5.744   2.019   0.741  0.6388 -1.3421 -0.4244
13847SOL     OW43919   9.838   1.743   5.089  0.4379 -0.0613 -0.2355
13847SOL    HW143920   9.914   1.721   5.143  0.6942 -2.2804 -1.4033
13847SOL    HW243921   9.814   1.661   5.046 -1.9980  0.8133 -0.7169
13848SOL     OW43922   7.666   9.292   2.587  0.0577  0.0613  0.0678
13848SOL    HW143923   7.645   9.260   2.675  0.8835 -0.5558  0.0563
13848SOL    HW243924   7.729   9.228   2.554 -1.0254 -0.2959 -1.3747
13849SOL     OW43925   3.178   3.841   0.544 -0.0372 -0.5601 -0.5308
13849SOL    HW143926   3.245   3.777   0.521  0.5281  0.2256 -1.1646
13849SOL    HW243927   3.132   3.803   0.619  0.8761 -1.2860 -0.3204
13850SOL     OW43928  10.419   3.068   8.767  0.1606 -0.1997  0.0288
13850SOL    HW143929  10.415   3.141   8.706 -1.9008 -0.0133  0.3342
13850SOL    HW243930  10.440   3.108   8.852 -1.7458  0.1872  0.3541
13851SOL     OW43931   6.432   3.240   9.410 -0.1252  0.2494  0.1079
13851SOL    HW143932   6.373   3.242   9.336  0.5127  0.9497 -0.4000
13851SOL    HW243933   6.509   3.194   9.379 -0.8149 -1.6985  1.1161
13852SOL     OW43934   0.889   8.460   7.116  0.5516  0.0999  0.2142
13852SOL    HW143935   0.799   8.448   7.147 -0.4942  3.4512 -1.0324
13852SOL    HW243936   0.924   8.530   7.171  2.2219 -0.7209  0.2462
13853SOL     OW43937   9.575   5.333   1.989  0.2392  0.3440 -0.0258
13853SOL    HW143938   9.606   5.396   1.925  1.5816  1.1378  1.3643
13853SOL    HW243939   9.484   5.317   1.964  0.2005  1.9785 -1.0658
13854SOL     OW43940   3.040   9.794   5.379 -0.1791  0.4506 -0.5449
13854SOL    HW143941   2.988   9.733   5.431 -1.0824  0.7280 -1.1046
13854SOL    HW243942   2.985   9.872   5.372  0.4449  0.8650 -0.8858
13855SOL     OW43943   3.148   4.776   7.172  0.3916  0.7952 -0.3101
13855SOL    HW143944   3.218   4.823   7.218  1.3872 -0.5536 -0.3752
13855SOL    HW243945   3.156   4.804   7.081  1.2648  0.2209 -0.4310
13856SOL     OW43946   2.924  10.361   2.946 -0.1476 -0.2194 -0.1931
13856SOL    HW143947   2.955  10.288   2.999  0.8733  1.4600  1.6867
13856SOL    HW243948   2.830  10.346   2.936  0.1697 -2.1973 -0.6246
13857SOL     OW43949   5.232   8.307   6.784  0.3166 -0.2873 -0.3609
13857SOL    HW143950   5.267   8.390   6.815 -0.2605  0.4982 -1.7601
13857SOL    HW243951   5.152   8.330   6.737 -0.8584 -1.8113  0.7518
13858SOL     OW43952   5.813   7.676   1.340  0.4084 -0.2207  0.1981
13858SOL    HW143953   5.745   7.626   1.384 -1.8477  0.9492 -1.7051
13858SOL    HW243954   5.845   7.737   1.406 -0.0920 -1.0638  1.2553
13859SOL     OW43955   2.171   2.653   3.646 -0.0002 -0.2756  0.6016
13859SOL    HW143956   2.146   2.646   3.738  1.0640 -1.2120  0.8286
13859SOL    HW243957   2.254   2.701   3.647  0.4198 -0.9902  0.1913
13860SOL     OW43958   6.421   8.983   1.420 -0.3097 -0.0305  0.1383
13860SOL    HW143959   6.389   9.031   1.497 -1.6024  0.1996 -0.5204
13860SOL    HW243960   6.344   8.939   1.386  0.7094 -2.0203  0.2928
13861SOL     OW43961   0.172   4.683   1.268 -0.3762 -0.0133  0.1920
13861SOL    HW143962   0.256   4.690   1.312  0.0590  1.0856 -0.7347
13861SOL    HW243963   0.178   4.603   1.215 -0.9972 -1.4724  2.2307
13862SOL     OW43964   5.550  10.696   9.464  0.0611 -0.0510 -0.4361
13862SOL    HW143965   5.609  10.767   9.487  0.0219 -0.2220  0.2147
13862SOL    HW243966   5.604  10.634   9.415  0.1729  0.2715 -0.7205
13863SOL     OW43967   0.652   7.701   1.260 -0.3481 -0.3837 -1.0965
13863SOL    HW143968   0.595   7.676   1.333  0.9412  0.3807  0.2269
13863SOL    HW243969   0.594   7.702   1.184 -1.7361 -1.2298 -0.1000
13864SOL     OW43970  10.564   4.078   0.661  0.2242  0.4077  0.2014
13864SOL    HW143971  10.610   4.091   0.744  1.3434 -1.1423 -0.1304
13864SOL    HW243972  10.621   4.019   0.611 -1.2670 -0.1105 -0.9645
13865SOL     OW43973   4.454   0.641   0.677  0.1121 -0.0692  0.1092
13865SOL    HW143974   4.510   0.634   0.754 -1.2514  0.7058  1.2069
13865SOL    HW243975   4.448   0.551   0.644  1.6256 -0.2313  0.2026
13866SOL     OW43976   4.960   1.745   5.585 -0.5396 -0.1372 -0.1490
13866SOL    HW143977   4.931   1.698   5.507 -1.8508  1.4394 -0.6749
13866SOL    HW243978   4.914   1.704   5.658  2.2856 -3.0380  0.2236
13867SOL     OW43979   1.576   8.553   9.942 -0.2357 -0.0339 -0.2797
13867SOL    HW143980   1.636   8.619   9.905  0.1336 -0.3315 -0.2142
13867SOL    HW243981   1.557   8.586  10.031 -0.5138  0.2817 -0.4522
13868SOL     OW43982   2.095   1.342   1.827  0.5908 -0.1426  0.0804
13868SOL    HW143983   1.999   1.341   1.823  0.5389 -1.3435  1.2051
13868SOL    HW243984   2.115   1.372   1.915  1.2481 -0.7251  0.1324
13869SOL     OW43985   2.625   0.131   6.425 -0.5983  0.2980 -0.2363
13869SOL    HW143986   2.662   0.123   6.337  0.0271  1.4572 -0.1104
13869SOL    HW243987   2.602   0.042   6.450  0.2756 -0.2008 -1.1234
13870SOL     OW43988   8.586   3.862   1.877 -0.0433  0.2009 -0.1391
13870SOL    HW143989   8.671   3.880   1.918 -0.3548  0.1757  0.5449
13870SOL    HW243990   8.528   3.845   1.951 -1.0850  2.0304 -0.4664
13871SOL     OW43991   0.973   7.906   9.866 -0.2798  0.1710  0.1732
13871SOL    HW143992   1.026   7.871   9.795 -1.4132 -1.8177  0.2307
13871SOL    HW243993   0.978   8.001   9.856 -1.0670 -0.0173 -3.0828
13872SOL     OW43994   7.329   6.580   6.698 -0.3250 -0.0172 -0.2186
13872SOL    HW143995   7.271   6.503   6.692 -1.1768  0.5152  0.8109
13872SOL    HW243996   7.290   6.644   6.639  0.3348 -0.3260 -1.0077
13873SOL     OW43997   4.451  10.674  10.639  0.1052 -0.2126 -0.6660
13873SOL    HW143998   4.500  10.633  10.568  0.0561  0.2140 -0.9503
13873SOL    HW243999   4.390  10.606  10.668 -0.3965 -0.1545 -1.5410
13874SOL     OW44000   2.443   2.652   8.525 -0.1542  0.3385  0.1268
13874SOL    HW144001   2.468   2.581   8.584  1.4919 -0.0300 -0.9269
13874SOL    HW244002   2.525   2.678   8.482 -0.7262  2.7751  0.3310
13875SOL     OW44003   1.134   2.824   5.208  0.3410  0.1112  0.1426
13875SOL    HW144004   1.151   2.913   5.179 -0.2480  0.2812  0.3029
13875SOL    HW244005   1.213   2.775   5.185  1.3857  1.0336  1.6047
13876SOL     OW44006   4.741   8.951  10.615  0.5491 -0.0700 -0.0714
13876SOL    HW144007   4.678   8.889  10.579 -0.9653  0.4353  1.5759
13876SOL    HW244008   4.779   8.905  10.691  2.6336 -0.5823 -1.3476
13877SOL     OW44009   8.880   7.197   0.865  0.5057 -0.2725 -0.8036
13877SOL    HW144010   8.810   7.206   0.931  0.9182  0.6777 -0.4827
13877SOL    HW244011   8.887   7.284   0.826  1.1561 -0.5058 -1.2086
13878SOL     OW44012   5.470   4.040   6.954  0.2409  0.1277  0.1240
13878SOL    HW144013   5.469   3.955   6.910  0.8532 -0.2080  0.7366
13878SOL    HW244014   5.408   4.031   7.026 -0.9711  0.7682 -0.8040
13879SOL     OW44015   9.306   7.738  10.210  0.1144 -0.1840  0.0581
13879SOL    HW144016   9.288   7.814  10.154  0.3985  0.3786  0.7104
13879SOL    HW244017   9.280   7.662  10.157 -1.0289  0.4086 -0.2708
13880SOL     OW44018   9.852   8.239   2.664  0.2195  0.5464 -0.1150
13880SOL    HW144019   9.854   8.322   2.616  0.5296  0.8164  0.3517
13880SOL    HW244020   9.850   8.172   2.597 -1.1814  0.9557 -0.5077
13881SOL     OW44021   0.074   5.780   8.805  0.0915 -0.1961  0.1217
13881SOL    HW144022   0.016   5.777   8.881  0.5873  1.0398  0.5842
13881SOL    HW244023   0.130   5.703   8.815 -1.2325 -1.2381 -0.1719
13882SOL     OW44024   4.295   0.550   6.630 -0.5327 -0.7073 -0.0659
13882SOL    HW144025   4.304   0.507   6.716 -0.5401  1.0176  0.8472
13882SOL    HW244026   4.384   0.579   6.610 -0.6882 -0.3246 -0.2037
13883SOL     OW44027   8.987   8.866   3.511  0.5592  0.5151  0.1706
13883SOL    HW144028   9.056   8.886   3.448 -0.2225  0.4800 -0.7157
13883SOL    HW244029   9.027   8.884   3.597  1.0410  2.4549 -0.4058
13884SOL     OW44030   4.817   3.322   1.248 -0.1602 -0.6914 -0.3607
13884SOL    HW144031   4.852   3.345   1.161  0.0566 -0.6190 -0.2554
13884SOL    HW244032   4.771   3.401   1.276  1.3313 -0.0599  0.3793
13885SOL     OW44033   0.252   8.712   9.771  0.0291  0.0704  0.0564
13885SOL    HW144034   0.213   8.706   9.858  1.4154  0.2882  0.7127
13885SOL    HW244035   0.337   8.669   9.780 -0.4327 -1.3042 -1.5956
13886SOL     OW44036   5.737   6.623   4.038  0.0422 -0.1649 -0.3566
13886SOL    HW144037   5.814   6.666   4.075 -0.2604  0.5794 -0.5796
13886SOL    HW244038   5.667   6.686   4.050  0.2005  0.7359 -3.4676
13887SOL     OW44039   5.855   9.937   5.198  0.1189  0.0224  0.2511
13887SOL    HW144040   5.817   9.953   5.284  1.0655 -0.1371  0.7129
13887SOL    HW244041   5.780   9.938   5.138 -0.5569  0.0828  1.0756
13888SOL     OW44042   2.287  10.123  10.342 -0.3075  0.3062 -0.4603
13888SOL    HW144043   2.194  10.134  10.322 -0.3687  2.1368  0.6339
13888SOL    HW244044   2.329  10.197  10.300  0.3832  0.6235  0.7425
13889SOL     OW44045   9.040   3.105   0.984 -0.3856  0.8078  0.2464
13889SOL    HW144046   9.110   3.067   1.039  1.0244 -0.1662 -2.0764
13889SOL    HW244047   8.966   3.113   1.044  1.1865  0.3038  2.4276
13890SOL     OW44048   5.496   5.115   7.760  0.5149  0.1855 -0.3799
13890SOL    HW144049   5.568   5.104   7.822  0.4999 -0.8607 -0.5411
13890SOL    HW244050   5.443   5.037   7.770  0.1202  0.3361 -1.2129
13891SOL     OW44051   0.013   4.571   2.877 -1.0318 -0.3240 -0.8031
13891SOL    HW144052  -0.048   4.561   2.805 -1.2455 -0.4982 -0.5998
13891SOL    HW244053  -0.017   4.509   2.944 -1.4054  0.5082 -0.1848
13892SOL     OW44054   8.358   6.720   3.368  0.1094  0.3335 -0.3340
13892SOL    HW144055   8.417   6.765   3.308  0.3773 -0.4195 -0.6479
13892SOL    HW244056   8.377   6.757   3.454  0.0725  1.0672 -0.6374
13893SOL     OW44057   5.922   8.485   1.646 -0.5275  0.0561 -0.3516
13893SOL    HW144058   5.918   8.492   1.550  0.7541 -0.3985 -0.4483
13893SOL    HW244059   5.909   8.392   1.664  2.9845 -0.5760 -0.3729
13894SOL     OW44060   8.672   5.286   7.719  0.2275 -0.2008  0.0085
13894SOL    HW144061   8.672   5.192   7.737 -0.3525 -0.2179 -0.0788
13894SOL    HW244062   8.585   5.316   7.746 -0.0725  0.0681 -1.2135
13895SOL     OW44063   3.835   6.096   7.748  0.2676 -0.3139 -0.4643
13895SOL    HW144064   3.744   6.114   7.724  0.1997  0.8022  0.5179
13895SOL    HW244065   3.870   6.181   7.774  1.7942 -0.6225 -1.4045
13896SOL     OW44066   8.796   2.892   9.991 -0.6801  0.2472  0.2415
13896SOL    HW144067   8.771   2.801   9.974 -1.7780  0.3701  1.0612
13896SOL    HW244068   8.891   2.889  10.004 -0.6453 -0.7140 -0.1622
13897SOL     OW44069   6.742   4.752   1.791  0.6351  0.1975  1.0053
13897SOL    HW144070   6.793   4.721   1.867  0.5429  0.6097  1.2362
13897SOL    HW244071   6.718   4.671   1.745 -0.6825 -0.1972  2.2891
13898SOL     OW44072   3.129   8.763   7.088 -0.0052  0.2361 -0.1793
13898SOL    HW144073   3.106   8.740   6.998  1.3560 -1.3244 -0.1741
13898SOL    HW244074   3.185   8.841   7.079  0.4360 -0.1303 -0.7371
13899SOL     OW44075   0.329   1.109   3.502  0.4925 -0.2499 -0.0375
13899SOL    HW144076   0.253   1.066   3.540 -1.3605  2.9294  0.1877
13899SOL    HW244077   0.300   1.137   3.415  2.2393 -1.0305 -0.9265
13900SOL     OW44078   6.020   4.699   5.745  0.2057 -0.1388 -0.2799
13900SOL    HW144079   5.987   4.775   5.792 -0.7509 -0.5396 -0.2700
13900SOL    HW244080   6.104   4.727   5.709 -0.5230  1.2159 -1.0230
13901SOL     OW44081  10.728   2.303   5.283 -0.3994 -0.3881 -0.3100
13901SOL    HW144082  10.676   2.224   5.298  0.8167 -0.7856  2.2972
13901SOL    HW244083  10.701   2.363   5.353 -0.8039  1.2874 -1.8272
13902SOL     OW44084   4.236   3.150  10.392  0.6293  0.0443  0.3274
13902SOL    HW144085   4.153   3.178  10.429  1.2688 -0.6188  2.4090
13902SOL    HW244086   4.298   3.154  10.465  2.1267 -0.7855 -0.8262
13903SOL     OW44087   4.899  10.511   9.284  0.0841  0.0190  0.0847
13903SOL    HW144088   4.805  10.525   9.273  0.0762 -1.2134 -1.7224
13903SOL    HW244089   4.931  10.594   9.318 -0.9769  2.1681 -3.6260
13904SOL     OW44090   0.234   3.036   5.519  0.5971 -0.0934  0.1870
13904SOL    HW144091   0.272   3.101   5.460  0.9764 -1.2523 -0.8908
13904SOL    HW244092   0.210   3.086   5.598  0.7195  1.3629 -0.6639
13905SOL     OW44093   3.786   1.335   9.762 -0.3357 -0.2302 -0.3521
13905SOL    HW144094   3.760   1.398   9.828 -1.7644  0.0618 -1.1389
13905SOL    HW244095   3.711   1.276   9.755  0.1437 -0.7747 -1.0982
13906SOL     OW44096   1.351   5.910   6.804 -0.4879 -0.3356  0.0595
13906SOL    HW144097   1.354   5.965   6.726 -0.0409  2.2792  1.7787
13906SOL    HW244098   1.280   5.946   6.857  0.5239 -0.7027  1.7460
13907SOL     OW44099   5.026   1.785   3.821  0.3402 -0.0995 -0.0574
13907SOL    HW144100   5.022   1.855   3.886  0.2309 -0.5763  0.4690
13907SOL    HW244101   4.938   1.748   3.819  0.2785  0.0715 -0.6683
13908SOL     OW44102   3.211   6.435   0.173 -0.1526 -0.5148  0.2211
13908SOL    HW144103   3.175   6.485   0.100 -2.1724 -1.2454  0.6637
13908SOL    HW244104   3.282   6.384   0.134  0.0989  0.5681 -0.8023
13909SOL     OW44105   0.249   2.806   0.616 -0.0369 -0.4858  0.1054
13909SOL    HW144106   0.211   2.842   0.696 -0.9973 -0.5443 -0.3101
13909SOL    HW244107   0.180   2.814   0.551  0.8724 -0.0568 -0.8371
13910SOL     OW44108   1.806  10.104   8.416 -0.5868 -0.6873  0.3372
13910SOL    HW144109   1.731  10.044   8.419 -0.6828 -0.5044  1.8796
13910SOL    HW244110   1.877  10.055   8.456  0.3285 -1.0715 -1.6087
13911SOL     OW44111   3.266   8.498   1.976  0.5607  0.0095 -0.1728
13911SOL    HW144112   3.283   8.508   2.069 -0.5257  1.4150 -0.0970
13911SOL    HW244113   3.330   8.433   1.947  2.1797  0.9036  1.1775
13912SOL     OW44114   3.266   8.188   7.323  0.1275 -0.4173  0.0134
13912SOL    HW144115   3.275   8.231   7.408 -2.1260 -1.3877  0.8012
13912SOL    HW244116   3.216   8.250   7.270 -0.2852 -0.6978  0.0769
13913SOL     OW44117   0.700   1.880   7.573 -0.2832 -0.6773 -0.1970
13913SOL    HW144118   0.663   1.960   7.608 -1.4360 -0.9801 -0.6831
13913SOL    HW244119   0.767   1.854   7.637  1.4364  1.6181 -0.9437
13914SOL     OW44120   4.956   8.183  10.243 -0.0376 -0.1240  1.0629
13914SOL    HW144121   4.899   8.239  10.190 -0.8162 -0.8119  1.1456
13914SOL    HW244122   5.010   8.244  10.293 -0.7869  0.5517  1.0696
13915SOL     OW44123   0.427  10.231   0.079 -0.4807  0.2531 -0.0529
13915SOL    HW144124   0.434  10.154   0.134 -0.4238 -0.4491 -1.0152
13915SOL    HW244125   0.337  10.227   0.044 -0.7579  1.0790  0.5355
13916SOL     OW44126   2.736   7.063   1.516 -0.7008 -0.0676  0.7002
13916SOL    HW144127   2.812   7.072   1.574 -1.2459 -0.4154  1.4992
13916SOL    HW244128   2.713   7.153   1.493  0.3649  0.0114 -0.1161
13917SOL     OW44129   0.152   2.122   6.694  0.3865 -0.2531 -0.2838
13917SOL    HW144130   0.204   2.190   6.737  0.2277  1.5310 -2.7076
13917SOL    HW244131   0.067   2.163   6.678 -0.4359 -1.7654  0.0036
13918SOL     OW44132   7.985   2.761   4.627  0.0380 -0.0527  0.3426
13918SOL    HW144133   7.958   2.704   4.555  0.7886  0.4462 -0.3438
13918SOL    HW244134   8.041   2.827   4.586  2.4344 -1.1165  1.6800
13919SOL     OW44135   1.225   0.663   5.140 -0.3384 -0.0311 -0.3399
13919SOL    HW144136   1.228   0.742   5.194  2.0419  0.1299 -0.5979
13919SOL    HW244137   1.166   0.686   5.068 -0.5023  1.1364  0.1476
13920SOL     OW44138   7.654   8.402  10.537  0.2165 -0.3282 -0.5207
13920SOL    HW144139   7.599   8.339  10.583  0.6401 -0.7329 -0.5676
13920SOL    HW244140   7.738   8.359  10.528  0.3632  0.0473 -0.9970
13921SOL     OW44141   8.160   7.585   0.521 -0.5426 -0.3489 -0.0838
13921SOL    HW144142   8.099   7.518   0.490 -0.1426 -0.8225  0.1300
13921SOL    HW244143   8.230   7.535   0.563 -0.0691  0.1945 -0.2238
13922SOL     OW44144   9.327   8.582   5.682  0.6267 -0.2874 -0.3463
13922SOL    HW144145   9.241   8.543   5.696  0.2228  0.5673 -0.3810
13922SOL    HW244146   9.389   8.515   5.713 -0.0424 -0.9026 -0.3075
13923SOL     OW44147   7.300   7.064   0.130  0.2408 -0.1844  0.0683
13923SOL    HW144148   7.368   7.118   0.169  1.4031 -1.9036  0.5573
13923SOL    HW244149   7.255   7.023   0.204 -0.6824  0.1757 -0.2811
13924SOL     OW44150   1.706   9.107   7.300 -0.5654  0.2360 -0.1668
13924SOL    HW144151   1.736   9.193   7.271 -2.1537  0.9566  0.1905
13924SOL    HW244152   1.660   9.124   7.382 -0.7276 -0.9904  0.0158
13925SOL     OW44153   4.181  10.138   6.694  0.1997 -0.1589 -0.1646
13925SOL    HW144154   4.102  10.085   6.706  0.6658 -0.6934  0.6270
13925SOL    HW244155   4.192  10.143   6.599 -2.2429  2.1574 -0.4440
13926SOL     OW44156  10.446   4.762   8.230  0.2470 -0.1811  0.2754
13926SOL    HW144157  10.403   4.834   8.276  1.3238  0.2296  0.6628
13926SOL    HW244158  10.535   4.760   8.266  0.9745 -0.1763 -1.4221
13927SOL     OW44159   9.465   4.872  10.202  0.0876  0.8259  0.0038
13927SOL    HW144160   9.428   4.918  10.126 -0.3474  2.5917  1.2382
13927SOL    HW244161   9.552   4.910  10.214  0.5524 -0.1399 -0.1629
13928SOL     OW44162   9.899   9.396   2.215 -0.0283  0.0267  0.4201
13928SOL    HW144163   9.830   9.344   2.174 -1.8697  2.4778  0.2084
13928SOL    HW244164   9.943   9.334   2.274 -2.6613 -1.5812  0.8758
13929SOL     OW44165  10.295   5.547   1.913 -0.3207  0.2889  0.1369
13929SOL    HW144166  10.300   5.451   1.913  0.8482  0.3316  0.1797
13929SOL    HW244167  10.361   5.574   1.849  1.7195  1.1175  2.4053
13930SOL     OW44168   8.940   2.543   8.525  0.6141 -0.4903  0.5555
13930SOL    HW144169   8.862   2.492   8.547 -0.0046 -0.3917 -1.2796
13930SOL    HW244170   9.010   2.479   8.523  0.6406 -0.5710  2.2838
13931SOL     OW44171   7.798   4.496   9.175 -0.0258 -0.7160  0.0193
13931SOL    HW144172   7.889   4.497   9.145 -0.0711 -1.3305 -0.1388
13931SOL    HW244173   7.800   4.544   9.258  0.3108 -0.0752 -0.3479
13932SOL     OW44174   6.457   4.882   1.988 -0.4544  0.0237  0.2144
13932SOL    HW144175   6.527   4.948   1.987 -1.1784  0.8008 -0.4226
13932SOL    HW244176   6.469   4.833   1.907  0.4010 -0.9846  0.9362
13933SOL     OW44177  10.753   6.039   8.603  0.0793  0.3470 -0.1352
13933SOL    HW144178  10.753   6.104   8.533 -1.8007  0.5288 -0.0075
13933SOL    HW244179  10.827   5.982   8.582  1.3341  2.0585 -0.6530
13934SOL     OW44180   2.134  10.209   3.522  0.1205 -0.4600  0.2279
13934SOL    HW144181   2.151  10.242   3.610  0.3678 -0.2829  0.1154
13934SOL    HW244182   2.077  10.134   3.535  1.2160 -1.2517  0.6570
13935SOL     OW44183   3.378   3.854   5.674  0.3956 -0.0891 -0.3035
13935SOL    HW144184   3.443   3.804   5.724 -0.1796  0.1866  0.7600
13935SOL    HW244185   3.337   3.789   5.616  0.8093 -0.5007 -0.1391
13936SOL     OW44186   1.438   9.270   6.337 -0.3041  0.3631 -0.6622
13936SOL    HW144187   1.493   9.229   6.270  0.3619 -0.9727  0.6585
13936SOL    HW244188   1.483   9.253   6.420 -1.0050  2.1472  0.1482
13937SOL     OW44189   8.606   0.996   9.125 -0.4635  0.2768 -0.1469
13937SOL    HW144190   8.523   0.998   9.173 -0.0235  2.1715  0.6215
13937SOL    HW244191   8.657   0.927   9.167  0.0940  2.1956  2.5573
13938SOL     OW44192   8.744   6.630   7.383 -0.3526  0.4593  0.2307
13938SOL    HW144193   8.703   6.586   7.309  0.6164 -0.1972  0.0674
13938SOL    HW244194   8.791   6.704   7.344 -0.8740  0.8602  0.3492
13939SOL     OW44195   3.747   6.628   2.811 -0.6315 -0.1368 -0.4499
13939SOL    HW144196   3.740   6.611   2.717  0.2053 -1.9900 -0.2291
13939SOL    HW244197   3.705   6.552   2.852  0.6216 -0.2562  0.6658
13940SOL     OW44198   0.988   8.881   7.390 -0.4144 -0.3177 -0.0068
13940SOL    HW144199   0.950   8.964   7.420 -1.5360 -1.3542  1.5983
13940SOL    HW244200   1.054   8.859   7.456  0.3142 -0.4165 -0.7557
13941SOL     OW44201   2.581   2.286  10.306  0.6325  0.3907 -0.2025
13941SOL    HW144202   2.577   2.286  10.401 -0.0653 -1.7356 -0.1984
13941SOL    HW244203   2.639   2.214  10.283  2.3169  2.0213 -1.4015
13942SOL     OW44204   6.830   4.532   8.094  0.4428  0.2204  0.0397
13942SOL    HW144205   6.830   4.623   8.125  2.1814  1.1521 -2.4144
13942SOL    HW244206   6.741   4.518   8.062  0.0804  0.9636  0.6745
13943SOL     OW44207   4.417   7.200   6.540  0.4787 -1.0570 -0.7132
13943SOL    HW144208   4.399   7.192   6.633 -0.7016  0.0366 -0.8146
13943SOL    HW244209   4.371   7.125   6.501  2.0745 -2.2898 -0.3366
13944SOL     OW44210   9.302   4.577   5.358  0.0324 -0.1476 -0.1239
13944SOL    HW144211   9.265   4.496   5.395  2.7603 -1.1416  0.6876
13944SOL    HW244212   9.332   4.552   5.271  2.3963 -0.6156  0.7286
13945SOL     OW44213   9.122   5.012   1.080 -0.1602 -0.0666  0.1123
13945SOL    HW144214   9.140   5.031   0.988  1.2413 -2.6217 -0.2413
13945SOL    HW244215   9.152   4.922   1.092 -2.8871 -0.8028  2.3970
13946SOL     OW44216   7.628   2.592   9.193 -0.1488 -0.1972  0.1134
13946SOL    HW144217   7.671   2.529   9.251  0.3860 -1.0250 -1.1354
13946SOL    HW244218   7.687   2.599   9.118 -0.7367  0.9796 -0.2622
13947SOL     OW44219   5.144   7.452   6.029  0.2539 -0.2156  0.2410
13947SOL    HW144220   5.131   7.463   6.123 -0.6830  2.3680 -0.1210
13947SOL    HW244221   5.057   7.432   5.995  0.4761 -0.5322 -0.1448
13948SOL     OW44222   5.688   1.575   3.429 -0.4754  0.1187 -0.1998
13948SOL    HW144223   5.618   1.617   3.480 -0.4953 -0.6694  0.4484
13948SOL    HW244224   5.692   1.486   3.464 -0.2470 -0.3352 -1.3600
13949SOL     OW44225   7.883   4.190   1.788 -0.1469  0.1811 -0.1379
13949SOL    HW144226   7.978   4.185   1.784 -0.0461  0.7082  1.2023
13949SOL    HW244227   7.862   4.277   1.753 -0.2722 -0.5207 -1.8995
13950SOL     OW44228   3.162   4.677   6.738  0.6096 -0.1618 -0.3873
13950SOL    HW144229   3.180   4.768   6.761  0.7070  0.6577 -3.2632
13950SOL    HW244230   3.241   4.646   6.694 -0.5345 -0.4900 -2.3724
13951SOL     OW44231   8.466   1.625   4.466 -0.1135  1.0369  0.1146
13951SOL    HW144232   8.477   1.705   4.518  0.3115  0.8584  0.3110
13951SOL    HW244233   8.372   1.618   4.451 -0.0730  2.1002 -0.7459
13952SOL     OW44234   7.234   2.351   8.162 -0.0475 -0.5847 -0.7774
13952SOL    HW144235   7.242   2.446   8.155 -0.4266 -0.3550  1.3691
13952SOL    HW244236   7.322   2.318   8.144 -0.1749  0.0152 -2.8424
13953SOL     OW44237   2.524   5.330   2.003  0.5700  0.3943 -0.1279
13953SOL    HW144238   2.469   5.263   2.043 -0.0973  0.8231 -0.3188
13953SOL    HW244239   2.601   5.336   2.060 -0.4061  1.0759  1.1620
13954SOL     OW44240   7.958   5.181   7.365  0.2964  0.7490  0.2488
13954SOL    HW144241   7.988   5.224   7.285 -1.3061  1.4063 -0.0339
13954SOL    HW244242   7.932   5.253   7.423 -0.1518  0.2305  0.7066
13955SOL     OW44243   8.994   6.698   4.830  0.0523 -0.5674  0.0409
13955SOL    HW144244   8.974   6.613   4.871  1.2624 -0.9084 -0.0490
13955SOL    HW244245   8.992   6.679   4.736 -0.3918 -0.3172 -0.0044
13956SOL     OW44246   7.290   6.850   9.838 -0.1823 -0.1372 -0.1004
13956SOL    HW144247   7.337   6.807   9.766 -0.9674  0.6267 -1.0934
13956SOL    HW244248   7.329   6.813   9.917  0.8198 -0.8736 -0.9097
13957SOL     OW44249   0.652   2.814   7.501 -0.2695  0.0213 -0.2616
13957SOL    HW144250   0.564   2.790   7.471 -0.0597 -0.9972 -0.1152
13957SOL    HW244251   0.711   2.767   7.442  0.1598 -0.5524  0.6000
13958SOL     OW44252   0.933   3.827   8.976  0.5968 -0.5501  0.6938
13958SOL    HW144253   1.016   3.868   8.952 -0.3438  1.6319  0.9429
13958SOL    HW244254   0.895   3.886   9.041 -2.3159 -0.0261 -1.2921
13959SOL     OW44255   3.444   6.498   0.623  0.0361  0.0023  0.2064
13959SOL    HW144256   3.355   6.533   0.627 -0.6484 -1.5776 -0.3532
13959SOL    HW244257   3.486   6.531   0.702 -0.5903  1.8666 -0.1649
13960SOL     OW44258   1.660   7.155   4.048  0.3507  0.0819 -0.0794
13960SOL    HW144259   1.679   7.240   4.087  0.0252  0.2016 -0.1774
13960SOL    HW244260   1.714   7.152   3.970 -0.1806  0.5149 -0.4769
13961SOL     OW44261  10.084   8.282   7.799  0.8239 -0.9688  0.0650
13961SOL    HW144262  10.096   8.344   7.871 -0.4014  1.1281 -1.4403
13961SOL    HW244263  10.159   8.296   7.742  0.8773 -1.3582  0.0370
13962SOL     OW44264   5.675   7.787   8.090 -0.2733  0.2256  0.0605
13962SOL    HW144265   5.591   7.830   8.077 -0.3382  0.0321 -0.1637
13962SOL    HW244266   5.685   7.729   8.015  0.4856  0.9192 -0.3877
13963SOL     OW44267   2.114   5.109   0.071  0.8173  0.0383 -0.0465
13963SOL    HW144268   2.046   5.149   0.016  0.2120  0.6788  1.1248
13963SOL    HW244269   2.187   5.170   0.068  0.9566 -0.1440 -0.4773
13964SOL     OW44270   5.305   3.932   3.478  0.2385  0.3775  0.3581
13964SOL    HW144271   5.257   3.864   3.526  0.2751 -0.8471 -1.2709
13964SOL    HW244272   5.248   4.009   3.483 -0.1585  0.0323  1.5914
13965SOL     OW44273   3.066   4.421   9.885  0.0307 -0.2273 -0.1640
13965SOL    HW144274   3.142   4.379   9.924  1.3101  0.2513 -1.9907
13965SOL    HW244275   3.049   4.498   9.939  3.0459  1.5958 -1.5787
13966SOL     OW44276   1.777   5.604   2.277 -0.0927 -0.2117 -0.4515
13966SOL    HW144277   1.793   5.681   2.223 -1.2917  1.6219  1.6330
13966SOL    HW244278   1.864   5.575   2.304  0.3797  0.4281 -1.2381
13967SOL     OW44279   5.885   5.852   8.884  0.0487 -0.5966 -0.3280
13967SOL    HW144280   5.956   5.909   8.912 -0.3629  0.7649 -1.8945
13967SOL    HW244281   5.807   5.888   8.928  0.0888 -1.1518  0.1999
13968SOL     OW44282   7.667   3.083   7.910 -0.1521  0.1405  0.7145
13968SOL    HW144283   7.609   3.155   7.934 -0.4742  0.0655  0.1630
13968SOL    HW244284   7.615   3.004   7.926  0.3641 -0.0032  1.7794
13969SOL     OW44285   6.109   9.974   0.203  0.6647 -0.4960 -0.3054
13969SOL    HW144286   6.024   9.943   0.172 -0.0679  1.8484 -0.8612
13969SOL    HW244287   6.095  10.000   0.293 -0.0126  2.3509 -1.1270
13970SOL     OW44288   5.454   5.819   9.512  0.3320 -0.6314  0.2490
13970SOL    HW144289   5.513   5.772   9.571  0.8227  0.9758  1.0777
13970SOL    HW244290   5.507   5.841   9.436 -0.1131 -2.0708 -0.5198
13971SOL     OW44291   8.035   2.732   2.371  0.1211  0.1924  0.3251
13971SOL    HW144292   8.115   2.718   2.319  1.1776  1.3445  1.5689
13971SOL    HW244293   7.991   2.805   2.328  0.7992  0.8961  0.8040
13972SOL     OW44294   3.706   2.778  10.103  0.2640  0.1626  0.6375
13972SOL    HW144295   3.757   2.789  10.023 -0.6297  1.1977  0.1837
13972SOL    HW244296   3.663   2.863  10.115 -1.9697 -0.8962  0.5439
13973SOL     OW44297  10.494  10.192   6.367 -0.5521  0.0250  0.3230
13973SOL    HW144298  10.538  10.216   6.286 -1.8620  0.8972 -0.1479
13973SOL    HW244299  10.515  10.099   6.379 -0.4354 -0.1402 -1.0628
13974SOL     OW44300   5.525   2.923   3.123  0.8131 -0.4517 -0.4395
13974SOL    HW144301   5.520   3.001   3.178  0.7866 -0.4524 -0.4409
13974SOL    HW244302   5.452   2.933   3.061  1.2775 -0.0872 -0.9437
13975SOL     OW44303   0.731   3.094   7.429  0.4094 -0.4292 -0.0447
13975SOL    HW144304   0.783   3.101   7.509 -0.0085  0.8293  0.1326
13975SOL    HW244305   0.696   3.005   7.430  1.6810 -0.9469  0.3703
13976SOL     OW44306   6.080   8.792   4.193  0.1693 -0.1990 -0.3745
13976SOL    HW144307   5.997   8.751   4.169  0.0013  0.7169 -1.3858
13976SOL    HW244308   6.125   8.807   4.110  0.5337  1.0361  0.0314
13977SOL     OW44309   0.130   3.285   2.738  0.6160 -0.2531 -0.7445
13977SOL    HW144310   0.204   3.225   2.737  0.0099 -1.0361  0.1453
13977SOL    HW244311   0.154   3.352   2.802  0.2207 -0.9710  0.1805
13978SOL     OW44312   2.429   3.986  10.272 -0.1429  0.0700  0.4190
13978SOL    HW144313   2.492   4.004  10.341 -0.3726  1.6895  0.2484
13978SOL    HW244314   2.476   4.003  10.190 -0.8144  1.5551  0.2950
13979SOL     OW44315   4.384   4.888   0.370 -0.0518 -0.0737  0.2095
13979SOL    HW144316   4.383   4.939   0.289 -2.0115 -1.4123 -0.6902
13979SOL    HW244317   4.466   4.839   0.365  1.2326  1.9249  0.4691
13980SOL     OW44318   7.671   1.195   5.741  0.0891 -0.1665  0.3368
13980SOL    HW144319   7.606   1.199   5.670 -0.3718 -1.8885  0.6038
13980SOL    HW244320   7.739   1.137   5.707  0.5976  0.1843  0.7559
13981SOL     OW44321   7.478   7.259   0.223  0.1258  0.3539 -0.0639
13981SOL    HW144322   7.492   7.335   0.280  0.9185  0.0744  0.1261
13981SOL    HW244323   7.424   7.293   0.151  0.1455  0.9997  0.2178
13982SOL     OW44324   5.295   3.548   0.824  0.8805  0.4478 -0.2435
13982SOL    HW144325   5.305   3.493   0.902 -1.8739  1.0016  0.6172
13982SOL    HW244326   5.364   3.614   0.833  1.3814 -0.2076  1.0728
13983SOL     OW44327   8.859   7.725   3.014 -0.4908  0.4121  0.3572
13983SOL    HW144328   8.947   7.739   2.978 -0.9813 -2.2089 -2.2620
13983SOL    HW244329   8.870   7.735   3.109  1.8029  3.5914 -0.0805
13984SOL     OW44330   8.966   3.933   2.723 -0.3481  0.0854  0.2154
13984SOL    HW144331   9.001   3.914   2.636 -1.3805 -2.1231  0.2176
13984SOL    HW244332   9.034   3.902   2.783 -0.1099  0.5963  0.2167
13985SOL     OW44333   0.328   0.741   0.765  0.0974  0.0411  0.1553
13985SOL    HW144334   0.249   0.710   0.721 -1.6626  2.6400  1.2331
13985SOL    HW244335   0.399   0.720   0.704 -1.2766 -2.8925 -0.5852
13986SOL     OW44336   3.755   7.746   3.120  0.1321  0.3444  0.3319
13986SOL    HW144337   3.847   7.765   3.100  0.2585 -0.3500  0.2239
13986SOL    HW244338   3.753   7.651   3.133 -1.0285 -0.0475 -2.1952
13987SOL     OW44339   6.779   2.103   5.610 -0.9932 -0.1529 -0.1772
13987SOL    HW144340   6.801   2.035   5.673 -0.6447  1.1849  1.2125
13987SOL    HW244341   6.863   2.144   5.589 -1.2619  0.1951 -0.5936
13988SOL     OW44342   5.574   4.682   6.773 -0.3206 -0.1799 -0.2333
13988SOL    HW144343   5.633   4.649   6.842 -1.1188  2.5839  1.9612
13988SOL    HW244344   5.499   4.623   6.775 -0.3797 -0.0925  1.4156
13989SOL     OW44345  10.397   6.153   8.498 -0.7632  0.3778 -0.4212
13989SOL    HW144346  10.324   6.210   8.524 -1.0654  0.0648 -0.5710
13989SOL    HW244347  10.475   6.208   8.506 -1.0233  0.7319 -0.3066
13990SOL     OW44348   2.862  10.684   3.844  0.1428 -0.0574  0.2392
13990SOL    HW144349   2.856  10.747   3.915 -2.7224 -0.9993  0.9601
13990SOL    HW244350   2.956  10.671   3.831  0.7891  2.9700  1.2270
13991SOL     OW44351   1.854   9.317   5.757 -0.3546 -0.0637 -0.2961
13991SOL    HW144352   1.823   9.317   5.666 -1.6462 -1.4634  0.1092
13991SOL    HW244353   1.919   9.246   5.760 -0.5607 -0.2433 -0.0545
13992SOL     OW44354   4.827   9.639   0.354 -0.4984  0.4600  0.5963
13992SOL    HW144355   4.858   9.640   0.264  1.0244 -2.7774  0.9427
13992SOL    HW244356   4.761   9.569   0.356 -1.8473  1.6984  1.6546
13993SOL     OW44357   0.691   4.281   2.977 -0.4311  0.1072  0.1852
13993SOL    HW144358   0.744   4.339   3.031 -1.1181  1.0406 -0.1323
13993SOL    HW244359   0.609   4.328   2.964 -0.6045 -0.4771 -0.9445
13994SOL     OW44360   2.108   0.960   7.493 -0.7280 -0.2060 -0.3607
13994SOL    HW144361   2.165   1.009   7.552 -1.2377  0.9617 -0.8130
13994SOL    HW244362   2.164   0.890   7.458  0.3144  0.6693 -0.4813
13995SOL     OW44363   6.518   7.071  10.670 -0.4819  0.0566 -0.7472
13995SOL    HW144364   6.443   7.075  10.729 -0.5152  0.9564 -0.8366
13995SOL    HW244365   6.593   7.055  10.728 -0.8435 -1.8829 -0.7622
13996SOL     OW44366   7.811   1.623   9.550  0.4091  0.1801 -0.1312
13996SOL    HW144367   7.846   1.579   9.627 -1.7118 -1.6134 -0.0753
13996SOL    HW244368   7.798   1.713   9.577 -0.0113 -0.3479  1.5248
13997SOL     OW44369   0.456   4.121   5.183 -0.1279 -0.5783 -0.3704
13997SOL    HW144370   0.419   4.037   5.210 -1.6416  0.1664 -0.0078
13997SOL    HW244371   0.421   4.184   5.245  0.2210  0.4628 -1.1919
13998SOL     OW44372   9.457   8.771   3.499 -0.4255  0.2749 -0.2154
13998SOL    HW144373   9.508   8.841   3.540  0.3380  0.0774 -0.8206
13998SOL    HW244374   9.431   8.806   3.414 -0.0941 -0.1486 -0.4949
13999SOL     OW44375   4.241   0.016   1.337 -0.4386 -0.1884  0.0657
13999SOL    HW144376   4.166   0.071   1.313 -0.3026 -0.7999 -1.9717
13999SOL    HW244377   4.298   0.074   1.387 -0.2278  1.6426 -2.1306
14000SOL     OW44378   4.982   5.613   3.963 -0.7366 -0.5469  0.7515
14000SOL    HW144379   4.921   5.606   3.889  0.1532  0.8110 -0.1569
14000SOL    HW244380   4.946   5.683   4.016 -0.3637 -0.2397  0.5993
14001SOL     OW44381   0.587   2.448   6.936 -0.1722 -0.2939 -0.2337
14001SOL    HW144382   0.620   2.480   7.020  0.1194 -0.8537 -0.1314
14001SOL    HW244383   0.589   2.525   6.879 -1.3994  0.3601  0.5566
14002SOL     OW44384   6.896  10.191   6.035  0.5655  0.0641  0.4165
14002SOL    HW144385   6.849  10.239   5.967  0.7358  1.2265  1.0862
14002SOL    HW244386   6.941  10.259   6.085 -1.0232 -0.5321  2.8341
14003SOL     OW44387   3.510   1.423   1.956  0.5119  0.2079  0.4133
14003SOL    HW144388   3.485   1.379   1.874  2.0984 -2.8088  1.4199
14003SOL    HW244389   3.605   1.434   1.950  1.0161 -2.0942  2.6534
14004SOL     OW44390   7.526   2.536   4.422 -0.3411 -0.0286  0.8029
14004SOL    HW144391   7.584   2.463   4.399  0.6127  1.1466 -0.7264
14004SOL    HW244392   7.581   2.595   4.472 -0.6503  0.3831  0.6595
14005SOL     OW44393   7.311  10.730   2.231 -0.9221  0.2975 -0.0882
14005SOL    HW144394   7.241  10.671   2.259 -0.5219 -0.3820 -0.4956
14005SOL    HW244395   7.383  10.711   2.291 -0.6470  0.0524 -0.4874
14006SOL     OW44396   4.404   9.062   6.750  0.1198  0.0973  0.3966
14006SOL    HW144397   4.416   9.082   6.657  1.1120  0.1370  0.5209
14006SOL    HW244398   4.458   9.127   6.795  1.0358 -1.0231  0.9326
14007SOL     OW44399   7.172   5.382   0.412 -0.1410 -0.4228 -0.2657
14007SOL    HW144400   7.137   5.460   0.368  1.9859  0.5408 -0.3754
14007SOL    HW244401   7.132   5.309   0.365 -3.8112  0.4781  1.1484
14008SOL     OW44402  10.294   5.875  10.674 -0.4901 -0.3785 -0.1993
14008SOL    HW144403  10.375   5.893  10.627 -0.0203 -1.2780  0.2340
14008SOL    HW244404  10.226   5.879  10.608 -0.0329 -0.0366 -0.6529
14009SOL     OW44405   9.225   4.587   9.722  0.4395 -0.7636 -0.2274
14009SOL    HW144406   9.226   4.539   9.805  1.3737  1.2739  1.0069
14009SOL    HW244407   9.311   4.571   9.683  0.9894  0.3641  0.4888
14010SOL     OW44408   1.085   4.390   7.830  0.7168 -0.1129 -0.2568
14010SOL    HW144409   1.168   4.343   7.831  2.1658  2.2149 -1.4453
14010SOL    HW244410   1.098   4.463   7.890 -0.7092 -0.0575  0.0111
14011SOL     OW44411   1.224   9.333  10.022  0.2664  0.3215 -0.0501
14011SOL    HW144412   1.248   9.249  10.061 -2.1095 -0.0172  0.8597
14011SOL    HW244413   1.300   9.390  10.039  2.3603 -1.8092 -1.5698
14012SOL     OW44414   5.807   6.539   6.872 -0.0817 -0.5360  0.1325
14012SOL    HW144415   5.885   6.567   6.920  0.9401 -0.3862 -1.5312
14012SOL    HW244416   5.757   6.488   6.936  1.0153 -0.0344  1.4517
14013SOL     OW44417   6.421   9.764   6.307 -0.2574  0.2493 -0.1961
14013SOL    HW144418   6.359   9.756   6.380  1.2866  1.4044  1.2953
14013SOL    HW244419   6.493   9.705   6.330  0.7677  1.4566 -0.2006
14014SOL     OW44420  10.522   6.701   7.031  0.8722 -0.1387 -0.8499
14014SOL    HW144421  10.460   6.729   6.963  1.6872  0.9775 -1.1625
14014SOL    HW244422  10.565   6.782   7.058 -0.7573 -0.1969  2.3836
14015SOL     OW44423   8.624   0.883   1.167 -0.0903 -0.5691 -0.2556
14015SOL    HW144424   8.669   0.911   1.247 -0.6124  0.3533 -0.2714
14015SOL    HW244425   8.539   0.927   1.170 -0.0148 -0.3084 -1.4525
14016SOL     OW44426   6.610   1.739   2.119 -0.1707 -0.4523 -0.0832
14016SOL    HW144427   6.669   1.676   2.160 -1.4066 -1.6154 -0.0192
14016SOL    HW244428   6.612   1.717   2.026  1.8724  1.5466 -0.5890
14017SOL     OW44429   9.631   0.826   7.339  0.1525  0.3722 -0.3961
14017SOL    HW144430   9.627   0.732   7.356  1.9942  0.0842 -1.1997
14017SOL    HW244431   9.552   0.845   7.288 -0.4126 -0.6654  0.0621
14018SOL     OW44432   6.859   4.003   0.859 -0.4173  0.1272 -0.6882
14018SOL    HW144433   6.867   4.090   0.820 -1.4895  1.0610  1.0033
14018SOL    HW244434   6.940   3.993   0.910 -0.8253  0.6937  0.0961
14019SOL     OW44435   1.832   5.204   3.034 -0.4194 -0.0771 -0.2696
14019SOL    HW144436   1.841   5.236   2.944 -1.4064 -1.2154 -0.8188
14019SOL    HW244437   1.744   5.232   3.060 -0.7228 -1.0262 -0.2318
14020SOL     OW44438   2.018   6.671   5.375  0.1945  0.0884 -0.4856
14020SOL    HW144439   2.030   6.759   5.339 -0.7547  0.0848 -0.8407
14020SOL    HW244440   2.014   6.615   5.297 -2.9117  0.2014 -0.5111
14021SOL     OW44441  10.293   6.397   8.612 -0.0524  0.1416 -0.1119
14021SOL    HW144442  10.216   6.452   8.626  0.2215  0.8766 -1.2670
14021SOL    HW244443  10.351   6.451   8.557  0.2959 -1.2434 -1.1824
14022SOL     OW44444   8.690   1.596   9.854 -0.1664 -0.0076  0.1139
14022SOL    HW144445   8.698   1.678   9.902  2.7723  0.1694 -0.4885
14022SOL    HW244446   8.645   1.619   9.773  1.2938  1.2182 -0.3887
14023SOL     OW44447   8.442   2.145  10.586 -0.4517  0.0335 -0.0170
14023SOL    HW144448   8.457   2.210  10.517  1.6261  2.0355  2.1273
14023SOL    HW244449   8.524   2.096  10.590 -0.4752  0.0577  1.0913
14024SOL     OW44450   4.312   9.814  10.768 -0.3326 -0.0563  0.5336
14024SOL    HW144451   4.329   9.878  10.838  0.1155  0.4825 -0.0586
14024SOL    HW244452   4.374   9.837  10.699 -0.4097 -0.9134  0.1605
14025SOL     OW44453   6.103   8.717  10.452  0.4884 -0.2094 -0.3614
14025SOL    HW144454   6.014   8.681  10.456 -0.1086  1.2165 -0.1199
14025SOL    HW244455   6.158   8.650  10.491 -0.3332 -1.5345 -1.3971
14026SOL     OW44456   9.480   7.959   8.102  0.4723 -0.3794  0.2870
14026SOL    HW144457   9.436   7.898   8.042  0.7991  0.3495 -0.7265
14026SOL    HW244458   9.416   8.029   8.116  0.1136 -0.9027  1.4143
14027SOL     OW44459   4.050   2.564   8.793 -0.2231  0.0202  0.5665
14027SOL    HW144460   4.053   2.653   8.828  1.4234  0.7270 -1.2548
14027SOL    HW244461   3.974   2.564   8.734 -0.9611 -0.1863  1.4841
14028SOL     OW44462   5.911   3.487   5.027 -0.1234  0.2307  0.0192
14028SOL    HW144463   5.930   3.495   5.120  0.9857 -1.8985  0.0324
14028SOL    HW244464   5.987   3.525   4.984 -1.0063  1.9872 -0.0761
14029SOL     OW44465   9.595   5.925   7.513  0.1971  0.3238 -0.0778
14029SOL    HW144466   9.522   5.867   7.537 -2.7445  4.4525  2.0473
14029SOL    HW244467   9.669   5.891   7.563 -0.9837 -2.2465  0.1235
14030SOL     OW44468   3.738  10.774   0.944  0.3778  0.0969 -0.1666
14030SOL    HW144469   3.688  10.695   0.965  0.3232 -0.2192 -1.4143
14030SOL    HW244470   3.747  10.819   1.028  0.7462 -1.4142  0.6443
14031SOL     OW44471  10.058   2.606   2.111 -0.0759  0.2862 -0.1060
14031SOL    HW144472  10.071   2.680   2.052 -0.1802 -0.4354 -1.0467
14031SOL    HW244473  10.031   2.534   2.054 -0.7994 -0.2582  0.8968
14032SOL     OW44474   7.428   4.228   0.762 -0.1184  0.3677  0.5637
14032SOL    HW144475   7.460   4.211   0.674 -1.4260 -0.7028  0.2520
14032SOL    HW244476   7.359   4.293   0.750 -2.1954 -1.7311  0.3562
14033SOL     OW44477   1.515   8.759   4.078  0.1186 -0.1699 -0.0698
14033SOL    HW144478   1.496   8.720   3.992  0.3113 -0.3759 -0.0209
14033SOL    HW244479   1.508   8.853   4.064 -0.3618 -0.2211 -0.1896
14034SOL     OW44480   0.329   6.259   3.880  0.2275 -0.5985  0.3565
14034SOL    HW144481   0.353   6.345   3.846 -1.6037 -0.4229 -0.6109
14034SOL    HW244482   0.345   6.199   3.808 -0.9096 -0.6616  0.1354
14035SOL     OW44483   1.964   2.791   4.467 -0.4116  0.2692  0.0698
14035SOL    HW144484   1.944   2.716   4.523 -1.1051 -0.2041 -0.7835
14035SOL    HW244485   2.045   2.767   4.423 -0.4644  0.1555  0.0337
14036SOL     OW44486   2.922   3.073   3.110  0.3216 -0.2056  0.1089
14036SOL    HW144487   2.845   3.021   3.131 -0.0195 -0.1751 -0.9777
14036SOL    HW244488   2.905   3.159   3.147 -0.9443  0.2946 -1.5256
14037SOL     OW44489   2.565   3.703   3.410  0.2959  0.1333  0.5449
14037SOL    HW144490   2.514   3.632   3.373  0.0084  0.2002  0.8074
14037SOL    HW244491   2.599   3.751   3.334 -0.0484  0.0992  0.3672
14038SOL     OW44492   3.918   6.102   5.087 -0.1347 -0.1153  0.2715
14038SOL    HW144493   3.855   6.031   5.082  1.5297 -1.5963 -1.2062
14038SOL    HW244494   3.903   6.142   5.173 -3.5977  0.2092 -0.3619
14039SOL     OW44495   0.032   1.711   9.327 -0.0551  0.5851  0.2896
14039SOL    HW144496   0.082   1.785   9.360 -0.5522  1.2090 -0.3325
14039SOL    HW244497  -0.041   1.702   9.389  0.4849  0.0546  0.8573
14040SOL     OW44498   7.788   3.840   5.954  0.0943 -0.1286 -0.2917
14040SOL    HW144499   7.833   3.815   6.035  0.9707 -0.0091 -0.7214
14040SOL    HW244500   7.745   3.923   5.976 -0.5817 -0.6348  0.3541
14041SOL     OW44501   5.912   0.215   9.226  0.6271  0.4593 -0.1783
14041SOL    HW144502   5.975   0.145   9.246 -1.4580 -0.9216  2.2456
14041SOL    HW244503   5.852   0.176   9.162  0.4895  0.6626 -0.1734
14042SOL     OW44504   5.339   4.737   5.677 -0.5072 -0.3748  0.5715
14042SOL    HW144505   5.414   4.742   5.736 -0.6509  1.0480  0.6903
14042SOL    HW244506   5.264   4.760   5.732 -0.7226  0.3864 -0.0186
14043SOL     OW44507   6.352   5.328   2.911  0.1769  0.5123  0.0504
14043SOL    HW144508   6.387   5.360   2.828  1.1568  0.6854  0.5241
14043SOL    HW244509   6.358   5.232   2.904 -0.6641  0.4798 -0.4563
14044SOL     OW44510   1.640   8.990   3.692 -0.1443  0.4464 -0.2290
14044SOL    HW144511   1.665   9.003   3.600 -4.0071 -0.1969 -1.5364
14044SOL    HW244512   1.699   9.048   3.741  1.4395  1.5449 -3.1735
14045SOL     OW44513   0.799   4.189   9.527  0.3465  0.1575  0.6299
14045SOL    HW144514   0.721   4.232   9.490 -0.1441 -2.0465 -1.1077
14045SOL    HW244515   0.873   4.229   9.480  0.0556  0.4633  0.4235
14046SOL     OW44516   1.830   5.280   0.953  0.2481  0.1970  0.1115
14046SOL    HW144517   1.862   5.351   0.897 -1.0436  0.0856 -0.7989
14046SOL    HW244518   1.804   5.324   1.034  1.7961  0.4034  0.5439
14047SOL     OW44519   8.356   1.042   9.357 -0.4482 -0.2040  0.3385
14047SOL    HW144520   8.421   1.106   9.385  0.1859 -0.1979 -1.0342
14047SOL    HW244521   8.290   1.093   9.310  0.0557 -0.5144 -0.7542
14048SOL     OW44522   9.061   3.631   1.447  0.0431  0.4274 -0.7296
14048SOL    HW144523   8.995   3.699   1.455 -1.5487 -1.1943  0.8595
14048SOL    HW244524   9.024   3.570   1.382  1.2677  0.8270 -1.8480
14049SOL     OW44525   2.348   0.614   5.691  0.4385  0.1452  0.1537
14049SOL    HW144526   2.342   0.709   5.698 -0.1126  0.0977  0.4131
14049SOL    HW244527   2.414   0.598   5.623  0.8942  0.7058  0.4610
14050SOL     OW44528   6.350  10.197   9.691  0.1050  0.5527 -0.2237
14050SOL    HW144529   6.359  10.104   9.708  2.5964  0.7380 -0.1549
14050SOL    HW244530   6.307  10.202   9.606  1.5600 -0.7551 -1.1021
14051SOL     OW44531   1.808   2.264   1.114 -0.9122 -0.0912 -0.2566
14051SOL    HW144532   1.725   2.220   1.133 -0.1416 -1.4405  0.1523
14051SOL    HW244533   1.799   2.351   1.153 -1.8871 -0.4551  0.3664
14052SOL     OW44534   0.344   9.250   9.932 -0.2008  0.5199  0.3014
14052SOL    HW144535   0.364   9.163   9.898 -2.8262 -0.2307  0.4730
14052SOL    HW244536   0.288   9.290   9.866  1.1058  2.2038  0.1385
14053SOL     OW44537   4.946   7.703   3.686  0.3608 -0.3887  0.5016
14053SOL    HW144538   4.944   7.759   3.764  1.3107  0.0920  0.1987
14053SOL    HW244539   4.886   7.631   3.706  1.2571 -0.7502  2.0486
14054SOL     OW44540   2.952   4.230   5.416  0.4852  0.3202 -0.4229
14054SOL    HW144541   2.859   4.222   5.437  0.7324 -1.3072  0.1257
14054SOL    HW244542   2.998   4.186   5.488  1.6542  0.4460 -1.0598
14055SOL     OW44543   0.593   7.150   3.808  0.8130 -0.5185 -0.0450
14055SOL    HW144544   0.583   7.078   3.870  0.4025 -1.2382 -0.9190
14055SOL    HW244545   0.665   7.122   3.751 -0.4848 -1.1022 -1.4922
14056SOL     OW44546   1.140   9.765   5.997 -0.4855 -0.3330 -0.0411
14056SOL    HW144547   1.226   9.724   6.008  0.2480  1.0553 -0.3413
14056SOL    HW244548   1.130   9.773   5.902  0.5064  2.3165 -0.0133
14057SOL     OW44549  10.465   3.071   7.954  0.3082  0.3406 -0.3449
14057SOL    HW144550  10.465   2.975   7.948 -0.4238  0.1788  1.5476
14057SOL    HW244551  10.537   3.098   7.897  0.9255 -1.3672 -0.4498
14058SOL     OW44552   8.207   9.714   2.096 -0.0497  0.6900  0.4423
14058SOL    HW144553   8.260   9.672   2.029 -0.6124 -0.5519  0.7435
14058SOL    HW244554   8.268   9.766   2.148  0.7170 -0.0256  0.2567
14059SOL     OW44555   2.772   8.996   8.146  0.1744 -0.6859  0.6649
14059SOL    HW144556   2.690   8.987   8.194 -0.5435  0.4125 -0.2910
14059SOL    HW244557   2.825   9.055   8.200 -1.8328  3.1846 -1.1908
14060SOL     OW44558   5.467   4.483  10.540 -0.1991  0.4719  0.1324
14060SOL    HW144559   5.553   4.447  10.560 -0.7543 -0.6508  0.6374
14060SOL    HW244560   5.473   4.509  10.448  0.6655  0.3600  0.1503
14061SOL     OW44561   4.579   6.881   1.159  0.2294 -0.4291 -0.3030
14061SOL    HW144562   4.641   6.818   1.123  1.2732  1.0771 -1.2955
14061SOL    HW244563   4.606   6.965   1.121  0.5735  1.1020  2.9602
14062SOL     OW44564   9.798   0.974   4.230 -0.2681  0.4061 -0.0896
14062SOL    HW144565   9.799   0.880   4.248  0.4935  0.9180  3.1830
14062SOL    HW244566   9.710   0.990   4.195 -0.3213 -1.5429 -0.9617
14063SOL     OW44567   4.044   4.736  10.747 -0.0467  0.7324  0.5762
14063SOL    HW144568   4.030   4.664  10.686  0.1116 -0.8804  2.3536
14063SOL    HW244569   4.082   4.806  10.693 -1.3590 -0.0177 -1.4431
14064SOL     OW44570   2.312   0.690   2.942  0.9038  0.0312  0.0318
14064SOL    HW144571   2.368   0.768   2.947 -1.2547  1.6279  0.7737
14064SOL    HW244572   2.308   0.658   3.032  1.6805 -0.9320 -0.2510
14065SOL     OW44573   2.749   8.833  10.179  0.0319 -0.6271  0.7652
14065SOL    HW144574   2.736   8.808  10.088  0.6809 -1.3194  0.8559
14065SOL    HW244575   2.778   8.924  10.175 -0.7502 -0.3861  0.3338
14066SOL     OW44576   7.425   4.305   4.306 -0.0705  0.3577  0.1172
14066SOL    HW144577   7.454   4.229   4.358 -4.5296  0.4990  3.3760
14066SOL    HW244578   7.475   4.378   4.342  0.0716 -0.2044  1.1262
14067SOL     OW44579   1.124   2.065   8.127  0.9866 -0.3272  0.1593
14067SOL    HW144580   1.047   2.118   8.149 -0.3642 -1.7435 -0.9269
14067SOL    HW244581   1.166   2.114   8.056  0.9393  0.3202  0.5718
14068SOL     OW44582   1.527   6.140   5.744 -0.1602  0.4698 -0.2829
14068SOL    HW144583   1.494   6.212   5.798  1.1233  2.4994 -2.0448
14068SOL    HW244584   1.619   6.161   5.730 -0.1489 -0.6583 -2.1902
14069SOL     OW44585   8.179   8.881   9.493  0.0759  0.1919 -0.1257
14069SOL    HW144586   8.249   8.818   9.477  0.5451  0.5703  0.4155
14069SOL    HW244587   8.155   8.868   9.585 -0.7773 -0.1451 -0.3871
14070SOL     OW44588   0.926   1.169   7.489 -0.1158  0.4121  0.0581
14070SOL    HW144589   0.990   1.194   7.556  1.2487  2.0660 -1.7308
14070SOL    HW244590   0.904   1.251   7.445 -1.4876 -0.5176 -1.0898
14071SOL     OW44591   8.172   2.594   6.432 -0.6580  0.0358  0.2099
14071SOL    HW144592   8.158   2.505   6.465 -1.4714 -0.2757 -0.9252
14071SOL    HW244593   8.154   2.650   6.507  1.2979 -0.7728  1.3844
14072SOL     OW44594   7.650   4.862   8.634 -0.0864  0.3115 -0.1254
14072SOL    HW144595   7.633   4.955   8.649  0.1749  0.4425 -0.6033
14072SOL    HW244596   7.620   4.847   8.544 -0.1012 -0.0557 -0.0582
14073SOL     OW44597   0.505   2.172   2.636  0.4774 -0.3641  0.2546
14073SOL    HW144598   0.599   2.181   2.624  0.6333 -1.6889  0.2945
14073SOL    HW244599   0.475   2.125   2.557 -0.0747 -0.3280  0.4346
14074SOL     OW44600   3.837   5.308   0.009  0.1319  0.3428  0.2657
14074SOL    HW144601   3.842   5.213  -0.005  1.0802  0.1503  1.6808
14074SOL    HW244602   3.745   5.330  -0.010  0.1774 -0.6247 -1.2639
14075SOL     OW44603   8.954   1.233   1.273 -0.5706 -0.3219 -0.2368
14075SOL    HW144604   8.975   1.282   1.193 -0.7160 -2.1881 -1.4825
14075SOL    HW244605   9.036   1.231   1.322 -0.8711  2.2262  0.4992
14076SOL     OW44606   7.765   3.942   0.144  0.3380 -0.3342 -0.0921
14076SOL    HW144607   7.762   4.034   0.168  0.3224 -0.5242  0.6494
14076SOL    HW244608   7.710   3.898   0.209  0.8649 -0.9458 -0.0465
14077SOL     OW44609   2.429   4.861   0.297  0.5363 -0.9994 -0.0660
14077SOL    HW144610   2.478   4.844   0.377  1.3576 -0.6525 -0.4844
14077SOL    HW244611   2.492   4.902   0.238 -0.1376 -0.9618 -0.7826
14078SOL     OW44612   2.608   3.768   7.819 -0.0882  0.1375  0.2116
14078SOL    HW144613   2.575   3.739   7.903 -1.4819  0.2714 -0.2651
14078SOL    HW244614   2.565   3.852   7.803 -2.4396 -1.3279 -2.0499
14079SOL     OW44615   2.530   3.593   8.639  0.6717 -0.4405  0.1298
14079SOL    HW144616   2.580   3.566   8.562  1.3386  0.3790  0.2503
14079SOL    HW244617   2.468   3.658   8.605  0.6654 -0.4019  0.2157
14080SOL     OW44618   4.471   7.789   0.383 -0.1358 -0.1610 -0.0845
14080SOL    HW144619   4.417   7.868   0.374  0.3500  0.5390  2.3743
14080SOL    HW244620   4.469   7.769   0.477  0.2366 -2.7746 -0.5615
14081SOL     OW44621   0.045   9.616  10.438  0.9157  1.0570  0.1639
14081SOL    HW144622   0.024   9.645  10.527 -0.2108  0.8166 -0.0074
14081SOL    HW244623   0.139   9.598  10.440  0.7283  0.0401  1.6085
14082SOL     OW44624   9.711   9.177   7.543  0.1003  0.1436 -0.0428
14082SOL    HW144625   9.768   9.251   7.562  0.7592 -0.3381 -0.1002
14082SOL    HW244626   9.745   9.105   7.597  0.0330 -0.3572 -0.6509
14083SOL     OW44627   2.962   8.558   0.676  0.3927 -0.0935  0.1656
14083SOL    HW144628   2.995   8.480   0.722  1.9405 -0.7632 -1.9588
14083SOL    HW244629   3.039   8.599   0.639 -0.8082 -0.7867 -3.5924
14084SOL     OW44630   4.680   3.993   2.101 -0.1168  0.1886  0.0247
14084SOL    HW144631   4.699   3.956   2.015 -3.4190 -1.5045 -0.1247
14084SOL    HW244632   4.629   4.072   2.082 -1.0353 -0.3051  0.3867
14085SOL     OW44633   6.468   0.592   9.825  0.0321  0.1917  0.3068
14085SOL    HW144634   6.383   0.551   9.844  0.9458 -0.8242  2.6874
14085SOL    HW244635   6.448   0.685   9.818 -1.5284 -0.2031 -1.1537
14086SOL     OW44636  10.648   4.867   0.251  0.1855  0.8247  0.1419
14086SOL    HW144637  10.554   4.859   0.267  0.1234  1.3822  0.0756
14086SOL    HW244638  10.671   4.952   0.289  0.3439  1.4635 -1.3519
14087SOL     OW44639   1.012   9.062   4.306  0.2773 -0.5532 -0.7599
14087SOL    HW144640   0.964   9.143   4.292 -0.2633 -0.4287  1.4204
14087SOL    HW244641   0.948   8.992   4.292  1.1106 -0.8118 -4.2237
14088SOL     OW44642   8.476   7.232   1.499 -0.2755  0.5669 -0.4926
14088SOL    HW144643   8.409   7.252   1.434  0.2056 -0.2563 -1.2572
14088SOL    HW244644   8.467   7.139   1.516  0.3493  0.5469 -0.2322
14089SOL     OW44645   3.900   0.989   6.228  0.1338 -0.6397 -0.3462
14089SOL    HW144646   3.990   1.015   6.207 -0.5397  0.9590 -1.4377
14089SOL    HW244647   3.881   1.033   6.311 -0.7181  1.8694 -1.7742
14090SOL     OW44648   4.815   1.552   6.238 -0.1552  0.0595  0.0166
14090SOL    HW144649   4.885   1.553   6.173  0.4016 -1.4967  0.5470
14090SOL    HW244650   4.809   1.643   6.268  0.6904  0.4810 -1.0224
14091SOL     OW44651  10.314   7.511   2.704 -0.1426  0.1416 -0.5181
14091SOL    HW144652  10.344   7.420   2.703  0.1069  0.1767 -2.7926
14091SOL    HW244653  10.238   7.512   2.761  1.4874 -0.8732  1.8457
14092SOL     OW44654   1.108   6.913   7.801  0.7225  0.4387  0.2806
14092SOL    HW144655   1.153   6.933   7.719 -1.6492 -0.1430 -1.2629
14092SOL    HW244656   1.176   6.873   7.856  2.1505 -0.2339 -1.8172
14093SOL     OW44657   3.799   8.151   2.728 -0.1356 -0.1601 -0.1398
14093SOL    HW144658   3.891   8.162   2.752  0.0329 -0.3496 -0.6621
14093SOL    HW244659   3.783   8.220   2.663  0.1008 -1.1053 -1.2423
14094SOL     OW44660   9.848   1.082   5.251  0.2760  0.0239  0.2176
14094SOL    HW144661   9.798   1.153   5.293  0.2241 -0.0971  0.3627
14094SOL    HW244662   9.890   1.124   5.176  0.7301  0.3473  0.6467
14095SOL     OW44663   5.593   5.873   9.263  0.3831 -0.0710  0.5907
14095SOL    HW144664   5.685   5.891   9.282  0.4259  1.4396 -0.8255
14095SOL    HW244665   5.587   5.877   9.168 -1.5658  2.4737  0.7035
14096SOL     OW44666   2.978   5.961  10.211  0.2575  0.7011  0.2864
14096SOL    HW144667   3.037   5.899  10.254  2.3491  2.4211  0.0351
14096SOL    HW244668   2.981   6.040  10.266 -1.1576  1.1421 -0.2087
14097SOL     OW44669   4.599   5.700  10.491  0.1921  0.1360  0.0678
14097SOL    HW144670   4.613   5.780  10.441 -0.0782 -0.4143 -0.9095
14097SOL    HW244671   4.506   5.679  10.478  0.5776 -1.1221 -0.9024
14098SOL     OW44672   2.187   3.581   5.126  0.0912  0.5490 -0.3651
14098SOL    HW144673   2.225   3.566   5.213 -0.3949 -2.3431 -0.5390
14098SOL    HW244674   2.225   3.664   5.097  2.3724  0.2628  1.4708
14099SOL     OW44675   4.635   9.656   7.214  0.3379 -0.2553  0.1364
14099SOL    HW144676   4.728   9.671   7.201  0.1156 -0.8041 -2.7347
14099SOL    HW244677   4.592   9.732   7.173 -0.5496  0.6500  2.5258
14100SOL     OW44678   8.871  10.777   4.027 -0.0556  1.2153 -0.5484
14100SOL    HW144679   8.876  10.692   3.984  0.4660  1.2721 -0.6036
14100SOL    HW244680   8.870  10.757   4.120 -1.6968  1.0641 -0.5714
14101SOL     OW44681   6.019   6.217   1.706  0.5624  0.0193 -0.0140
14101SOL    HW144682   5.966   6.261   1.772 -0.0734 -0.9527  0.1322
14101SOL    HW244683   5.956   6.170   1.651  1.1599  0.0053 -0.7102
14102SOL     OW44684   0.405   4.004   7.266  0.0092 -0.6396  0.2577
14102SOL    HW144685   0.321   3.999   7.220 -0.4223  1.2041  0.7916
14102SOL    HW244686   0.468   4.024   7.197 -0.5207  1.3183  0.2892
14103SOL     OW44687   3.342   7.575   4.628  0.1525 -0.3175  0.1955
14103SOL    HW144688   3.259   7.622   4.615  0.0243 -0.7076 -0.4168
14103SOL    HW244689   3.382   7.619   4.703 -0.7084 -0.2563  0.6353
14104SOL     OW44690   0.314   1.512   7.474 -0.1935  0.0062  0.2581
14104SOL    HW144691   0.282   1.596   7.506  0.6164  0.0149  1.0596
14104SOL    HW244692   0.382   1.535   7.410 -0.3062 -0.0373  0.1217
14105SOL     OW44693   8.145   3.757   1.559 -0.0487  0.3559 -0.2399
14105SOL    HW144694   8.078   3.804   1.608 -1.2974 -0.8332 -0.7439
14105SOL    HW244695   8.203   3.721   1.626  0.2244  1.5513  0.1952
14106SOL     OW44696   5.847   8.390   3.289  0.1940  0.2686 -0.5559
14106SOL    HW144697   5.813   8.303   3.266  0.3223  0.4439 -1.4348
14106SOL    HW244698   5.795   8.416   3.365  0.3538 -0.6969 -0.0980
14107SOL     OW44699   3.971   3.876   0.747  0.7281  0.0973  0.7104
14107SOL    HW144700   3.897   3.893   0.689  1.1003 -0.3633  0.0906
14107SOL    HW244701   4.033   3.945   0.727  0.9147 -0.1420  0.4542
14108SOL     OW44702   8.769   5.650   1.032 -0.0522  0.9576 -0.0106
14108SOL    HW144703   8.798   5.740   1.019 -0.7544  1.3585  1.0343
14108SOL    HW244704   8.674   5.654   1.019 -0.2279  0.5928  1.0664
14109SOL     OW44705   1.487   8.267   1.459 -0.3390  0.1938  0.0421
14109SOL    HW144706   1.490   8.182   1.502  1.7121  0.6223  0.8601
14109SOL    HW244707   1.425   8.319   1.510  1.0389  0.2580  1.7479
14110SOL     OW44708   5.581  10.483   9.804 -0.0475  0.9027  0.0628
14110SOL    HW144709   5.492  10.484   9.768 -0.0031  0.2192 -0.0749
14110SOL    HW244710   5.633  10.532   9.740 -0.2410  0.9390 -0.0684
14111SOL     OW44711   3.721   2.783   9.204  0.5513  0.2102  0.3497
14111SOL    HW144712   3.725   2.742   9.117 -1.0935 -0.6926  0.6498
14111SOL    HW244713   3.638   2.831   9.204  1.5352  2.0002  0.7015
14112SOL     OW44714   5.845   4.795   8.273  0.1422 -0.2941  0.0370
14112SOL    HW144715   5.775   4.827   8.331  0.3184 -0.6077  0.4292
14112SOL    HW244716   5.925   4.814   8.321  0.4875  1.7625 -1.1923
14113SOL     OW44717   8.761   8.992   9.862 -0.1865 -0.0094 -0.5916
14113SOL    HW144718   8.670   8.980   9.889 -0.2740  0.5412 -0.6323
14113SOL    HW244719   8.776   8.923   9.797 -0.2024 -0.8705  0.2895
14114SOL     OW44720   5.541   0.914   1.668 -0.4682  0.1731  0.4833
14114SOL    HW144721   5.571   0.933   1.579  0.3954  0.6514  0.8713
14114SOL    HW244722   5.449   0.891   1.658 -0.9499  2.2680 -0.2897
14115SOL     OW44723   2.714   5.656   5.545 -0.2217 -0.2505 -0.1877
14115SOL    HW144724   2.660   5.658   5.624 -0.7159  0.6364 -0.5437
14115SOL    HW244725   2.675   5.721   5.487  1.0216  0.1621 -0.5891
14116SOL     OW44726   1.915   3.825   3.764 -0.7069 -0.2084 -0.4181
14116SOL    HW144727   1.977   3.753   3.777 -1.0219 -0.6761 -1.3611
14116SOL    HW244728   1.949   3.897   3.817 -0.6411 -1.1990  0.9174
14117SOL     OW44729   6.135   5.014   5.144 -0.2093 -0.7106 -0.5817
14117SOL    HW144730   6.083   4.938   5.171 -0.6264 -0.9103 -1.8648
14117SOL    HW244731   6.214   4.976   5.106 -0.6812 -0.5580 -1.7674
14118SOL     OW44732   8.781   5.569  10.362 -0.0677  0.5015 -0.2407
14118SOL    HW144733   8.713   5.617  10.410 -1.2415  0.2261 -1.5733
14118SOL    HW244734   8.740   5.484  10.343  1.3135 -0.3616  0.4863
14119SOL     OW44735   8.169   3.108   7.489 -0.3039 -0.0216  0.3079
14119SOL    HW144736   8.202   3.020   7.468 -0.3189 -0.0554  0.4249
14119SOL    HW244737   8.074   3.101   7.477 -0.3882 -0.2287  1.0459
14120SOL     OW44738   4.990   9.552   1.613  0.4187 -0.0420  0.1100
14120SOL    HW144739   4.979   9.466   1.654  0.9480 -1.0219 -1.6613
14120SOL    HW244740   5.084   9.560   1.598  0.1575 -0.3772 -2.0883
14121SOL     OW44741   7.030  10.281   7.128  0.4994  0.1636  0.0015
14121SOL    HW144742   6.949  10.244   7.164  0.4407  1.1229  0.9103
14121SOL    HW244743   7.020  10.376   7.139  1.1953  0.3863 -1.0812
14122SOL     OW44744   8.264   0.067   7.545  0.2779 -0.2600 -0.2625
14122SOL    HW144745   8.171   0.089   7.540 -0.0565 -1.4187  0.4655
14122SOL    HW244746   8.288   0.048   7.454 -0.3817 -0.6266 -0.3740
14123SOL     OW44747   4.965   5.866   8.023 -0.2394 -0.0950  0.1631
14123SOL    HW144748   5.052   5.856   7.985 -0.1431 -1.5741  0.7342
14123SOL    HW244749   4.910   5.893   7.950  0.4178 -0.5303 -0.5084
14124SOL     OW44750   6.440   9.281   4.930  0.0771 -0.3670 -0.5135
14124SOL    HW144751   6.384   9.297   5.006  2.2401 -1.8772  1.5515
14124SOL    HW244752   6.412   9.196   4.897  1.1764 -1.2102  0.6346
14125SOL     OW44753   9.423   0.124   2.120 -0.5989  1.0025 -0.2240
14125SOL    HW144754   9.331   0.107   2.140 -0.7955  0.8169 -1.2121
14125SOL    HW244755   9.424   0.212   2.082 -0.2121  1.4264  0.7365
14126SOL     OW44756   0.680   2.688   3.081 -0.2441  0.4588  0.2084
14126SOL    HW144757   0.636   2.715   3.000 -0.4241  1.3033  0.5721
14126SOL    HW244758   0.734   2.613   3.056  0.2693  1.1609 -0.8627
14127SOL     OW44759   1.107   1.713   5.033  0.5021  0.1425 -0.5715
14127SOL    HW144760   1.199   1.691   5.048  0.8960  0.4792 -2.2820
14127SOL    HW244761   1.069   1.721   5.121  1.6500 -1.8150  0.1500
14128SOL     OW44762   6.293  10.113   1.422  0.0265  0.1254  0.6339
14128SOL    HW144763   6.257  10.201   1.414 -0.0503 -0.0321 -1.3303
14128SOL    HW244764   6.370  10.124   1.478  0.7441  1.7107 -0.5601
14129SOL     OW44765   5.569   4.542   7.833 -0.4858  0.4047 -0.2119
14129SOL    HW144766   5.620   4.560   7.912 -0.2104  2.7126 -0.8322
14129SOL    HW244767   5.622   4.578   7.762 -1.9920  0.9127 -1.1202
14130SOL     OW44768   4.465  10.285   8.258  0.3060 -0.8534 -0.3964
14130SOL    HW144769   4.499  10.256   8.173 -0.0919 -1.2095 -0.4369
14130SOL    HW244770   4.371  10.292   8.244  0.4086  0.7250 -0.4637
14131SOL     OW44771  10.794   1.363   7.697 -0.3719 -0.1189  0.4383
14131SOL    HW144772  10.819   1.449   7.728  0.3855  0.4320 -1.5092
14131SOL    HW244773  10.760   1.378   7.608 -0.5618 -1.7676  0.1892
14132SOL     OW44774   3.044  10.632   5.116  0.3948  0.7099 -0.7625
14132SOL    HW144775   3.100  10.594   5.184  0.1851  0.8853 -0.4907
14132SOL    HW244776   3.024  10.720   5.147 -0.2758  0.5471 -0.7082
14133SOL     OW44777   4.214   1.488   5.588 -0.0780  0.8637 -0.0907
14133SOL    HW144778   4.272   1.423   5.629 -0.6636  0.1568 -0.3615
14133SOL    HW244779   4.160   1.520   5.660  0.1550  0.9909  0.0283
14134SOL     OW44780   7.356   6.902   5.168 -0.1538 -0.4338 -0.0547
14134SOL    HW144781   7.442   6.928   5.136 -0.1136 -0.6559 -0.1217
14134SOL    HW244782   7.373   6.840   5.239 -0.1054  2.3777  2.6466
14135SOL     OW44783   6.555   8.463   8.411 -0.2445  0.6976 -0.2802
14135SOL    HW144784   6.642   8.503   8.416  0.1189 -0.1443  0.2884
14135SOL    HW244785   6.560   8.403   8.337 -0.7146  1.4955 -0.9764
14136SOL     OW44786   9.627   3.651   9.597  0.1669 -0.1124 -0.5494
14136SOL    HW144787   9.685   3.691   9.662  0.4916  0.0247 -0.9190
14136SOL    HW244788   9.613   3.562   9.628  1.2202 -0.3995 -0.8721
14137SOL     OW44789   2.872   0.471   8.088  0.2097 -0.6620  0.6778
14137SOL    HW144790   2.804   0.416   8.049 -2.0262  1.8653  0.6939
14137SOL    HW244791   2.919   0.507   8.013  1.1075 -1.8874  0.6392
14138SOL     OW44792  10.603   6.612   3.059  0.0223  0.2245  0.4730
14138SOL    HW144793  10.559   6.647   3.136 -0.4903 -0.0263  0.2966
14138SOL    HW244794  10.581   6.672   2.988  0.4858  0.4497  0.5183
14139SOL     OW44795  10.357   8.104   6.414 -0.0134  0.1868  0.3859
14139SOL    HW144796  10.294   8.071   6.349 -2.0117  3.1007  0.6362
14139SOL    HW244797  10.429   8.139   6.362 -1.2613  1.8357 -0.3382
14140SOL     OW44798  10.456   2.369   2.255 -0.2797  0.5425 -0.6964
14140SOL    HW144799  10.525   2.364   2.189 -0.8766  1.2081 -1.3861
14140SOL    HW244800  10.384   2.319   2.219 -0.5079  0.6656 -0.4185
14141SOL     OW44801   8.665   7.727   0.566 -0.2438  0.0663  0.0550
14141SOL    HW144802   8.665   7.812   0.610 -1.1652 -0.9641  2.1314
14141SOL    HW244803   8.755   7.695   0.575 -0.4425 -0.1751  1.3330
14142SOL     OW44804   2.390   8.784   6.594  0.1792  0.3636  0.1075
14142SOL    HW144805   2.336   8.791   6.672 -2.1648 -1.6635 -1.1643
14142SOL    HW244806   2.367   8.698   6.556  2.1388  0.6956 -2.1225
14143SOL     OW44807   7.525   9.155   6.258 -0.0408  0.0090  0.5535
14143SOL    HW144808   7.562   9.079   6.212 -3.6152 -3.5560  2.8756
14143SOL    HW244809   7.561   9.149   6.347 -0.3196  1.0904  0.7572
14144SOL     OW44810   0.080   2.104  10.741  1.3389  0.3309 -0.9396
14144SOL    HW144811  -0.008   2.100  10.703  0.6186  1.0672  0.5538
14144SOL    HW244812   0.120   2.180  10.700  1.3237 -0.0601 -1.6981
14145SOL     OW44813  10.641   1.408  10.529 -1.0153  0.6459  0.1543
14145SOL    HW144814  10.726   1.381  10.495 -0.6098  0.9899  0.8642
14145SOL    HW244815  10.577   1.362  10.475 -0.3680  0.0173 -0.0811
14146SOL     OW44816   1.532   7.994   4.981 -0.0378 -0.2466  0.1751
14146SOL    HW144817   1.618   7.963   4.951 -0.4386 -2.0701  0.7760
14146SOL    HW244818   1.500   8.049   4.909  1.2083 -0.3386 -0.4799
14147SOL     OW44819   6.334  10.691   8.675 -0.1550  0.0359  0.1407
14147SOL    HW144820   6.412  10.745   8.658 -0.4729 -0.1051 -2.0024
14147SOL    HW244821   6.291  10.682   8.590 -2.2102 -0.4109  1.1563
14148SOL     OW44822  10.657  10.007   4.592  0.1238  0.0651  0.2249
14148SOL    HW144823  10.600   9.960   4.531  0.0105 -0.7862  0.9705
14148SOL    HW244824  10.599  10.030   4.665  0.2123  1.2450 -0.0534
14149SOL     OW44825   1.470   2.668   0.406 -0.5266  0.3254 -0.0585
14149SOL    HW144826   1.541   2.627   0.356 -1.2132  0.5184 -1.2185
14149SOL    HW244827   1.510   2.744   0.448  0.0258  0.2640 -0.4679
14150SOL     OW44828   0.816   1.126   1.556 -0.5315 -0.1638  0.6728
14150SOL    HW144829   0.902   1.150   1.523 -0.1233 -0.8603  1.1853
14150SOL    HW244830   0.758   1.195   1.526  0.1453  0.1390  0.0314
14151SOL     OW44831   6.954  10.747   1.040 -0.0240 -0.2835 -0.1013
14151SOL    HW144832   6.911  10.820   0.996  0.0238 -1.0491 -1.4636
14151SOL    HW244833   7.045  10.775   1.048 -0.2611  0.3437  0.6200
14152SOL     OW44834   3.976   2.620   2.945  0.1488  0.6541 -0.1807
14152SOL    HW144835   4.008   2.603   2.857 -2.3588  1.3705 -1.3209
14152SOL    HW244836   3.975   2.715   2.952  0.7879  0.5985  0.8212
14153SOL     OW44837   4.295   6.510   6.873 -0.0842 -0.1272  0.1613
14153SOL    HW144838   4.246   6.431   6.896 -0.2171  0.0611  0.5370
14153SOL    HW244839   4.387   6.484   6.879 -0.1288 -0.6356 -1.0933
14154SOL     OW44840   1.098   4.519   9.866  0.7370 -0.3989 -0.6315
14154SOL    HW144841   1.117   4.600   9.818  1.6821  0.8888  1.7070
14154SOL    HW244842   1.027   4.478   9.818  0.1368  1.9019 -1.8403
14155SOL     OW44843   6.179   0.927   6.719 -0.2708  0.0918 -0.5783
14155SOL    HW144844   6.170   0.873   6.798 -0.4736 -0.8843 -1.2613
14155SOL    HW244845   6.091   0.962   6.704 -1.0465 -2.3363 -2.1922
14156SOL     OW44846   7.459  10.749   9.108 -0.2927  0.1614 -0.1358
14156SOL    HW144847   7.496  10.787   9.029  0.0913 -0.3192 -0.1953
14156SOL    HW244848   7.401  10.680   9.077  0.4397 -0.5399  0.0081
14157SOL     OW44849   6.572   5.140   0.717  0.2635 -0.0182 -0.0729
14157SOL    HW144850   6.605   5.051   0.702 -1.3399 -0.4589 -1.2994
14157SOL    HW244851   6.585   5.185   0.634  1.8628  1.2229  0.7897
14158SOL     OW44852   6.540   9.617   3.103  0.0413  0.0302 -0.3891
14158SOL    HW144853   6.487   9.561   3.160  0.4691  0.4016  0.3815
14158SOL    HW244854   6.599   9.556   3.059 -0.9926 -0.3930 -1.2555
14159SOL     OW44855   5.922   0.778   9.407  0.0309 -0.2739 -0.2673
14159SOL    HW144856   5.938   0.688   9.379 -1.3950 -0.0856 -1.9362
14159SOL    HW244857   6.007   0.810   9.436  0.0790 -3.0324  3.3687
14160SOL     OW44858   0.971   8.908   0.782 -0.2006 -0.1414 -0.0516
14160SOL    HW144859   0.935   8.931   0.868 -1.4445 -1.1463 -0.2731
14160SOL    HW244860   0.915   8.956   0.720 -0.2156 -0.5322 -0.3440
14161SOL     OW44861   5.580  10.665   7.783  0.2803 -0.1814 -0.1100
14161SOL    HW144862   5.547  10.625   7.864  0.8859 -1.1190 -0.3141
14161SOL    HW244863   5.670  10.692   7.805 -0.0069  0.7734 -0.0782
14162SOL     OW44864   3.391   8.831   2.337 -0.8980 -0.0523  0.2592
14162SOL    HW144865   3.474   8.879   2.338 -0.8879 -0.0363 -0.5471
14162SOL    HW244866   3.368   8.821   2.430  0.4906 -0.9120  0.5354
14163SOL     OW44867   4.080   5.364   3.494 -0.5074 -0.3418  0.3089
14163SOL    HW144868   4.032   5.446   3.483  0.4007  0.2135  0.3231
14163SOL    HW244869   4.023   5.297   3.457 -1.9508  0.0566  1.6663
14164SOL     OW44870  10.369   2.097   3.082  0.1335 -0.5485  0.0281
14164SOL    HW144871  10.305   2.168   3.081 -0.6387 -1.2299 -0.5530
14164SOL    HW244872  10.359   2.056   3.168  2.3423  1.5547  1.3957
14165SOL     OW44873   5.783   7.570   0.099  0.5615  0.4723 -0.4114
14165SOL    HW144874   5.757   7.485   0.063  0.1581  1.3923 -2.4315
14165SOL    HW244875   5.703   7.604   0.139  0.5085  0.2627 -0.3367
14166SOL     OW44876   6.047   3.863  10.714  0.0045 -0.1771 -0.4904
14166SOL    HW144877   5.979   3.798  10.698  0.3038 -0.5421 -0.3153
14166SOL    HW244878   6.129   3.814  10.707  0.4047  0.7261 -3.1892
14167SOL     OW44879   3.792   2.143   0.065 -0.1516  0.3138 -0.2629
14167SOL    HW144880   3.731   2.129  -0.008  0.2346 -0.7293 -0.4112
14167SOL    HW244881   3.761   2.084   0.134  0.8170 -0.4419 -0.4415
14168SOL     OW44882   1.797   9.677   3.999  0.0266 -0.1359  0.1051
14168SOL    HW144883   1.782   9.601   3.942  0.6813 -1.3067  1.4424
14168SOL    HW244884   1.848   9.737   3.945 -2.9160  0.7362 -2.0136
14169SOL     OW44885   1.571   4.164   2.933  0.5980 -0.1592  0.8235
14169SOL    HW144886   1.653   4.115   2.938  1.0496  0.5788  0.9604
14169SOL    HW244887   1.504   4.102   2.960  1.0023 -1.0237 -0.1111
14170SOL     OW44888   3.003   1.002   3.873 -0.4106 -0.0326 -0.1912
14170SOL    HW144889   2.991   1.058   3.949  0.9811  0.5681 -0.3836
14170SOL    HW244890   2.980   1.057   3.798 -0.3564 -0.1622 -0.3050
14171SOL     OW44891   3.966   0.447   4.319 -0.8628 -0.2316  0.2448
14171SOL    HW144892   3.962   0.439   4.224 -2.1503 -2.0835  0.3970
14171SOL    HW244893   3.929   0.533   4.338 -0.9637 -0.0063 -0.8943
14172SOL     OW44894   2.004   3.869   2.908  0.5869  0.3078  0.5764
14172SOL    HW144895   1.990   3.787   2.861  0.9764 -0.5262  1.8762
14172SOL    HW244896   2.069   3.916   2.857 -0.3713  0.2822 -0.7223
14173SOL     OW44897   5.757   7.245   9.822 -0.7657 -0.0652  0.5285
14173SOL    HW144898   5.763   7.242   9.727 -0.3227  0.2880  0.5426
14173SOL    HW244899   5.776   7.156   9.851 -0.6996 -0.1260  0.2999
14174SOL     OW44900   3.618   9.692   1.105 -0.1397  0.1630 -0.4604
14174SOL    HW144901   3.565   9.615   1.081 -0.8031  0.0323  1.2431
14174SOL    HW244902   3.631   9.739   1.023 -0.7453 -1.1454 -1.3412
14175SOL     OW44903   9.558   5.915   6.071  0.1801 -0.4224 -0.0076
14175SOL    HW144904   9.554   5.887   5.980  0.2001  0.1135 -0.1736
14175SOL    HW244905   9.503   5.993   6.075 -2.2401 -2.0756  1.0599
14176SOL     OW44906   8.531   3.047   1.658 -0.0802 -0.0648 -0.1392
14176SOL    HW144907   8.510   3.135   1.627 -0.7892  0.7369  2.3906
14176SOL    HW244908   8.445   3.007   1.676  0.2827  0.1013  2.1901
14177SOL     OW44909   9.662   3.374   9.699  0.1953 -0.5709  0.3571
14177SOL    HW144910   9.680   3.295   9.748  2.6535 -1.8937 -2.3525
14177SOL    HW244911   9.588   3.351   9.643 -0.3542 -0.2575  0.9464
14178SOL     OW44912   1.170   3.743   8.264 -0.7592  0.3638 -0.0864
14178SOL    HW144913   1.212   3.677   8.208  0.0516 -0.2595  1.2306
14178SOL    HW244914   1.146   3.696   8.343  0.2822  1.7347  1.0927
14179SOL     OW44915  10.379   8.676   9.793  0.1711  0.1599 -0.2074
14179SOL    HW144916  10.426   8.730   9.857  0.9901  0.9193 -1.4125
14179SOL    HW244917  10.306   8.731   9.764 -0.6679 -0.4813  0.6145
14180SOL     OW44918   0.350   8.175   0.779 -0.0765  0.4592  0.1361
14180SOL    HW144919   0.429   8.129   0.807  0.2003  1.1197  0.4536
14180SOL    HW244920   0.330   8.138   0.693  0.1713 -0.2156  0.3612
14181SOL     OW44921   9.558   6.987   0.006 -0.1021 -0.9297  0.3505
14181SOL    HW144922   9.642   7.024  -0.021  0.0373 -1.3329  0.2128
14181SOL    HW244923   9.547   7.015   0.096 -0.8359  0.9254 -0.2654
14182SOL     OW44924   2.118   9.711   0.797  0.1162 -0.3428 -0.0032
14182SOL    HW144925   2.194   9.743   0.846  0.0783  0.5615 -0.5107
14182SOL    HW244926   2.061   9.674   0.865  1.3489 -1.8021  0.2905
14183SOL     OW44927   3.280   9.908   5.568  0.1803  0.3812 -0.3268
14183SOL    HW144928   3.223   9.864   5.504 -1.4982  1.9453 -0.0030
14183SOL    HW244929   3.244   9.883   5.653  0.9731  0.1504 -0.0533
14184SOL     OW44930   6.028   5.626   9.939 -0.1766 -0.3401 -0.5750
14184SOL    HW144931   6.085   5.598  10.010 -0.3638  1.9458  0.5615
14184SOL    HW244932   5.947   5.578   9.952  0.6248 -1.8076 -0.7792
14185SOL     OW44933   8.501   2.741   3.478 -0.0295  0.4991 -0.2067
14185SOL    HW144934   8.482   2.711   3.389  1.0691 -0.7901 -0.0321
14185SOL    HW244935   8.416   2.740   3.522 -0.5335  0.8428 -1.1384
14186SOL     OW44936   7.614   8.832   3.979  0.7881  0.0727 -0.4605
14186SOL    HW144937   7.570   8.749   3.961  1.3558 -0.4420  0.4831
14186SOL    HW244938   7.618   8.875   3.894 -0.8089 -0.2108 -0.7164
14187SOL     OW44939   2.770   8.760   3.265  0.4927  0.4245  0.5711
14187SOL    HW144940   2.734   8.710   3.339  1.1126 -0.5186  0.2401
14187SOL    HW244941   2.813   8.835   3.307 -1.6084  1.5020  1.0019
14188SOL     OW44942   5.000   5.397   7.063 -0.4971 -0.4499  0.1486
14188SOL    HW144943   4.913   5.432   7.080 -0.3044 -0.5382  1.4226
14188SOL    HW244944   4.985   5.304   7.045 -0.6520 -0.4993  0.5281
14189SOL     OW44945   1.821   0.279   1.558  0.8664 -0.5374 -0.3480
14189SOL    HW144946   1.809   0.336   1.482 -0.4057 -0.1544  0.1157
14189SOL    HW244947   1.910   0.244   1.548  1.8960  1.8887 -0.3837
14190SOL     OW44948   4.837   7.041   6.773 -0.2910  0.3049  0.4128
14190SOL    HW144949   4.838   6.992   6.690 -2.9911  0.1281  0.3959
14190SOL    HW244950   4.780   6.990   6.830 -0.5416  1.7502  1.5060
14191SOL     OW44951   0.934   1.406   7.238 -0.2719 -0.7887  0.7369
14191SOL    HW144952   0.855   1.387   7.289 -0.7083 -1.8726 -0.2892
14191SOL    HW244953   0.947   1.328   7.184  0.0089  0.4054 -0.9996
14192SOL     OW44954   4.480   9.695   7.528 -0.4374 -0.0978 -0.1750
14192SOL    HW144955   4.416   9.721   7.461 -0.4779 -0.2271 -0.1870
14192SOL    HW244956   4.429   9.691   7.609 -0.2607  0.6787 -0.0139
14193SOL     OW44957   5.303   2.714   6.365 -0.8995  0.8336 -0.1703
14193SOL    HW144958   5.339   2.638   6.410  1.4093  0.6271 -2.1654
14193SOL    HW244959   5.211   2.693   6.351 -0.4844 -1.2756 -0.0146
14194SOL     OW44960   8.574   2.439   4.669  0.1672 -0.5188  0.1553
14194SOL    HW144961   8.488   2.474   4.688 -1.3179 -2.5897 -2.0852
14194SOL    HW244962   8.580   2.441   4.573  3.2066  0.7499  0.2404
14195SOL     OW44963   8.851   5.496   3.386 -0.1063  0.2810  0.2225
14195SOL    HW144964   8.806   5.502   3.302  1.9786 -1.1036 -1.0851
14195SOL    HW244965   8.863   5.402   3.400  2.9447  0.5685  0.1089
14196SOL     OW44966   5.726   7.508   2.575 -0.3191 -0.1421 -0.2934
14196SOL    HW144967   5.788   7.573   2.541  1.0631 -1.5554 -0.5850
14196SOL    HW244968   5.642   7.536   2.540 -0.0091  2.1929  0.6228
14197SOL     OW44969   8.876   2.469   6.540  0.6266 -0.4608  0.5512
14197SOL    HW144970   8.860   2.563   6.532  0.4258 -0.4354  1.1577
14197SOL    HW244971   8.895   2.456   6.633 -2.7444 -1.4938  1.2334
14198SOL     OW44972  10.314   8.691   2.086 -0.2544  0.0469  0.3685
14198SOL    HW144973  10.396   8.711   2.041 -0.9691  1.1580 -0.4738
14198SOL    HW244974  10.337   8.693   2.179  0.6934  0.2186  0.1393
14199SOL     OW44975   6.478   3.099   2.728  0.2499 -0.1060 -0.0375
14199SOL    HW144976   6.454   3.191   2.729 -0.6113 -0.2248  3.5520
14199SOL    HW244977   6.553   3.092   2.787  0.0246 -1.7351  0.1216
14200SOL     OW44978  10.309   0.202   4.744  0.1984 -0.0896  0.0283
14200SOL    HW144979  10.317   0.165   4.832  2.2658  0.0893 -0.0295
14200SOL    HW244980  10.282   0.129   4.689 -0.0706 -0.4531  0.6362
14201SOL     OW44981   1.965   0.501   8.920 -0.1639 -0.0500  0.4330
14201SOL    HW144982   1.963   0.585   8.873 -0.5616  1.2029  2.5287
14201SOL    HW244983   2.023   0.518   8.995  0.4022 -1.9358  0.4582
14202SOL     OW44984   2.577   4.821   3.391  0.2248 -0.3213  0.5880
14202SOL    HW144985   2.561   4.794   3.481 -2.4572 -1.1941 -0.0385
14202SOL    HW244986   2.651   4.769   3.363  0.1040 -1.1970  1.8236
14203SOL     OW44987   1.029   5.091   0.791  0.3446 -0.2646 -0.1671
14203SOL    HW144988   1.021   5.065   0.883  0.6137 -0.2571 -0.1399
14203SOL    HW244989   0.939   5.098   0.760  0.2656 -1.6926 -0.3101
14204SOL     OW44990   8.634   2.224   9.106  0.1466  0.1546 -0.3540
14204SOL    HW144991   8.578   2.270   9.044  1.4311  1.7925 -0.3617
14204SOL    HW244992   8.578   2.157   9.144 -2.0131  2.1227  0.1219
14205SOL     OW44993   0.561   3.337   7.084  0.0411 -0.8573 -0.3229
14205SOL    HW144994   0.615   3.275   7.035  1.8103  0.0629  0.3869
14205SOL    HW244995   0.618   3.369   7.154 -1.7122 -0.4820  1.0089
14206SOL     OW44996   6.347   2.174   5.359 -0.5714 -0.2414  0.0395
14206SOL    HW144997   6.390   2.106   5.411  1.3756  0.1050 -0.9932
14206SOL    HW244998   6.279   2.128   5.310 -0.2425 -1.1771  0.4460
14207SOL     OW44999   9.882   9.162   1.651 -0.6263 -0.1222  0.4243
14207SOL    HW145000   9.879   9.245   1.604  0.3654  0.1469  0.8317
14207SOL    HW245001   9.870   9.185   1.743  0.0284 -0.3868  0.5808
14208SOL     OW45002   9.011   1.318   6.075 -0.0793  0.5393 -0.3877
14208SOL    HW145003   9.062   1.392   6.107  0.5394 -0.0076 -0.0699
14208SOL    HW245004   8.941   1.306   6.140  0.4634  0.1765  0.1396
14209SOL     OW45005   5.195   6.325   2.178 -0.0302 -0.7946 -0.2250
14209SOL    HW145006   5.186   6.248   2.236 -0.1490  0.3974  1.4108
14209SOL    HW245007   5.109   6.367   2.181  0.1504 -0.3786 -0.8049
14210SOL     OW45008   8.061   3.978   3.757  0.6812  0.8234 -0.0282
14210SOL    HW145009   8.083   3.934   3.675 -0.6746  0.9150 -0.4637
14210SOL    HW245010   7.971   4.008   3.745  0.5792  1.1499  1.3689
14211SOL     OW45011   8.738   9.421  10.659 -0.6868 -0.0015 -0.1697
14211SOL    HW145012   8.769   9.364  10.588  2.7698  1.0164  0.3064
14211SOL    HW245013   8.818   9.446  10.705 -2.5793  1.1308  2.7974
14212SOL     OW45014   6.824   6.006   9.501 -0.3979 -0.3771 -0.2273
14212SOL    HW145015   6.781   5.980   9.420  0.8431  0.0185 -1.0383
14212SOL    HW245016   6.817   5.930   9.558  0.6025 -1.4639 -1.4992
14213SOL     OW45017   0.315   0.284   1.354 -0.4302  0.5172  0.2563
14213SOL    HW145018   0.236   0.331   1.383 -0.2332  1.2460 -0.3566
14213SOL    HW245019   0.385   0.348   1.363 -0.2008  0.4480 -0.8657
14214SOL     OW45020   5.625   4.390   7.014 -0.1189 -0.0802  0.2829
14214SOL    HW145021   5.672   4.330   6.956 -2.7317  0.0301 -2.2020
14214SOL    HW245022   5.588   4.333   7.081  0.0426 -0.7952 -0.2114
14215SOL     OW45023   8.397   2.890   7.353  0.4330  0.0334 -0.8259
14215SOL    HW145024   8.410   2.801   7.386 -1.0135  0.8926  2.4303
14215SOL    HW245025   8.302   2.900   7.347  0.5176  1.6855 -0.0038
14216SOL     OW45026   6.601   8.007   9.735 -0.1447 -0.0286  0.2632
14216SOL    HW145027   6.645   7.924   9.753  0.2955  0.2524  0.5069
14216SOL    HW245028   6.668   8.073   9.750 -0.6226  0.4004  0.5514
14217SOL     OW45029   5.253   7.828  10.194 -0.2998 -0.0769  1.0290
14217SOL    HW145030   5.222   7.918  10.181 -1.5670 -0.7675 -1.2733
14217SOL    HW245031   5.186   7.787  10.249 -2.0756 -0.7126 -1.4296
14218SOL     OW45032   7.714   7.114  10.430 -0.2619 -0.9764  0.0057
14218SOL    HW145033   7.701   7.119  10.335 -1.0152 -0.7310  0.1199
14218SOL    HW245034   7.674   7.194  10.464  2.1781  0.1979  0.3166
14219SOL     OW45035   9.757   4.602   2.826 -0.0467  0.1652 -0.4175
14219SOL    HW145036   9.709   4.526   2.861  0.9712 -0.6084 -0.6562
14219SOL    HW245037   9.761   4.663   2.900 -3.1027  1.1598 -0.9199
14220SOL     OW45038   1.739  10.029   1.329 -0.2466 -0.2054  0.1842
14220SOL    HW145039   1.779  10.071   1.253 -1.0694  0.2679  0.0046
14220SOL    HW245040   1.674  10.092   1.360  0.0302 -0.4219  1.2456
14221SOL     OW45041   4.188   0.882   9.538  0.3539  0.8119  0.2402
14221SOL    HW145042   4.096   0.871   9.516  0.1919  1.1161  0.7637
14221SOL    HW245043   4.218   0.952   9.480  0.5645 -0.0780 -0.7675
14222SOL     OW45044   6.053  10.702  10.042 -0.4285 -0.5481  0.3472
14222SOL    HW145045   6.139  10.695  10.001 -1.3039  0.4758 -1.8955
14222SOL    HW245046   6.011  10.618  10.026  0.3189 -1.2516  1.9468
14223SOL     OW45047   5.562   8.333   9.272 -0.2928 -0.0767  0.1030
14223SOL    HW145048   5.626   8.263   9.261 -1.3393 -1.5005  2.4171
14223SOL    HW245049   5.596   8.387   9.343 -1.8280 -1.1930  1.7799
14224SOL     OW45050   1.241   7.509   9.711  0.3595  0.9240 -0.2103
14224SOL    HW145051   1.244   7.423   9.753 -0.6026 -0.0899 -2.0963
14224SOL    HW245052   1.303   7.502   9.639  1.3036  2.3227  0.4147
14225SOL     OW45053   5.172   4.606   0.046 -0.1154  0.0292  0.0836
14225SOL    HW145054   5.203   4.674  -0.013  2.0111  1.1175  2.2741
14225SOL    HW245055   5.220   4.527   0.019 -0.5079  0.0635 -0.7320
14226SOL     OW45056   4.636   0.060   0.053  0.1852 -0.2374  0.5218
14226SOL    HW145057   4.692   0.108   0.113 -1.5810  2.5555  0.1201
14226SOL    HW245058   4.616   0.122  -0.017 -2.5906 -1.3780  0.1411
14227SOL     OW45059   1.810   7.039   2.738  0.0999 -0.0849 -0.2597
14227SOL    HW145060   1.793   7.099   2.665  2.7242  0.1819 -0.7231
14227SOL    HW245061   1.772   6.956   2.709 -1.5864  0.7435 -0.5710
14228SOL     OW45062   6.476   2.939   8.592  0.1179  0.0604  0.2897
14228SOL    HW145063   6.429   3.002   8.647 -1.0000 -1.3576  1.0243
14228SOL    HW245064   6.411   2.872   8.572  1.4261 -1.1516 -0.0106
14229SOL     OW45065   6.714   5.608  10.267  0.2067 -0.2681 -0.1839
14229SOL    HW145066   6.681   5.520  10.287 -0.7401 -0.4435 -2.2563
14229SOL    HW245067   6.809   5.598  10.264  0.0691 -1.5699 -1.6653
14230SOL     OW45068   6.519   4.021  10.376 -0.3681 -0.8071  0.4557
14230SOL    HW145069   6.494   4.051  10.289 -0.4005  0.1242  0.7709
14230SOL    HW245070   6.614   4.028  10.378 -0.3071 -1.4822  0.2741
14231SOL     OW45071   0.094   2.707   8.839 -0.0130 -0.5082  0.0372
14231SOL    HW145072   0.190   2.706   8.842  0.1604  3.5835  1.2102
14231SOL    HW245073   0.067   2.706   8.931 -1.0993 -0.9507 -0.2702
14232SOL     OW45074   8.359   9.958   5.034 -0.2768 -0.5312  1.0196
14232SOL    HW145075   8.425   9.921   5.092  0.1158  0.3904  1.1674
14232SOL    HW245076   8.358  10.051   5.054  1.8099  0.3620 -2.2803
14233SOL     OW45077   7.491   4.176   9.754 -0.0083 -0.5099 -0.1919
14233SOL    HW145078   7.475   4.187   9.660 -1.4901 -2.1119 -0.1801
14233SOL    HW245079   7.582   4.203   9.766  1.1517 -2.7959 -2.6124
14234SOL     OW45080  10.598   2.095   4.092 -0.0316  0.2631  0.3149
14234SOL    HW145081  10.616   2.006   4.123  0.8056  0.4554  0.3996
14234SOL    HW245082  10.545   2.134   4.162 -1.5651 -0.5860 -0.3270
14235SOL     OW45083   7.754   5.852   5.466  0.9811 -0.0716  0.2401
14235SOL    HW145084   7.753   5.946   5.449  0.6286  0.0359  0.8256
14235SOL    HW245085   7.688   5.816   5.405  1.5540 -0.0280 -0.4193
14236SOL     OW45086   9.908   2.990   9.315 -0.4015 -0.0594 -0.1880
14236SOL    HW145087   9.875   3.080   9.313  1.0571  0.4883 -1.2761
14236SOL    HW245088   9.937   2.977   9.405 -1.5155  0.2037  0.2230
14237SOL     OW45089   4.467   1.167   6.144 -0.2258  0.5804 -0.5268
14237SOL    HW145090   4.429   1.123   6.220 -0.5928  0.1154 -0.9733
14237SOL    HW245091   4.411   1.142   6.071  0.6418  0.2998 -1.1128
14238SOL     OW45092   5.844   5.385   7.445 -0.3257  0.4452 -0.0084
14238SOL    HW145093   5.799   5.456   7.493 -0.8710 -0.0637  0.2468
14238SOL    HW245094   5.856   5.420   7.357 -0.8540  0.7495  0.0352
14239SOL     OW45095   9.909   4.361   0.851  0.1431 -0.6659  0.1730
14239SOL    HW145096   9.923   4.396   0.939  0.5624 -0.1946 -0.0723
14239SOL    HW245097   9.903   4.439   0.796 -0.9374 -0.9357 -0.1002
14240SOL     OW45098   2.361   6.895   2.355  0.1089 -0.0897  0.3794
14240SOL    HW145099   2.266   6.893   2.369  0.1168 -2.5913  0.4914
14240SOL    HW245100   2.371   6.890   2.260  0.0477 -2.7806  0.4292
14241SOL     OW45101   9.251   1.393   1.872  0.1575  0.3244  0.3057
14241SOL    HW145102   9.159   1.418   1.865  0.3661  1.3627  1.0816
14241SOL    HW245103   9.273   1.358   1.786 -0.5487  1.4868 -0.3652
14242SOL     OW45104   0.263   5.626   8.870 -0.1516  0.2581 -0.1273
14242SOL    HW145105   0.321   5.636   8.946 -1.5621 -1.3619  1.2180
14242SOL    HW245106   0.263   5.532   8.851  0.3436  0.6393 -2.3309
14243SOL     OW45107  10.577   7.858   2.305 -0.2309 -0.4232  0.1813
14243SOL    HW145108  10.556   7.766   2.319  0.9648 -0.3641  3.0567
14243SOL    HW245109  10.667   7.868   2.337  0.0358  1.5616 -0.9973
14244SOL     OW45110   9.443   0.785   4.670 -0.1260  0.2891  0.4733
14244SOL    HW145111   9.489   0.787   4.754 -0.7577 -0.1661  0.8398
14244SOL    HW245112   9.381   0.858   4.674 -1.0466 -0.4861  0.9411
14245SOL     OW45113   1.573   0.272   9.240 -0.1432 -0.6944  0.5834
14245SOL    HW145114   1.615   0.201   9.288  1.3970  0.7306  1.4349
14245SOL    HW245115   1.612   0.352   9.275 -1.9992  0.6206 -0.1551
14246SOL     OW45116   7.842   0.824   8.718 -0.5784 -0.0107 -0.4612
14246SOL    HW145117   7.931   0.855   8.701 -0.8731  0.8140 -0.5676
14246SOL    HW245118   7.842   0.801   8.811 -0.2224 -0.1178 -0.4877
14247SOL     OW45119   6.283   0.714   8.506 -0.3674  0.4092 -0.2941
14247SOL    HW145120   6.245   0.628   8.489  3.2845 -1.0190 -2.3611
14247SOL    HW245121   6.213   0.776   8.483 -2.8324 -1.9288  0.4614
14248SOL     OW45122  10.633   8.816   0.912 -0.4432 -0.3741 -1.1712
14248SOL    HW145123  10.578   8.758   0.965 -0.1427  0.2317 -0.1718
14248SOL    HW245124  10.609   8.904   0.939 -0.2250 -0.0527 -1.9943
14249SOL     OW45125   4.948   7.207   6.976  0.9305  0.2061  0.7210
14249SOL    HW145126   4.905   7.147   6.914  0.0299  1.9448 -0.4186
14249SOL    HW245127   4.878   7.266   7.004  2.1383  1.8555  0.3947
14250SOL     OW45128   1.944   0.147   4.438  0.1003  0.5666 -0.1480
14250SOL    HW145129   1.970   0.235   4.407  2.0924 -0.0688 -0.4713
14250SOL    HW245130   1.869   0.124   4.384 -1.7670  2.8463  1.3067
14251SOL     OW45131   5.084   3.180   9.551 -0.1053  1.0817  0.2228
14251SOL    HW145132   5.048   3.269   9.556 -0.5924  0.8565  0.8947
14251SOL    HW245133   5.152   3.178   9.618 -1.3022  0.4271  1.4654
14252SOL     OW45134   1.235   3.649   8.573  0.0688 -0.2220 -0.7590
14252SOL    HW145135   1.236   3.631   8.667 -1.4260 -0.7064 -0.8082
14252SOL    HW245136   1.189   3.733   8.566 -1.2957 -0.9890 -1.1564
14253SOL     OW45137   9.994   1.759   3.313 -0.4212  0.0373  0.0972
14253SOL    HW145138  10.025   1.709   3.389  0.8501 -0.8555 -0.9514
14253SOL    HW245139  10.062   1.826   3.300 -1.6915  1.5576  0.9803
14254SOL     OW45140   6.568   8.086   3.534  0.5489  0.1211  0.0686
14254SOL    HW145141   6.550   8.108   3.443  1.3220 -1.0127 -0.3708
14254SOL    HW245142   6.482   8.069   3.573  0.2690 -0.0034 -0.6046
14255SOL     OW45143   2.971   4.789   4.755 -0.2550  0.2342 -0.2488
14255SOL    HW145144   3.043   4.849   4.733 -0.4713  1.0741  1.1733
14255SOL    HW245145   2.933   4.765   4.671  1.7535 -0.3349 -1.0487
14256SOL     OW45146   5.999   2.950   4.321 -0.0122 -0.3327 -0.4216
14256SOL    HW145147   5.993   2.857   4.342 -0.4112  0.2128  2.3346
14256SOL    HW245148   5.922   2.968   4.267 -0.9088 -1.3045  0.4804
14257SOL     OW45149   1.510   0.204   8.971 -0.1329  0.1141 -0.1614
14257SOL    HW145150   1.545   0.117   8.954 -0.4842 -0.0492 -0.0646
14257SOL    HW245151   1.539   0.225   9.060 -0.1345  0.0546 -0.1474
14258SOL     OW45152   8.347   3.374   6.311 -0.6613  0.2744  0.0947
14258SOL    HW145153   8.426   3.408   6.268  0.3824 -1.7602  0.2972
14258SOL    HW245154   8.301   3.327   6.241 -1.2078  0.6228  0.2138
14259SOL     OW45155   6.348   9.909   9.617  0.0543 -0.4618  0.1880
14259SOL    HW145156   6.430   9.862   9.602 -0.4854 -0.9523 -1.4334
14259SOL    HW245157   6.289   9.879   9.547 -0.7359  1.6539 -0.1441
14260SOL     OW45158   6.232   9.420   8.024 -0.3010 -0.0655  0.6620
14260SOL    HW145159   6.303   9.364   8.055 -0.3163 -1.0273 -0.9070
14260SOL    HW245160   6.260   9.509   8.046  1.2500 -0.4484  0.3717
14261SOL     OW45161   9.726  10.002   2.747  0.2056 -0.3550  0.1596
14261SOL    HW145162   9.712  10.077   2.689  0.7601  2.3004  3.2003
14261SOL    HW245163   9.653   9.943   2.728 -0.0700  0.7026 -2.6010
14262SOL     OW45164   6.473   6.838   4.243 -0.2861 -0.2685 -0.0023
14262SOL    HW145165   6.540   6.807   4.305  0.6375 -0.1167 -0.8907
14262SOL    HW245166   6.422   6.760   4.221 -0.1161 -0.4795  0.3439
14263SOL     OW45167   0.761   2.611   0.093 -0.0386 -0.7364  0.2880
14263SOL    HW145168   0.845   2.600   0.138  0.6599  0.5785 -0.6039
14263SOL    HW245169   0.735   2.701   0.114  0.4245  0.0111 -2.0272
14264SOL     OW45170   5.414   1.246   8.448 -0.2982 -0.2791 -0.1536
14264SOL    HW145171   5.381   1.245   8.538  0.1202 -1.8032  0.0198
14264SOL    HW245172   5.505   1.216   8.455 -0.2018 -0.2447 -1.0665
14265SOL     OW45173   1.853   7.898   2.275 -0.0445 -0.5723 -0.4046
14265SOL    HW145174   1.890   7.983   2.297 -1.6043 -0.4119  1.9652
14265SOL    HW245175   1.922   7.835   2.296  0.6051 -0.0044 -0.7972
14266SOL     OW45176   0.608   6.146   9.256  0.3264 -0.2390  0.4684
14266SOL    HW145177   0.619   6.132   9.350  1.1226  1.0601  0.5831
14266SOL    HW245178   0.697   6.139   9.220  0.2858  1.1068  0.0813
14267SOL     OW45179   1.577   5.641   1.257  0.2002 -0.3446 -0.3993
14267SOL    HW145180   1.604   5.553   1.230 -0.6438 -0.4553 -0.9239
14267SOL    HW245181   1.592   5.696   1.181 -2.3459 -0.6920 -1.2608
14268SOL     OW45182   8.887   4.461   4.242 -0.3343  0.1778 -0.0778
14268SOL    HW145183   8.849   4.541   4.205 -0.0221 -0.7747 -2.6504
14268SOL    HW245184   8.980   4.466   4.219 -0.0990 -0.4322  0.7003
14269SOL     OW45185   3.033  10.150   4.939 -0.3529 -0.1310 -0.3930
14269SOL    HW145186   2.977  10.227   4.925 -0.3996  0.1721  1.3136
14269SOL    HW245187   3.012  10.092   4.866 -2.4546  0.2483 -0.1562
14270SOL     OW45188   3.149   1.902   1.585  0.0925 -0.1381  0.0715
14270SOL    HW145189   3.168   1.843   1.512 -0.4909 -0.7461  0.4005
14270SOL    HW245190   3.210   1.976   1.573 -0.4454  0.1010 -1.4024
14271SOL     OW45191   4.872   5.555   8.058  0.0230 -0.0030 -0.4870
14271SOL    HW145192   4.967   5.550   8.072  0.5938  1.3207 -3.1762
14271SOL    HW245193   4.852   5.475   8.009  0.0264  0.3268 -1.0405
14272SOL     OW45194   5.661   1.633   6.349 -0.0083 -0.2367 -0.1812
14272SOL    HW145195   5.602   1.699   6.385 -0.1839 -0.6646  0.3268
14272SOL    HW245196   5.613   1.551   6.355  1.0924 -0.8076  1.4057
14273SOL     OW45197   1.320   7.323  10.481 -0.3996 -0.3870 -0.3754
14273SOL    HW145198   1.385   7.376  10.435  0.8654 -1.2265  0.3750
14273SOL    HW245199   1.290   7.380  10.552  1.4314 -0.7968  0.8288
14274SOL     OW45200   2.362   9.660   4.997  0.0611  0.2721  0.7829
14274SOL    HW145201   2.407   9.737   4.962  0.0716  0.6484  1.6058
14274SOL    HW245202   2.283   9.652   4.944  0.0587  0.8596  0.6930
14275SOL     OW45203   0.376   2.081   7.133 -0.2759 -0.3446 -0.0101
14275SOL    HW145204   0.314   2.010   7.119 -2.2739  1.4556 -0.6781
14275SOL    HW245205   0.352   2.148   7.070  1.0620  1.2664  1.0929
14276SOL     OW45206   6.093   5.794   4.812  0.5411  0.0153  0.4991
14276SOL    HW145207   6.054   5.882   4.813  1.7464  0.6322 -1.0337
14276SOL    HW245208   6.021   5.735   4.833 -0.6263  1.2806  0.1718
14277SOL     OW45209   3.128   2.005   9.401 -0.1508  0.4156 -0.2046
14277SOL    HW145210   3.127   1.949   9.323  0.2075  0.0502  0.0473
14277SOL    HW245211   3.048   1.981   9.448  0.7583 -0.9981  0.6677
14278SOL     OW45212   8.102   3.863   3.515 -0.1793  0.1324 -0.0135
14278SOL    HW145213   8.069   3.923   3.448  0.3191 -0.8976 -1.2100
14278SOL    HW245214   8.089   3.776   3.478 -1.3977 -0.5564  1.9263
14279SOL     OW45215   8.091   7.535   9.141  0.0878 -0.2719 -0.2289
14279SOL    HW145216   8.164   7.478   9.116  0.0984 -0.0873 -0.6271
14279SOL    HW245217   8.039   7.544   9.062  0.3250  0.6270 -0.2975
14280SOL     OW45218   0.588  10.436   0.185 -1.2829  0.3781 -0.1391
14280SOL    HW145219   0.632  10.489   0.119  0.8074  0.5072  1.2633
14280SOL    HW245220   0.539  10.371   0.135  0.1865  0.5048 -1.8320
14281SOL     OW45221   7.969   6.660   1.676 -0.3548 -0.1032 -0.2752
14281SOL    HW145222   7.875   6.659   1.695 -0.3130 -2.2559  0.0227
14281SOL    HW245223   7.999   6.742   1.714 -1.6075 -0.7684  2.4564
14282SOL     OW45224   2.370   2.010   8.216  0.6653  0.1677 -0.2248
14282SOL    HW145225   2.328   1.924   8.215  1.4867 -0.2404 -0.3373
14282SOL    HW245226   2.334   2.053   8.294  0.6328 -0.4719  0.1223
14283SOL     OW45227   7.566   5.520   0.685  0.0280 -0.0165  0.0121
14283SOL    HW145228   7.507   5.586   0.721  0.0254  0.5389 -0.9716
14283SOL    HW245229   7.639   5.516   0.747 -1.2911 -1.1675  1.5860
14284SOL     OW45230  10.074   7.580   3.736  0.1915 -0.2971  0.5715
14284SOL    HW145231  10.090   7.542   3.649 -0.2647 -0.4652  0.5609
14284SOL    HW245232  10.161   7.604   3.768  0.4003 -0.6118  0.2393
14285SOL     OW45233   2.579   2.871   0.791 -0.1557 -0.1566  0.3726
14285SOL    HW145234   2.555   2.915   0.872  1.1727 -0.4014  0.9255
14285SOL    HW245235   2.525   2.791   0.790  0.7237 -0.7987  1.6807
14286SOL     OW45236   3.275  10.380   7.804 -0.3493 -0.1636  0.1169
14286SOL    HW145237   3.236  10.353   7.887  0.3873  1.7825  1.1700
14286SOL    HW245238   3.328  10.304   7.776 -1.1492 -1.0923  1.0504
14287SOL     OW45239   8.106   7.735   8.864  0.1928  0.8833  0.3040
14287SOL    HW145240   8.066   7.692   8.789  1.2207 -0.9929  0.7621
14287SOL    HW245241   8.200   7.735   8.845  0.4352  0.7082  1.4051
14288SOL     OW45242   9.723   2.356  10.099 -0.1942 -0.2016 -0.3987
14288SOL    HW145243   9.666   2.312  10.162 -0.5543  0.9988  0.1555
14288SOL    HW245244   9.668   2.424  10.061  0.9748  1.3397  0.5387
14289SOL     OW45245   1.908   8.642   7.998  0.1151  0.1445  0.8335
14289SOL    HW145246   1.848   8.571   7.975 -0.5801  0.4372  1.7051
14289SOL    HW245247   1.994   8.600   8.004  0.0267 -0.2676 -0.4777
14290SOL     OW45248   4.559  10.450   2.171  0.7048  0.2882  0.3743
14290SOL    HW145249   4.467  10.463   2.196  0.2708 -2.0585  0.2724
14290SOL    HW245250   4.571  10.503   2.093 -1.2099 -0.9527 -0.8328
14291SOL     OW45251   6.034   7.348   7.653 -0.6135 -0.1711  0.1517
14291SOL    HW145252   6.119   7.374   7.619 -0.5905 -1.8391 -1.2157
14291SOL    HW245253   6.038   7.252   7.657 -2.1693 -0.2419  0.7835
14292SOL     OW45254   7.848   7.663   0.353  0.2745  0.1493  0.1477
14292SOL    HW145255   7.869   7.592   0.293  2.1866  0.8544 -0.0692
14292SOL    HW245256   7.762   7.694   0.324 -0.2158 -1.5008 -0.2674
14293SOL     OW45257   2.620   1.340  10.451  0.1005  0.3250  0.0191
14293SOL    HW145258   2.695   1.310  10.504  0.6003  1.4436 -0.0151
14293SOL    HW245259   2.565   1.388  10.513  0.7534  1.7537 -0.4667
14294SOL     OW45260   3.961  10.179   7.477 -0.1736  0.7860  0.0841
14294SOL    HW145261   3.892  10.112   7.473 -0.8393  1.4693 -0.3659
14294SOL    HW245262   3.999  10.179   7.389  2.7180 -1.8773  1.1618
14295SOL     OW45263   5.092   3.258   2.111 -0.3878  0.2418  0.0378
14295SOL    HW145264   5.131   3.204   2.043 -1.4634  2.0814 -2.1788
14295SOL    HW245265   5.015   3.208   2.139  1.8814 -2.1911  2.6261
14296SOL     OW45266   4.998   8.192   3.615  0.0184 -0.7281 -0.5078
14296SOL    HW145267   5.073   8.163   3.667 -0.3703 -0.3881  0.2562
14296SOL    HW245268   5.032   8.201   3.526  0.7931 -0.9208 -0.2343
14297SOL     OW45269   2.885   1.404   0.115 -0.1441 -0.3598  0.3388
14297SOL    HW145270   2.836   1.332   0.154  1.8916 -2.4260 -0.7209
14297SOL    HW245271   2.923   1.450   0.191  0.5658 -1.9450  0.9916
14298SOL     OW45272   4.498   6.264   1.033 -0.2715  0.4740  0.4353
14298SOL    HW145273   4.458   6.227   1.112 -1.8246 -0.2390 -0.6467
14298SOL    HW245274   4.571   6.316   1.066  1.6782 -2.9807  2.1437
14299SOL     OW45275   1.152  10.483   1.501  0.1444 -0.2715  0.0922
14299SOL    HW145276   1.222  10.419   1.513 -0.9217 -1.1678  1.8536
14299SOL    HW245277   1.079  10.449   1.552 -2.0807 -0.0358 -2.6744
14300SOL     OW45278   4.599  10.620   6.039  0.0656 -0.2597 -0.1237
14300SOL    HW145279   4.577  10.634   5.947  1.9889  0.0971 -0.5780
14300SOL    HW245280   4.518  10.588   6.079 -0.8085 -0.4208 -1.9316
14301SOL     OW45281   7.315   6.337   5.457 -0.2804 -0.0856 -0.1720
14301SOL    HW145282   7.283   6.339   5.548 -1.1439 -0.3943 -0.4529
14301SOL    HW245283   7.387   6.399   5.455 -1.1638  0.9880  0.4013
14302SOL     OW45284   8.039   2.847   2.105  0.1543 -0.5820  0.0560
14302SOL    HW145285   8.015   2.757   2.083  2.0661 -0.9036 -0.9320
14302SOL    HW245286   7.968   2.900   2.067 -0.6289 -1.6213  0.0209
14303SOL     OW45287   8.183   0.127   8.042 -0.4418 -0.5736 -0.8336
14303SOL    HW145288   8.185   0.216   8.005 -4.1974 -0.1709 -0.5443
14303SOL    HW245289   8.171   0.070   7.966  3.2631 -1.1147 -1.1565
14304SOL     OW45290   8.429   4.335   2.081 -0.4074 -0.3853  0.1454
14304SOL    HW145291   8.473   4.252   2.062  1.8780  0.4150  1.5519
14304SOL    HW245292   8.347   4.310   2.121  0.1127 -1.9809  0.2847
14305SOL     OW45293   0.323   3.172   9.540 -0.0984 -0.0391 -0.0641
14305SOL    HW145294   0.418   3.182   9.538 -0.2060  0.9881 -0.2640
14305SOL    HW245295   0.297   3.167   9.448 -0.3430  0.7485 -0.0411
14306SOL     OW45296   0.778   0.169   5.002 -0.3139 -0.0689 -0.7764
14306SOL    HW145297   0.787   0.247   4.946 -1.1275  1.0555  0.6032
14306SOL    HW245298   0.710   0.193   5.065  0.2626 -1.4721  0.4133
14307SOL     OW45299   8.049   9.701   0.634  0.0889 -0.5116 -0.1884
14307SOL    HW145300   8.060   9.725   0.542  2.1425 -2.3514 -0.5116
14307SOL    HW245301   7.955   9.693   0.646 -0.4376  2.6415 -1.2888
14308SOL     OW45302  10.472  10.549   2.368 -0.4902 -0.0143  0.8361
14308SOL    HW145303  10.567  10.537   2.374 -0.3791  0.8978  0.9639
14308SOL    HW245304  10.457  10.575   2.277 -0.7144 -0.9083  0.6051
14309SOL     OW45305   9.220   0.935   9.200  0.1455 -0.0216 -0.4893
14309SOL    HW145306   9.213   0.839   9.191  1.5952 -0.1749 -0.2063
14309SOL    HW245307   9.158   0.969   9.136  1.2980 -1.1558 -2.3217
14310SOL     OW45308   1.326   2.780  10.688 -0.4842 -0.1761  0.1716
14310SOL    HW145309   1.242   2.825  10.693  0.4470  1.4810  2.6856
14310SOL    HW245310   1.364   2.789  10.775  0.4914 -4.6099  0.4632
14311SOL     OW45311   9.865   6.470   2.522 -0.2462 -0.2539  0.1540
14311SOL    HW145312   9.859   6.388   2.473  0.4372 -2.0716  2.8278
14311SOL    HW245313   9.959   6.488   2.528 -0.4095  1.0647 -0.8512
14312SOL     OW45314   0.706  10.039   1.248  0.3298  0.1419 -0.2476
14312SOL    HW145315   0.755  10.043   1.330  0.0042  0.3531 -0.0626
14312SOL    HW245316   0.670  10.126   1.236 -1.7411 -0.5291  0.7056
14313SOL     OW45317   8.575   5.994   3.373  0.0025 -0.0151  0.3232
14313SOL    HW145318   8.576   6.032   3.285 -0.0115  0.5644  0.5726
14313SOL    HW245319   8.637   5.921   3.368  1.1515  0.9392  0.2362
14314SOL     OW45320   2.965   8.858   7.568  0.1523  0.3526 -0.0598
14314SOL    HW145321   3.005   8.916   7.633  0.6194  0.1742 -0.1882
14314SOL    HW245322   3.023   8.864   7.492  0.3295 -0.4757  0.0091
14315SOL     OW45323   6.370   2.776   0.498  0.6150  0.0585 -0.2232
14315SOL    HW145324   6.318   2.851   0.470 -0.3343 -0.7968 -0.7987
14315SOL    HW245325   6.448   2.815   0.538  1.2262  1.3446 -2.5346
14316SOL     OW45326   9.062   6.054   1.859  0.0740  0.0090 -0.0780
14316SOL    HW145327   9.006   6.132   1.854 -0.2676 -0.2345 -0.0600
14316SOL    HW245328   9.097   6.056   1.948  1.1781  0.9018 -0.5070
14317SOL     OW45329   2.014   9.481   3.121 -0.0394  0.1238 -0.1546
14317SOL    HW145330   2.098   9.489   3.077 -0.1249  1.6957 -0.1004
14317SOL    HW245331   2.032   9.430   3.200  1.0646  1.2298  0.3305
14318SOL     OW45332   8.017   4.502   4.955  0.6206 -0.4007  0.4653
14318SOL    HW145333   8.024   4.596   4.972 -0.4398 -0.2646  0.1868
14318SOL    HW245334   8.107   4.475   4.935  0.6867  0.9233 -1.2741
14319SOL     OW45335   2.790   4.346   2.795  0.1295  0.0607 -0.2729
14319SOL    HW145336   2.771   4.263   2.837 -1.3918 -0.1205 -1.2809
14319SOL    HW245337   2.735   4.348   2.717 -0.2012  2.1840 -0.0588
14320SOL     OW45338   5.511   8.718   8.394 -0.4680 -0.0366 -0.0076
14320SOL    HW145339   5.436   8.752   8.442 -1.8793 -1.0782 -1.3739
14320SOL    HW245340   5.512   8.768   8.312 -1.1768 -1.6639 -1.0416
14321SOL     OW45341  10.361   1.794   3.853  0.4583 -0.4706 -0.4495
14321SOL    HW145342  10.437   1.779   3.909  0.3343  1.9100  0.4745
14321SOL    HW245343  10.386   1.866   3.796 -0.7944 -0.2519 -0.7638
14322SOL     OW45344   2.430   3.537   1.775  0.6502  0.3611 -0.1515
14322SOL    HW145345   2.458   3.485   1.850 -1.7186  1.7416  1.8289
14322SOL    HW245346   2.345   3.500   1.750  0.5695  1.0651 -0.9614
14323SOL     OW45347   0.738   2.378   3.118  0.3320 -0.0239 -0.6290
14323SOL    HW145348   0.727   2.288   3.151  0.9881 -0.5455 -1.7854
14323SOL    HW245349   0.744   2.432   3.197  1.1324 -1.1478  0.1071
14324SOL     OW45350   3.512   7.591   8.495 -0.0665 -0.3578  0.4632
14324SOL    HW145351   3.576   7.540   8.445  1.6742  0.6998  1.5089
14324SOL    HW245352   3.492   7.535   8.571  1.7253  0.3576  1.5313
14325SOL     OW45353   7.853   9.760   3.414  0.2358 -0.0454  0.2751
14325SOL    HW145354   7.787   9.719   3.357  1.5662  0.2984 -1.6015
14325SOL    HW245355   7.824   9.851   3.421  1.5201  0.6659 -2.3215
14326SOL     OW45356   5.865   6.076   1.539  0.1108 -0.3799 -0.0143
14326SOL    HW145357   5.864   5.985   1.510 -3.5424 -0.3244 -0.4799
14326SOL    HW245358   5.849   6.127   1.459  2.5450  0.7875  0.1637
14327SOL     OW45359   5.537   6.237   7.261  0.4776  0.0741 -0.0412
14327SOL    HW145360   5.566   6.228   7.352 -0.7858 -1.0926  0.2800
14327SOL    HW245361   5.442   6.225   7.265  0.3173  0.6535 -1.4450
14328SOL     OW45362   4.032   0.823   1.813 -0.4623 -0.9022  0.3124
14328SOL    HW145363   4.100   0.890   1.813 -0.4889 -0.7712 -2.3627
14328SOL    HW245364   4.036   0.784   1.900 -0.4242  2.4975  1.9770
14329SOL     OW45365   1.666  10.449   7.679  0.0326  0.1521  0.1524
14329SOL    HW145366   1.613  10.494   7.746  0.0188  0.1218  0.1619
14329SOL    HW245367   1.732  10.514   7.654  0.4002 -0.0365  0.6220
14330SOL     OW45368   5.257   5.132   8.666  0.5642 -0.6514 -0.1305
14330SOL    HW145369   5.298   5.116   8.582  1.6886 -0.7040  0.4155
14330SOL    HW245370   5.273   5.225   8.684 -0.9582 -0.2505 -0.6263
14331SOL     OW45371   1.373   9.928   1.825  0.1608 -0.3180  0.4984
14331SOL    HW145372   1.319   9.993   1.870 -0.1103 -0.0080 -0.2564
14331SOL    HW245373   1.428   9.979   1.766  0.3888 -0.7341  0.3460
14332SOL     OW45374   7.637   3.024   3.112 -0.5133  0.1056  0.0196
14332SOL    HW145375   7.561   3.054   3.163 -0.3229  0.3414  0.1649
14332SOL    HW245376   7.713   3.060   3.158 -0.3897  1.3439 -1.1238
14333SOL     OW45377   2.942   6.630   4.717  0.4291  0.3554  0.4570
14333SOL    HW145378   2.886   6.674   4.652  0.3908 -0.9864 -0.4574
14333SOL    HW245379   2.998   6.700   4.752  0.6937  1.0620 -1.2902
14334SOL     OW45380   7.545   2.147  10.448  0.7103 -0.3628 -0.7682
14334SOL    HW145381   7.503   2.185  10.524  2.2873 -0.8301  0.3966
14334SOL    HW245382   7.607   2.213  10.419  0.1745 -0.2163 -1.6265
14335SOL     OW45383   5.237  10.154  10.200  0.0481  0.2237 -0.0442
14335SOL    HW145384   5.249  10.084  10.263 -1.1173  1.0124  1.0999
14335SOL    HW245385   5.322  10.160  10.155  0.1902 -1.8376 -0.1530
14336SOL     OW45386   5.063   0.693   8.676  0.4211  0.3488  0.1769
14336SOL    HW145387   5.065   0.695   8.772  0.9797  0.3071  0.1647
14336SOL    HW245388   5.004   0.765   8.653 -0.9525 -0.5862  0.5858
14337SOL     OW45389   0.519   1.715   3.278  0.9734 -0.0108  0.0069
14337SOL    HW145390   0.531   1.693   3.371 -1.9958  2.0477  1.0665
14337SOL    HW245391   0.527   1.811   3.275 -0.6617  0.1376 -1.4602
14338SOL     OW45392   8.030   0.930   0.137 -0.3557 -0.1596  0.0923
14338SOL    HW145393   7.953   0.965   0.182 -0.4951 -0.0023 -0.2694
14338SOL    HW245394   8.073   0.876   0.204 -1.0761 -0.7013  0.1354
14339SOL     OW45395  10.264   8.623   0.590  0.1114  0.1642 -0.0709
14339SOL    HW145396  10.229   8.566   0.658 -2.1731  0.6149 -0.7701
14339SOL    HW245397  10.358   8.630   0.609  0.1190 -2.3098  1.0962
14340SOL     OW45398   7.892   5.513   3.411 -0.2191 -0.2370 -0.2921
14340SOL    HW145399   7.956   5.571   3.452  1.5779 -2.6069  0.4629
14340SOL    HW245400   7.938   5.431   3.398 -3.0420 -2.0295  0.0597
14341SOL     OW45401   5.986   6.706   7.877  0.1827 -1.0031  0.0100
14341SOL    HW145402   6.011   6.661   7.958 -0.0753  1.5234  1.5977
14341SOL    HW245403   6.050   6.776   7.867 -2.1392  1.3558  0.4311
14342SOL     OW45404   7.436   2.107   9.839  0.0342 -0.0722  0.3829
14342SOL    HW145405   7.438   2.015   9.813 -0.3934  0.0753 -0.1836
14342SOL    HW245406   7.344   2.132   9.831  0.2536  0.5916 -0.1496
14343SOL     OW45407   0.854   0.714  10.411  0.5237  0.5540  0.0665
14343SOL    HW145408   0.789   0.659  10.366  1.1209 -0.5865  0.5330
14343SOL    HW245409   0.892   0.768  10.342  2.7853 -2.4728 -1.3500
14344SOL     OW45410   0.287  10.214   6.284  0.5482 -0.2823 -0.3257
14344SOL    HW145411   0.352  10.223   6.354 -1.0811  1.9524  1.0405
14344SOL    HW245412   0.305  10.287   6.225 -1.1735  0.9189  0.5490
14345SOL     OW45413   8.461   1.062   2.142  0.0976  0.0569  0.2560
14345SOL    HW145414   8.445   1.064   2.237  1.4520  0.0083  0.5008
14345SOL    HW245415   8.460   0.969   2.120 -0.6883  0.0889  0.1251
14346SOL     OW45416   2.317   4.042   9.744  0.1138  0.2980 -0.0381
14346SOL    HW145417   2.238   4.092   9.721 -0.5682  0.2000  1.8511
14346SOL    HW245418   2.304   4.020   9.836  2.3702  0.2631  0.3185
14347SOL     OW45419   6.989   8.836   5.092 -0.1639  0.9922  0.7017
14347SOL    HW145420   7.050   8.875   5.155  0.9628 -0.4487  0.5432
14347SOL    HW245421   6.980   8.745   5.120  0.8814  0.1065 -1.5274
14348SOL     OW45422   0.545   0.997   4.489  0.0752 -0.0252 -0.7455
14348SOL    HW145423   0.526   0.994   4.582 -2.1541 -1.7178 -1.1637
14348SOL    HW245424   0.630   0.953   4.480  0.5510  0.6144  0.5180
14349SOL     OW45425   3.607   6.829   3.538 -0.5732 -0.3169 -0.6907
14349SOL    HW145426   3.527   6.797   3.580 -0.9486  0.5164 -0.7337
14349SOL    HW245427   3.601   6.925   3.547  0.3971 -0.2478 -0.7366
14350SOL     OW45428   9.461   6.082   9.269  0.0263 -0.0430 -0.3643
14350SOL    HW145429   9.510   6.073   9.351 -0.2784  0.1918 -0.1516
14350SOL    HW245430   9.528   6.088   9.201  0.2848 -2.1326 -0.3609
14351SOL     OW45431   3.768   8.120   0.711 -0.7609 -0.5065 -0.0741
14351SOL    HW145432   3.852   8.145   0.750 -1.1584 -0.3487  0.7046
14351SOL    HW245433   3.738   8.198   0.666 -0.3295 -0.6673 -0.6414
14352SOL     OW45434   1.744   7.941   5.703  0.0975 -0.2788  0.3632
14352SOL    HW145435   1.739   7.954   5.797 -1.1329  0.3577  0.2311
14352SOL    HW245436   1.789   7.857   5.693  0.7031 -0.1091  1.4875
14353SOL     OW45437   7.228  10.284   8.530 -0.0361 -0.0734 -0.2550
14353SOL    HW145438   7.192  10.320   8.449  2.6102 -0.6560 -1.7987
14353SOL    HW245439   7.313  10.327   8.540 -0.7587  0.9185  2.9653
14354SOL     OW45440   1.993   4.748   6.940  1.1470  0.2723 -0.2839
14354SOL    HW145441   2.070   4.782   6.894  1.2613 -0.6597 -0.8249
14354SOL    HW245442   2.029   4.689   7.006  0.8950 -0.8897 -1.1486
14355SOL     OW45443   6.689   7.125   6.934 -0.2220 -1.1433  0.3771
14355SOL    HW145444   6.682   7.197   6.871  1.6450  1.5502  2.9803
14355SOL    HW245445   6.602   7.084   6.932 -0.8500  0.0333 -2.4451
14356SOL     OW45446   0.956   2.955   1.309  0.2266 -0.1062  0.0262
14356SOL    HW145447   0.952   3.038   1.263  0.5613  0.9244  1.7670
14356SOL    HW245448   0.883   2.904   1.272 -0.7454  1.4031 -0.2326
14357SOL     OW45449  10.339  10.395   2.642 -0.2033 -0.6147 -0.2174
14357SOL    HW145450  10.311  10.306   2.665 -0.9115 -0.6121 -1.0273
14357SOL    HW245451  10.412  10.382   2.582 -0.0472 -0.6381 -0.0255
14358SOL     OW45452  10.598   0.757   0.245  0.2431  0.5553  0.2218
14358SOL    HW145453  10.611   0.675   0.197  1.9532 -0.4620  2.2289
14358SOL    HW245454  10.550   0.731   0.324  1.3000  1.3541  1.1609
14359SOL     OW45455   0.451  10.695  10.379 -0.5089 -0.0821 -0.2085
14359SOL    HW145456   0.462  10.767  10.441  1.0426  0.8927 -1.5341
14359SOL    HW245457   0.428  10.738  10.297 -0.5057 -1.1785 -0.7961
14360SOL     OW45458   3.976   3.939   3.292 -0.1020  0.1155 -0.0617
14360SOL    HW145459   3.951   4.031   3.289  0.2556  0.1816 -2.1771
14360SOL    HW245460   4.054   3.934   3.237  0.0104 -1.4200  0.2098
14361SOL     OW45461   8.132   2.204   8.446 -0.0049 -0.9541 -0.3823
14361SOL    HW145462   8.069   2.218   8.375  0.6900  1.4389 -0.5938
14361SOL    HW245463   8.196   2.274   8.436  0.2227 -0.6348  2.4924
14362SOL     OW45464   9.212   6.539   4.042  0.0213  0.2978 -0.2694
14362SOL    HW145465   9.125   6.523   4.080 -0.0986  0.3607 -0.5137
14362SOL    HW245466   9.273   6.525   4.115 -0.2849  1.5717  0.2677
14363SOL     OW45467   1.230   5.421   5.339 -0.1935  0.7462  0.1587
14363SOL    HW145468   1.179   5.489   5.384 -2.7018 -0.2030 -1.0392
14363SOL    HW245469   1.276   5.468   5.269 -1.5338  1.3209 -0.3708
14364SOL     OW45470   4.913   8.396   9.853  0.1807 -0.0592 -0.6069
14364SOL    HW145471   4.855   8.384   9.778  0.3894  0.5898 -0.8724
14364SOL    HW245472   4.898   8.486   9.882 -0.0559 -0.3681  0.2707
14365SOL     OW45473   1.339   4.528   7.928  0.1681 -0.4852 -0.2056
14365SOL    HW145474   1.343   4.535   8.023  2.0249  0.1482 -0.2966
14365SOL    HW245475   1.346   4.434   7.911 -0.1240 -0.5980  0.2829
14366SOL     OW45476   7.510   0.164   4.287 -0.4610 -0.5450  0.0137
14366SOL    HW145477   7.571   0.214   4.342 -0.1301 -1.9709  0.9974
14366SOL    HW245478   7.559   0.146   4.207 -0.0147 -0.6673  0.3129
14367SOL     OW45479   0.128   2.478   8.691  0.1729  0.3490 -0.3238
14367SOL    HW145480   0.147   2.538   8.619  1.6016  0.8404  0.4068
14367SOL    HW245481   0.116   2.535   8.768 -1.6322 -0.1480 -0.2102
14368SOL     OW45482   3.528  10.641   2.134  0.0962  0.4642 -0.1150
14368SOL    HW145483   3.581  10.578   2.182  1.9555  1.7064 -0.4173
14368SOL    HW245484   3.491  10.698   2.202  2.2296  1.8470 -0.0153
14369SOL     OW45485   3.875   6.187   9.424 -0.7050  0.0701  0.1988
14369SOL    HW145486   3.821   6.109   9.411 -0.4662  0.0475 -0.7607
14369SOL    HW245487   3.953   6.155   9.469 -1.2168  0.0041  1.0629
14370SOL     OW45488   3.393   4.122   3.639 -0.3653  0.7831 -0.4725
14370SOL    HW145489   3.309   4.115   3.594 -0.9674 -0.5399  0.7859
14370SOL    HW245490   3.422   4.031   3.649  0.9765  1.1935 -0.4157
14371SOL     OW45491   0.456   4.624   1.797 -0.3888 -0.5992 -0.2349
14371SOL    HW145492   0.517   4.574   1.851 -0.6164 -1.1679 -0.4915
14371SOL    HW245493   0.405   4.557   1.750 -1.7288 -0.1642  0.5377
14372SOL     OW45494   4.091   1.311  10.766 -0.3696  0.0572 -0.2713
14372SOL    HW145495   4.142   1.233  10.785  1.1129  0.5661 -1.8585
14372SOL    HW245496   4.035   1.286  10.692  0.9844  0.7442 -1.6076
14373SOL     OW45497   0.935   3.111   5.316 -0.4808 -0.0744 -0.3147
14373SOL    HW145498   0.917   3.190   5.367  1.1329 -0.0378  0.2750
14373SOL    HW245499   0.875   3.045   5.350  0.1477  0.1190  1.2363
14374SOL     OW45500   8.095   2.171   8.083  0.2637  0.1297 -0.3586
14374SOL    HW145501   8.101   2.239   8.016  1.3708  0.9484  0.5486
14374SOL    HW245502   8.186   2.145   8.098  0.1482  0.7665  1.6349
14375SOL     OW45503   3.967   8.733   4.212 -0.3963 -0.4976  0.0878
14375SOL    HW145504   3.875   8.761   4.219 -0.3534 -0.5827  1.1438
14375SOL    HW245505   3.975   8.660   4.273  0.9461  1.0293  1.8470
14376SOL     OW45506   5.736   9.304  10.033  0.6828 -0.1718 -0.1719
14376SOL    HW145507   5.698   9.369  10.092  0.1821 -0.7216  0.1298
14376SOL    HW245508   5.830   9.318  10.039  0.5284  1.7884 -1.5890
14377SOL     OW45509   1.155   6.358   6.090 -0.2497  0.4354  1.0267
14377SOL    HW145510   1.181   6.412   6.015 -0.8936  0.1820  0.6109
14377SOL    HW245511   1.235   6.346   6.140  0.3903 -0.1190 -0.0886
14378SOL     OW45512   3.827   1.365   7.561 -0.5973 -0.6078  0.1390
14378SOL    HW145513   3.865   1.322   7.637 -0.1973  1.7045  1.3435
14378SOL    HW245514   3.859   1.455   7.565 -0.0162 -0.5184 -3.1640
14379SOL     OW45515   5.444   3.391   6.980 -0.5747 -0.9616  0.1727
14379SOL    HW145516   5.460   3.450   6.907  2.6499 -1.0553  0.6886
14379SOL    HW245517   5.431   3.450   7.055 -1.6127 -0.8972 -0.0449
14380SOL     OW45518   3.863   7.888   6.606 -0.5825  0.3320 -0.4408
14380SOL    HW145519   3.904   7.869   6.522  0.5745 -1.0662  0.4072
14380SOL    HW245520   3.795   7.821   6.615 -0.3869  0.1809 -0.0628
14381SOL     OW45521   3.875   9.386  10.610 -0.5876 -1.0776 -0.0679
14381SOL    HW145522   3.805   9.331  10.645 -0.9306 -1.4781 -1.3128
14381SOL    HW245523   3.830   9.466  10.583 -0.3131 -0.7289  0.5091
14382SOL     OW45524   6.549   3.803   2.547 -0.0726 -0.0055  0.1070
14382SOL    HW145525   6.587   3.724   2.586  2.7505  1.8077  1.3111
14382SOL    HW245526   6.564   3.793   2.453 -0.9808 -1.4381  0.0744
14383SOL     OW45527   1.096   1.316   3.601  0.2977 -0.0115  0.1946
14383SOL    HW145528   1.030   1.357   3.545 -0.2395  0.9051  1.4577
14383SOL    HW245529   1.078   1.222   3.595 -1.2424  0.2302  0.6383
14384SOL     OW45530   6.729   4.058   6.180 -0.3622 -0.0214 -0.5532
14384SOL    HW145531   6.689   3.994   6.239  0.7614 -0.8257 -0.6455
14384SOL    HW245532   6.654   4.105   6.143 -1.1646 -0.6569  0.2048
14385SOL     OW45533   2.127   8.852   5.802  0.6141  0.4693 -0.1040
14385SOL    HW145534   2.165   8.872   5.888  1.1021  0.4658 -0.3145
14385SOL    HW245535   2.192   8.797   5.760  0.2175  0.1815 -0.3453
14386SOL     OW45536   6.936   0.700   5.870 -0.3255 -0.2395 -0.7862
14386SOL    HW145537   6.871   0.630   5.874 -0.2409 -0.3736 -1.5723
14386SOL    HW245538   7.018   0.657   5.892 -0.5733  0.0623  0.8675
14387SOL     OW45539   0.564   8.257   4.031 -0.1815 -0.3512 -0.0147
14387SOL    HW145540   0.645   8.280   4.078 -1.5625  0.4937  2.1085
14387SOL    HW245541   0.568   8.162   4.022  1.0198 -0.3287  0.1044
14388SOL     OW45542   5.579   7.204   8.694  0.2035 -0.8290 -0.0860
14388SOL    HW145543   5.674   7.193   8.684  0.2978  0.3909 -0.6820
14388SOL    HW245544   5.550   7.242   8.611 -0.6986 -0.5418  0.3462
14389SOL     OW45545   3.099   1.553   4.873 -0.0947 -0.1584 -0.4231
14389SOL    HW145546   3.123   1.632   4.824  1.2203 -1.1554 -1.4753
14389SOL    HW245547   3.183   1.515   4.898 -0.6132 -2.1852 -1.5534
14390SOL     OW45548   7.503   5.917   8.333  0.7479  0.3955  0.1767
14390SOL    HW145549   7.438   5.987   8.345  0.6387  0.1383  1.1893
14390SOL    HW245550   7.450   5.837   8.327  0.9401  0.2533  0.3778
14391SOL     OW45551   6.302   9.013   3.306 -0.6851  0.0974  0.0394
14391SOL    HW145552   6.355   9.093   3.307  0.2593 -0.5135  1.3391
14391SOL    HW245553   6.361   8.944   3.337 -1.0480 -1.4265 -2.3554
14392SOL     OW45554   6.734   5.969  10.696  0.1396 -0.2563  0.1063
14392SOL    HW145555   6.723   5.929  10.610 -0.2141  0.9830 -0.4439
14392SOL    HW245556   6.814   5.930  10.731 -0.5243 -1.8867 -0.1288
14393SOL     OW45557   4.227   1.454   9.922 -0.2286 -0.3753  0.5283
14393SOL    HW145558   4.196   1.544   9.935  0.1616 -0.1493 -0.1055
14393SOL    HW245559   4.270   1.455   9.837  0.6563 -0.9262  0.9576
14394SOL     OW45560   8.160   9.598   1.788  0.0049 -0.3942 -0.2169
14394SOL    HW145561   8.230   9.558   1.838 -0.5930 -1.1139  0.0624
14394SOL    HW245562   8.182   9.579   1.697  0.2801 -0.4350 -0.1430
14395SOL     OW45563   1.151   6.053   6.996  0.1435 -0.0647  0.3476
14395SOL    HW145564   1.120   5.978   7.046 -1.1217  0.4373  0.3619
14395SOL    HW245565   1.212   6.098   7.055 -0.8932  0.2083  1.2318
14396SOL     OW45566   7.583   5.033  10.080 -0.1102  0.2543  0.0195
14396SOL    HW145567   7.632   4.990  10.150 -1.1304  0.2227  0.7207
14396SOL    HW245568   7.637   5.018  10.001 -0.7103 -2.8774  0.0874
14397SOL     OW45569   4.110   2.838   8.926  1.0393  0.5438  0.2527
14397SOL    HW145570   4.199   2.818   8.957  0.7213 -1.6043 -0.0866
14397SOL    HW245571   4.060   2.851   9.006  1.3180  0.1077  0.5045
14398SOL     OW45572   7.764   8.772   5.158  0.9462  0.5468 -0.0308
14398SOL    HW145573   7.763   8.750   5.251 -0.8215 -1.3254 -0.4261
14398SOL    HW245574   7.844   8.733   5.124 -0.1664 -2.0276  0.0780
14399SOL     OW45575   0.751   1.510   4.439  0.7867 -0.4184  0.6390
14399SOL    HW145576   0.811   1.481   4.508  1.3708 -0.9440 -0.0734
14399SOL    HW245577   0.693   1.435   4.424  0.8588 -0.4206  0.3551
14400SOL     OW45578   9.499   5.042   7.735  0.2382 -0.3215 -0.3090
14400SOL    HW145579   9.508   5.109   7.667 -0.2357  0.5959  0.4925
14400SOL    HW245580   9.588   5.027   7.766  0.6773 -1.9227 -2.1799
14401SOL     OW45581   3.236   0.103   8.197  0.0668 -0.0871 -0.2299
14401SOL    HW145582   3.265   0.033   8.138 -0.3843 -1.0528  0.6579
14401SOL    HW245583   3.188   0.057   8.266 -1.6965  1.2680 -0.5046
14402SOL     OW45584  10.352   1.108   7.481  0.5205 -0.1828 -0.1605
14402SOL    HW145585  10.423   1.074   7.535  0.9821  0.6407 -0.2399
14402SOL    HW245586  10.373   1.201   7.468 -0.0174 -0.1713 -1.0532
14403SOL     OW45587   9.377   5.156   7.964  0.1359  0.0526 -0.3310
14403SOL    HW145588   9.437   5.165   7.890 -1.2711 -0.3378 -1.5893
14403SOL    HW245589   9.340   5.244   7.976  1.6568  0.5423  1.1265
14404SOL     OW45590   0.234   9.836   5.717 -0.1902  0.3985 -0.3675
14404SOL    HW145591   0.150   9.865   5.682 -0.1270 -1.9113 -2.7262
14404SOL    HW245592   0.298   9.894   5.677 -0.4856  0.6277 -0.5117
14405SOL     OW45593   4.729   4.662   2.612 -0.0195 -0.4802  0.6347
14405SOL    HW145594   4.640   4.677   2.643 -0.2347 -0.6961  0.1393
14405SOL    HW245595   4.782   4.657   2.691 -0.3342  0.3550  0.9026
14406SOL     OW45596  10.525   3.780   6.278  0.5132 -0.1211 -0.1383
14406SOL    HW145597  10.455   3.827   6.234 -1.8438 -1.2650  2.1213
14406SOL    HW245598  10.570   3.848   6.329 -1.8052  0.0879  1.8004
14407SOL     OW45599   4.893   9.788   7.590  0.2636  0.4441  0.7643
14407SOL    HW145600   4.922   9.729   7.520 -0.7514 -1.0635  1.5495
14407SOL    HW245601   4.802   9.808   7.567  0.5186  1.5225  0.6527
14408SOL     OW45602   2.937   9.057   7.312 -0.4021 -0.5228  0.0390
14408SOL    HW145603   2.958   9.105   7.232 -0.5523 -0.9262 -0.2474
14408SOL    HW245604   2.987   8.975   7.304  2.8972  1.0387  2.2328
14409SOL     OW45605   7.305   4.179   2.644 -0.2507 -0.3353  1.0111
14409SOL    HW145606   7.256   4.261   2.646 -0.2325 -0.1046 -2.0825
14409SOL    HW245607   7.266   4.125   2.712 -2.1535  1.2559  1.2633
14410SOL     OW45608   6.738   3.597   0.136 -0.4681 -0.0577  0.3285
14410SOL    HW145609   6.826   3.579   0.104  0.1859 -1.3211  2.6008
14410SOL    HW245610   6.749   3.665   0.202 -1.5677  1.4242 -0.9331
14411SOL     OW45611   5.662   4.036   3.908 -0.0106  0.3733  0.1974
14411SOL    HW145612   5.651   4.097   3.981 -0.2057  0.1255  0.3772
14411SOL    HW245613   5.693   4.090   3.835 -0.9013  0.8235  0.1414
14412SOL     OW45614   8.146   2.491   5.643  0.0364  0.0284  0.4041
14412SOL    HW145615   8.158   2.420   5.706  0.2618  0.4896  0.8930
14412SOL    HW245616   8.058   2.525   5.661 -0.0391 -0.0693  0.2249
14413SOL     OW45617   6.320   5.366   8.934 -0.8024  0.3292  0.3405
14413SOL    HW145618   6.326   5.305   9.008  0.0241  1.2788  1.0992
14413SOL    HW245619   6.241   5.417   8.951 -0.2289  1.0352  0.9938
14414SOL     OW45620   3.015   8.603   3.713  0.3417 -0.4342  0.6072
14414SOL    HW145621   3.030   8.513   3.742  0.0647 -0.2550  1.3163
14414SOL    HW245622   3.092   8.651   3.743  0.1118 -0.2744  0.9479
14415SOL     OW45623   2.032   8.214   1.738 -0.0550  0.4978  0.1716
14415SOL    HW145624   1.976   8.140   1.715  2.3455 -1.7379  1.0604
14415SOL    HW245625   2.026   8.273   1.662 -0.7374 -1.3992 -1.3205
14416SOL     OW45626  10.564   9.441   9.519  0.2672  0.0559  0.3293
14416SOL    HW145627  10.475   9.458   9.489 -0.0135 -0.5792  0.7643
14416SOL    HW245628  10.565   9.471   9.610  0.4652 -0.0299  0.3580
14417SOL     OW45629   6.095   4.070   6.448  0.0485  0.0070  0.1448
14417SOL    HW145630   6.189   4.077   6.429 -0.1117  0.0845 -0.6701
14417SOL    HW245631   6.066   3.994   6.397 -0.7217  1.2142 -1.2969
14418SOL     OW45632   7.347   5.360   7.680  0.0142  0.8979  0.5759
14418SOL    HW145633   7.367   5.282   7.731  0.1592  1.3224  1.1795
14418SOL    HW245634   7.432   5.389   7.646 -0.0121  0.8995  0.5110
14419SOL     OW45635  10.600   5.471   2.270 -0.3699  0.1455 -0.4604
14419SOL    HW145636  10.649   5.550   2.290 -0.3775  0.3673 -1.2610
14419SOL    HW245637  10.510   5.501   2.256 -0.1899  0.1597 -1.7307
14420SOL     OW45638   2.629   9.824   9.829 -0.2474 -0.0550 -0.5569
14420SOL    HW145639   2.665   9.838   9.917  0.0380  2.4109 -0.9852
14420SOL    HW245640   2.706   9.828   9.772 -0.7002  0.9896 -1.1128
14421SOL     OW45641   6.502   2.175   5.623  0.0323  0.0216 -0.5273
14421SOL    HW145642   6.596   2.168   5.605 -0.0443  0.4037 -1.1106
14421SOL    HW245643   6.464   2.095   5.585 -0.0106  0.3893 -1.2803
14422SOL     OW45644   2.884   4.812   7.757  0.2547 -0.0631 -0.1438
14422SOL    HW145645   2.960   4.803   7.699  0.7836  4.0608 -0.3911
14422SOL    HW245646   2.918   4.788   7.843  0.2888 -3.2262 -0.8862
14423SOL     OW45647   6.063   2.773   9.219  0.4058  0.0868  0.1082
14423SOL    HW145648   6.031   2.837   9.155  1.3934  0.3952 -0.0981
14423SOL    HW245649   6.010   2.695   9.203 -0.0734  0.5066 -0.3845
14424SOL     OW45650   1.033  10.567   1.061  0.0733  0.6164  0.5220
14424SOL    HW145651   1.059  10.602   0.976 -0.3409 -0.3924 -0.0448
14424SOL    HW245652   0.956  10.618   1.085 -0.0926  0.5916  0.0605
14425SOL     OW45653   3.661   6.726   4.420  0.1522 -0.7592  0.0537
14425SOL    HW145654   3.749   6.727   4.381 -0.3000 -3.2271 -1.2635
14425SOL    HW245655   3.664   6.655   4.484 -1.2131 -1.8212 -0.9975
14426SOL     OW45656   5.307   8.037   4.457 -0.3944  0.2928 -0.0173
14426SOL    HW145657   5.226   8.051   4.407  0.0569  0.9477 -0.5683
14426SOL    HW245658   5.337   8.125   4.478  2.3574  0.3117 -3.2970
14427SOL     OW45659   6.020   7.769   9.067 -0.3891  0.0016 -0.6138
14427SOL    HW145660   6.050   7.692   9.117 -0.1980  0.1207 -0.5412
14427SOL    HW245661   5.946   7.802   9.117 -0.0253  0.2843 -0.2518
14428SOL     OW45662   6.509   5.134  10.743 -0.2642  0.4322 -0.3622
14428SOL    HW145663   6.515   5.076  10.668 -0.0490  0.4321 -0.3444
14428SOL    HW245664   6.427   5.109  10.786 -1.1069  1.3601 -1.3677
14429SOL     OW45665   0.626   8.498   6.540  0.7315  0.5558  0.4417
14429SOL    HW145666   0.569   8.521   6.467  0.7752  0.8816  0.5107
14429SOL    HW245667   0.666   8.581   6.566  1.5060  0.2782  0.1641
14430SOL     OW45668   3.744   8.321   9.129 -0.7176 -0.3207 -0.1838
14430SOL    HW145669   3.814   8.385   9.145  0.0386 -1.6276  2.1862
14430SOL    HW245670   3.695   8.357   9.055  1.3729  1.5436 -0.7531
14431SOL     OW45671   0.011   8.073   7.628  0.6202 -0.2534  0.0007
14431SOL    HW145672   0.092   8.064   7.578 -0.4970  0.6894 -2.1327
14431SOL    HW245673   0.014   8.162   7.663  0.5867 -0.2918  0.1011
14432SOL     OW45674   8.223   5.156   9.620 -0.0933  0.0374 -0.8357
14432SOL    HW145675   8.264   5.205   9.691 -0.3676  0.8203 -1.2026
14432SOL    HW245676   8.140   5.125   9.656  0.2680 -0.5133 -0.4725
14433SOL     OW45677   0.042   0.293   0.242  0.9689 -0.1714 -0.4351
14433SOL    HW145678  -0.037   0.239   0.234 -0.3647  1.3003  1.6857
14433SOL    HW245679   0.099   0.243   0.301 -0.3317  0.6786  1.6627
14434SOL     OW45680   8.019   8.026   5.009  0.2615  0.4637 -0.0809
14434SOL    HW145681   8.032   7.949   5.064 -2.0438 -0.7780 -1.1426
14434SOL    HW245682   8.101   8.075   5.017  0.5511 -0.3280  3.2988
14435SOL     OW45683   8.316   9.892   7.582 -0.0131 -0.1804 -0.1553
14435SOL    HW145684   8.404   9.927   7.593 -0.4572  1.1209 -0.6278
14435SOL    HW245685   8.301   9.839   7.661  0.9040  0.1860  0.2726
14436SOL     OW45686   9.170   7.214   0.799  0.5619 -0.2372 -0.1357
14436SOL    HW145687   9.132   7.148   0.740  0.3912  0.2965 -0.6346
14436SOL    HW245688   9.100   7.233   0.861  0.0788  0.5571 -0.9001
14437SOL     OW45689   9.856   3.915   1.993  0.6128 -0.2256 -0.1774
14437SOL    HW145690   9.784   3.961   2.036  1.0357  1.9756 -1.6154
14437SOL    HW245691   9.847   3.824   2.020 -0.3619  0.6324  2.7804
14438SOL     OW45692   1.335   9.406   8.763 -0.1890 -0.0328 -0.2916
14438SOL    HW145693   1.430   9.411   8.757 -0.2670  0.6403 -0.9902
14438SOL    HW245694   1.307   9.368   8.680 -0.5611  0.1226 -0.2427
14439SOL     OW45695   0.671   3.824   7.840  0.4589  0.1356 -0.3900
14439SOL    HW145696   0.749   3.850   7.890  0.0841  0.0454  0.2440
14439SOL    HW245697   0.625   3.906   7.824 -1.4065 -0.1151  2.7324
14440SOL     OW45698   5.675  10.582   5.338 -0.5963  0.1298 -0.2636
14440SOL    HW145699   5.758  10.545   5.369 -1.9985 -0.3518  3.4235
14440SOL    HW245700   5.633  10.511   5.291  0.4800 -0.0126 -1.0684
14441SOL     OW45701   6.211   6.202   4.209  0.1112 -0.4728  0.2024
14441SOL    HW145702   6.151   6.276   4.215 -1.6352 -1.8933  1.2366
14441SOL    HW245703   6.241   6.204   4.118 -1.0532  0.6288 -0.1976
14442SOL     OW45704   0.712   2.163   3.591  0.3301 -0.6933  0.5306
14442SOL    HW145705   0.794   2.134   3.551  1.4003  1.4201  1.0540
14442SOL    HW245706   0.735   2.242   3.639 -2.2720  0.7666 -0.4062
14443SOL     OW45707   7.906  10.366   3.761  0.3597 -0.0494 -0.3942
14443SOL    HW145708   7.874  10.301   3.698  0.1977  0.6878 -1.0766
14443SOL    HW245709   7.838  10.369   3.828  0.6288 -0.9878 -0.0532
14444SOL     OW45710   9.160   8.138   7.313  0.1225 -0.2458 -0.0521
14444SOL    HW145711   9.106   8.213   7.289  1.0428  0.4307 -0.0699
14444SOL    HW245712   9.181   8.152   7.405 -1.8693 -1.8781  0.7212
14445SOL     OW45713   9.592   5.535   0.455 -0.3668 -0.2524 -0.3606
14445SOL    HW145714   9.559   5.539   0.545  0.7529  0.2637  0.0440
14445SOL    HW245715   9.518   5.502   0.404 -0.8620 -1.0265  0.8211
14446SOL     OW45716   7.750  10.485   6.002  0.4502 -0.1895 -0.0525
14446SOL    HW145717   7.832  10.458   6.044  0.6914 -0.8292 -0.9234
14446SOL    HW245718   7.767  10.479   5.908 -0.3879  0.3076 -0.2483
14447SOL     OW45719   2.248   4.071   7.514 -0.7235  0.7320 -0.0882
14447SOL    HW145720   2.267   3.993   7.566 -0.4642  0.5842 -0.4019
14447SOL    HW245721   2.240   4.039   7.424  0.2650  1.1837 -0.3532
14448SOL     OW45722   6.734   4.102   0.416  0.2411  0.3521  0.0555
14448SOL    HW145723   6.786   4.181   0.433  0.0642  0.4060  0.3479
14448SOL    HW245724   6.681   4.124   0.339 -0.6763  0.9449  0.8370
14449SOL     OW45725   1.914   9.220   5.237 -0.5353  0.0174  0.1201
14449SOL    HW145726   1.942   9.168   5.162  3.3141  2.3338 -0.3744
14449SOL    HW245727   1.858   9.288   5.200 -1.7035 -0.9947  0.0004
14450SOL     OW45728   5.949   8.112   3.396 -0.1506  0.5158  0.2211
14450SOL    HW145729   5.889   8.107   3.321  1.5493  1.2654 -1.2459
14450SOL    HW245730   6.000   8.191   3.380  1.5760 -0.3630  1.1414
14451SOL     OW45731   6.860   4.652   6.207  0.0350 -0.3646  0.2806
14451SOL    HW145732   6.792   4.695   6.156  0.8041 -1.3842 -1.7192
14451SOL    HW245733   6.891   4.719   6.268 -1.0137  0.8750 -0.5002
14452SOL     OW45734   3.947   1.749   5.560  0.1428 -0.3854  0.3761
14452SOL    HW145735   3.888   1.820   5.534 -0.7719 -1.3466 -0.2360
14452SOL    HW245736   3.913   1.672   5.516  0.6884 -1.3695  1.6134
14453SOL     OW45737   4.276   7.404   2.060 -0.7263  0.1336 -0.5213
14453SOL    HW145738   4.260   7.310   2.050  0.0544 -0.1370  0.6994
14453SOL    HW245739   4.258   7.440   1.973 -2.6951 -0.8886 -0.6027
14454SOL     OW45740  10.040   7.536   6.997 -0.0819  0.1110 -0.4852
14454SOL    HW145741  10.067   7.626   7.011 -1.4068  0.3967  0.4974
14454SOL    HW245742  10.121   7.486   6.994  0.6193  1.1771  0.1853
14455SOL     OW45743   2.326   9.179   9.662 -0.0045  0.2655 -0.2047
14455SOL    HW145744   2.372   9.179   9.746  0.6198  1.0582 -0.5281
14455SOL    HW245745   2.276   9.260   9.662  0.6390  0.6811 -0.9180
14456SOL     OW45746   8.737   9.832   7.444  0.1756  0.5905 -0.3219
14456SOL    HW145747   8.801   9.762   7.456  0.6906  1.3636  1.8179
14456SOL    HW245748   8.680   9.826   7.520  0.8031  3.0526  0.4194
14457SOL     OW45749   1.877   4.555   1.629  0.4708 -0.5705 -0.4989
14457SOL    HW145750   1.929   4.527   1.554  0.0016  0.5931 -1.2919
14457SOL    HW245751   1.793   4.581   1.592  0.2024 -0.0311  0.4413
14458SOL     OW45752   7.171   8.968  10.010 -0.0533  0.0280 -0.1136
14458SOL    HW145753   7.238   9.028   9.976 -0.5624  0.8135  0.2386
14458SOL    HW245754   7.094   8.984   9.955 -0.4421  0.2878  0.4937
14459SOL     OW45755   8.363   2.475   2.148  0.9353 -0.0571 -0.6214
14459SOL    HW145756   8.421   2.441   2.216 -0.7645 -1.0739  0.3695
14459SOL    HW245757   8.387   2.567   2.140  0.1543  0.5085  2.5064
14460SOL     OW45758   4.601   6.921   4.755  0.0543  0.4404 -0.9514
14460SOL    HW145759   4.593   6.848   4.816 -0.2092  0.3145 -1.1386
14460SOL    HW245760   4.694   6.923   4.733 -0.0507 -0.2702 -1.4824
14461SOL     OW45761   1.372   7.152   9.918 -0.0520 -0.4343  0.2940
14461SOL    HW145762   1.413   7.101   9.988 -2.0050 -1.6022  0.6598
14461SOL    HW245763   1.366   7.241   9.953  0.2288 -0.7092  1.0559
14462SOL     OW45764   6.049   0.282   7.223  0.5948 -0.3550 -0.5034
14462SOL    HW145765   6.059   0.322   7.137  1.0228  0.4753 -0.0776
14462SOL    HW245766   5.971   0.323   7.260 -0.1987 -1.4675 -0.8910
14463SOL     OW45767   3.543  10.233   3.350 -0.4529  0.0276 -0.3794
14463SOL    HW145768   3.593  10.178   3.290 -0.9294 -0.3751 -0.4182
14463SOL    HW245769   3.571  10.322   3.330 -0.2688 -0.1384 -0.8818
14464SOL     OW45770   5.307   7.499   1.638 -0.8049 -0.2972  0.9932
14464SOL    HW145771   5.268   7.518   1.552  2.4162  1.1152 -0.3406
14464SOL    HW245772   5.317   7.403   1.639  0.4642 -0.2624 -0.9955
14465SOL     OW45773   7.456   4.667   8.155 -0.7699  0.4768 -0.2167
14465SOL    HW145774   7.548   4.639   8.157 -0.4043  1.5358  2.5032
14465SOL    HW245775   7.408   4.590   8.126  1.0524  0.4402 -3.6232
14466SOL     OW45776   6.942  10.751   3.227 -0.0114 -0.1433 -0.8500
14466SOL    HW145777   6.905  10.663   3.221 -1.2188  0.2777 -0.0332
14466SOL    HW245778   6.867  10.809   3.222  0.7503  0.8487 -1.1641
14467SOL     OW45779   8.379   2.746   8.436 -0.1693  0.1963  0.7844
14467SOL    HW145780   8.347   2.820   8.488  1.0225  0.0511  1.7667
14467SOL    HW245781   8.473   2.743   8.453  0.1195 -0.4150 -0.7103
14468SOL     OW45782   5.533   8.816  10.522 -0.2252  0.9115  0.9909
14468SOL    HW145783   5.497   8.847  10.439  1.1679 -0.0295  0.0023
14468SOL    HW245784   5.457   8.786  10.572 -0.8378 -1.9024 -1.3804
14469SOL     OW45785   1.170   0.179   1.619 -0.7266 -0.2188  0.3051
14469SOL    HW145786   1.165   0.084   1.611  1.2495 -0.5198  1.7781
14469SOL    HW245787   1.231   0.205   1.550  3.3045 -0.8444  3.2618
14470SOL     OW45788   4.511   4.201   5.901  0.1728  0.1281  0.2070
14470SOL    HW145789   4.561   4.244   5.970 -0.8050 -0.0288  1.0260
14470SOL    HW245790   4.512   4.108   5.925  0.3921 -0.0276 -0.3649
14471SOL     OW45791   8.233   9.658   0.097  0.1675 -0.7771 -0.5493
14471SOL    HW145792   8.208   9.598   0.026 -2.2134  0.2361 -0.6716
14471SOL    HW245793   8.149   9.692   0.129  1.3471  0.8493  0.9391
14472SOL     OW45794   5.100   0.324   5.977  0.0617  0.2521  1.0048
14472SOL    HW145795   5.186   0.365   5.979  0.4854 -0.6307  2.2529
14472SOL    HW245796   5.055   0.359   6.054 -1.1275  1.5288 -0.2108
14473SOL     OW45797   4.773   1.722   2.503  0.1556 -0.6769 -0.0744
14473SOL    HW145798   4.803   1.637   2.536  1.6710  0.0373  0.4893
14473SOL    HW245799   4.736   1.703   2.417  1.3816 -1.7918 -0.3961
14474SOL     OW45800   0.719   2.087   1.683 -0.0811  0.0918  0.1778
14474SOL    HW145801   0.731   2.171   1.640 -2.6697  0.8174  0.6854
14474SOL    HW245802   0.793   2.034   1.654  0.4536  1.8364 -1.8896
14475SOL     OW45803   9.300   0.518   7.018 -0.1598  0.0369 -0.0695
14475SOL    HW145804   9.361   0.487   7.086  0.4693  1.4815  0.0771
14475SOL    HW245805   9.244   0.443   7.000  0.9213 -0.9902  0.6394
14476SOL     OW45806   6.575   0.230   5.234 -0.0937  0.0872  0.2385
14476SOL    HW145807   6.546   0.143   5.209  2.2014 -0.4391 -0.8942
14476SOL    HW245808   6.561   0.283   5.155  0.9563  0.0716  0.0291
14477SOL     OW45809   1.964   8.745   8.260  0.6178 -0.0434  0.1794
14477SOL    HW145810   1.933   8.718   8.174  1.7646  1.7866 -0.8758
14477SOL    HW245811   2.056   8.719   8.262  0.2650 -1.3424  1.4633
14478SOL     OW45812   6.768   4.133   2.497  0.4578  0.7324 -0.3799
14478SOL    HW145813   6.821   4.180   2.433  0.1791 -0.3331 -1.4455
14478SOL    HW245814   6.780   4.041   2.475  1.0106  0.2588  1.6538
14479SOL     OW45815   3.458   5.510   4.798 -0.3941 -0.0189  0.6648
14479SOL    HW145816   3.461   5.448   4.871 -1.2062 -1.2608 -0.3166
14479SOL    HW245817   3.374   5.556   4.809 -0.3762  0.0103  0.6804
14480SOL     OW45818   1.350  10.668   6.035  0.4008 -0.1838  0.1494
14480SOL    HW145819   1.433  10.659   5.986  0.1993 -0.0193 -0.2283
14480SOL    HW245820   1.325  10.759   6.021  0.0347 -0.2977  0.0694
14481SOL     OW45821   1.557   9.505   9.325 -0.0461 -0.0073  0.2217
14481SOL    HW145822   1.520   9.564   9.260 -0.3353 -0.1223  0.2802
14481SOL    HW245823   1.585   9.429   9.275  0.7589  0.3691  0.0793
14482SOL     OW45824   2.700   7.621   9.029 -0.3632 -1.3272  0.9655
14482SOL    HW145825   2.643   7.679   9.079  1.0200 -0.2171  1.3305
14482SOL    HW245826   2.786   7.630   9.071  0.8182 -0.5078 -1.4391
14483SOL     OW45827  10.800   3.579   1.524 -0.3109  0.4279  0.1622
14483SOL    HW145828  10.781   3.613   1.611 -0.2465  0.1532  0.2841
14483SOL    HW245829  10.882   3.531   1.534 -0.1208  0.6895 -0.1252
14484SOL     OW45830   6.142   1.178   8.870  0.1862 -0.0204  0.1461
14484SOL    HW145831   6.215   1.120   8.850  1.4622  1.1718  1.2025
14484SOL    HW245832   6.104   1.143   8.951  1.5857  1.1405  1.3466
14485SOL     OW45833   9.275   8.119   8.128 -0.0099  0.3217 -0.0194
14485SOL    HW145834   9.262   8.205   8.169 -0.3602 -0.5627  1.8070
14485SOL    HW245835   9.217   8.061   8.176  0.4567 -1.0122 -1.0260
14486SOL     OW45836  10.792   8.066   0.388  0.5406 -0.2467 -0.1395
14486SOL    HW145837  10.751   8.116   0.317  0.8424  0.6041  0.2871
14486SOL    HW245838  10.874   8.034   0.351  1.4795  1.5472  0.3086
14487SOL     OW45839   6.763   2.591   0.839  0.0014 -0.0936  0.2452
14487SOL    HW145840   6.730   2.548   0.760  0.8345  0.8079 -0.6239
14487SOL    HW245841   6.733   2.535   0.911  1.4512 -2.4084 -0.8306
14488SOL     OW45842   8.288   1.024   4.392 -0.0535 -0.1582 -0.2126
14488SOL    HW145843   8.287   1.077   4.472 -0.4348 -1.1100  0.4378
14488SOL    HW245844   8.344   0.950   4.413 -0.8547 -0.8700 -0.5067
14489SOL     OW45845   8.173   5.082   3.708  0.1042  0.3631  0.7424
14489SOL    HW145846   8.158   5.161   3.656 -0.3640 -1.2251 -1.6729
14489SOL    HW245847   8.089   5.036   3.707  0.9104 -1.1493  0.3594
14490SOL     OW45848   8.469   3.934   3.493 -0.2463  0.1963 -0.2228
14490SOL    HW145849   8.412   3.897   3.561  1.7399 -0.8553  0.9568
14490SOL    HW245850   8.530   3.990   3.541 -1.0282  2.4009 -1.6153
14491SOL     OW45851   2.653   5.239   1.292 -0.5685 -0.7662  0.1441
14491SOL    HW145852   2.737   5.285   1.292 -0.1408 -1.5388  0.5066
14491SOL    HW245853   2.656   5.183   1.369 -0.4681 -2.5113 -1.0640
14492SOL     OW45854   4.251   2.671   3.220  0.7468  0.1553 -0.5627
14492SOL    HW145855   4.170   2.623   3.203  0.4534  0.8597 -1.2323
14492SOL    HW245856   4.258   2.733   3.147  0.3213  2.1528  0.9892
14493SOL     OW45857   1.984   8.315  10.162  0.0258 -0.1475 -0.5231
14493SOL    HW145858   1.962   8.272  10.080 -0.0207 -1.4748  0.1450
14493SOL    HW245859   1.910   8.372  10.180  0.0393  0.1589 -1.3970
14494SOL     OW45860   6.825   8.188   1.737 -0.5751 -0.2211 -0.3282
14494SOL    HW145861   6.786   8.182   1.650 -1.3213  0.8869 -0.1001
14494SOL    HW245862   6.751   8.174   1.797 -0.5851  1.5130  0.1167
14495SOL     OW45863  10.169   1.455   2.021 -0.2933 -0.3390  0.0724
14495SOL    HW145864  10.225   1.504   1.961 -0.5657  0.2980  0.3319
14495SOL    HW245865  10.214   1.371   2.033  1.0443  0.4538  0.9221
14496SOL     OW45866   6.229   6.685   7.172 -0.1028  0.4912 -0.3532
14496SOL    HW145867   6.265   6.635   7.245 -0.6467 -0.2203 -0.5601
14496SOL    HW245868   6.306   6.722   7.129  0.1832  1.7840  1.1574
14497SOL     OW45869   8.336   0.504  10.057  0.1640  0.1773 -0.7331
14497SOL    HW145870   8.292   0.497  10.142  0.1166 -0.7935 -0.8296
14497SOL    HW245871   8.310   0.590  10.025  0.5167  0.7388  0.4130
14498SOL     OW45872   2.804   3.085   1.760 -0.4952  0.1843 -0.4363
14498SOL    HW145873   2.766   3.010   1.715  1.9231  0.0792 -2.5175
14498SOL    HW245874   2.747   3.099   1.835 -3.7089 -0.8358 -2.4746
14499SOL     OW45875  10.423   5.456   8.445  0.2835  1.0328 -0.5081
14499SOL    HW145876  10.352   5.438   8.507  1.0981  1.5210  0.6117
14499SOL    HW245877  10.452   5.370   8.416  0.7564  0.6968  0.8402
14500SOL     OW45878   0.462   8.277  10.649 -0.1414 -0.0725  0.5272
14500SOL    HW145879   0.480   8.320  10.733  1.0367 -1.1768  0.8627
14500SOL    HW245880   0.525   8.316  10.588 -0.2305 -0.1002  0.4163
14501SOL     OW45881   3.846   3.997   7.524 -0.1782  0.2374  0.1079
14501SOL    HW145882   3.761   3.979   7.564 -0.8727  0.7348 -1.1033
14501SOL    HW245883   3.908   3.991   7.596 -1.1438 -0.8656  0.8826
14502SOL     OW45884   2.607   5.143   0.982 -0.1629  0.4722 -0.1837
14502SOL    HW145885   2.672   5.213   0.983 -0.9836  1.3046  2.0595
14502SOL    HW245886   2.524   5.187   0.963 -0.4798 -0.1238 -0.2065
14503SOL     OW45887   0.573   5.404   7.050  0.3669  0.1226 -0.3668
14503SOL    HW145888   0.621   5.333   7.007  0.3779 -0.0782 -0.0220
14503SOL    HW245889   0.596   5.396   7.143  0.1858  0.4345 -0.2944
14504SOL     OW45890   4.583   6.971   5.506 -0.1460 -0.4867 -0.1403
14504SOL    HW145891   4.508   7.015   5.546  0.4943  2.4175 -1.8352
14504SOL    HW245892   4.659   7.008   5.551  0.4912  1.6498 -2.7418
14505SOL     OW45893   2.702   4.586   2.069 -0.0176  0.1400 -0.3575
14505SOL    HW145894   2.781   4.538   2.097 -1.8419 -2.0885  1.4510
14505SOL    HW245895   2.658   4.608   2.152 -0.6427  2.6204 -1.2718
14506SOL     OW45896   7.403   9.593   7.647  0.1273  0.1821 -0.2544
14506SOL    HW145897   7.374   9.510   7.686 -1.2709 -0.0166 -1.6101
14506SOL    HW245898   7.345   9.659   7.685 -0.8969  0.0574 -1.5231
14507SOL     OW45899  10.441   6.384   2.452 -0.2660  0.3047 -0.1085
14507SOL    HW145900  10.440   6.446   2.379 -2.2300 -0.6125 -0.9324
14507SOL    HW245901  10.515   6.326   2.434 -0.7233  0.0999 -1.3780
14508SOL     OW45902   9.988  10.650   1.075  0.0152 -0.2081 -0.4377
14508SOL    HW145903  10.002  10.593   1.150 -0.9218 -1.5753 -1.2635
14508SOL    HW245904   9.910  10.700   1.097  0.3551  0.1696 -0.0674
14509SOL     OW45905   1.113   4.399   8.547 -0.2791 -0.4670 -0.1680
14509SOL    HW145906   1.098   4.437   8.460  1.5433 -1.8460 -1.1561
14509SOL    HW245907   1.097   4.471   8.608 -2.2645  0.3709 -1.5578
14510SOL     OW45908   2.606   3.245   7.830  0.4903  0.2095 -0.0023
14510SOL    HW145909   2.601   3.251   7.734 -1.5390  1.1398  0.0898
14510SOL    HW245910   2.696   3.268   7.851  0.7218  0.9668 -1.6558
14511SOL     OW45911   0.288   7.105   8.351  0.2540 -0.4442 -0.3825
14511SOL    HW145912   0.303   7.198   8.336  0.1000 -0.2005  0.8242
14511SOL    HW245913   0.358   7.079   8.410 -0.4190 -0.7821  0.2855
14512SOL     OW45914   3.431   8.525   5.906 -0.1399 -0.0635 -0.3706
14512SOL    HW145915   3.473   8.609   5.892 -0.9121  0.4693  0.3646
14512SOL    HW245916   3.351   8.528   5.854  0.0403 -0.5189 -0.6838
14513SOL     OW45917   1.034   1.063   5.108  0.9303  0.3677  0.0854
14513SOL    HW145918   0.981   1.064   5.188  0.6538  1.1369 -0.0981
14513SOL    HW245919   1.055   0.970   5.094  0.6280  0.1828  0.8129
14514SOL     OW45920  10.074   5.465   0.354  0.3022  0.3452 -0.3761
14514SOL    HW145921  10.165   5.493   0.343  0.5384 -0.2106  0.1573
14514SOL    HW245922  10.026   5.518   0.291  1.0500  0.3339 -0.9732
14515SOL     OW45923   2.698   9.974   5.415  0.1379 -0.8207  0.0409
14515SOL    HW145924   2.773  10.007   5.367 -1.6339 -0.4558 -2.7038
14515SOL    HW245925   2.645  10.051   5.433 -0.4355 -1.2790  0.3619
14516SOL     OW45926   0.585   7.797   9.546  0.6472 -0.4157  0.1838
14516SOL    HW145927   0.554   7.791   9.456  1.1076 -0.2377  0.0107
14516SOL    HW245928   0.652   7.729   9.553  1.6000  0.4770 -0.0257
14517SOL     OW45929   4.379   6.315   5.884 -0.0449  0.8003  0.3305
14517SOL    HW145930   4.393   6.405   5.853  0.0655  0.4651 -0.6083
14517SOL    HW245931   4.456   6.267   5.855 -1.1164 -0.1020 -1.1431
14518SOL     OW45932   4.938   5.010   3.356  0.4440 -0.1000 -0.4997
14518SOL    HW145933   4.958   5.013   3.449 -0.6003  0.2341 -0.2739
14518SOL    HW245934   5.024   5.013   3.313  0.9116  3.2957  0.3863
14519SOL     OW45935   2.415   5.968   3.044 -0.3063  0.0395  0.8108
14519SOL    HW145936   2.441   6.001   2.958 -0.8020  2.3009  1.4548
14519SOL    HW245937   2.319   5.962   3.040 -0.2924 -0.3980  1.0325
14520SOL     OW45938   9.301   7.662   4.387 -0.3477  0.1516  0.4140
14520SOL    HW145939   9.264   7.665   4.299  1.4837  1.6754 -0.3919
14520SOL    HW245940   9.344   7.747   4.398  0.6647 -0.5320  2.2316
14521SOL     OW45941   2.546   9.930  10.499  0.4273  0.2481  0.3137
14521SOL    HW145942   2.621   9.888  10.541  1.3257  0.5260 -0.9387
14521SOL    HW245943   2.490   9.959  10.571  1.4636 -0.0734  1.2664
14522SOL     OW45944   0.907   2.836   9.093  0.5632  0.0956 -0.3523
14522SOL    HW145945   0.951   2.914   9.127 -1.0814  1.4297 -1.1562
14522SOL    HW245946   0.882   2.787   9.171 -1.2402  2.0257  0.3536
14523SOL     OW45947   7.705   3.160   7.238  0.5416 -1.2243  0.7690
14523SOL    HW145948   7.688   3.118   7.153 -0.8924  1.7579 -0.5847
14523SOL    HW245949   7.620   3.161   7.281  0.5978 -0.0071  0.8698
14524SOL     OW45950   5.628   4.261   2.799  0.5878  0.1889 -0.1205
14524SOL    HW145951   5.563   4.331   2.796  0.6841  0.3177  0.5694
14524SOL    HW245952   5.587   4.193   2.853  1.6090  0.9090  1.6301
14525SOL     OW45953   7.953   0.728   1.448  0.3295 -0.0383 -0.3187
14525SOL    HW145954   7.937   0.687   1.364  0.1752 -0.0448 -0.2871
14525SOL    HW245955   7.877   0.783   1.463  0.3221 -0.0907 -0.1515
14526SOL     OW45956   0.248   7.443   5.553 -0.1167  0.4106  0.2465
14526SOL    HW145957   0.201   7.399   5.482 -0.9516 -0.4593  1.3224
14526SOL    HW245958   0.332   7.467   5.513 -1.2519  1.5904 -1.5665
14527SOL     OW45959   8.223   1.556   3.416  0.2351  0.1256 -0.4123
14527SOL    HW145960   8.157   1.542   3.348 -0.8032 -0.3988  0.6596
14527SOL    HW245961   8.257   1.469   3.435  0.0280  0.1698  0.1999
14528SOL     OW45962   2.837   2.236   2.104  0.1362 -0.3898 -0.1296
14528SOL    HW145963   2.874   2.298   2.167 -1.3024  1.1080 -0.6971
14528SOL    HW245964   2.871   2.151   2.131  3.4167  0.7633 -0.1902
14529SOL     OW45965   8.580   9.916   8.298 -0.1083 -0.3500 -0.9374
14529SOL    HW145966   8.554   9.917   8.390  1.4675 -0.8560 -0.4547
14529SOL    HW245967   8.502   9.885   8.251 -0.4275 -1.6630  0.3907
14530SOL     OW45968   8.889   5.366   1.974  0.4409 -0.4866  0.4578
14530SOL    HW145969   8.944   5.296   2.008  0.5292 -0.5925  0.1034
14530SOL    HW245970   8.914   5.373   1.882  0.8796  0.4350  0.6426
14531SOL     OW45971   5.690   6.404   7.074  0.4139 -0.2288 -0.2459
14531SOL    HW145972   5.775   6.370   7.104  0.5640  1.3078  1.2382
14531SOL    HW245973   5.626   6.338   7.101  0.6501  0.6671  2.8242
14532SOL     OW45974   0.667   8.874   2.360  0.3661 -0.1412  0.2001
14532SOL    HW145975   0.608   8.944   2.333  1.5735  1.1996  0.8713
14532SOL    HW245976   0.726   8.861   2.286  0.5814  0.0428  0.3396
14533SOL     OW45977   7.112   8.352   9.140 -0.2493 -0.1388 -0.4504
14533SOL    HW145978   7.026   8.344   9.099 -0.2424  0.7057 -0.6477
14533SOL    HW245979   7.173   8.334   9.069 -0.2361  1.3954 -0.8674
14534SOL     OW45980   9.316   7.753   7.960 -0.0339 -0.2456  0.1325
14534SOL    HW145981   9.365   7.701   7.896 -0.5508 -0.9431  0.2925
14534SOL    HW245982   9.294   7.691   8.029 -1.8474 -0.1502 -0.3158
14535SOL     OW45983   9.822   8.515   6.238  0.1355 -0.5707  0.1071
14535SOL    HW145984   9.872   8.525   6.318 -1.0441  0.1872  0.7912
14535SOL    HW245985   9.759   8.446   6.257 -0.0452 -0.4980 -0.2171
14536SOL     OW45986  10.161   6.775   2.961  0.2615  0.3801  0.8514
14536SOL    HW145987  10.196   6.707   3.019  1.2544 -0.1102 -0.2744
14536SOL    HW245988  10.087   6.733   2.917  2.0986 -0.7469 -1.3523
14537SOL     OW45989   1.251   4.116   1.233 -0.4080 -0.3788 -0.0667
14537SOL    HW145990   1.257   4.114   1.328  1.5090 -0.3877 -0.1343
14537SOL    HW245991   1.308   4.044   1.204 -1.4529 -0.7764 -1.2155
14538SOL     OW45992   3.047   8.438   7.872  0.1518  0.1270 -0.3157
14538SOL    HW145993   3.038   8.487   7.790  1.9965  0.2356 -0.4832
14538SOL    HW245994   2.995   8.359   7.859  0.2097  0.2720 -1.4937
14539SOL     OW45995   6.315   5.436   8.651  0.3295 -0.1385  0.2271
14539SOL    HW145996   6.315   5.395   8.737 -0.6994 -3.3224 -1.1411
14539SOL    HW245997   6.248   5.505   8.658  2.1047  1.5250  2.6168
14540SOL     OW45998   3.515  10.633   8.870  0.3010  0.6152  0.0004
14540SOL    HW145999   3.563  10.610   8.790 -0.5356 -1.2252 -0.0311
14540SOL    HW246000   3.451  10.698   8.841 -0.1947 -0.2413 -0.9509
14541SOL     OW46001   9.743   2.955   0.094  0.4823 -0.3433 -0.0730
14541SOL    HW146002   9.676   2.953   0.163  0.9873  3.2245  0.7180
14541SOL    HW246003   9.734   3.041   0.054  0.1113 -2.2568 -4.7632
14542SOL     OW46004   6.394   4.148   1.562 -0.3530  0.8659 -0.0215
14542SOL    HW146005   6.334   4.211   1.601 -0.5397  0.4623  0.3606
14542SOL    HW246006   6.344   4.107   1.492 -0.8866 -0.1683  0.9232
14543SOL     OW46007   1.430  10.710   9.795  0.1101  0.3796 -0.0688
14543SOL    HW146008   1.335  10.717   9.783  0.2590 -1.2367 -3.3753
14543SOL    HW246009   1.464  10.696   9.706  2.9826 -3.2180  1.3416
14544SOL     OW46010   6.007   4.721   1.700  0.0946  0.2332  0.0623
14544SOL    HW146011   5.980   4.631   1.681 -0.1614  0.0346  1.3138
14544SOL    HW246012   6.054   4.715   1.783  0.1967  1.2422  0.0888
14545SOL     OW46013   9.425   8.633   2.820 -0.0517 -0.2022 -1.1111
14545SOL    HW146014   9.423   8.542   2.791 -2.4798 -0.9842  1.1944
14545SOL    HW246015   9.347   8.673   2.782 -0.0620  0.3699 -0.5127
14546SOL     OW46016   1.838   1.122   2.711 -0.7804  0.5899  0.1297
14546SOL    HW146017   1.817   1.194   2.651 -1.8960 -1.2657 -1.8626
14546SOL    HW246018   1.796   1.045   2.672  1.0072 -1.3314  1.7041
14547SOL     OW46019   8.419   2.441   8.104 -0.0028  0.2420  0.1301
14547SOL    HW146020   8.362   2.461   8.178 -0.0702 -0.0652  0.1630
14547SOL    HW246021   8.396   2.507   8.038 -0.2037  0.2894  0.2454
14548SOL     OW46022   2.355   1.076   0.154  0.2598 -0.2017  0.3704
14548SOL    HW146023   2.317   1.088   0.066 -1.8842  0.3353  1.3114
14548SOL    HW246024   2.376   1.165   0.183  0.4227 -0.3242  0.6304
14549SOL     OW46025   0.866   6.053   7.949 -0.6389 -0.1804 -0.2778
14549SOL    HW146026   0.881   6.072   7.856 -0.0818  2.0823  0.2174
14549SOL    HW246027   0.817   6.129   7.982  0.5741 -0.1345  1.6111
14550SOL     OW46028   1.129   6.663   7.148  0.4100 -0.2473  0.3157
14550SOL    HW146029   1.117   6.758   7.138 -1.5362 -0.3160  1.4299
14550SOL    HW246030   1.114   6.647   7.242 -1.4491 -1.9078 -0.2091
14551SOL     OW46031   6.644   5.844   0.389  0.5379  0.1834  0.2615
14551SOL    HW146032   6.705   5.812   0.322  0.6111 -0.4048  0.5986
14551SOL    HW246033   6.595   5.914   0.346  1.4814  0.6967 -0.0039
14552SOL     OW46034   7.562   6.175   6.082 -0.1953  0.2348  0.4396
14552SOL    HW146035   7.534   6.257   6.042 -2.0902  0.8353  2.7057
14552SOL    HW246036   7.524   6.107   6.027 -0.8880  0.9620  0.0034
14553SOL     OW46037   1.545   7.851   8.310  0.3514 -0.1834  0.3848
14553SOL    HW146038   1.601   7.868   8.234 -0.3182 -0.1496 -0.1079
14553SOL    HW246039   1.546   7.756   8.319 -0.4485 -0.2704 -0.3485
14554SOL     OW46040   8.532   8.869   7.545  0.2402  0.4776  0.4935
14554SOL    HW146041   8.552   8.844   7.455  1.3941 -1.9247  1.3341
14554SOL    HW246042   8.446   8.910   7.540 -0.9952 -2.0606 -1.3624
14555SOL     OW46043   7.970   5.813   1.832  0.2973 -0.0309  0.2296
14555SOL    HW146044   7.989   5.903   1.805 -2.1184  0.2637 -0.6893
14555SOL    HW246045   7.984   5.761   1.754  0.8294 -0.3414  0.5254
14556SOL     OW46046   5.525   3.244   5.332  0.3545  0.1710  0.5276
14556SOL    HW146047   5.584   3.183   5.287  1.0282  1.9475 -1.1317
14556SOL    HW246048   5.444   3.242   5.281  0.4983  0.9063  0.2650
14557SOL     OW46049   0.346   0.308   2.640 -0.6316  0.0521 -0.4717
14557SOL    HW146050   0.436   0.325   2.667 -0.1801 -0.4605 -1.5775
14557SOL    HW246051   0.307   0.394   2.626 -0.3405  0.2758  0.0967
14558SOL     OW46052   1.304   3.887   0.551  0.1260  0.1852  0.8442
14558SOL    HW146053   1.351   3.961   0.590 -1.1745  0.9271  1.0354
14558SOL    HW246054   1.221   3.882   0.598  0.6809 -2.2371  1.7194
14559SOL     OW46055   7.783   8.312   2.796  0.7838  0.2384 -0.9084
14559SOL    HW146056   7.801   8.248   2.864  2.5660  1.2870 -0.3369
14559SOL    HW246057   7.713   8.272   2.743  0.6320 -1.3739  0.4426
14560SOL     OW46058   6.577   8.245   7.926 -0.0652 -0.4034 -0.3653
14560SOL    HW146059   6.610   8.290   7.849  1.4366  2.0676  1.5835
14560SOL    HW246060   6.623   8.161   7.926  0.0834 -0.3560 -1.9736
14561SOL     OW46061   3.117   3.234   5.432 -0.1718  0.4289  0.0608
14561SOL    HW146062   3.204   3.273   5.438  0.2110 -0.2605 -0.9002
14561SOL    HW246063   3.098   3.231   5.339 -1.5170  1.1710  0.2836
14562SOL     OW46064   8.245  10.037   0.039  0.3619  0.9530 -0.7585
14562SOL    HW146065   8.248   9.946   0.070 -0.9260  0.8962 -0.7413
14562SOL    HW246066   8.221  10.029  -0.054 -1.7966  1.3024 -0.2931
14563SOL     OW46067   7.830   2.178   6.498  0.3590  0.4343  0.0115
14563SOL    HW146068   7.814   2.157   6.406 -0.0562 -3.6260  0.8275
14563SOL    HW246069   7.914   2.223   6.498 -0.4793  2.2918 -2.4055
14564SOL     OW46070   2.503   2.260   4.793 -0.1779  0.2078  0.0266
14564SOL    HW146071   2.477   2.204   4.720 -2.3922 -1.2348  1.7881
14564SOL    HW246072   2.430   2.256   4.854  0.6175  3.1650  1.3609
14565SOL     OW46073   2.581   5.965   7.798 -0.0528 -0.1547 -0.1705
14565SOL    HW146074   2.664   5.992   7.759 -0.6044 -1.6019 -2.5779
14565SOL    HW246075   2.592   5.871   7.815 -0.2556  0.1961  2.2205
14566SOL     OW46076   4.827  10.120  10.661 -0.2846 -0.5636 -0.1711
14566SOL    HW146077   4.837  10.110  10.567  0.6199  0.7755 -0.2499
14566SOL    HW246078   4.736  10.144  10.674 -0.0809  0.6288 -0.8594
14567SOL     OW46079   9.239   5.464   9.677 -0.0605 -0.1241  0.6487
14567SOL    HW146080   9.247   5.530   9.745  0.9515 -0.1841  0.6096
14567SOL    HW246081   9.257   5.381   9.721 -1.2307 -0.3755  0.6783
14568SOL     OW46082  10.367  10.481   7.480 -0.5301 -0.5143  0.0412
14568SOL    HW146083  10.322  10.478   7.564 -1.8559 -2.5757 -0.6757
14568SOL    HW246084  10.315  10.541   7.427 -2.0051 -2.2013 -0.4961
14569SOL     OW46085   7.933   9.264   0.564 -0.2226 -0.2978  0.4440
14569SOL    HW146086   8.015   9.216   0.551  0.0771  0.4729 -0.6939
14569SOL    HW246087   7.893   9.223   0.641  1.4929 -0.3357  1.3741
14570SOL     OW46088   2.561   8.132   5.022  0.1506 -0.1627  0.2107
14570SOL    HW146089   2.499   8.099   5.087  1.1739  0.0043  1.3059
14570SOL    HW246090   2.616   8.057   5.000 -0.6881 -0.4282 -1.0985
14571SOL     OW46091   8.300   1.760   9.005 -0.0185  0.6696 -0.3174
14571SOL    HW146092   8.363   1.688   9.004 -1.6644 -0.8439  0.3919
14571SOL    HW246093   8.254   1.753   8.921  0.6589  1.7029 -0.7904
14572SOL     OW46094   8.516   4.601   3.321  0.4096 -0.4376  0.0090
14572SOL    HW146095   8.477   4.585   3.236  0.8491 -1.1354 -0.0696
14572SOL    HW246096   8.500   4.694   3.338 -2.5634 -0.9778  0.6593
14573SOL     OW46097   7.138   8.278   5.096  0.5661  0.9827 -0.0131
14573SOL    HW146098   7.228   8.308   5.079  1.1458 -0.9317 -0.6056
14573SOL    HW246099   7.097   8.276   5.009  0.2796  0.8880  0.1235
14574SOL     OW46100   3.389   0.327   0.987 -0.6231 -0.7436 -0.1266
14574SOL    HW146101   3.355   0.245   0.951 -1.0177 -0.3533 -0.6566
14574SOL    HW246102   3.365   0.394   0.922  0.3435 -0.3185 -0.0586
14575SOL     OW46103   9.876   9.284   3.112 -0.3915 -0.3846 -0.8361
14575SOL    HW146104   9.788   9.319   3.120  0.0677  0.5958  0.3003
14575SOL    HW246105   9.924   9.349   3.061  0.2314  0.2393  0.4988
14576SOL     OW46106   1.771   5.797   5.278  0.0118 -0.2282  0.5755
14576SOL    HW146107   1.864   5.813   5.264  0.4269 -1.1789  2.0742
14576SOL    HW246108   1.747   5.856   5.350 -0.5149 -0.1213  0.3227
14577SOL     OW46109   4.507   7.180   9.408 -0.4009 -0.4039 -0.2938
14577SOL    HW146110   4.458   7.261   9.400  0.6507  0.6649  2.6253
14577SOL    HW246111   4.471   7.139   9.487  1.3699 -1.0438  0.2178
14578SOL     OW46112   1.162   0.271   2.487  0.3603 -0.0935  0.4684
14578SOL    HW146113   1.171   0.263   2.581  0.9675 -1.1759  0.3372
14578SOL    HW246114   1.193   0.359   2.466  0.4969  0.0400  1.2336
14579SOL     OW46115   4.649   0.088   9.824 -0.4931  0.1872 -0.4242
14579SOL    HW146116   4.732   0.126   9.852 -0.8882 -0.7318  2.3197
14579SOL    HW246117   4.651   0.094   9.728  1.6095  2.4243 -0.3546
14580SOL     OW46118   4.053   4.511   9.904 -0.2282 -0.0935 -0.1028
14580SOL    HW146119   3.989   4.566   9.859  0.1598 -0.3850 -1.0218
14580SOL    HW246120   4.027   4.422   9.883  0.2303 -0.2213 -0.1374
14581SOL     OW46121   9.050   3.628   9.907  0.5687  0.1050 -0.0547
14581SOL    HW146122   8.954   3.629   9.900  0.3765  0.4003  1.9152
14581SOL    HW246123   9.075   3.540   9.882 -0.2992 -0.2102  0.1363
14582SOL     OW46124   7.162   6.664   5.834 -0.2026 -0.1782 -0.4589
14582SOL    HW146125   7.131   6.703   5.916 -1.1265  0.5082 -1.1190
14582SOL    HW246126   7.084   6.628   5.793 -0.2001  1.4844 -2.0957
14583SOL     OW46127   4.856   9.957   7.990  0.1694  0.2528 -0.2848
14583SOL    HW146128   4.840  10.018   7.918  0.2946  0.0257 -0.5061
14583SOL    HW246129   4.945   9.925   7.975  0.1520  0.1149 -0.0956
14584SOL     OW46130   6.232   1.581   5.395 -0.6674  0.1725 -0.0415
14584SOL    HW146131   6.220   1.492   5.361 -2.2055  0.1546  0.4774
14584SOL    HW246132   6.323   1.583   5.423 -0.8520 -1.5663  0.8351
14585SOL     OW46133   9.692   9.351   3.945  0.3951 -0.1870  0.4172
14585SOL    HW146134   9.708   9.347   3.851 -1.6999  0.0126  0.0078
14585SOL    HW246135   9.625   9.285   3.961 -1.3844  1.7163  1.2619
14586SOL     OW46136   0.391   0.771   9.335  0.3714 -0.4078 -0.2506
14586SOL    HW146137   0.408   0.846   9.392  1.2753  0.3030 -1.4292
14586SOL    HW246138   0.337   0.805   9.264  0.6250 -0.9074 -0.6947
14587SOL     OW46139   6.240   8.579   3.194  0.1905 -0.4093 -0.7801
14587SOL    HW146140   6.171   8.562   3.258  0.0885 -0.6570 -0.9563
14587SOL    HW246141   6.322   8.568   3.244  0.1129  1.3953 -0.1696
14588SOL     OW46142   3.221   6.599   9.816  0.0533  0.2024 -0.0661
14588SOL    HW146143   3.262   6.677   9.852 -0.8387  0.1023  1.2424
14588SOL    HW246144   3.283   6.528   9.835 -0.4113  0.1445  1.3782
14589SOL     OW46145  10.362   0.538   2.992 -0.6451 -0.2624  0.4078
14589SOL    HW146146  10.281   0.489   2.973 -2.0272  1.5763  1.2440
14589SOL    HW246147  10.341   0.629   2.969  1.1609  0.2955  0.8001
14590SOL     OW46148   8.735   3.630   8.042 -0.5275 -0.1979  0.3525
14590SOL    HW146149   8.791   3.566   7.996 -0.7490  0.3772 -0.7612
14590SOL    HW246150   8.748   3.611   8.134  1.4581 -0.1323  0.1348
14591SOL     OW46151   8.659   1.015   7.999  0.6476 -0.0112  0.2660
14591SOL    HW146152   8.621   0.927   7.990 -0.0355  0.2230  0.8088
14591SOL    HW246153   8.720   1.008   8.072  0.8783 -0.1187  0.0678
14592SOL     OW46154   7.541   1.185   5.992 -0.3054 -0.4669 -0.1746
14592SOL    HW146155   7.617   1.166   6.048  0.5734 -0.3826 -1.3106
14592SOL    HW246156   7.553   1.129   5.915 -1.4037 -0.4481 -0.3785
14593SOL     OW46157   7.089   8.289   2.109 -0.0979 -0.3457 -0.2103
14593SOL    HW146158   7.118   8.223   2.173  0.3729 -1.0752 -1.1535
14593SOL    HW246159   7.144   8.365   2.127  0.6748 -0.8622 -0.3390
14594SOL     OW46160   0.787   0.062   8.064  0.2860 -0.0467 -0.0939
14594SOL    HW146161   0.781  -0.034   8.062 -1.3881  0.0405 -1.9229
14594SOL    HW246162   0.697   0.092   8.051  0.8801  1.7885 -0.2489
14595SOL     OW46163   4.320   1.549   3.851  0.3510 -0.1459 -0.1078
14595SOL    HW146164   4.370   1.593   3.782 -0.3862  0.2335 -0.4067
14595SOL    HW246165   4.235   1.530   3.811 -0.1079  0.1327  0.7141
14596SOL     OW46166   5.563   5.355   4.527 -0.1351  0.7772  0.4628
14596SOL    HW146167   5.616   5.281   4.557  0.0898  1.4784  1.8866
14596SOL    HW246168   5.538   5.401   4.608  0.1948  2.5698 -0.4140
14597SOL     OW46169   5.289   0.059   6.416  0.2620 -0.5319  0.1964
14597SOL    HW146170   5.203   0.102   6.417 -0.5162 -2.0229  0.4460
14597SOL    HW246171   5.275  -0.019   6.363  0.4393 -2.7530  3.1847
14598SOL     OW46172   0.505   8.676   3.029 -0.1846  0.3652  0.0394
14598SOL    HW146173   0.467   8.732   3.097 -0.3715  0.2389  0.0394
14598SOL    HW246174   0.507   8.731   2.951  1.0886  0.8895  0.4151
14599SOL     OW46175   3.303   5.181   5.919  0.4442 -0.3095 -0.5044
14599SOL    HW146176   3.277   5.111   5.859 -0.5422  0.3939 -0.9408
14599SOL    HW246177   3.229   5.190   5.979  1.0655 -0.4301  0.2989
14600SOL     OW46178   6.095   1.755   5.237  0.2222 -0.0050  0.0013
14600SOL    HW146179   6.175   1.715   5.273  0.6820 -2.3462 -3.1110
14600SOL    HW246180   6.040   1.680   5.213 -1.7865  1.4888 -0.2751
14601SOL     OW46181   7.691   1.464   3.347 -0.8540  0.1716 -0.3970
14601SOL    HW146182   7.637   1.386   3.359 -1.6550  1.1404  3.7363
14601SOL    HW246183   7.769   1.447   3.400 -1.7539  2.6049  1.9496
14602SOL     OW46184   4.991   8.241   0.259 -0.0624 -0.1734 -0.3004
14602SOL    HW146185   5.068   8.254   0.315  0.8892  1.2947 -1.8525
14602SOL    HW246186   5.022   8.183   0.189 -0.9870 -1.2544  0.1506
14603SOL     OW46187   4.196   8.177   8.657  0.3884 -0.3386  0.0974
14603SOL    HW146188   4.142   8.227   8.717 -1.0796  0.5083 -1.8137
14603SOL    HW246189   4.285   8.185   8.692 -0.3180  0.5521  1.8121
14604SOL     OW46190   5.697   3.142   8.067  0.6752 -0.1593  0.3526
14604SOL    HW146191   5.751   3.072   8.103 -0.6017 -1.3192  0.0703
14604SOL    HW246192   5.627   3.154   8.131  1.1193  1.1930  0.6213
14605SOL     OW46193   2.762   3.528   4.406  0.3524 -0.8634 -0.3452
14605SOL    HW146194   2.780   3.516   4.313  1.3763 -0.8804 -0.1543
14605SOL    HW246195   2.673   3.564   4.409  1.0049  0.9640 -1.4387
14606SOL     OW46196   0.254   1.039   0.110 -0.0315 -0.3626  0.3044
14606SOL    HW146197   0.304   1.049   0.191  0.4750  0.7625 -0.1250
14606SOL    HW246198   0.318   1.054   0.040 -0.4703 -1.2626 -0.3216
14607SOL     OW46199   5.330  10.751   7.665  0.2472 -0.1331  0.5717
14607SOL    HW146200   5.321  10.686   7.595  1.0721  0.4268 -0.0605
14607SOL    HW246201   5.398  10.715   7.722  0.2344 -0.1313  0.5883
14608SOL     OW46202   7.414   2.175   5.065 -0.2786  0.0491  0.2182
14608SOL    HW146203   7.333   2.174   5.014 -0.3574  2.9168  0.1137
14608SOL    HW246204   7.484   2.164   5.001 -0.4693  1.4020 -0.2506
14609SOL     OW46205   5.202   5.409   0.059  0.6949 -0.2254 -0.1163
14609SOL    HW146206   5.291   5.374   0.048  0.5554 -0.8424  0.6769
14609SOL    HW246207   5.161   5.351   0.123 -0.4048 -0.1635 -0.7466
14610SOL     OW46208   1.405   9.786   0.470  0.1255  0.6514 -0.0003
14610SOL    HW146209   1.330   9.784   0.410 -1.2539  2.2785  1.5493
14610SOL    HW246210   1.440   9.874   0.462  3.5024 -0.7347 -2.4449
14611SOL     OW46211   9.672   0.231   6.298  0.3401 -0.3288  0.2850
14611SOL    HW146212   9.617   0.176   6.243 -0.4867  1.6435 -0.9532
14611SOL    HW246213   9.613   0.264   6.367 -0.2865  2.1310 -1.2870
14612SOL     OW46214   6.591   0.242   0.630 -0.4154 -0.2737  0.2422
14612SOL    HW146215   6.609   0.312   0.692  0.8743 -0.0907 -0.2967
14612SOL    HW246216   6.562   0.286   0.550  0.9985 -0.2795 -0.3031
14613SOL     OW46217   8.762   2.312  10.328 -0.5543 -0.6943 -0.6026
14613SOL    HW146218   8.783   2.258  10.404  0.2172  0.9800  0.4126
14613SOL    HW246219   8.831   2.378  10.325 -0.3386 -0.9413 -3.0035
14614SOL     OW46220   6.936   5.661  10.620 -0.1648  0.4964  0.0081
14614SOL    HW146221   6.841   5.668  10.621 -0.2339  0.6214 -2.1266
14614SOL    HW246222   6.954   5.568  10.637 -0.5749  0.6990  1.6665
14615SOL     OW46223   3.011   1.335   2.927 -0.7245  0.1643 -0.1542
14615SOL    HW146224   3.094   1.313   2.968 -1.0763 -1.1444 -0.0693
14615SOL    HW246225   2.955   1.363   2.999 -1.2532 -1.8555  0.2893
14616SOL     OW46226   6.145   6.397   7.533  0.0235 -0.4959  0.0203
14616SOL    HW146227   6.155   6.490   7.551  0.8680 -0.7435  0.9384
14616SOL    HW246228   6.091   6.393   7.454  0.7913  0.7867 -0.6007
14617SOL     OW46229   2.234   3.504   1.590 -0.0326  0.0347  0.1527
14617SOL    HW146230   2.193   3.426   1.554 -0.7450  0.1746  0.6537
14617SOL    HW246231   2.328   3.489   1.577 -0.1659 -0.8414  0.1281
14618SOL     OW46232  10.399   5.497   0.816 -0.2716  0.5252 -0.3754
14618SOL    HW146233  10.343   5.439   0.764 -1.3816  1.0750  0.1744
14618SOL    HW246234  10.481   5.500   0.767 -0.4142 -0.9649 -0.7690
14619SOL     OW46235   2.275   9.257   1.548 -0.0479  0.1653  0.1293
14619SOL    HW146236   2.217   9.229   1.478 -0.0275 -1.2184  0.6518
14619SOL    HW246237   2.223   9.250   1.628  0.4860 -0.0030  0.4697
14620SOL     OW46238   4.848   0.800   4.265 -0.5503  0.0875  0.4668
14620SOL    HW146239   4.812   0.753   4.190  0.5324  1.0460 -0.6995
14620SOL    HW246240   4.860   0.890   4.234  1.4016  0.1509  1.2646
14621SOL     OW46241   0.348   2.319   9.827  0.3387 -0.1085 -0.6208
14621SOL    HW146242   0.343   2.377   9.903 -0.3991 -2.0495  0.8878
14621SOL    HW246243   0.295   2.363   9.760  0.2598  1.2205  0.2785
14622SOL     OW46244   5.328   4.463   5.630  0.2511  0.4192  0.4087
14622SOL    HW146245   5.423   4.462   5.621  0.5968  0.1063  3.1998
14622SOL    HW246246   5.308   4.551   5.661 -0.2645  0.2416  0.5934
14623SOL     OW46247   0.030   1.151   4.564 -0.4210 -0.0453 -0.4677
14623SOL    HW146248   0.057   1.240   4.540  0.7671 -0.4852 -0.7835
14623SOL    HW246249   0.111   1.105   4.583 -1.0833 -0.8103  0.6374
14624SOL     OW46250   0.849   7.033   0.092  0.1079  0.0022 -0.2642
14624SOL    HW146251   0.840   6.984   0.174  1.5907  0.4040  0.1641
14624SOL    HW246252   0.866   6.965   0.026 -1.0135 -0.3155 -0.2359
14625SOL     OW46253   3.478   5.857   8.208 -0.2662  0.2928  0.2490
14625SOL    HW146254   3.474   5.891   8.297 -0.3420 -0.2541  0.4573
14625SOL    HW246255   3.402   5.896   8.164  1.1473  2.6160 -0.3256
14626SOL     OW46256   6.729   3.239   6.043 -0.6252 -0.3050 -0.2960
14626SOL    HW146257   6.656   3.295   6.070 -0.1135  0.8187 -1.1495
14626SOL    HW246258   6.779   3.224   6.123 -2.1569 -1.6857  0.4470
14627SOL     OW46259   4.988   1.760  10.684  0.4609 -0.4209 -0.2364
14627SOL    HW146260   4.970   1.854  10.689  0.1214 -0.5228  0.6994
14627SOL    HW246261   4.934   1.730  10.611  1.7161  0.3443 -1.5280
14628SOL     OW46262  10.625   2.753   2.958 -0.4339  0.0081  0.4860
14628SOL    HW146263  10.662   2.673   2.923 -0.2218 -0.1527  1.0725
14628SOL    HW246264  10.566   2.784   2.889 -0.0844 -0.3410  0.0241
14629SOL     OW46265   9.942   9.137   8.348  0.3596 -0.0306 -0.0389
14629SOL    HW146266   9.954   9.218   8.298 -1.1833 -0.3997 -1.0766
14629SOL    HW246267   9.848   9.121   8.345  0.3763 -0.8002  1.8879
14630SOL     OW46268   9.952   5.533   6.248 -0.8063  0.1459 -0.2266
14630SOL    HW146269   9.864   5.571   6.253 -0.3380  1.1117  1.0334
14630SOL    HW246270   9.967   5.496   6.335 -1.4186 -3.5124 -1.4658
14631SOL     OW46271   0.866   7.987   7.671 -0.1398 -0.4919 -0.6727
14631SOL    HW146272   0.799   7.987   7.602 -1.1778 -0.5773  0.2977
14631SOL    HW246273   0.867   8.077   7.704  1.2314 -0.1474 -1.5971
14632SOL     OW46274   3.840   0.696   1.148 -0.2657 -0.0902 -0.0569
14632SOL    HW146275   3.873   0.658   1.229 -1.6610 -0.9215  0.1576
14632SOL    HW246276   3.907   0.675   1.082  1.3763  1.4673  1.0151
14633SOL     OW46277   7.017   6.524   5.021  0.3226 -0.8386  0.1786
14633SOL    HW146278   7.015   6.480   5.105 -0.8062 -0.2330  0.4862
14633SOL    HW246279   7.107   6.554   5.011  0.5747 -1.3426  0.9411
14634SOL     OW46280   4.147   7.773   0.997  0.6054 -0.0315 -0.4025
14634SOL    HW146281   4.232   7.805   0.969  0.0462  2.4659  0.4801
14634SOL    HW246282   4.088   7.849   0.986 -0.9965 -0.9718  1.1515
14635SOL     OW46283   5.352   4.937   3.726 -0.2674  0.0161  1.0148
14635SOL    HW146284   5.340   4.869   3.793  2.0579 -0.5173  0.9639
14635SOL    HW246285   5.335   5.019   3.772 -0.9726 -0.4573  1.6362
14636SOL     OW46286   1.434   8.726   6.831 -0.1818 -0.0859  0.2550
14636SOL    HW146287   1.342   8.717   6.857 -0.1476 -0.8835  0.1056
14636SOL    HW246288   1.435   8.705   6.738 -0.3948  3.3161 -0.6570
14637SOL     OW46289   5.084   0.069   7.205 -0.0831  0.0785 -0.5316
14637SOL    HW146290   4.999   0.112   7.221 -0.2874 -1.0055  1.7569
14637SOL    HW246291   5.061  -0.011   7.158 -0.2362  0.2552 -0.7563
14638SOL     OW46292   0.779   9.710   0.474 -0.4602  0.3142  0.3841
14638SOL    HW146293   0.686   9.690   0.485 -0.1302 -2.0865 -0.6479
14638SOL    HW246294   0.822   9.667   0.548  0.0091 -0.2930 -0.2309
14639SOL     OW46295   2.810   9.132   4.287 -0.1335 -0.4502 -0.2141
14639SOL    HW146296   2.831   9.044   4.255 -1.5974 -1.6446  1.8358
14639SOL    HW246297   2.785   9.118   4.378 -2.2980  1.8216 -0.3570
14640SOL     OW46298   0.852   3.313   1.067  0.1492 -0.5201 -0.7331
14640SOL    HW146299   0.844   3.218   1.067  1.3537 -0.6438 -0.1694
14640SOL    HW246300   0.906   3.333   0.991  0.0587 -0.2967 -0.7423
14641SOL     OW46301   0.810  10.777   0.573  0.7950  0.6193 -0.1799
14641SOL    HW146302   0.728  10.822   0.553 -0.4241 -1.1294  0.6249
14641SOL    HW246303   0.838  10.738   0.490  0.6347  0.9216 -0.3764
14642SOL     OW46304   2.261   5.805   7.388 -0.0845  0.1197  0.2028
14642SOL    HW146305   2.217   5.889   7.375 -0.1609  0.1987  0.8907
14642SOL    HW246306   2.301   5.784   7.304 -0.3748  0.6673 -0.0732
14643SOL     OW46307   3.690   4.460   9.458  0.3782  0.2801 -0.2347
14643SOL    HW146308   3.670   4.550   9.433 -2.2802 -0.1123  0.1724
14643SOL    HW246309   3.706   4.415   9.375 -0.0714  0.7573 -0.5837
14644SOL     OW46310   2.724   3.521   9.589 -0.4187 -0.5773  0.7731
14644SOL    HW146311   2.648   3.487   9.637 -2.0624  3.0889  1.1449
14644SOL    HW246312   2.728   3.614   9.613  3.2602 -0.2172 -0.5358
14645SOL     OW46313   3.620   7.218   8.158  0.0032  0.3789  0.1791
14645SOL    HW146314   3.546   7.196   8.101  1.1804  1.8140 -2.0389
14645SOL    HW246315   3.692   7.166   8.125  0.3022 -0.1493  1.5962
14646SOL     OW46316   1.611   2.643   1.707 -0.0289 -0.1478  0.5269
14646SOL    HW146317   1.604   2.595   1.624 -1.8337 -0.0693  0.5877
14646SOL    HW246318   1.694   2.690   1.700  0.0302 -0.4098 -1.1048
14647SOL     OW46319   4.300   6.047   4.768  0.0916  0.5277 -0.4374
14647SOL    HW146320   4.269   6.080   4.684 -0.3708  0.1467 -0.4223
14647SOL    HW246321   4.222   6.011   4.810  0.4014  0.3172 -0.0327
14648SOL     OW46322   1.892   8.699   6.296 -0.3901  0.3026  0.3171
14648SOL    HW146323   1.881   8.776   6.240  1.0163  1.7984  2.0044
14648SOL    HW246324   1.929   8.633   6.237 -3.0179  0.3124 -1.5290
14649SOL     OW46325   2.174   1.787   3.510  0.2296  1.2085  0.0013
14649SOL    HW146326   2.226   1.708   3.499 -0.7276  0.4357  0.7668
14649SOL    HW246327   2.192   1.839   3.432  0.9556  0.2831 -0.4687
14650SOL     OW46328   2.785   5.917   0.076 -0.1450 -0.2008 -0.3771
14650SOL    HW146329   2.739   5.833   0.072  0.4075 -0.5428  0.2466
14650SOL    HW246330   2.770   5.948   0.165  0.7907 -0.3009 -0.1794
14651SOL     OW46331   0.512   2.177   8.194 -0.0840 -0.7898 -0.3628
14651SOL    HW146332   0.474   2.206   8.111 -1.0739 -1.4476 -0.1585
14651SOL    HW246333   0.449   2.114   8.229  0.6526 -1.0485  0.5585
14652SOL     OW46334   9.568   3.207   3.101  0.3943 -0.0009  0.2142
14652SOL    HW146335   9.515   3.151   3.045 -2.2389  3.1165 -0.7701
14652SOL    HW246336   9.627   3.253   3.041  0.4504  0.4011  0.5684
14653SOL     OW46337   2.680   8.714   9.562 -0.0284 -0.2378 -0.0157
14653SOL    HW146338   2.657   8.806   9.574 -0.3912 -0.3119 -0.1209
14653SOL    HW246339   2.654   8.673   9.645 -0.3727 -0.3398 -0.1715
14654SOL     OW46340   5.533   8.957   5.327 -0.1155  0.2500  0.5886
14654SOL    HW146341   5.606   8.895   5.334 -0.7489 -0.6023 -0.0711
14654SOL    HW246342   5.511   8.958   5.234 -1.1795  0.1917  0.8191
14655SOL     OW46343   6.833   6.715   8.291  0.3440 -0.1850 -0.0975
14655SOL    HW146344   6.905   6.675   8.340  0.6579  0.3894 -0.0682
14655SOL    HW246345   6.863   6.805   8.275  0.6314 -0.6006 -2.1248
14656SOL     OW46346   0.011   1.659   5.880  0.2916 -0.0272 -0.5571
14656SOL    HW146347  -0.021   1.718   5.948  0.6241 -0.6733  0.1643
14656SOL    HW246348  -0.061   1.656   5.816  1.3763  3.4952 -2.1884
14657SOL     OW46349   0.191   0.788   6.078  0.1203 -0.1588  0.0901
14657SOL    HW146350   0.138   0.786   6.157  0.3858 -0.7239  0.2610
14657SOL    HW246351   0.259   0.852   6.096 -1.4155  1.8019 -0.7472
14658SOL     OW46352   0.367   1.304   0.552  0.1373  0.6588 -0.0113
14658SOL    HW146353   0.271   1.302   0.545  0.1373 -2.7582 -1.2257
14658SOL    HW246354   0.386   1.249   0.629  1.1547  1.4314  0.3085
14659SOL     OW46355   3.809  10.609   4.324  0.3481  0.0156 -0.1482
14659SOL    HW146356   3.722  10.628   4.359  0.5072 -1.6461  1.2587
14659SOL    HW246357   3.863  10.683   4.353 -0.5983  1.1548 -1.1923
14660SOL     OW46358   3.203   7.232   6.150  0.1566 -0.2789 -0.3962
14660SOL    HW146359   3.267   7.282   6.199 -0.6281 -0.7150  1.1470
14660SOL    HW246360   3.196   7.277   6.066  0.8195  1.0934  0.2555
14661SOL     OW46361   6.211   3.155   0.753  0.2117  0.2143 -0.2920
14661SOL    HW146362   6.212   3.094   0.827 -2.8957 -0.7800 -0.9100
14661SOL    HW246363   6.170   3.234   0.787 -2.5463 -0.7445 -1.1681
14662SOL     OW46364   7.306   4.987   0.178 -0.2561  0.0234 -0.0534
14662SOL    HW146365   7.308   4.946   0.264  0.7983 -2.3378 -1.0984
14662SOL    HW246366   7.379   5.048   0.179  2.4875 -2.9498 -0.4665
14663SOL     OW46367   5.164   1.740   1.214  0.1426 -0.0364  0.8811
14663SOL    HW146368   5.103   1.759   1.286  0.4406  0.4062  1.0251
14663SOL    HW246369   5.132   1.659   1.175 -0.0175 -0.2851  1.5238
14664SOL     OW46370   8.131  10.184   7.872  0.5889  0.6665  1.0765
14664SOL    HW146371   8.114  10.118   7.804 -0.9692  1.5853  0.5081
14664SOL    HW246372   8.215  10.223   7.847  1.6599 -1.2403  1.5665
14665SOL     OW46373  10.310   2.463   8.753  0.5407 -0.3788  0.0074
14665SOL    HW146374  10.361   2.544   8.764  2.8644 -1.1121 -3.5306
14665SOL    HW246375  10.251   2.482   8.680 -0.0303 -1.3742  0.1946
14666SOL     OW46376   2.363   7.423  10.605 -0.3201 -0.0719 -0.3731
14666SOL    HW146377   2.274   7.444  10.578 -0.5205 -1.8714 -1.2259
14666SOL    HW246378   2.352   7.378  10.689 -0.2524 -0.5003 -0.5894
14667SOL     OW46379   1.239   8.847   5.474 -0.0265 -0.3114  0.1064
14667SOL    HW146380   1.188   8.889   5.404  1.4039  1.0344 -0.2005
14667SOL    HW246381   1.217   8.754   5.468 -2.3080  0.1885 -0.0731
14668SOL     OW46382   3.236   6.135   2.354  0.2518  0.3123  0.2044
14668SOL    HW146383   3.183   6.059   2.380  1.2494 -0.6163 -0.4030
14668SOL    HW246384   3.283   6.106   2.276  2.9863  0.4549  1.6848
14669SOL     OW46385   8.375   4.305   3.184 -0.4336 -0.0029  0.0694
14669SOL    HW146386   8.356   4.396   3.164  0.4931  0.0531 -0.5663
14669SOL    HW246387   8.324   4.255   3.120 -1.6642  0.0198  0.9898
14670SOL     OW46388   8.778   7.241  10.011 -0.6767 -0.2362 -0.2768
14670SOL    HW146389   8.838   7.214  10.081 -2.3939 -0.2296  1.2778
14670SOL    HW246390   8.798   7.333   9.996 -1.1849  0.1584  1.2443
14671SOL     OW46391   3.482  10.525   5.092  0.1844  0.1179  0.0128
14671SOL    HW146392   3.448  10.613   5.109  0.5986 -0.0010  1.6604
14671SOL    HW246393   3.410  10.479   5.049  0.2745  1.4956 -1.7010
14672SOL     OW46394   2.058   2.781   7.792 -0.0449  0.4278 -0.4368
14672SOL    HW146395   2.024   2.709   7.844  1.1465 -0.4529 -0.8282
14672SOL    HW246396   2.118   2.740   7.730  0.3137  1.7068 -0.9826
14673SOL     OW46397   0.913   3.856   7.997 -0.0056  0.9672 -0.0177
14673SOL    HW146398   0.972   3.914   7.947 -0.8112  1.7195 -0.1219
14673SOL    HW246399   0.867   3.914   8.057 -2.3118  0.8280 -1.4994
14674SOL     OW46400   8.639   0.336   1.267  0.1849  0.4529 -0.1161
14674SOL    HW146401   8.711   0.387   1.304 -0.8445  2.4665 -0.7242
14674SOL    HW246402   8.561   0.369   1.311 -0.4669 -1.2300  0.0700
14675SOL     OW46403   4.637   0.324   0.867  0.0279  0.2407  0.2300
14675SOL    HW146404   4.647   0.418   0.854 -0.5616  0.1341 -1.1104
14675SOL    HW246405   4.726   0.293   0.886  0.0166  1.2409  2.1329
14676SOL     OW46406   3.782   6.305   4.865  0.1098 -0.1479  0.9109
14676SOL    HW146407   3.818   6.378   4.814 -3.6073  1.2750 -0.0357
14676SOL    HW246408   3.762   6.238   4.800 -1.9173  0.4798  0.8108
14677SOL     OW46409   0.322   9.121   6.014 -0.2807 -0.2164  0.3206
14677SOL    HW146410   0.304   9.058   5.944  0.3127  1.6477 -1.6365
14677SOL    HW246411   0.245   9.116   6.071 -1.1068 -1.3481 -0.8363
14678SOL     OW46412   2.647   1.284   7.807  0.3955 -0.6932 -0.2918
14678SOL    HW146413   2.654   1.311   7.898  0.7694 -1.9339  0.0621
14678SOL    HW246414   2.644   1.189   7.810  3.6330 -0.9690 -1.7467
14679SOL     OW46415   1.546   2.968   9.804  0.6204 -0.4687 -0.0674
14679SOL    HW146416   1.481   2.918   9.853  0.2170  0.2906  0.1917
14679SOL    HW246417   1.502   3.051   9.783  0.7479 -0.7801 -1.7826
14680SOL     OW46418   3.259   3.581   7.149 -0.3095  1.1070 -0.2785
14680SOL    HW146419   3.206   3.641   7.098 -0.1728  1.1344 -0.3872
14680SOL    HW246420   3.278   3.628   7.230  0.9889  1.7681 -0.9406
14681SOL     OW46421   6.942   2.209   0.246 -0.4154  0.4505  0.4797
14681SOL    HW146422   6.864   2.249   0.208 -1.6253 -0.7323  1.5973
14681SOL    HW246423   6.929   2.115   0.233  0.7359  0.2308  0.8470
14682SOL     OW46424   4.113   7.625   3.625  0.4128 -0.0091  0.0859
14682SOL    HW146425   4.104   7.704   3.573  0.2136  0.8994  1.4448
14682SOL    HW246426   4.197   7.588   3.598 -0.2276 -0.2276 -1.7072
14683SOL     OW46427   1.042   5.036   4.532 -0.2960 -0.0707 -0.8860
14683SOL    HW146428   1.137   5.043   4.541 -0.4555 -0.4921  1.7885
14683SOL    HW246429   1.029   4.953   4.486  0.6262 -1.2927  0.9400
14684SOL     OW46430   6.291   0.247   0.809 -0.4901  0.0987 -0.0037
14684SOL    HW146431   6.200   0.225   0.832 -0.2690 -0.1022  0.7192
14684SOL    HW246432   6.335   0.257   0.894  0.1170  0.4003 -0.3469
14685SOL     OW46433   7.872  10.722   0.006 -0.1580 -0.3183 -0.6148
14685SOL    HW146434   7.884  10.637   0.050 -1.9489  0.5440  1.7673
14685SOL    HW246435   7.952  10.733  -0.046  2.8800 -0.9715  3.3840
14686SOL     OW46436   2.379   3.008   5.222 -0.1975 -0.0465  0.6113
14686SOL    HW146437   2.386   3.087   5.277 -1.0935  0.6503 -0.2343
14686SOL    HW246438   2.441   3.024   5.151 -2.3081  1.2363 -1.0796
14687SOL     OW46439   5.184   4.542   8.859  0.1487 -1.0732 -0.9695
14687SOL    HW146440   5.269   4.562   8.820 -0.0565  0.3738 -0.7391
14687SOL    HW246441   5.200   4.543   8.953  0.2575 -2.7477 -0.9375
14688SOL     OW46442   9.632   4.948   6.151 -0.2391  0.8301 -0.1961
14688SOL    HW146443   9.672   4.869   6.116 -0.3351  0.7949 -0.2269
14688SOL    HW246444   9.596   4.921   6.236  0.4717  1.0472  0.1806
14689SOL     OW46445   9.424   4.782   3.678  0.0234  0.0428 -0.0415
14689SOL    HW146446   9.407   4.698   3.635 -2.4613  0.3866  0.0730
14689SOL    HW246447   9.374   4.845   3.626  1.4715  1.3864  0.1453
14690SOL     OW46448  10.191   4.132   5.191 -0.9506 -0.0067 -0.2356
14690SOL    HW146449  10.114   4.075   5.203 -0.1417 -1.2624 -0.8474
14690SOL    HW246450  10.206   4.169   5.278 -1.9976 -0.0548 -0.0100
14691SOL     OW46451   2.884   2.121   0.207  0.0349 -0.1113 -0.2947
14691SOL    HW146452   2.895   2.083   0.120  0.0324 -2.5155  0.6661
14691SOL    HW246453   2.967   2.103   0.251 -0.6787 -0.8244  0.8270
14692SOL     OW46454   4.205   8.919   0.604 -0.7149 -0.2097 -0.1483
14692SOL    HW146455   4.299   8.928   0.585 -0.6370 -0.6170  0.0314
14692SOL    HW246456   4.191   8.970   0.683 -0.9707  1.2092 -1.0670
14693SOL     OW46457   6.321  10.800   2.490  0.1582  0.1617  0.3427
14693SOL    HW146458   6.389  10.741   2.524 -0.4181  0.0473  1.3044
14693SOL    HW246459   6.263  10.816   2.564 -0.5104  0.7847 -0.3001
14694SOL     OW46460   4.239   2.453   6.724  0.1893  0.3597 -0.2928
14694SOL    HW146461   4.202   2.394   6.657  0.0183  0.6834 -0.4836
14694SOL    HW246462   4.169   2.463   6.788  0.9126 -1.3216  0.8501
14695SOL     OW46463   1.292   1.359   9.946 -0.2015 -0.6225  0.3239
14695SOL    HW146464   1.261   1.274   9.978 -0.2208 -1.7188 -2.2999
14695SOL    HW246465   1.387   1.357   9.959 -0.1667 -1.1985  0.0110
14696SOL     OW46466   2.156   0.648   4.617 -0.2868 -0.4436  0.3057
14696SOL    HW146467   2.232   0.668   4.671  0.3633  0.1878 -0.8178
14696SOL    HW246468   2.187   0.585   4.553 -0.9803 -0.9564  0.4529
14697SOL     OW46469   2.251   5.940   5.305 -0.8016 -0.1953 -0.8166
14697SOL    HW146470   2.185   5.923   5.372 -0.2880  3.0104  0.6907
14697SOL    HW246471   2.334   5.914   5.346 -0.8132 -1.9851 -1.8162
14698SOL     OW46472   5.518  10.713   3.721 -0.1114 -0.1427 -0.0395
14698SOL    HW146473   5.603  10.754   3.705 -0.0838 -0.2241 -0.1025
14698SOL    HW246474   5.460  10.786   3.744  0.4132 -0.2768  1.8408
14699SOL     OW46475   2.921   9.294   6.456 -0.2733  0.1947  0.3348
14699SOL    HW146476   3.014   9.275   6.469 -0.2235  0.5452  0.4980
14699SOL    HW246477   2.919   9.352   6.380 -0.6247 -2.4752 -1.8581
14700SOL     OW46478   2.778   7.599   1.301 -0.2970  0.3075  0.3099
14700SOL    HW146479   2.755   7.691   1.311 -0.5355  0.3775 -0.7850
14700SOL    HW246480   2.806   7.572   1.389  1.7945  1.9678  0.2310
14701SOL     OW46481   5.825   9.037   9.471 -0.0842  0.0991  0.3492
14701SOL    HW146482   5.906   9.077   9.439  0.1818 -0.7489 -0.0708
14701SOL    HW246483   5.815   9.070   9.560  0.3686  0.7235  0.1774
14702SOL     OW46484   5.705   8.288   1.178 -0.0978 -0.0236 -0.0141
14702SOL    HW146485   5.706   8.369   1.127 -0.5854 -0.6490 -1.0368
14702SOL    HW246486   5.767   8.230   1.133 -0.8541 -0.7316 -0.1574
14703SOL     OW46487   1.803  10.675   1.566  0.3968 -0.3406 -0.3062
14703SOL    HW146488   1.824  10.701   1.655 -0.9933 -0.6745  0.1289
14703SOL    HW246489   1.884  10.693   1.517  1.1826 -0.1794  1.0024
14704SOL     OW46490   4.598   7.457   0.167  0.4283  0.0658 -0.2214
14704SOL    HW146491   4.518   7.499   0.199 -0.9868 -2.5963  0.0631
14704SOL    HW246492   4.658   7.459   0.242 -0.5622 -0.5990  0.6187
14705SOL     OW46493   5.565   1.642   8.002 -0.0923  0.4391  0.3233
14705SOL    HW146494   5.527   1.699   8.068 -2.7095 -1.6735  0.8083
14705SOL    HW246495   5.608   1.573   8.052  0.1377  0.1863 -0.2097
14706SOL     OW46496   8.399   0.764   9.048  0.8465  0.6207 -0.2331
14706SOL    HW146497   8.420   0.731   9.136  0.1961 -2.4003 -1.0970
14706SOL    HW246498   8.458   0.716   8.990 -0.0817  1.1130 -1.6129
14707SOL     OW46499  10.614   2.385   8.645 -0.0822  0.0323 -0.2210
14707SOL    HW146500  10.522   2.359   8.643 -0.4862  1.3239  0.4068
14707SOL    HW246501  10.651   2.351   8.563 -0.8206 -1.4946  0.0565
14708SOL     OW46502   4.018   3.991   5.679 -0.5031  0.1486 -0.1653
14708SOL    HW146503   4.087   3.968   5.742 -0.0839  1.8730  0.0767
14708SOL    HW246504   3.959   3.916   5.679  1.4715 -1.4963 -0.5335
14709SOL     OW46505   7.086   7.657   8.227  0.3310 -0.4457  0.1785
14709SOL    HW146506   7.024   7.672   8.298  0.1624  0.1400 -0.0832
14709SOL    HW246507   7.152   7.725   8.238 -0.0103  0.0194 -0.5628
14710SOL     OW46508   9.418   6.586   5.721  0.3374 -0.0228 -0.1376
14710SOL    HW146509   9.487   6.553   5.780 -0.5633  0.8404  1.4931
14710SOL    HW246510   9.429   6.681   5.725  0.2767  0.0493 -1.4461
14711SOL     OW46511   3.948   7.910   2.104 -0.0114 -0.3731 -0.8675
14711SOL    HW146512   3.996   7.861   2.171 -1.5529 -0.4400  0.2172
14711SOL    HW246513   3.927   7.845   2.037  1.2811 -0.3639 -1.3154
14712SOL     OW46514   1.422   1.888   9.252  0.9465 -0.0082 -0.1041
14712SOL    HW146515   1.493   1.874   9.314  0.9568  0.3518 -0.0319
14712SOL    HW246516   1.464   1.881   9.166  0.7574 -1.4968 -0.1134
14713SOL     OW46517   5.197   5.536  10.297  0.4093 -0.6976 -0.1238
14713SOL    HW146518   5.231   5.624  10.287 -1.3701 -0.0721 -1.2127
14713SOL    HW246519   5.250   5.482  10.238  0.7912 -0.1503 -0.2822
14714SOL     OW46520  10.732   2.957   2.507  0.2484  0.2347  0.5091
14714SOL    HW146521  10.758   2.893   2.442 -0.1367  0.9551 -0.3774
14714SOL    HW246522  10.800   3.025   2.503 -1.7651  2.3145 -2.0829
14715SOL     OW46523   7.369   7.498   4.992 -0.5025  0.6196  0.4904
14715SOL    HW146524   7.411   7.572   4.948 -3.0384  0.9050 -1.7294
14715SOL    HW246525   7.384   7.423   4.934 -0.9980  0.2126  0.8769
14716SOL     OW46526   6.918   0.889   4.887  0.1540 -0.3697  0.8278
14716SOL    HW146527   6.965   0.859   4.809  2.2154 -0.9814  2.2020
14716SOL    HW246528   6.840   0.834   4.890  0.4764 -0.9350 -0.3438
14717SOL     OW46529  10.045   1.998   5.234  0.4100 -0.3203 -0.0646
14717SOL    HW146530  10.075   1.985   5.144  1.5313 -0.5605  0.3224
14717SOL    HW246531   9.961   2.043   5.226  0.3071 -0.7034 -1.2343
14718SOL     OW46532   3.987   1.772   9.529 -0.6310  0.2170  0.3897
14718SOL    HW146533   3.984   1.699   9.591 -1.1656  0.6769  0.9172
14718SOL    HW246534   3.999   1.850   9.584  1.3464  0.4255 -0.2421
14719SOL     OW46535   1.098   8.143   6.768 -0.4683  0.4678 -0.4281
14719SOL    HW146536   1.089   8.050   6.790  0.1555  0.3159 -0.7943
14719SOL    HW246537   1.111   8.145   6.674 -0.3274  0.9176 -0.4028
14720SOL     OW46538   8.530   8.519   5.081 -0.4508 -0.2239 -0.5366
14720SOL    HW146539   8.610   8.570   5.092 -1.6680  2.0976 -1.6598
14720SOL    HW246540   8.459   8.583   5.089 -2.0703 -1.6422 -2.4308
14721SOL     OW46541   6.991   9.512   5.916  0.4817  0.0078 -0.0356
14721SOL    HW146542   6.920   9.553   5.964  0.6520 -0.9699  1.1077
14721SOL    HW246543   7.033   9.584   5.868 -1.0912  0.6326 -0.5395
14722SOL     OW46544   9.514  10.274   1.118  0.3696 -0.1342  0.7450
14722SOL    HW146545   9.547  10.186   1.097  1.4272  0.5790 -0.7836
14722SOL    HW246546   9.558  10.297   1.200  0.4130 -0.8623  0.9314
14723SOL     OW46547   1.078   5.102   9.214  0.3301  0.4003 -0.0309
14723SOL    HW146548   1.032   5.060   9.142  0.5988 -0.0988  0.0858
14723SOL    HW246549   1.063   5.045   9.289  2.0316 -0.3636 -0.2299
14724SOL     OW46550   2.343   2.465   5.960  0.1113  0.0970 -0.6019
14724SOL    HW146551   2.405   2.515   6.014  0.7794 -1.1880 -0.1232
14724SOL    HW246552   2.259   2.507   5.975  0.4178  0.2410  0.8639
14725SOL     OW46553   5.460   4.541   0.520 -0.0891 -0.2062  0.4908
14725SOL    HW146554   5.401   4.606   0.559  0.2402 -0.4550  1.4316
14725SOL    HW246555   5.469   4.474   0.587  1.9133  0.2231  0.6994
14726SOL     OW46556   9.836   6.172   8.131  0.1822 -0.1851 -0.3170
14726SOL    HW146557   9.820   6.260   8.098 -0.6350 -0.5803 -1.0101
14726SOL    HW246558   9.837   6.181   8.226  0.6664  0.6545 -0.3935
14727SOL     OW46559   1.101  10.623  10.657 -0.1751  0.2144 -0.2740
14727SOL    HW146560   1.191  10.654  10.672  0.0669 -0.9164  0.7570
14727SOL    HW246561   1.046  10.698  10.679  0.5034  1.0344 -1.2459
14728SOL     OW46562   2.746   9.953   8.421 -0.5369 -0.1018 -0.3749
14728SOL    HW146563   2.783  10.041   8.423 -0.2520 -0.2304 -0.0155
14728SOL    HW246564   2.779   9.916   8.339  0.0605 -0.1829 -0.1042
14729SOL     OW46565   8.983   4.217   4.486  0.3194  0.6163  0.2120
14729SOL    HW146566   8.988   4.222   4.390  0.3770  0.1120  0.1827
14729SOL    HW246567   8.900   4.261   4.508 -0.7786 -1.1105 -0.2553
14730SOL     OW46568   3.101   1.610   6.815 -0.3273  0.0533 -0.0403
14730SOL    HW146569   3.115   1.692   6.768 -1.1359 -0.3253 -0.9635
14730SOL    HW246570   3.023   1.572   6.775  1.5054 -2.4526 -1.4604
14731SOL     OW46571   9.384   5.868   2.077 -0.1327 -0.2340  0.2205
14731SOL    HW146572   9.430   5.932   2.024 -0.3679 -0.3644 -0.1425
14731SOL    HW246573   9.321   5.919   2.129  0.8073  0.0143  1.1526
14732SOL     OW46574   3.396   1.272   0.040  0.1653  0.1858 -0.1056
14732SOL    HW146575   3.386   1.314  -0.046 -0.5166 -0.5003 -0.3674
14732SOL    HW246576   3.358   1.335   0.102 -1.8042 -0.4484 -0.6077
14733SOL     OW46577   3.044   8.233   4.935  0.1500  0.2699  0.4508
14733SOL    HW146578   3.046   8.301   5.003  1.0248  0.0034  0.6974
14733SOL    HW246579   2.985   8.268   4.868 -0.2240  0.8131  1.0511
14734SOL     OW46580   8.733   5.270   9.933 -0.0741  0.2363  0.4264
14734SOL    HW146581   8.698   5.336   9.994 -1.9075 -0.4614  0.1992
14734SOL    HW246582   8.655   5.228   9.896  1.0255 -0.5313 -1.1279
14735SOL     OW46583   9.427   1.211   4.992 -0.1774 -0.4528 -0.3791
14735SOL    HW146584   9.420   1.172   5.079 -1.3639  1.0310  0.2469
14735SOL    HW246585   9.355   1.172   4.942 -0.7903  0.2184 -0.0369
14736SOL     OW46586   3.803   9.509   7.841 -0.2328 -0.3822  0.3218
14736SOL    HW146587   3.846   9.590   7.815 -1.6158  0.0888 -0.6362
14736SOL    HW246588   3.810   9.507   7.936 -1.1461  1.4699  0.4770
14737SOL     OW46589   0.739   1.011   8.580  0.1847  0.1873 -0.4610
14737SOL    HW146590   0.804   1.061   8.630  1.0805 -0.0802 -1.3269
14737SOL    HW246591   0.787   0.935   8.546 -1.1729 -1.3541  0.9077
14738SOL     OW46592   1.659   5.828   3.212 -0.4733  0.1530 -0.1138
14738SOL    HW146593   1.701   5.845   3.128  1.8703 -0.1885  0.9104
14738SOL    HW246594   1.729   5.839   3.277 -0.9658 -4.0122  1.4231
14739SOL     OW46595   5.322   5.613   3.418 -0.1996 -0.6826 -0.6013
14739SOL    HW146596   5.335   5.528   3.376  0.1272  0.0637 -2.0485
14739SOL    HW246597   5.406   5.657   3.409 -0.6746  0.1980 -0.8069
14740SOL     OW46598   2.247   4.281   3.834  0.2487 -0.2281  0.4063
14740SOL    HW146599   2.298   4.250   3.909  0.7148 -0.5015 -0.0202
14740SOL    HW246600   2.260   4.376   3.835  0.4396 -0.2535  0.5377
14741SOL     OW46601   1.186   7.557   7.129  0.1774  0.1694  0.0654
14741SOL    HW146602   1.100   7.597   7.139 -0.4833 -1.3382  0.7650
14741SOL    HW246603   1.191   7.533   7.036 -0.4811 -0.4014  0.1706
14742SOL     OW46604  10.579   9.840   2.855 -0.1078 -0.1344  0.2540
14742SOL    HW146605  10.592   9.888   2.773 -1.2570 -0.3600 -0.0857
14742SOL    HW246606  10.645   9.771   2.853  0.0899  0.0615 -0.3325
14743SOL     OW46607   9.317   4.757   5.831 -0.2031 -0.5685  0.2553
14743SOL    HW146608   9.248   4.693   5.816 -0.5012  0.1459 -1.7166
14743SOL    HW246609   9.383   4.710   5.882 -0.9059 -2.0965 -0.1822
14744SOL     OW46610   0.349   8.117   8.303 -0.1778 -0.3104 -0.2178
14744SOL    HW146611   0.358   8.210   8.321  1.4684  0.0474 -2.4471
14744SOL    HW246612   0.255   8.102   8.300 -0.5072  1.7088 -1.6738
14745SOL     OW46613   2.316   0.275   9.864 -0.5633  0.2252 -0.1631
14745SOL    HW146614   2.388   0.308   9.918 -0.5705  0.0443 -0.0433
14745SOL    HW246615   2.298   0.346   9.802 -1.1362  0.7996  0.6324
14746SOL     OW46616   4.900   0.685   3.970 -0.2040  0.2639 -0.6403
14746SOL    HW146617   4.881   0.617   3.905 -0.1158 -0.0075 -0.3822
14746SOL    HW246618   4.829   0.749   3.959 -0.7070 -0.2383 -0.3753
14747SOL     OW46619   8.509   6.675   3.813 -0.0124  0.5101 -0.5726
14747SOL    HW146620   8.573   6.628   3.760 -0.4296  1.0243 -1.5513
14747SOL    HW246621   8.450   6.607   3.845 -0.3794  0.3046 -1.6524
14748SOL     OW46622   0.586   1.474   0.520 -0.9985  0.4757 -0.4213
14748SOL    HW146623   0.511   1.416   0.532  0.9165 -2.5834 -1.9381
14748SOL    HW246624   0.611   1.462   0.428  2.0987  0.2711  0.3326
14749SOL     OW46625   5.633   4.894   2.402  0.6383 -0.0045  0.4873
14749SOL    HW146626   5.621   4.976   2.449  0.8978  0.8447 -0.8655
14749SOL    HW246627   5.630   4.827   2.470 -2.4789  0.8291  1.3606
14750SOL     OW46628   9.425   3.461   4.955  0.5680 -0.3907  0.1128
14750SOL    HW146629   9.491   3.493   4.894  1.7912 -0.6867  1.2185
14750SOL    HW246630   9.367   3.406   4.902  2.4189 -1.8040 -0.5512
14751SOL     OW46631  10.726   1.107   0.240 -0.2874  0.5616  0.4428
14751SOL    HW146632  10.681   1.159   0.174 -0.9611 -0.0322  0.4174
14751SOL    HW246633  10.808   1.154   0.256 -0.0410  0.6335 -0.9200
14752SOL     OW46634   1.825   2.634   8.476  0.3032  0.1793 -0.4120
14752SOL    HW146635   1.792   2.659   8.389 -0.6851  0.9374  0.1507
14752SOL    HW246636   1.749   2.597   8.520  0.6585  0.2927  0.3055
14753SOL     OW46637   7.963   0.810   2.483 -0.7394 -0.0680  0.2209
14753SOL    HW146638   7.970   0.741   2.417  1.1529 -0.5817  0.8709
14753SOL    HW246639   7.961   0.763   2.566  0.4664  0.6289  0.6679
14754SOL     OW46640   2.942   5.417   9.793  0.1601 -0.6935  0.4149
14754SOL    HW146641   3.032   5.448   9.799 -0.3630  0.6998  1.6837
14754SOL    HW246642   2.924   5.413   9.699  1.7047 -1.5856  0.1239
14755SOL     OW46643   8.728   3.167   3.264 -0.0610  0.1680  0.3464
14755SOL    HW146644   8.701   3.077   3.247  2.6302 -1.5203  3.7644
14755SOL    HW246645   8.822   3.168   3.243  0.4599  1.4403  2.4263
14756SOL     OW46646  10.105   3.137   5.882 -0.1845 -0.1927  0.2158
14756SOL    HW146647  10.012   3.162   5.881 -0.2338 -0.0354  2.8138
14756SOL    HW246648  10.104   3.045   5.909  0.3924 -0.6012 -1.0900
14757SOL     OW46649   8.488   4.014   6.591 -0.0153 -0.1485  0.4844
14757SOL    HW146650   8.470   4.107   6.576  3.3886  0.9411  1.8884
14757SOL    HW246651   8.462   3.970   6.511 -0.9589  2.1650 -0.5509
14758SOL     OW46652   8.286   2.238   6.948 -0.1785 -0.2550  0.2013
14758SOL    HW146653   8.230   2.271   6.877  1.9630 -0.0227 -1.4874
14758SOL    HW246654   8.264   2.146   6.955 -1.0256 -0.0876 -0.1575
14759SOL     OW46655   4.199   6.055   4.505  0.2630 -0.7317 -0.1062
14759SOL    HW146656   4.224   6.053   4.413 -0.5204  1.0925 -0.4048
14759SOL    HW246657   4.133   6.125   4.511 -0.0321 -1.1033  1.7565
14760SOL     OW46658   7.253   5.314   2.130  0.3035 -0.1951 -0.3942
14760SOL    HW146659   7.347   5.323   2.118  0.2420  0.6394 -0.2918
14760SOL    HW246660   7.243   5.296   2.224  0.4396 -1.6504 -0.6359
14761SOL     OW46661   7.879   7.566   2.130 -0.2114  0.1878  0.1879
14761SOL    HW146662   7.813   7.525   2.075  0.4546  0.0197 -0.5029
14761SOL    HW246663   7.904   7.645   2.083  0.5587 -0.0966  0.1000
14762SOL     OW46664   0.936   5.539   5.026 -0.1004 -0.3780  0.1759
14762SOL    HW146665   0.869   5.602   5.052  0.0572  1.0850 -2.5688
14762SOL    HW246666   1.014   5.591   5.009  0.2176 -1.3470 -1.5943
14763SOL     OW46667   7.021   3.910   8.785 -0.8640  0.2145  0.1944
14763SOL    HW146668   7.109   3.923   8.752 -0.4578  0.3299  1.2988
14763SOL    HW246669   7.012   3.815   8.791 -0.5882  0.2132  0.6509
14764SOL     OW46670   2.199   4.833   6.555  0.1165  0.0743 -0.0863
14764SOL    HW146671   2.138   4.871   6.491 -2.3790 -1.0754  1.4358
14764SOL    HW246672   2.146   4.767   6.601  2.7594 -1.5096  0.8953
14765SOL     OW46673   8.486   0.232  10.768  0.4349 -0.2251  0.1299
14765SOL    HW146674   8.581   0.224  10.758  0.3765 -0.2359 -0.4588
14765SOL    HW246675   8.473   0.322  10.799  0.6181 -0.1281 -0.0734
14766SOL     OW46676   4.192   9.659   2.529  0.5477  0.1740 -0.0214
14766SOL    HW146677   4.162   9.692   2.614 -0.8346 -1.7742  0.3108
14766SOL    HW246678   4.138   9.707   2.465  0.1823  0.2239  0.3174
14767SOL     OW46679   0.332   2.451   1.573  1.0196 -0.2664  0.7567
14767SOL    HW146680   0.274   2.514   1.615 -0.2239 -0.5186 -0.5394
14767SOL    HW246681   0.407   2.503   1.544  0.3225  0.5046  0.2999
14768SOL     OW46682   9.965   6.658   9.815 -0.0742 -0.5208  0.1842
14768SOL    HW146683   9.871   6.664   9.832  0.1087 -0.0172  1.1107
14768SOL    HW246684  10.002   6.731   9.864  0.7647 -0.4844 -0.4848
14769SOL     OW46685   9.103   1.956   0.710 -0.4483 -0.0123  0.6903
14769SOL    HW146686   9.163   2.030   0.709 -0.7256  0.2268  1.3450
14769SOL    HW246687   9.073   1.947   0.619  0.3016  0.0856  0.4303
14770SOL     OW46688   1.638   9.722   8.867  0.2663  0.8109  0.4708
14770SOL    HW146689   1.554   9.717   8.820 -0.0786 -0.6766  1.1852
14770SOL    HW246690   1.654   9.816   8.876 -0.3907  1.1312 -1.2919
14771SOL     OW46691   7.819   1.300   8.201 -0.1948 -0.3150 -0.1076
14771SOL    HW146692   7.797   1.207   8.207  0.8479 -0.4944  1.6825
14771SOL    HW246693   7.866   1.319   8.282 -1.1448  1.9980 -0.0232
14772SOL     OW46694   7.220   2.623   0.813 -0.0065 -0.2679  0.1975
14772SOL    HW146695   7.277   2.696   0.788  1.0006 -0.7605  0.9768
14772SOL    HW246696   7.140   2.637   0.763  1.0783  0.0188 -1.5557
14773SOL     OW46697   0.159   8.220   6.238 -0.3967  0.3053 -0.2763
14773SOL    HW146698   0.209   8.181   6.166 -1.4794 -0.5617 -0.5972
14773SOL    HW246699   0.131   8.145   6.290 -1.8114  0.7137 -0.4195
14774SOL     OW46700  10.028   9.109   3.777 -0.4174 -0.2715 -0.0990
14774SOL    HW146701  10.110   9.100   3.825 -0.5925 -0.8018  0.1163
14774SOL    HW246702  10.031   9.196   3.739 -0.5170  0.3714  1.3298
14775SOL     OW46703   4.828   5.218  10.512 -0.0131  0.2428  0.0642
14775SOL    HW146704   4.862   5.181  10.594  0.1078 -0.6719 -0.3848
14775SOL    HW246705   4.823   5.312  10.529  0.7420  0.1591  0.8632
14776SOL     OW46706   9.813   9.151   9.872  0.6006 -0.2752  0.2733
14776SOL    HW146707   9.842   9.103   9.794  1.5827 -0.3858  0.6946
14776SOL    HW246708   9.754   9.090   9.917 -0.6463  0.0934 -0.7824
14777SOL     OW46709   0.686   3.801   1.154 -0.0974 -0.0766  0.6826
14777SOL    HW146710   0.751   3.869   1.135 -1.5741  1.5546  1.1467
14777SOL    HW246711   0.649   3.828   1.239 -0.9263 -1.3172  0.7332
14778SOL     OW46712   2.698   7.656   2.097  0.1418 -0.1753  0.1242
14778SOL    HW146713   2.664   7.568   2.114 -0.1638 -0.5128 -1.9127
14778SOL    HW246714   2.750   7.677   2.174 -0.0922 -1.9863  0.8329
14779SOL     OW46715   2.107   3.378   2.625  0.1068 -0.1536  0.1561
14779SOL    HW146716   2.187   3.426   2.646 -0.3396  1.5154 -1.5953
14779SOL    HW246717   2.132   3.319   2.554 -0.1023  0.0225 -0.0663
14780SOL     OW46718   3.375   7.472  10.737 -0.2687 -0.4465  0.2021
14780SOL    HW146719   3.328   7.464  10.821  0.8149 -1.1209  0.7584
14780SOL    HW246720   3.305   7.478  10.672 -1.1587 -2.2356  0.9251
14781SOL     OW46721   7.979   6.438   4.673  0.9537  0.5070 -0.3097
14781SOL    HW146722   7.975   6.395   4.758  0.1045  0.3776 -0.4028
14781SOL    HW246723   8.034   6.382   4.619 -0.0141 -0.4082 -0.3850
14782SOL     OW46724   5.697   4.265   2.526 -0.0535  0.2306  0.3863
14782SOL    HW146725   5.643   4.193   2.492  1.0020  0.0854 -1.0718
14782SOL    HW246726   5.697   4.251   2.620  0.0141 -1.6231  0.1601
14783SOL     OW46727   4.556   6.356   6.874  0.6134  0.8994  0.0016
14783SOL    HW146728   4.529   6.287   6.813 -2.2351  0.6472  1.3804
14783SOL    HW246729   4.617   6.313   6.934  0.7794  0.2588 -0.6157
14784SOL     OW46730   6.666   3.063   2.935 -0.0531  0.3726 -0.5411
14784SOL    HW146731   6.667   3.049   3.029  1.8268  1.2942 -0.3717
14784SOL    HW246732   6.726   2.996   2.900 -0.2621  0.4255 -1.0125
14785SOL     OW46733   2.125   4.254   0.438 -0.2994 -0.2983  0.4195
14785SOL    HW146734   2.120   4.285   0.528  0.1540  0.1103  0.3048
14785SOL    HW246735   2.166   4.168   0.444 -0.6773 -0.4656  0.6429
14786SOL     OW46736   9.599   6.615   9.311  0.4494 -0.2145  0.1381
14786SOL    HW146737   9.505   6.626   9.301  0.4360 -0.3719  0.0963
14786SOL    HW246738   9.621   6.538   9.258  0.6837  0.1523 -0.3099
14787SOL     OW46739   9.835   5.904   5.706  0.5352  0.4059  0.4904
14787SOL    HW146740   9.791   5.978   5.747 -0.8129  0.0428 -0.2287
14787SOL    HW246741   9.856   5.846   5.779  0.0763  0.7349  0.8963
14788SOL     OW46742   2.275   2.650   0.037 -0.5879 -0.4278 -0.0592
14788SOL    HW146743   2.254   2.682   0.125 -0.3676 -0.9262  0.1781
14788SOL    HW246744   2.302   2.559   0.050  0.6178 -0.1470 -0.4935
14789SOL     OW46745   3.484   0.855   3.291  0.7901 -0.1649  0.0053
14789SOL    HW146746   3.493   0.778   3.234 -1.7521 -0.6078  0.0826
14789SOL    HW246747   3.508   0.929   3.235  0.8044 -0.8007 -0.8473
14790SOL     OW46748   7.886  10.445  10.793 -0.1668 -0.4837  0.4278
14790SOL    HW146749   7.821  10.422  10.727 -0.8884  0.2280  0.8821
14790SOL    HW246750   7.969  10.411  10.758 -0.2640  1.1361 -1.5274
14791SOL     OW46751   1.357   9.797   3.271 -0.5520 -0.3419  0.2074
14791SOL    HW146752   1.433   9.738   3.277 -1.7252 -1.9385  0.0426
14791SOL    HW246753   1.379   9.856   3.199  0.8667 -0.2417  0.6773
14792SOL     OW46754   5.459   2.558   4.018  0.0824  0.6968  0.1299
14792SOL    HW146755   5.401   2.509   3.960  1.6671  0.5360 -1.3867
14792SOL    HW246756   5.481   2.495   4.088 -0.7471  0.4431  0.1719
14793SOL     OW46757   0.106  10.012   9.006 -0.1626  0.6068  0.3022
14793SOL    HW146758   0.186  10.006   8.955 -0.7498  0.1509 -0.6145
14793SOL    HW246759   0.072  10.100   8.988  0.8238  1.3145  1.7965
14794SOL     OW46760   2.445   7.693   4.629  0.5313 -0.1938 -0.0520
14794SOL    HW146761   2.402   7.764   4.676  0.5051 -1.7541  2.5016
14794SOL    HW246762   2.538   7.704   4.650  0.5359 -0.8497  0.2943
14795SOL     OW46763   8.487   1.257  10.005 -0.4930  0.5956 -0.3142
14795SOL    HW146764   8.565   1.298   9.965 -0.2523  1.3333  0.8798
14795SOL    HW246765   8.521   1.180  10.050 -0.2121  1.6880  1.3961
14796SOL     OW46766   4.965   6.158   8.769 -0.5247  0.3532  0.3017
14796SOL    HW146767   4.968   6.251   8.793 -0.7300  0.4858 -0.1758
14796SOL    HW246768   4.982   6.111   8.851 -1.1339  0.7999  0.6916
14797SOL     OW46769   1.679   5.101   9.881  0.0195  0.1713  0.6757
14797SOL    HW146770   1.619   5.100   9.807 -1.2004  1.7299  1.5828
14797SOL    HW246771   1.743   5.033   9.861 -2.8888 -2.6613  0.3887
14798SOL     OW46772   1.693   5.086   6.617  0.1979  0.7469 -0.1884
14798SOL    HW146773   1.720   5.124   6.534 -0.1058  0.5918 -0.3625
14798SOL    HW246774   1.598   5.074   6.608  0.3989 -0.8852 -0.4844
14799SOL     OW46775   5.056  10.085   8.565  0.1554  0.3758 -0.0860
14799SOL    HW146776   5.033  10.148   8.632  0.7168  1.1870 -0.6470
14799SOL    HW246777   5.141  10.051   8.591 -0.3385 -0.4926  0.4486
14800SOL     OW46778  10.300   5.878  10.242  0.0147 -0.4366 -0.3799
14800SOL    HW146779  10.248   5.938  10.188 -1.2852 -1.2953 -0.1228
14800SOL    HW246780  10.368   5.846  10.183  0.0582  0.4367 -0.8260
14801SOL     OW46781   3.175   9.329   5.093 -0.2267  0.0292  0.0522
14801SOL    HW146782   3.236   9.267   5.131 -0.4198  0.6111  1.3725
14801SOL    HW246783   3.122   9.277   5.032  2.0291 -0.3329 -1.7188
14802SOL     OW46784   1.555  10.626   5.378  0.6036  0.2851 -0.3662
14802SOL    HW146785   1.554  10.532   5.394  1.4973  0.2158 -0.6376
14802SOL    HW246786   1.491  10.640   5.309  1.5642 -0.3477 -1.4106
14803SOL     OW46787   1.677   0.266   9.656 -0.4009  0.2399  0.0467
14803SOL    HW146788   1.605   0.213   9.692 -0.4577  0.1347 -0.2260
14803SOL    HW246789   1.753   0.208   9.660 -0.9818 -0.8971 -2.8265
14804SOL     OW46790   5.247   3.776   1.026  0.2109  0.2127 -0.1308
14804SOL    HW146791   5.213   3.824   0.950  1.0858  2.5133  0.8491
14804SOL    HW246792   5.341   3.770   1.009  0.2156 -0.5489  0.1227
14805SOL     OW46793   7.896   6.956   6.809  0.3392  0.2715  0.2877
14805SOL    HW146794   7.805   6.965   6.837  0.0259  2.3009 -1.1844
14805SOL    HW246795   7.947   6.992   6.881 -0.1347  0.6989  0.4164
14806SOL     OW46796   6.142   1.458   3.860 -0.1977 -0.0992  0.3982
14806SOL    HW146797   6.132   1.387   3.796 -0.2785  1.1477 -1.0145
14806SOL    HW246798   6.164   1.413   3.942  2.5680 -1.6210 -1.0421
14807SOL     OW46799   1.613   1.066   8.634 -0.1507 -0.3794 -0.2861
14807SOL    HW146800   1.606   1.122   8.556  2.3389  0.5241  0.0497
14807SOL    HW246801   1.600   1.126   8.708  0.4187 -0.6558  0.0410
14808SOL     OW46802   6.499   6.922   7.756 -0.4144  0.3858  0.3243
14808SOL    HW146803   6.515   6.874   7.837  0.8407  0.2984  0.0379
14808SOL    HW246804   6.537   7.008   7.770  2.7047 -0.5694 -1.1952
14809SOL     OW46805   1.747   2.283   3.522  0.2810  0.5637  1.5334
14809SOL    HW146806   1.700   2.209   3.561  0.4706  1.1919  3.0439
14809SOL    HW246807   1.830   2.286   3.571  0.2489  1.7998  1.5382
14810SOL     OW46808   9.404   4.834   9.431 -0.6771 -0.2287  0.3297
14810SOL    HW146809   9.499   4.846   9.432 -0.5836 -0.6757  2.4094
14810SOL    HW246810   9.372   4.900   9.370  0.8857  0.7742  0.5230
14811SOL     OW46811   1.750   8.444  10.308  0.2514  0.5121  0.1802
14811SOL    HW146812   1.675   8.385  10.298  0.2013  0.8703 -2.1133
14811SOL    HW246813   1.758   8.456  10.402 -2.5743  0.4464  0.5276
14812SOL     OW46814   1.057   6.939   0.751  0.4133  0.1279 -0.0836
14812SOL    HW146815   1.011   7.021   0.768 -0.1345 -0.0201 -0.8445
14812SOL    HW246816   1.049   6.889   0.832 -1.1643 -0.0877 -0.3502
14813SOL     OW46817   2.448   9.329   5.203  0.3510 -0.2161  0.2283
14813SOL    HW146818   2.533   9.345   5.161  0.1245  1.3016  0.3001
14813SOL    HW246819   2.400   9.276   5.139  0.5857  0.7205 -0.7554
14814SOL     OW46820   5.040   2.301   5.160  0.8690 -0.2526 -0.3496
14814SOL    HW146821   4.979   2.246   5.209 -2.5455  1.5652 -2.2029
14814SOL    HW246822   5.022   2.390   5.189  1.1185  0.5498 -2.4213
14815SOL     OW46823   2.544   5.363   5.529  0.5101  0.2394 -0.4035
14815SOL    HW146824   2.586   5.347   5.445  1.2436  0.5888 -0.1094
14815SOL    HW246825   2.517   5.454   5.526 -0.4367 -0.0348 -0.6716
14816SOL     OW46826   1.783   8.593   7.707  0.2719  0.5377 -0.4030
14816SOL    HW146827   1.855   8.555   7.758  0.7227  2.2055  0.2683
14816SOL    HW246828   1.754   8.522   7.650 -0.3910 -1.5450  2.2845
14817SOL     OW46829   7.392   7.431   8.550  0.2877 -0.3499 -0.2248
14817SOL    HW146830   7.477   7.401   8.520  1.3943  0.4295  1.8767
14817SOL    HW246831   7.392   7.525   8.534  0.3997 -0.1272  0.9947
14818SOL     OW46832   9.033   0.524   7.310 -0.2603 -0.0029  0.2002
14818SOL    HW146833   9.004   0.436   7.287 -2.1228  1.2052 -2.8125
14818SOL    HW246834   9.097   0.547   7.242 -0.5787  1.2854  0.3051
14819SOL     OW46835   5.826   3.831   2.718  0.0193  0.5220  0.3157
14819SOL    HW146836   5.920   3.827   2.737  0.0731  1.8950  0.4063
14819SOL    HW246837   5.794   3.907   2.766 -1.4495 -0.7521  1.4480
14820SOL     OW46838   4.206   8.386   2.918  0.0693 -0.0184 -0.1160
14820SOL    HW146839   4.299   8.401   2.901 -0.0947  1.0109 -0.1356
14820SOL    HW246840   4.198   8.392   3.013  0.1238 -0.7500 -0.0590
14821SOL     OW46841   4.422   0.176   1.445  0.1781 -0.1378  0.1736
14821SOL    HW146842   4.515   0.158   1.436  0.3210 -0.5932  2.0021
14821SOL    HW246843   4.415   0.271   1.437  0.5472 -0.2393 -1.6145
14822SOL     OW46844   6.894   5.757   8.867  0.1803  0.0345 -0.0458
14822SOL    HW146845   6.837   5.771   8.942 -0.4134  0.4991 -0.5706
14822SOL    HW246846   6.835   5.739   8.794  0.7936 -1.6176 -0.1689
14823SOL     OW46847   0.605   4.935   4.655  0.2816  0.1325 -0.6887
14823SOL    HW146848   0.661   4.950   4.579  1.7673 -0.9331  0.1249
14823SOL    HW246849   0.648   4.982   4.726 -1.6487  1.9868 -0.6591
14824SOL     OW46850   6.633   9.273  10.629 -0.1593  0.1490 -0.3585
14824SOL    HW146851   6.677   9.266  10.714 -0.8304 -2.9217 -0.1432
14824SOL    HW246852   6.701   9.302  10.569  0.9009  0.2309  0.8439
14825SOL     OW46853   6.001   5.122  10.398  0.5024  0.2659 -0.3807
14825SOL    HW146854   5.996   5.209  10.436 -0.0387 -0.2956  0.9136
14825SOL    HW246855   6.094   5.109  10.379  0.6462  0.9570 -0.1653
14826SOL     OW46856   7.333   3.106   2.102  0.2453 -0.7273  0.2699
14826SOL    HW146857   7.295   3.183   2.144  0.9428 -0.9790  1.4274
14826SOL    HW246858   7.259   3.062   2.061 -0.9186 -1.5750  3.0329
14827SOL     OW46859   4.335   4.364   5.272 -0.0087 -0.8147  0.3232
14827SOL    HW146860   4.374   4.430   5.330 -0.9990 -0.7056  0.8807
14827SOL    HW246861   4.399   4.292   5.272  0.7861 -0.1249  0.2104
14828SOL     OW46862   8.463  10.783   7.710 -0.0354 -0.4005  0.6911
14828SOL    HW146863   8.397  10.836   7.667  0.2213 -0.7290 -0.1190
14828SOL    HW246864   8.478  10.709   7.650  0.6307 -0.6412  1.1404
14829SOL     OW46865   4.536   8.133   6.397  0.1852  0.3828 -0.4288
14829SOL    HW146866   4.473   8.202   6.376 -1.1273 -0.1536  1.4830
14829SOL    HW246867   4.487   8.051   6.387  0.9073 -0.1111 -0.0355
14830SOL     OW46868   5.371   6.716   0.239  0.4135  0.1482  0.1599
14830SOL    HW146869   5.385   6.762   0.156 -2.0341 -2.0002 -1.5985
14830SOL    HW246870   5.388   6.782   0.306  2.5440  1.9718 -1.9929
14831SOL     OW46871   0.935   9.809   5.544 -0.2416 -0.5248  0.9372
14831SOL    HW146872   0.912   9.781   5.456  3.7123 -1.2320 -0.0845
14831SOL    HW246873   0.876   9.759   5.601 -0.4900 -2.9437 -1.2313
14832SOL     OW46874   7.235   1.199   0.730  0.0293  0.5721  0.1238
14832SOL    HW146875   7.240   1.177   0.823 -1.3686  1.2500  0.3959
14832SOL    HW246876   7.179   1.277   0.727  0.0843  0.5902 -1.2878
14833SOL     OW46877   4.167   8.892   4.278 -0.0058 -0.0991 -0.3515
14833SOL    HW146878   4.144   8.983   4.297 -0.3035 -0.3184  0.4071
14833SOL    HW246879   4.087   8.853   4.242 -0.3864 -0.4578  0.8208
14834SOL     OW46880   3.488   7.325   6.304  0.1668  0.5527 -0.1268
14834SOL    HW146881   3.477   7.230   6.311  0.5656  0.2607 -2.5893
14834SOL    HW246882   3.568   7.344   6.353  0.8057 -0.6126 -0.6634
14835SOL     OW46883   1.852   2.983   2.796 -0.1724 -0.4999  0.3085
14835SOL    HW146884   1.758   2.994   2.782 -0.6810 -1.5844  2.5218
14835SOL    HW246885   1.878   2.920   2.729 -0.6934  0.8355 -1.2178
14836SOL     OW46886   4.591   6.627   4.753  0.2255 -0.1750  0.0708
14836SOL    HW146887   4.605   6.567   4.826 -0.6917 -0.7993 -0.2491
14836SOL    HW246888   4.496   6.643   4.753  0.5584  2.1772  0.8369
14837SOL     OW46889   7.592   0.496   3.718 -0.3181 -0.7916 -0.1131
14837SOL    HW146890   7.562   0.580   3.752 -1.3710 -0.9956 -0.4962
14837SOL    HW246891   7.518   0.462   3.668  0.8028 -1.0158 -1.7005
14838SOL     OW46892  10.543   8.545   6.306  0.1161  0.0974 -0.0084
14838SOL    HW146893  10.579   8.460   6.280  2.0038  0.6368  0.6307
14838SOL    HW246894  10.456   8.525   6.340 -0.6066 -1.1953 -2.4056
14839SOL     OW46895   8.850   6.525   3.262 -0.2174  0.7443  0.1537
14839SOL    HW146896   8.920   6.461   3.270 -0.5405  0.3058 -0.4429
14839SOL    HW246897   8.770   6.476   3.280 -0.4829  0.9279 -0.4757
14840SOL     OW46898  10.363   6.520   9.456 -0.2120  0.5436 -0.0957
14840SOL    HW146899  10.418   6.596   9.469  0.3049  0.2618 -0.5704
14840SOL    HW246900  10.281   6.555   9.419 -0.5870  1.0219  1.1423
14841SOL     OW46901   7.461   7.463   9.433 -0.1448 -0.5230  0.2635
14841SOL    HW146902   7.368   7.448   9.449 -0.0993  0.1534  1.2979
14841SOL    HW246903   7.498   7.476   9.520  0.8316 -0.3120 -0.1701
14842SOL     OW46904   8.609   0.525  10.265 -0.0340  0.2478 -0.4366
14842SOL    HW146905   8.517   0.502  10.280 -0.2416  0.3459 -1.4874
14842SOL    HW246906   8.649   0.442  10.239  0.2244  0.1747  0.1600
14843SOL     OW46907   8.738   6.082   6.319  0.1497  0.0899  0.0398
14843SOL    HW146908   8.765   5.998   6.281 -0.6586 -0.6300  0.9992
14843SOL    HW246909   8.807   6.143   6.294  0.3470 -0.6696 -1.3700
14844SOL     OW46910   3.683   4.483   8.757  0.2261  0.1516 -0.5084
14844SOL    HW146911   3.747   4.546   8.789  0.7688 -0.6769  0.1079
14844SOL    HW246912   3.716   4.456   8.671 -0.4439  1.2939 -1.1359
14845SOL     OW46913   8.818   2.128   1.828  0.4821 -0.1774 -0.6476
14845SOL    HW146914   8.745   2.138   1.890  0.1529 -1.2286 -0.8419
14845SOL    HW246915   8.826   2.033   1.816  0.9995 -0.0165 -1.6848
14846SOL     OW46916   8.215   5.893   6.531 -0.6562  0.4082 -0.4177
14846SOL    HW146917   8.244   5.953   6.462  0.7152  1.2695  0.8362
14846SOL    HW246918   8.196   5.811   6.485  1.3992  0.5639 -1.6959
14847SOL     OW46919  10.054   1.868   0.941 -0.5516 -0.5098 -0.6680
14847SOL    HW146920  10.138   1.862   0.896  0.6416 -0.3465  1.3769
14847SOL    HW246921  10.006   1.936   0.895  0.5420 -0.4206 -1.7224
14848SOL     OW46922   6.447   5.271   7.951  0.4931 -0.0873 -0.0388
14848SOL    HW146923   6.480   5.215   8.022  1.2099 -0.8618 -0.9578
14848SOL    HW246924   6.404   5.211   7.891 -0.0182  0.5517 -0.3242
14849SOL     OW46925   3.714   0.826   2.933  0.0767 -0.3155 -0.0213
14849SOL    HW146926   3.696   0.736   2.906 -0.9176 -0.7027  1.7919
14849SOL    HW246927   3.793   0.821   2.986  0.2143 -0.0414 -0.1908
14850SOL     OW46928   4.104   9.096   3.229 -0.2799 -0.1937  0.0184
14850SOL    HW146929   4.048   9.072   3.156 -1.4256  0.2713  0.7034
14850SOL    HW246930   4.062   9.056   3.306  1.5412 -1.6805  0.3159
14851SOL     OW46931   9.611   5.230   0.344 -0.1099 -0.5914  0.4825
14851SOL    HW146932   9.624   5.180   0.263  0.0369 -2.3264  1.5323
14851SOL    HW246933   9.575   5.314   0.314 -0.1262 -1.2014 -1.3678
14852SOL     OW46934   8.777   3.456  10.130  0.0384  0.0859  0.7087
14852SOL    HW146935   8.733   3.378  10.164 -0.3531 -0.2864 -0.6219
14852SOL    HW246936   8.849   3.422  10.077 -0.6248  0.6026 -0.5412
14853SOL     OW46937   9.188   6.483   2.284  0.0205 -0.2083  0.3433
14853SOL    HW146938   9.193   6.415   2.351 -0.1997 -1.6034 -1.0036
14853SOL    HW246939   9.109   6.462   2.234  0.7739  0.1222 -1.0424
14854SOL     OW46940  10.017   2.692   9.437  0.2218  0.0785  0.3836
14854SOL    HW146941  10.033   2.711   9.345 -0.7123 -1.2406 -0.0855
14854SOL    HW246942  10.057   2.765   9.484 -1.0440  1.8392 -1.1361
14855SOL     OW46943   1.824   3.156   9.342 -0.6801  0.2105 -0.0766
14855SOL    HW146944   1.827   3.137   9.436 -0.1539  0.1303 -0.1103
14855SOL    HW246945   1.857   3.077   9.300 -0.0883  0.5701 -0.2938
14856SOL     OW46946   1.119   8.330   9.157 -0.1953  0.0832 -0.2388
14856SOL    HW146947   1.082   8.418   9.155  0.1663  0.2340 -1.9761
14856SOL    HW246948   1.043   8.272   9.149 -0.4281  0.2044  0.8421
14857SOL     OW46949   0.493  10.480   5.423  0.2398  0.3371 -0.1508
14857SOL    HW146950   0.441  10.560   5.418 -1.2447 -0.6376 -1.2026
14857SOL    HW246951   0.469  10.431   5.345 -1.5320 -2.6745  2.0528
14858SOL     OW46952   6.165  10.009   2.784  0.0364 -0.1443 -0.6849
14858SOL    HW146953   6.230  10.055   2.837  1.0807 -0.1710 -1.8975
14858SOL    HW246954   6.109  10.078   2.750 -0.1279 -0.0495 -0.2268
14859SOL     OW46955   5.884   0.903   3.447  0.0863  0.1555 -0.2834
14859SOL    HW146956   5.920   0.859   3.370 -0.6659 -2.9511  0.9776
14859SOL    HW246957   5.931   0.865   3.521 -1.6579  0.3863  1.0032
14860SOL     OW46958   5.705   3.870   5.811 -0.0062 -0.0517 -0.0648
14860SOL    HW146959   5.765   3.796   5.802  0.0221  0.0263 -0.5510
14860SOL    HW246960   5.625   3.833   5.849  0.1577 -0.2493  0.0907
14861SOL     OW46961   5.685   6.937  10.361  0.5616 -0.3529  0.6902
14861SOL    HW146962   5.644   6.983  10.434 -0.9276 -0.0770 -0.2671
14861SOL    HW246963   5.771   6.910  10.394  0.9776  1.9842  1.7135
14862SOL     OW46964   5.076   6.156   3.778  0.3872 -0.1498  0.0095
14862SOL    HW146965   5.068   6.146   3.683 -0.5472 -1.0691  0.1681
14862SOL    HW246966   5.033   6.240   3.796  1.9646  0.8264 -0.5276
14863SOL     OW46967  10.310   5.883   9.151 -0.4940 -0.4229  0.3030
14863SOL    HW146968  10.305   5.864   9.057  1.0881  0.3742  0.0371
14863SOL    HW246969  10.337   5.800   9.191  1.3184 -0.1391 -0.2595
14864SOL     OW46970   5.570   7.081   5.861  0.2744 -0.1967  0.0587
14864SOL    HW146971   5.507   7.150   5.883  1.5467  1.8593 -2.1431
14864SOL    HW246972   5.651   7.109   5.904  0.4040 -1.2383  0.5005
14865SOL     OW46973   9.969   3.638   3.772 -0.2106 -0.7513  0.8227
14865SOL    HW146974  10.038   3.704   3.771  0.8887 -1.8414  1.2151
14865SOL    HW246975  10.007   3.563   3.725 -2.5189 -0.1223 -2.3413
14866SOL     OW46976   4.725  10.192   8.955  0.3952  0.2809 -0.2423
14866SOL    HW146977   4.809  10.195   8.999  0.7986  0.0680 -0.9777
14866SOL    HW246978   4.686  10.279   8.971  1.0012  0.5826 -0.3801
14867SOL     OW46979   4.572   1.437   3.938 -0.4690  0.1373 -1.0286
14867SOL    HW146980   4.587   1.344   3.921  0.4305  0.3342 -1.3723
14867SOL    HW246981   4.488   1.455   3.895 -2.0405 -1.0913  1.3113
14868SOL     OW46982   3.587   2.331   9.968  0.2788  1.1230  0.2873
14868SOL    HW146983   3.497   2.301   9.975  0.3184  1.2147  1.3464
14868SOL    HW246984   3.588   2.415  10.014  0.8234  1.2809 -0.0109
14869SOL     OW46985   2.480   5.325   4.257  0.6030 -0.1551 -0.2516
14869SOL    HW146986   2.435   5.269   4.320 -0.6337 -0.2025 -1.1431
14869SOL    HW246987   2.557   5.358   4.304 -0.1937 -0.3193  1.2193
14870SOL     OW46988   2.760   5.984   1.709  0.1371  0.4481  0.0614
14870SOL    HW146989   2.807   5.973   1.626  1.0741 -0.8490  0.7285
14870SOL    HW246990   2.686   5.924   1.703  1.3076 -1.1749  0.8936
14871SOL     OW46991   2.917   1.413   9.881  0.4515  0.0447 -0.6084
14871SOL    HW146992   2.924   1.456   9.966 -0.3729 -0.3055 -0.3543
14871SOL    HW246993   3.003   1.375   9.866  0.5175 -0.1434  0.2114
14872SOL     OW46994   2.786   0.031   3.269  0.0295  0.0877 -0.0082
14872SOL    HW146995   2.780   0.001   3.359 -0.7218  1.0990  0.2850
14872SOL    HW246996   2.858   0.094   3.269  0.6415 -0.5872 -0.3251
14873SOL     OW46997  10.280   8.871   0.402  0.3704 -0.3164  0.0235
14873SOL    HW146998  10.270   8.833   0.489 -0.7820  0.2524  0.1622
14873SOL    HW246999  10.310   8.798   0.347  1.7387 -0.5253  1.0064
14874SOL     OW47000   6.589   8.582   9.987  0.1732  0.7229 -0.6064
14874SOL    HW147001   6.605   8.655   9.926 -1.1558  1.3918 -0.2149
14874SOL    HW247002   6.523   8.529   9.943  0.3833  0.3239 -0.4401
14875SOL     OW47003   0.305   2.560   3.634  0.2405 -0.3032  0.4087
14875SOL    HW147004   0.275   2.475   3.664  1.0415 -0.1924  1.6089
14875SOL    HW247005   0.231   2.597   3.587 -0.1668 -1.5833  0.0175
14876SOL     OW47006   8.456   7.162   8.001  0.1254  0.1029  0.5565
14876SOL    HW147007   8.464   7.169   7.906 -3.4180 -0.6343  0.0579
14876SOL    HW247008   8.536   7.117   8.029  1.1401  0.1077 -2.0838
14877SOL     OW47009   3.117   1.567   7.257  0.9171  0.5751 -0.1077
14877SOL    HW147010   3.047   1.506   7.236  1.8531  0.3058 -2.8514
14877SOL    HW247011   3.177   1.517   7.312  0.8306 -0.4649 -0.9304
14878SOL     OW47012   0.786   1.261   9.157  0.0735 -0.1619 -0.3141
14878SOL    HW147013   0.745   1.267   9.243 -0.9295 -2.2801 -0.5844
14878SOL    HW247014   0.746   1.184   9.117  1.2356  0.2110 -2.2990
14879SOL     OW47015   8.945   4.313   9.981 -0.6443  0.2849  0.3381
14879SOL    HW147016   8.949   4.289  10.073 -2.1340 -2.4963 -0.2198
14879SOL    HW247017   8.856   4.348   9.969 -0.4129  0.7613 -0.0291
14880SOL     OW47018   7.239   1.093   5.485 -0.1863  0.2996  0.1137
14880SOL    HW147019   7.175   1.025   5.462 -0.4208  0.2005  0.9969
14880SOL    HW247020   7.229   1.104   5.580  1.6263 -0.2755  0.4284
14881SOL     OW47021   4.261   7.766   3.902 -0.1811 -0.2876  0.0272
14881SOL    HW147022   4.267   7.673   3.877 -0.6535  0.1180 -1.7252
14881SOL    HW247023   4.226   7.764   3.991 -0.3885 -1.7852 -0.0490
14882SOL     OW47024   1.647   6.521   3.552 -0.3108 -0.0103 -0.1183
14882SOL    HW147025   1.630   6.595   3.492 -1.0939  0.8138  1.0798
14882SOL    HW247026   1.650   6.445   3.495 -1.5556  0.6837 -1.1708
14883SOL     OW47027  10.167   1.753   7.373  0.2940 -0.6050 -0.5544
14883SOL    HW147028  10.145   1.750   7.466  1.2739  1.0219 -0.2312
14883SOL    HW247029  10.083   1.747   7.329 -0.2019 -1.2121  0.4254
14884SOL     OW47030   4.952   7.019  10.146  0.2128 -0.4452  0.4369
14884SOL    HW147031   4.912   7.009  10.232 -1.8570 -1.2105 -0.5421
14884SOL    HW247032   4.974   6.930  10.119 -1.3674 -0.5353 -0.7525
14885SOL     OW47033   0.722   2.225  10.044  0.3323 -0.1110  0.0075
14885SOL    HW147034   0.690   2.183   9.964 -0.4957 -1.5556  1.0649
14885SOL    HW247035   0.658   2.203  10.111  1.0953  0.9331  1.1394
14886SOL     OW47036   7.133   8.115   2.528 -0.3562 -0.6994  0.3850
14886SOL    HW147037   7.101   8.045   2.585  0.7356 -0.7449  0.9647
14886SOL    HW247038   7.147   8.189   2.587 -1.3214 -0.0235 -0.1955
14887SOL     OW47039   9.423   3.778   5.053 -0.1717 -0.0461 -0.8454
14887SOL    HW147040   9.348   3.720   5.040  0.2236 -0.5194 -1.0733
14887SOL    HW247041   9.403   3.855   5.000 -1.1813  0.5011  0.2752
14888SOL     OW47042   3.926   5.721   6.910 -0.2662  0.1877 -0.3751
14888SOL    HW147043   3.900   5.698   6.999  1.3061  1.6223  0.5133
14888SOL    HW247044   3.980   5.647   6.881 -1.4493 -0.6605 -0.4825
14889SOL     OW47045   9.687   9.345   0.898  0.0876 -0.0935  0.6329
14889SOL    HW147046   9.734   9.375   0.820 -0.2952 -2.5102 -0.6329
14889SOL    HW247047   9.754   9.306   0.953  0.1999  0.6525  1.0390
14890SOL     OW47048   5.663   7.428   4.190  0.2828 -0.1664 -0.0874
14890SOL    HW147049   5.745   7.413   4.238 -0.7082 -1.0411  1.4080
14890SOL    HW247050   5.645   7.344   4.148  0.3480  0.1450 -0.7430
14891SOL     OW47051   7.712   8.733   5.951 -0.5679 -0.4147  0.4731
14891SOL    HW147052   7.678   8.667   6.011  1.5204 -1.4667  0.5961
14891SOL    HW247053   7.714   8.813   6.004 -1.1125 -0.7455  1.0098
14892SOL     OW47054   1.491   5.331   9.425  0.4608  0.3091 -0.1961
14892SOL    HW147055   1.454   5.328   9.513 -1.5273  0.7746 -0.9547
14892SOL    HW247056   1.493   5.239   9.397 -2.3819  0.3673 -0.9375
14893SOL     OW47057   8.344   8.736   5.031 -0.3014  0.3461  0.2401
14893SOL    HW147058   8.395   8.736   4.950 -1.7837  1.5465 -0.7453
14893SOL    HW247059   8.298   8.820   5.030 -1.5907 -0.3105  1.5292
14894SOL     OW47060   5.392   2.640   8.941  0.4796 -0.2684  0.7348
14894SOL    HW147061   5.445   2.635   8.861  1.7695  0.4601  1.5072
14894SOL    HW247062   5.314   2.689   8.915  0.4141 -0.9069 -0.3090
14895SOL     OW47063   1.138   9.056   2.856 -0.1383  0.6328 -0.0301
14895SOL    HW147064   1.165   8.964   2.856  1.1498  0.9892  0.7716
14895SOL    HW247065   1.042   9.053   2.852 -0.0783 -0.6838 -2.9565
14896SOL     OW47066   2.432   4.927   9.294  0.0708 -0.1631 -0.0076
14896SOL    HW147067   2.344   4.957   9.317  0.8173  1.5721  0.7517
14896SOL    HW247068   2.465   4.886   9.374  0.1357 -0.3657 -0.1381
14897SOL     OW47069   4.297   0.044   7.699  0.0524 -0.1654  0.2236
14897SOL    HW147070   4.229  -0.016   7.728 -0.8516  0.7643  0.0833
14897SOL    HW247071   4.360   0.046   7.772  0.8565 -2.3402 -0.3490
14898SOL     OW47072   4.741   3.204   0.052  0.5651  0.0281  0.2451
14898SOL    HW147073   4.826   3.219   0.011  0.2122 -1.2799 -1.0150
14898SOL    HW247074   4.735   3.110   0.062 -0.4654  0.1561  0.9642
14899SOL     OW47075   3.363   1.167   5.828  0.4395  0.1730 -0.0268
14899SOL    HW147076   3.455   1.169   5.799  0.5226 -1.4340  0.0469
14899SOL    HW247077   3.323   1.242   5.784  1.1843 -0.6309 -2.2423
14900SOL     OW47078   4.554   4.941   2.089 -0.6722  0.4111 -0.2187
14900SOL    HW147079   4.623   4.990   2.045  1.8964 -0.4280  2.5331
14900SOL    HW247080   4.540   4.864   2.035  0.8875  0.3946 -0.6274
14901SOL     OW47081   7.398   5.530   6.213 -0.1233 -0.2657  0.1484
14901SOL    HW147082   7.377   5.465   6.281  0.5956 -2.1435 -1.3193
14901SOL    HW247083   7.349   5.501   6.136 -0.5517  1.5401 -0.2989
14902SOL     OW47084   6.646   6.411   9.787 -0.0065 -0.1402 -0.2580
14902SOL    HW147085   6.732   6.414   9.827 -1.0753 -0.4094  2.2214
14902SOL    HW247086   6.659   6.361   9.706  1.9955 -0.8251  0.4282
14903SOL     OW47087   1.631   5.458   6.266  0.5046 -0.6485 -0.0425
14903SOL    HW147088   1.703   5.404   6.298 -0.5038 -1.8288  0.2880
14903SOL    HW247089   1.552   5.417   6.302 -0.3204  0.8685 -0.0353
14904SOL     OW47090   5.930   9.785   9.351  0.2996 -0.1726 -0.2867
14904SOL    HW147091   5.884   9.741   9.280  0.8767 -0.9426 -0.1948
14904SOL    HW247092   5.866   9.847   9.387 -0.0245  0.1672 -1.4147
14905SOL     OW47093   3.508   4.262   9.535  0.0474  0.0158 -0.2265
14905SOL    HW147094   3.561   4.342   9.541  0.8530 -0.5765  0.7636
14905SOL    HW247095   3.557   4.206   9.474 -0.9524  0.5833 -1.5930
14906SOL     OW47096   5.872   1.657   4.451 -0.0611  0.2700 -0.8204
14906SOL    HW147097   5.967   1.667   4.460 -0.1582  0.3481  0.3389
14906SOL    HW247098   5.856   1.661   4.357  1.0205  0.8617 -0.9996
14907SOL     OW47099   2.709   9.422   8.197 -0.4406 -0.3204 -0.6286
14907SOL    HW147100   2.739   9.512   8.208 -0.5940 -0.1280 -1.6722
14907SOL    HW247101   2.769   9.370   8.250 -0.0684  0.3518 -0.3806
14908SOL     OW47102   4.641   4.058   8.583 -0.0466 -0.8273  0.4860
14908SOL    HW147103   4.611   4.065   8.493  1.0500 -0.7466  0.1127
14908SOL    HW247104   4.613   4.140   8.624 -1.0665 -1.1127  0.4009
14909SOL     OW47105   7.842   2.244   5.587 -0.4654 -0.2364  0.6154
14909SOL    HW147106   7.919   2.239   5.530  1.0567 -2.9814  2.6750
14909SOL    HW247107   7.850   2.329   5.631  0.6466  0.0797 -0.1556
14910SOL     OW47108   1.904   7.478   5.929  0.8325  0.4320  0.5976
14910SOL    HW147109   1.946   7.523   5.856  0.7932 -0.6683 -0.1339
14910SOL    HW247110   1.812   7.503   5.922  0.9482  0.8859  0.6954
14911SOL     OW47111   5.983   6.466  10.657 -0.1370 -0.1993 -0.0048
14911SOL    HW147112   6.042   6.469  10.581  0.5700  0.4107  0.5540
14911SOL    HW247113   5.968   6.558  10.679  0.3072 -0.3725  1.0795
14912SOL     OW47114   4.654   0.641   2.314 -0.4168 -0.2734  0.0421
14912SOL    HW147115   4.682   0.553   2.287 -1.5218 -0.3647 -0.9280
14912SOL    HW247116   4.576   0.625   2.367  0.5822  0.0304  1.6505
14913SOL     OW47117   4.282   3.567   0.515 -0.3631 -0.1266 -0.4149
14913SOL    HW147118   4.248   3.614   0.592 -0.6772 -0.6473 -0.2319
14913SOL    HW247119   4.369   3.603   0.501 -1.0529  1.3984 -1.0187
14914SOL     OW47120   2.738   0.033   6.168  0.2685 -0.2598  0.2116
14914SOL    HW147121   2.805  -0.009   6.222  1.7151  0.2942 -1.0831
14914SOL    HW247122   2.782   0.109   6.130  0.1721 -1.9243 -3.6878
14915SOL     OW47123   7.284   0.023   7.583  0.1407  0.2714 -0.3465
14915SOL    HW147124   7.336  -0.056   7.568 -0.7625 -0.3781 -0.1702
14915SOL    HW247125   7.345   0.085   7.623  0.9002 -0.2882 -0.6194
14916SOL     OW47126   8.606   6.471   5.151 -0.1190 -0.3243  0.8315
14916SOL    HW147127   8.635   6.408   5.085  0.6074 -0.1549  0.9856
14916SOL    HW247128   8.636   6.556   5.119  1.6863 -0.4036  2.1399
14917SOL     OW47129   4.734   3.677   6.268 -0.3152  0.0374 -0.1132
14917SOL    HW147130   4.685   3.753   6.237 -1.0491 -0.6669 -0.7347
14917SOL    HW247131   4.802   3.714   6.324  0.6812  1.3450 -2.0569
14918SOL     OW47132   7.201   0.885   9.962  0.2682 -0.1776 -0.4019
14918SOL    HW147133   7.110   0.904   9.941  0.1490 -2.6970 -2.6956
14918SOL    HW247134   7.201   0.870  10.057 -0.6354  4.5412  0.5946
14919SOL     OW47135   2.774   1.189   3.217  0.1689  0.3605 -0.3322
14919SOL    HW147136   2.859   1.166   3.254 -0.7565 -1.1471  0.9302
14919SOL    HW247137   2.780   1.283   3.201  1.7909  0.4251  0.4581
14920SOL     OW47138   5.963   2.653   0.286  0.0018  0.5450 -0.1771
14920SOL    HW147139   6.050   2.622   0.260  0.1249 -0.4454  1.2832
14920SOL    HW247140   5.966   2.748   0.274  1.0475  0.4502 -0.7785
14921SOL     OW47141   0.957   6.336   6.304  0.1456 -0.2880 -0.3047
14921SOL    HW147142   0.997   6.308   6.221 -2.9166 -1.2056 -1.6481
14921SOL    HW247143   0.936   6.428   6.291 -1.0630 -0.6276 -0.9530
14922SOL     OW47144   5.896   9.666   8.198  0.6799 -0.1639  0.4124
14922SOL    HW147145   5.825   9.622   8.245  0.4677 -0.2301  0.0378
14922SOL    HW247146   5.972   9.610   8.211  1.0195  0.5946  1.9630
14923SOL     OW47147   8.475   5.899   4.714 -0.4326  0.2434  0.3487
14923SOL    HW147148   8.548   5.860   4.666  0.2944  1.8729  0.0724
14923SOL    HW247149   8.509   5.916   4.802 -1.0568 -0.6319  0.7764
14924SOL     OW47150   4.077   8.829   2.445  0.0935  0.4723  0.3244
14924SOL    HW147151   3.997   8.801   2.489  0.8657 -1.7339  0.4464
14924SOL    HW247152   4.098   8.914   2.484 -0.2607 -0.5310  2.9096
14925SOL     OW47153   7.900   7.495   9.562 -0.2817  0.3696 -0.1389
14925SOL    HW147154   7.942   7.414   9.534  1.7411  1.5087 -0.5807
14925SOL    HW247155   7.878   7.540   9.480  0.2415  1.0501  0.0872
14926SOL     OW47156   8.150   9.148   0.792 -1.0517  0.3121 -0.3556
14926SOL    HW147157   8.177   9.152   0.700  1.0324  0.8916  0.2314
14926SOL    HW247158   8.231   9.163   0.841 -1.9491 -0.8577  1.5961
14927SOL     OW47159   1.503  10.338   5.296  0.2517 -0.0998 -0.3162
14927SOL    HW147160   1.450  10.384   5.231 -0.1999  0.2878  0.3192
14927SOL    HW247161   1.577  10.304   5.246  0.1782  0.6275 -0.9417
14928SOL     OW47162   3.871   7.481   9.813  0.3045 -0.0172 -0.1398
14928SOL    HW147163   3.914   7.566   9.802  2.4276 -0.4243  3.5710
14928SOL    HW247164   3.941   7.417   9.801 -0.3651 -1.0124  1.0735
14929SOL     OW47165   8.188   8.511   6.089 -0.1990  0.2019 -0.5242
14929SOL    HW147166   8.247   8.536   6.018  1.2187  1.7110  1.0881
14929SOL    HW247167   8.109   8.561   6.074 -0.6297 -0.8355 -1.9735
14930SOL     OW47168   4.583   6.874   1.553 -0.5619  0.4634  0.1706
14930SOL    HW147169   4.525   6.829   1.492  0.4738 -0.4222 -0.1827
14930SOL    HW247170   4.671   6.848   1.527 -0.0856  0.0564  2.0202
14931SOL     OW47171   9.447  10.791   3.410 -0.1717  0.3722  0.2206
14931SOL    HW147172   9.526  10.742   3.434 -1.8377 -2.7769 -0.1428
14931SOL    HW247173   9.393  10.789   3.489 -0.5848  0.9916 -0.0410
14932SOL     OW47174   6.663   0.648   0.125 -0.1752 -0.0649 -0.5440
14932SOL    HW147175   6.701   0.729   0.159  0.8191  0.0088 -1.7359
14932SOL    HW247176   6.660   0.590   0.200 -0.5498  0.9432  0.2491
14933SOL     OW47177   5.346   6.843   7.523 -0.0458  0.4393 -0.0708
14933SOL    HW147178   5.255   6.822   7.541  0.1171 -0.0437  0.2105
14933SOL    HW247179   5.378   6.884   7.603  0.4577 -0.9857  0.4891
14934SOL     OW47180   4.132   0.044   9.660  0.8264  0.5959  0.3331
14934SOL    HW147181   4.109  -0.037   9.613  2.5418  0.6444 -0.6786
14934SOL    HW247182   4.166   0.013   9.744  1.8972  0.1955 -0.2213
14935SOL     OW47183   4.672   4.670   0.645 -0.3323  0.6028  0.5080
14935SOL    HW147184   4.734   4.738   0.673 -0.8152  1.5767 -0.6975
14935SOL    HW247185   4.706   4.641   0.560 -0.7158  0.0956  0.5260
14936SOL     OW47186   0.988   7.712   7.589 -0.5235  0.7778  0.2311
14936SOL    HW147187   1.051   7.776   7.623 -0.0224  0.1621  0.4644
14936SOL    HW247188   0.902   7.750   7.609 -0.2574  2.2039 -1.1508
14937SOL     OW47189  10.536   8.103   3.632 -0.1625 -0.0950 -0.0299
14937SOL    HW147190  10.553   8.164   3.561  1.6339 -1.9690 -1.3324
14937SOL    HW247191  10.613   8.046   3.634 -0.9937 -1.2784  2.2171
14938SOL     OW47192   2.838   5.782   2.278  0.3103  0.0326 -0.0246
14938SOL    HW147193   2.756   5.788   2.228 -0.1019 -0.9975  0.4908
14938SOL    HW247194   2.809   5.777   2.369  1.0336  1.3575  0.3017
14939SOL     OW47195  10.531   7.579   0.549 -0.4647 -0.0007 -0.3068
14939SOL    HW147196  10.491   7.588   0.636 -0.3472  1.0791 -0.3464
14939SOL    HW247197  10.571   7.492   0.550  0.4361  0.3947  1.1164
14940SOL     OW47198   4.509   5.860   9.053  0.2226  0.4336 -0.0000
14940SOL    HW147199   4.538   5.950   9.071  2.2672 -0.3085  0.6846
14940SOL    HW247200   4.537   5.810   9.129  1.2478 -1.1968 -1.3659
14941SOL     OW47201  10.023   1.250   1.580  0.6318 -0.1001  0.5948
14941SOL    HW147202   9.932   1.276   1.566  0.6477 -0.3313  0.0400
14941SOL    HW247203  10.017   1.173   1.636  0.4701 -0.3017  0.3028
14942SOL     OW47204   0.704   4.745   1.058 -0.3977 -0.0424  0.4320
14942SOL    HW147205   0.785   4.735   1.109  0.0346 -1.3634 -0.4607
14942SOL    HW247206   0.727   4.715   0.971 -0.8583  3.0062 -0.8940
14943SOL     OW47207   3.055   8.367   9.993 -0.3630  0.0491  0.4010
14943SOL    HW147208   3.102   8.450   9.988 -1.1386  0.4252 -1.3905
14943SOL    HW247209   3.041   8.353  10.087  1.3820  0.9977  0.8402
14944SOL     OW47210   6.283   3.920   2.553  0.1036 -0.1640 -0.1317
14944SOL    HW147211   6.247   3.862   2.620  0.9527 -0.0427  0.4415
14944SOL    HW247212   6.373   3.889   2.540 -0.1341 -0.3553 -1.4136
14945SOL     OW47213   7.153   9.477   0.554  0.0268 -0.0387 -0.1513
14945SOL    HW147214   7.116   9.398   0.514  0.4656  1.2892 -3.4796
14945SOL    HW247215   7.085   9.507   0.615 -0.8722 -1.9822 -0.1030
14946SOL     OW47216   6.849   1.421   6.153  0.0732  0.1487 -0.2147
14946SOL    HW147217   6.783   1.376   6.101  1.3892  0.7586 -2.5677
14946SOL    HW247218   6.837   1.387   6.241 -2.5025 -0.7013 -0.7995
14947SOL     OW47219   5.865   9.465   0.827  0.3879  0.0969  0.3890
14947SOL    HW147220   5.782   9.417   0.837  0.3107 -0.1976 -1.3233
14947SOL    HW247221   5.929   9.412   0.875  0.0394 -1.0435 -0.3527
14948SOL     OW47222   2.428   4.528   9.688 -0.2197 -0.3853 -0.9004
14948SOL    HW147223   2.444   4.558   9.778 -1.1042  0.0200 -0.8609
14948SOL    HW247224   2.514   4.505   9.654  0.1216 -0.5479  0.0572
14949SOL     OW47225   2.444   7.066   9.199 -0.2753  0.0445 -0.3855
14949SOL    HW147226   2.485   7.136   9.251 -1.2627 -1.5412  2.8006
14949SOL    HW247227   2.515   7.028   9.148  1.0450  0.9645  0.7087
14950SOL     OW47228   2.676   2.841   1.705 -0.2817  0.1508  0.4905
14950SOL    HW147229   2.726   2.763   1.678  1.2160  1.4104 -0.5878
14950SOL    HW247230   2.607   2.807   1.761  0.5380 -1.9219  0.3405
14951SOL     OW47231   9.151   5.243   4.097  0.1281 -0.3039  0.2757
14951SOL    HW147232   9.174   5.264   4.007  1.7294 -0.7414  0.5316
14951SOL    HW247233   9.074   5.187   4.090 -0.4781  0.6231 -0.7335
14952SOL     OW47234   1.292   4.441   0.562  0.7681  0.0374  0.4361
14952SOL    HW147235   1.274   4.443   0.656 -1.1856  0.9585  0.0891
14952SOL    HW247236   1.377   4.397   0.555  2.6440  2.8759  2.8529
14953SOL     OW47237   0.185   5.119   4.882 -0.1093  0.0732 -0.7804
14953SOL    HW147238   0.106   5.147   4.836  0.1662  0.4153 -1.0497
14953SOL    HW247239   0.181   5.166   4.966 -0.0628  0.2860 -0.8973
14954SOL     OW47240  10.745   6.774   8.129  0.4485 -0.0341 -0.1409
14954SOL    HW147241  10.799   6.819   8.193 -1.4189  0.0317  1.5002
14954SOL    HW247242  10.791   6.692   8.112  0.7869 -0.2669  1.6801
14955SOL     OW47243   9.283   8.945   1.933  0.1225  0.1899  0.2850
14955SOL    HW147244   9.344   8.872   1.942  0.4108  0.5036  0.9756
14955SOL    HW247245   9.312   8.990   1.854 -1.7466 -1.9763 -1.7811
14956SOL     OW47246   3.147   2.331   1.386  0.6842  0.2776 -0.3013
14956SOL    HW147247   3.100   2.342   1.303  3.4018  1.6503 -1.7832
14956SOL    HW247248   3.101   2.389   1.447 -0.4546  0.3810 -1.2237
14957SOL     OW47249   8.932   9.222   2.413 -0.3561 -0.4987 -0.2868
14957SOL    HW147250   8.930   9.126   2.412  1.6094 -0.5818 -0.9266
14957SOL    HW247251   8.942   9.247   2.322 -0.4380  0.3141 -0.0822
14958SOL     OW47252   8.193   1.305   5.256 -0.3536  0.4410  0.3697
14958SOL    HW147253   8.113   1.296   5.308  0.3796  0.0199  1.4609
14958SOL    HW247254   8.254   1.353   5.313  0.8571 -1.0133  0.3596
14959SOL     OW47255   0.092   5.187   8.987 -0.3199  0.5248 -0.9190
14959SOL    HW147256   0.157   5.134   9.033 -0.6154  0.3049 -0.7483
14959SOL    HW247257   0.011   5.173   9.035 -0.6546  0.2305 -1.5468
14960SOL     OW47258   8.866   6.534   5.707  0.6852 -0.3214  0.0193
14960SOL    HW147259   8.864   6.478   5.630 -0.7576 -1.5843  0.9172
14960SOL    HW247260   8.799   6.601   5.690 -0.1382 -1.0180  0.4432
14961SOL     OW47261   5.848   0.305   4.338  0.3119  0.0887  0.0633
14961SOL    HW147262   5.821   0.213   4.335  0.5295  0.0222  0.0804
14961SOL    HW247263   5.854   0.331   4.246 -0.4481  0.2990  0.0663
14962SOL     OW47264   5.853   5.638   6.373 -0.0961 -0.2570 -0.4493
14962SOL    HW147265   5.771   5.684   6.392 -0.8498 -0.7272 -2.3222
14962SOL    HW247266   5.852   5.563   6.431  0.1183  0.9302  1.1386
14963SOL     OW47267   9.940   6.547  10.273 -0.3617 -0.0682 -0.1886
14963SOL    HW147268  10.019   6.571  10.225  1.1810 -1.4452  1.5384
14963SOL    HW247269   9.909   6.630  10.311  1.8317  0.1524  1.3032
14964SOL     OW47270   1.736   9.206   2.785  0.2391  0.0150 -0.0119
14964SOL    HW147271   1.776   9.253   2.858  0.0995 -0.0401  0.1005
14964SOL    HW247272   1.810   9.175   2.734  0.3417 -0.1250  0.2195
14965SOL     OW47273   7.430   2.911   0.632  0.1649  0.2840  0.3052
14965SOL    HW147274   7.377   2.881   0.558 -1.6344  2.4662  0.5959
14965SOL    HW247275   7.520   2.890   0.607 -0.5346 -0.6277 -1.6961
14966SOL     OW47276   2.334   8.941   7.996 -0.4664  1.0647 -0.1037
14966SOL    HW147277   2.420   8.961   7.959  0.9762 -1.2215  1.7291
14966SOL    HW247278   2.298   8.874   7.938  0.7420 -0.7443  1.1031
14967SOL     OW47279   0.987   9.729   1.498 -0.4965 -0.4569  0.1115
14967SOL    HW147280   0.986   9.637   1.473 -2.6044  0.1461 -2.5423
14967SOL    HW247281   1.055   9.768   1.443 -0.0953 -0.3148  0.7075
14968SOL     OW47282   9.460   3.429   7.501  0.3097 -0.1719  0.0939
14968SOL    HW147283   9.513   3.440   7.581 -1.0616  0.3664  0.9664
14968SOL    HW247284   9.468   3.513   7.456 -3.1286  1.6348  2.3867
14969SOL     OW47285   0.392   5.477   3.864 -0.1488 -0.6225  0.0936
14969SOL    HW147286   0.318   5.437   3.908 -0.3740  0.0088  0.3055
14969SOL    HW247287   0.384   5.450   3.773 -1.1916  0.2086 -0.0840
14970SOL     OW47288   6.376   4.064   6.450  0.1969  0.4199  0.0522
14970SOL    HW147289   6.436   4.066   6.375  1.6788  0.3943  1.1906
14970SOL    HW247290   6.401   4.139   6.502 -1.6627  1.1705 -0.0615
14971SOL     OW47291   6.233   4.664   7.298  0.1249  0.2964 -0.1455
14971SOL    HW147292   6.183   4.600   7.248 -0.1145 -0.4678  1.0223
14971SOL    HW247293   6.321   4.660   7.260 -0.2409  0.3192 -1.0122
14972SOL     OW47294   6.103   0.878   9.053 -0.1609 -0.0035  0.0873
14972SOL    HW147295   6.155   0.798   9.065  0.2017  0.2582  0.2875
14972SOL    HW247296   6.020   0.847   9.018 -0.2368 -0.5304  0.7008
14973SOL     OW47297   2.683   1.986   2.830 -0.0363 -0.2176  0.4004
14973SOL    HW147298   2.709   1.898   2.857 -1.3405 -0.3356  1.4005
14973SOL    HW247299   2.652   1.976   2.740  1.9638 -0.3189 -0.3144
14974SOL     OW47300   0.417   5.926   7.271 -0.2029 -0.5124  0.4623
14974SOL    HW147301   0.437   5.852   7.213  1.3014  1.5573 -1.8625
14974SOL    HW247302   0.459   6.001   7.229 -3.1223  2.0505  1.7496
14975SOL     OW47303   3.559   1.223   8.979  0.4875  0.4884  0.0969
14975SOL    HW147304   3.476   1.246   9.020  0.5186 -0.8505  0.9610
14975SOL    HW247305   3.625   1.271   9.029  0.3983  0.0062  0.6845
14976SOL     OW47306   6.875   1.670   2.497  0.2641  0.4066 -0.6205
14976SOL    HW147307   6.872   1.598   2.433  1.2541  0.2224 -0.4808
14976SOL    HW247308   6.945   1.645   2.557 -1.3966  0.0126  1.2562
14977SOL     OW47309   5.496   1.880   3.482  0.3119  0.3025  0.5504
14977SOL    HW147310   5.471   1.952   3.540  0.2670  0.0454  0.8516
14977SOL    HW247311   5.461   1.801   3.524 -1.0998  0.2733 -0.6448
14978SOL     OW47312   2.499   8.975   7.045  0.4079 -0.1470  0.1793
14978SOL    HW147313   2.554   9.003   6.972  1.1906  0.4457  0.9714
14978SOL    HW247314   2.561   8.939   7.109 -0.3029 -1.0116  0.4073
14979SOL     OW47315   3.191   7.442   7.082  0.5571  0.0602  0.3474
14979SOL    HW147316   3.133   7.410   7.013  0.5381 -1.2965  0.9601
14979SOL    HW247317   3.140   7.431   7.163  0.8909  0.8481  0.6776
14980SOL     OW47318   2.117   5.209   1.557 -0.1860 -0.3507 -0.5578
14980SOL    HW147319   2.145   5.282   1.501  0.1959  0.2670  0.4103
14980SOL    HW247320   2.046   5.167   1.509 -0.5240  0.7656 -1.0542
14981SOL     OW47321   1.815   7.820   5.307  0.4280  0.1877  0.0985
14981SOL    HW147322   1.877   7.770   5.360 -0.1077 -0.8372 -0.1949
14981SOL    HW247323   1.829   7.789   5.218 -0.1942  0.2594 -0.0327
14982SOL     OW47324  10.124   2.147   4.718  0.2817  0.0414  0.3153
14982SOL    HW147325  10.165   2.180   4.638  0.5648  0.2934  0.5605
14982SOL    HW247326  10.034   2.128   4.692  0.5087 -0.3673 -0.1896
14983SOL     OW47327   8.160   5.395   9.252  0.8080 -0.7520 -0.2115
14983SOL    HW147328   8.124   5.408   9.340 -1.1194 -0.6573 -0.9687
14983SOL    HW247329   8.192   5.481   9.226 -0.4010 -0.3310 -0.3390
14984SOL     OW47330   3.119   0.033   0.091 -0.3994  0.5396  0.3129
14984SOL    HW147331   3.055   0.022   0.162 -1.0200  0.9875 -0.1571
14984SOL    HW247332   3.081  -0.015   0.017 -0.0475  0.5683  0.1123
14985SOL     OW47333   5.642   8.151   1.429 -0.1080  0.5873  0.5297
14985SOL    HW147334   5.581   8.184   1.496 -1.0283  1.2134 -0.5755
14985SOL    HW247335   5.640   8.218   1.361  0.4036 -0.2918 -0.3682
14986SOL     OW47336   3.582   0.456   4.407 -0.4903 -0.0956  1.2032
14986SOL    HW147337   3.551   0.534   4.361  1.0307 -0.1185  0.0527
14986SOL    HW247338   3.629   0.490   4.483 -1.1149  0.0352  1.5364
14987SOL     OW47339   8.980   5.827   6.044 -0.3516 -0.2492 -0.0476
14987SOL    HW147340   9.044   5.840   6.113 -1.0296  0.0251  0.5400
14987SOL    HW247341   9.003   5.892   5.977 -0.2367  0.0829  0.3152
14988SOL     OW47342   2.119   5.646   7.547  0.1450 -0.3515 -0.0840
14988SOL    HW147343   2.052   5.606   7.492  2.1665 -1.4577 -1.9471
14988SOL    HW247344   2.154   5.717   7.493  0.8540 -0.1899  0.5747
14989SOL     OW47345   9.540   6.044   0.123 -0.1254 -0.2740  0.3493
14989SOL    HW147346   9.568   5.963   0.165 -0.1484 -0.1000  0.7011
14989SOL    HW247347   9.585   6.114   0.171 -0.2343 -0.0658  0.1539
14990SOL     OW47348   2.678   5.820   8.137 -0.8229  0.5153  0.1183
14990SOL    HW147349   2.670   5.825   8.041 -1.9521  0.3124  0.1911
14990SOL    HW247350   2.761   5.775   8.151 -1.1384 -0.3809 -0.7821
14991SOL     OW47351   8.709   1.339   9.897  0.1443 -0.3121 -0.0108
14991SOL    HW147352   8.741   1.278   9.832  1.2871 -0.8854  1.0505
14991SOL    HW247353   8.719   1.425   9.857  1.3141 -0.6151 -0.3954
14992SOL     OW47354   6.076   0.668   5.057 -0.1181  0.5379  0.1975
14992SOL    HW147355   6.077   0.666   5.153  0.3556  0.9914  0.2086
14992SOL    HW247356   6.160   0.630   5.032  0.1234  1.1930 -0.0145
14993SOL     OW47357   0.529   1.090   9.836  0.6378 -0.7072 -0.7100
14993SOL    HW147358   0.498   1.158   9.897  0.8397 -2.2069  1.1754
14993SOL    HW247359   0.462   1.022   9.841  1.5796 -1.6564 -0.7363
14994SOL     OW47360   0.504   4.737   8.513  0.2225  0.0245  0.0167
14994SOL    HW147361   0.558   4.724   8.591  1.0151 -0.3596 -0.5826
14994SOL    HW247362   0.543   4.679   8.447 -0.2972  0.5125 -0.7313
14995SOL     OW47363   2.599  10.763   8.823  0.2484  0.6717 -0.2051
14995SOL    HW147364   2.662  10.806   8.881 -1.2460  1.6091  0.7933
14995SOL    HW247365   2.568  10.833   8.766  0.7986  0.0082 -1.3554
14996SOL     OW47366   4.465   2.795  10.497  0.4036 -0.2237 -0.3420
14996SOL    HW147367   4.458   2.701  10.511  1.3492  0.0926  3.0866
14996SOL    HW247368   4.402   2.833  10.558  0.0898  1.4252 -1.6226
14997SOL     OW47369   8.883  10.013   3.667 -0.2421  0.4335 -0.1768
14997SOL    HW147370   8.976  10.012   3.688 -0.7516  2.4336  2.7970
14997SOL    HW247371   8.843  10.067   3.735 -3.7074 -0.8833 -0.9193
14998SOL     OW47372   6.064   5.924   0.477 -0.1613 -0.6980  0.3665
14998SOL    HW147373   6.063   5.875   0.396 -2.2725 -0.3361  0.1075
14998SOL    HW247374   5.998   5.992   0.465  0.0148 -0.1546  2.0992
14999SOL     OW47375   2.025   0.787  10.057 -0.2325 -0.2765  0.2102
14999SOL    HW147376   2.012   0.839   9.978 -0.5256  0.8477  0.9830
14999SOL    HW247377   2.051   0.701  10.024 -0.5900  0.0922 -1.1145
15000SOL     OW47378   8.891   7.903   9.727  0.2706  0.1250 -0.6572
15000SOL    HW147379   8.962   7.903   9.792 -0.4560  0.8675  0.1608
15000SOL    HW247380   8.815   7.869   9.774  0.0043 -0.4314 -1.4630
15001SOL     OW47381   8.167   6.975   0.906  0.1215 -0.4150 -0.3072
15001SOL    HW147382   8.227   6.998   0.836  0.0432 -1.1875 -0.6341
15001SOL    HW247383   8.082   6.968   0.864 -0.7506  3.0992  0.5369
15002SOL     OW47384   8.993   7.230   9.571 -0.2298  0.1698 -0.0295
15002SOL    HW147385   9.003   7.190   9.657  3.1743 -2.1597 -1.3001
15002SOL    HW247386   9.058   7.299   9.568  1.8742 -1.7204 -1.5914
15003SOL     OW47387   6.914   4.541   5.790  1.0445 -0.8199  0.1607
15003SOL    HW147388   6.896   4.493   5.709 -0.6196  0.1413 -0.0843
15003SOL    HW247389   6.892   4.480   5.860 -1.8776 -0.2343 -0.1415
15004SOL     OW47390   3.851   9.752   6.660  0.3578 -0.1437  0.1478
15004SOL    HW147391   3.829   9.658   6.661 -1.6921  0.2814  1.1550
15004SOL    HW247392   3.855   9.774   6.567  1.6126 -1.3574 -0.1247
15005SOL     OW47393   2.512   5.904   4.395  0.7656 -0.2548  0.4596
15005SOL    HW147394   2.497   5.934   4.305  1.9410 -2.3526 -0.5113
15005SOL    HW247395   2.579   5.963   4.429 -0.1016  0.9219  0.2072
15006SOL     OW47396   1.770   2.890   9.689  0.2959  0.2495 -0.0705
15006SOL    HW147397   1.777   2.977   9.650 -1.6434 -0.5217 -2.4326
15006SOL    HW247398   1.680   2.886   9.722 -0.0302 -1.1583 -1.0058
15007SOL     OW47399   5.945   9.160   5.087 -0.7339  0.6267 -0.2534
15007SOL    HW147400   5.985   9.073   5.088 -3.8214 -0.9457  0.2164
15007SOL    HW247401   5.999   9.211   5.026  1.5166 -1.3908 -0.1077
15008SOL     OW47402  10.031   2.929   9.597 -0.4764  0.3556 -0.2646
15008SOL    HW147403  10.111   2.979   9.610 -0.8505  0.7899  0.3993
15008SOL    HW247404   9.967   2.969   9.655 -1.1685 -0.0192 -0.7444
15009SOL     OW47405   3.591   6.899   7.902 -0.2055 -0.1997 -0.3402
15009SOL    HW147406   3.552   6.876   7.986  0.4453  0.9252  0.3059
15009SOL    HW247407   3.661   6.962   7.925 -0.4878  0.6813 -1.7727
15010SOL     OW47408   7.216   1.031   4.026  0.4091 -0.6805 -0.1914
15010SOL    HW147409   7.175   1.105   4.071  0.0859 -0.6483 -0.5292
15010SOL    HW247410   7.291   1.007   4.081  0.3784 -0.2514  0.0395
15011SOL     OW47411   9.382   0.312  10.635  0.3845  0.2495 -0.7920
15011SOL    HW147412   9.362   0.402  10.606 -1.3836 -0.1282 -0.9024
15011SOL    HW247413   9.296   0.276  10.659  0.9077 -1.7258 -1.6642
15012SOL     OW47414   2.617   5.201  10.028 -0.2297  0.1124 -0.6134
15012SOL    HW147415   2.567   5.209   9.947 -1.1379  0.7169 -0.0095
15012SOL    HW247416   2.697   5.155  10.002 -0.6183  0.0679 -1.7978
15013SOL     OW47417   2.064   9.911   7.639  0.0332 -0.4234  0.7221
15013SOL    HW147418   2.139   9.898   7.582  0.3936  1.0714  0.8241
15013SOL    HW247419   2.051  10.006   7.641 -0.8136 -0.5406  2.0394
15014SOL     OW47420   5.370   1.030   9.672  0.7002 -0.2434  0.4323
15014SOL    HW147421   5.325   1.114   9.670 -0.9131 -1.0873  0.1375
15014SOL    HW247422   5.457   1.049   9.635  0.4566  1.3266  0.6011
15015SOL     OW47423   6.151  10.023   0.494 -0.0636  0.4726  0.1802
15015SOL    HW147424   6.158  10.117   0.510  2.1952  0.4582 -0.3102
15015SOL    HW247425   6.147   9.984   0.581 -1.7094  1.0343  0.3735
15016SOL     OW47426   8.412   7.599   3.594  0.0932  0.1471 -0.2764
15016SOL    HW147427   8.317   7.600   3.586  0.1472 -0.2780 -1.0196
15016SOL    HW247428   8.431   7.664   3.662 -0.8681 -1.3361  1.4895
15017SOL     OW47429   3.056  10.345   9.524  0.3100 -0.4058  0.4619
15017SOL    HW147430   3.007  10.415   9.567  1.0440 -0.1309  0.8601
15017SOL    HW247431   3.040  10.359   9.431 -1.1485 -0.9048  0.6130
15018SOL     OW47432   2.117   5.210   9.045  0.2676 -0.4273 -0.0752
15018SOL    HW147433   2.092   5.123   9.076 -0.1640 -0.6730 -1.0716
15018SOL    HW247434   2.191   5.194   8.986  0.1990 -0.1302 -0.2450
15019SOL     OW47435   9.184   3.191   8.587  0.2319 -0.1506 -0.1432
15019SOL    HW147436   9.166   3.143   8.506 -2.0308 -0.6407  0.5912
15019SOL    HW247437   9.140   3.275   8.576  1.6447  0.6001 -0.2145
15020SOL     OW47438   1.742   9.284   6.325  0.3135 -0.2073  0.3507
15020SOL    HW147439   1.781   9.255   6.242  0.3660  1.6682 -0.3337
15020SOL    HW247440   1.755   9.211   6.385  1.1834 -1.2191 -1.0173
15021SOL     OW47441  10.116   1.234   6.545  0.1866  0.6395  0.6331
15021SOL    HW147442  10.134   1.296   6.474 -0.0369  2.2833  1.9510
15021SOL    HW247443  10.165   1.269   6.619 -1.8133  0.5478  2.0489
15022SOL     OW47444   0.553   7.895   7.814  0.7867 -0.7154 -0.4004
15022SOL    HW147445   0.631   7.839   7.811  1.3824 -0.3647  3.2681
15022SOL    HW247446   0.580   7.974   7.767  2.1535 -1.1626 -0.4300
15023SOL     OW47447   3.559   5.715   0.501  0.2369  0.4748  0.6066
15023SOL    HW147448   3.536   5.699   0.409  2.5046  1.1241 -0.1505
15023SOL    HW247449   3.648   5.752   0.497  0.7874 -0.3860  3.1293
15024SOL     OW47450   3.936   0.462   3.011  0.0595 -0.2848  0.0386
15024SOL    HW147451   3.908   0.390   3.068 -2.1491 -0.6873 -1.4761
15024SOL    HW247452   3.898   0.540   3.051  0.1871 -0.2968  0.1869
15025SOL     OW47453   6.384   9.653   4.135 -0.2692  0.4601 -0.5196
15025SOL    HW147454   6.406   9.624   4.047 -1.7886  1.9689 -1.4504
15025SOL    HW247455   6.306   9.603   4.158 -0.3230  0.6226 -0.3468
15026SOL     OW47456   7.354   2.349   2.828  0.4318 -0.1351 -0.2060
15026SOL    HW147457   7.442   2.315   2.842  0.1712  0.0721  2.3837
15026SOL    HW247458   7.313   2.285   2.769  1.4830 -1.7057  0.7018
15027SOL     OW47459   3.160   9.711   8.681  0.0147  0.2489 -0.2104
15027SOL    HW147460   3.065   9.704   8.681 -0.1082  1.5774 -0.0487
15027SOL    HW247461   3.177   9.803   8.660  1.2778 -0.1188 -0.9189
15028SOL     OW47462   0.468   2.202   7.351  0.0940 -1.0842  0.2882
15028SOL    HW147463   0.445   2.189   7.259 -0.7934 -0.2313  0.3738
15028SOL    HW247464   0.499   2.116   7.380  3.2417 -0.7595 -1.5432
15029SOL     OW47465   7.210   8.201   8.614  0.1825 -0.4556  0.2195
15029SOL    HW147466   7.295   8.162   8.593 -0.3562 -2.3450  1.2902
15029SOL    HW247467   7.149   8.159   8.554 -0.2537 -0.4704  0.6730
15030SOL     OW47468   3.861   2.309   6.374 -0.2835  0.2537  0.1500
15030SOL    HW147469   3.856   2.265   6.289  2.7888 -0.1398  0.0788
15030SOL    HW247470   3.943   2.358   6.371  0.3809 -0.4742  3.1924
15031SOL     OW47471  10.787   2.087   2.003  0.1969 -0.3886 -0.5990
15031SOL    HW147472  10.820   2.069   1.915  1.1382 -1.5615 -0.0205
15031SOL    HW247473  10.714   2.026   2.014 -0.9843  0.8591 -1.1340
15032SOL     OW47474   1.371   4.008   2.035  0.1742 -0.0238  0.0314
15032SOL    HW147475   1.320   4.008   2.116 -2.0535  1.2606 -1.2698
15032SOL    HW247476   1.308   3.983   1.967  1.5859  0.4675 -1.5189
15033SOL     OW47477   4.169   0.049   9.973  0.6984 -0.4647  0.0630
15033SOL    HW147478   4.145  -0.040   9.999  0.1869 -0.5717 -0.7469
15033SOL    HW247479   4.183   0.094  10.056  0.7509 -1.2401  0.4917
15034SOL     OW47480  10.370   2.211   1.199 -0.1770  0.1579  0.1268
15034SOL    HW147481  10.332   2.214   1.112  1.6082  1.5187 -0.6895
15034SOL    HW247482  10.309   2.262   1.253 -1.6124 -1.2066 -0.1371
15035SOL     OW47483   9.768   5.211  10.699 -0.2329  0.1918 -0.0910
15035SOL    HW147484   9.798   5.239  10.613 -0.7924  1.0490 -0.0215
15035SOL    HW247485   9.848   5.202  10.751  0.0852 -0.0490 -0.6130
15036SOL     OW47486   3.224  10.609   7.565 -0.1600 -0.2835  0.4649
15036SOL    HW147487   3.301  10.640   7.517 -0.7509  1.2059  0.4059
15036SOL    HW247488   3.237  10.642   7.654 -0.4813 -0.4561  0.5757
15037SOL     OW47489   0.540   3.803   3.578  0.5819 -0.5833  0.1469
15037SOL    HW147490   0.586   3.736   3.629  1.1046 -0.3003  0.0561
15037SOL    HW247491   0.610   3.860   3.545  0.0172  1.1553  1.8273
15038SOL     OW47492   1.673   7.424   9.691 -0.1304 -0.1513  0.0074
15038SOL    HW147493   1.678   7.366   9.767 -3.0530 -0.2785  0.2221
15038SOL    HW247494   1.582   7.417   9.662 -0.4167  3.6896 -0.4807
15039SOL     OW47495   8.052  10.600   2.747  0.2976  0.6812 -0.1007
15039SOL    HW147496   8.050  10.695   2.748  1.1641  0.7074  1.1312
15039SOL    HW247497   8.143  10.577   2.766 -0.2220 -0.3801  1.2850
15040SOL     OW47498   6.678   4.820   7.287  0.3266  0.4225  0.4162
15040SOL    HW147499   6.748   4.879   7.260  0.2437 -0.0423 -0.8713
15040SOL    HW247500   6.683   4.819   7.383  2.7524 -0.4058  0.3386
15041SOL     OW47501   6.386   6.986   8.951  1.0004  0.1948 -0.6695
15041SOL    HW147502   6.328   7.053   8.915  1.2663  1.8615  1.7751
15041SOL    HW247503   6.327   6.929   9.001  0.9210 -0.7919 -1.8598
15042SOL     OW47504   4.098   4.753   1.991  0.1385  0.4629 -0.1797
15042SOL    HW147505   4.128   4.674   1.946 -0.6699  0.8217 -1.3893
15042SOL    HW247506   4.151   4.756   2.071  1.5958 -0.2351 -1.0620
15043SOL     OW47507   2.734  10.766   7.106  0.1818 -0.1395  0.2058
15043SOL    HW147508   2.640  10.759   7.121 -0.4790  2.5249 -1.7891
15043SOL    HW247509   2.741  10.794   7.014  2.9650 -0.6950  0.1634
15044SOL     OW47510   2.623   1.812   2.628 -0.4496 -0.4237  0.3887
15044SOL    HW147511   2.549   1.753   2.638  0.3413 -1.2629  1.5375
15044SOL    HW247512   2.689   1.760   2.582 -0.5658  0.3425 -0.7031
15045SOL     OW47513   6.086   2.572   6.032  0.2268 -0.0250  0.2025
15045SOL    HW147514   6.167   2.607   5.995  0.8780 -0.1657  1.4270
15045SOL    HW247515   6.101   2.477   6.035 -0.5911 -0.2083 -0.9339
15046SOL     OW47516   2.077   0.716   5.585 -0.3799  0.1052 -0.0007
15046SOL    HW147517   2.096   0.659   5.511 -0.0000  1.5547 -1.0475
15046SOL    HW247518   1.987   0.746   5.569 -1.0837 -1.1856  1.2471
15047SOL     OW47519   1.707   5.636   1.903  0.6668 -0.2559 -0.3087
15047SOL    HW147520   1.764   5.559   1.904  0.9568 -0.0758 -1.3457
15047SOL    HW247521   1.761   5.705   1.864 -0.3786 -0.2018 -1.7345
15048SOL     OW47522   5.561   9.890   9.308  0.7356 -0.1901 -0.1932
15048SOL    HW147523   5.637   9.923   9.356 -1.2144  2.4970  1.3039
15048SOL    HW247524   5.538   9.809   9.353  2.8862 -1.3154 -0.9627
15049SOL     OW47525   3.097   8.171   2.873 -0.0828 -0.2169 -0.1240
15049SOL    HW147526   3.175   8.184   2.926 -1.1796 -0.5148  1.6467
15049SOL    HW247527   3.105   8.082   2.839 -0.1676 -0.6557  0.9789
15050SOL     OW47528   1.731   5.010   5.342 -0.0011 -0.6203  0.2194
15050SOL    HW147529   1.760   5.101   5.352 -0.5824 -0.3840 -0.2263
15050SOL    HW247530   1.668   4.998   5.413 -2.1014  0.2297 -1.4298
15051SOL     OW47531   3.554   2.213   4.083 -0.4957 -0.0021 -0.4145
15051SOL    HW147532   3.530   2.128   4.120  2.0661 -0.5524  0.1478
15051SOL    HW247533   3.626   2.194   4.024  1.4976  1.9718  1.2155
15052SOL     OW47534   4.930   9.656   8.954 -0.2517  0.2518 -0.6622
15052SOL    HW147535   4.951   9.570   8.991  0.4586  0.6859 -0.0118
15052SOL    HW247536   4.853   9.641   8.900  0.1191 -0.8848 -0.9132
15053SOL     OW47537   3.553  10.566   7.894 -0.1370  0.0995  0.3207
15053SOL    HW147538   3.540  10.533   7.805  0.4974 -0.1413  0.3072
15053SOL    HW247539   3.647  10.582   7.900 -0.1216 -0.2066  1.0522
15054SOL     OW47540   2.228   3.043  10.054 -0.0666 -0.1015  0.3292
15054SOL    HW147541   2.260   3.055  10.143 -0.0638 -2.9357  0.8107
15054SOL    HW247542   2.158   3.108  10.044  1.4249  1.7863  1.5493
15055SOL     OW47543   3.560   4.932   5.872 -0.6863 -0.2435 -0.1681
15055SOL    HW147544   3.568   4.914   5.966 -2.7727  3.5223  0.9447
15055SOL    HW247545   3.651   4.936   5.841  0.1994  0.4658  2.2246
15056SOL     OW47546   0.049   6.452   2.682 -0.2370  0.3027  0.1340
15056SOL    HW147547  -0.045   6.439   2.688  0.1155 -1.7555  2.9389
15056SOL    HW247548   0.085   6.364   2.671  1.3939  1.0818 -1.2567
15057SOL     OW47549   7.963   7.613   8.280 -0.0841  0.0904  0.1245
15057SOL    HW147550   7.962   7.530   8.231 -1.1437  1.1844 -1.8118
15057SOL    HW247551   8.051   7.648   8.264 -1.1422  1.6210 -3.2932
15058SOL     OW47552   8.298   8.930   5.396  0.1684  0.3552  0.2627
15058SOL    HW147553   8.356   8.885   5.457  2.5363 -1.5252 -3.0032
15058SOL    HW247554   8.350   9.003   5.363 -0.3335  0.2828 -0.7267
15059SOL     OW47555   5.233   1.854   0.478  0.2363 -0.2074 -0.1594
15059SOL    HW147556   5.201   1.941   0.502 -0.5692 -0.5396  0.0022
15059SOL    HW247557   5.293   1.870   0.405 -0.6444  0.3970 -0.7752
15060SOL     OW47558   5.332   0.789   1.549 -0.1652  0.1999 -0.0027
15060SOL    HW147559   5.383   0.709   1.564  1.5226  0.9749 -1.2575
15060SOL    HW247560   5.308   0.785   1.456 -1.7321  0.2698  0.3661
15061SOL     OW47561   1.500   8.349   9.663 -0.5745  0.4497  1.0221
15061SOL    HW147562   1.482   8.408   9.590 -1.5173  0.5292  1.3163
15061SOL    HW247563   1.567   8.394   9.715 -1.6680  1.5171  1.5327
15062SOL     OW47564   0.752   1.569   2.161  0.7509 -0.1695 -0.8217
15062SOL    HW147565   0.754   1.567   2.065  0.4885  2.6354 -0.9634
15062SOL    HW247566   0.659   1.576   2.183  0.8599 -0.0746 -0.3886
15063SOL     OW47567   6.035   9.764   6.676  0.1986 -0.0253 -0.2734
15063SOL    HW147568   6.089   9.690   6.704  1.8730  1.4389  0.5573
15063SOL    HW247569   6.006   9.805   6.757 -1.8302 -0.4640 -0.7041
15064SOL     OW47570   5.381   6.686   1.296 -0.1563 -0.3408 -0.1068
15064SOL    HW147571   5.391   6.645   1.382  2.9300 -0.1073 -0.2250
15064SOL    HW247572   5.392   6.779   1.313 -0.2005 -0.2308 -0.6697
15065SOL     OW47573   7.820   2.392   7.867 -0.0355  0.0120  0.0529
15065SOL    HW147574   7.888   2.331   7.840  0.0606  0.3555 -0.4773
15065SOL    HW247575   7.848   2.423   7.953 -0.0983 -0.7059  0.3391
15066SOL     OW47576   6.446   6.301   5.783  0.2003  0.1058  0.0864
15066SOL    HW147577   6.512   6.304   5.853 -1.0293  1.0849  1.2473
15066SOL    HW247578   6.403   6.386   5.787  0.6265  0.5002 -2.4373
15067SOL     OW47579   4.123   0.118   5.226  0.1477  0.2940  0.1108
15067SOL    HW147580   4.033   0.097   5.203  0.4823  0.8878 -2.0326
15067SOL    HW247581   4.138   0.077   5.311 -1.3969 -1.8635 -0.6025
15068SOL     OW47582   8.611   0.847   0.608  0.4615  0.2976 -0.4632
15068SOL    HW147583   8.592   0.757   0.581  1.7018 -0.1696  0.1129
15068SOL    HW247584   8.674   0.879   0.542 -0.0062  0.7690 -0.6898
15069SOL     OW47585   8.213   8.070   9.220  0.1473 -0.3302 -0.2172
15069SOL    HW147586   8.190   8.136   9.285  1.7315 -0.3247  0.3930
15069SOL    HW247587   8.231   8.120   9.140 -0.1123 -0.1722 -0.1768
15070SOL     OW47588   4.525   7.557   8.116 -0.2167  0.3476  0.2640
15070SOL    HW147589   4.473   7.625   8.074 -2.4677 -1.5897 -0.2691
15070SOL    HW247590   4.579   7.604   8.180 -0.3878  2.7832 -1.2789
15071SOL     OW47591   1.871   6.752   4.199 -0.1728 -0.2596 -0.3447
15071SOL    HW147592   1.828   6.708   4.126  0.8020  1.3233 -1.9377
15071SOL    HW247593   1.821   6.833   4.210 -2.0178 -1.6081  2.6194
15072SOL     OW47594  10.357   7.412   8.885 -0.1236  0.5401  0.1056
15072SOL    HW147595  10.263   7.395   8.874  0.2930 -0.6513 -2.1551
15072SOL    HW247596  10.361   7.504   8.909 -1.8561  0.8358 -0.5450
15073SOL     OW47597   0.194   6.085   4.431  0.0481  0.5725 -0.1510
15073SOL    HW147598   0.265   6.126   4.481  1.1425  0.5885 -1.6691
15073SOL    HW247599   0.174   6.005   4.481 -1.4085  2.2859  2.2693
15074SOL     OW47600   0.587   9.271  10.057 -0.1044 -0.7033  0.0771
15074SOL    HW147601   0.558   9.252  10.147 -1.8486  1.4477  0.0725
15074SOL    HW247602   0.515   9.239  10.002  0.7714 -1.6392 -0.5568
15075SOL     OW47603   7.362   8.692   2.415  0.4379 -0.4936  0.3564
15075SOL    HW147604   7.339   8.600   2.404 -1.4263  0.0038 -0.4919
15075SOL    HW247605   7.378   8.703   2.508  0.8726 -1.7067  0.4366
15076SOL     OW47606   4.834   6.783   1.489 -0.2700  0.0602 -0.4011
15076SOL    HW147607   4.865   6.817   1.405 -0.8132 -3.2295 -2.1056
15076SOL    HW247608   4.913   6.757   1.535 -0.0609 -0.5546 -1.0808
15077SOL     OW47609   8.344   6.836   8.776  0.5489  0.7060  0.0361
15077SOL    HW147610   8.414   6.793   8.727 -0.9059 -1.2717 -0.4124
15077SOL    HW247611   8.269   6.778   8.768 -0.7307  1.9878  1.7992
15078SOL     OW47612   5.238  10.252   3.308  0.5570  0.4862 -0.7370
15078SOL    HW147613   5.236  10.171   3.259  1.7102  0.3956 -0.6604
15078SOL    HW247614   5.331  10.271   3.320  0.3353  0.4639  1.4617
15079SOL     OW47615   8.672  10.236   0.729  0.1879  0.0812  0.1214
15079SOL    HW147616   8.712  10.245   0.815  1.0780 -0.4487 -0.2202
15079SOL    HW247617   8.674  10.142   0.711  0.2154  0.2077 -0.5655
15080SOL     OW47618   6.712   0.612   4.584 -0.2193  0.0584 -0.1440
15080SOL    HW147619   6.755   0.684   4.538  0.0992 -1.3777 -2.2563
15080SOL    HW247620   6.643   0.654   4.636  0.6403  1.9555 -0.4526
15081SOL     OW47621   6.866   8.276   5.208  0.5474  0.8449 -0.3223
15081SOL    HW147622   6.938   8.222   5.174  0.0171  0.8250 -1.4533
15081SOL    HW247623   6.897   8.366   5.195  0.6608  0.8330 -0.1424
15082SOL     OW47624   2.476   2.626   9.945  0.2676 -0.2539 -0.9462
15082SOL    HW147625   2.570   2.638   9.935  0.4367 -2.0969 -2.0602
15082SOL    HW247626   2.443   2.620   9.855 -0.9273  0.3419 -0.5734
15083SOL     OW47627   6.786   8.691   4.764 -0.3575 -0.2940 -0.0893
15083SOL    HW147628   6.754   8.621   4.707  1.7534  0.3625 -2.2277
15083SOL    HW247629   6.831   8.752   4.705  3.8254 -0.5916  2.3858
15084SOL     OW47630   0.036   7.084   6.921  0.7027 -0.3822  0.2280
15084SOL    HW147631   0.098   7.124   6.860 -1.3330  0.4649 -1.4032
15084SOL    HW247632   0.018   7.153   6.985  1.5717 -0.7162  0.8609
15085SOL     OW47633  10.148   3.647   0.614 -0.3618  0.5373  0.0894
15085SOL    HW147634  10.172   3.713   0.680 -0.3143 -0.5880  1.2228
15085SOL    HW247635  10.174   3.564   0.652 -2.7676 -0.4231 -0.1649
15086SOL     OW47636   1.635   0.155   3.786  0.5715  0.2793 -0.0903
15086SOL    HW147637   1.681   0.072   3.794  0.7408  0.4528  0.9366
15086SOL    HW247638   1.600   0.171   3.874 -1.2234  0.2843 -0.7589
15087SOL     OW47639  10.018   5.137   3.688  0.3297  0.4260  0.0472
15087SOL    HW147640   9.984   5.054   3.654  0.6855 -0.3209  1.4331
15087SOL    HW247641  10.111   5.120   3.702  0.0233  0.3108  2.3595
15088SOL     OW47642   4.107   3.182   8.968 -0.2724  0.2388  0.1766
15088SOL    HW147643   4.080   3.125   8.896 -1.4995  1.3003 -0.2352
15088SOL    HW247644   4.192   3.146   8.996 -0.3129 -0.8807 -1.0314
15089SOL     OW47645   1.905   6.794   1.968 -0.4573  0.2504  0.1008
15089SOL    HW147646   1.868   6.819   2.053  1.1916 -1.5229  1.4154
15089SOL    HW247647   1.934   6.704   1.980  0.0929  0.0485 -2.2877
15090SOL     OW47648   4.008   9.004   4.970  0.2432 -0.6877  0.5144
15090SOL    HW147649   4.000   8.916   4.933  0.3214 -0.2615 -0.5817
15090SOL    HW247650   3.918   9.037   4.974  0.2836 -0.5252  0.1481
15091SOL     OW47651   4.732   2.392   0.023  0.3558 -0.1583 -0.0266
15091SOL    HW147652   4.638   2.407   0.021  0.6835  3.0118  1.9781
15091SOL    HW247653   4.761   2.408  -0.067 -0.9351 -0.6724 -0.5494
15092SOL     OW47654   4.191   0.330   9.056  0.4660 -0.1007  0.8209
15092SOL    HW147655   4.098   0.317   9.039  1.0444 -0.6374 -2.8285
15092SOL    HW247656   4.206   0.423   9.038  0.7024 -0.1116  0.9587
15093SOL     OW47657   3.576   8.808   7.133  0.0666 -0.6196 -0.0279
15093SOL    HW147658   3.496   8.799   7.081 -0.1480 -0.3924  0.2577
15093SOL    HW247659   3.603   8.718   7.152  0.8300 -0.7542 -1.5507
15094SOL     OW47660   2.346   9.730   1.460  0.4109  0.2875 -0.1973
15094SOL    HW147661   2.254   9.704   1.461  0.0520  1.5286  0.9218
15094SOL    HW247662   2.380   9.706   1.547  1.1891 -0.2639 -0.6341
15095SOL     OW47663   1.482  10.736   9.526  0.0633 -0.4012  0.1573
15095SOL    HW147664   1.423  10.675   9.482  0.5248 -1.6441  1.2019
15095SOL    HW247665   1.448  10.823   9.503 -2.6668 -1.0657  1.3761
15096SOL     OW47666   2.772   9.610  10.292  0.3778 -0.0170 -0.1995
15096SOL    HW147667   2.834   9.544  10.322 -0.3250 -1.3415 -1.5605
15096SOL    HW247668   2.687   9.580  10.325 -0.0141 -0.0709 -1.2247
15097SOL     OW47669  10.629   8.163   9.540  0.4734  0.7936  0.2548
15097SOL    HW147670  10.597   8.239   9.492 -0.1857 -0.1589 -0.8685
15097SOL    HW247671  10.698   8.198   9.596  1.3185  1.9717 -1.4074
15098SOL     OW47672   6.354   5.170   6.108 -0.4751  0.1471 -0.6314
15098SOL    HW147673   6.322   5.228   6.177 -0.0644  0.4449 -0.6914
15098SOL    HW247674   6.411   5.225   6.054 -0.5180 -0.1726 -1.0060
15099SOL     OW47675   2.371   0.277   3.683  0.9169 -0.5986  0.4502
15099SOL    HW147676   2.377   0.335   3.759  4.1891 -1.7837  1.2831
15099SOL    HW247677   2.368   0.189   3.721 -2.1170 -1.1621 -0.8187
15100SOL     OW47678   4.932   2.442   2.280 -0.3185 -0.0263 -0.2112
15100SOL    HW147679   4.898   2.388   2.209 -0.6820  1.3397 -1.1275
15100SOL    HW247680   4.867   2.434   2.349 -0.4679 -0.5865 -0.4098
15101SOL     OW47681   1.112   6.191   2.627 -0.1299 -0.8211 -0.2365
15101SOL    HW147682   1.150   6.122   2.683  1.3397 -1.1942 -1.6153
15101SOL    HW247683   1.029   6.212   2.669  0.2768 -2.0632  1.3134
15102SOL     OW47684   2.299   0.121   4.230  0.3226  0.2284  0.2937
15102SOL    HW147685   2.252   0.057   4.177 -0.0514  0.7224  0.0148
15102SOL    HW247686   2.367   0.155   4.171  0.1747  0.4742  0.2631
15103SOL     OW47687  10.158   3.175   7.553  0.3077  0.4760 -0.0136
15103SOL    HW147688  10.144   3.267   7.576 -0.1922  0.0521  1.5414
15103SOL    HW247689  10.140   3.170   7.459 -2.4246  1.4723  0.3607
15104SOL     OW47690   8.240   3.151   5.343  0.0174  0.6141  0.5990
15104SOL    HW147691   8.150   3.170   5.370  0.2404  0.2284  1.6562
15104SOL    HW247692   8.294   3.214   5.391  0.3240  0.7456  0.0858
15105SOL     OW47693   9.974   9.724   5.868 -0.0748 -0.8453  0.7544
15105SOL    HW147694   9.995   9.817   5.880  0.0566 -0.6539 -0.8209
15105SOL    HW247695  10.053   9.688   5.828 -1.5240 -0.7518 -2.4623
15106SOL     OW47696  10.434   1.435   2.709 -0.1278  0.1783 -0.2095
15106SOL    HW147697  10.440   1.490   2.630 -0.9234  0.7230  0.0980
15106SOL    HW247698  10.359   1.378   2.693  1.5621 -1.9069 -1.1660
15107SOL     OW47699   8.715   1.325   9.092 -0.2367 -0.2004  0.6967
15107SOL    HW147700   8.806   1.301   9.108 -0.0718 -0.7568 -0.9069
15107SOL    HW247701   8.683   1.356   9.177  1.7793  1.1779  1.0279
15108SOL     OW47702   6.262   3.537   8.356 -0.0901  0.5209 -0.0209
15108SOL    HW147703   6.333   3.528   8.293  0.8597  0.3822  1.0472
15108SOL    HW247704   6.215   3.454   8.352  1.4492 -0.4630  1.1908
15109SOL     OW47705   3.444   6.489  10.149 -0.0009 -0.2863  0.4299
15109SOL    HW147706   3.427   6.434  10.073 -0.3303  0.7809 -0.2893
15109SOL    HW247707   3.385   6.456  10.217  1.0342 -1.9313  0.5973
15110SOL     OW47708   2.316   2.713   3.161 -0.2388  0.0001 -0.6116
15110SOL    HW147709   2.305   2.624   3.195 -0.1218  0.5203  0.9031
15110SOL    HW247710   2.269   2.715   3.078 -3.1407 -0.5526  0.9135
15111SOL     OW47711   8.038   2.680   9.172 -0.2041 -0.7573 -0.5840
15111SOL    HW147712   7.974   2.649   9.108 -0.0865 -1.4864 -0.3583
15111SOL    HW247713   8.025   2.775   9.175 -0.4291 -0.7503 -1.4438
15112SOL     OW47714   0.146   7.594   1.443  0.7160  0.0240 -0.4965
15112SOL    HW147715   0.142   7.500   1.460  1.5280 -0.1045 -0.9600
15112SOL    HW247716   0.235   7.609   1.411  0.4451  0.8716 -0.8905
15113SOL     OW47717   0.895   0.212   1.703  0.4308 -0.0979  0.3107
15113SOL    HW147718   0.910   0.211   1.797  0.2646 -0.2383  0.3361
15113SOL    HW247719   0.982   0.205   1.664  0.4712 -0.4200  0.4551
15114SOL     OW47720   0.296   6.071   1.628 -0.4877  0.7903  0.2032
15114SOL    HW147721   0.229   6.032   1.572 -0.8018  1.3820  0.1672
15114SOL    HW247722   0.327   5.997   1.682  0.2967  0.0623 -1.1830
15115SOL     OW47723   0.695   3.509   0.765 -0.0434 -0.1042 -0.6045
15115SOL    HW147724   0.682   3.538   0.855 -2.0990  0.9047 -1.1610
15115SOL    HW247725   0.708   3.414   0.772 -0.6955 -0.1235  0.7023
15116SOL     OW47726   8.354   5.602   2.030  0.3129 -0.8099 -0.0146
15116SOL    HW147727   8.443   5.632   2.013  1.1846 -3.0310  0.3178
15116SOL    HW247728   8.299   5.676   2.005  2.0691 -0.2343 -2.5817
15117SOL     OW47729   9.162   0.145   1.081 -0.6406  0.3460  0.3222
15117SOL    HW147730   9.211   0.103   1.010 -1.7631 -0.3829 -0.0481
15117SOL    HW247731   9.212   0.223   1.101 -0.1031  0.3851 -1.0436
15118SOL     OW47732   5.133   8.406  10.724  0.0201  0.3826 -0.4352
15118SOL    HW147733   5.048   8.376  10.755  0.7030 -1.2636 -0.0475
15118SOL    HW247734   5.176   8.440  10.803 -0.4320  1.6621 -0.7177
15119SOL     OW47735   3.891   5.497   5.675  0.3160 -0.0560 -0.6373
15119SOL    HW147736   3.851   5.547   5.604 -0.6720  2.7864  1.7415
15119SOL    HW247737   3.818   5.448   5.714 -0.0307  1.6121  0.9031
15120SOL     OW47738   8.821   4.810   6.525 -0.1300  0.2191 -0.2830
15120SOL    HW147739   8.893   4.849   6.476 -1.4600  0.0822 -2.4690
15120SOL    HW247740   8.815   4.721   6.491 -2.7411  0.9153 -1.8548
15121SOL     OW47741   8.437   0.188   5.131  0.0128 -0.2327  0.9262
15121SOL    HW147742   8.522   0.221   5.101 -0.2459 -1.6492 -1.6412
15121SOL    HW247743   8.377   0.261   5.114  0.3541 -0.0124  0.6320
15122SOL     OW47744   0.428   0.676   7.895 -0.3714  0.5076 -0.0428
15122SOL    HW147745   0.429   0.771   7.886  0.6418  0.5338  0.1458
15122SOL    HW247746   0.449   0.644   7.807  0.2174  0.4907  0.1005
15123SOL     OW47747   9.697   9.264   2.096 -0.3244  0.4226 -0.0507
15123SOL    HW147748   9.717   9.197   2.161 -1.4755 -0.2565 -0.3525
15123SOL    HW247749   9.606   9.288   2.113 -0.1384  1.4044 -0.3930
15124SOL     OW47750   4.531   2.487   3.608 -0.6775 -0.4993  0.0728
15124SOL    HW147751   4.529   2.447   3.521 -0.1367  0.1775 -0.2637
15124SOL    HW247752   4.454   2.453   3.652 -0.1566 -2.0106 -0.1423
15125SOL     OW47753   6.886   2.682   6.020 -0.1517  0.4071  0.1463
15125SOL    HW147754   6.808   2.707   5.969  0.9724  2.3144 -0.7734
15125SOL    HW247755   6.931   2.617   5.966  0.5585  1.7489 -0.9480
15126SOL     OW47756   2.289   5.168   4.631 -0.0347  0.6371  0.2384
15126SOL    HW147757   2.214   5.207   4.586 -0.1168 -0.2273 -0.4007
15126SOL    HW247758   2.365   5.215   4.597 -0.0644 -0.2048 -1.0629
15127SOL     OW47759   2.713   3.591   1.722 -0.0517  0.4475  0.1842
15127SOL    HW147760   2.620   3.574   1.712  0.2231 -1.7939  0.9062
15127SOL    HW247761   2.718   3.683   1.747 -1.9834  0.8485 -0.6914
15128SOL     OW47762   8.999   7.880   2.568 -0.1628  0.1359 -0.7477
15128SOL    HW147763   8.928   7.910   2.623 -0.4682  1.2538 -1.7018
15128SOL    HW247764   8.965   7.886   2.479  0.9449  0.2296 -1.1911
15129SOL     OW47765   3.687   5.146   9.571  0.0346 -0.0485  0.3940
15129SOL    HW147766   3.619   5.172   9.634 -0.1190 -2.1625  1.2007
15129SOL    HW247767   3.640   5.098   9.503  0.5086 -0.1074  0.1035
15130SOL     OW47768   6.221   2.767   9.999  0.1268 -0.2657  0.0342
15130SOL    HW147769   6.164   2.820   9.945 -0.5602 -1.9138 -0.9497
15130SOL    HW247770   6.251   2.826  10.068 -4.0442  0.3303  1.6064
15131SOL     OW47771   4.479   3.877  10.689  0.3094 -0.4812  0.4721
15131SOL    HW147772   4.395   3.832  10.703 -0.3475  0.1131 -1.2286
15131SOL    HW247773   4.457   3.949  10.629  2.1665 -0.8217 -0.6932
15132SOL     OW47774   7.977   5.363   2.320 -0.0676  0.4833 -0.4695
15132SOL    HW147775   7.899   5.418   2.331  0.5163  1.4178 -0.9360
15132SOL    HW247776   8.007   5.382   2.232  1.9191  1.7770  0.4185
15133SOL     OW47777   7.215   9.468   6.153  0.3268  0.3411 -0.3032
15133SOL    HW147778   7.134   9.489   6.200 -1.0428 -2.2332 -1.2940
15133SOL    HW247779   7.199   9.499   6.064 -0.6132 -2.1385 -1.0838
15134SOL     OW47780   8.141   6.852   2.489  0.1336  0.2558  0.0977
15134SOL    HW147781   8.103   6.813   2.568 -0.4982 -1.1186 -0.8377
15134SOL    HW247782   8.234   6.830   2.495  0.6128  2.4158  1.7016
15135SOL     OW47783   3.254   9.401   3.959 -0.2585  0.2422 -0.2396
15135SOL    HW147784   3.323   9.340   3.984  0.7078  0.6087 -1.8509
15135SOL    HW247785   3.299   9.483   3.942 -1.1819  0.6768 -0.6759
15136SOL     OW47786   2.865   6.765   5.293 -0.0230 -0.2390 -0.3152
15136SOL    HW147787   2.932   6.826   5.324 -0.4386 -0.0980  0.3292
15136SOL    HW247788   2.802   6.761   5.365 -1.6593  1.0433 -1.5754
15137SOL     OW47789   1.087   8.901   3.975 -0.3931 -0.5938 -0.2208
15137SOL    HW147790   1.013   8.872   4.028 -1.7189  0.3474 -1.4662
15137SOL    HW247791   1.057   8.890   3.884 -0.2938  2.6639 -0.7877
15138SOL     OW47792   3.397   3.608   2.695  0.0655 -0.4190  0.4954
15138SOL    HW147793   3.489   3.620   2.673 -0.3442 -0.7678 -1.5905
15138SOL    HW247794   3.354   3.687   2.664 -0.5033 -0.7751  0.3654
15139SOL     OW47795   4.410   1.982   3.324 -0.4779 -0.4558 -0.2410
15139SOL    HW147796   4.431   1.920   3.255 -2.2248 -0.9318 -0.3964
15139SOL    HW247797   4.321   1.958   3.352 -1.0500  1.7057 -0.0136
15140SOL     OW47798   1.052   7.793   0.969 -0.0815 -0.4871 -0.1237
15140SOL    HW147799   1.095   7.874   0.999  0.0623 -0.8705  0.7359
15140SOL    HW247800   1.003   7.762   1.045 -2.0040 -0.0167 -1.1070
15141SOL     OW47801  10.480   0.573   8.226 -0.6481 -0.3187  0.1851
15141SOL    HW147802  10.405   0.513   8.221 -0.0782 -0.9633 -1.0962
15141SOL    HW247803  10.479   0.604   8.316 -3.8828  1.5665 -0.3176
15142SOL     OW47804   6.678   7.644   6.309  0.1684 -0.7605 -0.0819
15142SOL    HW147805   6.679   7.551   6.285 -2.0384 -0.8339 -0.0760
15142SOL    HW247806   6.658   7.644   6.403 -0.2729 -0.2781 -0.1703
15143SOL     OW47807   2.866   0.651   5.698  0.0582 -0.2593 -0.2915
15143SOL    HW147808   2.870   0.712   5.772  1.6664 -0.5550 -0.0887
15143SOL    HW247809   2.808   0.581   5.727 -0.9105  0.6155 -0.0924
15144SOL     OW47810   3.784   1.915   3.648  0.2031  0.0791 -0.3185
15144SOL    HW147811   3.705   1.940   3.696 -0.2016  0.0779 -0.9760
15144SOL    HW247812   3.854   1.967   3.688 -0.1306  0.1074  0.2440
15145SOL     OW47813   6.314   6.525   8.859  0.5219 -0.3239 -0.1672
15145SOL    HW147814   6.287   6.575   8.936  0.5700  1.6742 -1.3853
15145SOL    HW247815   6.366   6.586   8.807  0.4096 -1.5731 -1.8514
15146SOL     OW47816   1.470   2.794   5.901 -0.4198 -0.6027 -0.5311
15146SOL    HW147817   1.511   2.707   5.913 -1.9450 -1.3384 -0.4770
15146SOL    HW247818   1.460   2.827   5.990  2.7002  0.9241 -0.6139
15147SOL     OW47819   2.341   8.065   6.127 -0.8063 -0.0183  0.1030
15147SOL    HW147820   2.395   8.143   6.139 -0.2680 -0.2633 -0.6332
15147SOL    HW247821   2.386   7.997   6.176 -1.5612  0.2472  1.1844
15148SOL     OW47822   4.892   9.206   7.961  0.5640 -0.2221  0.0606
15148SOL    HW147823   4.821   9.230   8.021 -1.0162  0.3748 -1.9347
15148SOL    HW247824   4.878   9.260   7.884  2.4483 -1.0389 -0.9237
15149SOL     OW47825   0.083   2.155   4.441 -0.0482 -0.0110  0.0603
15149SOL    HW147826   0.052   2.245   4.432  0.6129  0.0821 -1.5123
15149SOL    HW247827   0.007   2.101   4.418 -0.9413  0.0536  2.5392
15150SOL     OW47828   4.119   5.863   8.013  0.4342  0.7315 -0.0229
15150SOL    HW147829   4.184   5.934   8.008  0.3745  0.8938  1.1721
15150SOL    HW247830   4.053   5.887   7.948  0.0679  2.1581  0.8192
15151SOL     OW47831   3.195   4.488   1.930  0.3821  0.6828  0.1421
15151SOL    HW147832   3.190   4.548   1.855  0.5181 -0.1021 -0.5145
15151SOL    HW247833   3.233   4.408   1.893 -2.7726 -0.9880  0.2500
15152SOL     OW47834   1.350   9.428   7.747 -0.6201 -0.0884  0.0427
15152SOL    HW147835   1.420   9.363   7.739 -0.2764  0.1319  1.1579
15152SOL    HW247836   1.349   9.472   7.662  0.0732 -0.6173 -0.2512
15153SOL     OW47837   9.503   9.795   2.785 -0.4416 -0.5785  0.2103
15153SOL    HW147838   9.479   9.838   2.703 -1.1807  0.3496  0.8867
15153SOL    HW247839   9.420   9.778   2.829 -0.0248  0.6967  1.6185
15154SOL     OW47840   3.999   6.744   2.785 -0.2202 -0.1848  0.3268
15154SOL    HW147841   3.978   6.781   2.699  0.6957  0.6837  0.4596
15154SOL    HW247842   3.924   6.688   2.806 -0.8970  0.3417 -0.6030
15155SOL     OW47843   6.819   8.131   2.725  0.3932  0.1238  0.0954
15155SOL    HW147844   6.753   8.123   2.794  2.5979 -1.1955  2.2387
15155SOL    HW247845   6.840   8.041   2.701 -0.0031  0.5630 -2.0322
15156SOL     OW47846   2.320   3.823   5.031 -0.7205 -0.0729  0.1250
15156SOL    HW147847   2.411   3.806   5.054 -0.3335  1.3998 -0.2308
15156SOL    HW247848   2.290   3.886   5.096 -0.6744  1.4262 -1.2288
15157SOL     OW47849   1.088   3.300   8.246  0.0611  0.2105 -0.1759
15157SOL    HW147850   1.165   3.248   8.271 -1.2547 -1.7028  0.0454
15157SOL    HW247851   1.015   3.239   8.248 -1.4787  1.9353 -0.5748
15158SOL     OW47852   2.675   1.734   0.777 -0.1016  0.0827 -0.2539
15158SOL    HW147853   2.706   1.821   0.754 -1.3667  0.8996  1.0156
15158SOL    HW247854   2.755   1.680   0.777  0.6384  1.1268 -1.4218
15159SOL     OW47855   2.466   3.753   9.883 -0.3594 -0.2942 -0.2314
15159SOL    HW147856   2.526   3.828   9.884 -0.3367 -0.2546 -1.7178
15159SOL    HW247857   2.420   3.760   9.799  0.4792 -2.5575 -0.9715
15160SOL     OW47858   8.504  10.543   9.695  1.0159 -0.3446 -0.1441
15160SOL    HW147859   8.483  10.492   9.773  0.3644 -2.1068 -1.4110
15160SOL    HW247860   8.421  10.550   9.648  1.2588  1.2693 -0.3775
15161SOL     OW47861   3.314   6.959   9.030 -0.5540  0.3836  0.0162
15161SOL    HW147862   3.341   7.013   9.104 -0.7292 -1.6571  1.6274
15161SOL    HW247863   3.226   6.930   9.052 -0.0136 -1.5429 -0.1900
15162SOL     OW47864   5.371   2.353   7.051 -0.0520  0.0401  0.8983
15162SOL    HW147865   5.343   2.432   7.097 -1.7661  0.4412 -0.7560
15162SOL    HW247866   5.427   2.384   6.981 -1.1563 -0.1210 -0.0865
15163SOL     OW47867   9.330   4.200  10.122 -0.4699  0.2790  0.3714
15163SOL    HW147868   9.279   4.280  10.134  1.0200  1.5576 -1.3473
15163SOL    HW247869   9.408   4.228  10.076  0.4674 -2.0787  0.3997
15164SOL     OW47870   2.447   3.025   3.430  0.1760 -0.7107 -0.1592
15164SOL    HW147871   2.469   3.106   3.476 -0.1196 -0.9910  0.4964
15164SOL    HW247872   2.438   2.960   3.500 -0.6632 -1.0643 -0.5798
15165SOL     OW47873   3.412   8.457   5.222  0.4006 -0.2329 -0.1726
15165SOL    HW147874   3.330   8.409   5.230  0.2784  0.1856  1.2764
15165SOL    HW247875   3.403   8.531   5.282  0.4994  1.7538 -2.4600
15166SOL     OW47876   2.784   6.375   9.347  0.3925 -0.6396 -0.0247
15166SOL    HW147877   2.702   6.399   9.391 -0.3584 -1.2220 -1.0548
15166SOL    HW247878   2.831   6.458   9.338 -0.5051 -0.1419 -0.2513
15167SOL     OW47879   2.673   0.180   5.247 -0.6002 -0.8323  0.2785
15167SOL    HW147880   2.740   0.209   5.308 -0.5085  0.6764 -0.4969
15167SOL    HW247881   2.721   0.133   5.179 -0.5746 -1.4909  0.7415
15168SOL     OW47882   7.936   5.490   5.739 -0.4191  0.3530  0.4789
15168SOL    HW147883   7.846   5.466   5.718  0.6766 -0.7613 -3.9852
15168SOL    HW247884   7.986   5.409   5.727  1.4040  1.2280  1.5646
15169SOL     OW47885   1.783   3.538   6.841  0.2243 -0.1652  0.7899
15169SOL    HW147886   1.787   3.443   6.829  0.0722 -0.0400 -0.3748
15169SOL    HW247887   1.750   3.571   6.757  1.2110  0.9869  0.8273
15170SOL     OW47888   3.706   7.446   7.142  0.1503 -0.0451 -0.5639
15170SOL    HW147889   3.646   7.413   7.075  0.2699  2.0068 -1.7335
15170SOL    HW247890   3.716   7.372   7.203 -2.7037 -0.8134 -0.8849
15171SOL     OW47891   1.641   7.999   7.484  0.0186  0.0705  0.0787
15171SOL    HW147892   1.718   8.027   7.434  0.3317 -1.3862 -0.2951
15171SOL    HW247893   1.634   7.905   7.466 -1.9847  0.2242 -0.0681
15172SOL     OW47894   6.616   1.404   0.110  0.0310  0.4110 -0.0369
15172SOL    HW147895   6.602   1.324   0.059  1.1466  0.2063 -0.0385
15172SOL    HW247896   6.645   1.469   0.045 -0.1463  0.6066  0.0796
15173SOL     OW47897   9.019   7.515  10.693  0.6329  0.0303 -0.1637
15173SOL    HW147898   9.057   7.594  10.653  1.1330  0.3761  0.9619
15173SOL    HW247899   8.931   7.542  10.719  0.7370  0.1730  0.0502
15174SOL     OW47900   2.951   5.267   7.744 -0.3142 -0.1898 -0.0468
15174SOL    HW147901   2.944   5.344   7.687  1.0339 -1.7099 -2.4531
15174SOL    HW247902   3.045   5.256   7.757 -0.3559 -2.2103 -1.0156
15175SOL     OW47903   4.926  10.576   5.096 -0.7176  0.4916 -0.0085
15175SOL    HW147904   5.009  10.622   5.080  0.0781 -0.3290  1.5912
15175SOL    HW247905   4.951  10.486   5.114 -1.9142  0.3277  0.9756
15176SOL     OW47906   3.732   5.783   4.178  0.0317 -0.2551  0.0324
15176SOL    HW147907   3.803   5.842   4.155  0.6783 -1.7610 -2.1933
15176SOL    HW247908   3.769   5.695   4.169 -0.6681 -1.1554  3.9069
15177SOL     OW47909   8.105   5.645   4.119  0.8896 -0.7852 -0.6081
15177SOL    HW147910   8.071   5.734   4.124 -0.0553 -1.2015  0.5892
15177SOL    HW247911   8.031   5.589   4.141  1.1774 -1.9553 -2.3671
15178SOL     OW47912   2.781   9.286   1.581  0.2643  0.1563 -0.2562
15178SOL    HW147913   2.867   9.298   1.620  0.8385  0.3565 -1.5413
15178SOL    HW247914   2.729   9.245   1.650  0.7892  1.8358  1.2344
15179SOL     OW47915  10.537   5.062   0.914  0.4273  0.5343 -0.1114
15179SOL    HW147916  10.476   4.988   0.905 -1.7396  1.9459  1.8525
15179SOL    HW247917  10.604   5.045   0.848 -0.3571 -2.7828 -0.2641
15180SOL     OW47918   1.086   5.399   0.682 -0.1505 -0.3149 -0.3908
15180SOL    HW147919   1.076   5.334   0.613  0.7842 -0.8533 -0.0370
15180SOL    HW247920   1.160   5.368   0.734  0.5205  1.1805 -0.3908
15181SOL     OW47921   4.089   9.078   7.376 -0.0766 -0.4194  0.0907
15181SOL    HW147922   4.108   9.158   7.326  1.2372 -0.8450 -0.1233
15181SOL    HW247923   4.139   9.010   7.333  2.0854 -0.5905  2.6107
15182SOL     OW47924   3.900  10.715   5.361  0.0073 -0.1061  0.0899
15182SOL    HW147925   3.842  10.716   5.437  1.0424  1.7217  0.9142
15182SOL    HW247926   3.860  10.776   5.300  0.7143  0.7121  0.4226
15183SOL     OW47927   2.637   8.983   2.690 -0.2719  0.9468 -0.2596
15183SOL    HW147928   2.702   8.914   2.679  1.2157  2.5713 -2.5528
15183SOL    HW247929   2.673   9.040   2.759  1.0437  2.0459 -1.7760
15184SOL     OW47930   4.115   2.278   4.105  0.1713 -0.2831  0.1392
15184SOL    HW147931   4.117   2.220   4.182  0.3138  1.7781  1.7605
15184SOL    HW247932   4.207   2.289   4.082  0.1291 -0.8925 -0.3328
15185SOL     OW47933   0.289   1.336   6.069  0.1175  0.3580  0.2704
15185SOL    HW147934   0.278   1.245   6.043  0.3662 -0.1149  1.7146
15185SOL    HW247935   0.334   1.331   6.154  1.6873  1.8740 -0.4041
15186SOL     OW47936  10.189   2.577   8.538 -0.0228  0.1786 -0.1577
15186SOL    HW147937  10.197   2.665   8.575 -0.4054  0.8166 -1.5118
15186SOL    HW247938  10.255   2.575   8.468 -0.0504 -0.5988 -0.1741
15187SOL     OW47939   0.514   8.207   2.558  0.3572  0.7181  0.2497
15187SOL    HW147940   0.560   8.291   2.552  0.4162  0.5905 -3.2019
15187SOL    HW247941   0.451   8.210   2.486 -0.0363 -1.9752  0.3984
15188SOL     OW47942   4.699   2.716   8.532 -0.5028  0.0748 -0.5652
15188SOL    HW147943   4.674   2.808   8.543 -1.2526  0.1250 -2.3382
15188SOL    HW247944   4.643   2.669   8.594 -2.7154  0.5181 -2.0873
15189SOL     OW47945   7.175   9.461   0.196 -0.5114  0.1563  0.2705
15189SOL    HW147946   7.179   9.374   0.157 -5.0759 -0.5450  0.8307
15189SOL    HW247947   7.267   9.486   0.209  1.1377 -2.6370 -3.8857
15190SOL     OW47948   9.930   6.194   7.612  0.5824  0.0189 -0.0330
15190SOL    HW147949   9.982   6.190   7.692 -0.1980  1.7132  0.6090
15190SOL    HW247950   9.843   6.219   7.642  0.1033 -0.0231 -1.3490
15191SOL     OW47951   1.173   6.087  10.670 -0.0231  0.0999 -0.6357
15191SOL    HW147952   1.141   6.002  10.641 -0.1380 -0.0002 -0.2190
15191SOL    HW247953   1.097   6.129  10.710 -0.1814  0.7339 -1.5706
15192SOL     OW47954   1.736   6.308  10.569  0.6893  0.3115  0.3358
15192SOL    HW147955   1.756   6.391  10.610 -2.0690  1.8220 -1.0816
15192SOL    HW247956   1.817   6.282  10.525  2.4307  0.7281  3.1263
15193SOL     OW47957   8.245   1.007  10.097 -0.0286  0.1817  0.5050
15193SOL    HW147958   8.337   1.022  10.118  0.0135 -1.0906  1.3220
15193SOL    HW247959   8.200   1.006  10.181 -1.1727  2.8471  0.0179
15194SOL     OW47960   3.214   6.542   5.809  0.0214  0.2552  0.4045
15194SOL    HW147961   3.301   6.529   5.848  0.3641 -2.0910 -0.9723
15194SOL    HW247962   3.230   6.543   5.715 -1.4984 -0.8917  0.1008
15195SOL     OW47963   3.676   4.025   4.131  0.1628  0.0621 -0.4482
15195SOL    HW147964   3.732   3.950   4.148  0.6144 -0.0402 -2.2279
15195SOL    HW247965   3.722   4.075   4.064 -1.3875  0.5054 -1.2231
15196SOL     OW47966   3.231   2.771  10.349 -0.1916  0.3621  0.0435
15196SOL    HW147967   3.251   2.861  10.323 -0.1919  1.2863  2.9446
15196SOL    HW247968   3.315   2.725  10.339  0.5348  1.3878  1.1001
15197SOL     OW47969   9.688   7.659   3.040 -0.1140  0.4704 -0.8914
15197SOL    HW147970   9.695   7.614   2.956 -0.3691 -0.1236 -0.6017
15197SOL    HW247971   9.775   7.698   3.053  0.1850 -0.1224 -1.0504
15198SOL     OW47972   7.081   7.593   2.713  0.5303  0.2282 -0.7376
15198SOL    HW147973   7.147   7.523   2.703  0.9440  0.6516 -0.9969
15198SOL    HW247974   7.020   7.578   2.641  0.5954  0.1068 -0.7696
15199SOL     OW47975   5.089   8.165   6.059 -0.9308 -0.6816  0.0557
15199SOL    HW147976   5.117   8.116   6.136  0.5992 -0.8817 -0.5814
15199SOL    HW247977   5.048   8.244   6.095  1.8411  0.4071  1.1856
15200SOL     OW47978   1.138   7.223   7.414 -0.5000 -0.0899  0.1035
15200SOL    HW147979   1.101   7.308   7.435  1.8658  1.1659 -0.5463
15200SOL    HW247980   1.195   7.202   7.487 -2.5664 -2.1963  1.2852
15201SOL     OW47981  10.277   0.986   4.887  0.2084 -0.2203 -0.1810
15201SOL    HW147982  10.237   1.008   4.803 -1.3262 -2.5098 -0.1387
15201SOL    HW247983  10.363   0.951   4.865 -0.2415 -0.9362 -0.8550
15202SOL     OW47984   7.594   6.806   4.868  0.0248 -0.3265  0.0643
15202SOL    HW147985   7.670   6.845   4.910  0.1653 -0.8231  0.2876
15202SOL    HW247986   7.524   6.870   4.881  0.3264 -0.0074  0.1351
15203SOL     OW47987  10.285   0.731   3.627  0.1997 -0.0122 -0.9432
15203SOL    HW147988  10.219   0.788   3.667  1.5612 -0.0992  1.6785
15203SOL    HW247989  10.234   0.657   3.592 -1.1817  0.0023  0.8396
15204SOL     OW47990   6.964   1.927   1.178  0.1284  0.3105 -0.1220
15204SOL    HW147991   6.942   2.008   1.132  0.6437 -0.4582 -1.7942
15204SOL    HW247992   7.052   1.905   1.148 -0.3533 -1.3460 -0.4135
15205SOL     OW47993   3.099   3.442   9.311 -0.3207  0.0863 -0.7240
15205SOL    HW147994   3.079   3.430   9.218 -0.9658  2.3681 -0.9453
15205SOL    HW247995   3.039   3.512   9.339 -0.2363 -0.6424  1.4561
15206SOL     OW47996   5.949   4.520  10.758 -0.0342 -0.2179 -0.3118
15206SOL    HW147997   5.930   4.426  10.751 -0.5934  0.0227 -4.2812
15206SOL    HW247998   5.865   4.562  10.741  0.4340  1.0335  0.3741
15207SOL     OW47999   8.324   7.265   5.442 -0.6885  0.2632 -0.9100
15207SOL    HW148000   8.397   7.285   5.501 -0.7132 -0.0121 -0.7836
15207SOL    HW248001   8.338   7.174   5.418 -0.1697  0.6245 -2.0505
15208SOL     OW48002   7.824   6.651   7.815  0.3161 -0.0910  0.0685
15208SOL    HW148003   7.807   6.605   7.897  0.4463 -0.5152 -0.1413
15208SOL    HW248004   7.851   6.583   7.754  2.1825  0.4707  0.2136
15209SOL     OW48005   3.081   3.769   1.722 -0.0054  0.0566  0.1869
15209SOL    HW148006   3.049   3.682   1.698 -1.0223 -0.5644  3.3204
15209SOL    HW248007   3.004   3.814   1.756  1.0602  1.1369  1.2502
15210SOL     OW48008   6.006   3.195   5.041  0.1208 -0.1108 -0.1125
15210SOL    HW148009   6.076   3.144   5.001  0.9855  0.3152  0.8022
15210SOL    HW248010   6.001   3.275   4.990 -2.0078 -1.4868 -2.2690
15211SOL     OW48011   5.512  10.176   9.545 -0.8020 -0.2480 -0.1691
15211SOL    HW148012   5.580  10.167   9.479  0.1699  0.1563  0.7491
15211SOL    HW248013   5.439  10.218   9.499 -0.4751 -0.7893 -1.1909
15212SOL     OW48014  10.358   4.770   3.888 -0.5223  0.0172 -0.3864
15212SOL    HW148015  10.442   4.782   3.845 -0.9320  1.2899 -0.8782
15212SOL    HW248016  10.367   4.816   3.972 -0.3360 -0.9035  0.1186
15213SOL     OW48017   9.191   9.551   7.859 -0.1926  0.2827  0.2109
15213SOL    HW148018   9.102   9.576   7.833  0.6209  1.6884 -1.4008
15213SOL    HW248019   9.194   9.456   7.848 -1.2651  0.3064 -0.4579
15214SOL     OW48020   5.587  10.456  10.294  0.2720 -0.0757 -0.3784
15214SOL    HW148021   5.545  10.534  10.331 -0.1099 -0.6591  0.4602
15214SOL    HW248022   5.643  10.489  10.224 -0.8570  0.8302 -0.8921
15215SOL     OW48023   2.185   7.202   4.494  0.2066 -0.3595 -0.1737
15215SOL    HW148024   2.101   7.210   4.449  0.8073  0.2875 -1.2232
15215SOL    HW248025   2.233   7.281   4.468  0.2625  0.5195  2.3089
15216SOL     OW48026   4.323   8.419   2.476 -0.3651  0.7996 -0.0015
15216SOL    HW148027   4.240   8.391   2.516 -2.1155  3.2213 -1.6016
15216SOL    HW248028   4.319   8.384   2.386  1.0523 -0.2242  0.3042
15217SOL     OW48029   6.077   6.555   1.907  0.4722  0.1828  0.1184
15217SOL    HW148030   6.113   6.564   1.995  0.7310 -1.8525  0.2687
15217SOL    HW248031   6.153   6.545   1.850  0.2659  0.0317 -0.1373
15218SOL     OW48032   6.195   6.673   7.615  0.3061 -0.3965  0.4362
15218SOL    HW148033   6.188   6.736   7.544  0.1798 -0.8685  0.0278
15218SOL    HW248034   6.180   6.724   7.694 -0.4122 -0.0344  0.0682
15219SOL     OW48035   2.871   8.108   9.310 -0.3203 -0.2135  0.6903
15219SOL    HW148036   2.777   8.129   9.313  0.0670  1.6210  1.6920
15219SOL    HW248037   2.896   8.101   9.402  0.8596  1.1269  0.5051
15220SOL     OW48038   5.047   5.821   9.617 -0.1141  0.2833 -0.2253
15220SOL    HW148039   5.080   5.737   9.648  0.3068 -0.1046 -1.6411
15220SOL    HW248040   5.083   5.885   9.678  0.0704 -0.5024  0.5056
15221SOL     OW48041   7.983   0.391   2.022  0.5005  0.1919  0.3953
15221SOL    HW148042   7.947   0.309   2.058  0.0382  0.6618  1.0256
15221SOL    HW248043   8.077   0.376   2.020  0.3988 -0.4870  0.1811
15222SOL     OW48044   9.344   7.079   2.715 -0.3122  0.0170 -0.4513
15222SOL    HW148045   9.285   7.131   2.662 -0.3265 -0.6552 -1.1108
15222SOL    HW248046   9.362   7.001   2.662  1.2574  0.2578 -0.3185
15223SOL     OW48047   1.106   4.872   5.673  0.7875 -0.2843 -0.4382
15223SOL    HW148048   1.037   4.939   5.675  0.2628 -0.8106  1.5706
15223SOL    HW248049   1.183   4.918   5.641 -0.0127  0.8107 -0.8588
15224SOL     OW48050   7.403   0.453   0.171 -0.5226 -0.2003  0.4159
15224SOL    HW148051   7.498   0.445   0.167 -0.4274 -0.2194  2.1448
15224SOL    HW248052   7.371   0.363   0.179 -0.8979 -0.4375 -2.5095
15225SOL     OW48053   8.098  10.278   4.580  0.0256  0.0477 -0.1845
15225SOL    HW148054   8.094  10.235   4.666 -0.0473 -0.3781 -0.4000
15225SOL    HW248055   8.039  10.227   4.525  0.5300 -0.0389 -0.6484
15226SOL     OW48056   4.941   4.548   4.351  0.5219  0.4941 -0.3116
15226SOL    HW148057   4.979   4.491   4.284 -2.0545 -2.0125  0.1567
15226SOL    HW248058   4.949   4.498   4.432 -1.3760  0.9589  0.2143
15227SOL     OW48059   6.158   8.389  10.555  0.0235  0.3219  0.5817
15227SOL    HW148060   6.074   8.346  10.569  0.1579  0.4152  1.8211
15227SOL    HW248061   6.194   8.400  10.643  2.0303 -1.1010  0.0242
15228SOL     OW48062   1.272  10.014   6.820  0.1637 -0.6755 -0.1302
15228SOL    HW148063   1.262  10.079   6.890  0.2486  0.5813 -1.2433
15228SOL    HW248064   1.196  10.027   6.764 -0.3632 -2.2744  0.1881
15229SOL     OW48065   6.902   8.884   3.245 -0.4369 -0.1523  0.8022
15229SOL    HW148066   6.961   8.948   3.207 -0.6033  0.3110  1.3162
15229SOL    HW248067   6.911   8.895   3.340 -3.0135  1.5197  0.9470
15230SOL     OW48068  10.759   9.840  10.791  0.3592 -0.0954  0.0979
15230SOL    HW148069  10.710   9.906  10.742 -1.1802 -0.2941  1.2965
15230SOL    HW248070  10.757   9.871  10.881  0.7274 -1.1185  0.4677
15231SOL     OW48071   7.342   4.096   4.531 -0.0994 -0.4508  0.1992
15231SOL    HW148072   7.404   4.030   4.502  2.8926  1.0951  2.5331
15231SOL    HW248073   7.290   4.053   4.598 -0.9111 -1.4496 -1.0141
15232SOL     OW48074   4.568   6.728   5.151  0.0215 -0.2250 -0.0627
15232SOL    HW148075   4.608   6.667   5.213  1.2523  0.1314 -0.4617
15232SOL    HW248076   4.641   6.757   5.096 -0.9269 -0.0444 -1.2682
15233SOL     OW48077   7.420   0.340   0.816 -0.0032  0.1539  0.6743
15233SOL    HW148078   7.416   0.358   0.910 -1.2745  3.1247  0.1553
15233SOL    HW248079   7.448   0.423   0.777 -1.2457 -0.4649 -1.7029
15234SOL     OW48080  10.595  10.484   3.564  0.7011  0.1386  0.0008
15234SOL    HW148081  10.688  10.500   3.550  1.3863 -3.6880 -0.9457
15234SOL    HW248082  10.578  10.513   3.653  3.0618 -0.0095  0.5517
15235SOL     OW48083   9.859  10.240   7.682  0.2251 -0.1532  0.4464
15235SOL    HW148084   9.789  10.185   7.716  0.2822 -0.1005  0.6525
15235SOL    HW248085   9.939  10.206   7.724  0.3134 -0.1738  0.2612
15236SOL     OW48086   9.683   1.382   6.963  0.2845  0.8348 -0.2090
15236SOL    HW148087   9.648   1.297   6.989  0.7139 -0.1638 -2.5613
15236SOL    HW248088   9.773   1.382   6.996  0.4382  0.1311 -0.5969
15237SOL     OW48089   3.511   8.227   6.290 -0.0937 -0.1912  0.1994
15237SOL    HW148090   3.485   8.296   6.228  0.7422  1.3896  1.5028
15237SOL    HW248091   3.429   8.192   6.324 -0.5666  1.1035  0.4511
15238SOL     OW48092   6.463   6.268   7.715  0.0444  0.5211 -0.8912
15238SOL    HW148093   6.370   6.264   7.735  0.3150 -1.6684  0.2262
15238SOL    HW248094   6.506   6.255   7.800  1.4361  2.8226 -1.1449
15239SOL     OW48095   1.406   2.101   7.590 -0.2871 -0.1998 -0.3850
15239SOL    HW148096   1.450   2.073   7.509 -0.9672 -0.2646 -0.7386
15239SOL    HW248097   1.349   2.027   7.613  1.1284 -0.9008  1.0950
15240SOL     OW48098   2.021   8.115   4.035  0.0242 -0.3332 -0.1855
15240SOL    HW148099   1.988   8.161   3.958  1.0146 -0.0009 -0.4183
15240SOL    HW248100   1.954   8.049   4.053 -1.1889  0.8502 -0.1390
15241SOL     OW48101   5.424   0.195   6.211 -0.2036 -0.0338  0.1327
15241SOL    HW148102   5.422   0.136   6.287  0.7685 -0.8271 -0.4269
15241SOL    HW248103   5.340   0.182   6.168  0.1192 -1.2828 -0.1637
15242SOL     OW48104  10.562   3.424   2.449 -0.1427 -0.2407  0.5369
15242SOL    HW148105  10.511   3.372   2.388  1.3419 -1.0763 -0.0609
15242SOL    HW248106  10.497   3.469   2.503 -1.4798 -0.7294 -0.5992
15243SOL     OW48107   5.786   1.810   8.201  0.8365 -0.4014  0.3129
15243SOL    HW148108   5.853   1.753   8.237  0.0974 -1.2806  0.3397
15243SOL    HW248109   5.801   1.808   8.106  1.2071 -0.1181  0.3631
15244SOL     OW48110   4.626   0.195   7.543  0.0124  0.0936  0.1560
15244SOL    HW148111   4.591   0.145   7.617  0.1764 -0.1407  0.0756
15244SOL    HW248112   4.718   0.209   7.564 -0.6131  2.8620  1.5649
15245SOL     OW48113   9.280   6.198   4.445  0.3972 -0.2530 -0.2492
15245SOL    HW148114   9.288   6.169   4.536 -1.9205  1.0103  0.4427
15245SOL    HW248115   9.253   6.120   4.397  0.5602 -0.6873  0.3560
15246SOL     OW48116   0.205   9.112   4.682 -0.3609 -0.1939  0.3901
15246SOL    HW148117   0.251   9.041   4.728 -2.2388 -1.6854  0.1289
15246SOL    HW248118   0.176   9.171   4.751  1.4855  0.5260  0.5910
15247SOL     OW48119   6.728   9.474   2.297 -0.2374 -0.1169 -0.2879
15247SOL    HW148120   6.756   9.478   2.389  0.1852 -0.1872 -0.4092
15247SOL    HW248121   6.634   9.492   2.299  0.1125  1.9522 -0.0263
15248SOL     OW48122   2.830   8.799  10.547 -0.2354  0.0084 -0.0320
15248SOL    HW148123   2.757   8.856  10.522 -0.2585  0.2113  0.4889
15248SOL    HW248124   2.787   8.724  10.590 -0.1135  0.3768  0.7482
15249SOL     OW48125   3.062   3.706   9.616 -0.0114  0.0167 -0.0989
15249SOL    HW148126   2.990   3.679   9.560 -0.6896  0.2848  0.6337
15249SOL    HW248127   3.035   3.682   9.704  0.6943  0.3272  0.2118
15250SOL     OW48128  10.249   2.466   1.005 -0.6404 -0.7561  0.4018
15250SOL    HW148129  10.180   2.473   1.071 -0.6678  1.5122  0.1856
15250SOL    HW248130  10.321   2.519   1.039 -0.6001  0.3584 -1.2879
15251SOL     OW48131   5.489   2.447   9.641 -0.3742 -0.2983  0.5836
15251SOL    HW148132   5.396   2.424   9.645 -0.2710 -0.7783  0.3072
15251SOL    HW248133   5.500   2.492   9.558 -0.3691 -0.2026  0.6363
15252SOL     OW48134  10.552   1.305   6.234  0.4869  0.0048 -0.6670
15252SOL    HW148135  10.534   1.305   6.140  1.0310 -2.4145 -0.8209
15252SOL    HW248136  10.642   1.338   6.241  0.4057  0.3011 -0.9775
15253SOL     OW48137   5.557   3.447   2.598  0.4940 -0.0775 -0.5200
15253SOL    HW148138   5.620   3.517   2.579 -0.2884  0.6045 -0.6823
15253SOL    HW248139   5.473   3.483   2.569 -0.2976 -0.1678  1.5037
15254SOL     OW48140   5.924   1.263   8.448  0.2123  0.3771 -0.3343
15254SOL    HW148141   5.866   1.331   8.415  1.1479  0.0452 -2.8460
15254SOL    HW248142   5.999   1.310   8.484 -0.2442  0.7169  0.1866
15255SOL     OW48143   3.660   6.579   4.105  0.1104 -0.2880  0.3907
15255SOL    HW148144   3.651   6.674   4.101  2.1807  0.0149  1.4592
15255SOL    HW248145   3.755   6.564   4.102 -0.1181 -2.2510  1.3675
15256SOL     OW48146   1.148   1.522   7.628  0.1991  0.5581 -0.4657
15256SOL    HW148147   1.176   1.482   7.545  1.0119 -0.5509  0.3046
15256SOL    HW248148   1.121   1.611   7.604  0.8835  0.4268 -1.8477
15257SOL     OW48149   3.420   4.661   5.010 -0.3990 -0.7562  0.0323
15257SOL    HW148150   3.326   4.656   4.992 -0.8387  0.8481  1.6044
15257SOL    HW248151   3.442   4.753   4.997  1.0055 -1.1317 -0.4215
15258SOL     OW48152   5.132   0.146   7.687 -0.1994  0.0637 -0.0604
15258SOL    HW148153   5.208   0.095   7.716  1.4631  2.7391  0.6486
15258SOL    HW248154   5.090   0.091   7.620  1.1576 -2.3607  0.9431
15259SOL     OW48155   4.888   1.022   2.658  0.5941  0.2284 -0.0316
15259SOL    HW148156   4.926   1.002   2.743  1.8408  0.8715 -0.4112
15259SOL    HW248157   4.958   1.003   2.595 -0.9051 -2.1167 -1.1400
15260SOL     OW48158   2.854   7.662   2.586 -0.1552 -0.1341 -0.4091
15260SOL    HW148159   2.932   7.670   2.641  0.1930  0.7748 -1.0201
15260SOL    HW248160   2.799   7.598   2.632  0.4368  0.0781  0.6201
15261SOL     OW48161   1.172  10.542   7.795 -0.3473 -0.4938  0.4556
15261SOL    HW148162   1.137  10.631   7.794 -0.4843 -0.5302  1.1397
15261SOL    HW248163   1.182  10.518   7.703  1.3310  0.8591  0.2501
15262SOL     OW48164   4.779   3.617   6.819  0.3594 -0.0023 -0.6414
15262SOL    HW148165   4.816   3.536   6.785 -1.2377 -0.2118 -1.9975
15262SOL    HW248166   4.712   3.641   6.756  0.4537  2.1306 -0.0086
15263SOL     OW48167   3.811  10.538   6.698  0.0567 -0.1412  0.1030
15263SOL    HW148168   3.789  10.548   6.605  0.3211 -0.8875 -0.0402
15263SOL    HW248169   3.737  10.489   6.735 -0.7293  1.3255  0.5932
15264SOL     OW48170   4.636   4.578   3.273  0.0593 -0.0995  0.0769
15264SOL    HW148171   4.691   4.632   3.216 -1.1254 -0.8650 -1.8720
15264SOL    HW248172   4.681   4.580   3.358  0.9699  2.5052 -0.3671
15265SOL     OW48173   5.216   0.144   8.438  0.2117 -0.0908  0.4042
15265SOL    HW148174   5.283   0.082   8.466 -0.0577 -0.6754 -0.2086
15265SOL    HW248175   5.193   0.192   8.517  1.8013  0.5692  0.5153
15266SOL     OW48176   7.426   6.969   0.473 -0.0590  0.2945 -0.9708
15266SOL    HW148177   7.348   6.914   0.483  0.1343  0.4099  2.1633
15266SOL    HW248178   7.417   7.036   0.541  2.0505  1.2045 -1.5154
15267SOL     OW48179   7.277   0.289   6.618  0.4620 -0.3253 -0.2980
15267SOL    HW148180   7.302   0.250   6.702  1.5213 -1.2476 -1.0224
15267SOL    HW248181   7.299   0.224   6.553 -3.0364 -0.8647 -1.1649
15268SOL     OW48182   7.897   9.340   1.802 -0.1496 -0.1286 -0.1283
15268SOL    HW148183   7.855   9.256   1.818  1.1231 -0.5198  1.3020
15268SOL    HW248184   7.936   9.331   1.715 -0.7254 -0.7041 -0.3337
15269SOL     OW48185   8.026   3.905   3.090 -0.2221  0.2592 -0.1028
15269SOL    HW148186   8.103   3.882   3.037 -0.2515 -0.8203  0.3074
15269SOL    HW248187   7.962   3.837   3.069 -0.5173  0.2803  0.7262
15270SOL     OW48188   8.704   4.306   4.506 -0.4563  0.2958  0.4678
15270SOL    HW148189   8.689   4.300   4.411 -0.6389  2.2165  0.3249
15270SOL    HW248190   8.616   4.314   4.543 -0.4256 -1.0551  0.8902
15271SOL     OW48191   5.813   5.477   6.945 -0.0439  0.0015  0.6647
15271SOL    HW148192   5.766   5.426   6.879 -1.0557  1.3323  0.3136
15271SOL    HW248193   5.821   5.564   6.906 -0.3338  0.7096  2.1514
15272SOL     OW48194   4.954   3.443   8.141 -0.1424 -0.1726 -0.1626
15272SOL    HW148195   5.038   3.442   8.188  0.5363  2.8039 -1.1215
15272SOL    HW248196   4.972   3.397   8.059 -0.4067 -2.3313  0.8984
15273SOL     OW48197   6.237   7.976   9.856  0.5223  0.3169 -0.4863
15273SOL    HW148198   6.258   8.034   9.783 -0.4631  0.1974 -0.8799
15273SOL    HW248199   6.145   7.952   9.842  0.5908 -0.4440  0.2852
15274SOL     OW48200   8.126   2.800   7.410 -0.2413  0.0818  0.1936
15274SOL    HW148201   8.147   2.717   7.453 -0.0423  0.6849  1.2871
15274SOL    HW248202   8.067   2.775   7.339 -0.0460 -1.0195  0.3965
15275SOL     OW48203   4.208   2.408   1.582 -0.0824 -0.1012  0.2074
15275SOL    HW148204   4.236   2.398   1.492  1.8694  0.2076  0.7269
15275SOL    HW248205   4.223   2.322   1.622  0.0334  0.0443  0.4806
15276SOL     OW48206   4.493   3.768   7.627 -0.1396  0.4006 -0.3477
15276SOL    HW148207   4.441   3.813   7.694  0.0045  0.2627 -0.1403
15276SOL    HW248208   4.475   3.675   7.642  0.0234  0.3623 -0.3929
15277SOL     OW48209   5.102   2.578   2.077 -0.0196  0.5281 -0.5320
15277SOL    HW148210   5.148   2.550   2.156  1.8768  1.3778 -1.2796
15277SOL    HW248211   5.009   2.576   2.101  0.5008  0.8470  1.7230
15278SOL     OW48212   7.527   7.722   2.920  0.4968 -0.0707  0.5017
15278SOL    HW148213   7.555   7.763   2.838 -1.2864 -1.4208 -0.8866
15278SOL    HW248214   7.432   7.713   2.911  0.5717 -2.7798  1.4642
15279SOL     OW48215   0.442   5.978   2.386  0.3357 -0.2037  0.3191
15279SOL    HW148216   0.526   6.019   2.366  0.4427 -0.0900  0.9711
15279SOL    HW248217   0.380   6.051   2.389  0.1944 -0.2976 -0.2495
15280SOL     OW48218   0.655   9.262   2.561  0.7189  0.0285 -0.2759
15280SOL    HW148219   0.654   9.353   2.591  1.1911  0.9210 -2.7201
15280SOL    HW248220   0.725   9.221   2.611  0.2786  0.8900  1.1143
15281SOL     OW48221   0.817   1.471   0.320 -0.2478 -0.2058 -0.4568
15281SOL    HW148222   0.805   1.387   0.275 -0.2860 -0.9634  0.9297
15281SOL    HW248223   0.870   1.450   0.397 -0.5549  0.9865  0.1055
15282SOL     OW48224   6.802   0.790   6.637  0.5487 -0.0734 -0.5263
15282SOL    HW148225   6.837   0.800   6.726  2.2171  1.5508 -1.2912
15282SOL    HW248226   6.784   0.697   6.629  3.1079 -0.7479  0.5789
15283SOL     OW48227   7.020   3.756   2.901 -0.1287  0.4046 -0.1790
15283SOL    HW148228   7.047   3.798   2.820  0.5293 -0.7655 -0.6054
15283SOL    HW248229   7.092   3.771   2.962 -1.0677  2.1653  0.5559
15284SOL     OW48230   3.110   2.662   5.732 -0.1164  0.4220  0.0127
15284SOL    HW148231   3.188   2.645   5.679  0.3287  1.1529  0.4331
15284SOL    HW248232   3.041   2.678   5.668 -0.6504 -3.0133 -0.4836
15285SOL     OW48233   8.492   7.949   0.866 -0.3446  0.1502  0.0050
15285SOL    HW148234   8.440   7.969   0.789  0.6133  1.0603 -0.4289
15285SOL    HW248235   8.528   8.033   0.895  3.1462 -0.6734 -1.3960
15286SOL     OW48236   6.102   6.454   8.422 -0.0517  0.1876  0.1106
15286SOL    HW148237   6.100   6.363   8.394  0.2167  0.5743 -1.2077
15286SOL    HW248238   6.196   6.473   8.433 -0.1160  0.2663  0.5413
15287SOL     OW48239   4.638   1.828   9.580  0.5395  0.6010  0.1153
15287SOL    HW148240   4.663   1.793   9.494  2.7158  0.0893  0.8886
15287SOL    HW248241   4.542   1.835   9.576  0.4995 -0.3272 -1.9894
15288SOL     OW48242   3.692   8.753   7.410 -0.3988  0.4891 -0.0686
15288SOL    HW148243   3.732   8.713   7.487 -0.6415 -0.1679 -0.2753
15288SOL    HW248244   3.746   8.830   7.392 -0.0974  0.4202  0.5124
15289SOL     OW48245   1.100   1.519   4.477 -0.3998 -0.0049 -0.1568
15289SOL    HW148246   1.089   1.504   4.571  0.4973 -1.7290 -0.2844
15289SOL    HW248247   1.175   1.578   4.472 -1.2029  1.0824  0.2255
15290SOL     OW48248   1.821   1.086   0.654  0.3865 -0.2991  0.3227
15290SOL    HW148249   1.909   1.123   0.653  0.5100 -0.5754  0.6418
15290SOL    HW248250   1.766   1.152   0.696  0.7877 -0.8649  1.7875
15291SOL     OW48251   0.649   2.357   5.378  0.2137  0.0107  0.0323
15291SOL    HW148252   0.736   2.324   5.399  0.3201  1.3298  1.9082
15291SOL    HW248253   0.606   2.369   5.463 -0.8271  1.8679 -0.6936
15292SOL     OW48254   5.986   6.682   4.197  0.4534 -0.4809 -0.0287
15292SOL    HW148255   6.063   6.737   4.185  0.6267 -0.5100  0.8697
15292SOL    HW248256   5.984   6.664   4.291 -0.5055 -0.6926 -0.0808
15293SOL     OW48257   5.685   3.707   4.600 -0.6057  0.3862 -0.1597
15293SOL    HW148258   5.632   3.785   4.582 -1.1719 -0.3542 -1.9142
15293SOL    HW248259   5.776   3.738   4.592 -0.8174  0.6405 -2.1695
15294SOL     OW48260   2.077   1.498   8.419 -0.2898  0.3847  0.8789
15294SOL    HW148261   2.049   1.560   8.352  1.6881  1.5729  1.0446
15294SOL    HW248262   2.004   1.493   8.480 -0.5277  2.5990  0.8506
15295SOL     OW48263   6.795   7.478   2.985  0.2817 -0.7821 -0.2520
15295SOL    HW148264   6.875   7.425   2.991  0.3777 -0.6304 -0.1768
15295SOL    HW248265   6.760   7.459   2.898  0.6419 -0.5029 -0.4586
15296SOL     OW48266   7.486   7.348   7.847 -0.1781  0.2139  0.3197
15296SOL    HW148267   7.567   7.388   7.878 -1.1984  2.9390 -0.3054
15296SOL    HW248268   7.438   7.419   7.806 -1.7224 -1.9057 -1.7866
15297SOL     OW48269   7.257   3.747   5.456 -0.1246 -0.1943 -0.5016
15297SOL    HW148270   7.184   3.804   5.479  0.4392 -0.1595  1.3875
15297SOL    HW248271   7.309   3.798   5.394 -0.8353  0.4316 -0.5936
15298SOL     OW48272   7.768   5.242   0.972  0.4473 -0.4981  0.2303
15298SOL    HW148273   7.835   5.176   0.951 -0.0848 -1.1703  0.5940
15298SOL    HW248274   7.814   5.326   0.967  1.1644 -0.9040 -0.1394
15299SOL     OW48275   8.477   3.644   9.609  0.8411  0.7331  0.1910
15299SOL    HW148276   8.426   3.712   9.653 -1.0281  0.1626 -0.9886
15299SOL    HW248277   8.562   3.684   9.592 -0.2453  2.8356 -0.5915
15300SOL     OW48278   0.655   5.207   2.182 -0.3682  0.0687  0.1110
15300SOL    HW148279   0.617   5.181   2.098 -1.8285 -2.6070  1.4401
15300SOL    HW248280   0.746   5.227   2.162 -0.7843 -0.0027 -2.1628
15301SOL     OW48281   5.344   8.211   2.279 -0.2090 -0.2871  0.3326
15301SOL    HW148282   5.280   8.221   2.208  1.3757  0.7023 -1.0301
15301SOL    HW248283   5.294   8.173   2.351 -2.0258 -0.7588 -1.0995
15302SOL     OW48284   3.117   4.857   2.806  0.1525 -0.0033 -0.5025
15302SOL    HW148285   3.192   4.908   2.775 -0.9530  1.3351 -1.0815
15302SOL    HW248286   3.067   4.836   2.727 -1.5811  1.6225  0.0822
15303SOL     OW48287   0.408   1.951   0.867 -0.5753  0.3165 -0.2156
15303SOL    HW148288   0.381   2.031   0.910 -0.9182 -0.0339  0.2297
15303SOL    HW248289   0.493   1.930   0.905 -1.3377 -0.5542  1.0847
15304SOL     OW48290   6.801   0.233   7.135  0.2296  0.1384 -0.0952
15304SOL    HW148291   6.735   0.270   7.193 -0.0787 -0.6240  0.0558
15304SOL    HW248292   6.782   0.139   7.135 -0.1190  0.1745 -1.8449
15305SOL     OW48293   9.066   2.393   0.333  0.1169  0.0273 -0.2216
15305SOL    HW148294   9.122   2.341   0.390  0.8097  0.6553 -0.3247
15305SOL    HW248295   9.023   2.329   0.277 -0.0017 -0.5353  0.4897
15306SOL     OW48296   2.087   6.272   8.252  0.4944 -0.8547 -0.1762
15306SOL    HW148297   2.130   6.191   8.281  0.9390 -0.6460 -0.2450
15306SOL    HW248298   2.151   6.341   8.268 -0.4437 -0.2806  1.2983
15307SOL     OW48299   7.048   7.410   7.599  0.4758  0.2880 -0.5387
15307SOL    HW148300   6.976   7.466   7.570  0.8220  0.7983 -0.4226
15307SOL    HW248301   7.006   7.327   7.622 -0.2311  0.9348  0.5804
15308SOL     OW48302   1.220   5.047   6.691  0.3345 -0.2727  0.0128
15308SOL    HW148303   1.194   5.034   6.782  0.3990 -0.2785  0.0305
15308SOL    HW248304   1.244   5.140   6.686 -0.8524  0.0350 -0.2971
15309SOL     OW48305   3.542   9.700   3.662  0.1430 -0.1216 -0.5579
15309SOL    HW148306   3.598   9.778   3.657 -1.1571  0.7777 -1.6304
15309SOL    HW248307   3.604   9.628   3.675  1.9100  0.4423 -4.3846
15310SOL     OW48308  10.462   2.706   8.814  0.3279 -0.1006 -0.1394
15310SOL    HW148309  10.476   2.772   8.882 -0.2839  1.9752 -1.9398
15310SOL    HW248310  10.548   2.693   8.775  0.3998 -0.1773  0.0460
15311SOL     OW48311   0.798   5.174   4.578 -0.0784 -0.1414  0.2958
15311SOL    HW148312   0.869   5.117   4.548 -1.0040 -1.8552  1.2352
15311SOL    HW248313   0.786   5.152   4.670 -1.2115  0.7927  0.3927
15312SOL     OW48314   6.356   9.989   8.106  0.2389 -0.3805 -0.3370
15312SOL    HW148315   6.325   9.951   8.188 -1.8338 -0.8889 -1.2752
15312SOL    HW248316   6.356  10.084   8.121 -1.9605 -0.3373 -0.2597
15313SOL     OW48317   9.600  10.281   9.640 -0.6336 -0.3873 -0.2197
15313SOL    HW148318   9.646  10.205   9.605  1.1549  1.5312 -2.4279
15313SOL    HW248319   9.642  10.297   9.725 -0.3392 -1.2616 -0.1883
15314SOL     OW48320   6.787   1.927   2.851  0.9844  0.0978 -0.5013
15314SOL    HW148321   6.866   1.980   2.853  0.9420  0.1551  0.0144
15314SOL    HW248322   6.724   1.979   2.801  1.7315 -0.6381 -2.2768
15315SOL     OW48323   4.783   9.073   0.695 -0.1070 -0.2003  0.2999
15315SOL    HW148324   4.790   9.043   0.786  2.0564  1.2826  0.7111
15315SOL    HW248325   4.871   9.061   0.660  0.3709  3.5303 -0.1191
15316SOL     OW48326   9.790   6.448   6.124  0.3119  0.4374 -0.5951
15316SOL    HW148327   9.822   6.416   6.039 -2.3231 -1.2352 -1.0849
15316SOL    HW248328   9.778   6.368   6.176  0.4659  1.3101  0.8219
15317SOL     OW48329   9.315   7.245   1.715 -0.0626 -0.3969 -0.5290
15317SOL    HW148330   9.375   7.320   1.724 -1.5611  0.7409  0.4930
15317SOL    HW248331   9.289   7.225   1.805  0.0254 -1.9367 -0.8300
15318SOL     OW48332   6.332   4.890   1.272 -0.1078  0.3751 -0.1363
15318SOL    HW148333   6.249   4.849   1.297 -0.9928  1.3186 -1.4198
15318SOL    HW248334   6.357   4.848   1.190  0.3757  0.5052 -0.0603
15319SOL     OW48335   1.103   1.122   3.179  0.0200 -0.6741  0.3044
15319SOL    HW148336   1.061   1.197   3.136 -0.2976  0.4187  2.3718
15319SOL    HW248337   1.032   1.060   3.193 -0.2428 -0.2687  0.8060
15320SOL     OW48338   6.538   3.795   9.570  0.0998  0.0428  0.3188
15320SOL    HW148339   6.573   3.755   9.490  1.5655  0.7826  0.5671
15320SOL    HW248340   6.613   3.840   9.610 -1.4779  3.2997 -0.0642
15321SOL     OW48341   4.999   6.594   0.495 -0.1200 -0.2551  0.5618
15321SOL    HW148342   5.029   6.504   0.491 -1.6453 -0.7708 -0.1801
15321SOL    HW248343   4.941   6.604   0.419  1.1560  1.8023 -0.2244
15322SOL     OW48344   9.734  10.510   2.216  0.2661 -0.0825 -0.7275
15322SOL    HW148345   9.720  10.537   2.125 -0.0756  2.0135 -0.1080
15322SOL    HW248346   9.651  10.470   2.242 -0.9679  2.5434 -0.3242
15323SOL     OW48347   6.643   8.200   5.335  0.3888 -0.6375  0.0233
15323SOL    HW148348   6.716   8.223   5.277  0.5886  1.4072  1.0042
15323SOL    HW248349   6.625   8.108   5.316  0.9032 -0.2391 -2.7474
15324SOL     OW48350   0.895   9.430   3.771 -0.2970 -0.4852 -0.5469
15324SOL    HW148351   0.884   9.520   3.739 -1.8804 -1.0554 -1.7432
15324SOL    HW248352   0.958   9.438   3.843  0.7255  1.3575 -1.5772
15325SOL     OW48353   5.456   5.489   7.528 -0.3242  0.3075  0.0749
15325SOL    HW148354   5.463   5.405   7.574  0.7330  0.0836 -0.4482
15325SOL    HW248355   5.387   5.536   7.574  0.0631 -0.2748  1.3046
15326SOL     OW48356   5.600   1.674   5.680  0.0671  0.2514  0.0701
15326SOL    HW148357   5.528   1.611   5.686  0.5712 -0.2834  0.7708
15326SOL    HW248358   5.571   1.748   5.732  0.4583 -0.4239  1.2974
15327SOL     OW48359   6.836   7.479   1.762  0.2415  0.1379  0.3139
15327SOL    HW148360   6.801   7.450   1.847  1.1358  0.1411  0.6933
15327SOL    HW248361   6.776   7.442   1.698 -0.8025  0.6395  0.9683
15328SOL     OW48362   0.977   0.461   2.014  0.0341 -0.0342 -0.6098
15328SOL    HW148363   1.048   0.471   2.076  0.0604  1.1262 -0.7998
15328SOL    HW248364   0.943   0.550   2.002 -1.4176 -0.5547 -0.5551
15329SOL     OW48365   5.517   3.385   7.351 -0.3013  0.1989 -1.0437
15329SOL    HW148366   5.533   3.477   7.329  2.2644  0.5792  1.7199
15329SOL    HW248367   5.596   3.339   7.324 -0.6141 -0.7919 -0.3331
15330SOL     OW48368  10.424   0.698   3.897  0.3521  0.4856  0.1483
15330SOL    HW148369  10.445   0.754   3.971 -1.9660  1.2042  0.3578
15330SOL    HW248370  10.425   0.756   3.821 -0.9412  0.6127  0.2021
15331SOL     OW48371   7.089   4.771   9.641 -0.1401  0.3473 -0.4179
15331SOL    HW148372   7.179   4.784   9.671  0.0598 -0.6096 -0.5436
15331SOL    HW248373   7.056   4.700   9.696 -0.8521  0.7531 -0.3124
15332SOL     OW48374   3.872   2.131   1.385 -0.3876 -0.3626  0.1906
15332SOL    HW148375   3.958   2.090   1.385  0.8967  2.1185  1.5142
15332SOL    HW248376   3.874   2.191   1.310 -0.4675  0.5802  0.9238
15333SOL     OW48377   8.996   7.513   7.888  0.1046  0.5519  0.0064
15333SOL    HW148378   9.074   7.508   7.943  0.0651 -0.1090  0.0070
15333SOL    HW248379   8.949   7.431   7.904  0.5968 -0.1321 -1.7776
15334SOL     OW48380   3.993   5.475   1.856  0.3376  0.0930 -0.2327
15334SOL    HW148381   3.971   5.464   1.764 -1.2424  1.7106 -0.1068
15334SOL    HW248382   3.911   5.503   1.897  0.6273 -2.0038  1.9603
15335SOL     OW48383   8.166   6.698   5.503  0.1869  0.7947 -0.1859
15335SOL    HW148384   8.149   6.786   5.471  1.1800  0.9021 -0.4520
15335SOL    HW248385   8.237   6.708   5.566 -0.9678  0.4252  1.2263
15336SOL     OW48386   0.728   1.913   0.982  0.1816  0.0391  0.8168
15336SOL    HW148387   0.750   1.990   0.930 -0.1999 -0.3765  0.0213
15336SOL    HW248388   0.730   1.944   1.072 -0.3693  1.0938  0.4942
15337SOL     OW48389   5.239   2.372   0.453 -0.2318 -0.0611  0.3915
15337SOL    HW148390   5.196   2.457   0.465  1.0253  0.3903  2.0021
15337SOL    HW248391   5.280   2.379   0.367  0.5061  1.2837  0.8286
15338SOL     OW48392   3.450   1.019   0.104 -0.4518 -0.0009  0.9128
15338SOL    HW148393   3.532   1.022   0.055 -1.7852  0.1224 -1.5215
15338SOL    HW248394   3.412   1.106   0.093 -2.3860 -0.9649 -0.9365
15339SOL     OW48395   1.697   1.338   6.655 -0.3522 -0.1907  0.0059
15339SOL    HW148396   1.620   1.282   6.650 -0.9182  0.5091  0.7102
15339SOL    HW248397   1.762   1.294   6.600 -0.8044 -1.4840  0.4715
15340SOL     OW48398   5.710   9.546   8.340 -0.4019  0.3767  0.2516
15340SOL    HW148399   5.626   9.549   8.294 -0.5670  0.0604  0.5212
15340SOL    HW248400   5.704   9.467   8.395 -0.2330  0.7681  0.8461
15341SOL     OW48401  10.339   4.530   8.180  0.6674 -0.2871 -0.1831
15341SOL    HW148402  10.392   4.608   8.199  0.2304 -0.1984  0.7372
15341SOL    HW248403  10.345   4.478   8.260  0.4600 -0.9159 -0.5751
15342SOL     OW48404   9.901   1.779   7.832  0.4423  0.2621 -0.5145
15342SOL    HW148405   9.808   1.800   7.844  0.3794 -0.8046  1.2132
15342SOL    HW248406   9.947   1.849   7.878  0.4903  0.5471 -0.9897
15343SOL     OW48407   3.823   4.128   5.536  0.1057  0.5799 -0.0400
15343SOL    HW148408   3.900   4.071   5.545 -0.5680 -0.3462 -0.0634
15343SOL    HW248409   3.791   4.140   5.625 -0.7174 -0.4390 -0.1857
15344SOL     OW48410   7.253   4.367   5.208 -0.0142 -0.1934 -0.0933
15344SOL    HW148411   7.316   4.436   5.189 -0.6865  0.7699  1.0448
15344SOL    HW248412   7.295   4.314   5.275  0.2920 -0.6033 -0.6008
15345SOL     OW48413   5.705   7.929  10.289  0.3887  0.3530 -0.0381
15345SOL    HW148414   5.714   7.934  10.384  0.6100  1.7574 -0.1020
15345SOL    HW248415   5.767   7.994  10.256 -0.0416  0.2384 -1.1233
15346SOL     OW48416   9.640   8.261   3.851 -0.2941 -0.2983  0.2244
15346SOL    HW148417   9.624   8.342   3.802 -1.5955 -0.1229  0.8864
15346SOL    HW248418   9.621   8.284   3.942  1.3320 -0.8249  0.7355
15347SOL     OW48419  10.523   0.415   5.862  0.1326 -0.3755 -0.0007
15347SOL    HW148420  10.557   0.463   5.786  1.1046 -0.5177  0.3237
15347SOL    HW248421  10.552   0.467   5.937 -0.1309 -0.6579  0.2950
15348SOL     OW48422   4.736   5.267  10.211  0.5488 -0.3065 -0.0750
15348SOL    HW148423   4.801   5.200  10.187  2.4165  0.0230  3.4129
15348SOL    HW248424   4.784   5.350  10.204 -0.4234  0.2511 -0.2272
15349SOL     OW48425   5.101   5.964   5.795  0.0965 -0.4822  0.2120
15349SOL    HW148426   5.022   5.923   5.760 -1.1282  1.5233  0.4930
15349SOL    HW248427   5.117   6.039   5.738 -0.9734  1.8689  2.7585
15350SOL     OW48428   0.883   6.568   4.103 -0.1424  0.3871 -0.0693
15350SOL    HW148429   0.893   6.559   4.009  1.7140 -1.3675  0.2318
15350SOL    HW248430   0.897   6.480   4.138 -0.2374  1.0907  1.8904
15351SOL     OW48431   3.290   7.438   9.617  0.1374 -0.0721  0.1770
15351SOL    HW148432   3.336   7.382   9.679 -0.4206 -0.5338  0.1858
15351SOL    HW248433   3.355   7.504   9.591  0.8374 -0.7738  0.1000
15352SOL     OW48434   2.839   6.403  10.299 -1.0859 -0.2768  0.4522
15352SOL    HW148435   2.818   6.399  10.392 -1.2105 -1.3186  0.3931
15352SOL    HW248436   2.908   6.337  10.286 -1.6967 -0.7867 -0.3389
15353SOL     OW48437   7.731   2.882   9.961  0.1084 -0.1527  0.1437
15353SOL    HW148438   7.804   2.830   9.926  2.0113  1.5085  1.4300
15353SOL    HW248439   7.704   2.937   9.888 -0.2182 -1.1052 -0.4811
15354SOL     OW48440   0.888   2.826  10.645  1.0439 -0.3171  0.4929
15354SOL    HW148441   0.822   2.758  10.648 -1.2086  1.7132  0.1997
15354SOL    HW248442   0.844   2.901  10.606  3.3264  1.3845  0.9439
15355SOL     OW48443   8.015   3.554   0.787  0.6860  0.2247 -0.1603
15355SOL    HW148444   8.077   3.562   0.859  1.7035  0.5673 -1.0441
15355SOL    HW248445   7.974   3.468   0.800  0.6163  0.4134  0.9889
15356SOL     OW48446   4.047   9.876   2.000  0.5454  0.4296  0.9222
15356SOL    HW148447   4.052   9.792   2.045  2.4039  0.1716  0.3269
15356SOL    HW248448   3.959   9.907   2.018 -0.6264 -2.1839  0.1723
15357SOL     OW48449   7.938   6.259   1.530  0.2616  0.1989 -1.0208
15357SOL    HW148450   7.959   6.242   1.438 -0.4203 -0.3199 -1.0908
15357SOL    HW248451   7.958   6.352   1.543  3.2970 -0.3741 -0.8568
15358SOL     OW48452   1.528   1.312   9.411  0.4065 -0.3319 -0.0437
15358SOL    HW148453   1.600   1.264   9.371  0.6698  1.4367 -1.8556
15358SOL    HW248454   1.516   1.389   9.355 -1.6273  0.4221  1.3021
15359SOL     OW48455   0.940   1.317   6.269 -0.3394 -0.4857 -0.3230
15359SOL    HW148456   0.989   1.273   6.200  0.8832 -0.6542  0.6270
15359SOL    HW248457   0.999   1.319   6.344 -1.2750  0.5668  0.4309
15360SOL     OW48458   2.568   6.239   0.339  0.3873  0.0448  0.4927
15360SOL    HW148459   2.495   6.259   0.397  0.2766  0.7394  0.1279
15360SOL    HW248460   2.631   6.310   0.353  2.1262 -1.7326  2.5497
15361SOL     OW48461   9.182   5.571   3.940 -0.3835 -0.1464 -0.2287
15361SOL    HW148462   9.095   5.548   3.973 -0.6110  1.0980  0.0960
15361SOL    HW248463   9.222   5.487   3.917 -0.7799 -0.9402  1.8047
15362SOL     OW48464   3.593   6.855   7.473  0.8682 -0.4019  0.0046
15362SOL    HW148465   3.578   6.928   7.533  1.9192  0.2480 -0.4949
15362SOL    HW248466   3.531   6.869   7.402  1.2768  0.1689 -0.2359
15363SOL     OW48467   2.550   6.768  10.385 -0.0352 -0.5642  0.0007
15363SOL    HW148468   2.492   6.696  10.408 -2.0514  1.3226  1.0999
15363SOL    HW248469   2.586   6.743  10.299 -1.0808 -2.5929  0.1061
15364SOL     OW48470   1.446   0.086   2.282  0.0447  0.4148 -0.2957
15364SOL    HW148471   1.451   0.027   2.358 -1.4062 -0.4978 -0.8668
15364SOL    HW248472   1.511   0.154   2.300  0.1618 -0.1154  1.4765
15365SOL     OW48473   2.148   7.463   2.246  0.0476 -0.5419  0.5155
15365SOL    HW148474   2.238   7.473   2.279 -0.0470 -3.1226  1.8678
15365SOL    HW248475   2.152   7.494   2.156  2.8095 -2.2273 -0.0661
15366SOL     OW48476   4.085   5.646   5.447  0.2903  0.7953 -0.2475
15366SOL    HW148477   4.055   5.732   5.419  0.8952  0.6804 -1.2924
15366SOL    HW248478   4.092   5.653   5.543 -1.7576  1.2130 -0.0753
15367SOL     OW48479   8.384   9.284   2.160 -0.0035  0.0626 -0.2595
15367SOL    HW148480   8.384   9.205   2.215 -0.8551  0.4711  0.3398
15367SOL    HW248481   8.477   9.308   2.154  0.0167  1.8637  3.7871
15368SOL     OW48482   6.259   1.833   1.284 -0.0748  0.6609 -0.8250
15368SOL    HW148483   6.195   1.762   1.288  0.3727  0.2842 -0.0448
15368SOL    HW248484   6.339   1.791   1.252  0.5900  0.4833  0.9555
15369SOL     OW48485   5.448   9.293   2.966  0.3935 -0.0665  0.5485
15369SOL    HW148486   5.532   9.338   2.977  0.3610 -0.2146  1.4880
15369SOL    HW248487   5.471   9.210   2.925  0.5419  0.4618 -0.4691
15370SOL     OW48488   4.535   4.549   8.710  0.4290  0.1567 -0.4898
15370SOL    HW148489   4.566   4.585   8.794 -0.5060  0.2345 -0.1681
15370SOL    HW248490   4.579   4.603   8.644  0.9009  0.3272 -0.0513
15371SOL     OW48491   2.180   3.821   8.802 -0.0138 -0.4302 -0.4797
15371SOL    HW148492   2.157   3.737   8.841 -0.5047 -0.2575 -0.3995
15371SOL    HW248493   2.097   3.859   8.774  0.1671  0.1969 -0.1830
15372SOL     OW48494   7.151   7.679   1.992 -0.3557 -0.4300 -0.3006
15372SOL    HW148495   7.107   7.734   1.928  0.6150  0.9795  0.1887
15372SOL    HW248496   7.136   7.722   2.076 -0.6572 -1.6310  0.2803
15373SOL     OW48497   0.471   1.906   7.384 -0.4331  0.3198  0.0566
15373SOL    HW148498   0.516   1.908   7.469 -0.3072 -0.4488  0.0137
15373SOL    HW248499   0.536   1.870   7.324 -0.8598 -0.1012 -0.1580
15374SOL     OW48500   1.469   3.195   7.061 -0.4647 -0.1992 -0.0510
15374SOL    HW148501   1.456   3.289   7.071 -0.1924 -0.2589  1.0876
15374SOL    HW248502   1.443   3.176   6.971  0.0614  1.0641 -0.4993
15375SOL     OW48503   0.555   8.708   2.119 -0.0576 -0.4600 -0.1676
15375SOL    HW148504   0.571   8.752   2.203  2.3174 -1.6326  0.0603
15375SOL    HW248505   0.623   8.742   2.061 -1.6273  0.2721 -1.6603
15376SOL     OW48506   1.998   6.294   0.374  0.2634  0.1737  0.2392
15376SOL    HW148507   2.039   6.285   0.460 -1.2879 -0.7491  0.9404
15376SOL    HW248508   1.955   6.209   0.360 -0.7983  0.8477 -0.7384
15377SOL     OW48509   4.756   1.376   7.381  0.4467 -0.5165 -0.4356
15377SOL    HW148510   4.752   1.446   7.317  1.0381 -0.6413 -0.6092
15377SOL    HW248511   4.673   1.382   7.429  1.1412  1.3262  0.6327
15378SOL     OW48512   4.134   2.589   4.328 -0.2922 -0.5143 -0.0548
15378SOL    HW148513   4.106   2.665   4.277  0.0805 -0.5221 -0.2773
15378SOL    HW248514   4.073   2.520   4.303 -0.7872 -0.2189  0.3397
15379SOL     OW48515   3.496   2.511   7.591 -0.0443  0.1175 -0.2151
15379SOL    HW148516   3.455   2.597   7.584  0.0612  0.1514 -0.4129
15379SOL    HW248517   3.455   2.472   7.668 -0.0718  0.3557 -0.1062
15380SOL     OW48518   4.073   5.664   2.506 -0.1486 -0.0172  0.1552
15380SOL    HW148519   4.029   5.730   2.561 -0.7409  1.5321 -2.0172
15380SOL    HW248520   4.002   5.610   2.472  0.2961 -1.5611  1.5330
15381SOL     OW48521   6.295   1.246   0.045 -0.1732 -0.3626  0.1101
15381SOL    HW148522   6.374   1.203   0.076 -1.0459 -2.0051  0.1384
15381SOL    HW248523   6.250   1.274   0.125 -0.8224 -1.6690  0.2203
15382SOL     OW48524   7.091   8.761   4.813  0.2352  0.0054  0.0168
15382SOL    HW148525   7.153   8.731   4.879  2.1401  0.2021 -1.6141
15382SOL    HW248526   7.029   8.815   4.862  1.8950  0.5942  1.5599
15383SOL     OW48527   3.307   7.710   3.116 -0.0484  0.0558 -0.9918
15383SOL    HW148528   3.313   7.622   3.154 -2.2875 -0.1345 -0.9459
15383SOL    HW248529   3.378   7.759   3.159 -1.2012 -0.6794  2.0356
15384SOL     OW48530  10.423   6.558   1.202 -0.6295  0.1339  0.0354
15384SOL    HW148531  10.461   6.528   1.285 -0.8658  0.3829  0.2374
15384SOL    HW248532  10.491   6.542   1.137  0.7263  2.5261  0.7065
15385SOL     OW48533   3.069   0.487   7.594  0.2843  0.0446  1.0358
15385SOL    HW148534   2.986   0.456   7.559  0.2295 -0.4595  1.6081
15385SOL    HW248535   3.115   0.408   7.622  0.6061  0.3929  1.5024
15386SOL     OW48536   9.166   1.326   4.885 -0.0063 -0.3534  0.3348
15386SOL    HW148537   9.203   1.307   4.972 -0.1599  0.9467  0.7101
15386SOL    HW248538   9.072   1.311   4.895 -0.2249  1.1684  0.8326
15387SOL     OW48539   7.304   5.821   2.574  0.4349  0.1332  0.6514
15387SOL    HW148540   7.267   5.735   2.593  0.7102  0.0631  0.8888
15387SOL    HW248541   7.240   5.883   2.608 -0.0256  0.0327 -0.0153
15388SOL     OW48542   8.287   8.255   2.217  0.6310 -0.5193  0.1332
15388SOL    HW148543   8.325   8.283   2.300  0.8707 -1.6237  0.4229
15388SOL    HW248544   8.240   8.331   2.184  0.5139 -0.0715  1.2967
15389SOL     OW48545   7.272   7.902   8.722 -0.7211  0.0487  0.2391
15389SOL    HW148546   7.367   7.890   8.719 -0.5836  1.0943 -2.0877
15389SOL    HW248547   7.259   7.996   8.711 -2.0318 -0.1749 -0.3951
15390SOL     OW48548   6.200   6.658   6.193 -0.3545 -0.1693 -0.6089
15390SOL    HW148549   6.116   6.688   6.157 -0.7503 -0.7236 -0.1533
15390SOL    HW248550   6.264   6.717   6.154 -1.0091  0.6074 -0.5512
15391SOL     OW48551   7.035   5.179   0.817  0.3417  0.5633 -0.5924
15391SOL    HW148552   6.991   5.149   0.897 -0.0517 -0.9427 -1.3466
15391SOL    HW248553   7.082   5.258   0.844 -1.6811  1.4558  0.5845
15392SOL     OW48554   0.565   4.367   9.569  0.2347  0.5824  0.1005
15392SOL    HW148555   0.573   4.442   9.510 -0.7608  2.1557  1.8384
15392SOL    HW248556   0.471   4.361   9.587  0.2912 -1.1248 -0.0067
15393SOL     OW48557   2.001   0.689   5.877 -0.0521  0.0996  0.3254
15393SOL    HW148558   1.914   0.663   5.908 -0.3088  0.6742  0.1029
15393SOL    HW248559   2.001   0.665   5.784 -0.1540  0.5207  0.2103
15394SOL     OW48560   0.175  10.636  10.218  0.1558  0.0987 -0.1961
15394SOL    HW148561   0.123  10.653  10.297 -0.1132 -0.6243 -0.2083
15394SOL    HW248562   0.155  10.545  10.196 -0.1664  0.4411 -1.3888
15395SOL     OW48563   6.526   3.902   8.413  0.3570  0.0636 -0.6471
15395SOL    HW148564   6.431   3.905   8.413  0.3208 -0.7655 -1.0292
15395SOL    HW248565   6.551   3.919   8.504 -0.1577  0.2539 -0.5418
15396SOL     OW48566   3.139   4.787   9.599  0.1319  0.5690 -0.3233
15396SOL    HW148567   3.128   4.767   9.506  0.8205 -0.4711 -0.1979
15396SOL    HW248568   3.061   4.838   9.622 -0.2846  0.4177 -1.3484
15397SOL     OW48569  10.308   2.127  10.535  0.2772 -0.1166  0.0400
15397SOL    HW148570  10.286   2.039  10.564 -0.5801 -0.2651 -0.9952
15397SOL    HW248571  10.324   2.118  10.441 -1.0768  1.0447 -0.3310
15398SOL     OW48572   4.377   6.827   0.514  0.0284 -0.5212  0.1102
15398SOL    HW148573   4.453   6.864   0.469 -0.5970 -0.1611 -0.6783
15398SOL    HW248574   4.302   6.875   0.479 -0.4974 -0.2883  1.4991
15399SOL     OW48575   3.401   6.279   0.857 -0.1043 -0.0998  0.5193
15399SOL    HW148576   3.403   6.192   0.897  0.1325 -0.0636  0.5917
15399SOL    HW248577   3.493   6.297   0.835  0.3951  1.4208  3.3274
15400SOL     OW48578   9.803   8.294   1.782 -0.0345  0.4417  0.5868
15400SOL    HW148579   9.796   8.200   1.796  0.3827  0.4173  0.6581
15400SOL    HW248580   9.817   8.304   1.688  0.4248  0.3998  0.6500
15401SOL     OW48581   9.474   3.768  10.198 -0.2323  0.2224 -0.0694
15401SOL    HW148582   9.444   3.698  10.256  0.1643  0.0167 -0.1153
15401SOL    HW248583   9.542   3.813  10.248  0.3346 -0.1544 -0.4996
15402SOL     OW48584   9.004   8.340   7.176 -0.0538  0.0629 -0.4081
15402SOL    HW148585   8.947   8.276   7.133 -0.0106 -1.5203  1.7295
15402SOL    HW248586   8.944   8.400   7.220 -0.1641 -1.3568  1.4929
15403SOL     OW48587   7.888   2.659   3.539 -0.2779 -0.2012 -0.1033
15403SOL    HW148588   7.837   2.606   3.478 -1.2681 -0.3020  0.7790
15403SOL    HW248589   7.922   2.731   3.486 -0.7343 -0.5315 -0.8596
15404SOL     OW48590   2.037   0.812   4.342  0.5743 -0.1720 -0.3187
15404SOL    HW148591   1.962   0.752   4.338  1.0689 -0.8064 -0.3173
15404SOL    HW248592   2.062   0.812   4.434  1.9298 -1.7066 -0.6384
15405SOL     OW48593   3.608   8.255   8.202  0.5384  0.7560  0.2285
15405SOL    HW148594   3.662   8.270   8.124  0.8640  2.0800  0.6826
15405SOL    HW248595   3.520   8.284   8.177  1.1850  3.9289  1.1376
15406SOL     OW48596   5.002   0.591   8.061 -0.6228  0.1985  0.6408
15406SOL    HW148597   5.081   0.605   8.010 -0.6299 -1.4445  0.1058
15406SOL    HW248598   5.027   0.612   8.151  0.5195 -0.5256  0.5141
15407SOL     OW48599   6.606   7.343   9.463 -0.0653 -0.1937  0.1254
15407SOL    HW148600   6.540   7.367   9.528 -1.0220  0.1593 -0.9345
15407SOL    HW248601   6.675   7.301   9.513  0.0821  1.6671  1.6258
15408SOL     OW48602   3.657   0.486   8.568 -0.0064  0.0550  0.3451
15408SOL    HW148603   3.595   0.557   8.547 -1.7575 -1.2561  0.8385
15408SOL    HW248604   3.729   0.498   8.505 -1.0287  1.3074 -0.6514
15409SOL     OW48605   6.988   5.000   8.818 -0.5311  0.1079  0.1581
15409SOL    HW148606   6.982   5.052   8.898 -3.5797  2.4290 -1.3782
15409SOL    HW248607   6.938   4.920   8.837  0.7053 -0.4578  1.2154
15410SOL     OW48608   0.509  10.416   9.779  0.0028 -0.6392 -0.3251
15410SOL    HW148609   0.514  10.476   9.705  3.2569 -0.3897 -0.0295
15410SOL    HW248610   0.532  10.468   9.855 -2.5227 -1.0847  0.8768
15411SOL     OW48611   9.352   2.854  10.390 -0.3551 -0.0652 -0.1674
15411SOL    HW148612   9.327   2.782  10.448 -0.9243  1.1346  1.1418
15411SOL    HW248613   9.281   2.917  10.399 -0.1654  0.4188 -1.7604
15412SOL     OW48614   7.802   2.523   2.352 -0.1710  0.1186  0.4349
15412SOL    HW148615   7.890   2.562   2.351 -0.5337  1.2795  3.3201
15412SOL    HW248616   7.750   2.581   2.296  0.7833 -0.4365 -1.0962
15413SOL     OW48617   8.375   7.771   1.050  0.7797  0.1165  0.3129
15413SOL    HW148618   8.425   7.844   1.015  0.1357  0.3993 -0.0347
15413SOL    HW248619   8.408   7.694   1.004  0.3184  0.4097 -0.5302
15414SOL     OW48620   8.331   6.323   8.901  0.5748  0.0629  0.1856
15414SOL    HW148621   8.261   6.365   8.951  2.0082  1.0602  1.4825
15414SOL    HW248622   8.376   6.268   8.965 -0.7293 -2.9546 -1.2847
15415SOL     OW48623  10.595   1.672   1.137  0.0139 -0.0993  0.3889
15415SOL    HW148624  10.617   1.765   1.129  0.3214 -0.3064 -1.4889
15415SOL    HW248625  10.595   1.639   1.048 -0.8747 -1.7503  0.9554
15416SOL     OW48626   3.152   3.189   8.960 -0.0946 -0.4505  0.0753
15416SOL    HW148627   3.182   3.114   9.012 -0.8859 -1.6554 -1.1179
15416SOL    HW248628   3.172   3.164   8.870  0.7609  1.3488 -0.2775
15417SOL     OW48629   8.135   8.019   3.870 -0.0143  0.0910 -0.3758
15417SOL    HW148630   8.195   8.043   3.800 -0.4275  1.4931 -0.2867
15417SOL    HW248631   8.183   8.041   3.950 -0.1821  0.0929 -0.2761
15418SOL     OW48632   4.756   9.369   2.850  0.1397  0.0765  0.4643
15418SOL    HW148633   4.793   9.281   2.852  0.7404  0.2951 -0.7033
15418SOL    HW248634   4.693   9.368   2.778  0.9088  0.8926 -0.2372
15419SOL     OW48635   1.293   1.638   7.178 -0.8862 -0.3058 -0.4319
15419SOL    HW148636   1.239   1.571   7.219 -0.8522 -1.7727 -2.6125
15419SOL    HW248637   1.269   1.635   7.086  1.3589  0.4932 -1.1170
15420SOL     OW48638   1.248   9.600  10.367 -0.2858 -0.1261  0.0505
15420SOL    HW148639   1.193   9.656  10.312  0.8870  0.3202 -0.6872
15420SOL    HW248640   1.185   9.554  10.424 -1.2975  1.8630  0.6403
15421SOL     OW48641   1.984   3.742   4.111  0.1323  0.5586 -0.3180
15421SOL    HW148642   1.948   3.665   4.155  0.6835  0.8893  0.7507
15421SOL    HW248643   2.003   3.712   4.022 -1.0712 -0.1049 -0.3647
15422SOL     OW48644   4.310   4.894   1.820  0.3510  0.1566  0.7567
15422SOL    HW148645   4.247   4.874   1.890 -0.2275  1.8519  0.7740
15422SOL    HW248646   4.333   4.986   1.835 -0.1638  0.7342 -1.5516
15423SOL     OW48647   5.902   1.216   0.645  0.5658 -0.1406  0.3262
15423SOL    HW148648   5.852   1.178   0.572 -0.6739  0.8878  0.6125
15423SOL    HW248649   5.944   1.141   0.686  0.9484 -0.8021 -1.1825
15424SOL     OW48650  10.429   1.353   7.454 -0.5840 -0.0934 -0.1593
15424SOL    HW148651  10.522   1.374   7.450 -0.5384 -0.2209  0.2454
15424SOL    HW248652  10.390   1.406   7.384 -0.3628  0.7689  0.3611
15425SOL     OW48653   3.712   5.716   2.185 -0.8437 -0.0627  0.0639
15425SOL    HW148654   3.771   5.789   2.165  1.2368 -1.3412  1.1677
15425SOL    HW248655   3.730   5.695   2.277 -1.8141 -1.5879 -0.0629
15426SOL     OW48656   8.927   1.864  10.591  0.0597  0.2177  0.2420
15426SOL    HW148657   8.998   1.924  10.569  1.4224 -0.8846  1.4675
15426SOL    HW248658   8.879   1.908  10.661  0.4024  0.3561  0.3916
15427SOL     OW48659   7.579   4.812   0.809  0.1860  0.5528 -0.2598
15427SOL    HW148660   7.585   4.842   0.899  1.6971 -0.0334 -0.1332
15427SOL    HW248661   7.494   4.768   0.803  0.1744  0.3949  0.9359
15428SOL     OW48662   8.493  10.085   2.006 -0.4029 -0.3523  0.7060
15428SOL    HW148663   8.520  10.128   2.087 -1.1351 -0.2266  0.8865
15428SOL    HW248664   8.401  10.108   1.996 -0.4308 -0.7241  0.0637
15429SOL     OW48665   4.158   3.957   9.805  0.4634 -0.1653 -0.2306
15429SOL    HW148666   4.246   3.931   9.830  0.5428 -0.2059 -0.5567
15429SOL    HW248667   4.130   3.893   9.740  0.1274 -0.2528 -0.0059
15430SOL     OW48668   2.065   8.626   1.122  0.2723  0.1017  0.0863
15430SOL    HW148669   2.097   8.627   1.212  2.4413 -3.1149 -0.4570
15430SOL    HW248670   2.141   8.653   1.069 -0.7857  1.3662 -0.8590
15431SOL     OW48671   0.438   0.079   3.295  0.0833 -0.5579  0.6105
15431SOL    HW148672   0.533   0.076   3.282  0.1994  1.4823  0.6554
15431SOL    HW248673   0.403   0.016   3.233  1.3456  0.6708 -1.4756
15432SOL     OW48674   7.469   0.724   7.331 -0.0813 -0.0572  0.2572
15432SOL    HW148675   7.396   0.751   7.276  0.4777 -0.1193 -0.5463
15432SOL    HW248676   7.439   0.645   7.375  0.3831 -1.6846 -2.1399
15433SOL     OW48677   1.593   8.941   8.800  0.2842 -0.3290 -0.1763
15433SOL    HW148678   1.664   8.895   8.755  0.4202 -0.1138 -0.1796
15433SOL    HW248679   1.625   9.030   8.813 -0.1445 -0.1207 -0.5367
15434SOL     OW48680   0.983   6.443   5.036  0.1981  0.6529 -0.1120
15434SOL    HW148681   0.976   6.364   5.090  2.1921  0.8405  0.4961
15434SOL    HW248682   0.915   6.501   5.069 -0.4035 -0.2756  0.3318
15435SOL     OW48683   8.701   5.345   6.401  0.2051  0.0503 -0.1608
15435SOL    HW148684   8.632   5.303   6.350 -1.2556  1.5042  0.5346
15435SOL    HW248685   8.770   5.279   6.407 -1.6138 -1.9170  0.1474
15436SOL     OW48686   2.787  10.645   3.514 -0.5003  0.1929  0.2430
15436SOL    HW148687   2.822  10.669   3.600 -0.7295 -0.4631  0.5254
15436SOL    HW248688   2.850  10.582   3.480 -0.2063  0.7463 -0.2392
15437SOL     OW48689   4.458   9.598   3.784 -0.1178 -0.4028  0.1293
15437SOL    HW148690   4.536   9.653   3.785 -0.7983  0.5982 -0.1485
15437SOL    HW248691   4.474   9.536   3.713  0.3956 -0.1589  0.0240
15438SOL     OW48692   0.158   6.496   1.045  0.2050  0.6774  0.5712
15438SOL    HW148693   0.216   6.439   0.995 -0.2382  0.3011  0.4720
15438SOL    HW248694   0.209   6.575   1.061  1.1346 -0.0572  1.4215
15439SOL     OW48695   5.191   9.364   8.117  0.1662  0.4269  0.1785
15439SOL    HW148696   5.159   9.277   8.142 -0.9582  0.8542  0.2810
15439SOL    HW248697   5.275   9.373   8.163 -0.0834 -0.2960  0.7922
15440SOL     OW48698   4.570   7.410   9.935 -0.2093 -0.1540 -0.1503
15440SOL    HW148699   4.652   7.454   9.914  1.4484 -2.6897  0.4738
15440SOL    HW248700   4.535   7.382   9.850  0.1455  0.0334 -0.3590
15441SOL     OW48701   7.588  10.549   8.779  0.2505  0.4276 -0.0835
15441SOL    HW148702   7.612  10.536   8.871 -1.3383 -0.2227  0.2725
15441SOL    HW248703   7.493  10.538   8.777  0.2453  0.5014 -1.8001
15442SOL     OW48704   9.000   2.210   0.116  0.7338 -0.1777 -0.4985
15442SOL    HW148705   8.939   2.142   0.089  0.1862 -0.1745  0.6648
15442SOL    HW248706   9.022   2.256   0.035 -0.6005 -0.3299 -0.9708
15443SOL     OW48707   2.041   2.844   1.361 -0.0094 -0.2246  0.1473
15443SOL    HW148708   2.034   2.756   1.400  0.4718 -0.3813 -0.1094
15443SOL    HW248709   1.990   2.839   1.281 -2.1408  0.4945  1.3901
15444SOL     OW48710   7.105   3.866   7.795 -0.2538 -0.3129 -0.2740
15444SOL    HW148711   7.117   3.959   7.814  0.5166 -0.8153  1.9264
15444SOL    HW248712   7.168   3.848   7.725 -1.4165  1.0765 -1.7787
15445SOL     OW48713   4.898   7.755   2.089  0.0834 -0.2046  0.4673
15445SOL    HW148714   4.833   7.825   2.095  0.2723 -0.0414  0.6340
15445SOL    HW248715   4.904   7.736   1.995 -1.2535 -1.2351  0.5628
15446SOL     OW48716   6.442  10.724   9.193  0.0181 -0.6199 -0.5342
15446SOL    HW148717   6.437  10.648   9.251 -0.2930  0.4455  0.9257
15446SOL    HW248718   6.400  10.795   9.244  0.7933  0.6449 -1.5974
15447SOL     OW48719   7.438   2.327   6.706 -0.4810 -0.2656  0.3973
15447SOL    HW148720   7.369   2.388   6.731 -1.7108 -1.4314 -0.0105
15447SOL    HW248721   7.413   2.297   6.619  0.0885 -1.3382  0.5828
15448SOL     OW48722   8.342   7.793   7.585  0.2232  0.0494 -0.1687
15448SOL    HW148723   8.262   7.744   7.567  1.0860 -1.6029  0.2693
15448SOL    HW248724   8.323   7.841   7.665 -1.0382  1.4291 -1.2332
15449SOL     OW48725   7.733  10.105   4.239  0.0914  0.2896  0.2413
15449SOL    HW148726   7.668  10.168   4.208  0.7930  0.6713 -0.4848
15449SOL    HW248727   7.765  10.063   4.159 -1.2497 -1.9082  0.7844
15450SOL     OW48728   2.403   7.850   8.565 -0.1624  0.8586  0.0094
15450SOL    HW148729   2.461   7.909   8.517  0.9564  0.5517  0.9282
15450SOL    HW248730   2.454   7.824   8.642 -0.3874 -1.7586 -0.6398
15451SOL     OW48731   4.404   7.122   3.946  0.2259  0.1711  0.1905
15451SOL    HW148732   4.315   7.102   3.917  0.6490 -0.9448 -0.3704
15451SOL    HW248733   4.392   7.180   4.022 -0.9705  0.0327  0.1179
15452SOL     OW48734   8.516   7.166   1.788 -0.7458 -0.2894 -0.0360
15452SOL    HW148735   8.541   7.248   1.744 -1.2797  0.2855  0.7171
15452SOL    HW248736   8.512   7.102   1.717 -0.1453  0.2904 -0.6145
15453SOL     OW48737   7.706   0.553   6.642  0.0165  0.1043 -0.5063
15453SOL    HW148738   7.666   0.488   6.584  0.2134 -1.1138  0.6801
15453SOL    HW248739   7.687   0.522   6.730 -0.0057  1.7588  0.1041
15454SOL     OW48740   0.197   7.461   3.672 -0.0679 -0.6380  0.0308
15454SOL    HW148741   0.170   7.550   3.692 -0.2054 -0.5949 -0.3312
15454SOL    HW248742   0.148   7.439   3.592 -1.1221 -1.5559  0.9061
15455SOL     OW48743   5.937   7.945   1.984  0.6266  0.3021  0.0608
15455SOL    HW148744   5.941   7.850   1.973 -0.5050  0.3670 -1.0964
15455SOL    HW248745   5.998   7.980   1.919  0.1758  0.3989 -0.3148
15456SOL     OW48746   1.191   6.260   0.227 -0.2776 -0.5866  0.0584
15456SOL    HW148747   1.121   6.295   0.171 -0.1795  0.4922  0.5860
15456SOL    HW248748   1.147   6.243   0.311  0.1118  0.2708  0.4499
15457SOL     OW48749   7.264   8.665  10.011  0.5420 -0.2475 -0.0351
15457SOL    HW148750   7.202   8.624  10.071  1.8783 -0.6003  1.1784
15457SOL    HW248751   7.237   8.757  10.008  0.3607 -0.2529  1.0108
15458SOL     OW48752   6.984   5.984   3.678 -0.6187  0.2600  0.0076
15458SOL    HW148753   6.897   6.023   3.668 -1.3014 -1.4487 -1.3849
15458SOL    HW248754   6.974   5.922   3.750 -0.8868 -0.7099 -0.8430
15459SOL     OW48755   7.679   8.093   5.517 -0.7981  0.2628  1.0354
15459SOL    HW148756   7.676   8.007   5.476 -1.7394 -0.5664  2.7428
15459SOL    HW248757   7.766   8.127   5.495 -0.8929 -0.5524 -0.7218
15460SOL     OW48758   2.179   9.586   4.822 -0.5786 -0.3729  0.3435
15460SOL    HW148759   2.086   9.582   4.840 -0.4968 -1.6156  0.5918
15460SOL    HW248760   2.195   9.514   4.760 -0.1795  1.3055 -1.6259
15461SOL     OW48761   9.584  10.566   1.227 -0.1030 -0.6520 -0.5445
15461SOL    HW148762   9.508  10.509   1.236 -0.4278 -0.0927  0.4877
15461SOL    HW248763   9.568  10.615   1.147 -2.7145  2.0639  1.4271
15462SOL     OW48764   0.816   2.267  10.487 -0.1625 -0.4302 -0.1303
15462SOL    HW148765   0.738   2.240  10.439  0.8496 -0.3678 -1.9194
15462SOL    HW248766   0.887   2.258  10.423  1.0410  1.0953  0.9256
15463SOL     OW48767   2.508   5.405   7.901 -0.1502 -0.3589 -0.7075
15463SOL    HW148768   2.567   5.387   7.828  0.7021 -1.5389  0.2104
15463SOL    HW248769   2.420   5.401   7.864  0.2530 -1.3045 -1.6115
15464SOL     OW48770   4.847   0.834   1.910  0.1762 -0.2463  0.3860
15464SOL    HW148771   4.805   0.778   1.846  2.7009 -1.1230 -0.6421
15464SOL    HW248772   4.814   0.803   1.995 -2.7210  0.5173 -0.3757
15465SOL     OW48773   6.144   7.163   0.339  0.1949  0.0003  0.9634
15465SOL    HW148774   6.110   7.188   0.253 -0.3141 -0.7418  0.9436
15465SOL    HW248775   6.198   7.237   0.365  1.6790 -0.4333 -0.6922
15466SOL     OW48776  10.722   1.771   4.472 -0.6539 -0.1688  0.8596
15466SOL    HW148777  10.679   1.686   4.458 -0.5360  0.0397 -0.9404
15466SOL    HW248778  10.650   1.832   4.486 -0.9239 -0.0253 -1.0044
15467SOL     OW48779   4.812   4.577   7.006  0.7863 -0.6153 -0.3759
15467SOL    HW148780   4.783   4.575   7.097  1.5736  0.9251 -0.0586
15467SOL    HW248781   4.788   4.664   6.974  0.1720 -1.2653 -1.7754
15468SOL     OW48782   1.605   9.908  10.534 -0.3634 -0.7489 -0.1580
15468SOL    HW148783   1.618   9.947  10.621  0.7638 -2.1466  0.3383
15468SOL    HW248784   1.585   9.817  10.551 -1.3568 -0.7730 -1.3527
15469SOL     OW48785   3.891   4.533   2.101 -0.1071  0.1626 -0.2608
15469SOL    HW148786   3.934   4.609   2.061 -0.5915  0.3375 -0.4630
15469SOL    HW248787   3.843   4.492   2.029 -0.1880 -0.0905 -0.0639
15470SOL     OW48788  10.515   5.070   9.641  0.3507  0.0056  0.3450
15470SOL    HW148789  10.585   5.134   9.625 -0.1295  0.1016 -1.6625
15470SOL    HW248790  10.434   5.120   9.626 -0.0280 -1.0804 -1.3883
15471SOL     OW48791   5.627   4.942   5.290  0.5556 -0.0572 -0.1620
15471SOL    HW148792   5.699   5.001   5.309 -0.1922  0.7313  0.3398
15471SOL    HW248793   5.580   4.934   5.374  0.1792 -0.7105 -0.4237
15472SOL     OW48794   0.788   9.793   6.360 -0.0517 -0.5346 -0.3264
15472SOL    HW148795   0.733   9.733   6.310  0.7013 -2.5294  1.1364
15472SOL    HW248796   0.847   9.832   6.295 -2.6856  1.2475 -1.8441
15473SOL     OW48797   3.100   2.110   1.092 -0.1459  0.1193  0.6381
15473SOL    HW148798   3.060   2.062   1.165 -0.9308 -1.1158 -0.5495
15473SOL    HW248799   3.036   2.177   1.069 -1.0292 -1.0314 -0.4228
15474SOL     OW48800   7.851   8.722   2.467  0.4616 -0.2549  0.4039
15474SOL    HW148801   7.826   8.630   2.477 -1.2639  0.3481  2.1526
15474SOL    HW248802   7.780   8.760   2.416  1.7970 -0.1023 -1.4289
15475SOL     OW48803   4.363   9.468   4.057  0.3312  0.2868  0.1520
15475SOL    HW148804   4.420   9.520   3.999 -1.3186  0.1850 -1.6758
15475SOL    HW248805   4.300   9.531   4.090  0.3645  0.0575  0.6495
15476SOL     OW48806   3.317   9.031   7.744  0.1677  0.1576 -0.3249
15476SOL    HW148807   3.323   9.122   7.775  0.9114 -0.3624  1.1565
15476SOL    HW248808   3.398   8.990   7.774 -0.2651 -1.0599 -0.7721
15477SOL     OW48809   3.519   1.934   4.189 -0.4436  0.0352  0.1009
15477SOL    HW148810   3.521   1.949   4.284 -1.2069 -3.4329  0.8035
15477SOL    HW248811   3.426   1.926   4.169 -0.3166  1.3188 -1.1150
15478SOL     OW48812   9.795   0.811   6.604  0.0561  0.2722  0.1025
15478SOL    HW148813   9.710   0.854   6.599  0.0350  0.1086 -1.2422
15478SOL    HW248814   9.813   0.781   6.515  0.5067 -1.6555  0.7849
15479SOL     OW48815   7.513   3.737   9.633  0.0708 -0.4191 -0.7569
15479SOL    HW148816   7.578   3.778   9.690 -0.5919  0.8316 -0.8465
15479SOL    HW248817   7.544   3.648   9.620  0.7461 -0.4360  0.7669
15480SOL     OW48818   3.495   8.050   9.271 -0.2832 -0.6424  0.4132
15480SOL    HW148819   3.570   8.011   9.315  1.2725  0.1133 -1.4117
15480SOL    HW248820   3.495   8.141   9.299  0.0456 -0.4258 -0.2703
15481SOL     OW48821   3.358   5.255   4.969 -0.0401  0.5011 -1.1179
15481SOL    HW148822   3.308   5.236   4.889 -0.6716 -1.1819 -0.3630
15481SOL    HW248823   3.404   5.174   4.988  2.3179  1.7283 -1.2668
15482SOL     OW48824   0.457   8.063   9.355  0.2243 -0.0065 -0.1784
15482SOL    HW148825   0.494   7.974   9.363  1.5893  0.4409 -1.0962
15482SOL    HW248826   0.448   8.093   9.445  2.5952 -0.0070  0.1335
15483SOL     OW48827   9.170   0.794   8.478  0.0970 -0.3337  0.2406
15483SOL    HW148828   9.108   0.722   8.478  1.1144 -1.2472 -1.1457
15483SOL    HW248829   9.134   0.856   8.542  0.1037 -2.8215  2.8677
15484SOL     OW48830   5.032   9.993   4.082  0.4466  0.4374 -0.3446
15484SOL    HW148831   5.005  10.018   3.993  0.3911 -0.6874 -0.6678
15484SOL    HW248832   4.971  10.037   4.139 -1.0064 -0.6587 -0.9914
15485SOL     OW48833   5.666   1.817   3.706  0.2659  0.2710 -0.0928
15485SOL    HW148834   5.735   1.761   3.671  0.3450  0.7728 -0.7700
15485SOL    HW248835   5.591   1.803   3.648  0.3078  0.9024 -0.3110
15486SOL     OW48836   2.769   2.521   2.753 -0.3678 -0.5346  0.6647
15486SOL    HW148837   2.726   2.477   2.680 -1.3878  0.2896  0.7411
15486SOL    HW248838   2.791   2.450   2.814  2.4927 -1.5262 -1.3427
15487SOL     OW48839   8.890   7.299   2.424 -0.4788  0.1096 -0.2983
15487SOL    HW148840   8.850   7.239   2.488 -0.2230  0.4980  0.2347
15487SOL    HW248841   8.891   7.384   2.469  0.3371  0.2431 -0.5595
15488SOL     OW48842   0.679   1.545   5.300 -0.7849 -0.1706  0.2625
15488SOL    HW148843   0.709   1.482   5.235  2.2487  0.0595  1.2940
15488SOL    HW248844   0.626   1.608   5.250  0.2535 -0.7823 -1.7058
15489SOL     OW48845   4.937   8.109   3.257 -0.2668  0.0605 -0.2972
15489SOL    HW148846   5.012   8.156   3.292  0.3227  0.5700 -2.1152
15489SOL    HW248847   4.879   8.177   3.224 -0.3737 -0.4114 -1.1047
15490SOL     OW48848   6.233   7.247   1.095  0.4889  0.2000 -0.0742
15490SOL    HW148849   6.310   7.194   1.074 -0.0401 -0.6619  0.1044
15490SOL    HW248850   6.246   7.275   1.185  1.6260  1.9061 -0.7239
15491SOL     OW48851   1.902   0.413   5.076  0.1448  0.0540  0.8134
15491SOL    HW148852   1.902   0.455   5.162  0.2957  0.2649  0.7106
15491SOL    HW248853   1.994   0.409   5.051  0.0669  0.4174  0.4567
15492SOL     OW48854   0.626   0.994   1.696 -0.1867  0.2791 -0.1643
15492SOL    HW148855   0.561   0.990   1.626  0.0651  2.3191 -0.5459
15492SOL    HW248856   0.698   1.046   1.661  0.2131  0.8274  1.3721
15493SOL     OW48857   3.028   6.736   0.858 -0.3667  0.3717  0.3976
15493SOL    HW148858   2.950   6.680   0.853 -0.7069  0.9473 -1.1950
15493SOL    HW248859   3.006   6.801   0.924 -1.3379  0.6555 -0.1804
15494SOL     OW48860   9.626   6.055  10.675 -0.0360 -0.5840  0.8305
15494SOL    HW148861   9.551   6.021  10.625  0.1844 -0.6581  0.5452
15494SOL    HW248862   9.594   6.063  10.765 -1.0479  1.4459  0.3300
15495SOL     OW48863   2.400   5.680   3.094  0.1844  0.7362  0.2870
15495SOL    HW148864   2.426   5.637   3.176  0.6367  0.5918  0.0722
15495SOL    HW248865   2.408   5.773   3.113 -0.8688  0.7393  0.7769
15496SOL     OW48866   7.233   7.688   3.986  0.0215  0.0978  0.4085
15496SOL    HW148867   7.229   7.761   3.924 -1.5326  0.7085  1.1687
15496SOL    HW248868   7.146   7.686   4.026  0.1069 -2.0198  0.6062
15497SOL     OW48869  10.503   9.198   6.824  0.2579 -0.6139 -0.6154
15497SOL    HW148870  10.432   9.134   6.825  0.3446 -0.7313  1.4952
15497SOL    HW248871  10.576   9.154   6.866  0.6265  0.5165 -0.0236
15498SOL     OW48872   9.243   7.327   8.010  0.7066  0.0383 -0.0870
15498SOL    HW148873   9.232   7.396   8.076  1.3293 -0.0697  0.1344
15498SOL    HW248874   9.281   7.253   8.059 -2.9283 -1.6903  0.4364
15499SOL     OW48875   0.071   0.238   5.008  0.6215  0.6225 -0.6369
15499SOL    HW148876   0.041   0.213   4.921  1.2802  0.3251 -0.7782
15499SOL    HW248877   0.112   0.159   5.043  2.1598  1.2910 -0.8380
15500SOL     OW48878   1.271   3.157   8.008  0.2896 -0.3317 -0.2225
15500SOL    HW148879   1.313   3.178   8.091  1.1828  0.7141 -0.9059
15500SOL    HW248880   1.296   3.066   7.991 -0.4284 -0.7706  0.9289
15501SOL     OW48881   1.132  10.494   6.006 -0.0510  0.2944 -0.3268
15501SOL    HW148882   1.216  10.537   6.025 -0.4813  1.0142 -0.0429
15501SOL    HW248883   1.085  10.495   6.089  0.1677 -1.2934 -0.1537
15502SOL     OW48884   0.622   6.841   1.724 -0.0155  0.8601  0.0998
15502SOL    HW148885   0.661   6.821   1.639 -1.2184  1.5721 -0.6497
15502SOL    HW248886   0.585   6.757   1.753 -1.6779  1.0908 -1.2182
15503SOL     OW48887   2.235   6.194   4.924 -0.4507  0.1345  0.1011
15503SOL    HW148888   2.197   6.232   4.845  0.7167  0.8036 -0.1676
15503SOL    HW248889   2.285   6.119   4.892  0.8402  0.9814  0.0329
15504SOL     OW48890   1.958   6.816   9.179  0.3883 -0.3429 -0.2387
15504SOL    HW148891   1.991   6.906   9.177  0.2009 -0.2718 -2.1630
15504SOL    HW248892   1.884   6.816   9.118  1.1871 -2.0837 -1.2858
15505SOL     OW48893   1.236   5.642   9.908  0.1634 -0.0116 -0.3086
15505SOL    HW148894   1.261   5.593   9.829  0.6288  0.1595 -0.2639
15505SOL    HW248895   1.162   5.696   9.879  0.0464 -0.2805 -0.5167
15506SOL     OW48896   3.689   9.431   0.087  0.1033 -0.8512  0.3965
15506SOL    HW148897   3.722   9.342   0.079  1.7737 -0.2288 -0.0882
15506SOL    HW248898   3.644   9.433   0.172  0.5182 -1.9896  0.6581
15507SOL     OW48899   0.816  10.358   8.486 -0.2994  0.4853 -0.0269
15507SOL    HW148900   0.871  10.433   8.464 -0.2782  0.2513 -0.8116
15507SOL    HW248901   0.728  10.395   8.495 -0.2623  0.6321 -0.2530
15508SOL     OW48902   5.240   0.493   4.147 -0.3966  0.4375  0.4834
15508SOL    HW148903   5.202   0.483   4.060 -3.1272  1.8368  1.4076
15508SOL    HW248904   5.305   0.563   4.137  0.6721 -0.7006 -0.7725
15509SOL     OW48905   8.181   9.227   6.413 -0.5874  0.7407  0.2965
15509SOL    HW148906   8.110   9.191   6.467 -0.9548 -2.6819 -2.1414
15509SOL    HW248907   8.257   9.175   6.438 -0.7553 -0.8784 -2.2207
15510SOL     OW48908   7.684   1.081   8.804 -0.1936  0.0695 -0.0046
15510SOL    HW148909   7.672   1.143   8.876  1.1359 -0.5277  0.7655
15510SOL    HW248910   7.611   1.020   8.813 -0.5206  0.4996  0.3127
15511SOL     OW48911   8.160   0.087   1.963 -0.1124 -0.0491  0.0160
15511SOL    HW148912   8.241   0.127   1.995 -0.3284  1.3836 -1.1120
15511SOL    HW248913   8.092   0.126   2.017 -0.3520  1.4309 -1.2683
15512SOL     OW48914   7.969  10.308   8.355 -0.0778  0.1858 -0.2619
15512SOL    HW148915   7.884  10.347   8.335 -0.4844 -0.5068  0.0840
15512SOL    HW248916   7.974  10.231   8.299 -0.2198 -0.4654  0.5986
15513SOL     OW48917   8.833   8.445   6.693  0.5945 -0.6778  0.0853
15513SOL    HW148918   8.856   8.441   6.601 -0.5482 -1.2888 -0.2022
15513SOL    HW248919   8.749   8.399   6.698  0.1412  0.2248  1.2650
15514SOL     OW48920   7.938   0.007   8.295 -0.4457  0.1298 -0.0763
15514SOL    HW148921   7.900  -0.073   8.258  0.0804  0.0030 -0.3443
15514SOL    HW248922   8.020   0.019   8.247 -1.2500  1.6911 -1.1643
15515SOL     OW48923   2.389   3.486   0.967 -1.0974  0.2850  0.3025
15515SOL    HW148924   2.445   3.415   0.996  0.2789  1.8282  1.6502
15515SOL    HW248925   2.437   3.566   0.991 -2.1261  1.6922 -1.9350
15516SOL     OW48926   0.453   7.672   8.676  0.2602 -0.5011 -0.1302
15516SOL    HW148927   0.382   7.645   8.617  0.9160 -0.7947 -0.8072
15516SOL    HW248928   0.529   7.623   8.646  1.0381  0.6903 -0.1850
15517SOL     OW48929   3.553   8.563   4.955 -0.4649 -0.7671  0.5273
15517SOL    HW148930   3.477   8.526   4.911  0.2037 -1.4140 -0.1147
15517SOL    HW248931   3.600   8.487   4.990 -0.3299 -0.3445  1.2719
15518SOL     OW48932   1.145   5.914   7.671 -0.2458  0.3853  0.5293
15518SOL    HW148933   1.205   5.888   7.741  0.2685  0.3471  0.0871
15518SOL    HW248934   1.133   5.834   7.619 -0.9873  0.2949  0.8273
15519SOL     OW48935   1.227   0.398   3.442 -0.0522  0.4767 -1.0575
15519SOL    HW148936   1.267   0.320   3.480 -1.1845 -0.5437 -1.8812
15519SOL    HW248937   1.301   0.450   3.409  0.9425  1.1906  2.0088
15520SOL     OW48938   1.975   7.596   3.570  0.1442  0.5846  0.3608
15520SOL    HW148939   1.931   7.516   3.541 -1.4591  1.2117  0.9420
15520SOL    HW248940   1.904   7.658   3.586  1.2470  1.6245  1.4540
15521SOL     OW48941   7.005   6.368   7.543  0.0771 -0.5916 -0.3854
15521SOL    HW148942   6.936   6.327   7.595 -0.6442 -1.3750 -1.8942
15521SOL    HW248943   7.067   6.401   7.607 -1.6348  0.0292  1.0139
15522SOL     OW48944   5.490   1.251   0.515 -0.2549  0.5708  0.3972
15522SOL    HW148945   5.500   1.183   0.582 -0.6336  1.1063  1.0120
15522SOL    HW248946   5.527   1.329   0.556  0.8547  0.5862 -0.5750
15523SOL     OW48947   5.240   5.487   7.177  1.0338  0.8905  0.1953
15523SOL    HW148948   5.168   5.455   7.122  0.7337 -2.0483  2.0789
15523SOL    HW248949   5.198   5.550   7.236 -0.5075 -1.8446  2.2482
15524SOL     OW48950   5.863   7.117   8.715 -0.5961 -0.1127  0.4295
15524SOL    HW148951   5.927   7.183   8.689 -0.8951  1.0012  2.3554
15524SOL    HW248952   5.915   7.038   8.733  0.0972  0.4008  0.6973
15525SOL     OW48953   4.785   3.988   0.840 -0.0845 -0.2553 -0.4842
15525SOL    HW148954   4.787   3.893   0.841 -1.2650 -0.2966 -0.7567
15525SOL    HW248955   4.818   4.014   0.926 -0.2475 -0.9227 -0.2160
15526SOL     OW48956   3.514   4.949   9.074  0.1831  0.5313  0.1021
15526SOL    HW148957   3.458   5.023   9.100 -1.1708 -0.2051 -0.5932
15526SOL    HW248958   3.479   4.875   9.123  1.9541  0.4254  1.3060
15527SOL     OW48959  10.400   3.465   4.526 -0.0355  0.3724 -0.1813
15527SOL    HW148960  10.380   3.381   4.567 -0.4174  0.4788 -0.1439
15527SOL    HW248961  10.484   3.491   4.563  0.0324  0.0589 -0.1126
15528SOL     OW48962   1.368   7.664   2.884  0.4593 -0.1637 -0.4954
15528SOL    HW148963   1.368   7.699   2.795  0.9263 -1.8865 -1.2163
15528SOL    HW248964   1.460   7.648   2.903  0.5307  1.7232  0.9803
15529SOL     OW48965   2.119   7.459   3.800  0.2838 -0.4758  0.0285
15529SOL    HW148966   2.048   7.517   3.773 -0.1153 -0.9014  0.1442
15529SOL    HW248967   2.169   7.443   3.719  0.3279 -0.0641 -0.0241
15530SOL     OW48968   0.996   0.193   1.960 -0.1385 -0.1652  0.0922
15530SOL    HW148969   0.947   0.148   2.028 -0.8329  0.3525 -0.0538
15530SOL    HW248970   0.991   0.286   1.983  2.8718 -0.2359  1.4353
15531SOL     OW48971   3.534   2.913   6.157  0.7719 -0.3519  0.7368
15531SOL    HW148972   3.617   2.953   6.131  0.6181 -0.6255 -0.2208
15531SOL    HW248973   3.488   2.983   6.204  0.3527  0.7932 -1.2326
15532SOL     OW48974   2.450   0.287   7.636  0.1347 -0.2441  0.1757
15532SOL    HW148975   2.539   0.270   7.667  0.2254  1.5320  0.9864
15532SOL    HW248976   2.411   0.200   7.627  1.9325 -1.0575 -0.2041
15533SOL     OW48977   4.678   8.323   9.185 -0.7950 -0.0562 -0.3051
15533SOL    HW148978   4.669   8.241   9.235 -1.1090  0.8735  1.2188
15533SOL    HW248979   4.770   8.347   9.194 -1.1719  0.9497  1.2600
15534SOL     OW48980   1.724   0.921   4.360 -0.2512  0.6265  0.3754
15534SOL    HW148981   1.782   0.973   4.304  0.0178  0.1575  0.2091
15534SOL    HW248982   1.748   0.830   4.340 -2.1145  0.3495 -0.8749
15535SOL     OW48983   5.029   0.399  10.007  0.1394  0.4116 -0.3265
15535SOL    HW148984   5.099   0.337   9.986  0.3319  0.3644  0.4263
15535SOL    HW248985   5.035   0.466   9.938 -0.8087 -0.9706 -1.8293
15536SOL     OW48986   2.099   4.907   5.216  0.2700 -0.8078  0.3536
15536SOL    HW148987   2.141   4.862   5.143  1.8838  2.6408 -1.0940
15536SOL    HW248988   2.170   4.957   5.258 -1.5414  1.8076  0.5838
15537SOL     OW48989   9.066   3.410   2.609  0.2571 -0.0600 -0.8078
15537SOL    HW148990   9.055   3.382   2.700  2.2371  0.3002 -0.4118
15537SOL    HW248991   9.082   3.505   2.616  0.3678 -0.0221 -1.5462
15538SOL     OW48992   3.556   0.676   8.390  0.7052  0.6078  0.0144
15538SOL    HW148993   3.477   0.628   8.366 -0.8305  2.5253  1.0156
15538SOL    HW248994   3.582   0.720   8.309  1.2402 -0.6214 -0.5144
15539SOL     OW48995   8.179   6.333   6.388 -0.0864  0.0394  0.2111
15539SOL    HW148996   8.220   6.391   6.451 -0.3521  0.7393 -0.2409
15539SOL    HW248997   8.138   6.264   6.441  1.2307 -0.4089  0.6874
15540SOL     OW48998   4.908   7.953   5.121  0.0963 -0.5017  0.1981
15540SOL    HW148999   4.908   8.047   5.103  0.5679 -0.1797  1.7860
15540SOL    HW249000   4.845   7.941   5.192  2.0174 -0.9484  1.9279
15541SOL     OW49001   9.344   7.634   3.270  0.1114 -0.1554 -0.2979
15541SOL    HW149002   9.350   7.724   3.302  2.5353 -0.6527  0.9286
15541SOL    HW249003   9.257   7.605   3.296  0.0755  1.1754  1.2583
15542SOL     OW49004   9.585   3.556  10.041  0.0667  0.2575 -0.6063
15542SOL    HW149005   9.554   3.639  10.075  0.9758  0.4822 -0.2905
15542SOL    HW249006   9.513   3.523   9.986 -1.0214  0.3669  0.7098
15543SOL     OW49007   6.730   4.409   1.882  0.1492  0.6155  0.3111
15543SOL    HW149008   6.645   4.384   1.846  0.9904  0.8828 -2.0376
15543SOL    HW249009   6.775   4.326   1.898  0.1991  0.4950 -0.4254
15544SOL     OW49010   5.093   5.991   3.537 -0.3145  0.6171  0.6627
15544SOL    HW149011   5.108   6.037   3.455  0.8933  2.0770  1.6521
15544SOL    HW249012   5.006   5.951   3.527 -0.5666  1.5148 -0.9631
15545SOL     OW49013   3.993   1.852   8.253  0.1390 -0.1229 -0.4794
15545SOL    HW149014   3.961   1.835   8.165  0.4644  1.3470 -0.9089
15545SOL    HW249015   4.042   1.773   8.277  1.2091 -0.0171 -2.1627
15546SOL     OW49016   4.761   5.371   9.770 -0.0778  0.1233  0.7768
15546SOL    HW149017   4.836   5.419   9.804 -1.2364  2.8765 -0.2398
15546SOL    HW249018   4.796   5.317   9.700  1.0556  0.8435  0.7657
15547SOL     OW49019   6.508   0.207   1.795 -0.6881  0.2963  0.0521
15547SOL    HW149020   6.553   0.174   1.717 -1.5033 -2.9067  0.8136
15547SOL    HW249021   6.569   0.188   1.867 -1.7712 -0.9551  0.6796
15548SOL     OW49022   9.310   7.613   8.919 -0.4254 -0.0199 -0.3277
15548SOL    HW149023   9.373   7.557   8.965 -0.6252  0.5990  0.7471
15548SOL    HW249024   9.343   7.618   8.830  0.3647 -0.7131 -0.0916
15549SOL     OW49025   3.654   4.405   0.442  0.2884  0.2770 -0.2385
15549SOL    HW149026   3.701   4.387   0.361  0.1230  0.4576 -0.3752
15549SOL    HW249027   3.660   4.500   0.453 -2.3110  0.6979 -1.6660
15550SOL     OW49028   4.181   0.437   3.135 -0.0221 -0.6389  0.0069
15550SOL    HW149029   4.169   0.342   3.141  1.9808 -0.9350 -0.1257
15550SOL    HW249030   4.101   0.468   3.092 -1.6115 -1.9772  1.8053
15551SOL     OW49031   1.038   1.200   7.016 -0.8182  0.5184  0.1984
15551SOL    HW149032   1.024   1.137   7.087  1.9059 -0.4818 -0.0489
15551SOL    HW249033   1.118   1.246   7.041 -0.5918  1.1249 -1.5671
15552SOL     OW49034   9.953   9.371   3.553  0.2277  0.0579  0.0040
15552SOL    HW149035   9.992   9.451   3.589 -1.4708  1.4037 -1.0200
15552SOL    HW249036   9.869   9.362   3.598 -0.1454 -0.4460 -0.7674
15553SOL     OW49037   4.177   9.498   0.321  0.7217 -0.0315  0.3873
15553SOL    HW149038   4.092   9.492   0.364 -0.0258 -2.5594 -1.2212
15553SOL    HW249039   4.164   9.563   0.252  0.4632  0.4550  0.8847
15554SOL     OW49040   9.363   6.371  10.033  0.7663 -0.0276 -0.5556
15554SOL    HW149041   9.416   6.417   9.967  1.0351 -0.2528 -0.4985
15554SOL    HW249042   9.425   6.350  10.103  0.7155 -0.7449 -0.7162
15555SOL     OW49043  10.055  10.316   9.839 -0.5909  0.4615 -0.0531
15555SOL    HW149044  10.023  10.375   9.908 -0.9503 -0.4331  0.5691
15555SOL    HW249045  10.088  10.240   9.887  1.1997  0.7578 -0.7565
15556SOL     OW49046   7.199  10.403   1.020 -0.6799 -0.4677  0.2049
15556SOL    HW149047   7.120  10.352   1.037 -0.7193  0.3110  2.8273
15556SOL    HW249048   7.263  10.338   0.989 -1.6626 -1.5213  0.3281
15557SOL     OW49049   4.171   6.070   3.132 -0.0167 -0.2406  0.1128
15557SOL    HW149050   4.256   6.113   3.131  0.9015 -1.7245  3.2306
15557SOL    HW249051   4.113   6.132   3.176  0.4335 -0.6894  1.3887
15558SOL     OW49052   4.653   6.042   7.856  0.4414 -0.1211  0.1225
15558SOL    HW149053   4.575   6.039   7.801  1.4156 -0.6284 -1.2790
15558SOL    HW249054   4.711   5.974   7.820  2.3216  1.5121 -0.1299
15559SOL     OW49055   8.134   3.585  10.725 -0.0526 -0.6627  0.0131
15559SOL    HW149056   8.069   3.540  10.779 -1.1840 -0.6193 -1.2621
15559SOL    HW249057   8.211   3.528  10.727 -0.9568 -1.9263 -0.3769
15560SOL     OW49058   5.099   7.481   2.300 -0.1602 -0.6658 -0.1749
15560SOL    HW149059   5.014   7.481   2.343 -0.3528  0.7428 -0.5214
15560SOL    HW249060   5.151   7.417   2.349 -1.2124 -1.0761  0.4282
15561SOL     OW49061   8.351   5.576   7.165  0.3501  0.3535 -0.4752
15561SOL    HW149062   8.353   5.649   7.103 -0.2528  1.2327  0.5119
15561SOL    HW249063   8.294   5.605   7.235 -3.7684 -2.7643 -2.0784
15562SOL     OW49064   1.733   6.844   9.059  0.2022 -0.2032  0.0404
15562SOL    HW149065   1.686   6.914   9.103  0.6871 -0.5367  1.1324
15562SOL    HW249066   1.699   6.844   8.969 -1.5937 -0.1955  0.6816
15563SOL     OW49067   8.986   3.049   1.382  0.0979 -0.4506  0.1460
15563SOL    HW149068   9.038   3.128   1.396 -2.5292  1.0239  2.5599
15563SOL    HW249069   8.949   3.061   1.294 -0.8358  1.4147  0.7511
15564SOL     OW49070   9.905   5.198   8.277  0.0989 -0.6286  0.1683
15564SOL    HW149071   9.892   5.287   8.310  0.6192 -1.2783  2.2524
15564SOL    HW249072   9.886   5.204   8.183 -1.7031  1.2660  0.5923
15565SOL     OW49073   7.716   6.547   1.160 -0.5548  0.1522  0.1178
15565SOL    HW149074   7.784   6.480   1.154 -0.9811 -0.5189  2.0875
15565SOL    HW249075   7.646   6.514   1.104  0.4500  0.5363 -1.4241
15566SOL     OW49076   6.733   8.822  10.267  0.0003  0.3650 -0.2318
15566SOL    HW149077   6.753   8.758  10.199 -0.2830 -2.0676  1.8113
15566SOL    HW249078   6.637   8.830  10.266  0.0007  0.3850 -0.1643
15567SOL     OW49079   8.953  10.659   6.973 -0.2697 -0.2265 -0.3497
15567SOL    HW149080   8.940  10.565   6.960  0.4234 -0.1732 -1.5017
15567SOL    HW249081   9.037  10.665   7.018 -0.5907 -0.1779  0.2537
15568SOL     OW49082   6.817   9.901   5.576 -0.2564  0.6687  0.4194
15568SOL    HW149083   6.877   9.973   5.598 -1.2174  2.5791 -2.6794
15568SOL    HW249084   6.731   9.943   5.568 -1.2536 -1.2461  0.4934
15569SOL     OW49085   7.599   9.264   4.218  0.3986  0.5049 -0.4314
15569SOL    HW149086   7.667   9.286   4.155  0.4690  0.9402 -0.2064
15569SOL    HW249087   7.625   9.178   4.252 -0.2936 -0.3329 -1.8852
15570SOL     OW49088   6.733   5.950   0.614 -0.1065 -0.3342 -0.1896
15570SOL    HW149089   6.675   5.937   0.688  0.5228 -0.5678  0.2656
15570SOL    HW249090   6.698   5.894   0.545  0.2925 -1.4184  0.4782
15571SOL     OW49091   4.802   8.898   3.687  0.1164  0.7635 -0.0619
15571SOL    HW149092   4.721   8.942   3.711  0.4429  1.4121 -0.1183
15571SOL    HW249093   4.821   8.840   3.760  0.3294  1.6373  0.6061
15572SOL     OW49094   6.090   4.896   9.779 -0.1189  0.3972 -0.1416
15572SOL    HW149095   6.009   4.943   9.799 -0.7569 -0.6016 -0.3138
15572SOL    HW249096   6.127   4.943   9.704 -0.9121  0.4486 -0.5200
15573SOL     OW49097   9.712   9.781   0.322  0.7643  0.0665 -0.1083
15573SOL    HW149098   9.651   9.730   0.375 -1.2029  2.0477 -0.3255
15573SOL    HW249099   9.711   9.868   0.361  3.2657  0.2624 -0.3356
15574SOL     OW49100   9.110   6.964   2.514  0.2934 -0.0640  0.3252
15574SOL    HW149101   9.146   6.891   2.464 -2.6717 -1.7886  0.4410
15574SOL    HW249102   9.158   7.041   2.483  0.6197 -1.4533 -3.0414
15575SOL     OW49103   8.642   6.395   1.826 -0.0433  0.1430  0.5538
15575SOL    HW149104   8.595   6.423   1.747  0.5076 -1.3708 -0.3627
15575SOL    HW249105   8.593   6.434   1.898  0.2235  2.7225 -0.5568
15576SOL     OW49106   9.390  10.430   7.832 -0.5288  0.3562  0.3261
15576SOL    HW149107   9.464  10.489   7.818 -0.8624  0.6143 -0.3724
15576SOL    HW249108   9.430  10.345   7.850 -0.0668  0.4747 -0.1420
15577SOL     OW49109   5.329   5.878   4.401 -0.3213  0.1490  0.4731
15577SOL    HW149110   5.294   5.790   4.386 -0.0083 -0.2675  1.9839
15577SOL    HW249111   5.393   5.891   4.331 -0.3926 -0.8153  0.2141
15578SOL     OW49112   1.190   9.372   5.377 -0.0551 -0.4242 -0.1961
15578SOL    HW149113   1.138   9.400   5.303  0.0088 -1.4227 -0.6373
15578SOL    HW249114   1.173   9.437   5.445 -0.8429 -0.0218 -0.7688
15579SOL     OW49115   1.459   1.271   2.498 -0.0691 -0.4249 -0.3449
15579SOL    HW149116   1.485   1.269   2.406  1.8693 -0.5463  0.1708
15579SOL    HW249117   1.416   1.356   2.509  0.2026 -0.1654 -1.2191
15580SOL     OW49118   4.903   4.819   7.502 -0.3801 -0.0176  0.2463
15580SOL    HW149119   4.955   4.740   7.488  0.9398  0.8814 -0.0970
15580SOL    HW249120   4.964   4.881   7.542 -0.7640  1.5530 -1.4694
15581SOL     OW49121  10.106   8.967   4.411 -0.3957 -0.1843  0.7221
15581SOL    HW149122  10.031   8.940   4.359  1.1548 -1.5614 -0.9167
15581SOL    HW249123  10.094   8.923   4.495 -2.0754  0.7159  0.9937
15582SOL     OW49124   6.863   4.067   8.642 -0.3155 -0.0543 -0.0915
15582SOL    HW149125   6.940   4.072   8.586 -1.5974  1.5539 -1.8417
15582SOL    HW249126   6.888   4.009   8.714  0.6300 -4.3886 -3.5553
15583SOL     OW49127   2.943   9.121   4.791 -0.1836 -0.2259 -0.2386
15583SOL    HW149128   2.992   9.070   4.727  1.1200  1.5854 -0.7545
15583SOL    HW249129   2.924   9.204   4.747 -1.6198  0.0434  0.8058
15584SOL     OW49130   4.964   0.373   1.965 -0.2235  0.3388  0.4225
15584SOL    HW149131   5.017   0.359   1.887  1.2688 -0.5534  1.5323
15584SOL    HW249132   5.009   0.444   2.011 -0.4377  0.1081  0.9950
15585SOL     OW49133   2.023   4.690   7.797 -0.1976  0.6751 -1.0550
15585SOL    HW149134   2.032   4.776   7.755  0.5791  0.4590 -1.3548
15585SOL    HW249135   2.049   4.705   7.888  0.0368  0.7361 -1.1322
15586SOL     OW49136   6.775   0.452   4.369 -0.1130  0.2495  0.3136
15586SOL    HW149137   6.756   0.507   4.445 -0.8948 -0.3632  0.5704
15586SOL    HW249138   6.870   0.441   4.372 -0.0679  0.7064  0.8754
15587SOL     OW49139   0.321   0.088   4.290 -0.7873 -0.3962 -0.3057
15587SOL    HW149140   0.341   0.174   4.252 -0.6100 -0.3057 -0.0113
15587SOL    HW249141   0.320   0.103   4.385 -1.5564 -0.5467 -0.2801
15588SOL     OW49142   8.284   0.967   7.915 -0.0104  0.3223 -0.7753
15588SOL    HW149143   8.203   1.018   7.923  0.2348  0.7015 -0.6902
15588SOL    HW249144   8.315   0.958   8.005  0.7770  1.3858 -0.9170
15589SOL     OW49145   3.474   3.999   9.047 -0.4930 -0.4730 -0.1456
15589SOL    HW149146   3.559   3.971   9.014 -0.1952 -1.7677  1.5872
15589SOL    HW249147   3.411   3.946   9.000 -0.1578 -1.3177  0.3296
15590SOL     OW49148  10.540   5.354   2.540  0.1914 -0.7842 -0.1126
15590SOL    HW149149  10.529   5.410   2.463 -0.7875 -2.3288 -1.1665
15590SOL    HW249150  10.612   5.394   2.589 -0.3643  1.2671 -0.8809
15591SOL     OW49151   4.965  10.271  10.372  0.0426 -0.6051 -0.2274
15591SOL    HW149152   4.933  10.330  10.440 -1.0509 -0.0851 -1.1624
15591SOL    HW249153   4.933  10.184  10.399  0.1221 -0.4970  0.2231
15592SOL     OW49154  10.070   1.463   4.352  0.2664 -0.2725 -0.1589
15592SOL    HW149155   9.990   1.430   4.311  0.1174  0.4833 -0.4899
15592SOL    HW249156  10.138   1.448   4.287  0.5806 -1.7464  0.4722
15593SOL     OW49157   4.555   6.477   7.113 -0.0273  0.2706  0.1149
15593SOL    HW149158   4.630   6.436   7.155 -0.1756 -0.1648 -0.0404
15593SOL    HW249159   4.563   6.452   7.021  0.2843  1.1929 -0.1228
15594SOL     OW49160   7.747   4.246  10.702  0.0112 -0.1698 -0.0588
15594SOL    HW149161   7.695   4.176  10.662 -2.5230  1.4224  0.1922
15594SOL    HW249162   7.687   4.287  10.764  1.1039  2.6756 -0.7218
15595SOL     OW49163   4.406   5.929  10.730 -0.3190  0.8995 -0.0079
15595SOL    HW149164   4.434   5.852  10.780 -1.3089  1.0886  0.8882
15595SOL    HW249165   4.341   5.895  10.668 -0.8206  1.0086  0.4470
15596SOL     OW49166   5.736   3.079   5.263 -0.1420  0.0721  0.1516
15596SOL    HW149167   5.815   3.131   5.276  1.1950 -1.2895 -1.8701
15596SOL    HW249168   5.745   3.007   5.325  1.2119 -1.0648 -1.2677
15597SOL     OW49169   2.902   0.208   6.270 -0.2186  0.1272  0.4485
15597SOL    HW149170   2.878   0.180   6.359 -1.2721 -1.7179 -0.3516
15597SOL    HW249171   2.922   0.301   6.278 -0.4801  0.0476  2.5739
15598SOL     OW49172  10.254   0.069   2.411  0.5457 -1.1451 -0.6682
15598SOL    HW149173  10.184   0.094   2.472  1.6322 -1.8811  0.9606
15598SOL    HW249174  10.307   0.148   2.403 -0.1310 -0.7598 -1.4408
15599SOL     OW49175   6.874   8.495   4.971 -0.1307 -0.5751  0.3845
15599SOL    HW149176   6.904   8.582   4.945  0.3166 -0.5912  0.8340
15599SOL    HW249177   6.843   8.456   4.890 -0.2084 -0.0497  0.1528
15600SOL     OW49178   8.078   8.287   8.399  0.1294  0.2515 -0.2577
15600SOL    HW149179   8.120   8.361   8.443 -0.1739 -0.1676  0.7808
15600SOL    HW249180   8.028   8.243   8.469 -0.0175 -0.6971 -0.9386
15601SOL     OW49181  10.164   7.283   1.649  0.2877 -0.2598  0.1616
15601SOL    HW149182  10.227   7.238   1.706  0.7113 -0.3120 -0.3403
15601SOL    HW249183  10.164   7.374   1.681  1.3653 -0.0228 -0.4495
15602SOL     OW49184   7.057   6.409   0.977 -0.3588 -0.0752  0.6328
15602SOL    HW149185   7.073   6.493   1.021  0.4762  0.2831 -0.3124
15602SOL    HW249186   7.144   6.381   0.948 -0.6632 -1.1597  0.7343
15603SOL     OW49187   6.125   4.923   3.696 -0.5854 -0.1187  0.3417
15603SOL    HW149188   6.069   4.851   3.725 -1.5432  1.5037  2.7988
15603SOL    HW249189   6.070   4.973   3.635  0.1218 -1.4507 -1.4603
15604SOL     OW49190  10.504   1.096   2.719  0.1097 -0.5692 -0.3188
15604SOL    HW149191  10.437   1.143   2.768 -1.4451  0.4272 -3.1507
15604SOL    HW249192  10.571   1.161   2.700  0.9380 -1.0667  0.8257
15605SOL     OW49193   1.695   8.587   5.720 -0.0148  0.1819  0.0397
15605SOL    HW149194   1.644   8.556   5.795  1.0098 -1.6870  0.0110
15605SOL    HW249195   1.635   8.644   5.672 -2.1066 -1.9385 -0.0196
15606SOL     OW49196   0.241   6.196   3.506  0.4766 -0.0899 -0.2321
15606SOL    HW149197   0.313   6.199   3.443  0.7646 -0.8025  0.0594
15606SOL    HW249198   0.172   6.249   3.465  0.5395 -0.7953 -1.3081
15607SOL     OW49199   7.230   3.681   9.847 -0.2861 -0.0105 -0.2714
15607SOL    HW149200   7.301   3.723   9.896 -1.3315  0.1356  1.1724
15607SOL    HW249201   7.213   3.742   9.775  1.5687 -0.4414 -1.1378
15608SOL     OW49202   0.176   3.368   2.138  0.3456  0.2316  0.8896
15608SOL    HW149203   0.240   3.392   2.206  0.7530 -0.1789  0.6601
15608SOL    HW249204   0.146   3.451   2.103 -0.1575  0.4659  1.8295
15609SOL     OW49205   9.967   0.587  10.366  0.0112 -0.2657  0.5111
15609SOL    HW149206  10.013   0.664  10.332  1.4335 -1.0942  0.4711
15609SOL    HW249207   9.923   0.619  10.446  0.5121  0.5995  0.4570
15610SOL     OW49208   6.593   4.810   4.188  0.3103 -0.0502  0.0325
15610SOL    HW149209   6.614   4.862   4.266  0.0910  0.1996 -0.0732
15610SOL    HW249210   6.504   4.778   4.204 -0.2704  1.1253 -0.7037
15611SOL     OW49211   2.255   2.256   3.769 -0.1704  0.1874 -0.1093
15611SOL    HW149212   2.266   2.163   3.750  4.2494  0.4105  0.3934
15611SOL    HW249213   2.314   2.300   3.709 -0.9063  2.5552  0.7844
15612SOL     OW49214   0.158   2.944   9.564 -0.2748 -0.5118 -0.5195
15612SOL    HW149215   0.204   3.028   9.567 -1.1331 -0.0304 -0.4735
15612SOL    HW249216   0.217   2.885   9.517  0.0197  0.3204 -1.1986
15613SOL     OW49217   6.773  10.232   3.282  0.1466  0.0982 -0.3336
15613SOL    HW149218   6.755  10.178   3.205 -0.2686  0.4601 -0.4920
15613SOL    HW249219   6.830  10.177   3.336 -1.9846 -1.4210  0.5320
15614SOL     OW49220  10.523   7.513   1.881 -0.1728 -0.3128 -0.1121
15614SOL    HW149221  10.598   7.549   1.929 -0.8410  2.3887 -0.9097
15614SOL    HW249222  10.520   7.565   1.800 -2.0549 -1.3399 -0.7564
15615SOL     OW49223   7.289   1.530   0.167  0.0049  0.0835  0.3056
15615SOL    HW149224   7.381   1.520   0.145 -0.2474  1.4122 -1.5938
15615SOL    HW249225   7.245   1.461   0.118 -0.0155 -0.6891  1.3840
15616SOL     OW49226  10.761   2.186   9.858  0.0182 -0.1367  0.3945
15616SOL    HW149227  10.792   2.269   9.892 -0.9364  0.5151 -0.2880
15616SOL    HW249228  10.741   2.134   9.936  3.4747 -0.9344  0.9398
15617SOL     OW49229   7.050   8.721   4.336  0.1182 -0.1949 -0.2406
15617SOL    HW149230   7.122   8.735   4.275  1.3619 -1.7999  0.7794
15617SOL    HW249231   7.072   8.775   4.412 -0.5093  0.4020 -0.4674
15618SOL     OW49232   9.672   9.918   6.879  0.1932  0.0639 -0.6117
15618SOL    HW149233   9.657   9.830   6.844 -2.1001  0.8423 -1.7631
15618SOL    HW249234   9.761   9.939   6.850  0.4760 -1.5261 -1.0378
15619SOL     OW49235   0.105   4.364   5.423  0.4284  0.3859 -0.5558
15619SOL    HW149236   0.023   4.396   5.385 -0.4540 -0.9753  0.1396
15619SOL    HW249237   0.135   4.436   5.478 -1.4499  0.1392  0.8806
15620SOL     OW49238   1.036   4.820   2.141  0.1505 -0.4290 -0.2301
15620SOL    HW149239   0.987   4.889   2.187  1.7787  1.2801 -0.9261
15620SOL    HW249240   1.082   4.866   2.071 -0.3888 -2.5917 -2.1300
15621SOL     OW49241   3.614   3.032   0.545  0.6827 -1.0861  0.7488
15621SOL    HW149242   3.529   2.999   0.518  0.5891  1.9607 -3.7354
15621SOL    HW249243   3.597   3.078   0.627 -2.2554  0.1695 -0.4336
15622SOL     OW49244   3.337  10.104   4.251 -0.7536  0.3762  0.0288
15622SOL    HW149245   3.327  10.105   4.156 -1.4672  0.9638  0.0989
15622SOL    HW249246   3.263  10.155   4.283 -0.1250  0.8007  0.8610
15623SOL     OW49247   0.596  10.573   4.499 -0.3538 -0.2388  0.4821
15623SOL    HW149248   0.637  10.501   4.451 -0.6242 -0.1825  0.1633
15623SOL    HW249249   0.632  10.652   4.458  1.2770 -0.1625  1.9563
15624SOL     OW49250   6.604   4.715  10.645 -0.6285 -0.0772  0.4271
15624SOL    HW149251   6.536   4.733  10.710  1.4729  1.6775  2.2702
15624SOL    HW249252   6.674   4.778  10.664  1.7838 -2.1215 -1.0063
15625SOL     OW49253  10.257   7.898   8.005  0.3853  0.4411 -0.5234
15625SOL    HW149254  10.181   7.942   7.967 -0.5267 -0.4023  0.2812
15625SOL    HW249255  10.257   7.811   7.964  0.6262  0.2700 -0.1618
15626SOL     OW49256   9.943   0.525   8.549 -0.0243 -0.3253 -0.2957
15626SOL    HW149257   9.895   0.485   8.477  0.3108  0.2409 -0.8403
15626SOL    HW249258   9.902   0.610   8.561 -0.8429 -0.8730  0.9756
15627SOL     OW49259   0.661   2.760   0.722 -0.0040  0.0984  0.3645
15627SOL    HW149260   0.752   2.748   0.694 -0.3351 -0.4845 -0.5301
15627SOL    HW249261   0.613   2.690   0.677 -0.7199 -0.3368  1.7538
15628SOL     OW49262   7.595   4.723   5.313 -0.2861  0.0233  0.0894
15628SOL    HW149263   7.531   4.784   5.349  0.6901  0.4748  1.1015
15628SOL    HW249264   7.658   4.778   5.267  0.3262 -0.2646  0.5803
15629SOL     OW49265   5.096  10.421   2.321 -0.3771 -0.2864  0.0790
15629SOL    HW149266   5.147  10.381   2.391  0.2367 -0.1340 -0.2680
15629SOL    HW249267   5.010  10.436   2.359 -0.3594 -1.1425  0.4780
15630SOL     OW49268   1.268   3.440   8.416  0.1275  0.1774  0.5926
15630SOL    HW149269   1.229   3.518   8.456 -1.7167 -0.9550  1.1183
15630SOL    HW249270   1.236   3.367   8.469 -0.0215 -1.1469 -1.2136
15631SOL     OW49271   7.295   9.692   7.404 -0.5845 -0.0657  0.4267
15631SOL    HW149272   7.240   9.753   7.453 -2.6065 -1.5959  0.2296
15631SOL    HW249273   7.315   9.623   7.467 -0.4963 -0.4556 -0.0218
15632SOL     OW49274   5.203   4.823   7.387 -0.1653  0.4259 -0.0945
15632SOL    HW149275   5.185   4.759   7.317 -0.1830  0.4099 -0.0754
15632SOL    HW249276   5.298   4.833   7.386 -0.1383  0.2032  0.0750
15633SOL     OW49277   3.091   8.716   0.065 -0.1254 -0.0601  0.1365
15633SOL    HW149278   3.083   8.657   0.140  1.6009 -0.5353  0.0099
15633SOL    HW249279   3.130   8.661  -0.004 -0.1096  0.7888 -0.5548
15634SOL     OW49280   1.626   4.701   0.327 -0.2873  0.0737  0.1830
15634SOL    HW149281   1.667   4.773   0.375  0.0482  0.0374 -0.0451
15634SOL    HW249282   1.545   4.684   0.374  0.0880 -0.0306  0.8051
15635SOL     OW49283   5.697   8.913   6.724 -0.1205  0.6158 -0.3744
15635SOL    HW149284   5.768   8.978   6.727  0.7366 -0.2986 -0.0963
15635SOL    HW249285   5.635   8.941   6.791  1.4804 -0.1933  1.5520
15636SOL     OW49286   9.511  10.139   6.855 -0.2599 -0.1970 -0.1627
15636SOL    HW149287   9.437  10.096   6.811  0.5530 -1.2267 -0.5558
15636SOL    HW249288   9.571  10.068   6.876  1.0381  0.7199 -0.6493
15637SOL     OW49289   0.629   1.614   0.021  0.1296  0.1111 -0.3438
15637SOL    HW149290   0.698   1.561  -0.019  0.5620  0.5016 -0.1338
15637SOL    HW249291   0.650   1.704  -0.006 -0.1128  0.2694 -0.0132
15638SOL     OW49292   3.779   1.229   6.696  0.2013  0.0041  0.5536
15638SOL    HW149293   3.781   1.323   6.677 -0.6382  0.1080  0.9654
15638SOL    HW249294   3.691   1.213   6.729 -0.7030 -1.4565 -2.2453
15639SOL     OW49295   4.295   4.188   8.540 -0.5396  0.3275  0.0751
15639SOL    HW149296   4.266   4.097   8.532 -0.8940  0.4364  0.0933
15639SOL    HW249297   4.252   4.232   8.467 -0.3472  0.4724  0.0518
15640SOL     OW49298   1.567   1.330   2.241 -0.2443  0.0630  0.6013
15640SOL    HW149299   1.599   1.272   2.172  0.1357  2.3541 -1.2619
15640SOL    HW249300   1.472   1.329   2.232 -0.1731  0.7886 -0.3872
15641SOL     OW49301   4.869   8.371   6.112 -0.2493 -0.8173  0.4489
15641SOL    HW149302   4.846   8.303   6.176  0.3282  0.3329  1.9356
15641SOL    HW249303   4.931   8.427   6.158 -0.5414  0.6038 -0.8136
15642SOL     OW49304   9.382   2.483   4.258  0.1970  0.1402  0.5097
15642SOL    HW149305   9.328   2.434   4.195 -0.3852 -0.8306  1.7270
15642SOL    HW249306   9.441   2.418   4.295  1.3553  0.9471  0.1245
15643SOL     OW49307   8.519   3.786   0.750  0.2989 -0.3500 -0.0153
15643SOL    HW149308   8.443   3.833   0.714  0.4199  0.0046  0.1908
15643SOL    HW249309   8.482   3.709   0.793  0.0652 -0.2227  0.0104
15644SOL     OW49310   6.944   6.873   9.099 -0.3248 -0.6934 -0.3583
15644SOL    HW149311   6.993   6.943   9.056  0.2243 -1.8801 -1.7537
15644SOL    HW249312   6.970   6.879   9.191 -1.5227  1.9083 -0.1045
15645SOL     OW49313   3.510   7.461   2.757  0.0990 -0.1430  0.1665
15645SOL    HW149314   3.494   7.479   2.665 -0.7806  1.4296  0.5825
15645SOL    HW249315   3.488   7.368   2.768 -2.0084  0.1999 -0.7609
15646SOL     OW49316   2.702   9.357   5.423 -0.5354 -0.2815  0.5040
15646SOL    HW149317   2.720   9.283   5.480  0.6691 -0.4455 -0.0534
15646SOL    HW249318   2.609   9.350   5.403 -0.6891 -0.9492  1.4166
15647SOL     OW49319   6.182   4.815   0.239  0.8619 -0.0316 -0.3594
15647SOL    HW149320   6.182   4.719   0.240  1.0788 -0.0837 -2.0052
15647SOL    HW249321   6.098   4.838   0.200  0.6647  0.4802  0.3426
15648SOL     OW49322   3.122   2.335  10.082  0.2487  0.3847 -0.4166
15648SOL    HW149323   3.131   2.426  10.054 -0.9959 -0.1418 -2.9080
15648SOL    HW249324   3.027   2.318  10.077  0.3817 -0.8326  0.7558
15649SOL     OW49325   6.290   2.751   8.460  0.4186 -0.0870  0.0866
15649SOL    HW149326   6.239   2.832   8.450  0.2934 -0.1150  0.4925
15649SOL    HW249327   6.239   2.685   8.414  0.4254  0.0281 -0.0852
15650SOL     OW49328   5.952   7.532   3.960 -0.2044  0.7663 -0.3124
15650SOL    HW149329   6.017   7.598   3.983 -0.1113 -0.2956  2.9169
15650SOL    HW249330   5.870   7.582   3.951  0.2183  1.5539  0.0867
15651SOL     OW49331   9.602   7.657   4.061  0.7287 -0.0208  0.1669
15651SOL    HW149332   9.624   7.748   4.043 -0.5167  0.0730 -1.0629
15651SOL    HW249333   9.665   7.630   4.127 -0.2214  2.3758  2.2184
15652SOL     OW49334   2.460   5.726   6.087  0.4597 -0.2307 -0.4046
15652SOL    HW149335   2.374   5.684   6.095  0.2651  0.2346 -0.0311
15652SOL    HW249336   2.468   5.779   6.166  0.6520  0.5330 -0.9262
15653SOL     OW49337   9.198   1.465   4.650 -0.1929 -0.5363 -0.1170
15653SOL    HW149338   9.280   1.442   4.605 -1.2439 -1.0312 -1.8548
15653SOL    HW249339   9.206   1.424   4.736  1.1473 -1.0691 -0.4662
15654SOL     OW49340   7.728   3.785   8.778 -0.0661 -0.8688 -0.1733
15654SOL    HW149341   7.674   3.725   8.726 -0.2847 -0.4180 -0.4766
15654SOL    HW249342   7.779   3.833   8.713  0.6510 -1.2433  0.1123
15655SOL     OW49343   2.281   6.698   7.353 -0.2096 -0.1796 -0.0843
15655SOL    HW149344   2.354   6.760   7.361 -2.0054  2.1812 -0.6209
15655SOL    HW249345   2.321   6.616   7.326  2.1859  1.1940 -0.9704
15656SOL     OW49346   2.383  10.035   1.410 -0.4290  0.0497  0.2756
15656SOL    HW149347   2.359   9.943   1.400  2.7056 -1.1922  2.4908
15656SOL    HW249348   2.458  10.046   1.352 -1.1992  1.4497 -0.4855
15657SOL     OW49349   4.664   9.501   7.463 -0.0480  0.5310 -0.5353
15657SOL    HW149350   4.662   9.543   7.377  0.0483  0.3530 -0.6253
15657SOL    HW249351   4.593   9.543   7.511  0.3258  1.1080 -0.4760
15658SOL     OW49352   2.974   5.019   8.327  0.2321 -0.0116 -0.6891
15658SOL    HW149353   3.026   4.948   8.289  0.7094 -0.4979  0.7874
15658SOL    HW249354   2.952   5.075   8.253  2.5542  0.0096 -1.4392
15659SOL     OW49355   7.618   4.559   6.507  0.4135  0.0294  0.0091
15659SOL    HW149356   7.570   4.476   6.508 -1.3264  0.9979  0.9007
15659SOL    HW249357   7.584   4.607   6.583  2.1854  1.1270  0.1584
15660SOL     OW49358   9.553   3.747   3.990 -0.4067 -0.6846 -0.6741
15660SOL    HW149359   9.611   3.743   4.066 -1.8982 -0.2669  0.5448
15660SOL    HW249360   9.590   3.684   3.928  1.2810 -0.4866  0.0606
15661SOL     OW49361   3.569  10.540   3.304  0.5142 -0.0217 -0.0775
15661SOL    HW149362   3.598  10.620   3.349  0.4152  0.7058 -1.2725
15661SOL    HW249363   3.479  10.559   3.277  1.0444  0.1343 -1.8413
15662SOL     OW49364   2.434   8.535  10.098 -0.8046 -0.3929  0.1715
15662SOL    HW149365   2.466   8.598  10.162  0.2072 -0.7324  0.0158
15662SOL    HW249366   2.370   8.483  10.147 -0.6959 -0.0833  0.6572
15663SOL     OW49367   8.234   3.093   9.380  0.4229 -0.1769 -0.0782
15663SOL    HW149368   8.236   3.065   9.472  0.1463 -0.7881 -0.2524
15663SOL    HW249369   8.150   3.137   9.370  0.1713 -0.6820 -0.1995
15664SOL     OW49370   0.928   9.272   8.675 -0.9526  0.0940 -0.7824
15664SOL    HW149371   0.979   9.255   8.595  0.7313 -0.7890  0.4163
15664SOL    HW249372   0.874   9.193   8.685  0.5321 -0.8620  0.1356
15665SOL     OW49373   6.147   4.509   3.376 -0.1106  0.3947  0.4706
15665SOL    HW149374   6.054   4.531   3.379  0.1048  1.2733  1.0189
15665SOL    HW249375   6.151   4.431   3.321 -1.1855  0.2624  0.5587
15666SOL     OW49376   9.454   5.544   0.681 -0.1646 -0.3718  0.3244
15666SOL    HW149377   9.429   5.462   0.724  0.2875 -0.3662  0.5977
15666SOL    HW249378   9.405   5.612   0.728 -2.7186 -0.7040 -1.6294
15667SOL     OW49379   4.846   7.480   4.684  0.4293  0.1360 -0.6144
15667SOL    HW149380   4.925   7.531   4.666  0.1576  0.8406  0.1181
15667SOL    HW249381   4.777   7.525   4.636  0.4371 -0.4060 -1.1500
15668SOL     OW49382   1.701  10.343   9.292 -0.3001 -0.3990  0.2936
15668SOL    HW149383   1.724  10.385   9.375  1.5835 -1.6127  0.4294
15668SOL    HW249384   1.679  10.416   9.234  0.8580  0.6478  1.1120
15669SOL     OW49385   5.540   2.599   5.012 -0.2187 -0.1226 -0.0893
15669SOL    HW149386   5.566   2.508   5.021 -2.6012 -1.0060 -1.3888
15669SOL    HW249387   5.567   2.623   4.923  0.2533  0.4281  0.1909
15670SOL     OW49388   1.066   8.794   6.466 -0.1157 -0.0813  0.4167
15670SOL    HW149389   1.050   8.884   6.497  1.5057  0.3482  0.1364
15670SOL    HW249390   1.074   8.743   6.547 -1.0123  0.0272  0.5813
15671SOL     OW49391   4.467   2.540   9.101 -0.2861 -0.1829 -0.3829
15671SOL    HW149392   4.408   2.467   9.083  1.1756 -1.3615 -0.6409
15671SOL    HW249393   4.549   2.498   9.127  0.2847  1.4001  0.4760
15672SOL     OW49394   6.460   4.303   1.186  0.6744 -0.2300  0.0282
15672SOL    HW149395   6.504   4.219   1.174  0.4875 -0.2860 -0.2588
15672SOL    HW249396   6.369   4.281   1.204  0.2214 -0.0380 -1.9059
15673SOL     OW49397   1.860   8.177   2.324 -0.4603  0.2336 -0.4917
15673SOL    HW149398   1.938   8.231   2.322 -0.5928  0.4563  0.1923
15673SOL    HW249399   1.794   8.231   2.366 -0.4545 -0.6252  0.6748
15674SOL     OW49400   3.087   5.413   6.734  0.1867 -0.0580 -0.0588
15674SOL    HW149401   3.166   5.464   6.716 -0.1266  0.1059 -1.0658
15674SOL    HW249402   3.050   5.453   6.813 -0.1024  1.3688 -0.8753
15675SOL     OW49403   8.943   2.884   7.065 -0.5597  0.5847  0.3097
15675SOL    HW149404   8.865   2.875   7.121 -0.5483 -1.1972  0.1070
15675SOL    HW249405   9.015   2.853   7.121 -0.4249 -0.4144 -0.4015
15676SOL     OW49406  10.596   6.752   8.777  0.0603  0.1926  0.2797
15676SOL    HW149407  10.506   6.739   8.747  0.2412 -1.6332  0.3925
15676SOL    HW249408  10.606   6.690   8.850  2.4145 -2.3863 -1.9710
15677SOL     OW49409  10.787   8.464   3.986 -0.1427  0.1239 -0.3141
15677SOL    HW149410  10.834   8.546   3.976 -0.7202  0.3009 -1.9755
15677SOL    HW249411  10.708   8.475   3.932 -0.5840 -1.2425  0.0098
15678SOL     OW49412   2.838   2.741   0.990  0.0371 -0.2265 -0.6375
15678SOL    HW149413   2.889   2.804   0.939 -0.8210  0.8496 -0.2179
15678SOL    HW249414   2.863   2.655   0.954  0.8890  0.3698 -1.5395
15679SOL     OW49415   9.696   8.670   0.236 -0.9501 -0.1926  1.0406
15679SOL    HW149416   9.717   8.756   0.199  0.6043  0.5710  3.4505
15679SOL    HW249417   9.751   8.609   0.188 -0.0993  0.5512  1.0491
15680SOL     OW49418   4.407   7.922   4.241 -0.0907 -0.0638 -0.2288
15680SOL    HW149419   4.359   7.982   4.184 -1.7312 -1.5905 -0.5415
15680SOL    HW249420   4.381   7.947   4.330 -0.6430 -0.1753 -0.3526
15681SOL     OW49421   2.812   3.848   2.388  0.0810 -0.2994 -0.8398
15681SOL    HW149422   2.740   3.877   2.331 -0.5359 -0.7662 -0.3057
15681SOL    HW249423   2.841   3.927   2.433 -0.5105 -0.2178 -0.5990
15682SOL     OW49424   2.037   4.522   2.065  0.2254  0.5867  0.2094
15682SOL    HW149425   2.125   4.483   2.062  0.4738  1.0105  1.3938
15682SOL    HW249426   1.993   4.489   1.987  1.8448  1.3717 -1.0798
15683SOL     OW49427   3.773   9.115   4.779 -0.0470 -0.1816  0.5872
15683SOL    HW149428   3.761   9.203   4.815  2.3286 -0.1984  1.6052
15683SOL    HW249429   3.844   9.126   4.715 -0.5032 -1.1812 -0.1087
15684SOL     OW49430   7.750   7.167   0.247  0.8696 -0.6710  0.0296
15684SOL    HW149431   7.665   7.205   0.226  0.8343 -0.5999  0.2913
15684SOL    HW249432   7.740   7.136   0.337  1.0496 -0.8669 -0.0178
15685SOL     OW49433   5.749   7.307  10.797 -0.5539  0.0650  0.4609
15685SOL    HW149434   5.656   7.290  10.783 -0.2352 -0.2202 -1.6164
15685SOL    HW249435   5.793   7.268  10.721  1.2286  0.5690  1.1707
15686SOL     OW49436   9.098   3.733   6.302  0.5998 -0.0213  0.7028
15686SOL    HW149437   9.084   3.703   6.213  0.5687  0.3723  0.5713
15686SOL    HW249438   9.011   3.763   6.331  0.8933  1.2724  0.3234
15687SOL     OW49439   3.079  10.039   6.957 -0.3072 -0.0533  0.1945
15687SOL    HW149440   3.055   9.988   7.034 -1.0560 -2.0592 -1.2909
15687SOL    HW249441   3.010  10.106   6.950 -1.5754 -1.3407 -0.0269
15688SOL     OW49442   5.840   8.545   8.580 -0.2067  0.4351  0.2898
15688SOL    HW149443   5.928   8.507   8.589  0.7090  2.3939  0.0141
15688SOL    HW249444   5.782   8.469   8.575  1.7908 -1.1088 -3.0670
15689SOL     OW49445   7.612   8.105   9.663 -0.0361 -0.2587 -0.3208
15689SOL    HW149446   7.528   8.118   9.705  0.2570 -0.6186  0.3928
15689SOL    HW249447   7.604   8.019   9.620  0.8062 -1.5589  1.9285
15690SOL     OW49448   7.305   3.350   4.481  0.1334 -0.1334 -0.7589
15690SOL    HW149449   7.384   3.327   4.432  1.4696  0.1667  1.1310
15690SOL    HW249450   7.286   3.440   4.453  0.2440 -0.3197 -1.4678
15691SOL     OW49451   8.572   0.096   0.791  0.7908 -0.2089  0.2985
15691SOL    HW149452   8.572   0.016   0.738  3.0750 -0.5415  0.6922
15691SOL    HW249453   8.611   0.162   0.735 -0.7757  0.6053  0.0980
15692SOL     OW49454   8.760  10.428   2.163 -0.3749 -0.2238  0.2885
15692SOL    HW149455   8.782  10.349   2.114 -0.1610  0.7844 -1.3035
15692SOL    HW249456   8.664  10.427   2.168 -0.4102 -0.2282 -0.3347
15693SOL     OW49457   5.408   5.996   5.695  0.4375  0.3819 -0.2690
15693SOL    HW149458   5.491   5.949   5.687  1.0343  1.3486  0.0533
15693SOL    HW249459   5.346   5.944   5.644  0.9064 -1.1201  0.6266
15694SOL     OW49460   3.783   9.662   8.426 -0.2507  0.0506 -0.0314
15694SOL    HW149461   3.828   9.747   8.424  1.4959 -0.8386 -0.1392
15694SOL    HW249462   3.702   9.678   8.379 -0.2531  1.8106  0.4665
15695SOL     OW49463   7.418   4.317  10.116  0.0962  0.0688  0.2769
15695SOL    HW149464   7.351   4.381  10.141 -0.7978 -0.5821 -0.4056
15695SOL    HW249465   7.460   4.356  10.039  0.9627  0.7782  1.0891
15696SOL     OW49466   0.283   8.931   2.467  0.3268 -0.4215  0.0053
15696SOL    HW149467   0.253   8.914   2.377  0.2014  1.8113 -0.4229
15696SOL    HW249468   0.366   8.979   2.456  0.1942  0.0759  1.0752
15697SOL     OW49469   3.994   7.805   5.446  0.4165 -0.6513  0.1700
15697SOL    HW149470   3.982   7.712   5.428  1.4803 -0.9308  0.8202
15697SOL    HW249471   3.988   7.811   5.542 -0.0940  0.0260  0.1011
15698SOL     OW49472   3.830   7.962   9.272 -0.4906 -0.2633  0.2363
15698SOL    HW149473   3.841   7.979   9.179  1.3348 -4.6505 -0.5844
15698SOL    HW249474   3.919   7.954   9.306 -1.1296 -0.7078  1.9355
15699SOL     OW49475   9.752   2.507   8.685 -0.5200 -0.0408 -0.3157
15699SOL    HW149476   9.809   2.445   8.639  0.8056  2.2629 -2.0145
15699SOL    HW249477   9.795   2.524   8.768  1.1641  1.3199 -1.3901
15700SOL     OW49478   1.593   1.243  10.234 -0.6673 -0.4302  0.0133
15700SOL    HW149479   1.655   1.171  10.241 -0.3308 -0.1931 -0.4863
15700SOL    HW249480   1.514   1.212  10.279 -0.5236 -1.0992 -0.1964
15701SOL     OW49481   3.562   9.982   0.299  0.6091 -0.4168  0.3275
15701SOL    HW149482   3.489   9.995   0.360  0.5089 -2.4875  0.7503
15701SOL    HW249483   3.572   9.887   0.295  2.1685 -0.2370 -1.0820
15702SOL     OW49484   3.883   2.744   0.310 -0.5816  0.2906  0.3167
15702SOL    HW149485   3.808   2.747   0.251  0.3181  2.7241 -0.8490
15702SOL    HW249486   3.926   2.661   0.289 -2.0755 -0.4034 -0.1042
15703SOL     OW49487   8.967   8.953   4.616  0.3489 -0.3987  0.2526
15703SOL    HW149488   8.892   8.948   4.558  0.1001 -2.4733  0.6527
15703SOL    HW249489   8.930   8.945   4.704  1.0432 -3.7212  0.3975
15704SOL     OW49490  10.357   8.004   5.263  0.0462 -0.4580  0.0146
15704SOL    HW149491  10.345   7.920   5.306  1.6639  0.0233  1.5192
15704SOL    HW249492  10.428   8.047   5.312  0.3752  1.1119 -1.6996
15705SOL     OW49493   4.691   2.290   8.015 -0.1839 -0.2774  0.2515
15705SOL    HW149494   4.623   2.227   7.991 -1.6929  1.4626 -0.3593
15705SOL    HW249495   4.697   2.348   7.939  2.3734 -0.6387  0.1091
15706SOL     OW49496   2.004   1.945   5.270  0.2038 -0.4401  0.4659
15706SOL    HW149497   1.995   1.856   5.236 -0.4069 -0.4589  0.6573
15706SOL    HW249498   2.017   1.933   5.364 -1.7577 -0.2961  0.8064
15707SOL     OW49499   7.581   3.057  10.638 -0.0321  0.0488 -0.3879
15707SOL    HW149500   7.564   3.149  10.618 -0.3880 -0.0475 -0.5544
15707SOL    HW249501   7.499   3.026  10.678 -0.3197 -0.4714 -1.3451
15708SOL     OW49502   0.579   9.166   2.987  0.1492  0.5641 -0.9302
15708SOL    HW149503   0.661   9.160   2.939  1.3168  0.2698  0.9952
15708SOL    HW249504   0.588   9.102   3.058 -3.3486 -2.4278 -2.8293
15709SOL     OW49505   8.589   1.363   8.846 -0.2253  0.1293  0.6043
15709SOL    HW149506   8.657   1.370   8.913  1.0425  2.0406 -0.7815
15709SOL    HW249507   8.636   1.345   8.765 -1.4362  0.6160 -0.2466
15710SOL     OW49508   4.266   3.177   4.333  0.6884  0.1767 -0.2371
15710SOL    HW149509   4.246   3.117   4.260 -0.8283  0.8169 -0.3728
15710SOL    HW249510   4.193   3.238   4.335  1.9629  1.7529  0.2226
15711SOL     OW49511   1.440   2.697   4.319 -0.5647 -0.0449 -0.5165
15711SOL    HW149512   1.536   2.705   4.322 -0.4785 -1.0797  1.2104
15711SOL    HW249513   1.425   2.605   4.298 -1.1561 -0.1015  0.1366
15712SOL     OW49514   4.538   0.630   6.488  0.3307 -0.1325 -0.6246
15712SOL    HW149515   4.634   0.629   6.491  0.3604 -0.0904 -1.2658
15712SOL    HW249516   4.518   0.648   6.396 -0.2864  1.2550 -0.2388
15713SOL     OW49517   2.665   5.467   3.795  0.1300  0.6451 -0.1437
15713SOL    HW149518   2.600   5.535   3.812  0.5793  1.1310 -0.3168
15713SOL    HW249519   2.737   5.489   3.855 -0.5616 -0.9021  1.3278
15714SOL     OW49520   6.293   9.535  10.149 -0.6937  0.0516 -0.3206
15714SOL    HW149521   6.213   9.512  10.196 -0.2969  1.6158  1.2325
15714SOL    HW249522   6.364   9.512  10.209 -0.1316  1.2286 -0.5021
15715SOL     OW49523   2.870   7.406   4.155  0.3857  0.2802  0.8382
15715SOL    HW149524   2.809   7.470   4.192 -0.7322 -0.1044 -0.2666
15715SOL    HW249525   2.870   7.334   4.218  0.4652  0.6997  1.3262
15716SOL     OW49526  10.136   7.974   1.160  0.0084 -0.3847  0.7607
15716SOL    HW149527  10.172   7.985   1.248 -1.1987 -0.7573  1.3186
15716SOL    HW249528  10.196   7.913   1.116 -0.0997 -1.2401  1.7736
15717SOL     OW49529   2.590   1.349   9.396  0.1824  0.4369 -0.1282
15717SOL    HW149530   2.524   1.407   9.433  0.4950  0.1345  0.9282
15717SOL    HW249531   2.673   1.383   9.428  0.3386 -0.9454  1.0486
15718SOL     OW49532   2.179   3.917   2.700  0.6362  0.6151  0.0103
15718SOL    HW149533   2.169   3.850   2.633 -1.5188 -0.0386  0.8863
15718SOL    HW249534   2.263   3.898   2.741  0.2162 -1.4024  0.0464
15719SOL     OW49535   3.832   0.082   1.214 -0.3874  0.8335 -0.1890
15719SOL    HW149536   3.879  -0.001   1.227 -1.0089  0.4400 -0.3858
15719SOL    HW249537   3.883   0.147   1.261  2.1800  1.0547 -2.9640
15720SOL     OW49538   2.805   5.449   1.740 -0.1647  0.1777  0.0172
15720SOL    HW149539   2.770   5.515   1.680  0.7638  0.2598 -0.4548
15720SOL    HW249540   2.887   5.420   1.699  1.3292  1.3634  1.9698
15721SOL     OW49541   4.302   8.150   0.952 -0.4392  0.1318 -0.6264
15721SOL    HW149542   4.385   8.103   0.954 -0.9874 -0.9429  2.6753
15721SOL    HW249543   4.296   8.184   0.862  2.8876 -0.8547 -1.3668
15722SOL     OW49544  10.433   1.756   6.276  0.0020  0.4252 -0.5961
15722SOL    HW149545  10.469   1.832   6.322  1.2355 -1.0196  0.8947
15722SOL    HW249546  10.439   1.780   6.183 -0.3252  2.4300 -0.1488
15723SOL     OW49547   7.863   7.843   9.662  1.0155  0.2964 -0.9661
15723SOL    HW149548   7.913   7.898   9.601 -0.9546  2.2721 -0.9322
15723SOL    HW249549   7.781   7.824   9.615  0.0459  0.6918  0.4858
15724SOL     OW49550   9.771  10.049   7.396  0.5623  0.2391 -0.6469
15724SOL    HW149551   9.699  10.105   7.369 -1.0745 -0.9187  1.0787
15724SOL    HW249552   9.843  10.110   7.415 -0.9381  1.7367  0.5560
15725SOL     OW49553   2.123   3.368   0.434  0.7995  0.4161  0.0205
15725SOL    HW149554   2.160   3.343   0.350  2.2941  0.2232  0.7036
15725SOL    HW249555   2.103   3.462   0.425  0.0215  0.1842 -0.8464
15726SOL     OW49556   5.894   5.186   3.090 -0.4061 -0.1060  0.2282
15726SOL    HW149557   5.825   5.238   3.049 -0.2712  0.1253  0.2898
15726SOL    HW249558   5.947   5.250   3.138 -0.1448 -0.2801  0.1751
15727SOL     OW49559   9.365   9.159  10.569  0.6070  0.2756  0.0188
15727SOL    HW149560   9.419   9.101  10.621 -0.5164  0.1077  1.0362
15727SOL    HW249561   9.384   9.247  10.602 -0.0488  0.1759  0.6844
15728SOL     OW49562   8.347   4.348   0.954 -0.3978 -0.2347  0.3511
15728SOL    HW149563   8.280   4.414   0.936  0.9130  1.2615  0.8023
15728SOL    HW249564   8.314   4.269   0.912 -1.8617  0.7798 -0.4949
15729SOL     OW49565   5.476   2.482   4.324 -0.1716  0.3633  0.2170
15729SOL    HW149566   5.411   2.542   4.288  0.0189 -0.5095 -1.6807
15729SOL    HW249567   5.432   2.438   4.396 -1.7956 -0.3645 -1.1564
15730SOL     OW49568   7.793   8.929   5.508 -0.9348 -0.2749  0.2323
15730SOL    HW149569   7.808   8.862   5.441  1.4640  0.1803  0.1962
15730SOL    HW249570   7.850   8.903   5.580 -1.5481  0.6226  1.0605
15731SOL     OW49571   2.440   8.959   5.720  0.4232 -0.0952  0.1188
15731SOL    HW149572   2.422   8.866   5.734  2.2002 -0.6614 -1.1628
15731SOL    HW249573   2.369   8.988   5.663 -0.4572 -0.4930  0.9663
15732SOL     OW49574   3.216   3.600  10.344  0.2255  1.3924  0.6563
15732SOL    HW149575   3.160   3.633  10.274  1.1201  0.0916 -0.7429
15732SOL    HW249576   3.180   3.638  10.424 -1.1174  2.5534 -0.4478
15733SOL     OW49577   0.102   7.299   9.091 -0.1156  0.7887  0.0745
15733SOL    HW149578   0.077   7.302   9.184  0.6654  1.4038  0.2836
15733SOL    HW249579   0.188   7.341   9.089  0.9754 -1.3437 -0.5736
15734SOL     OW49580   1.758   9.223  10.513 -0.1165 -0.3650  0.0815
15734SOL    HW149581   1.742   9.154  10.448  0.8412 -1.3432  0.8541
15734SOL    HW249582   1.724   9.188  10.595 -1.4200  0.9108  0.1314
15735SOL     OW49583   0.568   0.608   5.476  0.1078 -0.5059  0.6097
15735SOL    HW149584   0.545   0.516   5.464 -1.8198 -0.2029  1.5093
15735SOL    HW249585   0.630   0.627   5.406 -0.5888 -2.1186 -0.5103
15736SOL     OW49586   9.805   9.597   2.355  0.4311 -0.1766  0.4633
15736SOL    HW149587   9.773   9.559   2.437  0.6740  0.0490  0.6671
15736SOL    HW249588   9.827   9.522   2.300  1.3617 -0.3374  1.0357
15737SOL     OW49589   3.109   8.634   2.998  0.3520  1.1829 -0.1324
15737SOL    HW149590   3.029   8.682   2.974 -1.7484 -2.0360 -0.1453
15737SOL    HW249591   3.082   8.581   3.073  2.2214 -0.6980 -0.7255
15738SOL     OW49592   5.006   6.761   0.952 -0.8696  0.3074 -0.4982
15738SOL    HW149593   5.064   6.711   1.009  0.0590  0.8128 -0.9636
15738SOL    HW249594   5.034   6.738   0.863 -2.1017 -0.2494 -0.7652
15739SOL     OW49595   6.197   0.454   0.989  0.0297 -0.4597 -0.2668
15739SOL    HW149596   6.283   0.421   0.965  0.3057  1.0662 -1.5514
15739SOL    HW249597   6.196   0.453   1.084  1.4525 -0.5769 -0.2353
15740SOL     OW49598   2.287   7.258   5.470 -0.1227  0.3781  0.1055
15740SOL    HW149599   2.208   7.300   5.435 -1.2308 -1.7953 -0.1450
15740SOL    HW249600   2.278   7.269   5.565  2.0925  4.8643  0.0508
15741SOL     OW49601   3.232   0.519   9.398 -0.5367  0.2912  0.2043
15741SOL    HW149602   3.287   0.441   9.406  0.9619  1.2613 -0.2341
15741SOL    HW249603   3.143   0.485   9.399  0.0691 -1.6180 -1.7112
15742SOL     OW49604   5.428   8.540   9.615  0.3045 -0.2258 -0.2947
15742SOL    HW149605   5.489   8.584   9.555 -1.0391 -2.4688 -3.5968
15742SOL    HW249606   5.481   8.475   9.660  0.7471 -0.9317 -1.7748
15743SOL     OW49607   8.791   0.035   4.938  0.5172 -0.5412 -0.1042
15743SOL    HW149608   8.766   0.003   5.025  0.8113 -0.5578 -0.0220
15743SOL    HW249609   8.714   0.021   4.883  0.4573 -0.8746  0.0651
15744SOL     OW49610   7.031   7.552   8.674  0.3269  0.1286 -0.1971
15744SOL    HW149611   6.958   7.558   8.736  0.7000 -0.4430  0.3103
15744SOL    HW249612   7.018   7.469   8.629  0.8107 -0.1086  0.0910
15745SOL     OW49613   8.724   4.684   5.099 -0.2059  0.3943 -0.5543
15745SOL    HW149614   8.818   4.666   5.095 -0.1378  0.8349 -1.1583
15745SOL    HW249615   8.685   4.603   5.131  0.5734  0.9003  1.8869
15746SOL     OW49616   7.898   9.202   2.427  0.6485 -0.6718  0.1982
15746SOL    HW149617   7.928   9.128   2.479 -2.4549 -1.4064  1.1353
15746SOL    HW249618   7.960   9.208   2.355  3.4605 -1.4105  2.3905
15747SOL     OW49619   9.275   0.698   0.800  0.6989 -0.5142 -0.1811
15747SOL    HW149620   9.210   0.730   0.737  0.1081 -0.5465  0.4000
15747SOL    HW249621   9.349   0.758   0.792  0.7035 -0.6305 -1.0381
15748SOL     OW49622   3.090   6.903   5.335 -0.2292  0.1741 -0.0372
15748SOL    HW149623   3.157   6.846   5.372 -0.0765 -0.0989 -0.7204
15748SOL    HW249624   3.123   6.926   5.248 -0.8010  0.4160 -0.1971
15749SOL     OW49625   7.621   8.632   5.587  0.2444  0.3249 -0.1516
15749SOL    HW149626   7.652   8.697   5.650  0.8261  1.0186 -1.1223
15749SOL    HW249627   7.700   8.588   5.556  0.0083  0.2742 -0.6964
15750SOL     OW49628   8.283   2.532   8.314  0.1082 -0.3060  0.2662
15750SOL    HW149629   8.311   2.612   8.357 -0.8220 -0.5796  1.4134
15750SOL    HW249630   8.287   2.465   8.382  0.1904 -1.1006 -0.4929
15751SOL     OW49631   7.898   1.614   5.966 -0.5825 -0.2060  0.0670
15751SOL    HW149632   7.871   1.538   5.914  2.2942 -1.2564 -0.0860
15751SOL    HW249633   7.911   1.683   5.901 -0.3279 -0.4824 -0.1815
15752SOL     OW49634   8.883   0.288   7.240 -0.2504  0.2375 -0.0004
15752SOL    HW149635   8.909   0.196   7.249 -0.1867  0.2577  0.0230
15752SOL    HW249636   8.794   0.284   7.206 -0.3409  0.1663  0.2458
15753SOL     OW49637   7.656   3.358   0.062  0.0839 -0.2507  0.4973
15753SOL    HW149638   7.600   3.287   0.092 -1.3062  1.3825  1.9555
15753SOL    HW249639   7.597   3.431   0.045  1.3413  0.2978 -2.0557
15754SOL     OW49640   8.489   1.650   1.385 -0.9981  0.2348  0.3766
15754SOL    HW149641   8.577   1.669   1.354 -0.7716 -0.0412  0.8512
15754SOL    HW249642   8.448   1.736   1.397 -0.4722  0.3865  1.0927
15755SOL     OW49643   8.269   3.640   3.215 -0.1906  0.4262 -0.2389
15755SOL    HW149644   8.220   3.590   3.281  0.2567 -0.4021 -0.5172
15755SOL    HW249645   8.202   3.682   3.162 -0.6216  3.4444  2.3816
15756SOL     OW49646   2.007   0.996   9.828  0.1286 -0.8056 -0.5890
15756SOL    HW149647   2.081   0.956   9.782  2.5953  0.3413  2.1212
15756SOL    HW249648   2.014   1.089   9.807 -0.3601 -0.6323  0.0019
15757SOL     OW49649   7.131   3.752   0.850 -0.4469 -0.1520 -0.2358
15757SOL    HW149650   7.129   3.703   0.768  0.4491  0.2029 -0.4753
15757SOL    HW249651   7.195   3.706   0.904 -1.0459 -0.3969  0.2853
15758SOL     OW49652   2.578   7.244   9.378 -0.2225 -0.4492 -0.1430
15758SOL    HW149653   2.659   7.278   9.416  0.1936  2.0027 -2.9294
15758SOL    HW249654   2.594   7.150   9.370  1.7568 -0.2424  0.7096
15759SOL     OW49655   5.710   4.563   2.852  0.1564  0.1306  0.4277
15759SOL    HW149656   5.634   4.576   2.908  0.9627  1.3159  1.2887
15759SOL    HW249657   5.702   4.632   2.786  0.6864  0.5137  0.7597
15760SOL     OW49658   0.750   2.394   6.656 -0.2076  0.3146 -0.1367
15760SOL    HW149659   0.780   2.485   6.645 -1.5478  0.9902  1.3071
15760SOL    HW249660   0.684   2.383   6.589 -1.0143  0.9034  0.5347
15761SOL     OW49661   6.928   7.133   4.555  0.4816 -0.3318  0.2396
15761SOL    HW149662   6.861   7.136   4.623  0.0322 -0.2336 -0.2067
15761SOL    HW249663   6.898   7.067   4.493  0.4762  0.1593 -0.2912
15762SOL     OW49664   4.201   3.927   6.468  0.0735  0.5938 -0.2440
15762SOL    HW149665   4.192   3.846   6.418 -1.4258 -0.0926  1.0432
15762SOL    HW249666   4.115   3.940   6.508  0.4602  2.5139  0.0492
15763SOL     OW49667   0.607   4.793   9.238 -0.3754 -0.0305  0.3544
15763SOL    HW149668   0.693   4.755   9.224  0.2576  0.6073  2.2125
15763SOL    HW249669   0.621   4.888   9.233 -1.3687  0.0735 -1.2777
15764SOL     OW49670   0.092   2.626   0.219  0.2275 -0.6746  0.5384
15764SOL    HW149671   0.041   2.556   0.177 -1.1159  1.3408 -1.4450
15764SOL    HW249672   0.027   2.677   0.267  0.8606  0.2791  0.4023
15765SOL     OW49673   5.413   6.315   9.545 -0.3621  0.5475  0.4557
15765SOL    HW149674   5.387   6.224   9.533  0.8562  0.1215  0.9100
15765SOL    HW249675   5.506   6.317   9.520 -0.0164  1.3636  1.6871
15766SOL     OW49676   3.189   2.140   5.982  0.2380 -0.6063  0.7086
15766SOL    HW149677   3.249   2.183   6.043 -0.2738  0.1511  0.6996
15766SOL    HW249678   3.122   2.101   6.038  0.0698 -0.3863  0.6632
15767SOL     OW49679   0.650   8.893   0.016  0.1998 -0.3110 -0.1715
15767SOL    HW149680   0.722   8.955   0.030  0.2475 -0.6123  1.0526
15767SOL    HW249681   0.687   8.825  -0.040  0.4754  0.1819 -0.6040
15768SOL     OW49682   4.505   0.916   6.588 -0.1497  0.4136  0.3597
15768SOL    HW149683   4.597   0.943   6.583 -0.0529 -0.0014 -0.1326
15768SOL    HW249684   4.501   0.832   6.542 -0.4715 -0.3875  1.7723
15769SOL     OW49685   2.989   8.942   2.976  0.4682  0.5524  0.1308
15769SOL    HW149686   2.946   8.857   2.981  0.3072  0.5868 -0.5451
15769SOL    HW249687   3.028   8.944   2.889  0.9068  0.9641  0.3338
15770SOL     OW49688   7.376   8.346  10.396 -0.1909  0.0152 -0.2160
15770SOL    HW149689   7.463   8.363  10.433 -0.8760  0.8497  1.0558
15770SOL    HW249690   7.387   8.263  10.349  1.0200 -0.4898  0.8856
15771SOL     OW49691   6.598  10.084   4.561  0.8485  0.1842  0.3057
15771SOL    HW149692   6.674  10.117   4.514  0.9029 -1.4264 -0.8422
15771SOL    HW249693   6.541  10.160   4.571  1.6367  0.9499 -0.7982
15772SOL     OW49694   7.361   9.238   5.305  0.6413  0.3379  0.1609
15772SOL    HW149695   7.268   9.218   5.301  0.6469 -0.1394  1.8648
15772SOL    HW249696   7.368   9.327   5.271 -0.3789  0.2471 -0.3056
15773SOL     OW49697  10.024   9.629   2.124  0.0152  0.2283 -0.5430
15773SOL    HW149698  10.019   9.688   2.200  1.6718 -0.4571  0.1416
15773SOL    HW249699   9.997   9.544   2.158  0.1571  0.0462 -0.8801
15774SOL     OW49700   9.860   0.084   0.776  0.0989 -0.0065 -0.5986
15774SOL    HW149701   9.949   0.054   0.795 -0.6630 -2.2135 -0.1965
15774SOL    HW249702   9.872   0.159   0.718  2.2037 -0.3837 -0.7379
15775SOL     OW49703   2.797   8.557   9.042  0.0526  1.0351  0.4534
15775SOL    HW149704   2.824   8.611   9.117 -0.1630  0.6050  0.8424
15775SOL    HW249705   2.851   8.479   9.049  2.3280  2.2742 -1.6287
15776SOL     OW49706  10.360   5.603   2.279  0.4594  0.4220 -0.5555
15776SOL    HW149707  10.372   5.697   2.294 -0.1917  0.3280  0.6711
15776SOL    HW249708  10.276   5.596   2.234 -0.1065  0.3655  0.4731
15777SOL     OW49709   2.896   2.480   0.939  0.1680  0.1652  0.2550
15777SOL    HW149710   2.961   2.410   0.929  1.7166  1.6908 -1.0004
15777SOL    HW249711   2.831   2.461   0.871 -1.2018 -1.7816  1.9838
15778SOL     OW49712   0.555   1.714   4.384  0.4555  0.0894  0.2672
15778SOL    HW149713   0.621   1.648   4.404  1.1554  0.8564  0.5757
15778SOL    HW249714   0.599   1.798   4.403 -0.0260  0.6977 -1.1308
15779SOL     OW49715   6.441   2.613   8.670  0.2636 -0.5717 -0.8316
15779SOL    HW149716   6.536   2.609   8.661  0.3876 -0.0919  0.1469
15779SOL    HW249717   6.410   2.652   8.588  0.9685 -0.0315 -0.8416
15780SOL     OW49718  10.550  10.718   3.279 -0.0647 -0.6253  0.9338
15780SOL    HW149719  10.635  10.676   3.296 -0.4977 -1.8861  0.0755
15780SOL    HW249720  10.571  10.793   3.223  0.4560 -1.0751  0.5190
15781SOL     OW49721   9.816   5.869   0.972 -0.1013  0.4812 -0.4434
15781SOL    HW149722   9.896   5.895   0.928  0.0953  1.1994  0.3098
15781SOL    HW249723   9.813   5.924   1.050 -1.9533  1.3660 -1.0728
15782SOL     OW49724   4.016   7.795   3.438  0.2221  0.4170  0.0178
15782SOL    HW149725   4.021   7.815   3.344  0.1363 -0.7598 -0.2464
15782SOL    HW249726   3.936   7.744   3.447  0.7263 -0.2974  0.5722
15783SOL     OW49727   1.485   5.876   5.669 -0.7234  0.2186 -0.7801
15783SOL    HW149728   1.427   5.844   5.738  0.2681 -2.8413 -1.2147
15783SOL    HW249729   1.560   5.914   5.716 -0.1317 -1.6950 -0.0753
15784SOL     OW49730   7.732   8.395   9.229 -0.4791 -0.1542 -0.7779
15784SOL    HW149731   7.808   8.347   9.195  0.8193  0.4856  1.0519
15784SOL    HW249732   7.696   8.440   9.153  1.2426 -0.1354 -1.6349
15785SOL     OW49733   4.607   1.230   4.632  0.7101  0.2386  0.7228
15785SOL    HW149734   4.656   1.309   4.651  1.3556  0.2750 -0.9249
15785SOL    HW249735   4.668   1.174   4.584 -0.6383  0.0521 -0.9055
15786SOL     OW49736  10.638   9.888   8.440  0.0154  0.1192  0.2196
15786SOL    HW149737  10.670   9.943   8.368 -0.0311  0.7204  0.6456
15786SOL    HW249738  10.641   9.946   8.516 -0.5743 -0.3092  0.5692
15787SOL     OW49739   4.566   3.409   1.649  0.4942  0.3118  0.2540
15787SOL    HW149740   4.554   3.392   1.743  0.3077  1.7909  0.5273
15787SOL    HW249741   4.478   3.431   1.618  0.6361  0.2832 -0.1655
15788SOL     OW49742   2.056   5.538   2.080  0.0814  0.3186 -0.0911
15788SOL    HW149743   2.108   5.568   2.154 -1.1864  0.9718  0.5641
15788SOL    HW249744   1.982   5.598   2.077 -1.0047 -1.0000 -0.5621
15789SOL     OW49745   6.998   1.957   9.847 -0.2117  0.1789 -0.1312
15789SOL    HW149746   6.910   1.937   9.880 -0.5551  0.2964 -0.9493
15789SOL    HW249747   6.997   1.927   9.756  0.4542  0.5831 -0.2804
15790SOL     OW49748   1.113   6.775   3.745 -0.2890  0.3325  0.1552
15790SOL    HW149749   1.032   6.727   3.725 -0.0986  0.9854 -2.5636
15790SOL    HW249750   1.098   6.862   3.709 -0.2717  2.2050  4.1965
15791SOL     OW49751   3.059   0.686   0.022 -0.0996  0.1161  0.2556
15791SOL    HW149752   2.993   0.630  -0.020  0.3774 -0.8434  0.7613
15791SOL    HW249753   3.044   0.674   0.116 -0.0324  0.9028  0.3737
15792SOL     OW49754   3.372   0.709   3.506 -0.0871 -0.0393 -0.2774
15792SOL    HW149755   3.278   0.695   3.511  0.2276 -2.2010  1.0562
15792SOL    HW249756   3.384   0.765   3.429 -2.4489  0.4281 -0.3782
15793SOL     OW49757   1.658   5.139   2.771 -0.4916  0.0411 -0.1478
15793SOL    HW149758   1.629   5.118   2.682 -0.9441  0.0738 -0.0098
15793SOL    HW249759   1.682   5.055   2.809 -1.2283 -0.0969  0.0256
15794SOL     OW49760   8.737   2.107   7.611  0.3302  0.0332 -0.2106
15794SOL    HW149761   8.748   2.119   7.706  1.5480  1.6371 -0.5183
15794SOL    HW249762   8.655   2.152   7.591  0.3044  0.0929  0.0266
15795SOL     OW49763   3.626   0.094   6.994  0.2492 -0.5979 -0.4909
15795SOL    HW149764   3.706   0.140   6.969  0.4771 -0.2352  0.8017
15795SOL    HW249765   3.603   0.042   6.918  1.8509 -0.8980 -0.8099
15796SOL     OW49766   6.346   6.296   2.707 -0.2109  0.1844 -0.6941
15796SOL    HW149767   6.292   6.239   2.653  0.1288  0.5576 -1.4319
15796SOL    HW249768   6.360   6.375   2.654  2.3430 -0.5102 -1.1882
15797SOL     OW49769   9.205   8.375   6.742  0.2828 -0.0954  0.2195
15797SOL    HW149770   9.140   8.308   6.723  1.1419 -0.8577 -0.1342
15797SOL    HW249771   9.286   8.341   6.704  0.4617  1.8138 -1.2443
15798SOL     OW49772   8.619   4.201   6.237 -0.2092  0.2811  0.5645
15798SOL    HW149773   8.655   4.269   6.180 -1.0395  0.8463  0.7015
15798SOL    HW249774   8.695   4.166   6.283  0.1875  1.3486  0.7446
15799SOL     OW49775   6.511   1.187   8.956  0.3554 -0.2856  0.2140
15799SOL    HW149776   6.447   1.148   9.015  1.0715  0.1111  1.2839
15799SOL    HW249777   6.505   1.134   8.876 -0.5543 -0.9032  0.6702
15800SOL     OW49778   7.484   0.437   1.713  0.2572 -0.1709 -0.5524
15800SOL    HW149779   7.478   0.529   1.739  0.8291  0.1640 -1.5194
15800SOL    HW249780   7.578   0.421   1.703  0.1137 -0.5478 -1.4060
15801SOL     OW49781   8.459   5.115   8.819 -0.2653 -0.4681  0.3860
15801SOL    HW149782   8.465   5.054   8.745  2.4255 -0.1897  0.2678
15801SOL    HW249783   8.480   5.061   8.895  1.4965  0.1246  0.3552
15802SOL     OW49784   9.912   5.614   0.770 -0.0698  0.4854 -0.3166
15802SOL    HW149785   9.966   5.538   0.794  0.5385  0.9049 -0.3224
15802SOL    HW249786   9.870   5.641   0.852 -0.2729  0.1536 -0.3120
15803SOL     OW49787   5.250   8.169   4.748  0.8226 -0.0809  0.4988
15803SOL    HW149788   5.341   8.169   4.717  0.5043  1.1392 -0.4629
15803SOL    HW249789   5.239   8.253   4.792  0.2634 -0.3903  0.9709
15804SOL     OW49790   2.276   0.321   2.328  0.1318  0.1116  0.5894
15804SOL    HW149791   2.309   0.410   2.333  0.9059 -0.2036  1.6193
15804SOL    HW249792   2.214   0.314   2.400 -0.3326 -0.0293  0.1818
15805SOL     OW49793   6.851   7.967   6.680  0.4671  0.0704  0.1460
15805SOL    HW149794   6.800   7.970   6.599 -1.3304 -2.9823  0.9733
15805SOL    HW249795   6.939   7.994   6.655 -0.7831  2.5029 -2.0423
15806SOL     OW49796   5.933  10.677   9.451  0.0181 -0.3458  0.2198
15806SOL    HW149797   5.876  10.649   9.379 -0.0480  0.4511 -0.0411
15806SOL    HW249798   6.020  10.684   9.412 -0.1406  0.7684  0.0330
15807SOL     OW49799   8.877  10.059   5.550  0.2822  0.2685  0.5072
15807SOL    HW149800   8.869   9.977   5.599  0.5137 -0.4033 -0.5615
15807SOL    HW249801   8.944  10.042   5.484  0.3016  1.3105  0.2316
15808SOL     OW49802   5.430   9.943   4.633  0.5010  0.2164  1.0042
15808SOL    HW149803   5.425   9.858   4.590  0.8123  0.9795 -0.6482
15808SOL    HW249804   5.361   9.941   4.700 -0.0223 -1.0348  0.4574
15809SOL     OW49805   3.968   4.573   5.860 -0.0486 -0.0043  0.3106
15809SOL    HW149806   4.030   4.641   5.888 -1.5647  1.0384  1.2667
15809SOL    HW249807   4.004   4.541   5.777  1.6127  0.7477  0.6907
15810SOL     OW49808   5.685   8.138   4.317 -0.5385  0.3881  0.2845
15810SOL    HW149809   5.591   8.141   4.299 -0.1551  0.7076 -2.0369
15810SOL    HW249810   5.692   8.138   4.412 -2.8459  1.7072  0.5143
15811SOL     OW49811   0.791   6.956   6.271 -0.3648 -0.1485 -0.4881
15811SOL    HW149812   0.726   6.933   6.205  0.4519 -1.8299 -0.7513
15811SOL    HW249813   0.875   6.955   6.225  0.1773 -0.9550  0.4451
15812SOL     OW49814   7.998  10.420   6.093 -0.3205 -0.0964  0.1782
15812SOL    HW149815   8.023  10.413   6.185  1.6949  0.6017 -0.2600
15812SOL    HW249816   8.079  10.402   6.045 -1.7998 -2.6850 -1.5724
15813SOL     OW49817   6.980   8.355   2.907  0.4960  0.3102  0.0691
15813SOL    HW149818   6.896   8.399   2.919  0.7816  1.2383 -1.0331
15813SOL    HW249819   6.962   8.262   2.920 -0.5369  0.5767  0.5830
15814SOL     OW49820   7.850   7.683   4.634 -0.4058  0.4087  0.0565
15814SOL    HW149821   7.855   7.605   4.689  0.8844 -0.3213 -1.0182
15814SOL    HW249822   7.868   7.756   4.693 -0.4970 -0.2128  0.8651
15815SOL     OW49823   3.256   6.201   1.275 -0.4029  0.5983  0.5824
15815SOL    HW149824   3.330   6.154   1.313  0.5988  0.9860 -0.8006
15815SOL    HW249825   3.296   6.273   1.226 -1.5614  0.0693 -1.2574
15816SOL     OW49826   3.739   5.882   1.072  0.4664  0.4124 -0.3838
15816SOL    HW149827   3.778   5.797   1.089  1.9435  0.6478 -2.3118
15816SOL    HW249828   3.694   5.872   0.987 -0.6197  1.1612  0.0678
15817SOL     OW49829   5.654   8.689   0.025 -0.0948  0.0843  0.2787
15817SOL    HW149830   5.631   8.780   0.043  0.6585  0.5863 -1.1286
15817SOL    HW249831   5.727   8.694  -0.037  0.0079 -1.4774  0.2181
15818SOL     OW49832   8.248   0.149   9.497 -0.2158  0.2338  0.0311
15818SOL    HW149833   8.218   0.217   9.437  1.0860  0.8589  0.0507
15818SOL    HW249834   8.172   0.130   9.552 -1.1656  0.2924 -1.1937
15819SOL     OW49835   4.822   1.109   4.521 -0.3664  0.1488 -0.0746
15819SOL    HW149836   4.853   1.025   4.490  0.6703 -0.5091  2.5306
15819SOL    HW249837   4.870   1.174   4.469 -1.5917 -0.7542 -2.5032
15820SOL     OW49838   0.341   7.581   7.878  0.0994  0.1829  0.2250
15820SOL    HW149839   0.251   7.549   7.879 -0.8041  2.4609 -0.8888
15820SOL    HW249840   0.354   7.619   7.965 -0.2181  0.3220  0.2155
15821SOL     OW49841   1.554   1.675   3.866  0.1734 -0.0381  0.6308
15821SOL    HW149842   1.510   1.750   3.907 -0.5644  0.0992 -0.3687
15821SOL    HW249843   1.485   1.630   3.818  0.7366 -1.0221  0.7157
15822SOL     OW49844   9.855   9.565   7.511  0.1662  0.6446  0.2591
15822SOL    HW149845   9.823   9.579   7.422 -0.3464  1.9242  0.6196
15822SOL    HW249846   9.936   9.616   7.516  0.0766  0.7623  0.5817
15823SOL     OW49847   0.380   3.779   9.671  0.0798 -0.0215  0.2803
15823SOL    HW149848   0.299   3.766   9.622  1.0373 -0.8922 -1.1713
15823SOL    HW249849   0.355   3.768   9.763 -1.5531  0.4398 -0.0712
15824SOL     OW49850   6.877   7.127   9.417 -0.6583 -0.4809  0.1910
15824SOL    HW149851   6.971   7.109   9.421 -0.0966  1.9735 -0.1258
15824SOL    HW249852   6.856   7.167   9.501 -0.7645  1.4032 -0.6555
15825SOL     OW49853   4.987   4.124   6.337 -0.8292  0.0842 -0.2874
15825SOL    HW149854   5.010   4.209   6.299  0.0212 -0.2358 -0.4995
15825SOL    HW249855   4.962   4.144   6.427  0.0402  0.4757 -0.1274
15826SOL     OW49856   9.019   3.839   0.636  0.0077  0.4275 -0.4904
15826SOL    HW149857   8.931   3.820   0.668  0.1771 -1.3270 -0.9648
15826SOL    HW249858   9.033   3.776   0.565  2.2038 -0.3886  0.5775
15827SOL     OW49859   9.315   6.370   9.577  0.0550  0.6009 -0.3734
15827SOL    HW149860   9.395   6.342   9.622  0.1858 -0.8620 -1.4281
15827SOL    HW249861   9.262   6.412   9.644  0.6559 -0.6441  0.9181
15828SOL     OW49862   0.565   7.533   2.069  0.2761 -0.1250  0.2210
15828SOL    HW149863   0.516   7.530   2.152  2.1250 -0.6445  1.3468
15828SOL    HW249864   0.556   7.445   2.033 -0.9563  0.2408 -0.4348
15829SOL     OW49865  10.421   9.123   4.012  0.0639  0.0297  0.6115
15829SOL    HW149866  10.362   9.085   4.077  1.3263  1.4460  2.7026
15829SOL    HW249867  10.386   9.094   3.927 -3.2926  0.3752  1.7419
15830SOL     OW49868   4.761   6.198   1.595  0.1083  0.3641  0.0782
15830SOL    HW149869   4.819   6.122   1.592 -1.0020 -0.4937 -0.4383
15830SOL    HW249870   4.698   6.177   1.664 -0.7622  0.3750 -0.6926
15831SOL     OW49871   5.845   9.232   4.228  0.3851  0.1971  0.2532
15831SOL    HW149872   5.869   9.224   4.136  0.5029  0.0639  0.2945
15831SOL    HW249873   5.890   9.159   4.271  0.3773  0.2927  0.4252
15832SOL     OW49874   2.003   7.137   4.112  0.0765  0.2456  0.2942
15832SOL    HW149875   1.947   7.111   4.186 -3.2272  1.8518 -1.4083
15832SOL    HW249876   2.004   7.061   4.054 -2.1961  0.7985 -0.5863
15833SOL     OW49877   6.281   0.793   0.537  0.2582 -0.2212  0.5983
15833SOL    HW149878   6.248   0.878   0.566 -1.1312 -0.7348  0.5964
15833SOL    HW249879   6.353   0.773   0.598 -1.1126 -0.2347  2.3120
15834SOL     OW49880   2.764   6.153   3.818  0.2866 -0.2880  0.3964
15834SOL    HW149881   2.688   6.138   3.761 -0.9128  0.4033  1.7304
15834SOL    HW249882   2.806   6.067   3.825 -0.2770 -0.6532 -0.4819
15835SOL     OW49883   5.779   3.532   5.961 -0.0124  0.2193 -0.4042
15835SOL    HW149884   5.824   3.599   5.909  0.2926 -0.1403 -0.6017
15835SOL    HW249885   5.836   3.517   6.036  0.9012 -1.2420 -1.3507
15836SOL     OW49886   6.011   4.673   9.417 -0.4924 -0.5049 -0.0700
15836SOL    HW149887   5.959   4.694   9.494 -1.0047 -0.3110 -0.4667
15836SOL    HW249888   5.949   4.672   9.344  0.1035  0.1119 -0.6152
15837SOL     OW49889   4.522   6.645   3.204  0.0262 -0.1915 -0.0153
15837SOL    HW149890   4.444   6.684   3.244  0.8167 -0.2928  1.7629
15837SOL    HW249891   4.508   6.551   3.211  0.3999 -0.2114  0.5434
15838SOL     OW49892   5.368   8.770   3.106  0.8463  0.4715  0.0176
15838SOL    HW149893   5.379   8.840   3.041 -0.8956 -1.5708 -2.7104
15838SOL    HW249894   5.299   8.802   3.165 -0.6719  0.7679 -1.8088
15839SOL     OW49895   9.422   4.888   4.121 -0.3649 -0.3271 -0.4674
15839SOL    HW149896   9.481   4.837   4.177  1.3218  0.2523 -1.6275
15839SOL    HW249897   9.414   4.973   4.164 -0.2893 -0.3840 -0.3427
15840SOL     OW49898   1.997   0.990   2.170  0.3144  0.0197  0.2473
15840SOL    HW149899   1.988   0.960   2.079  0.0060 -1.5584  0.7600
15840SOL    HW249900   1.912   0.972   2.209  0.3182  1.0624  0.7699
15841SOL     OW49901   4.415   4.403   4.885  0.3807  0.2439  0.1503
15841SOL    HW149902   4.448   4.458   4.956  0.7179 -1.3730  1.2754
15841SOL    HW249903   4.405   4.316   4.923  0.3110 -0.6198 -1.7080
15842SOL     OW49904   3.981  10.729   0.857  0.0617 -0.6597 -0.5878
15842SOL    HW149905   4.033  10.805   0.830  0.7033 -1.4184 -1.5443
15842SOL    HW249906   3.900  10.766   0.890  0.2883  0.4420 -1.2269
15843SOL     OW49907   9.348   9.359   3.369  0.3013  0.0784 -0.0754
15843SOL    HW149908   9.341   9.296   3.441  0.8640 -1.0929 -1.0026
15843SOL    HW249909   9.280   9.334   3.307 -0.0202  0.9207 -0.0738
15844SOL     OW49910   7.773   0.872   7.147 -0.4634  0.1353  0.1174
15844SOL    HW149911   7.728   0.888   7.230  0.8041  2.2304  0.4813
15844SOL    HW249912   7.861   0.845   7.173 -0.3445 -0.1221 -0.5512
15845SOL     OW49913   6.793   3.332   4.480  0.3299  0.2337  0.0181
15845SOL    HW149914   6.712   3.316   4.528  0.4509  0.7357  0.3979
15845SOL    HW249915   6.800   3.258   4.419 -0.0998 -0.1299  0.4031
15846SOL     OW49916   7.628   0.847  10.428  0.6790  0.2238  0.2918
15846SOL    HW149917   7.624   0.850  10.332 -0.2238 -0.7707  0.2807
15846SOL    HW249918   7.541   0.875  10.456  0.6147 -0.4593  0.7879
15847SOL     OW49919   6.756   1.587   3.438  0.0824 -0.1666 -0.7367
15847SOL    HW149920   6.753   1.492   3.444  1.4444 -0.1933  0.0097
15847SOL    HW249921   6.699   1.617   3.509  0.4897 -0.4529 -0.2755
15848SOL     OW49922   5.294   1.506   9.303 -0.0680  0.1607  0.2828
15848SOL    HW149923   5.317   1.421   9.341 -1.8172  0.3391  1.8830
15848SOL    HW249924   5.316   1.498   9.211  1.7578 -1.2831  0.7850
15849SOL     OW49925  10.578   1.349   8.262  0.2818 -0.2530 -0.5925
15849SOL    HW149926  10.600   1.300   8.341 -0.4422 -2.1743 -1.5179
15849SOL    HW249927  10.661   1.360   8.216  0.3300 -1.5441 -0.8514
15850SOL     OW49928   9.508  10.251   8.433  0.2256  0.6086  0.1841
15850SOL    HW149929   9.432  10.247   8.491 -0.0893 -0.4009 -0.2719
15850SOL    HW249930   9.487  10.320   8.370  0.8224  2.1281  1.5859
15851SOL     OW49931   6.811   5.122   4.064  0.3969  0.6260  0.1299
15851SOL    HW149932   6.822   5.037   4.020  0.3439  0.7472 -0.1170
15851SOL    HW249933   6.894   5.135   4.110 -0.5010 -0.7592  2.2800
15852SOL     OW49934   4.426   1.571   6.469 -0.1034 -0.5593 -0.3797
15852SOL    HW149935   4.476   1.651   6.484 -2.7307  1.5947 -2.0460
15852SOL    HW249936   4.401   1.541   6.556  1.1791  0.2397  0.2950
15853SOL     OW49937   6.378   8.892   6.874 -0.3393 -0.0212 -0.3458
15853SOL    HW149938   6.345   8.943   6.800 -2.2725  0.1046  0.5375
15853SOL    HW249939   6.299   8.862   6.919  0.6823  1.9382  3.0568
15854SOL     OW49940   1.320  10.308   2.589 -1.0083 -0.0468 -0.3038
15854SOL    HW149941   1.365  10.242   2.642 -1.6397 -0.8172 -0.7028
15854SOL    HW249942   1.238  10.323   2.636 -1.2958 -0.2735 -0.7278
15855SOL     OW49943   7.578   0.663   7.673  0.1430 -0.0918 -0.4398
15855SOL    HW149944   7.613   0.750   7.653  1.4607 -0.6285 -0.6118
15855SOL    HW249945   7.655   0.611   7.696 -0.4910 -1.4745 -1.2844
15856SOL     OW49946   7.051   3.483   9.808  0.2926 -0.2028  0.0503
15856SOL    HW149947   6.976   3.529   9.771  0.4302 -0.8394 -1.0525
15856SOL    HW249948   7.117   3.550   9.819  0.7183 -0.1919 -2.1472
15857SOL     OW49949   4.057   7.188   0.387 -0.3390 -0.1632  0.0672
15857SOL    HW149950   4.031   7.196   0.295  0.3484  2.2750  0.0237
15857SOL    HW249951   3.985   7.228   0.436 -0.0906 -0.2333  0.4909
15858SOL     OW49952   7.718   3.463   6.843 -0.7755  0.8063 -0.0709
15858SOL    HW149953   7.732   3.497   6.754  1.6377  1.7797  0.5854
15858SOL    HW249954   7.745   3.371   6.837 -1.6030  0.5887 -0.5587
15859SOL     OW49955   1.318   7.398   6.529 -0.0993  0.0643 -0.1343
15859SOL    HW149956   1.325   7.304   6.514  0.1432  0.1243 -0.3967
15859SOL    HW249957   1.271   7.405   6.612 -1.0902 -0.2758 -0.6475
15860SOL     OW49958   7.648   7.506   5.328  0.1482 -0.1742 -0.1510
15860SOL    HW149959   7.601   7.535   5.407  1.6945 -0.5006  0.9445
15860SOL    HW249960   7.739   7.529   5.345  0.3974  0.5545 -2.2614
15861SOL     OW49961   9.226   8.301   6.345  0.1859  0.1306  0.0864
15861SOL    HW149962   9.255   8.210   6.335  0.0238  0.1167 -0.2965
15861SOL    HW249963   9.206   8.330   6.256 -0.6375  0.2475  0.2969
15862SOL     OW49964   7.967   0.423   5.786 -0.1218  0.3280 -0.4048
15862SOL    HW149965   8.008   0.382   5.710  0.4992 -1.1348  0.6697
15862SOL    HW249966   7.878   0.389   5.787  0.4316 -1.2056  0.5612
15863SOL     OW49967   1.645   9.094   0.467  0.6707 -0.0514  0.0651
15863SOL    HW149968   1.599   9.026   0.418  1.0033 -0.5914  0.4808
15863SOL    HW249969   1.727   9.107   0.419  1.0391 -0.6485  0.5115
15864SOL     OW49970   1.447   0.819   3.554  0.7632 -0.3974  0.5093
15864SOL    HW149971   1.379   0.829   3.486  1.5579 -1.7968 -0.5461
15864SOL    HW249972   1.404   0.770   3.624  0.8606 -2.0167 -0.5132
15865SOL     OW49973   3.955   6.278   3.838 -0.0003 -0.2933  0.5027
15865SOL    HW149974   3.899   6.317   3.771 -1.9004 -1.8256  1.1295
15865SOL    HW249975   3.950   6.184   3.821 -0.2280 -0.6827  2.5648
15866SOL     OW49976   9.085   3.249   2.361  0.4320  0.3109  0.2793
15866SOL    HW149977   9.091   3.164   2.405  2.2526  0.7297  0.9162
15866SOL    HW249978   9.060   3.310   2.431 -0.2195  0.4150 -0.0390
15867SOL     OW49979   0.614   1.640   7.530 -0.0639  1.4063 -0.3399
15867SOL    HW149980   0.572   1.635   7.444 -0.2710  0.3046 -0.1893
15867SOL    HW249981   0.652   1.727   7.532  1.6217  0.8070 -2.3394
15868SOL     OW49982   9.248   9.797   7.692 -0.2384 -0.8235 -0.0426
15868SOL    HW149983   9.232   9.888   7.664  1.7471 -0.2872  0.3931
15868SOL    HW249984   9.298   9.758   7.620  0.8304 -0.8748  0.7126
15869SOL     OW49985   0.029   1.740  10.654 -0.6739  0.4160  0.1619
15869SOL    HW149986   0.099   1.724  10.590 -0.6259 -0.5610  0.4306
15869SOL    HW249987   0.055   1.820  10.699  0.5693 -0.2156  0.6236
15870SOL     OW49988   8.777   3.236   9.936  0.0214  0.0870  0.0946
15870SOL    HW149989   8.828   3.198  10.008  2.1377 -1.5988 -2.1099
15870SOL    HW249990   8.718   3.166   9.910  1.7569 -0.7155 -1.9840
15871SOL     OW49991   1.080  10.239   8.559  0.2687  0.1750 -0.4461
15871SOL    HW149992   1.102  10.330   8.577 -0.7505  0.1410  1.1398
15871SOL    HW249993   0.987  10.242   8.536  0.1988 -0.4821 -0.2553
15872SOL     OW49994   8.601   9.913   7.225  0.2097 -0.2879 -0.3602
15872SOL    HW149995   8.514   9.926   7.262  0.2052 -1.7702  0.2474
15872SOL    HW249996   8.653   9.878   7.298  1.2093  0.2263 -0.8096
15873SOL     OW49997   8.839   5.134   2.656 -0.5598  0.8242  0.1639
15873SOL    HW149998   8.778   5.165   2.723 -1.2281  0.8459 -0.4542
15873SOL    HW249999   8.805   5.169   2.574 -0.6096 -0.4564 -0.3810
15874SOL     OW50000   3.004   9.957   4.125 -0.4588  0.2687  0.0967
15874SOL    HW150001   3.031   9.942   4.034  0.9527 -0.2389  0.5731
15874SOL    HW250002   2.989  10.052   4.130 -3.6459 -0.0305 -1.4224
15875SOL     OW50003   7.402   4.485   9.898 -0.5949  0.6686  0.4565
15875SOL    HW150004   7.307   4.483   9.909 -0.4322  1.5356  2.4887
15875SOL    HW250005   7.416   4.517   9.809 -2.1986  1.9171  0.6175
15876SOL     OW50006   3.932   3.443   6.763 -0.0022  0.5178 -0.7054
15876SOL    HW150007   3.999   3.448   6.831 -0.6096 -3.0253  0.3364
15876SOL    HW250008   3.849   3.452   6.810 -0.4381 -2.1609 -0.8080
15877SOL     OW50009   1.968   9.273   9.927 -0.3789  0.1634  0.0123
15877SOL    HW150010   2.054   9.239   9.955  0.0862  2.2433  1.2921
15877SOL    HW250011   1.983   9.366   9.911 -2.4441  0.6259  0.5100
15878SOL     OW50012   9.088   6.510   0.804 -0.4580  0.2985  0.1712
15878SOL    HW150013   8.993   6.516   0.791 -0.4443 -0.6214 -0.4213
15878SOL    HW250014   9.111   6.424   0.770  1.1548  1.8977 -3.2030
15879SOL     OW50015   9.265   6.877   6.200 -0.1753  0.6072  0.0942
15879SOL    HW150016   9.327   6.817   6.159  0.0190  0.6700  0.2965
15879SOL    HW250017   9.179   6.842   6.177 -0.0606  0.1658  0.3402
15880SOL     OW50018   5.750   9.989   5.456  0.2183 -0.4648  0.2289
15880SOL    HW150019   5.837   9.976   5.494  1.0514 -1.7226 -1.8989
15880SOL    HW250020   5.700  10.034   5.524  2.3019 -0.3734  1.7969
15881SOL     OW50021   9.772   0.941   0.008  0.2367  0.0155  0.3880
15881SOL    HW150022   9.857   0.986   0.011  0.5977 -0.6666  0.5495
15881SOL    HW250023   9.753   0.933  -0.086 -0.2571  1.2690  0.3545
15882SOL     OW50024   6.923   0.748   2.683 -0.1851  0.3122 -0.0797
15882SOL    HW150025   6.841   0.762   2.636  0.3103 -1.3523 -1.5747
15882SOL    HW250026   6.938   0.654   2.677  1.2084  0.4072  1.2694
15883SOL     OW50027   4.593   5.499   4.618 -0.7398 -0.2688 -0.5236
15883SOL    HW150028   4.616   5.544   4.700 -1.1518 -0.5393 -0.2549
15883SOL    HW250029   4.652   5.537   4.553 -0.6815  0.2424 -0.1831
15884SOL     OW50030   4.251   1.167   0.201  0.1474  0.3598 -0.2686
15884SOL    HW150031   4.187   1.231   0.232  0.5831  1.5466 -1.7375
15884SOL    HW250032   4.241   1.093   0.261 -1.5365  1.1166  0.4475
15885SOL     OW50033   9.133   1.694   8.920 -0.1390 -0.5507 -0.0765
15885SOL    HW150034   9.159   1.751   8.992 -1.4717 -1.0960  0.8699
15885SOL    HW250035   9.148   1.746   8.841 -1.3802  1.1434  0.7641
15886SOL     OW50036   9.487   5.674   0.077 -0.3056  0.1879  0.4628
15886SOL    HW150037   9.476   5.694   0.170 -0.1912  0.0540  0.5067
15886SOL    HW250038   9.546   5.598   0.076  0.0174  0.4391  0.2651
15887SOL     OW50039   5.998   1.369   4.818 -0.1067 -0.3071 -0.5933
15887SOL    HW150040   5.971   1.447   4.868 -0.9499 -1.3997  0.7325
15887SOL    HW250041   5.935   1.365   4.746  0.4760  0.7011 -1.1864
15888SOL     OW50042   7.382   8.940   8.856 -0.2646 -0.0113 -0.0785
15888SOL    HW150043   7.328   8.871   8.818 -0.8427  1.2057 -1.5477
15888SOL    HW250044   7.444   8.964   8.787  1.0139 -0.1560  0.9732
15889SOL     OW50045   8.232  10.618   6.884 -0.4211  0.4503 -0.1890
15889SOL    HW150046   8.206  10.697   6.838 -0.3983  1.7209  1.8670
15889SOL    HW250047   8.158  10.558   6.874 -1.6781  1.8181  0.6100
15890SOL     OW50048   6.818   7.300  10.577 -1.4864 -0.7521 -0.6960
15890SOL    HW150049   6.869   7.225  10.607  0.4750 -0.2686 -2.5515
15890SOL    HW250050   6.837   7.369  10.640 -0.3383 -0.7826 -0.9827
15891SOL     OW50051   7.434   5.300   2.436 -0.2602 -0.4094 -0.0372
15891SOL    HW150052   7.463   5.374   2.382 -0.4552  1.4946  2.3025
15891SOL    HW250053   7.344   5.284   2.408  0.4275 -1.1875 -1.9755
15892SOL     OW50054   3.310   6.369   9.946 -0.1905  0.5860 -0.4128
15892SOL    HW150055   3.280   6.295   9.893  0.9773 -1.9291  2.2429
15892SOL    HW250056   3.240   6.383  10.009  0.8677 -0.2969  1.0001
15893SOL     OW50057   4.993   8.638   2.151  0.4279 -0.4077 -0.2359
15893SOL    HW150058   5.051   8.586   2.207 -1.1182 -1.3368  0.5734
15893SOL    HW250059   4.931   8.678   2.211 -0.8933 -0.9152 -1.2226
15894SOL     OW50060   4.682   4.106   5.654  0.2036 -0.0896  0.4882
15894SOL    HW150061   4.602   4.124   5.604  0.2478 -0.0152  0.4436
15894SOL    HW250062   4.711   4.192   5.684  0.2482 -0.1205  0.5338
15895SOL     OW50063   7.746   6.007   6.900  0.1707 -0.0338  0.1373
15895SOL    HW150064   7.666   6.007   6.952  1.1879  0.4611  1.7854
15895SOL    HW250065   7.765   6.099   6.886  0.2638 -0.1567 -0.5550
15896SOL     OW50066   4.110   8.796   9.705 -0.3067 -0.3071  0.5207
15896SOL    HW150067   4.133   8.791   9.613  1.3655 -1.2209  0.9516
15896SOL    HW250068   4.021   8.832   9.706 -0.1595  0.1973 -1.4002
15897SOL     OW50069   0.116   0.201   3.770  0.7110 -0.3244 -0.0224
15897SOL    HW150070   0.085   0.125   3.722  2.2053 -0.7680 -0.3557
15897SOL    HW250071   0.212   0.193   3.769  0.8786  1.1239  0.6403
15898SOL     OW50072  10.218  10.614   9.246 -0.1124  0.2809  0.3970
15898SOL    HW150073  10.284  10.638   9.180 -0.6680  1.7469  0.3474
15898SOL    HW250074  10.258  10.640   9.329 -0.5163  0.9320  0.3890
15899SOL     OW50075   9.883   2.461   9.342  0.1882  0.0570 -0.2598
15899SOL    HW150076   9.924   2.534   9.388  0.8096 -0.4689  0.0329
15899SOL    HW250077   9.887   2.485   9.249 -2.0737  1.6416 -0.0216
15900SOL     OW50078   0.014   6.592   5.322 -0.0814 -0.5978 -0.0541
15900SOL    HW150079   0.086   6.529   5.320 -1.0593 -1.8410  1.2251
15900SOL    HW250080   0.053   6.675   5.294  1.9996 -1.0667  1.2352
15901SOL     OW50081   5.396   8.541   9.954  0.0418 -0.5859 -0.1863
15901SOL    HW150082   5.407   8.507   9.865  0.0538 -1.0083 -0.0272
15901SOL    HW250083   5.304   8.525   9.974  0.8257 -4.2255  1.3489
15902SOL     OW50084   0.096   2.620   7.629 -0.1788 -0.7345  0.3204
15902SOL    HW150085   0.054   2.705   7.645 -2.1359 -1.4192 -0.8701
15902SOL    HW250086   0.118   2.588   7.716 -1.8582 -0.1827  0.9843
15903SOL     OW50087   6.738   7.656   3.428 -0.2887  0.1103 -0.2306
15903SOL    HW150088   6.758   7.564   3.443  0.4602  0.1041 -1.1735
15903SOL    HW250089   6.755   7.670   3.335  3.3585  2.0996  0.5576
15904SOL     OW50090   0.768   8.120   0.930 -0.7065  0.3748 -0.7914
15904SOL    HW150091   0.825   8.197   0.938 -1.5040  1.1648 -2.2133
15904SOL    HW250092   0.712   8.124   1.007  2.3538 -1.5554  1.7489
15905SOL     OW50093   4.735   8.899   2.131 -0.0967  0.0151  0.8768
15905SOL    HW150094   4.817   8.928   2.091  0.0097 -1.9187 -0.4126
15905SOL    HW250095   4.760   8.872   2.219  0.8392 -1.3031  0.2410
15906SOL     OW50096   4.687   3.061   9.744 -0.6899 -0.1579 -0.6119
15906SOL    HW150097   4.613   3.002   9.729 -0.7539 -0.5220  0.9548
15906SOL    HW250098   4.649   3.149   9.742 -1.2075 -0.3517  0.3230
15907SOL     OW50099   9.034   5.364   1.180  0.3500  0.2998 -0.2056
15907SOL    HW150100   9.016   5.282   1.226 -0.3252  1.1860  1.1610
15907SOL    HW250101   8.972   5.365   1.107 -1.3127  0.6735  1.1573
15908SOL     OW50102   6.224   7.419   1.657 -0.3295  0.2344 -0.7367
15908SOL    HW150103   6.308   7.445   1.695 -0.7340 -1.0926  1.1745
15908SOL    HW250104   6.179   7.502   1.641  0.4189  0.9010  0.4147
15909SOL     OW50105   9.455   6.086   3.112 -0.5722  0.3928  0.6296
15909SOL    HW150106   9.497   6.171   3.107  0.7124 -0.2963 -2.0535
15909SOL    HW250107   9.376   6.101   3.164  0.6539  2.7124  2.0013
15910SOL     OW50108   6.735   5.056   8.396 -0.3180  0.4545 -0.0735
15910SOL    HW150109   6.802   5.117   8.365  2.4853 -1.7092  1.1737
15910SOL    HW250110   6.745   4.979   8.340 -1.9165  0.1176  0.0574
15911SOL     OW50111   9.807   7.114   1.336 -0.0923  0.0675  0.1472
15911SOL    HW150112   9.800   7.019   1.332  0.6439 -0.0538  1.3263
15911SOL    HW250113   9.877   7.136   1.274  0.0414 -0.2096  0.1991
15912SOL     OW50114   0.670   5.664   7.893 -0.0163  0.3022  0.3830
15912SOL    HW150115   0.610   5.737   7.879 -0.0114 -0.0879 -2.0494
15912SOL    HW250116   0.693   5.635   7.805 -0.6284 -3.1463  1.2214
15913SOL     OW50117   7.415   4.486   1.088 -0.2824  0.0715 -0.6710
15913SOL    HW150118   7.417   4.408   1.144 -1.3424  0.1097 -0.5596
15913SOL    HW250119   7.493   4.536   1.113  0.2175 -0.7723 -0.4945
15914SOL     OW50120   3.120   8.669  10.109  0.5180  0.0083  0.2594
15914SOL    HW150121   3.116   8.763  10.092  0.1748  0.1490  1.0631
15914SOL    HW250122   3.031   8.646  10.137 -0.0886 -1.0436 -2.2650
15915SOL     OW50123   5.342   9.179   6.219 -0.5349  0.3780  0.3153
15915SOL    HW150124   5.397   9.156   6.293  1.1528  0.5257 -0.8434
15915SOL    HW250125   5.263   9.127   6.230  0.7824 -1.5940  0.8263
15916SOL     OW50126  10.484   3.076   3.595 -0.7165  0.7266  0.4801
15916SOL    HW150127  10.423   3.009   3.624 -1.4749  1.1334 -0.1331
15916SOL    HW250128  10.503   3.127   3.674  1.0912 -1.1012  1.3125
15917SOL     OW50129   7.566   4.804   2.004 -0.2745  0.2370  0.0772
15917SOL    HW150130   7.627   4.847   2.065  0.8941 -1.0280 -0.1372
15917SOL    HW250131   7.541   4.724   2.048 -0.0336 -0.3135 -0.7605
15918SOL     OW50132   7.841   1.075   2.085  0.6708  0.3480 -0.2756
15918SOL    HW150133   7.776   1.017   2.045  1.3345 -0.8242  0.2975
15918SOL    HW250134   7.924   1.047   2.049  1.0893  0.3970  0.6175
15919SOL     OW50135   6.367   5.980   6.974 -1.0797  0.3201 -0.4109
15919SOL    HW150136   6.357   5.888   7.000 -0.5421  0.3437 -0.0930
15919SOL    HW250137   6.462   5.993   6.970 -1.1398  1.1006  0.4085
15920SOL     OW50138   2.377   6.407   1.805 -0.1847 -0.1837 -0.0126
15920SOL    HW150139   2.283   6.391   1.809 -0.2070  0.1561  1.0519
15920SOL    HW250140   2.417   6.329   1.844 -0.0504 -0.0889  0.0407
15921SOL     OW50141  10.734   5.120   4.040 -0.2893  0.0773  0.3481
15921SOL    HW150142  10.792   5.174   4.092  1.0966 -0.9219 -0.0999
15921SOL    HW250143  10.724   5.168   3.957 -1.0960  0.8212  0.8569
15922SOL     OW50144   6.894   3.502   1.161 -0.0104  0.3856  0.3325
15922SOL    HW150145   6.888   3.505   1.065 -0.8851 -1.4900  0.2834
15922SOL    HW250146   6.803   3.501   1.191  0.2536  0.4599  1.1689
15923SOL     OW50147   3.198   8.706   4.953  0.7629 -0.0384 -0.1011
15923SOL    HW150148   3.193   8.689   5.048 -2.0609  0.0529 -0.1302
15923SOL    HW250149   3.240   8.628   4.917  1.5549 -0.2389  1.1781
15924SOL     OW50150   2.138   0.272   3.493 -0.2111  0.2363 -0.0104
15924SOL    HW150151   2.212   0.238   3.444 -1.2693 -0.5718 -1.1086
15924SOL    HW250152   2.143   0.367   3.483  1.8882  0.3752  1.7751
15925SOL     OW50153   4.705   2.578   2.931  0.4387 -0.0097 -0.0960
15925SOL    HW150154   4.748   2.663   2.920  1.0115  0.1279  2.4559
15925SOL    HW250155   4.639   2.594   2.998  0.1581 -1.4576  0.0015
15926SOL     OW50156   9.245   4.050   2.188 -0.4330 -0.2694  0.3075
15926SOL    HW150157   9.324   4.045   2.135  0.7118  2.9026  1.4701
15926SOL    HW250158   9.183   4.101   2.136 -0.6297 -0.2255  0.5779
15927SOL     OW50159   9.337   6.373   6.898  0.2780 -0.3252 -0.3383
15927SOL    HW150160   9.432   6.372   6.894  0.2508 -0.7122 -1.2479
15927SOL    HW250161   9.310   6.387   6.807 -0.5284  0.0712 -0.0440
15928SOL     OW50162   6.676   3.244   3.917 -0.3375 -0.5837  0.2556
15928SOL    HW150163   6.690   3.303   3.991 -2.2757 -0.6200  0.7114
15928SOL    HW250164   6.673   3.157   3.957  1.8926 -1.0056 -0.3371
15929SOL     OW50165   0.583   1.016   3.458 -0.4314 -0.1397 -0.1499
15929SOL    HW150166   0.498   1.057   3.479 -0.0899  0.7730 -0.4740
15929SOL    HW250167   0.575   0.990   3.366 -0.0471  0.8151 -0.4699
15930SOL     OW50168   5.398   3.265   5.579  0.5634  0.1694 -0.0635
15930SOL    HW150169   5.389   3.183   5.628  0.8049 -1.5693 -2.7319
15930SOL    HW250170   5.462   3.246   5.511  0.3249  2.4799 -1.0378
15931SOL     OW50171   5.429   5.879   3.588  0.1354 -0.3052  0.4385
15931SOL    HW150172   5.452   5.843   3.674 -1.6705 -1.3439  0.5445
15931SOL    HW250173   5.346   5.925   3.602  0.9235  1.4523 -0.3303
15932SOL     OW50174   2.527   1.724   3.024 -0.5138 -0.0580 -0.0348
15932SOL    HW150175   2.616   1.753   3.046 -0.5949  1.2114 -1.2603
15932SOL    HW250176   2.534   1.628   3.017  0.7303  0.0153  0.0124
15933SOL     OW50177  10.166   9.260   8.690 -0.4928 -0.1006 -0.2328
15933SOL    HW150178  10.168   9.193   8.622  1.5497 -0.6942  0.3282
15933SOL    HW250179  10.074   9.268   8.714 -1.3969  0.6086 -3.4607
15934SOL     OW50180   0.056  10.207   3.467  0.3123 -0.2198 -0.9482
15934SOL    HW150181  -0.030  10.165   3.469  0.7071 -1.0628 -1.1187
15934SOL    HW250182   0.105  10.157   3.401  1.4658 -0.8166  0.3103
15935SOL     OW50183   7.001   2.314   1.261 -0.1921 -0.4998  0.1934
15935SOL    HW150184   6.993   2.406   1.234  0.5203 -0.4449  0.1499
15935SOL    HW250185   6.925   2.300   1.318 -1.4334 -0.4822 -1.3988
15936SOL     OW50186   4.019   1.670   7.847  0.0192  0.0567  0.0699
15936SOL    HW150187   3.999   1.607   7.917  1.6492 -1.2093 -0.5343
15936SOL    HW250188   3.981   1.752   7.878 -2.3569 -1.1999  0.8243
15937SOL     OW50189   0.608   4.020   2.345  0.4858 -0.4233  0.4399
15937SOL    HW150190   0.607   4.114   2.326 -0.4234 -0.5145 -0.0194
15937SOL    HW250191   0.650   3.980   2.269  2.1468 -0.2838  1.2468
15938SOL     OW50192   2.149  10.265   1.243  0.3473  0.4293 -0.5483
15938SOL    HW150193   2.228  10.306   1.208 -0.8647  3.9795  0.4332
15938SOL    HW250194   2.180  10.209   1.314  2.1037  0.0976 -1.5340
15939SOL     OW50195   9.385   8.272   6.985  0.4007 -0.1310 -0.2358
15939SOL    HW150196   9.440   8.305   6.914  1.3015 -2.6300 -0.7979
15939SOL    HW250197   9.295   8.288   6.956  0.7601 -0.7096 -1.7740
15940SOL     OW50198   4.284   7.806   1.501  0.2703 -0.3885  0.5046
15940SOL    HW150199   4.340   7.730   1.488 -1.9867 -2.0034 -0.3557
15940SOL    HW250200   4.269   7.809   1.596  0.5728 -0.8480  0.5656
15941SOL     OW50201   8.230  10.426   4.310 -0.4692 -0.1620 -0.7422
15941SOL    HW150202   8.146  10.401   4.347 -0.0587 -0.8866 -0.2750
15941SOL    HW250203   8.288  10.352   4.329  0.1658  0.1369 -1.4320
15942SOL     OW50204   5.328   0.219   2.219 -0.2697 -0.0262 -0.4369
15942SOL    HW150205   5.335   0.311   2.193 -0.1906  0.2793  0.6210
15942SOL    HW250206   5.314   0.221   2.314  2.3992 -1.1677  0.0716
15943SOL     OW50207   6.981   6.789   6.437  0.2674 -0.1183  0.1220
15943SOL    HW150208   6.926   6.711   6.428 -0.1964  0.0378  1.4129
15943SOL    HW250209   6.947   6.850   6.372 -0.5386 -0.3422  0.3199
15944SOL     OW50210   0.067   8.581   8.026  0.1021  0.4012  0.2320
15944SOL    HW150211   0.076   8.673   8.001 -0.2039  0.2176 -0.5787
15944SOL    HW250212  -0.026   8.562   8.014  0.5046 -0.5722 -1.6334
15945SOL     OW50213   2.310   8.164   8.231  0.0797 -0.9420 -0.1148
15945SOL    HW150214   2.216   8.175   8.247 -0.3073 -1.4606 -1.8193
15945SOL    HW250215   2.345   8.253   8.232 -0.4861 -0.7173  0.1715
15946SOL     OW50216   9.451   2.509  10.571  0.3156  0.0939 -0.3233
15946SOL    HW150217   9.383   2.457  10.529 -0.0610  0.2454  0.0960
15946SOL    HW250218   9.434   2.598  10.541 -0.0782  0.2343  0.3048
15947SOL     OW50219   2.591   7.008   6.871 -0.5496 -0.2588  0.6363
15947SOL    HW150220   2.585   6.936   6.933  0.7665  0.4870  1.6664
15947SOL    HW250221   2.684   7.015   6.850 -0.8017  0.3995 -0.3519
15948SOL     OW50222   3.108   4.122   5.195 -0.1406  0.2333  0.6057
15948SOL    HW150223   3.176   4.061   5.223 -1.9758 -2.2923 -0.0074
15948SOL    HW250224   3.075   4.160   5.277 -0.3304 -1.2170  1.2416
15949SOL     OW50225   0.157   3.713   1.803  0.2503 -0.5155  0.6627
15949SOL    HW150226   0.065   3.685   1.804  0.3127 -0.7814 -0.2630
15949SOL    HW250227   0.194   3.675   1.883 -0.3263 -0.8313  0.7871
15950SOL     OW50228   1.080   9.153   4.866 -0.3658  0.1487  0.2944
15950SOL    HW150229   1.011   9.215   4.889  0.4734  0.9092  0.8073
15950SOL    HW250230   1.035   9.069   4.859 -1.7285  0.9714 -1.5192
15951SOL     OW50231   3.710   8.459   5.923  0.1746  0.0003  0.6678
15951SOL    HW150232   3.632   8.404   5.922  0.0059  0.1771 -1.8519
15951SOL    HW250233   3.677   8.548   5.932  0.3111 -0.0877  2.4117
15952SOL     OW50234   9.538   6.042   5.628  0.3041 -0.0055 -0.7234
15952SOL    HW150235   9.540   6.018   5.721 -0.3523  0.5660 -0.5504
15952SOL    HW250236   9.525   6.137   5.628 -0.1715 -0.0641 -1.4045
15953SOL     OW50237   5.694   6.092  10.788  0.7673  0.6283  0.1191
15953SOL    HW150238   5.610   6.071  10.828  1.4693  0.2396  1.4534
15953SOL    HW250239   5.708   6.184  10.810  0.6312  0.7329 -0.2261
15954SOL     OW50240   9.562   7.823   1.825  0.4715  0.4590 -0.6555
15954SOL    HW150241   9.543   7.760   1.755  0.5566 -0.0687 -0.2092
15954SOL    HW250242   9.551   7.908   1.784  2.2026  0.1859 -1.7891
15955SOL     OW50243   8.762   9.100   1.997 -0.3359  0.3115 -0.6359
15955SOL    HW150244   8.764   9.051   1.914  1.8316 -2.2410  0.7604
15955SOL    HW250245   8.847   9.146   1.999  0.0033 -0.3450  0.5141
15956SOL     OW50246   6.404   7.886   6.341  0.1225 -0.0141  0.0603
15956SOL    HW150247   6.310   7.870   6.348  0.5356 -2.2192  1.3182
15956SOL    HW250248   6.427   7.859   6.252 -0.6512  2.1224 -0.8463
15957SOL     OW50249   0.426   8.627  10.650 -0.5810  0.1376  0.3938
15957SOL    HW150250   0.436   8.631  10.554 -0.7989  1.5976  0.4035
15957SOL    HW250251   0.511   8.655  10.684 -0.8742  0.7847  0.6056
15958SOL     OW50252   7.680   7.027   1.061 -0.7240  0.3017  0.2049
15958SOL    HW150253   7.746   6.997   1.123 -0.7064 -0.7893 -0.3139
15958SOL    HW250254   7.597   7.016   1.108 -0.6103  0.8022  0.5270
15959SOL     OW50255   4.726   7.936  10.400  0.0934 -0.2955 -0.4268
15959SOL    HW150256   4.756   7.858  10.447 -0.2847 -0.5319 -0.5640
15959SOL    HW250257   4.742   8.008  10.460  0.6452 -0.4527 -0.3812
15960SOL     OW50258   8.189   0.849   1.527 -0.5501  0.0903  0.3440
15960SOL    HW150259   8.105   0.809   1.504 -0.1514  0.3306 -1.7381
15960SOL    HW250260   8.166   0.935   1.562 -1.3519 -1.4106  3.9102
15961SOL     OW50261   1.662   8.435   7.495 -0.1008  0.1690  1.0693
15961SOL    HW150262   1.692   8.347   7.521 -0.0786  0.1495  0.9801
15961SOL    HW250263   1.691   8.444   7.404 -1.4836 -0.3578  0.5438
15962SOL     OW50264   2.410   1.710   0.776 -0.1841 -0.6298  0.1488
15962SOL    HW150265   2.505   1.724   0.782 -0.1132 -1.4981  2.2728
15962SOL    HW250266   2.401   1.624   0.735 -0.1766  0.3269 -1.9667
15963SOL     OW50267   1.108   8.781   9.787  0.2906  0.1848 -0.1253
15963SOL    HW150268   1.133   8.869   9.815  1.6035 -0.4141  0.6628
15963SOL    HW250269   1.046   8.796   9.715  0.9010  1.7485 -0.3652
15964SOL     OW50270   4.381   8.644   4.601 -0.0870  0.0201 -0.1843
15964SOL    HW150271   4.341   8.730   4.613  0.9619  0.5768 -0.4920
15964SOL    HW250272   4.409   8.643   4.510  1.5406  0.0938  0.2848
15965SOL     OW50273   8.017   1.201   3.638  0.2685  0.5585  0.2995
15965SOL    HW150274   7.953   1.241   3.579 -0.1803 -1.5205 -0.7203
15965SOL    HW250275   7.971   1.192   3.721  1.0609  3.9607  1.2498
15966SOL     OW50276   4.498   7.802   6.064  0.1778  0.0032  0.4325
15966SOL    HW150277   4.519   7.871   6.126  1.6261 -0.9002  0.9980
15966SOL    HW250278   4.578   7.749   6.058  0.0413 -0.0561 -2.0681
15967SOL     OW50279   3.633   3.828   0.721 -0.6824  0.0965  0.8589
15967SOL    HW150280   3.567   3.826   0.651  0.2781 -0.3254 -0.0457
15967SOL    HW250281   3.626   3.917   0.757 -0.5154  0.6653 -0.4400
15968SOL     OW50282   3.703   3.890   6.593 -0.1031 -0.8670 -0.0706
15968SOL    HW150283   3.708   3.852   6.680  2.2849 -0.1925  0.1547
15968SOL    HW250284   3.642   3.963   6.602 -0.7496 -1.4977  0.7482
15969SOL     OW50285   5.673   0.642   9.415 -0.0729  0.7424  0.8180
15969SOL    HW150286   5.726   0.687   9.481  0.9166  0.3435  0.3165
15969SOL    HW250287   5.737   0.602   9.356 -0.9272 -0.9955  1.0196
15970SOL     OW50288   0.283   9.398   8.932 -0.0183 -0.2457 -0.2407
15970SOL    HW150289   0.276   9.387   9.026 -0.6530  0.8711 -0.1422
15970SOL    HW250290   0.306   9.490   8.920  1.0993 -0.6180 -1.1439
15971SOL     OW50291   8.456   3.719   6.103 -0.1119  0.0271 -0.5008
15971SOL    HW150292   8.390   3.782   6.075  0.6673  0.0175 -2.5298
15971SOL    HW250293   8.494   3.686   6.021  0.5489 -1.9643  0.5386
15972SOL     OW50294   9.881   1.282   8.624 -0.0806 -0.4541 -0.0675
15972SOL    HW150295   9.944   1.353   8.611 -0.2980 -0.2619 -0.0866
15972SOL    HW250296   9.825   1.312   8.696  0.5195 -1.0925  0.6818
15973SOL     OW50297   4.749  10.454   3.958 -0.0825  0.0606 -0.2968
15973SOL    HW150298   4.659  10.429   3.935  0.0391  0.6319 -1.4869
15973SOL    HW250299   4.804  10.387   3.917  0.0525 -0.0047 -0.0087
15974SOL     OW50300   3.624   9.988   1.757  0.4099  0.5743  0.2817
15974SOL    HW150301   3.708  10.034   1.752 -0.2939  1.8239 -0.4182
15974SOL    HW250302   3.646   9.896   1.741  1.5895  0.9571 -0.3740
15975SOL     OW50303   1.057   6.717   4.935  0.0200  0.0809 -0.0310
15975SOL    HW150304   1.098   6.799   4.962  0.2433 -0.2032  0.5053
15975SOL    HW250305   0.982   6.744   4.882  0.1043  0.6292  0.1256
15976SOL     OW50306   3.563   9.491   2.716 -0.2694 -0.1144 -0.3497
15976SOL    HW150307   3.632   9.535   2.767 -1.2107  1.3595 -0.2886
15976SOL    HW250308   3.592   9.400   2.710  1.0040  0.1770  0.8438
15977SOL     OW50309   6.932   9.838   1.964  0.3595 -0.4484  0.3869
15977SOL    HW150310   6.908   9.768   2.025  0.3784 -0.8603 -0.0692
15977SOL    HW250311   6.940   9.794   1.879  0.2759  0.1248  0.0734
15978SOL     OW50312   7.328   0.013  10.017  0.4259  0.4075  0.3529
15978SOL    HW150313   7.389  -0.030  10.077 -0.2928 -0.5041  0.4428
15978SOL    HW250314   7.320   0.102  10.051  1.4905  0.4701  0.4933
15979SOL     OW50315   4.849   1.972   0.956  0.0538  0.0784 -0.8896
15979SOL    HW150316   4.892   1.947   0.874  1.3356  1.5431 -0.7112
15979SOL    HW250317   4.790   2.043   0.931  0.9405  0.9874 -0.4695
15980SOL     OW50318  10.410   4.764   1.814 -0.5772 -0.5154  0.3928
15980SOL    HW150319  10.436   4.848   1.853 -1.6731  0.0374 -0.0277
15980SOL    HW250320  10.487   4.708   1.824  1.0520  1.2293 -1.3617
15981SOL     OW50321   8.910   2.159   9.019 -0.4513 -0.7923 -0.0920
15981SOL    HW150322   8.818   2.188   9.025  0.0520  0.8570  0.2170
15981SOL    HW250323   8.917   2.090   9.086 -1.1211  0.0843  0.9214
15982SOL     OW50324   1.090   7.082   4.309 -0.0306 -0.2779 -0.5472
15982SOL    HW150325   1.018   7.019   4.307  0.7389 -1.2745  0.8454
15982SOL    HW250326   1.084   7.122   4.396 -0.4454  1.5287 -1.3827
15983SOL     OW50327   8.796   7.393   5.174  0.5798 -0.2525  0.6842
15983SOL    HW150328   8.878   7.343   5.170  0.2240 -0.8701  0.8925
15983SOL    HW250329   8.761   7.374   5.261  0.8437  1.0395  1.0992
15984SOL     OW50330   0.663   1.830   9.646  0.0910 -0.8139  0.1944
15984SOL    HW150331   0.715   1.859   9.721 -1.2829  0.9289  0.5417
15984SOL    HW250332   0.708   1.867   9.570  0.3829 -0.8841  0.3335
15985SOL     OW50333   9.822   7.638   0.488  0.0622 -0.1632  0.0564
15985SOL    HW150334   9.868   7.689   0.556 -1.4527  0.2194  0.8263
15985SOL    HW250335   9.737   7.680   0.480 -0.4827 -1.3755 -0.7487
15986SOL     OW50336   7.506   1.809   5.551 -0.0094 -0.0863 -0.6030
15986SOL    HW150337   7.530   1.739   5.612  1.9362 -0.0880 -1.2951
15986SOL    HW250338   7.556   1.885   5.581 -0.8938  0.5848 -0.7956
15987SOL     OW50339   6.871   2.922   7.080 -0.0314  0.4033 -0.6207
15987SOL    HW150340   6.859   3.011   7.046  0.1693  0.4400 -0.5989
15987SOL    HW250341   6.960   2.899   7.055  0.4901  0.8145  0.7274
15988SOL     OW50342   6.333   0.477  10.273  0.6266 -0.1815 -0.0485
15988SOL    HW150343   6.238   0.477  10.281  0.5292  1.2643 -0.7920
15988SOL    HW250344   6.365   0.473  10.363 -0.1693  1.0813  0.3097
15989SOL     OW50345   6.679   5.623  10.717 -0.6168  0.6165  0.2578
15989SOL    HW150346   6.636   5.697  10.760  0.2658  1.4781 -0.2972
15989SOL    HW250347   6.608   5.561  10.699 -1.6074  1.9021 -0.4648
15990SOL     OW50348   0.472   0.858   3.242 -0.0968 -0.5441  0.3064
15990SOL    HW150349   0.530   0.793   3.203 -1.6984 -0.4507 -2.4071
15990SOL    HW250350   0.395   0.810   3.269  0.0535 -0.2318  1.3577
15991SOL     OW50351   9.388   0.001   0.988 -0.1261  0.5498  0.1050
15991SOL    HW150352   9.393  -0.075   0.931 -1.4822  0.5553 -0.0353
15991SOL    HW250353   9.465  -0.007   1.046 -0.2776 -0.9319  0.1225
15992SOL     OW50354   8.963   7.109   8.580 -0.5036 -0.4207  0.3269
15992SOL    HW150355   8.878   7.146   8.603 -0.2056  0.1800  0.4976
15992SOL    HW250356   8.967   7.027   8.629  0.5538  1.3152  3.5172
15993SOL     OW50357   3.496   4.068   5.832 -0.2836  0.1614 -0.1041
15993SOL    HW150358   3.570   4.032   5.882  0.5927  1.0241 -0.7324
15993SOL    HW250359   3.437   3.994   5.819  1.0761 -0.8622 -0.6602
15994SOL     OW50360   3.226   0.958   3.427  0.0292  0.1260  0.2364
15994SOL    HW150361   3.250   1.046   3.398  2.1838 -0.3498  0.3570
15994SOL    HW250362   3.192   0.970   3.515  0.1088  0.8635  0.1755
15995SOL     OW50363   0.420   5.368   9.201 -0.3842  0.3230  1.0546
15995SOL    HW150364   0.495   5.396   9.253  0.0561  1.1680  0.0097
15995SOL    HW250365   0.417   5.430   9.128  1.3810 -2.9791 -2.1267
15996SOL     OW50366   9.833   5.867   4.849 -0.9613 -0.4845 -0.4631
15996SOL    HW150367   9.899   5.847   4.782 -1.3935 -2.8666 -0.2807
15996SOL    HW250368   9.874   5.933   4.905  0.3328 -0.2004 -1.7052
15997SOL     OW50369   0.420   2.597   8.049  0.2627  0.1089 -0.4970
15997SOL    HW150370   0.466   2.560   7.974 -0.6243 -3.4838  0.5399
15997SOL    HW250371   0.479   2.664   8.083  1.9487 -0.1574 -2.6936
15998SOL     OW50372   5.507   5.308   6.034  0.0186  0.2774  0.6736
15998SOL    HW150373   5.415   5.282   6.039  0.1963 -0.6881 -0.4436
15998SOL    HW250374   5.521   5.327   5.941  0.2033  3.4522  1.2210
15999SOL     OW50375   9.709  10.389   5.935  0.0261 -0.3345 -0.2749
15999SOL    HW150376   9.665  10.333   5.999  0.4301  0.0805  0.3844
15999SOL    HW250377   9.641  10.448   5.903  0.5194  2.2520  2.8407
16000SOL     OW50378   4.465   4.774   6.782  0.0267  0.5574  0.2382
16000SOL    HW150379   4.402   4.833   6.740 -1.0923  0.6963  1.9894
16000SOL    HW250380   4.477   4.811   6.870  1.4509 -0.3061  0.4349
16001SOL     OW50381   6.889   6.561   8.739  0.4377 -0.2238  0.1354
16001SOL    HW150382   6.865   6.584   8.649  0.6057 -0.7289 -0.0421
16001SOL    HW250383   6.944   6.483   8.729  1.3770  0.3555  0.5923
16002SOL     OW50384   2.334   9.344   7.343 -0.2860  0.1181 -0.0336
16002SOL    HW150385   2.428   9.326   7.353  0.4646  3.1216 -0.7290
16002SOL    HW250386   2.292   9.284   7.405  1.8462 -2.9259 -1.2900
16003SOL     OW50387   1.276   3.790   2.364 -0.3619 -0.4263 -0.5863
16003SOL    HW150388   1.273   3.837   2.281 -1.8588  0.5323 -0.0319
16003SOL    HW250389   1.356   3.822   2.406 -0.8815  0.9825 -0.6144
16004SOL     OW50390   5.086   5.287   9.660 -0.3745  0.4894  0.5255
16004SOL    HW150391   5.146   5.299   9.586 -0.2833 -2.8450 -0.1319
16004SOL    HW250392   5.142   5.285   9.737  0.2173 -0.8093  0.0994
16005SOL     OW50393   6.747  10.490   2.236 -0.1265 -0.6859  0.0742
16005SOL    HW150394   6.703  10.490   2.151  0.8418 -1.8247 -0.4500
16005SOL    HW250395   6.840  10.490   2.215  0.3056  3.1947  1.1471
16006SOL     OW50396   8.960  10.739  10.325 -0.1660 -0.3161  0.1711
16006SOL    HW150397   8.879  10.787  10.342  0.0112 -0.2042  0.7209
16006SOL    HW250398   8.988  10.768  10.238 -0.1154  0.4984  0.4559
16007SOL     OW50399   9.149   5.041   0.392  0.5459 -0.3386 -0.4163
16007SOL    HW150400   9.148   5.137   0.391  0.2314 -0.2709  1.6089
16007SOL    HW250401   9.240   5.019   0.412  0.6991 -0.4775 -1.2590
16008SOL     OW50402   3.048   6.548   9.108  0.6439 -0.4524  0.0138
16008SOL    HW150403   3.054   6.539   9.203  0.4739  0.4535  0.1190
16008SOL    HW250404   3.020   6.461   9.077 -1.0414 -0.2956  0.9636
16009SOL     OW50405   7.884   5.823   2.725  0.0989  0.2665  0.3266
16009SOL    HW150406   7.828   5.898   2.703 -1.0786 -0.1563  1.7399
16009SOL    HW250407   7.888   5.772   2.644 -1.0723  0.6367  0.0127
16010SOL     OW50408  10.293   0.984   9.687  0.0161 -0.6997 -0.2411
16010SOL    HW150409  10.326   1.065   9.726  0.4054  0.7456 -3.2917
16010SOL    HW250410  10.200   1.002   9.669  0.2333 -0.6870 -1.4237
16011SOL     OW50411   7.132   5.086   7.085  0.2924  0.3696  0.2157
16011SOL    HW150412   7.173   5.034   7.015  1.3817 -0.0583  1.1367
16011SOL    HW250413   7.040   5.091   7.059  0.3704 -1.0558 -0.4980
16012SOL     OW50414   4.844   0.395   3.075 -0.2649  0.7905 -0.5072
16012SOL    HW150415   4.903   0.404   3.149 -1.0928 -0.8425  0.4040
16012SOL    HW250416   4.773   0.457   3.094 -1.8114 -1.4008  1.5184
16013SOL     OW50417   4.246   2.706   7.618 -0.1689  0.0203  0.1330
16013SOL    HW150418   4.287   2.671   7.696 -0.8038  1.4615  1.1610
16013SOL    HW250419   4.177   2.764   7.650 -1.7045 -0.7597 -1.5143
16014SOL     OW50420   4.911   7.559   9.257  0.1333  0.0338  0.3487
16014SOL    HW150421   4.990   7.521   9.220  0.7567  0.1782  1.4582
16014SOL    HW250422   4.902   7.644   9.213 -0.8794 -1.0352 -1.6330
16015SOL     OW50423   6.124   2.199   7.577 -0.1122 -0.2873 -0.6218
16015SOL    HW150424   6.126   2.122   7.520  2.6903  0.1177 -1.1794
16015SOL    HW250425   6.131   2.273   7.518  0.6790  0.2320  0.0989
16016SOL     OW50426   9.778   2.901  10.192  0.5036 -0.1330 -0.0549
16016SOL    HW150427   9.832   2.827  10.217 -1.5791 -1.8492 -0.3273
16016SOL    HW250428   9.715   2.911  10.264  1.0127  1.7021  0.1917
16017SOL     OW50429   4.651   1.631   3.283 -0.3043  0.4065 -0.1114
16017SOL    HW150430   4.739   1.645   3.249 -0.3258  2.0545  0.3883
16017SOL    HW250431   4.593   1.655   3.211 -0.3578 -0.8368 -0.4947
16018SOL     OW50432   9.961   3.946   2.423  0.5882 -0.5399  0.1052
16018SOL    HW150433  10.003   3.919   2.342 -1.9167 -0.9011 -1.1439
16018SOL    HW250434  10.034   3.967   2.481  2.5833 -3.5654 -1.0374
16019SOL     OW50435   8.092   8.880   3.097 -0.2511  0.1133 -0.1484
16019SOL    HW150436   8.018   8.935   3.124  1.2092  1.0489  2.2979
16019SOL    HW250437   8.156   8.891   3.167  1.8932 -1.3140 -1.7694
16020SOL     OW50438  10.315   0.175   7.040  0.3833 -0.7231 -0.1785
16020SOL    HW150439  10.341   0.225   7.117  0.5694 -0.6908 -0.2607
16020SOL    HW250440  10.235   0.218   7.010  1.7792  1.0645 -1.6327
16021SOL     OW50441   4.143  10.043   5.731  0.1279  0.4514  0.0372
16021SOL    HW150442   4.153   9.957   5.691  1.4747 -0.8380  2.8302
16021SOL    HW250443   4.143  10.104   5.658  0.9918 -1.7777 -1.9490
16022SOL     OW50444   7.462   9.923  10.524  0.5833 -0.5578  0.1456
16022SOL    HW150445   7.467  10.010  10.484 -0.4703 -0.5847 -0.0742
16022SOL    HW250446   7.486   9.864  10.453  1.1054 -0.4539  0.2381
16023SOL     OW50447   8.500   2.403   2.608 -0.8695 -0.5169  0.8285
16023SOL    HW150448   8.580   2.452   2.589 -1.6490  0.7464  0.6884
16023SOL    HW250449   8.526   2.311   2.600 -0.0643 -0.1560 -1.9767
16024SOL     OW50450   2.850   8.748   7.121 -0.2051  0.0775  0.2105
16024SOL    HW150451   2.854   8.712   7.032  0.3962  0.8260 -0.0810
16024SOL    HW250452   2.938   8.734   7.157 -0.4554 -0.2561  0.7067
16025SOL     OW50453   3.270   8.394   2.840  0.3004  0.2418 -0.2523
16025SOL    HW150454   3.177   8.376   2.850 -0.1697  1.6630 -1.6591
16025SOL    HW250455   3.313   8.331   2.898 -1.4690 -1.2197 -0.4409
16026SOL     OW50456   1.960   0.373   0.886  0.6532 -0.0325 -0.0281
16026SOL    HW150457   1.976   0.302   0.824 -0.6687 -0.9340  0.6071
16026SOL    HW250458   2.016   0.352   0.961 -2.2022 -2.4755  1.6590
16027SOL     OW50459   4.801  10.361   2.706  0.4706  0.0318  0.8365
16027SOL    HW150460   4.858  10.302   2.756 -0.4948 -1.5468  0.1544
16027SOL    HW250461   4.720  10.312   2.695  0.6028  0.3078 -2.2354
16028SOL     OW50462   3.215   9.186   4.817 -0.0768  0.4674 -0.0729
16028SOL    HW150463   3.237   9.100   4.851 -1.0965  0.6279  1.0749
16028SOL    HW250464   3.168   9.169   4.736 -0.0841 -0.0560  0.0407
16029SOL     OW50465   4.848   1.495   2.613 -0.3829  0.3325  0.2214
16029SOL    HW150466   4.888   1.430   2.556  3.4417  1.8445  0.8398
16029SOL    HW250467   4.869   1.465   2.702  0.7715  1.8856  0.5327
16030SOL     OW50468   5.325   5.452   0.672 -0.0547 -0.2399 -0.3200
16030SOL    HW150469   5.344   5.490   0.758 -0.3553  0.9632 -0.7649
16030SOL    HW250470   5.337   5.524   0.611 -0.7252 -0.8472 -1.1909
16031SOL     OW50471   5.276   3.196   3.265 -0.0244  0.3282 -0.1322
16031SOL    HW150472   5.273   3.103   3.242  0.8879  0.5481 -1.1874
16031SOL    HW250473   5.187   3.215   3.295  0.1523 -1.2330  1.6065
16032SOL     OW50474   8.785   6.944   3.831  0.4324 -0.5901 -0.4754
16032SOL    HW150475   8.691   6.947   3.849  0.5899  0.2986  0.3084
16032SOL    HW250476   8.806   7.031   3.799  1.5972  0.5249  2.8604
16033SOL     OW50477   9.847   0.696   4.526 -0.4682 -0.4125  0.3148
16033SOL    HW150478   9.835   0.691   4.431  0.5902 -1.9451  0.2286
16033SOL    HW250479   9.859   0.605   4.553  2.1696  0.2084  1.5083
16034SOL     OW50480   0.511   4.590   7.314 -0.5729 -0.3812 -0.1467
16034SOL    HW150481   0.529   4.682   7.335 -0.9145 -0.5234  0.7908
16034SOL    HW250482   0.446   4.563   7.378 -1.2225 -0.9975 -1.0520
16035SOL     OW50483   2.286   7.683   7.913  0.4791  0.0883  1.0829
16035SOL    HW150484   2.283   7.755   7.850  1.2122 -0.7653  0.0334
16035SOL    HW250485   2.378   7.678   7.939  0.3373 -0.1296  1.5520
16036SOL     OW50486   0.940   3.096   0.675  0.4252  0.5466 -0.2163
16036SOL    HW150487   1.033   3.099   0.696  0.9002 -1.3298 -1.6843
16036SOL    HW250488   0.917   3.003   0.679 -0.7982  0.7044 -2.0617
16037SOL     OW50489   3.835   7.308   0.474  0.5739  0.3051 -0.3058
16037SOL    HW150490   3.856   7.401   0.472  2.3869 -0.0120  0.8321
16037SOL    HW250491   3.741   7.304   0.490  0.3176  1.9260 -1.2505
16038SOL     OW50492  10.773   9.639   7.617  0.5086  0.0445  0.3181
16038SOL    HW150493  10.712   9.658   7.545  0.7069  1.1326  0.4104
16038SOL    HW250494  10.736   9.562   7.660 -1.1699  1.0403  0.7679
16039SOL     OW50495  10.450   4.957   7.349 -0.0063  0.2329 -0.3904
16039SOL    HW150496  10.494   5.041   7.357 -1.9526  1.2783  0.0504
16039SOL    HW250497  10.473   4.926   7.262  1.8940  0.4992 -0.0293
16040SOL     OW50498   7.983   9.715   5.872  0.3252 -0.1449 -0.5702
16040SOL    HW150499   7.917   9.723   5.803  0.2568  1.2076 -0.3733
16040SOL    HW250500   8.066   9.733   5.829  0.3488  0.0886 -0.4307
16041SOL     OW50501   2.417   9.867   5.182 -0.0688 -0.0870 -0.2377
16041SOL    HW150502   2.343   9.823   5.139 -1.7514  2.2298  0.1097
16041SOL    HW250503   2.378   9.909   5.259  1.7998  0.4944  0.4271
16042SOL     OW50504   2.897   5.220   4.143  0.0444  0.8061  0.2369
16042SOL    HW150505   2.863   5.201   4.231 -2.5890 -0.6903 -0.9837
16042SOL    HW250506   2.924   5.135   4.109  1.9224  1.5022 -0.1314
16043SOL     OW50507   5.110   2.140   4.249 -0.5549 -0.5701  0.4090
16043SOL    HW150508   5.198   2.102   4.251 -0.3911 -0.3132 -0.9331
16043SOL    HW250509   5.125   2.234   4.259 -0.8639 -0.6930  2.4056
16044SOL     OW50510   9.502   3.080   0.191 -0.4434  0.1238 -0.1455
16044SOL    HW150511   9.478   3.132   0.114 -1.5573 -0.8621 -0.4935
16044SOL    HW250512   9.426   3.024   0.207  0.0425 -0.1861  1.2602
16045SOL     OW50513   5.879   6.444  10.028  0.6749  0.0882  0.0945
16045SOL    HW150514   5.811   6.468   9.966  1.0733  0.1391 -0.3304
16045SOL    HW250515   5.833   6.394  10.096 -0.0084  1.2810  0.5386
16046SOL     OW50516   3.080   6.398   4.844  0.1804 -0.3541  0.2505
16046SOL    HW150517   3.171   6.394   4.873 -0.2255  0.5091  1.7415
16046SOL    HW250518   3.077   6.471   4.782  0.5482 -0.5318  0.0233
16047SOL     OW50519   6.347   8.189   2.024 -0.5490 -0.3448 -0.6873
16047SOL    HW150520   6.362   8.279   1.995 -1.1539  0.4647  1.3429
16047SOL    HW250521   6.261   8.191   2.068 -0.5048 -1.8686 -0.4574
16048SOL     OW50522   0.791   8.599   5.680  0.9118  0.4280  0.8461
16048SOL    HW150523   0.795   8.680   5.631 -2.6194  0.5726  0.5031
16048SOL    HW250524   0.751   8.536   5.620  1.9378 -1.0860  1.6708
16049SOL     OW50525   0.220   0.334   6.689  0.7249 -0.0720  0.1835
16049SOL    HW150526   0.175   0.255   6.717 -1.5620  0.4555 -1.6738
16049SOL    HW250527   0.309   0.306   6.670  0.0013 -2.2005 -0.3217
16050SOL     OW50528   0.008   8.600   8.638 -0.4944  0.3892 -0.1265
16050SOL    HW150529  -0.036   8.673   8.594 -1.2409 -0.4939 -0.8972
16050SOL    HW250530   0.082   8.579   8.580 -0.0951  0.7270  0.2553
16051SOL     OW50531  10.735   1.763   2.386 -0.2600  0.3223 -0.4610
16051SOL    HW150532  10.685   1.834   2.425  2.6191  2.5733 -0.5359
16051SOL    HW250533  10.784   1.725   2.459  0.5451  0.4939 -0.8992
16052SOL     OW50534  10.255   0.360   9.016 -0.0929 -0.7769  0.1457
16052SOL    HW150535  10.326   0.408   8.972  0.5376 -2.1591 -0.4218
16052SOL    HW250536  10.297   0.323   9.094 -0.4534 -0.7625  0.3455
16053SOL     OW50537  10.261   2.592   6.247  0.0164 -0.4723 -0.2012
16053SOL    HW150538  10.185   2.587   6.304 -0.3532 -0.5657 -0.6909
16053SOL    HW250539  10.328   2.541   6.292  0.1209  0.4618  0.7281
16054SOL     OW50540   1.040   2.447   2.974 -0.2490  0.0189 -0.0995
16054SOL    HW150541   1.063   2.453   3.067  1.1421  1.4221 -0.4963
16054SOL    HW250542   1.107   2.390   2.937 -1.5381 -1.6050 -0.0656
16055SOL     OW50543   0.554  10.362   8.554 -0.4772 -0.4204 -0.0101
16055SOL    HW150544   0.496  10.396   8.485 -2.4785 -3.3242  0.0341
16055SOL    HW250545   0.537  10.418   8.630 -0.2189  1.1899 -1.0932
16056SOL     OW50546   0.906   3.329   0.227  0.0055 -0.6615 -0.0495
16056SOL    HW150547   0.994   3.305   0.196  0.4901  0.4651  0.4156
16056SOL    HW250548   0.910   3.317   0.322  0.5083  1.8613  0.3105
16057SOL     OW50549   1.174   9.027   9.888 -0.2896  0.1662 -0.2054
16057SOL    HW150550   1.256   9.040   9.936  0.9314 -0.0143 -2.1497
16057SOL    HW250551   1.169   9.101   9.827 -0.6456 -0.7645 -1.3414
16058SOL     OW50552   9.058   9.023   1.759  0.4777 -0.0657 -0.2188
16058SOL    HW150553   9.111   8.985   1.829 -0.9688 -1.4269  0.1898
16058SOL    HW250554   8.998   8.953   1.733 -0.1866  0.9696 -1.6303
16059SOL     OW50555   3.907   0.606   6.870  0.1709 -0.6533  0.2540
16059SOL    HW150556   3.878   0.695   6.849  0.0123 -0.7027  0.2605
16059SOL    HW250557   3.833   0.567   6.916  0.9220 -0.1626  1.9817
16060SOL     OW50558   0.568   5.259  10.145 -0.0790  0.3138 -0.1374
16060SOL    HW150559   0.557   5.352  10.167  2.3901  0.9386 -1.1621
16060SOL    HW250560   0.500   5.214  10.195 -0.9800  2.6056  0.8405
16061SOL     OW50561   0.362   4.968   0.098  0.0173 -0.9978 -0.4494
16061SOL    HW150562   0.317   5.046   0.131 -0.2907  0.1806 -3.3053
16061SOL    HW250563   0.307   4.938   0.026  1.7489 -1.9335 -1.4462
16062SOL     OW50564   8.692   0.109   6.584 -0.4421 -0.2312  1.2388
16062SOL    HW150565   8.693   0.034   6.526 -0.9984 -1.9456  3.3065
16062SOL    HW250566   8.761   0.091   6.648  1.0822  2.2457  0.4274
16063SOL     OW50567  10.670   4.780   3.808  0.0817  0.6165  0.0217
16063SOL    HW150568  10.673   4.856   3.750  1.1871 -0.1947 -1.0415
16063SOL    HW250569  10.731   4.717   3.768 -0.3772 -0.6065  1.1770
16064SOL     OW50570   3.753   1.516  10.213  0.2580  0.2132 -0.1806
16064SOL    HW150571   3.723   1.501  10.302  0.5902 -0.7556 -0.2310
16064SOL    HW250572   3.720   1.604  10.192  0.1271  0.4287  0.8624
16065SOL     OW50573   8.865   3.783  10.470  0.9442 -0.0940  0.2070
16065SOL    HW150574   8.771   3.780  10.456  1.0924 -0.9957 -0.7087
16065SOL    HW250575   8.900   3.823  10.390  1.5278 -2.1540 -0.6410
16066SOL     OW50576  10.237   8.061   1.417  0.0840  0.1185  0.0813
16066SOL    HW150577  10.318   8.061   1.367  0.3895  0.8576  0.5559
16066SOL    HW250578  10.215   8.153   1.428 -1.9910 -0.0478 -1.8513
16067SOL     OW50579   4.771   2.090   9.548  0.2765 -0.5233  0.2101
16067SOL    HW150580   4.850   2.039   9.566 -0.4032 -1.4276  0.6795
16067SOL    HW250581   4.705   2.025   9.523 -0.2522  0.2476 -0.4597
16068SOL     OW50582   1.489   7.748   1.058 -0.5262 -0.0792  0.0776
16068SOL    HW150583   1.540   7.668   1.065  1.1524  0.9687  0.3385
16068SOL    HW250584   1.416   7.725   0.999  0.7686 -1.3668 -1.0959
16069SOL     OW50585   5.975   2.440   7.018  0.1062 -0.2038 -0.1252
16069SOL    HW150586   5.901   2.390   7.051  0.2427 -0.9289 -0.8689
16069SOL    HW250587   5.970   2.524   7.063 -1.0294 -0.3244 -0.0026
16070SOL     OW50588   4.880   4.699   2.836 -0.2968 -0.3318  0.0979
16070SOL    HW150589   4.901   4.764   2.904 -1.2229 -0.0534  0.1280
16070SOL    HW250590   4.941   4.627   2.852 -1.0989 -0.6730  1.7976
16071SOL     OW50591   8.063   0.863   5.434 -0.7634  0.2536 -0.2489
16071SOL    HW150592   8.050   0.924   5.361  1.0507 -1.8179 -2.5189
16071SOL    HW250593   8.001   0.792   5.416 -1.1588  0.2877  0.9494
16072SOL     OW50594   3.618   2.124   6.242  0.4446 -0.2512  0.1263
16072SOL    HW150595   3.678   2.136   6.315 -0.0148 -0.2558  0.5079
16072SOL    HW250596   3.675   2.114   6.165  0.9219 -0.0613  0.4540
16073SOL     OW50597   7.529  10.699   5.835  0.0245  0.8972  0.4615
16073SOL    HW150598   7.614  10.660   5.858 -0.2659  0.0125  0.0833
16073SOL    HW250599   7.475  10.624   5.809 -1.1935  1.3389  1.6514
16074SOL     OW50600   3.144   0.979   4.828  0.0825 -0.6532  0.5769
16074SOL    HW150601   3.071   1.038   4.849  0.0917  0.1674 -1.4708
16074SOL    HW250602   3.109   0.921   4.760  0.7842 -1.5509  0.9506
16075SOL     OW50603   6.635   3.834   5.503  0.2233  0.7818 -0.2822
16075SOL    HW150604   6.693   3.763   5.529  0.9643  1.9261  1.3710
16075SOL    HW250605   6.549   3.809   5.536  0.3161  0.3244 -0.3770
16076SOL     OW50606   5.164   8.978   8.959  0.2131  0.0475 -0.3096
16076SOL    HW150607   5.195   9.039   8.892 -0.4408  1.6966  0.8042
16076SOL    HW250608   5.190   9.019   9.042  0.0799 -1.4035  0.4812
16077SOL     OW50609   5.558  10.533   3.000  0.3097  0.1132  0.6033
16077SOL    HW150610   5.645  10.507   3.032  0.5150 -0.3512 -0.2930
16077SOL    HW250611   5.563  10.519   2.906 -1.0682 -0.8838  0.6464
16078SOL     OW50612   4.395   4.730   8.420 -0.1314  0.3600  0.4010
16078SOL    HW150613   4.453   4.705   8.348  1.4538 -0.9056  2.0098
16078SOL    HW250614   4.446   4.793   8.471  0.2676 -1.4314  2.3298
16079SOL     OW50615   8.021  10.091   1.552 -0.2159 -0.0131 -0.0896
16079SOL    HW150616   8.092  10.070   1.492 -0.5269  1.9240 -1.2200
16079SOL    HW250617   8.017  10.016   1.612  2.2704 -0.4986 -0.4411
16080SOL     OW50618   5.380   6.941  10.513  0.1636 -0.3302 -0.2959
16080SOL    HW150619   5.306   6.933  10.454  0.4036  0.4910 -0.7187
16080SOL    HW250620   5.398   7.035  10.517  0.0311 -0.3437  1.2288
16081SOL     OW50621   3.592   3.300   3.742  0.0312 -0.5566  0.0818
16081SOL    HW150622   3.601   3.323   3.649 -0.7298 -0.6404 -0.0133
16081SOL    HW250623   3.515   3.347   3.772  1.3776  1.0649  1.1980
16082SOL     OW50624   5.874  10.684   3.933 -0.0472 -0.3872 -0.2375
16082SOL    HW150625   5.806  10.748   3.952 -0.9005 -1.0431 -0.9969
16082SOL    HW250626   5.844  10.603   3.974  0.7548 -0.4510  0.2532
16083SOL     OW50627   1.986   6.678   7.552 -0.6684  1.0924 -0.4503
16083SOL    HW150628   1.998   6.691   7.458 -1.2220  0.4988 -0.6097
16083SOL    HW250629   2.012   6.762   7.591  0.0221  1.1903 -1.0834
16084SOL     OW50630   2.836   1.520   4.803  0.5254 -0.1640  0.3694
16084SOL    HW150631   2.805   1.596   4.853  1.1924  0.6073 -0.3804
16084SOL    HW250632   2.930   1.517   4.819  0.4915 -0.9240  0.4917
16085SOL     OW50633   2.434   6.642   2.754  0.2002 -0.1263  1.0543
16085SOL    HW150634   2.387   6.592   2.688 -2.6280  1.6289  1.5858
16085SOL    HW250635   2.440   6.583   2.829 -0.2604 -0.7167  0.6399
16086SOL     OW50636   5.555   8.144   2.811 -0.1350 -0.1405 -0.6198
16086SOL    HW150637   5.589   8.068   2.858 -1.8469  0.2411  1.4141
16086SOL    HW250638   5.538   8.113   2.723  1.2455 -1.5009 -0.4420
16087SOL     OW50639   7.220   5.406   6.050 -0.4627  0.0061 -0.4131
16087SOL    HW150640   7.132   5.409   6.014 -1.1812  0.5255  1.2721
16087SOL    HW250641   7.221   5.327   6.103  0.0071  0.1188 -0.2489
16088SOL     OW50642   7.095   5.121   3.072  0.3381 -0.0881 -0.1141
16088SOL    HW150643   7.073   5.138   3.163  1.3145  1.0742 -0.0692
16088SOL    HW250644   7.089   5.207   3.029 -0.5547 -0.6895 -1.2529
16089SOL     OW50645   8.677   0.221   8.681 -0.3580  0.0103 -0.2727
16089SOL    HW150646   8.708   0.131   8.675 -0.9189 -0.1888 -0.2563
16089SOL    HW250647   8.611   0.229   8.613  1.0896  1.0131 -1.6402
16090SOL     OW50648   4.000  10.489   8.371  0.0891 -0.5040 -0.1312
16090SOL    HW150649   3.974  10.566   8.421  0.3224  1.0833 -2.3075
16090SOL    HW250650   4.089  10.469   8.400 -0.3563 -0.6403  1.1929
16091SOL     OW50651   2.531   1.911   9.779  0.0546  0.4741  0.4781
16091SOL    HW150652   2.571   1.833   9.817 -0.5347 -0.1770 -0.2147
16091SOL    HW250653   2.497   1.960   9.854  2.0906  1.0389  1.0895
16092SOL     OW50654   3.371   8.547   2.259  0.4201 -0.5903  0.4627
16092SOL    HW150655   3.425   8.509   2.190 -2.6635  0.3907 -2.8059
16092SOL    HW250656   3.399   8.638   2.265  0.5060 -0.6046  0.2708
16093SOL     OW50657   2.271   7.636   5.421 -0.4179  0.2148  0.8238
16093SOL    HW150658   2.276   7.727   5.391 -3.4159  0.7976  1.7572
16093SOL    HW250659   2.338   7.590   5.370 -0.6569  2.4304 -1.7222
16094SOL     OW50660  10.141   1.143   5.595  0.7272  0.3816  0.3633
16094SOL    HW150661  10.124   1.131   5.502 -0.0477  0.8283  0.4405
16094SOL    HW250662  10.155   1.054   5.629  1.1498  0.2302 -0.2021
16095SOL     OW50663   7.044   1.903   6.254  0.6856  0.1450  0.0954
16095SOL    HW150664   7.132   1.882   6.285  0.3760 -1.8938 -0.2898
16095SOL    HW250665   7.004   1.818   6.235 -1.5251  0.9943  0.6640
16096SOL     OW50666   3.853   0.231   6.825  1.1257  0.8124  0.1230
16096SOL    HW150667   3.908   0.238   6.747  0.3084 -1.3166 -0.7067
16096SOL    HW250668   3.765   0.250   6.793  0.8993  0.7676  0.7199
16097SOL     OW50669   5.911   0.244   7.536  0.1695 -0.1813  0.5533
16097SOL    HW150670   5.836   0.283   7.579  0.3465  1.0381 -0.1882
16097SOL    HW250671   5.944   0.312   7.477  0.4143 -1.4922 -0.9140
16098SOL     OW50672   1.094   8.989   4.579 -0.0412  0.0021  0.3171
16098SOL    HW150673   1.101   8.990   4.484  0.7886 -1.9983  0.2957
16098SOL    HW250674   1.074   9.079   4.603 -0.4498  0.5120 -1.7525
16099SOL     OW50675  10.321   5.750   6.353  0.0215 -0.2068 -0.2569
16099SOL    HW150676  10.303   5.830   6.403 -0.9495 -0.3800 -0.3073
16099SOL    HW250677  10.416   5.750   6.341  0.0834  0.6956  0.1506
16100SOL     OW50678   3.297   3.693   8.937 -0.2101  0.2136 -0.5445
16100SOL    HW150679   3.369   3.691   9.000 -1.2340  1.2556  0.7204
16100SOL    HW250680   3.305   3.611   8.889 -0.0703 -1.2058  1.7495
16101SOL     OW50681   6.945   6.090   4.742  0.2138 -0.0208 -0.4216
16101SOL    HW150682   6.935   6.031   4.818  3.1642  0.9191  0.8445
16101SOL    HW250683   6.959   6.176   4.781  2.0408  0.4466 -1.9822
16102SOL     OW50684   6.165   1.708   7.868  0.2879  0.1206  0.0865
16102SOL    HW150685   6.215   1.627   7.859  1.0585  0.2249  2.7066
16102SOL    HW250686   6.219   1.764   7.925 -1.7489  1.1467  1.1138
16103SOL     OW50687   0.675   3.669   2.136  0.2836  0.3404 -0.7608
16103SOL    HW150688   0.760   3.712   2.146 -0.1396  0.8213  1.3614
16103SOL    HW250689   0.695   3.575   2.137  0.7780  0.4490 -0.1015
16104SOL     OW50690   0.218   6.725   8.383  0.1423 -0.0879 -0.3219
16104SOL    HW150691   0.176   6.657   8.331  0.1856  0.3249 -0.8978
16104SOL    HW250692   0.281   6.677   8.438 -0.8253 -0.6749  0.3151
16105SOL     OW50693   6.832   9.277   5.394 -0.0656 -0.1884 -0.0084
16105SOL    HW150694   6.739   9.288   5.409  0.1662  2.0819  0.2165
16105SOL    HW250695   6.874   9.329   5.463  1.4313 -2.4037  0.8493
16106SOL     OW50696   8.632   2.180  10.100 -0.0701  0.3710 -0.2881
16106SOL    HW150697   8.553   2.234  10.109 -0.8163 -0.9255  1.5899
16106SOL    HW250698   8.698   2.224  10.154 -0.3968 -0.0646  0.4819
16107SOL     OW50699   0.806   4.624   9.194  0.2580 -0.1452 -0.1017
16107SOL    HW150700   0.769   4.536   9.183  0.4854 -0.2532 -0.0125
16107SOL    HW250701   0.900   4.609   9.202  0.3501  0.1527 -0.6025
16108SOL     OW50702   1.459   0.132   1.015 -0.6712  0.1557  0.2665
16108SOL    HW150703   1.464   0.138   0.919  0.6509 -0.4608  0.2685
16108SOL    HW250704   1.433   0.042   1.032  1.4497 -0.4641  0.4881
16109SOL     OW50705   7.913   5.116   3.177 -0.4913  0.1506 -0.5193
16109SOL    HW150706   7.864   5.134   3.097 -2.1669  0.1464  0.4596
16109SOL    HW250707   7.962   5.036   3.158 -2.9437 -1.4022 -0.7125
16110SOL     OW50708   3.091   2.764   3.030 -0.2793 -0.0588  0.3293
16110SOL    HW150709   2.998   2.755   3.051 -0.3803 -0.9661 -0.4347
16110SOL    HW250710   3.128   2.811   3.104 -0.9440 -1.5432  1.6571
16111SOL     OW50711   3.605   0.318   9.249 -0.4549  0.4673 -0.1737
16111SOL    HW150712   3.655   0.276   9.318 -0.3118  0.8447 -0.0479
16111SOL    HW250713   3.631   0.272   9.169 -2.3271 -1.5610  0.2775
16112SOL     OW50714   9.352   3.541   3.248 -0.6924  0.0965 -0.0687
16112SOL    HW150715   9.372   3.519   3.339  0.4478 -1.0276 -0.5587
16112SOL    HW250716   9.296   3.469   3.218 -1.8183  0.9192 -0.0319
16113SOL     OW50717   4.757   9.029   2.860 -0.7745  0.1018  0.3204
16113SOL    HW150718   4.833   9.030   2.918  1.2060 -2.3411 -1.9727
16113SOL    HW250719   4.790   9.057   2.775 -2.2872 -1.3892 -0.8420
16114SOL     OW50720   5.221   9.955   4.896 -0.1116 -0.1998  0.3643
16114SOL    HW150721   5.307   9.944   4.937  0.8099 -0.3927 -1.5209
16114SOL    HW250722   5.189   9.866   4.882  0.0454 -0.1738 -0.2146
16115SOL     OW50723   9.538   2.176   8.480 -0.3601 -0.2504  0.2456
16115SOL    HW150724   9.550   2.271   8.481  0.2371 -0.3240  0.7510
16115SOL    HW250725   9.545   2.152   8.387 -2.7739  0.4470 -0.1648
16116SOL     OW50726   7.590   1.422  10.439 -0.2491  0.1058  0.5693
16116SOL    HW150727   7.674   1.413  10.396 -0.8469 -1.5874 -0.3214
16116SOL    HW250728   7.550   1.499  10.399 -0.2111 -0.6301 -0.9578
16117SOL     OW50729   0.808   1.494   8.977  0.0275  0.7269 -0.1981
16117SOL    HW150730   0.837   1.419   9.030  0.8637  0.6553 -0.7223
16117SOL    HW250731   0.740   1.536   9.029 -1.5832 -1.2853 -0.5455
16118SOL     OW50732   7.743   0.910   1.344  0.1514 -0.3822  0.1212
16118SOL    HW150733   7.706   0.987   1.388  2.0468  0.2165  0.7497
16118SOL    HW250734   7.680   0.889   1.275 -1.0682  0.9013  0.7983
16119SOL     OW50735   0.366   6.726   0.967  0.0088  0.4613 -0.2815
16119SOL    HW150736   0.362   6.683   0.882 -0.7222  1.2691 -0.6802
16119SOL    HW250737   0.364   6.820   0.946  0.4366  0.6793  0.5995
16120SOL     OW50738   5.156   9.777   6.107 -1.0263 -0.5218  0.1981
16120SOL    HW150739   5.069   9.811   6.126 -0.9844 -0.2765 -0.0441
16120SOL    HW250740   5.196   9.762   6.193 -1.5788 -1.3534  0.3212
16121SOL     OW50741  10.700   9.535   4.725 -0.4256 -0.1639  0.4535
16121SOL    HW150742  10.696   9.563   4.634  2.5260  1.4140  0.6627
16121SOL    HW250743  10.672   9.612   4.776  0.4846 -0.1001  0.8886
16122SOL     OW50744  10.519   3.264   3.380  0.1773  0.0893  0.0911
16122SOL    HW150745  10.523   3.189   3.440  2.4226 -1.0203 -1.3150
16122SOL    HW250746  10.537   3.227   3.294  1.2929  2.2016 -0.6592
16123SOL     OW50747   1.405  10.537   4.573  0.1875 -0.0512 -0.2333
16123SOL    HW150748   1.439  10.456   4.611 -1.4180 -0.6816 -0.0526
16123SOL    HW250749   1.455  10.607   4.615  0.8955 -0.9065  0.3667
16124SOL     OW50750   9.792   2.118  10.369  0.4495 -0.3954  0.0448
16124SOL    HW150751   9.885   2.140  10.367  0.2462  1.0900  2.6718
16124SOL    HW250752   9.747   2.203  10.370 -1.0785 -1.0635 -2.4645
16125SOL     OW50753   6.969   8.623   0.027  0.4959  0.1752  0.3084
16125SOL    HW150754   6.984   8.708  -0.014 -1.8308 -0.7366 -2.7724
16125SOL    HW250755   7.012   8.560  -0.030 -1.3029 -1.0155  0.1748
16126SOL     OW50756   1.138   9.212   0.890 -0.1057  0.3407  0.2284
16126SOL    HW150757   1.183   9.176   0.813 -0.1469 -0.5717  0.6159
16126SOL    HW250758   1.165   9.155   0.962 -1.1019  0.3763  0.6491
16127SOL     OW50759   5.975   0.157   6.106  0.3028  0.2164  0.3700
16127SOL    HW150760   6.018   0.177   6.189  1.0016  1.1044 -0.1965
16127SOL    HW250761   6.024   0.082   6.071  0.6204  0.4614  0.2926
16128SOL     OW50762   6.950   1.164   8.327 -0.1239 -0.6438 -0.6127
16128SOL    HW150763   6.970   1.071   8.321  1.9329 -0.2802 -0.2381
16128SOL    HW250764   7.011   1.206   8.266 -0.2396  0.5441  0.0518
16129SOL     OW50765   6.041   5.494   4.615 -0.1020  0.0502 -0.4872
16129SOL    HW150766   5.965   5.549   4.635 -0.4409 -0.4442 -0.3868
16129SOL    HW250767   6.012   5.405   4.637  0.3672 -0.1932 -0.8407
16130SOL     OW50768   0.002   4.621   0.697 -0.4291  0.0161  0.0121
16130SOL    HW150769  -0.088   4.594   0.682 -0.7240  1.3948 -0.8332
16130SOL    HW250770   0.055   4.557   0.649 -1.0119 -0.0519 -0.5394
16131SOL     OW50771   8.654   0.314   3.855  0.8228  0.0405  0.7519
16131SOL    HW150772   8.650   0.248   3.924  0.6502 -1.7663 -0.8934
16131SOL    HW250773   8.748   0.324   3.838  1.0531  2.4214  2.9172
16132SOL     OW50774   0.463   0.762   2.684 -0.4856  0.6300  0.3714
16132SOL    HW150775   0.377   0.721   2.680  0.7356 -2.0445 -1.1024
16132SOL    HW250776   0.524   0.689   2.698  1.6003  2.3713  0.9318
16133SOL     OW50777   3.632   3.729   7.335  0.3287  0.2500 -0.1477
16133SOL    HW150778   3.727   3.745   7.330  0.5090 -1.0614 -2.5129
16133SOL    HW250779   3.622   3.672   7.410  1.5850 -0.4147 -0.4488
16134SOL     OW50780   6.649   2.096   1.469 -0.0168 -0.2475  0.3334
16134SOL    HW150781   6.744   2.084   1.469  0.1297  0.8181 -0.1294
16134SOL    HW250782   6.614   2.010   1.492  1.1177 -0.2182  2.4152
16135SOL     OW50783   8.036   6.282   8.581  0.3291  0.0325 -0.4524
16135SOL    HW150784   8.059   6.254   8.492 -0.8636  0.4523 -0.9209
16135SOL    HW250785   7.953   6.329   8.570 -0.7314 -1.3412  1.0818
16136SOL     OW50786   6.442   1.616   7.447 -0.1187  0.6559 -0.8030
16136SOL    HW150787   6.359   1.572   7.429  0.6613 -1.1145 -0.2814
16136SOL    HW250788   6.468   1.586   7.534 -0.2013  3.2914  0.2256
16137SOL     OW50789   5.295   1.485   8.342  0.4136  0.6445 -0.0942
16137SOL    HW150790   5.302   1.394   8.372  0.3982  0.8967  0.6849
16137SOL    HW250791   5.298   1.537   8.422  1.5231  1.4033 -0.6128
16138SOL     OW50792   2.992   6.333   6.744 -0.1519  0.1822 -0.3599
16138SOL    HW150793   2.924   6.332   6.811  0.6648 -1.9478  0.5235
16138SOL    HW250794   2.963   6.268   6.680 -0.4809  1.5644 -1.6711
16139SOL     OW50795   2.740   4.282   6.020 -0.3358 -0.0448  0.5543
16139SOL    HW150796   2.725   4.375   6.035 -2.0771 -0.1587 -0.2496
16139SOL    HW250797   2.821   4.278   5.970 -0.4532  1.0590  0.2674
16140SOL     OW50798   7.821   5.026   9.045  0.2527  0.0104  0.2135
16140SOL    HW150799   7.841   5.026   9.138 -0.1008 -0.6976  0.2979
16140SOL    HW250800   7.855   4.941   9.014 -2.2686 -1.1169  0.2979
16141SOL     OW50801   0.300   5.518   2.208 -0.0470 -0.4470 -0.4109
16141SOL    HW150802   0.321   5.504   2.116  2.0728  0.4317 -0.1096
16141SOL    HW250803   0.293   5.613   2.217  1.1888 -0.4256  0.5873
16142SOL     OW50804   3.633   3.909   1.082  0.5945 -0.7389 -0.2189
16142SOL    HW150805   3.631   3.946   0.994  0.3296 -0.7733 -0.2280
16142SOL    HW250806   3.725   3.887   1.097  1.4424  2.8269  0.9739
16143SOL     OW50807   9.905   3.997  10.169  0.1765 -0.1633  0.3490
16143SOL    HW150808   9.966   4.071  10.162  1.6206 -1.4205 -1.1268
16143SOL    HW250809   9.939   3.945  10.242 -0.7836  0.5209  1.3244
16144SOL     OW50810   2.791   8.569   6.747  0.3483  0.0346 -0.4340
16144SOL    HW150811   2.734   8.636   6.710 -0.9698 -1.6576 -1.5940
16144SOL    HW250812   2.737   8.522   6.811  0.9001 -0.6403 -0.4373
16145SOL     OW50813   0.724   5.125   6.463  0.5052  0.4611 -0.1635
16145SOL    HW150814   0.776   5.202   6.487  1.0583 -0.4108  1.6329
16145SOL    HW250815   0.784   5.051   6.472 -0.7043 -0.4577  0.8430
16146SOL     OW50816   7.568   2.066   4.756  0.0654 -0.6068 -0.2653
16146SOL    HW150817   7.587   2.054   4.663 -0.9841 -2.3273 -0.3012
16146SOL    HW250818   7.477   2.038   4.766  0.5708 -1.7528  1.4992
16147SOL     OW50819   0.289   5.082   9.199 -0.0180  0.1682 -0.1898
16147SOL    HW150820   0.350   5.019   9.160 -1.5266 -1.2098 -0.4294
16147SOL    HW250821   0.343   5.158   9.219  1.2480  0.1367 -3.0127
16148SOL     OW50822   8.726  10.049   7.018  0.2985  0.2726  0.7020
16148SOL    HW150823   8.676  10.016   7.093 -1.3300  2.2145  0.5349
16148SOL    HW250824   8.809  10.078   7.056 -0.6513  1.5923  1.8526
16149SOL     OW50825   8.556   5.443   9.643  0.1525 -0.3201  0.1328
16149SOL    HW150826   8.495   5.454   9.570  0.5652  1.1452 -0.0029
16149SOL    HW250827   8.643   5.448   9.603  0.3773 -0.1369  0.6350
16150SOL     OW50828   5.657   2.363   9.317  0.0934  0.2762 -0.2090
16150SOL    HW150829   5.665   2.291   9.380 -0.4166  0.8026  0.4677
16150SOL    HW250830   5.587   2.335   9.258  0.8283 -0.3859 -0.7853
16151SOL     OW50831   3.422   4.678   1.221 -0.0772  0.0371  0.4387
16151SOL    HW150832   3.454   4.766   1.239  0.6568 -0.2477  0.5485
16151SOL    HW250833   3.497   4.621   1.237 -0.6229 -0.6394  0.6413
16152SOL     OW50834   9.177   5.840   2.800 -0.0660  0.1275  0.1154
16152SOL    HW150835   9.264   5.879   2.810 -0.0852  0.6132 -1.3901
16152SOL    HW250836   9.182   5.788   2.720 -0.9146 -0.5600  0.4865
16153SOL     OW50837  10.355   8.314  10.500  0.0526 -0.3252 -0.4149
16153SOL    HW150838  10.427   8.349  10.553  1.6004  1.2797 -3.2750
16153SOL    HW250839  10.293   8.387  10.493 -0.7201 -0.9184  0.1026
16154SOL     OW50840   7.550   6.159   1.846  0.4484 -0.3679 -0.3107
16154SOL    HW150841   7.608   6.227   1.879 -0.7308  0.7343 -0.4011
16154SOL    HW250842   7.529   6.106   1.923  0.4101  0.1302  0.0313
16155SOL     OW50843   5.040   5.339   9.175 -0.3258 -0.4653  0.2066
16155SOL    HW150844   5.091   5.359   9.254 -0.7949 -0.2432  0.4532
16155SOL    HW250845   4.950   5.330   9.206 -0.5640 -0.0369 -0.3571
16156SOL     OW50846   2.356   6.175   8.273 -0.0180  0.2386 -0.1636
16156SOL    HW150847   2.430   6.152   8.217  0.5850  0.3916  0.5648
16156SOL    HW250848   2.339   6.096   8.325  0.0970  0.4386  0.1794
16157SOL     OW50849  10.440   2.176   8.074 -0.3270  0.7632 -0.0992
16157SOL    HW150850  10.530   2.204   8.091 -0.0110 -0.3935  0.2241
16157SOL    HW250851  10.427   2.099   8.129 -1.5315  0.9225 -0.1221
16158SOL     OW50852   0.615   9.316   4.902 -0.2685 -0.4361 -0.0098
16158SOL    HW150853   0.606   9.265   4.822  0.2228  1.8339 -1.6037
16158SOL    HW250854   0.605   9.407   4.874  1.9294  0.5961  2.1652
16159SOL     OW50855   0.163   2.932   7.882 -0.5020 -0.5936 -0.2077
16159SOL    HW150856   0.247   2.965   7.912 -0.2109 -1.0800 -0.4732
16159SOL    HW250857   0.145   2.979   7.801 -0.9216  0.1626  0.3094
16160SOL     OW50858   6.720   4.603   2.086  1.0140 -0.1540 -0.3759
16160SOL    HW150859   6.627   4.612   2.107  1.3901  1.2385  0.8128
16160SOL    HW250860   6.721   4.550   2.006 -0.6559 -3.0866  1.3348
16161SOL     OW50861   6.404   9.579   1.318 -1.3476 -0.0544  0.5323
16161SOL    HW150862   6.349   9.644   1.361 -0.6365  1.0813 -0.2223
16161SOL    HW250863   6.484   9.578   1.370  0.0596  2.2900 -1.3549
16162SOL     OW50864   5.868   5.178   6.579 -0.1407  0.0033  0.4594
16162SOL    HW150865   5.958   5.185   6.546 -0.2941 -0.1852 -0.0067
16162SOL    HW250866   5.857   5.085   6.597 -0.5946 -0.1382 -0.5018
16163SOL     OW50867   5.494   3.360   4.912 -0.4674 -0.3048  0.8729
16163SOL    HW150868   5.549   3.299   4.961 -0.4950  0.5567  2.0087
16163SOL    HW250869   5.533   3.445   4.928 -0.4738  0.0061 -0.6367
16164SOL     OW50870  10.234   6.622   7.135 -0.4754 -0.5830  0.0062
16164SOL    HW150871  10.223   6.657   7.224  0.8594  0.8318 -0.3443
16164SOL    HW250872  10.305   6.558   7.144 -0.2297 -0.3228 -0.0580
16165SOL     OW50873   4.017   0.502  10.054 -0.0087 -0.2941 -0.1428
16165SOL    HW150874   3.958   0.494   9.979  0.2669 -0.8810 -0.3064
16165SOL    HW250875   3.963   0.540  10.123 -0.5192 -0.6190 -0.3544
16166SOL     OW50876   4.884   5.973   6.647 -0.3169 -0.4120  0.2709
16166SOL    HW150877   4.912   6.063   6.658 -3.1246  0.3009  3.1235
16166SOL    HW250878   4.955   5.920   6.683 -0.2282  0.9249  2.1432
16167SOL     OW50879   3.747   2.404   7.569  0.2786 -0.2742 -0.2230
16167SOL    HW150880   3.669   2.427   7.619  0.3427  0.3209 -0.3835
16167SOL    HW250881   3.715   2.383   7.481  0.2894 -0.1090 -0.2670
16168SOL     OW50882   0.419   7.933   0.475 -0.5370  0.2365  0.6386
16168SOL    HW150883   0.330   7.939   0.511 -1.4914  3.6463 -1.6918
16168SOL    HW250884   0.473   7.981   0.537 -0.5968 -0.5368  1.3035
16169SOL     OW50885   7.057   2.510   6.744 -0.1195 -0.2822 -0.1754
16169SOL    HW150886   6.988   2.561   6.701 -0.3058 -0.1716  0.2488
16169SOL    HW250887   7.016   2.425   6.761 -0.9725  0.5296  2.2254
16170SOL     OW50888  10.211   9.211   2.915 -0.4837  0.2071  0.6208
16170SOL    HW150889  10.166   9.296   2.921 -1.4489 -0.2093 -0.4343
16170SOL    HW250890  10.185   9.164   2.994 -0.0523  0.8189  1.1466
16171SOL     OW50891   2.871   4.003   0.670 -0.0107 -0.4478  0.4580
16171SOL    HW150892   2.824   4.081   0.700 -0.1802 -1.1019  1.9963
16171SOL    HW250893   2.944   4.038   0.619 -0.1656  0.7240  0.9961
16172SOL     OW50894   0.992   7.274   6.060 -0.5204 -0.3170  0.2494
16172SOL    HW150895   0.896   7.281   6.051 -0.6049 -0.0168  1.2677
16172SOL    HW250896   1.013   7.329   6.135  0.4597 -0.4176  0.0627
16173SOL     OW50897   5.370   8.693   7.279 -0.1490 -0.3797 -0.1209
16173SOL    HW150898   5.388   8.786   7.266 -0.8375 -0.2493 -0.2191
16173SOL    HW250899   5.387   8.653   7.194  1.4801 -0.5811  0.2765
16174SOL     OW50900   6.583   1.215   9.695  0.2480 -0.4989 -0.2834
16174SOL    HW150901   6.676   1.198   9.682  1.3523  2.2053  2.7549
16174SOL    HW250902   6.554   1.252   9.611  2.2414 -0.1837 -0.8851
16175SOL     OW50903   7.508   5.528   7.010  0.0627 -0.0005 -0.0272
16175SOL    HW150904   7.460   5.609   6.992  0.8478 -0.0582 -2.7033
16175SOL    HW250905   7.583   5.556   7.063 -0.6796  0.7001  0.6845
16176SOL     OW50906   1.154   5.587   1.688 -0.1505  0.2623 -0.4534
16176SOL    HW150907   1.144   5.528   1.613  1.5840  2.8877 -2.9718
16176SOL    HW250908   1.133   5.673   1.653  0.8748  1.6369  2.0660
16177SOL     OW50909   5.181   3.217   1.300 -0.1159 -0.1313  0.0242
16177SOL    HW150910   5.102   3.175   1.334  0.9586 -0.8600  1.8075
16177SOL    HW250911   5.197   3.290   1.360  1.9457 -1.5562  1.3562
16178SOL     OW50912   1.927   2.679   4.876  0.7496  0.9414  0.2830
16178SOL    HW150913   1.981   2.726   4.813  0.8710 -0.3385 -0.6045
16178SOL    HW250914   1.847   2.656   4.827  0.7704  0.0869  0.6248
16179SOL     OW50915   7.299   3.570   2.348 -0.3151  0.1306  0.2830
16179SOL    HW150916   7.304   3.633   2.419 -1.7636  1.7501 -0.9772
16179SOL    HW250917   7.386   3.571   2.308 -0.1303  0.8048  0.6997
16180SOL     OW50918  10.443   1.299   9.225 -0.5321 -0.5247  0.8392
16180SOL    HW150919  10.518   1.264   9.178 -1.2810 -0.0005 -0.8327
16180SOL    HW250920  10.422   1.381   9.181 -1.4110 -0.1016  1.9723
16181SOL     OW50921   0.269   5.661   5.234 -0.5413 -1.1652 -0.1235
16181SOL    HW150922   0.218   5.584   5.209 -1.7909 -0.9625  1.7023
16181SOL    HW250923   0.256   5.723   5.162 -1.9237 -1.5646 -0.2378
16182SOL     OW50924   2.715   3.894   4.600 -1.0338  0.0825  0.1793
16182SOL    HW150925   2.657   3.843   4.543 -0.3068 -0.8874  0.2704
16182SOL    HW250926   2.786   3.833   4.623 -1.0209  0.6063  1.6848
16183SOL     OW50927   5.553   0.988   4.267 -0.1120 -0.3862  0.4382
16183SOL    HW150928   5.530   1.064   4.320  1.7827  0.3175  0.3217
16183SOL    HW250929   5.495   0.992   4.191 -0.6996  0.3828  0.9193
16184SOL     OW50930   9.774  10.246   7.133  0.4838  0.1233 -0.7288
16184SOL    HW150931   9.758  10.332   7.172  0.3499 -0.0814 -0.3293
16184SOL    HW250932   9.700  10.193   7.161 -0.5137  0.4270 -2.6705
16185SOL     OW50933   2.570   5.822   4.125 -0.4399  0.3070 -0.1111
16185SOL    HW150934   2.517   5.898   4.100 -0.3032  0.1217 -0.9951
16185SOL    HW250935   2.645   5.859   4.171  1.6700  1.1519 -3.7741
16186SOL     OW50936   5.188   5.846   3.793 -0.3583  0.2372  0.0203
16186SOL    HW150937   5.129   5.868   3.721 -0.4396  0.4880  0.1613
16186SOL    HW250938   5.203   5.929   3.838 -1.7135 -0.1730  1.3310
16187SOL     OW50939   5.037   3.107   0.779  0.2078  0.5947 -0.2200
16187SOL    HW150940   5.104   3.104   0.847  1.2115 -3.3510 -1.1777
16187SOL    HW250941   4.955   3.117   0.828  1.0429 -0.3220  1.4500
16188SOL     OW50942   1.601   5.681   2.555 -0.4323  0.3162  0.3355
16188SOL    HW150943   1.586   5.668   2.461  0.0692 -0.5539  0.3679
16188SOL    HW250944   1.690   5.650   2.570  0.1317  2.0339  0.8079
16189SOL     OW50945   2.309   9.928   2.500  0.3425 -0.0844  0.0037
16189SOL    HW150946   2.251   9.897   2.431 -0.1316  1.0133 -0.1092
16189SOL    HW250947   2.282   9.879   2.578 -0.9056  0.5750  0.0099
16190SOL     OW50948   3.530   9.783   4.836  0.6946  0.1481 -0.1846
16190SOL    HW150949   3.546   9.875   4.814 -0.9814  1.0340  1.9783
16190SOL    HW250950   3.462   9.755   4.775  1.3045  0.2761 -0.9416
16191SOL     OW50951   1.130   8.881  10.756 -0.2187  0.1377  0.3064
16191SOL    HW150952   1.042   8.885  10.718 -1.1526  0.7537  2.4137
16191SOL    HW250953   1.178   8.951  10.711 -1.3890  1.0928  0.4979
16192SOL     OW50954   2.623   0.615   5.030  0.1727  0.3556  0.1219
16192SOL    HW150955   2.532   0.592   5.048  0.5535 -0.8211  0.7097
16192SOL    HW250956   2.672   0.535   5.051  1.2947  0.8308 -0.5842
16193SOL     OW50957   4.153   5.927   3.863 -0.0937 -0.0791  0.0969
16193SOL    HW150958   4.086   5.953   3.799 -1.2925  0.2542  1.4273
16193SOL    HW250959   4.119   5.847   3.902  0.2537  0.1164  0.8152
16194SOL     OW50960   9.776   9.640   3.559  0.1157 -0.0158 -0.2809
16194SOL    HW150961   9.868   9.645   3.532  0.0731  1.3833 -0.2103
16194SOL    HW250962   9.728   9.682   3.488 -0.5934 -1.5075 -0.7385
16195SOL     OW50963   4.186   6.943   5.306 -0.4699  0.0456 -0.0465
16195SOL    HW150964   4.277   6.971   5.295 -0.7441  0.4708 -1.5064
16195SOL    HW250965   4.163   6.904   5.221 -1.1892 -1.4518  0.8050
16196SOL     OW50966   2.585   1.442   3.465 -0.4569  0.2384  0.5440
16196SOL    HW150967   2.636   1.409   3.539 -0.0049  0.5168  0.3625
16196SOL    HW250968   2.548   1.364   3.424 -0.7100  0.0823  1.0611
16197SOL     OW50969   5.228   8.820   8.042  0.3623 -0.7802 -0.7087
16197SOL    HW150970   5.191   8.767   8.112  1.5850  0.5542  1.0672
16197SOL    HW250971   5.156   8.877   8.014 -0.4090 -1.9930 -1.2713
16198SOL     OW50972   7.030   7.397   8.438 -0.2600  0.0889 -0.6923
16198SOL    HW150973   6.952   7.374   8.389 -0.5165  0.1722 -0.3283
16198SOL    HW250974   7.017   7.489   8.463 -0.5294 -0.1905  0.2507
16199SOL     OW50975   0.754   7.835   2.331 -0.0444  0.0311 -0.5300
16199SOL    HW150976   0.669   7.848   2.289  0.0495 -1.5992 -1.2975
16199SOL    HW250977   0.755   7.898   2.403 -0.9515  1.6766 -1.8752
16200SOL     OW50978   0.487   6.657   9.457 -0.6475 -0.1365  0.0308
16200SOL    HW150979   0.557   6.658   9.393  0.6363  0.9367  1.3943
16200SOL    HW250980   0.407   6.660   9.404  0.3295 -0.2392 -1.5285
16201SOL     OW50981   8.534   6.089   8.516 -0.5821  0.2175  0.1855
16201SOL    HW150982   8.580   6.173   8.520  0.6423 -0.3872 -0.6113
16201SOL    HW250983   8.544   6.052   8.604  0.1143  0.2768  0.1362
16202SOL     OW50984   5.294   6.549   3.338 -0.2000  0.1599  0.1362
16202SOL    HW150985   5.340   6.465   3.336  0.6861  0.6234 -2.0496
16202SOL    HW250986   5.223   6.538   3.274  0.5644  1.3863 -0.9491
16203SOL     OW50987   0.806   3.262   6.787 -0.5982  0.2545 -0.1539
16203SOL    HW150988   0.722   3.241   6.746 -1.2446 -1.5046  1.8587
16203SOL    HW250989   0.869   3.205   6.743 -0.8068  0.2528 -0.4480
16204SOL     OW50990   7.977   0.913   6.140  0.3838  0.0378 -0.1118
16204SOL    HW150991   8.040   0.893   6.209  0.1034  0.8901  0.3972
16204SOL    HW250992   7.919   0.837   6.139  0.2076  0.1514  0.8029
16205SOL     OW50993   2.182   1.188   6.082  0.3406  0.0754 -0.1069
16205SOL    HW150994   2.259   1.232   6.046  0.3100  0.4673  0.2986
16205SOL    HW250995   2.128   1.170   6.005  2.3475 -3.3970 -0.9280
16206SOL     OW50996   8.260   6.916   4.111  0.0695  0.1003 -0.2097
16206SOL    HW150997   8.226   7.006   4.109  2.4403  1.0767 -1.0283
16206SOL    HW250998   8.235   6.882   4.197 -1.5235  1.2480 -0.1747
16207SOL     OW50999   9.598   3.808   0.585  0.0809 -0.0309  0.0719
16207SOL    HW151000   9.595   3.785   0.678 -0.0113 -3.0392 -0.5739
16207SOL    HW251001   9.691   3.807   0.563  0.2398  2.1937  0.3716
16208SOL     OW51002   4.650   3.428   0.808  0.5066  0.3170 -0.0358
16208SOL    HW151003   4.681   3.477   0.732  1.6071  0.1846  0.3213
16208SOL    HW251004   4.659   3.336   0.783 -1.7286  0.2335 -0.7779
16209SOL     OW51005   1.614  10.416   3.962  0.3031 -0.3666 -0.5517
16209SOL    HW151006   1.611  10.343   4.024  0.1943 -0.4881 -0.7017
16209SOL    HW251007   1.546  10.397   3.898 -0.8348  0.6599  0.3031
16210SOL     OW51008   5.642   8.538   1.046  0.7256 -0.8010  0.0961
16210SOL    HW151009   5.574   8.595   1.010  1.5608  0.7532  0.8842
16210SOL    HW251010   5.708   8.532   0.977  0.8169 -0.4939  0.1575
16211SOL     OW51011   2.244   3.427   9.760 -0.0133  0.2088 -0.3373
16211SOL    HW151012   2.225   3.469   9.676  1.3094  2.0344  0.2060
16211SOL    HW251013   2.338   3.438   9.771 -0.0999 -0.3891  1.1900
16212SOL     OW51014   9.994   2.204   7.419 -0.3590 -0.3428  0.1535
16212SOL    HW151015  10.077   2.203   7.466  0.3515  0.5338 -1.0181
16212SOL    HW251016   9.986   2.116   7.382  0.5844 -0.1347 -0.5853
16213SOL     OW51017   6.586   0.388   5.021  0.7925 -0.3457 -0.3317
16213SOL    HW151018   6.598   0.462   4.961 -0.0208 -0.6505 -0.8855
16213SOL    HW251019   6.593   0.310   4.965 -2.7365 -0.6065 -0.6209
16214SOL     OW51020   4.624   7.119   8.063 -0.1685 -0.6657 -0.2433
16214SOL    HW151021   4.551   7.178   8.079  0.6267  0.4954 -0.7512
16214SOL    HW251022   4.639   7.124   7.969  1.4006  0.1750  0.0164
16215SOL     OW51023  10.104   8.901   7.473 -0.1069  0.3287 -0.4535
16215SOL    HW151024  10.112   8.975   7.534 -2.0116  1.8390 -1.9232
16215SOL    HW251025  10.171   8.918   7.406 -1.1425  1.2689 -1.2805
16216SOL     OW51026   3.443   9.250   7.827  0.0277 -0.5336 -0.1124
16216SOL    HW151027   3.456   9.321   7.765  0.6735 -0.5589 -0.0138
16216SOL    HW251028   3.524   9.246   7.877 -1.0702  0.6257  1.9099
16217SOL     OW51029   8.116   6.942   5.427  0.1230 -0.0780  0.3173
16217SOL    HW151030   8.048   7.009   5.424  0.8597  0.6726 -1.0996
16217SOL    HW251031   8.164   6.954   5.344  1.3558 -1.2113  0.8351
16218SOL     OW51032   2.251   9.966   7.958  0.5573 -0.2858  0.2299
16218SOL    HW151033   2.252   9.986   7.864 -0.9587 -1.8032 -0.1456
16218SOL    HW251034   2.220  10.047   7.999  2.1589  0.7113 -0.4541
16219SOL     OW51035   1.425   6.675   3.331  0.5464  0.1979 -0.1449
16219SOL    HW151036   1.354   6.709   3.275  0.9958  1.3098 -0.0730
16219SOL    HW251037   1.414   6.722   3.414  1.5867  0.6804 -0.2614
16220SOL     OW51038   0.744   5.261   5.439 -0.6841  0.0441  0.4520
16220SOL    HW151039   0.835   5.252   5.466  0.4307  1.8989 -2.2625
16220SOL    HW251040   0.724   5.354   5.454 -1.4942  0.0686 -0.7059
16221SOL     OW51041   0.099   3.960   6.897  0.3792 -0.2462 -0.7068
16221SOL    HW151042   0.006   3.979   6.910  0.4027  1.3311 -2.4729
16221SOL    HW251043   0.099   3.887   6.835  0.3443 -1.6221  0.8576
16222SOL     OW51044   7.359   6.893   5.905 -0.4953  0.2214  0.0219
16222SOL    HW151045   7.404   6.948   5.840 -0.0959  0.9435  0.8825
16222SOL    HW251046   7.303   6.836   5.853 -1.4339  1.8923 -0.8958
16223SOL     OW51047   2.706   2.442   4.684 -0.2583 -0.0592  0.1144
16223SOL    HW151048   2.698   2.526   4.638 -1.6181 -0.1846  0.0971
16223SOL    HW251049   2.625   2.396   4.665 -0.4351 -0.5223  1.8418
16224SOL     OW51050   2.790   4.410   7.895  0.0398  0.0414  0.1495
16224SOL    HW151051   2.878   4.413   7.856 -0.3479  2.9796 -0.7999
16224SOL    HW251052   2.735   4.370   7.828  0.3670 -0.2067  0.0301
16225SOL     OW51053   5.766   5.924   2.695 -0.0551 -0.2172 -0.2663
16225SOL    HW151054   5.729   5.968   2.618  0.4316 -1.3406 -1.1596
16225SOL    HW251055   5.711   5.847   2.708  0.4903 -0.5802 -0.1042
16226SOL     OW51056   9.806   7.841   7.357  0.0273  0.2047 -0.4454
16226SOL    HW151057   9.848   7.908   7.411 -0.8701  0.1844  0.3042
16226SOL    HW251058   9.806   7.878   7.269 -0.6422  1.3008 -0.0045
16227SOL     OW51059   0.897   8.338  10.223 -0.8535  0.0497 -0.3556
16227SOL    HW151060   0.841   8.374  10.293 -0.2675  0.0810  0.0990
16227SOL    HW251061   0.901   8.409  10.158 -1.3601  0.0382 -0.4101
16228SOL     OW51062   9.846   1.366   9.216 -0.3305  0.5160  0.0063
16228SOL    HW151063   9.925   1.351   9.267  0.2457  2.9753 -0.0269
16228SOL    HW251064   9.879   1.386   9.128 -1.0901  0.1403 -0.3693
16229SOL     OW51065   6.939   6.303   9.100 -0.4751  0.7033  0.7387
16229SOL    HW151066   6.952   6.392   9.069  2.1354  0.4771  1.0107
16229SOL    HW251067   6.869   6.310   9.165 -1.5185  2.2192 -0.4943
16230SOL     OW51068   4.050  10.609   3.052  0.3542  0.1579  0.0614
16230SOL    HW151069   4.088  10.529   3.091  0.7836  1.0335  1.5253
16230SOL    HW251070   3.957  10.590   3.044  0.5422 -0.7157 -0.1932
16231SOL     OW51071   4.353   0.664  10.774 -0.2408  0.0573 -0.2039
16231SOL    HW151072   4.270   0.664  10.820 -0.7105  2.7078 -0.8930
16231SOL    HW251073   4.363   0.574  10.742 -2.5299 -0.4542  0.3878
16232SOL     OW51074   9.102   8.336   3.113  0.3274  0.5866  0.0785
16232SOL    HW151075   9.089   8.254   3.064  2.0877  0.6094 -0.4931
16232SOL    HW251076   9.062   8.319   3.198 -0.5167 -0.3795 -0.4702
16233SOL     OW51077   6.185  10.436   7.302 -0.0043  0.7333 -0.5258
16233SOL    HW151078   6.161  10.404   7.216 -1.6853 -0.5338  0.3589
16233SOL    HW251079   6.159  10.528   7.302  1.0329  1.0459 -1.7078
16234SOL     OW51080  10.324  10.560   8.083 -0.1250  0.3547 -0.0229
16234SOL    HW151081  10.371  10.594   8.159 -0.2569  0.9495 -0.1992
16234SOL    HW251082  10.373  10.592   8.008 -0.6214  0.7248 -0.2024
16235SOL     OW51083  10.695   0.128   9.177  0.1955  0.0511  0.2902
16235SOL    HW151084  10.640   0.062   9.220 -2.5852  2.2257  0.3763
16235SOL    HW251085  10.764   0.078   9.134 -1.1669 -2.7951  1.1669
16236SOL     OW51086   3.732   0.241   4.263  0.2633  0.3571 -0.3047
16236SOL    HW151087   3.678   0.319   4.277 -0.0642  0.7761 -3.2050
16236SOL    HW251088   3.820   0.276   4.248  0.0040  0.3088 -2.2210
16237SOL     OW51089   3.116   3.650   2.789  0.2130 -0.4957 -0.1205
16237SOL    HW151090   3.145   3.738   2.813 -0.8164 -0.3218  0.5622
16237SOL    HW251091   3.197   3.601   2.775  0.8728 -0.1160  2.0030
16238SOL     OW51092   2.960   7.706   8.344 -0.2028  0.0492 -0.4668
16238SOL    HW151093   2.978   7.625   8.393  0.4119 -0.3963 -1.3870
16238SOL    HW251094   3.031   7.765   8.370 -0.4784  0.1898 -0.0241
16239SOL     OW51095   5.690  10.294   4.537  0.3346 -0.0733  0.0297
16239SOL    HW151096   5.687  10.205   4.501  0.9603  0.3839 -1.2014
16239SOL    HW251097   5.674  10.351   4.462  2.0102  0.9262  0.3738
16240SOL     OW51098   4.868   2.079   6.907  0.4720 -0.0849 -0.5137
16240SOL    HW151099   4.882   2.037   6.822  0.7218  0.5228 -0.7832
16240SOL    HW251100   4.868   2.007   6.970  0.2399 -0.5456 -1.0355
16241SOL     OW51101   1.516   0.745   3.075  0.6551  0.5904  0.0542
16241SOL    HW151102   1.483   0.765   2.987  0.7972  0.1188 -0.1089
16241SOL    HW251103   1.578   0.815   3.093 -0.8758  1.8712  0.6317
16242SOL     OW51104   8.518   6.258   9.103  0.4230 -0.0177 -0.1924
16242SOL    HW151105   8.592   6.315   9.083  0.1369  0.2008 -0.6586
16242SOL    HW251106   8.554   6.190   9.159  1.0456 -0.0944 -0.6706
16243SOL     OW51107   3.432   0.253   5.638 -0.2745  0.0532  0.3260
16243SOL    HW151108   3.486   0.330   5.652  2.0645 -1.2379 -0.9395
16243SOL    HW251109   3.354   0.285   5.593  0.6604  1.6744 -0.2139
16244SOL     OW51110   9.229   6.104   6.961  0.1498  0.2840  1.0141
16244SOL    HW151111   9.266   6.188   6.934 -2.0275  0.9284 -0.1399
16244SOL    HW251112   9.302   6.042   6.951  1.7249  1.9344  1.6524
16245SOL     OW51113   6.019   9.064   5.920  0.0423 -0.7142 -0.1350
16245SOL    HW151114   5.962   9.030   5.989 -0.5540  1.5795  0.5866
16245SOL    HW251115   6.104   9.023   5.936 -0.5735 -1.6546  0.8073
16246SOL     OW51116   6.196   4.835   9.185  0.2881 -0.1005 -0.1471
16246SOL    HW151117   6.262   4.805   9.122  1.1053 -0.3949  0.8413
16246SOL    HW251118   6.189   4.764   9.248  2.5958  1.8300  2.5241
16247SOL     OW51119   6.397  10.694   7.950  0.0506  0.5041  0.0307
16247SOL    HW151120   6.402  10.754   8.024 -0.1268  0.0629  0.4100
16247SOL    HW251121   6.428  10.610   7.985 -0.5285  0.1625 -0.2445
16248SOL     OW51122   4.069  10.597  10.016  0.0029 -0.0312  0.0257
16248SOL    HW151123   4.107  10.512   9.992  1.1696 -0.3896  2.7435
16248SOL    HW251124   4.050  10.589  10.109 -3.2328  1.5282 -0.3769
16249SOL     OW51125   5.750   1.174   7.462  0.0312 -0.5415 -0.0334
16249SOL    HW151126   5.845   1.162   7.451 -0.0893 -1.6550  0.0416
16249SOL    HW251127   5.727   1.117   7.536 -0.9403 -1.4563 -1.0074
16250SOL     OW51128   2.966   5.805   9.967 -0.0756  0.3039 -0.1311
16250SOL    HW151129   2.940   5.733  10.025 -0.7264  0.2419 -0.4890
16250SOL    HW251130   2.980   5.879  10.026  0.7320 -0.1372  0.2558
16251SOL     OW51131   6.154   4.711   5.093  0.7661 -0.2848  0.2099
16251SOL    HW151132   6.165   4.664   5.176  1.5773 -3.0382 -1.3577
16251SOL    HW251133   6.078   4.672   5.052  1.5274 -0.3382 -1.2081
16252SOL     OW51134   9.643   4.697   8.069 -0.9615 -0.2161  0.2092
16252SOL    HW151135   9.667   4.789   8.065 -0.9705 -0.2471 -1.1597
16252SOL    HW251136   9.708   4.653   8.014 -1.2051 -0.9676  0.5127
16253SOL     OW51137   1.840   5.631   4.741  0.1985  0.2401 -0.1485
16253SOL    HW151138   1.775   5.584   4.793  0.7881  0.4120  0.7636
16253SOL    HW251139   1.860   5.709   4.793  0.4318  0.6758 -0.8779
16254SOL     OW51140   9.088   4.506   0.975 -0.3697 -0.1152  0.6840
16254SOL    HW151141   9.100   4.411   0.971  1.4999  0.0841 -2.5230
16254SOL    HW251142   9.145   4.535   1.046  0.7385 -1.2298  0.2824
16255SOL     OW51143   4.026   7.881   5.012 -0.2337 -0.0929  0.4406
16255SOL    HW151144   4.107   7.930   5.027 -0.3998  0.1051  0.7042
16255SOL    HW251145   4.045   7.826   4.936  0.3920 -0.5797  0.9312
16256SOL     OW51146   5.389   0.898  10.744 -0.6658 -0.1434  0.4956
16256SOL    HW151147   5.479   0.908  10.774 -0.3386 -2.1019  0.2886
16256SOL    HW251148   5.383   0.954  10.667  1.1095 -1.7080 -0.8782
16257SOL     OW51149   6.009   3.834   6.329 -0.1133  0.0560 -0.3877
16257SOL    HW151150   6.070   3.765   6.303  0.7548  0.7552 -0.2566
16257SOL    HW251151   5.934   3.787   6.366  0.9025 -0.8131  0.6745
16258SOL     OW51152  10.019   6.229   6.424 -0.0768  0.2361  0.6554
16258SOL    HW151153  10.013   6.323   6.410  0.7346  0.1658 -0.2444
16258SOL    HW251154  10.087   6.219   6.491  1.1384  0.2268 -0.5274
16259SOL     OW51155   8.188   0.476   8.993 -0.0299 -0.2464  0.6206
16259SOL    HW151156   8.216   0.525   9.071 -0.2617 -0.6671  0.9709
16259SOL    HW251157   8.102   0.440   9.016 -0.7157  0.7328 -0.3182
16260SOL     OW51158   0.498  10.572  10.014  0.7869 -0.7562 -0.6946
16260SOL    HW151159   0.435  10.632   9.975  0.1628 -0.8585  0.1421
16260SOL    HW251160   0.559  10.628  10.062  0.1622 -0.7750  0.1463
16261SOL     OW51161   7.165   6.683   3.320  0.1430 -0.1989  0.3095
16261SOL    HW151162   7.172   6.608   3.262  0.2158  0.5362 -0.6492
16261SOL    HW251163   7.200   6.756   3.270 -1.1933  0.7528  0.7163
16262SOL     OW51164   5.494   2.482   6.800 -0.5490  0.2391 -0.1322
16262SOL    HW151165   5.567   2.435   6.759 -0.2367  0.4119  0.2269
16262SOL    HW251166   5.535   2.555   6.846 -0.7087 -0.8998  1.8980
16263SOL     OW51167   8.312   6.425   3.502  0.5214  0.3513 -0.1750
16263SOL    HW151168   8.398   6.384   3.500  1.1336  1.5942 -0.2553
16263SOL    HW251169   8.323   6.508   3.455 -0.5513  0.8365  0.3731
16264SOL     OW51170   3.264   1.172   2.280  0.0745 -0.0919 -0.7064
16264SOL    HW151171   3.223   1.247   2.325 -0.4861  0.0430 -1.4239
16264SOL    HW251172   3.284   1.110   2.350  0.1209  0.5330 -0.1535
16265SOL     OW51173   3.867   0.463   9.504  0.1553 -0.0312  0.2378
16265SOL    HW151174   3.917   0.474   9.585  0.0582 -0.9795  0.4358
16265SOL    HW251175   3.871   0.549   9.462  1.4857  0.0611  0.5146
16266SOL     OW51176   9.923   7.053   9.469  0.1196  0.2956 -0.4927
16266SOL    HW151177   9.975   7.133   9.462  0.4610  0.0294 -1.1001
16266SOL    HW251178   9.902   7.046   9.562  0.0841  1.0895 -0.4317
16267SOL     OW51179   4.197   8.448   7.998  0.4798  0.4689 -0.4212
16267SOL    HW151180   4.134   8.487   7.937  0.5605 -0.4609 -1.1280
16267SOL    HW251181   4.195   8.355   7.978 -0.4283 -0.0797  1.8714
16268SOL     OW51182   0.730  10.615   9.650  0.2742  0.0561  0.3773
16268SOL    HW151183   0.769  10.531   9.627 -0.5525 -0.6838  1.5383
16268SOL    HW251184   0.780  10.680   9.601  0.0610 -1.2093 -1.6149
16269SOL     OW51185   7.755  10.324   5.761  0.8280 -0.1218 -0.0190
16269SOL    HW151186   7.748  10.416   5.737  1.1322 -0.4643 -1.5975
16269SOL    HW251187   7.849  10.306   5.762  0.7557 -0.7631 -1.3815
16270SOL     OW51188   2.768   4.789   3.763 -0.0682 -0.1918 -0.6829
16270SOL    HW151189   2.706   4.755   3.827 -0.7491 -0.7736 -1.6217
16270SOL    HW251190   2.780   4.880   3.787 -2.4185  0.3510 -1.3034
16271SOL     OW51191   8.237   0.062   8.305 -0.4663 -0.2325 -0.0009
16271SOL    HW151192   8.256  -0.030   8.291 -1.0298 -0.0487 -2.4195
16271SOL    HW251193   8.240   0.101   8.217 -1.9738  1.7119  0.7298
16272SOL     OW51194   6.536  10.472   8.497 -0.2220  0.3538  0.2554
16272SOL    HW151195   6.450  10.497   8.532  0.0895  1.1358  0.4817
16272SOL    HW251196   6.544  10.523   8.416  0.4950  1.1415  0.8091
16273SOL     OW51197   7.303   5.436   9.379 -0.2004  0.0406  0.4008
16273SOL    HW151198   7.380   5.450   9.435 -0.4307  1.2940  0.4444
16273SOL    HW251199   7.279   5.345   9.393  0.6230 -0.0644  1.2284
16274SOL     OW51200   8.904   6.775   1.441  0.4518  0.0276 -0.0543
16274SOL    HW151201   8.889   6.683   1.464 -0.9874  0.1816 -0.2920
16274SOL    HW251202   8.886   6.780   1.347 -1.0484  0.8175  0.2283
16275SOL     OW51203   4.972   3.844   3.277 -0.2667 -0.2147 -0.0129
16275SOL    HW151204   4.981   3.764   3.327 -1.2165  0.7115  1.7244
16275SOL    HW251205   4.901   3.827   3.216 -0.6476 -0.6028  0.5344
16276SOL     OW51206   1.273   5.130   3.140 -0.2950  0.0575  0.4504
16276SOL    HW151207   1.226   5.088   3.212  0.2086 -0.6401  0.3774
16276SOL    HW251208   1.289   5.060   3.077 -0.0224  0.4938  0.0206
16277SOL     OW51209   8.607   4.004   9.538  0.4320  0.0643 -0.2843
16277SOL    HW151210   8.661   3.933   9.505  0.2239 -0.0176 -0.4522
16277SOL    HW251211   8.624   4.007   9.632 -1.0367 -1.5000  0.0884
16278SOL     OW51212   7.704   1.975   6.030  0.6166 -0.6955  0.1685
16278SOL    HW151213   7.679   1.961   6.121  1.1750  1.3131  0.6862
16278SOL    HW251214   7.799   1.961   6.029  0.6167 -0.6785 -0.0943
16279SOL     OW51215   9.577   5.364   4.768  0.0428 -0.1534  0.1228
16279SOL    HW151216   9.657   5.369   4.820 -0.2929 -0.5599  0.6868
16279SOL    HW251217   9.513   5.415   4.817  0.2478  1.1422 -0.9049
16280SOL     OW51218   3.408   8.789   6.859  0.2452  0.2663 -0.7696
16280SOL    HW151219   3.376   8.745   6.780 -1.0690 -0.8521  0.3329
16280SOL    HW251220   3.378   8.734   6.931  2.2808  0.7111  0.5020
16281SOL     OW51221   2.184  10.254   5.579 -0.2765  0.3745  0.3865
16281SOL    HW151222   2.222  10.266   5.492 -1.6432  0.0986 -0.2817
16281SOL    HW251223   2.258  10.232   5.635  0.9288  2.4862 -0.2872
16282SOL     OW51224   1.391   5.379   1.827 -0.5662  0.7605  0.3015
16282SOL    HW151225   1.400   5.461   1.779  1.4572 -0.5075 -1.7147
16282SOL    HW251226   1.322   5.331   1.782  0.9663 -0.2052 -1.1572
16283SOL     OW51227   6.973   0.020   8.587 -0.0564 -0.1611  0.0874
16283SOL    HW151228   6.940  -0.046   8.648 -0.3164  1.2925  1.5989
16283SOL    HW251229   7.068   0.020   8.601 -0.1765  0.6848  1.1277
16284SOL     OW51230   1.060   8.065   4.373  0.2613  0.2288 -0.5186
16284SOL    HW151231   1.151   8.053   4.348  0.5839  3.3293 -1.2646
16284SOL    HW251232   1.063   8.110   4.458 -0.4804  1.2233 -0.9872
16285SOL     OW51233   6.427   9.457   3.286  0.0603  0.2577  0.1066
16285SOL    HW151234   6.332   9.460   3.280  0.0066 -0.1745  0.6210
16285SOL    HW251235   6.450   9.366   3.265  0.4836  0.6954 -1.4452
16286SOL     OW51236   4.962   0.919   1.680 -0.3317  0.3849 -0.4423
16286SOL    HW151237   4.941   1.011   1.696 -1.0042  0.1513  0.0996
16286SOL    HW251238   4.918   0.872   1.751  0.3851 -0.3181 -0.4506
16287SOL     OW51239   7.089   8.189   3.986  0.0725 -0.2723  0.4381
16287SOL    HW151240   7.003   8.228   4.002 -0.7057 -1.9124  0.5304
16287SOL    HW251241   7.103   8.200   3.892 -1.2553 -1.8293  0.0021
16288SOL     OW51242   9.042   6.462   9.277  0.0864 -0.1449  0.3062
16288SOL    HW151243   9.011   6.507   9.198  0.6973  0.5923  0.4824
16288SOL    HW251244   9.041   6.369   9.253 -0.1308  0.0392 -0.4297
16289SOL     OW51245   3.935   0.957   2.337  0.2239  0.4783  0.6767
16289SOL    HW151246   3.976   1.043   2.349 -2.0203  1.6774  0.3897
16289SOL    HW251247   3.961   0.907   2.414  2.3343  1.0672  0.4081
16290SOL     OW51248   7.557   9.856   4.866  0.1088 -0.1230  0.8774
16290SOL    HW151249   7.466   9.847   4.836  0.4487 -0.3864 -0.1071
16290SOL    HW251250   7.582   9.945   4.840  0.4137 -0.3610  0.3445
16291SOL     OW51251   4.607   6.123   6.661  0.0058  0.6853  0.0833
16291SOL    HW151252   4.663   6.064   6.711  0.5738  1.5024  0.4212
16291SOL    HW251253   4.655   6.205   6.658 -0.1523  0.7510 -1.5387
16292SOL     OW51254   9.706   3.564  10.468  0.1181 -0.2697 -0.0924
16292SOL    HW151255   9.736   3.519  10.389 -0.2067 -0.6568  0.0024
16292SOL    HW251256   9.639   3.625  10.437  0.1440 -0.2680 -0.1440
16293SOL     OW51257   1.544   9.573   9.584  0.2368 -0.4000 -0.4559
16293SOL    HW151258   1.561   9.666   9.568 -2.5453  0.1301 -0.8132
16293SOL    HW251259   1.538   9.535   9.496 -0.8172 -0.4372 -0.3795
16294SOL     OW51260   2.910   2.647   6.342 -0.2799  0.3254 -0.3635
16294SOL    HW151261   2.962   2.705   6.397 -1.2850  1.6611 -0.7536
16294SOL    HW251262   2.927   2.678   6.252 -0.3828 -0.3709 -0.6295
16295SOL     OW51263   7.992   8.520   4.294 -0.4166  0.7806 -0.1310
16295SOL    HW151264   8.020   8.519   4.386 -1.2915  1.7295  0.1644
16295SOL    HW251265   8.047   8.587   4.253  0.1012  0.2278 -0.3523
16296SOL     OW51266   4.481   9.405  10.682  0.6427  0.1675  0.1947
16296SOL    HW151267   4.551   9.454  10.641  1.1987 -0.8604 -0.1134
16296SOL    HW251268   4.524   9.350  10.748  0.1114 -0.2922  0.1771
16297SOL     OW51269  10.020  10.032  10.676 -0.6144  0.2353  0.1560
16297SOL    HW151270  10.097   9.996  10.721 -0.5430 -0.4794 -0.5081
16297SOL    HW251271   9.959   9.958  10.669 -1.2746  0.7433  0.4819
16298SOL     OW51272   4.415   0.323   3.373 -0.3593 -0.5525  0.2034
16298SOL    HW151273   4.377   0.405   3.339  1.8470  0.9200  1.1000
16298SOL    HW251274   4.468   0.290   3.301  0.8308  0.2350  0.6965
16299SOL     OW51275   5.189   8.644   9.718  0.0584 -0.5363  0.0137
16299SOL    HW151276   5.282   8.641   9.696 -0.2584  0.4839 -1.6387
16299SOL    HW251277   5.167   8.554   9.740  1.4458 -0.7802  0.5494
16300SOL     OW51278   7.938  10.676   0.557  0.4498  0.1542  0.2036
16300SOL    HW151279   7.985  10.722   0.626  0.6571  0.8912 -0.4204
16300SOL    HW251280   8.004  10.661   0.489  0.0111  0.3404 -0.2652
16301SOL     OW51281   1.125  10.345   0.938  0.0033  0.6224 -0.2748
16301SOL    HW151282   1.136  10.278   1.006  2.9063  0.9689 -0.2482
16301SOL    HW251283   1.081  10.417   0.983 -0.2466 -0.0477  0.5930
16302SOL     OW51284   4.276  10.085   6.176  0.0526 -0.1422 -0.3479
16302SOL    HW151285   4.268   9.994   6.203  2.0594 -0.5872 -1.0942
16302SOL    HW251286   4.252  10.085   6.084 -1.2254  0.3558 -0.0399
16303SOL     OW51287   5.482   4.577  10.286 -0.0516  0.5464 -0.2112
16303SOL    HW151288   5.423   4.532  10.226 -1.9345  0.1480  1.8248
16303SOL    HW251289   5.561   4.594  10.234 -1.3140 -0.3605 -2.5575
16304SOL     OW51290   8.823   6.027   8.355  0.3131  0.1217 -0.9403
16304SOL    HW151291   8.741   5.986   8.330 -0.7287  1.9091 -0.6513
16304SOL    HW251292   8.854   5.977   8.431 -1.4190  0.4241  0.0215
16305SOL     OW51293   4.529   4.240   2.190  0.3904  0.2863  0.5896
16305SOL    HW151294   4.575   4.292   2.255 -0.8517  1.8761  0.2614
16305SOL    HW251295   4.455   4.203   2.237 -0.5305  1.4686  0.1194
16306SOL     OW51296   8.253   6.682   2.020  0.6203  0.5028 -0.3349
16306SOL    HW151297   8.201   6.637   2.088 -0.6294  0.1892 -1.4449
16306SOL    HW251298   8.233   6.775   2.033 -1.3963  0.3046 -1.6049
16307SOL     OW51299   0.032   8.820   4.927  0.0730  0.4645  0.0459
16307SOL    HW151300   0.020   8.764   4.851 -0.3083 -1.3812  1.4159
16307SOL    HW251301   0.113   8.869   4.907  0.6107 -0.8016 -1.0446
16308SOL     OW51302   3.539   1.481   7.470  0.6642 -0.4830  0.0883
16308SOL    HW151303   3.521   1.481   7.376  1.6959 -1.0379 -0.1237
16308SOL    HW251304   3.634   1.496   7.476  0.7884 -1.5412  0.9820
16309SOL     OW51305   7.041   5.829   4.125 -0.3029  0.5327 -0.2400
16309SOL    HW151306   7.068   5.904   4.178 -0.6377  2.3796 -2.5080
16309SOL    HW251307   6.945   5.828   4.131 -0.2254 -1.0749  1.4460
16310SOL     OW51308  10.597   0.347   3.390  0.1481  0.4681 -0.3187
16310SOL    HW151309  10.591   0.442   3.374  0.6937  0.9054  1.7950
16310SOL    HW251310  10.531   0.330   3.457 -0.0420 -0.6967 -0.7847
16311SOL     OW51311   9.342   9.329   4.821  0.3339 -0.2012 -0.2556
16311SOL    HW151312   9.364   9.237   4.828  0.5682 -0.1509 -0.3302
16311SOL    HW251313   9.310   9.339   4.731  2.0227  0.1437 -0.8631
16312SOL     OW51314   2.826   6.032   5.357  0.3790 -0.1829  0.3179
16312SOL    HW151315   2.903   6.009   5.305 -0.3199  1.6171 -1.6203
16312SOL    HW251316   2.764   5.961   5.340  0.8443 -0.5696  0.2132
16313SOL     OW51317   2.820  10.442   0.862 -0.4483 -0.4369  0.2048
16313SOL    HW151318   2.894  10.446   0.923 -0.7161  0.2514  0.4954
16313SOL    HW251319   2.846  10.377   0.798 -0.4739 -1.7456  1.4637
16314SOL     OW51320   8.681   9.630   2.346  0.3661 -0.5413  0.1693
16314SOL    HW151321   8.722   9.565   2.403  0.4021 -0.9272 -0.2840
16314SOL    HW251322   8.699   9.714   2.388 -1.0045 -0.9150  1.5768
16315SOL     OW51323   1.822   1.737  10.201  0.7273 -0.3146 -0.4511
16315SOL    HW151324   1.781   1.651  10.191  1.5582 -0.6005 -1.6198
16315SOL    HW251325   1.779   1.792  10.136  2.2672 -0.6752 -1.8487
16316SOL     OW51326   9.516   0.524   1.763 -0.1775  0.3882  0.5494
16316SOL    HW151327   9.562   0.604   1.791  0.4460  0.8452 -1.6281
16316SOL    HW251328   9.426   0.553   1.747 -0.1278  0.4857  0.4494
16317SOL     OW51329   9.086   9.907   1.233 -0.0679  0.3859  0.2460
16317SOL    HW151330   9.088   9.940   1.323 -0.8459 -2.6052  1.4855
16317SOL    HW251331   8.993   9.890   1.216  0.2357 -0.6911 -0.4533
16318SOL     OW51332   5.003   1.356   2.404  0.2157 -0.5277  0.0605
16318SOL    HW151333   5.092   1.345   2.439  0.3229  0.4505  0.1207
16318SOL    HW251334   5.011   1.427   2.341 -0.4300 -0.7826 -0.3072
16319SOL     OW51335   2.317   4.248   7.196 -0.1954 -0.7857 -0.4639
16319SOL    HW151336   2.410   4.227   7.200  0.7175  2.2617 -2.2009
16319SOL    HW251337   2.273   4.163   7.192  2.4290 -2.3329  0.9353
16320SOL     OW51338   1.696   2.950  10.526 -0.7826  0.0681 -0.1306
16320SOL    HW151339   1.632   3.011  10.563 -0.4222 -1.1183  2.6413
16320SOL    HW251340   1.643   2.878  10.491 -1.0387 -0.4303  1.2417
16321SOL     OW51341   6.428   1.348   4.605 -0.0578  0.2913  0.0304
16321SOL    HW151342   6.357   1.398   4.645  0.1186  1.0878 -0.6164
16321SOL    HW251343   6.436   1.384   4.517  0.4763 -0.4807 -0.2457
16322SOL     OW51344   4.773   0.175   4.413  0.0157  0.4086 -0.1268
16322SOL    HW151345   4.716   0.128   4.352  2.1738 -0.3112 -1.7056
16322SOL    HW251346   4.861   0.145   4.392  0.8635 -0.8178  4.2221
16323SOL     OW51347   4.739   1.022   0.558  0.3599 -0.2724  0.5707
16323SOL    HW151348   4.751   1.117   0.565 -1.1738 -0.1783  2.8697
16323SOL    HW251349   4.827   0.987   0.546  0.8716  1.4560 -1.3001
16324SOL     OW51350   6.588   3.318   6.911 -0.2325 -0.3113  0.0212
16324SOL    HW151351   6.536   3.238   6.924 -2.5476  0.9481 -0.8213
16324SOL    HW251352   6.625   3.309   6.824  0.9026 -1.1528  0.5653
16325SOL     OW51353   1.059   5.932   1.065  0.5515  0.2262  0.3697
16325SOL    HW151354   1.108   5.850   1.054  0.3818  0.4297 -2.5843
16325SOL    HW251355   1.113   5.998   1.023 -0.5269  1.1407  0.3846
16326SOL     OW51356   1.560   4.979   2.266  0.4294 -0.0705 -0.0332
16326SOL    HW151357   1.644   4.961   2.223  0.4927 -0.6973  0.3423
16326SOL    HW251358   1.531   5.062   2.228  0.7540 -0.3286 -0.8784
16327SOL     OW51359   4.123   9.503   5.744 -0.2095  0.0103  0.4000
16327SOL    HW151360   4.078   9.444   5.683  0.0442  0.2390 -0.0154
16327SOL    HW251361   4.080   9.488   5.828 -0.5669 -0.3085  0.1649
16328SOL     OW51362   9.550   0.437   4.415 -0.1081 -0.9773 -0.6220
16328SOL    HW151363   9.634   0.415   4.373  1.5907 -0.0786  2.0215
16328SOL    HW251364   9.572   0.446   4.508 -1.9982  4.2746 -0.3569
16329SOL     OW51365   9.359  10.601   9.047 -0.1317  0.1992  0.8610
16329SOL    HW151366   9.284  10.621   8.990  0.2905 -0.2090  0.1374
16329SOL    HW251367   9.347  10.656   9.124 -2.0009 -0.9435  1.4593
16330SOL     OW51368   3.395   9.217   6.172 -0.4155 -0.0466 -0.7981
16330SOL    HW151369   3.337   9.141   6.164 -0.3883  0.1230 -3.5769
16330SOL    HW251370   3.462   9.189   6.234 -1.9515 -1.2331  0.4060
16331SOL     OW51371   3.971   4.686   8.387 -0.7376 -0.0235 -0.3667
16331SOL    HW151372   3.889   4.703   8.433 -0.8911  0.9739 -0.9939
16331SOL    HW251373   4.033   4.749   8.422 -0.0822 -1.0691  0.4369
16332SOL     OW51374   5.258   7.650   3.201 -0.5195  0.3514 -0.3229
16332SOL    HW151375   5.231   7.664   3.292  1.5187  1.6672  0.1633
16332SOL    HW251376   5.293   7.561   3.199  0.7000  0.7832  0.5767
16333SOL     OW51377   6.261   6.208   3.569  0.1998 -0.0916 -0.0583
16333SOL    HW151378   6.222   6.164   3.493  1.5450  0.8495 -1.3450
16333SOL    HW251379   6.321   6.143   3.606 -0.2471 -0.4567  0.0274
16334SOL     OW51380   1.349   1.548   3.728  0.1584  0.4341 -0.2926
16334SOL    HW151381   1.310   1.567   3.642  0.3062  1.1322 -0.2125
16334SOL    HW251382   1.282   1.498   3.774  0.4246 -0.7744 -1.1390
16335SOL     OW51383   7.676   9.183   5.930  0.1166 -0.3271 -0.0810
16335SOL    HW151384   7.717   9.262   5.894  3.1934 -1.6444  0.1931
16335SOL    HW251385   7.608   9.216   5.988  1.4540  2.1762  0.2211
16336SOL     OW51386   3.850   5.746   6.093  0.3274  0.3639 -0.4990
16336SOL    HW151387   3.859   5.656   6.064  0.9329 -0.3417  1.7306
16336SOL    HW251388   3.789   5.742   6.166 -0.4515  1.9431 -1.0100
16337SOL     OW51389   9.919   0.362   7.947  0.2449 -0.0683  0.0876
16337SOL    HW151390   9.986   0.305   7.984 -0.2623 -0.9498 -0.3370
16337SOL    HW251391   9.901   0.325   7.861  1.2293  1.7979 -0.9899
16338SOL     OW51392   2.598  10.501   0.703  0.3708  0.0439  0.3098
16338SOL    HW151393   2.582  10.579   0.650  0.5088 -0.0186  0.1734
16338SOL    HW251394   2.686  10.515   0.739 -0.2469  0.7201  1.6305
16339SOL     OW51395   6.029   5.644   6.006 -0.0315  0.0153 -0.1013
16339SOL    HW151396   5.993   5.645   5.918  1.2035  1.1759 -0.6392
16339SOL    HW251397   6.101   5.581   6.002  0.3451  0.4392 -0.0688
16340SOL     OW51398   6.894   2.968   8.123 -0.1689 -0.0296 -0.6810
16340SOL    HW151399   6.938   3.044   8.161  1.5654  0.4150 -3.2871
16340SOL    HW251400   6.810   3.001   8.091 -1.0889 -0.1383  1.5052
16341SOL     OW51401   8.255   7.869   9.976  0.2414 -0.5267  0.5958
16341SOL    HW151402   8.291   7.781   9.962  0.8742  0.1570 -3.2129
16341SOL    HW251403   8.165   7.863   9.943  0.9562  0.6386 -1.7950
16342SOL     OW51404   2.781   1.961   3.990  0.0002  0.2050  0.2437
16342SOL    HW151405   2.746   1.970   3.901  0.6485 -0.8829 -0.1464
16342SOL    HW251406   2.751   2.039   4.036 -1.5678  0.0892 -0.5146
16343SOL     OW51407   3.179   4.702   2.460  0.4446  0.0335  0.0540
16343SOL    HW151408   3.242   4.774   2.466  2.0781 -1.3869  1.0226
16343SOL    HW251409   3.227   4.626   2.494 -1.4127 -1.3845 -0.3522
16344SOL     OW51410   1.679   2.690   9.320  0.2695 -0.0941 -0.0139
16344SOL    HW151411   1.706   2.657   9.406 -1.7640  0.0146  0.7258
16344SOL    HW251412   1.591   2.724   9.334  0.3175  0.9692 -1.9170
16345SOL     OW51413   0.657   6.200   2.977  0.2994 -0.4309 -0.1289
16345SOL    HW151414   0.579   6.169   3.023  2.0012 -1.3848  2.3280
16345SOL    HW251415   0.638   6.184   2.884 -2.2349 -0.9784  0.4086
16346SOL     OW51416   6.161  10.217   1.974  0.7173  0.4414  0.1583
16346SOL    HW151417   6.080  10.242   2.020  0.7715  0.8299  0.0466
16346SOL    HW251418   6.213  10.298   1.972 -0.8833  1.6316 -4.0455
16347SOL     OW51419   2.368   3.087   0.204  0.4114  0.0567  0.0653
16347SOL    HW151420   2.443   3.126   0.161 -0.8503  2.6392  0.0274
16347SOL    HW251421   2.405   3.031   0.272  2.3523  0.1487 -0.8727
16348SOL     OW51422   3.514   2.053   3.702  0.1211  0.0889 -0.0395
16348SOL    HW151423   3.501   1.966   3.739 -1.0127  0.5311  0.6690
16348SOL    HW251424   3.566   2.100   3.768  1.8792 -0.4257 -1.0133
16349SOL     OW51425   1.352   5.463   6.449  0.4251  0.1488  0.6836
16349SOL    HW151426   1.391   5.543   6.413  0.5708 -0.0657  0.3605
16349SOL    HW251427   1.280   5.494   6.503 -1.1796  0.3876 -1.4874
16350SOL     OW51428   4.982   5.886   5.509  0.1104 -0.3670 -0.4970
16350SOL    HW151429   4.892   5.869   5.535 -0.2166  1.0447 -0.6309
16350SOL    HW251430   4.984   5.979   5.487  1.8277 -0.1175  0.4767
16351SOL     OW51431   6.445   9.383   6.946  0.0425  0.8210 -0.2406
16351SOL    HW151432   6.488   9.324   7.008  0.5141  0.9063 -0.4809
16351SOL    HW251433   6.500   9.462   6.947  0.3124  0.6466 -1.1143
16352SOL     OW51434   8.538  10.072   7.582 -0.3782 -0.1882 -0.1577
16352SOL    HW151435   8.544  10.067   7.678 -0.6551 -0.8152 -0.1721
16352SOL    HW251436   8.628  10.060   7.552 -0.4521 -1.2004 -0.0176
16353SOL     OW51437   5.421   9.898   0.615 -0.3279 -0.5375  0.2832
16353SOL    HW151438   5.329   9.922   0.617 -0.1164  0.3552 -0.1950
16353SOL    HW251439   5.455   9.925   0.701 -0.4043 -0.3900  0.2678
16354SOL     OW51440   8.785   9.914   3.974  0.1730  0.4486 -0.4165
16354SOL    HW151441   8.753   9.839   4.025  1.7891  0.3189  0.4630
16354SOL    HW251442   8.724   9.921   3.900 -0.6669 -1.0159  0.1064
16355SOL     OW51443   5.365   9.197  10.206 -0.2928 -0.2685 -0.3084
16355SOL    HW151444   5.387   9.258  10.276  1.5811 -0.5258 -0.6080
16355SOL    HW251445   5.319   9.250  10.141  1.2199  0.8561 -0.5279
16356SOL     OW51446   6.342   2.335   8.645  0.4051  0.3404 -0.4584
16356SOL    HW151447   6.402   2.409   8.631  1.0798 -0.3948 -1.5419
16356SOL    HW251448   6.310   2.314   8.558  1.0529 -1.3309 -0.3188
16357SOL     OW51449   2.614   8.555   2.031 -0.3057  0.1262  0.1066
16357SOL    HW151450   2.648   8.645   2.026 -0.1700  0.1040  0.5492
16357SOL    HW251451   2.692   8.500   2.024 -0.0214  0.0947  2.6071
16358SOL     OW51452   3.294   7.201   7.339 -0.3834  0.1079 -0.4883
16358SOL    HW151453   3.372   7.213   7.393 -0.0325 -1.1347 -0.6818
16358SOL    HW251454   3.246   7.284   7.346  0.5083  0.5654  0.3461
16359SOL     OW51455   3.351   0.384   3.125 -0.9660 -0.4706 -0.5011
16359SOL    HW151456   3.284   0.328   3.164  0.9794 -1.4432  1.6644
16359SOL    HW251457   3.360   0.352   3.035 -0.9943 -2.6572  0.2113
16360SOL     OW51458   5.729   8.841   4.258 -0.7396 -0.0703 -0.2182
16360SOL    HW151459   5.691   8.764   4.300 -0.1378  0.8625  2.2020
16360SOL    HW251460   5.780   8.807   4.185 -0.1461 -2.0093  1.0464
16361SOL     OW51461   7.170   0.297   3.233 -0.1608  0.2870 -0.0833
16361SOL    HW151462   7.228   0.354   3.283 -0.0963  1.2982 -1.2322
16361SOL    HW251463   7.112   0.257   3.298  1.0233  0.1998  0.9452
16362SOL     OW51464   6.255   8.418   3.908  0.2369 -0.4726  0.1375
16362SOL    HW151465   6.264   8.496   3.855  3.5932 -1.4718 -1.0046
16362SOL    HW251466   6.288   8.443   3.994  1.1473 -0.5474 -0.1798
16363SOL     OW51467   6.724   4.768   5.784 -0.1442  0.6062 -0.5051
16363SOL    HW151468   6.784   4.711   5.832 -0.4830 -0.2857 -1.1177
16363SOL    HW251469   6.664   4.708   5.739 -1.0043  1.4609 -0.5367
16364SOL     OW51470   8.865   4.223   0.714 -0.6333 -0.4227  0.3094
16364SOL    HW151471   8.916   4.142   0.713 -1.0251 -0.6629 -0.2209
16364SOL    HW251472   8.805   4.215   0.640 -0.8943  0.2118  0.4470
16365SOL     OW51473   3.705   4.806   1.145  0.1445  0.0719 -0.1328
16365SOL    HW151474   3.735   4.716   1.141  1.3176  0.4045  0.8776
16365SOL    HW251475   3.781   4.859   1.121  1.0768  1.0181  4.1046
16366SOL     OW51476   1.261   1.813   6.735 -0.4207 -0.2551 -0.6983
16366SOL    HW151477   1.275   1.904   6.708  2.2277  0.4358  2.3273
16366SOL    HW251478   1.322   1.762   6.682  1.9096  0.5536  1.0277
16367SOL     OW51479   7.293   8.887   3.550 -0.2044 -0.1822  0.8541
16367SOL    HW151480   7.325   8.799   3.529 -0.5092 -0.4726  1.5687
16367SOL    HW251481   7.328   8.906   3.637 -0.1048  0.4279  0.6892
16368SOL     OW51482   2.530   3.990   9.318 -0.0484  0.0605 -0.3019
16368SOL    HW151483   2.494   3.902   9.303 -1.1373  0.4770 -0.1823
16368SOL    HW251484   2.455   4.043   9.344  0.4691  1.2020 -1.0455
16369SOL     OW51485   0.368   5.714   1.387  0.1521  0.3351  0.2530
16369SOL    HW151486   0.309   5.664   1.331 -0.4597  0.2860  0.9199
16369SOL    HW251487   0.311   5.748   1.457  1.2094 -1.3762  2.0461
16370SOL     OW51488   5.203   6.852   6.469  0.0484 -0.0047  0.3594
16370SOL    HW151489   5.298   6.857   6.468  0.0586 -0.0977  0.7081
16370SOL    HW251490   5.175   6.906   6.396  0.4011 -0.6634 -0.2714
16371SOL     OW51491   3.519   4.943   1.316 -0.4558  0.5704  0.0608
16371SOL    HW151492   3.597   4.907   1.273 -0.3051 -0.0110  0.8084
16371SOL    HW251493   3.553   4.988   1.393 -1.0060 -1.6338  1.6914
16372SOL     OW51494   3.094   2.976   1.815  0.0308  0.3841  0.8037
16372SOL    HW151495   3.031   3.048   1.827 -1.9150 -1.2647  1.1260
16372SOL    HW251496   3.041   2.897   1.827  2.3381 -1.1063  1.6396
16373SOL     OW51497   9.599   2.514   7.981 -0.3243  0.1840  0.1849
16373SOL    HW151498   9.562   2.458   7.913  0.1948 -0.5640  0.5088
16373SOL    HW251499   9.606   2.457   8.058 -2.6564  1.4566  1.4729
16374SOL     OW51500   4.697   2.084   0.158 -0.3117 -0.0246  0.1682
16374SOL    HW151501   4.668   2.142   0.229 -0.6020  0.3163 -0.2212
16374SOL    HW251502   4.637   2.103   0.086 -0.3637 -0.7609  0.0063
16375SOL     OW51503  10.645   1.749   0.557  0.2940 -0.0229  0.1991
16375SOL    HW151504  10.611   1.673   0.605 -1.0996 -0.3125 -1.1661
16375SOL    HW251505  10.568   1.789   0.517  1.3083  0.5855 -1.2447
16376SOL     OW51506   6.311   6.180   4.874  0.3233 -0.1894 -0.4343
16376SOL    HW151507   6.301   6.104   4.931  1.6843 -1.3648 -1.7016
16376SOL    HW251508   6.378   6.155   4.811 -0.0736  1.6132 -1.6574
16377SOL     OW51509   3.544   6.357   8.604 -0.2686  0.0494 -0.7270
16377SOL    HW151510   3.563   6.264   8.587 -1.2852 -0.2475 -0.3312
16377SOL    HW251511   3.626   6.392   8.637  0.3824 -0.4962 -1.7141
16378SOL     OW51512   0.079   4.049   5.133 -0.2040  0.7292  0.5462
16378SOL    HW151513   0.074   3.954   5.132  2.5015  0.4948  0.3792
16378SOL    HW251514   0.074   4.074   5.041 -2.0698  0.8910  0.6613
16379SOL     OW51515   7.415   1.536   2.026 -0.0323 -0.3948  0.7937
16379SOL    HW151516   7.329   1.535   1.985  0.0123 -0.3272  0.6993
16379SOL    HW251517   7.476   1.555   1.955  0.1298 -1.1256  0.7246
16380SOL     OW51518   2.131   8.613  10.478 -0.2463 -0.6644  0.0491
16380SOL    HW151519   2.065   8.545  10.493 -1.1523 -0.0693 -1.1016
16380SOL    HW251520   2.102   8.658  10.399  0.4668  0.9235  0.6465
16381SOL     OW51521   3.248   3.768   2.503 -0.3192 -0.2718 -0.1837
16381SOL    HW151522   3.184   3.710   2.463  0.8548 -0.7210 -1.4640
16381SOL    HW251523   3.287   3.816   2.430 -0.0389  0.8721  0.6870
16382SOL     OW51524   8.628   9.830   5.643 -0.2224 -0.2115  0.4896
16382SOL    HW151525   8.605   9.918   5.671  1.2170  0.3382  0.0633
16382SOL    HW251526   8.604   9.773   5.716 -0.5801  0.6241  1.0272
16383SOL     OW51527   8.911   9.342   9.463  0.1284  0.1786  0.2232
16383SOL    HW151528   8.886   9.321   9.374  0.3460  1.6303 -0.2102
16383SOL    HW251529   8.953   9.262   9.496  1.9322  0.2502 -1.6744
16384SOL     OW51530   2.971   6.600   9.394  0.3740 -0.6637 -0.1169
16384SOL    HW151531   2.963   6.580   9.488 -0.0231 -0.8718 -0.1959
16384SOL    HW251532   2.978   6.695   9.391 -1.4787 -0.4932  0.0013
16385SOL     OW51533   0.335   6.481   1.920 -0.4368  0.0103 -0.5656
16385SOL    HW151534   0.333   6.457   2.013  0.8743 -0.7521 -0.7202
16385SOL    HW251535   0.277   6.419   1.877 -3.0349  1.8603  0.0119
16386SOL     OW51536   8.317   2.747   0.022 -0.2467  0.0098 -0.5552
16386SOL    HW151537   8.367   2.682   0.072 -0.0250 -0.2619 -1.1111
16386SOL    HW251538   8.289   2.699  -0.056 -2.3620 -0.1725  0.2571
16387SOL     OW51539   8.507  10.251   6.910  0.6571  0.4386 -0.5130
16387SOL    HW151540   8.566  10.176   6.915  0.5422  0.0744 -3.1833
16387SOL    HW251541   8.426  10.221   6.952  1.4061 -0.0443  0.6296
16388SOL     OW51542   5.214   4.065   2.320 -0.4635  0.2565 -0.1632
16388SOL    HW151543   5.145   4.017   2.275 -1.7068  0.2775  1.6647
16388SOL    HW251544   5.171   4.143   2.355  0.3071 -0.0821  1.6196
16389SOL     OW51545   1.818   5.655   5.051  0.5328 -0.4149  0.0119
16389SOL    HW151546   1.738   5.649   4.999  1.6218 -1.9960 -1.6084
16389SOL    HW251547   1.801   5.726   5.113 -2.1030 -0.6959 -0.2635
16390SOL     OW51548   7.799   0.070   8.790 -0.3967  0.2317 -0.1938
16390SOL    HW151549   7.888   0.103   8.780 -0.6316  0.9070 -0.1576
16390SOL    HW251550   7.793  -0.003   8.729  0.5258 -0.5573  0.6196
16391SOL     OW51551   1.211   7.956   6.142  0.2193  0.0414 -0.6509
16391SOL    HW151552   1.251   8.033   6.183 -0.2097 -0.0890  0.0217
16391SOL    HW251553   1.128   7.989   6.107  0.0813 -0.0929 -0.4499
16392SOL     OW51554  10.165   1.856   2.145 -0.0422 -0.5004 -0.4523
16392SOL    HW151555  10.207   1.893   2.068 -2.6400  0.4898 -1.4880
16392SOL    HW251556  10.135   1.932   2.196 -1.3661 -1.1353 -0.2413
16393SOL     OW51557   7.117   7.771   2.231 -0.0767  0.2377 -0.4258
16393SOL    HW151558   7.191   7.748   2.286  1.6473 -2.3101 -3.4633
16393SOL    HW251559   7.043   7.722   2.267  0.6741 -0.3331  0.3620
16394SOL     OW51560   2.215   8.753   8.832 -0.5633  0.5126 -0.3791
16394SOL    HW151561   2.185   8.801   8.909 -2.0973  0.0069 -0.6306
16394SOL    HW251562   2.164   8.672   8.833 -0.0339  0.1464 -1.5002
16395SOL     OW51563   3.376   6.227   6.757  0.1795  0.7087  0.1692
16395SOL    HW151564   3.426   6.173   6.818  1.3261  0.2437 -1.1236
16395SOL    HW251565   3.413   6.315   6.765  1.8404  0.2178 -1.3308
16396SOL     OW51566   1.124   4.071   1.836 -0.3991 -0.3335  0.4694
16396SOL    HW151567   1.207   4.045   1.795 -0.8203 -1.1062  0.0870
16396SOL    HW251568   1.111   4.006   1.905 -1.2302 -0.8810 -0.1876
16397SOL     OW51569   9.305  10.394   9.720  0.6687  0.0100 -0.0076
16397SOL    HW151570   9.397  10.391   9.743  0.4931 -1.9039  0.5460
16397SOL    HW251571   9.287  10.310   9.678 -1.1152 -0.2346  1.1319
16398SOL     OW51572   9.399   6.299   2.825  0.0760 -0.4154  0.2755
16398SOL    HW151573   9.493   6.284   2.827  0.1632  0.1270  0.3002
16398SOL    HW251574   9.387   6.385   2.865 -0.2065  0.6124 -1.8548
16399SOL     OW51575   0.993   6.333   4.456 -0.1609  0.3078 -0.1991
16399SOL    HW151576   1.066   6.281   4.424 -1.4303 -1.1460 -0.9022
16399SOL    HW251577   0.943   6.355   4.377 -1.7185 -0.7524  0.4222
16400SOL     OW51578   6.357   1.247  10.145 -0.1980  0.3005 -0.6654
16400SOL    HW151579   6.302   1.279  10.073 -2.4684 -0.5449  0.6122
16400SOL    HW251580   6.324   1.292  10.222  2.7220  1.8057 -0.1395
16401SOL     OW51581   2.234   8.988  10.645 -0.2463 -0.0982 -0.3406
16401SOL    HW151582   2.209   8.896  10.656  0.2844 -0.1827  0.2268
16401SOL    HW251583   2.189   9.016  10.565 -0.7222 -0.7394 -0.3034
16402SOL     OW51584   4.337   8.322   2.205 -0.1406 -0.8066 -0.0081
16402SOL    HW151585   4.304   8.339   2.117 -2.3868  1.4519  1.0967
16402SOL    HW251586   4.317   8.230   2.221 -1.9386 -0.6504 -1.0543
16403SOL     OW51587   3.047   4.972  10.172  0.3865  0.3184 -0.3048
16403SOL    HW151588   3.006   5.019  10.245  1.1088  0.2533  0.1529
16403SOL    HW251589   2.977   4.963  10.107 -0.9014 -1.3909  1.1825
16404SOL     OW51590   7.297   2.931   6.383 -0.2470  0.3809  0.1253
16404SOL    HW151591   7.386   2.896   6.390  0.2358  1.7574  1.8060
16404SOL    HW251592   7.251   2.870   6.326  0.7660 -2.4189  2.0903
16405SOL     OW51593   2.032  10.642   7.292 -0.0253  0.0555  0.4030
16405SOL    HW151594   1.945  10.603   7.297 -0.0598  0.1641  0.6756
16405SOL    HW251595   2.076  10.594   7.223 -0.4234  0.2416  0.0184
16406SOL     OW51596   4.825   8.849   7.775  0.1784  0.8720  0.2071
16406SOL    HW151597   4.861   8.844   7.686 -0.5042 -0.0679 -0.0371
16406SOL    HW251598   4.738   8.808   7.767 -0.9984  3.0902  0.7387
16407SOL     OW51599   9.291   1.065   4.756 -0.0040 -0.1812  0.5724
16407SOL    HW151600   9.254   1.144   4.716  0.4331  1.1669  2.6950
16407SOL    HW251601   9.216   1.020   4.794 -0.0284  0.1817  0.9577
16408SOL     OW51602   2.493   8.729   9.086 -0.7560  0.4246 -0.1610
16408SOL    HW151603   2.515   8.779   9.007  0.3335  0.6842  0.2819
16408SOL    HW251604   2.537   8.776   9.157  0.2078 -1.0866  0.2827
16409SOL     OW51605   1.765   6.290   4.522 -0.4421 -0.0598 -0.5170
16409SOL    HW151606   1.759   6.360   4.457  0.2138 -0.1044 -0.6287
16409SOL    HW251607   1.683   6.241   4.512 -0.1570 -0.3373 -1.6239
16410SOL     OW51608   3.225   6.366   5.245  0.0606 -0.0241 -0.7793
16410SOL    HW151609   3.228   6.282   5.197 -1.4396 -0.2494 -0.5387
16410SOL    HW251610   3.202   6.341   5.334  0.3995  0.5947 -0.5184
16411SOL     OW51611   7.894   0.805   1.087  0.4246 -0.1491 -0.2228
16411SOL    HW151612   7.865   0.746   1.017 -1.2715 -3.1719  2.7147
16411SOL    HW251613   7.861   0.764   1.168  3.1598  2.4971  2.4971
16412SOL     OW51614   2.961   3.414  10.591 -0.1529  0.0802 -0.5423
16412SOL    HW151615   2.871   3.395  10.564  0.1585 -0.2142 -1.3779
16412SOL    HW251616   2.951   3.453  10.678 -0.9225 -2.4300  0.5779
16413SOL     OW51617   8.247   3.901   6.003  0.1168 -0.3170  0.2288
16413SOL    HW151618   8.238   3.860   5.917 -0.3240 -2.7311  1.3561
16413SOL    HW251619   8.270   3.992   5.984  2.2293 -1.2936 -2.4036
16414SOL     OW51620   7.675   2.014   0.002  0.3300  0.4141 -0.1617
16414SOL    HW151621   7.685   1.919   0.011 -0.2094  0.2649 -0.9980
16414SOL    HW251622   7.754   2.041  -0.044  0.7131  0.4434  0.5090
16415SOL     OW51623   4.093   8.086   6.637 -0.4447 -0.1533  0.0460
16415SOL    HW151624   4.054   7.999   6.639 -1.3444  0.2403  0.4004
16415SOL    HW251625   4.139   8.090   6.553 -1.6393 -0.4534 -0.6468
16416SOL     OW51626   2.024   4.752   1.734  0.0278  0.9225 -0.0832
16416SOL    HW151627   2.070   4.789   1.659  1.4269  1.7658  1.1213
16416SOL    HW251628   1.988   4.670   1.702  0.9315  1.0666 -1.5664
16417SOL     OW51629   3.845   4.793   3.809 -0.0834 -0.0703  0.4292
16417SOL    HW151630   3.783   4.852   3.766 -0.8661 -1.9088 -1.1011
16417SOL    HW251631   3.931   4.829   3.786 -0.5253  0.0934 -1.1504
16418SOL     OW51632   9.312   1.203   9.615  0.4689  0.3390 -0.8202
16418SOL    HW151633   9.402   1.192   9.648  0.7310  1.6323 -1.0440
16418SOL    HW251634   9.276   1.115   9.614  1.1149  0.0023  1.0420
16419SOL     OW51635   5.644   7.911   2.927  0.0585 -0.6175  0.0650
16419SOL    HW151636   5.732   7.922   2.963 -0.0845 -1.1089  0.5765
16419SOL    HW251637   5.591   7.882   3.001 -0.4826 -0.5670 -0.2947
16420SOL     OW51638   0.155   4.028   7.157 -0.4029  0.0660 -0.0523
16420SOL    HW151639   0.135   4.122   7.154 -1.3811 -0.1522 -1.0277
16420SOL    HW251640   0.146   3.999   7.066  1.4921 -0.6756 -0.0554
16421SOL     OW51641  10.429   7.996   6.080  0.1379 -0.2779  0.0848
16421SOL    HW151642  10.508   8.031   6.121  0.2112 -0.5419  0.1713
16421SOL    HW251643  10.417   8.050   6.002  1.3875 -1.3154 -0.8799
16422SOL     OW51644   4.543   3.385   3.968  0.1737  0.1974 -0.1552
16422SOL    HW151645   4.626   3.355   3.930 -0.0421 -1.0130  0.2768
16422SOL    HW251646   4.567   3.457   4.025  0.9571 -0.2516  0.0982
16423SOL     OW51647   2.095   1.352   6.357  0.2682 -0.3229  0.1483
16423SOL    HW151648   2.177   1.325   6.398  0.9189  1.7747  0.3201
16423SOL    HW251649   2.093   1.447   6.366 -1.0925 -0.0875 -1.8961
16424SOL     OW51650   4.717   1.390   3.439 -0.8435 -0.7439  0.2739
16424SOL    HW151651   4.693   1.458   3.377 -0.9946 -1.4718 -0.4772
16424SOL    HW251652   4.642   1.384   3.499  0.3036  1.6955  2.1267
16425SOL     OW51653   3.466   5.156   1.117  0.0868  0.0486  0.0862
16425SOL    HW151654   3.460   5.119   1.029 -1.7571  2.4188 -0.9069
16425SOL    HW251655   3.454   5.081   1.175 -2.1993 -1.1578 -1.7507
16426SOL     OW51656   4.328   0.234   9.526  0.2897  0.6628  0.1895
16426SOL    HW151657   4.305   0.227   9.433 -0.9874 -1.0404  0.5966
16426SOL    HW251658   4.257   0.190   9.572  2.1552 -0.8408  1.8111
16427SOL     OW51659   6.273   8.274   8.960  0.3111 -0.0441 -0.6151
16427SOL    HW151660   6.301   8.218   9.033  0.3467  0.0980 -0.5207
16427SOL    HW251661   6.339   8.342   8.954  0.2794 -0.0231 -0.7472
16428SOL     OW51662   9.025   6.733   3.223 -0.2549 -0.1579 -0.3385
16428SOL    HW151663   8.947   6.679   3.213 -0.4970 -0.0483  0.8074
16428SOL    HW251664   9.098   6.674   3.208 -0.5452 -0.2324 -1.5536
16429SOL     OW51665   8.488   4.796   0.850  0.3961 -0.1304  0.2401
16429SOL    HW151666   8.423   4.753   0.795  1.5425 -0.8353 -0.6060
16429SOL    HW251667   8.474   4.758   0.937 -0.2324 -0.3670  0.0428
16430SOL     OW51668   7.721   0.199   4.620 -0.6445  0.0705 -0.5634
16430SOL    HW151669   7.794   0.199   4.683 -1.4564 -1.7504  0.4390
16430SOL    HW251670   7.643   0.202   4.674 -1.3636 -0.1804 -1.5637
16431SOL     OW51671   6.417   7.175   8.131 -0.2601  0.1302 -0.2275
16431SOL    HW151672   6.496   7.168   8.183 -0.7960 -2.0528  0.4006
16431SOL    HW251673   6.370   7.093   8.147 -2.0037  0.7811 -1.6228
16432SOL     OW51674   8.337   0.581   2.065  0.0141  0.0042 -0.1184
16432SOL    HW151675   8.311   0.646   2.130 -0.1192 -1.5138  1.4366
16432SOL    HW251676   8.427   0.559   2.088 -0.2387 -0.9992 -0.0553
16433SOL     OW51677   9.405   9.935   3.341  0.2053  0.0551 -0.3513
16433SOL    HW151678   9.315   9.958   3.322 -0.0982  0.6652  1.5914
16433SOL    HW251679   9.448   9.931   3.255 -1.3367  1.1029 -1.2101
16434SOL     OW51680   2.725   1.256   7.383 -0.2939 -0.0608 -0.4577
16434SOL    HW151681   2.704   1.254   7.289  1.4155  2.3553 -0.9763
16434SOL    HW251682   2.820   1.245   7.386 -0.3549 -0.3346  1.0438
16435SOL     OW51683   0.491  10.540   2.883  0.2975  0.5139  0.5668
16435SOL    HW151684   0.441  10.587   2.817  0.1278  0.1733  0.4518
16435SOL    HW251685   0.578  10.581   2.881  0.7076 -0.3738 -0.8174
16436SOL     OW51686   9.930   7.809   1.816  0.6842  0.0364  0.0480
16436SOL    HW151687   9.876   7.732   1.835  1.2645 -0.4081 -0.0983
16436SOL    HW251688   9.974   7.828   1.899  0.7400  0.0587  0.0128
16437SOL     OW51689   9.306   2.900   0.253 -0.2095 -0.1080  0.4269
16437SOL    HW151690   9.273   2.846   0.325 -0.0097  0.7115  1.1409
16437SOL    HW251691   9.227   2.928   0.206 -0.2769 -3.6507 -1.9898
16438SOL     OW51692   6.213   8.044  10.572 -0.9241  0.1749 -0.2597
16438SOL    HW151693   6.129   8.080  10.599 -0.3685  0.6824  0.8523
16438SOL    HW251694   6.242   8.101  10.500 -0.4886  1.4151  0.8600
16439SOL     OW51695   1.309   7.889   0.640 -0.1592  0.3527 -0.3348
16439SOL    HW151696   1.348   7.823   0.583 -0.6671  1.8086 -2.4855
16439SOL    HW251697   1.377   7.957   0.647  0.1226 -0.0488  1.3411
16440SOL     OW51698   6.025   7.996   5.853  0.7844  0.3826 -0.3730
16440SOL    HW151699   6.117   7.977   5.833  0.8543  0.1632  0.1458
16440SOL    HW251700   6.027   8.083   5.893  0.7613  0.3939 -0.3965
16441SOL     OW51701   9.548   1.741   8.880 -0.5686  0.1640 -0.6252
16441SOL    HW151702   9.506   1.827   8.872  0.9392  0.9022 -0.9201
16441SOL    HW251703   9.517   1.707   8.964 -1.7765  0.6404 -0.8508
16442SOL     OW51704   1.184   5.039   6.954 -0.4057 -0.2492 -0.3624
16442SOL    HW151705   1.279   5.026   6.953 -0.3278  0.1856  0.3441
16442SOL    HW251706   1.172   5.127   6.990 -1.1674 -1.8667  3.9051
16443SOL     OW51707   4.827   9.211   4.501  0.4346 -0.2389 -0.4806
16443SOL    HW151708   4.849   9.136   4.446 -0.8384 -1.7511  0.9513
16443SOL    HW251709   4.852   9.184   4.589  0.3814  1.2344  0.0111
16444SOL     OW51710   2.466   1.092   2.809 -0.1908  0.5403 -0.0087
16444SOL    HW151711   2.462   1.187   2.798 -2.3560  0.4206 -0.7754
16444SOL    HW251712   2.482   1.057   2.722 -2.1098  0.1388 -0.2389
16445SOL     OW51713   3.158   9.240   3.174  0.2220 -0.4513  0.3561
16445SOL    HW151714   3.174   9.222   3.266 -0.3663 -0.7387  0.4072
16445SOL    HW251715   3.175   9.334   3.165 -3.8506  0.6226  1.7287
16446SOL     OW51716   5.890   8.038   4.163 -0.2491 -0.0793  0.6591
16446SOL    HW151717   5.813   8.085   4.196 -0.7923 -0.5404  0.0589
16446SOL    HW251718   5.873   7.946   4.185 -0.0262 -0.2259  0.2205
16447SOL     OW51719  10.007   8.255   6.925  0.0219  0.9267 -0.2705
16447SOL    HW151720  10.025   8.303   6.844  1.3995 -0.2800 -0.7408
16447SOL    HW251721  10.076   8.283   6.985  0.4753  0.0261 -0.3519
16448SOL     OW51722   2.979   4.345   6.397  0.0254 -0.3197 -0.3791
16448SOL    HW151723   3.069   4.368   6.374 -0.6839 -0.6820 -4.2120
16448SOL    HW251724   2.927   4.421   6.370 -0.8886  0.0690  2.1701
16449SOL     OW51725   6.949   3.434   9.499  0.2626 -0.3179 -0.1351
16449SOL    HW151726   7.035   3.452   9.463 -0.4828 -0.7431 -2.2636
16449SOL    HW251727   6.960   3.355   9.552  1.0940 -0.5656 -0.6762
16450SOL     OW51728   7.294   5.486   9.743  0.0526  0.2232  0.2871
16450SOL    HW151729   7.239   5.413   9.715  0.5147  0.5637 -1.6321
16450SOL    HW251730   7.360   5.495   9.675  2.9596 -0.5512  2.7667
16451SOL     OW51731   6.069   8.276   2.920 -0.2011  0.4178  0.0378
16451SOL    HW151732   5.975   8.289   2.936  0.0507  2.2518  0.2529
16451SOL    HW251733   6.107   8.363   2.931  1.3866 -0.0891 -1.0904
16452SOL     OW51734   5.255   4.085  10.211  0.1499 -0.1748 -0.0573
16452SOL    HW151735   5.276   4.063  10.120  0.3926  0.7004 -0.2193
16452SOL    HW251736   5.206   4.009  10.243  1.0073 -0.9814 -0.5834
16453SOL     OW51737   5.308  10.215  10.762  0.2395 -0.3304 -0.0269
16453SOL    HW151738   5.232  10.172  10.723 -0.8499  1.9767 -0.6104
16453SOL    HW251739   5.272  10.271  10.831  1.3915  0.8341 -0.3200
16454SOL     OW51740   1.968   1.239   2.919  0.1378  0.0411  0.4099
16454SOL    HW151741   1.929   1.207   2.838  0.1221 -0.3838  0.5800
16454SOL    HW251742   1.895   1.278   2.968  0.3221  1.1725 -0.1932
16455SOL     OW51743   9.912   8.476   8.081 -0.6325 -0.1418  0.6144
16455SOL    HW151744   9.864   8.456   8.000 -1.8950  0.7207  1.1181
16455SOL    HW251745   9.916   8.571   8.083 -1.3418 -0.1282  1.9824
16456SOL     OW51746   5.673   9.202   0.188  0.0158  0.0654  0.4979
16456SOL    HW151747   5.631   9.287   0.207  0.2717  0.4977 -0.8035
16456SOL    HW251748   5.730   9.220   0.113  0.1316 -1.2567  0.2590
16457SOL     OW51749   6.503   2.085   8.448 -0.1022  0.1615  0.4070
16457SOL    HW151750   6.480   2.063   8.537  0.7546 -1.5397  0.2487
16457SOL    HW251751   6.551   2.168   8.455  1.5018 -0.8312  1.7649
16458SOL     OW51752   8.399   6.867   3.645  0.1703 -0.4778 -0.0758
16458SOL    HW151753   8.453   6.946   3.641  0.6236 -0.7507  0.5558
16458SOL    HW251754   8.442   6.811   3.710 -0.2345 -1.1784 -0.3939
16459SOL     OW51755   1.218   0.664   6.885 -0.3805 -0.0063  0.0024
16459SOL    HW151756   1.188   0.754   6.896 -1.2843 -0.1117 -1.3916
16459SOL    HW251757   1.195   0.620   6.967 -1.8760  0.5137 -0.1147
16460SOL     OW51758   5.580   8.997   4.045 -0.2562  0.1356 -0.4041
16460SOL    HW151759   5.511   8.947   4.001 -0.9732  0.4288  0.3628
16460SOL    HW251760   5.614   8.936   4.111 -2.1939  1.0963  1.6030
16461SOL     OW51761   2.344  10.617   4.673 -0.5900  0.1856  0.0160
16461SOL    HW151762   2.260  10.572   4.664 -1.2848  1.3616  0.5261
16461SOL    HW251763   2.344  10.682   4.603 -0.9925  1.5498  1.2548
16462SOL     OW51764   8.335   1.790   0.505 -0.3275 -0.1887  0.2608
16462SOL    HW151765   8.324   1.791   0.410  1.9759  0.6553 -0.0501
16462SOL    HW251766   8.248   1.765   0.539 -1.1738 -0.5884 -2.0313
16463SOL     OW51767   1.632   4.665   1.913  0.5495 -0.3805  0.1834
16463SOL    HW151768   1.565   4.710   1.965  0.6569 -0.0275  0.0143
16463SOL    HW251769   1.596   4.577   1.901  0.9518 -0.7896  1.6794
16464SOL     OW51770   9.746   3.198  10.788  0.1256 -0.4185  0.1138
16464SOL    HW151771   9.796   3.257  10.731 -0.8319  0.2645 -0.0394
16464SOL    HW251772   9.733   3.248  10.869 -0.2923 -0.5946  0.1573
16465SOL     OW51773   3.109   1.851   0.037 -0.3307  0.8345  0.3460
16465SOL    HW151774   3.166   1.854  -0.041 -1.3652  0.3459 -0.4612
16465SOL    HW251775   3.020   1.848   0.001 -0.8174  0.1341  1.5432
16466SOL     OW51776   6.137   6.416   5.775 -0.1893  0.2480 -0.3467
16466SOL    HW151777   6.046   6.445   5.770  0.3574  2.1174 -0.3262
16466SOL    HW251778   6.160   6.423   5.868  0.1680  0.4702 -0.4477
16467SOL     OW51779   0.087   1.767  10.118 -0.2287 -0.0757 -0.4826
16467SOL    HW151780   0.140   1.744  10.194 -0.5084  0.4716 -0.1174
16467SOL    HW251781   0.110   1.701  10.052 -0.6850 -1.1331  0.3787
16468SOL     OW51782   5.072   7.725   3.004  0.7682  0.1532 -0.1114
16468SOL    HW151783   5.001   7.773   3.047  0.2414  0.6133 -1.4404
16468SOL    HW251784   5.128   7.696   3.076 -0.4908  0.2108  0.9396
16469SOL     OW51785   7.872   6.245   0.351 -0.2492 -0.1130  0.2039
16469SOL    HW151786   7.910   6.191   0.282  1.0393 -0.4516  1.1331
16469SOL    HW251787   7.829   6.182   0.409 -0.0231 -0.0032  0.4971
16470SOL     OW51788   2.180   7.484   1.346 -0.0369 -0.0287 -0.0317
16470SOL    HW151789   2.208   7.566   1.386  0.7635  0.0934 -0.8267
16470SOL    HW251790   2.129   7.440   1.415 -0.9671  1.3776  0.2196
16471SOL     OW51791   8.848  10.092  10.593 -0.6511  0.3214  0.1983
16471SOL    HW151792   8.766  10.104  10.642 -0.3419  0.5190  0.6722
16471SOL    HW251793   8.822  10.046  10.513 -1.3782  1.2117 -0.0989
16472SOL     OW51794   4.716   9.382   4.789  0.2379 -0.3882  0.1073
16472SOL    HW151795   4.682   9.331   4.862 -0.8221 -0.1539 -0.1959
16472SOL    HW251796   4.671   9.346   4.712 -1.7234  1.9067  0.0444
16473SOL     OW51797   4.840   3.950   8.769 -0.3809  0.1243 -0.5530
16473SOL    HW151798   4.761   3.967   8.718  0.1303  1.4197 -0.9569
16473SOL    HW251799   4.814   3.965   8.860 -0.6918  0.1808 -0.6505
16474SOL     OW51800   2.116   8.126  10.311  0.0164 -0.6684  0.3358
16474SOL    HW151801   2.077   8.187  10.249  1.0252 -0.6108 -0.2590
16474SOL    HW251802   2.042   8.083  10.353 -0.6777 -1.2311 -1.4158
16475SOL     OW51803   3.564   8.558   1.826  0.2629  0.2958 -0.6063
16475SOL    HW151804   3.562   8.500   1.902  1.3251  0.6321 -0.3065
16475SOL    HW251805   3.520   8.637   1.855 -0.4435 -0.0378 -0.7497
16476SOL     OW51806   2.238   7.287   1.741 -0.2831  0.2753 -0.2895
16476SOL    HW151807   2.192   7.323   1.817  0.0044 -1.0258  0.5186
16476SOL    HW251808   2.262   7.198   1.767 -0.2256 -0.2135 -1.9319
16477SOL     OW51809   8.699   9.056   9.139 -0.1244  0.1310  0.1753
16477SOL    HW151810   8.753   9.072   9.062 -2.5869  2.8294 -1.1996
16477SOL    HW251811   8.663   8.969   9.125  2.0288 -0.7882  0.0249
16478SOL     OW51812   7.335   6.786   8.401 -0.1260 -0.3343 -0.1789
16478SOL    HW151813   7.335   6.836   8.319 -1.9546 -0.2126 -0.1300
16478SOL    HW251814   7.421   6.744   8.403  0.3098  0.4210 -1.6823
16479SOL     OW51815   8.709   3.950   3.642 -0.2754  0.5266 -0.6652
16479SOL    HW151816   8.761   3.939   3.562 -0.8933  2.7465 -1.4441
16479SOL    HW251817   8.773   3.947   3.713  1.0725  3.2394 -1.6000
16480SOL     OW51818   0.823   7.966   9.560  0.4558  0.5808 -0.0437
16480SOL    HW151819   0.817   8.009   9.646 -0.2681  1.3131 -0.4411
16480SOL    HW251820   0.763   7.892   9.567  1.2208 -0.0109  0.4316
16481SOL     OW51821   7.991   4.573   3.658  0.2907  0.4431  0.2914
16481SOL    HW151822   7.905   4.589   3.697  0.4720  2.8981 -0.1534
16481SOL    HW251823   8.012   4.483   3.682 -2.1630 -0.0612  0.8445
16482SOL     OW51824   9.608   1.440   3.340  0.1108  0.0555  0.0435
16482SOL    HW151825   9.650   1.354   3.346  1.6341  0.6213 -1.6506
16482SOL    HW251826   9.655   1.494   3.404 -0.9533 -0.3531  1.2253
16483SOL     OW51827   3.648   1.289  10.650 -0.4196 -0.4075  0.2331
16483SOL    HW151828   3.652   1.269  10.557  0.0006 -0.5631  0.2857
16483SOL    HW251829   3.562   1.331  10.662  0.4662  1.7982 -0.6444
16484SOL     OW51830  10.766   9.532   1.562  0.0369  0.2472 -0.1155
16484SOL    HW151831  10.830   9.465   1.589 -1.4168 -1.0619  0.2470
16484SOL    HW251832  10.779   9.541   1.467 -0.5892 -1.5519 -0.4143
16485SOL     OW51833   9.902   6.204   2.742 -0.7422 -0.4556 -1.0601
16485SOL    HW151834   9.887   6.109   2.746 -0.6446 -0.4199  1.1929
16485SOL    HW251835   9.995   6.212   2.720  0.5329 -1.0867  3.2265
16486SOL     OW51836   3.013   2.477   4.356 -0.2575  0.5715  0.2325
16486SOL    HW151837   3.080   2.469   4.424 -0.1333  1.4406  0.2262
16486SOL    HW251838   2.942   2.419   4.385 -0.9033  2.1469  1.9793
16487SOL     OW51839   0.591   1.671   6.502 -0.5760 -0.6367 -0.1939
16487SOL    HW151840   0.655   1.638   6.439  0.4554 -0.4050  0.7087
16487SOL    HW251841   0.608   1.765   6.507 -0.1386 -0.7670  0.9884
16488SOL     OW51842   5.771   0.848   2.536  0.8126 -0.3686  0.6205
16488SOL    HW151843   5.786   0.909   2.464  0.2629  0.8019  1.4788
16488SOL    HW251844   5.859   0.818   2.561  1.0162 -0.6770 -0.4233
16489SOL     OW51845   9.891   8.755   5.028  0.7426 -0.5355 -0.0050
16489SOL    HW151846   9.899   8.706   5.110 -1.3817 -1.0901 -0.0765
16489SOL    HW251847   9.951   8.828   5.038 -0.3155  0.0819  2.5774
16490SOL     OW51848   2.577   5.593   3.325 -0.2228  0.1015 -0.3368
16490SOL    HW151849   2.609   5.613   3.413 -0.0635 -1.0671 -0.1218
16490SOL    HW251850   2.654   5.558   3.279 -0.8536 -1.5331 -0.2007
16491SOL     OW51851   6.063   1.581   6.187  0.8428  0.2703  0.2999
16491SOL    HW151852   6.095   1.596   6.276 -1.2306 -1.0964  1.3312
16491SOL    HW251853   6.118   1.510   6.154  2.0198  1.1797  0.2047
16492SOL     OW51854   3.666   6.796   5.770  0.0398 -0.2613 -0.6513
16492SOL    HW151855   3.683   6.874   5.716 -0.8869 -0.1010 -0.7196
16492SOL    HW251856   3.748   6.783   5.818  0.3226  0.5611 -0.8838
16493SOL     OW51857   0.506   1.356   6.950 -0.1193 -0.3038  0.4424
16493SOL    HW151858   0.512   1.392   6.861 -1.1806 -2.3607 -0.5432
16493SOL    HW251859   0.442   1.411   6.994  0.1385  0.5207 -0.1921
16494SOL     OW51860   7.987   5.402   0.201  0.0453 -0.6881  0.0266
16494SOL    HW151861   8.075   5.427   0.174  0.8582 -2.3685  0.9679
16494SOL    HW251862   7.980   5.433   0.291 -1.5995  2.3514 -1.0130
16495SOL     OW51863   9.266   4.295   8.832 -0.0700  0.1133  0.4713
16495SOL    HW151864   9.238   4.217   8.881 -0.7236  0.0818  0.0728
16495SOL    HW251865   9.283   4.361   8.898  1.4634 -0.6548  0.8833
16496SOL     OW51866   2.660   5.360   2.496 -0.3641  0.1665  0.2052
16496SOL    HW151867   2.630   5.451   2.488 -0.0294  0.1574 -1.3198
16496SOL    HW251868   2.743   5.366   2.544 -1.1452  0.4841  1.5879
16497SOL     OW51869   8.544   9.268  10.331 -0.3431 -0.2459 -0.1540
16497SOL    HW151870   8.490   9.347  10.337  0.9774  0.6616  0.1002
16497SOL    HW251871   8.532   9.225  10.416 -1.1209 -0.3530 -0.3159
16498SOL     OW51872   5.501   2.913   5.005 -1.1112 -0.0848  0.0101
16498SOL    HW151873   5.553   2.914   4.925 -1.5146  0.5600 -0.2469
16498SOL    HW251874   5.500   2.821   5.032 -2.9322 -0.7496 -2.0317
16499SOL     OW51875   4.083   2.051   8.990 -0.0684  0.2380 -0.5176
16499SOL    HW151876   4.077   2.093   8.905 -2.1827 -0.4934 -0.7878
16499SOL    HW251877   3.992   2.035   9.016  0.5597 -2.6297  0.3012
16500SOL     OW51878   6.271   5.593  10.132  0.8798 -0.1595 -0.5198
16500SOL    HW151879   6.320   5.548  10.064  2.1875 -0.0495  0.3177
16500SOL    HW251880   6.337   5.626  10.193 -0.1853  0.6516  0.2604
16501SOL     OW51881   5.789   1.929   5.999  0.1890 -0.3997 -0.1193
16501SOL    HW151882   5.877   1.896   6.020  0.2596  0.4357  1.0141
16501SOL    HW251883   5.744   1.929   6.083  0.4877  3.2294  0.2025
16502SOL     OW51884   1.213   1.964   3.801  0.0310  0.3040 -0.1069
16502SOL    HW151885   1.171   2.023   3.863 -0.4589  0.6596 -0.7676
16502SOL    HW251886   1.170   1.879   3.816  0.3244  0.2429  0.4340
16503SOL     OW51887   0.517   9.187   5.742 -0.4201  0.0689 -0.6812
16503SOL    HW151888   0.490   9.216   5.829  0.5499  0.8024 -0.6021
16503SOL    HW251889   0.539   9.268   5.696  0.8753 -0.4314 -0.9769
16504SOL     OW51890   9.062   8.155   8.402  0.3090 -0.5322 -0.5847
16504SOL    HW151891   9.145   8.175   8.446 -0.4772  0.4987  0.4815
16504SOL    HW251892   9.078   8.070   8.359  1.2506 -1.4206  1.3861
16505SOL     OW51893   5.169   5.589   3.701  0.4876  0.0738  0.2358
16505SOL    HW151894   5.162   5.659   3.765 -0.8276  0.2276 -0.0451
16505SOL    HW251895   5.237   5.617   3.640  1.1236  0.3298  1.0607
16506SOL     OW51896   9.326   6.133   4.698  0.0433 -0.4888  0.2467
16506SOL    HW151897   9.277   6.103   4.775 -0.9008 -0.6536 -0.4100
16506SOL    HW251898   9.409   6.085   4.702 -0.0297 -0.5688  1.0996
16507SOL     OW51899   4.714   1.807   0.242  0.5417  0.2400  0.4026
16507SOL    HW151900   4.688   1.887   0.197  1.5759  0.4160  0.1025
16507SOL    HW251901   4.704   1.738   0.177  1.6238  0.4342  0.0020
16508SOL     OW51902   8.180   0.533  10.594 -0.4377 -0.7594 -0.2003
16508SOL    HW151903   8.110   0.508  10.532 -1.4752 -0.4809  0.8164
16508SOL    HW251904   8.192   0.626  10.579 -0.3721 -0.7832 -0.2959
16509SOL     OW51905   8.481   2.864   1.433  0.3199 -0.0451 -0.0731
16509SOL    HW151906   8.426   2.938   1.405 -0.5955 -0.1234  1.4015
16509SOL    HW251907   8.541   2.903   1.497  2.2170  0.0863 -1.8215
16510SOL     OW51908   0.731   7.434   0.346  0.0074  0.4275 -0.5531
16510SOL    HW151909   0.679   7.361   0.312 -1.5612  0.9517  0.5788
16510SOL    HW251910   0.744   7.491   0.270 -2.0268  0.7867 -0.6946
16511SOL     OW51911   2.006   7.314   0.590 -0.3682  0.0829  0.7142
16511SOL    HW151912   2.018   7.229   0.633  2.4660  0.0147 -0.0482
16511SOL    HW251913   1.937   7.298   0.525  0.0127 -1.6173  0.6774
16512SOL     OW51914   0.715   2.963   6.706  0.0311  0.4530 -0.3419
16512SOL    HW151915   0.697   2.889   6.764 -0.9646  1.0800  0.1790
16512SOL    HW251916   0.792   2.936   6.655  0.5060 -0.3864  0.7853
16513SOL     OW51917   2.752   9.116   8.497 -0.5984 -0.0350 -0.0641
16513SOL    HW151918   2.767   9.098   8.590 -1.4678  1.4453  0.3993
16513SOL    HW251919   2.692   9.048   8.469 -0.3052 -0.5122  0.4457
16514SOL     OW51920   5.123   5.938  10.407 -0.4169  0.1897  0.2478
16514SOL    HW151921   5.218   5.947  10.405 -0.5018  1.1504  0.2408
16514SOL    HW251922   5.091   5.996  10.339 -1.0306  0.1724  0.5088
16515SOL     OW51923   8.713   2.081  10.515 -0.2747  0.5418 -0.0219
16515SOL    HW151924   8.674   1.995  10.503 -0.0270  0.6498 -2.0928
16515SOL    HW251925   8.756   2.077  10.601 -2.4636 -0.4703  1.0940
16516SOL     OW51926   3.857   6.485   1.920 -0.3034 -0.1166  0.0429
16516SOL    HW151927   3.790   6.491   1.988  0.5482 -0.4075  0.9298
16516SOL    HW251928   3.829   6.548   1.854 -1.4514 -0.2349  0.3880
16517SOL     OW51929   1.715   6.091   1.379  0.1363 -0.4829 -0.4148
16517SOL    HW151930   1.731   6.001   1.406 -1.2334 -0.9540 -1.0640
16517SOL    HW251931   1.726   6.143   1.458  1.4367 -1.1517 -0.1406
16518SOL     OW51932  10.612   2.033  10.667  0.2574 -1.1455  0.5299
16518SOL    HW151933  10.611   1.998  10.756  1.1635 -1.4088  0.4436
16518SOL    HW251934  10.526   2.076  10.658  0.5862 -0.0969  1.9234
16519SOL     OW51935   7.330   5.423  10.198 -0.7910  0.2316 -0.2932
16519SOL    HW151936   7.374   5.374  10.267  1.5207  0.0887 -1.7585
16519SOL    HW251937   7.321   5.361  10.126 -0.4579  1.1647 -1.1665
16520SOL     OW51938   1.856   4.498   3.689 -0.4457  0.3975  0.1276
16520SOL    HW151939   1.842   4.502   3.784  1.3568 -0.2565  0.4666
16520SOL    HW251940   1.886   4.586   3.666  0.4990  0.1759  0.4481
16521SOL     OW51941   8.193   0.249   0.115 -0.0868  0.1527  0.2941
16521SOL    HW151942   8.182   0.177   0.053  1.7067 -0.6455  0.8370
16521SOL    HW251943   8.160   0.326   0.068 -2.0923 -0.9885 -0.2761
16522SOL     OW51944   4.580   2.557   2.666  0.3608 -0.5658 -0.1293
16522SOL    HW151945   4.602   2.530   2.755  0.1831  2.4660  0.9455
16522SOL    HW251946   4.486   2.576   2.669  0.7365  1.5721 -0.3073
16523SOL     OW51947   8.617   7.928   9.603 -0.4943 -0.1148  0.5187
16523SOL    HW151948   8.707   7.894   9.605 -0.2232  0.5970  2.0277
16523SOL    HW251949   8.565   7.856   9.639 -0.7044 -0.8908 -1.2281
16524SOL     OW51950   5.588   0.187   2.604 -0.4539  0.3202  0.5773
16524SOL    HW151951   5.659   0.127   2.579  0.1798  0.9954  0.7075
16524SOL    HW251952   5.508   0.139   2.585 -0.0089  0.3592 -1.6879
16525SOL     OW51953   4.892   6.961   5.370 -0.1770 -0.2787 -0.0661
16525SOL    HW151954   4.891   6.992   5.460  0.8516  1.3254 -0.5633
16525SOL    HW251955   4.927   6.871   5.376 -2.1104 -0.9950  1.2999
16526SOL     OW51956   5.780   8.660   8.052 -0.4810  0.0450 -0.9217
16526SOL    HW151957   5.699   8.639   8.005  0.2873 -2.5604 -1.2395
16526SOL    HW251958   5.772   8.614   8.135  0.2412  0.6295 -0.5142
16527SOL     OW51959   4.021   1.194  10.525 -0.3286 -0.2735 -0.2384
16527SOL    HW151960   4.066   1.148  10.453 -0.0763 -0.0716 -0.2087
16527SOL    HW251961   3.952   1.243  10.481 -0.6815 -0.7762 -0.2585
16528SOL     OW51962   6.471   4.145   9.701  0.3803 -0.4995 -0.3488
16528SOL    HW151963   6.448   4.211   9.765  0.8727  0.5775 -1.2527
16528SOL    HW251964   6.553   4.107   9.733  0.7024  0.1359 -0.4114
16529SOL     OW51965   4.767   2.800   9.573  0.0183 -0.0249  1.0247
16529SOL    HW151966   4.860   2.825   9.572  0.1974 -0.6712  0.7948
16529SOL    HW251967   4.720   2.883   9.576  0.5749  0.3573 -0.2065
16530SOL     OW51968   3.556   8.516   2.756 -0.2145 -0.3628  0.0827
16530SOL    HW151969   3.466   8.486   2.773  0.1674 -0.6894  1.6798
16530SOL    HW251970   3.559   8.528   2.661 -1.3610 -2.2333 -0.2526
16531SOL     OW51971   0.461   0.407   6.465 -0.0317  0.6720  0.2335
16531SOL    HW151972   0.551   0.440   6.471  0.2609 -0.3141  1.7089
16531SOL    HW251973   0.455   0.341   6.534 -1.9404  0.8056  0.2434
16532SOL     OW51974   2.211   3.887   8.191  0.1071  0.0620 -0.1062
16532SOL    HW151975   2.166   3.963   8.227  0.8865  0.5343 -0.0992
16532SOL    HW251976   2.148   3.815   8.200 -0.1826  0.4339  1.0541
16533SOL     OW51977   8.711   4.459   9.935 -0.3424 -0.0260 -0.1204
16533SOL    HW151978   8.627   4.462   9.981 -1.0743  0.6567 -1.4293
16533SOL    HW251979   8.687   4.453   9.843  1.0645 -0.0621 -0.5021
16534SOL     OW51980   6.924   8.281   7.943  0.1330 -0.0666 -0.4000
16534SOL    HW151981   6.904   8.197   7.985 -0.5855  0.3029  0.0275
16534SOL    HW251982   7.005   8.265   7.894 -1.5196 -1.8603 -2.7829
16535SOL     OW51983  10.372   9.372   3.368  0.3963 -0.0666 -0.0806
16535SOL    HW151984  10.408   9.291   3.333 -1.4159 -1.3255  0.8195
16535SOL    HW251985  10.381   9.364   3.463 -1.5688 -0.1613  0.1367
16536SOL     OW51986   9.335   0.598  10.582 -0.4811  0.0028  0.2274
16536SOL    HW151987   9.264   0.602  10.518 -0.3946 -0.1478  0.1201
16536SOL    HW251988   9.347   0.689  10.609 -2.6246 -0.2701  2.3932
16537SOL     OW51989   3.304   7.537   9.944  0.2211 -0.4159 -0.2299
16537SOL    HW151990   3.357   7.470   9.900 -1.4087 -2.7503  1.1587
16537SOL    HW251991   3.213   7.514   9.923 -0.4349  2.6610 -1.4070
16538SOL     OW51992   1.707   6.105   8.978  0.0168 -0.6419  0.2751
16538SOL    HW151993   1.732   6.173   9.042  1.3862  0.2356 -1.1151
16538SOL    HW251994   1.635   6.145   8.929  0.8378 -0.1520 -0.5574
16539SOL     OW51995   7.677   9.586   3.653  0.3589  0.1150  0.0163
16539SOL    HW151996   7.633   9.535   3.721 -0.3992 -0.5662 -0.9471
16539SOL    HW251997   7.685   9.525   3.580 -0.1455  1.2324 -1.0079
16540SOL     OW51998   2.522   5.287   4.561  0.2569 -0.0348 -0.6287
16540SOL    HW151999   2.557   5.371   4.589 -1.0570 -0.1559  1.6287
16540SOL    HW252000   2.587   5.223   4.590 -0.1199  0.0033  0.3229
16541SOL     OW52001   9.827   8.969   4.671  0.5417  0.2795 -0.0055
16541SOL    HW152002   9.769   9.002   4.601 -0.0189  0.2964  0.4583
16541SOL    HW252003   9.866   9.047   4.709 -0.8064  0.4567  1.1104
16542SOL     OW52004   9.287   2.525   1.033 -0.6582  0.0519 -0.5486
16542SOL    HW152005   9.304   2.431   1.045 -1.4092 -0.1016 -0.6420
16542SOL    HW252006   9.276   2.535   0.938 -1.7337  0.0255 -0.4365
16543SOL     OW52007   0.562   8.243   4.839  0.3966 -0.6153 -0.5980
16543SOL    HW152008   0.503   8.238   4.914 -0.5412  1.1726 -1.1682
16543SOL    HW252009   0.516   8.197   4.769 -0.2922  0.6459 -0.9990
16544SOL     OW52010   1.211   5.185   7.204 -0.4759 -0.3818  0.2946
16544SOL    HW152011   1.159   5.264   7.212  0.8546  0.5911 -0.3573
16544SOL    HW252012   1.249   5.171   7.291 -0.4853 -0.1375  0.3367
16545SOL     OW52013   1.199   9.116   4.092  0.0649 -0.1617 -0.1471
16545SOL    HW152014   1.139   9.078   4.155 -0.6899 -0.3561 -0.9632
16545SOL    HW252015   1.209   9.050   4.024  3.8376 -1.5843  1.4961
16546SOL     OW52016   2.595   5.313   6.395  0.2246 -0.5070 -0.3176
16546SOL    HW152017   2.547   5.395   6.407  1.4874  0.4620 -1.5211
16546SOL    HW252018   2.527   5.246   6.385 -0.8400  0.2217  1.4941
16547SOL     OW52019   5.501   4.794   9.580  0.3628  0.6685  0.1269
16547SOL    HW152020   5.408   4.797   9.603  0.2815  1.5871 -0.2703
16547SOL    HW252021   5.547   4.806   9.663  0.1243  0.1390  0.3338
16548SOL     OW52022   8.900  10.577   9.743  0.2948  0.1444 -0.6975
16548SOL    HW152023   8.852  10.582   9.825 -0.2836 -0.9862 -0.9319
16548SOL    HW252024   8.886  10.662   9.701 -0.0874  0.4334  0.0048
16549SOL     OW52025   1.962   1.354   7.218 -0.0732 -0.5835  0.2501
16549SOL    HW152026   1.995   1.383   7.303 -2.1020 -0.0595  0.9044
16549SOL    HW252027   1.957   1.258   7.226  3.5986 -1.0165 -0.8008
16550SOL     OW52028   3.515   7.981   8.950  0.2098 -0.0998 -0.3230
16550SOL    HW152029   3.467   7.992   9.032 -0.3360 -0.6040 -0.5682
16550SOL    HW252030   3.453   7.938   8.891  0.6402  0.1297 -0.9610
16551SOL     OW52031   6.781   2.166   3.815 -0.0328  0.1407 -0.1755
16551SOL    HW152032   6.726   2.235   3.776  1.8915  0.0377 -3.5065
16551SOL    HW252033   6.754   2.087   3.769  1.3938 -0.2766 -0.3401
16552SOL     OW52034   1.829   2.266  10.480  0.9631  0.2862  0.2766
16552SOL    HW152035   1.915   2.300  10.456  0.8832  1.1461  1.1766
16552SOL    HW252036   1.808   2.203  10.411  1.2654  1.7991 -1.2557
16553SOL     OW52037   1.645   0.457   7.996 -0.1765  0.3452  0.1206
16553SOL    HW152038   1.728   0.462   8.044 -0.2294  0.4268  0.2038
16553SOL    HW252039   1.582   0.500   8.053  0.3242  3.1675 -1.2719
16554SOL     OW52040   6.273   1.064   1.748 -0.2584  0.0916 -0.2050
16554SOL    HW152041   6.362   1.100   1.755  0.4905 -1.7403  0.1490
16554SOL    HW252042   6.272   1.020   1.663 -1.0156  0.5557 -0.4438
16555SOL     OW52043   0.543   1.266   5.783  0.2889  0.5819 -0.2582
16555SOL    HW152044   0.614   1.248   5.721  0.5595  1.4558 -0.2080
16555SOL    HW252045   0.576   1.335   5.840 -0.1838  0.2126  0.4915
16556SOL     OW52046   8.889   0.668   9.439  0.9043  0.6901  0.3898
16556SOL    HW152047   8.885   0.590   9.494  0.3369  0.2410 -0.2675
16556SOL    HW252048   8.981   0.695   9.442  1.3184 -0.5710 -0.1264
16557SOL     OW52049   2.417   9.574   4.218 -0.2158  0.2451 -0.5588
16557SOL    HW152050   2.462   9.641   4.167  0.6616  1.0005  1.1294
16557SOL    HW252051   2.451   9.584   4.307 -1.9249 -0.7820  0.2746
16558SOL     OW52052   0.144   1.003   2.925  0.1362 -0.3443 -0.6042
16558SOL    HW152053   0.052   0.979   2.909 -0.1694  1.3640 -1.6494
16558SOL    HW252054   0.140   1.093   2.956  1.5089  0.1469 -1.7495
16559SOL     OW52055   5.447   1.355   4.843 -0.4505 -0.2266 -0.0028
16559SOL    HW152056   5.515   1.421   4.828 -1.5361  0.4200 -2.6286
16559SOL    HW252057   5.467   1.286   4.780 -0.2532 -1.7163  1.6286
16560SOL     OW52058   8.178   6.767   0.296  0.2318  0.1122  0.4850
16560SOL    HW152059   8.181   6.826   0.371 -0.2652 -0.2147  0.7614
16560SOL    HW252060   8.152   6.683   0.332 -0.6855  0.1075 -0.1442
16561SOL     OW52061   2.963   4.326   7.130 -0.0494 -0.0878  0.2295
16561SOL    HW152062   3.002   4.393   7.186  1.0873 -0.2153 -0.3754
16561SOL    HW252063   2.968   4.364   7.042 -0.0295 -0.6734 -0.0244
16562SOL     OW52064   8.033   0.521   9.915  0.0617 -0.4462 -0.6008
16562SOL    HW152065   8.085   0.598   9.892 -0.7845 -0.4816 -2.8189
16562SOL    HW252066   8.045   0.461   9.842 -1.5935 -1.2149 -0.2747
16563SOL     OW52067   3.699   7.652   9.632  0.1868 -0.0960  0.4564
16563SOL    HW152068   3.740   7.658   9.545 -1.3338  0.7754 -0.2378
16563SOL    HW252069   3.773   7.643   9.692  1.5800  2.8859 -0.5827
16564SOL     OW52070   7.005   1.348   3.214  0.4592 -0.0567  0.2809
16564SOL    HW152071   7.038   1.342   3.303  0.3260  0.9180  0.4116
16564SOL    HW252072   6.967   1.262   3.196  0.5239 -0.2710  1.1487
16565SOL     OW52073   3.528   1.265   8.527 -0.3639 -0.1516 -0.0656
16565SOL    HW152074   3.548   1.172   8.535 -0.6333 -0.3287 -1.2757
16565SOL    HW252075   3.571   1.305   8.603 -3.8878 -1.7731  3.1581
16566SOL     OW52076   4.359   2.346   7.390 -0.2960  0.1473  0.3290
16566SOL    HW152077   4.404   2.343   7.305  0.9318 -1.2489  0.9770
16566SOL    HW252078   4.266   2.355   7.367  0.0538  0.4251 -1.1304
16567SOL     OW52079   9.731   3.977   6.950 -0.4097 -0.1942 -0.4642
16567SOL    HW152080   9.765   4.041   7.012  0.7040 -1.1631 -0.0467
16567SOL    HW252081   9.707   3.901   7.003 -1.9851 -0.0702 -0.9183
16568SOL     OW52082   4.152   5.257   0.534  0.1007  0.5239 -0.1156
16568SOL    HW152083   4.108   5.181   0.571 -1.3715  1.1540 -0.4756
16568SOL    HW252084   4.246   5.240   0.546 -0.2556 -0.2980  1.8185
16569SOL     OW52085   9.677   7.992   0.701 -0.2265  0.2122 -0.0176
16569SOL    HW152086   9.649   7.966   0.613  0.7819  0.6040 -0.4690
16569SOL    HW252087   9.641   7.925   0.758  0.5264 -0.9987 -0.9253
16570SOL     OW52088   8.331   7.954   1.779 -0.7103 -0.4330  0.1064
16570SOL    HW152089   8.376   7.916   1.854  1.4670 -0.3893 -1.1049
16570SOL    HW252090   8.372   7.913   1.703 -3.1322 -0.7889 -1.0989
16571SOL     OW52091   4.524   8.535   9.268 -0.2326 -0.5886 -0.0535
16571SOL    HW152092   4.591   8.495   9.213  0.4272  0.6570 -0.1965
16571SOL    HW252093   4.507   8.470   9.337  1.9511 -0.4919  0.6547
16572SOL     OW52094   6.631   8.649   0.393 -0.5527 -0.4759 -0.0713
16572SOL    HW152095   6.538   8.672   0.391 -0.2650  1.0600  1.7038
16572SOL    HW252096   6.635   8.571   0.448 -0.6703  0.2645  1.0098
16573SOL     OW52097   5.028   8.641   5.959 -0.1041  0.4503 -0.0518
16573SOL    HW152098   4.942   8.612   5.928 -0.0279 -0.2030  0.3407
16573SOL    HW252099   5.036   8.605   6.047  0.7634  0.1163 -0.2551
16574SOL     OW52100   9.075   3.651   8.203 -0.3999 -0.3804  0.5623
16574SOL    HW152101   9.014   3.637   8.130 -0.4887  1.0974  0.3039
16574SOL    HW252102   9.161   3.627   8.169 -0.1735  1.9019 -0.6570
16575SOL     OW52103   5.330   0.908   8.610  0.0813  0.4369  0.3481
16575SOL    HW152104   5.323   0.850   8.686 -0.8790 -0.7402 -0.5868
16575SOL    HW252105   5.289   0.858   8.538  1.4104  1.2949 -1.0624
16576SOL     OW52106   4.633   7.882   4.623 -0.3163 -0.4501 -0.2012
16576SOL    HW152107   4.610   7.890   4.530 -1.9900 -1.8622  0.0231
16576SOL    HW252108   4.597   7.960   4.664 -0.2374 -0.1849 -0.6354
16577SOL     OW52109   3.929   0.947  10.356  0.2469 -0.5487 -0.6027
16577SOL    HW152110   4.022   0.955  10.334  0.2523  2.1374  0.0165
16577SOL    HW252111   3.891   0.899  10.282  2.1536 -2.0918 -0.6649
16578SOL     OW52112   5.742  10.416   1.495 -0.3465 -0.5110 -0.3961
16578SOL    HW152113   5.752  10.393   1.403  0.6997  0.6396 -0.6009
16578SOL    HW252114   5.722  10.333   1.538 -2.8082 -0.7806 -1.8922
16579SOL     OW52115   1.999   4.482   1.359 -0.3815 -0.4481  0.1465
16579SOL    HW152116   1.906   4.461   1.360 -0.6276  0.5804  0.5686
16579SOL    HW252117   2.015   4.521   1.273  0.0344 -2.1035 -0.5636
16580SOL     OW52118   0.177   2.310  10.604 -0.3740  0.3517 -0.3528
16580SOL    HW152119   0.249   2.372  10.601  0.5854 -0.7609 -1.7178
16580SOL    HW252120   0.125   2.329  10.526 -0.5124 -0.0637 -0.3652
16581SOL     OW52121   9.359   1.141   5.673  0.0044  0.0925  0.2435
16581SOL    HW152122   9.309   1.088   5.735  1.9529 -1.7000  0.4074
16581SOL    HW252123   9.450   1.133   5.702  0.6497  1.5747 -1.1802
16582SOL     OW52124   5.217   3.536  10.609 -0.4288 -0.4834 -0.0909
16582SOL    HW152125   5.233   3.548  10.702 -0.9129 -1.6502  0.1618
16582SOL    HW252126   5.304   3.523  10.571 -0.3870 -2.9162  0.6727
16583SOL     OW52127   0.607   7.037  10.783  0.1247 -0.8716  0.0818
16583SOL    HW152128   0.584   6.951  10.820 -0.5480 -0.3027  1.0288
16583SOL    HW252129   0.685   7.064  10.831 -0.1263 -0.6053  0.3429
16584SOL     OW52130   1.347   2.583   3.509  0.1095 -0.3458  0.2614
16584SOL    HW152131   1.362   2.578   3.603  0.9438 -0.9048  0.1116
16584SOL    HW252132   1.404   2.653   3.479 -0.1868 -0.1401  0.1790
16585SOL     OW52133   2.570   1.741   7.652  0.0357  0.1299  0.2195
16585SOL    HW152134   2.628   1.670   7.679  0.5932  0.1579 -0.8611
16585SOL    HW252135   2.515   1.702   7.583  1.9360  1.3161 -2.1087
16586SOL     OW52136   6.428   0.883   2.727  0.2117 -0.0981  0.0084
16586SOL    HW152137   6.492   0.938   2.771 -0.4533  0.4263  0.3523
16586SOL    HW252138   6.354   0.879   2.789 -0.3512 -0.1301 -0.6579
16587SOL     OW52139   3.599   2.463   1.704 -0.0363 -0.3504 -0.2432
16587SOL    HW152140   3.507   2.453   1.680 -0.0855 -0.2093 -0.1123
16587SOL    HW252141   3.647   2.449   1.622 -0.2636  1.4172 -0.7154
16588SOL     OW52142   1.026   0.332  10.280  0.3117 -0.2093 -0.0867
16588SOL    HW152143   1.022   0.366  10.369 -0.1605 -0.1818 -0.1177
16588SOL    HW252144   1.117   0.305  10.269  0.4536  0.1073  0.2853
16589SOL     OW52145   8.043   2.311   6.733 -0.0497  0.4732  0.3372
16589SOL    HW152146   8.009   2.396   6.705 -0.0177  0.7492  1.1357
16589SOL    HW252147   8.063   2.265   6.651 -0.0798  1.2247 -0.0942
16590SOL     OW52148   7.480   3.329   9.040 -0.3081  0.1514 -0.1227
16590SOL    HW152149   7.443   3.296   8.958 -0.6978  0.9574 -0.2817
16590SOL    HW252150   7.423   3.401   9.065 -0.1949 -0.0913  0.8736
16591SOL     OW52151   6.449   6.133   5.558  0.1087  0.5083 -0.5892
16591SOL    HW152152   6.382   6.078   5.519  0.2553 -1.1786  1.3602
16591SOL    HW252153   6.402   6.187   5.622  0.4537 -0.2265  0.3229
16592SOL     OW52154   5.702   5.145   5.697 -0.0582  0.7339  0.1087
16592SOL    HW152155   5.745   5.069   5.659  1.1022  1.0683  0.7226
16592SOL    HW252156   5.644   5.177   5.627  0.2195 -0.0788 -0.5113
16593SOL     OW52157   5.654   7.239   8.118 -0.0889  0.0225  0.1219
16593SOL    HW152158   5.565   7.227   8.085  0.0264 -1.3462  0.2364
16593SOL    HW252159   5.699   7.158   8.094  1.0132  0.5317  0.4235
16594SOL     OW52160   5.187   7.489   1.391  0.1014 -0.0233 -0.0902
16594SOL    HW152161   5.185   7.496   1.296 -2.8600  0.6554 -0.0597
16594SOL    HW252162   5.107   7.532   1.421  0.9466 -0.1785  2.7355
16595SOL     OW52163   4.101   0.623   0.099 -0.3725  0.4352 -0.4285
16595SOL    HW152164   4.078   0.684   0.170  0.9752 -0.4654  0.8378
16595SOL    HW252165   4.118   0.541   0.144  0.8621 -0.0730 -1.7859
16596SOL     OW52166   0.853   6.629   3.675 -0.3398 -0.5686 -0.0195
16596SOL    HW152167   0.764   6.633   3.640 -0.1003 -1.7042 -0.8243
16596SOL    HW252168   0.889   6.547   3.641  0.9083 -0.2981  0.5630
16597SOL     OW52169   4.451   7.023   9.958  0.4935  0.2099 -0.2827
16597SOL    HW152170   4.454   6.930   9.937  0.3974 -0.1354  1.1124
16597SOL    HW252171   4.507   7.032  10.036 -0.3956  1.1103  0.2811
16598SOL     OW52172   5.427   2.302   2.159 -0.3366 -0.2490 -0.2316
16598SOL    HW152173   5.422   2.331   2.068  1.0900 -2.7628 -1.2072
16598SOL    HW252174   5.518   2.278   2.172 -1.0323 -2.5484  0.9538
16599SOL     OW52175   0.899   2.357   7.333 -0.3032  0.2802 -0.1497
16599SOL    HW152176   0.840   2.282   7.332  0.7162 -0.5347 -0.4437
16599SOL    HW252177   0.975   2.328   7.384  0.4534  0.8243 -0.9343
16600SOL     OW52178   7.140  10.796   7.076 -0.0996 -0.3724  0.3565
16600SOL    HW152179   7.093  10.876   7.099 -1.0332 -0.1584 -2.0594
16600SOL    HW252180   7.106  10.730   7.136 -1.4249  0.4175  0.5048
16601SOL     OW52181   3.429   9.367   1.823  0.0724 -0.2485  0.1031
16601SOL    HW152182   3.407   9.367   1.729  0.5382 -1.0234 -0.0175
16601SOL    HW252183   3.523   9.352   1.825  0.4693  1.9156  0.6422
16602SOL     OW52184   8.824   1.450  10.410  0.6054 -0.2172  0.2704
16602SOL    HW152185   8.855   1.382  10.351  1.3361 -0.7378  1.2233
16602SOL    HW252186   8.903   1.487  10.449  0.1299 -0.2793  1.3413
16603SOL     OW52187   3.511   0.396   3.755 -0.2149  0.0336  0.2395
16603SOL    HW152188   3.472   0.387   3.842  0.7759  0.4314  0.7406
16603SOL    HW252189   3.594   0.349   3.762 -0.1046  0.1259 -0.4778
16604SOL     OW52190   6.193   8.951   5.163  0.0012  0.2050 -0.7039
16604SOL    HW152191   6.219   8.987   5.078 -0.1124  1.7948 -0.0989
16604SOL    HW252192   6.232   8.864   5.165 -0.4463 -0.1011 -2.6044
16605SOL     OW52193   6.333   9.105  10.288 -0.1712 -0.5339 -0.2140
16605SOL    HW152194   6.258   9.131  10.234 -0.9855  0.3538  1.2826
16605SOL    HW252195   6.294   9.075  10.370  1.0971 -0.6113  0.3829
16606SOL     OW52196   6.112   1.723   2.241  0.2033 -0.6154  0.6745
16606SOL    HW152197   6.180   1.716   2.174  0.6241  0.3634  0.9791
16606SOL    HW252198   6.097   1.817   2.250 -3.7428 -0.7521 -1.9307
16607SOL     OW52199   3.612   7.687   6.322  0.0905 -0.5046 -0.3083
16607SOL    HW152200   3.616   7.637   6.403  1.1772 -0.9079 -0.5977
16607SOL    HW252201   3.519   7.700   6.307 -0.1247 -0.3176  1.0656
16608SOL     OW52202   1.036   0.929   1.455  0.0728 -0.5428 -0.2380
16608SOL    HW152203   0.967   0.968   1.401  1.1126 -0.1381 -1.3166
16608SOL    HW252204   1.044   0.839   1.423  0.8482 -0.2342 -0.9379
16609SOL     OW52205  10.729   7.196  10.482 -0.2041 -0.3060 -0.1372
16609SOL    HW152206  10.702   7.240  10.401 -0.2063  0.3647  0.2237
16609SOL    HW252207  10.652   7.147  10.510 -0.5523  0.3462  0.0512
16610SOL     OW52208   6.432   3.545   1.856 -0.0477 -0.1707  0.1978
16610SOL    HW152209   6.527   3.552   1.849 -0.1056 -0.6928 -1.6295
16610SOL    HW252210   6.418   3.457   1.892  0.1493  0.3888  1.7403
16611SOL     OW52211   2.248   4.121   4.674 -0.4009  0.0667  0.1895
16611SOL    HW152212   2.196   4.130   4.753 -0.5398 -1.6774  0.3286
16611SOL    HW252213   2.188   4.144   4.603 -1.0844 -0.9635  0.4174
16612SOL     OW52214   4.374   1.004   3.650 -0.1903 -0.2712 -0.0766
16612SOL    HW152215   4.326   1.086   3.641  2.3438  1.0937 -2.3703
16612SOL    HW252216   4.378   0.989   3.745 -1.5995  1.6631  0.3524
16613SOL     OW52217   6.401   2.440   5.439 -0.2233 -0.0672  0.3659
16613SOL    HW152218   6.397   2.346   5.420  1.7467  0.2253 -1.9046
16613SOL    HW252219   6.478   2.450   5.494 -0.4785  0.2389  0.6766
16614SOL     OW52220   1.646   3.616   2.881 -0.3460 -0.3846  0.0663
16614SOL    HW152221   1.695   3.623   2.963  0.8446  0.0720 -0.6480
16614SOL    HW252222   1.566   3.667   2.896  0.2277  0.3531  0.6816
16615SOL     OW52223   8.164   4.154   6.531 -0.2051 -0.8795 -0.0451
16615SOL    HW152224   8.115   4.072   6.525 -0.0011 -0.9746 -0.4135
16615SOL    HW252225   8.111   4.209   6.590 -1.3328 -0.5699 -1.3072
16616SOL     OW52226   5.498   2.855   9.515 -0.0517  1.0817  0.1349
16616SOL    HW152227   5.502   2.950   9.515 -1.6801  1.1843 -0.1077
16616SOL    HW252228   5.468   2.832   9.603 -1.3715  0.9167 -0.3446
16617SOL     OW52229   6.971   8.919   8.699  0.1344 -0.1016  0.2151
16617SOL    HW152230   6.921   8.913   8.780 -1.7179  1.1887 -0.7362
16617SOL    HW252231   7.009   9.007   8.700 -2.2980  1.0811 -1.4978
16618SOL     OW52232   2.614   9.347   6.816  0.3428  0.2151  0.2475
16618SOL    HW152233   2.551   9.383   6.878  0.3188  0.2923  0.1780
16618SOL    HW252234   2.675   9.418   6.800  0.8914 -0.0883  0.9025
16619SOL     OW52235   2.820   6.744   4.072  0.7674 -0.0320  0.3946
16619SOL    HW152236   2.900   6.745   4.125  2.0830 -1.8707 -1.4405
16619SOL    HW252237   2.849   6.719   3.985 -2.0185 -2.7331  0.0774
16620SOL     OW52238   8.821   0.413   6.682 -0.6657  0.4121 -0.1621
16620SOL    HW152239   8.734   0.447   6.701 -1.4855 -1.7032  0.1098
16620SOL    HW252240   8.879   0.489   6.690 -2.4046  1.7630  0.1197
16621SOL     OW52241   7.988  10.451   7.558 -0.3326  0.0928 -0.5519
16621SOL    HW152242   7.913  10.430   7.614 -0.4607 -0.1325 -0.8017
16621SOL    HW252243   8.059  10.469   7.619 -0.2032 -1.1253 -0.3057
16622SOL     OW52244  10.165   7.435   3.492 -0.2672  0.1496 -0.2937
16622SOL    HW152245  10.226   7.415   3.563  0.3684 -0.0784 -0.8914
16622SOL    HW252246  10.185   7.371   3.424 -1.0789  0.1659 -0.5582
16623SOL     OW52247   0.934   7.897   8.456  0.0388  0.1563  0.1069
16623SOL    HW152248   0.925   7.985   8.420 -1.1712 -0.0495 -0.1088
16623SOL    HW252249   0.860   7.887   8.516 -0.1253 -0.9054 -0.2591
16624SOL     OW52250   9.844   9.106   1.301 -0.1379  0.0804 -0.3617
16624SOL    HW152251   9.837   9.026   1.353 -0.1383  0.8611  0.8738
16624SOL    HW252252   9.754   9.128   1.278 -0.1157 -0.4171 -0.9318
16625SOL     OW52253   0.863   3.506   7.445 -0.3506 -0.2641  0.0076
16625SOL    HW152254   0.883   3.580   7.388 -1.1190  1.1862  1.5353
16625SOL    HW252255   0.947   3.463   7.460  0.5697  1.7291  0.9564
16626SOL     OW52256   0.345   0.349   3.329 -0.2099 -0.6562  0.0652
16626SOL    HW152257   0.384   0.262   3.325  1.2239 -0.0709  0.8312
16626SOL    HW252258   0.266   0.337   3.381 -0.4953 -1.6554 -0.5681
16627SOL     OW52259   2.170   9.476   9.928  0.5140 -0.1327 -0.0555
16627SOL    HW152260   2.211   9.563   9.932  0.5958 -0.1389 -0.6427
16627SOL    HW252261   2.207   9.429  10.002 -0.1081  0.5813  0.7286
16628SOL     OW52262   7.093   3.863   6.431  0.4599  0.1511 -0.3341
16628SOL    HW152263   7.045   3.792   6.388  1.4084 -1.1505  0.6564
16628SOL    HW252264   7.061   3.862   6.522 -1.0983  2.4795 -0.7710
16629SOL     OW52265   7.505  10.311   0.465 -0.3773 -0.6582  0.3270
16629SOL    HW152266   7.439  10.253   0.503 -0.7660 -0.8436 -0.5871
16629SOL    HW252267   7.474  10.399   0.486 -0.9012 -0.7465 -0.0432
16630SOL     OW52268   6.796   3.490   7.536 -0.1786  0.1418 -0.6373
16630SOL    HW152269   6.855   3.429   7.492 -2.0263 -1.8365 -0.5307
16630SOL    HW252270   6.770   3.552   7.468  0.1026 -0.4652 -1.3092
16631SOL     OW52271   4.882   3.875   4.958  0.2619  0.0667  0.5520
16631SOL    HW152272   4.889   3.800   5.017  0.2477  0.0383  0.5181
16631SOL    HW252273   4.807   3.855   4.902  1.0695 -0.5402 -0.3516
16632SOL     OW52274   3.803   3.242   1.970  0.4493  0.1167  0.0641
16632SOL    HW152275   3.744   3.234   2.045  0.2748 -0.7195 -0.1467
16632SOL    HW252276   3.807   3.153   1.934  2.2050  0.0371  0.3543
16633SOL     OW52277  10.265   7.639   7.912 -0.4494 -0.9164 -0.0637
16633SOL    HW152278  10.351   7.600   7.928  0.5008  0.8005 -0.7297
16633SOL    HW252279  10.217   7.571   7.865 -0.2347 -2.6835  2.0949
16634SOL     OW52280   2.902   5.829  10.646 -0.2070  0.5385  0.4462
16634SOL    HW152281   2.912   5.906  10.590 -1.6476  1.2491  1.0867
16634SOL    HW252282   2.855   5.862  10.723  0.2828 -0.7373  1.3256
16635SOL     OW52283   1.697   4.259   2.209 -0.2309  0.5617 -0.0646
16635SOL    HW152284   1.698   4.171   2.171 -2.4382  1.2146 -1.8271
16635SOL    HW252285   1.789   4.283   2.214  0.3634 -1.3457 -0.7269
16636SOL     OW52286   4.812   4.718   3.115 -0.0455 -0.1398 -0.0723
16636SOL    HW152287   4.757   4.795   3.100 -0.3823  0.1183  2.2112
16636SOL    HW252288   4.902   4.751   3.109 -0.1727  0.8124  2.2821
16637SOL     OW52289   3.761   1.407   1.861  0.3288 -0.2411 -0.3035
16637SOL    HW152290   3.828   1.460   1.818 -0.3741  0.2609 -0.8063
16637SOL    HW252291   3.759   1.326   1.810  0.7163 -0.3590 -0.1381
16638SOL     OW52292   9.469   3.650   8.835 -0.1570 -0.0261  0.1731
16638SOL    HW152293   9.429   3.732   8.807  1.4520  0.5656 -0.5216
16638SOL    HW252294   9.395   3.593   8.856 -1.3864  0.7639 -1.7241
16639SOL     OW52295   4.827   0.976   5.471  0.8678 -0.2833  0.2474
16639SOL    HW152296   4.906   0.984   5.525  0.9083 -1.2829  0.3415
16639SOL    HW252297   4.861   0.958   5.383  0.7454 -0.3655  0.2184
16640SOL     OW52298   2.511   9.733   4.446  0.0034  0.1587 -0.0877
16640SOL    HW152299   2.530   9.664   4.511  0.3231 -0.3766 -0.7388
16640SOL    HW252300   2.563   9.808   4.475 -0.9801  0.4283  1.1036
16641SOL     OW52301   1.435   6.740   2.096 -0.0884 -0.2023  0.4904
16641SOL    HW152302   1.367   6.676   2.075  0.5375  0.0222 -2.6831
16641SOL    HW252303   1.516   6.688   2.098  0.1941  0.1920 -0.3257
16642SOL     OW52304  10.732   2.741   2.304  0.4327  0.1089  0.3881
16642SOL    HW152305  10.751   2.668   2.246  0.7426 -1.1717  2.0207
16642SOL    HW252306  10.647   2.774   2.274  0.9706  0.0587 -1.2988
16643SOL     OW52307   0.358   7.811  10.336  0.5005 -0.2755 -0.4555
16643SOL    HW152308   0.370   7.901  10.306 -0.6402 -0.3856 -1.2932
16643SOL    HW252309   0.358   7.759  10.255  0.9484 -1.0117  0.0042
16644SOL     OW52310   2.741  10.766   0.482 -0.0721  0.3693  0.1117
16644SOL    HW152311   2.648  10.749   0.493  0.2180 -0.4814  1.4951
16644SOL    HW252312   2.753  10.856   0.513 -0.7920  1.4166 -2.4173
16645SOL     OW52313   9.035   6.087   7.390  0.4571  0.6549  0.1992
16645SOL    HW152314   9.041   6.093   7.294 -1.3270 -2.5312 -0.2519
16645SOL    HW252315   9.114   6.040   7.416 -0.1904 -0.6490 -0.0828
16646SOL     OW52316   1.235   0.579   5.829  0.0747 -0.3419  0.3124
16646SOL    HW152317   1.153   0.530   5.834 -0.1394  0.1004  1.5405
16646SOL    HW252318   1.300   0.522   5.870  0.4630 -0.8049 -0.8985
16647SOL     OW52319   0.321   2.425   2.185 -0.1291 -0.0584  0.1328
16647SOL    HW152320   0.347   2.389   2.270  1.3101  0.2914 -0.1305
16647SOL    HW252321   0.247   2.371   2.157  0.2444 -1.0356  0.9941
16648SOL     OW52322   1.131   0.877   6.462 -0.0458  0.2522 -0.3813
16648SOL    HW152323   1.057   0.862   6.403 -1.9613 -0.0812  1.9456
16648SOL    HW252324   1.161   0.789   6.485  1.2695  0.3854 -1.4686
16649SOL     OW52325   9.925   8.841  10.194 -0.1003 -0.8436  0.8472
16649SOL    HW152326   9.861   8.906  10.221  0.4490 -0.1650  0.5526
16649SOL    HW252327   9.976   8.823  10.273  0.7658  0.2851  0.5826
16650SOL     OW52328   6.278  10.210   8.284  0.3852  0.3941  0.8343
16650SOL    HW152329   6.187  10.225   8.257 -0.0845 -2.7542  0.2204
16650SOL    HW252330   6.270  10.181   8.375  0.7358 -0.0726  0.7196
16651SOL     OW52331   9.911   2.495   5.832 -0.0735 -0.0515  0.4395
16651SOL    HW152332   9.881   2.412   5.871 -2.5159  0.7269  0.3441
16651SOL    HW252333   9.860   2.504   5.752  1.4546  0.7121 -0.4860
16652SOL     OW52334   1.200   0.758   9.859  0.3710 -0.1792  0.2170
16652SOL    HW152335   1.282   0.735   9.815 -1.0790 -0.8663 -2.2878
16652SOL    HW252336   1.156   0.818   9.799 -1.9666 -1.5976  0.3934
16653SOL     OW52337   3.686   9.192   0.542 -0.6409 -0.2792  0.1980
16653SOL    HW152338   3.773   9.229   0.527 -0.7359  0.8254  2.0575
16653SOL    HW252339   3.701   9.118   0.600 -1.0860  1.3425  2.5024
16654SOL     OW52340   0.807   4.651   3.946  0.2965  0.2003 -0.5061
16654SOL    HW152341   0.750   4.714   3.902  0.9845  1.5451  0.4728
16654SOL    HW252342   0.860   4.703   4.005  1.3575 -1.2326 -0.1313
16655SOL     OW52343   5.686   3.763   6.941  0.0416  0.3401 -0.2548
16655SOL    HW152344   5.651   3.772   7.030  0.4684  0.4374 -0.0981
16655SOL    HW252345   5.781   3.762   6.952  0.1656  2.2548 -0.8822
16656SOL     OW52346   3.415   3.628   6.046 -0.7863  0.6959  0.4767
16656SOL    HW152347   3.459   3.703   6.087  0.0072  0.0826  0.7625
16656SOL    HW252348   3.469   3.606   5.970 -2.4379  2.0531 -1.2040
16657SOL     OW52349   5.736   0.394   5.865  0.1645 -0.0473  0.3409
16657SOL    HW152350   5.691   0.478   5.867 -0.7039 -0.5005  1.7772
16657SOL    HW252351   5.750   0.376   5.772 -1.3613  0.7907 -0.0777
16658SOL     OW52352   4.892  10.012  10.408 -0.2027  0.3583 -0.2045
16658SOL    HW152353   4.964   9.952  10.390  0.2369  0.2869  1.6217
16658SOL    HW252354   4.815   9.968  10.372  0.4439 -0.2139 -0.9291
16659SOL     OW52355   0.872   8.703   7.239  0.2151  0.0858 -0.4428
16659SOL    HW152356   0.780   8.727   7.250 -0.0797 -0.5688 -1.3644
16659SOL    HW252357   0.920   8.770   7.288 -0.7811 -0.0284  0.7419
16660SOL     OW52358   4.817   7.467   3.297  0.1911  0.2089 -0.4332
16660SOL    HW152359   4.911   7.466   3.311  0.0743 -0.9992  0.4064
16660SOL    HW252360   4.800   7.389   3.244 -0.2626  0.8447 -1.2625
16661SOL     OW52361   9.501   9.747   7.876 -0.1992 -0.1397 -0.4439
16661SOL    HW152362   9.531   9.721   7.789 -0.1618 -0.8239 -0.2366
16661SOL    HW252363   9.546   9.686   7.935 -1.4330 -0.7033 -0.0659
16662SOL     OW52364   8.361   7.854   2.038 -0.7116 -0.1886  0.3244
16662SOL    HW152365   8.288   7.811   2.083 -0.2284 -0.9616  0.3895
16662SOL    HW252366   8.422   7.783   2.020 -0.3036  0.3346 -0.3782
16663SOL     OW52367  10.231   6.770   0.595  0.0835 -0.7625  0.2126
16663SOL    HW152368  10.149   6.769   0.545 -0.5568  0.5534  1.1730
16663SOL    HW252369  10.210   6.724   0.676  0.7346 -1.7294 -0.1644
16664SOL     OW52370   4.757   3.683   5.817  0.6547 -0.1293 -0.1670
16664SOL    HW152371   4.827   3.735   5.855 -0.4574  1.6165 -0.3679
16664SOL    HW252372   4.713   3.643   5.892  0.5433  0.5421  0.1345
16665SOL     OW52373   4.180   3.193   3.997  0.0669  0.6501  0.4218
16665SOL    HW152374   4.224   3.130   4.054 -0.7660 -0.0807  0.2755
16665SOL    HW252375   4.090   3.162   3.992  0.0874  0.7585 -1.1839
16666SOL     OW52376   7.076   7.979   0.644 -0.1479 -0.2882  0.5165
16666SOL    HW152377   7.162   7.957   0.609 -1.5673 -1.9915 -2.2630
16666SOL    HW252378   7.090   8.059   0.694  3.1768 -1.0148  0.9584
16667SOL     OW52379   1.788   3.354   6.086  0.3987  0.0111  0.1874
16667SOL    HW152380   1.812   3.446   6.093 -0.3844  0.5994 -3.2690
16667SOL    HW252381   1.871   3.308   6.072  0.6113  0.3998  0.1653
16668SOL     OW52382   9.928  10.585   8.410  0.3950 -0.0533 -0.1445
16668SOL    HW152383  10.013  10.607   8.372  0.8080 -0.7201  0.3585
16668SOL    HW252384   9.950  10.534   8.488 -0.4917 -1.4184 -0.7586
16669SOL     OW52385   6.128   6.925   2.200  0.1701 -0.2812 -0.0881
16669SOL    HW152386   6.080   7.006   2.217 -2.4627 -1.4332 -1.3715
16669SOL    HW252387   6.066   6.856   2.224  2.5354 -2.0034  1.5553
16670SOL     OW52388   5.366   2.042   3.666  0.7198  0.0598  0.5076
16670SOL    HW152389   5.374   2.047   3.761 -0.1707 -0.1641  0.5997
16670SOL    HW252390   5.339   2.130   3.640  0.3988 -0.0351  0.5201
16671SOL     OW52391   3.902  10.277   6.904 -0.1558 -0.5029  0.1331
16671SOL    HW152392   3.952  10.333   6.844 -0.7435  2.4339  2.1423
16671SOL    HW252393   3.841  10.229   6.848  0.4391  0.8511 -1.7616
16672SOL     OW52394   7.558   9.551   5.481 -0.2060  0.0780  0.3830
16672SOL    HW152395   7.540   9.640   5.509  0.5403  1.3049 -2.6361
16672SOL    HW252396   7.499   9.536   5.407  2.4228 -0.3334 -1.7872
16673SOL     OW52397   3.078   5.390   9.350 -0.1776  0.6412  0.0151
16673SOL    HW152398   3.011   5.407   9.417  1.4096 -0.6209  2.0504
16673SOL    HW252399   3.081   5.294   9.343  1.9547  0.6152  0.6144
16674SOL     OW52400   8.400  10.270   0.588 -0.0933 -0.5097  0.5340
16674SOL    HW152401   8.395  10.296   0.496 -0.0253 -0.8118  0.4435
16674SOL    HW252402   8.485  10.303   0.618  0.2780 -1.1944  0.2403
16675SOL     OW52403   6.879   0.792   6.889 -0.3046 -0.3316 -0.1202
16675SOL    HW152404   6.827   0.802   6.969  1.9461  0.8545  1.3123
16675SOL    HW252405   6.952   0.735   6.915  1.0149  0.8969 -0.9841
16676SOL     OW52406   6.323   5.609   2.529 -0.7148  0.2150 -0.3332
16676SOL    HW152407   6.359   5.675   2.589 -2.3361  0.0457  0.8778
16676SOL    HW252408   6.385   5.607   2.455 -0.9587  3.5545 -0.7481
16677SOL     OW52409   4.216   5.756   0.344 -0.0002  0.1083 -0.0154
16677SOL    HW152410   4.173   5.782   0.426  1.3795  0.5718  0.5916
16677SOL    HW252411   4.245   5.839   0.305 -0.4207 -0.1279 -0.8663
16678SOL     OW52412   5.749   4.806   5.633  0.3670 -0.3356 -0.3101
16678SOL    HW152413   5.748   4.855   5.550  1.1232 -2.3890 -1.5920
16678SOL    HW252414   5.841   4.801   5.657  0.2017 -0.2984  0.3549
16679SOL     OW52415  10.695   8.811   5.698 -0.3081 -0.1901 -0.2962
16679SOL    HW152416  10.627   8.862   5.742 -1.2448 -2.0368  0.5272
16679SOL    HW252417  10.774   8.828   5.749 -0.2563  1.5079 -0.8968
16680SOL     OW52418   2.086   2.570   6.049 -0.4916  0.4079 -0.8297
16680SOL    HW152419   2.099   2.484   6.089  0.8063  2.0606  2.7668
16680SOL    HW252420   1.991   2.582   6.048 -0.7109 -1.1223 -1.6959
16681SOL     OW52421   6.626   7.646   8.431  0.0236 -0.1595  0.2925
16681SOL    HW152422   6.628   7.553   8.455 -0.6685  0.1887  1.8507
16681SOL    HW252423   6.535   7.663   8.407  0.1451  0.1275  0.0291
16682SOL     OW52424   6.424   0.330   6.991 -0.5862 -0.1026 -0.5003
16682SOL    HW152425   6.387   0.269   7.055  0.8596  0.1637  0.6453
16682SOL    HW252426   6.495   0.281   6.949 -0.5378  0.2308 -0.8158
16683SOL     OW52427   9.934   5.862   1.372 -0.2071  0.4045 -0.1281
16683SOL    HW152428   9.905   5.862   1.281  1.0764  0.1355 -0.5616
16683SOL    HW252429   9.954   5.953   1.392  0.1616  0.3745 -0.3473
16684SOL     OW52430   5.713   1.564   2.325  0.1451  0.3413  0.1972
16684SOL    HW152431   5.786   1.524   2.278 -1.0818 -0.3557 -1.2022
16684SOL    HW252432   5.653   1.593   2.256 -2.1766 -1.5587  1.2617
16685SOL     OW52433   6.990   7.206   0.648  0.0481  0.1826 -0.2616
16685SOL    HW152434   6.973   7.250   0.732  1.3148  1.1239 -0.4703
16685SOL    HW252435   7.013   7.117   0.673  0.9196  0.5862  0.4519
16686SOL     OW52436   0.234   1.640   2.381  0.0024 -0.1913  1.0398
16686SOL    HW152437   0.153   1.647   2.331  0.9790  1.4164 -0.4760
16686SOL    HW252438   0.266   1.552   2.363 -1.1683 -0.6813  1.2884
16687SOL     OW52439   4.027   1.492   5.372  0.2391 -0.3173  0.3039
16687SOL    HW152440   4.077   1.471   5.452  1.8081 -0.4487 -0.6575
16687SOL    HW252441   3.954   1.431   5.373  0.1421 -0.2099  1.7186
16688SOL     OW52442   9.728   8.497   3.692  0.2795  0.4633  0.0733
16688SOL    HW152443   9.746   8.500   3.598 -0.3546 -1.1799 -0.1350
16688SOL    HW252444   9.642   8.538   3.701  0.2689  0.4748 -0.0864
16689SOL     OW52445   5.050   8.338   0.602 -0.2559 -0.2222  0.3272
16689SOL    HW152446   5.009   8.403   0.659 -0.3225 -1.1871  1.4141
16689SOL    HW252447   4.977   8.297   0.555 -0.1669  0.9019 -0.8647
16690SOL     OW52448   3.024   6.055   0.875  0.1754  0.3914 -0.3923
16690SOL    HW152449   2.954   6.028   0.815 -1.1568  1.4465  0.6023
16690SOL    HW252450   3.066   6.129   0.831  1.8572 -1.2660 -1.7575
16691SOL     OW52451   1.179  10.253   3.808 -0.4828  0.1597  0.0564
16691SOL    HW152452   1.159  10.160   3.818 -0.0284  0.1264  0.7111
16691SOL    HW252453   1.121  10.297   3.870 -0.6857  0.3204 -0.2411
16692SOL     OW52454   4.301  10.527   5.425 -0.2120  0.2913 -0.1126
16692SOL    HW152455   4.350  10.447   5.403 -0.6772  0.0309 -0.2045
16692SOL    HW252456   4.211  10.507   5.401 -0.2367  1.0471 -0.6671
16693SOL     OW52457   9.483   7.652   0.801 -0.0412 -0.2198  0.3357
16693SOL    HW152458   9.448   7.731   0.843  1.2896  0.2430  0.6071
16693SOL    HW252459   9.433   7.580   0.839  0.4536  0.2779  1.9876
16694SOL     OW52460   5.952   4.678   3.690 -0.0770 -0.1183  0.0352
16694SOL    HW152461   5.981   4.588   3.706  1.4584  0.2119 -0.7070
16694SOL    HW252462   5.897   4.671   3.611 -0.0910 -0.4192  0.0697
16695SOL     OW52463   5.512   6.763   7.808 -0.2591  0.0079  0.1831
16695SOL    HW152464   5.591   6.800   7.846 -0.6065 -0.2521  1.2012
16695SOL    HW252465   5.451   6.837   7.802 -0.2447  0.0252  0.2524
16696SOL     OW52466   1.457   6.196   7.366  0.3956  0.3236 -0.0354
16696SOL    HW152467   1.534   6.238   7.403  0.0592  2.2102 -1.3118
16696SOL    HW252468   1.389   6.208   7.433  0.8135  0.0376  0.4415
16697SOL     OW52469   9.116   1.011   8.650  0.5132  0.3576  0.8222
16697SOL    HW152470   9.130   0.983   8.740  1.2760 -1.2118  0.2503
16697SOL    HW252471   9.175   1.087   8.639  0.7488  0.2780  1.5080
16698SOL     OW52472   1.442   1.598   4.430 -0.1343  0.4387 -0.3843
16698SOL    HW152473   1.537   1.608   4.438 -0.0042  0.9257 -2.1389
16698SOL    HW252474   1.406   1.665   4.489  0.5283 -1.0302  1.8157
16699SOL     OW52475   5.716   1.107   6.988 -0.3125  0.6927  0.0527
16699SOL    HW152476   5.695   1.101   6.895  2.1615  1.7893 -0.6626
16699SOL    HW252477   5.665   1.037   7.029 -1.8635  0.5156 -2.0199
16700SOL     OW52478   9.218   8.010   2.659  0.1055  0.2109 -0.1796
16700SOL    HW152479   9.179   7.942   2.603  1.1997  0.0300 -0.7536
16700SOL    HW252480   9.183   8.092   2.623 -0.6769 -0.0002  0.0761
16701SOL     OW52481   7.175   7.291   3.458  0.0263  0.3180 -0.0987
16701SOL    HW152482   7.161   7.363   3.519 -0.0909 -0.2971  0.6074
16701SOL    HW252483   7.141   7.214   3.503  0.0100 -0.1621 -0.9078
16702SOL     OW52484   6.315   0.185  10.047 -0.1030  0.4880  0.2062
16702SOL    HW152485   6.329   0.170  10.141 -0.4249  2.6098  0.6558
16702SOL    HW252486   6.402   0.179  10.009  0.1643  0.5180  0.7976
16703SOL     OW52487   0.458   7.922   6.947 -0.2723  0.1557  0.0696
16703SOL    HW152488   0.482   7.997   7.001  1.4180 -0.7041  0.6025
16703SOL    HW252489   0.538   7.900   6.899 -0.3889 -1.8844  0.6794
16704SOL     OW52490   8.030   5.913   3.461 -0.1962  0.3614  0.3894
16704SOL    HW152491   8.112   5.950   3.492  0.4711 -0.2217 -0.6508
16704SOL    HW252492   8.049   5.820   3.446 -0.5936  0.5218 -1.3430
16705SOL     OW52493   5.810   5.290   1.593 -0.1889  0.8877 -0.3482
16705SOL    HW152494   5.802   5.385   1.599 -0.0980  0.8599  0.3180
16705SOL    HW252495   5.724   5.256   1.618 -0.1171  0.7841 -0.2408
16706SOL     OW52496   7.187  10.483   0.282 -1.3384 -0.5555  0.2736
16706SOL    HW152497   7.118  10.451   0.224 -1.7563 -0.4073  0.6937
16706SOL    HW252498   7.265  10.484   0.226 -1.1667 -2.8587  0.3661
16707SOL     OW52499   3.771   4.260   6.699  0.3309  0.0129  0.4515
16707SOL    HW152500   3.735   4.173   6.716  1.2467 -0.4857 -0.0282
16707SOL    HW252501   3.854   4.261   6.747 -0.0242  0.8996  1.0538
16708SOL     OW52502   4.537   0.609   3.679 -0.0490 -0.4708 -0.6690
16708SOL    HW152503   4.579   0.693   3.700  1.3213 -0.9140 -1.5037
16708SOL    HW252504   4.444   0.629   3.675  0.1422  0.7554  0.3254
16709SOL     OW52505   9.123   1.821   5.591 -0.0861  0.1574 -0.3682
16709SOL    HW152506   9.051   1.880   5.613  0.8149  1.2208 -0.1750
16709SOL    HW252507   9.159   1.856   5.510 -1.3269 -1.8420 -1.8539
16710SOL     OW52508   0.709   1.709   6.889 -0.6153  0.1562 -0.0434
16710SOL    HW152509   0.755   1.677   6.967  0.4162 -1.0367 -1.1034
16710SOL    HW252510   0.772   1.768   6.847 -1.1044  0.6671 -0.0685
16711SOL     OW52511  10.062   9.018  10.649  0.2438  0.2661  0.2349
16711SOL    HW152512  10.001   8.948  10.629  0.0749  1.0798 -2.6040
16711SOL    HW252513  10.148   8.982  10.627  0.5076  0.0487  1.5391
16712SOL     OW52514  10.306   0.077   1.652 -0.1500 -0.2469  0.5044
16712SOL    HW152515  10.243   0.131   1.701 -1.3938 -2.7931  1.9386
16712SOL    HW252516  10.303   0.112   1.563 -2.2292  0.9321  0.9585
16713SOL     OW52517   8.915   6.504   7.586 -0.5151  0.7703  0.2594
16713SOL    HW152518   9.005   6.537   7.592  0.1240 -0.8566  0.1945
16713SOL    HW252519   8.886   6.530   7.499  0.0330  0.9772  0.1319
16714SOL     OW52520   1.641  10.207   5.911 -0.1077  0.0420 -0.2236
16714SOL    HW152521   1.735  10.215   5.895 -0.2443  0.4714 -0.8080
16714SOL    HW252522   1.611  10.297   5.924 -0.5431 -0.0442 -0.6247
16715SOL     OW52523   7.865   4.381   6.568  0.5087 -0.1162 -0.0930
16715SOL    HW152524   7.933   4.367   6.633  1.4870  0.2573 -0.9984
16715SOL    HW252525   7.849   4.475   6.568 -0.8003 -0.3141  0.8620
16716SOL     OW52526   8.518   7.329   2.022  0.3714  0.9287  0.3170
16716SOL    HW152527   8.492   7.288   1.939  1.0031  0.4237  0.3654
16716SOL    HW252528   8.584   7.270   2.058 -0.4705  0.7309  1.5742
16717SOL     OW52529   6.098   3.334   9.539 -0.6352 -0.0026  0.0579
16717SOL    HW152530   6.023   3.393   9.549  0.1185  1.2456 -1.3205
16717SOL    HW252531   6.169   3.390   9.508  0.8761 -1.1716  1.2230
16718SOL     OW52532   5.295   3.512   2.506  0.1381  0.1402 -0.1729
16718SOL    HW152533   5.215   3.461   2.522  0.2942  0.6523  2.7388
16718SOL    HW252534   5.263   3.601   2.490  0.0784  0.4354  1.4204
16719SOL     OW52535   5.738   6.390   6.627  0.3028 -0.1132 -0.8554
16719SOL    HW152536   5.682   6.317   6.653  0.3319 -0.4213 -1.6380
16719SOL    HW252537   5.775   6.422   6.710 -2.7617  1.5900 -0.0012
16720SOL     OW52538   0.250   1.535   5.830 -0.2613 -0.3709  0.4026
16720SOL    HW152539   0.169   1.586   5.825  0.4155  0.8537  1.4877
16720SOL    HW252540   0.249   1.497   5.918  0.3429 -0.3459  0.4224
16721SOL     OW52541   1.414   4.391   0.800 -0.1590 -0.8679  0.3320
16721SOL    HW152542   1.503   4.358   0.810  0.1294  0.0054  0.7099
16721SOL    HW252543   1.371   4.368   0.883  0.2432  0.2768  0.8825
16722SOL     OW52544   2.179  10.082   9.603 -0.0656 -0.0029 -0.5113
16722SOL    HW152545   2.092  10.117   9.582 -0.1025 -0.2770 -0.8150
16722SOL    HW252546   2.239  10.135   9.552 -0.1413 -0.5431 -1.1833
16723SOL     OW52547   5.784   3.027   4.962  0.0948 -0.3219  0.4453
16723SOL    HW152548   5.738   3.008   5.043  0.4933 -0.0816  0.7338
16723SOL    HW252549   5.867   3.066   4.990  0.3597 -0.5013 -0.0677
16724SOL     OW52550   6.408  10.289   4.574 -0.4374 -0.0048  0.1496
16724SOL    HW152551   6.441  10.326   4.491 -2.8373 -0.8128 -1.2592
16724SOL    HW252552   6.420  10.359   4.638  0.5327  1.0301 -1.1165
16725SOL     OW52553   5.576   7.705   8.615 -0.0205  0.0614  0.0484
16725SOL    HW152554   5.507   7.645   8.587  1.9724 -1.4773 -1.9197
16725SOL    HW252555   5.606   7.748   8.535  0.8868  1.1878  0.9406
16726SOL     OW52556   5.644   4.669   9.121 -0.2413 -0.3271 -0.1735
16726SOL    HW152557   5.733   4.644   9.145 -0.5612 -0.8025  0.5720
16726SOL    HW252558   5.607   4.707   9.201  0.6871  4.1162 -1.5835
16727SOL     OW52559   3.767   8.757  10.589 -0.5183 -0.6204  0.0196
16727SOL    HW152560   3.809   8.830  10.635 -1.4342 -0.4512  0.6041
16727SOL    HW252561   3.681   8.750  10.628 -0.5666 -1.8186 -0.2646
16728SOL     OW52562   4.717   3.262   9.136 -0.4840 -0.3960  0.3527
16728SOL    HW152563   4.797   3.215   9.158 -0.0907 -0.3427 -0.8939
16728SOL    HW252564   4.664   3.259   9.216  0.6871 -0.5725  1.1332
16729SOL     OW52565   6.175   6.778   1.397 -0.4198  0.1527  0.5111
16729SOL    HW152566   6.181   6.733   1.312  1.8861 -0.4327  0.9027
16729SOL    HW252567   6.137   6.863   1.377 -2.7964 -1.0865 -0.6144
16730SOL     OW52568   4.938   7.494  10.130 -0.0288  0.2016  0.2417
16730SOL    HW152569   4.891   7.552  10.070  1.8942  0.8510 -0.7322
16730SOL    HW252570   4.906   7.406  10.109  1.3527  0.2677 -2.6081
16731SOL     OW52571  10.399   9.033   3.735 -0.4436 -0.6742  0.0669
16731SOL    HW152572  10.384   8.939   3.724  0.6669 -0.9784  1.0267
16731SOL    HW252573  10.464   9.055   3.668 -1.5472 -0.3290 -0.9269
16732SOL     OW52574   0.760   6.695  10.126  0.1214 -0.5391  0.3047
16732SOL    HW152575   0.686   6.747  10.156 -1.3941 -2.3466 -0.1726
16732SOL    HW252576   0.833   6.723  10.182 -1.3081  0.0635  1.9376
16733SOL     OW52577   0.317   9.746   3.084 -0.8573  0.3596 -0.1326
16733SOL    HW152578   0.320   9.776   3.175 -1.2159  0.0724 -0.0245
16733SOL    HW252579   0.246   9.682   3.082 -2.0314  1.6248 -0.9981
16734SOL     OW52580   0.757   6.963   7.606 -0.3276 -0.5846  0.2052
16734SOL    HW152581   0.788   7.040   7.558 -0.7459 -0.6860 -0.2367
16734SOL    HW252582   0.831   6.938   7.662 -1.1311  1.9328  2.6431
16735SOL     OW52583   2.585   5.009   5.370 -0.9522  0.1202  0.2630
16735SOL    HW152584   2.678   5.031   5.374 -0.9494  0.0002  1.1590
16735SOL    HW252585   2.563   5.013   5.277  0.4202 -1.8552 -0.2157
16736SOL     OW52586   5.420  10.499   1.766  0.4832 -0.1471 -0.5992
16736SOL    HW152587   5.454  10.550   1.840 -0.6586  1.3212 -1.0565
16736SOL    HW252588   5.446  10.548   1.689 -2.4053  0.9417 -0.9866
16737SOL     OW52589   1.112   1.350   8.945  0.4087  0.1090  0.5170
16737SOL    HW152590   1.105   1.365   9.039 -1.6405  2.3167  0.1103
16737SOL    HW252591   1.123   1.437   8.908  2.5050 -0.8212 -1.2653
16738SOL     OW52592   1.104   4.781   9.082 -0.3370 -0.5016  0.5986
16738SOL    HW152593   1.150   4.699   9.062 -2.9908 -2.3538  1.6014
16738SOL    HW252594   1.112   4.791   9.177 -0.9566 -0.1831  0.6213
16739SOL     OW52595   1.149   6.027   1.657 -0.6736  0.0027 -0.1275
16739SOL    HW152596   1.209   6.090   1.618 -0.7669 -0.2307 -0.6680
16739SOL    HW252597   1.154   5.950   1.599 -1.2846 -0.1211 -0.0295
16740SOL     OW52598  10.498   3.819   1.820  0.4627  0.2799 -0.2502
16740SOL    HW152599  10.443   3.897   1.817  0.6548  0.3988 -1.1119
16740SOL    HW252600  10.441   3.750   1.852 -0.1570  0.4399 -0.9670
16741SOL     OW52601   7.514  10.313   0.175  0.3400 -0.8182 -0.1819
16741SOL    HW152602   7.518  10.323   0.270  1.9035  1.0469 -0.3698
16741SOL    HW252603   7.569  10.238   0.156 -0.2842 -1.4359  0.3919
16742SOL     OW52604   3.909   7.954   5.252 -0.4287 -0.1686  0.0315
16742SOL    HW152605   3.936   7.911   5.333 -0.1656 -0.3811 -0.1655
16742SOL    HW252606   3.960   7.910   5.184  1.5241  1.8885  0.0339
16743SOL     OW52607   3.770   7.762   1.051  0.1164 -0.0943 -0.0927
16743SOL    HW152608   3.825   7.685   1.065  0.2047 -0.2105 -1.0083
16743SOL    HW252609   3.801   7.826   1.115  0.7766 -0.4459 -0.0524
16744SOL     OW52610   7.055   7.247   1.360 -0.2103 -0.1180 -0.2516
16744SOL    HW152611   7.140   7.213   1.332 -1.2487 -2.0466 -1.2927
16744SOL    HW252612   7.070   7.282   1.447  1.8724  0.5600 -0.8327
16745SOL     OW52613   7.872   3.753   8.303 -0.1360 -0.1194 -0.2537
16745SOL    HW152614   7.843   3.828   8.252 -1.2528 -0.5210 -0.2330
16745SOL    HW252615   7.961   3.736   8.273 -0.7685 -0.3687 -2.1099
16746SOL     OW52616   3.524   5.472  10.428  0.2277 -0.0193  0.5260
16746SOL    HW152617   3.544   5.381  10.452 -0.5685 -0.5989 -0.8475
16746SOL    HW252618   3.589   5.493  10.361  1.5624  1.0949  2.1001
16747SOL     OW52619   1.836   5.589   2.600  0.0107  0.2156 -0.2144
16747SOL    HW152620   1.848   5.507   2.552  0.9884  0.7219 -0.8622
16747SOL    HW252621   1.917   5.601   2.649 -0.0970  0.8204 -0.1687
16748SOL     OW52622   3.968   1.951   4.730  0.0037  0.4862  0.0795
16748SOL    HW152623   3.963   2.041   4.761 -0.7396  0.8432 -1.0425
16748SOL    HW252624   3.947   1.898   4.807  1.4086  1.2058  1.0034
16749SOL     OW52625   4.387   5.476   0.937 -0.4797  0.0397  0.0671
16749SOL    HW152626   4.303   5.471   0.891 -1.0828 -0.6790  1.2012
16749SOL    HW252627   4.387   5.563   0.978 -0.7450 -0.0160  0.1884
16750SOL     OW52628   3.611  10.049  10.284  0.0038  0.1916 -0.2077
16750SOL    HW152629   3.534   9.994  10.301  1.0265 -1.3170 -0.3286
16750SOL    HW252630   3.627  10.038  10.190 -1.0426  2.4376 -0.7202
16751SOL     OW52631   8.687   7.719   4.051 -0.4503  0.0577 -0.5078
16751SOL    HW152632   8.745   7.788   4.083  0.8434 -0.3736 -1.8082
16751SOL    HW252633   8.672   7.741   3.960 -2.6729  0.3366 -0.1311
16752SOL     OW52634   5.137   9.037   5.921 -0.1309 -0.0612 -0.7607
16752SOL    HW152635   5.119   8.970   5.987 -0.5901  0.8636  0.0617
16752SOL    HW252636   5.219   9.077   5.949 -1.3234  1.6818  0.3978
16753SOL     OW52637   8.547   6.461   8.828 -0.6238 -0.1021 -0.3065
16753SOL    HW152638   8.468   6.416   8.857 -0.9510  0.3883 -0.4256
16753SOL    HW252639   8.516   6.524   8.763  0.0884 -1.1977 -1.7764
16754SOL     OW52640   2.853   8.001   4.635 -0.3008 -0.7404 -0.2812
16754SOL    HW152641   2.828   8.004   4.542 -0.3253 -2.1601 -0.3309
16754SOL    HW252642   2.924   8.065   4.642 -1.1014  0.2797 -1.0106
16755SOL     OW52643   1.629   2.725   2.845  0.0571  0.9667 -0.3977
16755SOL    HW152644   1.671   2.643   2.869 -0.2727  0.5020 -1.3456
16755SOL    HW252645   1.662   2.745   2.757 -0.8482  1.1613 -0.7053
16756SOL     OW52646   7.613   7.909   0.576  0.6844  0.4982 -0.1638
16756SOL    HW152647   7.543   7.961   0.617  0.5961  1.0051 -0.9291
16756SOL    HW252648   7.684   7.971   0.562  1.2083  0.0354  0.3922
16757SOL     OW52649   0.348   5.268   0.660 -0.4077  0.6457  0.4496
16757SOL    HW152650   0.441   5.289   0.669  0.0240 -1.0436  0.2483
16757SOL    HW252651   0.335   5.190   0.713 -1.4502  0.1664 -0.4566
16758SOL     OW52652   0.999   5.084   0.237  0.2531 -0.2455 -0.2188
16758SOL    HW152653   1.025   4.993   0.256 -1.8566 -0.6576  0.9925
16758SOL    HW252654   0.922   5.099   0.291  0.0180  2.0110 -1.0635
16759SOL     OW52655  10.770   0.235   1.642 -0.2360  0.3909 -0.0362
16759SOL    HW152656  10.787   0.275   1.556  0.4002 -0.9243 -0.5497
16759SOL    HW252657  10.693   0.179   1.627 -0.4382  0.5532  0.3935
16760SOL     OW52658   5.083   6.064   0.740  0.6545 -0.0232  0.5691
16760SOL    HW152659   4.991   6.070   0.764  0.9875 -0.0598  1.9036
16760SOL    HW252660   5.100   5.970   0.731  0.3487  0.0185 -0.6069
16761SOL     OW52661   9.813   4.306   9.645  0.5995  0.4230  0.2409
16761SOL    HW152662   9.723   4.278   9.631  0.5469  0.5710  0.2843
16761SOL    HW252663   9.845   4.250   9.716  1.6494 -2.0727 -2.0127
16762SOL     OW52664   3.054   9.346   5.409  0.4836 -0.7332 -0.1649
16762SOL    HW152665   3.089   9.340   5.321  0.3207  0.5827 -0.3389
16762SOL    HW252666   3.131   9.355   5.465  0.5348 -0.4333 -0.2840
16763SOL     OW52667   7.085   1.224   4.172 -0.7131  0.1032  0.1224
16763SOL    HW152668   7.048   1.208   4.259  1.9019  1.1328  1.5149
16763SOL    HW252669   7.156   1.286   4.187 -1.7184  2.2793 -3.1235
16764SOL     OW52670   2.740   9.582   4.339  0.1631  0.0052 -0.2001
16764SOL    HW152671   2.814   9.638   4.320  0.2744 -0.1930 -0.3542
16764SOL    HW252672   2.663   9.639   4.330 -0.0236 -0.5571 -3.5728
16765SOL     OW52673   0.311  10.603   7.955 -0.2663 -0.0711 -0.2179
16765SOL    HW152674   0.376  10.614   7.886  0.2343  2.7249  0.6011
16765SOL    HW252675   0.333  10.519   7.995  4.1179  1.4973  1.2472
16766SOL     OW52676   5.952   3.688   7.903 -0.3118 -0.2422 -0.0333
16766SOL    HW152677   5.988   3.612   7.858  0.2238 -0.2538  0.4023
16766SOL    HW252678   5.969   3.762   7.845 -1.0725 -0.4820 -0.5811
16767SOL     OW52679   0.171   9.671   5.403 -0.2953 -0.2640  0.3329
16767SOL    HW152680   0.142   9.744   5.348 -1.5240 -0.3261  0.8558
16767SOL    HW252681   0.216   9.714   5.476  0.9583 -0.1626 -0.4771
16768SOL     OW52682   8.257   4.603   4.568  0.1307 -0.0641 -0.2280
16768SOL    HW152683   8.328   4.600   4.504 -0.8330 -0.1649 -1.3410
16768SOL    HW252684   8.300   4.597   4.653  1.5063  0.7195 -0.8387
16769SOL     OW52685   5.780   8.609   1.859  0.3890 -0.4556  0.2733
16769SOL    HW152686   5.821   8.561   1.786 -1.7763 -1.6160 -0.2739
16769SOL    HW252687   5.749   8.540   1.918  0.7644  0.4384  1.5478
16770SOL     OW52688   7.754   6.054   2.639 -0.2172 -0.3695  0.8740
16770SOL    HW152689   7.802   6.083   2.562  1.3028 -2.5037  0.9109
16770SOL    HW252690   7.666   6.032   2.606  0.2129 -0.6571 -0.1141
16771SOL     OW52691   5.080   2.952   0.250  0.4910  0.2934  0.1107
16771SOL    HW152692   5.168   2.941   0.287 -0.3257 -1.1374  1.7934
16771SOL    HW252693   5.040   3.021   0.303  0.2387  0.1500  0.1127
16772SOL     OW52694   1.162   7.283   8.217 -0.3263  0.1358 -0.3861
16772SOL    HW152695   1.173   7.242   8.303  0.0934  0.1486 -0.4279
16772SOL    HW252696   1.087   7.341   8.227 -0.3668  0.0294 -0.0698
16773SOL     OW52697   9.107   9.842   8.002  0.3663 -0.2360 -0.0210
16773SOL    HW152698   9.078   9.854   8.092  0.3368  0.1538 -0.0820
16773SOL    HW252699   9.034   9.799   7.959  0.4635 -0.6214  0.1918
16774SOL     OW52700   2.692   9.631   8.448  0.2272  0.1122 -0.0614
16774SOL    HW152701   2.655   9.686   8.379 -1.7720 -1.7883 -0.6481
16774SOL    HW252702   2.777   9.604   8.415  0.4669  1.4145 -0.5429
16775SOL     OW52703   3.152   5.178   2.109 -0.2236  0.1594  0.3152
16775SOL    HW152704   3.180   5.242   2.174 -0.6024 -1.4441  2.1468
16775SOL    HW252705   3.184   5.094   2.143  0.3132 -0.6608 -2.0236
16776SOL     OW52706   2.689  10.192   7.622 -0.4065  0.6383 -0.2652
16776SOL    HW152707   2.766  10.147   7.657  0.3993  2.4983  0.5154
16776SOL    HW252708   2.709  10.206   7.529 -0.6196 -0.4747 -0.4880
16777SOL     OW52709   1.881   6.850   6.473 -0.7328 -0.6170  0.2542
16777SOL    HW152710   1.898   6.907   6.548 -2.9042 -0.1677  0.4675
16777SOL    HW252711   1.859   6.910   6.402  0.2223 -1.0835 -0.4448
16778SOL     OW52712  10.668  10.309   3.962  0.2545 -0.1517  0.5692
16778SOL    HW152713  10.655  10.380   4.026  0.6379 -0.1321  0.6238
16778SOL    HW252714  10.704  10.352   3.885  1.6128 -0.4536  1.0157
16779SOL     OW52715   8.564   2.099   0.130 -0.0433  0.3826 -0.1459
16779SOL    HW152716   8.593   2.032   0.192  0.7410  0.0710 -0.8346
16779SOL    HW252717   8.471   2.084   0.120  0.4205 -1.8062 -1.6972
16780SOL     OW52718   9.270   9.791   8.357 -0.1122  0.9162  0.8985
16780SOL    HW152719   9.318   9.735   8.418 -1.9707 -0.6783  0.9949
16780SOL    HW252720   9.180   9.789   8.388 -0.9657  0.7456 -1.4114
16781SOL     OW52721   8.303   0.420   4.671  0.1502  0.6521  0.5445
16781SOL    HW152722   8.260   0.344   4.631  1.5409  0.6145 -0.9672
16781SOL    HW252723   8.288   0.491   4.609  0.8455  1.0276  0.8054
16782SOL     OW52724   2.524   6.636   9.736  0.2145 -0.3755 -0.1793
16782SOL    HW152725   2.559   6.710   9.785  1.9108 -0.0982 -1.6891
16782SOL    HW252726   2.481   6.675   9.660 -0.8433 -0.8614  0.1519
16783SOL     OW52727   4.821   7.322  10.382 -0.3464  0.6556  0.2346
16783SOL    HW152728   4.820   7.355  10.293  1.3360  0.7050  0.2133
16783SOL    HW252729   4.765   7.383  10.431 -1.0140  0.8102 -0.7035
16784SOL     OW52730   2.545   7.305   5.989  0.3835 -0.6302 -0.0544
16784SOL    HW152731   2.567   7.335   6.077  0.1080  1.4476 -0.6459
16784SOL    HW252732   2.450   7.288   5.992  0.3969 -0.6800  0.0767
16785SOL     OW52733   2.228   7.318   8.388  0.1298  0.2573  0.0537
16785SOL    HW152734   2.152   7.355   8.433  0.9560  0.1228  1.6346
16785SOL    HW252735   2.290   7.298   8.458  0.8682 -1.4455 -1.0135
16786SOL     OW52736   2.040   5.897   0.636 -0.8628 -0.3461 -0.0212
16786SOL    HW152737   1.976   5.967   0.647 -0.7781 -0.4335  1.2024
16786SOL    HW252738   1.999   5.837   0.573 -1.1432  0.5458 -0.7052
16787SOL     OW52739   8.854   7.601   6.464 -0.1505  0.1616 -0.2239
16787SOL    HW152740   8.857   7.676   6.523 -0.2965  0.3186 -0.4122
16787SOL    HW252741   8.881   7.636   6.379 -0.9050  0.1651 -0.4720
16788SOL     OW52742   3.956   5.437   0.470  0.2301 -0.1696  0.3792
16788SOL    HW152743   3.949   5.410   0.378  0.4417 -1.8617  0.8387
16788SOL    HW252744   4.041   5.404   0.498  0.6179  1.2157  0.9275
16789SOL     OW52745   9.554   0.210   5.319 -0.9699 -0.2426 -0.8255
16789SOL    HW152746   9.648   0.209   5.337 -0.9474  1.0314 -0.8233
16789SOL    HW252747   9.536   0.124   5.281  0.1289 -0.6237 -0.5099
16790SOL     OW52748   8.337   4.807   2.431 -0.3975 -0.3808  0.0328
16790SOL    HW152749   8.278   4.877   2.459 -0.8344 -0.5717 -0.3907
16790SOL    HW252750   8.424   4.844   2.438 -0.4727 -0.4432  1.7561
16791SOL     OW52751   6.187   7.062   1.968 -0.6453  0.2794  0.0258
16791SOL    HW152752   6.189   7.157   1.982 -0.6289  0.4072 -0.8082
16791SOL    HW252753   6.150   7.027   2.049 -0.2767  0.9635  0.5028
16792SOL     OW52754   1.868   3.376   6.429  0.3045  0.3602 -0.3608
16792SOL    HW152755   1.832   3.293   6.398  0.6790  0.0690 -0.0259
16792SOL    HW252756   1.946   3.352   6.478 -0.1348  0.8280  0.6013
16793SOL     OW52757   7.451   1.915   1.849 -0.9788  0.8853 -0.0693
16793SOL    HW152758   7.430   1.844   1.789 -0.1709 -0.6650  1.3937
16793SOL    HW252759   7.472   1.871   1.932 -0.8286  2.8581  0.9985
16794SOL     OW52760   7.497   7.500   2.596 -0.3605  0.0709  0.1054
16794SOL    HW152761   7.572   7.441   2.591 -0.4812  0.0114 -3.7331
16794SOL    HW252762   7.529   7.584   2.561 -2.1341 -0.1742 -2.3777
16795SOL     OW52763   4.793   4.136  10.482  0.4828 -0.3450 -0.5732
16795SOL    HW152764   4.863   4.191  10.517  0.8712 -1.3561  0.2959
16795SOL    HW252765   4.792   4.059  10.540 -2.9089  0.6686  0.9480
16796SOL     OW52766   6.797   0.803   2.913 -0.1740  0.5768  0.0116
16796SOL    HW152767   6.744   0.881   2.899  0.5232  1.1462  0.4233
16796SOL    HW252768   6.847   0.793   2.832  1.0604  1.6428  0.5869
16797SOL     OW52769   1.260   8.446   1.193  0.2941 -0.3578  0.9714
16797SOL    HW152770   1.180   8.480   1.153  1.0549 -0.9441 -1.1739
16797SOL    HW252771   1.243   8.353   1.207  0.6786 -0.5358  0.2805
16798SOL     OW52772   4.792   1.412  10.558  0.5373  0.0504  0.2927
16798SOL    HW152773   4.780   1.497  10.514  0.3334  0.9872  2.0889
16798SOL    HW252774   4.709   1.397  10.603  1.5599  0.3254  2.3582
16799SOL     OW52775   2.144   4.373   5.059 -0.8005 -0.0909  0.1294
16799SOL    HW152776   2.225   4.398   5.102  0.1968 -0.0936 -1.6332
16799SOL    HW252777   2.104   4.456   5.032 -1.6914 -0.0588  1.4570
16800SOL     OW52778   3.965  10.002   6.737 -0.4368 -0.3655 -0.5010
16800SOL    HW152779   3.882  10.051   6.740  0.4130  1.3746 -2.7339
16800SOL    HW252780   3.938   9.910   6.732 -2.2144  0.1234 -0.5816
16801SOL     OW52781   6.238   0.375   6.788  0.2373 -0.6284  0.0884
16801SOL    HW152782   6.297   0.355   6.860 -0.4749 -0.4528  0.7253
16801SOL    HW252783   6.289   0.435   6.732  0.3302  0.3177  1.1431
16802SOL     OW52784   3.027   5.761   0.327 -0.3037 -0.1575 -0.3714
16802SOL    HW152785   3.029   5.694   0.258 -0.0111  0.2290 -0.7450
16802SOL    HW252786   3.114   5.757   0.367  0.0669  0.6781 -1.0642
16803SOL     OW52787   7.581   7.364  10.484  0.2396  0.0351  0.6710
16803SOL    HW152788   7.498   7.337  10.523 -0.7124  0.6470 -0.8249
16803SOL    HW252789   7.556   7.404  10.400  2.1051 -0.5331 -0.2129
16804SOL     OW52790   0.840   4.862   0.494  0.1022 -0.3378 -0.3618
16804SOL    HW152791   0.846   4.818   0.409  2.9423  1.7054 -1.4200
16804SOL    HW252792   0.896   4.939   0.484 -1.5028  1.3958  2.5895
16805SOL     OW52793   8.691   2.559   4.083  0.3186 -0.3633  0.4981
16805SOL    HW152794   8.623   2.515   4.134  0.6915 -1.0488  0.4179
16805SOL    HW252795   8.697   2.508   4.001 -0.2986  0.7419 -0.2572
16806SOL     OW52796   7.847   6.743   3.864 -0.4669  0.3848  0.3688
16806SOL    HW152797   7.793   6.818   3.890 -0.6146  0.4210 -0.0174
16806SOL    HW252798   7.937   6.775   3.869 -0.5563  0.8078 -0.4282
16807SOL     OW52799   1.151   2.591   7.749 -0.5883 -0.0169 -0.2689
16807SOL    HW152800   1.100   2.511   7.763  0.8347 -0.9239  0.0228
16807SOL    HW252801   1.196   2.576   7.666 -0.2290  0.4294 -0.1600
16808SOL     OW52802   5.804   6.943   4.138 -0.2535  0.1779 -0.1499
16808SOL    HW152803   5.884   6.900   4.167  0.1671  1.6957  1.0635
16808SOL    HW252804   5.823   6.973   4.049  0.1185 -0.4230 -0.2777
16809SOL     OW52805   8.482   0.405   9.842 -0.2134 -0.0626  0.1281
16809SOL    HW152806   8.425   0.413   9.918 -2.8771 -0.8445 -1.6589
16809SOL    HW252807   8.446   0.467   9.778  0.9390 -0.5737 -1.0711
16810SOL     OW52808   8.243   8.782   2.881  0.2615  0.8687 -0.5703
16810SOL    HW152809   8.182   8.819   2.945  1.7013  1.6475  0.3905
16810SOL    HW252810   8.186   8.750   2.811 -1.2354  1.8053  0.1548
16811SOL     OW52811   8.047   1.222   5.659  0.1690 -0.1734  0.5322
16811SOL    HW152812   8.041   1.255   5.748  0.3798 -2.4260  1.4530
16811SOL    HW252813   8.003   1.136   5.662  1.9717 -1.2342 -0.9951
16812SOL     OW52814   8.900   2.049   8.443 -0.2832  0.7764  0.6951
16812SOL    HW152815   8.903   1.957   8.466  0.4158  0.3334 -0.9765
16812SOL    HW252816   8.807   2.070   8.435 -0.4372 -0.2382 -0.4670
16813SOL     OW52817   7.476   0.862   4.129 -0.8705 -0.4189  0.2005
16813SOL    HW152818   7.541   0.895   4.068  0.5846  0.4097  2.0825
16813SOL    HW252819   7.434   0.789   4.083  0.1697  0.1234 -1.7176
16814SOL     OW52820  10.011   8.917   6.798  0.0479  0.2976  0.0469
16814SOL    HW152821   9.916   8.928   6.799  0.2687  2.7213  0.4698
16814SOL    HW252822  10.026   8.839   6.852 -1.7327 -1.0387 -1.2569
16815SOL     OW52823   9.204   1.361   9.811 -0.1357  0.0280 -0.1223
16815SOL    HW152824   9.240   1.318   9.888  2.3362 -2.2450 -2.3348
16815SOL    HW252825   9.211   1.296   9.741 -3.2528  1.5875 -2.1081
16816SOL     OW52826   8.622   8.109   0.582 -0.0677  0.5987  0.7963
16816SOL    HW152827   8.687   8.038   0.582 -0.5396  0.1559  0.3855
16816SOL    HW252828   8.669   8.184   0.616  0.6838  0.2980  0.4535
16817SOL     OW52829   3.028   9.238   4.172  0.3643 -0.7217 -0.3145
16817SOL    HW152830   2.957   9.192   4.217  0.9137  0.1676  1.5513
16817SOL    HW252831   2.984   9.293   4.107 -0.8132  0.6152  1.5103
16818SOL     OW52832   1.474   6.992   4.349 -0.5829  0.2582  0.3678
16818SOL    HW152833   1.433   6.988   4.262 -1.3350 -0.0551  0.7260
16818SOL    HW252834   1.418   6.938   4.404  0.6948 -0.7224  0.7427
16819SOL     OW52835   9.225   2.529   0.133 -0.4938  0.0737  0.2496
16819SOL    HW152836   9.279   2.459   0.095  0.5298  0.8750  0.1681
16819SOL    HW252837   9.186   2.489   0.210  2.7168  0.2560  2.1656
16820SOL     OW52838   0.320   9.092   6.951 -0.5590  0.4736 -0.1950
16820SOL    HW152839   0.397   9.116   6.900  0.3878  1.5832  1.6352
16820SOL    HW252840   0.247   9.098   6.890  0.5666  1.2798 -1.5121
16821SOL     OW52841   9.253   5.967   4.282 -0.0302  0.0560 -0.1134
16821SOL    HW152842   9.185   5.916   4.327  0.6772 -1.4327 -0.6661
16821SOL    HW252843   9.257   5.930   4.194  2.4882 -0.9409  0.3245
16822SOL     OW52844   9.437   0.907   3.747 -0.2674 -0.1155  0.7042
16822SOL    HW152845   9.452   0.865   3.662 -0.1113  0.1318  0.6098
16822SOL    HW252846   9.510   0.878   3.801  1.6474  2.5182 -0.2779
16823SOL     OW52847   7.766   4.022   6.326 -0.1877  0.0041  0.2161
16823SOL    HW152848   7.830   3.979   6.382  0.2138  2.1465  1.5134
16823SOL    HW252849   7.810   4.030   6.241  1.5641  1.9002  1.2185
16824SOL     OW52850   5.089   2.887   5.553 -0.3390 -0.0978 -0.0486
16824SOL    HW152851   4.996   2.870   5.571 -0.2927 -0.1709  0.1196
16824SOL    HW252852   5.105   2.843   5.469 -0.9337  1.5050 -1.0448
16825SOL     OW52853   5.070   9.328   1.324  0.2709 -0.4447 -0.3060
16825SOL    HW152854   5.055   9.423   1.319 -0.8791 -0.6847 -3.1524
16825SOL    HW252855   5.070   9.299   1.233  0.8244 -3.1905  0.4815
16826SOL     OW52856   9.297   5.112   7.007  0.3569  0.1584 -0.3546
16826SOL    HW152857   9.371   5.167   7.032  0.3261 -0.5065  1.3613
16826SOL    HW252858   9.233   5.124   7.077  0.4759 -2.2391  0.2816
16827SOL     OW52859   9.811   5.798   8.220  0.4496 -1.1182  0.6415
16827SOL    HW152860   9.824   5.718   8.169  0.4410 -1.6286  1.4208
16827SOL    HW252861   9.749   5.850   8.169  0.0286 -1.8511  0.3994
16828SOL     OW52862   9.951   0.110   2.503  0.1409  0.1451  0.1015
16828SOL    HW152863   9.861   0.125   2.532  0.0342 -1.5800  0.7748
16828SOL    HW252864   9.942   0.044   2.434  0.9648 -1.0836  1.1252
16829SOL     OW52865   6.411   4.461   0.902 -0.1864  1.1199  0.2126
16829SOL    HW152866   6.457   4.377   0.905 -1.4972  0.3909  0.9179
16829SOL    HW252867   6.395   4.483   0.994 -1.3568  1.2685 -0.0108
16830SOL     OW52868   4.325   7.353   5.008 -0.0777  0.1480 -0.5239
16830SOL    HW152869   4.286   7.319   4.927  1.6575 -1.1509 -0.8719
16830SOL    HW252870   4.402   7.403   4.978 -1.0903  2.2638  0.1727
16831SOL     OW52871   2.476   5.915   6.281 -0.6768 -0.4697 -0.3676
16831SOL    HW152872   2.405   5.963   6.238  0.4521 -1.1010 -3.1294
16831SOL    HW252873   2.538   5.983   6.306 -1.5309 -0.0543  0.7288
16832SOL     OW52874   4.634   5.445   1.539  0.5813 -0.3498  0.4634
16832SOL    HW152875   4.636   5.390   1.461  1.4522 -1.8544  1.4922
16832SOL    HW252876   4.685   5.523   1.514 -1.2115  0.3869 -1.2218
16833SOL     OW52877   7.489  10.359   6.370 -0.1818 -0.0507  0.7173
16833SOL    HW152878   7.411  10.305   6.380  0.0680 -0.1380  2.5808
16833SOL    HW252879   7.541  10.314   6.304 -0.5683 -1.4055  1.3000
16834SOL     OW52880   3.649   6.886   1.857 -0.0304 -0.2083 -0.7365
16834SOL    HW152881   3.649   6.957   1.793  0.2031 -0.8057 -1.4255
16834SOL    HW252882   3.710   6.914   1.925 -0.5627  0.5982 -0.5915
16835SOL     OW52883   2.677   2.956  10.562 -0.7039  0.6558 -0.3924
16835SOL    HW152884   2.718   3.005  10.491  2.4535  0.4963  1.1381
16835SOL    HW252885   2.590   2.994  10.571  0.0249  2.9345 -2.1491
16836SOL     OW52886   0.869   8.350   1.091  0.2603  0.3839 -0.0132
16836SOL    HW152887   0.835   8.421   1.037 -0.2365  1.1092  1.2166
16836SOL    HW252888   0.797   8.327   1.150  0.4609 -1.0582 -0.2847
16837SOL     OW52889   4.799   8.188   0.083  0.6103 -0.6218 -0.6035
16837SOL    HW152890   4.846   8.237   0.151  0.4850  1.8076 -2.1595
16837SOL    HW252891   4.863   8.123   0.052  2.0088  0.7475 -0.7260
16838SOL     OW52892   4.943  10.555   3.009  0.3462  0.7012  0.2579
16838SOL    HW152893   4.932  10.630   2.951  1.1717 -0.1824 -1.1190
16838SOL    HW252894   4.862  10.505   2.998  0.7378  0.2352 -0.6345
16839SOL     OW52895   0.758  10.230   8.770 -0.8169  0.3386  0.1160
16839SOL    HW152896   0.802  10.146   8.785  1.3045  1.2662 -0.4744
16839SOL    HW252897   0.768  10.246   8.676  0.6203  2.1326  0.5050
16840SOL     OW52898   0.777   2.137   7.663  0.5156  0.5270 -0.3690
16840SOL    HW152899   0.870   2.125   7.682  0.7338 -0.0619 -1.7378
16840SOL    HW252900   0.733   2.101   7.741  1.4065 -0.4090 -0.2732
16841SOL     OW52901   2.258   6.181  10.614 -0.2549  0.5205 -0.5967
16841SOL    HW152902   2.272   6.146  10.702 -0.5864 -0.1494 -0.8032
16841SOL    HW252903   2.179   6.234  10.621 -0.9370 -0.4491 -0.7307
16842SOL     OW52904   8.618   8.565   3.816  0.2249  0.3615  0.3838
16842SOL    HW152905   8.660   8.639   3.861 -0.7854  0.8911  0.4876
16842SOL    HW252906   8.661   8.488   3.851  0.4882  0.8454  1.1560
16843SOL     OW52907   0.721   1.806   8.983  0.3562 -0.1803 -0.2602
16843SOL    HW152908   0.757   1.834   9.066 -0.5367  0.5177 -0.0902
16843SOL    HW252909   0.668   1.729   9.004 -1.0213  0.8302  0.0759
16844SOL     OW52910   6.695   9.321   5.025 -0.2760  0.1358  0.6878
16844SOL    HW152911   6.605   9.332   4.998 -1.0883  1.8000  3.6078
16844SOL    HW252912   6.697   9.234   5.065 -0.7938  0.3519  1.2036
16845SOL     OW52913   0.387   4.047   3.068  0.0387 -0.5002 -0.6245
16845SOL    HW152914   0.413   4.089   3.150  1.4243 -1.5753 -0.4819
16845SOL    HW252915   0.301   4.084   3.048  0.6285  1.3957  0.1706
16846SOL     OW52916   3.690  10.322   1.866  0.4545 -0.3376 -0.2859
16846SOL    HW152917   3.688  10.329   1.962 -0.9579  1.3938 -0.3820
16846SOL    HW252918   3.684  10.413   1.836  0.5514 -0.8759 -2.0198
16847SOL     OW52919   9.322   0.959   7.385  0.2170 -0.2225  0.0380
16847SOL    HW152920   9.231   0.935   7.401  0.5463 -2.0531 -0.6079
16847SOL    HW252921   9.316   1.033   7.324 -0.8192 -0.3846 -0.0847
16848SOL     OW52922   0.419   4.273   0.639  0.1539  0.0462 -0.0295
16848SOL    HW152923   0.390   4.185   0.662  0.6625  0.2032  1.3363
16848SOL    HW252924   0.515   4.270   0.647  0.3283  0.2411 -1.8046
16849SOL     OW52925   3.136   5.758   9.736  0.4596  0.6882 -0.4092
16849SOL    HW152926   3.073   5.778   9.668  0.3230  1.3641 -0.0959
16849SOL    HW252927   3.086   5.764   9.818  0.8170  0.7401 -0.1909
16850SOL     OW52928   8.850   2.662   0.372  0.1432 -0.0907  0.2142
16850SOL    HW152929   8.808   2.576   0.369 -1.1388  0.4517  1.2592
16850SOL    HW252930   8.883   2.677   0.283 -2.2987 -0.3810 -0.8104
16851SOL     OW52931   4.049   2.087   7.787 -0.0473 -0.2628 -0.1072
16851SOL    HW152932   4.058   2.142   7.709  0.3482 -1.1569 -0.7109
16851SOL    HW252933   4.139   2.071   7.815 -0.2013  0.3682  0.7649
16852SOL     OW52934   0.517   6.979   9.568 -0.6177 -0.4740  0.0260
16852SOL    HW152935   0.529   7.069   9.597  2.2974  0.0367 -2.2689
16852SOL    HW252936   0.576   6.928   9.623  0.6513 -0.3188 -1.1141
16853SOL     OW52937   4.213   4.949   2.460  0.5428 -0.1784  0.1771
16853SOL    HW152938   4.164   5.021   2.499  2.4396  0.2047  2.0612
16853SOL    HW252939   4.155   4.873   2.471 -2.0700  1.1280 -3.0725
16854SOL     OW52940   2.008   8.276   0.197  0.1088  0.2519  0.0165
16854SOL    HW152941   1.955   8.204   0.232 -0.7500  0.3314 -1.0734
16854SOL    HW252942   2.091   8.234   0.173  0.7452  0.1926  2.0527
16855SOL     OW52943   8.651   0.576   8.589  0.1953  0.6886  0.2201
16855SOL    HW152944   8.739   0.580   8.627 -0.4288  1.6743  1.7109
16855SOL    HW252945   8.593   0.581   8.665 -1.1734 -1.0086 -0.6439
16856SOL     OW52946   8.246   7.693  10.308 -0.4445  0.0977 -0.1232
16856SOL    HW152947   8.322   7.702  10.365 -0.1185 -2.2787 -0.0849
16856SOL    HW252948   8.282   7.692  10.220 -0.4992 -0.4070 -0.1402
16857SOL     OW52949   6.876   5.597   6.069  0.9015  1.0433 -0.2086
16857SOL    HW152950   6.821   5.657   6.019 -0.9629  0.1288  0.6355
16857SOL    HW252951   6.929   5.552   6.003 -1.3530  0.0013 -1.4353
16858SOL     OW52952   5.986   0.711   8.691  0.3263 -0.0835  0.3893
16858SOL    HW152953   6.014   0.759   8.613 -0.7839 -0.6833 -0.3996
16858SOL    HW252954   5.913   0.761   8.726 -1.3538 -1.5062 -0.8800
16859SOL     OW52955   1.158   1.468   1.196  0.6509  0.5297  0.0039
16859SOL    HW152956   1.234   1.492   1.250  1.9027  1.5887 -2.1129
16859SOL    HW252957   1.106   1.548   1.191  0.2719  0.2893  0.0280
16860SOL     OW52958   0.462   8.197   2.143  0.2851  0.1604 -0.5192
16860SOL    HW152959   0.422   8.218   2.228  1.6192  1.9371 -0.2480
16860SOL    HW252960   0.392   8.210   2.079 -0.7773 -1.3294  0.2851
16861SOL     OW52961   6.245   4.368   8.717 -0.0420 -0.3586 -0.3347
16861SOL    HW152962   6.186   4.366   8.641  0.7122  0.4089 -0.9615
16861SOL    HW252963   6.190   4.338   8.790 -1.0882 -0.0970 -0.9810
16862SOL     OW52964   8.033   1.378   0.852  0.6076 -0.1034 -0.5275
16862SOL    HW152965   7.994   1.291   0.843  1.3971 -0.6220  0.8358
16862SOL    HW252966   7.960   1.439   0.839 -0.0191 -0.9697 -1.1469
16863SOL     OW52967   2.669   4.263   9.814  0.2518  0.1360 -0.1265
16863SOL    HW152968   2.605   4.202   9.778  1.1900 -0.4738 -0.7937
16863SOL    HW252969   2.745   4.209   9.834  0.6914  0.9074  0.3369
16864SOL     OW52970   4.248   3.142   4.694 -0.5244 -0.3572  0.6492
16864SOL    HW152971   4.156   3.116   4.698 -1.0152  0.6961 -1.9371
16864SOL    HW252972   4.287   3.083   4.630  0.2367  0.1794  0.6005
16865SOL     OW52973   3.790  10.095   4.731  0.4783 -0.1234  0.0378
16865SOL    HW152974   3.882  10.106   4.707  0.6790  1.2153  1.2447
16865SOL    HW252975   3.742  10.099   4.648  1.4074  0.5105 -0.4820
16866SOL     OW52976   3.389   0.021   9.857  0.0190 -0.2659  0.1723
16866SOL    HW152977   3.397   0.042   9.764  0.6246  1.4342  0.5721
16866SOL    HW252978   3.428  -0.067   9.865  0.6901 -0.1029 -1.0551
16867SOL     OW52979   4.245   9.914   0.492 -0.4835 -0.0649  0.1708
16867SOL    HW152980   4.165   9.902   0.545 -0.4758 -2.1084 -0.2097
16867SOL    HW252981   4.213   9.929   0.404 -0.4787 -0.7061  0.0513
16868SOL     OW52982   2.957  10.694   5.443 -0.9406 -0.4971  0.0402
16868SOL    HW152983   3.027  10.634   5.419  1.1127  0.8095  2.3405
16868SOL    HW252984   2.977  10.775   5.396  0.3077  0.4903  2.1211
16869SOL     OW52985   6.904   7.463   1.216 -0.4638 -0.2568 -0.8254
16869SOL    HW152986   6.832   7.470   1.280 -1.0575 -1.7381 -1.2889
16869SOL    HW252987   6.956   7.389   1.246  1.3910  1.2876 -0.0479
16870SOL     OW52988   9.945   5.094   0.134 -0.1085  0.1720  0.3625
16870SOL    HW152989   9.927   5.156   0.204  0.9781 -0.3015  1.0896
16870SOL    HW252990   9.994   5.024   0.176  1.5758  0.4098 -1.0898
16871SOL     OW52991   7.337   7.523   3.788 -0.3087 -0.2993  0.0946
16871SOL    HW152992   7.313   7.589   3.853 -2.6198  1.2811 -2.1389
16871SOL    HW252993   7.416   7.559   3.745 -0.3614  0.0010  0.2485
16872SOL     OW52994  10.717  10.534   8.065 -0.2287  0.3383  0.1109
16872SOL    HW152995  10.741  10.515   7.974  1.5036  1.5454  0.2678
16872SOL    HW252996  10.744  10.455   8.113 -2.3644 -0.8717 -0.5263
16873SOL     OW52997   4.354   4.195   6.447  0.0946  0.0252  0.6839
16873SOL    HW152998   4.266   4.228   6.429  0.4427 -0.0840 -1.5816
16873SOL    HW252999   4.345   4.143   6.526 -1.6596  0.8542  1.0737
16874SOL     OW53000  10.017   4.910  10.087  0.1316 -0.1964 -0.1804
16874SOL    HW153001  10.055   4.824  10.070  1.9889  0.6403 -0.4930
16874SOL    HW253002  10.089   4.971  10.076 -0.7219  1.2775  1.7958
16875SOL     OW53003   5.354   6.688   0.829  0.2103  0.3433  0.4245
16875SOL    HW153004   5.303   6.671   0.908 -0.1321 -1.2066 -0.0868
16875SOL    HW253005   5.332   6.778   0.805 -0.3796  0.5312  1.5764
16876SOL     OW53006   1.291  10.532   2.434  0.0468  0.1939 -0.0413
16876SOL    HW153007   1.376  10.572   2.455 -0.5968  0.7101  1.7704
16876SOL    HW253008   1.281  10.462   2.499 -1.0484  0.3532 -0.0247
16877SOL     OW53009   4.392  10.155  10.408 -0.4068 -0.1394  0.5986
16877SOL    HW153010   4.336  10.215  10.359 -1.3121 -2.3143 -1.2131
16877SOL    HW253011   4.332  10.088  10.441  0.6763 -0.5378  1.8479
16878SOL     OW53012   9.800   7.642   8.360 -0.3113  0.3854  0.3124
16878SOL    HW153013   9.887   7.662   8.394  0.4984 -1.8290 -0.3243
16878SOL    HW253014   9.790   7.699   8.284  1.6013 -0.9444 -1.0157
16879SOL     OW53015   1.245   8.311   5.950  0.0190  0.0601  0.0493
16879SOL    HW153016   1.160   8.281   5.918 -0.1787  0.4271  0.2191
16879SOL    HW253017   1.308   8.278   5.886 -0.0772 -1.5215  0.7300
16880SOL     OW53018   5.180   9.522   5.956 -0.6230  0.4377 -0.8953
16880SOL    HW153019   5.272   9.527   5.932 -1.1643  0.2472 -3.2671
16880SOL    HW253020   5.158   9.610   5.987  0.5174  0.2598  0.4918
16881SOL     OW53021   7.524   3.410   0.555  0.3073 -0.1565  0.0017
16881SOL    HW153022   7.481   3.393   0.639 -0.7474  1.0661 -0.2485
16881SOL    HW253023   7.459   3.382   0.490  1.8063 -2.7877 -0.4735
16882SOL     OW53024   0.263   3.508   2.460  0.0536 -0.2062 -0.5584
16882SOL    HW153025   0.301   3.570   2.522  0.7319 -0.2163 -0.9569
16882SOL    HW253026   0.177   3.486   2.497 -0.8363  2.0569 -1.0941
16883SOL     OW53027   3.571   4.296   0.152 -0.0135  0.5164 -0.4409
16883SOL    HW153028   3.590   4.213   0.197  0.0181 -0.1069 -1.5588
16883SOL    HW253029   3.490   4.327   0.191  0.0267  0.0034  0.0589
16884SOL     OW53030   3.311   8.885  10.540 -0.1284  0.1823 -0.6344
16884SOL    HW153031   3.231   8.836  10.522  0.8089 -1.0530 -1.6402
16884SOL    HW253032   3.357   8.833  10.606  1.0859 -0.6238 -2.0372
16885SOL     OW53033   7.216   8.048   9.333  0.4534 -0.2983 -0.2457
16885SOL    HW153034   7.287   8.001   9.288  0.2860  1.1178 -2.1161
16885SOL    HW253035   7.137   7.998   9.311  0.4333  0.1288 -1.1872
16886SOL     OW53036   6.173   7.945   1.533  0.2954 -0.0193  0.8229
16886SOL    HW153037   6.157   8.030   1.575 -0.4476  0.1340  0.2507
16886SOL    HW253038   6.185   7.966   1.440 -0.6906 -0.6136  0.5520
16887SOL     OW53039   2.521   1.894   7.103  0.0052 -0.0381  0.3853
16887SOL    HW153040   2.458   1.848   7.048  1.4726 -0.1092 -1.3378
16887SOL    HW253041   2.512   1.854   7.189 -1.7517 -0.5380  0.0067
16888SOL     OW53042  10.730   5.241   9.587 -0.6826 -0.2646 -0.1394
16888SOL    HW153043  10.764   5.326   9.559 -0.4083  0.1644  1.4041
16888SOL    HW253044  10.808   5.191   9.609 -0.8352 -0.9954 -1.2077
16889SOL     OW53045   5.053   0.193   3.728  0.2383 -0.3139 -0.0582
16889SOL    HW153046   5.035   0.275   3.681 -2.5561  0.5941  2.2574
16889SOL    HW253047   5.023   0.124   3.669  2.5129  0.2260 -1.9965
16890SOL     OW53048   0.745   9.114   9.901  0.2450 -0.1006 -0.2790
16890SOL    HW153049   0.715   9.180   9.963 -1.5067 -0.0592 -1.1302
16890SOL    HW253050   0.787   9.048   9.955  0.5424  0.8896  0.7412
16891SOL     OW53051   5.217   2.430   9.858 -0.3219 -0.0478  0.5316
16891SOL    HW153052   5.206   2.336   9.874  0.5017  0.1324  2.4362
16891SOL    HW253053   5.260   2.463   9.937 -0.7295  1.9724 -0.0341
16892SOL     OW53054   9.423   7.290  10.163  0.4874  0.2009  0.2432
16892SOL    HW153055   9.407   7.293  10.258  1.6585  0.2021  0.4603
16892SOL    HW253056   9.348   7.334  10.125 -0.1991 -0.1568  1.1498
16893SOL     OW53057   3.626   4.792  10.575  0.3992  1.1236 -0.2062
16893SOL    HW153058   3.651   4.737  10.500 -0.5105  1.3398 -0.6832
16893SOL    HW253059   3.585   4.731  10.636  1.3567  0.9036  0.2432
16894SOL     OW53060   4.808   7.612   5.480 -0.2245  0.6673  0.0553
16894SOL    HW153061   4.808   7.522   5.512 -0.0547  0.3479 -0.8141
16894SOL    HW253062   4.901   7.633   5.468 -0.1126  1.7727  2.4167
16895SOL     OW53063   6.539   1.143   6.297  0.5229  0.0469 -0.0839
16895SOL    HW153064   6.477   1.204   6.337  0.7818  0.5892 -0.4972
16895SOL    HW253065   6.519   1.059   6.338 -1.5085 -0.1407 -1.3258
16896SOL     OW53066   2.170  10.710   4.089 -0.6110 -0.5986 -0.0823
16896SOL    HW153067   2.167  10.677   3.999  2.1890 -2.2930  0.3078
16896SOL    HW253068   2.209  10.638   4.139 -0.2167  1.0378  2.0987
16897SOL     OW53069   4.688   4.427   5.149  0.3889 -0.4672 -0.3364
16897SOL    HW153070   4.634   4.497   5.113 -1.6607 -0.7910  1.8694
16897SOL    HW253071   4.753   4.409   5.080 -0.7728  1.6139 -2.1071
16898SOL     OW53072   1.847   2.680   9.087  0.0841  0.3470 -0.0339
16898SOL    HW153073   1.789   2.699   9.161  0.7173  0.8654  0.3383
16898SOL    HW253074   1.933   2.714   9.114  0.6342 -0.6572 -0.4581
16899SOL     OW53075   9.290   5.773   7.178  0.1103 -0.4975 -0.0727
16899SOL    HW153076   9.342   5.708   7.132  0.8342 -0.0894  0.1486
16899SOL    HW253077   9.207   5.776   7.130  1.4142  1.1019 -2.4270
16900SOL     OW53078   0.838   5.528   8.470  0.3316 -0.5041 -0.3576
16900SOL    HW153079   0.800   5.612   8.497  1.1937 -0.3664  0.4911
16900SOL    HW253080   0.783   5.463   8.513 -1.3900 -0.4733 -2.3748
16901SOL     OW53081   9.493   5.505   1.654 -0.1059 -0.2179  0.3979
16901SOL    HW153082   9.469   5.424   1.609 -0.5143 -0.4100  0.9647
16901SOL    HW253083   9.421   5.565   1.635  0.9442  0.5885 -1.4160
16902SOL     OW53084   7.873   8.890   2.002  0.0935  0.0284  0.3680
16902SOL    HW153085   7.780   8.904   1.984  0.3983  0.3397 -1.0397
16902SOL    HW253086   7.900   8.969   2.050 -0.2160  0.2271  0.2203
16903SOL     OW53087   0.362  10.268   4.369  0.1463  0.3919 -0.1434
16903SOL    HW153088   0.314  10.191   4.340  0.8018  0.1330 -0.5752
16903SOL    HW253089   0.303  10.313   4.429 -0.9956  0.5906 -1.3858
16904SOL     OW53090   9.605   4.584   5.534  0.0871  0.2771 -0.4101
16904SOL    HW153091   9.613   4.669   5.577 -0.2224 -0.0848  0.3873
16904SOL    HW253092   9.673   4.530   5.574 -0.1611 -0.0492 -0.4237
16905SOL     OW53093   4.792   3.824   1.274 -0.3405  0.5189  0.4934
16905SOL    HW153094   4.834   3.906   1.250  0.1967  0.3038  0.6782
16905SOL    HW253095   4.714   3.850   1.324 -0.7477  0.9329 -0.3438
16906SOL     OW53096   1.153   4.976   3.342 -0.0329 -0.3208  0.2976
16906SOL    HW153097   1.223   4.978   3.407  1.4021  0.7138 -1.1865
16906SOL    HW253098   1.109   4.893   3.357  0.1651 -0.0589  2.6299
16907SOL     OW53099   6.053  10.326   9.244  0.0399 -0.3212  0.0074
16907SOL    HW153100   6.004  10.244   9.230  0.0949 -0.2431 -0.6733
16907SOL    HW253101   6.102  10.338   9.163 -0.3439  0.6437 -0.0937
16908SOL     OW53102  10.196   8.354   8.673 -0.8369 -0.7717 -0.2753
16908SOL    HW153103  10.146   8.299   8.733  0.7997 -0.4321  1.4933
16908SOL    HW253104  10.277   8.305   8.657  0.0647  0.4981  0.2573
16909SOL     OW53105   6.212   2.365   3.406 -0.2591  0.2383 -0.2258
16909SOL    HW153106   6.148   2.295   3.417  0.0624  0.1649  1.3609
16909SOL    HW253107   6.213   2.411   3.490  1.7573  0.2457 -0.1981
16910SOL     OW53108   0.921   3.574   7.923  0.1972  0.2832  0.2807
16910SOL    HW153109   0.989   3.604   7.863 -1.1868 -0.0514 -1.5787
16910SOL    HW253110   0.880   3.654   7.956 -0.6600  0.5356 -1.2674
16911SOL     OW53111   9.197   7.080   4.112  0.2395 -0.0031  0.2130
16911SOL    HW153112   9.151   7.001   4.140 -0.3123  0.2525  0.0544
16911SOL    HW253113   9.131   7.149   4.117 -0.4919 -0.2441 -3.4512
16912SOL     OW53114  10.656   3.305   0.275 -0.0992 -0.4268 -0.9176
16912SOL    HW153115  10.678   3.375   0.213  0.5484 -0.1206 -0.3475
16912SOL    HW253116  10.591   3.252   0.229  0.6739 -0.4426 -2.0219
16913SOL     OW53117   9.790  10.547   8.161  0.4765  0.8159 -0.6885
16913SOL    HW153118   9.837  10.546   8.245  0.7074  1.4291 -0.8121
16913SOL    HW253119   9.762  10.637   8.150 -1.9306  0.2288  0.0315
16914SOL     OW53120   1.423   2.240  10.038  0.5482 -0.3736  0.1347
16914SOL    HW153121   1.458   2.264  10.124 -1.1252  2.0061  0.2593
16914SOL    HW253122   1.501   2.231   9.983  1.6515 -1.8294  1.8114
16915SOL     OW53123   6.753   7.818   1.533  0.6476 -0.0099  0.1234
16915SOL    HW153124   6.710   7.891   1.488 -0.8413  0.5513  2.2840
16915SOL    HW253125   6.745   7.745   1.472 -3.0902  0.1760  0.1357
16916SOL     OW53126   9.627   1.819   7.969 -0.4758 -0.1063  0.9092
16916SOL    HW153127   9.653   1.789   8.056  0.0213 -1.5245  0.3006
16916SOL    HW253128   9.557   1.759   7.942  0.3556 -0.6034 -0.2373
16917SOL     OW53129   3.250   5.713   6.955 -0.0348  0.0271  0.4259
16917SOL    HW153130   3.236   5.780   7.023  0.1704 -0.5683  1.0714
16917SOL    HW253131   3.254   5.762   6.873 -0.4120  0.7520  0.8319
16918SOL     OW53132   2.991   2.803   2.228  0.0653  0.3960  0.2100
16918SOL    HW153133   3.064   2.829   2.285 -0.0169  1.0791  0.0148
16918SOL    HW253134   3.018   2.719   2.192  0.2313  0.0725  1.0537
16919SOL     OW53135   2.090   4.644   0.169 -0.2886  0.0564  0.1058
16919SOL    HW153136   2.124   4.730   0.144  0.4785 -0.4762 -0.8135
16919SOL    HW253137   2.021   4.626   0.105  0.3639 -0.4953 -0.4671
16920SOL     OW53138   3.950   8.932  10.676  0.1186  0.7203  0.2207
16920SOL    HW153139   3.958   9.024  10.651  0.5746  0.8870  0.9123
16920SOL    HW253140   4.027   8.916  10.731  0.0396 -0.0730  0.1163
16921SOL     OW53141  10.181   3.814   9.562  0.6777  0.5643 -0.2364
16921SOL    HW153142  10.106   3.755   9.573  1.7567 -0.6491  1.0008
16921SOL    HW253143  10.216   3.825   9.651  2.7227  0.0463 -0.9146
16922SOL     OW53144   4.500   9.911  10.299  0.2898  0.0820  0.3018
16922SOL    HW153145   4.457   9.956  10.226  0.0333 -0.8907 -0.1599
16922SOL    HW253146   4.512   9.980  10.365 -0.4642  0.7411 -0.2177
16923SOL     OW53147   4.099   7.973   3.830  0.5862 -0.2468  0.2837
16923SOL    HW153148   4.121   8.016   3.748 -2.0379 -0.4580 -0.6083
16923SOL    HW253149   4.136   7.885   3.823  1.0556 -0.0011 -0.3289
16924SOL     OW53150   4.428   6.645   1.489  1.0441  0.2428  0.1196
16924SOL    HW153151   4.380   6.693   1.421 -0.7123 -0.4953  0.7919
16924SOL    HW253152   4.421   6.554   1.463  0.5815 -0.0238  1.1395
16925SOL     OW53153   5.781   2.211   6.039 -1.0585 -0.1755  0.2712
16925SOL    HW153154   5.815   2.128   6.008  2.3811  1.5800 -1.2193
16925SOL    HW253155   5.744   2.252   5.961 -0.4643  0.6639  0.4173
16926SOL     OW53156   0.760   6.320   8.937 -0.2020  0.2998 -0.5827
16926SOL    HW153157   0.827   6.386   8.920  0.4744  0.5700  2.4361
16926SOL    HW253158   0.790   6.243   8.889  2.5553  0.3346  0.8381
16927SOL     OW53159   6.463   2.125   9.577 -0.2776 -0.2514  0.4825
16927SOL    HW153160   6.506   2.124   9.662  0.7428  2.0037  0.0516
16927SOL    HW253161   6.395   2.192   9.585  1.5081  1.9244 -1.1463
16928SOL     OW53162   6.237   6.450   9.550 -0.1689  0.2842  0.1873
16928SOL    HW153163   6.301   6.416   9.612 -0.8873 -2.3993 -0.4398
16928SOL    HW253164   6.289   6.468   9.471 -0.0690 -1.4494 -0.1737
16929SOL     OW53165   2.874   0.315   8.349  0.3226 -0.3231  0.0185
16929SOL    HW153166   2.785   0.350   8.358  0.4526 -0.0605  0.3158
16929SOL    HW253167   2.910   0.360   8.272 -0.1605 -1.2097 -0.7472
16930SOL     OW53168   5.909   1.813   7.965  0.2018  0.0529 -0.4497
16930SOL    HW153169   5.935   1.902   7.987 -0.4156  0.2583 -0.5486
16930SOL    HW253170   5.976   1.784   7.903  0.8469  0.1617  0.1795
16931SOL     OW53171   8.749   2.850   1.319  0.2486  0.3154  0.2817
16931SOL    HW153172   8.741   2.938   1.284 -4.7942  1.1930  2.6399
16931SOL    HW253173   8.772   2.862   1.411 -1.9951 -0.5409  1.0358
16932SOL     OW53174   3.341   4.463   1.639  0.1406  0.4900 -0.2154
16932SOL    HW153175   3.267   4.520   1.657  2.4196  3.7490 -0.2175
16932SOL    HW253176   3.332   4.391   1.701 -4.0544 -0.5034 -1.6336
16933SOL     OW53177   5.914   3.606   3.365  0.0845 -0.4727 -0.1587
16933SOL    HW153178   5.839   3.546   3.359  0.1855 -0.6281  0.1111
16933SOL    HW253179   5.989   3.555   3.336 -0.0568 -0.0379 -1.3212
16934SOL     OW53180   2.417   4.849   9.749 -0.2061 -0.1235 -0.4687
16934SOL    HW153181   2.441   4.835   9.841  0.1974  0.0038 -0.5510
16934SOL    HW253182   2.488   4.807   9.700  0.2546  0.9167 -0.7218
16935SOL     OW53183   9.237   3.775   4.068 -0.0263  0.4021  0.1085
16935SOL    HW153184   9.188   3.802   3.990  0.8642 -0.9348 -0.9559
16935SOL    HW253185   9.329   3.786   4.044  0.3239 -1.6940  0.2730
16936SOL     OW53186   1.753   9.044   3.435  0.0657 -0.1629  0.4407
16936SOL    HW153187   1.820   8.976   3.441 -0.0970 -0.3985 -0.2394
16936SOL    HW253188   1.759   9.076   3.344 -1.7366 -1.2594 -0.1272
16937SOL     OW53189   5.890   6.684   0.214 -0.2305 -0.3318 -1.0405
16937SOL    HW153190   5.914   6.746   0.283  1.0872  1.4938 -2.9987
16937SOL    HW253191   5.794   6.688   0.210 -0.2024  1.3652 -0.8613
16938SOL     OW53192   6.462   6.032   3.668  0.0473  0.5557  0.4586
16938SOL    HW153193   6.456   6.039   3.764 -0.0552 -2.1677  0.7183
16938SOL    HW253194   6.546   5.989   3.652  0.0366  0.9221 -0.6819
16939SOL     OW53195   9.485  10.664   9.936  0.0765 -0.1038  0.0563
16939SOL    HW153196   9.412  10.605   9.954  0.3818 -0.5151 -0.0240
16939SOL    HW253197   9.536  10.619   9.869 -1.2493  1.5818 -2.2157
16940SOL     OW53198   4.523   6.581   6.602  0.3799 -0.0522  0.0036
16940SOL    HW153199   4.576   6.635   6.661  2.2162 -2.6824  0.9462
16940SOL    HW253200   4.439   6.627   6.597  1.4686  2.3059  1.5171
16941SOL     OW53201   7.389   9.479   5.191 -0.3530  0.1258  0.2984
16941SOL    HW153202   7.346   9.555   5.153  0.2252  0.3181  0.0148
16941SOL    HW253203   7.474   9.476   5.148 -0.3811 -0.6960  0.2863
16942SOL     OW53204   9.031  10.661   6.177  0.0653  0.0258 -0.0746
16942SOL    HW153205   9.046  10.732   6.239  0.0099  0.0056 -0.0382
16942SOL    HW253206   9.105  10.666   6.117 -0.4125  0.7000 -0.6230
16943SOL     OW53207   7.146   8.823   0.794  0.0338 -0.2908 -0.1457
16943SOL    HW153208   7.157   8.824   0.699  1.0993 -0.6243 -0.0435
16943SOL    HW253209   7.236   8.821   0.828 -0.2662  1.3550  0.8874
16944SOL     OW53210   4.718  10.234   5.066 -1.0354  0.2555 -0.0515
16944SOL    HW153211   4.812  10.233   5.083 -1.2935  0.3429  1.5203
16944SOL    HW253212   4.695  10.141   5.054 -1.0724  0.0040  1.6898
16945SOL     OW53213   1.418   9.884   9.960 -0.1792 -0.1365 -1.0803
16945SOL    HW153214   1.485   9.817   9.971 -0.4458 -0.0813  1.8962
16945SOL    HW253215   1.466   9.963   9.934  1.1826  0.1411  1.8618
16946SOL     OW53216   2.775   5.180   5.939  0.1311 -0.3883 -0.0745
16946SOL    HW153217   2.722   5.253   5.906 -0.1439 -1.0276 -1.0848
16946SOL    HW253218   2.770   5.188   6.034 -1.3576 -0.1280 -0.1543
16947SOL     OW53219   4.430  10.632   9.470 -0.8425  0.4655  0.0877
16947SOL    HW153220   4.343  10.629   9.511 -0.6119 -0.1847  0.5514
16947SOL    HW253221   4.448  10.541   9.446 -0.5732  0.6978 -0.6259
16948SOL     OW53222   1.622   8.694   7.021 -0.3587  0.7997  0.4055
16948SOL    HW153223   1.553   8.706   6.955 -1.1389  2.7370  1.5048
16948SOL    HW253224   1.590   8.741   7.098  2.0639  1.4849  1.0730
16949SOL     OW53225   2.666   8.210   1.732  0.2682  0.5417 -0.2703
16949SOL    HW153226   2.699   8.159   1.659  0.7301  0.5419 -0.0633
16949SOL    HW253227   2.721   8.185   1.806  0.1341  0.9211 -0.0381
16950SOL     OW53228   8.796   1.338   7.217 -0.1668 -0.2736  0.1208
16950SOL    HW153229   8.834   1.342   7.129 -0.9957  2.9537 -0.2359
16950SOL    HW253230   8.869   1.358   7.275 -0.3177  1.5017 -0.2239
16951SOL     OW53231   8.349   6.042   5.116 -0.5751  0.2119 -0.0175
16951SOL    HW153232   8.421   6.027   5.054 -1.1503  1.9328 -1.1802
16951SOL    HW253233   8.277   5.989   5.083 -1.6429  2.8349 -2.3485
16952SOL     OW53234  10.516   6.929   7.549  0.5576 -0.3261 -0.2402
16952SOL    HW153235  10.509   6.861   7.482 -0.3245 -0.7995  0.3007
16952SOL    HW253236  10.477   7.007   7.509 -1.0102 -0.9065  0.0774
16953SOL     OW53237   2.156   6.818   6.195  0.2205 -0.0910  0.1172
16953SOL    HW153238   2.129   6.910   6.192  0.7015  0.0194 -0.9616
16953SOL    HW253239   2.251   6.820   6.195  0.2427 -0.5743  1.0154
16954SOL     OW53240   0.989   7.973   0.111  0.3712 -0.5897 -0.6110
16954SOL    HW153241   1.076   7.986   0.073  0.5085 -0.0068 -0.1040
16954SOL    HW253242   0.938   7.934   0.040  0.1922  1.8714 -1.9677
16955SOL     OW53243  10.384   1.751   7.994 -0.2249 -0.0149  0.2191
16955SOL    HW153244  10.438   1.724   7.919 -0.0457 -0.9248  0.6563
16955SOL    HW253245  10.306   1.696   7.987 -1.4290  1.7050 -0.7540
16956SOL     OW53246   6.056   8.954   3.199 -0.6698  0.1044 -0.3352
16956SOL    HW153247   6.013   8.929   3.280 -0.3905 -0.8179 -0.4543
16956SOL    HW253248   6.146   8.975   3.225 -0.6509  0.0621 -0.3658
16957SOL     OW53249   0.058   2.122   1.735 -0.2087 -0.1022 -0.0046
16957SOL    HW153250   0.088   2.208   1.765 -1.2902 -0.0425  0.9767
16957SOL    HW253251   0.044   2.132   1.641 -2.9752  1.6458  0.4825
16958SOL     OW53252   1.923  10.069   9.828  0.1509  0.0687 -0.7359
16958SOL    HW153253   1.932   9.975   9.816  1.6801 -0.3482  2.5947
16958SOL    HW253254   1.841  10.079   9.876  1.0295  0.1675  0.7893
16959SOL     OW53255   1.731   4.064  10.740 -0.7190  0.2937  0.5243
16959SOL    HW153256   1.736   4.107  10.825 -1.9852  1.4581  0.0488
16959SOL    HW253257   1.795   3.993  10.745 -0.6162  0.4637  2.3652
16960SOL     OW53258   7.663   8.025  10.525 -0.2191  0.0962 -0.5945
16960SOL    HW153259   7.718   7.951  10.548 -1.2864 -0.6050 -0.2428
16960SOL    HW253260   7.583   8.013  10.577 -1.0919  0.5815 -1.7831
16961SOL     OW53261   0.438   7.081   6.678  0.0570  0.3024  0.0242
16961SOL    HW153262   0.487   7.062   6.598  1.1531  1.0803  0.4749
16961SOL    HW253263   0.381   7.154   6.654  0.7628  0.8863  0.0619
16962SOL     OW53264   7.803   3.409   2.179  0.4597 -0.5493 -0.2539
16962SOL    HW153265   7.843   3.476   2.236 -1.0027 -1.7737  2.4041
16962SOL    HW253266   7.748   3.459   2.119  1.5825  0.7733 -0.2392
16963SOL     OW53267   3.491   4.060   6.595 -0.3684  0.4001 -0.4281
16963SOL    HW153268   3.481   4.019   6.509 -3.5892 -1.9231  0.8421
16963SOL    HW253269   3.441   4.142   6.588  0.1463  0.6782 -0.9775
16964SOL     OW53270   2.366   3.663   0.672  0.1352  0.3819 -0.0509
16964SOL    HW153271   2.304   3.719   0.720  0.2426  0.2276  0.2709
16964SOL    HW253272   2.451   3.707   0.683  0.2100  0.1910  0.1529
16965SOL     OW53273   0.275   8.876   8.627  0.8647 -0.0844 -0.0541
16965SOL    HW153274   0.244   8.965   8.647  1.5848  0.1949 -0.1488
16965SOL    HW253275   0.244   8.823   8.700  0.1989  0.1867 -0.1274
16966SOL     OW53276   5.767   6.607   9.620 -0.3891 -0.8987 -0.0513
16966SOL    HW153277   5.681   6.625   9.581 -0.2939  0.4077  0.2977
16966SOL    HW253278   5.751   6.533   9.679 -1.9259  0.9619  2.0296
16967SOL     OW53279   8.224   7.955   9.494  0.2599 -0.4618 -0.0381
16967SOL    HW153280   8.241   7.986   9.583  0.6974  1.3873 -0.7211
16967SOL    HW253281   8.129   7.954   9.486  0.0692 -3.3592  1.2981
16968SOL     OW53282   1.020   7.517   4.151 -0.2649  0.4046  0.6228
16968SOL    HW153283   1.083   7.587   4.166 -1.0386  1.3432 -0.3099
16968SOL    HW253284   1.023   7.464   4.230  1.8918  0.2342  0.4773
16969SOL     OW53285   2.366   5.636   7.182 -0.0730 -0.2449 -0.2914
16969SOL    HW153286   2.451   5.644   7.138  0.7109  1.5727  1.3702
16969SOL    HW253287   2.385   5.585   7.261 -0.5658 -0.0572 -0.0511
16970SOL     OW53288   6.798   6.903   8.860  0.0263 -0.6261  0.0217
16970SOL    HW153289   6.851   6.874   8.786 -1.6232 -0.6310 -1.2312
16970SOL    HW253290   6.858   6.904   8.934  1.9576  0.2330 -1.4685
16971SOL     OW53291   2.459   7.811   3.951  0.1683  0.5114  0.3483
16971SOL    HW153292   2.436   7.783   3.862 -0.6151  1.0988  0.3541
16971SOL    HW253293   2.378   7.848   3.986 -0.1663 -1.5995  2.0702
16972SOL     OW53294   4.478  10.654   8.464 -0.2670  0.3575  0.1372
16972SOL    HW153295   4.490  10.700   8.548 -0.0924  1.9205 -0.6987
16972SOL    HW253296   4.461  10.724   8.401 -3.0509 -0.9273 -0.7169
16973SOL     OW53297   4.190  10.302   7.716  0.2466  0.3601  0.0419
16973SOL    HW153298   4.111  10.251   7.732  1.0523 -0.0480  3.4729
16973SOL    HW253299   4.257  10.238   7.691  0.0825  0.4304 -0.6112
16974SOL     OW53300   9.939  10.042   7.075 -0.3672  0.5342  0.0069
16974SOL    HW153301   9.870  10.107   7.092 -2.3080 -1.4960  0.3304
16974SOL    HW253302   9.929  10.020   6.982 -1.4736 -1.1358  0.4838
16975SOL     OW53303   7.712   6.610   4.240  0.2924 -0.2018 -0.0178
16975SOL    HW153304   7.722   6.554   4.317  0.2381 -0.1341  0.0391
16975SOL    HW253305   7.795   6.657   4.234  0.0427  0.3077  0.4125
16976SOL     OW53306   8.902   2.745   4.053  0.1502  0.3417  0.1757
16976SOL    HW153307   8.860   2.826   4.081 -1.0991  0.0507 -0.7421
16976SOL    HW253308   8.835   2.677   4.069  0.4806 -0.2270 -0.7597
16977SOL     OW53309   7.827   8.337   2.155  0.2155  0.1217 -0.1974
16977SOL    HW153310   7.915   8.310   2.182 -0.4794 -0.9962  1.1054
16977SOL    HW253311   7.816   8.298   2.068  1.8914  2.4029 -1.5645
16978SOL     OW53312  10.604   5.557  10.755 -0.1913  0.4547 -0.2504
16978SOL    HW153313  10.642   5.643  10.771 -1.6012  1.1442 -0.4114
16978SOL    HW253314  10.669   5.495  10.786  1.2462  1.5567 -0.9663
16979SOL     OW53315   4.996   7.365   9.787  0.5869  0.3906 -0.1362
16979SOL    HW153316   5.046   7.442   9.814  0.7785 -0.4134  1.9992
16979SOL    HW253317   4.917   7.401   9.746  1.2001  1.7054 -0.2169
16980SOL     OW53318   4.239   9.965   7.785  0.7631 -0.0758 -0.0820
16980SOL    HW153319   4.154  10.000   7.757  0.6053 -0.2945  0.1186
16980SOL    HW253320   4.233   9.961   7.881  0.8945 -0.3579 -0.0849
16981SOL     OW53321   9.671   6.478   6.419 -0.1146  0.3455 -0.1716
16981SOL    HW153322   9.764   6.499   6.431  0.0410 -1.1178  1.5105
16981SOL    HW253323   9.668   6.382   6.419 -1.7777  0.3710  1.2093
16982SOL     OW53324   1.575   4.063   5.427  0.2211  0.1035 -0.2130
16982SOL    HW153325   1.480   4.072   5.417  0.1749  0.5486  0.4958
16982SOL    HW253326   1.610   4.150   5.407  0.6520 -0.4690 -2.0896
16983SOL     OW53327   8.018   1.534   2.351 -0.1385  0.0793  0.3885
16983SOL    HW153328   8.080   1.547   2.279 -2.8095  1.6618 -1.8666
16983SOL    HW253329   7.963   1.461   2.323 -0.5165 -0.0281  1.3745
16984SOL     OW53330   5.274  10.326   2.559 -0.0445 -0.1220 -0.4845
16984SOL    HW153331   5.278  10.398   2.622 -0.0136  0.8893 -1.6272
16984SOL    HW253332   5.316  10.253   2.605  1.6604  1.1008  0.0223
16985SOL     OW53333   5.020   7.863   5.827  0.0396  0.2183  0.7464
16985SOL    HW153334   5.058   7.881   5.913 -1.6456  0.3462  1.5127
16985SOL    HW253335   4.946   7.923   5.821 -0.6702 -0.7145 -0.2237
16986SOL     OW53336   6.480   2.945   3.373  0.1441 -0.1920 -0.6649
16986SOL    HW153337   6.390   2.979   3.368 -1.4732 -3.9731 -1.2333
16986SOL    HW253338   6.479   2.889   3.450  2.4887  0.6416  0.0359
16987SOL     OW53339   6.153   6.607   2.167  0.7831  0.0266 -0.3023
16987SOL    HW153340   6.231   6.654   2.139 -0.5704  1.9844 -0.9716
16987SOL    HW253341   6.103   6.670   2.219  0.7918 -1.9646  2.3226
16988SOL     OW53342   2.671   6.215   8.781  0.2469 -0.1710  0.6036
16988SOL    HW153343   2.589   6.178   8.813 -0.5768 -1.3266 -2.5531
16988SOL    HW253344   2.649   6.253   8.696  2.9126 -0.1363 -0.1600
16989SOL     OW53345   7.710  10.094   8.936 -0.8372 -0.0496  0.1921
16989SOL    HW153346   7.801  10.124   8.930 -0.6803 -0.6080 -0.2847
16989SOL    HW253347   7.694  10.085   9.030 -0.8868  1.4933  0.3610
16990SOL     OW53348  10.084   5.153   4.924  0.2344  0.3956 -0.2702
16990SOL    HW153349  10.016   5.100   4.966  0.8481  0.4453  0.8065
16990SOL    HW253350  10.041   5.236   4.905  0.4571  1.1355  2.1236
16991SOL     OW53351   0.325   4.043   1.189 -0.4299 -0.2017 -0.1647
16991SOL    HW153352   0.398   4.065   1.248 -0.3623 -0.2561 -0.2278
16991SOL    HW253353   0.333   4.105   1.117 -0.1891 -0.4876 -0.3840
16992SOL     OW53354   6.077   8.431   8.145 -0.0405  0.1656  0.5947
16992SOL    HW153355   6.049   8.358   8.200 -1.5946 -0.5348 -1.0151
16992SOL    HW253356   6.172   8.422   8.140  0.1371  0.1410  2.9283
16993SOL     OW53357   1.263   1.100   2.911 -0.4133 -0.0571 -0.4110
16993SOL    HW153358   1.231   1.137   2.993  0.2378  0.1726 -0.2518
16993SOL    HW253359   1.184   1.088   2.857 -0.6082  2.0579 -0.6753
16994SOL     OW53360   9.857   2.588   7.945 -0.2470  0.6160 -0.6480
16994SOL    HW153361   9.896   2.652   8.004 -0.0583  1.5288 -1.7260
16994SOL    HW253362   9.768   2.576   7.978  0.2438  0.1217  0.5660
16995SOL     OW53363   2.229   4.465   4.795 -0.3879 -0.4394  0.5306
16995SOL    HW153364   2.324   4.457   4.799 -0.4659 -1.6601  0.0203
16995SOL    HW253365   2.199   4.430   4.879 -0.4184 -0.4326  0.5225
16996SOL     OW53366   8.595   9.588  10.269  0.4386  0.0593 -0.2083
16996SOL    HW153367   8.594   9.564  10.177  1.2162 -0.0203 -0.1986
16996SOL    HW253368   8.508   9.565  10.301 -0.2849  1.2695 -1.2153
16997SOL     OW53369  10.102   8.123   0.945  0.2143  0.6205 -0.0049
16997SOL    HW153370  10.151   8.080   1.015 -2.5126 -1.8703  0.5643
16997SOL    HW253371  10.113   8.065   0.870  1.6572  2.3673 -1.2423
16998SOL     OW53372   4.932   8.990   4.385 -0.3381  0.0266  0.4619
16998SOL    HW153373   4.867   8.931   4.348  1.5705 -0.7293 -1.9391
16998SOL    HW253374   5.015   8.944   4.374  0.8585  1.8288  1.4806
16999SOL     OW53375   9.613   0.700   9.050 -0.2595 -0.2497 -0.0664
16999SOL    HW153376   9.629   0.613   9.013  0.9585 -0.4968  0.9644
16999SOL    HW253377   9.621   0.760   8.976  2.2372 -0.7082 -0.2491
17000SOL     OW53378   1.217   6.466   3.519 -0.5131  0.0170 -0.3310
17000SOL    HW153379   1.249   6.470   3.609 -0.8600  1.9895 -0.2345
17000SOL    HW253380   1.278   6.522   3.470 -0.9869 -0.1213 -1.0904
17001SOL     OW53381   6.516   0.898   1.587  0.5709  0.2423  0.2463
17001SOL    HW153382   6.527   0.884   1.681  2.4777  0.6995  0.1357
17001SOL    HW253383   6.568   0.977   1.568 -0.4511  0.6398 -1.0636
17002SOL     OW53384   0.578   1.158   7.243 -0.5040  0.2399 -0.1891
17002SOL    HW153385   0.547   1.165   7.152 -3.8061 -2.4381  0.5032
17002SOL    HW253386   0.506   1.194   7.295  0.0286 -0.9112  1.4318
17003SOL     OW53387   3.082   1.175   6.399 -0.3021 -0.5040 -0.0814
17003SOL    HW153388   3.100   1.173   6.305  0.0675  0.7163 -0.0558
17003SOL    HW253389   2.988   1.157   6.406 -0.7577  1.3159 -0.8583
17004SOL     OW53390   5.687   6.274   5.213  0.0543  0.6014 -0.3272
17004SOL    HW153391   5.611   6.282   5.156 -1.7328  0.4029  1.8971
17004SOL    HW253392   5.685   6.183   5.243  0.3245  0.9768  0.8610
17005SOL     OW53393   7.310   1.194   3.565 -0.6480 -0.3395  0.4945
17005SOL    HW153394   7.402   1.213   3.583 -0.9362  3.0581 -0.9579
17005SOL    HW253395   7.295   1.108   3.605  3.3492 -1.4792 -0.0458
17006SOL     OW53396   3.030   3.415   9.021  0.5025 -0.0301 -0.1059
17006SOL    HW153397   3.075   3.331   9.008  1.1052  0.2681  0.0214
17006SOL    HW253398   3.016   3.448   8.932  1.1750  0.2078 -0.1273
17007SOL     OW53399   4.467   8.969   7.739 -0.0354  0.1011  0.4952
17007SOL    HW153400   4.487   8.981   7.832 -0.4617  0.1572  0.5815
17007SOL    HW253401   4.486   9.053   7.699 -0.7465  0.3614  0.6933
17008SOL     OW53402   1.865   5.678   6.948  0.5320 -0.0663 -0.0853
17008SOL    HW153403   1.772   5.663   6.933  0.8642 -1.5090 -0.9003
17008SOL    HW253404   1.903   5.590   6.955  2.1178  0.4149 -1.6767
17009SOL     OW53405   6.511   3.017  10.625  0.4628 -0.1772  0.2008
17009SOL    HW153406   6.564   3.047  10.551 -0.5021 -0.2793 -0.5474
17009SOL    HW253407   6.499   2.923  10.609  0.3534 -0.2265  0.5614
17010SOL     OW53408   2.680   9.739   2.625  0.5770  0.1507  0.1091
17010SOL    HW153409   2.703   9.825   2.591 -0.2141  0.5069  0.4353
17010SOL    HW253410   2.763   9.699   2.650  1.0687  0.3198 -1.1765
17011SOL     OW53411   6.835   8.508   1.767  0.0739  0.0024 -0.1569
17011SOL    HW153412   6.836   8.573   1.837  2.5088 -0.2858  0.1865
17011SOL    HW253413   6.876   8.430   1.806  0.9578 -0.3603 -1.7141
17012SOL     OW53414   6.059   6.111   0.024  0.0607 -0.1235 -0.0381
17012SOL    HW153415   5.964   6.101   0.030  0.0397 -0.9165 -1.2744
17012SOL    HW253416   6.085   6.049  -0.044  1.7207 -1.4168  1.6500
17013SOL     OW53417   3.031   1.841   8.255 -0.3663 -0.8260 -0.1113
17013SOL    HW153418   2.971   1.898   8.207  0.2998  0.8556  0.9728
17013SOL    HW253419   3.001   1.752   8.234 -1.7760 -0.0925 -1.4200
17014SOL     OW53420   2.231   4.896   8.839 -0.4102  0.4728  0.5498
17014SOL    HW153421   2.145   4.903   8.880 -0.1656 -2.2183  1.7379
17014SOL    HW253422   2.292   4.884   8.912  0.6302 -0.2176 -0.3946
17015SOL     OW53423   1.119   1.018   4.053  0.3719  0.2983  0.5445
17015SOL    HW153424   1.158   1.093   4.008 -2.9805  1.1768 -1.1765
17015SOL    HW253425   1.178   0.945   4.033  0.4870  1.2048 -3.1474
17016SOL     OW53426   4.416   9.012   8.358  0.7031  0.2910 -0.1023
17016SOL    HW153427   4.406   8.939   8.297  1.3168  0.5206 -0.4910
17016SOL    HW253428   4.336   9.063   8.347  0.9707  0.5373 -1.0053
17017SOL     OW53429   2.443   7.983   7.349 -0.1028  0.4180  0.3952
17017SOL    HW153430   2.532   7.961   7.377 -0.4613  0.1564  1.3950
17017SOL    HW253431   2.438   8.078   7.359  0.1589  0.4766  0.0147
17018SOL     OW53432   5.397   3.018   6.138 -0.1910  0.5388  0.4877
17018SOL    HW153433   5.431   2.929   6.124 -0.3591  0.4164  0.8382
17018SOL    HW253434   5.388   3.054   6.050 -0.7813 -0.0387  0.3032
17019SOL     OW53435   1.152   8.922   5.220  0.3482  0.3859 -0.5655
17019SOL    HW153436   1.089   8.859   5.186 -1.5769  2.3703 -0.9432
17019SOL    HW253437   1.204   8.947   5.144  1.5120 -1.0839 -0.3009
17020SOL     OW53438   0.789  10.290   9.501  0.1457  0.3059 -0.2664
17020SOL    HW153439   0.787  10.219   9.566  0.2441 -0.3321 -0.9423
17020SOL    HW253440   0.708  10.278   9.451  0.0023  0.8812 -0.1713
17021SOL     OW53441   3.729   2.283   2.189  0.1627 -0.0514  0.4561
17021SOL    HW153442   3.678   2.282   2.108  1.1831  0.1828 -0.2211
17021SOL    HW253443   3.814   2.319   2.162  0.4743  0.1482  1.6634
17022SOL     OW53444   1.271   3.189   5.072 -0.1774 -0.2280 -0.2141
17022SOL    HW153445   1.185   3.166   5.036  0.1534 -1.4081 -0.2875
17022SOL    HW253446   1.251   3.225   5.159 -0.7187 -1.0166  0.0051
17023SOL     OW53447   6.955  10.084   2.142  0.3831 -0.0474 -0.5595
17023SOL    HW153448   6.991  10.000   2.115  0.5552 -0.3983  0.7204
17023SOL    HW253449   6.971  10.088   2.236 -0.4828  0.9981 -0.4395
17024SOL     OW53450   7.168   4.441   9.277  0.5483  0.0173  0.3163
17024SOL    HW153451   7.108   4.381   9.321  0.1636  0.1192 -0.0576
17024SOL    HW253452   7.224   4.385   9.225  1.6398 -0.1824  1.6601
17025SOL     OW53453   0.686   5.896   5.460  0.3556 -0.8293  0.1586
17025SOL    HW153454   0.627   5.932   5.394 -0.5735 -1.1131  0.8087
17025SOL    HW253455   0.674   5.802   5.455  1.7300 -0.9899 -0.5700
17026SOL     OW53456   5.490   3.513   9.915 -0.3050  0.6449  0.4304
17026SOL    HW153457   5.503   3.525   9.820 -0.5846 -0.6072  0.2202
17026SOL    HW253458   5.573   3.541   9.953  0.4180 -0.3718 -0.3288
17027SOL     OW53459  10.280   9.255   3.616 -0.1486  0.0477 -0.0374
17027SOL    HW153460  10.320   9.186   3.668  2.8471  1.3407 -0.4143
17027SOL    HW253461  10.259   9.214   3.533  1.3758 -0.4888 -0.1797
17028SOL     OW53462   7.905   8.569   2.952  0.6253  1.0209  0.0617
17028SOL    HW153463   7.946   8.503   2.896  1.1715  1.2651  0.1707
17028SOL    HW253464   7.848   8.617   2.892  0.9696  1.0811 -0.2261
17029SOL     OW53465   9.914   2.293   3.946 -0.1495  0.5091 -0.3904
17029SOL    HW153466  10.002   2.318   3.974 -0.4285  1.2299 -0.1268
17029SOL    HW253467   9.916   2.198   3.943 -0.1320  0.3594  2.2799
17030SOL     OW53468  10.175  10.321   2.270  0.0944  0.0314  0.3141
17030SOL    HW153469  10.165  10.273   2.188 -1.0250  0.5803  0.1050
17030SOL    HW253470  10.131  10.404   2.254 -0.7723 -0.1341  1.7070
17031SOL     OW53471   4.569   8.072   1.017  0.7956  0.0302 -0.5901
17031SOL    HW153472   4.560   8.004   1.084 -0.2556  0.1551 -0.5861
17031SOL    HW253473   4.657   8.059   0.982  1.1871 -0.3405  0.4776
17032SOL     OW53474   3.513   9.096   1.979 -0.2671  0.4886 -0.4041
17032SOL    HW153475   3.433   9.071   2.026 -1.0339  0.6721 -1.5798
17032SOL    HW253476   3.579   9.106   2.048 -0.9787 -0.6990  0.4854
17033SOL     OW53477   9.629   2.386   5.851  0.0651 -0.0973 -0.0756
17033SOL    HW153478   9.587   2.369   5.767 -0.4119  0.5628  0.0188
17033SOL    HW253479   9.598   2.473   5.876  2.2158  0.8237 -0.4493
17034SOL     OW53480   1.678   7.670   0.539 -0.4681 -0.2181  0.2134
17034SOL    HW153481   1.583   7.684   0.542 -0.1180  3.0909 -0.6798
17034SOL    HW253482   1.707   7.686   0.629 -0.5953  0.4293  0.1448
17035SOL     OW53483   4.961   8.684   4.703 -0.7311 -0.3676  0.1498
17035SOL    HW153484   4.874   8.685   4.742  0.3764 -1.8875  2.8867
17035SOL    HW253485   4.991   8.775   4.708 -0.9980 -0.3604  2.0723
17036SOL     OW53486   1.249   1.603  10.100 -0.0544  0.4416  0.0266
17036SOL    HW153487   1.310   1.671  10.072 -0.8620  1.9724  1.7771
17036SOL    HW253488   1.250   1.539  10.029 -0.1423  2.8403 -2.2933
17037SOL     OW53489   1.169   2.567   2.553  0.7003  0.2775  0.0975
17037SOL    HW153490   1.154   2.600   2.641 -1.9332 -0.7702  0.1200
17037SOL    HW253491   1.091   2.592   2.504  2.4988  1.7310 -2.2976
17038SOL     OW53492   7.220   8.483   1.189 -0.2032  0.0100  0.5351
17038SOL    HW153493   7.193   8.396   1.219 -0.6470 -0.1321 -0.2609
17038SOL    HW253494   7.269   8.467   1.109 -0.4113  0.5099  0.3047
17039SOL     OW53495   8.414   0.803   7.633  0.3983 -0.2377 -0.2540
17039SOL    HW153496   8.395   0.869   7.700  1.7462  1.3005 -1.3052
17039SOL    HW253497   8.499   0.829   7.598  0.0128 -1.3659 -2.1305
17040SOL     OW53498   4.045   1.514   1.643 -0.6209 -0.0571  0.3296
17040SOL    HW153499   4.054   1.476   1.556 -1.0057 -0.8161  0.6133
17040SOL    HW253500   3.976   1.580   1.634 -1.7023 -1.1535  0.3740
17041SOL     OW53501   7.994   1.123   6.919  0.1956 -0.2662 -0.3498
17041SOL    HW153502   8.063   1.161   6.864 -0.2128  0.7116 -0.2129
17041SOL    HW253503   7.949   1.061   6.862  0.8838 -0.5645 -0.5825
17042SOL     OW53504   8.886   7.693   1.300 -0.1227  0.1385 -0.0042
17042SOL    HW153505   8.867   7.785   1.284  0.4646  0.3951  0.7125
17042SOL    HW253506   8.981   7.686   1.289 -0.1468 -0.3457  0.0860
17043SOL     OW53507   4.711   4.311   6.087 -0.0721  0.2019  0.0730
17043SOL    HW153508   4.774   4.378   6.114 -1.2099  1.4780 -0.3447
17043SOL    HW253509   4.672   4.280   6.168  1.3845 -0.9469  0.3826
17044SOL     OW53510   3.946   9.037   8.282  0.8106  0.1238 -0.5974
17044SOL    HW153511   3.976   8.946   8.289  0.6534  0.1140 -0.0350
17044SOL    HW253512   3.987   9.081   8.356  0.5210  0.4136 -0.6104
17045SOL     OW53513   0.447   1.219   9.370 -0.2455 -0.2248 -0.2926
17045SOL    HW153514   0.380   1.232   9.437 -0.7167  1.3758 -1.0282
17045SOL    HW253515   0.529   1.221   9.418 -0.6078  0.2112  0.3284
17046SOL     OW53516   7.927   9.740   7.149  0.0793 -0.0281 -0.1558
17046SOL    HW153517   7.904   9.780   7.233  2.1078  1.8577 -0.4136
17046SOL    HW253518   7.849   9.754   7.095 -0.6226  0.2937  0.8885
17047SOL     OW53519   6.703  10.719   8.812  0.2864  0.3641  0.0190
17047SOL    HW153520   6.739  10.763   8.889  0.4949  0.2144  0.0068
17047SOL    HW253521   6.637  10.659   8.847 -0.7601  1.4330 -0.0332
17048SOL     OW53522   1.774   3.971   2.981  0.3154  0.3421 -0.3747
17048SOL    HW153523   1.764   3.901   3.046  0.5108 -0.1348 -0.8527
17048SOL    HW253524   1.862   3.957   2.945  0.2058  0.6037 -0.7401
17049SOL     OW53525   6.294   8.760   6.148  0.2345 -0.0824 -0.9607
17049SOL    HW153526   6.257   8.673   6.167  0.8742 -0.1492  0.0816
17049SOL    HW253527   6.289   8.807   6.231  2.2105 -0.0088 -0.8328
17050SOL     OW53528   1.528   2.712   7.738 -0.0601  0.4035 -0.2124
17050SOL    HW153529   1.528   2.653   7.662  2.1543  1.1688 -0.9033
17050SOL    HW253530   1.609   2.762   7.729 -1.0955  2.4670  1.2074
17051SOL     OW53531   2.325   5.976   7.650 -0.2870  0.3397  0.7131
17051SOL    HW153532   2.304   6.020   7.568 -0.0586 -1.1459 -0.1893
17051SOL    HW253533   2.418   5.993   7.663 -0.8724  2.9090  2.1898
17052SOL     OW53534   8.722   9.178   7.370  0.0815  0.5370 -0.0634
17052SOL    HW153535   8.722   9.229   7.289  0.1071  2.0751  0.8720
17052SOL    HW253536   8.795   9.117   7.360  0.5222  1.1819 -0.9072
17053SOL     OW53537  10.332   6.627   1.473 -0.0056  0.1444 -0.0827
17053SOL    HW153538  10.307   6.618   1.381 -0.0604  0.9736 -0.1556
17053SOL    HW253539  10.252   6.605   1.522 -0.1712  0.3872 -0.2483
17054SOL     OW53540   4.731   2.570   5.237 -0.5165 -0.1724  0.0803
17054SOL    HW153541   4.821   2.537   5.227 -0.1538  0.6969  0.3563
17054SOL    HW253542   4.692   2.561   5.150 -0.6414 -1.8831  0.2766
17055SOL     OW53543   3.020   8.136   8.399 -0.2307 -0.0187  0.0097
17055SOL    HW153544   3.084   8.065   8.405 -1.8554 -1.6035 -0.3756
17055SOL    HW253545   3.020   8.160   8.306  0.5085  0.6763  0.1869
17056SOL     OW53546   1.818   6.544  10.701 -0.2861 -0.3933 -0.4989
17056SOL    HW153547   1.734   6.586  10.720  0.1856  0.7462 -0.8210
17056SOL    HW253548   1.883   6.606  10.735  0.4824  0.0254 -2.5927
17057SOL     OW53549   0.879   8.233   9.152  0.3659 -0.1229 -0.1441
17057SOL    HW153550   0.786   8.247   9.137 -0.2514 -1.7084  1.7552
17057SOL    HW253551   0.887   8.223   9.247  2.1608 -1.8223 -0.4041
17058SOL     OW53552   7.182   0.299   8.542  0.4310 -0.1662 -0.2039
17058SOL    HW153553   7.204   0.214   8.503  0.8088 -0.4346  0.5581
17058SOL    HW253554   7.207   0.289   8.634  0.4141  0.7498 -0.0950
17059SOL     OW53555   1.593   5.501   0.706 -0.2822 -0.3490 -0.2102
17059SOL    HW153556   1.536   5.541   0.640 -0.2520  0.1085  0.0419
17059SOL    HW253557   1.546   5.514   0.788 -0.7477 -1.7019 -0.2380
17060SOL     OW53558   1.262   3.234   1.372  0.5174  0.0166  0.0139
17060SOL    HW153559   1.173   3.265   1.352  0.6619 -0.2990 -1.2189
17060SOL    HW253560   1.249   3.163   1.435 -0.2135 -0.8316 -1.0502
17061SOL     OW53561   1.591   5.585   2.821  0.0152 -0.2535  0.3833
17061SOL    HW153562   1.682   5.559   2.831 -0.1507 -0.9960 -0.0063
17061SOL    HW253563   1.589   5.635   2.739 -0.0743 -0.9538 -0.0496
17062SOL     OW53564   9.521   5.339   2.559  0.6233  0.6985  0.3437
17062SOL    HW153565   9.557   5.286   2.488 -0.5389 -2.2068  1.7431
17062SOL    HW253566   9.434   5.366   2.528 -0.7478 -2.2552  1.2117
17063SOL     OW53567   9.971   7.395   6.438  0.4779  0.2092 -0.3088
17063SOL    HW153568  10.013   7.309   6.441  0.0740  0.0330  1.8948
17063SOL    HW253569   9.987   7.432   6.524 -1.1059  1.4930 -0.5264
17064SOL     OW53570   6.118   9.145  10.102 -0.4215 -0.3082 -0.1956
17064SOL    HW153571   6.054   9.213  10.124 -1.1969 -0.6809 -1.1831
17064SOL    HW253572   6.178   9.188  10.040  0.2154 -0.0035  0.6135
17065SOL     OW53573   0.834   3.632   0.262  0.3373  0.3254 -0.3234
17065SOL    HW153574   0.878   3.550   0.241  0.5790  0.3649  0.0293
17065SOL    HW253575   0.760   3.636   0.200  1.0267  0.4374 -1.1563
17066SOL     OW53576   8.225  10.303   8.654  0.7281  0.3693  0.4302
17066SOL    HW153577   8.142  10.255   8.651 -0.0044  1.6311 -0.5522
17066SOL    HW253578   8.281  10.258   8.591 -0.1891  1.1942 -1.0076
17067SOL     OW53579   3.208   4.939   3.552 -0.0967 -0.0537  0.1335
17067SOL    HW153580   3.219   4.925   3.458  0.3315 -0.3876  0.2322
17067SOL    HW253581   3.142   4.875   3.578 -1.7053  1.3356 -0.2856
17068SOL     OW53582   4.343   3.745   7.278 -0.5184 -0.3620 -0.3702
17068SOL    HW153583   4.397   3.803   7.332 -0.4232  0.4252 -1.2919
17068SOL    HW253584   4.266   3.797   7.256 -1.3216 -1.2244  0.3105
17069SOL     OW53585   9.949   4.621   3.290  0.0354 -0.3973  0.7259
17069SOL    HW153586   9.981   4.557   3.226 -0.7436 -0.1190  0.0449
17069SOL    HW253587  10.029   4.658   3.328  0.5194 -0.4745 -0.1789
17070SOL     OW53588   1.568   0.217   3.097  0.3449  0.3051 -0.2443
17070SOL    HW153589   1.474   0.219   3.083  0.5909  0.3365 -2.1340
17070SOL    HW253590   1.581   0.265   3.179 -1.2669  0.2358  0.0840
17071SOL     OW53591  10.293   6.008   0.151  0.3714 -0.2670  0.7307
17071SOL    HW153592  10.345   5.956   0.212 -0.0050 -0.6692  0.7133
17071SOL    HW253593  10.260   5.945   0.087  0.9901  0.1874 -0.0597
17072SOL     OW53594   0.901   6.119   1.657 -0.3987 -0.5849 -0.1324
17072SOL    HW153595   0.994   6.098   1.665 -0.2779  0.6648  3.0493
17072SOL    HW253596   0.891   6.203   1.701 -2.6670  0.6602 -2.7085
17073SOL     OW53597   2.493   4.677   2.248  0.1109 -0.7685  0.0725
17073SOL    HW153598   2.440   4.606   2.284  2.6893 -2.1715  1.3520
17073SOL    HW253599   2.467   4.755   2.298 -0.8589 -1.3669  0.5177
17074SOL     OW53600   5.928   6.780   1.120 -0.3664  0.3542 -0.4248
17074SOL    HW153601   5.924   6.835   1.198 -1.4529 -1.5259  0.9139
17074SOL    HW253602   5.843   6.737   1.116  0.1704 -0.6582 -1.8762
17075SOL     OW53603   9.849   5.351   2.208  0.1330  0.1004  0.0417
17075SOL    HW153604   9.935   5.383   2.238  0.0041  0.7116 -0.2146
17075SOL    HW253605   9.870   5.277   2.151  0.5207  0.4990 -0.3455
17076SOL     OW53606  10.616   3.755   4.731  0.6608  0.3981  0.3852
17076SOL    HW153607  10.690   3.696   4.722  0.0501 -0.3056 -0.1591
17076SOL    HW253608  10.604   3.765   4.826  1.8922  1.1089  0.4802
17077SOL     OW53609   3.299   7.214   8.401  0.5663 -0.1962 -0.2406
17077SOL    HW153610   3.263   7.216   8.490  0.0201 -0.6240 -0.4465
17077SOL    HW253611   3.381   7.165   8.409 -0.1814 -1.4633 -0.2132
17078SOL     OW53612   9.920   7.745   4.097  0.2464 -0.5307 -0.0274
17078SOL    HW153613   9.870   7.808   4.046  0.0143 -1.7100 -1.3154
17078SOL    HW253614   9.972   7.799   4.157  0.9450  0.9659 -1.8722
17079SOL     OW53615   2.472  10.254   5.794  0.1658 -0.1973  0.3534
17079SOL    HW153616   2.398  10.238   5.853  0.9739  0.8536  1.6924
17079SOL    HW253617   2.537  10.189   5.820  0.3992  0.0499  0.3863
17080SOL     OW53618   3.893   7.501   5.749  0.6693  0.3437 -0.2897
17080SOL    HW153619   3.982   7.523   5.776  0.7623 -1.1828  0.8259
17080SOL    HW253620   3.838   7.565   5.795  1.1134  0.5256 -0.0011
17081SOL     OW53621   2.728   5.337   0.193  0.0245  0.3118  0.0636
17081SOL    HW153622   2.735   5.250   0.231 -0.8173 -0.2384 -0.9782
17081SOL    HW253623   2.734   5.397   0.267 -0.8751 -0.6861  0.9709
17082SOL     OW53624   9.253   8.014   6.359 -0.0144  0.1540  0.0528
17082SOL    HW153625   9.221   8.001   6.270 -0.5789  0.8399  0.1457
17082SOL    HW253626   9.209   7.946   6.410 -0.8718  0.7128  0.0717
17083SOL     OW53627   5.414   9.627   9.052 -0.4238 -0.3267 -0.0586
17083SOL    HW153628   5.441   9.719   9.044 -0.8389 -0.1661  0.2858
17083SOL    HW253629   5.420   9.592   8.963 -0.3062  0.0460 -0.2016
17084SOL     OW53630   6.351  10.103   9.245 -0.0866 -0.4024 -0.2777
17084SOL    HW153631   6.373  10.022   9.198  1.1307 -0.4766  0.3676
17084SOL    HW253632   6.428  10.159   9.233 -0.3405  0.1189  0.4501
17085SOL     OW53633  10.002   5.909   0.379 -0.6824 -0.3912 -0.2228
17085SOL    HW153634  10.038   5.837   0.431  1.0964 -0.7710 -1.8632
17085SOL    HW253635  10.015   5.882   0.288 -1.0017  1.5064 -0.8776
17086SOL     OW53636   7.141   2.774   4.853 -0.1907  0.5044 -0.2942
17086SOL    HW153637   7.092   2.767   4.771  0.9341  1.4420 -1.0899
17086SOL    HW253638   7.217   2.828   4.831 -0.1862  1.3326  1.5197
17087SOL     OW53639   8.185   6.473  10.781  0.2240 -0.7980 -0.1766
17087SOL    HW153640   8.235   6.393  10.797 -0.9164 -1.6434 -0.6891
17087SOL    HW253641   8.217   6.535  10.847 -0.2963 -2.3104  1.5746
17088SOL     OW53642   0.812   4.372   9.053  0.0139 -0.2312 -0.2152
17088SOL    HW153643   0.897   4.382   9.010 -0.5444 -0.4317 -1.4206
17088SOL    HW253644   0.769   4.302   9.003 -0.3930 -0.9758  1.1437
17089SOL     OW53645   7.306   0.793   3.091  0.3429 -1.0989 -0.9966
17089SOL    HW153646   7.225   0.742   3.092  0.0410 -0.6296 -1.0268
17089SOL    HW253647   7.290   0.863   3.027  0.0032  0.2070  0.4490
17090SOL     OW53648   8.617   6.802   2.782 -0.3134 -0.9093  0.0954
17090SOL    HW153649   8.702   6.845   2.770 -0.7943  0.0262 -0.0826
17090SOL    HW253650   8.603   6.804   2.877  0.2796 -1.9181  0.2159
17091SOL     OW53651   6.160   8.327   1.371  0.4310 -0.1895 -0.2717
17091SOL    HW153652   6.222   8.400   1.364 -1.0839  1.1121 -0.8651
17091SOL    HW253653   6.109   8.332   1.290 -0.4148 -1.2529  0.1773
17092SOL     OW53654   5.308   0.942   2.094  0.1295 -0.0711  0.1877
17092SOL    HW153655   5.235   0.954   2.034 -0.2663  0.3939  0.7547
17092SOL    HW253656   5.279   0.875   2.155  0.9160 -1.2848 -0.7238
17093SOL     OW53657   6.000   8.967   8.215 -0.0075 -0.5306 -0.1638
17093SOL    HW153658   6.006   8.929   8.303  2.0024 -0.8925 -0.3978
17093SOL    HW253659   5.996   8.891   8.156  0.2837 -0.3153 -0.4633
17094SOL     OW53660   3.102   5.201   6.081 -0.3728 -0.3596 -0.4746
17094SOL    HW153661   3.037   5.133   6.060 -1.4191  0.5287 -0.1757
17094SOL    HW253662   3.077   5.231   6.168  0.2197  0.2562 -0.5179
17095SOL     OW53663  10.685  10.230   0.110  0.3705 -0.4928 -0.1801
17095SOL    HW153664  10.631  10.284   0.053  1.0034  0.7871  0.3950
17095SOL    HW253665  10.771  10.271   0.108  0.6151 -0.8962  1.0540
17096SOL     OW53666   8.734   2.276   9.599  0.0351  0.2209 -0.2081
17096SOL    HW153667   8.822   2.303   9.625 -0.7533  2.2458  0.5133
17096SOL    HW253668   8.744   2.183   9.578  1.6989 -0.4866  2.9519
17097SOL     OW53669   2.970  10.101   3.453 -0.9002 -0.4252  0.4634
17097SOL    HW153670   3.064  10.091   3.471  0.0022 -1.1722 -3.6301
17097SOL    HW253671   2.958  10.194   3.435 -0.5618 -0.5753 -0.5812
17098SOL     OW53672   1.700   8.329   5.004 -0.0174  0.3579 -0.4358
17098SOL    HW153673   1.610   8.299   5.019  0.7541 -1.8371  0.1978
17098SOL    HW253674   1.703   8.416   5.043 -1.7109  0.2348  0.0511
17099SOL     OW53675  10.330   7.381   3.714  0.3015 -0.3947 -0.3915
17099SOL    HW153676  10.324   7.287   3.732 -1.2840 -0.8126 -2.7316
17099SOL    HW253677  10.424   7.396   3.700  0.7061 -1.3771  0.9682
17100SOL     OW53678   0.932   4.455   3.782  0.7562  0.1478 -0.3735
17100SOL    HW153679   0.958   4.534   3.735 -0.4537 -0.1275 -1.5805
17100SOL    HW253680   0.862   4.483   3.840  1.4118  0.2499  0.3829
17101SOL     OW53681   3.120  10.760   6.007 -0.1843 -0.0875  0.2256
17101SOL    HW153682   3.034  10.765   5.964 -0.0273 -0.6664 -0.1745
17101SOL    HW253683   3.137  10.848   6.039 -0.7671  0.1132 -0.0131
17102SOL     OW53684   3.746   4.191   4.359 -0.2692  0.0315  0.1297
17102SOL    HW153685   3.714   4.277   4.331  1.8037  1.1403  0.9468
17102SOL    HW253686   3.749   4.139   4.278 -2.3444  0.3983 -0.2481
17103SOL     OW53687   9.971   9.688   4.403 -0.1478  0.5349 -0.2839
17103SOL    HW153688   9.962   9.702   4.309 -1.0926  0.7677 -0.1628
17103SOL    HW253689  10.057   9.645   4.412 -1.2189 -2.0783 -1.5162
17104SOL     OW53690   5.344   9.859   8.038 -0.4315 -0.1172 -0.0235
17104SOL    HW153691   5.374   9.900   8.119 -1.2186  1.2218 -0.3874
17104SOL    HW253692   5.425   9.843   7.988 -0.1599  2.2869 -0.4532
17105SOL     OW53693   7.306   1.947   8.482 -0.4076  0.4554 -0.4481
17105SOL    HW153694   7.240   2.008   8.516 -1.3203 -0.2687 -0.8789
17105SOL    HW253695   7.255   1.875   8.445  0.4778  1.2718 -3.5717
17106SOL     OW53696   9.881  10.634   2.396 -0.1410  0.0570 -0.0774
17106SOL    HW153697   9.824  10.584   2.454 -0.2406  0.0383 -0.1898
17106SOL    HW253698   9.864  10.597   2.309 -1.8445  1.7254 -0.5190
17107SOL     OW53699  10.708   8.958   5.402  0.0534 -0.4976 -0.2003
17107SOL    HW153700  10.712   8.922   5.313 -0.0017 -1.9571  0.3605
17107SOL    HW253701  10.764   8.899   5.454 -0.5248 -0.1232  0.8718
17108SOL     OW53702   9.809   7.820   9.835 -0.0325  0.0078 -0.0112
17108SOL    HW153703   9.856   7.837   9.754 -0.2653 -0.2344 -0.1999
17108SOL    HW253704   9.782   7.906   9.866 -1.1716  0.0081 -0.9343
17109SOL     OW53705   7.289   9.745   3.883 -0.2604 -0.0049  0.4315
17109SOL    HW153706   7.364   9.686   3.880 -0.1165  0.2118 -0.4617
17109SOL    HW253707   7.224   9.705   3.826  0.8718  2.0375 -2.5311
17110SOL     OW53708   5.401   1.178   6.931 -0.2735  0.0503  0.2174
17110SOL    HW153709   5.315   1.162   6.970 -0.2126  1.5186  1.0474
17110SOL    HW253710   5.383   1.201   6.840 -0.7111 -0.0960  0.2650
17111SOL     OW53711   8.854  10.340   4.220  0.1171 -0.1769 -0.1785
17111SOL    HW153712   8.791  10.410   4.231 -0.7058 -0.9124 -0.1175
17111SOL    HW253713   8.935  10.373   4.259 -0.1633  0.8470 -0.4340
17112SOL     OW53714   5.228   7.977   3.244  0.1206  0.4235 -0.0745
17112SOL    HW153715   5.151   7.987   3.189 -0.3458  1.6499  0.7546
17112SOL    HW253716   5.204   7.909   3.307  0.1141  0.0569 -0.4709
17113SOL     OW53717   6.399   2.247   0.596 -0.2012  0.0482 -0.1944
17113SOL    HW153718   6.381   2.341   0.606 -0.7613 -0.1341  0.6319
17113SOL    HW253719   6.364   2.225   0.509 -2.6035  0.0604  0.6809
17114SOL     OW53720   8.233   9.041   1.961 -0.5146  0.4668  0.3351
17114SOL    HW153721   8.327   9.036   1.977 -0.6993  0.0477  1.4404
17114SOL    HW253722   8.213   9.134   1.962 -0.5610  0.5284  3.3197
17115SOL     OW53723   5.205   4.343   2.221  0.3958  0.0226 -0.0309
17115SOL    HW153724   5.298   4.329   2.238  0.6173  0.7737 -0.5910
17115SOL    HW253725   5.173   4.386   2.300  0.6970  0.4955 -0.1647
17116SOL     OW53726   4.285   5.725  10.617  0.4454 -0.6705  0.1270
17116SOL    HW153727   4.319   5.652  10.566  1.2236  0.3241 -0.8101
17116SOL    HW253728   4.191   5.727  10.597  0.2746 -1.8392  0.7298
17117SOL     OW53729   4.365   7.801   7.192  0.4713  0.3911  0.4332
17117SOL    HW153730   4.379   7.896   7.187  0.9479  0.3264  0.4968
17117SOL    HW253731   4.335   7.787   7.282 -1.2355  0.6755 -0.0365
17118SOL     OW53732   6.286   8.241   7.532 -0.0031 -0.0241 -0.1442
17118SOL    HW153733   6.297   8.333   7.554  0.5555 -0.2559  0.5912
17118SOL    HW253734   6.202   8.217   7.571 -0.7690  0.4775 -1.4280
17119SOL     OW53735  10.758   1.002   5.056  0.2387  0.1519 -0.4046
17119SOL    HW153736  10.834   0.945   5.060 -0.0179 -0.2920 -1.5035
17119SOL    HW253737  10.794   1.091   5.050  0.6397  0.0681  0.6175
17120SOL     OW53738   9.520   6.391   0.926 -0.3443  0.1095  0.6297
17120SOL    HW153739   9.482   6.318   0.877 -2.0660  0.5653  1.2062
17120SOL    HW253740   9.449   6.422   0.982  0.8574  1.1433  1.6485
17121SOL     OW53741   2.835   8.711   8.686 -0.0021  0.4917 -0.0797
17121SOL    HW153742   2.927   8.724   8.666 -0.1592  1.2181 -0.3861
17121SOL    HW253743   2.812   8.787   8.740 -0.7118  0.9663 -1.0236
17122SOL     OW53744   9.551   0.091   7.885  0.2059  0.2455 -0.7381
17122SOL    HW153745   9.589   0.112   7.800  0.4693  0.8767 -0.4730
17122SOL    HW253746   9.613   0.127   7.949  0.0364 -0.2594 -0.2785
17123SOL     OW53747   2.072   9.791   3.314 -0.0281  0.7318  0.5727
17123SOL    HW153748   2.103   9.768   3.226 -2.0679  1.7382 -0.4998
17123SOL    HW253749   2.149   9.783   3.370  1.3155 -0.0627 -1.2754
17124SOL     OW53750   8.183   6.284   4.580 -0.1363  0.4908 -0.2728
17124SOL    HW153751   8.231   6.361   4.610 -1.3736  1.3051 -0.2762
17124SOL    HW253752   8.219   6.211   4.629 -0.4838  1.4279  1.4434
17125SOL     OW53753   3.477   2.791   0.267  0.1680  0.3429 -0.2998
17125SOL    HW153754   3.461   2.813   0.359  0.7335  1.4805 -0.4581
17125SOL    HW253755   3.416   2.719   0.249  1.4382 -1.3096  1.5156
17126SOL     OW53756   7.964   3.798   5.528 -0.0342 -0.1268 -0.2494
17126SOL    HW153757   7.972   3.857   5.604  1.1743  0.7293 -1.0169
17126SOL    HW253758   7.991   3.851   5.453 -0.5044 -1.1822 -1.1965
17127SOL     OW53759   8.086   6.056   4.255 -0.1321 -0.4228  0.1063
17127SOL    HW153760   8.150   6.039   4.324  1.3866 -3.0536 -1.7844
17127SOL    HW253761   8.007   6.010   4.285 -0.6820  1.4056  1.6455
17128SOL     OW53762   9.433   5.668   3.118  0.1766 -0.4214 -0.1737
17128SOL    HW153763   9.510   5.707   3.077  0.0347 -1.2875 -1.3231
17128SOL    HW253764   9.389   5.741   3.162  0.3317  0.5758 -1.6038
17129SOL     OW53765   2.823   4.732   2.348 -0.0734 -0.6236  0.5329
17129SOL    HW153766   2.744   4.777   2.317 -0.4193 -0.0669  2.1140
17129SOL    HW253767   2.890   4.755   2.283 -0.6653  0.7839  0.3778
17130SOL     OW53768   5.213   2.731   5.966 -0.3037  0.5770 -0.0268
17130SOL    HW153769   5.152   2.657   5.974 -1.2942  1.5207  2.0906
17130SOL    HW253770   5.156   2.807   5.952 -0.1488  1.9525  4.8511
17131SOL     OW53771   1.561   9.802   5.837 -0.5245  0.0512  0.3340
17131SOL    HW153772   1.543   9.849   5.756 -0.5244  0.0920  0.3574
17131SOL    HW253773   1.552   9.710   5.815  0.2407  0.0244  0.0943
17132SOL     OW53774   8.557   4.717   5.482 -0.0535 -0.2464  0.1929
17132SOL    HW153775   8.541   4.623   5.479  0.9170 -0.4224  0.3444
17132SOL    HW253776   8.475   4.754   5.514 -0.5478 -1.0068 -0.1563
17133SOL     OW53777   3.601   3.842   2.244 -0.7303  0.5368  0.2085
17133SOL    HW153778   3.546   3.842   2.165 -0.5792 -0.5820  0.0985
17133SOL    HW253779   3.690   3.834   2.211 -0.7088 -0.6249  0.5074
17134SOL     OW53780   0.007   0.836   5.760 -0.1381 -0.3463  0.2611
17134SOL    HW153781   0.068   0.887   5.707 -1.1666  0.3561 -0.2701
17134SOL    HW253782   0.045   0.748   5.762  1.1604  0.1987  0.3870
17135SOL     OW53783   8.882  10.212   8.942 -0.7203 -0.0322 -0.4228
17135SOL    HW153784   8.948  10.276   8.968 -1.7201  0.5607  0.7810
17135SOL    HW253785   8.824  10.205   9.018 -1.9785 -0.6075 -1.3945
17136SOL     OW53786  10.330   6.953   8.514 -0.2367 -0.5112 -0.4173
17136SOL    HW153787  10.274   6.894   8.462 -1.6002 -0.3616  0.8163
17136SOL    HW253788  10.268   7.012   8.557  1.0562  1.3789 -1.0530
17137SOL     OW53789   8.583   0.010   9.642 -0.3105  0.8388 -0.1726
17137SOL    HW153790   8.575  -0.080   9.674  0.6309  0.4492 -0.9603
17137SOL    HW253791   8.585   0.063   9.721 -0.4111  0.1149  0.3267
17138SOL     OW53792   5.374   5.645   2.100  0.0393  0.0473  0.2238
17138SOL    HW153793   5.457   5.598   2.091 -0.3404 -0.5045 -0.5546
17138SOL    HW253794   5.381   5.719   2.040 -0.3206 -0.4441 -0.4416
17139SOL     OW53795   9.954   3.316   1.111  0.4997 -0.2122  0.5726
17139SOL    HW153796  10.003   3.265   1.047  0.0971  0.2178 -0.0963
17139SOL    HW253797  10.000   3.400   1.115 -0.1204  0.1646 -0.0022
17140SOL     OW53798   1.922   8.840  10.579 -0.0685  0.1132  0.0414
17140SOL    HW153799   2.003   8.791  10.565  0.5527  1.2387 -0.4190
17140SOL    HW253800   1.859   8.799  10.519  0.3604 -0.2917 -0.1404
17141SOL     OW53801   4.182   2.029   6.802  0.0187 -0.1721  0.3518
17141SOL    HW153802   4.224   2.062   6.882  0.9240 -2.2802  0.8203
17141SOL    HW253803   4.187   1.934   6.811 -1.6163 -0.4573 -1.3332
17142SOL     OW53804   2.046   0.072   7.650  0.4890 -0.5452  0.0510
17142SOL    HW153805   2.130   0.047   7.689  0.2246  0.4522  1.3202
17142SOL    HW253806   2.052   0.167   7.640 -0.3152 -0.5232 -0.2673
17143SOL     OW53807   0.315   8.268   9.528 -0.1295 -0.0430 -0.2606
17143SOL    HW153808   0.267   8.282   9.446  0.6027 -0.8574 -0.8516
17143SOL    HW253809   0.384   8.333   9.527 -0.8579  0.7555  0.3170
17144SOL     OW53810   6.446   1.190   8.074  0.5928  0.4341 -0.4061
17144SOL    HW153811   6.453   1.164   7.982 -0.3683 -0.2785 -0.2919
17144SOL    HW253812   6.433   1.108   8.121  0.6923  0.8302  0.3277
17145SOL     OW53813   4.016   1.218   2.326  0.5827  0.1684 -0.1029
17145SOL    HW153814   3.967   1.267   2.259  0.3864  0.8843  0.5555
17145SOL    HW253815   4.066   1.285   2.372  2.1649 -0.5428 -0.7275
17146SOL     OW53816   8.103   8.921   5.221  0.3365 -0.1631  0.0926
17146SOL    HW153817   8.061   9.006   5.233  1.2157  0.1345  1.1813
17146SOL    HW253818   8.161   8.911   5.297 -0.1766 -1.9997  0.2865
17147SOL     OW53819   7.246   8.446   4.108  0.0256 -0.1161  0.5367
17147SOL    HW153820   7.237   8.459   4.203 -1.3565 -2.6189  0.8418
17147SOL    HW253821   7.160   8.467   4.073  0.3435  0.1496 -0.0963
17148SOL     OW53822   2.836   7.549   7.578 -0.5885 -0.0993  0.1816
17148SOL    HW153823   2.881   7.465   7.573 -0.1579  0.0143  1.7875
17148SOL    HW253824   2.807   7.557   7.669 -2.3613  0.6201 -0.3928
17149SOL     OW53825   8.764   5.334   8.032 -0.0200 -0.1762  0.8094
17149SOL    HW153826   8.692   5.341   8.096 -0.1936  0.0589  0.5899
17149SOL    HW253827   8.723   5.355   7.948  0.7911  2.3735  0.9649
17150SOL     OW53828   3.647   9.635   6.452 -0.0572  0.3457  0.0965
17150SOL    HW153829   3.710   9.564   6.458  0.2209  0.7189  2.2099
17150SOL    HW253830   3.566   9.594   6.423  0.4370 -0.5953  0.0280
17151SOL     OW53831   1.914   0.543   7.244  0.1656 -0.5218  0.2267
17151SOL    HW153832   1.901   0.562   7.337 -0.6962  1.3263 -0.2079
17151SOL    HW253833   1.913   0.448   7.238  0.4614 -0.6824  2.1285
17152SOL     OW53834   3.848   3.010   0.814  0.2424  0.1623 -0.1710
17152SOL    HW153835   3.880   2.951   0.883  1.3243  1.2274  0.2551
17152SOL    HW253836   3.842   2.954   0.736  1.8332 -0.3940  0.0754
17153SOL     OW53837   4.447   2.008   4.307  0.3559 -0.2402 -0.6724
17153SOL    HW153838   4.391   1.973   4.377 -1.2289  2.2524 -0.5730
17153SOL    HW253839   4.524   2.042   4.352  0.3085 -0.4844 -0.4007
17154SOL     OW53840   9.328   5.778   5.886  0.3220 -0.0346 -0.2631
17154SOL    HW153841   9.265   5.845   5.859  0.0938 -0.0863  0.1388
17154SOL    HW253842   9.297   5.749   5.972  0.2870 -0.8139 -0.5318
17155SOL     OW53843   9.023   2.571  10.562  0.7047  0.0535  0.0373
17155SOL    HW153844   8.936   2.551  10.599  1.4859 -0.2624  1.8372
17155SOL    HW253845   9.016   2.547  10.470 -0.5606 -1.8671  0.5697
17156SOL     OW53846   9.795   1.998   0.456 -0.1387 -0.0956  0.1305
17156SOL    HW153847   9.724   1.996   0.393 -0.0475  1.6954 -0.0902
17156SOL    HW253848   9.814   1.906   0.474 -2.2370 -0.6315 -0.0839
17157SOL     OW53849   6.331   7.587   7.293 -0.0597 -0.1587 -0.0879
17157SOL    HW153850   6.306   7.541   7.373 -0.5573  1.6698  0.8770
17157SOL    HW253851   6.248   7.617   7.256  0.2946  1.3826  0.2545
17158SOL     OW53852   4.796   8.787  10.241 -0.0853 -0.0871  0.0514
17158SOL    HW153853   4.821   8.868  10.284  0.3952 -1.1353  1.8473
17158SOL    HW253854   4.872   8.729  10.253 -0.7809 -1.1083 -0.3523
17159SOL     OW53855   9.398   2.580  10.267 -0.0490 -0.0777  0.2068
17159SOL    HW153856   9.457   2.639  10.220 -0.2850 -1.3145 -1.7193
17159SOL    HW253857   9.409   2.495  10.225 -2.1666 -0.6647  0.7108
17160SOL     OW53858   9.270   7.139   6.118 -0.0486 -0.1242 -0.2902
17160SOL    HW153859   9.275   7.199   6.192 -1.6228  0.6063 -0.7481
17160SOL    HW253860   9.297   7.054   6.155 -1.3805  0.0894  1.2855
17161SOL     OW53861   0.116   3.929   0.153  0.1506 -0.8074 -0.1394
17161SOL    HW153862   0.166   3.924   0.234 -0.4951  0.8394  0.4265
17161SOL    HW253863   0.160   3.997   0.102 -0.4404 -0.6091 -0.4019
17162SOL     OW53864   4.550   0.544   4.793  0.2947  0.2552 -0.5869
17162SOL    HW153865   4.625   0.583   4.838 -0.0059  2.5050 -1.9033
17162SOL    HW253866   4.484   0.532   4.861  1.0346  0.3585  0.1657
17163SOL     OW53867   0.679   7.070   6.483 -0.5792 -0.0071  0.2678
17163SOL    HW153868   0.709   7.052   6.572 -0.0876 -2.6038 -0.3279
17163SOL    HW253869   0.749   7.036   6.427 -1.2155  0.8779 -1.1238
17164SOL     OW53870   0.885   3.303   2.345 -0.0739 -0.4321 -0.1677
17164SOL    HW153871   0.927   3.376   2.390 -0.2881 -1.5231  1.9551
17164SOL    HW253872   0.936   3.226   2.372  0.4648 -1.0668 -2.7460
17165SOL     OW53873   0.175   0.305   9.076  0.2026  0.3559  0.3031
17165SOL    HW153874   0.224   0.223   9.079  0.7572  0.6941  0.5340
17165SOL    HW253875   0.139   0.309   8.987  0.1029 -0.1751  0.3196
17166SOL     OW53876   4.216   1.336  10.349 -0.3420 -0.5953  0.2605
17166SOL    HW153877   4.220   1.241  10.356 -1.9373 -0.5704  2.2767
17166SOL    HW253878   4.165   1.353  10.270  1.9025 -1.3020 -1.4555
17167SOL     OW53879   6.100   3.669   2.704 -0.0858  0.0759  0.0110
17167SOL    HW153880   6.099   3.619   2.623  0.1344 -0.3896  0.2904
17167SOL    HW253881   6.165   3.625   2.759  0.0869  0.6463  0.2780
17168SOL     OW53882   0.373   1.401   1.373 -0.3331  0.1044 -0.0991
17168SOL    HW153883   0.433   1.471   1.346  0.1474 -0.5257 -0.7113
17168SOL    HW253884   0.321   1.383   1.295 -0.0207 -0.6434 -0.1477
17169SOL     OW53885   0.466   4.492   5.610  0.0958  0.1411  0.3114
17169SOL    HW153886   0.425   4.567   5.567  0.0842 -2.4036 -4.8763
17169SOL    HW253887   0.560   4.513   5.612  0.0840  0.4158 -1.0653
17170SOL     OW53888   8.979   2.413   9.673  0.7768  0.1930 -0.0408
17170SOL    HW153889   8.991   2.451   9.760 -0.7955  2.4547 -0.7174
17170SOL    HW253890   9.046   2.345   9.667  3.0043  2.0762  1.7444
17171SOL     OW53891   2.022   3.085   2.486 -0.5743  0.3543 -0.5180
17171SOL    HW153892   1.965   3.031   2.431  0.2791  0.3257 -1.3998
17171SOL    HW253893   2.045   3.160   2.432  2.0170 -0.7164 -1.0748
17172SOL     OW53894   9.433   7.708   2.022 -0.3873  0.3728  0.1839
17172SOL    HW153895   9.487   7.754   1.958  0.5388 -0.5915  0.2511
17172SOL    HW253896   9.361   7.672   1.971  1.5466 -2.3852 -0.8262
17173SOL     OW53897   1.614   3.009   1.216  0.1757  0.3879  0.3952
17173SOL    HW153898   1.521   3.024   1.204  0.2645  0.7987  0.2329
17173SOL    HW253899   1.655   3.093   1.198  0.5038  0.4340  1.2986
17174SOL     OW53900   7.359   5.861   1.437 -0.3189 -0.4768 -0.1946
17174SOL    HW153901   7.283   5.887   1.489 -0.5131 -0.0578 -0.6816
17174SOL    HW253902   7.368   5.767   1.452 -2.0438 -0.9009 -1.5505
17175SOL     OW53903  10.756   3.382   7.422  0.0995 -0.3408 -0.0740
17175SOL    HW153904  10.781   3.390   7.514  1.0862 -0.2043 -0.3461
17175SOL    HW253905  10.757   3.471   7.388  1.7630 -0.5528 -0.7085
17176SOL     OW53906   1.496   9.800   3.968 -0.2309  0.2305 -0.7948
17176SOL    HW153907   1.537   9.862   4.029 -0.2733 -0.9351  0.4604
17176SOL    HW253908   1.519   9.834   3.881  2.3263  0.3470 -0.1714
17177SOL     OW53909   3.365   0.833   8.642  0.2357  0.2938  0.2033
17177SOL    HW153910   3.445   0.829   8.694  0.3512  0.2270  0.0198
17177SOL    HW253911   3.328   0.745   8.648  0.0403  0.3970  0.5036
17178SOL     OW53912   1.139  10.254   7.956 -0.3782 -0.1686  0.0362
17178SOL    HW153913   1.146  10.173   8.007 -1.3275 -0.1029  0.2804
17178SOL    HW253914   1.226  10.265   7.917  0.5524  0.0554  2.0588
17179SOL     OW53915   7.744  10.193   0.554  0.0537 -0.4369 -0.4885
17179SOL    HW153916   7.790  10.277   0.562 -0.2647 -0.3935  1.0005
17179SOL    HW253917   7.673  10.211   0.492  2.5453 -0.7679 -3.7641
17180SOL     OW53918   9.483   6.556   9.725 -0.4867  0.1137  0.3816
17180SOL    HW153919   9.513   6.632   9.675 -0.1359 -0.7997 -0.8603
17180SOL    HW253920   9.524   6.481   9.681 -0.3407 -0.7488  1.9405
17181SOL     OW53921   0.015   9.920   3.323 -0.2287 -0.2007 -0.0513
17181SOL    HW153922   0.070   9.989   3.285 -0.2657 -0.8115 -1.2882
17181SOL    HW253923  -0.062   9.965   3.355  0.1681  0.4465  0.0046
17182SOL     OW53924   2.463   5.549  10.401  0.6302  0.0483 -0.4237
17182SOL    HW153925   2.539   5.529  10.346  0.6339 -1.7911  0.1795
17182SOL    HW253926   2.397   5.485  10.373  0.0472  0.2215  0.5351
17183SOL     OW53927   4.967   4.790   1.762 -0.4294 -0.4575 -0.2971
17183SOL    HW153928   4.988   4.711   1.712 -1.0008 -1.0556  0.3766
17183SOL    HW253929   4.871   4.796   1.757 -0.4539 -0.2718  0.3531
17184SOL     OW53930   9.597   6.637   4.684  0.6356 -0.1667 -0.3708
17184SOL    HW153931   9.622   6.589   4.605  2.1978 -0.3697  0.2281
17184SOL    HW253932   9.514   6.597   4.711 -0.3359  0.3980 -2.2922
17185SOL     OW53933   8.841   5.414   7.545  0.3084 -0.5709 -0.4285
17185SOL    HW153934   8.814   5.357   7.617 -0.2669 -0.9402 -0.9330
17185SOL    HW253935   8.854   5.500   7.586 -0.6602 -0.6179  0.0039
17186SOL     OW53936   7.449   9.603   2.684 -0.3101  0.4011  0.1315
17186SOL    HW153937   7.370   9.583   2.633 -0.8578  0.1384  1.0553
17186SOL    HW253938   7.519   9.606   2.619 -0.8170 -0.9091 -0.5276
17187SOL     OW53939   4.672   7.326   8.745 -0.0170  0.2949  0.2025
17187SOL    HW153940   4.673   7.414   8.783  0.7041 -0.4693  2.1160
17187SOL    HW253941   4.608   7.277   8.799 -0.4225 -0.3522 -0.8364
17188SOL     OW53942   0.973   7.955  10.474  0.7045  0.2751 -0.4014
17188SOL    HW153943   0.971   7.953  10.570  2.8765 -1.2820 -0.3228
17188SOL    HW253944   0.883   7.977  10.449  0.4240  2.2842  1.9658
17189SOL     OW53945   2.520   4.028   0.058 -0.2645 -0.1213  0.0128
17189SOL    HW153946   2.466   4.105   0.044 -1.1544 -0.6059  0.6238
17189SOL    HW253947   2.605   4.062   0.084 -0.8246  0.6556  0.8848
17190SOL     OW53948   0.158   3.202   4.185  0.3541  0.4807 -0.2213
17190SOL    HW153949   0.120   3.127   4.230  1.3625  0.4787  0.6611
17190SOL    HW253950   0.175   3.171   4.096 -0.4653  0.0848 -0.2488
17191SOL     OW53951   1.454   1.248   6.962 -0.4955  0.0809  0.0255
17191SOL    HW153952   1.526   1.310   6.978 -0.3039 -0.2031  0.2644
17191SOL    HW253953   1.427   1.266   6.872 -0.6102  0.6869  0.1783
17192SOL     OW53954  10.711  10.481   8.471 -0.0073  0.2405 -0.0869
17192SOL    HW153955  10.744  10.571   8.468  0.2673  0.1653  0.4450
17192SOL    HW253956  10.670  10.474   8.557  0.3629 -0.2744  0.0496
17193SOL     OW53957   1.588   6.786  10.775  0.7069  0.0385 -0.3029
17193SOL    HW153958   1.616   6.808  10.686 -2.0063 -0.5110 -1.3984
17193SOL    HW253959   1.547   6.700  10.766  0.5084 -0.0909  1.5272
17194SOL     OW53960   6.601   2.784   3.582  0.0654 -0.3167  0.5688
17194SOL    HW153961   6.660   2.798   3.508  0.4009  0.6380  0.9950
17194SOL    HW253962   6.634   2.843   3.649 -0.8792 -0.3960  1.1093
17195SOL     OW53963  10.775   6.128   6.021 -0.4969 -0.1497  0.3678
17195SOL    HW153964  10.777   6.195   6.090 -1.0214 -0.6678  0.8996
17195SOL    HW253965  10.853   6.075   6.037 -1.0978 -0.8239  1.1447
17196SOL     OW53966   1.827   4.887   1.873  0.2063 -0.0282  0.1040
17196SOL    HW153967   1.907   4.870   1.822 -1.8591  0.9214 -3.8448
17196SOL    HW253968   1.776   4.807   1.864 -0.5844  0.4954 -0.1438
17197SOL     OW53969   7.888   5.271   3.954 -0.3550 -0.2760 -0.0495
17197SOL    HW153970   7.810   5.285   3.899 -0.2379  0.2299 -0.0915
17197SOL    HW253971   7.949   5.339   3.927 -0.4182  0.1800  0.9249
17198SOL     OW53972   4.216   4.369   2.707  0.1436 -0.1722  0.1087
17198SOL    HW153973   4.126   4.383   2.676  0.2686 -1.0132 -0.6881
17198SOL    HW253974   4.260   4.452   2.691 -0.1871 -0.1228 -0.6189
17199SOL     OW53975  10.189  10.679   5.799 -0.4163 -0.2749  0.1535
17199SOL    HW153976  10.097  10.659   5.816 -0.4219  0.2098  0.7166
17199SOL    HW253977  10.186  10.748   5.732 -0.4380 -0.9229 -0.5173
17200SOL     OW53978   0.524   0.950   9.560 -0.1024  0.5543 -0.0814
17200SOL    HW153979   0.581   0.885   9.600 -0.8124 -0.4285 -0.6105
17200SOL    HW253980   0.501   1.010   9.632  0.3768  0.0884  0.4676
17201SOL     OW53981   1.109   6.988   2.845 -0.0854 -0.3069  0.4397
17201SOL    HW153982   1.129   6.987   2.751  0.2234  0.8976  0.4873
17201SOL    HW253983   1.192   6.965   2.887 -0.0850 -0.3069  0.4387
17202SOL     OW53984   9.411  10.174   0.294 -0.1358 -0.3651  0.2260
17202SOL    HW153985   9.485  10.155   0.236  0.0335 -0.6786  0.5436
17202SOL    HW253986   9.449  10.222   0.367 -0.3285 -0.0873  0.1437
17203SOL     OW53987   8.159   9.297   2.814 -0.4249  0.1481  0.1880
17203SOL    HW153988   8.220   9.243   2.863 -2.1203 -0.0494  2.2255
17203SOL    HW253989   8.193   9.386   2.824  0.6409 -0.1613 -0.5037
17204SOL     OW53990   6.803   0.465   1.079  0.0928 -0.4237  0.4098
17204SOL    HW153991   6.829   0.552   1.051 -1.9549  0.1213  0.0603
17204SOL    HW253992   6.761   0.478   1.164  0.6147 -1.2051  0.7959
17205SOL     OW53993   0.155   9.078   3.394 -0.4719 -0.1242 -0.2746
17205SOL    HW153994   0.192   9.156   3.354  2.4091 -1.5052 -0.5804
17205SOL    HW253995   0.179   9.085   3.487 -1.9477  0.2396  0.1107
17206SOL     OW53996   4.485   5.026   6.543 -0.8697  0.1681 -0.3109
17206SOL    HW153997   4.460   5.110   6.503 -1.9890 -0.3400 -0.7155
17206SOL    HW253998   4.414   5.006   6.604 -0.5973 -0.4700 -0.1966
17207SOL     OW53999   8.008   2.163   9.184 -0.4418 -0.1579  0.3081
17207SOL    HW154000   8.014   2.257   9.200 -1.6543  0.4086 -2.0507
17207SOL    HW254001   8.090   2.128   9.219  0.5679  1.9434  0.2325
17208SOL     OW54002   0.154   6.156   5.070  0.3257  0.1699 -0.0116
17208SOL    HW154003   0.166   6.190   5.159  0.3246  0.0616  0.0298
17208SOL    HW254004   0.216   6.207   5.017  0.9095 -0.3140  0.1855
17209SOL     OW54005   3.500   7.019   1.427 -0.3970 -0.1398  0.4208
17209SOL    HW154006   3.529   6.969   1.351  1.2892 -1.4134  1.8205
17209SOL    HW254007   3.455   6.955   1.482  2.3089 -0.3859  2.5231
17210SOL     OW54008   1.897   1.793   8.531 -0.4244  0.1829  0.6718
17210SOL    HW154009   1.964   1.797   8.600 -0.3204 -1.9872  0.7562
17210SOL    HW254010   1.946   1.812   8.450 -0.2815  1.3770  1.0200
17211SOL     OW54011   4.860   4.862   1.385 -0.5603 -0.2410  0.0961
17211SOL    HW154012   4.924   4.929   1.363 -2.0047  0.6792 -1.5730
17211SOL    HW254013   4.904   4.779   1.363  0.3769  0.3019 -0.1581
17212SOL     OW54014   9.922   3.982   1.149  0.5261 -0.3682 -0.3114
17212SOL    HW154015   9.880   3.917   1.206 -0.2487  0.0938 -0.3316
17212SOL    HW254016   9.865   3.986   1.072  0.6531  0.2042 -0.3837
17213SOL     OW54017   2.341   8.468   5.973 -0.1336 -0.5199 -0.1967
17213SOL    HW154018   2.296   8.529   6.032 -0.5004 -0.4210 -0.5742
17213SOL    HW254019   2.271   8.426   5.923  0.2562  1.3937 -2.5212
17214SOL     OW54020   5.912   6.466   8.677  0.0063  0.3698  0.3215
17214SOL    HW154021   5.997   6.486   8.637  0.4722 -1.5170  0.2757
17214SOL    HW254022   5.894   6.541   8.734  1.3437  1.1337 -0.2125
17215SOL     OW54023   4.589   2.673   5.480  0.7922  0.4865  0.0522
17215SOL    HW154024   4.630   2.678   5.394  1.0798  1.3554  0.2291
17215SOL    HW254025   4.496   2.687   5.463  0.8846  0.9502 -0.0999
17216SOL     OW54026   1.324   3.532   5.236 -0.4380 -0.4948  0.2175
17216SOL    HW154027   1.406   3.482   5.244  0.6260  1.3432  1.7747
17216SOL    HW254028   1.256   3.471   5.262  0.4867 -1.9037 -0.5153
17217SOL     OW54029   9.250   7.773   9.433 -0.1542  0.3565 -0.1806
17217SOL    HW154030   9.313   7.794   9.364 -1.9709  3.5081 -1.1120
17217SOL    HW254031   9.283   7.819   9.511  0.7946 -1.4587  0.5353
17218SOL     OW54032   5.432   2.876  10.337  0.0244 -0.4719  0.0287
17218SOL    HW154033   5.362   2.818  10.366  0.3712 -1.5430 -1.1517
17218SOL    HW254034   5.395   2.964  10.345 -1.1237 -0.9569  0.2918
17219SOL     OW54035   6.785   4.841   8.886 -0.5680 -0.3386  0.0172
17219SOL    HW154036   6.792   4.751   8.854  0.3795  0.7700 -3.2115
17219SOL    HW254037   6.760   4.831   8.978 -0.6491 -3.8711 -0.2442
17220SOL     OW54038   5.411   2.842   9.775 -0.0135 -0.5836 -0.1980
17220SOL    HW154039   5.446   2.761   9.811 -0.7185 -0.5491  0.5792
17220SOL    HW254040   5.347   2.872   9.839  0.5441  0.8212 -0.2395
17221SOL     OW54041   0.441   6.045   3.706  0.0690  0.1346  0.0482
17221SOL    HW154042   0.447   6.007   3.619 -2.0829 -0.3000  0.0557
17221SOL    HW254043   0.489   6.128   3.699  0.8277 -0.3924 -1.2357
17222SOL     OW54044   2.206   0.213   7.180 -0.0446 -0.3504  0.1658
17222SOL    HW154045   2.131   0.155   7.165  0.2328 -0.5920 -0.3374
17222SOL    HW254046   2.175   0.300   7.155 -0.0929 -0.4874 -0.2679
17223SOL     OW54047   4.170   7.472   7.201  0.1303 -0.1054 -0.4211
17223SOL    HW154048   4.156   7.406   7.268 -0.9258  0.2545 -0.2794
17223SOL    HW254049   4.159   7.556   7.247 -3.2236  0.1815 -1.4917
17224SOL     OW54050   7.494  10.370   8.546 -0.1758 -0.0136  0.4339
17224SOL    HW154051   7.540  10.336   8.623  0.9800 -0.5596 -0.4768
17224SOL    HW254052   7.563  10.396   8.486 -1.0624  0.8540 -0.2461
17225SOL     OW54053   4.305   0.004   5.855 -0.3033 -0.4993  0.5887
17225SOL    HW154054   4.400   0.012   5.865 -0.0651 -1.1280 -0.9614
17225SOL    HW254055   4.273   0.095   5.856  0.5439 -0.1601 -0.6945
17226SOL     OW54056   9.641   3.465   2.245 -0.4780 -0.1599 -0.3864
17226SOL    HW154057   9.637   3.382   2.197  0.2411 -0.0671 -0.6130
17226SOL    HW254058   9.703   3.518   2.195 -2.2646  1.1936 -1.2904
17227SOL     OW54059   7.784   5.284   5.870 -0.5101 -0.1001 -0.6520
17227SOL    HW154060   7.715   5.310   5.931 -0.5506  0.3880 -0.8993
17227SOL    HW254061   7.748   5.304   5.783  0.8281  2.4601 -0.7089
17228SOL     OW54062   9.304   2.237   8.111 -0.0653  0.7194 -0.1641
17228SOL    HW154063   9.350   2.219   8.029  0.1566 -0.7037  0.2633
17228SOL    HW254064   9.246   2.311   8.089  0.0100  0.3880 -1.5961
17229SOL     OW54065   4.242  10.517   4.185  0.1964 -0.4089 -0.6720
17229SOL    HW154066   4.298  10.580   4.231 -0.8794 -0.0138  0.1320
17229SOL    HW254067   4.179  10.488   4.251 -1.2332 -0.0263 -1.8346
17230SOL     OW54068   2.059   5.869   9.302 -0.3541 -0.1008  0.5877
17230SOL    HW154069   2.110   5.791   9.326 -1.0230 -0.0861  2.1919
17230SOL    HW254070   1.968   5.840   9.309 -0.6453 -0.1174 -2.2044
17231SOL     OW54071   5.418   2.775   5.722 -0.2695  0.0422  0.5794
17231SOL    HW154072   5.501   2.735   5.750 -0.3655 -0.7954 -0.2693
17231SOL    HW254073   5.352   2.731   5.775 -0.2444  0.1226  0.6775
17232SOL     OW54074  10.138  10.559   2.477  0.3244 -0.4885 -0.6106
17232SOL    HW154075  10.048  10.589   2.464 -0.2788 -1.6944  0.5652
17232SOL    HW254076  10.179  10.566   2.391 -0.7106  0.6446 -1.0264
17233SOL     OW54077   6.366   0.614   6.137 -0.4645 -0.1297 -0.1047
17233SOL    HW154078   6.272   0.613   6.120 -0.5126  0.2530  0.1309
17233SOL    HW254079   6.393   0.704   6.116 -0.3624  0.0960  0.9175
17234SOL     OW54080   2.236   2.882   8.089 -0.0367  0.1106 -0.5485
17234SOL    HW154081   2.164   2.920   8.038  1.2565  1.5794 -1.3801
17234SOL    HW254082   2.277   2.819   8.029  1.1733  1.4726 -1.2286
17235SOL     OW54083   4.747   9.826  10.211 -0.2229  0.6281 -0.4358
17235SOL    HW154084   4.661   9.812  10.251  0.4209 -0.3407  0.6651
17235SOL    HW254085   4.769   9.741  10.173  1.1782  0.2225  1.1938
17236SOL     OW54086  10.779   1.097   7.710  0.2646 -0.2480 -0.4656
17236SOL    HW154087  10.800   1.188   7.690  1.2162 -0.7688 -2.0017
17236SOL    HW254088  10.687   1.087   7.685  0.3719  0.1124 -1.0227
17237SOL     OW54089   6.869   4.047  10.053  0.0949  0.1274  0.2699
17237SOL    HW154090   6.943   4.025   9.996 -0.1122  0.7934 -0.2696
17237SOL    HW254091   6.862   4.142  10.049 -0.2412  0.1445  1.0194
17238SOL     OW54092   9.595   7.799   9.491  0.3406  0.1312 -0.2513
17238SOL    HW154093   9.642   7.735   9.544  0.2147 -0.0598 -0.3696
17238SOL    HW254094   9.509   7.805   9.533  0.1732 -0.1642 -0.5432
17239SOL     OW54095   4.637   3.803   4.843 -0.2057 -0.2261 -0.1662
17239SOL    HW154096   4.585   3.841   4.914  0.4063 -1.5897  1.0544
17239SOL    HW254097   4.611   3.711   4.841  1.5201 -0.7449 -0.1071
17240SOL     OW54098   9.843   1.653   8.454 -0.3717  0.0557  0.2130
17240SOL    HW154099   9.875   1.700   8.378 -0.1210 -0.5017 -0.0270
17240SOL    HW254100   9.844   1.718   8.525  0.2646  0.3286 -0.0422
17241SOL     OW54101   0.009   0.072  10.020  0.0955  0.1351  0.5488
17241SOL    HW154102   0.036  -0.003   9.968 -0.5709 -0.2824  0.7757
17241SOL    HW254103   0.064   0.144   9.990  0.9059 -0.4949  0.4820
17242SOL     OW54104   2.138   0.659   9.741  0.0864  0.0150 -0.1995
17242SOL    HW154105   2.192   0.645   9.818  1.3915 -1.5099 -1.3029
17242SOL    HW254106   2.159   0.748   9.712 -1.3622  1.0857  1.8333
17243SOL     OW54107   4.366  10.791   0.121  0.0328 -0.4706 -0.2695
17243SOL    HW154108   4.444  10.763   0.073  0.3529 -0.3383  0.1639
17243SOL    HW254109   4.293  10.772   0.062  0.3180 -1.3374 -0.3605
17244SOL     OW54110   7.377   5.964   4.277 -0.5885  0.2982  0.2330
17244SOL    HW154111   7.419   5.900   4.219 -1.4079  0.6105 -0.7309
17244SOL    HW254112   7.343   5.911   4.350 -0.9724 -0.3298 -0.3890
17245SOL     OW54113   1.180   3.206   8.573  0.4059 -0.1021 -0.6034
17245SOL    HW154114   1.152   3.194   8.482  0.7234  0.0137 -0.7167
17245SOL    HW254115   1.201   3.118   8.603 -0.3558 -0.2318 -0.4239
17246SOL     OW54116   8.855   1.717   6.259  0.1159  0.4676 -0.4497
17246SOL    HW154117   8.934   1.766   6.237 -0.4320  0.6836 -2.0088
17246SOL    HW254118   8.831   1.672   6.179 -1.3274  0.3741  0.0041
17247SOL     OW54119   3.769   3.637  10.335  0.1854 -0.0360  0.2112
17247SOL    HW154120   3.751   3.725  10.300 -0.2133  0.4744  1.6074
17247SOL    HW254121   3.691   3.616  10.387  0.0625 -1.4473 -0.5012
17248SOL     OW54122   2.334   2.891  10.353 -0.6699 -0.1654  0.6055
17248SOL    HW154123   2.377   2.923  10.432  0.2638 -1.2897  0.5760
17248SOL    HW254124   2.264   2.955  10.336 -1.0171  0.0021  2.4397
17249SOL     OW54125   9.628   9.537   5.879 -0.2072  0.4547  0.1234
17249SOL    HW154126   9.591   9.449   5.874 -2.0427  1.1480  0.8313
17249SOL    HW254127   9.645   9.550   5.973  1.3042  0.3860 -0.1223
17250SOL     OW54128   1.343   8.717   4.855 -0.2285  0.0794  0.2379
17250SOL    HW154129   1.347   8.684   4.765  1.2354 -0.6169  0.5376
17250SOL    HW254130   1.253   8.697   4.883 -0.3245 -0.8452 -0.6452
17251SOL     OW54131   8.447   6.730   6.476  0.5173 -0.6299 -0.5516
17251SOL    HW154132   8.522   6.781   6.505  0.6938 -1.4548  0.5111
17251SOL    HW254133   8.371   6.780   6.507  0.6517 -0.3602 -0.6529
17252SOL     OW54134   9.622   8.665   1.532 -0.3424  0.3794  0.2085
17252SOL    HW154135   9.594   8.657   1.441 -0.5648  3.9950 -0.2060
17252SOL    HW254136   9.540   8.664   1.582 -0.4856  1.3811  0.0141
17253SOL     OW54137   9.615   5.855   5.014  0.2965 -0.1441  0.0922
17253SOL    HW154138   9.578   5.907   4.942  0.9746  0.1178 -0.0683
17253SOL    HW254139   9.705   5.838   4.988  0.3881 -0.5191  0.6336
17254SOL     OW54140   3.198   4.136   4.053 -0.2815 -0.3921 -1.2215
17254SOL    HW154141   3.225   4.208   3.996 -0.3200 -1.0857 -2.1298
17254SOL    HW254142   3.227   4.057   4.007 -0.3999 -0.9674 -0.3224
17255SOL     OW54143  10.173   3.340   6.049  0.4053  0.1884 -0.1919
17255SOL    HW154144  10.255   3.367   6.009 -0.1773  0.7055 -1.0689
17255SOL    HW254145  10.136   3.277   5.987 -0.6300  1.1925 -0.6298
17256SOL     OW54146   4.566   9.605   9.882  0.7462 -0.1420 -0.5788
17256SOL    HW154147   4.486   9.628   9.929 -0.0880 -2.9805 -0.4174
17256SOL    HW254148   4.613   9.546   9.941  1.1051 -1.4503 -2.1019
17257SOL     OW54149   5.428   0.695   1.939 -0.1205 -0.6648  0.5233
17257SOL    HW154150   5.458   0.707   2.029  2.6386 -1.7889 -0.1416
17257SOL    HW254151   5.340   0.732   1.938 -0.1447 -0.3749  3.5952
17258SOL     OW54152   3.485   5.861  10.515 -0.4305 -0.2749  0.8153
17258SOL    HW154153   3.486   5.901  10.603 -1.3945 -0.0549  0.7355
17258SOL    HW254154   3.540   5.919  10.463 -1.2466  0.5862  0.8732
17259SOL     OW54155   4.794   1.524  10.115 -0.1334 -0.4804  0.7309
17259SOL    HW154156   4.832   1.436  10.112 -0.4769 -0.5985 -0.9499
17259SOL    HW254157   4.714   1.514  10.167  0.3097 -0.9614  1.3269
17260SOL     OW54158   2.451   6.847   6.218  0.1898  0.1979 -0.0062
17260SOL    HW154159   2.484   6.781   6.279 -0.0632 -1.4417 -1.5346
17260SOL    HW254160   2.512   6.920   6.227  1.7560 -1.0698  0.2824
17261SOL     OW54161   0.727   0.103   8.457 -0.2227  0.1407 -0.0947
17261SOL    HW154162   0.640   0.121   8.493 -0.5584 -1.5422  0.0321
17261SOL    HW254163   0.726   0.009   8.437  1.2437  0.2812 -0.9978
17262SOL     OW54164   6.031   3.304   1.440 -0.4283  0.3099 -0.2786
17262SOL    HW154165   6.122   3.274   1.447 -0.5437 -0.0103 -0.1390
17262SOL    HW254166   5.980   3.232   1.476 -0.5362  1.8358  2.9420
17263SOL     OW54167   0.589   3.743   7.121  0.3572  1.0431 -0.1070
17263SOL    HW154168   0.665   3.690   7.101  0.8777  1.5992  0.3702
17263SOL    HW254169   0.547   3.758   7.036 -1.1941 -2.1387 -0.0452
17264SOL     OW54170  10.702   2.781   7.235 -0.4703 -0.2565 -0.1605
17264SOL    HW154171  10.768   2.711   7.227  0.8528  0.4623  2.8805
17264SOL    HW254172  10.620   2.734   7.250  0.2209 -1.2099  0.8313
17265SOL     OW54173   5.006   5.640   0.635  0.6245  0.1993  0.5403
17265SOL    HW154174   5.072   5.679   0.692  1.4684  1.8519 -1.4619
17265SOL    HW254175   5.049   5.632   0.550 -1.3848  0.2291 -0.5442
17266SOL     OW54176   4.752   6.574   6.407  0.1357 -0.1994 -0.2035
17266SOL    HW154177   4.749   6.648   6.346 -1.1490 -0.3306 -0.3217
17266SOL    HW254178   4.677   6.587   6.465  1.1505 -0.2418  1.1926
17267SOL     OW54179   5.244   8.435   3.289 -0.0833  0.3009 -0.6466
17267SOL    HW154180   5.237   8.500   3.359 -2.9978 -0.8947  0.3249
17267SOL    HW254181   5.170   8.454   3.231 -0.9851 -2.0223 -0.3705
17268SOL     OW54182   5.860  10.243   6.700 -0.6170 -0.5822  0.4737
17268SOL    HW154183   5.863  10.181   6.628 -0.6347 -1.6173  1.3407
17268SOL    HW254184   5.900  10.197   6.774 -0.6662  0.4217  1.1484
17269SOL     OW54185   8.461   9.329   2.662  0.1167 -0.1448  0.5350
17269SOL    HW154186   8.435   9.306   2.573  0.3943  0.0683  0.3940
17269SOL    HW254187   8.450   9.424   2.667 -1.0977 -0.3001  1.1375
17270SOL     OW54188   1.205   5.496   3.830  0.2581 -0.0905 -0.1066
17270SOL    HW154189   1.174   5.582   3.801  0.3837  0.1911  0.5659
17270SOL    HW254190   1.125   5.444   3.842  0.1458  0.1190  0.0575
17271SOL     OW54191   9.468   0.521   6.073  0.6011 -0.1805 -0.1339
17271SOL    HW154192   9.558   0.488   6.077  0.4708 -0.6812 -1.0078
17271SOL    HW254193   9.414   0.442   6.067  0.1975  0.1345 -0.8950
17272SOL     OW54194   2.067   1.954   8.768  0.0498 -0.5604 -0.0629
17272SOL    HW154195   2.087   2.037   8.811  1.9662 -0.8943 -0.2455
17272SOL    HW254196   2.065   1.890   8.839 -0.6511 -0.5029 -0.0223
17273SOL     OW54197   5.436  10.222   4.630 -0.4872 -0.0471  0.0430
17273SOL    HW154198   5.526  10.235   4.601  0.0341 -0.6044  1.3368
17273SOL    HW254199   5.418  10.130   4.614 -1.8763  0.5896 -2.8738
17274SOL     OW54200   5.734   6.744   3.229 -0.1697  0.7649  0.0979
17274SOL    HW154201   5.798   6.769   3.296 -0.8288 -0.2314  1.1299
17274SOL    HW254202   5.649   6.757   3.272 -0.5763 -1.0569 -0.0967
17275SOL     OW54203  10.662   0.941   2.087  0.0125 -0.0505 -0.3055
17275SOL    HW154204  10.642   1.023   2.131 -0.0236 -0.9789  1.5153
17275SOL    HW254205  10.678   0.879   2.158 -2.7491 -2.3638 -1.5100
17276SOL     OW54206   0.528   4.094   4.157  0.2562 -0.1170 -0.2893
17276SOL    HW154207   0.512   4.181   4.195  0.9320  0.2490 -0.8093
17276SOL    HW254208   0.544   4.037   4.231 -0.6320  0.1008  0.0871
17277SOL     OW54209   3.295   6.882   9.682 -0.3109  0.0777 -1.1308
17277SOL    HW154210   3.358   6.943   9.644  0.1935  1.1312  1.2316
17277SOL    HW254211   3.313   6.799   9.637  0.6125  1.0640 -2.7087
17278SOL     OW54212   6.546   0.389   9.193 -0.3741  0.3701  0.9416
17278SOL    HW154213   6.541   0.398   9.098 -1.5968  0.3508  0.9886
17278SOL    HW254214   6.637   0.365   9.211 -0.1267  0.4210 -0.2156
17279SOL     OW54215   7.067   0.008  10.532  0.6411  0.0707 -0.1391
17279SOL    HW154216   7.046  -0.084  10.552  1.8877 -0.0714  0.6087
17279SOL    HW254217   7.161   0.006  10.511  0.5583  1.1054 -0.6349
17280SOL     OW54218   4.395   5.856   0.792 -0.1444  0.0232 -0.8604
17280SOL    HW154219   4.355   5.878   0.708 -0.6792  0.6459 -0.4443
17280SOL    HW254220   4.374   5.929   0.850  0.1611 -0.4270 -0.1572
17281SOL     OW54221   4.657   8.176   4.672  0.1113  0.1343 -0.4371
17281SOL    HW154222   4.621   8.168   4.760 -0.7065 -0.5127 -0.8133
17281SOL    HW254223   4.729   8.239   4.680 -0.2222  0.3906  0.6038
17282SOL     OW54224   0.904   7.051   4.728 -0.4060 -0.1200 -0.2654
17282SOL    HW154225   0.893   7.076   4.636  2.7521 -2.6317 -1.5200
17282SOL    HW254226   0.847   6.975   4.740 -1.2510  0.5529  0.0662
17283SOL     OW54227   7.004   3.466   2.034 -0.1219 -0.0188  0.4911
17283SOL    HW154228   7.021   3.558   2.014 -0.2958 -0.1680 -0.3934
17283SOL    HW254229   6.909   3.459   2.036 -0.1124 -0.2196  0.3253
17284SOL     OW54230   9.522   0.757   0.448 -0.3777  0.2348  0.6010
17284SOL    HW154231   9.564   0.773   0.363 -0.3871  2.5711  0.9657
17284SOL    HW254232   9.556   0.672   0.476 -0.6653 -0.7859 -1.8757
17285SOL     OW54233   9.846   1.539   9.468 -0.0670  0.1447 -0.3384
17285SOL    HW154234   9.900   1.480   9.416 -1.3421 -0.7543 -0.6854
17285SOL    HW254235   9.772   1.560   9.412 -0.8164  0.1871  0.6349
17286SOL     OW54236   3.081   5.841   3.978 -0.5166 -0.4368  0.7847
17286SOL    HW154237   3.080   5.822   4.072  1.3487  0.3529  0.9959
17286SOL    HW254238   3.124   5.926   3.971  1.0915 -1.3306 -0.9095
17287SOL     OW54239   4.411   8.175   2.733 -0.0844  0.2626  0.1044
17287SOL    HW154240   4.376   8.117   2.800 -1.6431  1.7370  0.6148
17287SOL    HW254241   4.466   8.237   2.780  1.6020 -0.7251 -0.4454
17288SOL     OW54242   5.810   7.749   4.268  0.4445  0.0651 -0.2062
17288SOL    HW154243   5.865   7.672   4.284  1.0725  0.8246  1.5553
17288SOL    HW254244   5.776   7.772   4.354 -0.5127  1.2010 -0.8606
17289SOL     OW54245   0.759   7.964   8.927  0.1940 -0.4159 -0.9731
17289SOL    HW154246   0.833   7.937   8.982 -0.0996  1.1105  0.2377
17289SOL    HW254247   0.690   7.985   8.989 -0.6996 -0.1665 -2.0210
17290SOL     OW54248   9.558   1.824   6.532  0.1649  0.7576 -0.6754
17290SOL    HW154249   9.650   1.849   6.523  0.1879  0.3295 -1.8050
17290SOL    HW254250   9.557   1.729   6.518 -0.2811  0.5201  0.7642
17291SOL     OW54251  10.721   0.518   0.981  0.0486  0.1099  0.2432
17291SOL    HW154252  10.739   0.469   1.061  0.8940 -0.4963 -0.3016
17291SOL    HW254253  10.662   0.588   1.009  0.5504  0.0839  1.4502
17292SOL     OW54254   4.878   8.055   7.782 -0.0774  0.1554  0.8200
17292SOL    HW154255   4.915   8.140   7.761  1.3995 -0.6599 -0.0302
17292SOL    HW254256   4.783   8.070   7.781  0.1449  1.7704  0.6673
17293SOL     OW54257   9.598   2.017   8.680 -0.6899  0.0021  0.2070
17293SOL    HW154258   9.570   2.095   8.632  0.4533  0.2441 -0.0936
17293SOL    HW254259   9.533   2.006   8.749 -0.9168  1.1700  0.1875
17294SOL     OW54260   3.514   1.811   3.792 -0.0566 -0.1775  0.5486
17294SOL    HW154261   3.584   1.747   3.804  0.7194  0.8745  1.9374
17294SOL    HW254262   3.476   1.822   3.879  1.8805  3.4593  1.1413
17295SOL     OW54263   7.290   9.203   2.101 -0.3027 -0.0948 -0.2134
17295SOL    HW154264   7.357   9.270   2.086 -0.0814  0.0964  1.4121
17295SOL    HW254265   7.294   9.148   2.023  1.3336  0.2738 -0.4389
17296SOL     OW54266   5.251   7.583   0.467  0.4782 -0.1908  0.1413
17296SOL    HW154267   5.244   7.563   0.561  0.9069 -2.2021 -0.2088
17296SOL    HW254268   5.335   7.546   0.441 -0.5467 -1.5416 -1.4532
17297SOL     OW54269   4.030   7.394   8.170 -0.1895 -0.1340 -0.5419
17297SOL    HW154270   4.003   7.404   8.079 -1.5525 -1.1680 -0.2912
17297SOL    HW254271   4.052   7.483   8.199 -3.7393  0.9565 -0.7069
17298SOL     OW54272   7.884   0.751  10.537  0.2443 -0.1043  0.2700
17298SOL    HW154273   7.799   0.793  10.524 -0.2794 -1.1884  0.0177
17298SOL    HW254274   7.887   0.683  10.470 -0.4037 -2.6590  2.6280
17299SOL     OW54275   9.728   9.030   2.251 -0.1874  0.0318  0.1191
17299SOL    HW154276   9.770   9.030   2.337  2.9113  1.7747 -1.2150
17299SOL    HW254277   9.708   8.938   2.234  1.6407 -0.7018  1.5965
17300SOL     OW54278  10.791   9.691   6.751 -0.8058 -0.4559  0.1066
17300SOL    HW154279  10.827   9.777   6.729 -1.7752 -0.3531 -1.2450
17300SOL    HW254280  10.716   9.711   6.808 -0.1307 -0.5308  1.0536
17301SOL     OW54281   0.373   1.730   9.848 -0.2169 -0.2612 -0.0586
17301SOL    HW154282   0.400   1.680   9.771 -1.7847  0.2881 -1.0380
17301SOL    HW254283   0.294   1.685   9.879 -1.7262  1.5694 -1.0291
17302SOL     OW54284   7.938   2.588   4.386 -0.3638 -0.1998 -0.5136
17302SOL    HW154285   7.944   2.493   4.400 -1.3202 -0.3533 -1.0626
17302SOL    HW254286   7.949   2.598   4.291  0.3001  0.2962 -0.3880
17303SOL     OW54287   4.092   1.192   9.644  0.4606 -0.0284 -0.0173
17303SOL    HW154288   4.178   1.189   9.601  1.0762 -0.8800  1.2254
17303SOL    HW254289   4.055   1.276   9.616  1.8359  0.5090 -0.3368
17304SOL     OW54290   2.878   5.405   8.049  0.1964  0.2966  0.0363
17304SOL    HW154291   2.942   5.336   8.066  0.4712 -0.0514 -2.1279
17304SOL    HW254292   2.898   5.435   7.960 -1.2057  1.7708  0.1761
17305SOL     OW54293   4.373   7.567   4.616  0.0848 -0.1297 -0.2960
17305SOL    HW154294   4.329   7.490   4.581  0.1433 -0.5070  0.4424
17305SOL    HW254295   4.312   7.639   4.602 -0.4084 -0.4992 -0.0501
17306SOL     OW54296   4.456   6.959   5.261  0.0582 -0.0967  0.2193
17306SOL    HW154297   4.481   6.888   5.203 -0.7851 -0.7365  0.6234
17306SOL    HW254298   4.516   6.952   5.335  0.4487  0.0708 -0.0770
17307SOL     OW54299   9.986   0.168   9.785 -0.2577  0.1384  0.2883
17307SOL    HW154300   9.895   0.196   9.786 -0.3732 -0.0718 -1.2384
17307SOL    HW254301  10.036   0.246   9.809 -0.7304  0.9282 -1.1798
17308SOL     OW54302   0.289   0.867   8.164  0.0911 -0.5076  0.3297
17308SOL    HW154303   0.238   0.801   8.210 -0.7964 -0.7238 -0.9347
17308SOL    HW254304   0.310   0.828   8.080  0.0319  0.6090 -0.2214
17309SOL     OW54305   8.476   3.267   5.881 -0.1944 -0.4188 -0.1324
17309SOL    HW154306   8.530   3.196   5.846 -1.2809 -0.5964 -1.5291
17309SOL    HW254307   8.508   3.279   5.970  1.5392 -1.1186 -0.6042
17310SOL     OW54308   2.697   2.304   1.622  0.4770  0.2109  0.0256
17310SOL    HW154309   2.732   2.233   1.676  2.2715 -0.0218 -1.3360
17310SOL    HW254310   2.633   2.261   1.565  0.6295 -0.0828  0.0726
17311SOL     OW54311   4.280   6.897   5.736 -0.2638  0.2193 -0.4219
17311SOL    HW154312   4.305   6.950   5.660 -2.4765  1.0874 -0.6226
17311SOL    HW254313   4.300   6.953   5.811  0.7078 -0.1144 -0.4211
17312SOL     OW54314   2.171   2.893   6.354 -0.2567  0.2131 -0.6710
17312SOL    HW154315   2.170   2.963   6.288  2.0422  0.8207 -0.1689
17312SOL    HW254316   2.234   2.924   6.420 -0.6354 -1.4894  0.5554
17313SOL     OW54317   1.593   7.135   9.707 -0.2170 -0.3192 -0.1862
17313SOL    HW154318   1.523   7.158   9.767  0.0615 -0.3951  0.1679
17313SOL    HW254319   1.670   7.120   9.763  0.0939 -0.1883 -0.5728
17314SOL     OW54320   5.458   8.272   1.584  0.2197  0.5676 -0.3570
17314SOL    HW154321   5.481   8.269   1.677  0.4366  1.6881 -0.3703
17314SOL    HW254322   5.363   8.284   1.584  0.2425  0.7526 -0.2784
17315SOL     OW54323   7.533   8.803   8.455  0.0470 -0.3765  0.1156
17315SOL    HW154324   7.545   8.885   8.503 -3.0372  0.8941 -1.0308
17315SOL    HW254325   7.458   8.761   8.497 -0.6390 -0.8271 -1.4592
17316SOL     OW54326   2.180   5.956   0.892 -0.2912  0.8992 -0.1917
17316SOL    HW154327   2.137   6.009   0.824 -0.0878  0.2676 -0.8184
17316SOL    HW254328   2.166   5.866   0.865 -0.4442  0.6297  0.7616
17317SOL     OW54329   0.297   8.536   3.516  0.0066 -0.3819  0.3904
17317SOL    HW154330   0.381   8.558   3.475 -0.5109 -1.3911 -1.2908
17317SOL    HW254331   0.246   8.496   3.446 -1.8481  0.0938  1.4168
17318SOL     OW54332   9.395   7.351   4.872 -0.0869 -0.4000  0.3437
17318SOL    HW154333   9.369   7.284   4.810 -1.6151 -0.1317  0.6627
17318SOL    HW254334   9.399   7.306   4.956  0.5100 -0.4367  0.3009
17319SOL     OW54335  10.742   1.579   4.869 -0.1155 -0.2152 -0.1273
17319SOL    HW154336  10.764   1.523   4.944 -1.2328  0.0964  0.4617
17319SOL    HW254337  10.667   1.536   4.828  0.4400 -0.3407 -1.0394
17320SOL     OW54338   4.842   4.048  10.086 -0.0192 -0.7622 -0.3657
17320SOL    HW154339   4.904   3.992  10.041  0.5343 -0.6325  0.2184
17320SOL    HW254340   4.895   4.121  10.118 -0.5026 -0.5630 -0.0098
17321SOL     OW54341   2.350  10.246   0.918  0.4537 -0.1796 -0.1385
17321SOL    HW154342   2.442  10.250   0.946  0.3874 -3.4623  0.9406
17321SOL    HW254343   2.301  10.284   0.991  0.8621  0.2842 -0.0995
17322SOL     OW54344   4.603   4.338   1.582 -0.0646 -0.2056  0.3565
17322SOL    HW154345   4.589   4.385   1.500 -1.2130 -1.5614 -0.2724
17322SOL    HW254346   4.698   4.329   1.589  0.2477  2.4175  0.6845
17323SOL     OW54347   3.215   4.051   1.181 -0.1621  0.3014 -0.2265
17323SOL    HW154348   3.164   4.107   1.239 -0.6004 -0.2757 -0.0454
17323SOL    HW254349   3.181   3.963   1.197  0.3330  0.0204 -0.7016
17324SOL     OW54350   4.798   7.379   6.193  0.4128 -0.0356  0.7798
17324SOL    HW154351   4.887   7.370   6.226  0.3096 -1.9021  0.6891
17324SOL    HW254352   4.807   7.379   6.098  0.2860 -0.8839  0.7612
17325SOL     OW54353   8.139   5.436   6.245 -0.1365  0.7869  0.2656
17325SOL    HW154354   8.130   5.405   6.155 -1.9968  0.1273  0.6403
17325SOL    HW254355   8.129   5.358   6.299  0.4889  1.2464  1.0612
17326SOL     OW54356   8.415  10.421   2.452  0.0418  0.2277 -0.1588
17326SOL    HW154357   8.382  10.336   2.424  1.2483 -0.7099  1.1160
17326SOL    HW254358   8.511  10.411   2.449  0.1985  1.2506  0.8253
17327SOL     OW54359   3.034   8.787   1.390 -0.0181  0.0950 -0.9874
17327SOL    HW154360   3.084   8.791   1.472 -0.7554 -2.0793 -0.3584
17327SOL    HW254361   2.944   8.773   1.418 -0.3515 -0.2387 -2.1868
17328SOL     OW54362   5.455   7.824   6.046  0.2380 -0.5865 -0.2925
17328SOL    HW154363   5.519   7.787   6.107 -0.3433 -1.5866 -0.2709
17328SOL    HW254364   5.506   7.885   5.993  0.7948  0.1455  1.0372
17329SOL     OW54365   6.519   5.257   1.631  0.0074  0.7095 -0.0482
17329SOL    HW154366   6.524   5.350   1.652 -0.1910  1.0757 -1.4733
17329SOL    HW254367   6.610   5.231   1.618  0.2143  0.2501  2.0255
17330SOL     OW54368   0.382  10.702   5.717 -0.3240 -0.2109 -0.3749
17330SOL    HW154369   0.303  10.654   5.741 -0.6582  0.5638  0.1484
17330SOL    HW254370   0.376  10.716   5.623 -1.2437  0.5713 -0.2120
17331SOL     OW54371   3.101   4.747   8.803 -0.3860  0.4973  0.0750
17331SOL    HW154372   3.057   4.754   8.887  0.9383 -0.7841  0.9133
17331SOL    HW254373   3.130   4.656   8.798 -0.0522  0.6581 -1.5749
17332SOL     OW54374   3.071   8.075  10.119  0.2048 -0.2884  0.1633
17332SOL    HW154375   3.123   8.155  10.126  1.3230 -0.9790  0.0171
17332SOL    HW254376   3.088   8.029  10.201 -1.5835  0.2613  0.8961
17333SOL     OW54377   6.006   1.358   3.178 -0.1456  0.1974  0.4695
17333SOL    HW154378   6.000   1.309   3.260  0.0040 -1.1683 -0.3066
17333SOL    HW254379   6.059   1.435   3.200  0.4098 -0.4637  1.5145
17334SOL     OW54380   3.277   1.941   8.694 -0.2712 -0.3942  0.0061
17334SOL    HW154381   3.253   1.926   8.603  1.7405 -0.3264 -0.5989
17334SOL    HW254382   3.342   2.012   8.691 -0.5364 -0.0460  1.5426
17335SOL     OW54383   7.810   5.524   9.474 -0.5573  0.1322 -0.2907
17335SOL    HW154384   7.902   5.503   9.457 -0.8158 -1.1157 -0.2159
17335SOL    HW254385   7.797   5.500   9.565 -0.6781  1.3991  0.0461
17336SOL     OW54386   3.777   9.977   4.277 -0.6698  0.4356 -0.4942
17336SOL    HW154387   3.741  10.041   4.215 -0.6809  0.0239 -0.9144
17336SOL    HW254388   3.827   9.916   4.222  0.9493  1.1669  0.0891
17337SOL     OW54389   5.725   4.496   0.202  0.6019  0.4529 -0.3750
17337SOL    HW154390   5.766   4.557   0.141  0.5271  3.3866  2.2309
17337SOL    HW254391   5.657   4.453   0.151  2.9611 -0.1543 -3.2588
17338SOL     OW54392   4.791   9.774   2.042  0.6513  0.5117 -0.3458
17338SOL    HW154393   4.858   9.842   2.044  2.6537 -1.3394  1.4608
17338SOL    HW254394   4.788   9.741   2.132  1.1634 -2.9714 -1.4542
17339SOL     OW54395   9.319   4.870   7.609  0.0648  0.1525 -0.5242
17339SOL    HW154396   9.237   4.872   7.658 -0.0423  1.8489 -0.6954
17339SOL    HW254397   9.379   4.923   7.661  0.9226 -0.6879 -0.6420
17340SOL     OW54398   5.088   8.386   8.429  0.2984  0.7132  0.2323
17340SOL    HW154399   4.993   8.385   8.425  0.2322 -0.9018  1.4965
17340SOL    HW254400   5.108   8.436   8.508  0.6003  2.4443 -0.8673
17341SOL     OW54401   6.313   9.716  10.516 -0.3418  0.5311  0.7783
17341SOL    HW154402   6.367   9.637  10.513 -0.2121  0.6355  0.0564
17341SOL    HW254403   6.376   9.788  10.522 -0.3854  0.6561 -0.1292
17342SOL     OW54404   9.128   0.471   0.049  0.2195  0.6988 -0.0208
17342SOL    HW154405   9.213   0.476   0.006 -0.9889  0.2270 -2.6294
17342SOL    HW254406   9.099   0.562   0.055  1.1824  0.9247  1.5428
17343SOL     OW54407   5.974   9.881   5.832 -0.3644 -0.3625  0.1681
17343SOL    HW154408   5.992   9.881   5.926  0.4817 -0.4122  0.0097
17343SOL    HW254409   6.046   9.831   5.793  1.7022  3.1562 -0.9528
17344SOL     OW54410   8.887   2.034   7.289 -0.3056 -0.8633  0.2562
17344SOL    HW154411   8.810   1.982   7.268  1.0936 -3.4632  1.0561
17344SOL    HW254412   8.955   2.001   7.230  0.3284  1.0844 -0.1768
17345SOL     OW54413   8.978   0.844   1.491 -0.4428  0.2672 -0.1491
17345SOL    HW154414   8.884   0.857   1.480 -0.7633 -1.8981 -0.2903
17345SOL    HW254415   9.013   0.844   1.402 -0.4434  0.1238 -0.1491
17346SOL     OW54416   7.666  10.585   0.672  0.3688 -0.5906 -0.5216
17346SOL    HW154417   7.735  10.569   0.608  1.6476 -0.1556  0.6832
17346SOL    HW254418   7.644  10.498   0.705 -0.2322 -0.8053 -1.4670
17347SOL     OW54419   6.348   1.665   4.021  0.6601 -0.4673 -0.6798
17347SOL    HW154420   6.417   1.639   4.081  0.0137  0.7714  0.6679
17347SOL    HW254421   6.298   1.585   4.005  1.0938 -0.9031  0.1245
17348SOL     OW54422   2.621   2.690   1.438  0.4959  0.1587  0.3096
17348SOL    HW154423   2.530   2.718   1.452 -0.2319 -2.6826  1.9163
17348SOL    HW254424   2.648   2.738   1.360 -3.2488 -0.6572 -1.7588
17349SOL     OW54425   1.055   8.509   0.628 -0.1404 -0.4508  0.0001
17349SOL    HW154426   1.140   8.532   0.666 -0.1013 -2.9740  1.6268
17349SOL    HW254427   0.992   8.562   0.677  0.3406  0.3499 -0.2179
17350SOL     OW54428   4.662  10.606  10.304  0.4085 -0.2998 -0.1693
17350SOL    HW154429   4.750  10.637  10.326 -0.1553  0.8165  0.5874
17350SOL    HW254430   4.641  10.649  10.221  0.5133 -0.4393 -0.2682
17351SOL     OW54431   8.183   5.413   9.787  0.0836  0.9756  0.3295
17351SOL    HW154432   8.094   5.391   9.812  0.6476 -1.7587  0.1948
17351SOL    HW254433   8.228   5.430   9.871 -0.3759  1.7656  0.4301
17352SOL     OW54434   2.142   4.380   7.826  0.1698 -0.0640 -0.7459
17352SOL    HW154435   2.109   4.374   7.915 -1.9055 -0.3248 -1.4866
17352SOL    HW254436   2.167   4.471   7.815 -0.0765  0.0877 -0.0873
17353SOL     OW54437   6.462   5.707   1.294  0.0546 -0.1924  0.0743
17353SOL    HW154438   6.548   5.679   1.323  0.7553  0.6301 -1.1039
17353SOL    HW254439   6.412   5.722   1.375  1.3978  0.4599  0.8109
17354SOL     OW54440   1.087   5.100   2.389 -0.0351  0.4554  0.3790
17354SOL    HW154441   1.104   5.039   2.460  0.0478 -0.8466 -0.7299
17354SOL    HW254442   1.009   5.065   2.345 -0.0554  1.2109 -0.2132
17355SOL     OW54443   6.675   4.587   3.105 -0.0866  0.1880 -0.2381
17355SOL    HW154444   6.697   4.664   3.053 -1.1629  0.6454 -0.0488
17355SOL    HW254445   6.670   4.620   3.195  0.4955 -0.3343 -0.0060
17356SOL     OW54446   9.292   8.139   3.826 -0.1871 -0.0556 -0.2510
17356SOL    HW154447   9.388   8.147   3.830  0.0797  0.7767 -4.3022
17356SOL    HW254448   9.275   8.095   3.743 -3.3870  1.3278 -0.4637
17357SOL     OW54449   8.306   2.083   4.576  0.2859 -0.2953  0.3890
17357SOL    HW154450   8.400   2.084   4.596  0.3337  1.8060  0.2730
17357SOL    HW254451   8.264   2.069   4.661  0.6770  0.5312  0.7277
17358SOL     OW54452  10.073   7.687   4.914 -0.0828 -0.2672  0.0480
17358SOL    HW154453  10.011   7.708   4.845 -1.5572  0.6496  1.5701
17358SOL    HW254454  10.147   7.646   4.869 -1.2123 -0.1896 -1.9725
17359SOL     OW54455   2.054   6.557   3.391 -0.2037  0.4017  0.2268
17359SOL    HW154456   2.033   6.488   3.454  1.2295  0.1260  0.4366
17359SOL    HW254457   1.992   6.627   3.410  0.7237  0.6689  2.5377
17360SOL     OW54458  10.030   8.706   2.403  0.6808  0.3463 -0.7733
17360SOL    HW154459  10.019   8.694   2.309  1.3213  1.6414 -1.0371
17360SOL    HW254460   9.978   8.784   2.423  0.6071  0.1178 -0.0631
17361SOL     OW54461   2.821   7.412  10.083  0.0325 -0.6880  0.0595
17361SOL    HW154462   2.767   7.472  10.134 -0.9333 -1.4947  0.0063
17361SOL    HW254463   2.760   7.350  10.044  0.9264 -1.1850 -0.6072
17362SOL     OW54464  10.751   6.591   8.388  0.0834  0.1536 -0.5869
17362SOL    HW154465  10.666   6.630   8.373  0.2024  0.3503 -0.7625
17362SOL    HW254466  10.779   6.623   8.474  0.0473  0.2097 -0.5962
17363SOL     OW54467   8.228   1.750   6.894 -0.1402 -0.2685  0.2897
17363SOL    HW154468   8.300   1.770   6.835  1.5686 -1.8235  1.7211
17363SOL    HW254469   8.218   1.655   6.890 -2.0928 -0.1146  0.2045
17364SOL     OW54470   5.924   2.353   3.266  0.0055  0.4650  0.1866
17364SOL    HW154471   5.999   2.386   3.218  0.1926 -0.5993 -0.2885
17364SOL    HW254472   5.848   2.390   3.222  0.1537 -0.8207 -1.2256
17365SOL     OW54473   4.813   3.185   0.931  0.2247  0.0068  0.2803
17365SOL    HW154474   4.790   3.163   1.021  1.3495 -0.7279  0.4084
17365SOL    HW254475   4.854   3.271   0.936  0.4015 -0.0889  0.4988
17366SOL     OW54476   4.079   6.660   8.197  0.2520 -0.1146  0.6875
17366SOL    HW154477   4.027   6.740   8.197  0.5748  0.0943  0.5254
17366SOL    HW254478   4.026   6.597   8.148  0.3194  0.2053  0.2066
17367SOL     OW54479   4.888   8.667   9.883 -0.3827  0.1705  0.3042
17367SOL    HW154480   4.864   8.660   9.791  2.1025  2.7209 -0.6740
17367SOL    HW254481   4.839   8.744   9.914 -0.1427  0.1567  0.7259
17368SOL     OW54482   2.920   8.912   2.503 -0.4131 -0.8500  0.3620
17368SOL    HW154483   2.889   8.937   2.416  1.7738  0.3108 -0.1660
17368SOL    HW254484   2.867   8.836   2.527 -0.2105 -2.0277 -2.5402
17369SOL     OW54485   0.364  10.444  10.352  0.0665  0.4318  0.3527
17369SOL    HW154486   0.372  10.426  10.258  0.4805  0.6731  0.3379
17369SOL    HW254487   0.406  10.529  10.363  0.4947  0.1628  0.8373
17370SOL     OW54488   5.545   9.323   9.800 -0.2093 -0.7136 -0.2713
17370SOL    HW154489   5.589   9.325   9.885 -0.6379 -1.9735  0.0070
17370SOL    HW254490   5.604   9.271   9.744  1.4383  2.3301 -1.6091
17371SOL     OW54491   8.927   5.094   4.120  0.4064 -0.0032  0.3124
17371SOL    HW154492   8.876   5.020   4.087 -0.8348  1.2049 -0.6429
17371SOL    HW254493   8.869   5.170   4.106  2.6539  1.5334 -1.2913
17372SOL     OW54494   9.575   7.194   2.768  0.2172 -0.2335 -0.2124
17372SOL    HW154495   9.639   7.136   2.727  1.3623  0.1569  0.9455
17372SOL    HW254496   9.490   7.166   2.734  0.8013 -2.1609 -0.1626
17373SOL     OW54497   2.507   3.285   4.491  0.2165  0.1593 -0.3110
17373SOL    HW154498   2.564   3.298   4.567  0.8328  0.6982 -0.8616
17373SOL    HW254499   2.479   3.193   4.499  0.5082  0.1203  0.4008
17374SOL     OW54500   4.967   3.083   1.745 -0.4979 -0.6389  0.5691
17374SOL    HW154501   4.899   3.099   1.810 -1.0447  1.2937 -0.4159
17374SOL    HW254502   4.955   3.152   1.679  1.1156 -1.4869 -0.6993
17375SOL     OW54503   4.422   1.267   5.634  0.2082  0.3488  0.1317
17375SOL    HW154504   4.494   1.266   5.571 -0.0126  0.7190 -0.1289
17375SOL    HW254505   4.404   1.175   5.652 -1.6308  0.0776 -2.5217
17376SOL     OW54506   0.727   5.447   8.993 -0.2267 -0.6176 -0.2468
17376SOL    HW154507   0.700   5.534   9.025 -1.3870 -2.0134  3.0004
17376SOL    HW254508   0.768   5.406   9.069 -1.2692 -3.5283 -1.1294
17377SOL     OW54509   5.397   7.864   3.531  0.4261  0.0890  0.1631
17377SOL    HW154510   5.351   7.932   3.580 -0.6129 -2.0949  2.4586
17377SOL    HW254511   5.446   7.911   3.464  1.0910  3.2503  2.6502
17378SOL     OW54512  10.724   8.852   8.573  0.5111 -0.3047  0.0421
17378SOL    HW154513  10.782   8.924   8.597  1.0892 -0.4018 -0.9829
17378SOL    HW254514  10.641   8.895   8.551  0.9327  0.0980 -0.8250
17379SOL     OW54515   0.732   3.350   5.090  0.1060  0.7238  0.3563
17379SOL    HW154516   0.753   3.287   5.159 -2.6680  1.2710  1.8323
17379SOL    HW254517   0.725   3.296   5.011 -2.7049 -1.0693  1.6646
17380SOL     OW54518   8.227   2.258   1.600  0.0723  0.0645 -0.2361
17380SOL    HW154519   8.192   2.343   1.573  1.9434  0.6074 -1.1455
17380SOL    HW254520   8.200   2.198   1.531  2.9138  0.9949 -2.3444
17381SOL     OW54521   4.671   2.781   2.557 -0.7679 -0.1629  0.3790
17381SOL    HW154522   4.614   2.857   2.571  0.8612  1.2498 -0.3613
17381SOL    HW254523   4.629   2.711   2.607 -3.3263  0.6924 -0.3976
17382SOL     OW54524   1.006   3.699   6.159  0.2354  0.1045  0.0467
17382SOL    HW154525   0.929   3.671   6.208  0.5344 -0.6172  0.1131
17382SOL    HW254526   1.066   3.625   6.163  0.0119 -0.2535 -1.9511
17383SOL     OW54527   0.240   5.369  10.436  0.5324 -0.1533  0.5607
17383SOL    HW154528   0.153   5.370  10.476  0.7228  0.1170  0.9699
17383SOL    HW254529   0.279   5.452  10.460  0.4091  0.3063 -0.7422
17384SOL     OW54530   9.119   0.664   4.876 -0.4045  0.5541 -0.1224
17384SOL    HW154531   9.177   0.604   4.829 -1.0951  1.1821 -1.8378
17384SOL    HW254532   9.162   0.677   4.961  0.4411 -1.2797 -0.2264
17385SOL     OW54533   5.968   9.508   4.049  0.2347  0.7425  0.0991
17385SOL    HW154534   6.056   9.486   4.080  0.2498  0.2079 -0.3090
17385SOL    HW254535   5.921   9.535   4.128  0.6478  0.6521  0.3802
17386SOL     OW54536   3.729   6.871   1.273  0.5266  0.2782  0.2824
17386SOL    HW154537   3.787   6.906   1.205 -1.1299  3.0123  0.0909
17386SOL    HW254538   3.663   6.821   1.225  0.7523  0.1259  0.1304
17387SOL     OW54539   5.604   2.225   7.703 -0.1422 -0.7529 -0.0390
17387SOL    HW154540   5.646   2.192   7.623  0.6719  0.9531 -0.3548
17387SOL    HW254541   5.528   2.274   7.672 -0.1244 -0.5351  0.2580
17388SOL     OW54542   9.013  10.642   5.000 -0.3132 -0.1708 -0.2824
17388SOL    HW154543   9.028  10.555   5.036 -0.5238 -0.4783 -0.9170
17388SOL    HW254544   8.919  10.645   4.982 -0.0352 -0.5284 -2.0001
17389SOL     OW54545   5.210   6.407   2.576 -0.9149 -0.3490 -0.3488
17389SOL    HW154546   5.116   6.420   2.563 -0.7860 -0.7315 -1.7977
17389SOL    HW254547   5.221   6.312   2.582 -0.6430 -0.2953  0.1116
17390SOL     OW54548   7.957   5.443   8.397  0.3296  0.1282 -0.1361
17390SOL    HW154549   7.871   5.479   8.419 -0.1101 -2.1985  2.6680
17390SOL    HW254550   7.941   5.388   8.321 -0.2128  1.2424 -0.8497
17391SOL     OW54551   6.022   4.780   3.282 -0.0197 -0.4206 -0.6354
17391SOL    HW154552   5.982   4.741   3.205 -0.2089 -1.4722 -0.0320
17391SOL    HW254553   5.951   4.784   3.346  0.1072  0.5335 -0.5445
17392SOL     OW54554   4.305   5.262   2.463 -0.9019 -0.0674 -0.4137
17392SOL    HW154555   4.312   5.204   2.388 -2.6551 -0.0941 -0.5818
17392SOL    HW254556   4.396   5.286   2.483 -0.2672 -1.6215 -1.2879
17393SOL     OW54557   2.728   2.701   8.880  0.8321 -0.0492 -0.1585
17393SOL    HW154558   2.768   2.621   8.847 -0.0340 -0.7026  0.3174
17393SOL    HW254559   2.653   2.670   8.932 -0.5544  1.1173 -1.3657
17394SOL     OW54560   8.148   0.005   4.723 -0.9321 -0.1341  0.4183
17394SOL    HW154561   8.122  -0.087   4.718  1.7266 -0.9079 -1.1381
17394SOL    HW254562   8.211   0.007   4.796  0.4193 -0.0160 -0.7027
17395SOL     OW54563  10.779   6.462  10.152 -0.1648  0.4498  0.2321
17395SOL    HW154564  10.771   6.369  10.132  0.3449  0.7339 -1.4376
17395SOL    HW254565  10.834   6.497  10.082 -0.2337  1.9929  0.9059
17396SOL     OW54566   1.036   7.290   1.279  0.3769  0.2463  0.3617
17396SOL    HW154567   1.042   7.302   1.184  0.2068  1.1961  0.4586
17396SOL    HW254568   1.125   7.269   1.307  0.4698  0.1811  0.0163
17397SOL     OW54569  10.013   4.640   1.454 -0.5435 -0.1203  0.1483
17397SOL    HW154570  10.010   4.554   1.412  2.2343  0.2088 -0.9619
17397SOL    HW254571  10.106   4.655   1.470 -0.8958  2.8285  0.0154
17398SOL     OW54572   0.270   0.104   7.824 -0.8660  0.3531 -0.5359
17398SOL    HW154573   0.178   0.098   7.799 -1.0230 -0.5674  0.2073
17398SOL    HW254574   0.318   0.071   7.748 -1.0870  1.6536 -1.2626
17399SOL     OW54575  10.681   6.966   6.365  0.1282 -1.0359 -0.6001
17399SOL    HW154576  10.712   6.898   6.306  1.2383  0.1541 -1.4647
17399SOL    HW254577  10.663   6.921   6.447  2.7401 -2.1137 -0.5158
17400SOL     OW54578   6.227   4.875   0.750 -0.4687  0.0285  0.3932
17400SOL    HW154579   6.278   4.953   0.770  0.0534  0.4049 -2.0137
17400SOL    HW254580   6.289   4.814   0.711 -1.5584  0.0324 -1.5004
17401SOL     OW54581   0.050   3.683   6.781 -0.1405 -0.0742 -0.1888
17401SOL    HW154582   0.091   3.680   6.694 -0.1690 -0.3382 -0.1933
17401SOL    HW254583  -0.043   3.674   6.764 -0.0568 -1.3438 -0.0527
17402SOL     OW54584   2.360   4.051   8.834  0.4107  0.2688 -0.1795
17402SOL    HW154585   2.304   3.979   8.804  1.0570 -0.9232  1.3446
17402SOL    HW254586   2.320   4.080   8.915  0.9704  0.6541 -0.0380
17403SOL     OW54587  10.794   3.848   7.279 -0.4371  0.2341 -0.4106
17403SOL    HW154588  10.851   3.907   7.230 -1.6682  0.4296 -1.6612
17403SOL    HW254589  10.762   3.902   7.352  0.3421  0.3555 -0.1516
17404SOL     OW54590   6.779  10.560   7.776 -0.1998  0.1155 -0.6845
17404SOL    HW154591   6.766  10.634   7.834  0.8800  0.1712 -0.4887
17404SOL    HW254592   6.755  10.483   7.828 -0.8747  0.2839 -0.7380
17405SOL     OW54593   5.584   7.392   9.980 -0.2963 -0.0026  0.0583
17405SOL    HW154594   5.496   7.368   9.950 -0.5025  2.9192 -2.1647
17405SOL    HW254595   5.640   7.321   9.949 -1.7186 -1.4349  0.6442
17406SOL     OW54596   7.446   0.725   6.107  0.2132  0.6319 -0.0122
17406SOL    HW154597   7.378   0.790   6.129 -0.0401  0.1616  0.6498
17406SOL    HW254598   7.440   0.661   6.178  1.6760  0.8283  0.3107
17407SOL     OW54599   1.173   0.722  10.347 -0.0075  0.0465  0.0466
17407SOL    HW154600   1.181   0.814  10.373  0.4654 -0.4518  1.7990
17407SOL    HW254601   1.106   0.686  10.406 -0.9860 -0.4893 -1.3574
17408SOL     OW54602   8.593   6.756   7.024  0.7717 -0.0104 -0.9412
17408SOL    HW154603   8.519   6.698   7.006  0.2605  0.1289  0.5128
17408SOL    HW254604   8.580   6.783   7.115  2.3427  0.4388 -0.8214
17409SOL     OW54605   9.086   9.657   9.681  0.2580  0.2425  0.2465
17409SOL    HW154606   9.124   9.586   9.733 -0.0539  1.9550  3.0051
17409SOL    HW254607   9.152   9.727   9.684  0.2963  0.3837 -1.8961
17410SOL     OW54608   5.946   4.901   2.856 -0.8127  0.0523  0.1426
17410SOL    HW154609   6.002   4.945   2.920 -0.5829  0.9177 -0.6364
17410SOL    HW254610   6.007   4.858   2.797 -0.9933  0.2701 -0.2023
17411SOL     OW54611   7.446   5.709   7.364  0.1200  0.3280 -0.1286
17411SOL    HW154612   7.357   5.679   7.345 -0.0242 -0.0537  1.0210
17411SOL    HW254613   7.435   5.770   7.437  0.9389 -1.0946  1.2578
17412SOL     OW54614   4.930   8.294   9.311 -0.2608 -0.0247  0.1146
17412SOL    HW154615   4.991   8.223   9.333 -1.4731 -1.1018  0.1566
17412SOL    HW254616   4.983   8.359   9.266  0.7086 -1.4754 -0.9312
17413SOL     OW54617   0.423   7.826   8.898 -0.0244  0.6339 -0.3857
17413SOL    HW154618   0.479   7.797   8.826 -0.4224  0.8666 -0.7960
17413SOL    HW254619   0.334   7.822   8.861 -0.6126 -2.2629  1.0129
17414SOL     OW54620   9.871   3.593   2.436 -0.0822 -0.1847 -0.1377
17414SOL    HW154621   9.923   3.521   2.399 -1.1163 -1.1570  0.2469
17414SOL    HW254622   9.853   3.649   2.361 -2.0025 -2.0436 -1.1787
17415SOL     OW54623   5.564   7.276   7.311  0.2408  0.4749 -0.0173
17415SOL    HW154624   5.608   7.260   7.228 -0.8032  1.0503 -0.7099
17415SOL    HW254625   5.579   7.369   7.328 -0.6114  0.6674 -0.2345
17416SOL     OW54626   7.980   0.620   6.681  0.0683 -0.0122  0.6290
17416SOL    HW154627   8.019   0.592   6.598  0.0166  0.9703  0.2698
17416SOL    HW254628   7.886   0.604   6.670  0.2155 -1.4279  1.1252
17417SOL     OW54629   2.798   7.745   2.341  0.3092 -0.0650 -0.6714
17417SOL    HW154630   2.713   7.785   2.357  0.6270  0.5885 -0.6112
17417SOL    HW254631   2.829   7.720   2.427 -0.1321 -0.9676 -0.7565
17418SOL     OW54632   4.556  10.696   0.291  0.4911 -0.0479  0.2856
17418SOL    HW154633   4.479  10.715   0.237  0.8734 -1.6681 -0.9014
17418SOL    HW254634   4.601  10.781   0.299 -1.5395  1.0091  1.2999
17419SOL     OW54635   9.075   5.283   2.683  0.1132 -0.5675  0.5235
17419SOL    HW154636   8.991   5.239   2.669  0.9194 -2.5853  1.5308
17419SOL    HW254637   9.136   5.237   2.626  0.8553 -0.2473  1.0367
17420SOL     OW54638   8.996   3.589   9.507  0.4476  0.0438 -0.8607
17420SOL    HW154639   9.035   3.561   9.424  0.5321 -1.6651 -0.2762
17420SOL    HW254640   9.033   3.676   9.522  0.6763  0.2608 -2.4451
17421SOL     OW54641   0.543   6.763   7.155 -0.1638 -0.2169  0.0242
17421SOL    HW154642   0.630   6.787   7.187  0.0941 -1.5467  0.3603
17421SOL    HW254643   0.505   6.710   7.225  0.1650 -2.6771 -1.5387
17422SOL     OW54644   2.436   9.465   9.325  0.1939  0.0877 -0.5051
17422SOL    HW154645   2.454   9.504   9.411 -0.9225 -0.2214 -0.1104
17422SOL    HW254646   2.452   9.371   9.338 -2.3272 -0.3339  0.1074
17423SOL     OW54647   1.552  10.609   0.354 -0.1256 -0.4548  0.2792
17423SOL    HW154648   1.507  10.660   0.286  0.1262  0.7415  0.9761
17423SOL    HW254649   1.612  10.553   0.305  1.5693  1.8445 -0.4898
17424SOL     OW54650   4.855   3.097   8.641  0.2757  0.4327  0.2420
17424SOL    HW154651   4.801   3.160   8.594 -0.1172  0.6554  0.9688
17424SOL    HW254652   4.943   3.107   8.603  0.1057  1.0570  0.0072
17425SOL     OW54653   2.591   1.424   4.900 -0.0052  0.7211  0.0014
17425SOL    HW154654   2.581   1.491   4.967 -2.3123  0.4747 -0.0105
17425SOL    HW254655   2.646   1.465   4.833  1.2102  1.4464  1.3879
17426SOL     OW54656   3.672   7.313   9.652  0.0884 -0.1406 -0.1888
17426SOL    HW154657   3.689   7.384   9.589 -0.7644  1.8822  1.7262
17426SOL    HW254658   3.723   7.337   9.729 -2.4986  0.0323  1.5798
17427SOL     OW54659   1.332   6.861   2.405 -0.2301 -0.2333  0.2870
17427SOL    HW154660   1.307   6.769   2.395 -3.8498  0.6362  0.0885
17427SOL    HW254661   1.322   6.878   2.499 -0.2355  0.1085  0.2265
17428SOL     OW54662   4.182   4.157   0.082 -0.3365 -0.0336 -0.1708
17428SOL    HW154663   4.165   4.249   0.101 -0.8102  0.0528 -0.9638
17428SOL    HW254664   4.237   4.127   0.154  0.9951  1.2248 -0.6325
17429SOL     OW54665   0.303   5.808   6.832 -0.3440 -0.2321 -0.1457
17429SOL    HW154666   0.337   5.895   6.812  0.5012 -0.0889  1.7010
17429SOL    HW254667   0.221   5.825   6.878 -0.9957 -0.4854 -1.1743
17430SOL     OW54668   0.868   2.234   5.815 -0.4218  0.6822  0.0788
17430SOL    HW154669   0.858   2.139   5.802  0.7960 -0.0164  3.2511
17430SOL    HW254670   0.778   2.268   5.809 -1.0391 -0.8677  0.0501
17431SOL     OW54671   3.356   5.490   6.748  0.4857 -0.0557 -0.2035
17431SOL    HW154672   3.361   5.486   6.844  1.1969 -0.0164 -0.2399
17431SOL    HW254673   3.369   5.582   6.727 -1.3622  0.2393 -0.2540
17432SOL     OW54674   5.266   6.529   5.829  0.5877  0.1282 -0.6145
17432SOL    HW154675   5.184   6.489   5.858  0.3977  1.2779  0.5175
17432SOL    HW254676   5.317   6.456   5.795 -0.2474 -0.8840  0.2145
17433SOL     OW54677   2.049   8.169   8.233  0.1092  0.3455 -0.3924
17433SOL    HW154678   1.987   8.194   8.164 -0.3754 -1.2478 -0.5791
17433SOL    HW254679   2.006   8.196   8.314 -0.8648 -0.7108 -0.5207
17434SOL     OW54680   2.231   1.635   7.247 -0.4739  0.3735 -0.0990
17434SOL    HW154681   2.302   1.571   7.256  1.0319  1.9389 -0.3011
17434SOL    HW254682   2.209   1.659   7.337 -0.8631 -0.2147 -0.0318
17435SOL     OW54683   0.351   1.709   5.386  0.8224  0.5283 -0.4341
17435SOL    HW154684   0.371   1.708   5.292 -0.6756  2.0772 -0.8143
17435SOL    HW254685   0.289   1.637   5.398  4.2574 -2.6406  0.2978
17436SOL     OW54686   6.092   7.255   9.131 -0.1361 -0.1609  0.1750
17436SOL    HW154687   6.090   7.166   9.168  0.4204 -0.4559 -0.4815
17436SOL    HW254688   6.003   7.268   9.097 -0.5957  0.0362  1.3922
17437SOL     OW54689   0.487   0.071   4.803  0.9861  0.3004 -0.2451
17437SOL    HW154690   0.529   0.146   4.760  1.7689  0.3147  0.5154
17437SOL    HW254691   0.548   0.046   4.873 -0.7521  0.9761  1.6001
17438SOL     OW54692   6.397   0.900   0.921  0.2264 -0.3041  0.4254
17438SOL    HW154693   6.438   0.871   0.839 -0.5000 -0.3532  0.0703
17438SOL    HW254694   6.442   0.850   0.989  1.9895  0.9429  0.2292
17439SOL     OW54695  10.696  10.673   0.465 -0.0162 -0.1216  0.2155
17439SOL    HW154696  10.656  10.737   0.524 -0.6278 -0.3863  0.0891
17439SOL    HW254697  10.699  10.592   0.516 -0.5976 -0.3663 -0.1319
17440SOL     OW54698   2.486   1.227   6.230  0.6489  0.8708  0.2273
17440SOL    HW154699   2.554   1.160   6.225  0.2341  0.4984 -0.6339
17440SOL    HW254700   2.484   1.266   6.143 -0.7462  0.3689  0.0132
17441SOL     OW54701   1.171   2.727   8.964 -0.5017 -0.4077 -0.0789
17441SOL    HW154702   1.162   2.813   9.006  2.4164 -0.2095  0.3635
17441SOL    HW254703   1.191   2.667   9.036 -0.6750 -1.0988 -0.5984
17442SOL     OW54704   8.758   9.735   8.260 -0.5142  0.1210 -0.3374
17442SOL    HW154705   8.732   9.695   8.343  2.4719  2.5555  2.0100
17442SOL    HW254706   8.700   9.811   8.250 -1.2788 -0.5162 -0.8554
17443SOL     OW54707   6.033   5.710   2.848 -0.1011  0.2222  0.3046
17443SOL    HW154708   6.057   5.628   2.890 -0.0842  0.5406  0.9339
17443SOL    HW254709   5.940   5.720   2.866 -0.6158 -0.6960 -1.5848
17444SOL     OW54710   7.420   9.288   8.526 -0.2182 -0.3616  0.1105
17444SOL    HW154711   7.414   9.323   8.437  1.5444  1.2891  0.5634
17444SOL    HW254712   7.500   9.234   8.525  1.0703  1.4259  1.1690
17445SOL     OW54713   7.371   9.952   4.463  0.0347  0.4556  0.3865
17445SOL    HW154714   7.284   9.951   4.424  0.4599 -0.5992 -0.5963
17445SOL    HW254715   7.412  10.032   4.430  0.1679 -0.1100 -0.8870
17446SOL     OW54716   2.166   3.646   0.502  0.9440  0.7398  0.3646
17446SOL    HW154717   2.096   3.670   0.563 -0.0604  2.6971 -1.4422
17446SOL    HW254718   2.244   3.636   0.558 -0.6276 -1.3635  2.4202
17447SOL     OW54719  10.432   1.620   9.192 -0.2656  0.4927  0.1898
17447SOL    HW154720  10.527   1.606   9.186 -0.2571 -0.3606  1.7777
17447SOL    HW254721  10.421   1.714   9.184  0.8458  0.7183  1.0494
17448SOL     OW54722   4.269   3.854   2.812 -0.0634  0.2028  0.6631
17448SOL    HW154723   4.299   3.812   2.732 -2.0879 -2.0863  0.9771
17448SOL    HW254724   4.248   3.944   2.787 -0.3559 -0.3772 -1.2968
17449SOL     OW54725   2.705   6.699   2.142  0.5382 -0.8004  0.0501
17449SOL    HW154726   2.765   6.699   2.216 -0.0869 -0.4248  0.5717
17449SOL    HW254727   2.728   6.621   2.091  1.9473 -0.2637 -0.1746
17450SOL     OW54728   3.204   6.126   7.100 -0.4423  0.4355 -0.0106
17450SOL    HW154729   3.140   6.181   7.145 -0.3864 -0.1775  0.8296
17450SOL    HW254730   3.283   6.133   7.153 -0.9342 -1.8140  1.1134
17451SOL     OW54731   8.118   1.218   8.067 -0.0045 -0.0782  0.1797
17451SOL    HW154732   8.192   1.272   8.041  0.4783  0.2306  2.0134
17451SOL    HW254733   8.117   1.223   8.163 -1.7959 -0.8800  0.2559
17452SOL     OW54734   8.871   8.560  10.310 -0.3526  0.2109  0.4009
17452SOL    HW154735   8.914   8.531  10.390 -2.7676 -0.7587  1.4450
17452SOL    HW254736   8.922   8.635  10.280  1.6649 -0.5404  1.8216
17453SOL     OW54737   7.786   3.793   7.513 -0.5431  0.3719  0.7969
17453SOL    HW154738   7.821   3.770   7.600  0.7288 -1.0517 -0.0292
17453SOL    HW254739   7.722   3.724   7.494 -0.9904  0.8122  0.6968
17454SOL     OW54740   5.131   9.849   0.741  0.0082 -0.5853  0.1365
17454SOL    HW154741   5.077   9.836   0.662  0.6202  0.0065 -0.3972
17454SOL    HW254742   5.105   9.935   0.773 -0.5848 -1.0296  0.8724
17455SOL     OW54743   5.382   6.519   0.624 -0.5548  1.4178  0.4381
17455SOL    HW154744   5.373   6.570   0.705  3.9594  1.2472  1.3101
17455SOL    HW254745   5.391   6.429   0.654  1.8589  1.4280 -0.0577
17456SOL     OW54746   9.934   7.092   3.673 -0.1677  0.3892 -0.2217
17456SOL    HW154747   9.840   7.075   3.678 -0.2474  0.8986  0.1815
17456SOL    HW254748   9.957   7.082   3.581 -0.1700 -1.9815 -0.0278
17457SOL     OW54749   2.376   9.659   7.646 -0.1158 -0.4839 -0.0126
17457SOL    HW154750   2.349   9.675   7.737  0.4867 -0.6889  0.2056
17457SOL    HW254751   2.302   9.612   7.607  0.1692 -1.6291  0.7675
17458SOL     OW54752   6.606   6.086   1.543 -0.6408 -0.3300 -0.5625
17458SOL    HW154753   6.516   6.056   1.531 -0.6523  0.0699 -1.5911
17458SOL    HW254754   6.618   6.152   1.475  0.3511 -0.1927 -0.2645
17459SOL     OW54755   5.859   9.384   8.864 -0.2068 -0.1411  0.1025
17459SOL    HW154756   5.847   9.307   8.809  2.0168 -0.1096 -0.5587
17459SOL    HW254757   5.892   9.350   8.947  1.4316  0.0618 -0.4183
17460SOL     OW54758   3.857   1.294   5.429 -0.5102  0.2462 -0.1158
17460SOL    HW154759   3.922   1.268   5.494 -0.2564  0.0014 -0.4670
17460SOL    HW254760   3.795   1.221   5.427 -0.1238 -0.0717 -0.6687
17461SOL     OW54761   8.914   9.072   2.883  0.4276  0.0438  0.0510
17461SOL    HW154762   8.918   9.138   2.814  0.3267 -0.8821 -0.8740
17461SOL    HW254763   8.829   9.029   2.869  0.4821 -0.2642  0.6441
17462SOL     OW54764   3.740   0.764   6.456  0.5390 -0.3986 -0.2101
17462SOL    HW154765   3.709   0.711   6.382 -1.9770 -0.5663  0.8674
17462SOL    HW254766   3.662   0.808   6.488  2.0790  1.8332  0.6907
17463SOL     OW54767   0.269   9.888   6.223  0.4949 -0.2166 -0.3134
17463SOL    HW154768   0.300   9.972   6.255  0.4790 -0.4577  0.3548
17463SOL    HW254769   0.196   9.866   6.281 -0.7480  0.1929 -1.6555
17464SOL     OW54770   4.396   9.808   5.480 -0.1270  0.1161 -0.3062
17464SOL    HW154771   4.457   9.876   5.508  0.1531 -0.7342  1.2814
17464SOL    HW254772   4.357   9.842   5.400  1.8035  1.0540 -0.9111
17465SOL     OW54773   7.057   8.109   3.382  0.1163 -0.3556 -0.1756
17465SOL    HW154774   7.140   8.062   3.392 -0.9336 -2.2476  0.0846
17465SOL    HW254775   6.992   8.051   3.423 -1.2057  1.5365  0.5317
17466SOL     OW54776   0.296   5.210   0.231  0.3298 -0.3798 -0.2193
17466SOL    HW154777   0.373   5.196   0.286  0.3849 -2.5835 -0.7836
17466SOL    HW254778   0.223   5.205   0.293  0.3145 -3.8360 -0.2863
17467SOL     OW54779   5.568   9.606   5.191  0.6837  0.1422 -0.8818
17467SOL    HW154780   5.588   9.637   5.280  0.6414 -0.3257 -0.7089
17467SOL    HW254781   5.626   9.531   5.178 -0.4682 -0.8196 -0.6216
17468SOL     OW54782   6.391   0.076   7.109  0.2313 -0.0935  0.4985
17468SOL    HW154783   6.466   0.062   7.167  0.6856  0.2890  0.0171
17468SOL    HW254784   6.416   0.033   7.027  0.1718  0.5246  0.1473
17469SOL     OW54785   4.352  10.705   1.693 -0.3904 -0.2893  0.6348
17469SOL    HW154786   4.314  10.793   1.701 -0.1844 -0.1730  0.3323
17469SOL    HW254787   4.376  10.682   1.783 -1.6662 -0.5936  0.9248
17470SOL     OW54788   3.951   2.108   6.604 -0.7129  0.4212 -0.0323
17470SOL    HW154789   3.986   2.020   6.614  0.3434  0.8646  0.2804
17470SOL    HW254790   3.870   2.096   6.554  0.9675 -0.4378 -2.7599
17471SOL     OW54791   2.875   5.452   8.876  0.3760  0.2344  0.1661
17471SOL    HW154792   2.905   5.474   8.788 -1.7701  2.5008 -0.0980
17471SOL    HW254793   2.791   5.408   8.863 -0.4345  1.4449  1.0633
17472SOL     OW54794   9.804   0.937   7.024 -0.5164  0.6693  0.1618
17472SOL    HW154795   9.806   0.874   7.096 -0.9789  0.3422 -0.1059
17472SOL    HW254796   9.882   0.918   6.972 -0.9405 -0.0541 -0.2238
17473SOL     OW54797   7.001   9.011   1.421  0.5322 -0.2546  0.2371
17473SOL    HW154798   6.930   9.001   1.484  0.1715 -0.1606 -0.1493
17473SOL    HW254799   7.000   8.929   1.371  0.9353 -0.4044  0.4700
17474SOL     OW54800   9.156   9.175   7.262  0.0264  0.3824  0.9596
17474SOL    HW154801   9.239   9.221   7.254  1.2785 -1.9045 -0.3460
17474SOL    HW254802   9.143   9.135   7.176 -1.6976 -0.4869  1.5838
17475SOL     OW54803   0.590   3.350   1.309  0.0593  0.0776 -0.4212
17475SOL    HW154804   0.587   3.425   1.368 -2.3320 -0.4997  0.3071
17475SOL    HW254805   0.684   3.332   1.298  0.6753  2.5976  0.0551
17476SOL     OW54806   5.346   7.151   7.434 -0.4764 -0.6131 -0.3210
17476SOL    HW154807   5.349   7.073   7.489 -2.2024 -1.1488 -0.9158
17476SOL    HW254808   5.427   7.148   7.383 -0.7161 -2.2858 -0.6575
17477SOL     OW54809   3.134   4.177   8.854 -0.1863  0.3372 -0.1040
17477SOL    HW154810   3.042   4.193   8.873 -0.1078  0.1363  0.4804
17477SOL    HW254811   3.141   4.081   8.849  0.3294  0.2362  1.7467
17478SOL     OW54812   6.528   1.344   6.662  0.0776 -0.2603  0.3761
17478SOL    HW154813   6.593   1.353   6.732  0.9445 -2.0248 -0.1412
17478SOL    HW254814   6.477   1.267   6.687 -0.6912  0.0942 -0.0928
17479SOL     OW54815   6.792   7.373   3.383  0.5926 -0.2036  0.4699
17479SOL    HW154816   6.741   7.398   3.306  2.8231  0.7816 -0.7757
17479SOL    HW254817   6.744   7.299   3.421 -0.5676 -0.7343 -1.8814
17480SOL     OW54818   9.696   4.821   5.621  0.0149 -0.0234  0.0913
17480SOL    HW154819   9.658   4.860   5.699 -0.1472  1.1662 -0.5553
17480SOL    HW254820   9.714   4.895   5.563 -2.3308 -0.9811 -2.1038
17481SOL     OW54821   7.340   8.972   1.392  0.7028 -0.0705  0.0146
17481SOL    HW154822   7.258   8.957   1.440  1.2938 -1.1950  0.7123
17481SOL    HW254823   7.367   8.885   1.364  0.1389  0.5731 -2.8609
17482SOL     OW54824   7.638   1.352   4.042 -0.3259  0.4621  0.2485
17482SOL    HW154825   7.556   1.331   3.997  0.1826  0.8372 -0.8992
17482SOL    HW254826   7.628   1.315   4.130 -0.8887 -1.4115 -0.5436
17483SOL     OW54827   8.176   4.183   3.488  0.4094  0.4203  0.2465
17483SOL    HW154828   8.108   4.124   3.453 -0.7578  0.6658  1.9874
17483SOL    HW254829   8.256   4.156   3.442 -0.8689  0.2953 -2.0719
17484SOL     OW54830   3.582   9.315   8.547 -0.5194  0.7158  0.3023
17484SOL    HW154831   3.645   9.282   8.483 -0.0962  3.1064 -0.6103
17484SOL    HW254832   3.504   9.335   8.495 -0.7923  1.0261  0.8298
17485SOL     OW54833   7.442  10.663   7.370 -0.1658  0.8576  0.1911
17485SOL    HW154834   7.392  10.598   7.320 -0.7307  0.4424  1.2667
17485SOL    HW254835   7.530  10.627   7.375 -0.2425  0.6365 -0.0281
17486SOL     OW54836   3.391   0.609   9.745 -0.0866 -0.4579 -0.3754
17486SOL    HW154837   3.445   0.680   9.710 -1.4814  0.6552 -0.3376
17486SOL    HW254838   3.413   0.533   9.690  0.3173  0.3764 -1.4037
17487SOL     OW54839   7.202   4.917   2.687  0.2886 -0.1860  0.3330
17487SOL    HW154840   7.187   4.907   2.593  1.0196  1.0824  0.0568
17487SOL    HW254841   7.235   5.007   2.696  0.7655 -0.4867  1.7332
17488SOL     OW54842   2.546  10.574   0.981 -0.1151  0.1166 -0.2685
17488SOL    HW154843   2.599  10.652   0.973  1.5475 -1.1162 -2.0881
17488SOL    HW254844   2.557  10.528   0.898 -0.6074 -2.2881  0.8991
17489SOL     OW54845   1.528   1.411   1.157 -0.4259  0.2863 -0.5478
17489SOL    HW154846   1.565   1.410   1.069  1.0567  1.6020  0.0278
17489SOL    HW254847   1.553   1.326   1.194 -1.8940 -0.6927 -1.6753
17490SOL     OW54848   2.903   9.774   7.627  0.7229  0.0622  0.6835
17490SOL    HW154849   2.906   9.743   7.536  1.4837 -0.4521  0.8743
17490SOL    HW254850   2.855   9.856   7.623  2.0088  0.7901 -0.4052
17491SOL     OW54851   4.642   3.979   7.130  0.2637 -0.4154 -0.1724
17491SOL    HW154852   4.698   3.902   7.140 -1.2835 -1.4556  0.9974
17491SOL    HW254853   4.693   4.051   7.168  1.5638 -0.9275 -0.8903
17492SOL     OW54854   5.206   4.647   3.063 -0.0767 -0.6611 -1.0060
17492SOL    HW154855   5.260   4.667   2.987  0.3201  0.3409 -0.4855
17492SOL    HW254856   5.148   4.723   3.072  0.9946  0.0111  0.6386
17493SOL     OW54857   1.036   3.337   3.811  0.0373 -0.4268 -0.5613
17493SOL    HW154858   1.056   3.292   3.893  0.2070 -0.9907 -0.9084
17493SOL    HW254859   0.945   3.314   3.793 -0.4242  0.7643  0.1399
17494SOL     OW54860   4.306   6.212   7.533 -0.1003  0.5516 -0.3950
17494SOL    HW154861   4.299   6.296   7.578 -0.0508  0.4689 -0.2283
17494SOL    HW254862   4.304   6.233   7.440  0.5087  0.7960 -0.3605
17495SOL     OW54863   7.603  10.715   1.192 -0.3138  0.1523 -0.3895
17495SOL    HW154864   7.669  10.646   1.185 -2.2019 -1.9054  0.6354
17495SOL    HW254865   7.579  10.735   1.102 -1.3879 -2.3429 -0.7545
17496SOL     OW54866   7.077   3.820   4.240 -0.2369  0.0151  0.2271
17496SOL    HW154867   7.023   3.851   4.313 -0.2165  0.5850  0.0034
17496SOL    HW254868   7.117   3.739   4.272 -2.2217 -1.1273 -0.0477
17497SOL     OW54869   6.630   4.090   1.075  0.0019 -0.4069  0.1168
17497SOL    HW154870   6.685   4.048   1.009 -1.0870 -0.7303 -0.6220
17497SOL    HW254871   6.560   4.132   1.024  0.1427  0.8989  0.9546
17498SOL     OW54872   4.830   1.748   8.566 -0.0492  0.4259  0.3398
17498SOL    HW154873   4.813   1.654   8.563  0.4422  0.3450 -0.3928
17498SOL    HW254874   4.803   1.775   8.653 -4.3934  0.4369 -0.7732
17499SOL     OW54875   2.930   5.152   9.063  0.9139  0.0467  0.0935
17499SOL    HW154876   2.962   5.078   9.011  1.1882 -0.9154  1.5540
17499SOL    HW254877   2.948   5.126   9.153 -0.2167  1.3336  0.7131
17500SOL     OW54878   6.848   1.507   8.593  0.2825  0.3749  0.1491
17500SOL    HW154879   6.783   1.506   8.523  0.8264 -0.8738 -0.3577
17500SOL    HW254880   6.879   1.598   8.595 -0.2462  0.5885 -0.7533
17501SOL     OW54881   7.933   4.810   0.366 -0.4848 -0.4495  0.4843
17501SOL    HW154882   7.944   4.805   0.271 -0.3187  0.2285  0.4602
17501SOL    HW254883   7.882   4.890   0.380 -0.6516 -0.6327  0.9582
17502SOL     OW54884   9.252   1.399   5.685 -0.5912 -0.7185 -0.1413
17502SOL    HW154885   9.287   1.460   5.620 -1.5558  0.0701  0.0656
17502SOL    HW254886   9.285   1.313   5.657 -1.0485 -0.4109 -1.7213
17503SOL     OW54887  10.795   1.478  10.752 -0.5680  0.1399  0.2367
17503SOL    HW154888  10.814   1.571  10.739 -2.2307  0.5786  0.6902
17503SOL    HW254889  10.749   1.452  10.673 -1.0903 -0.0085  0.5883
17504SOL     OW54890   2.375   3.789   8.507  0.3584 -0.0245  0.2411
17504SOL    HW154891   2.307   3.854   8.519 -0.5508 -0.8770 -0.1621
17504SOL    HW254892   2.440   3.831   8.450  0.2824  0.8609  0.7973
17505SOL     OW54893   4.535   3.255   6.506 -0.0299  0.6882 -0.5682
17505SOL    HW154894   4.579   3.338   6.487 -0.9355  1.0248 -1.2814
17505SOL    HW254895   4.454   3.280   6.551 -0.3152  0.1919 -0.7941
17506SOL     OW54896   8.903   0.457   2.314  0.1147 -0.1295 -0.8902
17506SOL    HW154897   8.878   0.365   2.301 -0.6684 -0.1858  0.6425
17506SOL    HW254898   8.936   0.459   2.404 -1.8736  1.4364 -0.1194
17507SOL     OW54899   1.412   1.500   2.847 -0.1147 -0.1240 -0.6043
17507SOL    HW154900   1.347   1.515   2.916  2.3331  1.9431  1.5128
17507SOL    HW254901   1.456   1.419   2.874 -0.3529 -0.3227 -0.8047
17508SOL     OW54902   8.042   3.906  10.503  0.2879 -0.0549 -0.1317
17508SOL    HW154903   8.050   3.811  10.494  0.3527 -0.0236 -0.4352
17508SOL    HW254904   8.013   3.920  10.593 -0.0450 -0.3826 -0.1856
17509SOL     OW54905   0.517   7.882   4.478 -0.4277  0.0627  0.1289
17509SOL    HW154906   0.433   7.925   4.470 -0.4558  0.2035  1.0924
17509SOL    HW254907   0.581   7.948   4.453 -0.6059 -0.1803 -1.0538
17510SOL     OW54908   0.470   6.944  10.011  0.4384 -0.5458 -0.0402
17510SOL    HW154909   0.387   6.991  10.002  0.6587 -0.0775  0.3409
17510SOL    HW254910   0.470   6.910  10.100  0.3281 -1.1944 -0.2787
17511SOL     OW54911   0.105   7.134   0.760 -0.1213 -0.1076  0.0172
17511SOL    HW154912   0.012   7.120   0.780  0.0360 -1.2012  0.0343
17511SOL    HW254913   0.107   7.141   0.664 -0.0215 -1.9703 -0.1606
17512SOL     OW54914   5.015   5.029   9.652 -0.2329 -0.8639  0.6262
17512SOL    HW154915   5.030   5.123   9.645 -0.8474 -0.7198  1.0868
17512SOL    HW254916   5.102   4.990   9.647  0.1367 -0.1931  1.5529
17513SOL     OW54917   3.343   2.099   0.899  0.1358  0.1413  0.3950
17513SOL    HW154918   3.316   2.166   0.962  1.3486  2.0348 -1.0085
17513SOL    HW254919   3.398   2.145   0.836 -2.0793 -1.2798 -2.8974
17514SOL     OW54920   5.969   6.365   3.400  0.6561 -0.3270 -0.0137
17514SOL    HW154921   6.042   6.422   3.425  0.9882 -0.6776 -0.1679
17514SOL    HW254922   5.931   6.336   3.483  1.2259 -0.8190  0.0770
17515SOL     OW54923   3.334   3.017   9.534  0.6107  0.2635  0.2509
17515SOL    HW154924   3.383   3.088   9.577 -0.2594  2.1844 -1.7244
17515SOL    HW254925   3.257   3.061   9.496  0.1617 -1.6969 -1.2692
17516SOL     OW54926   8.940   1.052   0.753 -0.4598 -0.4158  0.1918
17516SOL    HW154927   8.977   1.121   0.697 -1.3728 -1.7969 -2.2643
17516SOL    HW254928   8.860   1.091   0.788  0.0154  0.4115  0.4034
17517SOL     OW54929   7.569   7.060   8.624  0.0916 -0.2238 -0.2926
17517SOL    HW154930   7.657   7.098   8.617  1.0620 -2.0531  0.9688
17517SOL    HW254931   7.524   7.113   8.689  0.9001 -0.3426  0.3750
17518SOL     OW54932   8.254   1.671  10.551  0.0574 -0.3975  0.2659
17518SOL    HW154933   8.249   1.600  10.487 -1.4209 -0.4047  0.3634
17518SOL    HW254934   8.248   1.751  10.498 -0.4859 -0.3897  0.3395
17519SOL     OW54935   9.738   0.693   4.851  0.1573  0.1482  0.2947
17519SOL    HW154936   9.761   0.753   4.780 -2.0654 -0.0086 -0.6457
17519SOL    HW254937   9.816   0.689   4.905  1.3303  1.6661 -1.1734
17520SOL     OW54938   6.001   7.723   5.956  0.5443 -0.5623  0.2306
17520SOL    HW154939   5.997   7.799   5.898 -0.8906 -0.2739  0.6668
17520SOL    HW254940   6.078   7.739   6.011  1.1626 -0.2073 -0.7025
17521SOL     OW54941   5.538   2.226   6.488  0.4588 -0.0241 -0.2807
17521SOL    HW154942   5.495   2.173   6.554 -1.3013  0.1907 -1.1921
17521SOL    HW254943   5.474   2.294   6.466  0.8824 -0.2050 -2.3191
17522SOL     OW54944   4.391   0.180   7.005  0.2938 -0.2303 -0.3326
17522SOL    HW154945   4.303   0.144   7.014 -0.7977  1.8469 -2.0013
17522SOL    HW254946   4.412   0.212   7.093  0.0212 -1.9526  0.4192
17523SOL     OW54947   7.713   2.124   8.782  0.0569 -0.3638 -0.7095
17523SOL    HW154948   7.761   2.206   8.790  3.3343 -2.2047  0.6003
17523SOL    HW254949   7.709   2.090   8.871  1.7190 -3.0614 -1.5504
17524SOL     OW54950   2.508   9.145   4.718  0.3297  0.0264  0.5848
17524SOL    HW154951   2.533   9.214   4.656  0.0351 -0.0435  0.3879
17524SOL    HW254952   2.551   9.066   4.685  0.4947  0.0698  0.6925
17525SOL     OW54953  10.078   8.954   8.704 -0.0074  0.2169  0.3779
17525SOL    HW154954  10.054   8.886   8.767  0.2323 -1.2918 -1.1075
17525SOL    HW254955  10.029   9.031   8.732  0.0806 -0.4036  2.3937
17526SOL     OW54956   4.461   5.922   1.704  0.0719 -0.2339  0.0614
17526SOL    HW154957   4.478   6.003   1.752  0.9583 -0.5211  0.2736
17526SOL    HW254958   4.489   5.853   1.765  2.3656 -0.5814 -1.2527
17527SOL     OW54959   5.663   3.842   2.291  0.2122  0.0357  0.3947
17527SOL    HW154960   5.615   3.925   2.291 -1.7387 -1.0011 -1.4433
17527SOL    HW254961   5.751   3.865   2.260  0.4418  1.7100  2.1037
17528SOL     OW54962   0.468   2.772   4.193  0.4776  0.2937 -0.0239
17528SOL    HW154963   0.547   2.787   4.141  0.6604  1.3623  0.5181
17528SOL    HW254964   0.404   2.737   4.132  1.3116 -0.3897 -0.5156
17529SOL     OW54965   6.137   2.857   5.273  0.5327  0.5754 -0.0270
17529SOL    HW154966   6.179   2.873   5.188 -0.2642 -0.7479 -0.6910
17529SOL    HW254967   6.185   2.784   5.311  0.4492  0.7215  0.3730
17530SOL     OW54968   1.370   7.882   0.222  0.0657  0.2824 -0.4321
17530SOL    HW154969   1.290   7.849   0.262  0.3773  1.0456  0.9001
17530SOL    HW254970   1.353   7.975   0.206  0.6014  0.4049 -0.3317
17531SOL     OW54971   6.994   6.125   4.470  0.2361  0.4436  0.0641
17531SOL    HW154972   6.980   6.116   4.564 -0.2277 -1.2043 -0.1404
17531SOL    HW254973   7.078   6.172   4.463  0.0612  0.9697  1.2807
17532SOL     OW54974   2.263   6.097   6.159  0.0149 -0.3123  0.1025
17532SOL    HW154975   2.193   6.033   6.171 -0.3825 -0.1176 -1.0330
17532SOL    HW254976   2.305   6.071   6.077 -0.3965  1.0732 -0.5879
17533SOL     OW54977   8.490   5.140  10.037 -0.2665  0.1390 -0.1711
17533SOL    HW154978   8.406   5.106  10.066 -0.1661 -0.5208 -0.6106
17533SOL    HW254979   8.483   5.143   9.941 -0.3159  1.5027 -0.1368
17534SOL     OW54980   3.573   0.920   7.139  0.0888  0.0079  0.0222
17534SOL    HW154981   3.657   0.898   7.178 -0.7630 -1.5466  1.0445
17534SOL    HW254982   3.541   0.994   7.190 -0.2238 -0.9142  1.1949
17535SOL     OW54983   5.486   3.469  10.552  0.5086  0.4404  0.2266
17535SOL    HW154984   5.519   3.512  10.630  0.2810  0.5983  0.2361
17535SOL    HW254985   5.498   3.376  10.569  1.1786  0.5024  0.1249
17536SOL     OW54986   6.792   3.618   5.573  0.1928  0.4011 -0.5207
17536SOL    HW154987   6.747   3.561   5.636  0.7317  1.4790  0.9148
17536SOL    HW254988   6.843   3.558   5.519  0.0403 -0.5531  0.3551
17537SOL     OW54989   1.587   1.245   8.432  1.2373  0.4240  0.3083
17537SOL    HW154990   1.546   1.222   8.348  0.6004  2.3561  0.0345
17537SOL    HW254991   1.535   1.317   8.465  1.1302 -0.6490  2.6990
17538SOL     OW54992   8.889   3.834   7.495  0.0902 -0.0822  0.0731
17538SOL    HW154993   8.980   3.840   7.526  0.8317 -1.7211 -1.5781
17538SOL    HW254994   8.852   3.762   7.544 -0.2519  0.4200  0.5598
17539SOL     OW54995   3.007   2.993   9.995  0.0344 -0.5505 -0.1882
17539SOL    HW154996   3.006   3.035   9.909 -2.0102  2.4033  1.1175
17539SOL    HW254997   2.938   2.927   9.991  0.0699 -0.5519 -0.8301
17540SOL     OW54998   4.491   3.477   9.958 -0.6904  0.2375 -0.4215
17540SOL    HW154999   4.442   3.396   9.949  1.7536 -1.5419  0.8988
17540SOL    HW255000   4.462   3.514  10.042 -2.7252  1.5023 -1.6080
17541SOL     OW55001   7.668   9.602  10.754 -0.2120  0.3560  0.3711
17541SOL    HW155002   7.700   9.692  10.761  0.1938  0.0979  2.5760
17541SOL    HW255003   7.747   9.548  10.758 -0.5098 -0.1239 -0.1120
17542SOL     OW55004  10.127   3.083   4.483  0.0118  0.1788 -0.3216
17542SOL    HW155005  10.152   3.098   4.391 -0.9190  0.5703 -0.5285
17542SOL    HW255006  10.031   3.085   4.481 -0.0172 -0.2370  0.5980
17543SOL     OW55007   0.024  10.358   6.064 -0.2747  0.1392 -0.8136
17543SOL    HW155008  -0.016  10.438   6.031  0.4011  0.4480 -0.9025
17543SOL    HW255009   0.114  10.383   6.085 -0.0515 -0.5999 -0.8599
17544SOL     OW55010   3.586   0.772   9.647 -0.2500  0.5282  0.2528
17544SOL    HW155011   3.603   0.847   9.589  0.6289  1.2263  1.3773
17544SOL    HW255012   3.591   0.809   9.735  2.1153 -1.1815  0.9344
17545SOL     OW55013   5.326   7.786   8.808 -0.3362 -0.7561  0.1074
17545SOL    HW155014   5.408   7.763   8.852 -1.0156 -1.5986  0.9670
17545SOL    HW255015   5.329   7.739   8.725 -1.0183 -2.8190  1.1904
17546SOL     OW55016   0.910   1.641   1.855 -0.1726 -0.0125  0.3193
17546SOL    HW155017   0.925   1.563   1.801 -0.0614  1.5587 -2.0694
17546SOL    HW255018   0.816   1.642   1.871 -0.2341 -0.4092 -0.0162
17547SOL     OW55019   9.553   7.245   2.020  0.1517 -0.0665 -0.7832
17547SOL    HW155020   9.564   7.199   2.103 -1.9286  0.2835 -0.2568
17547SOL    HW255021   9.472   7.209   1.984 -0.0766  1.2686 -1.6502
17548SOL     OW55022   1.952   8.306   8.442  0.0042  0.9123  0.0269
17548SOL    HW155023   1.876   8.354   8.412 -1.9040 -0.0262  2.9280
17548SOL    HW255024   2.003   8.369   8.493 -0.6795  0.7314  0.9513
17549SOL     OW55025   2.726   1.987   7.559  0.2590 -0.2507  0.3066
17549SOL    HW155026   2.667   1.919   7.592 -0.6368 -0.4542 -1.5208
17549SOL    HW255027   2.813   1.961   7.590 -0.4125 -0.7274  1.8959
17550SOL     OW55028   8.329   1.299   1.909 -0.8712 -0.3764 -0.3178
17550SOL    HW155029   8.422   1.281   1.927 -1.0134 -1.3496 -0.4741
17550SOL    HW255030   8.322   1.293   1.814 -1.1734 -0.7860 -0.2748
17551SOL     OW55031   5.128   1.739   5.274  0.3611 -0.7469 -0.2738
17551SOL    HW155032   5.047   1.784   5.298  0.2787 -0.9331 -0.2028
17551SOL    HW255033   5.117   1.719   5.181  0.5912 -0.2153 -0.4180
17552SOL     OW55034  10.708   3.443   1.041  0.2757  0.2571 -0.7021
17552SOL    HW155035  10.687   3.415   1.131 -0.8097  0.7562 -0.7858
17552SOL    HW255036  10.698   3.538   1.043 -3.1303  0.0394 -2.1434
17553SOL     OW55037  10.060   7.053   5.713  0.5153  0.5037 -0.0542
17553SOL    HW155038  10.091   7.131   5.759  3.8004 -0.1620 -0.8607
17553SOL    HW255039  10.068   6.983   5.778 -0.6221  0.4985  0.0994
17554SOL     OW55040   4.706   1.767   5.145  0.5676 -0.3463 -0.1965
17554SOL    HW155041   4.753   1.723   5.216  2.9466  2.3780  0.1033
17554SOL    HW255042   4.630   1.806   5.187  2.2644  1.7520  1.1798
17555SOL     OW55043   6.651   6.927  10.256 -0.2135 -0.3508 -0.0521
17555SOL    HW155044   6.597   6.917  10.335  0.7554 -2.0670  0.4515
17555SOL    HW255045   6.741   6.919  10.287  0.4000  2.3376 -0.9088
17556SOL     OW55046   1.282   2.970   4.150 -0.2750 -0.1553 -0.0582
17556SOL    HW155047   1.325   2.922   4.221  0.7439 -0.8897 -1.1180
17556SOL    HW255048   1.303   3.062   4.167  0.6554 -0.3910  0.1479
17557SOL     OW55049   2.918   6.741   5.881  0.0106  0.1293 -0.6130
17557SOL    HW155050   2.848   6.694   5.926  0.8098 -0.7725 -0.2636
17557SOL    HW255051   2.949   6.679   5.815  0.1572  0.7055 -1.0894
17558SOL     OW55052   5.318   1.215   2.270  0.1615 -0.0007 -0.3285
17558SOL    HW155053   5.346   1.177   2.186 -2.3655 -0.7855 -0.9053
17558SOL    HW255054   5.269   1.293   2.245 -2.6787 -1.5094  0.1297
17559SOL     OW55055   4.490   2.012   9.027  0.3192  0.8419  0.0024
17559SOL    HW155056   4.497   2.019   8.932 -1.4977 -2.1711 -0.5022
17559SOL    HW255057   4.415   2.066   9.050  1.5117  2.5857 -0.0207
17560SOL     OW55058   2.147   8.543   5.030 -0.1888  0.4398  0.5285
17560SOL    HW155059   2.147   8.458   4.986  0.1420 -0.2172  1.7431
17560SOL    HW255060   2.056   8.571   5.027 -0.3315 -0.0298  0.2546
17561SOL     OW55061   7.302   2.354   0.530 -0.3849 -0.0092 -0.1000
17561SOL    HW155062   7.209   2.366   0.508 -0.0698  0.9335 -1.0177
17561SOL    HW255063   7.342   2.322   0.449 -0.0599 -1.2984  0.5587
17562SOL     OW55064   4.931   5.400   1.461  0.2940  0.2195  0.1894
17562SOL    HW155065   4.928   5.346   1.382 -1.8149  0.1544  0.2459
17562SOL    HW255066   4.882   5.349   1.526 -0.9141  1.7210  0.5218
17563SOL     OW55067   0.396  10.536   3.654 -0.0284  0.7502 -0.4159
17563SOL    HW155068   0.371  10.470   3.589  0.5498  1.1185 -1.0405
17563SOL    HW255069   0.389  10.492   3.738 -1.9543  0.6068 -0.6111
17564SOL     OW55070   5.525   1.168   4.654 -0.6396 -0.2977 -0.1290
17564SOL    HW155071   5.581   1.240   4.626  0.0372 -1.4344 -1.8568
17564SOL    HW255072   5.468   1.152   4.579  0.0622 -2.3487 -0.2775
17565SOL     OW55073   1.849   2.489   0.554 -0.0824 -0.2330  0.2069
17565SOL    HW155074   1.788   2.507   0.483 -0.2887  1.2297  0.7187
17565SOL    HW255075   1.810   2.415   0.602 -1.1413  0.2890  0.1652
17566SOL     OW55076   7.529   0.981   6.339  0.1772 -0.0748  0.6185
17566SOL    HW155077   7.569   0.931   6.409 -0.6959  1.0955  2.0256
17566SOL    HW255078   7.497   0.916   6.277 -0.3770 -1.2340  2.0742
17567SOL     OW55079   7.391   7.076   0.983  0.3611 -0.3189 -0.2296
17567SOL    HW155080   7.457   7.086   0.914 -0.7795  0.9128 -1.1909
17567SOL    HW255081   7.354   6.989   0.969  0.2099 -0.1217 -1.1340
17568SOL     OW55082   9.197   2.472   4.629  0.2781  0.2088  0.7826
17568SOL    HW155083   9.138   2.519   4.688 -0.3928  0.5060 -0.1046
17568SOL    HW255084   9.151   2.392   4.607 -0.1651  0.8156 -0.5557
17569SOL     OW55085   5.429   8.014  10.320  0.1604 -0.2421 -0.2811
17569SOL    HW155086   5.378   7.936  10.298  0.7496 -1.3969  2.0997
17569SOL    HW255087   5.519   7.982  10.329  0.7971  1.1509 -1.2763
17570SOL     OW55088   2.691   2.997   9.788  0.0197  0.4712  0.1471
17570SOL    HW155089   2.745   2.926   9.822 -1.7298 -0.2550  1.5885
17570SOL    HW255090   2.701   2.992   9.693  0.7266 -1.0517  0.2787
17571SOL     OW55091   1.707   9.301   9.651  0.1995  0.1041 -0.1250
17571SOL    HW155092   1.694   9.394   9.630 -1.2465  0.2427  1.2468
17571SOL    HW255093   1.800   9.286   9.631  0.1425  1.4649 -1.6974
17572SOL     OW55094   3.081   3.454   7.516 -0.1334 -0.0594 -0.4461
17572SOL    HW155095   3.020   3.479   7.446 -1.9845 -0.7566  0.8241
17572SOL    HW255096   3.094   3.360   7.504 -1.0616 -0.3337  0.5411
17573SOL     OW55097   6.507   4.219   6.912  0.9095 -0.3354  0.5699
17573SOL    HW155098   6.418   4.236   6.944  1.2215  0.3246  1.1275
17573SOL    HW255099   6.564   4.251   6.982  1.5895 -0.6645  0.1757
17574SOL     OW55100   4.150   9.294   2.021 -0.3136  0.4347  0.2390
17574SOL    HW155101   4.067   9.267   2.061 -0.6311 -0.4199 -0.9568
17574SOL    HW255102   4.217   9.251   2.074 -0.5556  1.8962  1.8051
17575SOL     OW55103   5.089   5.788   8.698 -0.4552  0.3753  0.0045
17575SOL    HW155104   5.042   5.819   8.776 -2.0905  0.2179 -0.8631
17575SOL    HW255105   5.176   5.765   8.730 -1.6648 -1.5650  2.1948
17576SOL     OW55106   4.457   4.239   5.612 -0.2057 -0.1689  0.1181
17576SOL    HW155107   4.453   4.241   5.708 -0.0382 -0.2891  0.1272
17576SOL    HW255108   4.389   4.177   5.587 -0.3966  0.0262  0.1494
17577SOL     OW55109   3.075   6.451   1.046  0.4072 -0.0941  0.1476
17577SOL    HW155110   3.067   6.504   1.125  1.4816 -0.4317  0.4954
17577SOL    HW255111   3.153   6.486   1.002  1.8276 -2.0823  0.9511
17578SOL     OW55112   0.550   1.029   5.388 -0.5248 -0.2177 -0.1955
17578SOL    HW155113   0.645   1.031   5.390 -0.4897 -0.6066 -0.9795
17578SOL    HW255114   0.527   1.069   5.305 -1.0737  0.4136  0.2502
17579SOL     OW55115  10.668   4.649   3.453 -0.3752 -0.6467 -0.0746
17579SOL    HW155116  10.712   4.673   3.371 -0.7627 -0.2381 -0.1687
17579SOL    HW255117  10.625   4.730   3.481 -1.0602 -1.0389  0.0204
17580SOL     OW55118   3.323   6.416   7.459  0.1633 -0.2664 -0.4128
17580SOL    HW155119   3.413   6.384   7.462  0.1365 -0.2555  2.1327
17580SOL    HW255120   3.272   6.348   7.502 -0.6372  0.8716  0.4841
17581SOL     OW55121   8.094   6.373   9.050  0.3514  0.3488 -0.8111
17581SOL    HW155122   8.096   6.468   9.036  0.5011  0.3474 -0.8043
17581SOL    HW255123   8.011   6.356   9.093  0.3970  0.4972 -0.6664
17582SOL     OW55124   6.694   1.103   1.475 -0.1081  0.3796 -0.5255
17582SOL    HW155125   6.780   1.073   1.445 -0.2682 -0.9859  0.2635
17582SOL    HW255126   6.701   1.198   1.479  1.7008  0.2503  0.4536
17583SOL     OW55127   6.051   1.553   8.953 -0.0556 -0.0675 -0.4099
17583SOL    HW155128   6.138   1.566   8.914 -0.0299  1.1444  0.0163
17583SOL    HW255129   5.993   1.608   8.901 -0.3544  0.0947  0.0946
17584SOL     OW55130   2.455   4.221   0.302  0.3071  0.7747 -0.1452
17584SOL    HW155131   2.421   4.299   0.346  1.0710  0.9845  0.0918
17584SOL    HW255132   2.457   4.154   0.370  0.7260  0.8715 -0.0606
17585SOL     OW55133   9.303   6.174   3.828  0.2927 -0.6612  0.0423
17585SOL    HW155134   9.239   6.107   3.853  0.8423 -1.0208  0.5109
17585SOL    HW255135   9.319   6.223   3.909 -0.6481  0.5210 -0.4543
17586SOL     OW55136   5.777   2.419   7.358 -0.4186  0.4579 -0.7776
17586SOL    HW155137   5.745   2.341   7.402 -0.7154 -1.5677 -4.2324
17586SOL    HW255138   5.858   2.441   7.405 -1.5371 -0.4299  1.7454
17587SOL     OW55139   9.821   0.761   8.613  0.0406  0.5098  0.5038
17587SOL    HW155140   9.854   0.829   8.555 -2.6830  1.1417 -0.4401
17587SOL    HW255141   9.749   0.803   8.661  0.6692 -0.6810  2.6465
17588SOL     OW55142   2.524  10.172   7.274 -0.1547 -0.4640  0.0060
17588SOL    HW155143   2.601  10.218   7.308  0.1979 -0.4601 -0.7707
17588SOL    HW255144   2.450  10.228   7.299  0.0890 -0.4310  0.6955
17589SOL     OW55145   8.928   2.399   6.792 -0.1729  0.4201  0.5462
17589SOL    HW155146   8.977   2.341   6.850 -0.2382  0.4746  0.6573
17589SOL    HW255147   8.837   2.393   6.823 -0.4270 -0.4964 -0.3124
17590SOL     OW55148   1.513   1.901  10.175  0.6122  0.1056 -0.4228
17590SOL    HW155149   1.430   1.948  10.163 -0.6021 -1.4680  1.1731
17590SOL    HW255150   1.506   1.827  10.116 -0.1905 -1.2470  1.2604
17591SOL     OW55151   6.232   3.066   3.370 -0.0828  0.6991 -0.1886
17591SOL    HW155152   6.201   2.999   3.309 -1.2775  2.5564 -1.7412
17591SOL    HW255153   6.169   3.065   3.441  0.6840 -0.7099  0.5184
17592SOL     OW55154   6.757   6.995   2.455  0.0485  0.2082 -0.3995
17592SOL    HW155155   6.783   7.034   2.539  0.1176  1.0135 -0.7878
17592SOL    HW255156   6.779   6.902   2.464  0.0297  0.2845  0.4837
17593SOL     OW55157   2.742   4.964   9.776 -0.1808  0.2169 -0.0829
17593SOL    HW155158   2.737   5.049   9.821 -1.9686 -0.3842  0.9263
17593SOL    HW255159   2.797   4.911   9.834  0.3740  0.4666 -0.3715
17594SOL     OW55160   2.470   3.674   3.824  0.8249  0.0499  0.3751
17594SOL    HW155161   2.394   3.664   3.767  0.1681  0.1648  1.1966
17594SOL    HW255162   2.545   3.657   3.768  0.1791 -0.3201 -0.4021
17595SOL     OW55163   6.975   0.229   1.023 -0.7261  0.2871  0.4169
17595SOL    HW155164   7.053   0.221   1.079 -1.1166 -0.9187  0.8354
17595SOL    HW255165   6.950   0.321   1.031  2.1854  1.4498 -1.8940
17596SOL     OW55166   3.474   9.132   8.161  0.5960 -0.0622 -0.1944
17596SOL    HW155167   3.561   9.153   8.193  0.5507 -0.6096  0.3067
17596SOL    HW255168   3.420   9.207   8.185  0.5089 -0.5493  1.2555
17597SOL     OW55169   2.996   0.617   7.849 -0.0073 -0.0845 -0.5460
17597SOL    HW155170   3.024   0.571   7.770  0.6173 -1.7089  0.5449
17597SOL    HW255171   3.078   0.645   7.891 -0.1317 -1.5532  0.7880
17598SOL     OW55172   5.631   5.582   7.347 -0.0687 -0.1352 -0.6074
17598SOL    HW155173   5.564   5.525   7.385  0.8330 -0.0487  1.2145
17598SOL    HW255174   5.598   5.670   7.362  0.3841 -0.0947  0.2303
17599SOL     OW55175   5.826   8.703   3.285  0.1782  0.0581 -0.2610
17599SOL    HW155176   5.783   8.730   3.203 -1.2084 -3.3054 -0.8102
17599SOL    HW255177   5.786   8.758   3.352  0.7250  2.3082 -1.6710
17600SOL     OW55178   5.995   2.708   6.270  0.9686 -0.4086 -0.0381
17600SOL    HW155179   6.037   2.660   6.199  0.9393 -1.0324  0.3639
17600SOL    HW255180   5.951   2.641   6.322  3.9144 -0.4876  2.6152
17601SOL     OW55181   1.400  10.749   5.038 -0.2841  0.5688 -0.1050
17601SOL    HW155182   1.495  10.752   5.037 -0.2243  1.2786  1.9164
17601SOL    HW255183   1.373  10.838   5.015 -0.4094  0.6989  0.5284
17602SOL     OW55184   8.888   3.860   6.414  0.2865 -0.0080 -0.6449
17602SOL    HW155185   8.894   3.828   6.504 -0.6837 -0.9486 -0.8946
17602SOL    HW255186   8.795   3.866   6.396  0.4571  1.4317 -1.1784
17603SOL     OW55187   4.207  10.764   3.335 -0.0533 -0.4791 -0.0776
17603SOL    HW155188   4.113  10.747   3.340  0.0803 -0.9861  0.8660
17603SOL    HW255189   4.248  10.682   3.362  0.6382  0.3526  1.5657
17604SOL     OW55190   1.630   8.216   0.069 -0.3036 -0.3316  0.6977
17604SOL    HW155191   1.666   8.278   0.006 -0.0103  0.1626  1.3505
17604SOL    HW255192   1.565   8.266   0.118  0.3833 -0.3590  1.6531
17605SOL     OW55193   7.172   8.187   0.079 -0.0281 -0.0542  0.9352
17605SOL    HW155194   7.188   8.189   0.173  0.7293  1.6119  0.8062
17605SOL    HW255195   7.126   8.104   0.064  1.6756 -1.3606  2.4675
17606SOL     OW55196   0.459   0.494   9.610  0.3094 -0.5264  0.0368
17606SOL    HW155197   0.459   0.457   9.698 -2.3035  2.1549  1.3375
17606SOL    HW255198   0.366   0.493   9.584  1.0254 -1.3782 -2.8225
17607SOL     OW55199   9.335   4.889   6.186 -0.0061  0.3054  0.1418
17607SOL    HW155200   9.351   4.817   6.125  2.5657  1.2075 -0.4149
17607SOL    HW255201   9.262   4.938   6.147  0.6722  0.0751 -1.5001
17608SOL     OW55202   7.418   9.539   0.093 -0.7985  0.3770  0.0570
17608SOL    HW155203   7.470   9.515   0.017  0.4812  1.9541  0.3718
17608SOL    HW255204   7.396   9.631   0.078  0.0566  0.9121  1.8806
17609SOL     OW55205   6.986   3.145   2.233  0.6051 -0.0897  0.3066
17609SOL    HW155206   7.068   3.193   2.250 -1.1560  2.6822  1.8650
17609SOL    HW255207   6.949   3.189   2.156 -0.4904  0.3376  1.0501
17610SOL     OW55208  10.790   1.285   5.906  0.2197 -0.3549  0.3414
17610SOL    HW155209  10.796   1.348   5.978 -1.6235  0.6437 -0.3174
17610SOL    HW255210  10.881   1.270   5.880  0.8211  0.4404  1.8565
17611SOL     OW55211   3.945   5.729   2.860 -0.4126  0.3273  0.3211
17611SOL    HW155212   4.020   5.788   2.860  0.5753 -0.9080  0.3244
17611SOL    HW255213   3.950   5.682   2.943  1.3480 -2.8446 -1.3947
17612SOL     OW55214   6.675   5.684   1.898  0.5578 -0.0417 -0.1513
17612SOL    HW155215   6.661   5.608   1.953 -0.0423 -0.1861 -0.4872
17612SOL    HW255216   6.769   5.684   1.879  0.6129 -0.5092  0.1188
17613SOL     OW55217   3.426   4.654   3.111 -0.2493 -0.3527 -0.0358
17613SOL    HW155218   3.507   4.701   3.131 -0.4336 -0.1094  0.1486
17613SOL    HW255219   3.394   4.625   3.196 -1.2922  1.1092  0.0997
17614SOL     OW55220   3.606   9.308   5.187  0.5170 -0.3096  0.0535
17614SOL    HW155221   3.555   9.244   5.138 -1.7210  0.3943  1.2971
17614SOL    HW255222   3.677   9.333   5.128 -1.6057 -0.0225 -2.5327
17615SOL     OW55223   0.441   3.037   8.259 -0.3128  0.2839 -0.6639
17615SOL    HW155224   0.455   3.071   8.171  0.8442  0.3301 -0.4705
17615SOL    HW255225   0.430   3.115   8.313 -2.4366  0.2463 -0.9587
17616SOL     OW55226   4.515   1.568   7.413 -0.3308  0.2992 -0.2519
17616SOL    HW155227   4.441   1.508   7.404 -0.9340  1.1680 -1.4269
17616SOL    HW255228   4.527   1.579   7.507 -2.3294  0.8860 -0.0251
17617SOL     OW55229   8.571   3.334   7.416  0.0456 -0.3792 -0.3364
17617SOL    HW155230   8.651   3.385   7.406 -0.0430 -0.3666 -1.0188
17617SOL    HW255231   8.566   3.316   7.510  0.2643  0.5599 -0.1324
17618SOL     OW55232   9.288   1.506   7.176  0.7232  0.4225  0.4792
17618SOL    HW155233   9.378   1.539   7.179  0.5633  1.4250 -2.5023
17618SOL    HW255234   9.285   1.454   7.096 -0.9578 -0.9511  1.3915
17619SOL     OW55235   8.665   7.427   6.310  0.0930 -0.3101  0.8126
17619SOL    HW155236   8.744   7.450   6.360  0.4360 -0.4773  0.3540
17619SOL    HW255237   8.697   7.374   6.237 -0.4998 -0.7556  0.8738
17620SOL     OW55238   9.163   9.354   9.795 -0.1477 -0.1497 -0.1739
17620SOL    HW155239   9.235   9.379   9.737  0.6325 -0.0162  0.8296
17620SOL    HW255240   9.173   9.260   9.808  0.3422 -0.0006  0.6033
17621SOL     OW55241   3.296   9.445   5.479  0.5150 -0.5700 -0.3300
17621SOL    HW155242   3.314   9.532   5.515  0.1486 -0.2852 -0.8316
17621SOL    HW255243   3.335   9.447   5.392 -2.8068  0.4809 -1.9541
17622SOL     OW55244   9.422   3.906   7.002 -0.0850 -0.3232 -0.0124
17622SOL    HW155245   9.442   3.830   6.947  0.0954 -1.0130  0.9779
17622SOL    HW255246   9.500   3.960   6.997 -0.0246 -0.4353 -0.3318
17623SOL     OW55247   9.922   5.704  10.532  0.2453  0.2363 -0.0111
17623SOL    HW155248   9.969   5.636  10.484 -0.7697 -0.5074  0.0091
17623SOL    HW255249   9.830   5.690  10.509 -0.1099  0.7996  0.9973
17624SOL     OW55250   9.642   4.730   4.296  0.3464  0.2606  0.2597
17624SOL    HW155251   9.706   4.710   4.228 -0.1184 -1.1947  0.2144
17624SOL    HW255252   9.655   4.661   4.362 -0.1583  0.8351  0.9789
17625SOL     OW55253   4.965  10.639   5.870 -0.1115  0.0026 -0.2395
17625SOL    HW155254   4.947  10.555   5.913  0.7776  0.6211  1.4274
17625SOL    HW255255   5.056  10.659   5.893 -0.4070  1.5748 -0.3315
17626SOL     OW55256   9.166   7.053   3.592 -0.0688 -0.5177  0.1896
17626SOL    HW155257   9.122   7.136   3.609 -0.0383 -0.5299  0.3340
17626SOL    HW255258   9.100   7.000   3.548 -0.2769 -0.6114  0.6014
17627SOL     OW55259   5.932   2.065   3.264 -0.0223  0.0870 -0.1888
17627SOL    HW155260   5.880   2.078   3.344 -0.5880  0.8449 -0.6577
17627SOL    HW255261   5.948   2.154   3.232 -0.7744 -0.2356 -1.5170
17628SOL     OW55262   5.880   6.943   6.343 -0.5502  0.0828  0.5058
17628SOL    HW155263   5.833   6.886   6.283 -1.0875 -1.0438  1.9243
17628SOL    HW255264   5.824   6.948   6.420 -0.4253  2.4065  0.5216
17629SOL     OW55265   7.585   1.430   8.213  0.2554  0.4512  0.1856
17629SOL    HW155266   7.669   1.391   8.188  0.6753  1.7056 -0.4145
17629SOL    HW255267   7.570   1.398   8.303 -0.5133 -2.8459 -0.9624
17630SOL     OW55268   0.565   6.777   9.770  0.3063 -0.0072 -0.2855
17630SOL    HW155269   0.573   6.682   9.769 -1.9762 -0.2526 -0.2419
17630SOL    HW255270   0.540   6.798   9.860 -0.9445  0.4259 -0.7147
17631SOL     OW55271   9.641   6.740   3.029 -0.2606 -0.2862 -0.1589
17631SOL    HW155272   9.611   6.731   2.939  0.4064 -0.7577 -0.3462
17631SOL    HW255273   9.632   6.833   3.048  0.6026  0.0069 -1.0876
17632SOL     OW55274   5.531   7.980   1.034  0.2231  0.6411  0.1633
17632SOL    HW155275   5.463   7.983   0.967  1.1023  0.9890 -0.7352
17632SOL    HW255276   5.484   7.990   1.117 -0.9387 -0.3457 -0.3522
17633SOL     OW55277   6.636   1.070   2.355 -0.2242  0.0717 -0.2844
17633SOL    HW155278   6.618   0.986   2.313 -1.1996  0.4029 -0.5647
17633SOL    HW255279   6.677   1.047   2.438 -1.5169 -0.7589  0.1636
17634SOL     OW55280   5.086   6.614   7.534 -0.4130 -0.0630  0.8263
17634SOL    HW155281   5.021   6.549   7.560 -1.1216 -0.5521 -1.8440
17634SOL    HW255282   5.150   6.564   7.483 -0.5072  1.1691 -0.5609
17635SOL     OW55283   6.923   9.710  10.311 -0.2587  0.6706  0.0496
17635SOL    HW155284   6.872   9.780  10.351  0.8356  0.3726  2.0857
17635SOL    HW255285   6.869   9.632  10.322  0.1054  0.5585  1.1707
17636SOL     OW55286  10.492   6.783   7.312 -0.6033  0.3710 -0.5773
17636SOL    HW155287  10.419   6.835   7.279 -0.9084 -0.3878 -1.1218
17636SOL    HW255288  10.564   6.800   7.252  0.2986  2.5871  1.0035
17637SOL     OW55289   9.802   1.245   7.568 -0.1778  0.1407 -0.8147
17637SOL    HW155290   9.805   1.193   7.488 -2.9084  1.1291 -1.6713
17637SOL    HW255291   9.740   1.199   7.625  0.6399  0.2236  0.1850
17638SOL     OW55292   5.321   5.109   7.013 -0.9422  0.1194  0.0644
17638SOL    HW155293   5.347   5.042   6.950 -3.8406 -1.8590  0.7829
17638SOL    HW255294   5.400   5.127   7.063  0.4272 -1.2191 -1.4968
17639SOL     OW55295   8.240   2.203   3.832  0.2667 -0.2365 -0.0423
17639SOL    HW155296   8.238   2.109   3.814 -0.2279 -0.1399 -0.4979
17639SOL    HW255297   8.293   2.211   3.912  1.1424 -0.8135 -0.5451
17640SOL     OW55298   9.702   7.859   8.193 -0.0104  0.2952 -0.5700
17640SOL    HW155299   9.750   7.941   8.195  0.5502 -0.0310 -0.6509
17640SOL    HW255300   9.612   7.884   8.173  0.1746  0.8800 -0.6665
17641SOL     OW55301   8.514   8.553   1.268 -0.3679 -0.5791 -0.3845
17641SOL    HW155302   8.457   8.526   1.196  1.2950 -2.0754 -1.2409
17641SOL    HW255303   8.456   8.560   1.344 -1.8538 -0.9180 -1.4400
17642SOL     OW55304  10.379   1.617   0.314 -0.5877  0.0709 -0.0814
17642SOL    HW155305  10.361   1.699   0.360 -1.2779  0.0890 -0.3775
17642SOL    HW255306  10.432   1.567   0.376  2.3387  1.8374 -0.9615
17643SOL     OW55307   3.726   9.402   3.758 -0.2574  0.2325 -0.0546
17643SOL    HW155308   3.634   9.380   3.773 -0.4211  1.0591  0.2005
17643SOL    HW255309   3.735   9.399   3.662 -1.2245  2.6170 -0.2983
17644SOL     OW55310   0.249   4.600   4.345 -0.1649  0.7234  0.2683
17644SOL    HW155311   0.310   4.657   4.299 -1.9575  2.4341 -0.1005
17644SOL    HW255312   0.244   4.637   4.433 -0.4849  0.4467  0.3678
17645SOL     OW55313   6.524   1.634  10.286  0.0553  0.4078  0.7204
17645SOL    HW155314   6.619   1.626  10.297  0.2635  0.2607 -0.9004
17645SOL    HW255315   6.510   1.725  10.261 -0.0901  0.1455 -0.1836
17646SOL     OW55316   4.478   9.248  10.379  0.5435 -0.2938 -0.1423
17646SOL    HW155317   4.483   9.341  10.401 -0.2051 -0.2454 -0.1676
17646SOL    HW255318   4.439   9.207  10.456  0.1337 -0.4738 -0.4428
17647SOL     OW55319   0.537   2.978   9.717 -0.4560  0.1536 -0.2562
17647SOL    HW155320   0.530   2.969   9.622  1.9043  0.1269 -0.4917
17647SOL    HW255321   0.485   2.906   9.752 -0.6616 -0.3601 -1.5574
17648SOL     OW55322   7.523   0.824   1.659  0.3833  0.0938  0.6724
17648SOL    HW155323   7.433   0.850   1.639  0.5989 -0.6738 -1.5254
17648SOL    HW255324   7.515   0.768   1.736 -0.8986  0.7814  1.0765
17649SOL     OW55325   8.602   0.675   9.990 -0.3493 -0.0783  0.3056
17649SOL    HW155326   8.584   0.582   9.975  1.7785 -0.5221  0.1522
17649SOL    HW255327   8.641   0.678  10.077  0.5431  0.4967 -0.0923
17650SOL     OW55328   3.515   4.489   9.014 -0.0938  0.0989 -0.2363
17650SOL    HW155329   3.547   4.416   9.067 -2.7027 -1.2396 -0.3568
17650SOL    HW255330   3.542   4.468   8.925  0.8925  0.3413 -0.0059
17651SOL     OW55331   7.914   3.672   9.240 -0.1143  0.2775 -0.0909
17651SOL    HW155332   7.869   3.740   9.290 -0.4427 -0.5736  0.8103
17651SOL    HW255333   7.937   3.714   9.157 -2.5408  0.7759 -0.5948
17652SOL     OW55334   3.575   2.002   9.088 -0.0283 -0.1986  0.4235
17652SOL    HW155335   3.557   1.928   9.030 -0.0844  0.6484 -0.6778
17652SOL    HW255336   3.501   2.005   9.149 -0.2703 -0.7443  0.1545
17653SOL     OW55337   7.247   0.144   3.632  0.7851 -0.0673  0.0155
17653SOL    HW155338   7.215   0.110   3.548  0.4002  2.2857 -0.8620
17653SOL    HW255339   7.171   0.139   3.690  0.7721 -0.7874 -0.0551
17654SOL     OW55340   6.807   8.884   1.878  0.5867  0.0917  0.1359
17654SOL    HW155341   6.847   8.825   1.942 -0.1093 -0.4162  0.1133
17654SOL    HW255342   6.716   8.892   1.905  0.6224  1.0065  0.0207
17655SOL     OW55343   0.209   6.336   4.254 -0.1464  0.0457  0.7051
17655SOL    HW155344   0.205   6.300   4.343  0.5701  0.6566  0.9961
17655SOL    HW255345   0.302   6.352   4.239 -0.2372 -0.3094 -0.2661
17656SOL     OW55346   9.272   4.573   3.263 -0.5787  0.6703 -0.4793
17656SOL    HW155347   9.207   4.522   3.214  0.2890  0.0192 -0.9724
17656SOL    HW255348   9.338   4.596   3.199  1.1248 -1.0853  0.5398
17657SOL     OW55349   1.464   8.608   4.314 -0.3617  0.4794 -0.2954
17657SOL    HW155350   1.449   8.670   4.243  0.0146 -1.2638 -1.9661
17657SOL    HW255351   1.558   8.589   4.310 -0.2616  0.6434  0.9268
17658SOL     OW55352   1.790   0.735   3.286 -0.0936 -0.0463 -0.5143
17658SOL    HW155353   1.754   0.810   3.240  0.4940 -0.1259 -1.1172
17658SOL    HW255354   1.881   0.760   3.305 -0.5196  0.3134  1.3150
17659SOL     OW55355   4.145   6.659   3.812  0.6322  0.4023 -0.8041
17659SOL    HW155356   4.053   6.640   3.791  0.8331 -0.1737 -1.1633
17659SOL    HW255357   4.173   6.720   3.744  1.4478 -1.8872 -2.6365
17660SOL     OW55358  10.118  10.590   7.321  0.5117  0.0893  0.3778
17660SOL    HW155359  10.066  10.637   7.386 -3.4147  1.0531 -3.0359
17660SOL    HW255360  10.169  10.659   7.278 -2.2202  0.8157 -1.9748
17661SOL     OW55361   1.558   1.917   9.008  0.4326  0.0587  0.4089
17661SOL    HW155362   1.646   1.942   8.979  0.1310 -0.7067 -1.3504
17661SOL    HW255363   1.511   1.898   8.926 -0.4601 -2.5153  1.4003
17662SOL     OW55364   4.864   2.807   0.920 -0.5033  0.4224  0.2691
17662SOL    HW155365   4.931   2.850   0.973 -0.6009  0.2093  0.5704
17662SOL    HW255366   4.826   2.741   0.978 -0.9321  0.5002  0.0829
17663SOL     OW55367   3.007   5.506   0.933  0.4924  0.8014 -0.3259
17663SOL    HW155368   3.095   5.470   0.936 -0.2577 -1.0935  1.3009
17663SOL    HW255369   3.010   5.583   0.991  0.9057  0.3232  0.2929
17664SOL     OW55370   0.572   1.889   9.967  0.0690 -0.5793  0.3434
17664SOL    HW155371   0.586   1.838  10.047  0.2752  0.3204  0.8901
17664SOL    HW255372   0.510   1.837   9.916  1.1447 -1.9418  0.3629
17665SOL     OW55373   5.940   1.411   5.926 -0.2238 -0.2006 -0.0724
17665SOL    HW155374   5.926   1.334   5.980 -0.7502 -0.6850 -0.8841
17665SOL    HW255375   6.035   1.418   5.917 -0.1326 -0.0887  0.9346
17666SOL     OW55376   6.472   0.791   1.851  0.1036  0.1390  0.1793
17666SOL    HW155377   6.377   0.798   1.842 -0.0622 -0.7490  1.0798
17666SOL    HW255378   6.488   0.699   1.871  1.0404  0.5165  1.2709
17667SOL     OW55379   3.561   2.735   4.906  0.0420 -0.3967  0.0402
17667SOL    HW155380   3.638   2.777   4.867 -3.1916  4.7786 -1.7624
17667SOL    HW255381   3.522   2.684   4.835 -0.1222 -0.0147 -0.1417
17668SOL     OW55382   6.673   7.156   8.238  0.6611 -0.3172  0.0506
17668SOL    HW155383   6.672   7.107   8.319  0.5222 -0.1336  0.1619
17668SOL    HW255384   6.710   7.241   8.262 -1.6448  0.6622  0.4741
17669SOL     OW55385   3.439   6.338   0.031 -0.1996 -0.0991 -0.8810
17669SOL    HW155386   3.487   6.284  -0.031 -2.6790 -2.2656 -1.1002
17669SOL    HW255387   3.482   6.322   0.115  0.7354 -0.3264 -1.3943
17670SOL     OW55388   3.474   2.605  10.393 -0.1861  0.8842  0.1871
17670SOL    HW155389   3.464   2.534  10.457 -2.8708  1.3887  0.4316
17670SOL    HW255390   3.493   2.682  10.447 -0.1508  0.8885  0.1689
17671SOL     OW55391  10.266   2.862   7.994  0.6158 -0.6042  0.3245
17671SOL    HW155392  10.312   2.859   8.078 -0.0465 -0.5006  0.7012
17671SOL    HW255393  10.326   2.823   7.932  1.9326  1.0666  0.4633
17672SOL     OW55394   1.069   5.984   8.176 -0.2735  0.5906  0.0285
17672SOL    HW155395   1.032   5.897   8.161  0.5003  0.6968 -3.1292
17672SOL    HW255396   1.162   5.975   8.153  0.0520  2.0564  0.6325
17673SOL     OW55397   2.843   7.335   9.462  0.6041  0.1203 -0.4287
17673SOL    HW155398   2.835   7.382   9.545  0.6896  0.8828 -0.8320
17673SOL    HW255399   2.888   7.397   9.404 -2.3929  0.9781 -2.0619
17674SOL     OW55400   4.060   6.460   7.109 -0.3889  0.0700  0.0829
17674SOL    HW155401   4.142   6.502   7.138  0.3201 -0.0283 -1.6619
17674SOL    HW255402   4.086   6.371   7.085 -0.7858  0.3513 -1.4686
17675SOL     OW55403   1.391   6.390   6.274 -0.4289  0.7002  0.3836
17675SOL    HW155404   1.391   6.446   6.351  0.0333  0.2604  0.7074
17675SOL    HW255405   1.477   6.403   6.235  0.9190 -2.0207  2.1383
17676SOL     OW55406   3.366   5.934   1.366  0.3568 -0.3316  0.5136
17676SOL    HW155407   3.276   5.905   1.380  0.1928  0.1611  0.4677
17676SOL    HW255408   3.393   5.891   1.285 -0.3946  0.8172 -0.3662
17677SOL     OW55409   4.191   1.719   5.976 -0.1327 -0.0643 -0.0375
17677SOL    HW155410   4.188   1.739   6.070 -0.7756  0.7584 -0.2272
17677SOL    HW255411   4.149   1.794   5.934 -0.6292 -0.8310 -0.9287
17678SOL     OW55412   0.431   3.128   3.327 -0.1219 -0.5034 -0.0732
17678SOL    HW155413   0.415   3.066   3.255  1.0658 -1.0212  0.0865
17678SOL    HW255414   0.417   3.076   3.406 -0.4956 -0.1833  0.0744
17679SOL     OW55415   5.157   5.717   0.864  0.0954 -0.7540 -0.1143
17679SOL    HW155416   5.252   5.726   0.861  0.0211 -0.0921 -1.3947
17679SOL    HW255417   5.127   5.794   0.912  0.1047  0.2019 -1.5819
17680SOL     OW55418   3.297   4.654   4.110  0.1389 -0.3277  0.2356
17680SOL    HW155419   3.379   4.623   4.071  0.0477  1.1871 -1.3246
17680SOL    HW255420   3.289   4.744   4.078 -0.5992  0.6137  2.8601
17681SOL     OW55421   2.973   0.891   6.546 -0.0547  0.0727 -0.1258
17681SOL    HW155422   3.007   0.922   6.462 -0.4689  0.0641 -0.2976
17681SOL    HW255423   2.958   0.797   6.533  1.2105 -0.2180  0.3968
17682SOL     OW55424   7.627   4.104   1.001  0.1228 -0.0191 -0.3548
17682SOL    HW155425   7.710   4.151   1.009 -0.5361  1.3711 -1.2814
17682SOL    HW255426   7.580   4.150   0.932 -1.1479 -1.2130 -0.3359
17683SOL     OW55427   6.704   0.690   3.549 -0.2896 -0.0507  0.2959
17683SOL    HW155428   6.694   0.726   3.637 -0.3129 -0.6760  0.5465
17683SOL    HW255429   6.614   0.671   3.521 -0.2309 -0.5189  0.4173
17684SOL     OW55430   5.252   8.382   4.931  0.7020  0.7152  0.5352
17684SOL    HW155431   5.204   8.465   4.932 -1.2309 -0.3200 -0.1735
17684SOL    HW255432   5.344   8.407   4.940  0.4112  3.1188 -1.9181
17685SOL     OW55433   1.095   2.140   3.983 -0.0090  0.2704 -0.2101
17685SOL    HW155434   1.099   2.108   4.073 -1.6475 -0.9664 -0.5364
17685SOL    HW255435   1.159   2.211   3.980  2.2786 -1.5973  1.1118
17686SOL     OW55436   0.068  10.726   1.414 -0.0981 -0.0514  0.4747
17686SOL    HW155437   0.083  10.794   1.348 -0.5625  0.2859  0.7080
17686SOL    HW255438  -0.007  10.677   1.381 -0.2497  0.0373  0.6861
17687SOL     OW55439   4.200   0.267   8.139  0.9821  0.3350  0.3022
17687SOL    HW155440   4.285   0.224   8.132  1.3445  0.7484  1.8047
17687SOL    HW255441   4.206   0.317   8.220 -1.0187 -0.3367  0.9046
17688SOL     OW55442   3.755   8.777   5.525  0.3123  0.2327 -0.1752
17688SOL    HW155443   3.833   8.797   5.472  0.4560 -1.1257 -0.5122
17688SOL    HW255444   3.761   8.683   5.542 -0.5676  0.3576  0.9379
17689SOL     OW55445   1.648   7.941   8.713  0.6445 -0.0880 -0.1487
17689SOL    HW155446   1.718   7.968   8.653  1.6149 -0.4911  0.7659
17689SOL    HW255447   1.663   7.993   8.792  0.4047 -0.7705  0.3540
17690SOL     OW55448   6.095   2.069   5.221  0.0162 -0.0060  0.0896
17690SOL    HW155449   6.144   2.073   5.138 -0.7309 -0.5308 -0.3901
17690SOL    HW255450   6.065   1.978   5.226 -0.5169  0.1979  0.6128
17691SOL     OW55451   4.389   4.404  10.693 -0.2744 -0.4116 -0.1740
17691SOL    HW155452   4.483   4.386  10.694 -0.4785 -1.6542 -0.5234
17691SOL    HW255453   4.376   4.469  10.761  0.6796 -1.1175  0.7197
17692SOL     OW55454   7.989   9.077   2.830 -0.8755 -0.3020 -0.0066
17692SOL    HW155455   7.985   9.040   2.918 -2.2754 -0.9312 -0.3008
17692SOL    HW255456   8.044   9.155   2.839 -1.7986  0.2048  1.6179
17693SOL     OW55457   6.823   7.610   7.619 -0.1082 -0.3301 -0.2951
17693SOL    HW155458   6.740   7.567   7.638 -0.0061 -0.6913 -0.6409
17693SOL    HW255459   6.803   7.673   7.550 -0.1516 -0.2005 -0.1656
17694SOL     OW55460   9.363   7.106   9.437 -0.0428 -0.2670  0.2851
17694SOL    HW155461   9.411   7.054   9.374 -1.4827  0.2261 -1.2873
17694SOL    HW255462   9.280   7.060   9.449 -0.6342  0.7348  0.2042
17695SOL     OW55463   7.431   2.900   7.159 -0.2220 -0.4843  0.7403
17695SOL    HW155464   7.481   2.881   7.079 -1.4441 -2.3749  0.3393
17695SOL    HW255465   7.457   2.830   7.220 -0.4757  0.0181  1.4328
17696SOL     OW55466   9.817   2.449   1.505  0.0012  0.2805 -0.5845
17696SOL    HW155467   9.813   2.543   1.521  0.0564  0.0712  0.7787
17696SOL    HW255468   9.909   2.426   1.517  0.1037  0.1425 -1.5555
17697SOL     OW55469   3.384   8.301   1.857 -0.0092 -0.5251  0.0436
17697SOL    HW155470   3.388   8.208   1.881 -0.4855 -0.9322 -1.3369
17697SOL    HW255471   3.441   8.308   1.781  0.4602  0.4453  0.4758
17698SOL     OW55472   5.025   7.280   0.532  0.2582 -0.3866  0.4916
17698SOL    HW155473   5.080   7.241   0.600  1.0501 -0.1149  0.0213
17698SOL    HW255474   5.005   7.208   0.473  0.9999 -0.2858  0.0964
17699SOL     OW55475   1.115   5.292   1.258  0.0031 -0.4632  0.0584
17699SOL    HW155476   1.062   5.362   1.221  0.5881  0.6122  1.1991
17699SOL    HW255477   1.118   5.225   1.189 -0.7737  0.5102 -0.9498
17700SOL     OW55478   2.569   2.553   1.011  0.3897 -0.2098 -0.1473
17700SOL    HW155479   2.577   2.551   0.915 -1.9544  0.6425 -0.4464
17700SOL    HW255480   2.654   2.582   1.042  0.6936  1.1771 -2.1088
17701SOL     OW55481   8.332   2.631   7.915 -0.0705 -0.5147 -0.2411
17701SOL    HW155482   8.354   2.724   7.902 -0.6311 -0.4190 -0.5334
17701SOL    HW255483   8.236   2.629   7.916 -0.1022 -1.2945 -1.8325
17702SOL     OW55484   2.551   5.228  10.515 -0.0895 -0.0659 -0.0714
17702SOL    HW155485   2.535   5.283  10.439 -1.5494 -0.4386 -0.0557
17702SOL    HW255486   2.464   5.204  10.546  0.5075 -1.0852  0.8686
17703SOL     OW55487   3.594   5.647   8.745  0.2956 -0.5287 -0.3672
17703SOL    HW155488   3.668   5.589   8.725  0.9653  0.1574  0.0510
17703SOL    HW255489   3.554   5.608   8.823  1.0147 -0.2103  0.1832
17704SOL     OW55490   4.689   7.783   9.236 -0.7578 -0.2964 -0.1729
17704SOL    HW155491   4.655   7.848   9.297 -2.9678 -0.4995 -1.0662
17704SOL    HW255492   4.782   7.804   9.226 -1.3592  2.6780 -0.3521
17705SOL     OW55493   1.605   8.620   4.997  0.1070 -0.4323 -0.1841
17705SOL    HW155494   1.566   8.687   4.941 -0.0022 -1.0056 -0.7969
17705SOL    HW255495   1.546   8.615   5.072  0.1014  0.1343 -0.1416
17706SOL     OW55496   4.767   1.699   4.753 -0.2606  0.1140 -0.3291
17706SOL    HW155497   4.815   1.697   4.835 -1.1801 -0.1343  0.2206
17706SOL    HW255498   4.815   1.761   4.698  1.8130 -1.5952 -0.5362
17707SOL     OW55499   5.570   5.963   8.627  0.1680  0.3538  0.1044
17707SOL    HW155500   5.531   5.999   8.706  0.7595 -0.0633  0.6006
17707SOL    HW255501   5.498   5.920   8.581 -0.1779  0.6037  0.4180
17708SOL     OW55502   8.227   8.360   1.823 -0.5610  0.3404 -0.6788
17708SOL    HW155503   8.304   8.354   1.767 -0.4647  2.2887 -0.8125
17708SOL    HW255504   8.255   8.411   1.899 -0.8949 -1.6401  0.8484
17709SOL     OW55505   0.529   9.735   0.102  0.0349  0.0572 -0.1989
17709SOL    HW155506   0.517   9.699   0.015 -0.7912  1.7258 -0.8248
17709SOL    HW255507   0.622   9.758   0.106  0.4202 -1.4222 -0.0303
17710SOL     OW55508   3.429   1.445   3.041 -0.2356 -1.3679 -0.4244
17710SOL    HW155509   3.435   1.508   3.113  0.7913 -2.1470  0.1913
17710SOL    HW255510   3.460   1.494   2.964 -3.8485  0.3235 -0.9806
17711SOL     OW55511   9.098   0.500   0.634  0.0710  0.2341  0.2400
17711SOL    HW155512   9.101   0.545   0.718  0.4784 -1.7329  1.3463
17711SOL    HW255513   9.062   0.565   0.573  0.0192  1.7985  1.8543
17712SOL     OW55514   2.436   0.144   1.406 -0.2961 -0.1562 -0.2437
17712SOL    HW155515   2.383   0.146   1.326 -0.8116 -0.0831  0.0935
17712SOL    HW255516   2.409   0.222   1.455 -0.4228 -0.5245  0.2772
17713SOL     OW55517   2.621   2.547   0.757  0.2188  0.1352  0.1290
17713SOL    HW155518   2.666   2.467   0.729 -1.0460  0.0017 -1.6901
17713SOL    HW255519   2.609   2.597   0.676 -1.0294  1.1133  0.8883
17714SOL     OW55520   3.919   7.650   1.356 -0.1143 -0.5258 -0.1488
17714SOL    HW155521   3.837   7.623   1.317  0.2495  1.3287 -2.4649
17714SOL    HW255522   3.980   7.657   1.282  1.3640  0.6981  1.0929
17715SOL     OW55523   8.404   7.598   8.796 -0.5828 -0.2660 -0.0190
17715SOL    HW155524   8.360   7.513   8.787 -3.5729  1.0433  0.7969
17715SOL    HW255525   8.443   7.615   8.710 -1.8038 -1.5294 -0.8563
17716SOL     OW55526   8.185   3.970   1.927  0.2910 -0.2782  0.4793
17716SOL    HW155527   8.103   3.941   1.887 -0.5229  1.3349  0.9146
17716SOL    HW255528   8.248   3.972   1.855 -0.7007  0.8720 -0.3871
17717SOL     OW55529  10.670   9.552  10.263  0.0344  0.2459 -0.2140
17717SOL    HW155530  10.697   9.601  10.185  2.1891 -0.1635  0.2156
17717SOL    HW255531  10.728   9.583  10.332  0.1331 -1.5002  0.5367
17718SOL     OW55532   7.998   7.224   7.981  0.3435 -1.1196  0.1814
17718SOL    HW155533   8.024   7.188   7.896  1.5288 -0.2062  0.1135
17718SOL    HW255534   8.057   7.183   8.044 -0.2087 -1.4316  0.5019
17719SOL     OW55535   5.060   9.317   0.713 -0.2729 -0.2824  0.0987
17719SOL    HW155536   4.999   9.335   0.642 -0.0471  1.5063  0.2920
17719SOL    HW255537   5.089   9.404   0.742  1.1517 -1.0286  1.0571
17720SOL     OW55538   9.952   8.789   8.884 -0.3585 -0.4756  0.2233
17720SOL    HW155539   9.878   8.836   8.846  0.7704  1.0805 -0.1209
17720SOL    HW255540   9.917   8.703   8.906 -2.9176  0.9733  2.2877
17721SOL     OW55541   7.338   3.085   1.686 -0.4277  0.4873 -0.1715
17721SOL    HW155542   7.296   3.050   1.606  0.1208 -1.0125  0.1597
17721SOL    HW255543   7.331   3.014   1.749  2.5103  0.1695 -0.0578
17722SOL     OW55544   8.593   3.208   0.524 -0.4454  0.6584  0.2026
17722SOL    HW155545   8.610   3.119   0.494  1.4412  1.6884 -2.1515
17722SOL    HW255546   8.501   3.223   0.506 -0.6826 -0.6715  0.2452
17723SOL     OW55547   2.964   6.978   2.199 -0.4610  0.0138  0.1010
17723SOL    HW155548   2.916   6.937   2.271  1.2521  0.8466  1.7939
17723SOL    HW255549   2.960   7.072   2.218 -0.7307  0.3383 -1.4092
17724SOL     OW55550   2.509   7.269   6.297 -0.0736  0.1746  0.5452
17724SOL    HW155551   2.557   7.198   6.255  0.5948  1.3396 -0.7402
17724SOL    HW255552   2.532   7.262   6.390  4.0496  1.6644 -0.1699
17725SOL     OW55553   0.215   7.835   2.843  0.2512 -0.0562 -0.4953
17725SOL    HW155554   0.125   7.803   2.841  0.3196 -0.2864  0.0850
17725SOL    HW255555   0.217   7.904   2.776 -0.2569 -0.3011 -0.7687
17726SOL     OW55556   9.275   0.279   9.352 -0.1301 -0.6114 -0.5640
17726SOL    HW155557   9.243   0.306   9.438 -1.4672  0.0639 -1.2462
17726SOL    HW255558   9.213   0.211   9.323 -0.2824 -0.1316 -1.4045
17727SOL     OW55559   4.175   2.585   0.902 -0.0525  0.2407  0.3854
17727SOL    HW155560   4.251   2.531   0.878  1.3793  2.4076 -0.3104
17727SOL    HW255561   4.099   2.533   0.875  1.2594 -1.0956 -0.9688
17728SOL     OW55562   4.764   8.566   5.921 -0.1851 -0.0857 -0.5563
17728SOL    HW155563   4.767   8.492   5.983  0.2057  0.8479  0.5675
17728SOL    HW255564   4.722   8.636   5.969  2.4816  1.5235 -0.3520
17729SOL     OW55565   7.011   5.868   3.410 -0.2582 -0.6378  0.2732
17729SOL    HW155566   6.995   5.908   3.496  0.0878 -0.3352  0.2000
17729SOL    HW255567   6.973   5.781   3.417 -0.6786 -0.4338  0.5669
17730SOL     OW55568   5.602   1.223   9.559 -0.2821  0.1767  0.0351
17730SOL    HW155569   5.636   1.134   9.550  0.3788  0.4077  0.1343
17730SOL    HW255570   5.620   1.246   9.650  0.0049  0.5870 -0.1215
17731SOL     OW55571   9.861   7.927   2.670 -0.1329 -0.5329 -0.1244
17731SOL    HW155572   9.894   7.870   2.600  1.2345 -0.9510  0.8074
17731SOL    HW255573   9.938   7.943   2.725 -0.3896  2.3451 -0.3996
17732SOL     OW55574   5.479   6.080   2.456 -0.0056 -0.3272  0.1682
17732SOL    HW155575   5.570   6.076   2.488  0.1647 -1.5683 -0.3928
17732SOL    HW255576   5.487   6.077   2.361 -0.6543 -1.6830  0.1354
17733SOL     OW55577   4.662  10.000  10.008  0.5592  0.0133  0.2815
17733SOL    HW155578   4.638  10.092  10.022 -1.7023 -0.6247  1.0050
17733SOL    HW255579   4.684   9.968  10.096  0.8104 -0.2816  0.1124
17734SOL     OW55580   7.607   3.204   2.922 -0.4346 -0.2344  0.2000
17734SOL    HW155581   7.688   3.250   2.942 -1.0003  0.6318  0.5540
17734SOL    HW255582   7.606   3.129   2.982  1.0328 -1.4088 -1.1495
17735SOL     OW55583   1.556   0.355   1.134  0.6136 -0.5565 -0.2800
17735SOL    HW155584   1.563   0.409   1.055  0.4311  0.0722  0.1238
17735SOL    HW255585   1.516   0.274   1.105 -0.5025  0.1134 -0.6367
17736SOL     OW55586   2.838   4.281   8.800  0.2458 -0.5950 -0.2170
17736SOL    HW155587   2.843   4.307   8.708  0.2892 -4.3117 -1.4226
17736SOL    HW255588   2.747   4.258   8.815  0.7286 -2.7884 -0.2921
17737SOL     OW55589   8.346   3.975   1.670 -0.9361  0.0151 -0.0973
17737SOL    HW155590   8.276   3.986   1.606 -1.4978 -1.5501  0.1985
17737SOL    HW255591   8.402   3.906   1.633 -0.9675 -0.5315  0.8226
17738SOL     OW55592   6.311   4.310   5.885  0.0039  0.2680 -0.7008
17738SOL    HW155593   6.236   4.293   5.941 -0.2610  2.9020 -0.1117
17738SOL    HW255594   6.274   4.329   5.799  0.0983  0.3932 -0.7142
17739SOL     OW55595   4.468   3.646   0.787 -0.4874 -0.4616  0.1450
17739SOL    HW155596   4.520   3.570   0.812 -0.1863 -0.4592 -0.4564
17739SOL    HW255597   4.525   3.695   0.727 -0.6283  0.3005  0.6191
17740SOL     OW55598   6.824   5.757   2.258  0.1214 -0.1483  0.0789
17740SOL    HW155599   6.827   5.661   2.258 -1.3992 -0.2327  1.5632
17740SOL    HW255600   6.892   5.783   2.321 -1.2417 -0.3991  1.7259
17741SOL     OW55601   9.429   8.405   3.632  0.0528 -0.0681  0.2201
17741SOL    HW155602   9.382   8.461   3.694 -1.7501 -1.2537  0.0138
17741SOL    HW255603   9.402   8.437   3.545  0.7598  0.1246  0.0618
17742SOL     OW55604   0.696   1.232   0.211 -0.0219 -0.5048 -0.3434
17742SOL    HW155605   0.685   1.210   0.118 -1.0437 -1.3031 -0.0615
17742SOL    HW255606   0.622   1.289   0.231 -0.4238 -1.2065  0.2262
17743SOL     OW55607   9.444   8.292  10.776 -0.5521  0.2892  0.2265
17743SOL    HW155608   9.505   8.268  10.846 -0.8342  0.7982  0.6600
17743SOL    HW255609   9.419   8.382  10.797  0.9026  1.1937 -1.6399
17744SOL     OW55610   1.028   3.975   1.578  0.3578  0.9084  0.5339
17744SOL    HW155611   1.120   4.000   1.572  0.1550  1.5850 -0.0692
17744SOL    HW255612   1.006   3.984   1.670  1.1754 -0.3552  0.8667
17745SOL     OW55613   2.084   5.919   4.350 -0.1170 -0.0628  0.0026
17745SOL    HW155614   2.140   5.936   4.426 -0.5697 -1.1781  0.6152
17745SOL    HW255615   2.131   5.852   4.300 -0.0831  0.2628 -0.3981
17746SOL     OW55616   1.617   7.450   8.916 -0.3362 -0.3869  0.8026
17746SOL    HW155617   1.641   7.472   8.826  0.1809  1.9151  1.4519
17746SOL    HW255618   1.635   7.356   8.923  2.0485 -0.1237 -0.7371
17747SOL     OW55619   4.694   1.481   6.007  1.0729  0.5413 -0.1092
17747SOL    HW155620   4.692   1.386   5.996 -0.8400  0.3148  1.5344
17747SOL    HW255621   4.726   1.494   6.096 -2.6057  1.1259  1.2943
17748SOL     OW55622   8.643   2.350   5.757  0.1451 -0.2464  0.0285
17748SOL    HW155623   8.582   2.380   5.690  0.3761 -0.3617 -0.2319
17748SOL    HW255624   8.606   2.384   5.839  0.1322  0.3248 -0.2077
17749SOL     OW55625   2.580   0.487   6.244  0.0018  0.1045  0.6398
17749SOL    HW155626   2.604   0.401   6.276  0.0707  0.9411  2.9817
17749SOL    HW255627   2.503   0.472   6.188 -0.2433 -1.3992  1.3565
17750SOL     OW55628   5.258   7.827   7.472 -0.1614  0.2602 -0.5366
17750SOL    HW155629   5.295   7.781   7.547  1.0511  1.6551 -0.2292
17750SOL    HW255630   5.233   7.758   7.411 -1.8653 -0.9444  1.4088
17751SOL     OW55631   7.191   1.446   1.027 -0.4644 -0.5320  0.2847
17751SOL    HW155632   7.281   1.477   1.031 -0.5027 -0.4778  0.9099
17751SOL    HW255633   7.147   1.506   0.967  0.1698 -1.2548 -0.9528
17752SOL     OW55634   7.353   6.965   8.953  0.0101  0.0190 -0.1827
17752SOL    HW155635   7.433   6.927   8.988  0.7136  0.8216 -0.8798
17752SOL    HW255636   7.335   6.914   8.874  0.1824  0.2386 -0.3646
17753SOL     OW55637   2.080   5.372   9.854  0.0849 -0.5512  0.0590
17753SOL    HW155638   2.084   5.408   9.943  1.3923  0.6820 -0.4534
17753SOL    HW255639   1.996   5.403   9.820  1.1097  2.0569 -0.3174
17754SOL     OW55640   3.446   4.169   4.248 -0.0863  0.6229 -0.0891
17754SOL    HW155641   3.395   4.149   4.170 -1.3547  1.1510  0.5620
17754SOL    HW255642   3.518   4.107   4.247  0.4053  1.1517 -2.1001
17755SOL     OW55643   5.805   1.294   8.043 -0.3219 -0.3163 -0.0575
17755SOL    HW155644   5.782   1.323   7.954 -0.4743 -0.2685 -0.0032
17755SOL    HW255645   5.900   1.283   8.041 -0.3546 -0.5588 -0.2973
17756SOL     OW55646   7.336   9.067   4.499  0.5336 -0.6674  0.0392
17756SOL    HW155647   7.311   8.977   4.520  1.5347 -0.6623  1.4034
17756SOL    HW255648   7.432   9.067   4.503  0.7005 -0.0802 -2.3876
17757SOL     OW55649   5.209   7.433   0.229 -0.2427 -0.3797 -0.1701
17757SOL    HW155650   5.133   7.376   0.236 -1.3183  0.9569 -0.6474
17757SOL    HW255651   5.201   7.494   0.302 -0.9243  1.2392 -1.5421
17758SOL     OW55652   8.969   0.246   6.832 -0.6779 -0.2747  0.1473
17758SOL    HW155653   8.926   0.161   6.844 -1.1303 -0.5284 -2.6281
17758SOL    HW255654   8.912   0.293   6.772  0.2309  1.5330  0.6232
17759SOL     OW55655   7.729   2.612   4.684 -0.2162 -0.6226  0.6088
17759SOL    HW155656   7.732   2.516   4.676 -1.4503 -0.6000 -0.4161
17759SOL    HW255657   7.734   2.628   4.778  0.4954 -1.6637  0.7648
17760SOL     OW55658   0.327   7.048   0.872 -0.1901  0.2443  0.1735
17760SOL    HW155659   0.241   7.077   0.842 -0.5912  0.0125  1.0545
17760SOL    HW255660   0.375   7.129   0.890 -0.7725  0.3893  1.1524
17761SOL     OW55661   5.930   0.672   7.228  0.2296 -0.2545  0.1363
17761SOL    HW155662   5.881   0.656   7.147 -0.3459  3.6636 -0.4768
17761SOL    HW255663   6.019   0.692   7.198  0.3452 -0.0957  0.5726
17762SOL     OW55664   8.398   9.563   3.712  0.5577  0.0891  0.4749
17762SOL    HW155665   8.346   9.588   3.789 -0.1655  1.4111 -0.4019
17762SOL    HW255666   8.348   9.492   3.671  0.7526 -0.3586  1.0004
17763SOL     OW55667  10.346   1.390   6.607  0.0978 -0.2086  0.8093
17763SOL    HW155668  10.415   1.324   6.612  1.2252  0.9994  2.1750
17763SOL    HW255669  10.352   1.425   6.519  0.0594 -1.3133  0.3513
17764SOL     OW55670   1.622   2.096  10.602 -0.0959 -0.0045  0.6726
17764SOL    HW155671   1.662   2.058  10.680 -0.3970 -2.6999 -0.3627
17764SOL    HW255672   1.689   2.152  10.564  0.5215  0.2710  2.1071
17765SOL     OW55673   2.980   6.910   1.072 -0.6938  0.1834  0.5371
17765SOL    HW155674   2.902   6.859   1.049 -1.4646  0.0904  3.0192
17765SOL    HW255675   2.951   7.001   1.067 -0.8774  0.1613  1.0628
17766SOL     OW55676   0.109   1.961   5.682  0.0546 -0.2241  0.7828
17766SOL    HW155677   0.138   2.024   5.616 -0.4312 -0.4310  0.3697
17766SOL    HW255678   0.163   1.884   5.667 -0.2897 -0.3912  0.4104
17767SOL     OW55679   3.337   6.274  10.315 -0.3579 -0.3546 -0.0808
17767SOL    HW155680   3.243   6.259  10.312 -0.5129  0.7550 -1.5828
17767SOL    HW255681   3.371   6.235  10.235  0.6124 -1.4550  0.8159
17768SOL     OW55682   0.089   2.382  10.339 -0.2918  0.3671  0.1631
17768SOL    HW155683   0.032   2.429  10.279  1.6322  0.8566 -1.3967
17768SOL    HW255684   0.116   2.304  10.290  1.9870  1.1957 -0.0481
17769SOL     OW55685   0.866  10.648   8.418 -0.1072 -0.3355 -0.4634
17769SOL    HW155686   0.961  10.640   8.408  0.2355  3.5074 -1.7070
17769SOL    HW255687   0.854  10.699   8.498 -0.9178  1.4975 -1.7022
17770SOL     OW55688   7.291   8.700   5.317  0.1838  0.2634 -0.4678
17770SOL    HW155689   7.247   8.772   5.363  0.0281  0.6666 -1.2248
17770SOL    HW255690   7.383   8.710   5.338 -0.0203 -0.3430  0.8042
17771SOL     OW55691   6.892   1.387   5.280  0.4486  0.1567 -0.1041
17771SOL    HW155692   6.873   1.472   5.240  1.6095  0.8269  0.6985
17771SOL    HW255693   6.870   1.400   5.373  0.0698 -0.6163 -0.0823
17772SOL     OW55694   9.350   3.770   9.846  0.8270  0.5829  0.2928
17772SOL    HW155695   9.386   3.682   9.835  1.0523  0.8033 -0.7948
17772SOL    HW255696   9.309   3.767   9.932 -0.9665 -1.2452 -0.5241
17773SOL     OW55697   7.726   6.852   0.849 -0.0951 -0.9177 -0.1377
17773SOL    HW155698   7.690   6.904   0.920 -0.9319  1.0427 -1.8901
17773SOL    HW255699   7.666   6.777   0.841 -2.1739  0.7488 -1.0799
17774SOL     OW55700   7.747   5.182   5.049 -0.0170 -0.2394  0.3246
17774SOL    HW155701   7.829   5.203   5.095 -0.2179 -1.4072  1.2878
17774SOL    HW255702   7.773   5.172   4.958  0.3371  2.4534  0.0502
17775SOL     OW55703   5.219   7.205   1.404  0.1482  0.6639 -0.2048
17775SOL    HW155704   5.266   7.215   1.487 -0.7171  2.3778  0.1243
17775SOL    HW255705   5.220   7.293   1.366 -1.3458  0.3724 -0.9810
17776SOL     OW55706   1.701   2.987   0.223 -0.0813  0.4422  0.0976
17776SOL    HW155707   1.675   3.078   0.240  0.7535  0.7178 -0.0341
17776SOL    HW255708   1.782   2.995   0.172 -0.6374 -0.3744 -0.9561
17777SOL     OW55709   6.400   6.890   2.925 -0.0144 -0.2282  0.3832
17777SOL    HW155710   6.404   6.975   2.969 -1.0184 -0.6204  1.2769
17777SOL    HW255711   6.326   6.898   2.864  0.6266 -0.0895 -0.4061
17778SOL     OW55712   5.779   3.151   9.955 -0.4819  0.0166  0.6660
17778SOL    HW155713   5.810   3.202  10.030  0.0156  1.3217 -0.3977
17778SOL    HW255714   5.794   3.207   9.879 -1.1323 -1.2054 -0.4122
17779SOL     OW55715   8.562   9.338   4.182 -0.6985  0.0707  0.3121
17779SOL    HW155716   8.555   9.243   4.186 -0.6325  0.1124  1.8543
17779SOL    HW255717   8.652   9.354   4.153 -0.7862 -0.3351 -0.1958
17780SOL     OW55718   2.279   8.958   7.481  0.9464 -0.3820 -0.1160
17780SOL    HW155719   2.259   9.048   7.507 -0.3650 -0.7838  0.3515
17780SOL    HW255720   2.280   8.960   7.385  0.2770  0.0029 -0.1206
17781SOL     OW55721   1.871   5.406  10.335 -0.7737 -0.4876  1.1009
17781SOL    HW155722   1.859   5.319  10.297  0.9787 -0.4574  0.3570
17781SOL    HW255723   1.962   5.405  10.366 -0.1660  1.5841 -0.4130
17782SOL     OW55724   4.087   0.653   0.645  0.0923 -0.0968 -0.5575
17782SOL    HW155725   4.181   0.645   0.664  0.6258  1.7092 -2.0491
17782SOL    HW255726   4.065   0.743   0.672 -0.8330 -0.0084 -1.5523
17783SOL     OW55727   4.816   7.484   3.591 -0.4140  0.3963  0.1517
17783SOL    HW155728   4.858   7.401   3.613  2.1565  2.0805  2.1523
17783SOL    HW255729   4.802   7.479   3.496  1.5670 -1.5412 -0.1247
17784SOL     OW55730   6.280   0.876   5.844 -0.3292 -0.4339 -0.1430
17784SOL    HW155731   6.317   0.799   5.801 -0.4155 -0.1970 -0.6506
17784SOL    HW255732   6.312   0.950   5.792  2.2787  0.1561  2.0628
17785SOL     OW55733   2.054   5.340   6.105 -0.2914  0.3639  0.4183
17785SOL    HW155734   1.998   5.266   6.130 -0.7361  0.5979  0.1182
17785SOL    HW255735   2.141   5.316   6.137 -0.3973 -0.3673  0.1702
17786SOL     OW55736   7.849   6.173   2.406  0.4226 -0.0828  0.0976
17786SOL    HW155737   7.781   6.171   2.339  0.7516 -0.3039 -0.2409
17786SOL    HW255738   7.929   6.151   2.358  0.9189  1.2852  0.2709
17787SOL     OW55739   8.009   1.120   8.514 -0.6523 -0.0467  0.0783
17787SOL    HW155740   7.935   1.176   8.539 -0.5252  0.4667 -0.6805
17787SOL    HW255741   8.065   1.119   8.592 -1.4149 -0.3937  0.6420
17788SOL     OW55742  10.097   3.018   2.973 -0.7237  0.4902 -0.2140
17788SOL    HW155743  10.070   3.005   3.064 -0.1427 -0.0281 -0.1116
17788SOL    HW255744  10.028   3.072   2.936 -1.0541  0.5708  0.4921
17789SOL     OW55745   3.612   3.269   4.306  0.4638  0.6188 -0.1951
17789SOL    HW155746   3.560   3.334   4.260 -0.8314  0.5055  1.0274
17789SOL    HW255747   3.642   3.208   4.238  0.2455  1.5257 -1.1139
17790SOL     OW55748   3.353   8.009   8.609  0.2134  0.0316 -0.7301
17790SOL    HW155749   3.339   8.091   8.656 -1.6729 -0.2636 -0.7354
17790SOL    HW255750   3.389   8.035   8.524 -1.1622  0.9326 -1.0578
17791SOL     OW55751   8.536   8.286   4.434  0.0678 -0.4083  0.6948
17791SOL    HW155752   8.534   8.232   4.355  0.1628 -1.6334  1.4932
17791SOL    HW255753   8.589   8.362   4.411 -0.2458 -0.5423 -0.5305
17792SOL     OW55754   8.843   1.226   2.827  0.8307 -0.0777  0.4659
17792SOL    HW155755   8.938   1.225   2.835  0.8437  1.1724  0.6454
17792SOL    HW255756   8.812   1.193   2.911  1.0971  2.3358  1.5817
17793SOL     OW55757   8.080   8.876   0.982  0.4340  0.6675 -0.6124
17793SOL    HW155758   8.025   8.919   1.048 -0.6489 -1.3211 -0.1348
17793SOL    HW255759   8.072   8.931   0.904 -0.0002  1.9024  0.2764
17794SOL     OW55760   2.625   4.144   6.843  0.0487 -0.2218  0.3952
17794SOL    HW155761   2.550   4.203   6.849  1.9350  2.4766 -0.7067
17794SOL    HW255762   2.597   4.075   6.783 -1.7826  0.2890  0.6196
17795SOL     OW55763   7.153   0.899   5.861  0.0447  0.0892  0.0786
17795SOL    HW155764   7.158   0.980   5.810 -2.0101 -0.1917 -0.6653
17795SOL    HW255765   7.145   0.829   5.796  3.8218 -1.0588  0.5942
17796SOL     OW55766   6.292   3.619   7.505 -0.0042  0.4870 -0.4649
17796SOL    HW155767   6.206   3.604   7.467 -0.0326  0.1747 -0.2736
17796SOL    HW255768   6.349   3.556   7.461 -0.0869 -0.0467  0.1948
17797SOL     OW55769   1.874   7.975  10.335 -0.3303 -0.2398 -0.3260
17797SOL    HW155770   1.810   7.972  10.264 -0.8244 -1.6899  0.1320
17797SOL    HW255771   1.829   7.934  10.409 -0.6054  3.0889  1.5306
17798SOL     OW55772   3.657   4.947   8.851  0.5758 -0.2403 -0.0675
17798SOL    HW155773   3.577   4.973   8.897  0.9867  2.7192 -0.8371
17798SOL    HW255774   3.625   4.905   8.771 -0.1677 -0.3898  0.2914
17799SOL     OW55775   1.141   7.940   2.220  0.0731 -0.3258 -0.1774
17799SOL    HW155776   1.198   7.907   2.150  0.1855  1.4251 -0.9696
17799SOL    HW255777   1.063   7.971   2.174 -0.3624 -0.2223  0.6207
17800SOL     OW55778   6.359   8.742   0.375  0.0849 -0.5849  0.4465
17800SOL    HW155779   6.342   8.767   0.466  0.0586 -0.7070  0.4760
17800SOL    HW255780   6.291   8.787   0.325  0.1482 -0.4540  0.4786
17801SOL     OW55781   5.969   3.684   1.171  0.6234 -0.4545 -0.1912
17801SOL    HW155782   6.037   3.711   1.110  0.8607 -2.8467 -1.1089
17801SOL    HW255783   6.016   3.637   1.240  0.1638  0.5552  0.8471
17802SOL     OW55784   2.254   7.455  10.331  0.1052  0.3860 -0.3814
17802SOL    HW155785   2.212   7.540  10.337 -2.4870 -0.7854 -0.6852
17802SOL    HW255786   2.185   7.395  10.303  2.1434 -1.6052 -1.5085
17803SOL     OW55787   9.758   7.191   8.030 -0.5181  0.1129 -0.5176
17803SOL    HW155788   9.821   7.170   8.099 -0.7677 -0.9937 -0.6146
17803SOL    HW255789   9.725   7.278   8.054 -1.3658 -0.6600  1.3444
17804SOL     OW55790   4.853   5.243   5.724 -0.3070 -0.2831  0.1618
17804SOL    HW155791   4.783   5.219   5.785 -0.6306 -1.1558 -0.5373
17804SOL    HW255792   4.811   5.251   5.639  0.5907 -2.0973 -0.5277
17805SOL     OW55793   8.435   4.703  10.749  0.4462  0.3814  0.0488
17805SOL    HW155794   8.526   4.672  10.752  0.4712  0.5175  0.9133
17805SOL    HW255795   8.387   4.641  10.804 -0.1242 -0.0902 -0.9367
17806SOL     OW55796   1.739   8.576   4.140 -0.1683 -0.1546  0.2180
17806SOL    HW155797   1.815   8.631   4.122  0.4090 -0.0187  2.7394
17806SOL    HW255798   1.665   8.636   4.135  0.1932  0.3199  0.4404
17807SOL     OW55799   3.200   0.209   3.889 -0.3280  0.3715  0.3595
17807SOL    HW155800   3.133   0.196   3.822  1.2641 -0.5979 -1.1354
17807SOL    HW255801   3.215   0.303   3.890  0.0621  0.3479 -1.1365
17808SOL     OW55802   4.954   8.381   5.621 -0.3306 -0.4413  0.3239
17808SOL    HW155803   4.895   8.453   5.643 -0.8706 -0.9999  0.7412
17808SOL    HW255804   4.930   8.357   5.532 -1.8566 -1.7085  1.0327
17809SOL     OW55805   6.296   1.587   4.999 -0.4230  0.2609  0.1094
17809SOL    HW155806   6.349   1.636   5.061 -2.0612  0.4537  1.4004
17809SOL    HW255807   6.310   1.495   5.023 -1.5214  0.3600  1.1870
17810SOL     OW55808   4.096   8.117   3.083 -0.0800 -0.4946  0.7706
17810SOL    HW155809   4.038   8.148   3.013  0.6410 -1.8726 -0.5248
17810SOL    HW255810   4.052   8.142   3.164 -1.2982  0.5657 -0.1679
17811SOL     OW55811   2.458   7.577   0.547  0.2084 -0.7227  0.6158
17811SOL    HW155812   2.379   7.529   0.523 -0.8941  0.7650  1.0750
17811SOL    HW255813   2.527   7.511   0.550 -0.6965 -1.8292 -1.2838
17812SOL     OW55814   3.046  10.118   3.795  0.4354 -0.0161 -0.0021
17812SOL    HW155815   3.097  10.043   3.825  1.2221  0.3435 -0.4012
17812SOL    HW255816   3.032  10.170   3.874 -0.0408 -0.5278  0.2594
17813SOL     OW55817   3.034   9.191   2.838  0.2468 -0.1606  0.3342
17813SOL    HW155818   3.021   9.188   2.932 -1.4471 -0.3187  0.1180
17813SOL    HW255819   3.112   9.139   2.823 -0.5002 -1.6686  1.4796
17814SOL     OW55820  10.679   0.986   3.415  0.0139 -0.1440 -0.2569
17814SOL    HW155821  10.715   1.074   3.410 -2.1942  0.8186 -0.3412
17814SOL    HW255822  10.706   0.944   3.332 -0.3292  1.0277 -0.9804
17815SOL     OW55823   3.657   9.914   2.815 -0.4368 -0.5031  0.5286
17815SOL    HW155824   3.606   9.833   2.824 -1.2122 -0.1505 -0.5325
17815SOL    HW255825   3.592   9.981   2.794 -0.1785  0.9697  3.8590
17816SOL     OW55826   4.026   5.731  10.529 -0.1530  0.5901 -0.1058
17816SOL    HW155827   3.965   5.682  10.585  0.7671 -0.7132 -0.2004
17816SOL    HW255828   3.969   5.776  10.466 -1.0443 -0.3128  0.0308
17817SOL     OW55829   6.134   3.454  10.184  0.3208  0.1297 -0.0510
17817SOL    HW155830   6.192   3.446  10.260  2.3204 -1.7569 -1.6347
17817SOL    HW255831   6.189   3.430  10.110 -2.0151  0.1970 -1.9193
17818SOL     OW55832   6.064   1.009   4.406  0.3877  0.4695 -0.1145
17818SOL    HW155833   5.986   0.983   4.454 -0.2412  1.9921 -0.2613
17818SOL    HW255834   6.123   0.934   4.413 -1.5330 -1.1951 -1.0484
17819SOL     OW55835   9.939   4.907   0.417  0.4939 -0.0026  0.6485
17819SOL    HW155836   9.889   4.986   0.437  2.3423  1.6693 -0.9028
17819SOL    HW255837  10.029   4.929   0.440  1.1941 -1.3265 -0.6262
17820SOL     OW55838   9.614   0.562   7.392 -0.1344  0.1589  0.0728
17820SOL    HW155839   9.635   0.469   7.388 -0.3565  0.1185 -0.2147
17820SOL    HW255840   9.525   0.565   7.427 -0.4100  0.2209 -0.6165
17821SOL     OW55841   7.759   0.892   7.609 -0.3181  0.3095  0.2116
17821SOL    HW155842   7.843   0.847   7.606 -0.4869 -0.2786  2.6599
17821SOL    HW255843   7.727   0.889   7.518  1.7566 -0.4329 -0.5470
17822SOL     OW55844   3.509   0.140   5.892 -0.6029 -0.9051  0.3322
17822SOL    HW155845   3.552   0.055   5.896  0.1926 -0.6582 -1.6876
17822SOL    HW255846   3.486   0.151   5.800  2.3177  2.4159 -0.2358
17823SOL     OW55847   9.988   8.625   0.915 -0.7059 -0.1643  0.5223
17823SOL    HW155848  10.078   8.657   0.917 -0.8199  0.1305  1.2798
17823SOL    HW255849   9.942   8.688   0.859 -0.2090 -0.9971 -0.8971
17824SOL     OW55850   0.257   3.340   3.316  0.3147 -0.6291 -0.3393
17824SOL    HW155851   0.336   3.286   3.317  0.5812 -0.2658  1.2928
17824SOL    HW255852   0.211   3.317   3.397  1.2555  2.6675  1.3320
17825SOL     OW55853   3.883   5.013   4.085 -0.0250 -0.1872  0.5674
17825SOL    HW155854   3.827   4.951   4.038 -1.6757  1.8898 -0.3508
17825SOL    HW255855   3.869   4.992   4.178 -1.1608 -0.6958  0.3027
17826SOL     OW55856   6.851   9.171   5.688  0.4152  0.2825 -0.0342
17826SOL    HW155857   6.892   9.225   5.756 -0.2501  1.3652 -0.4586
17826SOL    HW255858   6.785   9.229   5.648  1.0676 -0.1828 -1.8792
17827SOL     OW55859   9.944  10.317   7.413 -0.3073  0.1086  0.4864
17827SOL    HW155860   9.938  10.411   7.392  2.5639  0.4850  1.0464
17827SOL    HW255861   9.905  10.310   7.500  0.0301  0.8910  0.7083
17828SOL     OW55862   4.005   8.199   1.456 -0.1159  0.4506  0.2051
17828SOL    HW155863   4.091   8.239   1.466  0.2692 -0.3534  0.1563
17828SOL    HW255864   4.023   8.106   1.442 -1.0057  0.2205  0.5393
17829SOL     OW55865   3.406   1.767   6.501  0.3184  0.0182 -0.5153
17829SOL    HW155866   3.412   1.753   6.596  1.9209 -0.8681 -0.7024
17829SOL    HW255867   3.337   1.832   6.491  0.1778  0.2106  1.2706
17830SOL     OW55868   8.280   2.101   7.251 -0.1681  0.1450  0.6257
17830SOL    HW155869   8.312   2.011   7.255  0.4125  0.3141 -0.0351
17830SOL    HW255870   8.218   2.102   7.178 -0.4423  0.2006  0.8584
17831SOL     OW55871   8.346   1.417   5.457  0.2136 -0.3805  0.0804
17831SOL    HW155872   8.433   1.458   5.451  0.5172 -0.6819  1.9746
17831SOL    HW255873   8.363   1.330   5.491 -0.9082 -0.0598  1.5342
17832SOL     OW55874   3.116   3.335   7.265 -0.4744 -0.4201  0.2366
17832SOL    HW155875   3.046   3.359   7.204 -0.3777 -0.6768  0.0249
17832SOL    HW255876   3.177   3.409   7.262  0.1034 -0.9302 -0.8278
17833SOL     OW55877   8.771   4.650   8.392 -0.5405 -0.3375 -0.5433
17833SOL    HW155878   8.693   4.635   8.339 -1.2926  1.9835 -0.2105
17833SOL    HW255879   8.738   4.657   8.482  0.3206 -1.1639 -0.1421
17834SOL     OW55880   4.419   6.998   4.956  0.3910 -0.3210 -0.2585
17834SOL    HW155881   4.427   7.077   5.009 -1.1926  0.6658 -1.3618
17834SOL    HW255882   4.499   6.996   4.904  0.6318  0.3445  0.0698
17835SOL     OW55883   9.598   7.267   6.242  0.2289 -0.4407  0.6461
17835SOL    HW155884   9.578   7.174   6.246 -1.1339 -0.1520  0.9969
17835SOL    HW255885   9.577   7.293   6.152  1.7138 -0.6884  0.2047
17836SOL     OW55886   8.551   1.301   8.572 -0.6151  0.2123  0.2023
17836SOL    HW155887   8.529   1.209   8.555 -0.5360  0.1956  0.1878
17836SOL    HW255888   8.471   1.350   8.551 -0.7657  0.1140  0.5340
17837SOL     OW55889   0.195   8.612  10.346 -0.0281  0.4004 -0.0031
17837SOL    HW155890   0.291   8.617  10.354 -0.1456 -0.0813  2.7404
17837SOL    HW255891   0.167   8.703  10.341  0.5434  0.5946  0.1909
17838SOL     OW55892   5.611   1.901   6.202  0.3655  0.1199 -0.1913
17838SOL    HW155893   5.542   1.963   6.179  0.3647 -0.1011 -0.8141
17838SOL    HW255894   5.579   1.816   6.171  0.8480 -0.0078 -0.3587
17839SOL     OW55895   1.927   8.253   9.617 -0.1265 -0.3499  0.4273
17839SOL    HW155896   2.023   8.250   9.619 -0.0634  0.8711  1.8782
17839SOL    HW255897   1.903   8.219   9.531  1.6725  0.4208 -0.4315
17840SOL     OW55898   3.658  10.211   0.404 -0.4305 -0.3990 -0.1530
17840SOL    HW155899   3.640  10.146   0.336 -1.6301 -0.6122  0.3352
17840SOL    HW255900   3.608  10.181   0.480 -0.4237  0.7069  0.3146
17841SOL     OW55901   0.307  10.510   0.689 -0.0939 -0.7699 -0.2750
17841SOL    HW155902   0.358  10.456   0.750 -0.7363 -0.6546  0.3618
17841SOL    HW255903   0.319  10.466   0.604  1.2968 -0.5825 -0.1975
17842SOL     OW55904   3.496   3.082   8.845 -0.3765 -0.2903 -0.4777
17842SOL    HW155905   3.484   3.167   8.888  1.5251  0.8169 -1.9404
17842SOL    HW255906   3.484   3.018   8.914  2.2618  1.3530  1.7418
17843SOL     OW55907  10.335   4.516   1.122 -0.0234  0.4760  0.2451
17843SOL    HW155908  10.386   4.437   1.105  0.1049  0.5260  0.3994
17843SOL    HW255909  10.371   4.551   1.204  0.3601  1.0593 -0.1699
17844SOL     OW55910   3.906   6.145   0.840  0.6692  0.2368 -0.0547
17844SOL    HW155911   3.927   6.060   0.879 -0.6118 -0.5383 -0.9452
17844SOL    HW255912   3.837   6.125   0.776 -0.2912  2.0816  0.3413
17845SOL     OW55913   2.841   5.148   4.956  0.3538  0.4528 -0.4053
17845SOL    HW155914   2.892   5.071   4.979  0.1788  0.1947 -0.8851
17845SOL    HW255915   2.858   5.210   5.028  0.5520  0.0015 -0.0603
17846SOL     OW55916   5.089   6.185  10.278  0.1023  0.0361  1.0697
17846SOL    HW155917   5.043   6.234  10.209  0.1098  0.0015  1.0400
17846SOL    HW255918   5.145   6.250  10.321 -1.6865  0.6401  2.6431
17847SOL     OW55919   9.688   9.140   5.573  0.4023  0.5123 -0.1596
17847SOL    HW155920   9.666   9.168   5.485 -1.0561  0.4328  0.1529
17847SOL    HW255921   9.732   9.215   5.613  1.4573  0.3974 -1.0737
17848SOL     OW55922  10.404   0.401   0.666  0.0691  0.3019  0.3104
17848SOL    HW155923  10.470   0.338   0.695 -1.1267 -0.8289  0.6713
17848SOL    HW255924  10.444   0.444   0.590  1.9736  1.0655  1.6616
17849SOL     OW55925   2.338   7.531   8.589 -0.1163 -0.6548 -0.3489
17849SOL    HW155926   2.380   7.593   8.529 -0.2887 -1.9690 -1.8831
17849SOL    HW255927   2.248   7.564   8.597  0.3669  0.5233  0.6504
17850SOL     OW55928   5.164   0.523  10.576  0.1688 -0.2320  0.2979
17850SOL    HW155929   5.112   0.490  10.649  0.9885 -2.0403  0.1416
17850SOL    HW255930   5.220   0.590  10.614 -1.3668  0.8497  0.7147
17851SOL     OW55931   3.647   0.889  10.489  0.3906 -0.5986  0.2827
17851SOL    HW155932   3.629   0.803  10.451  1.4436  0.1872 -2.2755
17851SOL    HW255933   3.743   0.896  10.485  0.4178  0.1959  1.7310
17852SOL     OW55934   4.339   3.801   3.404 -0.1600  0.0582 -0.4110
17852SOL    HW155935   4.289   3.739   3.351  0.1282 -0.9977  0.5125
17852SOL    HW255936   4.301   3.886   3.384 -2.1466 -0.6764  0.0466
17853SOL     OW55937   8.311   3.303   2.529 -0.3831  0.2531 -0.2876
17853SOL    HW155938   8.269   3.380   2.491 -0.0417  1.6391  1.9441
17853SOL    HW255939   8.330   3.246   2.454  0.5203  2.8827 -2.1987
17854SOL     OW55940  10.386   5.212   9.229 -0.3576  0.2216 -0.0444
17854SOL    HW155941  10.476   5.245   9.229 -0.5215  0.6901  0.6650
17854SOL    HW255942  10.333   5.290   9.210 -0.6232 -0.0211 -0.2941
17855SOL     OW55943   3.698   2.715   3.076 -0.2314 -0.0611  0.3925
17855SOL    HW155944   3.636   2.646   3.099  0.2519  0.0613  2.1694
17855SOL    HW255945   3.685   2.728   2.982 -0.3799 -2.5259 -0.0014
17856SOL     OW55946   0.067   4.254   3.647 -0.1587  0.3624  0.2912
17856SOL    HW155947   0.121   4.290   3.717  1.0311 -0.5298 -0.1365
17856SOL    HW255948   0.087   4.308   3.571  0.1607  0.0281  0.1314
17857SOL     OW55949   7.088   1.095   4.689  0.2095  0.0495 -0.3151
17857SOL    HW155950   7.146   1.086   4.764  0.5951  0.5470 -0.5409
17857SOL    HW255951   7.000   1.083   4.724  0.4135 -0.1410  0.1377
17858SOL     OW55952   8.032   3.389   5.171 -0.2390  0.9018 -0.1203
17858SOL    HW155953   8.078   3.422   5.248  0.0861  0.6538 -0.2057
17858SOL    HW255954   7.946   3.431   5.174 -1.8428 -2.1164  2.6146
17859SOL     OW55955   5.813  10.169   7.714 -0.6514  0.3902 -0.2074
17859SOL    HW155956   5.870  10.144   7.642 -0.9769  1.3368 -0.8113
17859SOL    HW255957   5.869  10.165   7.791 -0.1987 -0.2653 -0.5599
17860SOL     OW55958   4.317  10.674   2.558  0.1226 -0.1753  0.0235
17860SOL    HW155959   4.346  10.583   2.552  0.4617 -0.0450 -0.3483
17860SOL    HW255960   4.255  10.674   2.631  0.5372 -0.5918  0.3881
17861SOL     OW55961   6.473   7.200   7.203 -0.5830  0.2423 -0.4695
17861SOL    HW155962   6.502   7.289   7.224 -2.4711  0.5940  0.9410
17861SOL    HW255963   6.380   7.210   7.181 -1.0649 -1.4711  0.6356
17862SOL     OW55964   8.250   9.238   8.327  0.1425  0.2590  0.9200
17862SOL    HW155965   8.289   9.163   8.283 -0.1184  0.5243  0.2338
17862SOL    HW255966   8.167   9.206   8.361  0.0330  0.2379  0.6304
17863SOL     OW55967   1.104   4.443   3.034 -0.1749  0.8720 -0.0500
17863SOL    HW155968   1.045   4.473   2.965 -0.1323 -3.0635 -2.0253
17863SOL    HW255969   1.187   4.487   3.014 -0.8939  2.0144 -0.6898
17864SOL     OW55970   9.305   5.701   8.759 -0.0161  0.5455 -0.0886
17864SOL    HW155971   9.339   5.697   8.849 -1.2881  1.7887  0.4921
17864SOL    HW255972   9.210   5.707   8.769 -0.8142 -4.5626 -1.6898
17865SOL     OW55973   0.950   2.756   0.700 -0.2229  0.4215  0.3322
17865SOL    HW155974   1.009   2.702   0.752 -0.3629  1.2942  1.4419
17865SOL    HW255975   0.990   2.760   0.613 -0.1766 -1.3765  0.2299
17866SOL     OW55976   7.335   2.876   3.755 -0.3129  0.3693 -0.2049
17866SOL    HW155977   7.248   2.835   3.761 -0.5903  0.6338 -1.8815
17866SOL    HW255978   7.388   2.812   3.707  0.1517  0.6173 -0.0276
17867SOL     OW55979  10.737   3.779   3.753  0.0454 -0.6672 -0.0448
17867SOL    HW155980  10.725   3.831   3.674 -0.7036 -1.3367 -0.3910
17867SOL    HW255981  10.816   3.815   3.794  1.7908 -1.7042 -2.2507
17868SOL     OW55982   1.819  10.085   7.484 -0.0349 -0.5008  0.2862
17868SOL    HW155983   1.875  10.037   7.423 -0.9088 -1.9025  0.5423
17868SOL    HW255984   1.747  10.025   7.503  0.5925 -0.4788  3.2954
17869SOL     OW55985   4.818   6.709   0.344 -0.1953  0.1883 -0.2280
17869SOL    HW155986   4.839   6.773   0.413 -0.1074  0.0980 -0.1713
17869SOL    HW255987   4.839   6.755   0.263  0.8780 -0.1342 -0.1468
17870SOL     OW55988   8.455   4.510   0.631 -0.2144 -0.3774  0.2014
17870SOL    HW155989   8.509   4.452   0.685 -0.8269 -0.3740  0.8312
17870SOL    HW255990   8.460   4.472   0.544 -0.0471 -0.9805  0.4649
17871SOL     OW55991   1.257   7.803   3.106  0.2036 -0.0737 -0.1975
17871SOL    HW155992   1.321   7.844   3.164 -0.3241 -0.8651  0.9794
17871SOL    HW255993   1.306   7.734   3.061  0.6430  0.6230 -0.8087
17872SOL     OW55994   9.051   6.295   6.830 -0.5739 -0.8828 -0.0690
17872SOL    HW155995   8.956   6.292   6.828 -0.6052  0.1402 -1.0892
17872SOL    HW255996   9.078   6.271   6.741  0.0475  0.3196 -0.2311
17873SOL     OW55997   5.691   1.890   8.673  0.1413  0.1646  0.1151
17873SOL    HW155998   5.612   1.942   8.684  0.9256  1.1538  1.3553
17873SOL    HW255999   5.762   1.954   8.664  0.7638 -0.6923 -1.5783
17874SOL     OW56000   5.841   6.475   8.327  0.0197  0.6559 -0.5487
17874SOL    HW156001   5.926   6.512   8.348  1.1671 -1.1660 -1.7722
17874SOL    HW256002   5.815   6.428   8.407  0.8232  0.0413 -0.6462
17875SOL     OW56003  10.174   2.059   0.149  0.1237 -0.1066  0.2830
17875SOL    HW156004  10.186   2.154   0.138  0.1974 -0.1980 -0.4567
17875SOL    HW256005  10.260   2.022   0.130 -0.2695 -0.4352 -0.9537
17876SOL     OW56006   4.361  10.080   1.226  0.2493 -0.0038  0.2535
17876SOL    HW156007   4.352  10.117   1.314  0.8012  0.1222  0.2588
17876SOL    HW256008   4.366   9.986   1.239  0.0676 -0.0020  0.3371
17877SOL     OW56009   7.002   2.257   5.531 -0.5414 -0.6566 -0.4974
17877SOL    HW156010   7.026   2.239   5.622 -1.1737 -1.1160 -0.4141
17877SOL    HW256011   7.044   2.188   5.480  0.1622 -0.1568 -0.6119
17878SOL     OW56012   7.349   7.530  10.392 -0.0538 -0.5061  0.5736
17878SOL    HW156013   7.354   7.575  10.476 -0.5158 -2.4726  1.7196
17878SOL    HW256014   7.256   7.516  10.377  0.0681 -0.9403  0.1852
17879SOL     OW56015   1.395   8.714   6.564  0.1688  0.4680  0.0105
17879SOL    HW156016   1.349   8.795   6.585 -0.1447  0.4638 -0.6663
17879SOL    HW256017   1.428   8.726   6.475  0.1367 -0.1402 -0.0904
17880SOL     OW56018  10.742   0.200   8.209 -0.1047  0.5176 -0.3667
17880SOL    HW156019  10.692   0.255   8.149 -0.6493  0.3952 -0.0307
17880SOL    HW256020  10.754   0.118   8.162 -0.5488  0.4156 -0.3078
17881SOL     OW56021   3.735   2.971   1.909  0.2294 -0.0030 -0.0051
17881SOL    HW156022   3.717   2.877   1.910 -1.3601  0.2629  1.0115
17881SOL    HW256023   3.675   3.006   1.843 -1.2920  0.6036  1.6236
17882SOL     OW56024   0.166   1.073   0.584  0.2507  0.8377 -0.1576
17882SOL    HW156025   0.143   1.038   0.670 -2.3057 -0.0601 -1.1312
17882SOL    HW256026   0.115   1.153   0.576 -0.0050  0.5865 -1.0887
17883SOL     OW56027   8.376   9.324   1.125 -0.1784  0.7033  0.3097
17883SOL    HW156028   8.456   9.375   1.116 -0.5176  1.3665  0.8779
17883SOL    HW256029   8.387   9.250   1.066  0.4089  1.3380 -0.3928
17884SOL     OW56030   4.578   9.271   4.558  0.0027  0.5838 -0.1272
17884SOL    HW156031   4.528   9.337   4.510 -0.8311 -0.2551 -0.4387
17884SOL    HW256032   4.660   9.263   4.509 -0.3247  0.6336 -0.6955
17885SOL     OW56033   3.322   6.484   4.288 -0.1412 -0.0556 -0.3024
17885SOL    HW156034   3.364   6.567   4.265  0.3516 -0.0185  0.6621
17885SOL    HW256035   3.271   6.505   4.367 -0.8805 -0.4206 -0.6826
17886SOL     OW56036   4.518   8.467  10.539  0.3913  0.1404 -0.3799
17886SOL    HW156037   4.440   8.412  10.536 -1.4268  2.5678  0.3363
17886SOL    HW256038   4.511   8.523  10.461  1.2398  0.6368 -0.1125
17887SOL     OW56039   7.896   7.926   4.787 -0.3874  0.0762  0.2003
17887SOL    HW156040   7.935   7.946   4.872 -0.6841  0.6673  0.2033
17887SOL    HW256041   7.960   7.957   4.723 -0.9955  1.4228  0.2005
17888SOL     OW56042  10.747   0.711   9.532 -0.3998 -0.4799  0.3252
17888SOL    HW156043  10.672   0.684   9.478 -0.3816  0.1195 -0.0137
17888SOL    HW256044  10.823   0.672   9.488 -0.3690  0.1428 -0.1866
17889SOL     OW56045  10.345   5.241   3.395  0.0034 -0.5964  0.0814
17889SOL    HW156046  10.288   5.316   3.412 -0.8114 -1.2955  0.5135
17889SOL    HW256047  10.287   5.176   3.353  0.9735 -0.5302 -1.4612
17890SOL     OW56048   5.905   8.441   7.063  0.5074 -0.4849 -0.3954
17890SOL    HW156049   5.834   8.480   7.114  0.5158 -0.0310 -0.7327
17890SOL    HW256050   5.879   8.454   6.972  2.0312  1.5905 -0.5853
17891SOL     OW56051   3.329  10.709   8.030  0.3518 -0.4970 -0.4640
17891SOL    HW156052   3.379  10.667   7.959 -0.4043 -1.5430 -0.4036
17891SOL    HW256053   3.254  10.651   8.043 -1.2550  1.3855 -1.0027
17892SOL     OW56054   4.777   2.582   0.455  0.1765 -0.7320 -0.4069
17892SOL    HW156055   4.870   2.604   0.463  0.3078 -0.5437 -2.0420
17892SOL    HW256056   4.734   2.632   0.524  1.1722 -0.0141 -0.2865
17893SOL     OW56057   2.878   5.387   1.306  0.2774  0.1625 -0.0498
17893SOL    HW156058   2.900   5.380   1.399 -0.0554 -1.5121 -0.0600
17893SOL    HW256059   2.804   5.447   1.304 -0.2262 -0.3997  0.8633
17894SOL     OW56060   1.586   0.098   9.911 -0.1406  0.4964  0.1096
17894SOL    HW156061   1.581   0.071  10.003 -0.0686  2.0749  0.6194
17894SOL    HW256062   1.531   0.036   9.864 -3.7493  2.0803  1.8247
17895SOL     OW56063   2.128   3.187   8.706 -0.0896 -0.1544 -0.3302
17895SOL    HW156064   2.218   3.156   8.699  0.0428 -0.3284  1.7636
17895SOL    HW256065   2.135   3.282   8.698  0.0275 -0.2701 -2.0385
17896SOL     OW56066   2.622   5.226   2.942  0.1627 -0.3563  0.4753
17896SOL    HW156067   2.678   5.150   2.930  1.5280  0.7717 -0.7118
17896SOL    HW256068   2.607   5.231   3.037 -0.1883 -2.2210  0.5429
17897SOL     OW56069   8.358   5.052   8.225  0.5502  0.2723  0.0285
17897SOL    HW156070   8.438   5.064   8.277  0.0379  1.2587  0.6277
17897SOL    HW256071   8.288   5.048   8.290  0.1972 -1.8223 -0.4112
17898SOL     OW56072   8.307   9.544   2.906 -0.0063 -0.6840 -0.3756
17898SOL    HW156073   8.348   9.610   2.850  0.4661 -1.0069 -0.4198
17898SOL    HW256074   8.343   9.561   2.993  1.5438 -1.9919 -0.7043
17899SOL     OW56075   0.089   0.308   3.451  0.3710 -0.2036  0.3540
17899SOL    HW156076   0.006   0.352   3.435  0.6636  0.6237  1.0744
17899SOL    HW256077   0.115   0.336   3.538  1.3941 -0.4838  0.1496
17900SOL     OW56078   4.041   2.010   7.473 -0.0888  0.1900  0.4538
17900SOL    HW156079   4.127   2.007   7.430  1.0756 -0.8932  2.6494
17900SOL    HW256080   4.016   2.103   7.470  1.8718  0.7871  0.9927
17901SOL     OW56081   8.037   8.634   4.552 -0.3492  0.0482 -0.2701
17901SOL    HW156082   7.960   8.684   4.578 -1.2177  0.0815 -2.6607
17901SOL    HW256083   8.084   8.693   4.493 -0.2803 -1.1586 -1.4614
17902SOL     OW56084   0.983   7.607   4.739  0.3969  0.2204 -0.7483
17902SOL    HW156085   1.011   7.639   4.653  0.6506  2.5704  0.1266
17902SOL    HW256086   1.047   7.539   4.762  1.0418  0.4149 -1.9061
17903SOL     OW56087   3.091   1.323   2.411 -0.8620 -0.0312 -0.2330
17903SOL    HW156088   3.013   1.272   2.433 -1.0594  0.5543  0.4475
17903SOL    HW256089   3.057   1.403   2.372 -0.6978  1.1253  1.9079
17904SOL     OW56090   3.592   1.506   4.604  0.1025 -0.3458  0.4709
17904SOL    HW156091   3.503   1.524   4.573  0.5771 -0.6029 -1.0780
17904SOL    HW256092   3.582   1.427   4.659 -0.5377 -0.7097 -0.1519
17905SOL     OW56093   8.927   8.620   7.664 -0.2877  0.6120  0.1836
17905SOL    HW156094   8.898   8.708   7.689 -2.5816  0.2701 -1.0017
17905SOL    HW256095   8.847   8.574   7.639  0.9620 -1.5201 -0.2019
17906SOL     OW56096   5.106  10.049   4.435  0.4048  0.1024  0.2351
17906SOL    HW156097   5.119  10.059   4.529 -0.0194  0.1693  0.2886
17906SOL    HW256098   5.071  10.133   4.406 -0.5267 -0.2765  0.2127
17907SOL     OW56099  10.254  10.437   3.167  0.1646 -0.3139  0.2300
17907SOL    HW156100  10.204  10.502   3.216  0.0215 -0.2085 -0.0520
17907SOL    HW256101  10.319  10.405   3.229  0.1235 -0.0286  0.4238
17908SOL     OW56102   1.019   9.367   5.151 -0.2861  0.2964  0.1686
17908SOL    HW156103   0.939   9.357   5.203  0.5603  1.3488  1.7522
17908SOL    HW256104   0.988   9.372   5.061 -1.6252 -5.7396 -0.1454
17909SOL     OW56105   4.186   1.112   3.386  0.0239 -0.4980 -0.1221
17909SOL    HW156106   4.171   1.147   3.474  4.9318 -0.4697  0.9883
17909SOL    HW256107   4.246   1.175   3.346  1.0701 -2.5279 -1.9501
17910SOL     OW56108   4.958   0.007   3.552 -0.0424 -0.1520 -0.2272
17910SOL    HW156109   4.897  -0.050   3.600 -0.2265 -0.5063 -0.8600
17910SOL    HW256110   4.921   0.011   3.463  1.2888 -1.0517 -0.8677
17911SOL     OW56111   5.781   0.004   3.401 -0.8553 -0.1770  0.2559
17911SOL    HW156112   5.716  -0.019   3.335  1.2565 -0.1544 -1.9667
17911SOL    HW256113   5.785   0.100   3.399  0.0145 -0.2150 -0.4582
17912SOL     OW56114   7.414   5.650   1.252 -0.5079 -0.8156  0.0207
17912SOL    HW156115   7.439   5.742   1.241  0.0233 -0.8200  1.0151
17912SOL    HW256116   7.497   5.603   1.254 -0.7722 -1.3029 -0.3483
17913SOL     OW56117   2.727   4.640   9.089 -0.1714  0.5692  0.6804
17913SOL    HW156118   2.736   4.555   9.045 -0.3673  1.1515 -0.5035
17913SOL    HW256119   2.728   4.618   9.183  0.4928 -0.6643  0.4061
17914SOL     OW56120   9.451   6.992   9.038  0.4209  0.0619 -0.1839
17914SOL    HW156121   9.464   7.082   9.069  0.5646  0.0025 -0.0713
17914SOL    HW256122   9.364   6.993   8.997 -0.7697 -0.3809  2.1749
17915SOL     OW56123   4.188   3.533   6.968  0.0506  0.1184 -0.6263
17915SOL    HW156124   4.181   3.438   6.967 -1.0767  0.1746 -0.4185
17915SOL    HW256125   4.272   3.551   7.009  0.1709 -0.7838 -0.4542
17916SOL     OW56126   9.671   9.241   7.102 -0.1085 -0.3815  0.0596
17916SOL    HW156127   9.612   9.316   7.095  0.2629  0.0807  1.5314
17916SOL    HW256128   9.727   9.247   7.024 -1.6190 -0.5279 -1.0859
17917SOL     OW56129   5.795   8.784  10.336  0.1510  0.0292 -0.1164
17917SOL    HW156130   5.712   8.743  10.360 -0.7259  0.3755 -2.3295
17917SOL    HW256131   5.780   8.878  10.347  0.2989  0.0855 -0.3792
17918SOL     OW56132   5.131   4.774   1.253  0.1911 -0.2775 -0.4173
17918SOL    HW156133   5.133   4.688   1.294  2.0097  0.6480  1.6647
17918SOL    HW256134   5.191   4.766   1.178  1.1909 -0.5677  0.3931
17919SOL     OW56135   4.814   6.053   0.756  0.0422  0.3566 -0.3614
17919SOL    HW156136   4.732   6.101   0.744 -0.0181  0.2081 -0.5599
17919SOL    HW256137   4.815   5.991   0.683 -1.3937 -2.1151  1.5766
17920SOL     OW56138   4.608   2.995   8.249 -0.1411 -0.0159  0.1501
17920SOL    HW156139   4.590   3.021   8.339  1.2165  2.7303 -0.2654
17920SOL    HW256140   4.679   3.053   8.221 -1.9462  0.7866 -3.3627
17921SOL     OW56141   7.419   2.931   4.025  0.6226  0.4441 -0.1337
17921SOL    HW156142   7.415   2.846   4.069 -1.0587  0.7003  0.2939
17921SOL    HW256143   7.397   2.912   3.934 -4.0296  0.7977  0.6848
17922SOL     OW56144   4.257   6.288   2.874 -0.0599 -0.0581 -0.3673
17922SOL    HW156145   4.257   6.230   2.949 -0.4842  0.5151  0.0871
17922SOL    HW256146   4.348   6.314   2.863  0.1684 -0.9549 -0.7053
17923SOL     OW56147   0.824   3.394   9.727 -0.0555  0.6393  0.3904
17923SOL    HW156148   0.743   3.442   9.745 -0.3719  0.1982  0.1715
17923SOL    HW256149   0.881   3.413   9.802 -0.9916 -0.4125  1.4095
17924SOL     OW56150   1.631   3.620   9.932  0.0415  0.5194 -0.2777
17924SOL    HW156151   1.709   3.566   9.949 -0.8011 -0.7727 -0.3931
17924SOL    HW256152   1.652   3.668   9.853  0.5542 -0.1833 -0.5830
17925SOL     OW56153   4.328   4.399   8.942  0.1620 -0.9599  0.6015
17925SOL    HW156154   4.423   4.392   8.945  0.3709 -0.1922 -2.0849
17925SOL    HW256155   4.298   4.314   8.909  0.1004 -0.5207 -0.5046
17926SOL     OW56156   3.611   0.193   4.023  0.0292  0.4946 -0.7081
17926SOL    HW156157   3.657   0.171   4.105 -0.2358 -1.9118 -1.1271
17926SOL    HW256158   3.542   0.253   4.049 -1.2338 -1.6429  1.2215
17927SOL     OW56159   7.595   5.779   4.534 -0.0134  0.4748  0.0884
17927SOL    HW156160   7.667   5.836   4.560  0.2843  1.5506 -2.8065
17927SOL    HW256161   7.517   5.821   4.571  0.7195 -1.2691  4.1875
17928SOL     OW56162   2.184   5.180   5.793  0.4929 -0.2568  0.1355
17928SOL    HW156163   2.231   5.204   5.873  1.3693  0.8713 -0.6951
17928SOL    HW256164   2.249   5.136   5.739  0.3565  0.5041 -0.6512
17929SOL     OW56165   7.031   4.923   2.899  0.3742 -0.0052  0.1801
17929SOL    HW156166   7.103   4.935   2.837  0.9298 -0.4525  0.7269
17929SOL    HW256167   7.042   4.992   2.964 -0.8604  1.1641 -0.7982
17930SOL     OW56168  10.033   2.336   6.352  0.3411  0.5045 -0.4316
17930SOL    HW156169  10.089   2.410   6.373  2.8343 -0.4598 -3.0853
17930SOL    HW256170   9.947   2.361   6.385  1.5680  3.5268  0.8301
17931SOL     OW56171   0.401   6.766   3.961  0.2098  0.8110  0.2917
17931SOL    HW156172   0.337   6.834   3.941 -0.2495  0.2482 -0.1759
17931SOL    HW256173   0.430   6.786   4.051 -1.6005  0.3011  1.0219
17932SOL     OW56174   6.668   1.556  10.703  0.3970 -0.7063  0.2274
17932SOL    HW156175   6.673   1.533  10.611  0.5866 -4.1389  0.9566
17932SOL    HW256176   6.749   1.603  10.721  0.2234  0.2685 -1.3410
17933SOL     OW56177   5.237   5.753  10.631  0.6942 -1.3257  0.6352
17933SOL    HW156178   5.164   5.810  10.607  1.7995 -0.0901  0.0760
17933SOL    HW256179   5.292   5.751  10.553  2.4223 -0.3422  1.7732
17934SOL     OW56180   8.610   8.667  10.754 -0.1156 -0.1828 -0.4084
17934SOL    HW156181   8.605   8.672  10.850 -0.0836 -0.1795 -0.4068
17934SOL    HW256182   8.527   8.704  10.725  1.1846  3.0702 -0.4816
17935SOL     OW56183   0.637   8.367   8.333  0.0149 -0.0943 -0.1774
17935SOL    HW156184   0.605   8.278   8.344  0.6539 -0.2194  0.7331
17935SOL    HW256185   0.723   8.358   8.292 -0.1908  0.1417 -0.6737
17936SOL     OW56186   5.484   2.685   0.467  0.4413  0.3008  0.3674
17936SOL    HW156187   5.500   2.767   0.514  1.0104 -1.0832  2.7770
17936SOL    HW256188   5.569   2.662   0.430  0.4318  0.4505  0.2495
17937SOL     OW56189   1.911   3.604   2.241  0.2329 -1.0419  0.3591
17937SOL    HW156190   1.934   3.696   2.255 -0.4781 -1.0497  1.8444
17937SOL    HW256191   1.957   3.579   2.161 -0.5353  0.9460 -0.7785
17938SOL     OW56192  10.040   2.554   6.741 -0.7854  0.3696 -0.1379
17938SOL    HW156193  10.073   2.464   6.740  1.5140  1.1472 -0.0236
17938SOL    HW256194   9.945   2.544   6.735 -0.9985 -2.2173  3.7851
17939SOL     OW56195   0.224   4.729   8.997 -0.0403  0.1216  0.4248
17939SOL    HW156196   0.269   4.682   8.927 -0.3666  1.8806 -1.0393
17939SOL    HW256197   0.280   4.804   9.017 -1.6602  1.6638 -0.5742
17940SOL     OW56198   4.731   4.470   0.831  0.1085  0.1739 -0.6904
17940SOL    HW156199   4.778   4.498   0.909  1.3560  1.4028 -1.8363
17940SOL    HW256200   4.747   4.539   0.767 -0.2461 -1.1676 -2.2920
17941SOL     OW56201   9.903   4.827   4.111  0.4880 -0.4305  0.1538
17941SOL    HW156202   9.982   4.868   4.076 -1.1811  1.8846 -1.1923
17941SOL    HW256203   9.890   4.868   4.196 -0.5250  1.0115 -0.6688
17942SOL     OW56204   2.389   2.042   0.848  0.4640  0.6353  0.0726
17942SOL    HW156205   2.464   2.036   0.790  1.3778 -0.3939  1.3023
17942SOL    HW256206   2.397   2.128   0.890  1.9746 -0.1306  1.4681
17943SOL     OW56207   6.749  10.257  10.288 -0.0682 -0.0149  0.3395
17943SOL    HW156208   6.714  10.346  10.287 -0.2637 -0.0662  1.2419
17943SOL    HW256209   6.807  10.252  10.212  0.7018  1.1917  0.8262
17944SOL     OW56210   2.303   4.789   7.513  0.3136  0.2181  0.2212
17944SOL    HW156211   2.389   4.751   7.532 -0.6306 -1.6009  1.1572
17944SOL    HW256212   2.241   4.720   7.537 -1.3394  0.3694 -3.0321
17945SOL     OW56213   9.796   0.021   1.521 -0.3812  0.2537 -0.0979
17945SOL    HW156214   9.856  -0.040   1.479 -1.8656 -1.7353  0.5157
17945SOL    HW256215   9.790   0.095   1.460  0.3020 -0.8871 -1.6194
17946SOL     OW56216   0.810   5.982   2.132 -0.2165 -0.5263  0.2069
17946SOL    HW156217   0.783   5.916   2.196  0.2841  0.1427  1.1298
17946SOL    HW256218   0.891   6.018   2.168 -0.3821  0.4656 -0.3795
17947SOL     OW56219  10.557   7.753   8.130  0.3235  0.3670 -0.4547
17947SOL    HW156220  10.484   7.808   8.103 -2.1954 -2.6888 -0.4838
17947SOL    HW256221  10.584   7.707   8.049 -0.0607 -0.9859  0.1504
17948SOL     OW56222   0.604  10.300   1.262 -0.1915 -0.3325  0.4550
17948SOL    HW156223   0.522  10.346   1.277 -0.6662 -0.8826 -0.4289
17948SOL    HW256224   0.607  10.285   1.168 -0.3010 -2.5419  0.7446
17949SOL     OW56225  10.025   6.743   1.126  0.1562 -0.3609  0.9562
17949SOL    HW156226  10.035   6.759   1.033 -0.5223 -2.0403  0.5572
17949SOL    HW256227  10.111   6.764   1.163  0.9818 -1.2959 -0.3243
17950SOL     OW56228  10.283   2.731   4.370 -0.4745  0.0297  0.6190
17950SOL    HW156229  10.236   2.658   4.408  1.2894 -1.4973  0.0295
17950SOL    HW256230  10.297   2.705   4.279 -0.9023  1.6944  0.0424
17951SOL     OW56231   9.031   2.760   1.250 -0.1539  0.4294 -0.5349
17951SOL    HW156232   8.944   2.792   1.227 -0.7042  1.6808  2.7676
17951SOL    HW256233   9.088   2.837   1.241  0.5959 -0.2525 -2.1610
17952SOL     OW56234   8.722   2.636   6.040  0.1242 -0.3801 -0.1501
17952SOL    HW156235   8.638   2.592   6.024 -0.6469  1.2835 -0.9161
17952SOL    HW256236   8.699   2.728   6.051  1.7794 -0.0175  0.5549
17953SOL     OW56237   4.057   3.205   5.225 -0.2650  0.1843 -0.2283
17953SOL    HW156238   4.019   3.169   5.305 -0.2817  0.8527  0.0759
17953SOL    HW256239   4.065   3.299   5.243 -0.3466  0.3556 -1.0421
17954SOL     OW56240   1.579   7.495  10.647 -0.5040 -0.4838 -0.5925
17954SOL    HW156241   1.597   7.529  10.735  2.2231 -0.3986 -1.0892
17954SOL    HW256242   1.574   7.400  10.658 -1.1513 -0.4146 -0.2283
17955SOL     OW56243   6.064   1.191   1.857 -0.3343 -0.3095 -0.3110
17955SOL    HW156244   6.143   1.153   1.820  0.0315  0.2296 -0.0983
17955SOL    HW256245   6.011   1.116   1.884  0.4207 -0.6634  0.2035
17956SOL     OW56246   4.321   1.224   1.382  0.0965  0.3311 -0.2402
17956SOL    HW156247   4.323   1.216   1.477 -2.0077 -1.1416 -0.2481
17956SOL    HW256248   4.410   1.247   1.358  0.9842 -0.5069  1.9879
17957SOL     OW56249   2.453   6.083   4.130 -0.4434  0.1502 -0.0097
17957SOL    HW156250   2.388   6.133   4.080 -0.9214 -0.3954  0.0545
17957SOL    HW256251   2.528   6.142   4.138 -0.7269  0.5909 -0.5489
17958SOL     OW56252   4.724   6.383   5.687 -0.0683  0.1871 -0.2423
17958SOL    HW156253   4.820   6.391   5.687 -0.0819  0.3540  0.3721
17958SOL    HW256254   4.692   6.466   5.722 -0.4616  0.3290 -0.9198
17959SOL     OW56255   2.525   8.486   8.897 -0.3992  0.1457 -0.5157
17959SOL    HW156256   2.486   8.571   8.876 -0.1921  0.3497 -0.0879
17959SOL    HW256257   2.583   8.504   8.971 -2.1168 -0.7787  1.1402
17960SOL     OW56258   9.161   9.428   6.322 -0.3335  0.3534  0.0719
17960SOL    HW156259   9.133   9.340   6.299  1.1459 -0.1696  0.1754
17960SOL    HW256260   9.115   9.485   6.260  0.4304 -0.6765 -1.4873
17961SOL     OW56261   4.280   8.299   8.337  0.4855 -0.2127 -0.4322
17961SOL    HW156262   4.230   8.378   8.316 -0.3306 -0.7682 -0.6403
17961SOL    HW256263   4.235   8.262   8.414 -0.5573 -1.6742 -1.6853
17962SOL     OW56264   6.130   0.814   7.695  0.4909 -0.0224  0.1796
17962SOL    HW156265   6.103   0.724   7.678 -2.4514  0.0999  3.0979
17962SOL    HW256266   6.097   0.863   7.620 -1.1230 -0.9559  0.2238
17963SOL     OW56267   5.688   8.621   7.199 -0.1442  0.3231  0.1854
17963SOL    HW156268   5.704   8.690   7.135 -1.5824 -0.1660 -0.7646
17963SOL    HW256269   5.718   8.657   7.283 -0.8627  2.0987 -0.2865
17964SOL     OW56270   6.854   7.675   6.809  0.4087  0.4943  0.3762
17964SOL    HW156271   6.822   7.588   6.831  0.9159  0.0222 -0.6832
17964SOL    HW256272   6.775   7.725   6.789  0.0173  0.6592  2.2117
17965SOL     OW56273   6.535   4.206   3.237  0.1309 -0.5055  0.4380
17965SOL    HW156274   6.518   4.300   3.247  2.8857 -0.1611  3.1780
17965SOL    HW256275   6.455   4.172   3.196 -1.1297  2.9231 -0.2863
17966SOL     OW56276   2.514   9.281   7.731  0.2602  0.5475  0.2259
17966SOL    HW156277   2.457   9.339   7.781  1.7474  1.3376  1.0811
17966SOL    HW256278   2.598   9.327   7.726  0.8117 -0.5138 -1.0806
17967SOL     OW56279   0.503   7.673   6.509  0.3846 -0.1102 -0.0823
17967SOL    HW156280   0.522   7.591   6.464  1.7352  0.6873 -0.9991
17967SOL    HW256281   0.586   7.700   6.547 -0.2923  0.2785  1.2091
17968SOL     OW56282   0.514   9.957   4.375  0.1463  0.1611  0.1059
17968SOL    HW156283   0.507  10.052   4.388 -1.8114  0.0712 -0.0417
17968SOL    HW256284   0.538   9.923   4.461 -2.9928  0.4956  1.2438
17969SOL     OW56285   7.218   9.176   0.032  0.0400 -0.0941  0.1889
17969SOL    HW156286   7.255   9.096  -0.006  1.1582 -0.2839  1.5896
17969SOL    HW256287   7.199   9.153   0.123  0.7193  1.3004  0.7170
17970SOL     OW56288   1.616  10.519   0.882 -0.4738  0.0666  0.1135
17970SOL    HW156289   1.542  10.497   0.938 -0.7989  1.0324  0.0803
17970SOL    HW256290   1.576  10.554   0.802  0.0042  0.0215 -0.1499
17971SOL     OW56291   2.810   8.699   8.399 -0.2637 -0.1011  0.0652
17971SOL    HW156292   2.760   8.781   8.402  0.4335  0.3050  1.1721
17971SOL    HW256293   2.855   8.695   8.483  1.4658 -0.5208 -0.8319
17972SOL     OW56294   8.433   6.258   6.740 -0.1204  0.0688 -0.1535
17972SOL    HW156295   8.485   6.251   6.660 -0.2015 -3.0533 -0.0564
17972SOL    HW256296   8.344   6.238   6.713 -0.2852 -0.2228  0.5698
17973SOL     OW56297   1.556   4.724   7.388 -0.4112  0.1383 -0.4703
17973SOL    HW156298   1.543   4.759   7.477 -1.7376  0.6826 -0.8424
17973SOL    HW256299   1.580   4.632   7.401  0.9212  0.5940  0.4754
17974SOL     OW56300   0.164   6.622   0.698  0.7503  0.1933  0.3420
17974SOL    HW156301   0.123   6.691   0.752 -1.0441 -0.8668  0.4212
17974SOL    HW256302   0.251   6.611   0.736  1.7804  3.5155 -0.6887
17975SOL     OW56303   3.099   4.022   9.268 -0.3951  0.1596  0.1265
17975SOL    HW156304   3.185   4.055   9.239 -0.4937  0.7328  0.4594
17975SOL    HW256305   3.048   4.013   9.188 -0.0024 -0.2451 -0.0804
17976SOL     OW56306   1.152   6.233   0.724  0.0440 -0.2854  0.0182
17976SOL    HW156307   1.074   6.279   0.756 -0.5405 -1.0587 -0.2824
17976SOL    HW256308   1.203   6.215   0.803 -0.5493 -0.6333  0.3284
17977SOL     OW56309   8.391   9.008   1.385  0.2163 -0.0753 -0.2057
17977SOL    HW156310   8.424   8.918   1.381 -1.1250 -0.5572 -1.2662
17977SOL    HW256311   8.455   9.059   1.334 -0.5081 -0.9726 -2.1395
17978SOL     OW56312   1.826   7.756   8.913  0.4169  0.0045 -0.4776
17978SOL    HW156313   1.850   7.836   8.867 -0.5338 -0.0835 -1.1675
17978SOL    HW256314   1.753   7.720   8.862 -0.3741 -0.3386  0.8376
17979SOL     OW56315   9.377   8.710   1.657 -0.4067  0.5365 -0.6858
17979SOL    HW156316   9.292   8.705   1.614 -1.1034  0.5752  0.6378
17979SOL    HW256317   9.387   8.802   1.680 -0.7403  0.2737  0.5615
17980SOL     OW56318   4.176   3.686   3.236 -0.0011  0.1742  0.0091
17980SOL    HW156319   4.136   3.616   3.289  0.3657  0.2151  0.3469
17980SOL    HW256320   4.160   3.659   3.146  0.2749 -0.4281  0.1348
17981SOL     OW56321   6.685   0.317   5.495 -0.0546  0.3711  0.3287
17981SOL    HW156322   6.775   0.288   5.503 -0.8977 -2.0717  1.8473
17981SOL    HW256323   6.659   0.291   5.406  0.8536  1.6685 -0.3558
17982SOL     OW56324   2.738   1.185   9.853  0.7508 -0.2810  0.1379
17982SOL    HW156325   2.662   1.204   9.908  0.3983 -0.8951 -0.1229
17982SOL    HW256326   2.806   1.243   9.886 -0.0174  0.7770 -0.0752
17983SOL     OW56327   1.418   8.313   8.061  0.0952 -0.2936 -0.0079
17983SOL    HW156328   1.371   8.255   8.002  0.5666  0.5140 -1.1993
17983SOL    HW256329   1.460   8.254   8.124  1.3700 -1.3567 -1.7629
17984SOL     OW56330   0.303   4.183   8.800  0.0458  0.3259 -0.2809
17984SOL    HW156331   0.383   4.140   8.829 -0.3093  0.5747  1.1117
17984SOL    HW256332   0.274   4.235   8.875 -0.7172  1.2791 -1.1977
17985SOL     OW56333   7.815  10.163   3.604  0.1655 -0.2001  0.9482
17985SOL    HW156334   7.785  10.159   3.513  0.4972  0.1272  0.8214
17985SOL    HW256335   7.739  10.135   3.655 -0.1109 -0.1204  0.5884
17986SOL     OW56336   7.309   9.982   0.294  0.4926  0.4021 -0.7473
17986SOL    HW156337   7.250   9.911   0.270 -0.8516  0.6699  1.5418
17986SOL    HW256338   7.270  10.059   0.252 -0.0564  0.3611 -0.3242
17987SOL     OW56339   7.919   2.090  10.648  0.1335 -0.3586 -0.0808
17987SOL    HW156340   8.002   2.098  10.695  0.4438  1.2956 -0.8589
17987SOL    HW256341   7.944   2.067  10.559 -0.3383 -1.2458  0.0038
17988SOL     OW56342   2.016   6.433   0.884  0.2544 -0.3382 -0.3461
17988SOL    HW156343   1.995   6.481   0.804  0.4471  0.1005 -0.1356
17988SOL    HW256344   2.111   6.426   0.884  0.4416  1.4396  0.8360
17989SOL     OW56345   8.695   4.296   4.205  0.1750  0.6933  1.1850
17989SOL    HW156346   8.683   4.331   4.117 -2.1752  1.7969  1.8491
17989SOL    HW256347   8.771   4.343   4.239 -0.1400  1.7770  0.4404
17990SOL     OW56348   4.918   9.545   5.691  0.1557 -0.6929  0.3011
17990SOL    HW156349   4.949   9.601   5.762  0.2433 -0.9952  0.5030
17990SOL    HW256350   4.843   9.592   5.654  0.3335 -0.3640  0.3591
17991SOL     OW56351   2.996   9.209   6.814  0.3052  0.2192 -0.0840
17991SOL    HW156352   3.039   9.128   6.786  0.4844 -0.0268  0.8588
17991SOL    HW256353   3.052   9.279   6.781  0.9306 -0.0781  0.3246
17992SOL     OW56354   5.777   6.564   7.432 -0.3048 -0.1566  0.3616
17992SOL    HW156355   5.821   6.642   7.395  0.7417 -1.0078 -0.2521
17992SOL    HW256356   5.843   6.523   7.487 -1.4587  0.3931  2.2401
17993SOL     OW56357   6.094   8.292   3.200  0.8070  0.2286  0.4339
17993SOL    HW156358   6.019   8.341   3.234  0.1221 -0.4614 -0.0611
17993SOL    HW256359   6.076   8.283   3.106  0.5374 -1.6154  0.6350
17994SOL     OW56360   7.127   8.482   9.666 -0.0310 -1.2075  0.0194
17994SOL    HW156361   7.182   8.543   9.618  0.5406 -0.3080  1.7415
17994SOL    HW256362   7.118   8.407   9.607  1.8451 -0.7782 -0.9039
17995SOL     OW56363   3.351   6.180   4.316 -0.4209  0.1002 -0.0841
17995SOL    HW156364   3.402   6.129   4.253  0.3057 -0.1813  0.7017
17995SOL    HW256365   3.348   6.269   4.279  3.6982  1.0947  1.3975
17996SOL     OW56366   6.296   1.331   2.552  0.0192 -0.0983  0.0616
17996SOL    HW156367   6.311   1.294   2.464 -0.0660  0.9135 -0.3951
17996SOL    HW256368   6.306   1.257   2.611  3.0980 -0.3047 -0.5252
17997SOL     OW56369   3.052   1.314   1.736 -0.3906  0.1141 -0.1260
17997SOL    HW156370   3.032   1.326   1.643 -1.1885  0.9311  0.1325
17997SOL    HW256371   3.097   1.395   1.760 -2.0327  0.8442  0.6664
17998SOL     OW56372   3.476   0.707   4.327 -0.2373 -0.4722 -0.0862
17998SOL    HW156373   3.394   0.692   4.375 -0.4522  1.3096  0.1893
17998SOL    HW256374   3.449   0.746   4.244  0.3040 -0.2229 -0.1534
17999SOL     OW56375   0.295   5.214   8.153 -0.1631  0.0364 -0.0235
17999SOL    HW156376   0.378   5.188   8.114 -1.0417  1.1448 -2.9518
17999SOL    HW256377   0.311   5.302   8.187  0.6529 -0.9985  2.4474
18000SOL     OW56378   0.061   5.862   6.342 -0.4627  0.3126 -0.1857
18000SOL    HW156379   0.075   5.878   6.435  0.8766 -2.2458  0.1415
18000SOL    HW256380   0.122   5.922   6.298 -2.1794  2.6436  0.4211
18001SOL     OW56381   1.817   8.415   6.698 -0.1952  0.1352  0.6748
18001SOL    HW156382   1.868   8.384   6.623 -0.8828 -0.3521  0.3912
18001SOL    HW256383   1.760   8.483   6.661  0.6791  1.1335  1.1156
18002SOL     OW56384   0.065   2.690   2.776  0.3150 -0.6987 -0.4562
18002SOL    HW156385   0.153   2.667   2.747  0.4023  0.6639 -1.3570
18002SOL    HW256386   0.008   2.659   2.705 -0.1809 -3.2270  0.9259
18003SOL     OW56387   1.141   5.905   9.774  0.1572 -0.0298  0.2268
18003SOL    HW156388   1.152   5.893   9.679 -1.3388  1.3145 -0.1661
18003SOL    HW256389   1.227   5.933   9.804  0.4890  0.2069 -0.8757
18004SOL     OW56390   9.074   4.004   8.100 -0.2586  0.1883  0.3510
18004SOL    HW156391   8.985   3.972   8.113 -0.1321 -0.0850  0.5505
18004SOL    HW256392   9.066   4.070   8.031 -0.6000  0.0949  0.3015
18005SOL     OW56393   6.726   8.349   3.574  0.2909 -0.1355 -0.2793
18005SOL    HW156394   6.814   8.312   3.572  0.0714 -0.7532 -2.8345
18005SOL    HW256395   6.671   8.279   3.609  0.4521 -0.8051 -1.3210
18006SOL     OW56396   7.607   8.904   2.536  0.5169 -0.3194 -0.3558
18006SOL    HW156397   7.528   8.902   2.591 -0.0926 -0.2849 -1.2130
18006SOL    HW256398   7.677   8.925   2.597 -0.3993  1.5790  0.1160
18007SOL     OW56399   9.332   9.964   5.694 -0.0697 -0.3617 -0.1839
18007SOL    HW156400   9.267   9.903   5.659  1.4477 -0.0046 -4.0017
18007SOL    HW256401   9.415   9.919   5.686  0.8441  1.3964 -1.1232
18008SOL     OW56402   6.900   1.701   2.934 -0.6148 -0.0552 -0.4586
18008SOL    HW156403   6.843   1.624   2.932 -0.7694 -0.0114  0.9323
18008SOL    HW256404   6.842   1.774   2.913 -1.7754  0.3170  3.2421
18009SOL     OW56405   0.634   2.786   2.303  0.0666  0.6618  0.3315
18009SOL    HW156406   0.578   2.840   2.247  0.6337  0.7905 -0.1212
18009SOL    HW256407   0.657   2.711   2.248 -1.3758 -0.4987  1.2076
18010SOL     OW56408   1.661   7.608   8.238 -0.2521 -0.4982  0.2473
18010SOL    HW156409   1.664   7.525   8.286 -0.6358 -0.6316  0.0537
18010SOL    HW256410   1.738   7.606   8.182 -1.4011 -1.7800 -1.4170
18011SOL     OW56411   8.686  10.141   5.752  0.2365 -0.0316 -0.4540
18011SOL    HW156412   8.729  10.092   5.682 -0.7711 -0.4077 -0.8219
18011SOL    HW256413   8.664  10.225   5.712  2.1061  0.8472  0.2197
18012SOL     OW56414   2.777   2.186   9.338  0.0524  0.0136 -0.3880
18012SOL    HW156415   2.711   2.239   9.293 -0.2797  1.0566  1.2790
18012SOL    HW256416   2.733   2.155   9.417  0.7361 -1.5246 -0.5780
18013SOL     OW56417   7.736   4.815  10.255  0.4870  0.2552  0.9508
18013SOL    HW156418   7.695   4.748  10.201 -0.4419 -1.8315  4.0236
18013SOL    HW256419   7.829   4.796  10.251  0.4896  0.4260 -0.1959
18014SOL     OW56420   4.625   0.481   7.885 -0.0724 -0.4348  0.2693
18014SOL    HW156421   4.582   0.412   7.833 -0.9460  1.4532 -1.6643
18014SOL    HW256422   4.565   0.496   7.958 -0.7882 -0.5268 -0.2785
18015SOL     OW56423   8.471   6.520   0.626 -0.5213  0.3671  0.0641
18015SOL    HW156424   8.521   6.595   0.594 -0.4634 -0.0597 -0.8796
18015SOL    HW256425   8.419   6.554   0.698  0.2627  1.0848  0.3062
18016SOL     OW56426   4.715   0.312   2.623 -0.0625  0.0492  0.4262
18016SOL    HW156427   4.665   0.391   2.640  1.0636  0.8096  0.3270
18016SOL    HW256428   4.682   0.279   2.540 -0.7948  0.1940  0.6500
18017SOL     OW56429   0.547   0.867   5.836 -0.7021 -0.2067 -0.5584
18017SOL    HW156430   0.573   0.777   5.819 -0.6533 -0.0736 -1.2274
18017SOL    HW256431   0.508   0.897   5.754  2.2809  1.4406 -1.5305
18018SOL     OW56432   0.192   2.579   6.161  0.3334 -0.3882 -0.3019
18018SOL    HW156433   0.164   2.592   6.071  1.7671 -0.3878 -0.7667
18018SOL    HW256434   0.205   2.484   6.169  1.0332 -0.3035 -0.3632
18019SOL     OW56435   1.360   7.955   9.824 -0.1266 -0.1304 -0.2641
18019SOL    HW156436   1.287   7.894   9.809  0.2609 -0.7928  0.4513
18019SOL    HW256437   1.327   8.015   9.891 -1.2217  1.7268 -2.3517
18020SOL     OW56438   2.558   8.197   1.286 -0.8789 -0.4390 -0.0020
18020SOL    HW156439   2.482   8.194   1.344 -1.0508 -2.0756 -0.2566
18020SOL    HW256440   2.536   8.263   1.220 -2.1000 -0.9007 -0.0818
18021SOL     OW56441  10.500   5.587   1.753  0.1972  0.3079  0.5090
18021SOL    HW156442  10.515   5.665   1.807  1.1913 -0.0365  0.7508
18021SOL    HW256443  10.563   5.523   1.785  1.6205  0.4434 -1.7732
18022SOL     OW56444   8.241   8.876   9.976 -0.7213  0.4552  0.4830
18022SOL    HW156445   8.260   8.903  10.066 -0.8624 -0.7640  0.9059
18022SOL    HW256446   8.327   8.876   9.933 -0.5665  0.4629  0.7856
18023SOL     OW56447   8.547   2.779   7.003 -0.1819 -0.5464  0.1907
18023SOL    HW156448   8.534   2.684   7.010  0.1112 -0.6605 -0.6573
18023SOL    HW256449   8.634   2.788   6.964  0.1898  0.0967  1.1156
18024SOL     OW56450   8.342   2.886   1.704 -0.5141 -0.0643  0.1075
18024SOL    HW156451   8.279   2.885   1.631 -0.4126  2.2542 -0.0966
18024SOL    HW256452   8.320   2.808   1.755 -2.7182 -0.0326 -0.6569
18025SOL     OW56453   2.333   7.617   5.832  0.3120 -0.1158  0.6721
18025SOL    HW156454   2.422   7.607   5.797 -0.5856  0.7553 -2.1651
18025SOL    HW256455   2.337   7.694   5.888  1.1940  0.4096 -0.0888
18026SOL     OW56456   7.297   3.127   4.160 -0.2868 -0.7032  0.6382
18026SOL    HW156457   7.290   3.075   4.240 -1.7859 -0.5235  0.6365
18026SOL    HW256458   7.345   3.071   4.099  0.5286 -0.9914  1.5219
18027SOL     OW56459   0.583   9.593   5.879 -0.4228 -0.5472 -0.3937
18027SOL    HW156460   0.512   9.531   5.865 -1.3065 -0.1639  1.8886
18027SOL    HW256461   0.540   9.674   5.905  0.7881  0.5250 -1.5636
18028SOL     OW56462   9.453   9.344   2.150 -0.4129  0.4872 -0.3799
18028SOL    HW156463   9.409   9.395   2.218 -0.1443 -0.1219  0.2579
18028SOL    HW256464   9.398   9.356   2.072 -0.3711  1.7210 -0.2431
18029SOL     OW56465   0.195   7.869   0.656 -0.6402 -0.0690  0.2707
18029SOL    HW156466   0.245   7.800   0.699 -0.0411 -0.6682 -1.3153
18029SOL    HW256467   0.111   7.828   0.636 -1.0794  0.3421  1.2185
18030SOL     OW56468   4.635   7.098  10.564 -0.2189 -0.0131  0.4312
18030SOL    HW156469   4.678   7.170  10.610  3.4186 -0.0354 -2.4465
18030SOL    HW256470   4.544   7.126  10.553  0.9074  3.9643 -0.1098
18031SOL     OW56471   2.598   7.950   3.626 -0.1298 -0.7374 -0.1629
18031SOL    HW156472   2.623   8.041   3.637 -0.0340 -0.9035  1.0405
18031SOL    HW256473   2.680   7.901   3.632 -0.2868 -0.9742  0.0769
18032SOL     OW56474   7.502   9.252  10.764  0.2985  0.1398 -0.0932
18032SOL    HW156475   7.433   9.290  10.818  0.0536 -1.1070  0.5132
18032SOL    HW256476   7.463   9.174  10.725  1.0571 -0.0251 -0.5572
18033SOL     OW56477   9.978   9.428   1.871 -0.4379  0.5791  0.2326
18033SOL    HW156478   9.969   9.454   1.779  1.8654  0.0279 -0.2126
18033SOL    HW256479  10.050   9.365   1.871 -1.1192 -0.2696  2.2832
18034SOL     OW56480   3.605   7.747   2.717  0.2966 -0.2364  0.7306
18034SOL    HW156481   3.580   7.658   2.740 -2.3941 -0.1276 -1.2685
18034SOL    HW256482   3.584   7.798   2.795 -0.3312 -1.0478  1.1155
18035SOL     OW56483   7.338  10.054   8.627  0.0811 -0.0396 -0.1623
18035SOL    HW156484   7.362  10.010   8.546 -1.6025 -0.2109 -0.5929
18035SOL    HW256485   7.306  10.140   8.600  3.7125  1.7696  0.6903
18036SOL     OW56486   3.161   2.295   4.860  0.0549  0.1944  0.7264
18036SOL    HW156487   3.191   2.384   4.880  1.7148 -0.3474  0.7508
18036SOL    HW256488   3.178   2.245   4.940  1.1342 -0.6136  0.0176
18037SOL     OW56489   1.939   1.999   3.181 -0.6591 -0.4513  0.1287
18037SOL    HW156490   2.008   2.057   3.214 -0.6384  1.0079 -2.2005
18037SOL    HW256491   1.927   1.933   3.249  0.5178  1.3267  2.1679
18038SOL     OW56492  10.248   1.442   5.023  0.1103  0.4765 -0.4256
18038SOL    HW156493  10.177   1.407   4.968  0.9593 -1.4521 -0.3821
18038SOL    HW256494  10.204   1.469   5.103 -0.9737  2.2051 -1.5224
18039SOL     OW56495   0.798   6.769   5.560  0.3193  0.1495 -0.4241
18039SOL    HW156496   0.722   6.749   5.506 -0.3588 -0.8421  0.8427
18039SOL    HW256497   0.830   6.684   5.588  0.5258  0.6401  0.8911
18040SOL     OW56498   7.929  10.425   0.874  0.0511  0.2914 -0.3583
18040SOL    HW156499   7.882  10.386   0.800  2.0938 -1.6301 -0.7197
18040SOL    HW256500   7.939  10.354   0.937  1.6755  0.8734  0.0868
18041SOL     OW56501  10.514   6.189   9.811 -0.6668  0.8367 -0.2967
18041SOL    HW156502  10.505   6.193   9.906  0.9371  0.5480 -0.0992
18041SOL    HW256503  10.603   6.156   9.797  0.7725  4.7956 -1.8757
18042SOL     OW56504   7.961   1.403   6.774 -0.0910 -0.2507  0.1452
18042SOL    HW156505   7.916   1.471   6.825  0.5328 -0.1700  0.6063
18042SOL    HW256506   8.050   1.403   6.809 -0.0399 -1.1930  0.0246
18043SOL     OW56507   4.330   8.883   3.857  0.0425  0.1481  0.1146
18043SOL    HW156508   4.256   8.896   3.915 -0.6825  0.6897 -0.8939
18043SOL    HW256509   4.348   8.789   3.861  0.2492  0.2354  1.4767
18044SOL     OW56510   5.241   3.042   4.161  0.3647  0.2356 -0.5335
18044SOL    HW156511   5.154   3.082   4.159 -0.1701 -0.8181  0.3296
18044SOL    HW256512   5.293   3.101   4.217 -0.0437  0.4004 -0.3223
18045SOL     OW56513   4.143   8.980   6.623 -0.1324  0.2591  0.0511
18045SOL    HW156514   4.215   8.996   6.562  0.0861  0.0337  0.2507
18045SOL    HW256515   4.109   8.894   6.599  0.1529  0.0300  0.4382
18046SOL     OW56516   4.328   1.911  10.048 -0.8333 -0.7280  0.2061
18046SOL    HW156517   4.279   1.970  10.106 -0.7776  0.1887 -0.6533
18046SOL    HW256518   4.420   1.933  10.065 -0.7824 -1.0728  0.3896
18047SOL     OW56519   9.755   0.541   3.482  0.0923 -0.1037  0.2248
18047SOL    HW156520   9.844   0.519   3.509  0.1889 -0.5867 -0.4593
18047SOL    HW256521   9.750   0.514   3.390 -0.0399  1.9808 -0.4529
18048SOL     OW56522   9.469   7.526   3.520  0.3481  0.0034 -0.1788
18048SOL    HW156523   9.513   7.610   3.534  1.1659 -0.5435  0.5980
18048SOL    HW256524   9.446   7.527   3.427 -0.4160  1.4345 -0.0147
18049SOL     OW56525  10.536   6.989   8.982 -0.0016 -0.1108  0.2938
18049SOL    HW156526  10.558   6.911   8.931  2.9659 -0.1633  1.4292
18049SOL    HW256527  10.458   6.965   9.031  0.3518 -2.0566 -0.0218
18050SOL     OW56528   2.510   1.663   1.172  0.3862  0.3685  0.2047
18050SOL    HW156529   2.458   1.730   1.128  0.2305 -0.6129 -1.1988
18050SOL    HW256530   2.451   1.589   1.182  1.0094 -0.1440  0.1812
18051SOL     OW56531   3.849   4.177   3.392 -0.3248  0.1588 -0.0572
18051SOL    HW156532   3.813   4.104   3.442  1.8725  0.1351  1.6338
18051SOL    HW256533   3.830   4.254   3.445  1.5921  0.1939  0.6421
18052SOL     OW56534   6.202   8.250  10.153 -0.3013 -0.3183  0.0233
18052SOL    HW156535   6.158   8.313  10.096  0.4026 -1.4846 -1.9231
18052SOL    HW256536   6.292   8.281  10.158 -0.2165 -0.5598 -0.0057
18053SOL     OW56537  10.700   0.015   9.731 -0.1091 -0.0164  0.0936
18053SOL    HW156538  10.629  -0.030   9.776 -0.2061  1.5044  1.5432
18053SOL    HW256539  10.678   0.108   9.736  1.8151  0.4813  0.3370
18054SOL     OW56540   3.087   8.740  10.467 -0.3950  0.2264  0.8217
18054SOL    HW156541   2.995   8.754  10.490 -0.3272  3.7532 -0.4450
18054SOL    HW256542   3.085   8.716  10.374 -0.0404  2.2135  0.2550
18055SOL     OW56543   7.245   8.974   9.304 -0.2280 -0.0245  0.5070
18055SOL    HW156544   7.306   9.044   9.279 -0.5594  0.1591  0.2085
18055SOL    HW256545   7.298   8.914   9.357  0.5659 -0.5638 -0.8414
18056SOL     OW56546   6.572   9.087   7.832  0.1142  0.3745  0.6258
18056SOL    HW156547   6.479   9.086   7.812  0.5712 -0.1340 -1.7153
18056SOL    HW256548   6.587   9.170   7.877 -1.6769 -0.1870  2.4158
18057SOL     OW56549   1.119   1.292   0.275  0.3490  0.4542  0.0334
18057SOL    HW156550   1.131   1.309   0.181  0.5383 -1.5649 -0.3647
18057SOL    HW256551   1.206   1.267   0.306  0.3850  1.5641  0.8797
18058SOL     OW56552   1.366   1.600   0.231  0.3364  0.2370 -0.1958
18058SOL    HW156553   1.295   1.619   0.293  1.1868 -2.0422  1.6340
18058SOL    HW256554   1.350   1.660   0.158 -2.1844  1.3315  1.0978
18059SOL     OW56555   7.634   4.095   4.437 -0.3095 -0.1381 -0.0973
18059SOL    HW156556   7.727   4.112   4.421 -0.3689 -0.3379 -0.6621
18059SOL    HW256557   7.622   4.002   4.417 -0.4009 -0.3957  1.0718
18060SOL     OW56558   6.271   8.760   7.638 -0.2897  0.1759  0.0971
18060SOL    HW156559   6.239   8.845   7.670 -0.3396  0.0956  0.2614
18060SOL    HW256560   6.192   8.713   7.611 -0.3166 -0.0479  0.5643
18061SOL     OW56561  10.501   8.829   2.263  0.5177 -0.4555 -0.0296
18061SOL    HW156562  10.526   8.768   2.332  1.3688  1.1689  1.1771
18061SOL    HW256563  10.415   8.862   2.289  1.3457  1.0527  0.9834
18062SOL     OW56564   3.850   8.601   2.102  0.1180 -0.6093 -0.5207
18062SOL    HW156565   3.884   8.536   2.163 -0.2751 -0.3067  0.0279
18062SOL    HW256566   3.881   8.571   2.016  2.4069  0.0633 -0.0023
18063SOL     OW56567   3.037   3.689   3.462  0.0042  0.2845  0.3376
18063SOL    HW156568   2.983   3.685   3.384 -0.5547  0.4136  0.7120
18063SOL    HW256569   2.985   3.643   3.529 -0.6205  2.2419  1.2691
18064SOL     OW56570   4.223   4.964   2.185  0.7721 -0.1670  0.5917
18064SOL    HW156571   4.259   4.876   2.188 -1.4618 -1.1041  2.3493
18064SOL    HW256572   4.245   5.002   2.270  3.7584  1.9889 -0.9327
18065SOL     OW56573   1.927   7.191   4.412  0.2855  0.1685  0.6846
18065SOL    HW156574   1.961   7.102   4.413  0.6359  0.2891  0.0746
18065SOL    HW256575   1.855   7.190   4.475  0.0807 -0.6236  0.4483
18066SOL     OW56576  10.494   9.131   9.510  0.1796 -0.5244  0.6951
18066SOL    HW156577  10.491   9.194   9.582 -2.5600 -0.5514  0.7284
18066SOL    HW256578  10.587   9.114   9.496  1.2282  4.3209 -0.0787
18067SOL     OW56579   6.758   5.217   0.013 -0.4358  0.3511  0.0498
18067SOL    HW156580   6.670   5.215  -0.024 -0.5884  2.8911  0.0805
18067SOL    HW256581   6.746   5.193   0.105 -0.9637 -0.1504 -0.1474
18068SOL     OW56582   2.560   9.367   8.492  0.7167 -0.0647  0.7553
18068SOL    HW156583   2.604   9.451   8.506  1.7719 -0.2663 -1.0539
18068SOL    HW256584   2.631   9.303   8.485  0.0481 -0.7402 -0.1056
18069SOL     OW56585   5.664   1.058   3.431 -0.3395 -0.1601  0.4492
18069SOL    HW156586   5.730   0.989   3.421 -1.4248 -1.0687 -0.7794
18069SOL    HW256587   5.610   1.051   3.352 -1.2836  1.2492  0.9280
18070SOL     OW56588   8.851   7.722   9.034 -0.1416  0.2170 -1.1570
18070SOL    HW156589   8.857   7.807   8.990 -2.2717  0.7916 -0.4606
18070SOL    HW256590   8.867   7.741   9.126 -1.0354 -0.0307 -0.9339
18071SOL     OW56591   2.605   4.536   0.023 -0.3407 -0.2250 -0.0380
18071SOL    HW156592   2.641   4.452   0.051  0.1164 -0.1859 -0.4887
18071SOL    HW256593   2.535   4.555   0.086  1.6436  0.6029  2.0823
18072SOL     OW56594  10.179   6.425   3.572 -0.2804  0.2005  0.1535
18072SOL    HW156595  10.098   6.476   3.575 -1.6428 -1.8344  0.3262
18072SOL    HW256596  10.195   6.401   3.663 -0.1121 -0.3072 -0.0064
18073SOL     OW56597   6.071   6.109   9.272 -0.0089  0.1694  0.0776
18073SOL    HW156598   6.101   6.040   9.213 -0.2305  0.4464 -0.3573
18073SOL    HW256599   6.119   6.092   9.354  1.3325  0.6015 -0.5989
18074SOL     OW56600   8.909   5.159   9.571 -0.1579  0.1263  0.3719
18074SOL    HW156601   8.930   5.201   9.488  0.5573 -0.8231  0.0572
18074SOL    HW256602   8.991   5.118   9.599 -0.1882  1.0772  1.9361
18075SOL     OW56603   5.949  10.787   7.607  0.5338 -0.0347  0.2077
18075SOL    HW156604   5.924  10.876   7.580 -0.0515  0.2436  1.5803
18075SOL    HW256605   6.035  10.773   7.569  0.2466  0.7719 -0.7829
18076SOL     OW56606   7.691   1.044   5.106 -0.2192  0.3756  0.1923
18076SOL    HW156607   7.699   0.968   5.048  0.3500  0.3172  0.3454
18076SOL    HW256608   7.768   1.041   5.162 -0.9195  0.2617  1.1786
18077SOL     OW56609   2.443   3.212   1.971  0.1129  0.2691  0.4298
18077SOL    HW156610   2.512   3.275   1.993  0.2703  1.2665 -2.4887
18077SOL    HW256611   2.490   3.129   1.961  0.8284  0.8146 -0.9453
18078SOL     OW56612   7.812   4.278   7.567  0.1900 -0.5429  0.0899
18078SOL    HW156613   7.739   4.337   7.584  0.4850  0.1906 -1.0888
18078SOL    HW256614   7.772   4.199   7.531  0.0349  0.3598 -1.8187
18079SOL     OW56615   3.008   7.098   1.360  0.4547 -0.1015 -0.2880
18079SOL    HW156616   2.974   7.143   1.282 -0.8589 -0.1037  0.2664
18079SOL    HW256617   2.987   7.006   1.345  0.7215 -0.1800 -0.1866
18080SOL     OW56618   7.818   2.265   1.756  0.0787 -0.0563  0.3960
18080SOL    HW156619   7.749   2.254   1.822  0.4284  1.0971  0.9876
18080SOL    HW256620   7.881   2.325   1.798  1.0688 -0.5059 -0.4112
18081SOL     OW56621   3.505   9.912   7.011 -0.0152  0.6436  0.5896
18081SOL    HW156622   3.580   9.882   7.062  0.1687 -0.2680 -0.1805
18081SOL    HW256623   3.541   9.929   6.924 -0.4835  1.3491  0.5261
18082SOL     OW56624   8.204   0.048   3.675 -0.0577 -0.3466 -0.0057
18082SOL    HW156625   8.295   0.075   3.671  0.9474 -3.2035  0.9394
18082SOL    HW256626   8.204  -0.042   3.641 -2.0586 -1.3282  2.3010
18083SOL     OW56627   6.911   1.583   3.735 -0.4771  0.1747  0.2487
18083SOL    HW156628   6.947   1.537   3.811  0.2371  0.2517 -0.0303
18083SOL    HW256629   6.851   1.520   3.695  2.0550 -1.4127 -1.3599
18084SOL     OW56630   3.838   9.773   6.285  0.9333  0.0940 -0.2654
18084SOL    HW156631   3.910   9.797   6.343  1.6208 -0.9312 -0.6731
18084SOL    HW256632   3.789   9.706   6.332  2.3390 -1.8137 -1.3982
18085SOL     OW56633   6.857   9.252   0.008  0.5345 -0.2028  0.0405
18085SOL    HW156634   6.938   9.290  -0.027  0.5899 -0.1374  0.2343
18085SOL    HW256635   6.844   9.297   0.092 -1.3181  1.9661 -1.3237
18086SOL     OW56636   7.015   8.956   8.388 -0.0492 -0.3012  0.0448
18086SOL    HW156637   6.952   8.935   8.457 -2.6187  3.5888 -0.7506
18086SOL    HW256638   7.071   9.023   8.427 -0.2736  0.5168 -0.9849
18087SOL     OW56639   9.006   9.628   6.191  0.5002 -0.1485  0.1450
18087SOL    HW156640   9.051   9.642   6.108  0.2688  0.9888  0.1904
18087SOL    HW256641   8.930   9.687   6.187 -0.3854 -1.2345  0.5114
18088SOL     OW56642  10.697   1.580   8.890  0.2127 -0.5450  0.2513
18088SOL    HW156643  10.716   1.599   8.982 -2.8195 -1.9207  1.2838
18088SOL    HW256644  10.663   1.662   8.855 -1.3804 -0.7463  1.2376
18089SOL     OW56645   8.679   0.194   4.315 -0.4433 -0.0418  0.4532
18089SOL    HW156646   8.733   0.263   4.278  0.2956  0.1364  1.8217
18089SOL    HW256647   8.643   0.231   4.396 -2.1930 -0.3499 -0.1281
18090SOL     OW56648  10.323   6.204   1.715 -0.0482  0.0845  0.1164
18090SOL    HW156649  10.297   6.124   1.669 -1.2435 -0.3248  1.4214
18090SOL    HW256650  10.240   6.246   1.737  0.5254  0.7023  1.1389
18091SOL     OW56651   1.217  10.096   6.065 -0.2544  0.2645  0.3524
18091SOL    HW156652   1.206  10.001   6.067 -1.8311  0.4143 -0.2809
18091SOL    HW256653   1.268  10.115   6.144 -0.4488 -1.0365  0.8253
18092SOL     OW56654   9.749   9.716   1.253 -0.3146  0.1982  0.3819
18092SOL    HW156655   9.827   9.679   1.294 -0.1817  0.4763  0.3854
18092SOL    HW256656   9.774   9.806   1.231 -0.1417 -0.1551 -0.9560
18093SOL     OW56657   8.244  10.763   3.019 -0.1834  0.2261  0.3443
18093SOL    HW156658   8.180  10.760   3.090  0.1128 -3.0901  0.6462
18093SOL    HW256659   8.202  10.815   2.951 -1.6299  1.1842  1.8890
18094SOL     OW56660   2.404   8.107   9.435  0.6164 -0.1185  0.2286
18094SOL    HW156661   2.431   8.188   9.392 -2.1319  1.7686  1.7454
18094SOL    HW256662   2.349   8.063   9.370 -1.1804  1.3113  0.7012
18095SOL     OW56663   3.251  10.281   5.067  0.1996  0.0967  0.1633
18095SOL    HW156664   3.299  10.309   4.990 -0.4269 -0.0480 -0.2913
18095SOL    HW256665   3.171  10.240   5.032 -0.9504  1.5858  0.9140
18096SOL     OW56666   4.962   2.664   7.552 -0.3449  0.1304  0.4476
18096SOL    HW156667   4.998   2.703   7.472  0.1472 -0.3818  0.4163
18096SOL    HW256668   4.871   2.641   7.528  0.7512 -3.2691 -1.1685
18097SOL     OW56669   5.758   7.529   5.694  0.4513 -0.3381 -0.2381
18097SOL    HW156670   5.716   7.612   5.673 -0.1162 -1.1009 -2.4777
18097SOL    HW256671   5.715   7.466   5.636  2.3166 -1.7989 -0.1139
18098SOL     OW56672   8.162   0.796   2.151  0.6629 -0.2078 -0.3542
18098SOL    HW156673   8.135   0.877   2.107 -0.3582 -0.1351  0.3928
18098SOL    HW256674   8.230   0.823   2.212 -1.0179  0.4450  1.3016
18099SOL     OW56675   3.918   9.155   0.966 -0.1266 -0.3568 -0.2502
18099SOL    HW156676   3.853   9.084   0.973  1.1340 -1.6015 -0.7351
18099SOL    HW256677   3.875   9.222   0.914 -1.0757 -1.0927 -0.4467
18100SOL     OW56678   9.775   6.894   6.980  0.5125  0.2794  0.3147
18100SOL    HW156679   9.730   6.892   6.896 -0.5928  1.0648  0.8699
18100SOL    HW256680   9.863   6.924   6.959  0.3131  0.2690 -0.5844
18101SOL     OW56681   4.289  10.306   0.250 -0.2046 -0.2927  0.4747
18101SOL    HW156682   4.365  10.251   0.266  1.6295  1.8009 -0.5764
18101SOL    HW256683   4.243  10.308   0.334  2.7003  0.9671  2.1849
18102SOL     OW56684   3.355   6.117  10.103  0.2600 -0.0456  0.5179
18102SOL    HW156685   3.352   6.024  10.077 -0.3072  0.4700 -1.3922
18102SOL    HW256686   3.314   6.164  10.031  3.2722  2.0108 -0.0624
18103SOL     OW56687   4.469   9.470   1.671 -0.0466 -0.1840 -0.2131
18103SOL    HW156688   4.469   9.527   1.748 -0.7443 -2.5861  1.6771
18103SOL    HW256689   4.532   9.401   1.691 -0.3403 -0.9553 -1.7526
18104SOL     OW56690   0.546   8.497   1.324 -0.0568 -0.0340 -0.0839
18104SOL    HW156691   0.460   8.459   1.341 -1.2763  2.3589 -0.4931
18104SOL    HW256692   0.538   8.536   1.237  1.2162  0.8261  0.1544
18105SOL     OW56693   9.059   7.592   2.623  0.3142  0.1995 -0.0303
18105SOL    HW156694   9.001   7.580   2.698 -0.6992 -0.6611 -0.9127
18105SOL    HW256695   9.066   7.687   2.614 -0.6226  0.3212  0.3715
18106SOL     OW56696   1.889   3.327   7.429 -0.7936 -0.1428  0.1333
18106SOL    HW156697   1.982   3.319   7.408 -0.4136 -0.1866  1.6881
18106SOL    HW256698   1.850   3.247   7.394 -0.6022  0.6458 -2.0637
18107SOL     OW56699   7.145   8.874   5.675  0.5159 -0.1637  0.8371
18107SOL    HW156700   7.204   8.849   5.747  0.1263 -0.2035  1.1447
18107SOL    HW256701   7.203   8.887   5.600  0.8344 -1.0038  0.9238
18108SOL     OW56702   4.666   8.066   3.953 -0.1742  0.1090 -0.3458
18108SOL    HW156703   4.628   8.134   4.010  0.0983  1.1846 -1.4000
18108SOL    HW256704   4.599   8.051   3.887 -0.2135 -0.6462 -0.1437
18109SOL     OW56705   4.092   1.936   3.326 -0.4259  0.4948 -0.0728
18109SOL    HW156706   4.072   2.019   3.370  2.4068  0.0170  2.4653
18109SOL    HW256707   4.038   1.871   3.373  1.4074  0.2204  1.7982
18110SOL     OW56708   0.222   9.092   0.208  0.0131 -0.0386 -0.1293
18110SOL    HW156709   0.254   9.181   0.223  0.3043  0.1334 -1.5775
18110SOL    HW256710   0.293   9.049   0.161 -0.5231 -0.7133 -0.3429
18111SOL     OW56711   6.172   7.231   2.788 -0.0231 -0.0858 -0.0724
18111SOL    HW156712   6.164   7.267   2.699  1.0455 -0.8752 -0.5050
18111SOL    HW256713   6.266   7.220   2.801 -0.1265  0.6396  1.4258
18112SOL     OW56714   5.701   7.897   9.013  0.1116  0.1870  0.5197
18112SOL    HW156715   5.673   7.805   9.007  1.7535 -0.2664 -1.5993
18112SOL    HW256716   5.690   7.931   8.924  0.0227  1.8917  1.1666
18113SOL     OW56717   4.954   7.893   7.230 -0.2221 -0.5121  0.0043
18113SOL    HW156718   5.034   7.939   7.254 -1.1607 -0.1524  2.8085
18113SOL    HW256719   4.983   7.820   7.176  1.5162  2.0330 -2.7795
18114SOL     OW56720   8.095   1.739   5.439  0.4225 -0.2536 -0.4891
18114SOL    HW156721   8.075   1.801   5.510  2.7671 -0.6182  0.5754
18114SOL    HW256722   8.101   1.654   5.482  1.2399 -0.5746 -1.2059
18115SOL     OW56723   3.524   3.543   7.814 -0.6405 -0.0037 -0.0157
18115SOL    HW156724   3.439   3.499   7.817 -0.1161 -1.0686 -0.1672
18115SOL    HW256725   3.563   3.525   7.900  0.1063 -0.9431 -0.5392
18116SOL     OW56726   0.652   1.871   0.423  0.6940 -0.2664 -0.9425
18116SOL    HW156727   0.595   1.917   0.361  1.1959  1.1127 -0.4331
18116SOL    HW256728   0.597   1.853   0.499  1.0963  1.8998 -0.0651
18117SOL     OW56729   9.433   0.579   3.879  0.9876 -0.3632 -0.2162
18117SOL    HW156730   9.505   0.526   3.844 -0.9732 -1.9753 -2.0919
18117SOL    HW256731   9.418   0.646   3.812 -0.4089 -1.2104 -0.8087
18118SOL     OW56732   1.695   6.542   1.820  0.2012  0.4463 -0.7335
18118SOL    HW156733   1.636   6.487   1.768  0.4016  1.0167 -1.5763
18118SOL    HW256734   1.679   6.631   1.789 -1.0917  1.0874  1.5457
18119SOL     OW56735   1.452   5.874   9.404  0.1560  0.0179  0.5284
18119SOL    HW156736   1.465   5.930   9.328  0.5948 -0.1763  0.4567
18119SOL    HW256737   1.515   5.906   9.469  1.3513 -1.2073  0.0215
18120SOL     OW56738   4.003   1.476   4.388  0.2301  0.4348  0.7108
18120SOL    HW156739   3.980   1.569   4.388  1.8709  0.8821  1.2417
18120SOL    HW256740   3.988   1.448   4.297 -1.1267  0.9670  0.7464
18121SOL     OW56741   5.440   2.067   2.750 -0.8664  0.2370 -0.1878
18121SOL    HW156742   5.442   1.986   2.801 -1.0128  0.0481 -0.4878
18121SOL    HW256743   5.376   2.122   2.795 -1.3606 -0.1181 -0.4624
18122SOL     OW56744   9.766   6.035   9.618  0.5987  0.1142 -0.2653
18122SOL    HW156745   9.781   6.054   9.711  0.8340 -0.5489 -0.1621
18122SOL    HW256746   9.837   5.977   9.594 -0.4127 -1.0955 -0.4124
18123SOL     OW56747   7.784   8.798   8.013  0.0468  0.2066 -0.0600
18123SOL    HW156748   7.872   8.822   8.042  0.0322  1.7724 -1.1776
18123SOL    HW256749   7.739   8.772   8.093  0.7287  2.0348  0.9776
18124SOL     OW56750   3.715   8.052   6.175  0.1078  0.1827 -0.2569
18124SOL    HW156751   3.777   8.093   6.235 -0.3995  0.6345 -0.0316
18124SOL    HW256752   3.631   8.094   6.195 -0.9184 -2.4228  1.4989
18125SOL     OW56753   2.275   1.015   4.694  0.7069  0.2324  1.0970
18125SOL    HW156754   2.291   1.107   4.716  1.7206  0.4716 -0.4668
18125SOL    HW256755   2.180   1.008   4.683  0.6132  1.0540  1.3463
18126SOL     OW56756   0.414   8.637   1.104 -0.2095 -0.2564  0.0742
18126SOL    HW156757   0.336   8.592   1.070 -0.4630  0.9904 -1.0536
18126SOL    HW256758   0.379   8.698   1.169 -0.4377  1.4764 -1.5729
18127SOL     OW56759   1.705  10.119  10.348  0.5730  0.2754 -0.3040
18127SOL    HW156760   1.745  10.034  10.366 -2.2773 -1.0838  0.2486
18127SOL    HW256761   1.616  10.111  10.384 -0.0785  3.1942 -1.0474
18128SOL     OW56762   0.881   9.980   1.455 -0.4145 -0.0058  0.2363
18128SOL    HW156763   0.926   9.906   1.495 -0.6545 -0.5355 -0.4626
18128SOL    HW256764   0.839  10.025   1.528  0.2203 -0.2143  0.7358
18129SOL     OW56765  10.561   0.617   8.746 -0.3521  0.2516 -0.5859
18129SOL    HW156766  10.606   0.563   8.811  0.6208  3.4299  1.6519
18129SOL    HW256767  10.483   0.649   8.791 -0.5486  1.2315 -1.5623
18130SOL     OW56768   9.900  10.706   9.770  0.2447 -0.1394  0.0163
18130SOL    HW156769   9.935  10.791   9.795 -1.4775 -0.0764  2.7260
18130SOL    HW256770   9.851  10.722   9.690 -0.6124  1.6246  0.8399
18131SOL     OW56771   5.682  10.535  10.043  0.5911 -0.3438  0.2292
18131SOL    HW156772   5.637  10.510   9.962  0.5632 -0.9677  0.4313
18131SOL    HW256773   5.664  10.628  10.053  0.2524 -0.3540 -0.2685
18132SOL     OW56774   4.438   5.609   6.115 -0.8164 -0.5893 -0.1472
18132SOL    HW156775   4.354   5.607   6.161 -0.3997 -0.8100  0.6172
18132SOL    HW256776   4.489   5.676   6.161  0.1116 -1.8007  0.6315
18133SOL     OW56777   4.759  10.522   7.454  0.0491  0.0182 -0.2740
18133SOL    HW156778   4.670  10.504   7.486 -0.3080  1.3366 -0.4739
18133SOL    HW256779   4.815  10.503   7.529 -0.4377 -0.4399 -0.0178
18134SOL     OW56780   0.143   0.463  10.562 -0.0232 -0.1674  0.3258
18134SOL    HW156781   0.170   0.442  10.652  1.6757 -0.4099 -0.1990
18134SOL    HW256782   0.159   0.382  10.513  1.5492  0.7205 -0.6874
18135SOL     OW56783   4.981   8.059   0.891  0.4054  0.0078 -0.6039
18135SOL    HW156784   4.936   8.015   0.963 -0.6418  1.8031 -0.0941
18135SOL    HW256785   4.915   8.065   0.821  0.5664  0.6362 -0.7086
18136SOL     OW56786   2.564   7.127   0.000 -0.2906  0.0636  0.1851
18136SOL    HW156787   2.515   7.058   0.045  1.6093 -0.6165  1.3023
18136SOL    HW256788   2.645   7.136   0.050  0.1233  2.1698 -0.7454
18137SOL     OW56789   0.085  10.162   9.453 -0.4764 -0.1305 -0.7434
18137SOL    HW156790   0.171  10.164   9.494 -1.3025  0.1566  1.0806
18137SOL    HW256791   0.081  10.076   9.410 -0.6822 -1.9719  2.5437
18138SOL     OW56792  10.103   3.488   9.855 -0.1073  0.1243  0.6635
18138SOL    HW156793  10.167   3.463   9.921 -0.5719 -1.2189  0.6429
18138SOL    HW256794  10.105   3.417   9.791  0.2685  1.3492 -0.7496
18139SOL     OW56795   4.975   9.812   0.512 -0.0143  0.3010 -0.2902
18139SOL    HW156796   4.927   9.753   0.455 -0.5090  0.6167 -0.2036
18139SOL    HW256797   4.981   9.894   0.462 -2.6451  1.4228  1.0463
18140SOL     OW56798   8.628   3.283   8.229 -0.1543 -0.2421 -0.3226
18140SOL    HW156799   8.555   3.233   8.267  1.4816 -1.0076  2.0168
18140SOL    HW256800   8.679   3.312   8.305  2.4244 -0.4288 -1.8870
18141SOL     OW56801   5.487   4.978   5.837  0.3531 -0.4358 -0.4324
18141SOL    HW156802   5.559   5.040   5.824 -0.2638  0.5243  0.5947
18141SOL    HW256803   5.451   4.966   5.749  2.2015 -1.5279 -1.1079
18142SOL     OW56804   7.324   6.181   9.598 -0.1858 -0.6288  0.1879
18142SOL    HW156805   7.360   6.112   9.653  0.3182  0.5783  1.4214
18142SOL    HW256806   7.317   6.257   9.655 -2.4824 -0.1316 -0.6274
18143SOL     OW56807   0.293   8.152   2.382 -0.1350  0.2296 -0.8446
18143SOL    HW156808   0.238   8.228   2.362 -1.4301 -0.8479 -1.4913
18143SOL    HW256809   0.251   8.079   2.337  0.5411 -1.0718  0.5513
18144SOL     OW56810  10.631   7.666   4.092 -0.9295 -0.5453  0.1182
18144SOL    HW156811  10.605   7.638   4.180  1.0986  2.3734  1.8042
18144SOL    HW256812  10.580   7.746   4.076 -0.2624 -0.2837 -0.7774
18145SOL     OW56813   0.975   0.451   7.884 -0.3624 -0.1496 -0.1067
18145SOL    HW156814   0.923   0.412   7.954 -0.8930  1.9009  0.7376
18145SOL    HW256815   1.035   0.510   7.929  0.9374 -0.5329 -1.2563
18146SOL     OW56816   7.295   5.415   7.150  0.1882 -0.2710 -0.0263
18146SOL    HW156817   7.265   5.368   7.072  0.1235 -0.3746  0.0588
18146SOL    HW256818   7.384   5.442   7.130 -0.0557  0.2694 -0.3822
18147SOL     OW56819   4.697   0.807   1.432 -0.6312 -0.1932  0.4202
18147SOL    HW156820   4.664   0.803   1.522 -0.1231  0.5041  0.6427
18147SOL    HW256821   4.620   0.788   1.378 -1.3804  1.1983  0.9357
18148SOL     OW56822   5.766   0.920   9.236 -0.0878 -0.2016 -0.4708
18148SOL    HW156823   5.814   0.886   9.311  1.9312  0.0207 -1.6019
18148SOL    HW256824   5.789   0.861   9.164 -1.8060 -0.2855 -0.9882
18149SOL     OW56825   3.467   4.338   2.855 -0.0230  0.1948  0.3117
18149SOL    HW156826   3.491   4.418   2.901 -1.8803  1.8139 -1.3478
18149SOL    HW256827   3.394   4.302   2.905 -0.5102  0.6677 -0.0520
18150SOL     OW56828   1.002   6.374   7.665 -0.3032 -0.3227  0.2327
18150SOL    HW156829   0.975   6.288   7.697  0.6895 -1.2420 -1.2505
18150SOL    HW256830   1.022   6.424   7.744 -0.5312 -1.5839  1.1193
18151SOL     OW56831   8.090   0.048   8.885 -0.3847  0.0077 -0.1342
18151SOL    HW156832   8.115  -0.003   8.808 -1.4430  0.3927 -0.7518
18151SOL    HW256833   8.040  -0.012   8.939  0.3186 -0.2493  0.2495
18152SOL     OW56834   4.978   6.106   1.312  0.5684 -0.3749 -0.0086
18152SOL    HW156835   4.951   6.015   1.300 -2.7131  0.5943 -1.1401
18152SOL    HW256836   5.037   6.123   1.239 -0.9159 -0.9535 -1.4231
18153SOL     OW56837   3.914   0.060   2.945  0.1969  0.2399 -0.2561
18153SOL    HW156838   3.873   0.034   2.862 -3.0448 -2.0405  1.8158
18153SOL    HW256839   3.962  -0.017   2.974 -0.0681  0.4339  0.7342
18154SOL     OW56840   2.141   3.589   1.077  0.3898 -0.4348  0.2147
18154SOL    HW156841   2.161   3.625   1.163 -0.5059 -0.2248  0.3400
18154SOL    HW256842   2.227   3.575   1.037  0.8035  2.0231  0.0775
18155SOL     OW56843   1.395   7.126   1.542  0.3482  0.8980 -0.4613
18155SOL    HW156844   1.451   7.050   1.558  0.1302  0.4879 -1.5686
18155SOL    HW256845   1.307   7.096   1.564  0.6762  2.0635  2.9911
18156SOL     OW56846   9.012   7.516   1.741 -0.9809 -0.3823 -0.1461
18156SOL    HW156847   8.930   7.498   1.786 -0.6495 -1.4989  0.0390
18156SOL    HW256848   8.996   7.490   1.650 -0.7825 -0.7741 -0.0715
18157SOL     OW56849  10.565   9.239  10.013  0.6149  0.0110 -0.6487
18157SOL    HW156850  10.573   9.279  10.100  0.6058 -0.4603 -0.4283
18157SOL    HW256851  10.475   9.208  10.009 -0.3094  2.6039 -1.9609
18158SOL     OW56852  10.476   3.099   0.821  0.8158 -0.0651  0.0587
18158SOL    HW156853  10.486   3.147   0.739 -0.9127 -2.0662 -1.4153
18158SOL    HW256854  10.553   3.124   0.873  2.0710  1.1042 -2.2228
18159SOL     OW56855   1.045   0.105   0.758 -0.9546 -0.0300  0.2493
18159SOL    HW156856   1.076   0.195   0.746 -1.2098  0.2220  1.3701
18159SOL    HW256857   0.960   0.103   0.713 -0.4230 -0.0453 -0.7684
18160SOL     OW56858   4.097   5.431   9.916 -0.3681 -0.2068 -0.7744
18160SOL    HW156859   4.157   5.366   9.953 -1.6267 -0.1114  1.6516
18160SOL    HW256860   4.055   5.386   9.842  1.3960 -0.8365 -1.4454
18161SOL     OW56861   8.780   5.185   3.801 -0.2159 -0.1188  0.8120
18161SOL    HW156862   8.769   5.209   3.893 -0.2026 -1.2743  1.1304
18161SOL    HW256863   8.805   5.267   3.758 -3.0770  1.1122  1.2988
18162SOL     OW56864   5.491   7.606   5.374  0.3053  0.7171 -0.1341
18162SOL    HW156865   5.421   7.630   5.435  1.1617  1.7787  0.4765
18162SOL    HW256866   5.528   7.526   5.411 -0.1627  0.5132 -0.1003
18163SOL     OW56867   2.760   2.036   7.122 -0.5055 -0.6081 -0.1174
18163SOL    HW156868   2.684   1.979   7.120 -1.0176  0.0575 -0.0369
18163SOL    HW256869   2.822   1.993   7.180 -0.3558 -1.7161 -1.0612
18164SOL     OW56870  10.321   0.185   4.294 -0.3027  0.0668 -0.2466
18164SOL    HW156871  10.345   0.093   4.308 -0.6195 -0.1496 -1.0925
18164SOL    HW256872  10.302   0.191   4.200  0.7883  1.2466 -0.4232
18165SOL     OW56873   3.790   5.630   2.479  0.0037 -0.0111 -0.2854
18165SOL    HW156874   3.819   5.592   2.562 -0.7536  1.8552  0.9001
18165SOL    HW256875   3.734   5.703   2.505 -0.0389  0.7878 -2.4645
18166SOL     OW56876   7.023   4.579  10.258  0.4853  0.0921  0.1330
18166SOL    HW156877   6.944   4.629  10.276  0.2405 -0.0361 -0.5767
18166SOL    HW256878   7.076   4.636  10.202  1.3638  0.5965  1.4252
18167SOL     OW56879  10.217   5.511   3.426  0.2544 -0.2907  0.2408
18167SOL    HW156880  10.147   5.575   3.434  0.1585  0.0136 -2.1810
18167SOL    HW256881  10.296   5.559   3.451  0.0490  0.4795 -0.5503
18168SOL     OW56882   6.827   2.850   2.112 -0.4216  0.3774 -0.6130
18168SOL    HW156883   6.804   2.935   2.150  1.7919 -0.1719  2.3139
18168SOL    HW256884   6.785   2.786   2.170  0.4410 -0.5156 -0.9489
18169SOL     OW56885  10.336   9.703   7.730 -0.1042  0.0961 -0.5988
18169SOL    HW156886  10.400   9.637   7.756 -0.3214  0.4901  1.0786
18169SOL    HW256887  10.388   9.782   7.715 -0.2300  0.7726  2.0402
18170SOL     OW56888   6.746   1.717   5.378 -1.0119 -0.1563  0.4547
18170SOL    HW156889   6.836   1.749   5.381 -0.6348 -1.1118 -0.1453
18170SOL    HW256890   6.742   1.664   5.298 -2.1484 -0.0035  0.3988
18171SOL     OW56891   7.539   9.934   5.225  0.1389 -0.1176  0.0075
18171SOL    HW156892   7.560  10.007   5.167 -0.3058 -0.1159 -0.1527
18171SOL    HW256893   7.497   9.869   5.169  0.5755 -0.5204  0.1379
18172SOL     OW56894   3.633   8.375   7.933  0.4044 -0.2432 -1.3746
18172SOL    HW156895   3.616   8.385   7.839  1.7209  1.2361 -1.5075
18172SOL    HW256896   3.728   8.363   7.939  0.1415 -2.0053 -0.3150
18173SOL     OW56897   1.784   9.140   4.212 -0.4963  0.2203  0.8594
18173SOL    HW156898   1.829   9.222   4.233  1.5024  0.0040 -2.0571
18173SOL    HW256899   1.715   9.166   4.151  0.2397 -0.2499 -0.1901
18174SOL     OW56900   2.446   6.229  10.180  0.5025 -0.1760 -0.2564
18174SOL    HW156901   2.535   6.203  10.159  0.9904  1.1673  0.0347
18174SOL    HW256902   2.451   6.261  10.270  0.0778  1.3749 -0.7493
18175SOL     OW56903   2.770   8.058   8.039 -0.3190 -0.4831 -0.1548
18175SOL    HW156904   2.675   8.052   8.041 -0.3095 -0.4869  0.6407
18175SOL    HW256905   2.800   7.968   8.028 -0.4163 -0.4275 -0.8840
18176SOL     OW56906   1.099   6.636   0.375 -0.2110 -0.1451 -0.1452
18176SOL    HW156907   1.156   6.709   0.401 -1.1246 -0.0611  1.7709
18176SOL    HW256908   1.072   6.658   0.286  0.9711  0.9299 -0.2740
18177SOL     OW56909   1.381   5.616   7.404  0.0160  0.7283  0.3305
18177SOL    HW156910   1.387   5.711   7.397  0.3732  0.6501 -0.4163
18177SOL    HW256911   1.472   5.586   7.407 -0.0433  0.5431  2.7218
18178SOL     OW56912   8.204   9.954   8.854 -0.3117  0.1191  0.6085
18178SOL    HW156913   8.262   9.888   8.814 -1.3388 -1.2592  1.2920
18178SOL    HW256914   8.263  10.015   8.897  0.7555  0.6229 -1.4207
18179SOL     OW56915   9.519   2.531   6.622 -0.1580  0.0107 -0.1429
18179SOL    HW156916   9.508   2.523   6.527 -0.9744  0.0047 -0.0525
18179SOL    HW256917   9.449   2.477   6.659  0.2357 -0.0899  0.4637
18180SOL     OW56918   7.615   4.359   8.641  0.1328 -0.4091  0.0971
18180SOL    HW156919   7.563   4.369   8.561 -0.8520  1.8294  0.9647
18180SOL    HW256920   7.552   4.336   8.709  0.5647  0.2501  0.7370
18181SOL     OW56921   3.787   8.728   3.261  0.3363  0.8956 -0.3518
18181SOL    HW156922   3.702   8.730   3.304 -1.0285  0.7844 -2.8681
18181SOL    HW256923   3.787   8.648   3.209  2.4277  0.3508  0.3787
18182SOL     OW56924   6.238   2.013  10.616 -0.6169 -0.1018 -0.2127
18182SOL    HW156925   6.176   1.959  10.666 -0.4546  0.1021  0.2127
18182SOL    HW256926   6.260   1.960  10.540 -0.0793 -0.8570  0.4462
18183SOL     OW56927   8.704   3.047   8.629  0.0527 -0.6534  0.4703
18183SOL    HW156928   8.763   3.082   8.563 -1.3374  2.1180  0.5673
18183SOL    HW256929   8.730   3.091   8.710  0.5011 -2.5740  1.4311
18184SOL     OW56930   6.742   3.173   5.434 -0.3423  0.7101  0.2805
18184SOL    HW156931   6.726   3.242   5.497  1.6572  0.4327  1.1728
18184SOL    HW256932   6.759   3.095   5.487  3.2617  0.8578 -0.3668
18185SOL     OW56933   3.277   3.967   0.245  0.4377  0.7654  0.1741
18185SOL    HW156934   3.231   3.967   0.161  1.6009  0.2034 -0.4992
18185SOL    HW256935   3.304   4.058   0.258  1.6124  0.5842 -0.8643
18186SOL     OW56936   0.610   4.145   3.687 -0.3830  0.8417 -0.3484
18186SOL    HW156937   0.560   4.216   3.727 -0.6658 -0.4988  1.8168
18186SOL    HW256938   0.687   4.135   3.742 -1.0096 -1.3801  0.2379
18187SOL     OW56939  10.571   2.839   9.038 -0.1975  0.1999 -0.0830
18187SOL    HW156940  10.616   2.789   9.105  0.8833  0.9514 -0.2155
18187SOL    HW256941  10.494   2.876   9.082  0.2845  0.3602  0.6382
18188SOL     OW56942   5.642   6.837   4.936  0.0660  0.2582  0.1227
18188SOL    HW156943   5.674   6.926   4.950 -1.6607  0.8458  0.4937
18188SOL    HW256944   5.610   6.836   4.846  0.2307 -0.0442  0.0660
18189SOL     OW56945   7.685   8.537   0.617  0.4371  0.5215  0.0766
18189SOL    HW156946   7.622   8.589   0.566  1.4076  1.5059 -0.1397
18189SOL    HW256947   7.763   8.532   0.562  0.6203 -0.5913  0.3987
18190SOL     OW56948   7.224   1.403   5.352 -0.1908  0.4136 -0.4350
18190SOL    HW156949   7.225   1.450   5.435  1.3808  0.9641 -0.7386
18190SOL    HW256950   7.228   1.311   5.376 -0.8701  0.5187  0.1072
18191SOL     OW56951   2.408   3.763   6.926  0.0141 -0.1259 -0.3289
18191SOL    HW156952   2.385   3.701   6.996  1.5228 -2.0741 -1.4624
18191SOL    HW256953   2.323   3.793   6.893 -0.7548 -0.9514  0.8000
18192SOL     OW56954   2.123   6.573   3.773 -0.1850 -0.6900  0.2361
18192SOL    HW156955   2.192   6.507   3.778 -1.0217 -1.5851  0.3213
18192SOL    HW256956   2.124   6.616   3.859  1.9562  1.1276 -0.5876
18193SOL     OW56957   2.730   4.983   2.968  0.0115 -1.1074  0.5286
18193SOL    HW156958   2.707   4.905   2.917 -0.8079 -0.2491 -0.4819
18193SOL    HW256959   2.686   4.971   3.052 -0.1586 -1.6975  0.3634
18194SOL     OW56960   7.316   0.392   7.269 -0.0196  0.1949  0.5640
18194SOL    HW156961   7.303   0.298   7.279  1.7822  0.0945  2.5474
18194SOL    HW256962   7.236   0.430   7.306 -0.6339 -0.5309  0.0200
18195SOL     OW56963   2.550   8.884   7.542 -0.6799  0.4191  0.4717
18195SOL    HW156964   2.470   8.929   7.515  0.0351  0.4530 -1.7726
18195SOL    HW256965   2.616   8.953   7.546 -0.8463  0.5374  3.1063
18196SOL     OW56966   6.369   9.466   3.671 -0.2938 -0.1430  0.3642
18196SOL    HW156967   6.274   9.460   3.683 -0.3198 -0.4850  0.0283
18196SOL    HW256968   6.379   9.511   3.587 -0.1878 -1.3141 -0.2740
18197SOL     OW56969   4.920   1.226   7.197 -0.8008  0.5623 -0.0936
18197SOL    HW156970   4.870   1.282   7.255 -0.9450 -1.7906  2.2824
18197SOL    HW256971   4.858   1.160   7.168  0.0755 -0.3534  0.0349
18198SOL     OW56972   9.585   7.485   0.601  0.2030 -0.0709 -0.2106
18198SOL    HW156973   9.561   7.540   0.676 -1.7876 -1.1964  0.0466
18198SOL    HW256974   9.578   7.543   0.525  0.5864  0.6373  0.2774
18199SOL     OW56975   1.817   1.625   1.024 -0.2986 -0.1057 -0.4306
18199SOL    HW156976   1.900   1.589   0.994  1.3010 -0.7747  4.0872
18199SOL    HW256977   1.752   1.559   1.000  1.3238 -2.1154  0.4379
18200SOL     OW56978   5.856  10.518   7.605  0.0537  0.2074  0.2557
18200SOL    HW156979   5.912  10.444   7.582 -0.3228 -0.1863  0.5874
18200SOL    HW256980   5.803  10.487   7.678 -0.3190  0.7060  0.2072
18201SOL     OW56981   9.085  10.155   7.951  0.4254 -0.3440  0.0006
18201SOL    HW156982   9.157  10.162   8.014  0.0014 -1.7270  0.6616
18201SOL    HW256983   9.006  10.162   8.005  0.0579 -0.4743 -0.5223
18202SOL     OW56984   6.298   7.487   8.874 -0.0300  0.2059  0.3077
18202SOL    HW156985   6.387   7.467   8.845  0.9577  1.2256  2.4777
18202SOL    HW256986   6.264   7.545   8.806  0.9529 -0.1455 -0.5257
18203SOL     OW56987   0.537   3.503   1.914  0.2505 -0.2274  0.3995
18203SOL    HW156988   0.534   3.412   1.886  0.2101 -0.1085  0.0148
18203SOL    HW256989   0.570   3.499   2.005  2.3676 -0.4809 -0.3110
18204SOL     OW56990   6.094   4.498   2.421  0.0047 -0.2328  0.2604
18204SOL    HW156991   6.076   4.419   2.471  2.8967 -0.4023  1.2022
18204SOL    HW256992   6.131   4.559   2.485 -0.4397  1.2370 -0.8180
18205SOL     OW56993   2.119   2.641   5.593 -0.4209 -0.1028 -0.1807
18205SOL    HW156994   2.083   2.571   5.649  0.3543  0.6951  1.3886
18205SOL    HW256995   2.050   2.657   5.528 -0.5701 -2.3989 -0.6925
18206SOL     OW56996   2.122   3.422   5.550 -0.4333  0.0696 -0.4166
18206SOL    HW156997   2.163   3.502   5.582 -2.9923  1.3911 -0.2094
18206SOL    HW256998   2.060   3.397   5.619 -1.3472 -0.7575 -1.4995
18207SOL     OW56999   4.517   4.949   5.704 -0.1603  0.2720 -0.2854
18207SOL    HW157000   4.528   4.983   5.793 -1.1050  0.6095 -0.2794
18207SOL    HW257001   4.535   5.024   5.648  2.1151 -0.3601 -0.4788
18208SOL     OW57002   7.344   3.692   7.266  0.1248 -0.1369  0.7919
18208SOL    HW157003   7.257   3.657   7.248  0.6116 -0.9263 -0.1197
18208SOL    HW257004   7.340   3.783   7.234 -1.0797  0.6538  3.0085
18209SOL     OW57005   1.061   2.131   7.699  0.4499 -0.0223 -0.0945
18209SOL    HW157006   1.113   2.096   7.771  0.7486 -0.5972 -0.5879
18209SOL    HW257007   1.123   2.141   7.627 -0.0601 -0.4044 -0.5879
18210SOL     OW57008   8.374   8.292   3.246 -0.4303 -0.7545 -0.4300
18210SOL    HW157009   8.292   8.257   3.210 -0.3067 -0.3835 -1.0934
18210SOL    HW257010   8.403   8.225   3.308 -2.3052  0.0435  1.4107
18211SOL     OW57011   9.820   1.934   1.786  0.6312 -0.6138 -0.0483
18211SOL    HW157012   9.740   1.961   1.742  1.1314  1.0438 -0.0062
18211SOL    HW257013   9.826   1.990   1.863  2.5387  0.3562 -0.8155
18212SOL     OW57014   8.491   8.915   5.962 -0.0303  0.1079  0.5116
18212SOL    HW157015   8.416   8.974   5.969 -0.3647 -0.3183  0.5260
18212SOL    HW257016   8.453   8.829   5.946  0.4812 -0.0166 -0.0493
18213SOL     OW57017   8.777   5.518   4.188 -0.0079  0.0108 -1.1645
18213SOL    HW157018   8.828   5.501   4.268 -1.8442 -2.7028 -0.4253
18213SOL    HW257019   8.780   5.613   4.177  2.2905  0.2489  0.7471
18214SOL     OW57020   6.976   3.487  10.250  0.4190  1.1412 -0.9599
18214SOL    HW157021   7.016   3.469  10.335 -1.2585 -1.5703 -0.6070
18214SOL    HW257022   7.023   3.564  10.217  3.0731  0.5886  1.1278
18215SOL     OW57023   1.556   5.520   6.015 -0.0132 -0.0696 -0.1317
18215SOL    HW157024   1.582   5.485   6.100  0.6178  1.0005  0.1445
18215SOL    HW257025   1.604   5.603   6.009 -0.3107  0.0180 -1.3896
18216SOL     OW57026   1.422   8.187   5.783 -0.0144  0.4858 -0.6620
18216SOL    HW157027   1.403   8.097   5.756 -1.1794  0.3314  0.5588
18216SOL    HW257028   1.496   8.180   5.843  0.4851  0.4666 -1.2652
18217SOL     OW57029   6.100   1.108   5.916 -0.8689 -0.0817 -0.6491
18217SOL    HW157030   6.040   1.146   5.980  1.0654  0.7776  0.7560
18217SOL    HW257031   6.043   1.061   5.855 -2.8285 -0.9255  1.6631
18218SOL     OW57032   7.004   5.768   6.246  0.5579  0.2402  0.6818
18218SOL    HW157033   6.920   5.747   6.206  0.9365  1.1309 -0.6847
18218SOL    HW257034   7.002   5.863   6.258  1.2318  0.2294  0.9189
18219SOL     OW57035   9.509   1.927  10.371  0.0353  0.2157  0.3319
18219SOL    HW157036   9.525   2.007  10.320 -0.8603  1.0732  1.3476
18219SOL    HW257037   9.557   1.859  10.324 -0.8745  0.9203 -1.7729
18220SOL     OW57038   2.789   6.938  10.681  0.1992  0.5201  0.7319
18220SOL    HW157039   2.764   7.030  10.690 -1.5969  0.2555 -0.7786
18220SOL    HW257040   2.708   6.890  10.696  0.6853 -0.6871 -0.3132
18221SOL     OW57041   4.317   2.789   8.062 -0.6857  0.3929 -0.1466
18221SOL    HW157042   4.333   2.732   8.137  1.0230 -0.4949 -1.1160
18221SOL    HW257043   4.235   2.756   8.024  0.1456 -1.3405 -0.5547
18222SOL     OW57044   6.593   8.856   2.048  0.4860  0.0217  0.1213
18222SOL    HW157045   6.618   8.921   2.114  0.0729 -0.2207  0.5255
18222SOL    HW257046   6.511   8.819   2.082 -1.5002  2.0730 -2.0176
18223SOL     OW57047   9.306   8.661   4.461 -0.1623 -0.5253  0.0736
18223SOL    HW157048   9.281   8.621   4.544  1.5716  1.5674  1.7255
18223SOL    HW257049   9.398   8.686   4.473 -0.1329  0.7097 -2.1196
18224SOL     OW57050   8.814   8.114   0.333 -0.0814 -0.0555  0.0622
18224SOL    HW157051   8.901   8.140   0.363 -0.2547 -0.4461  0.9557
18224SOL    HW257052   8.787   8.047   0.396 -0.0995 -1.5919 -1.5256
18225SOL     OW57053   2.330   0.838   0.306  0.0811  0.4154  0.1815
18225SOL    HW157054   2.353   0.878   0.389  0.4361  1.0955 -0.2296
18225SOL    HW257055   2.363   0.900   0.240  1.0084 -0.7439 -0.4852
18226SOL     OW57056   4.767  10.335   3.022 -0.3395  0.8338  0.1574
18226SOL    HW157057   4.758  10.267   3.088  2.4931 -1.5092 -1.6324
18226SOL    HW257058   4.678  10.347   2.988 -1.3666  0.0906  2.4054
18227SOL     OW57059   5.791   3.685   6.407  0.0336 -0.1624  0.1410
18227SOL    HW157060   5.766   3.596   6.432  0.3551  0.2694  2.1631
18227SOL    HW257061   5.713   3.723   6.367  0.4850 -1.9826 -2.8065
18228SOL     OW57062   9.587   1.640   9.915 -0.4511  0.4277 -0.1342
18228SOL    HW157063   9.541   1.696   9.853  0.7573  0.3657 -1.1328
18228SOL    HW257064   9.637   1.579   9.860  1.3352  0.9198  0.8530
18229SOL     OW57065   8.137   9.496   9.555 -0.1148 -0.4341  0.1099
18229SOL    HW157066   8.184   9.572   9.521 -0.5570 -1.4557 -3.0918
18229SOL    HW257067   8.199   9.423   9.545 -0.8471 -1.0515 -0.0631
18230SOL     OW57068   7.045   9.297   3.497  0.4806  0.1383 -0.0951
18230SOL    HW157069   7.045   9.317   3.404  0.0251 -0.1234 -0.1531
18230SOL    HW257070   6.988   9.363   3.536  3.9162  2.9896  0.6314
18231SOL     OW57071   1.887  10.591   9.139 -0.0868  0.1656  0.3153
18231SOL    HW157072   1.893  10.520   9.075  1.6186 -1.0019  1.6917
18231SOL    HW257073   1.966  10.583   9.192 -0.6344  2.1237  1.5417
18232SOL     OW57074   3.933   8.007   7.660 -0.6173  0.2430 -0.5551
18232SOL    HW157075   3.991   8.038   7.590  0.6682 -0.4304  0.1737
18232SOL    HW257076   3.897   7.925   7.627 -0.7122  0.3721 -0.7775
18233SOL     OW57077   1.609   4.070   5.886 -0.1995  1.0354 -0.0981
18233SOL    HW157078   1.678   4.022   5.839 -0.2126  1.2914 -0.3810
18233SOL    HW257079   1.599   4.151   5.837 -1.4192  0.5603 -0.6632
18234SOL     OW57080   7.334   2.921   5.639  0.0250  0.3871 -0.3528
18234SOL    HW157081   7.365   2.846   5.588  0.0435  0.6033 -0.6603
18234SOL    HW257082   7.360   2.901   5.729 -0.8008 -0.4120 -0.2842
18235SOL     OW57083   9.427   4.417   4.857 -0.2568 -0.2692 -0.0454
18235SOL    HW157084   9.413   4.332   4.898 -2.4984 -0.0572 -0.2929
18235SOL    HW257085   9.380   4.413   4.774 -0.7456  1.3403  0.1139
18236SOL     OW57086   6.135   0.888   6.165  0.1925  0.5721  0.6761
18236SOL    HW157087   6.210   0.930   6.125  0.4974 -0.9228 -0.4226
18236SOL    HW257088   6.085   0.852   6.091 -1.3306  1.0611  1.4099
18237SOL     OW57089   9.324   7.656   5.323  0.9283  0.1034  0.4113
18237SOL    HW157090   9.238   7.625   5.296  1.2949 -0.1979 -0.4383
18237SOL    HW257091   9.326   7.642   5.418 -0.1701  0.6715  0.5306
18238SOL     OW57092  10.656   2.774   5.797  0.1482  0.3809  0.4811
18238SOL    HW157093  10.620   2.849   5.844  0.5286  0.5617  0.4857
18238SOL    HW257094  10.749   2.793   5.789  0.6914 -1.1121  2.5004
18239SOL     OW57095   0.562   5.812   0.127  0.3363  0.0317  0.6510
18239SOL    HW157096   0.516   5.768   0.199  0.5835  0.3782  1.0238
18239SOL    HW257097   0.577   5.901   0.158  0.5552  0.1502  0.2188
18240SOL     OW57098   0.379   7.686   3.961  0.6058  0.2285 -1.0487
18240SOL    HW157099   0.426   7.756   4.008 -0.4171  0.6011 -0.5655
18240SOL    HW257100   0.302   7.668   4.015  0.9114 -1.3798 -1.0932
18241SOL     OW57101  10.268  10.784   7.232 -0.6924 -0.0837 -0.7768
18241SOL    HW157102  10.355  10.748   7.249 -0.4360  1.1344  0.6565
18241SOL    HW257103  10.277  10.832   7.150  0.4941  1.5228  0.2420
18242SOL     OW57104  10.359   3.808   3.547  0.0109  1.0022 -0.0542
18242SOL    HW157105  10.437   3.793   3.494  0.8967  0.3811  1.3484
18242SOL    HW257106  10.394   3.838   3.631 -1.2589  0.5728  0.6453
18243SOL     OW57107   6.360   7.386   3.363  0.2607  0.1814  0.0523
18243SOL    HW157108   6.323   7.473   3.350 -2.7139 -0.9129  0.4540
18243SOL    HW257109   6.416   7.395   3.440  0.4685  1.8424 -0.2527
18244SOL     OW57110   0.241   5.362   8.852  0.1094 -0.0028  0.0679
18244SOL    HW157111   0.327   5.324   8.871  0.1656 -0.4065 -0.9465
18244SOL    HW257112   0.178   5.304   8.896  0.2607 -0.6166 -0.5244
18245SOL     OW57113   9.728   3.712   8.807 -0.1939 -0.1693 -0.2280
18245SOL    HW157114   9.634   3.695   8.814 -0.1302 -1.0135 -1.2082
18245SOL    HW257115   9.753   3.676   8.722  0.9306  0.4946 -0.1977
18246SOL     OW57116   7.517   7.023   2.511 -0.1849  0.3784  0.3286
18246SOL    HW157117   7.456   6.950   2.506 -2.6988  2.2438  1.5623
18246SOL    HW257118   7.508   7.068   2.427  1.4713 -0.7146 -0.4892
18247SOL     OW57119   6.874   0.739   3.823  0.0780 -0.1498  0.1520
18247SOL    HW157120   6.869   0.643   3.820 -0.5790 -0.1309  0.6530
18247SOL    HW257121   6.950   0.757   3.878  0.6839 -0.3778 -0.5823
18248SOL     OW57122   3.161  10.604   2.646 -0.0342  0.1003 -0.3093
18248SOL    HW157123   3.066  10.601   2.636  0.0008  0.0076 -0.6321
18248SOL    HW257124   3.194  10.623   2.558  0.2222  0.6827 -0.0906
18249SOL     OW57125   1.235   3.434  10.367 -0.1537 -0.1478  0.2689
18249SOL    HW157126   1.227   3.529  10.358 -2.1993 -0.1233  1.5834
18249SOL    HW257127   1.322   3.420  10.403  0.0387  1.2763  0.4064
18250SOL     OW57128   3.163   7.954   2.397 -0.3174  0.3604 -0.7289
18250SOL    HW157129   3.241   7.976   2.347  1.3505 -3.4258 -0.1422
18250SOL    HW257130   3.155   8.025   2.461  2.1192  1.3347 -1.3902
18251SOL     OW57131   1.788   7.997   6.870  0.0348  0.3197  0.7415
18251SOL    HW157132   1.747   7.913   6.893  0.2740 -1.1306 -3.2437
18251SOL    HW257133   1.715   8.056   6.855 -0.2979 -0.1648  0.4327
18252SOL     OW57134   3.521   1.590   8.662 -0.1300 -0.3871 -0.1164
18252SOL    HW157135   3.566   1.512   8.693  1.3298  0.1548 -0.7922
18252SOL    HW257136   3.508   1.643   8.741  0.2607 -0.6257  0.1125
18253SOL     OW57137   2.411   0.362   5.817  0.2278  0.3223  0.0445
18253SOL    HW157138   2.396   0.302   5.744  2.0137  0.9689 -0.9075
18253SOL    HW257139   2.370   0.444   5.790  2.2082  1.0337 -0.9954
18254SOL     OW57140   2.042   4.596   4.962 -0.9505 -0.4244  0.1214
18254SOL    HW157141   2.095   4.676   4.960 -0.1265 -0.8998  1.3703
18254SOL    HW257142   1.956   4.625   4.991 -1.2539  0.2840 -1.3973
18255SOL     OW57143   9.936   8.110   3.833  0.3458  0.0843  0.2432
18255SOL    HW157144   9.878   8.050   3.786 -1.9319  0.8853  1.8261
18255SOL    HW257145   9.990   8.149   3.765 -2.6443  1.0742 -1.7859
18256SOL     OW57146   3.099   5.103   3.733  0.0473  0.1271  0.4620
18256SOL    HW157147   3.134   5.051   3.661  1.8131  1.6385  0.1492
18256SOL    HW257148   3.089   5.191   3.697 -1.1226  0.4320  1.4687
18257SOL     OW57149   6.967   4.555   8.899  0.1981 -0.2103 -0.0825
18257SOL    HW157150   7.029   4.620   8.932 -0.4059  0.2635  0.1491
18257SOL    HW257151   6.983   4.551   8.805 -1.6359  2.4044 -0.6185
18258SOL     OW57152   9.059   4.844   1.721 -0.9207 -0.6515 -0.1504
18258SOL    HW157153   9.143   4.846   1.676 -1.2967  1.8887 -0.8868
18258SOL    HW257154   9.004   4.788   1.667 -0.4661 -0.1257 -1.1764
18259SOL     OW57155   6.986   5.465   9.096  0.0625 -0.1015 -0.1187
18259SOL    HW157156   6.897   5.453   9.063  1.1011 -1.6171 -2.6779
18259SOL    HW257157   6.988   5.413   9.177 -1.6478  0.8839  0.5995
18260SOL     OW57158   7.540   9.617   0.908 -0.5498 -0.9538  0.0457
18260SOL    HW157159   7.562   9.531   0.941  1.0979 -0.7532 -0.4243
18260SOL    HW257160   7.503   9.601   0.821 -3.0386 -1.3412  1.1019
18261SOL     OW57161   2.144   2.427   8.348  0.6466 -0.1992 -0.3470
18261SOL    HW157162   2.136   2.357   8.413 -2.3604  1.7617  1.6714
18261SOL    HW257163   2.143   2.382   8.264 -2.1960 -2.6661  0.8025
18262SOL     OW57164   8.609   8.581   3.541  0.1466  0.1419 -0.3629
18262SOL    HW157165   8.639   8.672   3.537 -1.0188  0.5290 -0.7794
18262SOL    HW257166   8.586   8.568   3.633  1.9935 -0.3238  0.0709
18263SOL     OW57167   1.660   2.737   1.273  0.7578  0.8549  0.0428
18263SOL    HW157168   1.612   2.722   1.354  0.8573  0.4656  0.0320
18263SOL    HW257169   1.629   2.822   1.242  1.1573  1.2882  0.7958
18264SOL     OW57170   4.540   3.383   2.538  0.6466  0.0367 -0.5039
18264SOL    HW157171   4.549   3.424   2.452 -0.3188  0.8731 -0.2375
18264SOL    HW257172   4.465   3.323   2.529  0.5297  0.1399 -0.2514
18265SOL     OW57173   8.294   1.119   3.248  0.0900 -0.4633  0.0992
18265SOL    HW157174   8.230   1.164   3.193  1.5496  1.7783  0.1179
18265SOL    HW257175   8.244   1.088   3.323 -1.4635 -1.3130 -1.2296
18266SOL     OW57176   8.278   6.903   0.611  0.1067  0.1606 -0.4264
18266SOL    HW157177   8.350   6.938   0.663 -0.7475  1.5979 -0.1523
18266SOL    HW257178   8.245   6.979   0.562 -2.0720 -0.1264  0.4700
18267SOL     OW57179  10.225   0.481  10.474 -0.0657 -0.0553 -0.3846
18267SOL    HW157180  10.135   0.511  10.479 -0.0532 -0.0220 -0.3540
18267SOL    HW257181  10.251   0.496  10.383 -0.5395 -1.3888 -0.7528
18268SOL     OW57182   5.470   9.166   7.959 -0.7363 -0.0187  0.4271
18268SOL    HW157183   5.424   9.206   7.885 -1.9758 -2.6081 -0.3056
18268SOL    HW257184   5.446   9.074   7.955  0.8081 -0.6087  2.8865
18269SOL     OW57185   6.943   5.106   7.731  0.2280  0.3096 -1.0898
18269SOL    HW157186   6.983   5.044   7.793 -0.1716  0.5068 -0.6294
18269SOL    HW257187   7.016   5.133   7.675  0.4760 -0.3144 -1.0778
18270SOL     OW57188   5.234   4.792   8.186  0.2594  0.1042 -0.3090
18270SOL    HW157189   5.266   4.876   8.219  0.9376 -0.3839  0.3139
18270SOL    HW257190   5.201   4.747   8.264 -2.4930  0.7888 -0.9876
18271SOL     OW57191   2.991   7.057   7.192 -0.1086 -0.0484 -0.0795
18271SOL    HW157192   3.005   7.111   7.114  0.7014 -0.4391 -0.2117
18271SOL    HW257193   3.070   7.003   7.198  1.0144  1.6603  2.3804
18272SOL     OW57194   2.165   9.424   6.742 -0.3347 -0.2122  0.1074
18272SOL    HW157195   2.127   9.409   6.655  1.2411  1.1681 -0.8728
18272SOL    HW257196   2.104   9.484   6.785 -0.6196 -0.1040 -0.4405
18273SOL     OW57197   1.400  10.677   9.190  0.5293  0.2218  0.9250
18273SOL    HW157198   1.454  10.622   9.132 -1.2314  1.0323 -1.6775
18273SOL    HW257199   1.357  10.615   9.248  1.9686 -0.6920  1.0830
18274SOL     OW57200   2.196   2.742   2.488 -0.7357  0.1768  0.0635
18274SOL    HW157201   2.193   2.835   2.511 -1.8661  0.0819  0.3590
18274SOL    HW257202   2.163   2.697   2.565  1.1946 -0.6015  0.4761
18275SOL     OW57203   9.892   4.348   6.760 -0.2144  0.2414  0.0245
18275SOL    HW157204   9.852   4.394   6.686  0.1334  0.8616  0.2124
18275SOL    HW257205   9.951   4.413   6.799  2.8189 -1.2974 -1.6335
18276SOL     OW57206   5.260   4.680  10.596  0.4264  0.2547  0.0938
18276SOL    HW157207   5.323   4.611  10.576 -0.0713 -0.3424  0.5367
18276SOL    HW257208   5.175   4.641  10.575  0.0116  0.1879  1.7483
18277SOL     OW57209   0.130   0.365   8.800  0.4621  0.1853  0.3617
18277SOL    HW157210   0.168   0.279   8.782  0.3091  0.0103  0.8461
18277SOL    HW257211   0.206   0.423   8.809  0.5545  0.1578 -0.2455
18278SOL     OW57212   6.558   6.023   8.636 -0.2763 -0.0370  0.6245
18278SOL    HW157213   6.536   6.111   8.667 -0.5867  0.7537 -1.6745
18278SOL    HW257214   6.652   6.027   8.618 -0.4699  0.1613 -0.4081
18279SOL     OW57215  10.712   2.937   9.391  0.4916  0.4073 -0.8889
18279SOL    HW157216  10.680   2.852   9.361  0.7372 -0.3600  0.8897
18279SOL    HW257217  10.669   2.951   9.475  0.6714  1.9403 -1.0142
18280SOL     OW57218   0.172  10.771   2.377  0.5306  0.7413 -0.4808
18280SOL    HW157219   0.130  10.855   2.397 -0.7858  0.0995 -0.4649
18280SOL    HW257220   0.113  10.729   2.314  0.4458 -0.7601  0.5385
18281SOL     OW57221   8.665   0.632   1.646  0.4114  0.6473  0.1279
18281SOL    HW157222   8.646   0.540   1.629  1.7307  0.6003 -1.3707
18281SOL    HW257223   8.730   0.631   1.717  0.0453  0.4640  0.4627
18282SOL     OW57224   6.385   4.738   0.026  0.2308 -0.0187  0.1212
18282SOL    HW157225   6.290   4.751   0.024 -0.1023 -2.0259  0.7398
18282SOL    HW257226   6.402   4.697   0.111  1.6058 -0.1116 -0.1650
18283SOL     OW57227   9.112   0.219   6.068  0.2370  0.0194  0.0376
18283SOL    HW157228   9.044   0.212   6.135  0.5970  1.0397  0.5320
18283SOL    HW257229   9.065   0.232   5.986 -0.1753  2.2680  0.5784
18284SOL     OW57230   2.564   5.813   1.574  0.6745 -0.4012 -0.2515
18284SOL    HW157231   2.483   5.836   1.618  1.1784  0.6910  0.1423
18284SOL    HW257232   2.542   5.812   1.481  0.2708  0.1691 -0.1647
18285SOL     OW57233   5.788   6.366   0.021  0.2862 -0.2348 -0.5506
18285SOL    HW157234   5.868   6.402  -0.017  0.0454 -0.2837 -1.1089
18285SOL    HW257235   5.717   6.410  -0.026 -0.0212  0.0882  0.1956
18286SOL     OW57236   8.150   3.722   0.251  0.2195  0.0527 -0.2044
18286SOL    HW157237   8.146   3.815   0.227 -1.1648 -0.0938 -0.6073
18286SOL    HW257238   8.106   3.677   0.179 -0.4821 -0.7676  0.7197
18287SOL     OW57239   4.838   0.199   5.917  0.2141  0.0642  0.6979
18287SOL    HW157240   4.761   0.195   5.972 -0.0545  1.6312  0.4837
18287SOL    HW257241   4.911   0.184   5.976 -0.1455  0.5286  1.2714
18288SOL     OW57242   3.749   1.614   6.337 -0.2515  0.2071 -0.5644
18288SOL    HW157243   3.705   1.649   6.259 -0.4092 -1.6890 -1.3806
18288SOL    HW257244   3.840   1.601   6.309 -0.5351 -1.4553 -0.8072
18289SOL     OW57245   1.311   4.573   1.148 -0.0722 -0.1216  0.1141
18289SOL    HW157246   1.266   4.560   1.064 -0.1880 -1.2448  0.3273
18289SOL    HW257247   1.249   4.623   1.201  1.0900  3.1379 -1.3547
18290SOL     OW57248   4.359   6.025   7.994  0.1645 -0.4412  0.5036
18290SOL    HW157249   4.437   6.078   8.013 -1.0171  0.8446  2.1536
18290SOL    HW257250   4.311   6.075   7.928  0.2163 -0.6831  0.2820
18291SOL     OW57251   4.183   2.685  10.400  0.0135  0.2621 -0.2922
18291SOL    HW157252   4.276   2.678  10.378 -0.0496 -1.1389 -0.1974
18291SOL    HW257253   4.171   2.776  10.427  1.2491  0.5797 -0.7738
18292SOL     OW57254   9.302   5.473   2.441  0.3818 -1.1313  0.3196
18292SOL    HW157255   9.218   5.440   2.410 -0.7249  1.2513  0.5717
18292SOL    HW257256   9.357   5.477   2.362 -0.6297 -0.2535 -0.3672
18293SOL     OW57257   9.931   2.583   0.927  0.1267  0.8410 -0.3542
18293SOL    HW157258   9.906   2.521   0.858 -1.7986  1.3399 -0.1547
18293SOL    HW257259   9.938   2.667   0.883  0.9427  0.8135 -0.2928
18294SOL     OW57260   0.036   8.192   1.445  0.1974 -0.2385  0.1869
18294SOL    HW157261  -0.042   8.177   1.499  0.4109 -1.9297  0.0825
18294SOL    HW257262   0.105   8.215   1.507 -0.2074  0.6046  0.3416
18295SOL     OW57263   2.672   9.196   1.122 -0.5469 -0.3439  0.5715
18295SOL    HW157264   2.705   9.154   1.201 -0.2883 -0.2085  0.5359
18295SOL    HW257265   2.740   9.258   1.097  0.8805 -2.5159 -1.4897
18296SOL     OW57266   1.452   0.968   6.122  0.4394 -0.2473 -0.2395
18296SOL    HW157267   1.499   0.973   6.206  0.0007 -2.1040  0.1544
18296SOL    HW257268   1.370   0.923   6.143 -2.4651  4.2820 -0.5813
18297SOL     OW57269   2.994   5.535   2.177 -0.4743  0.0836  0.2923
18297SOL    HW157270   2.923   5.472   2.163  1.4501 -3.0632  3.1818
18297SOL    HW257271   2.954   5.603   2.232 -1.5794 -1.0016  0.8980
18298SOL     OW57272   1.414   8.418   0.957  0.4158  0.9337  0.1604
18298SOL    HW157273   1.474   8.492   0.951 -0.5695  1.7134 -0.6284
18298SOL    HW257274   1.368   8.431   1.040  1.7560 -0.0230  1.0775
18299SOL     OW57275  10.490   2.341   9.080 -0.0438 -0.5034  0.0332
18299SOL    HW157276  10.430   2.403   9.122 -0.4479 -0.2429 -0.9147
18299SOL    HW257277  10.437   2.298   9.013  1.0512  0.3881 -1.4578
18300SOL     OW57278   7.948   1.549   9.168 -0.3633  0.3305  0.8679
18300SOL    HW157279   8.040   1.522   9.174  0.0522  0.9876 -1.5148
18300SOL    HW257280   7.951   1.642   9.148 -1.4893  0.1617 -0.2469
18301SOL     OW57281   5.791   9.603   9.200  0.0878 -0.1693 -0.2118
18301SOL    HW157282   5.767   9.624   9.110 -1.6331 -0.6661  0.0994
18301SOL    HW257283   5.846   9.525   9.192  0.1398 -0.0803 -0.8335
18302SOL     OW57284   4.389   6.979   3.282 -0.0851  0.0343 -0.0946
18302SOL    HW157285   4.381   7.066   3.244 -0.8664  0.7056  1.5131
18302SOL    HW257286   4.325   6.926   3.236  0.3907  0.2859 -1.0777
18303SOL     OW57287  10.561   5.749   3.191 -0.3756  0.3273  0.1239
18303SOL    HW157288  10.564   5.662   3.230 -0.9424 -0.2882 -1.1517
18303SOL    HW257289  10.561   5.809   3.265  0.4827 -0.7395  1.0144
18304SOL     OW57290   3.237   1.145   8.312  0.5639  0.2159  0.5633
18304SOL    HW157291   3.330   1.121   8.316  0.7844  0.5603 -1.6199
18304SOL    HW257292   3.192   1.069   8.349  1.6583 -0.3121  0.8783
18305SOL     OW57293  10.537   2.886   4.425 -0.1677  0.4546 -0.4720
18305SOL    HW157294  10.545   2.972   4.385 -1.5290  1.2900  0.9294
18305SOL    HW257295  10.443   2.876   4.441  0.0474 -0.9700  0.0473
18306SOL     OW57296   1.423   8.064   1.901  0.1513 -0.6056 -0.1520
18306SOL    HW157297   1.338   8.103   1.922  0.2981 -0.6559  0.5826
18306SOL    HW257298   1.486   8.118   1.949  0.4908 -0.8341 -0.3433
18307SOL     OW57299   2.044   2.758   6.547  0.2249 -0.0957 -0.3444
18307SOL    HW157300   2.117   2.793   6.497 -0.8192  1.5159 -0.8230
18307SOL    HW257301   2.059   2.664   6.549  1.9799  0.1416 -0.9367
18308SOL     OW57302   8.018   6.749   2.733  0.1870 -0.2222 -0.1324
18308SOL    HW157303   8.063   6.730   2.815 -0.8721  1.5920  0.9149
18308SOL    HW257304   7.944   6.804   2.757 -1.1369 -0.9963 -2.1174
18309SOL     OW57305   2.347   9.703   7.929 -0.4053 -0.1241 -0.1623
18309SOL    HW157306   2.334   9.666   8.016 -0.6929  1.0802  0.3273
18309SOL    HW257307   2.304   9.788   7.932  0.1279  0.2143 -1.2898
18310SOL     OW57308  10.628   2.962   5.346 -0.0022 -0.0615 -0.0542
18310SOL    HW157309  10.676   2.882   5.323 -0.7217 -0.7935  0.9320
18310SOL    HW257310  10.582   2.940   5.427 -1.9609  0.6459 -0.9319
18311SOL     OW57311  10.753   3.001   6.467 -0.2183 -0.0885 -0.1213
18311SOL    HW157312  10.708   3.068   6.415 -0.9092  0.8176  1.5828
18311SOL    HW257313  10.684   2.938   6.489 -0.1810  0.1198  0.6137
18312SOL     OW57314   5.041  10.307   4.387  0.0660  0.6762 -0.0713
18312SOL    HW157315   5.106  10.360   4.433  0.4564 -0.1955  0.4127
18312SOL    HW257316   4.959  10.357   4.395  0.2843  0.8869  0.9542
18313SOL     OW57317   1.396   6.848   6.720 -0.0832  0.0340 -0.4591
18313SOL    HW157318   1.485   6.818   6.735  0.1534  1.5497  1.5114
18313SOL    HW257319   1.401   6.901   6.640  1.0438  1.0639  0.2689
18314SOL     OW57320   3.390   2.175   7.178 -0.2173 -0.1700 -0.4858
18314SOL    HW157321   3.474   2.142   7.147 -0.9004 -0.3476 -2.3123
18314SOL    HW257322   3.384   2.146   7.269  0.7165 -2.0724 -0.9877
18315SOL     OW57323   7.649  10.056   2.161  0.0009  0.4310 -0.0635
18315SOL    HW157324   7.596  10.032   2.086  0.5454 -1.4061  0.0826
18315SOL    HW257325   7.649   9.978   2.217  1.0634  1.1295  0.9769
18316SOL     OW57326   8.185   8.753   0.667  0.0456  0.6284  0.2993
18316SOL    HW157327   8.174   8.835   0.618 -1.3552  0.7433  0.7857
18316SOL    HW257328   8.176   8.684   0.601 -3.0322  0.7268  0.4709
18317SOL     OW57329   0.895  10.483   1.639 -0.3509 -0.2139  0.2321
18317SOL    HW157330   0.870  10.444   1.723 -0.5801  1.8518  1.1702
18317SOL    HW257331   0.844  10.564   1.634  0.9437  0.5622 -1.1134
18318SOL     OW57332   9.819  10.306   8.825 -0.4400 -0.3293 -0.4458
18318SOL    HW157333   9.798  10.315   8.919  2.6240  1.2325  0.2071
18318SOL    HW257334   9.797  10.391   8.787  1.8719  0.4313 -0.2562
18319SOL     OW57335   1.640   1.776   0.898 -0.2057  0.2020  0.2496
18319SOL    HW157336   1.722   1.749   0.938 -0.1841  2.2527  1.7732
18319SOL    HW257337   1.592   1.820   0.969 -2.2007 -0.0897 -0.8403
18320SOL     OW57338   6.311   4.835   8.560 -0.0422 -0.3684 -0.3720
18320SOL    HW157339   6.394   4.830   8.512  0.0258 -1.5974 -0.1634
18320SOL    HW257340   6.313   4.760   8.619 -0.9964  0.0041  0.1507
18321SOL     OW57341   3.584   0.529   6.578  0.3245 -0.0171  0.6095
18321SOL    HW157342   3.540   0.498   6.499  2.5222 -1.5983 -0.0880
18321SOL    HW257343   3.643   0.598   6.548 -0.1644  0.6686  1.1931
18322SOL     OW57344   6.231   8.534   4.154 -1.2484  0.0700 -0.6131
18322SOL    HW157345   6.179   8.598   4.105 -0.0234  1.6875  0.1392
18322SOL    HW257346   6.187   8.527   4.239 -0.3396  1.3851 -0.0028
18323SOL     OW57347   9.754   1.777   7.528  0.1968 -0.1218  0.2966
18323SOL    HW157348   9.688   1.730   7.578  0.3995 -2.9756 -1.8261
18323SOL    HW257349   9.705   1.816   7.455  0.4449  0.3424  0.3793
18324SOL     OW57350   4.036   1.763   8.689 -0.1414 -0.1274 -0.0981
18324SOL    HW157351   3.940   1.766   8.686 -0.2539 -1.2316  1.2065
18324SOL    HW257352   4.059   1.682   8.644  0.2099  0.2585 -0.6243
18325SOL     OW57353   4.355   5.074   8.283 -0.4561 -0.1756 -0.0231
18325SOL    HW157354   4.355   5.158   8.328  0.6024 -0.3700  0.3565
18325SOL    HW257355   4.439   5.070   8.237  0.4216 -1.8653  1.5926
18326SOL     OW57356   2.990   0.748   8.569  0.1714  0.1808 -0.2171
18326SOL    HW157357   2.998   0.670   8.624  0.0558 -1.4509 -2.3527
18326SOL    HW257358   2.973   0.713   8.481 -1.4129  2.6710 -1.0046
18327SOL     OW57359   9.599   3.955   1.049 -0.9184  0.4259  0.3977
18327SOL    HW157360   9.649   4.034   1.031 -1.2464  1.2310  2.6592
18327SOL    HW257361   9.633   3.890   0.987  0.7315  1.7808 -0.1925
18328SOL     OW57362   7.089   0.581   7.650  0.0537 -0.1592 -0.0407
18328SOL    HW157363   7.053   0.520   7.714  0.9867 -0.9255 -0.2229
18328SOL    HW257364   7.025   0.581   7.579  0.1887 -1.1930 -0.1844
18329SOL     OW57365   1.938   6.684   4.641  0.1267 -0.0812  0.2402
18329SOL    HW157366   1.846   6.704   4.626  0.8102  2.7474 -0.7276
18329SOL    HW257367   1.966   6.641   4.560  0.2810  1.6907 -0.6984
18330SOL     OW57368   9.181   9.281   3.173  0.3555 -0.1918 -0.4164
18330SOL    HW157369   9.146   9.315   3.090 -0.6845  0.2574  0.1889
18330SOL    HW257370   9.137   9.197   3.185  0.5066 -0.2575 -0.3090
18331SOL     OW57371   0.961   9.402   0.845 -0.1297  0.2851 -0.0790
18331SOL    HW157372   1.037   9.344   0.846 -0.7407 -0.5397  0.8392
18331SOL    HW257373   0.889   9.347   0.813 -0.4475  0.9129 -0.4642
18332SOL     OW57374   5.841  10.504   3.057  0.1828  0.1258  0.7589
18332SOL    HW157375   5.905  10.445   3.016  1.2145  0.8342  1.2919
18332SOL    HW257376   5.859  10.589   3.018 -1.3883  0.0797 -0.1043
18333SOL     OW57377   5.681   1.169   8.507  0.1170  0.2679  0.7202
18333SOL    HW157378   5.754   1.231   8.511 -0.4403  1.0657 -0.7780
18333SOL    HW257379   5.711   1.100   8.448  0.2736 -0.2562  1.4102
18334SOL     OW57380   5.505   1.306   5.246 -0.0810  0.2048  0.0549
18334SOL    HW157381   5.588   1.258   5.244  0.3671  0.9538  0.1521
18334SOL    HW257382   5.439   1.243   5.218  0.5512 -0.3498 -0.1933
18335SOL     OW57383   3.043   4.720   7.984  0.0866 -0.0414  0.0614
18335SOL    HW157384   3.046   4.652   7.916  2.3072 -1.3955  1.3820
18335SOL    HW257385   2.970   4.693   8.041 -0.9775  0.4125 -1.0290
18336SOL     OW57386   8.073   5.322   3.288 -0.1907  0.3369 -0.2716
18336SOL    HW157387   8.079   5.387   3.218 -0.1161  0.9043  0.2562
18336SOL    HW257388   8.001   5.265   3.262 -0.0408  0.4350 -0.9011
18337SOL     OW57389   6.187   0.083   2.705  0.0955  0.3394  0.0155
18337SOL    HW157390   6.104   0.104   2.746  0.2142  1.6151 -0.3429
18337SOL    HW257391   6.253   0.098   2.773  0.1059  0.1150  0.0578
18338SOL     OW57392   1.097   1.155   7.697 -0.6684 -0.7522 -0.3410
18338SOL    HW157393   1.153   1.222   7.738 -1.9304 -0.1893  0.5424
18338SOL    HW257394   1.140   1.072   7.717  1.0787 -0.2211 -1.6978
18339SOL     OW57395   2.269   4.737   5.076  0.2837  0.2459  0.3857
18339SOL    HW157396   2.298   4.646   5.070  1.0896  0.4353  1.2045
18339SOL    HW257397   2.318   4.774   5.150  0.3615  1.4868 -0.2490
18340SOL     OW57398   4.664   4.952   3.980 -0.0038 -0.2790  0.9408
18340SOL    HW157399   4.584   4.900   3.990 -0.2135 -0.0207  0.5875
18340SOL    HW257400   4.643   5.018   3.915  0.1534  0.4903  1.6568
18341SOL     OW57401   9.108   7.660   1.506 -0.1735  0.0429  0.1595
18341SOL    HW157402   9.158   7.639   1.426 -1.1089  1.2518 -0.7806
18341SOL    HW257403   9.148   7.605   1.574 -1.1777 -3.2655 -1.6819
18342SOL     OW57404   3.521   7.924   7.430  0.2097  0.4913 -0.1377
18342SOL    HW157405   3.527   7.839   7.474 -1.8357 -0.4272 -1.4936
18342SOL    HW257406   3.430   7.931   7.404  1.0096  1.6145 -2.9633
18343SOL     OW57407  10.191  10.671   2.224  0.3108 -0.1123  0.0043
18343SOL    HW157408  10.221  10.748   2.273  1.3410 -0.4234 -0.1166
18343SOL    HW257409  10.253  10.662   2.152 -0.0878 -0.7775 -0.2681
18344SOL     OW57410   4.005   5.331   1.326  0.4741 -0.0836  0.0305
18344SOL    HW157411   3.919   5.291   1.330  1.3851 -2.2794  5.1541
18344SOL    HW257412   4.057   5.270   1.273 -0.4816 -0.0564 -0.9712
18345SOL     OW57413   5.699   4.602   1.498  0.9034  0.2443 -0.3488
18345SOL    HW157414   5.767   4.558   1.447 -1.1042 -2.6388 -0.8211
18345SOL    HW257415   5.725   4.694   1.499  4.2549 -0.5550 -1.2610
18346SOL     OW57416  10.385   6.456   9.038 -0.0266 -0.1540 -0.3692
18346SOL    HW157417  10.387   6.401   8.959 -0.5399  0.2458 -0.6683
18346SOL    HW257418  10.393   6.395   9.111  0.8736 -0.4972 -0.7371
18347SOL     OW57419   3.302   5.380   9.127 -0.0109  0.0370  0.1213
18347SOL    HW157420   3.251   5.300   9.122 -1.1137  0.7200  0.1498
18347SOL    HW257421   3.238   5.450   9.114  0.8183  0.9377  0.7754
18348SOL     OW57422  10.086   9.320   0.444  0.3539  0.8676 -0.1406
18348SOL    HW157423  10.146   9.343   0.515  0.7783 -1.0564  0.1850
18348SOL    HW257424  10.000   9.313   0.486  0.7333 -1.0626  0.4167
18349SOL     OW57425   1.277   3.652   2.034 -0.1502 -0.5607 -0.6213
18349SOL    HW157426   1.321   3.568   2.046  0.1387 -0.4605 -0.9409
18349SOL    HW257427   1.348   3.713   2.017 -0.1711  0.1398  1.5168
18350SOL     OW57428   5.134   7.402   6.994  0.4799 -0.2846  0.3385
18350SOL    HW157429   5.072   7.329   6.990  0.7009 -0.4316 -1.4041
18350SOL    HW257430   5.219   7.363   6.971  0.1725  0.8665 -3.5015
18351SOL     OW57431  10.223   7.420   4.239 -0.7245 -0.1563 -0.0482
18351SOL    HW157432  10.280   7.389   4.169  0.3402  0.5131  0.4851
18351SOL    HW257433  10.162   7.481   4.197  0.2767  0.6866 -0.3223
18352SOL     OW57434   5.857   2.527   6.432 -0.2365  0.1253 -0.7108
18352SOL    HW157435   5.805   2.592   6.480 -1.2726 -1.3413  0.2255
18352SOL    HW257436   5.796   2.489   6.369 -0.1020 -1.0337 -0.1709
18353SOL     OW57437   6.630   5.784   3.691 -0.1180 -0.3149 -0.1491
18353SOL    HW157438   6.619   5.700   3.647  0.4091 -1.1340  1.2136
18353SOL    HW257439   6.629   5.762   3.784  5.5234  0.3184  0.3994
18354SOL     OW57440   2.265   1.847   3.249  0.1386  0.3985 -0.5979
18354SOL    HW157441   2.350   1.874   3.283  0.4513 -1.8416  0.5839
18354SOL    HW257442   2.272   1.859   3.155  1.2431  1.5737 -0.3916
18355SOL     OW57443  10.690   2.364   6.275 -0.1803  0.3543 -0.2240
18355SOL    HW157444  10.649   2.299   6.331 -0.4165  0.9016  0.2395
18355SOL    HW257445  10.778   2.330   6.259 -1.2589 -1.6324 -2.5253
18356SOL     OW57446   7.361   1.130   8.851 -0.6441  0.4311 -0.5123
18356SOL    HW157447   7.284   1.171   8.889  0.6100  0.8788  1.7274
18356SOL    HW257448   7.377   1.054   8.907  0.4269  0.2433 -1.0516
18357SOL     OW57449   3.587  10.078   9.418  0.4335  0.2761 -0.1544
18357SOL    HW157450   3.630  10.065   9.502  1.5028 -0.7962 -0.8483
18357SOL    HW257451   3.652  10.053   9.352 -0.3767  1.0900 -1.3144
18358SOL     OW57452   8.022   5.623   5.963  0.6391 -0.3581  0.0499
18358SOL    HW157453   8.118   5.618   5.960  0.5632 -1.6825 -1.2043
18358SOL    HW257454   7.994   5.594   5.877 -0.9229 -0.7931  0.6722
18359SOL     OW57455   1.919   7.521   5.133 -0.3379  0.0870 -0.1510
18359SOL    HW157456   1.904   7.448   5.072 -0.7639  1.4806 -1.7896
18359SOL    HW257457   1.857   7.589   5.104  0.5816  1.3779  0.8402
18360SOL     OW57458   6.843   1.212   1.751 -0.2071  0.1652 -0.4418
18360SOL    HW157459   6.891   1.250   1.825  0.8033 -2.1335  0.1895
18360SOL    HW257460   6.755   1.196   1.785 -0.3779  1.0387 -0.4396
18361SOL     OW57461   8.771   1.859   1.836 -0.3162  0.1852 -0.3023
18361SOL    HW157462   8.767   1.775   1.792  0.9234  0.0071 -0.1200
18361SOL    HW257463   8.706   1.853   1.907  0.5574 -1.0528  0.4216
18362SOL     OW57464   5.101   1.612   6.461  0.4696  0.1850  0.3686
18362SOL    HW157465   5.066   1.669   6.392 -1.1757 -0.2884  0.7970
18362SOL    HW257466   5.144   1.672   6.521 -1.1232  0.9966  0.7410
18363SOL     OW57467   1.010   5.701   3.788 -0.1180  0.1386  0.3067
18363SOL    HW157468   0.957   5.676   3.712  0.5157  0.7505 -0.3569
18363SOL    HW257469   1.074   5.764   3.753 -0.6091  1.4038  1.5886
18364SOL     OW57470   6.509   8.266  10.162  0.4171  0.1035 -0.1820
18364SOL    HW157471   6.501   8.257  10.257 -0.7023 -1.7651 -0.4147
18364SOL    HW257472   6.602   8.253  10.145  0.7181  0.9438  0.6697
18365SOL     OW57473   6.050   0.059   4.236 -0.0385 -0.0470  0.3322
18365SOL    HW157474   6.056   0.075   4.142 -0.6775 -0.8162  0.1524
18365SOL    HW257475   5.958   0.036   4.251  0.0480  0.0886  1.1479
18366SOL     OW57476   8.839   4.744   9.965 -0.2542 -0.9842 -0.4264
18366SOL    HW157477   8.819   4.684   9.893 -0.3291 -0.5366 -0.7911
18366SOL    HW257478   8.932   4.763   9.955 -0.4407 -0.2827 -0.9123
18367SOL     OW57479   4.985   3.138   7.135  0.6218  0.0694  0.5519
18367SOL    HW157480   4.982   3.226   7.172 -0.3470  0.3506 -0.1390
18367SOL    HW257481   5.069   3.135   7.089  1.0469  0.3231  1.2949
18368SOL     OW57482   2.827   0.422   9.347 -0.2190  0.4935 -0.3205
18368SOL    HW157483   2.904   0.365   9.342  1.2678  2.3100  1.0324
18368SOL    HW257484   2.771   0.392   9.274  1.7872 -0.7960 -1.4215
18369SOL     OW57485   5.667   8.367   0.031  0.3403  0.3367 -0.1206
18369SOL    HW157486   5.607   8.368   0.106 -1.4820 -3.1384 -1.2969
18369SOL    HW257487   5.750   8.398   0.067 -1.0888  1.3155  2.6529
18370SOL     OW57488  10.319   8.160   4.740  0.4597 -0.2014 -0.9034
18370SOL    HW157489  10.241   8.203   4.705  1.2132  1.3044 -0.8303
18370SOL    HW257490  10.286   8.090   4.796 -0.8814  1.3447  0.2993
18371SOL     OW57491   9.591   3.559   6.049  0.4462 -0.3656  0.2165
18371SOL    HW157492   9.597   3.652   6.028  1.1979 -0.3438  0.5178
18371SOL    HW257493   9.498   3.545   6.069 -0.2395 -0.2808 -2.5329
18372SOL     OW57494   6.074   2.456   1.614  0.1809 -0.0355 -0.2962
18372SOL    HW157495   6.163   2.436   1.642  0.2289 -2.7370 -2.0460
18372SOL    HW257496   6.082   2.483   1.523 -0.7041  0.5286 -0.2185
18373SOL     OW57497   2.158   1.806  10.568 -0.3981  0.0278  0.2277
18373SOL    HW157498   2.160   1.761  10.484  2.0109  0.2807  0.0837
18373SOL    HW257499   2.199   1.745  10.629 -1.5196  0.1156  1.1198
18374SOL     OW57500   5.064   5.362   5.529 -0.2667  0.0522 -0.0265
18374SOL    HW157501   5.160   5.366   5.536 -0.2243 -0.6820 -0.1194
18374SOL    HW257502   5.040   5.284   5.578 -0.7197 -0.3674 -0.8926
18375SOL     OW57503   0.247  10.685   6.267 -0.3157  0.0115  0.4257
18375SOL    HW157504   0.271  10.759   6.323  2.1436 -1.3491  1.3280
18375SOL    HW257505   0.164  10.654   6.303 -0.4456  1.1746  1.2058
18376SOL     OW57506   7.403   9.993   1.152  0.4964 -0.7368 -0.1044
18376SOL    HW157507   7.318   9.986   1.108 -0.2083 -0.1155  1.1184
18376SOL    HW257508   7.442   9.906   1.142 -0.1007 -0.9143 -1.0282
18377SOL     OW57509   2.271   6.732   8.432  0.0171 -0.1623 -0.6287
18377SOL    HW157510   2.227   6.671   8.491  0.5343 -0.0030 -0.0676
18377SOL    HW257511   2.354   6.752   8.476 -0.7277  2.0511 -0.0772
18378SOL     OW57512   8.856   2.290   4.389  0.1151  0.7256  0.3811
18378SOL    HW157513   8.903   2.296   4.472  0.9769  2.7551 -0.1780
18378SOL    HW257514   8.870   2.200   4.360 -1.9709 -0.6964  3.3505
18379SOL     OW57515   9.867   3.092  10.013  0.4358 -0.0342 -0.5546
18379SOL    HW157516   9.850   3.028  10.083  0.4069 -0.8634 -1.3023
18379SOL    HW257517   9.958   3.117  10.026  0.2338  0.3418  0.1946
18380SOL     OW57518   8.744  10.689   2.524  0.0091 -0.4593 -0.0556
18380SOL    HW157519   8.684  10.684   2.598 -0.1359  2.8276  0.2302
18380SOL    HW257520   8.735  10.605   2.479 -0.9492 -2.0039  2.8081
18381SOL     OW57521   0.268  10.093   9.865 -0.3810 -0.5978 -0.0765
18381SOL    HW157522   0.359  10.104   9.839  0.2361 -0.7508  1.8456
18381SOL    HW257523   0.239  10.013   9.821  1.1459 -1.8181  1.0478
18382SOL     OW57524   3.100   6.845   9.427 -0.3126  0.0590  0.6266
18382SOL    HW157525   3.110   6.826   9.520  0.3880 -0.0830  0.5262
18382SOL    HW257526   3.183   6.886   9.402  0.3510 -1.8327 -0.4153
18383SOL     OW57527   4.138   2.756   7.233 -0.0392  0.3232 -0.3890
18383SOL    HW157528   4.162   2.824   7.296 -0.5579  1.2967 -1.2345
18383SOL    HW257529   4.092   2.690   7.286 -3.8210  2.8055 -0.2255
18384SOL     OW57530   6.433   1.731   5.172  0.6609  0.9521  0.1060
18384SOL    HW157531   6.460   1.697   5.258  0.1705 -0.0384 -0.1219
18384SOL    HW257532   6.483   1.813   5.163  0.3199  1.3562  1.5577
18385SOL     OW57533   3.509   4.520   3.673 -0.0660 -0.1983  0.0141
18385SOL    HW157534   3.469   4.607   3.682 -0.2238 -0.2473 -0.1929
18385SOL    HW257535   3.553   4.504   3.756 -0.1389  0.0295  0.0959
18386SOL     OW57536   6.276   4.524   1.144  0.4960 -0.2011  0.2717
18386SOL    HW157537   6.181   4.520   1.155  0.3284  1.2067 -0.4083
18386SOL    HW257538   6.310   4.452   1.198 -0.9384 -0.6766  0.5812
18387SOL     OW57539   1.041   1.795   6.438 -0.8635 -0.1926  0.2726
18387SOL    HW157540   0.967   1.760   6.387 -2.2473 -0.7497  2.5400
18387SOL    HW257541   1.029   1.890   6.433  2.0648  0.2780 -4.6523
18388SOL     OW57542   4.769   9.398   3.780  0.1342 -0.0660 -0.1489
18388SOL    HW157543   4.821   9.474   3.806  0.8074 -1.1162  1.8346
18388SOL    HW257544   4.747   9.413   3.688  3.2212  0.8346 -0.8482
18389SOL     OW57545   7.100   3.388   1.573  0.3954 -0.2911  0.2317
18389SOL    HW157546   7.029   3.327   1.554 -0.5404  1.5841 -3.0795
18389SOL    HW257547   7.058   3.456   1.626 -0.4775  0.9173 -1.8870
18390SOL     OW57548  10.322   6.947   2.844  0.1065 -0.2332 -0.2906
18390SOL    HW157549  10.403   6.897   2.835 -0.1842 -0.7894  0.1196
18390SOL    HW257550  10.259   6.884   2.878 -0.5063  0.1905 -0.6174
18391SOL     OW57551   4.924   2.095   0.014 -0.6236  0.2964 -0.0267
18391SOL    HW157552   5.000   2.126   0.063  0.4189  0.3478 -1.5958
18391SOL    HW257553   4.867   2.056   0.080  0.4817  0.8090  1.2772
18392SOL     OW57554   2.059   1.483   2.401 -0.3703 -0.1472  0.0494
18392SOL    HW157555   2.047   1.390   2.387 -1.8258  0.1042 -0.5404
18392SOL    HW257556   1.971   1.521   2.394 -0.0444  1.0894  1.8064
18393SOL     OW57557   0.290   0.715   4.403  0.1469 -0.7001  0.0643
18393SOL    HW157558   0.376   0.677   4.385  1.1241  1.3673  0.0504
18393SOL    HW257559   0.236   0.641   4.431  2.1434 -1.9416  0.8420
18394SOL     OW57560   1.563   3.980   4.187  0.4804 -0.0440 -0.3924
18394SOL    HW157561   1.531   4.025   4.108 -0.2479  1.1910  0.5735
18394SOL    HW257562   1.658   3.980   4.178  0.4488  0.9210 -0.8342
18395SOL     OW57563   4.056   1.368   2.818 -0.0354 -0.4094  0.8475
18395SOL    HW157564   4.057   1.366   2.722  1.1182 -1.3344  0.8601
18395SOL    HW257565   3.991   1.435   2.839 -0.1746 -0.0518 -0.5798
18396SOL     OW57566   0.444   9.392   2.333 -0.2902  0.2125 -0.1877
18396SOL    HW157567   0.537   9.372   2.328 -0.4503 -1.0660  1.1826
18396SOL    HW257568   0.440   9.488   2.343  0.9681  0.1457  1.2767
18397SOL     OW57569   0.179   1.891   3.747 -0.0788  0.2309  0.5118
18397SOL    HW157570   0.262   1.883   3.793  0.5961  1.2642 -0.4694
18397SOL    HW257571   0.122   1.938   3.809 -0.0503 -0.7618  1.3062
18398SOL     OW57572   8.668   8.922   5.281  0.1348  0.0307 -0.4042
18398SOL    HW157573   8.681   8.890   5.192  0.2788  0.2152 -0.4487
18398SOL    HW257574   8.714   8.858   5.336 -0.4168 -0.3845 -0.4193
18399SOL     OW57575   4.048   6.958   6.557  0.3435 -0.0783  0.6400
18399SOL    HW157576   4.010   6.872   6.569  0.1457 -0.5895 -2.8236
18399SOL    HW257577   4.140   6.941   6.536  0.3012  0.5555 -0.0826
18400SOL     OW57578   6.056   5.425   0.939  0.0242  0.0043  0.3686
18400SOL    HW157579   5.968   5.444   0.972 -1.1936 -3.0962 -0.7788
18400SOL    HW257580   6.096   5.373   1.008  0.6892  0.6971  0.5202
18401SOL     OW57581   0.291   4.158   1.705  0.0488  0.5202 -0.8686
18401SOL    HW157582   0.266   4.180   1.616 -1.2409 -1.5295 -1.0691
18401SOL    HW257583   0.319   4.067   1.701 -0.3696  0.2713  0.8623
18402SOL     OW57584   0.050   8.343   7.390 -0.3188 -0.1135 -0.5040
18402SOL    HW157585   0.109   8.269   7.400  0.4564  0.6055  0.4522
18402SOL    HW257586   0.091   8.397   7.322  1.3659  1.4872  1.6633
18403SOL     OW57587   5.268   9.505   3.124 -0.2769  0.3881 -0.0249
18403SOL    HW157588   5.181   9.464   3.125  0.1292 -0.5421 -0.8680
18403SOL    HW257589   5.319   9.452   3.063  0.9710  0.7704  0.6498
18404SOL     OW57590   0.148   0.521   9.964 -0.5029 -0.1596  0.4478
18404SOL    HW157591   0.163   0.569   9.883  0.5771 -1.5307 -0.2164
18404SOL    HW257592   0.123   0.588  10.028  0.7508  1.2452 -0.4709
18405SOL     OW57593   2.826   3.318   3.235  0.8473 -0.2059  0.0926
18405SOL    HW157594   2.808   3.406   3.203  0.6997  0.0819  0.9557
18405SOL    HW257595   2.742   3.288   3.271 -0.0135 -1.8986 -2.8779
18406SOL     OW57596   8.468   0.016   9.384  0.1861 -0.5193  0.0904
18406SOL    HW157597   8.529   0.019   9.458  0.3826 -0.5857 -0.0683
18406SOL    HW257598   8.395   0.073   9.410  0.4658 -0.1874  0.1498
18407SOL     OW57599   4.470   2.945   7.452  0.5187  0.2103  0.1531
18407SOL    HW157600   4.451   2.853   7.433  0.7860  0.1448  0.1950
18407SOL    HW257601   4.402   2.994   7.406 -0.1803 -0.0489  0.8687
18408SOL     OW57602   7.395   5.350   0.585  0.1760  0.1244 -0.1433
18408SOL    HW157603   7.331   5.366   0.516  0.5384  1.8167 -0.1343
18408SOL    HW257604   7.440   5.434   0.596  1.0165 -0.4713  1.2491
18409SOL     OW57605   6.238   5.095   0.532  0.1264  0.1218  0.2084
18409SOL    HW157606   6.191   5.097   0.448  0.2885 -1.2215  0.0617
18409SOL    HW257607   6.178   5.049   0.591  0.3282  0.3932  0.6270
18410SOL     OW57608   4.568   7.640   1.780  0.1072 -0.3142 -0.0849
18410SOL    HW157609   4.643   7.693   1.805  0.4295 -0.6591 -0.3026
18410SOL    HW257610   4.492   7.696   1.796  0.4279  0.1324 -0.1108
18411SOL     OW57611   3.184   7.048   0.288  0.1999  0.0403 -0.4114
18411SOL    HW157612   3.165   7.128   0.240  0.3450 -0.2413 -0.9416
18411SOL    HW257613   3.133   6.980   0.245  1.9919 -0.6474 -1.5961
18412SOL     OW57614   3.509   7.524   4.245  0.0566  0.5501 -0.2871
18412SOL    HW157615   3.491   7.613   4.217 -0.1973  0.5652 -0.0829
18412SOL    HW257616   3.529   7.532   4.339  3.9496  0.9490 -0.9596
18413SOL     OW57617   3.970   8.308   6.716 -0.0495 -0.6292 -0.3727
18413SOL    HW157618   4.004   8.221   6.696 -0.2196 -0.3575 -2.0233
18413SOL    HW257619   3.876   8.302   6.695 -0.3474 -0.4142  0.8166
18414SOL     OW57620   1.372   0.479   5.270 -0.4443 -0.8680 -0.2093
18414SOL    HW157621   1.338   0.391   5.287  0.6168 -1.0150  1.3523
18414SOL    HW257622   1.308   0.518   5.209 -0.2625 -3.1464 -2.0168
18415SOL     OW57623   4.138   2.987   7.372 -0.0958  0.2539 -0.3761
18415SOL    HW157624   4.175   3.050   7.434 -1.2584 -0.1647  0.7914
18415SOL    HW257625   4.127   3.037   7.291 -0.0892  1.2817  0.2339
18416SOL     OW57626   8.971   0.079   4.733 -0.3720 -0.1430 -0.0427
18416SOL    HW157627   8.916   0.147   4.694 -0.1782 -0.0963 -0.2349
18416SOL    HW257628   8.919   0.046   4.807 -0.2824  0.5295  0.3308
18417SOL     OW57629   5.024   3.907   3.973 -0.2360  0.4282 -0.4030
18417SOL    HW157630   4.979   3.980   3.931 -1.7034 -0.7681 -1.0493
18417SOL    HW257631   5.084   3.947   4.035 -2.6192  2.1662  0.9284
18418SOL     OW57632  10.760   3.082   9.740  0.1429 -0.1786  0.0100
18418SOL    HW157633  10.820   3.036   9.681  1.0395  1.0466 -0.0739
18418SOL    HW257634  10.695   3.120   9.682  0.9454  0.9092 -0.2066
18419SOL     OW57635   1.479  10.592   2.173  0.5367  0.2462 -0.0590
18419SOL    HW157636   1.469  10.670   2.228 -4.2806  0.3691 -0.7395
18419SOL    HW257637   1.488  10.626   2.084  1.5228 -0.0202 -0.0739
18420SOL     OW57638   8.673   3.233   6.393  0.4963 -0.6902  0.1616
18420SOL    HW157639   8.643   3.162   6.449  1.5820 -0.5898  0.8881
18420SOL    HW257640   8.594   3.262   6.347 -0.1265 -1.7503  0.5335
18421SOL     OW57641  10.588   6.392   7.641  0.5553  0.0717 -0.0451
18421SOL    HW157642  10.556   6.467   7.692 -1.1924 -0.9141  0.3662
18421SOL    HW257643  10.560   6.412   7.551 -2.5828 -1.3339  0.4654
18422SOL     OW57644   3.571   2.992   7.373  0.4882 -0.0458  0.4420
18422SOL    HW157645   3.635   3.045   7.420 -0.0563  0.0392  1.1097
18422SOL    HW257646   3.512   3.056   7.332  1.3869 -0.0982 -1.0168
18423SOL     OW57647   8.436   9.168   5.493 -0.4848 -0.7882 -0.1861
18423SOL    HW157648   8.508   9.115   5.525 -0.6778 -0.8695  0.1139
18423SOL    HW257649   8.387   9.194   5.571  1.1129  2.1155 -0.0003
18424SOL     OW57650   8.589   5.509   9.301 -0.0199  0.3786 -0.7890
18424SOL    HW157651   8.606   5.478   9.212 -3.1222  1.1932 -1.7902
18424SOL    HW257652   8.590   5.429   9.354 -0.3101 -0.4292 -1.9482
18425SOL     OW57653   3.695   2.230   4.606 -0.4751 -0.0946  0.1554
18425SOL    HW157654   3.790   2.236   4.598 -0.5433 -1.1474 -2.2603
18425SOL    HW257655   3.663   2.316   4.578 -0.2677  0.0587  0.3841
18426SOL     OW57656   1.759   6.426   2.830 -0.3701  0.2432  0.4539
18426SOL    HW157657   1.809   6.381   2.762 -0.9410  1.1486 -0.6040
18426SOL    HW257658   1.690   6.363   2.854  0.1362 -0.2783  0.5765
18427SOL     OW57659   3.425   7.428   6.058 -0.2906  0.3144  0.2909
18427SOL    HW157660   3.447   7.385   6.141 -1.4199  1.8708  1.4479
18427SOL    HW257661   3.506   7.472   6.032 -0.1414  0.4674  0.9921
18428SOL     OW57662   5.996   7.093   0.630  1.2030  0.0494 -0.2244
18428SOL    HW157663   6.074   7.114   0.680  0.3543 -1.7156  2.0008
18428SOL    HW257664   5.945   7.035   0.687 -1.0953  0.0363 -2.1175
18429SOL     OW57665   0.246   7.007   4.946 -0.1878  0.8662  0.1269
18429SOL    HW157666   0.153   6.997   4.967 -0.0008 -0.0844  0.5262
18429SOL    HW257667   0.267   6.931   4.892 -0.2274  2.3555 -2.1003
18430SOL     OW57668   0.189   4.004   0.402  0.3720  0.3055 -0.4799
18430SOL    HW157669   0.206   4.094   0.377  1.7203 -0.0960 -1.0972
18430SOL    HW257670   0.235   3.992   0.485 -0.2637  0.3218 -0.1124
18431SOL     OW57671   0.139   0.372   7.788 -0.6193 -0.2183  0.1685
18431SOL    HW157672   0.223   0.357   7.745  0.5864  2.7930  1.2102
18431SOL    HW257673   0.159   0.364   7.882 -1.9871 -1.3629  0.3999
18432SOL     OW57674   3.127   5.590   7.785 -0.1389 -0.2277  0.1935
18432SOL    HW157675   3.206   5.538   7.800 -0.3162 -1.1292 -1.7731
18432SOL    HW257676   3.160   5.678   7.765  0.2535 -0.1292  1.1907
18433SOL     OW57677   3.374   9.411   2.283 -0.2400 -0.8355  0.1919
18433SOL    HW157678   3.405   9.339   2.338  2.0840 -0.9406 -1.1131
18433SOL    HW257679   3.393   9.490   2.333 -2.0584 -1.0391  1.2841
18434SOL     OW57680   6.042   5.488   5.188 -0.3434  0.3890  0.5577
18434SOL    HW157681   6.027   5.424   5.119  1.2149  1.8857 -1.2951
18434SOL    HW257682   5.985   5.562   5.164  0.8785  1.2800  0.2982
18435SOL     OW57683   5.454   4.401   0.765 -0.4533 -0.5222 -0.1323
18435SOL    HW157684   5.457   4.331   0.699  0.8709 -0.8199  0.2216
18435SOL    HW257685   5.438   4.354   0.847 -3.0697 -0.0754 -0.3006
18436SOL     OW57686   5.029   6.072   1.964  0.6053 -0.5198  0.3823
18436SOL    HW157687   5.082   6.062   2.043  1.6701 -0.0437 -0.2602
18436SOL    HW257688   5.092   6.085   1.894 -0.3810  2.6965 -0.0509
18437SOL     OW57689   0.162   6.989   1.533  0.5815  0.2446 -0.3517
18437SOL    HW157690   0.198   7.033   1.456  2.1233 -0.0195  0.1928
18437SOL    HW257691   0.084   6.944   1.501 -1.3532  3.6535 -0.8765
18438SOL     OW57692  10.615   7.089   0.723  0.0044 -0.2306  0.0383
18438SOL    HW157693  10.541   7.035   0.696  0.4546 -1.0283  0.3798
18438SOL    HW257694  10.583   7.137   0.799 -0.8439  1.0412 -1.0612
18439SOL     OW57695   6.038  10.781   0.244 -0.1992 -0.6149 -0.8284
18439SOL    HW157696   6.098  10.712   0.273 -1.2256 -1.0670  0.2871
18439SOL    HW257697   6.095  10.849   0.210  1.0711 -0.4845  1.3496
18440SOL     OW57698   8.814   0.855   8.685 -0.0100 -1.2814 -0.2298
18440SOL    HW157699   8.723   0.859   8.715 -0.0587  0.3444 -0.5202
18440SOL    HW257700   8.857   0.928   8.730  0.9452 -1.4860 -0.7817
18441SOL     OW57701   6.137   3.473   7.037 -0.3861 -0.2680  0.6029
18441SOL    HW157702   6.043   3.453   7.034 -0.6090  0.7047  0.6856
18441SOL    HW257703   6.160   3.494   6.946 -0.6034  0.9552  0.8089
18442SOL     OW57704   5.045   4.774   5.410  0.3368  0.2686 -0.4205
18442SOL    HW157705   4.964   4.725   5.427  0.2791 -0.1216 -1.7098
18442SOL    HW257706   5.025   4.864   5.438 -1.3872  0.7306 -2.8071
18443SOL     OW57707  10.073   7.980   9.022  0.2199  0.0456 -0.1057
18443SOL    HW157708  10.000   8.020   9.068 -0.5773  0.9433 -2.0360
18443SOL    HW257709  10.101   7.907   9.078 -1.5139  0.2847  1.1233
18444SOL     OW57710   9.891   0.485   7.090 -0.5145 -0.1222  0.1780
18444SOL    HW157711   9.802   0.518   7.101 -0.2835  0.0791  1.5773
18444SOL    HW257712   9.939   0.559   7.051 -1.1870 -0.6164 -1.7051
18445SOL     OW57713   3.822   4.875   4.313  0.4640  0.0264  0.0367
18445SOL    HW157714   3.776   4.832   4.241  0.0213  0.9020 -0.2182
18445SOL    HW257715   3.769   4.857   4.390 -0.5045  1.2876 -0.3057
18446SOL     OW57716   5.672   3.941   0.099  0.2766  0.6658 -0.3213
18446SOL    HW157717   5.764   3.969   0.098  0.6677 -0.5872 -1.0495
18446SOL    HW257718   5.669   3.867   0.039 -0.8158 -0.5915  1.2137
18447SOL     OW57719   3.806   7.215   4.015 -0.4877  0.4499  0.7253
18447SOL    HW157720   3.857   7.140   4.045 -0.1409  0.2693 -0.2868
18447SOL    HW257721   3.742   7.230   4.084 -1.5547 -1.7060  0.2902
18448SOL     OW57722   6.324   2.576  10.569  0.2899  0.4374 -0.1580
18448SOL    HW157723   6.232   2.595  10.585  0.1931 -0.1216 -0.0341
18448SOL    HW257724   6.335   2.484  10.593  1.3332  1.0252  1.8489
18449SOL     OW57725   0.490   3.787   4.629  0.3902  0.3363  0.4874
18449SOL    HW157726   0.492   3.692   4.613  0.9248  0.3960  0.1869
18449SOL    HW257727   0.582   3.812   4.636  0.3050  0.1791  4.6800
18450SOL     OW57728   0.483   5.048   8.546  0.4933 -0.4113 -0.0068
18450SOL    HW157729   0.517   4.975   8.494  0.6973  1.1857 -2.2054
18450SOL    HW257730   0.561   5.085   8.589  1.2901  1.5788 -2.9202
18451SOL     OW57731   7.868   2.856   3.761  0.1769  0.2541  0.0481
18451SOL    HW157732   7.956   2.863   3.723  0.4328 -0.7430  0.4242
18451SOL    HW257733   7.865   2.767   3.797 -1.1100  0.1599 -0.2665
18452SOL     OW57734   5.622   0.117   5.137  0.3002 -0.0935  0.1738
18452SOL    HW157735   5.603   0.210   5.146 -1.6243 -0.3506 -0.6593
18452SOL    HW257736   5.705   0.114   5.090  2.3660  1.1466  3.4259
18453SOL     OW57737   6.941   3.100  10.236  0.0307 -0.1679 -0.6863
18453SOL    HW157738   7.032   3.106  10.206 -0.1276 -0.7229 -1.3046
18453SOL    HW257739   6.906   3.188  10.222  0.5860  0.1607 -0.0451
18454SOL     OW57740   0.291   3.893   4.205 -0.3290 -0.6697 -0.5254
18454SOL    HW157741   0.215   3.848   4.169 -0.7360  1.8015 -3.0564
18454SOL    HW257742   0.355   3.895   4.134  0.7366  0.3277  0.3964
18455SOL     OW57743  10.031   1.504   2.661  0.3195 -0.3628  0.8707
18455SOL    HW157744   9.981   1.534   2.737 -2.7690 -0.6330 -0.8725
18455SOL    HW257745  10.028   1.577   2.599  0.2554 -1.1476 -0.0806
18456SOL     OW57746   4.576   3.905   2.339  0.0751 -0.0535  0.0556
18456SOL    HW157747   4.646   3.871   2.394  1.1012 -0.1304 -1.2385
18456SOL    HW257748   4.620   3.936   2.260 -1.2591  0.7499 -0.4151
18457SOL     OW57749  10.292   8.108   5.553 -0.1417 -0.0812  0.7019
18457SOL    HW157750  10.309   8.014   5.548 -0.4093 -0.0677 -0.7234
18457SOL    HW257751  10.261   8.132   5.466 -0.3639  1.2791  1.1319
18458SOL     OW57752   6.557   7.782   3.983 -0.4064 -0.5441 -0.2815
18458SOL    HW157753   6.583   7.861   4.031 -0.7109 -0.4559 -0.2652
18458SOL    HW257754   6.565   7.807   3.891  2.0211 -1.2739 -0.3525
18459SOL     OW57755   1.667   2.089   9.215  0.2231 -0.0597  0.2970
18459SOL    HW157756   1.575   2.063   9.201  0.3829 -1.4471  1.5886
18459SOL    HW257757   1.705   2.090   9.128 -1.1527  1.1957 -0.3524
18460SOL     OW57758  10.583   6.450   1.403 -0.0879 -0.3439  0.1372
18460SOL    HW157759  10.601   6.430   1.495  0.4150  1.4368  0.4636
18460SOL    HW257760  10.669   6.460   1.364 -0.3086 -0.5045 -0.3909
18461SOL     OW57761  10.090   8.121   8.368  0.1577 -0.3692  0.9095
18461SOL    HW157762  10.064   8.192   8.310 -0.1183 -1.7570 -0.7501
18461SOL    HW257763  10.185   8.116   8.358  0.1820 -0.2316  1.0552
18462SOL     OW57764   9.116  10.437   4.742  0.2495 -0.1198  0.2296
18462SOL    HW157765   9.052  10.489   4.791 -1.6822  0.2513 -2.4416
18462SOL    HW257766   9.191  10.496   4.730 -0.9815  1.3259 -0.7886
18463SOL     OW57767   9.522   2.181   2.745 -0.0877 -0.1324 -0.0706
18463SOL    HW157768   9.528   2.225   2.829 -1.9416 -0.4746  0.2884
18463SOL    HW257769   9.437   2.209   2.709  0.0902 -0.9937 -1.2237
18464SOL     OW57770   6.648   4.843   5.244 -0.2815  0.2358 -0.4109
18464SOL    HW157771   6.584   4.835   5.173  1.0386  0.6362 -1.7073
18464SOL    HW257772   6.655   4.755   5.280 -0.5360 -0.1147 -1.1953
18465SOL     OW57773   8.119   1.548   7.168  0.1375  0.1433 -0.5398
18465SOL    HW157774   8.065   1.626   7.156 -2.4125 -1.1721  1.3918
18465SOL    HW257775   8.067   1.477   7.129  0.5191 -1.1274  1.1417
18466SOL     OW57776   2.417   5.216   5.180  0.1883  0.0034  0.4366
18466SOL    HW157777   2.504   5.255   5.187  0.1437  0.0663  0.6495
18466SOL    HW257778   2.391   5.230   5.089  0.4201 -0.0569  0.3596
18467SOL     OW57779   7.109   2.082   7.287 -0.0559  0.2758 -0.8259
18467SOL    HW157780   7.169   2.018   7.250  0.6706 -0.8997  2.0987
18467SOL    HW257781   7.039   2.030   7.325  1.2134  0.9260  2.8150
18468SOL     OW57782   6.238   5.249   4.821  0.3565  0.1507  0.0303
18468SOL    HW157783   6.299   5.207   4.881 -0.0194 -3.0220 -1.5957
18468SOL    HW257784   6.293   5.311   4.772  0.9538  1.6843  2.4570
18469SOL     OW57785   4.445   7.570  10.310 -0.2122 -0.5386 -0.3036
18469SOL    HW157786   4.355   7.568  10.277 -0.6165 -0.9720  0.7813
18469SOL    HW257787   4.495   7.613  10.241 -0.9239 -1.8681 -1.7023
18470SOL     OW57788   1.550   2.998   8.144  0.0705  0.3217 -0.0549
18470SOL    HW157789   1.641   2.992   8.173  0.1195 -1.6694 -0.4869
18470SOL    HW257790   1.555   3.042   8.058  0.5924  0.4329  0.0306
18471SOL     OW57791   0.753   1.894   4.196 -0.3427  0.1734 -0.0450
18471SOL    HW157792   0.704   1.894   4.279 -2.9659 -2.2192 -1.4185
18471SOL    HW257793   0.714   1.966   4.145  0.1872  0.6400  0.1977
18472SOL     OW57794   9.285   0.545   3.060  0.7081  0.1219  0.3481
18472SOL    HW157795   9.215   0.501   3.110  0.6616 -1.6174 -1.1416
18472SOL    HW257796   9.239   0.586   2.986  0.8508  2.1516  1.3276
18473SOL     OW57797   8.128   9.117   6.949 -0.1540  0.1061 -0.2637
18473SOL    HW157798   8.106   9.174   6.875  1.9888 -1.0512 -1.9005
18473SOL    HW257799   8.113   9.029   6.917  0.6469 -0.4227  0.7567
18474SOL     OW57800  10.529  10.242   9.653 -0.0801 -0.1547 -0.0794
18474SOL    HW157801  10.618  10.272   9.668 -0.3953 -0.0991  1.8794
18474SOL    HW257802  10.474  10.319   9.671 -0.5429 -0.0969 -1.5591
18475SOL     OW57803   0.057   1.148   6.377  0.2542  0.0887  0.1764
18475SOL    HW157804   0.103   1.089   6.436  1.5621  2.1665  1.3667
18475SOL    HW257805   0.058   1.104   6.292 -0.8221 -2.5485  1.4483
18476SOL     OW57806  10.186   0.785   7.591  0.1143 -0.2411 -0.3656
18476SOL    HW157807  10.189   0.846   7.517  2.2622 -0.0458 -0.1885
18476SOL    HW257808  10.274   0.789   7.628 -0.4661 -1.5169  1.2543
18477SOL     OW57809   4.252   7.193   7.948 -0.2587  0.7063  0.2233
18477SOL    HW157810   4.204   7.121   7.989 -1.3879  2.1349  1.5242
18477SOL    HW257811   4.298   7.235   8.020 -1.2753  2.5287 -0.1489
18478SOL     OW57812   1.587   8.194   2.100 -0.7086  0.1499 -0.5604
18478SOL    HW157813   1.530   8.256   2.145  0.9518  0.6291  0.9695
18478SOL    HW257814   1.673   8.234   2.102  0.2762 -1.8461 -0.2072
18479SOL     OW57815   8.150   5.561   6.875 -0.0100 -0.4775 -0.2146
18479SOL    HW157816   8.212   5.625   6.910 -0.7289  0.4237 -0.5360
18479SOL    HW257817   8.192   5.476   6.889  0.8156  0.0379  0.5324
18480SOL     OW57818   7.743   2.751   0.941  0.5907  0.3009 -0.0681
18480SOL    HW157819   7.744   2.827   1.000  1.4000 -0.3634  0.8005
18480SOL    HW257820   7.650   2.731   0.931  0.4321  0.3033  1.1607
18481SOL     OW57821   7.544   2.662   7.958  0.1181 -0.2244 -0.0407
18481SOL    HW157822   7.566   2.647   7.866 -1.4439 -0.3723 -0.4346
18481SOL    HW257823   7.609   2.613   8.007 -0.4035 -2.1456 -1.1366
18482SOL     OW57824   1.109   7.451   8.563  0.4042  0.4165  0.1420
18482SOL    HW157825   1.174   7.503   8.515  0.4437  0.2247 -0.0147
18482SOL    HW257826   1.026   7.470   8.518  0.2889  0.9408  0.5660
18483SOL     OW57827   6.674  10.785   0.599  0.2104  0.2684  1.0393
18483SOL    HW157828   6.637  10.870   0.622 -1.0997  0.1995 -0.6079
18483SOL    HW257829   6.745  10.804   0.539  0.6735  0.2394  1.5707
18484SOL     OW57830   8.312  10.504   7.941 -0.0139 -0.7423  0.2566
18484SOL    HW157831   8.262  10.549   7.873  1.3087 -0.4448 -0.5551
18484SOL    HW257832   8.315  10.413   7.912 -0.1460 -0.7758  0.3472
18485SOL     OW57833   8.268   6.208  10.388  0.7703 -0.3303  0.0352
18485SOL    HW157834   8.357   6.241  10.393  0.6670  0.1918 -1.0769
18485SOL    HW257835   8.276   6.113  10.399  1.4181 -0.2498  0.2636
18486SOL     OW57836   8.672  10.427   5.343  0.1878  0.0364  0.2293
18486SOL    HW157837   8.743  10.418   5.407 -1.6689 -1.0233  2.2487
18486SOL    HW257838   8.653  10.337   5.316  0.3960  0.4141 -1.2603
18487SOL     OW57839   8.579   5.942   3.866 -0.0060  0.1242  0.2817
18487SOL    HW157840   8.608   5.926   3.955  0.3297  0.1264  0.1731
18487SOL    HW257841   8.620   5.873   3.814 -1.4612 -0.8601  0.3595
18488SOL     OW57842   5.457   0.649   9.588  0.4507  0.0624  0.2781
18488SOL    HW157843   5.474   0.669   9.680  0.4980  0.6583  0.1415
18488SOL    HW257844   5.544   0.646   9.549  0.4356 -0.2864  0.2714
18489SOL     OW57845   2.103   9.051   4.632  0.1791  0.2180  0.8218
18489SOL    HW157846   2.186   9.004   4.628 -0.5390 -1.1150  0.7686
18489SOL    HW257847   2.042   8.988   4.672 -0.7853  1.1919  0.9409
18490SOL     OW57848  10.026   7.296   3.846 -0.7665 -0.6688 -0.4567
18490SOL    HW157849  10.086   7.360   3.808 -0.2942 -1.1461 -0.5270
18490SOL    HW257850  10.015   7.229   3.779  0.2779 -1.6502  0.3131
18491SOL     OW57851   4.024   7.579   3.906  0.4837 -0.0579 -0.0333
18491SOL    HW157852   4.061   7.591   3.818 -0.0453  0.1750 -0.2249
18491SOL    HW257853   4.023   7.484   3.919 -1.5321 -0.2481 -1.1938
18492SOL     OW57854   8.623   8.885   2.407  0.2464  0.1377  0.2438
18492SOL    HW157855   8.621   8.861   2.314  1.6668 -1.3464  0.5358
18492SOL    HW257856   8.716   8.900   2.425 -0.1700  1.7918  1.1203
18493SOL     OW57857   1.806   4.780   9.359 -0.2688 -0.4523  0.4498
18493SOL    HW157858   1.876   4.822   9.308 -0.0446 -0.8729  0.4118
18493SOL    HW257859   1.762   4.853   9.403  0.7201 -0.2684  1.1360
18494SOL     OW57860   4.351   3.618   4.230 -0.0092 -0.1343  0.7648
18494SOL    HW157861   4.374   3.669   4.152 -0.3152  0.2295  0.9080
18494SOL    HW257862   4.329   3.684   4.296 -0.9749 -0.4589  0.7826
18495SOL     OW57863   9.512   5.620   9.851  0.2430 -0.6881  0.5320
18495SOL    HW157864   9.473   5.533   9.849 -1.6228  0.1209 -0.8077
18495SOL    HW257865   9.456   5.671   9.909  0.9767 -0.2157  0.8514
18496SOL     OW57866   3.635   5.544   1.249 -0.2365  0.1188 -0.5355
18496SOL    HW157867   3.725   5.566   1.225  0.2169 -2.0884 -1.0968
18496SOL    HW257868   3.626   5.452   1.227 -2.2202 -0.0834  0.8053
18497SOL     OW57869   1.298   1.621   5.375 -0.6906 -0.4760  0.0053
18497SOL    HW157870   1.223   1.646   5.321 -0.4205 -1.2859 -0.7691
18497SOL    HW257871   1.373   1.660   5.330 -0.4825 -1.0222 -0.1264
18498SOL     OW57872   6.138   3.214   1.787  0.3837  0.3592 -0.7973
18498SOL    HW157873   6.123   3.294   1.736  0.8054  2.9663  2.8213
18498SOL    HW257874   6.053   3.195   1.827  0.8304  0.4529  0.2340
18499SOL     OW57875   1.327  10.054   3.574  0.3175  0.3987 -0.3776
18499SOL    HW157876   1.244  10.063   3.622 -0.0449  1.0202 -1.0938
18499SOL    HW257877   1.329  10.131   3.517  0.8392 -0.2155 -1.1932
18500SOL     OW57878   6.189   8.039   8.655  0.1436  0.4850  0.0461
18500SOL    HW157879   6.094   8.047   8.661  0.2018  1.2381  0.0665
18500SOL    HW257880   6.216   8.002   8.739 -0.3622 -2.2422 -0.8895
18501SOL     OW57881   6.992   6.272   1.543  0.2455  0.9502 -0.1940
18501SOL    HW157882   7.086   6.251   1.546  0.3352  0.6660 -2.8670
18501SOL    HW257883   6.968   6.261   1.452 -2.3441  1.4248  0.3609
18502SOL     OW57884   9.305   9.204   9.181 -0.1843  0.3242 -0.2330
18502SOL    HW157885   9.345   9.287   9.153  1.1990 -0.5250 -0.9110
18502SOL    HW257886   9.320   9.201   9.275 -1.5904  1.5168  0.0628
18503SOL     OW57887   3.871   7.684   7.034  0.1307 -0.1225  0.1527
18503SOL    HW157888   3.932   7.744   7.076  0.4416  0.0274 -0.5070
18503SOL    HW257889   3.898   7.597   7.065 -0.0751  0.0376  0.7976
18504SOL     OW57890   6.494   0.820   1.232  0.3652 -0.2167 -0.1458
18504SOL    HW157891   6.470   0.744   1.286 -0.2978 -1.0308 -1.5455
18504SOL    HW257892   6.423   0.882   1.246  0.7901  0.0768  0.8190
18505SOL     OW57893   2.029   1.110   3.931 -0.0096 -0.0530 -0.4083
18505SOL    HW157894   1.953   1.145   3.885  0.3339  0.2383 -0.7670
18505SOL    HW257895   1.998   1.030   3.973 -0.1247 -0.8034 -1.8536
18506SOL     OW57896   1.538   0.373   0.687 -0.1891  0.1636 -0.6413
18506SOL    HW157897   1.494   0.295   0.718  1.2431 -0.2978  0.3489
18506SOL    HW257898   1.555   0.424   0.766  1.6569 -0.0234 -0.8775
18507SOL     OW57899   7.643   6.320   6.322 -0.7165  0.2143 -0.3433
18507SOL    HW157900   7.597   6.286   6.399  1.7093 -1.0479  0.6793
18507SOL    HW257901   7.652   6.244   6.264 -0.4170  0.5740 -0.7754
18508SOL     OW57902   1.076   2.399   6.975  0.3074  0.2189 -0.1385
18508SOL    HW157903   1.028   2.480   6.993  1.1333  0.8669 -0.7759
18508SOL    HW257904   1.062   2.383   6.882 -0.5699 -0.8664  0.1665
18509SOL     OW57905   7.760   2.441   9.378  0.7897  0.3907 -0.1917
18509SOL    HW157906   7.713   2.358   9.377  0.9592  0.2957 -1.0428
18509SOL    HW257907   7.742   2.478   9.464  0.6108 -0.4680  0.1515
18510SOL     OW57908   4.662   5.516   3.141  0.5674  0.4490  0.2270
18510SOL    HW157909   4.668   5.496   3.234  1.5601 -0.4011 -0.0006
18510SOL    HW257910   4.599   5.453   3.106 -0.6040  1.4517  0.4955
18511SOL     OW57911   6.382   5.141   9.411  0.4494  0.5497  0.1681
18511SOL    HW157912   6.299   5.158   9.367  0.6303  2.8826  0.5927
18511SOL    HW257913   6.448   5.157   9.344  0.6216  1.3238  0.5082
18512SOL     OW57914   6.869  10.015   8.876  0.6300  0.4805 -0.3839
18512SOL    HW157915   6.794   9.975   8.830  0.9307 -0.4114 -0.1303
18512SOL    HW257916   6.906  10.076   8.813 -0.6559  1.3857 -0.3154
18513SOL     OW57917   1.512   9.880   1.566  0.4480 -0.4939 -0.4991
18513SOL    HW157918   1.588   9.862   1.511  0.6400 -2.4600  0.2970
18513SOL    HW257919   1.441   9.895   1.504  0.9618 -1.2266 -1.3011
18514SOL     OW57920   6.861   5.059   2.724 -0.7376  0.3748  0.4705
18514SOL    HW157921   6.904   4.992   2.778 -0.5623 -0.5479 -0.7741
18514SOL    HW257922   6.813   5.113   2.787  0.0394 -0.2233  1.6201
18515SOL     OW57923   1.776  10.325   4.337 -0.1585 -0.7729  0.5733
18515SOL    HW157924   1.866  10.357   4.325 -0.1587 -1.0681 -0.2601
18515SOL    HW257925   1.757  10.343   4.429  0.4328  0.1126  0.5367
18516SOL     OW57926   0.523   0.153   9.762 -0.0619  0.3254  0.3367
18516SOL    HW157927   0.486   0.214   9.826  1.3922  0.9747  0.5990
18516SOL    HW257928   0.452   0.138   9.700 -1.3033  0.1926  1.7282
18517SOL     OW57929   6.148   9.849   7.209 -0.4365 -0.6048 -0.1703
18517SOL    HW157930   6.181   9.790   7.277  0.0027  0.8204  0.8943
18517SOL    HW257931   6.195   9.823   7.130  0.4825 -1.0438  0.5002
18518SOL     OW57932   2.865   7.040   5.867 -0.2443  0.8843  0.6589
18518SOL    HW157933   2.780   7.028   5.908 -0.5401  1.2741  0.1733
18518SOL    HW257934   2.914   6.961   5.889 -0.8915  0.4435  0.5367
18519SOL     OW57935   5.510   8.527   3.219 -0.3341  0.9261 -0.0502
18519SOL    HW157936   5.420   8.496   3.232 -0.7069  2.4337  1.4288
18519SOL    HW257937   5.499   8.617   3.187  0.6866  0.2866 -2.3957
18520SOL     OW57938   2.046   1.082  10.174 -0.0999  0.0060  0.5517
18520SOL    HW157939   2.061   1.046  10.087  0.2930 -0.2631  0.7308
18520SOL    HW257940   1.952   1.073  10.188 -0.5083  1.8137 -0.6226
18521SOL     OW57941   3.338   0.558   0.868 -0.6523  0.1753  0.2599
18521SOL    HW157942   3.433   0.569   0.863 -0.6049 -0.3932 -0.2023
18521SOL    HW257943   3.303   0.626   0.810 -0.5676  0.8612  0.9973
18522SOL     OW57944   0.799   4.523   5.961  0.0542 -0.1501  0.0809
18522SOL    HW157945   0.800   4.550   6.054  2.1452 -0.7115  0.2773
18522SOL    HW257946   0.864   4.581   5.920  0.4209 -1.0724 -0.6593
18523SOL     OW57947   5.177   1.560   9.537 -0.3845 -0.3274  1.0108
18523SOL    HW157948   5.211   1.547   9.449 -0.0532  1.3823  0.8403
18523SOL    HW257949   5.117   1.487   9.551  0.4449 -1.2682 -0.1670
18524SOL     OW57950   7.295   5.784   5.133  0.0489 -0.2189  0.5456
18524SOL    HW157951   7.207   5.802   5.101  0.3163  0.0682 -0.0269
18524SOL    HW257952   7.294   5.690   5.153 -0.8843  0.0755  2.1074
18525SOL     OW57953   5.507   3.416   3.548 -0.0317  0.1979  0.4692
18525SOL    HW157954   5.543   3.330   3.570  1.1126  0.6267  0.3658
18525SOL    HW257955   5.517   3.468   3.627 -0.7588  0.2345  0.5442
18526SOL     OW57956   7.333  10.530   3.909 -0.1501 -0.4253 -0.1394
18526SOL    HW157957   7.377  10.551   3.826 -2.2556  1.4152 -0.8994
18526SOL    HW257958   7.358  10.601   3.968 -1.0361 -0.0803 -0.1684
18527SOL     OW57959  10.088   8.739   0.111  0.1678 -0.4590  0.6119
18527SOL    HW157960  10.043   8.682   0.174  0.0839 -0.2880  0.7097
18527SOL    HW257961  10.104   8.684   0.035  1.1631 -0.9496  1.1610
18528SOL     OW57962   1.037   9.054   6.776  0.3079  0.1722 -0.0116
18528SOL    HW157963   1.104   9.058   6.844  0.3166  0.5726 -0.0448
18528SOL    HW257964   1.033   8.961   6.753  2.2983  0.3677 -1.4413
18529SOL     OW57965   6.656   2.886   5.182 -0.2049  0.5749  0.0804
18529SOL    HW157966   6.652   2.978   5.208  3.2979  0.9064 -0.1056
18529SOL    HW257967   6.601   2.841   5.246 -0.9829  2.6245  0.9502
18530SOL     OW57968   9.735   1.939   2.483 -0.4387  0.3100  0.5004
18530SOL    HW157969   9.773   2.016   2.526 -0.4024  0.7836 -0.3522
18530SOL    HW257970   9.805   1.874   2.485  0.9488  1.5572 -2.1104
18531SOL     OW57971   0.124   0.697   0.590 -0.3145 -0.6551 -0.2950
18531SOL    HW157972   0.117   0.622   0.531 -0.3880 -1.7659  1.0579
18531SOL    HW257973   0.168   0.764   0.539 -1.6696 -1.0478 -2.0646
18532SOL     OW57974   1.321   7.628   5.776 -0.5038 -0.1494 -0.0046
18532SOL    HW157975   1.369   7.645   5.857  0.3841 -1.0997 -0.3097
18532SOL    HW257976   1.231   7.614   5.804 -0.3993  0.5048  0.7007
18533SOL     OW57977   6.074   4.982   3.093 -0.0600  0.2918 -0.0838
18533SOL    HW157978   6.010   5.052   3.107  0.3749  0.9521 -1.2607
18533SOL    HW257979   6.084   4.941   3.179 -0.9207  1.1635  0.4479
18534SOL     OW57980   2.517  10.258   1.567  0.2889  0.1918 -1.0229
18534SOL    HW157981   2.502  10.165   1.551  0.2089  0.0410 -0.1248
18534SOL    HW257982   2.434  10.300   1.542 -0.3717 -0.2141  0.3705
18535SOL     OW57983   9.782   9.506   4.839 -0.2796 -0.5557  0.2395
18535SOL    HW157984   9.799   9.463   4.922 -0.6716 -2.1130 -0.4631
18535SOL    HW257985   9.860   9.560   4.824 -0.1354 -0.3844  1.5208
18536SOL     OW57986   5.577   8.188  10.634  0.1586 -0.2115 -0.2720
18536SOL    HW157987   5.483   8.185  10.654  0.1747 -1.6899 -0.3324
18536SOL    HW257988   5.612   8.254  10.694 -0.8350  0.0310  0.0624
18537SOL     OW57989   0.681   5.350   7.357 -0.0173 -0.7446  0.0135
18537SOL    HW157990   0.634   5.431   7.336  1.3677  0.0490 -0.1304
18537SOL    HW257991   0.758   5.353   7.301  0.9323 -1.3216  1.2618
18538SOL     OW57992   5.692   5.715  10.147  0.2081  0.1776 -0.2726
18538SOL    HW157993   5.765   5.776  10.161  0.3881 -0.1099  0.0644
18538SOL    HW257994   5.618   5.755  10.193  0.1536  0.4650 -0.6070
18539SOL     OW57995   3.679   1.042  10.792  0.0696  0.6268 -0.3804
18539SOL    HW157996   3.765   1.010  10.763 -0.8925 -1.2713 -1.3393
18539SOL    HW257997   3.673   1.130  10.755  1.7452  0.9541  0.0466
18540SOL     OW57998   4.630   7.534   5.269  0.1169 -0.3603  0.6399
18540SOL    HW157999   4.692   7.502   5.204  0.4990 -0.4807  1.0637
18540SOL    HW258000   4.684   7.560   5.344 -0.0643  2.1840 -0.0234
18541SOL     OW58001   7.744   6.569   0.081 -0.3561  0.2338  0.2404
18541SOL    HW158002   7.819   6.516   0.054 -0.3387  0.5532 -0.3466
18541SOL    HW258003   7.668   6.512   0.063 -0.4437  0.8949 -1.7176
18542SOL     OW58004   9.169   7.221   2.951  0.1862  0.5899 -0.4440
18542SOL    HW158005   9.254   7.214   2.994  0.3895  0.8271 -0.8062
18542SOL    HW258006   9.178   7.295   2.891 -0.2180  0.5028 -0.6162
18543SOL     OW58007   4.378  10.766   4.242  0.4555 -0.2520  0.0498
18543SOL    HW158008   4.355  10.849   4.199  0.2994 -1.0643 -1.4941
18543SOL    HW258009   4.464  10.744   4.205  1.3916  0.1363  1.8679
18544SOL     OW58010   8.501   9.145   9.371  0.2330  0.1591  0.4571
18544SOL    HW158011   8.473   9.080   9.435 -0.0577 -3.3425 -2.8476
18544SOL    HW258012   8.596   9.132   9.365  0.5086  1.6290  1.2408
18545SOL     OW58013   6.475   7.809   5.827  0.0756  0.5448  0.0094
18545SOL    HW158014   6.404   7.872   5.843 -1.9633 -1.5254 -0.2828
18545SOL    HW258015   6.535   7.855   5.768 -0.9913  2.4139  0.2928
18546SOL     OW58016   6.493   9.822   1.849  0.0005 -0.1106 -0.0805
18546SOL    HW158017   6.414   9.865   1.881  0.6886  0.1458  1.3408
18546SOL    HW258018   6.460   9.750   1.795 -1.2932 -1.3584  2.2020
18547SOL     OW58019   2.715   1.531   0.462  0.1566  0.0678  0.5672
18547SOL    HW158020   2.750   1.590   0.529 -0.0573  0.8102  0.0456
18547SOL    HW258021   2.681   1.590   0.395  0.7452 -0.6568 -0.3947
18548SOL     OW58022   7.686   2.663   8.588 -0.2322 -0.4524 -0.0784
18548SOL    HW158023   7.624   2.612   8.640  0.8203 -1.2489  0.4324
18548SOL    HW258024   7.739   2.597   8.543 -0.8679  0.2107 -1.9135
18549SOL     OW58025   1.451   3.241   0.724  0.2195  0.1233 -0.3011
18549SOL    HW158026   1.495   3.156   0.724  0.2193  0.0797  1.2655
18549SOL    HW258027   1.385   3.234   0.655  1.2714 -0.5661 -1.2652
18550SOL     OW58028   3.948  10.750   4.724  0.7296 -0.0940  0.3281
18550SOL    HW158029   4.017  10.811   4.749  0.4866  0.2534  0.1602
18550SOL    HW258030   3.958  10.737   4.630 -0.0891  0.8002  0.1043
18551SOL     OW58031   5.547   0.493   2.543 -0.4114  0.3614 -0.3282
18551SOL    HW158032   5.453   0.498   2.561 -1.3397  0.4553 -4.1761
18551SOL    HW258033   5.568   0.579   2.505  0.8910 -0.0975 -0.6945
18552SOL     OW58034   0.363   2.571   0.253 -0.1436 -0.0954 -0.1272
18552SOL    HW158035   0.328   2.482   0.248  0.1326 -0.1320 -1.9633
18552SOL    HW258036   0.285   2.627   0.256 -0.3533 -0.3088 -1.2292
18553SOL     OW58037   6.789   1.414   0.352 -0.0398  0.0095 -0.2100
18553SOL    HW158038   6.699   1.384   0.339 -0.5082  0.2995  1.9417
18553SOL    HW258039   6.826   1.419   0.264 -1.7025 -1.3967 -1.0446
18554SOL     OW58040   7.265   1.789   1.608 -0.5982  0.3325  0.3264
18554SOL    HW158041   7.311   1.705   1.615 -0.6264  0.4383  2.2822
18554SOL    HW258042   7.276   1.814   1.516  1.3476 -0.7229  0.1996
18555SOL     OW58043   1.960   4.548   9.403  0.5469 -0.4245 -0.5314
18555SOL    HW158044   1.889   4.610   9.382 -1.7562 -2.3504  1.0095
18555SOL    HW258045   2.023   4.558   9.332 -0.2573  2.8252 -0.9467
18556SOL     OW58046  10.253   0.990   2.296 -0.4121 -0.2639 -0.3093
18556SOL    HW158047  10.173   0.972   2.345  0.2244 -0.4609  0.6965
18556SOL    HW258048  10.319   0.935   2.338  0.4466  0.5608 -0.5469
18557SOL     OW58049   9.462   2.121   7.908  0.5638 -0.5974  0.3239
18557SOL    HW158050   9.402   2.080   7.845  0.5673  1.7509 -1.3794
18557SOL    HW258051   9.541   2.069   7.904  0.3268 -0.8848 -1.1842
18558SOL     OW58052   9.733   8.143   2.311  0.3894  0.0323  0.6217
18558SOL    HW158053   9.818   8.181   2.288  0.2977 -0.9402 -1.5429
18558SOL    HW258054   9.673   8.218   2.315  0.8076  0.4562 -0.6207
18559SOL     OW58055   2.466   4.366   4.860 -0.0278 -0.6370  0.7349
18559SOL    HW158056   2.510   4.425   4.921 -0.0687  0.0294  0.1292
18559SOL    HW258057   2.522   4.288   4.858  0.9672  0.0632  0.2257
18560SOL     OW58058   7.669   9.345   1.596 -0.3099  0.7459  0.0422
18560SOL    HW158059   7.619   9.394   1.662 -0.7482 -0.4720  0.6463
18560SOL    HW258060   7.696   9.265   1.640 -3.5151 -1.8064 -2.0616
18561SOL     OW58061  10.387   2.815   1.792 -0.2213  0.2626  0.1792
18561SOL    HW158062  10.433   2.756   1.852 -0.4931 -0.9106 -0.7350
18561SOL    HW258063  10.398   2.776   1.706 -1.0644  1.1392 -0.3526
18562SOL     OW58064   5.031   4.729  10.276  0.3200  0.0187 -0.0688
18562SOL    HW158065   5.045   4.686  10.360 -1.2343  0.0959  0.2641
18562SOL    HW258066   5.084   4.679  10.214  0.2425 -1.0318  0.6843
18563SOL     OW58067   9.355   1.712   1.487  0.4117 -0.7882  0.4501
18563SOL    HW158068   9.338   1.758   1.569  0.8765  0.0157  0.1070
18563SOL    HW258069   9.354   1.619   1.511  0.7641 -0.5548  1.4071
18564SOL     OW58070  10.320  10.347   7.126  0.0287 -0.0703  0.1298
18564SOL    HW158071  10.334  10.295   7.047  2.4406 -0.9318  1.0291
18564SOL    HW258072  10.233  10.322   7.156  0.1743 -1.8029 -0.7603
18565SOL     OW58073   4.574   0.927   2.197  0.9469 -0.3956 -0.2685
18565SOL    HW158074   4.593   0.837   2.225 -0.2144 -0.1303  1.5852
18565SOL    HW258075   4.550   0.972   2.278 -0.3337  1.1059 -1.4331
18566SOL     OW58076   6.140  10.464   5.493 -0.4135 -0.3499 -0.1121
18566SOL    HW158077   6.197  10.504   5.558 -0.2179 -1.6636  0.5587
18566SOL    HW258078   6.092  10.396   5.542 -2.1889  0.3773 -0.7642
18567SOL     OW58079   2.814   1.042   1.437  0.7350 -0.7108  0.8464
18567SOL    HW158080   2.766   0.997   1.505 -1.0841  2.0722  1.5742
18567SOL    HW258081   2.747   1.088   1.386  2.3959  1.6107  0.5679
18568SOL     OW58082   9.109   7.859   9.937 -0.3155 -0.1219 -0.5159
18568SOL    HW158083   9.048   7.890  10.004 -1.4467  1.4901 -2.1894
18568SOL    HW258084   9.182   7.921   9.940  0.4518 -1.0172  0.2805
18569SOL     OW58085   9.828   4.691   7.851 -0.0387  0.0900 -0.6900
18569SOL    HW158086   9.811   4.785   7.857  1.9136  0.4664 -0.2450
18569SOL    HW258087   9.845   4.675   7.759 -0.2546  0.1871 -0.7472
18570SOL     OW58088   8.771  10.177   9.738  0.1614  0.5390  0.7140
18570SOL    HW158089   8.854  10.221   9.757  0.1100  0.6798  0.6117
18570SOL    HW258090   8.726  10.235   9.677  1.4912 -1.1440 -2.0640
18571SOL     OW58091   3.846  10.441   0.828 -0.4783 -0.0903  0.3006
18571SOL    HW158092   3.924  10.459   0.880 -0.7431  1.8300  0.1033
18571SOL    HW258093   3.778  10.497   0.867 -1.6666 -1.4261  0.2236
18572SOL     OW58094   6.343   2.508   0.538  0.2093 -0.3140  0.3386
18572SOL    HW158095   6.363   2.602   0.529 -0.2358 -0.4027 -2.8862
18572SOL    HW258096   6.254   2.499   0.506 -0.4257 -1.6781  2.3046
18573SOL     OW58097   6.418   8.954   0.662  0.2313  0.5121  0.0646
18573SOL    HW158098   6.509   8.931   0.677  0.3549  1.1510  0.3062
18573SOL    HW258099   6.420   9.046   0.635 -0.2736  0.3165 -0.6705
18574SOL     OW58100   3.809   7.220   3.276 -0.3487 -0.7738 -0.3918
18574SOL    HW158101   3.852   7.224   3.191 -2.1887 -0.2220 -1.3446
18574SOL    HW258102   3.751   7.144   3.269 -0.0549 -1.0960  0.6009
18575SOL     OW58103   3.767   2.960   8.157 -0.3298 -0.5128 -0.0035
18575SOL    HW158104   3.812   2.876   8.154 -2.4182 -1.6836 -1.1969
18575SOL    HW258105   3.781   2.992   8.247  3.8436 -0.0754 -0.6445
18576SOL     OW58106   5.746   6.873   7.928 -0.0758  0.4132 -0.2495
18576SOL    HW158107   5.787   6.945   7.880 -0.7754 -0.1694 -1.7806
18576SOL    HW258108   5.816   6.808   7.937  0.2755  0.8527  0.2260
18577SOL     OW58109   9.455   5.573   2.158 -0.1332 -0.2982  0.2889
18577SOL    HW158110   9.417   5.544   2.075 -0.5344  0.1715  0.3055
18577SOL    HW258111   9.448   5.669   2.155  1.9990 -0.0904 -0.1788
18578SOL     OW58112   1.006   7.586   0.439  0.6642 -0.5886 -0.3390
18578SOL    HW158113   1.076   7.535   0.480  1.3180 -0.1654 -0.9205
18578SOL    HW258114   1.007   7.670   0.485  1.3947 -0.1146 -1.2016
18579SOL     OW58115  10.477   8.647   5.571  0.3388 -0.0261 -0.1416
18579SOL    HW158116  10.442   8.639   5.659  0.8639  0.2083  0.0942
18579SOL    HW258117  10.457   8.737   5.545  2.2013  0.6505  0.6403
18580SOL     OW58118   6.164   1.637   3.665 -0.4995 -0.4846 -0.5495
18580SOL    HW158119   6.179   1.590   3.582  1.8111 -1.6167  0.3977
18580SOL    HW258120   6.163   1.568   3.731  2.3495  0.6039  0.8162
18581SOL     OW58121   4.266   9.061   2.159 -0.6210  0.2343 -0.1713
18581SOL    HW158122   4.200   9.012   2.109  0.2427  0.7606 -1.9210
18581SOL    HW258123   4.329   8.995   2.186 -0.8852 -0.0069 -0.1420
18582SOL     OW58124   1.040   3.737   5.249  0.2253  0.5857 -0.2878
18582SOL    HW158125   1.097   3.668   5.215 -0.4927 -0.3272  0.3276
18582SOL    HW258126   1.086   3.771   5.326  0.4743  0.6416 -0.4612
18583SOL     OW58127  10.730   3.608   5.726 -0.3603 -0.0447  0.6738
18583SOL    HW158128  10.794   3.564   5.670 -1.0922 -0.5190  0.2024
18583SOL    HW258129  10.646   3.597   5.681 -0.4697  2.6692  0.0073
18584SOL     OW58130   5.364   5.203   0.399  0.4442  0.1003  0.6929
18584SOL    HW158131   5.289   5.260   0.383 -2.3289 -2.4950  3.3339
18584SOL    HW258132   5.348   5.126   0.345  2.1861  0.1455  0.0317
18585SOL     OW58133   7.670   3.693   8.491 -0.0476 -0.3019 -0.1915
18585SOL    HW158134   7.616   3.772   8.486  1.5743  0.9032  0.2764
18585SOL    HW258135   7.744   3.712   8.433 -0.1129 -1.9096 -0.8391
18586SOL     OW58136  10.540   8.120   5.391  0.5767  0.1545  0.2297
18586SOL    HW158137  10.541   8.205   5.348  1.1140  0.1249  0.1685
18586SOL    HW258138  10.605   8.127   5.461  0.3684 -0.0899  0.4523
18587SOL     OW58139   7.533   7.465   0.400 -0.4634 -0.2522  0.6219
18587SOL    HW158140   7.552   7.558   0.388 -1.2125 -0.3278 -1.5127
18587SOL    HW258141   7.557   7.447   0.491  1.9377  1.4728  0.4174
18588SOL     OW58142   7.043   7.245   8.740 -0.2881  0.0841  0.4731
18588SOL    HW158143   7.064   7.200   8.822  1.5427  0.3154  0.1799
18588SOL    HW258144   7.063   7.181   8.672  1.9244  1.0927  0.0726
18589SOL     OW58145   6.112   2.346   4.463  0.3181 -0.0074 -0.4287
18589SOL    HW158146   6.046   2.289   4.502 -1.3979 -0.2723 -3.4654
18589SOL    HW258147   6.082   2.435   4.485  0.0884 -0.1559 -0.1293
18590SOL     OW58148   9.934   5.262   5.437 -0.0753 -0.5621  0.2469
18590SOL    HW158149   9.978   5.246   5.521  2.6599  1.2038 -0.7064
18590SOL    HW258150   9.990   5.219   5.373 -1.8283 -1.3969 -0.7931
18591SOL     OW58151   6.385   6.334   1.192  0.0538  1.0128 -0.7610
18591SOL    HW158152   6.376   6.400   1.260  0.1375 -0.0658  0.3415
18591SOL    HW258153   6.313   6.273   1.208  0.7195  0.1551 -0.9253
18592SOL     OW58154   1.315   0.406   2.677 -0.0023 -0.1448  0.2308
18592SOL    HW158155   1.300   0.489   2.723  1.9858 -0.3410  1.3288
18592SOL    HW258156   1.391   0.368   2.720  0.0516 -1.8345 -1.2516
18593SOL     OW58157   2.106   5.461  10.469 -0.2079 -0.3216  0.3178
18593SOL    HW158158   2.173   5.402  10.503 -1.1874 -0.5407  2.0183
18593SOL    HW258159   2.054   5.484  10.546 -0.2151  2.3159 -0.3907
18594SOL     OW58160   8.500   9.694   1.300 -0.0779  0.2168 -0.4169
18594SOL    HW158161   8.462   9.690   1.212  2.3947  1.2629 -1.6390
18594SOL    HW258162   8.570   9.629   1.298  0.8520  1.1590  0.3045
18595SOL     OW58163   2.996   2.505   1.185 -0.0387  0.5102  0.0658
18595SOL    HW158164   2.924   2.478   1.242 -0.8381  1.3141 -0.5196
18595SOL    HW258165   2.953   2.535   1.105  0.8375  2.2621  0.1875
18596SOL     OW58166  10.303   7.038   5.096  0.1119  0.3090 -0.0952
18596SOL    HW158167  10.246   7.085   5.157  0.6353  0.2912  0.4072
18596SOL    HW258168  10.392   7.057   5.125  0.3581 -0.0467 -0.5940
18597SOL     OW58169   8.621   7.578   7.578 -0.2490 -0.2606  0.0181
18597SOL    HW158170   8.558   7.528   7.629 -0.2146 -0.4766 -0.1490
18597SOL    HW258171   8.706   7.559   7.617 -0.4018  0.9557  0.9902
18598SOL     OW58172   1.687   0.922   6.657  0.3117 -0.3081 -0.0456
18598SOL    HW158173   1.608   0.902   6.707 -0.2290 -0.6055 -0.9938
18598SOL    HW258174   1.746   0.961   6.721 -0.7177  0.2174  0.6138
18599SOL     OW58175   3.833   6.041   6.020  0.0398 -0.4403  0.1566
18599SOL    HW158176   3.821   5.950   6.045  0.4767  0.1213  2.6992
18599SOL    HW258177   3.926   6.049   6.001  0.2102 -0.3173  1.0024
18600SOL     OW58178   3.944   6.763   4.412 -0.3864 -0.0440  0.0952
18600SOL    HW158179   4.030   6.804   4.401 -1.2668  1.7408 -0.3390
18600SOL    HW258180   3.916   6.789   4.500 -1.1682  0.7165 -0.3746
18601SOL     OW58181   3.267  10.493   8.951  1.2564  0.5178 -0.6554
18601SOL    HW158182   3.243  10.433   8.881  0.0991  2.5379 -2.1016
18601SOL    HW258183   3.361  10.507   8.938  0.9828  1.1950 -2.1358
18602SOL     OW58184  10.407  10.226   3.587  0.1980  0.2305  0.1838
18602SOL    HW158185  10.409  10.266   3.673  1.0141 -1.1856  0.8686
18602SOL    HW258186  10.350  10.282   3.535 -1.7819  0.1362  2.1288
18603SOL     OW58187   7.308   7.746   9.509  0.0056 -0.0575  0.3115
18603SOL    HW158188   7.388   7.744   9.563  0.4502  0.6040 -0.3108
18603SOL    HW258189   7.340   7.748   9.419 -0.7319 -0.8432  0.0186
18604SOL     OW58190   6.530  10.319   5.608 -0.3489  0.6378 -0.1059
18604SOL    HW158191   6.480  10.353   5.534  0.4891  0.8687 -0.5873
18604SOL    HW258192   6.608  10.281   5.568  0.1802  0.8776  0.6732
18605SOL     OW58193   9.765   9.812  10.349  0.2232  0.4291 -0.5639
18605SOL    HW158194   9.746   9.870  10.275  0.6181 -0.5337 -1.4499
18605SOL    HW258195   9.779   9.726  10.309  4.1599  0.5378  0.1852
18606SOL     OW58196   5.317   0.690   8.952 -0.2791  0.1906  0.0414
18606SOL    HW158197   5.371   0.715   9.027 -0.1424  0.7473 -0.2364
18606SOL    HW258198   5.373   0.633   8.899 -0.9325 -1.6351  1.2020
18607SOL     OW58199   0.456   0.063   1.277  0.4542 -0.2044 -0.1160
18607SOL    HW158200   0.378   0.025   1.235  1.4661  0.0747 -2.3801
18607SOL    HW258201   0.421   0.131   1.335 -1.0631 -1.0401  0.0123
18608SOL     OW58202   0.923   1.070   9.507 -0.4020 -0.5675  0.1968
18608SOL    HW158203   0.946   1.000   9.569  2.1540 -1.1836 -1.2878
18608SOL    HW258204   0.872   1.026   9.439  0.1708 -0.7767 -0.1113
18609SOL     OW58205   0.520   5.777   0.542 -0.3782  0.0080  0.1864
18609SOL    HW158206   0.490   5.818   0.461 -1.4642 -0.4859  0.3201
18609SOL    HW258207   0.564   5.848   0.590 -0.7615  0.5926 -0.3154
18610SOL     OW58208   2.187   4.458   7.065 -0.1238 -0.2648 -0.4316
18610SOL    HW158209   2.248   4.532   7.065 -0.7260  0.2347 -0.2027
18610SOL    HW258210   2.241   4.383   7.093  0.9350 -0.3055 -2.4190
18611SOL     OW58211   9.985  10.741   7.529  0.2945 -0.2751  0.4178
18611SOL    HW158212   9.965  10.679   7.599  1.9910 -0.7189  0.5678
18611SOL    HW258213  10.058  10.793   7.563  1.1886 -0.5244 -1.0204
18612SOL     OW58214  10.800   6.556   4.742  0.2263  0.4206 -0.5725
18612SOL    HW158215  10.886   6.550   4.700 -0.0356 -1.3777 -0.9493
18612SOL    HW258216  10.766   6.466   4.738 -0.3786  0.4375  2.3397
18613SOL     OW58217   2.009   5.789  10.345 -0.7121  0.3827 -0.4426
18613SOL    HW158218   2.012   5.862  10.408  0.4264 -0.3823  0.4202
18613SOL    HW258219   2.066   5.723  10.382 -0.0812 -0.1428 -2.2459
18614SOL     OW58220   7.093   9.227   5.262 -0.3902  0.8010  0.3121
18614SOL    HW158221   7.049   9.302   5.222 -0.5945  1.3558  1.5267
18614SOL    HW258222   7.024   9.185   5.315 -0.1681  0.0112 -0.0182
18615SOL     OW58223   7.356   3.969   6.419 -0.1192  0.4625 -0.1022
18615SOL    HW158224   7.264   3.955   6.398 -0.4140  1.1806  0.6526
18615SOL    HW258225   7.375   3.906   6.488 -0.3020  0.9138  0.3698
18616SOL     OW58226   8.149   5.293   8.496 -1.0901  0.1412  0.3919
18616SOL    HW158227   8.059   5.325   8.489 -0.7088  0.9555 -1.5807
18616SOL    HW258228   8.195   5.361   8.546 -1.0793  0.9314 -0.6604
18617SOL     OW58229   7.605   2.340  10.253  0.3023 -0.1152  0.5848
18617SOL    HW158230   7.631   2.330  10.162  0.1982  0.7735  0.4495
18617SOL    HW258231   7.664   2.407  10.288 -1.4728  1.6266  0.3894
18618SOL     OW58232   7.229   9.729   4.144 -0.1236  0.0537 -0.5177
18618SOL    HW158233   7.235   9.723   4.048 -1.5765 -1.4585 -0.5657
18618SOL    HW258234   7.310   9.690   4.176 -0.8042 -2.0055 -1.1450
18619SOL     OW58235   7.461   5.178   6.331 -0.1203 -0.1659  0.4857
18619SOL    HW158236   7.422   5.091   6.341  0.1643 -0.5303 -1.2462
18619SOL    HW258237   7.391   5.239   6.353 -0.4745 -0.8260  1.2180
18620SOL     OW58238   6.132   0.150   6.457 -0.2484  0.2399 -0.4006
18620SOL    HW158239   6.225   0.149   6.479  0.1370  0.1575 -1.9437
18620SOL    HW258240   6.108   0.057   6.449 -0.9586  0.1680  1.7977
18621SOL     OW58241   2.543   2.736   7.032  0.0647 -0.2652 -0.1688
18621SOL    HW158242   2.634   2.706   7.020 -0.4103 -1.7488 -0.2500
18621SOL    HW258243   2.547   2.795   7.107  1.1129 -0.2684 -0.2037
18622SOL     OW58244   6.612   5.270   3.891  0.3262  0.4521 -0.2156
18622SOL    HW158245   6.642   5.281   3.800  0.5177 -0.4697 -0.2733
18622SOL    HW258246   6.659   5.193   3.922 -2.3570 -1.4391 -0.4917
18623SOL     OW58247   7.548  10.429   9.272  0.3549  0.4421 -0.2097
18623SOL    HW158248   7.606  10.373   9.323  0.7094  1.3970  0.4760
18623SOL    HW258249   7.578  10.518   9.292 -0.7587  0.9109 -0.5615
18624SOL     OW58250   7.378   9.483   7.194 -0.1365  0.8951  0.0772
18624SOL    HW158251   7.383   9.537   7.273  1.1936  0.5697  0.2359
18624SOL    HW258252   7.450   9.421   7.203  0.8989  1.7234 -2.0489
18625SOL     OW58253   0.452   6.638   0.464  0.5719  0.8308  0.2894
18625SOL    HW158254   0.522   6.593   0.418  1.4335  0.1808  2.1250
18625SOL    HW258255   0.447   6.725   0.424  1.8390  0.5760 -0.4361
18626SOL     OW58256   6.740   6.315   5.317  0.2221 -0.6561  0.3211
18626SOL    HW158257   6.821   6.358   5.293 -0.9063  0.9958 -0.7210
18626SOL    HW258258   6.713   6.268   5.239 -0.3367 -0.3219  0.3030
18627SOL     OW58259   7.593   3.239   2.322  0.5536  0.0620  0.0563
18627SOL    HW158260   7.521   3.277   2.372 -0.0785 -0.4901 -0.4197
18627SOL    HW258261   7.652   3.313   2.305 -0.5768  0.8211 -0.7220
18628SOL     OW58262   2.195   6.796   7.711  0.4531  0.1869  0.6531
18628SOL    HW158263   2.175   6.735   7.782  1.6388 -0.4733  0.4393
18628SOL    HW258264   2.261   6.752   7.658 -3.8899 -1.6960 -3.9877
18629SOL     OW58265   1.986   4.779   3.134 -0.7309 -0.5762  0.6990
18629SOL    HW158266   1.925   4.768   3.206 -0.5838 -0.5476  0.8303
18629SOL    HW258267   1.935   4.821   3.065 -0.8871 -0.6559  0.7660
18630SOL     OW58268   5.578   1.968   2.289  0.0743  0.3665  0.0214
18630SOL    HW158269   5.574   2.059   2.318 -1.2029  0.7497 -1.2344
18630SOL    HW258270   5.579   1.917   2.370  1.7549  1.4826  0.7697
18631SOL     OW58271   0.510   9.757   7.477 -0.2386  0.1260  0.7419
18631SOL    HW158272   0.430   9.753   7.529 -0.3263  0.6557  0.6571
18631SOL    HW258273   0.480   9.772   7.387 -0.1066 -1.1606  0.4592
18632SOL     OW58274   8.893   9.278   1.525 -0.9210 -0.5268 -0.2974
18632SOL    HW158275   8.840   9.198   1.525 -0.2978 -0.9587  0.3344
18632SOL    HW258276   8.934   9.279   1.612  1.2974 -1.0403 -1.2451
18633SOL     OW58277   8.183   8.656   0.415  0.1807  0.6289  0.0496
18633SOL    HW158278   8.225   8.582   0.371  0.5824  1.7754 -1.6116
18633SOL    HW258279   8.090   8.633   0.415  0.3987 -0.2990  0.4534
18634SOL     OW58280   8.634   7.611   0.296  0.5394  0.7365 -0.0491
18634SOL    HW158281   8.652   7.658   0.377 -0.0973 -2.7345  2.3748
18634SOL    HW258282   8.538   7.605   0.292  0.5640  0.7756 -1.0168
18635SOL     OW58283   6.851   8.721   0.616 -0.0672  0.0046  0.3396
18635SOL    HW158284   6.906   8.674   0.554 -0.7417  0.4297 -0.6015
18635SOL    HW258285   6.771   8.669   0.621  0.5300 -0.8248  2.0014
18636SOL     OW58286   1.654   0.040   8.193 -0.3230 -0.5708 -0.3382
18636SOL    HW158287   1.697  -0.046   8.194  0.9828  0.0450 -1.0352
18636SOL    HW258288   1.670   0.076   8.280 -0.9942 -1.0620  0.0063
18637SOL     OW58289   4.420   3.415   2.959 -0.1732  0.5782  0.3019
18637SOL    HW158290   4.448   3.453   2.875 -0.5396  1.3635  0.5274
18637SOL    HW258291   4.459   3.471   3.025  0.0366  0.0133  0.6659
18638SOL     OW58292   1.261   4.375   6.793  0.8043  0.1472 -0.1999
18638SOL    HW158293   1.183   4.401   6.744  0.4995 -3.1821 -1.7984
18638SOL    HW258294   1.330   4.370   6.727  1.2411 -1.1176  0.3081
18639SOL     OW58295   3.888   2.629   1.898  0.1814 -0.3046 -0.6924
18639SOL    HW158296   3.954   2.563   1.880  0.1469 -1.1199  1.7221
18639SOL    HW258297   3.808   2.579   1.915 -0.2893  0.4587 -0.6231
18640SOL     OW58298   2.774   8.146   3.633  0.2279 -0.1103 -0.1514
18640SOL    HW158299   2.777   8.241   3.621 -1.0155  0.5118  3.1957
18640SOL    HW258300   2.865   8.119   3.629  0.6120  1.2155 -1.1540
18641SOL     OW58301   2.212   7.296   4.008  0.4175  0.0228  0.1496
18641SOL    HW158302   2.166   7.322   3.928  0.0936  1.3919  0.7534
18641SOL    HW258303   2.143   7.259   4.063  0.3773  0.3458  0.3196
18642SOL     OW58304   3.578   0.490   5.988 -0.3219 -0.1645 -0.4729
18642SOL    HW158305   3.660   0.485   5.940  0.7991 -0.7498  1.3810
18642SOL    HW258306   3.525   0.554   5.940  1.1416  0.1067 -1.7991
18643SOL     OW58307   0.073   9.832   8.762  0.3501 -0.0167 -0.0103
18643SOL    HW158308   0.069   9.927   8.755 -0.1619 -0.0699 -0.5758
18643SOL    HW258309   0.109   9.803   8.678  2.9117 -0.1983  1.0575
18644SOL     OW58310   9.675   7.775   4.596  0.2753  0.0246 -0.2059
18644SOL    HW158311   9.619   7.830   4.651 -1.4811 -1.6905 -0.1670
18644SOL    HW258312   9.695   7.829   4.519 -1.5394  0.6610 -0.2606
18645SOL     OW58313   5.036   3.738  10.544 -0.2022 -0.1359 -0.6798
18645SOL    HW158314   5.097   3.664  10.546 -0.3476 -0.2923 -1.5893
18645SOL    HW258315   5.052   3.784  10.626  0.8899 -0.3788 -0.7373
18646SOL     OW58316   8.334   0.459   6.763  0.4519 -0.2304  0.1848
18646SOL    HW158317   8.263   0.469   6.699  0.0323 -1.1918  0.4700
18646SOL    HW258318   8.414   0.459   6.711  0.2370  0.7220 -0.1600
18647SOL     OW58319   5.009   5.231   0.175  0.1437  0.2671 -0.0615
18647SOL    HW158320   5.040   5.269   0.256  0.7251 -0.6127  0.1376
18647SOL    HW258321   4.922   5.195   0.196  0.3434 -0.0611  0.2006
18648SOL     OW58322   5.209   6.154   4.746  0.0649  0.4015  0.1304
18648SOL    HW158323   5.219   6.209   4.824 -1.5331 -1.2869  1.6314
18648SOL    HW258324   5.115   6.137   4.742  0.4823 -2.1304 -0.2756
18649SOL     OW58325   3.103   1.485   8.975  0.4947 -0.1203  0.0028
18649SOL    HW158326   3.075   1.478   8.884 -0.4530  0.2745  0.2468
18649SOL    HW258327   3.112   1.580   8.989  1.2847 -0.2087  0.1386
18650SOL     OW58328   3.234   1.564   5.278  0.3785 -0.4092 -0.2757
18650SOL    HW158329   3.272   1.503   5.214 -0.5984 -0.7098 -0.5973
18650SOL    HW258330   3.165   1.609   5.229  0.6270  0.4506  0.1589
18651SOL     OW58331   0.858  10.527   6.124 -0.2742 -0.7310 -0.1390
18651SOL    HW158332   0.775  10.555   6.162 -0.9401 -0.5091 -1.6658
18651SOL    HW258333   0.901  10.477   6.193 -1.2812 -0.1053  0.9707
18652SOL     OW58334   8.250   7.160   1.360  1.2541  0.1033  0.2311
18652SOL    HW158335   8.177   7.219   1.339  1.9011  0.5663 -0.7310
18652SOL    HW258336   8.209   7.091   1.413  0.3792  1.1026  0.9194
18653SOL     OW58337   7.598   7.580   6.397 -0.1125 -0.2858 -0.2982
18653SOL    HW158338   7.503   7.570   6.389 -0.0510 -1.1029 -0.0351
18653SOL    HW258339   7.632   7.491   6.396  0.5240 -0.0889  1.2123
18654SOL     OW58340   4.937  10.042   9.919  0.2814  0.4956  0.4628
18654SOL    HW158341   4.843  10.040   9.900  0.6015  0.8848 -1.4316
18654SOL    HW258342   4.954   9.960   9.966 -0.7771 -0.2665 -0.4219
18655SOL     OW58343  10.315   8.531   9.192 -0.1249 -0.1164 -0.3852
18655SOL    HW158344  10.262   8.559   9.117  0.3328  0.6121 -0.4475
18655SOL    HW258345  10.271   8.570   9.268  1.2605  1.9741 -0.5918
18656SOL     OW58346  10.374   4.168   0.149 -0.0105 -0.5642  0.0498
18656SOL    HW158347  10.377   4.089   0.203 -0.2220 -0.1506  0.6747
18656SOL    HW258348  10.384   4.240   0.211 -1.3041 -0.0315 -0.3189
18657SOL     OW58349  10.658   8.231   2.105  0.2771  0.2375 -0.4350
18657SOL    HW158350  10.727   8.169   2.082 -0.8787 -1.0461 -0.5947
18657SOL    HW258351  10.678   8.309   2.055  1.4141 -0.2270 -0.7373
18658SOL     OW58352   9.977   9.951   4.070  0.0250 -0.5783 -0.3359
18658SOL    HW158353  10.032   9.877   4.098  0.7807 -0.0410 -0.3730
18658SOL    HW258354  10.030   9.996   4.004  1.6518  2.6514  2.7826
18659SOL     OW58355   9.905  10.324   1.826  0.0416  0.0558 -0.0677
18659SOL    HW158356   9.913  10.407   1.873 -2.4207  0.2267  0.2180
18659SOL    HW258357   9.817  10.292   1.849  0.4345 -2.0235 -1.1515
18660SOL     OW58358   3.704   0.371   7.888  0.0442  0.2084 -0.6522
18660SOL    HW158359   3.682   0.372   7.795 -1.2521 -0.3914 -0.3722
18660SOL    HW258360   3.794   0.338   7.891 -0.6221 -1.8370 -1.5899
18661SOL     OW58361   8.442   0.193  10.297 -0.0041 -0.5962  0.0887
18661SOL    HW158362   8.415   0.249  10.369  1.1609  1.1682 -0.7757
18661SOL    HW258363   8.472   0.253  10.229  1.1230 -2.2622 -0.9890
18662SOL     OW58364   9.047   5.718   4.730  0.4175 -0.1101 -0.2647
18662SOL    HW158365   9.017   5.630   4.707 -0.3942 -0.0201  0.4326
18662SOL    HW258366   8.973   5.758   4.775  0.4871  1.2169 -1.2506
18663SOL     OW58367   6.356   5.085   0.870  0.2596 -0.1606  0.3089
18663SOL    HW158368   6.316   5.163   0.908 -2.3956 -1.0137 -0.5328
18663SOL    HW258369   6.425   5.118   0.813  0.1527  1.4618  1.0745
18664SOL     OW58370   1.898   2.741   2.057  0.6509  0.5174 -0.3628
18664SOL    HW158371   1.961   2.682   2.017 -0.3399 -0.2024 -0.9080
18664SOL    HW258372   1.925   2.828   2.027  0.3484  0.0613 -2.0859
18665SOL     OW58373   7.597   5.637   3.580 -0.2537 -0.1274  0.1661
18665SOL    HW158374   7.690   5.636   3.600 -0.6878 -0.5969  2.4645
18665SOL    HW258375   7.592   5.670   3.490  2.1555 -0.9199 -0.3430
18666SOL     OW58376   6.706   8.796   5.041  0.0289  0.1241  0.1794
18666SOL    HW158377   6.712   8.751   4.957  1.1644  0.6893 -0.0628
18666SOL    HW258378   6.796   8.800   5.072 -0.1886  1.2398  0.7116
18667SOL     OW58379   5.327   9.843   8.819  0.6216 -0.3075 -0.4469
18667SOL    HW158380   5.255   9.904   8.803  1.0091 -0.2835 -2.3128
18667SOL    HW258381   5.365   9.873   8.902 -0.8712  0.2918  0.0567
18668SOL     OW58382   3.126  10.564   4.664  0.2121  0.6007  0.0084
18668SOL    HW158383   3.134  10.584   4.757 -0.1065 -1.3747  0.5235
18668SOL    HW258384   3.049  10.613   4.635  0.4063  1.3530  0.7435
18669SOL     OW58385  10.161   6.520   0.187 -0.6639  0.4724 -0.5892
18669SOL    HW158386  10.226   6.450   0.197 -0.2179  0.8610 -0.7874
18669SOL    HW258387  10.148   6.527   0.093 -2.5411 -1.0244 -0.5010
18670SOL     OW58388   7.822   3.568   5.169 -0.5642  0.0332  0.1943
18670SOL    HW158389   7.822   3.590   5.262  1.8456  0.8277  0.0683
18670SOL    HW258390   7.733   3.537   5.152 -1.0418 -0.2187  2.7593
18671SOL     OW58391   8.178   2.269   5.832  0.3901  0.5404  0.3969
18671SOL    HW158392   8.157   2.319   5.911  1.0228 -1.5557  1.9513
18671SOL    HW258393   8.109   2.203   5.827  0.5985  0.3829 -0.6044
18672SOL     OW58394   8.953   5.094  10.188 -0.1233 -0.0242 -0.1013
18672SOL    HW158395   8.857   5.090  10.192 -0.1828  0.3090 -0.9789
18672SOL    HW258396   8.972   5.115  10.097  0.7882  0.0413  0.0977
18673SOL     OW58397   9.162   9.451   1.941 -0.0161 -0.4127 -0.0391
18673SOL    HW158398   9.200   9.502   2.012  2.1205 -0.7199 -0.8727
18673SOL    HW258399   9.155   9.513   1.868 -0.6355 -0.4973 -0.0549
18674SOL     OW58400   0.893  10.567   9.196  0.0265  0.2523  0.3213
18674SOL    HW158401   0.986  10.569   9.173  0.2969  0.0999  1.3873
18674SOL    HW258402   0.879  10.480   9.234 -0.2567  0.7413  1.3700
18675SOL     OW58403   5.003   6.403   7.674  0.1760  0.1514  0.1480
18675SOL    HW158404   5.005   6.341   7.747 -0.6105  0.3103  0.3113
18675SOL    HW258405   5.021   6.349   7.597 -0.8556 -0.3624  0.2468
18676SOL     OW58406   6.107   9.455   6.463 -0.3276  0.5208  0.0285
18676SOL    HW158407   6.099   9.483   6.555 -0.2125  0.2628  0.1179
18676SOL    HW258408   6.115   9.537   6.414  0.9800  0.6357  0.3843
18677SOL     OW58409   2.563   2.020   6.396 -0.5984 -0.8168  0.1472
18677SOL    HW158410   2.597   1.943   6.351 -0.0859 -0.8390  0.5605
18677SOL    HW258411   2.549   1.990   6.486 -2.5607 -1.0592 -0.1835
18678SOL     OW58412  10.613   1.668   3.974  0.0620  0.0566 -0.0540
18678SOL    HW158413  10.678   1.601   3.992 -1.5077 -1.6376 -0.3428
18678SOL    HW258414  10.626   1.734   4.041  1.6374 -0.5525  0.2710
18679SOL     OW58415   1.882   3.971   7.862 -0.0220  0.5653  0.0333
18679SOL    HW158416   1.945   4.025   7.813 -0.7256  0.8165 -0.6180
18679SOL    HW258417   1.801   3.979   7.812 -0.2085 -0.9087  0.0545
18680SOL     OW58418   0.991   5.361   3.164  0.2903  0.3465  0.4594
18680SOL    HW158419   0.954   5.279   3.198 -1.4866  0.8339 -0.1730
18680SOL    HW258420   0.947   5.373   3.080  2.0047  0.9621 -0.3868
18681SOL     OW58421   8.527   6.922   8.245  0.3177  0.0108 -0.2512
18681SOL    HW158422   8.569   6.984   8.306  0.6959 -0.9497  0.4942
18681SOL    HW258423   8.434   6.939   8.254  0.3828  0.0338  0.4329
18682SOL     OW58424   5.428   5.654   6.118 -0.0141  0.4280  0.4617
18682SOL    HW158425   5.403   5.574   6.165  1.1909 -0.9390 -1.0795
18682SOL    HW258426   5.356   5.669   6.057 -0.1545  0.3851  0.6179
18683SOL     OW58427   8.929   6.843   5.060 -0.3913  0.0193  0.2686
18683SOL    HW158428   8.953   6.790   4.984 -0.9151  1.1573 -0.7220
18683SOL    HW258429   8.879   6.915   5.024  1.9302  2.3176  1.2909
18684SOL     OW58430   7.788   2.215   2.620  0.2209  0.0189 -0.3180
18684SOL    HW158431   7.822   2.129   2.644 -0.4372 -0.3774 -0.8071
18684SOL    HW258432   7.809   2.224   2.527 -0.1130  0.2009 -0.3754
18685SOL     OW58433  10.197   4.819   1.073 -0.1221 -0.4086 -0.3811
18685SOL    HW158434  10.256   4.793   1.002  0.1897 -0.3674 -0.1386
18685SOL    HW258435  10.254   4.836   1.148 -0.5899 -2.9081  0.6478
18686SOL     OW58436   9.545   9.083   0.931  0.2129  0.2750 -0.2610
18686SOL    HW158437   9.488   9.140   0.982 -0.8482 -0.8249 -0.1656
18686SOL    HW258438   9.619   9.138   0.906 -0.4474  1.4882  0.3944
18687SOL     OW58439   0.986   6.987   5.665 -0.1529  0.4340 -0.1339
18687SOL    HW158440   1.000   7.038   5.585  1.0120 -0.0056 -0.2265
18687SOL    HW258441   0.910   6.933   5.646  0.0388  0.4246 -0.9047
18688SOL     OW58442   3.062   8.726   8.232 -0.2097 -0.2776  0.0839
18688SOL    HW158443   2.973   8.708   8.262 -0.1971 -1.5493 -0.5522
18688SOL    HW258444   3.094   8.641   8.202  0.6759  0.4519 -1.1220
18689SOL     OW58445   9.800   1.436   3.068  0.2903  0.0153 -0.3644
18689SOL    HW158446   9.739   1.363   3.071  0.5242 -0.1653  1.3767
18689SOL    HW258447   9.779   1.487   3.147  2.4089 -0.1184  0.3493
18690SOL     OW58448   2.351   5.328   2.236 -0.2769  0.0884  0.1114
18690SOL    HW158449   2.257   5.343   2.226 -0.1596  0.8259  0.0290
18690SOL    HW258450   2.366   5.242   2.199 -1.2455 -0.9594  2.0101
18691SOL     OW58451   1.519   8.791   5.646  0.3344 -0.3644 -0.1701
18691SOL    HW158452   1.549   8.878   5.671  0.1200  0.3173 -2.1114
18691SOL    HW258453   1.424   8.795   5.652  0.3636 -1.3717  2.3585
18692SOL     OW58454   7.995   7.939   0.660  1.0489  0.8861 -0.0795
18692SOL    HW158455   7.985   8.032   0.683 -2.3693  0.9326 -1.1510
18692SOL    HW258456   7.993   7.939   0.564 -1.4745 -0.3566 -0.1100
18693SOL     OW58457   0.975   6.734   0.927 -0.0291  0.5884 -0.0574
18693SOL    HW158458   0.944   6.778   1.007 -0.9014  0.5056 -0.3310
18693SOL    HW258459   0.901   6.679   0.901  0.8377 -0.6192 -0.0400
18694SOL     OW58460   7.844   0.499   7.344  0.1422 -0.6009  0.2427
18694SOL    HW158461   7.882   0.587   7.338 -0.0910 -0.5109  0.0777
18694SOL    HW258462   7.752   0.514   7.367  0.1065 -0.8034  0.2361
18695SOL     OW58463   8.869   3.859   6.989  0.0110 -0.6601 -0.7393
18695SOL    HW158464   8.831   3.931   6.939  0.2452 -0.0718 -0.0836
18695SOL    HW258465   8.954   3.844   6.947  0.8821  0.8527  0.3874
18696SOL     OW58466   8.541   3.919   6.313 -0.6749  0.1576 -0.0583
18696SOL    HW158467   8.577   4.003   6.283 -1.0373  0.4919  0.4215
18696SOL    HW258468   8.465   3.903   6.257 -0.2307 -0.1728 -0.5731
18697SOL     OW58469  10.275  10.616   1.774 -0.0968  0.0469  0.3273
18697SOL    HW158470  10.202  10.641   1.830 -1.4632  0.5447 -1.5745
18697SOL    HW258471  10.290  10.692   1.718  0.4701 -0.8108 -0.7337
18698SOL     OW58472   7.758   1.534   0.307  0.2840 -0.1557  0.1051
18698SOL    HW158473   7.703   1.458   0.327 -1.0361  0.8515  0.5178
18698SOL    HW258474   7.827   1.500   0.250  0.1562 -1.7853  0.8613
18699SOL     OW58475   0.758   7.961   3.135  0.0351  0.7692 -0.6896
18699SOL    HW158476   0.831   7.957   3.072  1.5030  2.2509  0.8022
18699SOL    HW258477   0.733   8.053   3.136 -2.6557  0.1533 -1.9121
18700SOL     OW58478   9.181   1.246   8.183 -0.4891  0.2283 -0.2109
18700SOL    HW158479   9.188   1.262   8.089 -0.7596  0.2884 -0.2212
18700SOL    HW258480   9.139   1.161   8.190 -4.6370  2.0285 -0.1720
18701SOL     OW58481   0.811   0.046   9.107  0.0426  0.0285  0.0534
18701SOL    HW158482   0.871   0.061   9.035  0.9059  0.0397  0.7606
18701SOL    HW258483   0.851  -0.025   9.158  0.4967  1.3493  1.6406
18702SOL     OW58484   5.740   3.577   8.524  0.3006 -0.1323  0.4850
18702SOL    HW158485   5.814   3.522   8.499  0.7082 -0.2038  1.7822
18702SOL    HW258486   5.664   3.535   8.482  0.5587 -1.8599  1.6208
18703SOL     OW58487   3.982   5.030   8.827  0.2347 -0.3739  0.1498
18703SOL    HW158488   4.063   4.985   8.801 -0.2771 -0.6431 -1.0534
18703SOL    HW258489   3.927   4.960   8.861  1.4654  0.1663  3.6927
18704SOL     OW58490   3.937   0.027   2.603 -0.0114 -0.4604 -0.0023
18704SOL    HW158491   3.934  -0.040   2.672 -0.3812  0.6635  1.1146
18704SOL    HW258492   3.860   0.009   2.549 -0.0231 -1.0306  0.1984
18705SOL     OW58493   2.558   6.650   4.881  0.2108  0.4146  0.1048
18705SOL    HW158494   2.547   6.700   4.961  3.2534  0.4546  0.6170
18705SOL    HW258495   2.584   6.563   4.910 -0.1086 -0.0085 -0.8247
18706SOL     OW58496   1.179   2.916   2.477 -0.3503 -0.2895 -0.4142
18706SOL    HW158497   1.212   2.903   2.566 -2.8148  1.0026  0.7829
18706SOL    HW258498   1.093   2.874   2.477 -0.8550  0.6755 -1.8335
18707SOL     OW58499   8.444   4.340   4.624  0.0849 -0.3291  0.3872
18707SOL    HW158500   8.468   4.348   4.716  1.8977 -0.2468 -0.0503
18707SOL    HW258501   8.349   4.351   4.623  0.1310  0.6637  2.1285
18708SOL     OW58502   4.203   8.555   8.256  0.2648 -0.3844  0.1155
18708SOL    HW158503   4.201   8.540   8.162  0.1027 -1.5532  0.2942
18708SOL    HW258504   4.182   8.648   8.266  0.1596 -0.2780 -0.9847
18709SOL     OW58505   3.128   1.465   3.833  0.2479  0.1067 -0.2918
18709SOL    HW158506   3.157   1.502   3.750  0.0337 -0.1913 -0.4996
18709SOL    HW258507   3.174   1.382   3.840 -0.7628 -0.5077 -0.7622
18710SOL     OW58508   3.699   8.918   9.940 -0.1795  0.1607 -0.4308
18710SOL    HW158509   3.688   8.849   9.875 -0.8329 -0.7919  0.6568
18710SOL    HW258510   3.704   8.872  10.024 -1.6174  1.4691  0.4307
18711SOL     OW58511   2.053   1.809   4.459  0.0555 -0.4073 -0.0622
18711SOL    HW158512   2.036   1.725   4.418  0.4193 -0.6739  0.3220
18711SOL    HW258513   2.120   1.849   4.404 -0.3251 -0.2389 -0.4094
18712SOL     OW58514   2.394   0.610   0.157 -0.8623  0.2392  0.1466
18712SOL    HW158515   2.363   0.679   0.215  0.8716  1.1970  0.0152
18712SOL    HW258516   2.484   0.594   0.185  0.0099  0.6698 -2.1727
18713SOL     OW58517   8.920  10.689   1.298 -0.1051  0.3700  0.3994
18713SOL    HW158518   8.844  10.723   1.344 -0.8594 -0.1995 -0.3735
18713SOL    HW258519   8.930  10.600   1.332  0.8161  0.7582  1.1871
18714SOL     OW58520   9.677   6.414   4.124 -0.2726 -0.0312  0.2229
18714SOL    HW158521   9.673   6.401   4.219  0.1303  1.0375  0.3989
18714SOL    HW258522   9.648   6.504   4.111 -0.4877 -0.2235 -0.6945
18715SOL     OW58523   4.055   8.241   9.794  0.3274  0.3356 -0.3257
18715SOL    HW158524   4.073   8.229   9.887 -2.6630  0.1504  0.3479
18715SOL    HW258525   4.120   8.187   9.749  0.3599 -1.5097  1.7770
18716SOL     OW58526   6.017   9.598   2.267  0.2458  0.4865  0.4274
18716SOL    HW158527   5.927   9.565   2.255  0.3374  0.4300 -0.1383
18716SOL    HW258528   6.011   9.655   2.343  0.0898 -0.8666  1.4627
18717SOL     OW58529   7.129   3.461   2.796  0.0194 -0.4398 -0.7280
18717SOL    HW158530   7.209   3.474   2.847 -0.8361 -0.8813  0.7767
18717SOL    HW258531   7.132   3.369   2.769 -0.3453 -0.6835  0.0231
18718SOL     OW58532   6.195   8.833   5.673  0.4665 -0.0717  0.1822
18718SOL    HW158533   6.139   8.876   5.609 -0.1365 -0.9680  0.0964
18718SOL    HW258534   6.276   8.883   5.671 -0.2336  1.0856  0.1239
18719SOL     OW58535   9.008   8.532   3.635  0.3714  0.1893  0.0998
18719SOL    HW158536   9.050   8.609   3.596 -0.8731  0.8283 -0.0305
18719SOL    HW258537   8.946   8.503   3.568 -0.8595  0.5173  1.0596
18720SOL     OW58538   7.365   1.343   0.521 -0.3058 -0.3856  0.1866
18720SOL    HW158539   7.296   1.289   0.559 -1.2907 -0.4664 -1.6157
18720SOL    HW258540   7.324   1.428   0.508  0.3692 -0.0254  0.3692
18721SOL     OW58541   0.875   3.157   7.647 -0.4990  0.7670 -0.6616
18721SOL    HW158542   0.834   3.097   7.710  1.0765  0.1851 -0.1294
18721SOL    HW258543   0.930   3.213   7.701  0.0357  0.9853 -1.4194
18722SOL     OW58544   8.631   8.992   5.568  0.1455  0.3512  0.3121
18722SOL    HW158545   8.552   8.948   5.598  0.7380 -1.8162 -1.0513
18722SOL    HW258546   8.683   8.923   5.526  2.1062  1.9767 -0.1296
18723SOL     OW58547   6.596   5.947   3.309 -0.4990  0.0767  0.9614
18723SOL    HW158548   6.579   5.854   3.295  0.4516 -0.0515  0.6433
18723SOL    HW258549   6.522   5.991   3.267  0.3665 -0.4476 -1.2260
18724SOL     OW58550   7.031   6.436   5.551  0.5798  0.1438 -0.0993
18724SOL    HW158551   7.073   6.492   5.486  2.3103  0.3452  1.1155
18724SOL    HW258552   7.097   6.425   5.620 -0.3856 -1.8509  0.5976
18725SOL     OW58553   4.325   7.955   1.291  0.3109  0.5465  0.3038
18725SOL    HW158554   4.399   7.920   1.242  0.1855  0.5223  0.1331
18725SOL    HW258555   4.304   7.886   1.355 -0.3041  0.0614 -0.4098
18726SOL     OW58556   6.261   0.720   0.091 -0.0295 -0.0452  0.4164
18726SOL    HW158557   6.267   0.660   0.165  1.4760 -1.5542 -0.8550
18726SOL    HW258558   6.329   0.785   0.107  1.1113 -1.0438 -0.1405
18727SOL     OW58559   8.285   4.771   4.941  0.9383  0.1550 -0.2885
18727SOL    HW158560   8.284   4.680   4.913 -1.5118 -0.2331  0.8420
18727SOL    HW258561   8.285   4.767   5.037  2.1669  1.3787 -0.1967
18728SOL     OW58562   8.488   1.484   2.133  0.0827 -0.0234 -0.2908
18728SOL    HW158563   8.503   1.420   2.063 -1.5461  0.2344 -0.9372
18728SOL    HW258564   8.426   1.440   2.191  0.1095  0.4104  0.0607
18729SOL     OW58565   5.041   5.936   6.083 -0.2352  0.0238  0.0048
18729SOL    HW158566   4.950   5.906   6.078 -0.2292  0.0934 -0.7627
18729SOL    HW258567   5.058   5.974   5.996  0.6465 -0.3374  0.0058
18730SOL     OW58568   8.223   1.211   1.281  0.6888  0.0122  0.1309
18730SOL    HW158569   8.150   1.204   1.219  0.4128  0.3180  0.4115
18730SOL    HW258570   8.262   1.297   1.263  1.0306 -0.1870 -0.0744
18731SOL     OW58571   5.716   4.556  10.127 -0.0400  0.2355 -0.2652
18731SOL    HW158572   5.778   4.497  10.084 -0.0841  0.1180 -0.1645
18731SOL    HW258573   5.703   4.626  10.063  0.7356  0.6227 -0.0177
18732SOL     OW58574   7.642   4.611   2.502  0.0123  0.1393 -0.3397
18732SOL    HW158575   7.562   4.590   2.455  0.1664 -1.2480 -0.0283
18732SOL    HW258576   7.708   4.625   2.433 -0.3729  0.8200 -0.5800
18733SOL     OW58577   9.032   2.567   5.248  0.0110  0.4738  0.0515
18733SOL    HW158578   9.016   2.507   5.175 -2.2924  1.3974 -0.2727
18733SOL    HW258579   9.125   2.590   5.239  1.4701 -3.9766  1.0137
18734SOL     OW58580   8.164   0.971   3.997  0.1550  0.2980  0.1667
18734SOL    HW158581   8.154   0.876   3.997  0.3248  0.2737 -0.7168
18734SOL    HW258582   8.095   1.002   4.056 -0.9102 -0.2702 -0.7488
18735SOL     OW58583   1.121   4.488   3.523  0.1670 -0.0267 -0.1800
18735SOL    HW158584   1.141   4.432   3.448 -0.6773  0.2727 -0.6371
18735SOL    HW258585   1.046   4.446   3.565 -0.7886  0.9954 -0.8055
18736SOL     OW58586   8.015   1.103   0.814 -0.0472  0.1637 -0.0109
18736SOL    HW158587   8.040   1.015   0.786  1.4164  0.7440 -0.6267
18736SOL    HW258588   7.992   1.148   0.733 -0.4461  0.4598  0.2627
18737SOL     OW58589  10.296   8.948   4.206 -0.0413  0.0359 -0.0227
18737SOL    HW158590  10.247   8.983   4.281 -1.7049 -2.2583  0.0540
18737SOL    HW258591  10.344   8.873   4.241 -0.5049 -0.8123 -1.1433
18738SOL     OW58592   9.135   9.505   2.280 -0.4621 -0.1266  0.0943
18738SOL    HW158593   9.111   9.560   2.355 -0.6734 -1.2580  0.8972
18738SOL    HW258594   9.176   9.564   2.218  1.8354  0.4977  2.0661
18739SOL     OW58595   1.605   2.368   3.273 -0.2362  0.0091 -0.4279
18739SOL    HW158596   1.642   2.343   3.358 -0.0267  0.6740 -0.3147
18739SOL    HW258597   1.680   2.375   3.214 -0.3602 -0.2530 -0.6185
18740SOL     OW58598   7.389   8.685   4.372  0.6056 -0.2354 -0.4005
18740SOL    HW158599   7.330   8.718   4.304  0.6706 -0.8453 -0.7567
18740SOL    HW258600   7.476   8.716   4.346  0.5504  0.0164 -0.2859
18741SOL     OW58601   9.450   4.507   5.857  0.5342  0.7026  0.0903
18741SOL    HW158602   9.443   4.495   5.762  1.0097 -2.3989  0.3605
18741SOL    HW258603   9.540   4.483   5.879  0.2209  0.6570  1.4379
18742SOL     OW58604   6.584  10.138   1.829  0.5667 -0.1034  0.1381
18742SOL    HW158605   6.607  10.116   1.920  1.3271  0.3149  0.0552
18742SOL    HW258606   6.668  10.159   1.788  0.3768 -1.3825 -0.9702
18743SOL     OW58607   3.184   5.179   5.226  0.2189  0.0410  0.1060
18743SOL    HW158608   3.203   5.134   5.143 -1.2587 -0.8401  0.2017
18743SOL    HW258609   3.148   5.110   5.282  0.8152  0.7124  1.3547
18744SOL     OW58610   6.988   8.147   9.815  0.2602 -0.0540  0.6920
18744SOL    HW158611   7.031   8.063   9.834  1.9799  0.5105 -0.3922
18744SOL    HW258612   7.034   8.210   9.871 -1.2918  0.1394  1.7985
18745SOL     OW58613   8.228   8.860   6.244  0.2967  0.0797  0.1875
18745SOL    HW158614   8.321   8.843   6.259 -0.0336 -1.3072  0.8301
18745SOL    HW258615   8.199   8.786   6.191 -0.5838  0.1431  0.5713
18746SOL     OW58616   3.077   5.340   5.618  0.1642 -0.8026 -0.1231
18746SOL    HW158617   3.036   5.412   5.666  2.2829 -0.1338  0.7920
18746SOL    HW258618   3.009   5.273   5.612 -1.1640  0.3897  0.9710
18747SOL     OW58619   0.621   0.281   4.630 -0.1427 -0.4434 -0.5045
18747SOL    HW158620   0.564   0.345   4.587 -2.0342 -0.6577  1.5048
18747SOL    HW258621   0.698   0.332   4.655 -0.2021  0.2821 -1.6841
18748SOL     OW58622   4.596   1.166   4.962 -0.2831  0.2968  0.2393
18748SOL    HW158623   4.515   1.166   4.912 -1.1006  0.9975  1.5146
18748SOL    HW258624   4.644   1.242   4.929 -0.8396  0.7850  0.5345
18749SOL     OW58625   0.543   2.631   2.533 -0.2441 -0.8894 -0.7513
18749SOL    HW158626   0.481   2.588   2.475  2.0657 -1.2092 -3.2250
18749SOL    HW258627   0.582   2.701   2.479  1.0701 -0.2951  0.8575
18750SOL     OW58628   4.763   5.629   8.747  0.4930  0.4466 -0.0268
18750SOL    HW158629   4.738   5.721   8.738  0.0938  0.3918  0.4852
18750SOL    HW258630   4.836   5.630   8.809 -1.3422  0.1730  2.2387
18751SOL     OW58631   3.696   1.270   9.232  0.6553  0.4703 -0.4098
18751SOL    HW158632   3.737   1.269   9.318  0.6938 -0.3594 -0.4293
18751SOL    HW258633   3.741   1.202   9.183  0.6840  0.9859 -1.1208
18752SOL     OW58634   4.620   8.973   5.927  0.1283  0.1862 -0.2471
18752SOL    HW158635   4.680   8.965   5.853  0.4062  1.3316 -0.1613
18752SOL    HW258636   4.652   9.049   5.976  1.6571 -2.0518  2.6061
18753SOL     OW58637   1.637   4.937   4.637  0.2241  0.4872  0.1022
18753SOL    HW158638   1.706   4.874   4.616 -0.2890  0.4526 -1.5819
18753SOL    HW258639   1.643   4.947   4.732  1.9080 -0.2394  0.1131
18754SOL     OW58640   6.527   0.493   8.658  0.1861  0.2906 -0.2703
18754SOL    HW158641   6.561   0.417   8.704  2.2201  1.2107 -0.1429
18754SOL    HW258642   6.454   0.523   8.712 -0.5037 -1.3959 -0.2099
18755SOL     OW58643   0.490   1.290   4.084  0.2492  0.0620  0.1079
18755SOL    HW158644   0.524   1.379   4.073  0.4775 -0.2630 -2.6769
18755SOL    HW258645   0.550   1.236   4.033 -1.7376 -1.1946 -1.0170
18756SOL     OW58646   7.405   9.562   0.623  0.2958  0.6066 -0.4551
18756SOL    HW158647   7.435   9.570   0.533 -1.2689  1.5762 -0.9280
18756SOL    HW258648   7.317   9.525   0.616  0.6946 -0.6555  0.7769
18757SOL     OW58649   1.923   7.274   2.306  0.3522  0.5260  0.6069
18757SOL    HW158650   1.993   7.340   2.310  0.6831  0.1965  0.3682
18757SOL    HW258651   1.928   7.239   2.217 -1.1721  1.6190  0.0441
18758SOL     OW58652   2.087   0.208   1.802 -0.0357 -0.5304 -0.2341
18758SOL    HW158653   2.086   0.285   1.744  0.2431 -0.7388 -0.5152
18758SOL    HW258654   2.156   0.228   1.866 -0.4762 -0.2122  0.1546
18759SOL     OW58655   5.670   2.247   1.506  0.0979  0.1846  0.4787
18759SOL    HW158656   5.580   2.230   1.534 -0.5324  1.9154 -0.3692
18759SOL    HW258657   5.679   2.199   1.424 -0.3596  0.7325  0.1033
18760SOL     OW58658   3.421   1.894   0.378  0.4745 -0.3534 -0.1101
18760SOL    HW158659   3.495   1.910   0.319 -0.5098  0.1887 -1.2322
18760SOL    HW258660   3.443   1.944   0.457  1.2852 -0.1709 -0.4385
18761SOL     OW58661  10.717   4.966   9.372 -0.6559 -0.0396  0.1635
18761SOL    HW158662  10.643   5.002   9.421 -0.6603 -0.6618  0.6298
18761SOL    HW258663  10.793   5.011   9.409 -0.8557  1.3175 -0.9798
18762SOL     OW58664   3.252   0.370   4.548  0.0891  0.1605 -0.0813
18762SOL    HW158665   3.171   0.324   4.568  0.5367 -0.0782  1.2547
18762SOL    HW258666   3.250   0.448   4.604  0.9580 -0.0517  0.2608
18763SOL     OW58667   9.271   6.091   1.603 -0.0606 -0.3877  0.0207
18763SOL    HW158668   9.253   6.046   1.686  2.2863 -2.8742 -0.6946
18763SOL    HW258669   9.334   6.159   1.626 -0.4069 -0.2083  0.4609
18764SOL     OW58670   8.648  10.660   6.429 -0.0007 -0.3564 -0.3286
18764SOL    HW158671   8.573  10.617   6.389 -0.5606 -0.0803  0.4163
18764SOL    HW258672   8.709  10.673   6.356 -0.9712  0.0756 -1.0907
18765SOL     OW58673   1.922   5.984   8.645 -0.5524  0.2201 -0.5414
18765SOL    HW158674   1.908   5.949   8.557 -0.2072 -3.7227  0.8010
18765SOL    HW258675   2.013   6.014   8.644 -0.8954  1.3634 -1.7857
18766SOL     OW58676   1.591   4.479   8.401 -0.5338 -0.4110 -0.8765
18766SOL    HW158677   1.576   4.441   8.487 -1.7245  0.1027 -0.8364
18766SOL    HW258678   1.652   4.552   8.417 -1.2722  0.1026 -0.3495
18767SOL     OW58679   3.034   5.500   4.935 -0.3647 -0.6280 -0.0434
18767SOL    HW158680   3.032   5.504   5.030 -0.7483  1.6906 -0.0823
18767SOL    HW258681   2.944   5.519   4.908  0.1802  0.9841 -0.8603
18768SOL     OW58682   8.510   5.429   8.145 -0.3702  0.4550 -0.4962
18768SOL    HW158683   8.476   5.515   8.121  0.2305  0.0638 -3.0515
18768SOL    HW258684   8.436   5.385   8.187 -1.3325  1.4650 -1.0824
18769SOL     OW58685   6.090   8.214   6.035  0.6183  0.3206 -0.2973
18769SOL    HW158686   6.003   8.232   5.999 -0.0435 -1.7834  0.1202
18769SOL    HW258687   6.076   8.203   6.129  1.4562  0.5849 -0.1322
18770SOL     OW58688   0.290   9.272   9.619 -0.2733  0.0235 -0.6066
18770SOL    HW158689   0.346   9.294   9.544  1.4436  1.5006  1.0105
18770SOL    HW258690   0.294   9.176   9.624  1.6485  0.0362 -0.9422
18771SOL     OW58691   7.602   3.534   4.302  0.0930 -0.7999  0.2276
18771SOL    HW158692   7.527   3.581   4.339  1.9740  0.1970  3.0435
18771SOL    HW258693   7.586   3.443   4.324  0.1747 -0.4672  1.7526
18772SOL     OW58694   0.810   7.843   4.906  0.4186 -0.1247  0.0048
18772SOL    HW158695   0.806   7.783   4.980  0.4568 -0.0247  0.0872
18772SOL    HW258696   0.741   7.812   4.847  0.5200 -0.3256 -0.0105
18773SOL     OW58697   6.471   1.764  10.738  0.0226 -0.0010 -0.0241
18773SOL    HW158698   6.551   1.711  10.744  0.7860  1.1211  0.0861
18773SOL    HW258699   6.480   1.810  10.654 -0.0847  0.7830  0.3852
18774SOL     OW58700   2.882   0.108   6.842  0.1454 -0.3452 -0.9650
18774SOL    HW158701   2.971   0.096   6.875 -0.2190  0.4762  0.3876
18774SOL    HW258702   2.871   0.203   6.838 -0.2793 -0.4300 -2.2759
18775SOL     OW58703   0.424   8.664   4.948 -0.1810 -0.2656 -0.0206
18775SOL    HW158704   0.426   8.688   5.040 -0.4615  1.3485 -0.4059
18775SOL    HW258705   0.503   8.611   4.935  0.5632  0.5979  0.8579
18776SOL     OW58706   8.999   4.407   5.291  0.1503 -0.1014  0.2033
18776SOL    HW158707   8.961   4.421   5.378  0.9297 -0.5893  0.6294
18776SOL    HW258708   9.054   4.329   5.301 -0.6067 -0.8258 -0.9999
18777SOL     OW58709   2.519   9.587   2.948  0.4442  0.3347  0.6613
18777SOL    HW158710   2.521   9.656   2.882 -0.2556 -2.0348 -2.0380
18777SOL    HW258711   2.607   9.550   2.946 -0.1714 -1.1781 -0.6986
18778SOL     OW58712   4.651   3.994  10.267 -0.4187  0.5420  0.1620
18778SOL    HW158713   4.706   3.974  10.191 -0.4148  0.9946  0.0447
18778SOL    HW258714   4.708   4.042  10.327 -0.8037  1.4213 -0.1611
18779SOL     OW58715   5.658   1.254   9.042 -0.3759  0.3025  0.2413
18779SOL    HW158716   5.747   1.258   9.006 -0.8610  1.2341 -0.9245
18779SOL    HW258717   5.626   1.168   9.017 -0.2077  0.4099 -0.3746
18780SOL     OW58718   9.840  10.316   6.329  0.2587 -0.2909  0.3417
18780SOL    HW158719   9.835  10.410   6.312  0.7555 -0.0406  1.5054
18780SOL    HW258720   9.932  10.300   6.351  0.0745 -0.9497  0.6732
18781SOL     OW58721   4.402   2.065   8.353 -0.0923 -0.0141  0.0314
18781SOL    HW158722   4.313   2.071   8.387 -0.2300 -0.7178 -0.1896
18781SOL    HW258723   4.391   2.039   8.261  0.3312  0.0588 -0.0443
18782SOL     OW58724   7.508   6.573   2.084 -0.3795 -0.2202 -0.2366
18782SOL    HW158725   7.580   6.582   2.021  0.8105  1.4002  1.2614
18782SOL    HW258726   7.468   6.659   2.087 -0.5887 -0.3504  1.0077
18783SOL     OW58727   1.180   0.163  10.521 -0.5212 -0.0101 -0.2428
18783SOL    HW158728   1.116   0.092  10.518  1.1767 -1.6747  1.0212
18783SOL    HW258729   1.182   0.189  10.614 -1.2104  1.8375 -0.6959
18784SOL     OW58730   1.369   1.359   4.250 -0.1523 -0.0186 -0.3548
18784SOL    HW158731   1.455   1.320   4.234 -0.5874 -0.7402 -1.0000
18784SOL    HW258732   1.385   1.423   4.319  0.6568 -1.0674  0.4704
18785SOL     OW58733   9.275   4.960   8.964  0.4190  0.1737 -0.1426
18785SOL    HW158734   9.263   4.992   8.874 -0.3576 -0.9407 -0.4632
18785SOL    HW258735   9.357   5.000   8.993 -0.5709  2.5872 -0.4153
18786SOL     OW58736   8.143   0.120   5.093 -0.0213  0.4717 -0.0625
18786SOL    HW158737   8.099   0.056   5.148 -2.1779  0.4254 -1.7123
18786SOL    HW258738   8.217   0.073   5.054  0.5575  0.0682  1.4775
18787SOL     OW58739   1.633   3.712   4.283  0.4663  0.3516 -0.4495
18787SOL    HW158740   1.606   3.800   4.257  0.0186 -0.1480 -1.7308
18787SOL    HW258741   1.728   3.710   4.267  1.2830  1.8044  3.1916
18788SOL     OW58742   1.396   3.132   3.804  0.6495 -0.2046 -1.1249
18788SOL    HW158743   1.307   3.102   3.824  0.9187 -0.7642 -0.7369
18788SOL    HW258744   1.437   3.057   3.761  1.1285 -0.1627 -0.7436
18789SOL     OW58745   4.181   1.060   1.852 -0.1886 -0.3928 -0.2712
18789SOL    HW158746   4.214   1.053   1.941  2.6258  0.6322 -1.1239
18789SOL    HW258747   4.156   1.152   1.843 -4.0348 -1.1805  0.4568
18790SOL     OW58748   6.890   9.381   0.236  0.4662  0.1739  0.0856
18790SOL    HW158749   6.827   9.425   0.292 -0.0053 -0.3448 -0.0239
18790SOL    HW258750   6.975   9.413   0.265  0.2572 -0.3272  1.3098
18791SOL     OW58751   8.361   5.196   4.612  0.3480  0.6099 -0.1524
18791SOL    HW158752   8.380   5.144   4.691 -2.1071 -1.3542 -0.7433
18791SOL    HW258753   8.350   5.131   4.543 -1.8021  1.9668 -1.1845
18792SOL     OW58754   6.438   3.448   6.374  0.0306  0.1845 -0.2570
18792SOL    HW158755   6.463   3.394   6.448  0.4519 -0.1979 -0.6661
18792SOL    HW258756   6.366   3.501   6.406 -2.6599 -2.8873 -0.7308
18793SOL     OW58757   8.492   6.536  10.597 -0.1712  0.3234 -0.4427
18793SOL    HW158758   8.543   6.484  10.534  1.6830 -2.1904  2.8181
18793SOL    HW258759   8.403   6.501  10.590  0.3743 -1.1198 -0.5516
18794SOL     OW58760   3.271  10.718   5.277 -0.0183 -0.6612  0.1479
18794SOL    HW158761   3.262  10.719   5.372 -0.3729 -1.7049  0.1346
18794SOL    HW258762   3.307  10.804   5.255 -0.9692 -0.0056  1.1169
18795SOL     OW58763   5.529   2.712   3.301  0.7671  0.4467  0.0142
18795SOL    HW158764   5.535   2.801   3.266 -0.2276  1.0129  1.2061
18795SOL    HW258765   5.466   2.668   3.244  0.9717  0.6259 -0.3500
18796SOL     OW58766   6.515   1.281   2.910 -0.5535  0.1575  0.0328
18796SOL    HW158767   6.475   1.220   2.972  0.2751 -0.5386 -0.1028
18796SOL    HW258768   6.454   1.354   2.906 -0.2778  0.5735  2.2402
18797SOL     OW58769   7.150   1.317   6.779 -0.1662 -0.2881  0.1244
18797SOL    HW158770   7.228   1.365   6.754 -0.1364 -0.2457  0.3008
18797SOL    HW258771   7.086   1.339   6.711 -0.3142  0.4035  0.4864
18798SOL     OW58772   1.868   3.958   0.706 -0.1373 -0.7627 -0.2003
18798SOL    HW158773   1.942   4.001   0.749  0.3813 -2.5016  0.7549
18798SOL    HW258774   1.791   3.989   0.753 -0.2475  2.1265 -2.0707
18799SOL     OW58775   4.334   2.975   2.447 -0.1127 -0.1013  0.1512
18799SOL    HW158776   4.308   2.885   2.426 -0.8261  0.5404 -1.9931
18799SOL    HW258777   4.397   2.999   2.378  0.3508  0.9282  0.9029
18800SOL     OW58778   2.242  10.560   0.515  0.3485 -0.4285 -0.8288
18800SOL    HW158779   2.259  10.523   0.428  1.0784 -1.4647 -0.2578
18800SOL    HW258780   2.203  10.488   0.564  0.2189  0.0646 -0.1977
18801SOL     OW58781   2.546  10.531   2.548  0.3730  0.6831  0.2271
18801SOL    HW158782   2.450  10.520   2.552  0.5450 -1.5317 -0.3852
18801SOL    HW258783   2.565  10.543   2.456  0.6731  1.6060  0.3996
18802SOL     OW58784   7.960   7.097   8.301 -0.3015  0.2242 -0.1576
18802SOL    HW158785   8.031   7.138   8.351 -1.4071  1.6084  0.3434
18802SOL    HW258786   7.968   7.004   8.321  1.0378  0.4126  0.3109
18803SOL     OW58787   5.554   5.838   7.393  0.2421  0.0926 -0.0339
18803SOL    HW158788   5.459   5.827   7.399  0.3328 -0.7117  0.0498
18803SOL    HW258789   5.580   5.864   7.482  0.0535  0.7710 -0.1698
18804SOL     OW58790   1.242   1.009   9.501  0.3213  0.2957 -0.7609
18804SOL    HW158791   1.299   1.037   9.573  0.2784  0.9284 -0.9679
18804SOL    HW258792   1.154   1.005   9.541  0.2551  0.8968 -0.8308
18805SOL     OW58793   5.881   8.557   4.708 -0.0928  0.8572  0.6369
18805SOL    HW158794   5.959   8.601   4.676 -0.5752  0.8650 -0.5774
18805SOL    HW258795   5.809   8.616   4.687 -0.5141  0.4987  1.0385
18806SOL     OW58796   6.258   6.770   2.547  0.5175  0.2040  0.0685
18806SOL    HW158797   6.249   6.800   2.638  2.6053 -2.0823  1.1372
18806SOL    HW258798   6.324   6.828   2.510  0.9899  0.0239  0.6043
18807SOL     OW58799   4.262   0.233   1.985  0.1315  0.0643 -0.3493
18807SOL    HW158800   4.328   0.248   1.918  1.9292 -0.5193  1.1970
18807SOL    HW258801   4.215   0.154   1.956 -1.0704  1.4067 -2.2823
18808SOL     OW58802   4.265   7.319   0.573 -0.0848 -0.2019  0.4526
18808SOL    HW158803   4.329   7.255   0.603 -0.7349 -1.4893 -0.8308
18808SOL    HW258804   4.207   7.270   0.515 -2.6026  0.7493  1.9887
18809SOL     OW58805   4.634   8.849   5.596 -0.0555 -0.4993  0.6576
18809SOL    HW158806   4.544   8.817   5.595  0.1106 -0.9824 -0.4070
18809SOL    HW258807   4.637   8.915   5.526  0.6319 -1.1531  0.0524
18810SOL     OW58808   8.971   9.438   2.960  0.2605  0.4459 -0.0668
18810SOL    HW158809   8.900   9.408   2.903 -0.2203  0.1831  0.6565
18810SOL    HW258810   8.931   9.443   3.047  1.6992 -2.0358  0.8376
18811SOL     OW58811   5.596   5.157   2.097  0.0445  0.1007  0.3490
18811SOL    HW158812   5.565   5.157   2.187  0.3359  2.3654  0.5010
18811SOL    HW258813   5.603   5.064   2.074 -1.4924 -0.5143  2.1260
18812SOL     OW58814   6.815   0.233   6.698  0.0766  0.6026 -0.2066
18812SOL    HW158815   6.861   0.301   6.649  1.0607  1.2318  1.5110
18812SOL    HW258816   6.878   0.204   6.764 -1.3921  0.2500  1.1094
18813SOL     OW58817   9.191   5.159   7.257  0.8097  0.0257  0.1795
18813SOL    HW158818   9.260   5.098   7.282 -0.6656 -3.6431 -3.5680
18813SOL    HW258819   9.131   5.160   7.332  1.5009 -2.2550  0.8330
18814SOL     OW58820   1.229   2.023   9.031 -0.3330  0.6190 -0.2521
18814SOL    HW158821   1.234   1.956   9.099  1.4308  0.2560 -0.6788
18814SOL    HW258822   1.157   1.996   8.975 -0.1154 -0.5319 -0.0003
18815SOL     OW58823   5.635   8.320   7.800 -0.1037 -0.7034  0.1061
18815SOL    HW158824   5.577   8.261   7.847 -1.2267 -1.0114 -1.5799
18815SOL    HW258825   5.598   8.326   7.712  0.6452  1.5935 -0.1350
18816SOL     OW58826   1.363   5.152   0.290  0.1548 -0.8278  0.3163
18816SOL    HW158827   1.328   5.069   0.256 -0.9600 -0.0285 -0.5369
18816SOL    HW258828   1.375   5.207   0.213 -1.4687  0.6722  1.0663
18817SOL     OW58829   2.789   8.748   0.081 -0.2367 -0.4837  0.2030
18817SOL    HW158830   2.740   8.688   0.025  0.1922  0.4462 -1.2400
18817SOL    HW258831   2.867   8.699   0.106  0.3424 -0.4163 -1.3418
18818SOL     OW58832   2.267   1.882   0.019 -0.3910 -0.4152 -0.3428
18818SOL    HW158833   2.276   1.791  -0.012 -0.2213 -1.0967  1.5350
18818SOL    HW258834   2.176   1.904   0.002 -0.8377 -1.4992  0.4761
18819SOL     OW58835   8.867   0.672   0.592 -0.3255  0.3336  0.3605
18819SOL    HW158836   8.772   0.659   0.598 -0.3209  0.3644  0.5003
18819SOL    HW258837   8.890   0.717   0.673 -0.1609  0.1550  0.4108
18820SOL     OW58838   5.559  10.519   8.021 -0.7299 -0.1295 -0.3849
18820SOL    HW158839   5.571  10.437   7.973 -1.4655 -1.4007  1.4980
18820SOL    HW258840   5.570  10.495   8.113  0.5898  2.2117  0.1400
18821SOL     OW58841   9.103   7.632   7.633  0.7903 -0.0630 -0.1230
18821SOL    HW158842   9.027   7.689   7.627  1.3294  0.5616 -1.9316
18821SOL    HW258843   9.088   7.578   7.710 -0.6815  1.1752  0.4944
18822SOL     OW58844   6.802   2.055   6.092 -0.1824  0.2138 -0.5495
18822SOL    HW158845   6.766   1.978   6.134 -1.3052 -0.3674 -2.4536
18822SOL    HW258846   6.773   2.128   6.147 -0.5793 -0.5725  0.3146
18823SOL     OW58847   4.109   8.878   7.896  0.4299  0.3835  0.3061
18823SOL    HW158848   4.092   8.784   7.893  0.9911  0.2295  1.6155
18823SOL    HW258849   4.141   8.899   7.808  0.4451 -0.6651  0.0466
18824SOL     OW58850   6.829   1.935   0.185  0.6448  0.1397  0.0532
18824SOL    HW158851   6.796   1.886   0.260  0.3936  0.7717  0.3613
18824SOL    HW258852   6.754   1.943   0.126  0.0356  2.1173  1.0348
18825SOL     OW58853   3.603   4.396   7.209  0.2782 -0.1482 -0.1132
18825SOL    HW158854   3.635   4.474   7.163 -0.2917 -0.0556 -0.3626
18825SOL    HW258855   3.562   4.343   7.141  2.0531 -1.4548 -0.2568
18826SOL     OW58856   2.143   7.124   5.187 -0.1811  0.3463 -0.0035
18826SOL    HW158857   2.133   7.182   5.263 -2.1376 -0.4809  0.4411
18826SOL    HW258858   2.134   7.182   5.111 -0.2898  0.8775  0.4044
18827SOL     OW58859   9.386   5.741   0.311 -0.2380 -0.3016  0.3681
18827SOL    HW158860   9.443   5.741   0.389  0.0664  1.6339  0.1922
18827SOL    HW258861   9.299   5.719   0.345  0.3157 -1.7984  0.8735
18828SOL     OW58862   1.812  10.040   4.901 -0.7466 -0.0152 -0.3578
18828SOL    HW158863   1.742  10.000   4.952 -1.9372  1.1871 -0.9684
18828SOL    HW258864   1.863   9.967   4.867  0.3835 -0.8533  2.8731
18829SOL     OW58865   1.638   6.855   8.816  0.3176 -0.2941 -0.0724
18829SOL    HW158866   1.558   6.902   8.794  0.1867 -0.4366  0.1005
18829SOL    HW258867   1.690   6.859   8.736  0.4030  0.3359  0.0114
18830SOL     OW58868  10.732   7.540   1.195 -0.1051 -0.4837  0.2518
18830SOL    HW158869  10.671   7.527   1.268  0.9507 -0.3937  1.1788
18830SOL    HW258870  10.816   7.555   1.237  0.0570  2.5314 -0.8701
18831SOL     OW58871   3.511   0.579   9.216  0.0821 -0.1122 -0.6729
18831SOL    HW158872   3.554   0.619   9.291  0.0572 -0.6255 -0.3807
18831SOL    HW258873   3.513   0.485   9.234 -2.0340 -0.0966 -0.1776
18832SOL     OW58874   9.923   6.894   4.587 -0.6738 -0.4743  0.4548
18832SOL    HW158875  10.005   6.901   4.635 -0.8895  1.0779  0.6345
18832SOL    HW258876   9.856   6.886   4.656 -0.8482  0.2547  0.3731
18833SOL     OW58877   5.419   2.224   1.602  0.3449  0.0465 -0.0912
18833SOL    HW158878   5.359   2.151   1.617  2.0070 -0.9608  2.2916
18833SOL    HW258879   5.364   2.302   1.605 -1.1911 -0.9636 -0.7161
18834SOL     OW58880   0.778   2.551   9.103 -0.1802  0.4834  0.7806
18834SOL    HW158881   0.739   2.466   9.080  0.3311  0.5294 -0.3153
18834SOL    HW258882   0.710   2.595   9.154 -0.6429 -0.3825  0.9388
18835SOL     OW58883   1.725   3.631   7.790  0.0180 -0.1379 -0.2524
18835SOL    HW158884   1.781   3.704   7.816 -1.7608  1.2099  0.0277
18835SOL    HW258885   1.766   3.597   7.710  0.7396  1.3907 -0.5876
18836SOL     OW58886   2.254   3.739   7.979 -0.1494 -0.3176  0.0295
18836SOL    HW158887   2.325   3.679   8.001  0.0086 -0.2510 -0.3021
18836SOL    HW258888   2.242   3.792   8.058 -0.8905 -1.3722  0.6481
18837SOL     OW58889   4.302   9.314   6.451 -0.2869  0.2704  0.6372
18837SOL    HW158890   4.269   9.371   6.382 -0.7511  1.3664  1.7241
18837SOL    HW258891   4.224   9.281   6.496  0.0118 -0.2199  0.8120
18838SOL     OW58892  10.433   9.407  10.239  0.0951 -0.3431  0.2587
18838SOL    HW158893  10.520   9.447  10.242 -0.1113  0.1235  0.1161
18838SOL    HW258894  10.429   9.352  10.317  0.0943  0.5284  0.8820
18839SOL     OW58895   3.513   9.350   3.210 -0.6238  0.1346 -0.4616
18839SOL    HW158896   3.529   9.411   3.138 -2.0121 -0.0644 -0.9674
18839SOL    HW258897   3.510   9.264   3.169 -0.4527 -0.0864 -0.0140
18840SOL     OW58898   3.311   2.308   2.342 -0.3601 -0.0229 -0.0833
18840SOL    HW158899   3.390   2.272   2.383 -1.4812 -1.3685  1.0510
18840SOL    HW258900   3.322   2.291   2.249  0.9550  0.3940 -0.0254
18841SOL     OW58901   3.823   7.087   3.782  0.2263 -0.0630  0.2650
18841SOL    HW158902   3.847   7.158   3.841  1.1768 -0.0018 -0.1937
18841SOL    HW258903   3.764   7.032   3.834  0.3869  0.4420  0.9885
18842SOL     OW58904  10.391   0.518   7.801  0.8478 -0.8232  0.1931
18842SOL    HW158905  10.454   0.487   7.866  2.1709  2.5317  0.6982
18842SOL    HW258906  10.444   0.545   7.727 -0.2004 -0.0622 -0.3130
18843SOL     OW58907   0.341   9.257  10.568 -0.2154 -0.2109  0.1879
18843SOL    HW158908   0.405   9.238  10.499  0.3597  1.0891  0.3425
18843SOL    HW258909   0.369   9.203  10.642  0.4766  0.0405  0.1190
18844SOL     OW58910  10.605   2.178   5.545 -0.0096  1.1169 -0.0310
18844SOL    HW158911  10.591   2.134   5.461  0.2125  0.1562  0.4324
18844SOL    HW258912  10.584   2.270   5.526  2.1418  1.3472 -1.6934
18845SOL     OW58913   1.490   2.797  10.448  0.0292  0.1383 -0.1676
18845SOL    HW158914   1.442   2.759  10.522  0.6445 -0.0142  0.1581
18845SOL    HW258915   1.422   2.813  10.382 -0.3438 -0.9853 -0.0905
18846SOL     OW58916   7.264   9.458   2.513 -0.1215 -0.1860 -0.2053
18846SOL    HW158917   7.237   9.377   2.471 -1.0015 -0.0602  0.1013
18846SOL    HW258918   7.276   9.520   2.441  1.7944 -0.8894 -0.5747
18847SOL     OW58919   6.752  10.632   7.509  0.3376 -0.3866 -0.1951
18847SOL    HW158920   6.721  10.583   7.586  0.4074  0.9381  0.7006
18847SOL    HW258921   6.828  10.681   7.540  1.1127 -0.7560 -1.4392
18848SOL     OW58922   4.157   6.842   4.823 -0.4588  0.3511 -0.3319
18848SOL    HW158923   4.183   6.750   4.829 -1.0619  0.2093  0.2460
18848SOL    HW258924   4.217   6.888   4.882 -2.0443 -0.1054  1.7311
18849SOL     OW58925   5.908   2.707   5.874 -0.0530  0.3482 -0.1291
18849SOL    HW158926   5.974   2.659   5.925 -0.6354  0.6951  0.9782
18849SOL    HW258927   5.955   2.737   5.796  0.4108 -1.7714 -0.7500
18850SOL     OW58928   5.324   8.142   0.138 -0.2077  0.1594  0.0644
18850SOL    HW158929   5.412   8.158   0.170 -0.6814  0.9403  1.0440
18850SOL    HW258930   5.270   8.136   0.217 -1.2734  1.2912 -0.5390
18851SOL     OW58931   2.603  10.245   1.020  0.3666  0.3677  0.3484
18851SOL    HW158932   2.579  10.313   1.083 -0.1482 -0.2543  0.8421
18851SOL    HW258933   2.673  10.196   1.064 -1.7731 -1.7196  1.6295
18852SOL     OW58934  10.284   3.410  10.335  0.4215  0.3301  0.1897
18852SOL    HW158935  10.207   3.396  10.390  0.8417 -1.2035  0.4177
18852SOL    HW258936  10.345   3.341  10.360  1.9083  1.5238  0.0275
18853SOL     OW58937   3.229   4.523   9.667  0.3226  0.8276  0.3597
18853SOL    HW158938   3.221   4.612   9.634 -0.3902  0.0060 -1.8571
18853SOL    HW258939   3.175   4.523   9.747  0.2487  2.3242  0.3475
18854SOL     OW58940   4.797   5.572   4.448  0.1999  0.3569 -0.4151
18854SOL    HW158941   4.769   5.515   4.377 -1.5810  1.0984 -0.3619
18854SOL    HW258942   4.796   5.660   4.410 -1.6567  0.8795  0.6996
18855SOL     OW58943   0.161   6.233   1.866  0.0778  0.2890  0.0548
18855SOL    HW158944   0.089   6.248   1.805 -0.1653  0.6766  0.4263
18855SOL    HW258945   0.215   6.166   1.824 -1.3094 -1.1404  0.4411
18856SOL     OW58946   5.957  10.720   1.235  0.3585  0.0227  0.4957
18856SOL    HW158947   5.928  10.650   1.176  1.7135  0.1579 -0.3837
18856SOL    HW258948   6.015  10.774   1.181  2.3751 -0.3539  2.1621
18857SOL     OW58949   1.469   5.560   0.480  0.0271  0.1585 -0.7199
18857SOL    HW158950   1.533   5.605   0.424  0.0961  0.5806 -0.3105
18857SOL    HW258951   1.387   5.607   0.466  0.2680  0.9084  0.2773
18858SOL     OW58952   4.136   5.597   5.993 -0.2903  0.0025  0.0977
18858SOL    HW158953   4.058   5.543   6.006 -0.3262 -0.0654 -0.3810
18858SOL    HW258954   4.159   5.628   6.081 -0.1770 -0.9123  0.3993
18859SOL     OW58955  10.434   1.209   5.713 -0.0539 -0.5032 -0.0250
18859SOL    HW158956  10.523   1.228   5.685  0.2251 -0.5933  0.7698
18859SOL    HW258957  10.378   1.258   5.652  0.5444 -0.1864 -0.3261
18860SOL     OW58958   1.081   0.429   3.218  0.2484 -0.0651 -0.1422
18860SOL    HW158959   1.151   0.423   3.284  1.0195 -0.0155 -0.9397
18860SOL    HW258960   1.004   0.458   3.267  0.5349 -1.0456  0.9265
18861SOL     OW58961   4.580   5.287   2.472  0.2728  0.9203 -0.0253
18861SOL    HW158962   4.664   5.298   2.517  0.5565  1.6449 -0.6992
18861SOL    HW258963   4.587   5.202   2.428 -0.5376 -0.4669  2.3368
18862SOL     OW58964   5.373   9.149   8.878 -0.0040  0.2448  0.2146
18862SOL    HW158965   5.408   9.063   8.900  0.1672  0.4708  0.8590
18862SOL    HW258966   5.380   9.199   8.960 -1.2256  0.4982  0.1868
18863SOL     OW58967   1.310   3.306   4.650  0.2437  0.0568  0.2486
18863SOL    HW158968   1.396   3.344   4.634  0.6484 -1.3086 -1.0508
18863SOL    HW258969   1.326   3.233   4.710  0.1736 -0.7766 -0.7074
18864SOL     OW58970   7.197   0.066   1.198  0.5416 -0.1920 -0.0130
18864SOL    HW158971   7.280   0.083   1.242  1.5188  0.5781 -2.0588
18864SOL    HW258972   7.221   0.017   1.119 -1.0324 -0.5989 -0.2773
18865SOL     OW58973   6.168   0.657   7.126 -0.0377 -0.3548  0.2259
18865SOL    HW158974   6.236   0.590   7.135  0.6634  0.0998 -1.3760
18865SOL    HW258975   6.161   0.672   7.032 -2.6352 -0.6403  0.3088
18866SOL     OW58976   1.813   2.617   6.256  0.1809 -0.1338 -0.4296
18866SOL    HW158977   1.865   2.543   6.288  1.0169 -0.0916 -1.6527
18866SOL    HW258978   1.773   2.585   6.175 -1.8662 -0.2172  0.5388
18867SOL     OW58979   6.402   3.407   3.559  0.2841 -0.2491  0.3049
18867SOL    HW158980   6.357   3.349   3.620  1.3589 -0.4162  0.9746
18867SOL    HW258981   6.443   3.349   3.495 -0.9288 -0.0679 -0.6591
18868SOL     OW58982   6.273   3.747   4.818  0.0455  0.3978 -0.7055
18868SOL    HW158983   6.201   3.794   4.777 -0.7762  0.3659  0.6494
18868SOL    HW258984   6.351   3.798   4.795 -0.5716  1.2142 -1.0293
18869SOL     OW58985   4.441   6.445   2.509  0.1680 -0.1444 -0.2412
18869SOL    HW158986   4.486   6.387   2.448  3.0907  0.1548  1.4779
18869SOL    HW258987   4.467   6.414   2.596 -0.7743  1.7881  0.7940
18870SOL     OW58988   8.299   8.326   6.989  0.1643 -0.1977 -0.1681
18870SOL    HW158989   8.242   8.336   7.065  0.5373 -0.8685  0.2113
18870SOL    HW258990   8.283   8.404   6.936  1.6463  1.5168  1.7428
18871SOL     OW58991   3.592   7.177   7.750  0.1729 -0.4647  0.9297
18871SOL    HW158992   3.549   7.092   7.737  1.5225 -0.9879 -0.4877
18871SOL    HW258993   3.664   7.158   7.810  0.9598 -0.5324 -0.0026
18872SOL     OW58994   0.034   0.515   4.784  0.5739 -0.1187  0.3473
18872SOL    HW158995   0.004   0.606   4.790  1.3846  0.1298  0.9753
18872SOL    HW258996  -0.042   0.463   4.810 -0.2922  0.2869 -1.2289
18873SOL     OW58997   2.078  10.174   4.401  0.4206 -0.4568  0.2585
18873SOL    HW158998   2.149  10.182   4.465  0.8690 -0.8401 -0.1861
18873SOL    HW258999   2.050  10.264   4.386 -0.5320 -0.4288  1.9064
18874SOL     OW59000   0.485   2.287   3.877  0.1035  0.4273 -0.0847
18874SOL    HW159001   0.400   2.330   3.873  0.9903  2.2821 -0.1325
18874SOL    HW259002   0.497   2.250   3.790  0.2590  2.1072 -0.8251
18875SOL     OW59003  10.188   0.065   6.007  0.0665 -0.0122 -0.0112
18875SOL    HW159004  10.206   0.002   5.937 -1.5465  0.7905 -1.2047
18875SOL    HW259005  10.205   0.150   5.968  0.8479  0.3915  1.1527
18876SOL     OW59006   2.216   3.927   6.814 -0.1792 -0.0077 -0.2528
18876SOL    HW159007   2.208   3.930   6.718 -1.2077  1.2432 -0.1431
18876SOL    HW259008   2.197   4.016   6.843 -0.2426 -0.4529  1.1500
18877SOL     OW59009   6.683  10.114   7.122  0.2254 -0.0556 -0.4661
18877SOL    HW159010   6.722  10.033   7.156 -1.5165 -1.5171 -1.7668
18877SOL    HW259011   6.718  10.182   7.179 -0.0936 -1.9672  2.2293
18878SOL     OW59012   3.456   7.780  10.723  0.3885  0.6327  0.0266
18878SOL    HW159013   3.482   7.852  10.780  2.2273  1.0821 -1.3001
18878SOL    HW259014   3.533   7.724  10.717 -0.0744  0.0815 -1.2326
18879SOL     OW59015   8.374   6.234   0.633  0.1764 -0.5522  0.2873
18879SOL    HW159016   8.428   6.313   0.629  0.9278 -1.0643  0.1055
18879SOL    HW259017   8.309   6.253   0.701 -1.1109  1.0960 -1.3073
18880SOL     OW59018   7.109  10.376   2.744  0.2294  0.1133  0.8961
18880SOL    HW159019   7.083  10.286   2.725  0.3254  0.0587  1.0298
18880SOL    HW259020   7.072  10.394   2.830  0.1154  0.2395  0.8218
18881SOL     OW59021   3.674   7.956   9.865 -0.0366  0.2622  0.0733
18881SOL    HW159022   3.684   8.033   9.921  2.5179  0.6782 -0.8282
18881SOL    HW259023   3.762   7.918   9.860 -0.4956 -0.6897 -2.3179
18882SOL     OW59024  10.567   9.997   8.897 -0.0137  0.0370 -0.2756
18882SOL    HW159025  10.614   9.958   8.970 -0.7370 -0.0500  0.1548
18882SOL    HW259026  10.512   9.926   8.863  1.3417 -0.3383 -1.8195
18883SOL     OW59027   0.757  10.369   2.180 -0.0541  0.3614  0.5295
18883SOL    HW159028   0.782  10.297   2.123 -0.0646  1.1091 -0.4410
18883SOL    HW259029   0.663  10.357   2.194 -0.1446  0.4291  0.0056
18884SOL     OW59030   0.288   0.693   0.029  0.1087 -0.2704  0.0826
18884SOL    HW159031   0.239   0.615   0.003  1.0415 -0.1673 -2.2561
18884SOL    HW259032   0.221   0.761   0.037 -0.7166 -1.2422  2.2027
18885SOL     OW59033   9.254   8.184   8.759  0.2712  0.5846 -0.1381
18885SOL    HW159034   9.224   8.273   8.746  0.8238  0.8170  0.1380
18885SOL    HW259035   9.189   8.145   8.819  0.3337  0.9688  0.1792
18886SOL     OW59036   5.317   2.422   1.931  0.1240  0.2287  0.1470
18886SOL    HW159037   5.225   2.446   1.939  0.4086  0.9592  1.6089
18886SOL    HW259038   5.364   2.505   1.937  0.9870 -0.3389  2.4335
18887SOL     OW59039  10.541   2.927   7.673 -0.2779  0.5195  0.1400
18887SOL    HW159040  10.557   3.021   7.674  0.7931  0.3803 -1.2926
18887SOL    HW259041  10.590   2.895   7.598 -0.8417 -1.1566  0.4461
18888SOL     OW59042   0.660   0.263   0.221 -0.0802 -0.1041 -0.3614
18888SOL    HW159043   0.660   0.187   0.163 -1.0834 -0.3293 -0.1001
18888SOL    HW259044   0.586   0.247   0.280  2.1756 -1.0101  2.4531
18889SOL     OW59045   4.849   7.383   5.913  0.1067 -0.1690 -0.0580
18889SOL    HW159046   4.884   7.462   5.872 -4.1713  1.6422 -0.7484
18889SOL    HW259047   4.834   7.324   5.840 -1.5199  0.5057 -0.2987
18890SOL     OW59048   5.683   7.271   8.382 -0.2550  0.7498  0.1985
18890SOL    HW159049   5.708   7.193   8.431 -2.1444 -0.7955 -1.1230
18890SOL    HW259050   5.683   7.243   8.290 -0.6861  2.3929 -0.3401
18891SOL     OW59051   1.343  10.532   5.213  0.1023 -0.1693  0.2352
18891SOL    HW159052   1.265  10.555   5.263 -0.0609 -0.8816  0.3266
18891SOL    HW259053   1.353  10.603   5.150 -1.1608 -0.5180 -0.3982
18892SOL     OW59054   9.857   4.554   9.748  0.2643 -0.1749 -0.3246
18892SOL    HW159055   9.779   4.609   9.751 -0.2881 -0.9546 -0.1694
18892SOL    HW259056   9.827   4.472   9.708  0.9106 -0.6289  0.1077
18893SOL     OW59057  10.068   8.004   9.991  0.1847 -0.3814 -0.0389
18893SOL    HW159058  10.002   8.027  10.055 -1.1805 -0.8644 -1.2288
18893SOL    HW259059  10.070   8.078   9.930  0.0489 -0.7799 -0.5344
18894SOL     OW59060   7.285   5.481   3.846  0.1202  0.4261  0.4329
18894SOL    HW159061   7.195   5.458   3.868 -0.3989  0.3386 -1.6378
18894SOL    HW259062   7.317   5.406   3.796  0.5426  1.4567 -0.8838
18895SOL     OW59063   4.557   1.829   0.640  0.0077 -0.2901 -0.2054
18895SOL    HW159064   4.641   1.870   0.620 -0.2570 -0.1943 -1.2242
18895SOL    HW259065   4.568   1.737   0.614  0.1944 -0.5787  0.8637
18896SOL     OW59066   7.827   0.796   5.761  0.7879  0.7488  0.3897
18896SOL    HW159067   7.784   0.732   5.817  0.7536  1.5243  1.2622
18896SOL    HW259068   7.918   0.765   5.754  0.5640  0.1389  0.0805
18897SOL     OW59069   5.908   7.355   0.699 -0.6988  0.4731  0.8307
18897SOL    HW159070   5.965   7.307   0.639  0.8515  1.3445  1.5419
18897SOL    HW259071   5.864   7.287   0.749  0.4904 -0.2456  0.9513
18898SOL     OW59072   0.569   1.720  10.163  0.7711  0.3641  0.4036
18898SOL    HW159073   0.571   1.701  10.257  1.2306  1.3642  0.6096
18898SOL    HW259074   0.477   1.711  10.138  0.4984  1.0143  1.1485
18899SOL     OW59075   9.631   1.612   9.336  0.4646 -0.3065 -0.0375
18899SOL    HW159076   9.563   1.649   9.280  0.7622  0.5729  0.1774
18899SOL    HW259077   9.615   1.517   9.333  0.8448 -0.3499 -2.1127
18900SOL     OW59078   1.652   1.056   0.180 -0.1047  0.1550  0.5604
18900SOL    HW159079   1.601   0.982   0.146 -1.1374  0.7827  0.7222
18900SOL    HW259080   1.688   1.024   0.263  0.8497 -0.7276 -0.1610
18901SOL     OW59081   6.533   3.326   9.661  0.0479  0.3100  0.1044
18901SOL    HW159082   6.502   3.294   9.576 -1.7171 -0.7250  1.0749
18901SOL    HW259083   6.499   3.415   9.667  0.1428  0.3733 -0.2459
18902SOL     OW59084   8.355   8.522   2.002 -0.2706  0.2250  0.6431
18902SOL    HW159085   8.328   8.610   1.975 -1.1568 -0.2209  0.0561
18902SOL    HW259086   8.363   8.528   2.097 -1.0763  0.7389  0.6812
18903SOL     OW59087   7.071   2.966   5.920 -0.0203  0.6963 -0.5587
18903SOL    HW159088   7.124   2.891   5.947  0.6390  1.6019  0.7513
18903SOL    HW259089   7.115   3.042   5.958 -2.4456  1.4652  0.9447
18904SOL     OW59090  10.207   4.542   4.113  0.0106  0.0897  0.1792
18904SOL    HW159091  10.170   4.548   4.201 -0.1227 -0.3849  0.1574
18904SOL    HW259092  10.288   4.592   4.118 -0.6445  1.1919  0.2151
18905SOL     OW59093   7.569  10.343   0.784  0.0312  0.4963 -0.0956
18905SOL    HW159094   7.524  10.289   0.719  1.3072  0.3389 -0.8808
18905SOL    HW259095   7.512  10.340   0.861 -0.9171 -0.2951 -0.8017
18906SOL     OW59096   7.496   4.433   9.349 -0.0485  0.1750 -0.3791
18906SOL    HW159097   7.580   4.439   9.393 -0.2083 -0.5564  0.0456
18906SOL    HW259098   7.493   4.510   9.292  0.3768  0.8556  0.5005
18907SOL     OW59099  10.649   8.696   8.358 -0.1571 -0.4018 -0.3129
18907SOL    HW159100  10.672   8.755   8.430  0.5231 -0.8590 -0.1554
18907SOL    HW259101  10.561   8.665   8.380  0.4645 -1.3881  0.8911
18908SOL     OW59102   0.446   7.239   9.620 -0.0463  0.1473  0.2252
18908SOL    HW159103   0.458   7.298   9.694 -1.1187  0.9018 -0.1704
18908SOL    HW259104   0.352   7.243   9.602  0.2976  0.6562 -1.7040
18909SOL     OW59105   9.719   3.321   9.054  0.0077 -0.0586 -0.1383
18909SOL    HW159106   9.797   3.327   9.109 -1.7965  0.9229  2.5457
18909SOL    HW259107   9.704   3.410   9.024 -0.4296 -0.0922 -0.0377
18910SOL     OW59108   1.318   8.463  10.304 -0.4390  0.0082  0.5680
18910SOL    HW159109   1.318   8.413  10.223  1.0666  1.6134 -0.4886
18910SOL    HW259110   1.322   8.397  10.373  0.7614 -1.3471 -0.7471
18911SOL     OW59111   3.103   7.415   3.662 -0.1699 -0.1384  0.0301
18911SOL    HW159112   3.107   7.391   3.755  1.7525  0.6408  0.1909
18911SOL    HW259113   3.028   7.366   3.628 -0.9692 -0.3875  1.9979
18912SOL     OW59114   0.535   1.828   7.908 -0.1009 -0.6003  0.4011
18912SOL    HW159115   0.449   1.787   7.924 -0.8814  0.4385 -0.9580
18912SOL    HW259116   0.520   1.888   7.836  1.7519 -0.2298  0.2784
18913SOL     OW59117   3.832   8.402   3.594  0.0557 -0.2446  0.3359
18913SOL    HW159118   3.827   8.492   3.563 -0.4560 -0.3169  0.2073
18913SOL    HW259119   3.878   8.407   3.677 -2.1406  0.4393  1.5741
18914SOL     OW59120   7.884   8.652   7.748 -0.4839  0.0404 -0.7013
18914SOL    HW159121   7.943   8.710   7.796 -0.7548  1.0325 -1.5352
18914SOL    HW259122   7.837   8.604   7.817  1.6615 -1.2449  0.0123
18915SOL     OW59123   5.081   2.977   8.309  0.4109  0.2997 -0.5081
18915SOL    HW159124   5.036   3.018   8.383  0.7019  1.4337 -0.9387
18915SOL    HW259125   5.084   2.884   8.331  2.5537  0.8522  2.0294
18916SOL     OW59126   3.205   2.566   7.544 -0.6635  0.0031  0.0826
18916SOL    HW159127   3.200   2.660   7.524 -1.2716 -0.2369 -0.9723
18916SOL    HW259128   3.260   2.530   7.473  0.5814 -0.2736  1.1427
18917SOL     OW59129   3.554   6.279   2.655 -0.0695  0.0447 -0.9053
18917SOL    HW159130   3.570   6.341   2.727  0.8098 -1.7512  0.5422
18917SOL    HW259131   3.637   6.231   2.647 -1.5983 -3.0764  0.2270
18918SOL     OW59132   8.887   2.567   2.321 -0.3538  0.5377 -0.4833
18918SOL    HW159133   8.930   2.494   2.366 -3.0023 -0.1858  1.1281
18918SOL    HW259134   8.930   2.645   2.356  0.4484 -0.1638  0.1409
18919SOL     OW59135   7.749  10.120   6.649 -0.0521 -0.2029  0.3582
18919SOL    HW159136   7.773  10.065   6.575  0.0162 -0.2977  0.4508
18919SOL    HW259137   7.805  10.198   6.641 -0.4851  0.0770 -0.0446
18920SOL     OW59138   8.648   3.166   8.910 -0.4122 -0.1721 -0.3274
18920SOL    HW159139   8.669   3.205   8.995 -2.3441  1.5262 -0.5483
18920SOL    HW259140   8.629   3.075   8.930  0.6911 -0.1838  0.8031
18921SOL     OW59141   1.097   6.587   4.648  0.2544  0.3187 -0.0417
18921SOL    HW159142   1.009   6.561   4.673 -0.1104  0.6177 -0.9898
18921SOL    HW259143   1.107   6.675   4.684  1.4431 -0.9536  3.0546
18922SOL     OW59144   1.944   7.997   8.836 -0.2326  0.1086 -0.4250
18922SOL    HW159145   2.007   7.949   8.782  0.1260 -1.4497  1.2654
18922SOL    HW259146   1.990   8.078   8.860  1.0624 -0.8394  0.4838
18923SOL     OW59147   8.893   5.864   4.884 -0.9691 -0.3583  0.2422
18923SOL    HW159148   8.911   5.949   4.923 -1.4235  0.5221 -1.3960
18923SOL    HW259149   8.878   5.806   4.959  0.3436  0.7427  1.4232
18924SOL     OW59150   1.988   7.626   4.720 -0.4320 -0.3558  0.6470
18924SOL    HW159151   1.952   7.581   4.644 -0.7008 -0.2406  0.7078
18924SOL    HW259152   2.079   7.595   4.724 -0.0436  0.5644 -0.4387
18925SOL     OW59153   5.961   4.113   0.961 -0.0474 -0.0082 -0.2161
18925SOL    HW159154   5.887   4.166   0.933 -1.4983 -0.6727  2.0720
18925SOL    HW259155   5.937   4.023   0.938 -0.9977 -0.4916  2.3159
18926SOL     OW59156   5.979   1.634   1.072  0.1903 -0.0599 -0.2690
18926SOL    HW159157   6.017   1.564   1.017 -0.4177  0.1154 -0.9226
18926SOL    HW259158   5.959   1.704   1.010 -1.6810 -0.3419 -0.0450
18927SOL     OW59159   3.419   3.403   0.471 -0.3798  0.4139  0.3672
18927SOL    HW159160   3.445   3.444   0.553  1.3053  1.4317 -0.6078
18927SOL    HW259161   3.429   3.309   0.487 -1.4638  0.5076  1.7337
18928SOL     OW59162   6.985   3.198   1.898 -0.2876  0.1042 -0.1072
18928SOL    HW159163   6.900   3.231   1.871 -0.1761 -1.1938 -2.2420
18928SOL    HW259164   7.034   3.276   1.924 -2.1651  0.8451  1.4706
18929SOL     OW59165   4.375   4.515   5.602  0.0383 -0.4828  0.1141
18929SOL    HW159166   4.370   4.420   5.592 -2.3470 -0.6892  2.1219
18929SOL    HW259167   4.421   4.528   5.685 -1.8047 -0.0637  1.1244
18930SOL     OW59168  10.635   1.595   3.676 -0.4478  0.2429 -0.4991
18930SOL    HW159169  10.626   1.640   3.760 -0.9490 -0.3981 -0.2036
18930SOL    HW259170  10.725   1.562   3.675 -0.2494  0.7808 -0.4857
18931SOL     OW59171   3.327   3.387   3.462  0.0847  0.3613  0.2141
18931SOL    HW159172   3.422   3.390   3.475  0.0886 -0.3238  0.4025
18931SOL    HW259173   3.315   3.398   3.368  0.5115 -1.8131 -0.1568
18932SOL     OW59174   4.984   1.664   0.507  0.2518 -0.5106  0.0974
18932SOL    HW159175   4.961   1.661   0.599 -1.3845 -1.5868 -0.3122
18932SOL    HW259176   5.078   1.686   0.506  0.2838 -0.4657  1.9857
18933SOL     OW59177   2.062   1.806   0.226 -0.3504  0.3560 -0.0209
18933SOL    HW159178   2.036   1.818   0.317  1.1572  0.9188  0.3707
18933SOL    HW259179   2.137   1.747   0.230 -2.5012 -2.6814 -1.2470
18934SOL     OW59180   4.944   1.129   2.249  0.2599 -0.1811 -0.0257
18934SOL    HW159181   4.958   1.052   2.304  0.1339  0.4009  0.8431
18934SOL    HW259182   4.991   1.199   2.293 -1.5593  0.7828  0.4951
18935SOL     OW59183   6.221   6.522   0.699 -0.0408 -0.5728  0.6496
18935SOL    HW159184   6.149   6.555   0.753 -1.4026 -1.5899 -0.4361
18935SOL    HW259185   6.270   6.464   0.757 -1.2097 -1.3059  0.9387
18936SOL     OW59186   1.590   9.922   9.237  0.2457  0.3183  0.1631
18936SOL    HW159187   1.676   9.955   9.211  0.4088 -0.3861 -0.2044
18936SOL    HW259188   1.528   9.977   9.189  0.5282 -0.5080 -1.1848
18937SOL     OW59189   6.091   2.704   3.943  0.2253 -0.0676 -0.0218
18937SOL    HW159190   6.002   2.692   3.910 -0.2081  1.5916  0.4933
18937SOL    HW259191   6.135   2.621   3.921 -0.6744  0.0399 -2.6439
18938SOL     OW59192   5.084   8.931   2.471 -0.3685 -0.1680  0.0917
18938SOL    HW159193   5.020   8.980   2.421 -0.9221 -0.4938  0.4621
18938SOL    HW259194   5.127   8.996   2.527  0.7576  0.3204 -1.2821
18939SOL     OW59195   0.145   0.558   7.348 -0.6793  0.3676  0.3704
18939SOL    HW159196   0.151   0.575   7.254 -1.5329  0.6473  0.3650
18939SOL    HW259197   0.193   0.630   7.389 -0.9288  0.6441  0.1787
18940SOL     OW59198   2.876   6.032   8.109  0.5119  0.0507 -0.2287
18940SOL    HW159199   2.783   6.057   8.109  0.7519  0.9968  0.4187
18940SOL    HW259200   2.913   6.078   8.184  0.9673 -2.4250  1.1881
18941SOL     OW59201   4.704  10.026   8.204 -0.1398 -0.3346 -0.1075
18941SOL    HW159202   4.675   9.935   8.208  0.6330 -0.5847  0.0210
18941SOL    HW259203   4.785  10.023   8.152  1.4447 -0.1596  2.2046
18942SOL     OW59204   6.232   8.202   2.386 -0.0825 -0.1810 -0.3165
18942SOL    HW159205   6.294   8.274   2.402 -0.4600  0.1015 -0.0986
18942SOL    HW259206   6.197   8.220   2.298 -1.2505  0.7308  0.3020
18943SOL     OW59207   8.848   2.447   7.274  0.1199  0.6167  0.2390
18943SOL    HW159208   8.882   2.451   7.185  0.2157 -1.0067  0.1694
18943SOL    HW259209   8.753   2.440   7.264  0.1895 -0.5651  0.1888
18944SOL     OW59210   2.295   1.794   1.704 -0.3065 -0.0791  0.1420
18944SOL    HW159211   2.343   1.729   1.755 -0.1984 -0.3370 -0.2828
18944SOL    HW259212   2.205   1.786   1.734  0.0559  1.1242  1.6928
18945SOL     OW59213   7.732   3.984   1.611 -0.1415 -0.1859  1.0352
18945SOL    HW159214   7.771   4.064   1.645 -0.2457 -0.9558  3.1116
18945SOL    HW259215   7.650   4.012   1.571  1.1304  1.0719 -0.8063
18946SOL     OW59216   1.198   1.928   9.877 -0.5026 -0.5766 -0.1667
18946SOL    HW159217   1.129   1.874   9.840 -1.5994  1.6799 -1.6322
18946SOL    HW259218   1.251   1.955   9.802 -1.4953  2.3351  0.0230
18947SOL     OW59219   8.467   1.546   3.608 -0.7325 -0.0978  0.5605
18947SOL    HW159220   8.383   1.501   3.614 -0.6118 -0.3852  0.1482
18947SOL    HW259221   8.445   1.639   3.617 -1.0154 -0.2103  1.1139
18948SOL     OW59222   8.709   8.759   1.431 -0.3759  0.5463  0.0682
18948SOL    HW159223   8.707   8.697   1.359 -1.5676  1.2106 -0.4923
18948SOL    HW259224   8.723   8.705   1.509  0.5559 -0.2095 -0.6084
18949SOL     OW59225   9.131   2.288   5.629 -0.5856 -0.6093 -0.6652
18949SOL    HW159226   9.099   2.368   5.669 -1.1377 -0.4211 -1.4440
18949SOL    HW259227   9.094   2.217   5.682 -1.0959 -0.3657 -0.6947
18950SOL     OW59228   6.316   4.660   9.731 -0.3067  0.4386  0.2411
18950SOL    HW159229   6.267   4.693   9.806 -0.1752  1.8763 -0.2755
18950SOL    HW259230   6.356   4.579   9.763 -0.0472  1.1403  1.8209
18951SOL     OW59231   1.595   5.212   1.322  0.3415 -0.2633 -0.7438
18951SOL    HW159232   1.605   5.122   1.292 -2.5093 -0.6178 -0.9034
18951SOL    HW259233   1.594   5.204   1.418  1.3621 -0.2101 -0.7211
18952SOL     OW59234   5.865   1.462   4.077 -0.1221 -0.4688  0.0921
18952SOL    HW159235   5.798   1.394   4.082 -0.7603  0.2138  1.1206
18952SOL    HW259236   5.820   1.537   4.038  0.2474 -0.2354  0.1179
18953SOL     OW59237   7.087   2.809   4.078 -0.4414 -0.5375 -0.3874
18953SOL    HW159238   7.152   2.749   4.043 -0.0358 -0.5117  0.3041
18953SOL    HW259239   7.016   2.753   4.108  1.0109 -0.9622  2.6246
18954SOL     OW59240   5.210   7.357   4.466  0.4434  0.2611 -0.2584
18954SOL    HW159241   5.213   7.367   4.561  2.8910  1.5782 -0.3933
18954SOL    HW259242   5.224   7.446   4.432 -0.2519 -0.1987 -1.8705
18955SOL     OW59243   5.519   0.625   7.361  0.1510  0.4683  0.7141
18955SOL    HW159244   5.557   0.662   7.281  0.0291  1.4769  1.1022
18955SOL    HW259245   5.503   0.533   7.340 -0.6340  0.8917 -0.6998
18956SOL     OW59246   1.241   1.261   3.984 -0.1831  0.0634  0.0275
18956SOL    HW159247   1.248   1.278   4.078 -0.9837 -2.1329  0.5464
18956SOL    HW259248   1.331   1.257   3.954  0.0871  0.6799  0.7261
18957SOL     OW59249   1.148   3.178  10.261  0.3146  0.1733 -0.3369
18957SOL    HW159250   1.171   3.270  10.276 -0.1009  0.4019 -1.0137
18957SOL    HW259251   1.119   3.176  10.170  1.7595 -0.9363 -0.8060
18958SOL     OW59252   9.454   0.454   5.263 -0.0681  0.2261  0.4128
18958SOL    HW159253   9.480   0.366   5.291  0.0353  0.6452  1.7126
18958SOL    HW259254   9.490   0.463   5.175  1.3233 -0.4517  0.8864
18959SOL     OW59255  10.275   8.793   8.350 -0.1527 -0.1998  0.6330
18959SOL    HW159256  10.277   8.740   8.430 -1.1185 -0.3933  0.5414
18959SOL    HW259257  10.188   8.778   8.313 -0.5119  1.5469  0.6753
18960SOL     OW59258   2.258   1.011   5.610  0.5008  0.2509 -0.1065
18960SOL    HW159259   2.300   0.948   5.551  0.7779 -1.9866  2.3153
18960SOL    HW259260   2.173   1.028   5.570  0.2108 -2.1065 -0.6445
18961SOL     OW59261   3.805   2.591   7.134 -0.2390 -0.1626  0.0340
18961SOL    HW159262   3.754   2.638   7.067 -2.8945  0.3062  2.1846
18961SOL    HW259263   3.858   2.659   7.175  0.7391 -0.2958 -0.9553
18962SOL     OW59264   0.848   3.231   5.715  0.3228  0.0018 -0.7244
18962SOL    HW159265   0.917   3.268   5.772  1.5327 -0.4075 -1.8797
18962SOL    HW259266   0.781   3.201   5.776  1.7559 -0.7807  0.5535
18963SOL     OW59267   1.620   6.096  10.316  0.0149 -0.1698  0.3905
18963SOL    HW159268   1.708   6.127  10.293 -0.0808  0.1693  0.4732
18963SOL    HW259269   1.578   6.172  10.356 -0.7107  0.0285 -0.7116
18964SOL     OW59270   4.539   4.477   7.139 -0.3687 -0.4799 -0.1941
18964SOL    HW159271   4.569   4.567   7.130  0.2608 -0.5016  1.3190
18964SOL    HW259272   4.619   4.425   7.132 -0.8076 -1.0081 -1.7498
18965SOL     OW59273   4.060   9.263   1.704 -0.1070  0.3660  0.2077
18965SOL    HW159274   4.114   9.286   1.780  0.7040  0.2167 -0.3188
18965SOL    HW259275   4.113   9.287   1.628  0.4670 -2.4220 -0.3785
18966SOL     OW59276  10.600  10.686   8.794  0.1914  0.3065 -0.0616
18966SOL    HW159277  10.573  10.731   8.714 -0.5007 -0.2742 -0.1748
18966SOL    HW259278  10.517  10.660   8.835  0.5377  0.6637  0.8878
18967SOL     OW59279   9.182   4.805   5.274 -0.0772 -0.4448 -0.1332
18967SOL    HW159280   9.115   4.770   5.215  1.1332 -2.2360 -0.5311
18967SOL    HW259281   9.228   4.727   5.307  1.0626  0.6704  1.0162
18968SOL     OW59282  10.074  10.106   4.785 -0.0803 -0.2359 -0.4642
18968SOL    HW159283  10.103  10.173   4.846 -1.8772  1.4054 -1.2907
18968SOL    HW259284  10.007  10.150   4.732  0.3581 -2.0112 -2.6254
18969SOL     OW59285   8.296   0.456   1.244  0.1212  0.1017  0.3377
18969SOL    HW159286   8.302   0.484   1.336 -0.1025  0.7338  0.1709
18969SOL    HW259287   8.368   0.502   1.201  2.1069 -2.4776  0.7075
18970SOL     OW59288   1.666   7.031   3.010  0.7148  0.2750  0.1984
18970SOL    HW159289   1.692   7.059   3.098  0.7044  1.7385 -0.2350
18970SOL    HW259290   1.741   6.983   2.976  1.3147  1.0137  0.4562
18971SOL     OW59291   4.655  10.060   5.828  0.4780  0.1269 -0.2333
18971SOL    HW159292   4.673  10.154   5.842 -0.0914  0.0040  1.5928
18971SOL    HW259293   4.694  10.017   5.905 -0.4706 -0.9934 -0.3596
18972SOL     OW59294   1.162   4.188   6.385  0.5915  0.2680  0.3421
18972SOL    HW159295   1.134   4.153   6.469  0.8285  0.8564  0.6717
18972SOL    HW259296   1.157   4.113   6.325  1.1952 -0.3625  1.0490
18973SOL     OW59297   2.704   0.402   4.114  0.1649 -0.5158  0.5153
18973SOL    HW159298   2.666   0.395   4.201  1.1647 -0.4192  0.9799
18973SOL    HW259299   2.670   0.484   4.079 -0.9000 -0.9665  0.4700
18974SOL     OW59300   7.751  10.248   9.809 -0.0381 -0.0710 -0.4460
18974SOL    HW159301   7.757  10.340   9.783  0.1827 -0.5492 -2.1946
18974SOL    HW259302   7.674  10.245   9.865 -0.3621  1.0913 -0.7859
18975SOL     OW59303   1.169   8.488   2.777  0.1086 -0.4901  0.2598
18975SOL    HW159304   1.101   8.455   2.718 -0.2652  0.3549  0.2120
18975SOL    HW259305   1.179   8.580   2.754  0.3244 -0.2746  1.1700
18976SOL     OW59306   3.877   4.057   8.453 -0.2422  0.4568 -0.3002
18976SOL    HW159307   3.917   4.137   8.487 -1.9735  0.2171  2.6356
18976SOL    HW259308   3.788   4.084   8.427 -1.2666 -0.6013  1.8214
18977SOL     OW59309   3.396   2.294   3.334  0.0307 -0.3284  0.3627
18977SOL    HW159310   3.387   2.252   3.248  3.2026 -0.2633 -0.1117
18977SOL    HW259311   3.375   2.386   3.318  2.5281  0.1091 -0.9178
18978SOL     OW59312   2.021   6.238   8.949 -0.0240  0.4137 -0.6691
18978SOL    HW159313   2.043   6.155   8.991 -0.0655  1.0208  0.6147
18978SOL    HW259314   1.940   6.221   8.902 -0.7537  0.0456  0.6664
18979SOL     OW59315   0.522   0.694   1.549  0.5721 -0.1645 -0.7553
18979SOL    HW159316   0.505   0.781   1.514  0.1924  0.2323  0.3479
18979SOL    HW259317   0.475   0.692   1.633  0.3486 -1.5262 -0.8772
18980SOL     OW59318   3.312   8.041   8.080  0.1371 -0.1945 -0.1256
18980SOL    HW159319   3.294   8.103   8.010  0.6307 -0.4539 -0.4881
18980SOL    HW259320   3.364   7.972   8.039 -0.8528 -1.1239  0.1496
18981SOL     OW59321   6.890   5.513   3.724  0.1950 -0.0779 -0.4553
18981SOL    HW159322   6.844   5.498   3.806  2.1313 -2.3011  0.3381
18981SOL    HW259323   6.847   5.454   3.662 -1.0383  1.3500 -1.0467
18982SOL     OW59324   7.874   3.265   2.994  0.1362 -0.1478  0.0471
18982SOL    HW159325   7.957   3.310   2.980  0.2043 -0.9391 -2.5919
18982SOL    HW259326   7.892   3.174   2.972 -1.1921 -0.5373  0.4623
18983SOL     OW59327  10.724   7.547   8.524  0.0294  0.4322  0.9083
18983SOL    HW159328  10.722   7.452   8.538 -0.7903  0.0269 -1.5313
18983SOL    HW259329  10.643   7.579   8.563 -1.8955 -0.5568 -2.0180
18984SOL     OW59330   9.434   3.345   5.198 -0.1375  0.3420  0.6446
18984SOL    HW159331   9.428   3.379   5.109  0.8263  0.2676  0.5402
18984SOL    HW259332   9.483   3.413   5.246 -0.0279  0.0577  0.9352
18985SOL     OW59333   1.927   2.588   7.583 -0.1141  0.3134  0.1460
18985SOL    HW159334   1.939   2.514   7.523  0.0539  0.2571  0.2474
18985SOL    HW259335   1.856   2.639   7.545  0.8865  1.0156 -0.8322
18986SOL     OW59336   1.941   6.049   8.080 -0.3742  0.1779  0.6545
18986SOL    HW159337   2.013   6.056   8.018 -2.0823  1.1739 -1.3648
18986SOL    HW259338   1.936   6.136   8.121 -0.0505 -0.0811  1.2488
18987SOL     OW59339  10.679   0.281   8.718  0.6593  0.0702 -0.0375
18987SOL    HW159340  10.762   0.317   8.750  0.5607  0.6913 -0.4773
18987SOL    HW259341  10.629   0.262   8.797  0.7325  0.8543  0.2008
18988SOL     OW59342   2.789   7.716   8.146 -0.4843  0.1296 -0.6202
18988SOL    HW159343   2.846   7.747   8.076 -0.5724  1.4540 -0.1396
18988SOL    HW259344   2.847   7.713   8.223 -0.8134  0.4775 -0.3573
18989SOL     OW59345   0.369   1.089   0.342 -0.4197  0.7310  0.1973
18989SOL    HW159346   0.339   1.012   0.391  0.4902 -0.2329 -0.6859
18989SOL    HW259347   0.371   1.160   0.406  0.2322 -0.3553  1.4236
18990SOL     OW59348   7.122   5.005   8.569  0.2141  0.2860 -0.3612
18990SOL    HW159349   7.214   5.004   8.595  0.1801 -0.4959 -0.2368
18990SOL    HW259350   7.074   4.991   8.652 -0.1222  2.6320 -0.0910
18991SOL     OW59351   7.171   5.838   1.650 -0.9095 -0.0958 -0.0256
18991SOL    HW159352   7.110   5.866   1.717 -1.6083  0.6948 -0.9560
18991SOL    HW259353   7.128   5.764   1.607 -0.4960 -0.5576  0.3467
18992SOL     OW59354   7.574   0.476   8.249  0.5167 -0.1662 -0.0343
18992SOL    HW159355   7.667   0.458   8.266  1.2363  1.0359 -2.2775
18992SOL    HW259356   7.543   0.520   8.328  2.3324  0.9588  0.1027
18993SOL     OW59357   8.238   3.720   6.415 -0.7117  0.8196 -0.1395
18993SOL    HW159358   8.218   3.647   6.357  0.6333  0.0702  0.2951
18993SOL    HW259359   8.220   3.798   6.362 -2.8449  0.2307 -0.3820
18994SOL     OW59360   3.253   4.545   4.457  0.2611  0.2443 -0.1512
18994SOL    HW159361   3.259   4.561   4.552 -0.6257  0.1609 -0.0740
18994SOL    HW259362   3.337   4.506   4.434  1.0518  1.5610  0.3455
18995SOL     OW59363   6.773   4.776   8.550  0.1914  0.2891 -0.3850
18995SOL    HW159364   6.782   4.864   8.585  3.1746  0.1322 -0.5127
18995SOL    HW259365   6.853   4.731   8.577 -0.4388 -1.8484 -1.8102
18996SOL     OW59366   5.396   4.137   4.662  0.5693  0.2548  0.3720
18996SOL    HW159367   5.380   4.181   4.746  1.8672 -0.4551  1.0268
18996SOL    HW259368   5.451   4.198   4.613 -0.8235  1.0133 -0.3208
18997SOL     OW59369   1.736   4.591   0.077  0.3770  0.7441  0.1837
18997SOL    HW159370   1.696   4.588   0.164 -1.6399 -0.4342 -0.7134
18997SOL    HW259371   1.740   4.499   0.049  1.3082  1.0740 -0.8232
18998SOL     OW59372   3.893  10.733   6.950  0.1754  0.1640  0.1810
18998SOL    HW159373   3.819  10.713   6.892 -0.2593  1.2257  0.3298
18998SOL    HW259374   3.910  10.652   6.997  0.2881 -0.6139 -1.1418
18999SOL     OW59375  10.452   3.245   8.519  0.9977  0.3610  0.1173
18999SOL    HW159376  10.449   3.261   8.424 -0.1675  0.8930  0.2269
18999SOL    HW259377  10.517   3.308   8.551 -1.5379  3.1954  0.1629
19000SOL     OW59378   5.935  10.598   3.686 -0.2754 -0.0047 -0.4708
19000SOL    HW159379   6.008  10.655   3.664 -1.2883  1.0660 -1.1897
19000SOL    HW259380   5.928  10.602   3.781  1.7010 -1.5577 -0.2040
19001SOL     OW59381   9.698   6.327   1.473  0.4038  0.9090  0.1388
19001SOL    HW159382   9.680   6.360   1.561  0.1953 -1.1393  0.9143
19001SOL    HW259383   9.763   6.387   1.438  1.4922  1.0168  2.2079
19002SOL     OW59384   5.414   6.413   6.090  0.1730 -0.6585  0.0133
19002SOL    HW159385   5.397   6.440   6.000 -0.1406  0.1776  0.3101
19002SOL    HW259386   5.509   6.406   6.096  0.1635 -1.3724 -0.5580
19003SOL     OW59387   1.700   0.107   9.388  0.0257  0.0773 -0.3297
19003SOL    HW159388   1.757   0.141   9.456 -1.2256  2.0737 -0.2051
19003SOL    HW259389   1.660   0.029   9.427  0.2133  0.5242  0.7740
19004SOL     OW59390   8.838   7.695   5.948  0.1961 -0.2552  0.3144
19004SOL    HW159391   8.856   7.602   5.939  1.8530  0.0203  0.6155
19004SOL    HW259392   8.870   7.718   6.035  1.5274  0.9677 -0.4710
19005SOL     OW59393   6.014   0.359   5.921 -0.2668 -0.6596 -0.5770
19005SOL    HW159394   5.922   0.375   5.900 -0.0310 -0.6059 -1.6349
19005SOL    HW259395   6.013   0.287   5.984 -0.9915 -1.1255 -1.1163
19006SOL     OW59396   6.075   3.855   9.435  0.0764 -0.0774  0.4450
19006SOL    HW159397   6.099   3.856   9.528 -1.6024 -1.4171  0.9544
19006SOL    HW259398   6.132   3.920   9.395  1.7947 -0.4098  2.1707
19007SOL     OW59399   8.129   4.268  10.434  0.0702  0.0236  0.2718
19007SOL    HW159400   8.089   4.354  10.436 -0.3476 -0.1068 -1.3142
19007SOL    HW259401   8.222   4.284  10.451 -0.1136  0.6980  0.6533
19008SOL     OW59402   6.661   2.967   4.016 -0.3137 -0.2851 -0.3474
19008SOL    HW159403   6.741   2.936   3.973  0.1321 -1.0699  0.9953
19008SOL    HW259404   6.615   2.888   4.043  0.4262  0.1173  2.3837
19009SOL     OW59405   3.913   7.827  10.017  0.2954 -0.0676  0.8318
19009SOL    HW159406   3.880   7.764  10.081  0.4347 -0.1740  0.7978
19009SOL    HW259407   3.943   7.901  10.071  1.7555 -0.7460  1.0021
19010SOL     OW59408  10.662   1.059   7.185  0.3253 -0.6290  0.7962
19010SOL    HW159409  10.643   1.058   7.279  0.9236  2.1542  1.0274
19010SOL    HW259410  10.576   1.054   7.143 -0.2752  1.4717  1.6247
19011SOL     OW59411   6.865   3.636   4.063 -0.4034 -0.4059  0.1518
19011SOL    HW159412   6.904   3.722   4.051  0.1302 -0.5912  0.5440
19011SOL    HW259413   6.813   3.644   4.143 -1.5810 -0.0234 -0.6201
19012SOL     OW59414   2.689   2.021   0.394  0.1709  0.4515  0.0736
19012SOL    HW159415   2.697   1.929   0.372 -0.7561  0.4428 -0.2749
19012SOL    HW259416   2.732   2.068   0.322  3.4746  0.2522  1.7462
19013SOL     OW59417   5.312  10.572   7.461 -0.5244 -0.4360  0.0743
19013SOL    HW159418   5.354  10.489   7.485 -0.6269 -0.5853 -0.2662
19013SOL    HW259419   5.248  10.549   7.393 -1.0276 -0.1792  0.4505
19014SOL     OW59420   4.152   3.120   6.406 -0.3709 -0.4645  0.1704
19014SOL    HW159421   4.175   3.199   6.454 -1.2377 -0.0279 -0.1226
19014SOL    HW259422   4.172   3.141   6.314  0.3987 -0.9686  0.2080
19015SOL     OW59423   0.666   0.118   1.120 -0.2283  0.0345  0.2815
19015SOL    HW159424   0.732   0.057   1.151  0.5295  0.3906 -0.5724
19015SOL    HW259425   0.589   0.099   1.173  0.2066 -1.1680  0.5278
19016SOL     OW59426  10.051   0.378   0.887  0.3497 -0.3130  0.1284
19016SOL    HW159427  10.057   0.448   0.822  0.0317  0.2450  0.6988
19016SOL    HW259428   9.975   0.401   0.941  1.0761 -0.3491  1.1912
19017SOL     OW59429   0.631   4.882   6.750  0.6671  0.2919  0.3001
19017SOL    HW159430   0.716   4.913   6.718  1.1067 -0.4094  0.7617
19017SOL    HW259431   0.575   4.882   6.672  0.9537  1.1996  0.0822
19018SOL     OW59432   1.309   9.974   9.338  0.1463  0.8010 -0.4477
19018SOL    HW159433   1.350  10.054   9.370  1.0440  0.2076 -0.0543
19018SOL    HW259434   1.326   9.974   9.244  0.9452  0.6436 -0.3153
19019SOL     OW59435   8.042   8.002   2.967 -0.1257 -0.0062 -0.4420
19019SOL    HW159436   8.045   8.097   2.952  1.0590  0.2100  0.9690
19019SOL    HW259437   7.979   7.970   2.903 -0.9452  1.8023 -0.5964
19020SOL     OW59438   3.765   8.722  10.156  0.6270 -0.0687 -0.2145
19020SOL    HW159439   3.678   8.691  10.181 -0.1128  1.0477 -1.2825
19020SOL    HW259440   3.780   8.799  10.210  0.5870  0.2066 -0.5880
19021SOL     OW59441   3.101   0.081   7.010 -0.2836  0.1675 -0.1329
19021SOL    HW159442   3.191   0.053   6.991  0.2043  2.1542 -0.9981
19021SOL    HW259443   3.111   0.147   7.079 -1.2645 -0.6908  0.8786
19022SOL     OW59444   5.827   4.268   8.577  0.1486 -0.7479 -0.0743
19022SOL    HW159445   5.858   4.184   8.609  1.7095 -0.2925 -0.2796
19022SOL    HW259446   5.904   4.308   8.536 -0.2714  1.2177  0.9251
19023SOL     OW59447   5.930   6.729  10.200 -0.2609 -0.4354  0.0716
19023SOL    HW159448   5.949   6.823  10.206  0.8247 -0.6582  0.4567
19023SOL    HW259449   5.897   6.716  10.112  1.5454  0.0078 -0.7218
19024SOL     OW59450   4.327   6.635   9.106 -0.9282  0.2678 -0.1134
19024SOL    HW159451   4.412   6.644   9.150 -1.0423 -0.5954  0.3007
19024SOL    HW259452   4.327   6.705   9.041 -0.0597  0.5260  0.1433
19025SOL     OW59453   9.862   9.466   4.174  0.9273 -0.0097 -0.2825
19025SOL    HW159454   9.871   9.560   4.160  2.0650  0.0406  0.6299
19025SOL    HW259455   9.838   9.431   4.088 -0.8755  1.2432 -0.3433
19026SOL     OW59456   2.484   8.436   9.587  0.1846  0.3299 -0.0515
19026SOL    HW159457   2.498   8.520   9.632  0.0297 -0.7601  2.1558
19026SOL    HW259458   2.423   8.389   9.643  0.9157 -1.6145 -0.8000
19027SOL     OW59459   2.348   0.662   8.981 -0.0731  0.4857 -0.0822
19027SOL    HW159460   2.362   0.631   8.892  2.5358  0.2157  0.3583
19027SOL    HW259461   2.391   0.748   8.983  1.4040 -0.2529  1.3398
19028SOL     OW59462   6.586   3.026   8.355  0.2181  0.1662  0.5973
19028SOL    HW159463   6.520   3.050   8.289  0.4829  2.6606  1.1464
19028SOL    HW259464   6.535   2.995   8.429 -0.1712 -0.8410 -0.0717
19029SOL     OW59465   8.195   1.266   4.986 -0.2509 -0.1067 -0.3612
19029SOL    HW159466   8.195   1.331   4.915 -0.2394 -0.6847 -0.8972
19029SOL    HW259467   8.181   1.318   5.065 -0.8745  0.4834 -0.8430
19030SOL     OW59468   5.407   0.144   3.150  0.3709  0.4100 -0.0920
19030SOL    HW159469   5.439   0.223   3.194 -2.4015  0.6104  1.8420
19030SOL    HW259470   5.437   0.153   3.060  1.9589  2.5980  0.5636
19031SOL     OW59471   8.418   6.724   1.742 -0.6584  0.3377 -0.0892
19031SOL    HW159472   8.410   6.633   1.771 -0.3769  0.3695  0.0989
19031SOL    HW259473   8.350   6.771   1.790  0.5136  0.5898  1.4005
19032SOL     OW59474   6.339   3.394   7.357  0.4272  0.0029 -0.1159
19032SOL    HW159475   6.386   3.310   7.362  0.4913  0.1006  1.1129
19032SOL    HW259476   6.380   3.439   7.283  0.7381 -0.8402 -0.4751
19033SOL     OW59477  10.703   0.840  10.337 -0.0896  0.3621 -0.5539
19033SOL    HW159478  10.767   0.791  10.286 -1.0265  1.1351 -2.6015
19033SOL    HW259479  10.710   0.806  10.426  2.1653 -0.5216 -1.0262
19034SOL     OW59480   7.060   3.109   8.660  0.3353  0.1491 -0.0315
19034SOL    HW159481   6.973   3.093   8.623 -0.3241 -0.1578  1.5943
19034SOL    HW259482   7.056   3.198   8.695  0.7478  0.1952 -0.0884
19035SOL     OW59483   6.611   6.085   6.626  0.1133  0.1306  0.3792
19035SOL    HW159484   6.531   6.082   6.678 -1.3525  1.1359 -1.6506
19035SOL    HW259485   6.613   6.000   6.581 -0.5298  0.5495 -0.4837
19036SOL     OW59486   0.207   1.888   9.460  0.2936  0.0006 -0.3724
19036SOL    HW159487   0.299   1.864   9.446 -0.1634 -1.6108 -0.8790
19036SOL    HW259488   0.202   1.906   9.554  1.2152  0.5887 -0.4204
19037SOL     OW59489   3.796   9.190  10.783 -0.4301  0.3346  0.5867
19037SOL    HW159490   3.724   9.130  10.802 -1.2578  1.8739  2.5776
19037SOL    HW259491   3.857   9.180  10.856  0.4098  0.5274 -0.0574
19038SOL     OW59492   4.044   1.018   4.988  0.0943  0.3110 -0.3157
19038SOL    HW159493   3.999   0.949   4.939  0.5180  1.3494 -2.2759
19038SOL    HW259494   3.974   1.073   5.022 -0.1996  0.0149 -0.4367
19039SOL     OW59495   7.459   8.466   1.406  0.0556 -0.0343  0.1021
19039SOL    HW159496   7.468   8.458   1.501  0.9144  2.4621  0.3048
19039SOL    HW259497   7.524   8.404   1.371  1.8464  1.1059  1.2324
19040SOL     OW59498   4.157   1.022   4.236 -0.3274 -0.1260  0.2783
19040SOL    HW159499   4.200   1.107   4.248  1.5827 -0.9493 -0.2570
19040SOL    HW259500   4.212   0.961   4.286  0.3950 -1.5645 -2.1100
19041SOL     OW59501   9.084   6.267   6.567 -0.0267 -0.3074 -0.0737
19041SOL    HW159502   9.109   6.350   6.525  0.5765 -0.3617  0.1612
19041SOL    HW259503   9.137   6.201   6.523  0.9651 -0.3082  1.0603
19042SOL     OW59504   2.826   3.835   5.294  0.0804  0.0250 -0.6085
19042SOL    HW159505   2.809   3.855   5.386  3.6929  0.5457  0.0846
19042SOL    HW259506   2.775   3.900   5.246 -0.3493  1.0247  1.0919
19043SOL     OW59507  10.206   4.045   3.920  0.2009 -0.0342  0.2323
19043SOL    HW159508  10.297   4.049   3.889  0.0788 -1.7250 -0.4412
19043SOL    HW259509  10.202   4.110   3.990  1.2490  1.8934 -1.3920
19044SOL     OW59510   2.971  10.627   7.012 -0.1069  0.0345  0.0501
19044SOL    HW159511   3.019  10.707   6.989  0.1161 -0.5859 -1.7636
19044SOL    HW259512   2.878  10.651   7.002 -0.0198 -0.2407 -1.7477
19045SOL     OW59513   2.308   9.484   3.372  0.0733 -0.0896  0.2161
19045SOL    HW159514   2.324   9.413   3.435 -0.2630 -0.7742 -0.4448
19045SOL    HW259515   2.213   9.483   3.358 -0.0790  1.2523  1.0481
19046SOL     OW59516   5.191   7.447  10.111  0.0886 -0.6553  0.2272
19046SOL    HW159517   5.249   7.444  10.036 -0.1685  0.7542 -0.0433
19046SOL    HW259518   5.105   7.467  10.075 -0.0727 -0.1403  0.8740
19047SOL     OW59519   1.630   0.928   5.292  0.3348 -0.2995 -0.0306
19047SOL    HW159520   1.682   1.007   5.276  1.8037 -1.1450  0.3719
19047SOL    HW259521   1.654   0.869   5.221 -0.9277 -0.3284 -0.4598
19048SOL     OW59522   9.751   5.165   9.279 -0.4698  0.5131 -0.8496
19048SOL    HW159523   9.663   5.138   9.255 -0.2776  0.2204 -1.2362
19048SOL    HW259524   9.768   5.120   9.362 -0.4021 -0.0355 -1.1562
19049SOL     OW59525   5.028   8.454   1.359 -0.1271  0.2129  0.0182
19049SOL    HW159526   5.020   8.371   1.405 -0.2002 -0.0874 -0.5281
19049SOL    HW259527   4.939   8.488   1.353 -0.3221 -0.4340 -1.1343
19050SOL     OW59528   2.817   5.097   0.337  0.0413  0.1594  0.0617
19050SOL    HW159529   2.721   5.093   0.338 -0.0760  1.9978 -0.1637
19050SOL    HW259530   2.844   5.038   0.407 -1.2521 -0.2510  0.2516
19051SOL     OW59531   7.178   9.668   3.019 -0.2317 -0.3323 -0.6107
19051SOL    HW159532   7.094   9.694   3.058  0.3177 -0.8481  1.0085
19051SOL    HW259533   7.169   9.573   3.005  0.2876 -0.5000  0.1488
19052SOL     OW59534   1.413  10.061   2.422  0.4617 -0.0300 -0.1954
19052SOL    HW159535   1.442  10.096   2.506 -0.6008 -0.0164  0.1728
19052SOL    HW259536   1.319  10.049   2.431  0.4486 -0.7923 -1.1093
19053SOL     OW59537   8.151  10.327   3.494  0.4845  0.1993  0.0029
19053SOL    HW159538   8.068  10.280   3.490  0.9018 -0.8206  2.0973
19053SOL    HW259539   8.184  10.326   3.404 -0.8813 -0.9951 -0.5206
19054SOL     OW59540   3.309   8.153   0.198 -0.1780 -0.5321  0.4814
19054SOL    HW159541   3.274   8.089   0.261  0.1117 -1.3468 -0.1712
19054SOL    HW259542   3.381   8.195   0.244 -1.8114  1.0374  1.7873
19055SOL     OW59543   0.736   1.983   8.346 -0.3828  0.8352 -0.5433
19055SOL    HW159544   0.782   1.964   8.265  2.4471 -0.3670  1.1864
19055SOL    HW259545   0.753   2.076   8.363  0.8672  0.5896 -0.3235
19056SOL     OW59546   2.715   0.806   1.125 -0.3407  0.6165 -0.4426
19056SOL    HW159547   2.678   0.856   1.052 -0.7465 -1.6836 -1.9239
19056SOL    HW259548   2.794   0.854   1.149  0.5537  0.7985 -3.3317
19057SOL     OW59549   0.082   7.581   0.278 -0.2632  0.1947  0.3225
19057SOL    HW159550   0.113   7.645   0.214  0.7385  0.5684  1.1410
19057SOL    HW259551  -0.001   7.549   0.243 -0.4976  1.5272 -0.3815
19058SOL     OW59552   6.240   4.283  10.263 -0.2009 -0.0467  0.0981
19058SOL    HW159553   6.325   4.273  10.305 -0.7441 -2.6587  0.8022
19058SOL    HW259554   6.212   4.372  10.283  2.5226  1.0579 -0.5609
19059SOL     OW59555   5.312   9.462   6.274  0.8279 -0.0285  0.3937
19059SOL    HW159556   5.340   9.371   6.274  0.6792 -0.0820  1.0973
19059SOL    HW259557   5.220   9.458   6.300  0.5165  0.2406 -0.6433
19060SOL     OW59558   8.988   2.786   9.608  0.1445 -0.1124  0.3746
19060SOL    HW159559   8.965   2.713   9.551 -2.8384  0.0031  1.2352
19060SOL    HW259560   9.004   2.746   9.693 -1.4000  0.1355  0.8247
19061SOL     OW59561   5.294   3.457   4.662 -0.6499 -0.6176  0.0864
19061SOL    HW159562   5.284   3.513   4.585  1.2153 -1.1216 -0.5663
19061SOL    HW259563   5.388   3.445   4.672 -0.9344 -2.8447  0.7826
19062SOL     OW59564  10.380   7.109   1.272 -0.0616 -0.2101  0.0641
19062SOL    HW159565  10.334   7.187   1.301 -0.5424 -0.7093  0.6577
19062SOL    HW259566  10.459   7.106   1.326 -0.5327 -0.6687  0.7361
19063SOL     OW59567  10.549   6.746   0.700  0.3476  0.1371 -0.9668
19063SOL    HW159568  10.553   6.698   0.617 -1.4165  0.0918 -1.0743
19063SOL    HW259569  10.506   6.829   0.678 -3.1399 -1.1322  0.3158
19064SOL     OW59570  10.406   1.960   3.339  0.7473  0.3135  0.2038
19064SOL    HW159571  10.460   1.916   3.404 -1.0061  0.3886  1.8350
19064SOL    HW259572  10.355   2.024   3.390 -2.0365 -0.8684 -0.8938
19065SOL     OW59573   7.830   2.602   3.800 -0.1430 -0.0021 -0.3526
19065SOL    HW159574   7.863   2.622   3.713  1.0466  2.9413  0.6617
19065SOL    HW259575   7.884   2.529   3.830  2.0963  1.4376 -0.6828
19066SOL     OW59576   4.557   8.989   1.630 -0.6196 -0.3428 -0.3548
19066SOL    HW159577   4.520   8.969   1.716 -0.7534  0.2542 -0.2748
19066SOL    HW259578   4.612   8.913   1.609 -1.5114 -1.0207 -0.2686
19067SOL     OW59579   2.352   9.786   0.913 -0.8511 -0.1890  0.1044
19067SOL    HW159580   2.435   9.797   0.866 -1.6643  1.5768 -1.0209
19067SOL    HW259581   2.361   9.702   0.958  0.8525 -0.8876 -1.4169
19068SOL     OW59582  10.731   3.398   7.144 -0.1989  0.1907  0.4235
19068SOL    HW159583  10.702   3.486   7.171  0.1530 -0.0287  1.5691
19068SOL    HW259584  10.730   3.347   7.225  1.3620 -0.3860  0.1054
19069SOL     OW59585   0.130   4.110   1.940 -0.2183  0.5175 -0.3863
19069SOL    HW159586   0.195   4.117   1.870 -0.2881 -0.2345 -0.5296
19069SOL    HW259587   0.056   4.063   1.900  0.7390 -2.2629  0.8468
19070SOL     OW59588   4.968   9.786   5.790 -0.0197 -0.0735  0.3853
19070SOL    HW159589   5.045   9.837   5.767  0.9532 -1.7023 -0.1679
19070SOL    HW259590   4.923   9.838   5.856  2.0710  0.4936  1.4381
19071SOL     OW59591   1.774   1.313   7.586 -0.3473  0.2076  0.2338
19071SOL    HW159592   1.719   1.351   7.517 -1.1012 -0.8830  0.2160
19071SOL    HW259593   1.779   1.220   7.563  2.0397  0.3670 -0.1254
19072SOL     OW59594   6.548   4.391   5.484 -0.4177  0.2116  0.5030
19072SOL    HW159595   6.593   4.314   5.449  0.0208 -0.3004  2.1502
19072SOL    HW259596   6.463   4.358   5.513  0.6414 -0.2178  3.3985
19073SOL     OW59597   8.365   4.586   9.026  0.1221  0.1151  0.4366
19073SOL    HW159598   8.431   4.656   9.027  0.6579 -0.3733  0.0791
19073SOL    HW259599   8.376   4.542   9.110  0.0479  0.2170  0.5000
19074SOL     OW59600   3.529   8.934  10.394 -0.7172 -0.6989 -0.4487
19074SOL    HW159601   3.557   8.843  10.382 -1.3907 -0.9470 -0.1790
19074SOL    HW259602   3.439   8.928  10.425 -0.5675  0.0495  0.1713
19075SOL     OW59603   1.354  10.242   3.260  0.2577 -0.1871  0.0627
19075SOL    HW159604   1.316  10.309   3.204 -0.3179 -0.4575  0.1177
19075SOL    HW259605   1.382  10.289   3.339  0.7308  0.1346 -0.2925
19076SOL     OW59606   9.307   2.327  10.156 -0.1412 -0.6717  0.2646
19076SOL    HW159607   9.222   2.289  10.134 -0.0751 -0.7641  0.1643
19076SOL    HW259608   9.335   2.371  10.076 -0.7477  0.6021  0.7356
19077SOL     OW59609   0.861   7.050   6.713 -0.3039  0.4736 -0.4027
19077SOL    HW159610   0.947   7.009   6.710  0.6254  2.3618 -1.3290
19077SOL    HW259611   0.836   7.044   6.806  1.1029  0.4258  0.0055
19078SOL     OW59612   6.796   2.524   2.607  0.0258 -0.2511 -0.1641
19078SOL    HW159613   6.776   2.431   2.615  0.7069 -0.7803 -3.3243
19078SOL    HW259614   6.888   2.531   2.630  0.4689 -0.7401 -1.6643
19079SOL     OW59615   0.552   5.518   8.087 -0.6137 -0.3472  0.0051
19079SOL    HW159616   0.622   5.557   8.034 -1.0189  0.6834  0.2130
19079SOL    HW259617   0.576   5.426   8.093  0.9884  0.0557  0.4421
19080SOL     OW59618   5.316   4.727   7.054  0.0999 -0.0483 -0.3095
19080SOL    HW159619   5.230   4.748   7.019  0.7517 -0.0678 -2.0087
19080SOL    HW259620   5.312   4.633   7.071 -0.3764  0.0442  0.1177
19081SOL     OW59621   6.989   3.584   8.385 -0.3243 -1.1015  0.2939
19081SOL    HW159622   7.054   3.610   8.450  0.3700  0.1878 -0.8589
19081SOL    HW259623   6.938   3.516   8.428  0.4233 -0.6441  1.9982
19082SOL     OW59624   8.898   7.085   1.478 -0.3122 -0.0046  0.1396
19082SOL    HW159625   8.862   6.997   1.489  2.7800 -1.4243 -0.2223
19082SOL    HW259626   8.917   7.092   1.385 -2.5897  2.0155 -0.2691
19083SOL     OW59627   7.403   6.443  10.225  0.5287 -0.6430 -0.3506
19083SOL    HW159628   7.421   6.445  10.132  0.7036  1.3448 -0.3140
19083SOL    HW259629   7.313   6.476  10.234  0.3606 -1.2023  0.1688
19084SOL     OW59630   4.646   4.001   2.940  0.7265 -0.0973 -0.5067
19084SOL    HW159631   4.614   4.067   3.001  1.7213  0.2392 -0.3261
19084SOL    HW259632   4.660   4.048   2.858 -0.6620 -0.5614 -1.0390
19085SOL     OW59633   0.586   4.456   8.836  0.0038 -0.0689  0.1450
19085SOL    HW159634   0.534   4.425   8.910 -0.4817  1.2043  0.3622
19085SOL    HW259635   0.642   4.381   8.812 -2.0995 -1.5788 -0.2901
19086SOL     OW59636   2.468   8.231  10.690 -0.1953  0.4486  0.1514
19086SOL    HW159637   2.466   8.137  10.709  2.9275  0.4834  1.3292
19086SOL    HW259638   2.404   8.243  10.620  0.9534 -2.9839 -1.7075
19087SOL     OW59639   0.270   7.032   8.090 -0.4749  0.5092 -0.2844
19087SOL    HW159640   0.258   7.046   8.184 -0.4990  0.3059 -0.2570
19087SOL    HW259641   0.267   7.119   8.052 -0.5752  0.5821 -0.1085
19088SOL     OW59642   6.557  10.246   9.204 -0.3509  0.5407 -0.5065
19088SOL    HW159643   6.631  10.252   9.263 -1.7597 -0.0707  1.4216
19088SOL    HW259644   6.594  10.258   9.117  2.7055 -3.8307 -0.1051
19089SOL     OW59645   0.820   5.793  10.787  0.1333  0.0070  0.7007
19089SOL    HW159646   0.778   5.822  10.706  0.6906  0.3395  0.5262
19089SOL    HW259647   0.761   5.823  10.857 -0.1572  0.0479  0.4402
19090SOL     OW59648   1.742   6.990   4.264  0.5642  0.2545 -0.3038
19090SOL    HW159649   1.702   7.050   4.201  0.3051  0.6749  0.2528
19090SOL    HW259650   1.695   7.007   4.346  0.5689 -0.6215 -0.1080
19091SOL     OW59651   9.413   4.547   9.439  0.3611  0.3764  0.3153
19091SOL    HW159652   9.386   4.634   9.408  0.2160 -0.7928 -3.2513
19091SOL    HW259653   9.450   4.504   9.362 -1.6580 -3.5668  1.2827
19092SOL     OW59654   0.738  10.422   4.361  0.5063 -0.1739  0.1864
19092SOL    HW159655   0.800  10.389   4.425  0.1993 -1.0382  0.0490
19092SOL    HW259656   0.793  10.457   4.291  0.8495 -0.7362  0.1658
19093SOL     OW59657   2.323   7.047   1.618  0.2050 -0.3546 -0.2649
19093SOL    HW159658   2.394   6.984   1.604 -1.0334 -1.8689  0.0268
19093SOL    HW259659   2.320   7.099   1.538  1.4639 -0.4441 -0.3855
19094SOL     OW59660   6.093   8.425   8.639 -0.0746  0.0821  0.4149
19094SOL    HW159661   6.184   8.454   8.628 -0.3221  0.8042  0.2554
19094SOL    HW259662   6.085   8.409   8.733  0.3060 -0.3001  0.3885
19095SOL     OW59663   7.037   9.962   9.086  0.3867 -0.2752 -0.5775
19095SOL    HW159664   7.110   9.980   9.027 -0.2825  3.2117 -0.5368
19095SOL    HW259665   6.959   9.981   9.034 -0.3307  0.1221  0.6105
19096SOL     OW59666   5.488   2.118  10.689 -0.3726  0.3638  0.5654
19096SOL    HW159667   5.560   2.056  10.680 -0.2541  0.4607  0.8260
19096SOL    HW259668   5.526   2.191  10.738 -0.9237 -0.0469  1.6432
19097SOL     OW59669   0.268   7.231   9.940 -0.3502 -0.0351  0.0939
19097SOL    HW159670   0.341   7.291   9.954 -0.7200  0.4489 -0.0136
19097SOL    HW259671   0.250   7.194  10.026 -0.7813  0.7919  0.3700
19098SOL     OW59672   3.029   7.754   3.057 -0.5885  0.0623  0.6380
19098SOL    HW159673   3.081   7.700   3.117 -0.2312  0.0984  0.3648
19098SOL    HW259674   3.034   7.842   3.094 -0.6269  0.0262  0.7277
19099SOL     OW59675   4.032   1.640   5.143 -0.0460 -0.6868  0.4472
19099SOL    HW159676   4.053   1.602   5.229  0.8631 -1.1192  0.0433
19099SOL    HW259677   4.104   1.613   5.086 -0.3374  0.0990 -0.3168
19100SOL     OW59678   3.818   1.181   0.296  0.1460  0.3519  0.0481
19100SOL    HW159679   3.824   1.215   0.207  0.8955 -1.6176 -0.6882
19100SOL    HW259680   3.766   1.102   0.289  0.3253  0.0872  1.3538
19101SOL     OW59681   6.668   2.015   6.720  0.5872  0.4224  0.1206
19101SOL    HW159682   6.717   2.041   6.798 -0.9078 -1.0607  1.6344
19101SOL    HW259683   6.578   2.042   6.737  0.0691 -0.6854 -0.6842
19102SOL     OW59684   3.656   4.135   1.993  0.1763  0.3123 -0.2765
19102SOL    HW159685   3.672   4.056   1.941  1.0098 -0.5425  1.2197
19102SOL    HW259686   3.566   4.126   2.023  0.7177 -0.8474  1.1060
19103SOL     OW59687   8.511   5.197   9.771 -0.3821 -0.4145  0.0270
19103SOL    HW159688   8.510   5.281   9.724  0.0027 -0.0162  0.7100
19103SOL    HW259689   8.552   5.136   9.710 -1.4449 -0.3213 -0.8120
19104SOL     OW59690   9.737   8.255   0.607  0.1058 -0.2907  0.1840
19104SOL    HW159691   9.652   8.291   0.633 -0.2488 -1.2388  0.3863
19104SOL    HW259692   9.742   8.171   0.652  1.3203 -0.0821  0.4634
19105SOL     OW59693   9.599   6.820   0.605 -0.0837 -0.1453 -0.0262
19105SOL    HW159694   9.513   6.862   0.613  0.0734  0.2855 -0.5829
19105SOL    HW259695   9.614   6.813   0.511 -0.6501 -2.5859 -0.0175
19106SOL     OW59696   9.404   9.796   1.635 -0.1898  0.4492  0.0813
19106SOL    HW159697   9.476   9.788   1.573 -0.4714 -0.4969 -0.1502
19106SOL    HW259698   9.446   9.818   1.718  0.2769  0.7906 -0.2416
19107SOL     OW59699   2.715   5.635   9.047  0.6060  0.0616  0.5296
19107SOL    HW159700   2.740   5.558   9.099  0.8193  0.1550  0.5644
19107SOL    HW259701   2.782   5.642   8.980  0.8925  0.5447  0.8643
19108SOL     OW59702  10.493   8.079   8.016  0.7577  0.0176 -0.1284
19108SOL    HW159703  10.406   8.043   7.998  0.8953 -0.3732 -0.0183
19108SOL    HW259704  10.541   8.065   7.934  0.7309  0.1904 -0.1740
19109SOL     OW59705   4.007   9.756   2.265 -0.0338  0.1621  0.6946
19109SOL    HW159706   3.950   9.684   2.293  0.5545 -0.6570 -0.1538
19109SOL    HW259707   3.947   9.830   2.253 -1.3271 -1.1521 -1.9962
19110SOL     OW59708   9.856   3.163   4.363 -0.1519 -0.3133  0.3410
19110SOL    HW159709   9.812   3.177   4.279  1.6807 -1.5864 -0.9130
19110SOL    HW259710   9.829   3.075   4.389  2.1157 -1.4676 -0.8662
19111SOL     OW59711   3.609   9.892   6.758 -0.0344  0.3359 -0.2445
19111SOL    HW159712   3.541   9.844   6.712 -0.4938 -0.4263  1.1900
19111SOL    HW259713   3.689   9.841   6.742 -0.6011 -1.2525  1.6689
19112SOL     OW59714   5.180   3.325  10.118 -0.2097  0.0104  0.8987
19112SOL    HW159715   5.164   3.343  10.211  0.2670 -2.1218  1.4454
19112SOL    HW259716   5.275   3.330  10.109 -0.3370  1.8609  0.0998
19113SOL     OW59717   5.083   8.176   9.781  0.0833  0.2525 -0.5488
19113SOL    HW159718   5.030   8.254   9.770 -0.9719 -0.3924 -0.1497
19113SOL    HW259719   5.140   8.195   9.856  0.4342  0.9385 -0.9734
19114SOL     OW59720   7.604   2.075   7.933 -0.4485  0.0771  0.4368
19114SOL    HW159721   7.602   1.995   7.985  0.3232 -0.6172 -0.5546
19114SOL    HW259722   7.597   2.045   7.842 -1.2678  1.2202  0.0928
19115SOL     OW59723   5.661   2.069   1.282 -0.0101 -0.0610 -0.6046
19115SOL    HW159724   5.608   2.000   1.323  0.8855  0.0122  0.6952
19115SOL    HW259725   5.646   2.056   1.188 -1.9575 -0.3385 -0.3158
19116SOL     OW59726  10.327   4.786   2.271 -0.3619 -0.4789 -0.5313
19116SOL    HW159727  10.279   4.862   2.304 -0.1298 -0.1794 -0.8873
19116SOL    HW259728  10.274   4.754   2.198 -1.7591 -2.1268  1.0622
19117SOL     OW59729   2.140   6.599   9.787 -0.2282 -0.5368 -0.1070
19117SOL    HW159730   2.104   6.660   9.722  0.5532  0.0590  0.0135
19117SOL    HW259731   2.215   6.559   9.743  0.3552 -0.0698  0.4508
19118SOL     OW59732   0.942   6.392   3.548 -0.5080 -0.0284  0.3896
19118SOL    HW159733   0.907   6.331   3.483  0.0117  0.1260 -0.0400
19118SOL    HW259734   1.035   6.397   3.528 -0.3088 -0.1161  1.2616
19119SOL     OW59735   2.264   7.016   8.549 -0.2922  0.1379 -0.4443
19119SOL    HW159736   2.317   6.970   8.614  1.2950  0.6220 -1.3400
19119SOL    HW259737   2.321   7.024   8.473 -1.7845  0.3875 -1.5939
19120SOL     OW59738   4.182   8.549   9.900  0.3777 -0.2080  0.1666
19120SOL    HW159739   4.088   8.569   9.901  0.3412 -0.3665  0.0020
19120SOL    HW259740   4.187   8.455   9.918  0.3585 -0.6953 -2.1147
19121SOL     OW59741   5.895   2.955   9.332  0.1903  0.2477  0.1509
19121SOL    HW159742   5.960   2.885   9.326 -0.3985 -0.5224  1.9393
19121SOL    HW259743   5.812   2.912   9.311 -0.1320  0.4683  0.9323
19122SOL     OW59744   4.395   3.770   2.015 -0.3091  0.3522 -0.0745
19122SOL    HW159745   4.382   3.859   2.047 -1.2737 -0.1049  0.8826
19122SOL    HW259746   4.386   3.776   1.920 -1.5792  1.0869  0.0818
19123SOL     OW59747   6.207   7.681   8.674  0.3705  0.7806 -0.1623
19123SOL    HW159748   6.282   7.739   8.658 -0.2597  1.7549  0.3653
19123SOL    HW259749   6.142   7.706   8.609  0.5406 -0.1781 -0.7261
19124SOL     OW59750   4.030   9.039   8.896 -0.7665  0.4886  0.0081
19124SOL    HW159751   3.975   9.092   8.955 -0.6621  0.3929  0.1917
19124SOL    HW259752   3.971   8.972   8.862 -0.3863 -0.6310  1.4817
19125SOL     OW59753   9.992   0.394   3.583 -0.1531  0.7432  0.4686
19125SOL    HW159754  10.079   0.431   3.566 -0.0583  0.3103 -0.0115
19125SOL    HW259755  10.009   0.318   3.639  0.0110 -0.5625 -1.2574
19126SOL     OW59756   1.331   0.379   6.908 -0.0030 -0.0974 -0.2592
19126SOL    HW159757   1.420   0.400   6.936 -0.5512  3.6146 -0.8415
19126SOL    HW259758   1.288   0.348   6.988  1.4734 -0.9103  0.2646
19127SOL     OW59759   2.797   9.013   0.213  0.3967  0.1925 -0.0131
19127SOL    HW159760   2.811   8.988   0.305  2.9021  1.6709  0.0920
19127SOL    HW259761   2.828   8.938   0.163  0.1547 -0.1421  0.3274
19128SOL     OW59762   1.809   0.689   4.306  0.1732 -0.2003  0.0171
19128SOL    HW159763   1.750   0.651   4.371 -0.6998 -0.0848 -0.6795
19128SOL    HW259764   1.836   0.615   4.252 -0.1378 -0.1047 -0.2736
19129SOL     OW59765   2.798   1.986   6.844  0.0925 -0.3388 -0.2851
19129SOL    HW159766   2.780   2.013   6.934  0.3407  1.7814 -0.8261
19129SOL    HW259767   2.884   2.022   6.824 -0.3059 -0.0588 -1.6329
19130SOL     OW59768   5.826   2.113   8.730 -0.1256 -0.4226 -0.0925
19130SOL    HW159769   5.778   2.144   8.807 -0.1621  0.0259 -0.2931
19130SOL    HW259770   5.838   2.191   8.676  1.1132 -0.4736  0.0969
19131SOL     OW59771   2.034  10.555   9.838 -0.2169  0.5427 -0.3628
19131SOL    HW159772   2.048  10.602   9.921 -1.2005  0.2572 -0.0258
19131SOL    HW259773   1.941  10.532   9.839 -0.4801  1.4136 -2.0188
19132SOL     OW59774   2.280   2.216   1.972  0.5476 -0.4159 -0.0537
19132SOL    HW159775   2.298   2.243   1.882  0.7122  0.1777  0.1577
19132SOL    HW259776   2.347   2.259   2.025  0.5235 -0.8539  0.3455
19133SOL     OW59777   4.149   9.679   9.199 -0.0568  0.5478  0.3151
19133SOL    HW159778   4.194   9.609   9.153 -0.8800  1.0619 -1.3331
19133SOL    HW259779   4.197   9.688   9.282  1.0473 -0.8500 -0.1388
19134SOL     OW59780   2.087   2.659  10.295 -0.7495 -0.0768 -0.0909
19134SOL    HW159781   2.156   2.693  10.239 -0.2052 -2.4214 -0.9702
19134SOL    HW259782   2.008   2.704  10.266  0.2899  2.4732  0.7669
19135SOL     OW59783   4.052   2.831  10.161  0.1874  0.6123 -0.1505
19135SOL    HW159784   4.008   2.775  10.225 -1.3274  2.9468  1.0079
19135SOL    HW259785   4.140   2.844  10.196  0.3443 -0.4794 -0.1087
19136SOL     OW59786   6.809   0.563   0.348  0.1127 -0.0403 -0.4604
19136SOL    HW159787   6.891   0.611   0.361 -0.1963  0.4499 -0.2747
19136SOL    HW259788   6.807   0.499   0.420 -0.1612  0.6549  0.1639
19137SOL     OW59789   2.860   5.884   3.527 -0.5479  0.1285 -0.0961
19137SOL    HW159790   2.938   5.910   3.577 -0.5088 -1.5433  0.7760
19137SOL    HW259791   2.874   5.921   3.440  1.7694 -1.0123 -0.2907
19138SOL     OW59792   4.899   0.162   1.148  0.3786  0.1590 -0.6055
19138SOL    HW159793   4.876   0.227   1.083 -0.6932 -1.0570 -1.4844
19138SOL    HW259794   4.994   0.153   1.141  0.2008 -0.5416 -2.6000
19139SOL     OW59795   6.096   3.156   9.317  0.2619  0.0069 -0.1681
19139SOL    HW159796   6.066   3.224   9.376 -0.4887 -0.0819 -0.4416
19139SOL    HW259797   6.029   3.088   9.321  0.5626 -0.3254 -0.5696
19140SOL     OW59798   1.891   3.934   8.153  0.5024  0.0269  0.7713
19140SOL    HW159799   1.800   3.928   8.182  0.8635 -0.7135  1.7965
19140SOL    HW259800   1.886   3.973   8.066 -0.8800 -0.9734  0.3687
19141SOL     OW59801   5.052   6.467  10.326 -0.5311 -0.0544  0.3601
19141SOL    HW159802   4.959   6.447  10.323 -0.5396  0.1105 -1.1370
19141SOL    HW259803   5.062   6.526  10.400 -1.6010 -0.1307  0.5747
19142SOL     OW59804   3.023   0.769   3.514  0.0776  0.3398 -0.2846
19142SOL    HW159805   2.929   0.754   3.500  0.2879 -0.6231 -0.7371
19142SOL    HW259806   3.060   0.773   3.426  0.4181  1.0343 -0.1126
19143SOL     OW59807   5.455   7.269   0.880  0.4510  0.0793  0.5271
19143SOL    HW159808   5.526   7.331   0.898 -0.0838  0.5107  1.2169
19143SOL    HW259809   5.463   7.203   0.948 -0.5906  0.8375  1.4170
19144SOL     OW59810  10.019   5.605   4.232 -0.5466  0.3282 -0.0445
19144SOL    HW159811  10.055   5.638   4.314 -1.0446  0.1114  0.2644
19144SOL    HW259812   9.972   5.526   4.257 -0.3163  0.0083 -0.6087
19145SOL     OW59813   8.189   0.398   0.568 -0.2479 -0.1032 -0.3724
19145SOL    HW159814   8.139   0.416   0.488  0.8806  0.0781 -1.0598
19145SOL    HW259815   8.163   0.309   0.592  0.1702 -0.5730 -1.5591
19146SOL     OW59816   0.809   5.084   4.015 -0.1911  0.2296 -0.6805
19146SOL    HW159817   0.861   5.006   4.033 -1.2755  0.1529  2.9139
19146SOL    HW259818   0.869   5.157   4.027 -0.2349  0.0426  1.0172
19147SOL     OW59819  10.774   5.184   2.710 -0.4856  0.0840  0.1674
19147SOL    HW159820  10.747   5.275   2.707 -0.2673  0.1435  0.0305
19147SOL    HW259821  10.711   5.138   2.654 -0.6246  0.1416  0.2751
19148SOL     OW59822   7.640   3.579   6.561 -0.0280  0.0669  0.3931
19148SOL    HW159823   7.553   3.561   6.596 -0.3465  0.3536 -0.2461
19148SOL    HW259824   7.627   3.646   6.494  0.7175  0.3057  0.4751
19149SOL     OW59825   7.060   8.366   6.422  0.2375 -0.0517 -0.3350
19149SOL    HW159826   7.094   8.406   6.502  1.5637 -0.9614 -0.4227
19149SOL    HW259827   7.065   8.435   6.356 -0.1130  0.4590  0.1641
19150SOL     OW59828   2.203   9.868   7.411  0.0958  0.2704  0.0706
19150SOL    HW159829   2.195   9.781   7.372 -0.4975  0.2392  0.2388
19150SOL    HW259830   2.154   9.926   7.352  0.2743  0.4432  0.0922
19151SOL     OW59831   2.196   5.359   5.506 -0.2887 -0.5459 -0.0514
19151SOL    HW159832   2.222   5.335   5.595 -0.2305 -1.2798 -0.2579
19151SOL    HW259833   2.200   5.277   5.457  1.5837  0.1600 -1.2131
19152SOL     OW59834   7.807   3.122   3.764 -0.0942 -0.7132 -0.3524
19152SOL    HW159835   7.825   3.039   3.808  0.7159  0.6457  2.1305
19152SOL    HW259836   7.717   3.114   3.733 -0.8135 -1.7463  1.8039
19153SOL     OW59837   6.557   7.297  10.511 -0.3831  0.1671 -0.1460
19153SOL    HW159838   6.538   7.215  10.556 -1.0676 -0.2968 -1.2348
19153SOL    HW259839   6.641   7.325  10.547 -0.6051 -0.4903  0.9546
19154SOL     OW59840   1.653   2.862   0.479 -0.2372  0.0018 -0.4614
19154SOL    HW159841   1.715   2.792   0.497 -0.9578 -0.8162 -1.0806
19154SOL    HW259842   1.684   2.900   0.397  0.5627  0.9027  0.2305
19155SOL     OW59843   5.561   1.463   9.158 -0.3797 -0.2275  0.2914
19155SOL    HW159844   5.539   1.419   9.240  1.3654 -1.7480  0.0200
19155SOL    HW259845   5.584   1.391   9.099  1.5420  0.9960 -0.5266
19156SOL     OW59846   2.523   6.907   3.534  0.1799 -0.0321  0.1014
19156SOL    HW159847   2.468   6.855   3.592  0.5780  0.2428  0.7452
19156SOL    HW259848   2.493   6.885   3.446 -1.5017  0.7097  0.4426
19157SOL     OW59849  10.513   0.524  10.304 -0.6236  0.7622 -0.2383
19157SOL    HW159850  10.529   0.611  10.339  0.8007 -0.7145  3.2334
19157SOL    HW259851  10.577   0.468  10.348 -2.0229 -2.2078 -1.6582
19158SOL     OW59852   3.971   4.231   2.989  0.5130  0.2910  0.4585
19158SOL    HW159853   3.877   4.220   3.003  0.4604  0.2903  0.1238
19158SOL    HW259854   3.982   4.323   2.967  0.5644  0.2509  0.3108
19159SOL     OW59855   8.560   3.516   6.219  0.0258 -0.1309 -0.1390
19159SOL    HW159856   8.523   3.599   6.190  0.3892 -0.6357 -2.2220
19159SOL    HW259857   8.649   3.516   6.184 -0.4128 -1.9429 -1.3689
19160SOL     OW59858   5.916   6.331   2.418 -0.4422 -0.0718  0.1564
19160SOL    HW159859   5.934   6.425   2.427 -0.7843  0.1080 -0.9898
19160SOL    HW259860   5.905   6.317   2.324  1.1231 -1.5408  0.1512
19161SOL     OW59861   3.641   6.985   9.051  0.0422  0.2284 -0.2342
19161SOL    HW159862   3.597   6.970   8.968 -0.6639 -0.3168  0.2253
19161SOL    HW259863   3.604   7.068   9.083 -0.5625 -0.1587  0.0861
19162SOL     OW59864   1.484  10.612   0.658  0.0480  0.2902 -0.3936
19162SOL    HW159865   1.390  10.613   0.645  0.0408 -0.3276 -0.4581
19162SOL    HW259866   1.519  10.580   0.575  0.4906  2.6476 -1.1805
19163SOL     OW59867   0.130   3.436   0.591 -0.1767  0.4570 -0.2607
19163SOL    HW159868   0.039   3.462   0.601 -0.1764  0.1850  0.5547
19163SOL    HW259869   0.175   3.478   0.665  0.0511 -0.7593  0.3208
19164SOL     OW59870   9.012   9.015   9.582  0.1999 -0.4156 -0.0056
19164SOL    HW159871   9.051   8.998   9.667  0.1133 -1.0764 -0.0870
19164SOL    HW259872   8.924   8.977   9.588 -0.3350  0.7810  0.0780
19165SOL     OW59873  10.541   6.796   2.839  0.3123 -0.1375  0.1180
19165SOL    HW159874  10.608   6.860   2.817  0.4836 -0.9162 -1.9094
19165SOL    HW259875  10.563   6.719   2.787 -1.2136 -1.0029  0.6685
19166SOL     OW59876   1.995   5.508   7.336  0.0400 -0.0954  0.3615
19166SOL    HW159877   2.043   5.429   7.363  1.9433  0.6586 -0.6252
19166SOL    HW259878   1.913   5.475   7.299 -1.1126 -1.3527  3.6398
19167SOL     OW59879   8.676  10.214   6.512  0.6624 -0.3855  0.4964
19167SOL    HW159880   8.707  10.216   6.421  0.4164 -0.6308  0.4052
19167SOL    HW259881   8.712  10.294   6.551 -0.8396  0.7491 -0.3523
19168SOL     OW59882   9.464   3.323   2.736 -0.2257 -0.1523 -0.0338
19168SOL    HW159883   9.473   3.395   2.797  1.5757 -1.2670  1.0909
19168SOL    HW259884   9.536   3.333   2.674 -1.0008 -0.0274 -0.9547
19169SOL     OW59885   8.416   0.495   0.349 -0.7200  0.2178  0.5445
19169SOL    HW159886   8.321   0.509   0.353 -0.6988  1.3257 -1.4564
19169SOL    HW259887   8.449   0.572   0.302  1.2561  0.1066  1.6294
19170SOL     OW59888   8.515   2.659   0.460 -0.4048 -0.6323 -0.5625
19170SOL    HW159889   8.424   2.684   0.443 -0.6232 -1.1061 -0.1111
19170SOL    HW259890   8.533   2.692   0.548  0.3190  0.6963 -1.1766
19171SOL     OW59891   7.696  10.712   2.616 -0.1120  0.4540  0.1793
19171SOL    HW159892   7.609  10.744   2.591 -1.7276 -1.9987  2.1917
19171SOL    HW259893   7.712  10.638   2.557  1.2427  1.5874 -0.9692
19172SOL     OW59894   8.857  10.554   8.841  0.0670 -0.2865 -0.1843
19172SOL    HW159895   8.878  10.471   8.800  0.4221 -1.0034  1.3809
19172SOL    HW259896   8.838  10.613   8.768  1.9306 -1.1406 -1.4199
19173SOL     OW59897   9.223   5.834   6.734  0.6619 -0.1425  0.4673
19173SOL    HW159898   9.268   5.914   6.707 -1.5440  1.0223  0.0086
19173SOL    HW259899   9.137   5.863   6.766 -0.0220 -2.2778  0.7988
19174SOL     OW59900   1.514   4.864   6.195 -0.5638  0.1788 -0.2868
19174SOL    HW159901   1.520   4.957   6.172 -0.4824  0.1805 -0.2587
19174SOL    HW259902   1.428   4.855   6.235 -1.0713  0.0029 -1.3698
19175SOL     OW59903   5.733   4.650   8.068 -0.3618 -0.2022  0.4014
19175SOL    HW159904   5.774   4.714   8.127  0.3346  0.5653 -0.8551
19175SOL    HW259905   5.794   4.576   8.067  0.6767  0.6114 -0.8461
19176SOL     OW59906   7.701   0.445   2.872 -0.1774 -0.3877  0.1368
19176SOL    HW159907   7.774   0.433   2.934 -1.5104 -1.2729  1.6416
19176SOL    HW259908   7.650   0.517   2.909 -1.0111 -0.9495  0.1025
19177SOL     OW59909   5.480   1.726   8.581  0.2532  0.3614 -0.4374
19177SOL    HW159910   5.542   1.661   8.613 -1.4637 -0.6296  1.0826
19177SOL    HW259911   5.481   1.795   8.648 -0.3310  0.2772 -0.3328
19178SOL     OW59912   1.631   5.551   3.479  0.2239 -0.3285  0.0030
19178SOL    HW159913   1.630   5.550   3.384  1.4480 -0.7929 -0.0245
19178SOL    HW259914   1.664   5.464   3.504  1.5368  0.3623  0.7973
19179SOL     OW59915   2.079   1.362   5.183 -0.6867 -0.3571 -0.0658
19179SOL    HW159916   2.158   1.313   5.207  1.4234  2.3780 -0.8810
19179SOL    HW259917   2.061   1.334   5.093 -0.7932 -1.1231  0.1827
19180SOL     OW59918   6.757   5.400   8.974 -0.1987 -0.1009 -0.0734
19180SOL    HW159919   6.742   5.410   8.880 -0.3492  0.1791 -0.0201
19180SOL    HW259920   6.701   5.326   8.998 -1.3965  0.8135  0.0833
19181SOL     OW59921   9.456   6.702   8.976  0.5534 -0.3480  0.8913
19181SOL    HW159922   9.470   6.796   8.971 -1.3756 -0.0785 -0.5600
19181SOL    HW259923   9.405   6.689   9.056  0.6153 -0.1306  0.9643
19182SOL     OW59924   5.945   4.254   6.174 -0.0356 -0.7499 -0.0038
19182SOL    HW159925   5.879   4.259   6.244  0.4740 -0.8026  0.4891
19182SOL    HW259926   5.964   4.346   6.154  0.7837 -0.7141  0.8657
19183SOL     OW59927   1.106  10.504   8.063  0.5526  0.0754 -0.6660
19183SOL    HW159928   1.112  10.410   8.046  1.4399 -0.0223  0.0932
19183SOL    HW259929   1.133  10.545   7.981  1.1489 -0.3433 -0.6846
19184SOL     OW59930   4.510   9.392   8.731  0.2436  0.6496 -0.2297
19184SOL    HW159931   4.500   9.311   8.782  1.9314  1.0001  0.7195
19184SOL    HW259932   4.452   9.379   8.656 -1.9592 -0.1092  1.4595
19185SOL     OW59933   7.742   8.963   2.768 -0.2912 -0.4469  0.0161
19185SOL    HW159934   7.731   8.919   2.852 -2.4552  2.6655  1.5111
19185SOL    HW259935   7.834   8.990   2.767 -0.4586  0.2995  1.8569
19186SOL     OW59936   0.561   1.303   8.176 -0.0070 -0.7290  0.2791
19186SOL    HW159937   0.593   1.219   8.209 -0.7735 -1.3486 -0.4834
19186SOL    HW259938   0.598   1.309   8.088 -1.9588 -1.5074 -0.6596
19187SOL     OW59939   8.693  10.207   4.050 -0.9660 -0.2617  0.4372
19187SOL    HW159940   8.733  10.121   4.033 -0.7804 -0.1258  0.1697
19187SOL    HW259941   8.758  10.254   4.102 -0.9340 -0.1710  0.3154
19188SOL     OW59942   0.656   9.238   0.002  0.0879  0.3757  0.6183
19188SOL    HW159943   0.661   9.269  -0.088 -0.0808  1.0293  0.8277
19188SOL    HW259944   0.613   9.309   0.050 -1.3496 -0.6454  0.8947
19189SOL     OW59945   3.538   5.343   4.010 -0.0886 -0.1805  0.5206
19189SOL    HW159946   3.601   5.318   4.077 -0.5288 -0.7291  0.7476
19189SOL    HW259947   3.456   5.303   4.039  0.0241 -1.7263 -1.1001
19190SOL     OW59948   8.492   8.596   5.447  0.0972 -0.5371 -0.1095
19190SOL    HW159949   8.518   8.504   5.439 -0.6943 -0.7905  0.1155
19190SOL    HW259950   8.444   8.615   5.367 -1.8605 -1.0565  0.8936
19191SOL     OW59951   5.968   4.499   0.682 -0.4222  0.1890 -0.4305
19191SOL    HW159952   5.891   4.532   0.636  0.3519  0.4996 -1.5303
19191SOL    HW259953   5.940   4.414   0.717 -1.2326  0.2512 -0.9055
19192SOL     OW59954   3.706   9.050   1.795 -0.5522 -0.5763 -0.5312
19192SOL    HW159955   3.685   8.962   1.763 -1.1898 -1.1226  1.2304
19192SOL    HW259956   3.654   9.058   1.875  1.2945  0.4885  0.6320
19193SOL     OW59957   7.826   1.360   6.269  0.2463 -0.0696 -0.0739
19193SOL    HW159958   7.795   1.281   6.226  0.0419 -0.9160  1.5400
19193SOL    HW259959   7.863   1.329   6.352  3.5460  1.1141 -0.9566
19194SOL     OW59960   6.559   0.858   7.337 -0.4791 -0.5324  0.2760
19194SOL    HW159961   6.556   0.840   7.431  0.8333  0.5332  0.5515
19194SOL    HW259962   6.468   0.873   7.312 -0.7466  0.1762  1.5979
19195SOL     OW59963   5.327   1.182   6.643  0.3259  0.4461  0.3414
19195SOL    HW159964   5.305   1.097   6.605  0.7168  0.2146  0.6211
19195SOL    HW259965   5.254   1.239   6.618 -0.6483 -0.3119  1.2851
19196SOL     OW59966   0.133   0.266   9.896 -0.1510  0.1508  0.3654
19196SOL    HW159967   0.049   0.275   9.851  0.2203  1.4175 -0.1185
19196SOL    HW259968   0.158   0.356   9.919  1.3463 -0.1393 -0.0195
19197SOL     OW59969   8.916   7.799   5.376  0.0863 -0.3468  0.5637
19197SOL    HW159970   8.834   7.813   5.330  0.0811  1.7271  1.1152
19197SOL    HW259971   8.984   7.825   5.313  0.2879 -1.0609  0.4726
19198SOL     OW59972   7.714   4.714   8.859  0.1474  0.4692  0.1127
19198SOL    HW159973   7.691   4.761   8.778  0.1146  0.1315 -0.0754
19198SOL    HW259974   7.665   4.759   8.927  1.4609  1.8554  0.2176
19199SOL     OW59975   2.280   7.805   8.329 -0.6392  0.0564  0.0288
19199SOL    HW159976   2.347   7.737   8.329 -1.3336 -0.6748 -1.4818
19199SOL    HW259977   2.291   7.851   8.413  1.8048  0.0456 -0.2421
19200SOL     OW59978   6.999   8.258   7.031 -0.4855  0.3716 -0.2857
19200SOL    HW159979   6.939   8.213   6.971 -2.1913  0.6196  1.1698
19200SOL    HW259980   6.984   8.351   7.014 -0.1803  0.4323 -0.2177
19201SOL     OW59981   9.257   4.377   2.915  0.6251  0.1119 -0.1649
19201SOL    HW159982   9.228   4.302   2.863 -0.1622  0.1874  0.1429
19201SOL    HW259983   9.352   4.371   2.916  0.5634 -0.9998  0.0206
19202SOL     OW59984   0.216   3.498   0.338 -0.1049 -0.3420  0.0562
19202SOL    HW159985   0.169   3.431   0.290  0.0042  0.2740 -0.9335
19202SOL    HW259986   0.187   3.487   0.429  0.4916 -2.1961  0.0618
19203SOL     OW59987   1.262   2.230   7.955 -0.1534  0.4635 -0.1245
19203SOL    HW159988   1.287   2.321   7.972  0.5474  0.6562 -1.9195
19203SOL    HW259989   1.316   2.204   7.880  0.9634 -2.0357  1.4061
19204SOL     OW59990   8.965   1.825   7.740 -0.0411 -0.4024 -0.3293
19204SOL    HW159991   8.950   1.883   7.665  0.8268  0.8393  0.4121
19204SOL    HW259992   8.991   1.884   7.811  1.3285 -1.7445  0.3405
19205SOL     OW59993   1.334   2.530   5.434 -0.4430 -0.1680 -0.9460
19205SOL    HW159994   1.408   2.484   5.474 -1.0392 -1.1959 -0.9775
19205SOL    HW259995   1.352   2.622   5.449  0.7700 -0.4076 -0.8300
19206SOL     OW59996   8.879   5.363   0.483 -0.1906 -1.0054 -0.2585
19206SOL    HW159997   8.844   5.284   0.524  0.7734 -1.5574 -0.4899
19206SOL    HW259998   8.804   5.401   0.437 -1.3780 -0.2806  2.1049
19207SOL     OW59999   4.831   1.087   9.677  0.0781  0.0295 -0.3615
19207SOL    HW160000   4.805   1.177   9.653  1.8594  0.7267  0.1735
19207SOL    HW260001   4.863   1.095   9.766  1.0350 -0.9925 -0.6015
19208SOL     OW60002   5.057   5.318   0.632 -0.0596  0.6388 -0.5494
19208SOL    HW160003   5.028   5.292   0.719  0.6766  1.2581 -0.1127
19208SOL    HW260004   5.118   5.390   0.647 -0.6035  1.3473 -1.6254
19209SOL     OW60005   0.655   2.711   1.033 -0.4598 -0.2090 -0.1373
19209SOL    HW160006   0.686   2.749   0.951 -0.5907 -0.1253 -0.1480
19209SOL    HW260007   0.570   2.752   1.048 -0.6439 -0.5694 -0.1980
19210SOL     OW60008   4.600   2.514   8.351  0.2607  0.0171 -0.2599
19210SOL    HW160009   4.571   2.448   8.414  0.0609  0.0426 -0.3271
19210SOL    HW260010   4.624   2.590   8.405 -0.2226  0.1559 -0.2368
19211SOL     OW60011   6.945   8.578   7.860 -0.2812  0.0683  0.0144
19211SOL    HW160012   7.039   8.565   7.872 -0.4432 -0.7613  0.5531
19211SOL    HW260013   6.906   8.498   7.896 -1.1770  0.2911 -0.4388
19212SOL     OW60014   6.811   7.488   3.701 -0.4684  0.3635 -0.3300
19212SOL    HW160015   6.805   7.413   3.641 -1.0727  0.8462 -0.8830
19212SOL    HW260016   6.731   7.484   3.753 -0.7884  0.9475 -0.7594
19213SOL     OW60017   3.039   4.030   4.637 -0.0338 -0.3020 -0.5474
19213SOL    HW160018   2.982   3.962   4.602 -2.2654  0.5074  1.2335
19213SOL    HW260019   3.020   4.032   4.730 -0.0689  2.7097 -0.5103
19214SOL     OW60020   5.296   6.456   0.317  0.2712 -0.3396 -0.4405
19214SOL    HW160021   5.322   6.548   0.311 -1.5471  0.2069 -0.4198
19214SOL    HW260022   5.329   6.417   0.236  0.7449  0.4109 -0.6229
19215SOL     OW60023   6.631   6.740   5.835  0.1345  0.2523 -0.0914
19215SOL    HW160024   6.655   6.664   5.888  0.2924 -0.3243 -0.9593
19215SOL    HW260025   6.568   6.788   5.888  1.5086  0.5909  1.3096
19216SOL     OW60026  10.281   7.507   7.426 -0.1663 -0.1245  0.2564
19216SOL    HW160027  10.353   7.500   7.489  1.4155 -0.4169 -1.5128
19216SOL    HW260028  10.229   7.581   7.458  1.9323  1.2855  0.6237
19217SOL     OW60029   3.798   6.171   8.229 -0.4780  0.2972  0.3118
19217SOL    HW160030   3.830   6.080   8.232  0.4814  0.6609  2.3285
19217SOL    HW260031   3.704   6.163   8.240 -0.3841 -0.4465  0.6543
19218SOL     OW60032   0.939   9.558   8.251  0.5928 -0.5454 -0.1651
19218SOL    HW160033   0.915   9.643   8.214 -1.3600 -0.3627  1.4168
19218SOL    HW260034   0.871   9.539   8.315  1.6518 -2.7583  0.3896
19219SOL     OW60035   2.744   3.797   7.416 -0.3569  0.0994  0.4773
19219SOL    HW160036   2.744   3.891   7.402  0.5145  0.0890  0.3904
19219SOL    HW260037   2.785   3.785   7.502  0.4780 -0.2625  0.0326
19220SOL     OW60038   8.821   4.003   6.053  0.4140 -0.1588 -0.2456
19220SOL    HW160039   8.901   3.955   6.075 -0.1755 -0.9853  0.1710
19220SOL    HW260040   8.751   3.940   6.070 -0.5258  1.3857  2.0685
19221SOL     OW60041   4.562  10.722   2.659  0.9311  0.1858 -0.7823
19221SOL    HW160042   4.592  10.683   2.576  1.4289 -0.6714 -0.2113
19221SOL    HW260043   4.467  10.710   2.658  1.0314 -0.6940 -0.8076
19222SOL     OW60044   4.782   6.877   2.148 -0.2693 -0.0061  0.0840
19222SOL    HW160045   4.801   6.836   2.064 -0.3767  0.3681 -0.1211
19222SOL    HW260046   4.701   6.926   2.135 -1.2663 -1.3648  0.8843
19223SOL     OW60047   8.499   9.509  10.669  1.0098 -0.6680 -0.2546
19223SOL    HW160048   8.517   9.602  10.682 -0.8569 -0.3480  0.2955
19223SOL    HW260049   8.585   9.469  10.660  1.9464  0.8304  1.4340
19224SOL     OW60050   6.430   4.461   3.331  0.3097  0.6353  0.5712
19224SOL    HW160051   6.400   4.488   3.245 -0.3728  0.0336  0.6128
19224SOL    HW260052   6.354   4.471   3.389  0.3546 -0.2508  0.8124
19225SOL     OW60053  10.316   4.922   5.899 -0.0130 -0.4617  0.3335
19225SOL    HW160054  10.348   4.977   5.827  0.2301 -0.9951  0.0224
19225SOL    HW260055  10.239   4.877   5.863  0.1964 -0.8427  0.3481
19226SOL     OW60056   9.458   2.084   6.205 -0.2265 -0.2861  0.3084
19226SOL    HW160057   9.402   2.125   6.139  0.1798 -1.1003 -0.5665
19226SOL    HW260058   9.545   2.081   6.165  0.0579 -0.6700  0.9273
19227SOL     OW60059   6.027   5.197   5.310  0.0600 -0.0658 -0.5900
19227SOL    HW160060   6.084   5.170   5.383 -2.5363 -3.2251  0.5077
19227SOL    HW260061   6.083   5.189   5.233  2.5029  1.9839  0.8064
19228SOL     OW60062   0.783   0.314   9.468  0.1532  0.1622  0.1476
19228SOL    HW160063   0.702   0.328   9.420  0.8178  1.5453 -0.6313
19228SOL    HW260064   0.756   0.307   9.559 -0.8484  0.5403 -0.1043
19229SOL     OW60065   9.170   6.160   6.318 -0.3638 -0.0739 -0.4119
19229SOL    HW160066   9.122   6.200   6.246 -1.6505 -1.9104 -0.6477
19229SOL    HW260067   9.186   6.070   6.289 -0.0136 -0.5586  1.1771
19230SOL     OW60068   6.823   0.266   9.006 -0.2512 -0.1656  0.1438
19230SOL    HW160069   6.867   0.347   9.031 -0.4027  0.0298 -0.2079
19230SOL    HW260070   6.870   0.197   9.053 -1.3377  0.2896  1.9930
19231SOL     OW60071   2.501  10.738   6.087 -0.1360 -0.8056 -0.5689
19231SOL    HW160072   2.583  10.775   6.121 -0.5415 -0.6436  0.2515
19231SOL    HW260073   2.519  10.723   5.994  0.3178  0.6466 -0.7417
19232SOL     OW60074   6.799   8.950   1.609  0.1336  0.3312  0.1334
19232SOL    HW160075   6.804   8.907   1.694 -0.5397  0.5938  0.3155
19232SOL    HW260076   6.738   9.023   1.623 -3.2139 -1.9000 -1.5250
19233SOL     OW60077   1.813   1.670   1.305 -0.1787  0.4793  0.0652
19233SOL    HW160078   1.775   1.642   1.221 -0.3951 -0.9116  0.5986
19233SOL    HW260079   1.829   1.763   1.294 -0.2439  0.3319 -1.5160
19234SOL     OW60080   9.017   9.538  10.312  0.1287  0.3414 -0.1284
19234SOL    HW160081   9.059   9.539  10.226  1.6833  2.6465  0.5609
19234SOL    HW260082   9.082   9.496  10.369  0.3035  1.2904  0.3962
19235SOL     OW60083   5.409   4.409   0.280  0.2427  0.2931 -0.3453
19235SOL    HW160084   5.332   4.353   0.284  0.4669 -0.2418 -2.4804
19235SOL    HW260085   5.421   4.440   0.370 -2.4610  0.4120  0.0425
19236SOL     OW60086   2.637   3.431   8.432  0.9310  0.2403 -0.0853
19236SOL    HW160087   2.725   3.398   8.451  0.7976  0.4402  0.8955
19236SOL    HW260088   2.580   3.356   8.447  0.6921  0.7181  1.5751
19237SOL     OW60089   8.888   6.159   0.415 -0.5568 -0.3492  0.1105
19237SOL    HW160090   8.825   6.173   0.343 -0.4331  0.7644  0.1985
19237SOL    HW260091   8.860   6.220   0.483  0.8176  0.4198  0.0192
19238SOL     OW60092   4.974   9.432   6.112  0.5906  0.8209 -0.5796
19238SOL    HW160093   4.935   9.360   6.063 -1.1439  2.5882 -1.9601
19238SOL    HW260094   5.039   9.469   6.052  1.0435  0.7831 -0.1139
19239SOL     OW60095   5.929   5.461   1.255  0.0953  0.0329  0.2241
19239SOL    HW160096   5.919   5.514   1.176 -1.2018 -0.8681 -0.2521
19239SOL    HW260097   5.957   5.523   1.322  2.9919  0.5352 -1.3024
19240SOL     OW60098  10.557   1.234   1.207  0.6781 -0.0844 -0.5340
19240SOL    HW160099  10.583   1.146   1.236  0.5066 -0.0742 -0.3514
19240SOL    HW260100  10.468   1.244   1.239  1.2805  0.8301  0.9398
19241SOL     OW60101   7.632   8.393   0.074  0.2128 -0.3571 -0.1490
19241SOL    HW160102   7.716   8.360   0.041  0.9138  0.0111  1.1776
19241SOL    HW260103   7.634   8.374   0.168 -1.7452 -1.4435 -0.2858
19242SOL     OW60104   6.261   4.781   9.495 -0.9573  0.4868  0.0520
19242SOL    HW160105   6.282   4.747   9.582  0.1258  3.1170  0.9426
19242SOL    HW260106   6.176   4.743   9.474 -0.1409 -2.1697  1.0978
19243SOL     OW60107   2.971   7.308   7.598 -0.1913 -0.0471 -0.4567
19243SOL    HW160108   2.920   7.298   7.679  2.4639 -0.1316  1.3156
19243SOL    HW260109   3.004   7.220   7.579  0.5536  0.2694 -0.6694
19244SOL     OW60110   5.366   0.975   0.239 -0.1033  0.1174 -0.1725
19244SOL    HW160111   5.323   0.938   0.162  0.6064  0.6735 -0.8502
19244SOL    HW260112   5.296   1.018   0.287 -0.4338  0.4422 -0.9214
19245SOL     OW60113   6.358   2.078   5.004  0.3539 -0.0770  0.3779
19245SOL    HW160114   6.415   2.076   5.081  0.3046 -0.0748  0.4150
19245SOL    HW260115   6.372   2.165   4.967 -0.2434  0.2359  0.8616
19246SOL     OW60116   5.408  10.613   5.787  0.2001  0.6372  0.0451
19246SOL    HW160117   5.487  10.653   5.749  0.4432 -1.2804 -1.6451
19246SOL    HW260118   5.400  10.654   5.873  2.1335  2.0421 -0.3597
19247SOL     OW60119   9.280   1.399   9.159  0.2089  0.0743  0.0820
19247SOL    HW160120   9.310   1.429   9.073  0.9035 -0.4485  0.1278
19247SOL    HW260121   9.225   1.470   9.192  0.5909  0.6264 -0.4521
19248SOL     OW60122   8.766   0.319   6.435  0.0096  0.6090 -0.4448
19248SOL    HW160123   8.804   0.370   6.506  1.7482 -1.4115  0.1680
19248SOL    HW260124   8.735   0.239   6.477 -1.6410  0.6235 -1.5494
19249SOL     OW60125   1.218   2.869  10.049  0.0487 -0.4377 -0.1260
19249SOL    HW160126   1.213   2.848  10.143 -1.3392  0.6947  0.0995
19249SOL    HW260127   1.147   2.933  10.036  0.7719  0.0638 -1.7803
19250SOL     OW60128   9.780   3.055   0.518 -0.0601 -0.1704 -0.3032
19250SOL    HW160129   9.852   3.025   0.574 -1.2413 -1.0578  0.7784
19250SOL    HW260130   9.739   2.975   0.486 -1.1970  0.2957 -0.0662
19251SOL     OW60131   3.137   5.889   7.502 -0.0217  0.3822 -0.2223
19251SOL    HW160132   3.156   5.912   7.593  0.4657 -1.9742  0.3322
19251SOL    HW260133   3.072   5.954   7.474 -0.3529  1.0237  1.8632
19252SOL     OW60134   0.351   8.155   1.486 -0.0338 -0.0523 -0.0030
19252SOL    HW160135   0.436   8.151   1.441 -0.4801  3.0917 -1.3969
19252SOL    HW260136   0.372   8.135   1.577  2.0533 -0.2936 -0.4756
19253SOL     OW60137   6.786   3.858   6.511  0.0975 -0.7257 -0.0138
19253SOL    HW160138   6.802   3.764   6.498  1.0547 -0.5054 -0.5825
19253SOL    HW260139   6.813   3.875   6.601 -0.6894 -1.1109  0.3014
19254SOL     OW60140   0.339   4.471   3.637  0.4197 -0.1278 -0.1193
19254SOL    HW160141   0.329   4.566   3.645 -0.6572 -0.2586  0.2923
19254SOL    HW260142   0.285   4.447   3.563 -0.4889 -0.5799  0.6659
19255SOL     OW60143   6.392   1.155   7.770 -0.1010  0.4447 -0.0365
19255SOL    HW160144   6.343   1.232   7.799 -0.2181  0.1905  0.4478
19255SOL    HW260145   6.423   1.178   7.683 -0.0629  1.0777  0.1384
19256SOL     OW60146   4.000   5.916   2.615  0.4495  0.3953 -0.3086
19256SOL    HW160147   4.064   5.938   2.548  0.5419 -0.1491 -0.4020
19256SOL    HW260148   4.050   5.915   2.697  0.4650  0.4232 -0.3175
19257SOL     OW60149   5.351   0.959   2.390  0.1248  0.2649  0.3973
19257SOL    HW160150   5.259   0.965   2.416  0.3482  1.1464  1.0335
19257SOL    HW260151   5.362   1.028   2.325  0.0886 -0.5369 -0.4734
19258SOL     OW60152   9.550   7.025   6.055 -0.0451 -0.8148  0.7704
19258SOL    HW160153   9.517   7.105   6.014  0.0606 -0.5145  1.2623
19258SOL    HW260154   9.644   7.042   6.068  0.0849 -1.2274  0.3978
19259SOL     OW60155   8.735   9.432   6.629  0.2845 -0.4991  0.0809
19259SOL    HW160156   8.807   9.371   6.647 -1.0847 -2.2687 -0.0838
19259SOL    HW260157   8.762   9.478   6.550  1.9457  0.0988  0.9513
19260SOL     OW60158   7.435  10.740   3.667 -0.1426  0.1510  0.3840
19260SOL    HW160159   7.453  10.711   3.578 -0.8651 -0.5091  0.4317
19260SOL    HW260160   7.372  10.811   3.657 -1.0375 -0.6108  0.3833
19261SOL     OW60161   4.271   3.102   9.677 -1.0192  0.4558  0.0463
19261SOL    HW160162   4.217   3.023   9.678  0.3111 -0.4660  0.8426
19261SOL    HW260163   4.209   3.172   9.654 -1.9021 -1.0148 -2.3892
19262SOL     OW60164   5.739  10.779   1.377 -0.9044 -0.3462  0.3891
19262SOL    HW160165   5.758  10.733   1.459 -1.1917 -0.1257  0.5781
19262SOL    HW260166   5.819  10.769   1.325 -0.4751  0.0848  0.9567
19263SOL     OW60167   9.908   5.023   6.143  0.3149 -0.7993 -0.2228
19263SOL    HW160168   9.816   4.995   6.144  0.6655 -1.9896 -0.5505
19263SOL    HW260169   9.915   5.080   6.219 -0.9160  0.0500 -0.7062
19264SOL     OW60170   8.580   7.415   4.115  0.0870 -0.2511 -0.1148
19264SOL    HW160171   8.563   7.508   4.126  1.0598 -0.0932  0.1234
19264SOL    HW260172   8.513   7.371   4.168  1.8511  0.3911  2.8391
19265SOL     OW60173  10.711   9.761   8.043 -0.1152  0.1348 -0.2408
19265SOL    HW160174  10.771   9.794   8.110 -0.5973  1.2909 -0.3435
19265SOL    HW260175  10.756   9.688   8.003  1.2973  1.0804 -0.4301
19266SOL     OW60176   7.884   8.927   8.986  0.3296 -0.2195 -0.3901
19266SOL    HW160177   7.847   8.841   8.966 -0.3386  0.0836 -0.4916
19266SOL    HW260178   7.914   8.920   9.076 -0.3210 -0.3626 -0.1778
19267SOL     OW60179   8.960   6.214   5.597 -0.2082 -0.1419  0.8179
19267SOL    HW160180   8.873   6.238   5.565 -0.0375  0.4268  0.7654
19267SOL    HW260181   9.014   6.290   5.576  0.5741 -0.9542 -0.2340
19268SOL     OW60182   0.904   1.823   0.780  0.0742  0.3619 -0.5619
19268SOL    HW160183   0.968   1.752   0.790 -1.2756 -0.7749  0.6831
19268SOL    HW260184   0.840   1.806   0.850 -0.6793  2.4204 -0.7001
19269SOL     OW60185   9.742   7.113   5.112  0.2576 -0.6232  0.3001
19269SOL    HW160186   9.689   7.123   5.191  0.1341 -0.8394  0.2445
19269SOL    HW260187   9.820   7.067   5.142 -0.0501 -1.2320  0.1898
19270SOL     OW60188   9.764   1.663   8.741 -0.0745  0.3482  0.0186
19270SOL    HW160189   9.826   1.722   8.784  1.5103 -1.9413  1.1309
19270SOL    HW260190   9.687   1.662   8.797  0.7840 -0.2879  1.2293
19271SOL     OW60191   3.683   8.935   9.511  0.3405 -0.1053 -0.2758
19271SOL    HW160192   3.598   8.973   9.533  0.0940 -2.1276  2.9288
19271SOL    HW260193   3.725   8.999   9.454 -2.5488  1.8343 -0.3805
19272SOL     OW60194   1.065   8.164   7.074 -0.0785  0.0520  0.1628
19272SOL    HW160195   1.074   8.139   6.982 -0.1289 -2.9216  0.8754
19272SOL    HW260196   0.971   8.174   7.087  0.0250  2.3550 -0.4861
19273SOL     OW60197   1.251   6.447   8.694 -0.6004 -0.3186 -0.7544
19273SOL    HW160198   1.156   6.440   8.707 -0.6058  1.4146  0.4253
19273SOL    HW260199   1.278   6.519   8.750  1.4398 -0.7573 -1.0922
19274SOL     OW60200   6.190  10.246   9.008  0.1850 -0.3423 -0.6422
19274SOL    HW160201   6.174  10.164   8.962 -1.1553  0.1576 -1.1166
19274SOL    HW260202   6.266  10.228   9.064 -1.9631 -2.9713  1.7346
19275SOL     OW60203   4.503   0.546   7.132 -0.1183  0.6461  0.2027
19275SOL    HW160204   4.553   0.579   7.207 -2.1450  2.1714  0.9487
19275SOL    HW260205   4.444   0.480   7.170 -0.0481  0.2690 -0.3327
19276SOL     OW60206   5.857   4.406   6.796 -0.7193 -0.0985 -0.6660
19276SOL    HW160207   5.797   4.421   6.723 -1.0448 -1.3602 -0.6938
19276SOL    HW260208   5.910   4.331   6.768  0.4661  0.6118 -0.3836
19277SOL     OW60209   8.291   2.468   7.242  0.2382 -0.7170  0.1362
19277SOL    HW160210   8.209   2.501   7.206  0.7792 -1.1882 -1.6493
19277SOL    HW260211   8.265   2.415   7.317 -0.9883  0.0910  0.3080
19278SOL     OW60212   8.373   8.331   2.469 -0.4561  0.2900 -0.0083
19278SOL    HW160213   8.356   8.243   2.502  1.9095 -0.3188 -0.2248
19278SOL    HW260214   8.360   8.389   2.544 -1.3715 -0.3055  0.3035
19279SOL     OW60215   8.743   2.396   3.241  0.4349  0.1967 -0.0015
19279SOL    HW160216   8.667   2.430   3.288 -0.0585 -0.6744 -0.1292
19279SOL    HW260217   8.753   2.306   3.274  3.1468  1.1529  2.0840
19280SOL     OW60218   9.583   3.732   2.366 -0.1560 -0.4375  0.8389
19280SOL    HW160219   9.601   3.644   2.332 -0.1207 -0.2690  0.4187
19280SOL    HW260220   9.497   3.754   2.330 -0.6798 -0.7456  1.8487
19281SOL     OW60221   1.349  10.272   1.568 -0.1853  0.1773  0.1322
19281SOL    HW160222   1.277  10.261   1.630 -1.3619 -2.3971 -1.5110
19281SOL    HW260223   1.330  10.210   1.497  2.3685  1.1923 -1.6101
19282SOL     OW60224  10.447   7.949   9.563  0.5887  0.0772 -0.2030
19282SOL    HW160225  10.430   7.980   9.474  0.5970  0.9750  0.0993
19282SOL    HW260226  10.513   8.009   9.597  0.2197  0.0514  0.5834
19283SOL     OW60227  10.640   1.504   4.419 -0.2609  0.3729 -0.2515
19283SOL    HW160228  10.575   1.454   4.369 -1.2694 -0.8932  2.1920
19283SOL    HW260229  10.718   1.447   4.420 -0.1906  0.4642 -0.5006
19284SOL     OW60230   8.955   4.774   6.984 -0.5486 -0.1993  0.2487
19284SOL    HW160231   8.879   4.717   6.996  0.0593 -1.3156 -0.8540
19284SOL    HW260232   8.919   4.856   6.951 -1.4190 -0.0337  1.5455
19285SOL     OW60233   8.682   5.087  10.208  0.1703 -0.0637  0.3456
19285SOL    HW160234   8.614   5.095  10.142 -0.5168  0.0095  1.0527
19285SOL    HW260235   8.667   5.161  10.267 -0.4704 -1.2409  1.7122
19286SOL     OW60236   9.538   9.629   4.302  0.4327  0.2816  0.3777
19286SOL    HW160237   9.459   9.680   4.318 -0.1153  0.1665 -1.6680
19286SOL    HW260238   9.548   9.630   4.207  2.1467 -0.8374  0.5055
19287SOL     OW60239   6.249   3.804   8.341 -0.3064 -0.1626  0.5054
19287SOL    HW160240   6.219   3.810   8.251  0.0842  0.5394  0.4187
19287SOL    HW260241   6.265   3.710   8.355 -1.1591 -0.3749  0.1161
19288SOL     OW60242   2.679   7.162   0.852  0.1669 -0.3220 -0.1858
19288SOL    HW160243   2.737   7.227   0.813  0.0630 -0.2733 -0.2595
19288SOL    HW260244   2.731   7.122   0.923  1.1178 -1.9102 -1.6971
19289SOL     OW60245   4.470   1.407   5.205 -0.1991 -0.1395  0.1049
19289SOL    HW160246   4.489   1.397   5.112 -0.3844 -2.5612  0.2486
19289SOL    HW260247   4.414   1.484   5.210  0.3641  0.4473 -1.6856
19290SOL     OW60248   0.966   9.603   2.679  0.2420  0.6412  0.0357
19290SOL    HW160249   0.974   9.592   2.585  0.8360 -2.6760  0.3265
19290SOL    HW260250   0.884   9.559   2.702  1.3783 -0.9543  1.2731
19291SOL     OW60251   4.968   0.099   6.148  0.3888  0.4176  0.9598
19291SOL    HW160252   5.027   0.092   6.224  0.1870 -0.9127  1.0269
19291SOL    HW260253   4.886   0.060   6.179 -0.1384  1.1412  0.4850
19292SOL     OW60254   5.602   9.375   0.905 -0.0974  0.3158  0.2965
19292SOL    HW160255   5.557   9.406   0.984 -0.0998  0.7828  0.1121
19292SOL    HW260256   5.531   9.356   0.843 -0.1295 -0.6071  0.5964
19293SOL     OW60257   5.856   8.880   0.859 -0.3951 -0.0102 -0.7255
19293SOL    HW160258   5.862   8.896   0.765  0.2521 -2.8765 -1.2758
19293SOL    HW260259   5.778   8.825   0.870 -0.8293  0.7960  0.5319
19294SOL     OW60260   0.189   5.856   1.162  0.1666 -0.2915  0.5670
19294SOL    HW160261   0.103   5.812   1.167 -0.4749 -0.1616 -4.0696
19294SOL    HW260262   0.252   5.784   1.164 -0.0838 -0.5002  2.6762
19295SOL     OW60263   3.679   3.692   0.120  0.2884  0.3386 -0.7381
19295SOL    HW160264   3.598   3.732   0.086  0.7892  2.7641  0.6350
19295SOL    HW260265   3.659   3.672   0.211  0.6900 -0.7955 -0.8862
19296SOL     OW60266   9.537  10.547   2.660  0.5088  0.3633  0.2688
19296SOL    HW160267   9.506  10.480   2.600 -0.1038  0.1556  0.8005
19296SOL    HW260268   9.567  10.499   2.737  0.0155  0.6874  0.6751
19297SOL     OW60269   6.443   3.652   5.554  0.0450 -0.0613  0.1880
19297SOL    HW160270   6.466   3.623   5.466  5.1272 -0.8566  1.4559
19297SOL    HW260271   6.422   3.571   5.601 -4.0324  0.4758 -0.4129
19298SOL     OW60272   3.225   7.410   2.484 -0.0159  0.2616 -0.3805
19298SOL    HW160273   3.145   7.438   2.439  1.0128  0.9232 -1.8795
19298SOL    HW260274   3.251   7.485   2.536 -1.1572 -0.4736  1.3239
19299SOL     OW60275   1.544   9.040   2.856 -0.2409  0.9936 -0.1330
19299SOL    HW160276   1.609   9.105   2.830  0.3438  0.9536  1.1300
19299SOL    HW260277   1.481   9.089   2.909  0.1083  0.5861  0.6829
19300SOL     OW60278   7.445   3.983   9.066  0.2016  0.3371  0.1307
19300SOL    HW160279   7.475   3.895   9.044  0.6664  0.1607  1.3862
19300SOL    HW260280   7.376   3.970   9.131  2.4531  0.9295  2.8168
19301SOL     OW60281   6.525   4.283   8.520  0.2653 -0.3679 -0.5207
19301SOL    HW160282   6.608   4.330   8.516 -0.4972  1.2191  1.1095
19301SOL    HW260283   6.501   4.270   8.428  2.5396 -1.3829 -1.0539
19302SOL     OW60284   8.164   3.559   6.104 -0.2750  0.3005 -0.2044
19302SOL    HW160285   8.248   3.602   6.117 -0.1366 -0.4202  1.6119
19302SOL    HW260286   8.186   3.469   6.081 -0.5581  0.3999 -0.8856
19303SOL     OW60287  10.600   9.185   5.540  0.5346 -0.6143  0.3321
19303SOL    HW160288  10.623   9.117   5.476  1.1195  0.1467 -0.2957
19303SOL    HW260289  10.522   9.227   5.504  0.0050 -1.1199  0.8624
19304SOL     OW60290   8.966   4.307   3.209 -0.2243  0.0104 -0.0316
19304SOL    HW160291   8.875   4.331   3.225  0.3745  1.8889  0.8090
19304SOL    HW260292   9.012   4.330   3.290  1.2049  0.2723 -0.8815
19305SOL     OW60293   6.201   7.305   5.056 -0.2067  0.1355  0.0700
19305SOL    HW160294   6.260   7.347   4.993  2.9680 -2.5531  0.9215
19305SOL    HW260295   6.196   7.366   5.130 -0.8895  1.6596 -1.1824
19306SOL     OW60296   1.499   1.108   4.049  0.1556  0.1433 -0.6808
19306SOL    HW160297   1.510   1.151   3.964 -0.0317  1.0097 -0.2786
19306SOL    HW260298   1.540   1.167   4.112 -0.1822 -0.2224 -0.1040
19307SOL     OW60299   6.728  10.319   4.228 -0.2477  0.4987  0.2668
19307SOL    HW160300   6.659  10.374   4.264 -0.2551  1.1997 -0.7723
19307SOL    HW260301   6.683  10.258   4.170 -0.3288 -1.1468  1.9553
19308SOL     OW60302   4.061   5.975   4.898  0.4427  0.1729 -0.1799
19308SOL    HW160303   4.007   6.010   4.969  1.0472  0.0595  0.3453
19308SOL    HW260304   4.002   5.970   4.823  0.0571  1.2460  0.0402
19309SOL     OW60305   5.699   7.508   4.766 -0.0343  0.1903 -0.0496
19309SOL    HW160306   5.774   7.516   4.825  1.0100 -1.7854 -1.0299
19309SOL    HW260307   5.624   7.497   4.824  0.6133  0.7789  0.9276
19310SOL     OW60308   9.334   9.774   3.592  0.4929 -0.7235  0.3073
19310SOL    HW160309   9.295   9.843   3.644 -0.4456 -0.7074 -0.3857
19310SOL    HW260310   9.374   9.819   3.517  0.4919 -0.8677  0.2189
19311SOL     OW60311   9.700   0.816   3.456 -0.2859 -0.5064  0.4228
19311SOL    HW160312   9.724   0.723   3.455 -0.4295 -0.5681 -1.7372
19311SOL    HW260313   9.605   0.816   3.442 -0.1548 -0.0470 -0.5702
19312SOL     OW60314   7.499   3.853   3.815  0.1676  0.0899 -0.5343
19312SOL    HW160315   7.494   3.821   3.905  2.0487 -0.3839 -0.5572
19312SOL    HW260316   7.433   3.802   3.767 -2.6600  2.0362  0.9466
19313SOL     OW60317  10.683   1.651   5.388  0.9645 -0.9496 -0.0605
19313SOL    HW160318  10.718   1.579   5.334 -0.1004 -2.0153  0.6096
19313SOL    HW260319  10.739   1.652   5.465  1.6060 -0.3695 -0.5221
19314SOL     OW60320   6.046   9.743   2.490  0.5327 -0.4766 -0.5411
19314SOL    HW160321   6.010   9.695   2.565  1.3870 -1.9947 -1.0576
19314SOL    HW260322   5.997   9.825   2.488 -1.5976 -1.6788 -0.1224
19315SOL     OW60323   3.006   3.690   9.047 -0.6304 -0.2150 -0.1892
19315SOL    HW160324   3.060   3.657   9.118  1.3315  1.3077 -0.8817
19315SOL    HW260325   3.012   3.624   8.978 -1.6247 -1.1560  0.5888
19316SOL     OW60326   7.573   1.177  10.766  0.3776  0.4124 -0.4987
19316SOL    HW160327   7.532   1.105  10.814  0.5788  1.6534  1.6408
19316SOL    HW260328   7.573   1.147  10.675  0.0207 -2.0694  0.2315
19317SOL     OW60329   7.050   7.847   9.555 -0.6924  0.1343 -0.2786
19317SOL    HW160330   6.984   7.792   9.512  0.0725  0.1243 -1.4938
19317SOL    HW260331   7.131   7.798   9.546 -0.2197  0.8981 -0.2900
19318SOL     OW60332   7.120   0.395   1.309 -0.5730  0.4415 -0.2772
19318SOL    HW160333   7.072   0.412   1.390  0.0130  0.0283  0.1614
19318SOL    HW260334   7.212   0.397   1.335 -0.3584  1.0021 -1.0688
19319SOL     OW60335   6.267   3.652   8.649 -0.1699  1.0836 -0.7759
19319SOL    HW160336   6.196   3.618   8.704  0.9252 -0.1761 -0.0965
19319SOL    HW260337   6.246   3.620   8.561 -0.9495  1.5541 -0.7742
19320SOL     OW60338   7.108   5.147   6.103  0.2438  0.3026 -0.3295
19320SOL    HW160339   7.091   5.095   6.025  1.2068  3.0771 -2.5829
19320SOL    HW260340   7.024   5.186   6.125  0.2673  0.7995 -1.0631
19321SOL     OW60341   4.484   5.594   7.656 -0.1042  0.0820 -0.8181
19321SOL    HW160342   4.527   5.611   7.740 -2.3910 -3.0682  1.2545
19321SOL    HW260343   4.550   5.615   7.590  2.9133 -0.1420  1.9007
19322SOL     OW60344   0.564   5.664   3.029 -0.7991 -0.0632 -0.1838
19322SOL    HW160345   0.634   5.616   2.984 -0.0791  0.3094  0.5081
19322SOL    HW260346   0.545   5.738   2.973  1.3528  1.4117  0.8979
19323SOL     OW60347   9.540   9.689   5.357 -0.2397  0.3263 -0.1122
19323SOL    HW160348   9.576   9.628   5.421  1.5110  1.2733 -0.1136
19323SOL    HW260349   9.446   9.685   5.369  0.0293  0.5610  2.6482
19324SOL     OW60350  10.070   2.362   1.618 -0.3583  0.4924 -0.5161
19324SOL    HW160351  10.110   2.281   1.587 -0.0985  0.0921  0.8107
19324SOL    HW260352  10.095   2.427   1.553  0.9583 -0.1196 -0.6436
19325SOL     OW60353   1.171   3.509   6.313 -0.4115  0.1835 -0.0875
19325SOL    HW160354   1.151   3.544   6.400 -0.2669 -0.6556  0.2920
19325SOL    HW260355   1.251   3.556   6.287 -0.9840  1.1305 -0.1925
19326SOL     OW60356   5.419   0.122   0.239  0.2828 -0.0417  0.6011
19326SOL    HW160357   5.416   0.161   0.152 -1.1403  1.8244  1.4195
19326SOL    HW260358   5.483   0.174   0.287 -1.7298  1.5729  1.7410
19327SOL     OW60359   7.928   2.668   9.911 -0.4710 -0.5817 -0.5737
19327SOL    HW160360   7.841   2.638   9.885 -0.5065 -1.1866  0.1961
19327SOL    HW260361   7.989   2.614   9.861 -0.4594  1.7677 -3.3380
19328SOL     OW60362  10.197   7.964   8.699 -0.6446  0.1909  0.0707
19328SOL    HW160363  10.250   7.979   8.778  0.3131 -1.5864 -0.1726
19328SOL    HW260364  10.259   7.971   8.627 -1.0841 -0.2273 -0.3513
19329SOL     OW60365   0.012   0.788   2.283  0.4387 -0.4921  0.2707
19329SOL    HW160366  -0.014   0.801   2.374  1.5559 -0.5239  0.6094
19329SOL    HW260367   0.061   0.705   2.284  1.5191  0.1119 -0.1117
19330SOL     OW60368   5.125   0.007   2.463 -0.0902 -0.5531 -0.3571
19330SOL    HW160369   5.061   0.030   2.530  0.4511  0.4102 -0.1372
19330SOL    HW260370   5.073  -0.028   2.391 -0.7386 -0.9985  0.3165
19331SOL     OW60371   0.568   2.293   6.454 -0.0676  0.1201  0.0779
19331SOL    HW160372   0.621   2.336   6.387  0.1613 -1.2263 -0.6316
19331SOL    HW260373   0.528   2.218   6.409 -1.1967  0.1082  1.0392
19332SOL     OW60374   5.829   9.269   4.666 -0.0564 -0.2813 -0.0623
19332SOL    HW160375   5.894   9.199   4.657 -0.1334 -0.1691 -1.6447
19332SOL    HW260376   5.863   9.341   4.614 -0.3558  0.6140  0.9381
19333SOL     OW60377   6.215   8.827   1.842 -0.7489  0.0680  0.4634
19333SOL    HW160378   6.149   8.867   1.785  0.9534  3.1494  0.4581
19333SOL    HW260379   6.181   8.840   1.931 -1.0058 -0.0220  0.3778
19334SOL     OW60380  10.161   6.178   9.490 -0.4773  0.5569  0.2983
19334SOL    HW160381  10.250   6.153   9.468 -0.0003  1.0739  1.5692
19334SOL    HW260382  10.107   6.136   9.423  0.7422  0.5558 -0.7204
19335SOL     OW60383  10.506   6.090   5.567 -0.1274  0.3670  0.5301
19335SOL    HW160384  10.466   6.021   5.619 -1.7541  1.1432  0.3955
19335SOL    HW260385  10.599   6.068   5.563 -0.5137 -1.4482  0.9997
19336SOL     OW60386   4.551   0.823   9.257 -0.0177  0.3116 -0.0371
19336SOL    HW160387   4.609   0.765   9.207 -2.7116 -2.7311  0.1090
19336SOL    HW260388   4.561   0.795   9.348 -0.7578  0.6718  0.1597
19337SOL     OW60389   3.333   7.985   7.060  0.7211  0.2826  0.0433
19337SOL    HW160390   3.328   7.997   6.966  0.4733  0.5136  0.0856
19337SOL    HW260391   3.321   8.072   7.097  0.3596  0.1253  0.3038
19338SOL     OW60392   9.918   1.217   8.287 -0.2777  0.0623  0.1219
19338SOL    HW160393  10.008   1.241   8.263  0.1122 -1.3838  0.0105
19338SOL    HW260394   9.919   1.215   8.383  0.0363 -0.6579  0.1157
19339SOL     OW60395   5.028   6.454   1.191  0.0159 -0.0335  0.6705
19339SOL    HW160396   4.942   6.495   1.186  0.5630  1.0155 -1.7520
19339SOL    HW260397   5.027   6.387   1.122  0.7258 -0.9025  1.4765
19340SOL     OW60398   9.684   2.814   0.377 -0.3799  0.0982  0.0403
19340SOL    HW160399   9.767   2.768   0.365 -0.5421 -0.1999  0.0756
19340SOL    HW260400   9.632   2.790   0.300 -0.9445 -0.8082  0.6949
19341SOL     OW60401   3.845   1.753   2.157 -0.5253 -0.2349  0.0280
19341SOL    HW160402   3.825   1.677   2.212 -0.4641  1.9475  3.3039
19341SOL    HW260403   3.781   1.747   2.085 -0.3691 -3.4317 -0.0035
19342SOL     OW60404   3.708   4.617  10.379 -0.1617  0.5415 -0.2990
19342SOL    HW160405   3.675   4.529  10.364  0.2789  0.4592 -0.8249
19342SOL    HW260406   3.722   4.653  10.291  2.8324 -0.0729 -0.1846
19343SOL     OW60407   7.450   6.610   8.813  0.9749  0.7537 -0.3546
19343SOL    HW160408   7.428   6.535   8.757  1.8593  0.9219 -0.9543
19343SOL    HW260409   7.398   6.682   8.778  0.4799  0.5347 -0.0765
19344SOL     OW60410   3.916   6.030   6.449  0.0726 -0.3148 -0.0345
19344SOL    HW160411   3.889   6.110   6.403  3.0424  0.5486 -0.4448
19344SOL    HW260412   3.870   6.033   6.533 -1.4053  0.7477 -0.8347
19345SOL     OW60413   6.284   9.611   5.284  0.0870 -0.1978 -0.5413
19345SOL    HW160414   6.196   9.647   5.282 -0.6672 -1.9455 -1.3664
19345SOL    HW260415   6.274   9.522   5.249  1.6679 -1.5527  2.1460
19346SOL     OW60416  10.138   3.578   5.080 -0.3864 -0.6867  0.3418
19346SOL    HW160417  10.057   3.527   5.087  0.1755 -1.9148 -1.4798
19346SOL    HW260418  10.115   3.654   5.028 -0.3451 -1.1088 -0.2965
19347SOL     OW60419   8.331   0.679   6.941 -0.1201 -0.4376  0.6193
19347SOL    HW160420   8.339   0.624   6.864 -2.9481 -0.2089  0.0707
19347SOL    HW260421   8.237   0.686   6.957 -0.2144  5.3198 -0.2350
19348SOL     OW60422  10.603   8.095   6.286  0.2745 -0.7303 -0.4947
19348SOL    HW160423  10.670   8.046   6.334 -1.2086 -2.5098 -0.1264
19348SOL    HW260424  10.643   8.181   6.271  2.5341 -1.6235 -0.0997
19349SOL     OW60425   8.553   0.103   5.587  0.0962 -0.4105 -0.3574
19349SOL    HW160426   8.507   0.184   5.609  0.1849 -0.8847  1.8082
19349SOL    HW260427   8.525   0.083   5.498 -1.7737  0.7602 -0.0923
19350SOL     OW60428   4.835   3.616   7.714  0.4388 -0.1186  0.2416
19350SOL    HW160429   4.913   3.597   7.766 -0.5616 -1.3107  1.3680
19350SOL    HW260430   4.849   3.571   7.632  0.9031 -0.3840  0.4623
19351SOL     OW60431   4.239   3.406   4.794 -0.1898  0.1302  0.0172
19351SOL    HW160432   4.248   3.384   4.887  0.8851  0.2231 -0.0527
19351SOL    HW260433   4.215   3.323   4.752 -2.2246  0.3873  0.5542
19352SOL     OW60434   1.349   6.782   3.581  0.0957  0.5988 -0.6998
19352SOL    HW160435   1.296   6.861   3.575 -0.9363 -0.0232 -0.2018
19352SOL    HW260436   1.308   6.731   3.651  0.8306 -0.3047 -0.9018
19353SOL     OW60437   3.443   5.077   9.459  0.3930  0.7752  0.2350
19353SOL    HW160438   3.499   5.115   9.391 -0.3669  0.3586 -0.6481
19353SOL    HW260439   3.375   5.029   9.410  0.7792 -0.9244  1.3022
19354SOL     OW60440   7.191   8.749   0.507  0.2140 -0.3283  0.2706
19354SOL    HW160441   7.280   8.783   0.518 -0.2484  1.3507 -0.8874
19354SOL    HW260442   7.159   8.789   0.427 -1.7937 -0.4921  0.9313
19355SOL     OW60443   4.311   7.330   0.180 -0.0201 -0.2553  0.0024
19355SOL    HW160444   4.367   7.379   0.240 -0.7754  2.1926 -1.1587
19355SOL    HW260445   4.227   7.325   0.225  0.0882 -0.6622  0.1717
19356SOL     OW60446   1.321   1.792   0.043  0.0194  0.3476  0.3274
19356SOL    HW160447   1.292   1.750  -0.037  1.2644 -0.6710  0.3716
19356SOL    HW260448   1.307   1.886   0.028 -1.9459  0.0125 -0.1338
19357SOL     OW60449   3.984   9.492   3.842 -0.2701  0.7382 -0.5491
19357SOL    HW160450   3.907   9.442   3.815 -1.0239  1.6428 -0.1009
19357SOL    HW260451   4.000   9.466   3.933 -0.5131  1.1242 -0.3950
19358SOL     OW60452   8.181   8.467   9.424 -0.4729  0.1996  0.4624
19358SOL    HW160453   8.231   8.493   9.347 -1.7526 -1.2174 -0.9470
19358SOL    HW260454   8.184   8.543   9.482 -0.5316  1.8324 -1.5554
19359SOL     OW60455   7.073   1.756   5.161  0.2442 -0.1152 -0.2440
19359SOL    HW160456   7.074   1.720   5.249 -2.3903 -1.4770 -0.6469
19359SOL    HW260457   7.032   1.842   5.170  1.3954  0.4251  0.0115
19360SOL     OW60458   2.567   8.647   6.442 -0.4605  0.0774  0.3882
19360SOL    HW160459   2.623   8.697   6.382 -1.3637  0.7128  0.0587
19360SOL    HW260460   2.541   8.711   6.509 -1.0725 -0.1232  0.3480
19361SOL     OW60461  10.431  10.644   1.045  0.6235 -0.0222 -0.3186
19361SOL    HW160462  10.432  10.720   0.987 -0.9657 -0.8691 -1.5568
19361SOL    HW260463  10.348  10.651   1.092  1.1894 -0.1739  0.7337
19362SOL     OW60464   5.016   9.605   0.127 -0.3161 -0.1454 -0.1208
19362SOL    HW160465   5.040   9.514   0.146  0.5421 -0.3221 -1.8334
19362SOL    HW260466   5.089   9.656   0.162 -0.1933 -0.2271 -0.2539
19363SOL     OW60467   7.632   0.639   5.914  0.2753 -0.5251 -0.1392
19363SOL    HW160468   7.576   0.599   5.848  0.4083  2.6245 -2.3565
19363SOL    HW260469   7.571   0.683   5.973  0.2735 -0.0863 -0.4634
19364SOL     OW60470   4.498   7.308  10.208 -0.0842 -0.1849  0.1460
19364SOL    HW160471   4.463   7.378  10.264  2.1125  0.2488  1.0857
19364SOL    HW260472   4.525   7.353  10.128 -2.0606 -0.6078 -0.8171
19365SOL     OW60473   5.265   3.049   0.930 -0.3283 -0.2738 -0.1115
19365SOL    HW160474   5.337   3.042   0.868 -0.5079 -0.1431 -0.3354
19365SOL    HW260475   5.301   3.016   1.012 -0.1058 -0.4989 -0.2976
19366SOL     OW60476   0.961   6.282   9.545 -0.3508 -0.6056 -0.0590
19366SOL    HW160477   1.047   6.274   9.587 -0.4017 -0.7780  0.0135
19366SOL    HW260478   0.937   6.193   9.521  0.4040 -0.3503 -1.9535
19367SOL     OW60479   8.200   3.079  10.065 -0.7268 -0.2344 -0.0879
19367SOL    HW160480   8.292   3.106  10.055 -0.6130 -1.0870 -1.5024
19367SOL    HW260481   8.204   3.006  10.127 -0.7549  1.1789  1.6947
19368SOL     OW60482   9.567   1.756   4.773  0.1129  0.3050 -0.3696
19368SOL    HW160483   9.531   1.679   4.818 -1.1710  1.3284  0.4301
19368SOL    HW260484   9.497   1.784   4.713 -0.5701  2.4156  1.2974
19369SOL     OW60485  10.744   2.953   8.833 -0.1626 -0.7338 -0.0698
19369SOL    HW160486  10.695   2.907   8.901 -0.7467 -0.4004 -0.2589
19369SOL    HW260487  10.680   2.973   8.765  0.3594 -0.8365 -0.6106
19370SOL     OW60488   1.940   5.366   8.873 -0.1983 -0.6181 -0.0671
19370SOL    HW160489   1.867   5.328   8.824 -0.1729 -0.5694 -0.1424
19370SOL    HW260490   1.948   5.455   8.839 -0.6992 -0.3093  0.5891
19371SOL     OW60491   8.637   7.364   8.206 -0.4862  0.0316 -0.7387
19371SOL    HW160492   8.726   7.386   8.178 -1.1955  2.6570 -1.2598
19371SOL    HW260493   8.610   7.294   8.147  0.4657  0.7691 -2.1099
19372SOL     OW60494   1.884   5.218   5.493  0.7713 -0.3964 -0.6907
19372SOL    HW160495   1.926   5.267   5.564 -2.6971 -0.3790  1.6444
19372SOL    HW260496   1.905   5.126   5.511 -1.5895 -0.5965  1.7563
19373SOL     OW60497  10.163   1.100   8.986  0.0454 -0.0947  0.3312
19373SOL    HW160498  10.128   1.021   8.945  1.7941 -0.4744 -0.5332
19373SOL    HW260499  10.246   1.072   9.025 -0.6309  0.7043  2.4934
19374SOL     OW60500   1.420   9.293   0.511  0.0251 -0.1036  0.0124
19374SOL    HW160501   1.511   9.277   0.486  0.1210  1.5527 -0.7726
19374SOL    HW260502   1.368   9.255   0.440  0.1988  1.3061 -0.8958
19375SOL     OW60503   2.303   0.052  10.037 -0.2788 -0.0477 -0.0783
19375SOL    HW160504   2.338   0.093  10.116 -0.5682  0.4622 -0.2148
19375SOL    HW260505   2.273   0.124   9.982 -0.3426 -0.4122 -0.5343
19376SOL     OW60506   5.325   1.429   6.127 -0.4333  0.2977 -0.1170
19376SOL    HW160507   5.303   1.402   6.038 -0.6676  0.8248 -0.2192
19376SOL    HW260508   5.366   1.515   6.117  1.5532 -0.5676  0.0805
19377SOL     OW60509   1.131   0.611  10.088 -0.2025  0.3814  0.0594
19377SOL    HW160510   1.111   0.669  10.161 -1.9698  1.0056 -0.8763
19377SOL    HW260511   1.150   0.670  10.015 -1.2118 -0.1970 -0.6914
19378SOL     OW60512   7.989   4.506   7.133 -0.4084 -0.5868 -0.1027
19378SOL    HW160513   7.925   4.519   7.202 -0.5286 -0.2606 -0.2760
19378SOL    HW260514   8.043   4.433   7.164 -1.4460 -1.4887 -0.3872
19379SOL     OW60515   6.861   6.622  10.446 -0.3566  0.2284 -0.0979
19379SOL    HW160516   6.856   6.625  10.541 -1.4185 -0.2802 -0.1271
19379SOL    HW260517   6.919   6.549  10.427  0.2938  0.6654  0.1522
19380SOL     OW60518   5.472   7.666   0.754 -0.1881  0.6047  0.1649
19380SOL    HW160519   5.415   7.726   0.705 -1.0468 -1.2717 -1.2942
19380SOL    HW260520   5.552   7.662   0.703 -0.5044 -0.1860 -0.2958
19381SOL     OW60521  10.666  10.389   5.036 -0.5693 -0.0223 -0.3870
19381SOL    HW160522  10.718  10.380   5.116  0.1105 -1.2889 -0.9310
19381SOL    HW260523  10.630  10.477   5.040 -1.7181 -0.4965  2.0039
19382SOL     OW60524   9.095   6.137   8.547 -0.1922  0.4428  0.0419
19382SOL    HW160525   9.096   6.110   8.639 -2.9449  1.2349  0.3890
19382SOL    HW260526   9.131   6.062   8.500 -1.6982 -1.2922  1.5178
19383SOL     OW60527   1.422  10.614   8.770 -0.0829  0.0032 -0.4826
19383SOL    HW160528   1.499  10.598   8.715 -1.4828 -0.6651 -2.3387
19383SOL    HW260529   1.360  10.658   8.712 -0.4415  2.3588  1.5048
19384SOL     OW60530   2.296   6.468   6.791  0.5264  0.0646 -0.2273
19384SOL    HW160531   2.250   6.507   6.716  2.0976 -0.2857 -1.4177
19384SOL    HW260532   2.359   6.534   6.817  1.7081 -0.7893 -0.8517
19385SOL     OW60533   9.893   5.119   1.797 -0.6056  0.0234  0.5932
19385SOL    HW160534   9.885   5.183   1.726 -1.1430  1.4770  1.9004
19385SOL    HW260535   9.972   5.070   1.776  0.1849  1.5292 -0.1442
19386SOL     OW60536   1.036  10.447   0.060  0.2285  0.6809  0.1069
19386SOL    HW160537   1.118  10.439   0.109  0.0720  1.8537  0.6104
19386SOL    HW260538   1.057  10.507  -0.011 -0.7953  3.2831  1.8220
19387SOL     OW60539   7.692   5.841   1.967 -0.2472 -0.0853 -0.3903
19387SOL    HW160540   7.716   5.871   1.880 -0.5764 -0.9929 -0.7955
19387SOL    HW260541   7.711   5.748   1.967 -1.5734 -0.3715  0.0418
19388SOL     OW60542   6.367   8.157   4.148  0.6586  0.2436 -0.4862
19388SOL    HW160543   6.420   8.139   4.225  1.5163 -1.2742 -1.3816
19388SOL    HW260544   6.423   8.210   4.091 -0.2401  2.0223  0.1973
19389SOL     OW60545   3.251   3.444   2.172 -0.0759 -0.2024  0.3120
19389SOL    HW160546   3.313   3.459   2.101 -0.0362  0.6133  0.5080
19389SOL    HW260547   3.283   3.499   2.244 -2.7763  2.8770 -0.6165
19390SOL     OW60548   8.772   1.646   6.011 -0.2818  0.1616 -0.0474
19390SOL    HW160549   8.806   1.675   5.927  0.7862 -0.9508 -0.0261
19390SOL    HW260550   8.729   1.562   5.992 -0.9881  0.4237  0.3348
19391SOL     OW60551   4.702   8.019   1.358  0.6793 -0.4471 -0.2163
19391SOL    HW160552   4.641   8.093   1.356  1.5858  0.3001 -1.1020
19391SOL    HW260553   4.691   7.982   1.446 -0.6343  0.0156 -0.1639
19392SOL     OW60554   6.591   6.487   1.702 -0.3548 -0.1598 -0.5208
19392SOL    HW160555   6.531   6.504   1.775  0.9759  2.2114  0.1114
19392SOL    HW260556   6.635   6.405   1.726 -1.9541 -0.9478 -0.1133
19393SOL     OW60557   9.194   4.795   8.265 -0.7906  0.1010 -0.0876
19393SOL    HW160558   9.230   4.851   8.333  0.9742 -1.4086  0.3059
19393SOL    HW260559   9.162   4.718   8.311 -0.4082 -0.5353 -0.8532
19394SOL     OW60560  10.355   0.331   7.269 -0.4887 -0.0131  0.0625
19394SOL    HW160561  10.290   0.398   7.247  0.7467  0.8980 -0.9195
19394SOL    HW260562  10.376   0.346   7.361 -1.3227 -0.0393  0.2665
19395SOL     OW60563  10.098   4.546   6.853 -0.0744 -0.1143 -0.7453
19395SOL    HW160564  10.057   4.541   6.939  0.7986  0.6676 -0.2759
19395SOL    HW260565  10.091   4.639   6.829  0.2188 -0.2205 -1.2511
19396SOL     OW60566   8.515   8.801   1.127 -0.3905 -0.6044 -0.6758
19396SOL    HW160567   8.442   8.800   1.065 -1.7131  2.3381  0.6299
19396SOL    HW260568   8.488   8.742   1.197 -0.9503 -0.4731 -0.7822
19397SOL     OW60569   3.677   8.010   5.598 -0.2652 -0.4917 -0.4633
19397SOL    HW160570   3.616   8.026   5.670  0.1453  0.5710 -0.3247
19397SOL    HW260571   3.672   7.916   5.582  0.5212 -0.9490  1.7310
19398SOL     OW60572   2.774   1.621   2.519 -0.0171 -0.1878  0.1919
19398SOL    HW160573   2.837   1.551   2.500  0.5701 -0.6587  3.3348
19398SOL    HW260574   2.694   1.594   2.474  0.5494 -2.2757  0.3248
19399SOL     OW60575   4.669   0.602   3.108 -0.5191 -0.3139  0.5096
19399SOL    HW160576   4.662   0.616   3.202 -0.7230 -1.2654  0.6426
19399SOL    HW260577   4.587   0.559   3.084  0.2607 -1.6719  0.2044
19400SOL     OW60578   7.171   9.996   5.116 -0.2065 -0.1931  0.3234
19400SOL    HW160579   7.112  10.049   5.169  1.3025  1.1908  0.6817
19400SOL    HW260580   7.163  10.033   5.028 -0.5354 -0.5998  0.1784
19401SOL     OW60581   6.970   0.560   9.950  0.2046 -0.4252  0.3644
19401SOL    HW160582   6.914   0.596   9.881  0.7994 -0.2995 -0.0644
19401SOL    HW260583   6.930   0.476   9.972  0.4629 -0.8497 -0.7262
19402SOL     OW60584   1.492   2.576   7.508 -0.1091  0.2437 -0.6024
19402SOL    HW160585   1.515   2.484   7.523 -0.4089  0.4276  1.1550
19402SOL    HW260586   1.398   2.573   7.489 -0.0977  0.1746 -0.6502
19403SOL     OW60587   7.551   2.454   2.509 -0.1794 -0.5502  0.7264
19403SOL    HW160588   7.504   2.524   2.553  0.6321 -0.3701  1.3296
19403SOL    HW260589   7.643   2.481   2.511 -0.0834 -0.6836 -0.8186
19404SOL     OW60590   5.635   7.425   1.005 -0.0331 -0.1167  0.5939
19404SOL    HW160591   5.623   7.519   1.017 -1.0933  0.0727 -1.5350
19404SOL    HW260592   5.728   7.415   0.982  0.1931  0.3435  1.3010
19405SOL     OW60593   5.154   9.044  10.118  0.7143  0.1457 -0.1055
19405SOL    HW160594   5.160   8.954  10.148 -0.0075  0.8582  2.4179
19405SOL    HW260595   5.237   9.084  10.145 -0.1100  0.9051  1.4593
19406SOL     OW60596   2.002   2.099   2.919  0.0086 -0.1178  0.2730
19406SOL    HW160597   1.987   2.065   3.007 -0.3694  0.4923  0.4513
19406SOL    HW260598   1.941   2.172   2.911  0.3044  0.0671 -0.3641
19407SOL     OW60599   5.953   1.616   1.985 -0.0686 -0.0741  0.2141
19407SOL    HW160600   6.013   1.684   1.955  0.0334  0.2105  1.0320
19407SOL    HW260601   5.901   1.659   2.053 -1.5808 -0.1468 -0.8402
19408SOL     OW60602   8.300   4.936   9.479  0.3335 -0.6945  0.3946
19408SOL    HW160603   8.329   4.884   9.554  2.4255  0.9215  0.7860
19408SOL    HW260604   8.287   5.024   9.515 -0.3684 -0.2959 -0.8007
19409SOL     OW60605   9.433   9.109   3.075  0.2330  0.2034  0.7364
19409SOL    HW160606   9.460   9.200   3.065  1.2848 -0.1964 -0.3299
19409SOL    HW260607   9.360   9.099   3.013  0.0634  0.3395  0.9134
19410SOL     OW60608   4.778   9.278   6.350 -0.4570  0.1484 -0.1577
19410SOL    HW160609   4.764   9.236   6.265  1.8215  0.1837 -0.5989
19410SOL    HW260610   4.872   9.292   6.355 -0.7265  1.6832  1.6773
19411SOL     OW60611   5.812   7.796   9.440  0.0527 -0.8081 -0.1462
19411SOL    HW160612   5.720   7.820   9.434  0.3769  0.1125 -2.7128
19411SOL    HW260613   5.814   7.701   9.423 -0.3724 -0.7339 -0.6089
19412SOL     OW60614   6.827   4.692   6.587 -0.3371  0.3643 -0.0784
19412SOL    HW160615   6.828   4.782   6.620 -0.0064  0.1996  0.3853
19412SOL    HW260616   6.831   4.701   6.492 -1.9662  0.8658 -0.1204
19413SOL     OW60617   7.819   1.878   5.530 -0.3343  0.1426  0.1059
19413SOL    HW160618   7.822   1.783   5.534 -0.1595  0.1908  1.7822
19413SOL    HW260619   7.908   1.906   5.553 -0.4841  0.7162  0.0091
19414SOL     OW60620   7.944   1.770   7.104 -0.1718 -0.4771  0.5443
19414SOL    HW160621   7.930   1.857   7.067  0.4280  0.0102  1.4527
19414SOL    HW260622   7.855   1.734   7.115 -0.4242  0.0623  0.3017
19415SOL     OW60623   2.933   7.029   3.370 -0.3794  0.2576 -0.5331
19415SOL    HW160624   2.881   7.042   3.449  2.2653 -0.8637  1.5958
19415SOL    HW260625   2.879   6.974   3.314 -0.9774 -2.2740  2.2664
19416SOL     OW60626   9.554   1.538   6.521 -0.1221  0.3335 -0.0302
19416SOL    HW160627   9.494   1.530   6.447 -0.8749  1.7410  0.3848
19416SOL    HW260628   9.541   1.458   6.571 -0.6279 -0.0096 -0.6871
19417SOL     OW60629   7.179   0.222   5.061 -0.4721 -0.8276 -0.3844
19417SOL    HW160630   7.085   0.239   5.071 -0.1931  0.5534  0.1384
19417SOL    HW260631   7.215   0.232   5.149  0.3595  0.0143 -0.8051
19418SOL     OW60632   6.178   4.853  10.221 -0.1441 -0.8134 -0.0263
19418SOL    HW160633   6.252   4.850  10.281 -1.8475 -0.7650  2.2111
19418SOL    HW260634   6.121   4.781  10.249 -2.1333  0.6868  0.0578
19419SOL     OW60635   7.435   8.854   0.667  0.2693 -0.1467 -0.0125
19419SOL    HW160636   7.525   8.885   0.665  0.3865 -0.5000 -0.2003
19419SOL    HW260637   7.435   8.783   0.732 -0.2046  0.8799  1.1636
19420SOL     OW60638   9.883   8.573  10.009 -0.4535 -0.1773  0.4116
19420SOL    HW160639   9.897   8.625  10.088  1.1189  0.3662 -0.1784
19420SOL    HW260640   9.972   8.549   9.981 -1.0678 -1.8304 -0.2252
19421SOL     OW60641   4.089   5.828   0.575  0.0762  0.0664  0.2976
19421SOL    HW160642   4.085   5.922   0.589 -0.8823 -0.0547  0.9216
19421SOL    HW260643   4.002   5.805   0.541  0.8510 -0.3474 -1.5382
19422SOL     OW60644   4.197   5.809   4.143  0.1844  0.8829 -0.2727
19422SOL    HW160645   4.218   5.747   4.212  2.3739  0.6274 -1.0875
19422SOL    HW260646   4.159   5.756   4.073 -0.5441  0.9052  0.0987
19423SOL     OW60647   2.335   8.108   6.525 -0.1090 -0.0389  0.4775
19423SOL    HW160648   2.384   8.183   6.491 -1.1842  0.8962  0.9383
19423SOL    HW260649   2.250   8.114   6.483  0.4672 -2.3148 -1.2164
19424SOL     OW60650   1.772   7.768   5.043  0.3379  0.1082 -0.7652
19424SOL    HW160651   1.743   7.711   4.971  0.8760  1.2015 -1.8878
19424SOL    HW260652   1.784   7.854   5.002 -0.8705  1.1651  0.9667
19425SOL     OW60653   1.315   8.690   8.152 -0.0256  0.1944  0.0899
19425SOL    HW160654   1.388   8.635   8.180  0.1549 -0.1937 -1.0588
19425SOL    HW260655   1.271   8.716   8.233  0.4586 -0.8533  0.7091
19426SOL     OW60656   0.310   6.322   0.842 -0.6287 -0.4553 -0.2429
19426SOL    HW160657   0.332   6.313   0.749  1.4222 -0.7506  0.2315
19426SOL    HW260658   0.256   6.246   0.861  0.6537 -1.5192 -0.7382
19427SOL     OW60659   6.187   2.540   0.938 -0.0986  0.0319 -0.1696
19427SOL    HW160660   6.259   2.501   0.889  1.8661  1.3934  1.4859
19427SOL    HW260661   6.216   2.538   1.029 -1.7725  1.4347  0.4495
19428SOL     OW60662   1.271  10.464   5.530  0.0124  0.2892 -0.8132
19428SOL    HW160663   1.267  10.536   5.468  0.8839  1.4943  0.4771
19428SOL    HW260664   1.193  10.475   5.584  1.2297  1.6368  0.7762
19429SOL     OW60665   1.932  10.148   2.967  0.0337 -0.1418 -0.8562
19429SOL    HW160666   1.877  10.204   3.022  1.1420  1.0536 -0.9037
19429SOL    HW260667   1.963  10.079   3.026 -1.6738 -0.9923 -0.8903
19430SOL     OW60668   2.875   0.861   5.896 -0.3377  0.0453  0.5672
19430SOL    HW160669   2.784   0.864   5.926 -0.2159 -0.2892  0.9796
19430SOL    HW260670   2.910   0.947   5.918 -0.5235  0.1326  0.5200
19431SOL     OW60671   7.952   0.920   9.284  0.5159  0.7568 -0.0258
19431SOL    HW160672   8.023   0.902   9.222 -0.0418 -0.3943 -0.3685
19431SOL    HW260673   7.883   0.961   9.232  0.0900 -0.1113 -0.1771
19432SOL     OW60674   1.140   2.924   5.527  0.5778  0.0208 -0.2471
19432SOL    HW160675   1.167   2.929   5.435  0.5039  0.0264 -0.2687
19432SOL    HW260676   1.190   2.852   5.563  0.1345 -0.3951 -0.4523
19433SOL     OW60677   0.052   7.867   5.697 -0.4717 -0.1370 -0.6686
19433SOL    HW160678   0.104   7.927   5.750  1.3142 -0.2419 -2.1815
19433SOL    HW260679   0.097   7.783   5.704  0.1297 -0.0398 -2.6729
19434SOL     OW60680   8.995   8.187   6.734  0.0418 -0.6109  0.5593
19434SOL    HW160681   8.984   8.165   6.642 -1.5464  0.4969  0.4527
19434SOL    HW260682   8.974   8.280   6.740 -0.3192 -0.7543  2.1110
19435SOL     OW60683   2.028   2.561   3.875  0.1868 -0.1843 -0.1797
19435SOL    HW160684   1.936   2.565   3.849 -0.5144 -0.2639  2.0445
19435SOL    HW260685   2.038   2.476   3.917  0.6318  0.7376  1.6909
19436SOL     OW60686   3.959   8.437   3.864 -0.5320  0.9215 -0.1097
19436SOL    HW160687   3.974   8.369   3.929 -1.4670  0.7424 -0.0756
19436SOL    HW260688   4.047   8.471   3.845  0.4791 -2.5215 -2.5837
19437SOL     OW60689   7.177   1.832   4.572  0.1691 -0.0568 -0.4786
19437SOL    HW160690   7.202   1.913   4.618 -0.1457 -0.5755  0.6367
19437SOL    HW260691   7.250   1.772   4.588 -0.0350 -0.3083 -0.4924
19438SOL     OW60692   6.662   5.495   6.215  0.7066 -0.5082 -0.1252
19438SOL    HW160693   6.745   5.527   6.179  1.0559  1.2717  2.0213
19438SOL    HW260694   6.686   5.419   6.268  1.0825  0.3206  0.9186
19439SOL     OW60695   4.149   6.561   6.375 -0.0838 -0.0153 -0.1065
19439SOL    HW160696   4.095   6.601   6.307 -0.3666 -1.0825 -0.5399
19439SOL    HW260697   4.237   6.595   6.360 -0.2014 -0.0265 -0.8363
19440SOL     OW60698   8.926   9.469   8.402  0.0224 -0.4861  0.6052
19440SOL    HW160699   8.871   9.399   8.367 -3.2003  2.5344 -0.9451
19440SOL    HW260700   8.986   9.490   8.331 -0.7705 -0.0121  0.0591
19441SOL     OW60701   7.319   0.795  10.221  0.0698  0.2661  0.5054
19441SOL    HW160702   7.294   0.703  10.210 -0.0606 -0.1601  3.6227
19441SOL    HW260703   7.410   0.799  10.192 -0.3288 -0.4859 -0.9686
19442SOL     OW60704   2.198   9.636   9.289  0.1499 -0.5345 -0.7755
19442SOL    HW160705   2.183   9.705   9.354 -1.0277 -0.6157 -0.9359
19442SOL    HW260706   2.277   9.591   9.319  0.8848  0.8146 -0.6180
19443SOL     OW60707   6.994   9.801   4.296 -0.4940  0.0012 -0.4644
19443SOL    HW160708   6.922   9.770   4.240 -1.8715 -0.0928  1.2572
19443SOL    HW260709   7.073   9.777   4.248 -1.5794 -1.0429 -1.8558
19444SOL     OW60710   5.568   9.769   3.293 -0.0166  0.0223  0.4088
19444SOL    HW160711   5.607   9.785   3.207 -1.1590  1.3796  0.1098
19444SOL    HW260712   5.475   9.790   3.282 -0.5123 -1.4048  1.5613
19445SOL     OW60713   3.681   2.559   9.367 -0.0687  0.4964  0.8777
19445SOL    HW160714   3.700   2.641   9.320  2.3076 -0.1974  0.4851
19445SOL    HW260715   3.760   2.543   9.419 -1.7924  0.1326  3.5534
19446SOL     OW60716   3.711   4.192   6.139  0.2260 -0.0109 -0.0971
19446SOL    HW160717   3.719   4.099   6.117 -0.5531 -0.0349 -0.3112
19446SOL    HW260718   3.783   4.234   6.093  1.5845 -0.7139  1.3174
19447SOL     OW60719   0.436   8.157   3.481  0.6353 -0.3524  0.5648
19447SOL    HW160720   0.399   8.086   3.430 -1.3051  0.2413  1.0693
19447SOL    HW260721   0.440   8.231   3.420  0.6098 -0.2999  0.6270
19448SOL     OW60722   2.126   7.784   3.878  0.8288 -0.7193  0.0590
19448SOL    HW160723   2.031   7.783   3.869  0.7859 -0.5430  0.4646
19448SOL    HW260724   2.143   7.735   3.959  1.0164  0.1038  0.5292
19449SOL     OW60725   8.322   8.078   2.564 -0.0096  0.1229 -0.1676
19449SOL    HW160726   8.308   8.015   2.493  1.2500  0.6835 -0.9485
19449SOL    HW260727   8.358   8.026   2.635 -1.0303 -0.3998 -0.0062
19450SOL     OW60728   6.055   7.002   9.781  0.0641 -0.1147  0.2596
19450SOL    HW160729   6.113   6.927   9.767 -1.5415 -1.4543  0.5501
19450SOL    HW260730   6.036   7.034   9.693 -1.4202 -1.7927 -0.0755
19451SOL     OW60731   7.205   9.744   7.780 -0.4263 -0.7803  0.1946
19451SOL    HW160732   7.244   9.809   7.839 -0.7670 -0.3681 -0.0261
19451SOL    HW260733   7.161   9.682   7.838 -0.6405 -0.4551  0.3845
19452SOL     OW60734   3.036   6.348   7.190  0.7214 -0.3259 -0.6583
19452SOL    HW160735   3.071   6.370   7.277  0.8198 -1.0566 -0.5042
19452SOL    HW260736   2.970   6.281   7.208  1.3709 -1.1457 -1.2148
19453SOL     OW60737   6.211   7.206   7.106 -0.4291 -0.1170 -0.1887
19453SOL    HW160738   6.152   7.236   7.037 -0.5567 -0.9045 -0.4355
19453SOL    HW260739   6.224   7.113   7.088  1.8558  0.2626 -0.8734
19454SOL     OW60740   1.409   3.989   8.379 -0.6786  0.0975  0.0907
19454SOL    HW160741   1.487   3.999   8.325 -0.8784  0.9848 -0.0636
19454SOL    HW260742   1.422   3.907   8.427 -0.5697 -0.8071 -1.4210
19455SOL     OW60743   2.641   5.519   1.331 -0.2430  0.3409  0.4388
19455SOL    HW160744   2.581   5.475   1.392  0.1816  1.4787  1.7258
19455SOL    HW260745   2.603   5.606   1.318  0.8801  0.9371  0.9558
19456SOL     OW60746   7.577   2.209   5.948 -0.3160 -0.0899  0.2810
19456SOL    HW160747   7.551   2.201   5.856  0.8182  0.8288 -0.1417
19456SOL    HW260748   7.610   2.122   5.971 -0.5196 -0.3012 -0.1979
19457SOL     OW60749   5.869  10.232   1.700  0.3235  0.1188 -0.6658
19457SOL    HW160750   5.916  10.149   1.713  1.2890  0.8011  0.3350
19457SOL    HW260751   5.776  10.207   1.701  0.5721 -1.3433 -3.2016
19458SOL     OW60752   7.634   8.995   9.438  0.1313 -0.2141 -0.1955
19458SOL    HW160753   7.652   9.089   9.430 -0.3223 -0.1531 -0.5367
19458SOL    HW260754   7.544   8.985   9.408  0.8525 -1.0552 -2.3270
19459SOL     OW60755   0.279   0.039   9.121 -0.4335  0.8846  0.0508
19459SOL    HW160756   0.258  -0.052   9.097  3.3528 -0.1154 -0.1012
19459SOL    HW260757   0.326   0.073   9.045  0.1730  2.2080  0.9899
19460SOL     OW60758   6.895   6.281   5.955  0.0689 -0.3671 -0.4855
19460SOL    HW160759   6.922   6.281   6.047 -0.3777  1.0653 -0.3325
19460SOL    HW260760   6.913   6.191   5.925  3.1730 -0.0892  0.1370
19461SOL     OW60761   9.164   1.172   4.416 -0.0412  0.4469 -0.0776
19461SOL    HW160762   9.236   1.115   4.441 -2.1905 -1.9888  1.0755
19461SOL    HW260763   9.159   1.164   4.321  0.2598 -0.6005 -0.0161
19462SOL     OW60764   1.501   4.275  10.728 -0.1305  0.3485  0.0852
19462SOL    HW160765   1.478   4.269  10.635 -0.0169 -0.1944  0.0903
19462SOL    HW260766   1.586   4.233  10.734 -0.1748  0.3108  0.4507
19463SOL     OW60767   6.961   5.601   1.164 -0.5919  0.4467 -0.0690
19463SOL    HW160768   6.995   5.528   1.113  0.4806  2.0855 -1.8520
19463SOL    HW260769   7.035   5.662   1.172 -0.8277  0.4795  3.1799
19464SOL     OW60770   6.467   2.106   9.314 -0.5966 -0.1723 -0.0025
19464SOL    HW160771   6.475   2.111   9.409  0.0875  0.6233 -0.0913
19464SOL    HW260772   6.375   2.088   9.299 -1.4825  3.0485  0.7500
19465SOL     OW60773  10.336   7.668   3.825 -0.2117  0.5160 -0.0419
19465SOL    HW160774  10.372   7.716   3.750  0.8728  0.2725  0.3070
19465SOL    HW260775  10.396   7.594   3.838 -1.0653 -0.1417  0.3161
19466SOL     OW60776   6.252   6.652   0.474  0.0938  0.4581  0.2845
19466SOL    HW160777   6.194   6.610   0.410 -0.2334 -0.0630  0.9179
19466SOL    HW260778   6.247   6.596   0.551  2.0113 -0.0071  0.1124
19467SOL     OW60779   9.763   1.285   3.649 -0.0404 -0.2280  0.3192
19467SOL    HW160780   9.715   1.255   3.572 -0.0609 -0.5196  0.4462
19467SOL    HW260781   9.786   1.205   3.696 -0.3625 -0.0294  0.8186
19468SOL     OW60782   0.530   1.425   1.061  0.2787  0.4346  0.3151
19468SOL    HW160783   0.578   1.431   0.979 -0.5116  0.1761 -0.1732
19468SOL    HW260784   0.505   1.333   1.068 -1.1740  0.7742 -0.0526
19469SOL     OW60785  10.242   0.569  10.143  0.0672  0.0253  0.4180
19469SOL    HW160786  10.300   0.493  10.133  0.1321 -0.0720  1.4396
19469SOL    HW260787  10.279   0.635  10.085 -0.1553 -0.8048 -0.7124
19470SOL     OW60788   9.250   6.633   4.743  0.0077 -0.5301  0.1860
19470SOL    HW160789   9.262   6.541   4.766 -1.5355 -0.9343 -0.4898
19470SOL    HW260790   9.211   6.672   4.822 -0.6717 -0.8002 -0.0036
19471SOL     OW60791   7.734   9.891   7.315 -0.4494 -0.0893  0.0038
19471SOL    HW160792   7.639   9.887   7.304 -0.3825  0.1115 -0.7176
19471SOL    HW260793   7.748   9.886   7.410 -1.2853  1.7509  0.2643
19472SOL     OW60794   7.372   8.194   3.502 -0.6327 -0.1938  0.4916
19472SOL    HW160795   7.467   8.192   3.491 -0.6501  0.4260  0.1621
19472SOL    HW260796   7.340   8.241   3.425 -1.3972 -2.2748 -0.5400
19473SOL     OW60797   2.461   6.113   1.407 -0.2234 -0.0351 -0.0814
19473SOL    HW160798   2.422   6.199   1.398 -0.0157  0.3523  2.2960
19473SOL    HW260799   2.412   6.070   1.477  2.2883 -0.2413  1.6789
19474SOL     OW60800   8.692   3.743   9.492  0.6631  0.0887  0.5090
19474SOL    HW160801   8.657   3.748   9.403 -0.1316 -1.5363  0.6911
19474SOL    HW260802   8.780   3.706   9.481  0.4158 -0.4735  0.4363
19475SOL     OW60803   0.567   2.168   9.808 -0.4729 -0.2345  0.3242
19475SOL    HW160804   0.490   2.223   9.822 -0.2348  0.7981 -2.0048
19475SOL    HW260805   0.541   2.082   9.842 -2.6165  0.1293 -0.2342
19476SOL     OW60806   4.194   1.480  10.561  0.7052  0.1506  0.3103
19476SOL    HW160807   4.186   1.416  10.489 -0.4158 -0.7338  1.1765
19476SOL    HW260808   4.171   1.430  10.639  0.6658  1.4141  1.1244
19477SOL     OW60809   0.199  10.115  10.209 -0.5500  0.7362 -0.1635
19477SOL    HW160810   0.179  10.113  10.302  1.3687 -1.3189  0.2945
19477SOL    HW260811   0.266  10.182  10.200  0.9658 -0.6105  0.4273
19478SOL     OW60812   8.301   6.147   1.242  0.2321 -0.2304  0.0357
19478SOL    HW160813   8.206   6.164   1.243  0.0952 -0.8583  1.5140
19478SOL    HW260814   8.324   6.141   1.335  1.6996 -0.2392 -0.3161
19479SOL     OW60815   6.123   0.819   1.942 -0.2454 -0.0322 -0.1764
19479SOL    HW160816   6.042   0.862   1.918 -1.9193 -2.9584 -0.3071
19479SOL    HW260817   6.098   0.727   1.955  2.8443 -0.8432  0.9005
19480SOL     OW60818   2.242   3.719  10.468 -0.0936 -0.0535  0.5331
19480SOL    HW160819   2.183   3.650  10.498 -1.3828  0.0387 -1.6315
19480SOL    HW260820   2.186   3.796  10.457  0.3527  0.0319 -1.5679
19481SOL     OW60821   0.821   0.756   0.517  0.0060 -0.7757  0.4179
19481SOL    HW160822   0.775   0.839   0.503  1.8893  0.0791 -1.1939
19481SOL    HW260823   0.755   0.699   0.556 -2.3621  0.4055 -1.5755
19482SOL     OW60824   0.558   4.728   3.075 -0.0304 -0.2524 -0.5037
19482SOL    HW160825   0.479   4.727   3.021  0.3025  2.2145 -1.1683
19482SOL    HW260826   0.593   4.817   3.065  1.4689 -0.5054  1.7529
19483SOL     OW60827   2.507   2.941   8.199 -0.9646 -0.1452  0.3068
19483SOL    HW160828   2.450   2.884   8.147 -0.6125 -0.4169  0.2160
19483SOL    HW260829   2.531   3.011   8.138 -1.8976  0.4563  0.5959
19484SOL     OW60830  10.688   6.359   3.136  0.0227  0.6121 -0.3886
19484SOL    HW160831  10.637   6.429   3.097 -3.9818 -1.8655 -0.1514
19484SOL    HW260832  10.731   6.316   3.062 -0.8637  0.8360 -1.0474
19485SOL     OW60833   3.789   2.427   7.884 -0.3738 -0.3308  0.2175
19485SOL    HW160834   3.770   2.334   7.870  0.8251 -0.5600 -0.0293
19485SOL    HW260835   3.885   2.430   7.892 -0.2868  1.0539 -1.0651
19486SOL     OW60836   8.020   2.657   6.187 -0.2551 -0.2974  0.1256
19486SOL    HW160837   8.071   2.647   6.268 -0.1430  0.5279  0.1680
19486SOL    HW260838   7.937   2.695   6.216 -0.1941  0.0484 -0.1429
19487SOL     OW60839  10.110   7.281   5.862  0.0921  0.1604 -0.0942
19487SOL    HW160840  10.110   7.361   5.810 -0.9828  1.1407  1.3303
19487SOL    HW260841  10.027   7.283   5.910 -0.4216 -2.3034 -0.7290
19488SOL     OW60842   8.537   2.687   2.497  0.7488 -0.2915  0.1732
19488SOL    HW160843   8.457   2.740   2.505  0.1249 -1.2251  0.2015
19488SOL    HW260844   8.568   2.678   2.587  0.4770 -0.5568  0.2388
19489SOL     OW60845   6.036   1.858   9.121 -0.5505 -1.0483  0.1983
19489SOL    HW160846   5.976   1.897   9.186  0.2402  0.1566  0.2434
19489SOL    HW260847   6.009   1.898   9.038  0.2380 -0.4222  0.2348
19490SOL     OW60848   9.111   5.878   0.172  0.2660 -0.1793 -0.0588
19490SOL    HW160849   9.082   5.878   0.264  1.2636  0.0687  0.2646
19490SOL    HW260850   9.163   5.958   0.164  0.7278 -0.5412 -0.6730
19491SOL     OW60851  10.054   4.066   3.070 -0.0222 -0.2059  0.2472
19491SOL    HW160852  10.076   3.996   3.007  0.3263  0.8256 -0.8099
19491SOL    HW260853  10.126   4.128   3.062 -1.4517  1.4260 -0.5544
19492SOL     OW60854   3.784   3.731   3.962  0.9319  0.0742  0.0958
19492SOL    HW160855   3.757   3.769   3.878  0.3213  0.4698  0.4555
19492SOL    HW260856   3.869   3.692   3.945 -0.4449 -2.5350 -1.4983
19493SOL     OW60857   9.317   6.659   5.449 -0.3962  0.3650  0.1189
19493SOL    HW160858   9.408   6.628   5.458 -0.3526  0.2390 -0.6529
19493SOL    HW260859   9.286   6.669   5.539  0.8086  1.6914  0.4195
19494SOL     OW60860  10.055   2.227   6.029  0.0507 -0.0064 -0.4207
19494SOL    HW160861  10.099   2.310   6.014 -0.3038  0.8455  2.5122
19494SOL    HW260862   9.988   2.222   5.961  0.0990  2.1051 -0.6763
19495SOL     OW60863   1.383   9.658   1.763  0.2910 -0.2870  0.4674
19495SOL    HW160864   1.371   9.753   1.759  1.8137 -0.1027 -2.0872
19495SOL    HW260865   1.358   9.627   1.676  0.4608 -2.1530  1.0307
19496SOL     OW60866   3.164   5.275   3.962 -1.3289  0.1526  0.2807
19496SOL    HW160867   3.134   5.360   3.994 -2.7121  0.0270 -0.6145
19496SOL    HW260868   3.182   5.289   3.869  2.9660  0.5995  0.9755
19497SOL     OW60869  10.662   9.722   5.221 -0.3100 -0.1448  0.5856
19497SOL    HW160870  10.653   9.653   5.287 -0.8908 -0.2074  0.4501
19497SOL    HW260871  10.594   9.702   5.157  0.0620  0.0808  0.1141
19498SOL     OW60872   6.655   4.440   3.510  0.3815  0.1835  0.4721
19498SOL    HW160873   6.571   4.444   3.463 -0.6928 -0.4614  2.2119
19498SOL    HW260874   6.638   4.488   3.591  1.3751 -0.8141  1.2957
19499SOL     OW60875   7.119   0.156   9.708 -0.4970 -0.2477 -0.2787
19499SOL    HW160876   7.192   0.178   9.650 -1.7033  1.1031 -1.3646
19499SOL    HW260877   7.047   0.138   9.648 -1.7431  1.0269  0.7844
19500SOL     OW60878   1.218   5.318   9.041  0.1533 -0.5887  0.5385
19500SOL    HW160879   1.203   5.378   9.114 -1.5728 -0.5978  0.2290
19500SOL    HW260880   1.154   5.345   8.975  1.5671 -0.6831 -0.9267
19501SOL     OW60881   2.805   5.898   4.292 -0.2166 -0.0625 -0.0507
19501SOL    HW160882   2.872   5.962   4.269  0.8027  0.1774  3.1424
19501SOL    HW260883   2.853   5.815   4.298 -0.7706 -0.4124 -0.3809
19502SOL     OW60884   6.909   0.222   0.734  0.0153  0.0972 -0.5041
19502SOL    HW160885   6.970   0.246   0.803  0.1436 -0.3283 -0.4671
19502SOL    HW260886   6.878   0.305   0.698  0.5890  0.3109 -0.4978
19503SOL     OW60887   1.038   0.372   7.640  0.1045 -0.5662 -0.0973
19503SOL    HW160888   0.964   0.315   7.617 -0.3990  0.7921 -2.0874
19503SOL    HW260889   1.022   0.395   7.732 -2.2905  0.1114 -0.6046
19504SOL     OW60890   4.538   0.898   4.165  0.0878 -0.1372  0.1814
19504SOL    HW160891   4.498   0.910   4.251  0.5689 -1.2774  0.5851
19504SOL    HW260892   4.595   0.974   4.154 -0.0370  0.0574  0.8367
19505SOL     OW60893   2.886   4.986   1.783  0.3593 -0.8168  0.1859
19505SOL    HW160894   2.825   5.059   1.782 -0.0334 -0.9887  3.1508
19505SOL    HW260895   2.948   5.006   1.713 -0.6060  1.5653 -0.0908
19506SOL     OW60896   5.498   0.623   8.426 -0.6597 -0.2843  0.3123
19506SOL    HW160897   5.509   0.528   8.419  2.0650 -0.0377  0.4309
19506SOL    HW260898   5.403   0.636   8.424 -1.0801 -2.9128 -0.7912
19507SOL     OW60899   4.023   6.685   6.586 -0.0410  0.1731  0.3074
19507SOL    HW160900   4.053   6.665   6.497  0.5626 -1.3198  0.8065
19507SOL    HW260901   3.928   6.695   6.578  0.2385  2.5080 -0.8821
19508SOL     OW60902   3.210   3.290   6.802 -0.1528 -0.2372 -0.3054
19508SOL    HW160903   3.241   3.231   6.734  0.7306 -0.0278 -0.1058
19508SOL    HW260904   3.142   3.240   6.848  1.4333 -1.6311  0.6649
19509SOL     OW60905   0.955   8.712   4.542 -0.0764 -0.0078  0.2075
19509SOL    HW160906   1.010   8.670   4.609  0.2642 -0.8574 -0.5847
19509SOL    HW260907   1.011   8.717   4.465 -0.4842  0.9200 -0.0353
19510SOL     OW60908   2.174   4.862  10.786  0.2366 -0.0268  0.5392
19510SOL    HW160909   2.142   4.864  10.696  1.9113  0.8140 -0.0531
19510SOL    HW260910   2.160   4.950  10.819 -2.2737 -0.8024  1.8622
19511SOL     OW60911   0.399   0.528   6.009  0.6271  0.1883  0.0082
19511SOL    HW160912   0.352   0.611   5.998 -0.3566  0.3297  3.7462
19511SOL    HW260913   0.337   0.462   5.979  0.2924  0.6809 -0.4018
19512SOL     OW60914   9.070  10.029   7.412 -0.0788 -0.4874  0.0212
19512SOL    HW160915   9.068  10.103   7.351 -0.1771 -0.5829 -0.0915
19512SOL    HW260916   9.134   9.968   7.375  1.9338  0.6568  1.4158
19513SOL     OW60917   4.208   7.487   6.176  0.1617  0.1420  0.1286
19513SOL    HW160918   4.251   7.545   6.113 -2.1655  1.3120 -0.5034
19513SOL    HW260919   4.176   7.414   6.124  1.6177 -0.9140  0.6547
19514SOL     OW60920   7.584   5.376   7.935  0.1289 -0.4601  0.2954
19514SOL    HW160921   7.596   5.302   7.994 -1.5716 -1.5676 -0.6615
19514SOL    HW260922   7.489   5.388   7.931  0.2121 -0.1636 -1.8759
19515SOL     OW60923   1.556   0.370   3.322  0.0250  0.3905 -0.0586
19515SOL    HW160924   1.572   0.361   3.416 -0.3717 -0.7251 -0.0794
19515SOL    HW260925   1.492   0.441   3.315 -0.2782  0.1827  0.5496
19516SOL     OW60926   3.867   7.437   4.242 -0.0361 -0.0285 -0.4877
19516SOL    HW160927   3.866   7.531   4.261 -1.1903  0.1478 -1.2875
19516SOL    HW260928   3.854   7.432   4.148  0.2464 -0.9958 -0.4816
19517SOL     OW60929   5.760  10.732   0.256 -0.0815  0.0932  0.6561
19517SOL    HW160930   5.734  10.784   0.179 -1.6972 -0.0913  1.0437
19517SOL    HW260931   5.856  10.731   0.252 -0.0919  0.9148 -0.8049
19518SOL     OW60932   2.495   6.244   6.964  0.2426  0.4075  0.5570
19518SOL    HW160933   2.465   6.195   6.888 -0.7784  0.6419  0.7871
19518SOL    HW260934   2.583   6.274   6.940  0.2314 -0.1482 -0.2247
19519SOL     OW60935   1.732   3.943   6.952  0.1931 -0.1991  0.3305
19519SOL    HW160936   1.737   4.016   6.891 -0.4219 -1.0910 -0.8053
19519SOL    HW260937   1.819   3.902   6.948 -0.3021 -1.1883 -1.1652
19520SOL     OW60938   9.915   7.295   0.844  0.5579  0.5915  0.9983
19520SOL    HW160939   9.955   7.209   0.830  2.4236  1.4953  0.4274
19520SOL    HW260940   9.823   7.283   0.820  1.1159 -0.8689 -0.6216
19521SOL     OW60941   6.461   8.500   3.351  0.0103  0.0711 -0.1911
19521SOL    HW160942   6.461   8.464   3.439  0.8443 -0.3127 -0.3364
19521SOL    HW260943   6.529   8.568   3.353  1.3173 -1.1419 -0.9907
19522SOL     OW60944   4.411   2.356   7.665  0.1385  0.8195 -0.0577
19522SOL    HW160945   4.400   2.374   7.572 -0.1762  1.8138  0.1562
19522SOL    HW260946   4.489   2.406   7.690 -0.3342  1.3389  0.4073
19523SOL     OW60947   9.460   8.142   2.703 -0.2846 -0.4950  0.1801
19523SOL    HW160948   9.380   8.090   2.698 -1.6037  1.2561  1.6796
19523SOL    HW260949   9.521   8.088   2.754 -1.3509 -0.8957  1.0663
19524SOL     OW60950   9.267   9.796  10.051  0.3313  0.4613  0.3776
19524SOL    HW160951   9.233   9.707  10.041  0.1648  0.6591 -0.9850
19524SOL    HW260952   9.243   9.821  10.140  0.7097 -0.9858  0.9125
19525SOL     OW60953   1.164   5.992   8.998  0.3025 -0.0693 -0.1575
19525SOL    HW160954   1.239   5.934   8.984  0.8488  0.6941 -0.3961
19525SOL    HW260955   1.180   6.032   9.083 -1.0366 -1.6873  0.9355
19526SOL     OW60956   0.802  10.615   0.841  0.6537  0.3375 -0.5552
19526SOL    HW160957   0.881  10.603   0.787  0.8535  0.8313 -0.3737
19526SOL    HW260958   0.783  10.708   0.837  1.8073  0.7679  1.7706
19527SOL     OW60959  10.549   0.333   7.939 -0.0619  0.1572 -0.3077
19527SOL    HW160960  10.550   0.320   7.844 -2.0407 -0.8789 -0.2362
19527SOL    HW260961  10.507   0.254   7.974  0.3829  0.6323  1.4215
19528SOL     OW60962   2.454   6.936   4.797 -0.1632  0.4065  0.1802
19528SOL    HW160963   2.377   6.988   4.777 -0.2923  0.3513  0.5400
19528SOL    HW260964   2.440   6.904   4.886  0.4425  0.6989  0.3845
19529SOL     OW60965  10.305   5.519  10.312  0.0230 -0.1527 -0.1728
19529SOL    HW160966  10.327   5.549  10.223 -1.6389 -1.0519 -0.9279
19529SOL    HW260967  10.381   5.544  10.365  1.4661 -0.4022 -2.0156
19530SOL     OW60968   3.035   3.616   6.353  0.0399  0.0139 -0.0975
19530SOL    HW160969   3.045   3.675   6.427 -1.4397 -0.8695  0.8752
19530SOL    HW260970   3.118   3.569   6.347  1.0674  1.8340 -0.6056
19531SOL     OW60971  10.214   0.662   0.080 -0.5504  0.1787 -0.1768
19531SOL    HW160972  10.209   0.754   0.054 -0.8497  0.1354 -0.2785
19531SOL    HW260973  10.264   0.620   0.009  0.8846  0.5217  0.5887
19532SOL     OW60974   3.266   1.802   7.568  0.0911 -0.1511  0.0229
19532SOL    HW160975   3.291   1.777   7.657  2.1026  2.0244  0.1924
19532SOL    HW260976   3.213   1.881   7.580 -0.0612 -0.1409 -0.6859
19533SOL     OW60977  10.460   1.940   8.986  0.4701 -0.3207  0.9936
19533SOL    HW160978  10.468   2.026   8.945  1.1025 -0.7307  0.2349
19533SOL    HW260979  10.550   1.908   8.991  0.1326 -1.4321  0.2022
19534SOL     OW60980   7.981  10.197   5.364  0.5748  0.0650 -0.4339
19534SOL    HW160981   7.922  10.261   5.324  0.1179  0.3259  0.6204
19534SOL    HW260982   7.976  10.216   5.458  1.8651 -0.3134 -0.2715
19535SOL     OW60983   4.834   7.104   0.047  0.3401 -0.3327 -0.6035
19535SOL    HW160984   4.915   7.104  -0.004  1.3797 -1.6779  0.9735
19535SOL    HW260985   4.779   7.171   0.005  2.9942  2.0660 -0.5127
19536SOL     OW60986   5.138   3.988   4.995  0.4256  0.2771  0.5590
19536SOL    HW160987   5.045   3.975   4.979  0.3801  1.5127 -0.3497
19536SOL    HW260988   5.182   3.923   4.939  0.1412  1.2468 -0.8379
19537SOL     OW60989   0.913   3.608   4.810 -0.6110 -0.3749 -0.0094
19537SOL    HW160990   0.851   3.577   4.875  0.4137  0.4990  1.4453
19537SOL    HW260991   0.972   3.534   4.795  0.4358  0.0540  1.7124
19538SOL     OW60992   8.611   1.975   4.382 -0.2656  0.1176  0.1018
19538SOL    HW160993   8.597   1.901   4.323 -0.2029  0.1086  0.0979
19538SOL    HW260994   8.705   1.976   4.398 -0.4126 -0.5996  1.1202
19539SOL     OW60995   9.137   1.652   4.941  0.5172 -0.6068  0.7907
19539SOL    HW160996   9.124   1.593   4.866 -0.7935 -1.6708  1.8034
19539SOL    HW260997   9.066   1.630   5.001 -0.0978  2.1231  1.1870
19540SOL     OW60998   1.304   8.275  10.494 -0.5942 -0.2828  0.2827
19540SOL    HW160999   1.358   8.197  10.505 -1.2986 -0.8342 -0.0639
19540SOL    HW261000   1.225   8.243  10.450 -1.6729  0.3043  1.7066
19541SOL     OW61001   5.817   9.967  10.159  0.7180  0.0413  0.2282
19541SOL    HW161002   5.806   9.918  10.077  2.6009  0.9042 -0.5883
19541SOL    HW261003   5.773   9.913  10.225 -0.4448 -0.8976 -1.2595
19542SOL     OW61004   4.214   3.084   7.103 -0.5855 -0.5309  0.4039
19542SOL    HW161005   4.180   3.040   7.025 -0.8417  0.8570 -0.3099
19542SOL    HW261006   4.233   3.173   7.073  0.6746 -0.3726  1.5928
19543SOL     OW61007   4.187   7.761   4.206  0.3655  0.8781  0.2632
19543SOL    HW161008   4.281   7.781   4.209  1.1679 -2.3694  0.5415
19543SOL    HW261009   4.158   7.772   4.296  1.0796 -0.4006  0.6721
19544SOL     OW61010   0.017  10.531   6.322  0.3686  0.1888 -0.4444
19544SOL    HW161011   0.026  10.437   6.339  0.1518  0.4962  1.7114
19544SOL    HW261012  -0.066  10.539   6.276  0.3849 -0.6611 -0.6475
19545SOL     OW61013   4.247   7.367  10.563 -0.0171 -0.0345 -0.4060
19545SOL    HW161014   4.267   7.312  10.486  0.1914  0.4080 -0.6728
19545SOL    HW261015   4.218   7.450  10.526 -2.0789 -0.5293 -0.0291
19546SOL     OW61016  10.652  10.486   4.558 -0.3492 -0.4917  0.4657
19546SOL    HW161017  10.596  10.449   4.489 -2.9999 -1.5059  2.9470
19546SOL    HW261018  10.599  10.555   4.597 -0.0427 -1.5843  3.0320
19547SOL     OW61019   5.818   2.940   9.818  0.0099 -0.2229  0.6139
19547SOL    HW161020   5.827   2.970   9.727  0.2069 -2.0740 -0.0139
19547SOL    HW261021   5.798   3.020   9.867 -1.1901  0.6670 -1.2034
19548SOL     OW61022   2.569   3.743   5.049 -0.0337  0.0617  0.0487
19548SOL    HW161023   2.591   3.650   5.052 -2.1457 -0.4657  0.6104
19548SOL    HW261024   2.644   3.787   5.090  0.4246 -1.5199  0.9889
19549SOL     OW61025   5.603   1.923   9.410 -0.6930 -0.0580 -0.0703
19549SOL    HW161026   5.594   1.828   9.411 -1.1248 -0.0133  0.4374
19549SOL    HW261027   5.515   1.956   9.392 -0.9356  0.2859  1.6012
19550SOL     OW61028   4.012   2.919   0.114  0.3042  0.3316 -0.1041
19550SOL    HW161029   4.040   2.834   0.081  1.4860  0.2684  1.0064
19550SOL    HW261030   3.927   2.901   0.154  0.0746 -0.1049 -0.7592
19551SOL     OW61031   0.589   9.167   4.378  0.0585  0.5678  0.2021
19551SOL    HW161032   0.619   9.152   4.288 -0.3780  0.5552  0.0538
19551SOL    HW261033   0.505   9.213   4.368 -0.3031  0.0087  0.5888
19552SOL     OW61034   5.528   1.018   9.116 -0.4149  0.3659  0.2654
19552SOL    HW161035   5.599   0.988   9.173 -0.6387  0.3039  0.5127
19552SOL    HW261036   5.479   1.080   9.170  0.7045  2.0965 -0.5846
19553SOL     OW61037   5.102   4.883   5.171  0.2042  0.0498  0.2673
19553SOL    HW161038   5.089   4.806   5.226  1.3693  0.9398  1.8382
19553SOL    HW261039   5.038   4.947   5.203 -0.7629 -0.2099 -1.0325
19554SOL     OW61040   3.784   9.451   9.812 -0.4013  0.2286  0.7274
19554SOL    HW161041   3.814   9.505   9.885  2.0305  1.3266 -0.9511
19554SOL    HW261042   3.812   9.362   9.835 -1.9727  0.0582  2.2319
19555SOL     OW61043   5.216   9.622   8.695 -0.1784 -0.0032 -0.3168
19555SOL    HW161044   5.255   9.701   8.732 -0.2499  0.2700 -0.8188
19555SOL    HW261045   5.133   9.652   8.657  0.1737 -0.1634 -1.2311
19556SOL     OW61046   3.487   4.857   7.768  0.1047 -0.4834 -0.5291
19556SOL    HW161047   3.442   4.785   7.811 -0.9257  0.6253  0.3159
19556SOL    HW261048   3.579   4.844   7.790 -0.3785  0.0567  2.1450
19557SOL     OW61049   5.031  10.333   1.014  0.0916  0.3369  0.4067
19557SOL    HW161050   4.973  10.402   1.047 -0.5621  0.4427 -0.8907
19557SOL    HW261051   5.106  10.335   1.072 -1.2704  0.0547  2.2831
19558SOL     OW61052   8.194  10.714   3.973 -0.2144  0.0148 -0.7301
19558SOL    HW161053   8.267  10.745   3.920  0.1666 -1.5965 -1.2039
19558SOL    HW261054   8.170  10.630   3.935 -2.0664  0.3102 -0.3270
19559SOL     OW61055   5.620   6.159   4.087 -0.1341 -0.0040 -0.1990
19559SOL    HW161056   5.582   6.247   4.088  1.1206  0.5603  0.2176
19559SOL    HW261057   5.712   6.173   4.108 -0.1023 -1.5115  0.7793
19560SOL     OW61058   4.978   3.555   5.976 -0.0061  1.2808  0.9257
19560SOL    HW161059   4.988   3.651   5.980  0.2938  1.2335  1.4084
19560SOL    HW261060   5.045   3.522   6.037  0.6618  0.7164 -0.0899
19561SOL     OW61061   3.096  10.463   5.366 -0.4546  0.2331  0.1532
19561SOL    HW161062   3.174  10.448   5.311 -0.8983 -0.2145 -0.3742
19561SOL    HW261063   3.123  10.434   5.453  0.3633  1.2417  0.2538
19562SOL     OW61064   2.120   3.455   8.666 -0.2082 -0.2624  0.3375
19562SOL    HW161065   2.193   3.461   8.605  0.2263 -1.0845  0.7513
19562SOL    HW261066   2.051   3.510   8.628  0.2749 -0.2609 -0.5536
19563SOL     OW61067   2.675   3.052   6.836 -0.3201 -0.2829 -0.1454
19563SOL    HW161068   2.608   3.072   6.902 -0.5691 -1.2136 -0.1090
19563SOL    HW261069   2.652   3.107   6.761 -0.3642  0.3598  0.3276
19564SOL     OW61070  10.581   3.167   3.127  0.1914 -0.2563  0.0916
19564SOL    HW161071  10.674   3.162   3.107  0.2719 -1.2156  0.6451
19564SOL    HW261072  10.542   3.091   3.084  0.0418 -1.1494  1.7345
19565SOL     OW61073   6.516   5.297   9.610 -0.4979 -0.7945  0.7604
19565SOL    HW161074   6.571   5.260   9.679 -1.0454  0.5771  1.9725
19565SOL    HW261075   6.500   5.223   9.551 -1.1869 -2.4090  2.8375
19566SOL     OW61076  10.055   4.389   5.951  0.4403 -0.1056 -0.6990
19566SOL    HW161077  10.097   4.310   5.918  1.2117  0.9362 -2.3134
19566SOL    HW261078   9.962   4.375   5.934  0.2378 -1.6702  1.2978
19567SOL     OW61079   9.541   1.815   2.066  0.1904 -0.4636 -0.5784
19567SOL    HW161080   9.550   1.812   2.161 -0.4705  0.3770 -0.4713
19567SOL    HW261081   9.502   1.901   2.049  0.5238 -0.5064 -1.6279
19568SOL     OW61082   1.228   6.776   6.289  0.2074 -0.0052  0.0208
19568SOL    HW161083   1.167   6.795   6.360 -0.8308  1.6703 -1.2389
19568SOL    HW261084   1.174   6.777   6.210  1.7652  1.0098 -1.0870
19569SOL     OW61085   0.874   4.508  10.273  0.2618 -0.9352 -0.2616
19569SOL    HW161086   0.892   4.509  10.366  0.4398  0.1203 -0.2898
19569SOL    HW261087   0.778   4.516  10.267  0.3815  1.3519 -0.1512
19570SOL     OW61088   4.940   9.590   4.249  0.8473 -0.2807  0.2056
19570SOL    HW161089   4.909   9.552   4.331 -0.0388  0.5583  0.2691
19570SOL    HW261090   5.002   9.658   4.276  2.9361 -2.0127  0.0801
19571SOL     OW61091   7.705   1.301   9.917 -0.1477 -0.6419  0.0071
19571SOL    HW161092   7.711   1.230   9.981 -0.4600 -0.3479  0.3683
19571SOL    HW261093   7.764   1.368   9.950  0.6713 -0.9917 -0.6926
19572SOL     OW61094   6.309   7.635   7.725  0.1343  0.1216  0.0124
19572SOL    HW161095   6.219   7.646   7.694  0.7370  2.5973 -1.0687
19572SOL    HW261096   6.315   7.693   7.801  1.1474  1.0649 -0.7496
19573SOL     OW61097   8.098   4.146   5.085  0.1735  0.2157 -0.0919
19573SOL    HW161098   8.013   4.119   5.120  0.1710  1.3218  0.7967
19573SOL    HW261099   8.082   4.155   4.991 -0.7387  0.5817  0.0853
19574SOL     OW61100   6.297   4.903   7.456 -0.3107  0.3489 -0.1446
19574SOL    HW161101   6.216   4.923   7.503 -0.9326  0.6160 -1.2873
19574SOL    HW261102   6.281   4.818   7.415  0.0726  0.2942 -0.1860
19575SOL     OW61103   0.477   9.290   1.389  0.0520  0.4333  0.1104
19575SOL    HW161104   0.469   9.250   1.303 -0.0145  1.9600 -0.6209
19575SOL    HW261105   0.396   9.266   1.434  0.3936 -0.9633  0.0430
19576SOL     OW61106   1.761   0.989   9.937 -0.1485  0.1213 -0.2422
19576SOL    HW161107   1.837   1.012   9.883 -0.8723  0.9726 -0.9523
19576SOL    HW261108   1.724   0.911   9.895  0.2851 -0.2429  0.0541
19577SOL     OW61109   0.631   5.993   0.683  0.3461  0.3307 -0.3402
19577SOL    HW161110   0.707   6.031   0.728  0.0703  1.7431 -1.0094
19577SOL    HW261111   0.557   6.015   0.738  0.2714  0.0515 -0.3265
19578SOL     OW61112   7.830   0.221   7.358 -0.1827 -0.0559  0.1271
19578SOL    HW161113   7.737   0.202   7.372 -0.2844  1.5177  1.9562
19578SOL    HW261114   7.833   0.316   7.343  1.2907  0.3045  2.2537
19579SOL     OW61115   9.530   2.015   4.436 -0.3710 -0.1513  0.6892
19579SOL    HW161116   9.582   1.952   4.387  0.7858  0.3342  1.2564
19579SOL    HW261117   9.526   2.092   4.380 -2.2152 -0.8548 -0.2279
19580SOL     OW61118   6.397   9.925   4.170  0.3240  0.0629  0.2512
19580SOL    HW161119   6.409   9.933   4.264 -1.5768  0.0588  0.5246
19580SOL    HW261120   6.382   9.831   4.156  0.0118  0.1444  0.0290
19581SOL     OW61121   5.872   2.131   0.799 -0.2692 -0.2155  0.2340
19581SOL    HW161122   5.960   2.168   0.806 -1.1042  2.2049 -0.9287
19581SOL    HW261123   5.814   2.203   0.825 -1.9534 -1.2167 -0.6271
19582SOL     OW61124   1.943   1.370   5.407  0.0780 -0.1305 -0.6073
19582SOL    HW161125   1.924   1.460   5.434 -1.7554 -0.3506 -1.0308
19582SOL    HW261126   1.994   1.380   5.326  1.0215  0.5110  0.0508
19583SOL     OW61127   6.316   0.313   1.648 -0.1952  0.3009 -0.4090
19583SOL    HW161128   6.399   0.298   1.693 -0.4719  0.6674  0.2291
19583SOL    HW261129   6.252   0.263   1.699 -0.3975  0.1352 -0.8157
19584SOL     OW61130   9.560   5.919   6.602 -0.2801  0.2081  0.3236
19584SOL    HW161131   9.532   5.959   6.520 -0.0341  0.8872  0.5647
19584SOL    HW261132   9.570   5.826   6.581 -1.5277  0.1421 -0.0726
19585SOL     OW61133   4.952   1.341   8.845  0.0129 -0.2032  0.2742
19585SOL    HW161134   5.024   1.321   8.905  1.1602  1.4717 -0.4444
19585SOL    HW261135   4.987   1.321   8.759 -1.2696 -1.6444  0.0571
19586SOL     OW61136   0.100  10.538   1.745  0.2345  0.8991 -0.0660
19586SOL    HW161137   0.149  10.591   1.682  1.1250  2.1900  1.6266
19586SOL    HW261138   0.045  10.481   1.691 -1.4093  4.0816 -2.0195
19587SOL     OW61139  10.463   9.061   4.489  0.2425  0.3571 -0.1334
19587SOL    HW161140  10.470   9.125   4.418  1.7210  0.5782  0.1771
19587SOL    HW261141  10.419   9.108   4.560  2.6574  1.5775  0.6473
19588SOL     OW61142   1.621   8.802   6.381  0.3484  0.1355  0.0899
19588SOL    HW161143   1.702   8.760   6.351 -0.0258 -0.2556 -0.3987
19588SOL    HW261144   1.615   8.883   6.331  0.6240  0.3445  0.3947
19589SOL     OW61145   0.753   6.480   6.605 -0.5378  0.6397  0.0146
19589SOL    HW161146   0.837   6.439   6.627 -1.6207 -0.9822  1.3302
19589SOL    HW261147   0.759   6.567   6.644  0.5728  0.6051 -0.0301
19590SOL     OW61148  10.489   2.752   3.868 -0.2089  0.3684 -0.4590
19590SOL    HW161149  10.451   2.684   3.924  0.7561 -0.2609 -0.5455
19590SOL    HW261150  10.415   2.806   3.842 -0.5214  1.6996  2.7428
19591SOL     OW61151   3.777   4.531   3.281  1.1708 -0.0477  0.3945
19591SOL    HW161152   3.764   4.622   3.308 -0.4704  0.5836 -2.0838
19591SOL    HW261153   3.814   4.488   3.357  0.2787  2.2842  2.2825
19592SOL     OW61154   6.895   7.850   8.919 -0.5410 -0.1549  0.4060
19592SOL    HW161155   6.910   7.938   8.884  2.9521 -1.5482 -2.1115
19592SOL    HW261156   6.949   7.847   8.998  0.0875 -0.3127 -0.0257
19593SOL     OW61157   1.300   6.144   3.457 -0.1473 -0.0145 -0.1790
19593SOL    HW161158   1.368   6.191   3.409  1.2271  0.5091  2.1314
19593SOL    HW261159   1.258   6.211   3.512 -0.0241 -0.9619  1.1227
19594SOL     OW61160   4.191   2.818   9.794 -0.0946  0.3112 -0.3268
19594SOL    HW161161   4.183   2.813   9.699 -0.1910  1.2663 -0.3837
19594SOL    HW261162   4.117   2.873   9.822  0.1606  0.3747  0.2503
19595SOL     OW61163   8.422   5.419   2.781  0.6071  0.0343 -0.8422
19595SOL    HW161164   8.393   5.427   2.872  0.2202  0.4132 -0.9973
19595SOL    HW261165   8.354   5.463   2.730 -0.1384 -1.7814 -1.4931
19596SOL     OW61166   4.182   8.506   4.303 -0.1684  0.6076 -0.1485
19596SOL    HW161167   4.255   8.523   4.243 -0.2879  1.0269 -0.1783
19596SOL    HW261168   4.222   8.511   4.390 -0.2939  1.5810 -0.1320
19597SOL     OW61169  10.516   7.812   5.038  0.3038  0.2411  0.5032
19597SOL    HW161170  10.574   7.876   5.080  1.3190 -0.4334  0.1830
19597SOL    HW261171  10.447   7.864   4.999  1.8214  1.3031 -0.9137
19598SOL     OW61172   8.977   6.795   4.461  0.1750  0.2848  0.5025
19598SOL    HW161173   9.060   6.747   4.454 -1.1477 -1.9456 -1.1787
19598SOL    HW261174   8.911   6.726   4.467 -1.7734  1.8978 -1.2582
19599SOL     OW61175   8.621   3.724   8.521 -1.4366  0.4544 -0.2684
19599SOL    HW161176   8.681   3.785   8.564 -1.0372  0.2158 -0.4886
19599SOL    HW261177   8.566   3.690   8.592 -1.5239  0.9080 -0.1133
19600SOL     OW61178   5.841   8.680   1.195 -0.0481 -0.4167 -0.1451
19600SOL    HW161179   5.916   8.686   1.136  1.1062  1.3390  1.3652
19600SOL    HW261180   5.782   8.617   1.154  2.0092 -1.4687 -1.6668
19601SOL     OW61181   4.263   6.661   2.443 -0.4424  0.2555  0.3686
19601SOL    HW161182   4.183   6.619   2.474 -1.1623  1.0123 -0.4013
19601SOL    HW261183   4.331   6.594   2.452 -0.6666  0.2917  3.1278
19602SOL     OW61184   6.373   7.615   5.333  0.2560 -0.0807  0.5678
19602SOL    HW161185   6.305   7.677   5.307  0.1782  0.9522  2.9498
19602SOL    HW261186   6.455   7.660   5.316  0.4503 -1.3109 -2.2680
19603SOL     OW61187   5.911   6.706   3.680 -0.0158  0.0667 -0.2378
19603SOL    HW161188   5.923   6.614   3.705  1.0069 -0.2262 -1.6790
19603SOL    HW261189   5.840   6.737   3.736  0.6123 -1.1798  1.3210
19604SOL     OW61190   2.749   5.850   9.771 -0.5457 -0.2164  0.1962
19604SOL    HW161191   2.752   5.946   9.771 -1.0357 -0.1994  0.1783
19604SOL    HW261192   2.818   5.825   9.832 -0.7691  0.1637  0.6144
19605SOL     OW61193   7.733   0.713   4.692  0.0763 -0.0419  0.2055
19605SOL    HW161194   7.672   0.686   4.623 -0.2936  0.7210  0.2212
19605SOL    HW261195   7.816   0.671   4.668  0.1271  0.7311 -1.0763
19606SOL     OW61196   2.416   1.357   2.818 -0.2727  0.3207  0.2861
19606SOL    HW161197   2.337   1.386   2.863  0.2818  0.8136  0.9561
19606SOL    HW261198   2.487   1.380   2.877  0.3474 -0.5181 -0.1092
19607SOL     OW61199   1.553   9.107   7.537  0.0201 -0.4136  0.3541
19607SOL    HW161200   1.607   9.030   7.558 -0.7389 -0.9289  0.4415
19607SOL    HW261201   1.573   9.170   7.607 -0.2871 -1.0068  0.9836
19608SOL     OW61202   6.996   8.541   7.284  0.0083  0.5033 -0.1511
19608SOL    HW161203   7.071   8.489   7.254  0.7889  1.2261  0.5275
19608SOL    HW261204   6.929   8.526   7.217 -0.3688 -2.6027  0.7342
19609SOL     OW61205   0.118   4.241   8.198  0.2868 -0.3064 -0.3229
19609SOL    HW161206   0.115   4.335   8.217  3.5210 -0.2042  0.3308
19609SOL    HW261207   0.140   4.236   8.105 -0.2982 -0.4235 -0.4539
19610SOL     OW61208   8.958   7.469   2.154 -0.3190  0.9528  0.0371
19610SOL    HW161209   8.890   7.487   2.219  0.7259  2.5502  0.7530
19610SOL    HW261210   8.955   7.544   2.095  0.8642  1.1033  0.1427
19611SOL     OW61211   3.364   1.463   2.542 -1.0663 -0.6101  0.7509
19611SOL    HW161212   3.332   1.375   2.524 -0.8425 -0.8218  1.3451
19611SOL    HW261213   3.438   1.449   2.602  0.4812 -0.1758 -0.9742
19612SOL     OW61214   1.377   6.555   7.796 -0.3657 -0.0893  0.3187
19612SOL    HW161215   1.467   6.587   7.806  0.0259 -1.3298  0.9723
19612SOL    HW261216   1.386   6.459   7.796 -1.7050 -0.2283  0.5924
19613SOL     OW61217   7.234   7.506   9.596 -0.4521 -0.2377  0.1043
19613SOL    HW161218   7.247   7.600   9.604 -0.3786 -0.3712  1.9703
19613SOL    HW261219   7.143   7.496   9.568 -1.0140  0.3750  1.6165
19614SOL     OW61220   0.901   9.679   3.981 -0.0289 -0.1667 -0.1692
19614SOL    HW161221   0.915   9.673   3.886 -1.1551 -1.4570 -0.2907
19614SOL    HW261222   0.808   9.698   3.990  0.3545  1.4335  0.6793
19615SOL     OW61223   4.214   3.486   9.378  0.0959 -0.1163 -0.6360
19615SOL    HW161224   4.206   3.450   9.289  1.0305 -1.0961 -0.3516
19615SOL    HW261225   4.273   3.560   9.368  0.1709 -0.2030 -0.8464
19616SOL     OW61226   4.352   8.638   1.019 -0.4099 -0.1555  0.3924
19616SOL    HW161227   4.408   8.579   0.969 -0.0347 -0.0375  0.6684
19616SOL    HW261228   4.281   8.661   0.959 -1.4680 -2.1560  0.7772
19617SOL     OW61229   3.471   1.266   4.068  0.0019  0.0568  0.0057
19617SOL    HW161230   3.558   1.230   4.052 -0.6276 -0.9495 -1.3713
19617SOL    HW261231   3.462   1.264   4.164  1.2666 -0.3508  0.1411
19618SOL     OW61232   8.223   9.200   7.454  0.0635  0.5230 -0.5500
19618SOL    HW161233   8.315   9.205   7.480 -0.0628  0.1649 -0.0454
19618SOL    HW261234   8.227   9.189   7.359  0.6620 -3.0522 -0.2491
19619SOL     OW61235   2.301   9.527   2.086  0.2426 -0.5222 -0.6047
19619SOL    HW161236   2.363   9.587   2.126  0.9434 -1.1374 -0.7421
19619SOL    HW261237   2.216   9.554   2.120  0.4985  0.7274 -0.8935
19620SOL     OW61238   7.998   2.673   6.872 -0.2546 -0.5853 -0.5206
19620SOL    HW161239   8.028   2.638   6.789 -0.6104 -1.0455 -0.4562
19620SOL    HW261240   7.911   2.635   6.885 -0.8298  0.6131 -0.6431
19621SOL     OW61241   9.333   1.564   5.206  0.6006  0.1994  0.9007
19621SOL    HW161242   9.370   1.649   5.179  0.4329  0.1770  0.5976
19621SOL    HW261243   9.322   1.572   5.301  0.0970  0.7165  0.8092
19622SOL     OW61244   4.993   9.825  10.097 -0.1180 -0.6057 -0.1269
19622SOL    HW161245   4.898   9.827  10.095 -0.1226 -0.7310 -0.0499
19622SOL    HW261246   5.014   9.811  10.190 -0.0249 -0.5965 -0.1462
19623SOL     OW61247   0.136   3.993   7.744  0.4392 -0.1824 -0.9059
19623SOL    HW161248   0.229   4.015   7.745 -0.4465  5.3409  1.7257
19623SOL    HW261249   0.125   3.933   7.817  1.7535  0.5725 -0.0409
19624SOL     OW61250   7.586   3.291   4.879 -0.6378 -0.2537 -0.1856
19624SOL    HW161251   7.654   3.234   4.916 -1.2916 -0.3195  0.9689
19624SOL    HW261252   7.544   3.330   4.956 -1.3101  0.4883 -0.9165
19625SOL     OW61253   2.084   9.317   3.319 -0.2682 -0.0376  0.6449
19625SOL    HW161254   2.143   9.242   3.321 -0.1775  0.0399  2.1183
19625SOL    HW261255   2.049   9.322   3.408 -2.2656  0.1180 -0.0871
19626SOL     OW61256   0.526   3.420   9.277  0.4664 -0.5026 -0.0278
19626SOL    HW161257   0.497   3.487   9.339 -0.4462 -1.8070  1.0184
19626SOL    HW261258   0.460   3.423   9.207  1.2521  0.6663 -0.7596
19627SOL     OW61259  10.195   0.601   7.190 -0.6788  0.1569 -0.2604
19627SOL    HW161260  10.206   0.603   7.095 -0.5669  2.5830 -0.2696
19627SOL    HW261261  10.159   0.687   7.212  2.5654  1.0943  2.2031
19628SOL     OW61262   5.149   9.655   9.121 -0.5654 -0.1813 -0.4803
19628SOL    HW161263   5.132   9.673   9.214 -0.9095 -1.1250 -0.3524
19628SOL    HW261264   5.243   9.664   9.111 -0.6282  0.8481 -0.2465
19629SOL     OW61265   2.289   7.671   2.011  0.2263  0.2176 -0.4052
19629SOL    HW161266   2.349   7.728   2.059 -0.0764 -0.5912  0.9740
19629SOL    HW261267   2.345   7.629   1.944  1.0609  0.0072  0.4009
19630SOL     OW61268   7.674   2.771   7.482  0.6830  0.1793  0.1435
19630SOL    HW161269   7.636   2.723   7.408 -1.2737  0.4287  0.9210
19630SOL    HW261270   7.663   2.712   7.557 -0.1350  1.1092  0.7784
19631SOL     OW61271   4.503   2.942   9.571  0.2727 -0.3445 -0.5539
19631SOL    HW161272   4.426   2.974   9.618  1.3857  0.0735  1.0641
19631SOL    HW261273   4.467   2.882   9.505 -1.4048 -0.5530  0.4732
19632SOL     OW61274   2.435   3.101   6.958 -0.0427  0.0241 -0.6364
19632SOL    HW161275   2.384   3.126   7.035  0.1210 -0.5987 -0.3152
19632SOL    HW261276   2.381   3.035   6.914  1.3874 -2.3433  0.9163
19633SOL     OW61277   0.116   8.403   4.821 -0.1929  0.2930  0.2425
19633SOL    HW161278   0.167   8.395   4.740 -0.8199  0.9981 -0.2336
19633SOL    HW261279   0.079   8.316   4.834 -0.9652  0.4354 -0.8360
19634SOL     OW61280   9.250   8.690   2.235 -0.0567  0.5323 -0.0391
19634SOL    HW161281   9.252   8.653   2.147 -1.5392 -0.2673  0.2287
19634SOL    HW261282   9.341   8.712   2.254  0.2806  0.7462 -1.7650
19635SOL     OW61283   3.173   7.425   7.415  0.0107 -0.1838 -0.9313
19635SOL    HW161284   3.200   7.514   7.436  1.1275 -0.9186  1.0650
19635SOL    HW261285   3.095   7.410   7.468  0.6211 -0.8075 -0.1760
19636SOL     OW61286   3.174   5.529   3.399  0.9611 -0.6385 -0.2047
19636SOL    HW161287   3.096   5.560   3.444  1.9797 -0.4104  1.4894
19636SOL    HW261288   3.173   5.575   3.315 -0.6152 -0.5193 -0.1507
19637SOL     OW61289   7.179   5.656   7.230  0.4026  0.0823 -0.0694
19637SOL    HW161290   7.176   5.621   7.319  0.4151 -0.2398 -0.1933
19637SOL    HW261291   7.226   5.589   7.179 -0.0710  0.0199 -0.4285
19638SOL     OW61292   1.503   9.845   9.486  0.2443  0.9797 -0.1851
19638SOL    HW161293   1.539   9.846   9.397 -2.6378 -0.6215 -1.5151
19638SOL    HW261294   1.417   9.886   9.477 -1.3549 -1.7915  1.1599
19639SOL     OW61295   1.710   0.850   8.768 -0.5638 -0.3786  0.1406
19639SOL    HW161296   1.651   0.904   8.715  0.6549  1.2135  0.3176
19639SOL    HW261297   1.661   0.832   8.848 -1.6897 -1.1380 -0.6987
19640SOL     OW61298   7.451  10.540   2.471 -0.4726 -0.0437 -0.5205
19640SOL    HW161299   7.413  10.615   2.517  1.2237  0.0813  0.7706
19640SOL    HW261300   7.501  10.578   2.399 -0.1270  0.0370 -0.2417
19641SOL     OW61301  10.367   6.614   6.410  0.3521  0.0462 -0.9169
19641SOL    HW161302  10.350   6.709   6.410  0.6138  0.2190  2.3773
19641SOL    HW261303  10.460   6.607   6.431  0.1140 -0.9268 -0.1351
19642SOL     OW61304   6.467   5.417   4.673 -0.1126  0.5374 -0.0415
19642SOL    HW161305   6.387   5.405   4.622  0.7730 -1.0000 -1.1547
19642SOL    HW261306   6.465   5.509   4.699 -1.5708  0.8750 -1.1764
19643SOL     OW61307   3.775   2.876   4.282 -0.4565  0.5920  0.1622
19643SOL    HW161308   3.761   2.822   4.360  0.6787  0.5630  0.3660
19643SOL    HW261309   3.832   2.948   4.312  0.0280  0.5596 -0.6335
19644SOL     OW61310   3.433   7.996   0.912  0.0835  0.0695  0.0294
19644SOL    HW161311   3.463   8.009   0.822 -1.2204 -0.1343 -0.4531
19644SOL    HW261312   3.348   7.953   0.903  0.6644 -1.4819  1.3951
19645SOL     OW61313   9.010   8.305   0.455 -0.2464 -0.6805  0.0365
19645SOL    HW161314   9.050   8.337   0.374  0.8115  2.7633  1.6913
19645SOL    HW261315   9.083   8.267   0.504 -0.2782 -0.1909  0.4749
19646SOL     OW61316  10.033   5.473   5.246 -0.5818 -0.2207 -0.3104
19646SOL    HW161317  10.124   5.475   5.275 -1.0867  0.0824  1.3211
19646SOL    HW261318   9.986   5.430   5.317 -2.0093  1.3291 -0.2574
19647SOL     OW61319   5.834  10.168   9.791  0.1799  0.3118  0.0373
19647SOL    HW161320   5.760  10.114   9.766  0.3765 -0.3639  0.8470
19647SOL    HW261321   5.803  10.219   9.866  0.0954  1.0918 -0.5198
19648SOL     OW61322   3.857   7.376   4.549 -0.0655 -0.3049 -0.7142
19648SOL    HW161323   3.864   7.330   4.465 -0.4582 -0.9706 -0.3925
19648SOL    HW261324   3.777   7.427   4.542 -0.4945 -0.9380 -0.4734
19649SOL     OW61325  10.365   3.483   9.157 -0.1223 -0.6965 -0.2177
19649SOL    HW161326  10.346   3.470   9.250  0.6990 -2.4522 -0.2559
19649SOL    HW261327  10.279   3.483   9.114 -0.4840 -0.2232  0.4907
19650SOL     OW61328   1.406   1.584   5.649  0.4539 -0.2524  0.2786
19650SOL    HW161329   1.380   1.591   5.557  2.0878 -1.5585 -0.3236
19650SOL    HW261330   1.362   1.658   5.691 -2.1434 -0.8749 -1.0985
19651SOL     OW61331   4.205   1.338   8.505  1.1954  0.0371  0.3518
19651SOL    HW161332   4.150   1.403   8.550  1.7527  0.6200  0.2040
19651SOL    HW261333   4.165   1.254   8.527 -1.2793  0.5204 -1.7445
19652SOL     OW61334   5.318   8.728  10.664  0.1586 -0.0446 -0.3035
19652SOL    HW161335   5.230   8.732  10.626 -0.7832 -1.6815  1.4948
19652SOL    HW261336   5.306   8.759  10.754  1.7059  0.9449 -0.4181
19653SOL     OW61337  10.077   6.550   9.413 -0.3237  0.2722  0.1761
19653SOL    HW161338  10.031   6.621   9.368 -1.7404  0.1303  1.3385
19653SOL    HW261339  10.010   6.508   9.466  1.2265  0.2905  2.2435
19654SOL     OW61340  10.694   0.738   1.582 -0.6402  0.3124 -0.4830
19654SOL    HW161341  10.770   0.793   1.562 -0.1481 -0.3952 -0.6269
19654SOL    HW261342  10.729   0.671   1.641 -1.2081  0.1101 -0.3722
19655SOL     OW61343   0.207   2.957  10.426 -0.1196 -0.0517  0.2110
19655SOL    HW161344   0.269   2.975  10.355 -0.6426  1.1434  0.0456
19655SOL    HW261345   0.262   2.938  10.502  0.4610  0.9876  0.0625
19656SOL     OW61346   4.580   1.802   6.250  0.4953 -0.2800  0.1649
19656SOL    HW161347   4.592   1.892   6.219 -2.7422  0.7020  1.3537
19656SOL    HW261348   4.626   1.798   6.333  1.0602  0.1279 -0.1258
19657SOL     OW61349  10.144   7.599   4.052  0.8833  1.0070  0.1943
19657SOL    HW161350  10.207   7.629   3.986  0.9475  2.2170  0.7672
19657SOL    HW261351  10.063   7.646   4.030 -0.0843 -1.0880 -0.9805
19658SOL     OW61352  10.323   8.121  10.065 -0.1033 -0.2984  0.4256
19658SOL    HW161353  10.356   8.139   9.977  1.0385  0.8421  1.0580
19658SOL    HW261354  10.254   8.056  10.052 -0.0112 -0.0832 -1.3106
19659SOL     OW61355   3.314  10.454   7.195 -0.5111  0.0512 -0.1204
19659SOL    HW161356   3.268  10.443   7.278  1.7623 -1.4324  1.0542
19659SOL    HW261357   3.270  10.394   7.134  0.9424 -2.8929  1.5184
19660SOL     OW61358   0.584   3.809   7.382  0.0526 -0.3007 -0.7532
19660SOL    HW161359   0.606   3.771   7.297  2.3692  0.4522 -0.5758
19660SOL    HW261360   0.534   3.888   7.361  0.2437 -0.3454 -1.4173
19661SOL     OW61361   4.818   4.750   5.654 -0.3362  0.4723  0.6571
19661SOL    HW161362   4.787   4.697   5.580 -0.1981  0.4757  0.5973
19661SOL    HW261363   4.824   4.839   5.619 -1.1976  0.6527  0.9303
19662SOL     OW61364   8.740   0.781   8.426 -0.0280 -0.0219  0.5439
19662SOL    HW161365   8.781   0.802   8.510 -0.5143  1.3647  0.4668
19662SOL    HW261366   8.701   0.695   8.439  1.6714 -0.7543  1.0616
19663SOL     OW61367   0.992   0.767   4.983  0.1706  0.1558  0.2095
19663SOL    HW161368   0.906   0.734   5.006 -0.0119  0.1447 -0.4882
19663SOL    HW261369   0.984   0.795   4.892  1.1204 -0.6053 -0.1257
19664SOL     OW61370   5.910   1.584   7.380 -0.3874  0.1543  0.1516
19664SOL    HW161371   5.890   1.522   7.309 -3.1866  0.1254  0.8493
19664SOL    HW261372   5.879   1.668   7.348 -0.7882  0.3199  0.9449
19665SOL     OW61373   3.667   3.091   3.901 -0.0388 -0.3697  0.6090
19665SOL    HW161374   3.617   3.078   3.981  1.6874  0.4397  1.8926
19665SOL    HW261375   3.629   3.170   3.862 -0.4726 -0.3870  0.9879
19666SOL     OW61376   2.138   7.346   9.066  0.1987  0.2576  0.2994
19666SOL    HW161377   2.092   7.395   9.134 -2.2766 -0.1220 -1.0018
19666SOL    HW261378   2.069   7.299   9.019  1.5045  1.6760 -3.4600
19667SOL     OW61379   4.949   2.679   7.162 -0.2456 -0.4037 -0.1975
19667SOL    HW161380   4.955   2.595   7.208  0.3279 -0.2792 -0.0466
19667SOL    HW261381   5.002   2.739   7.214  0.3463 -0.2468 -0.9681
19668SOL     OW61382   4.638   0.610   8.682 -0.3091 -0.2277 -0.0354
19668SOL    HW161383   4.669   0.521   8.665 -1.1553 -0.5636  0.1305
19668SOL    HW261384   4.654   0.625   8.775  3.0995  1.1260 -0.6922
19669SOL     OW61385   3.191   8.795   5.590  0.5867 -0.5143  0.5113
19669SOL    HW161386   3.256   8.744   5.543 -1.7273 -2.0175 -1.3039
19669SOL    HW261387   3.192   8.881   5.548  0.8324 -0.7868 -0.0405
19670SOL     OW61388   5.177  10.328   1.231 -0.1285  0.4818 -0.1070
19670SOL    HW161389   5.158  10.267   1.302 -1.6428 -1.2506 -1.8623
19670SOL    HW261390   5.142  10.412   1.260 -0.4577 -0.1223  1.2822
19671SOL     OW61391   1.852   6.151   2.361 -0.0671  0.1546  0.2298
19671SOL    HW161392   1.883   6.130   2.273 -0.5205  1.0186 -0.1470
19671SOL    HW261393   1.772   6.100   2.371 -0.0550  0.1125  0.1092
19672SOL     OW61394   2.023   0.465   2.038  0.3498  0.0386  0.4973
19672SOL    HW161395   2.048   0.551   2.003  1.9602 -0.3112  0.6978
19672SOL    HW261396   2.097   0.408   2.016 -0.7358 -1.3303  0.2856
19673SOL     OW61397  10.030   7.556   0.316 -0.2434  0.5098 -0.2606
19673SOL    HW161398   9.946   7.573   0.358 -0.5487  2.2551 -1.4544
19673SOL    HW261399  10.095   7.583   0.381 -0.5720 -0.9666  0.7124
19674SOL     OW61400   6.037   3.181   8.758 -0.1918 -0.0885 -0.0269
19674SOL    HW161401   5.944   3.163   8.742 -0.5367  0.9979  0.6409
19674SOL    HW261402   6.037   3.246   8.829  1.0301  0.7086 -0.7152
19675SOL     OW61403   2.770   2.776   7.382 -0.0053 -0.7114  0.2781
19675SOL    HW161404   2.825   2.701   7.403  0.2553  0.3431  3.9446
19675SOL    HW261405   2.681   2.748   7.404  0.0492 -0.1167  1.3204
19676SOL     OW61406   1.010   4.567   2.281 -0.2215 -0.0981  0.3548
19676SOL    HW161407   0.916   4.556   2.272  0.0204 -1.3816 -0.8520
19676SOL    HW261408   1.031   4.642   2.226 -0.6750  0.9901  1.6084
19677SOL     OW61409   2.256   9.641   5.550 -0.2710  0.0102 -0.5209
19677SOL    HW161410   2.264   9.579   5.477  1.3178 -0.3281 -0.1123
19677SOL    HW261411   2.296   9.722   5.517  3.3569 -1.0099  0.8261
19678SOL     OW61412   4.371   6.877   2.630  0.4741  0.1042  0.0310
19678SOL    HW161413   4.321   6.817   2.575  0.0660 -1.4380  1.9776
19678SOL    HW261414   4.351   6.850   2.719  0.0141  3.3665  1.0668
19679SOL     OW61415   0.393   3.136   1.570 -0.6815  0.2600 -0.0917
19679SOL    HW161416   0.448   3.213   1.555 -1.5835  0.9310 -0.0614
19679SOL    HW261417   0.312   3.172   1.605 -0.5354 -0.8380  1.4799
19680SOL     OW61418   5.222   0.567   9.467 -0.1864  0.4818  0.0662
19680SOL    HW161419   5.174   0.514   9.530 -0.3191 -0.4571 -0.7967
19680SOL    HW261420   5.300   0.596   9.514 -2.7626  4.4015  2.4498
19681SOL     OW61421   2.564   0.541   9.402  0.0089 -0.4542 -0.6672
19681SOL    HW161422   2.654   0.511   9.392  0.3129 -0.1667  0.8865
19681SOL    HW261423   2.525   0.480   9.465 -1.0034 -0.7721 -1.5570
19682SOL     OW61424  10.588   2.013   1.780 -0.2894 -0.4322 -0.1669
19682SOL    HW161425  10.674   2.044   1.753 -0.6441  2.1328  1.3284
19682SOL    HW261426  10.530   2.035   1.707 -0.0613 -0.0963 -0.2465
19683SOL     OW61427   4.583   0.361   9.515  0.0909 -0.2798  0.4731
19683SOL    HW161428   4.547   0.446   9.492 -0.7554 -0.8176 -0.2810
19683SOL    HW261429   4.506   0.307   9.535  0.6661 -0.4458  2.5720
19684SOL     OW61430   4.513   1.935   4.066 -0.3313  0.1290  0.2775
19684SOL    HW161431   4.533   1.842   4.054  1.1722  0.2832  1.2827
19684SOL    HW261432   4.468   1.939   4.150  1.4174  0.4656  1.2669
19685SOL     OW61433   5.921   6.229   7.079  0.0659 -0.3225 -0.5284
19685SOL    HW161434   6.002   6.216   7.031  0.0661  0.2755 -0.6962
19685SOL    HW261435   5.868   6.152   7.058  0.2901 -0.3447 -1.0280
19686SOL     OW61436   8.434   0.926   9.882  0.1769 -0.2950 -0.3537
19686SOL    HW161437   8.499   0.863   9.912 -0.7128 -1.2036 -0.2647
19686SOL    HW261438   8.376   0.939   9.957 -1.7006 -2.1096 -1.3873
19687SOL     OW61439   6.211   3.888   8.803 -0.1275 -0.4231 -0.6180
19687SOL    HW161440   6.248   3.966   8.763 -1.9370  0.3042 -0.9554
19687SOL    HW261441   6.197   3.827   8.730 -0.8859 -0.1464 -0.7131
19688SOL     OW61442  10.364   3.456   3.716 -0.3205 -0.4921  0.5490
19688SOL    HW161443  10.333   3.502   3.794 -0.2571 -2.0450  1.5454
19688SOL    HW261444  10.459   3.473   3.714 -0.4103  0.0054  0.4839
19689SOL     OW61445   8.809   0.895   8.186  0.4131  0.3305  0.3928
19689SOL    HW161446   8.806   0.846   8.268  1.8104  0.1359  0.3544
19689SOL    HW261447   8.851   0.835   8.124  0.3317  0.8557 -0.1820
19690SOL     OW61448   0.211   4.064   4.405  0.3127 -0.3354 -0.2030
19690SOL    HW161449   0.273   4.045   4.334  1.9889  0.5243  0.9662
19690SOL    HW261450   0.256   4.129   4.459 -1.8456  0.7410  0.4256
19691SOL     OW61451   7.838   1.113  10.418 -0.5375  0.0772 -0.1620
19691SOL    HW161452   7.750   1.075  10.414 -2.1228  3.4876 -1.4590
19691SOL    HW261453   7.832   1.182  10.484  1.3265  0.1391  0.0097
19692SOL     OW61454   8.074   5.157   5.421 -0.1675  0.0868  0.1996
19692SOL    HW161455   8.156   5.108   5.424 -0.1775 -0.1813 -2.3293
19692SOL    HW261456   8.083   5.221   5.491  2.4985  0.4924 -0.3958
19693SOL     OW61457   3.792   6.677   1.746 -0.2707 -0.0761  0.2179
19693SOL    HW161458   3.806   6.681   1.652  2.2290 -0.1197  0.5227
19693SOL    HW261459   3.772   6.767   1.771 -1.4614 -0.1564 -0.3936
19694SOL     OW61460   8.296   0.298   4.256 -0.1448 -0.0829 -0.3959
19694SOL    HW161461   8.213   0.277   4.298 -1.1649  1.9010 -1.3169
19694SOL    HW261462   8.329   0.213   4.227 -1.9591 -0.9042 -0.2257
19695SOL     OW61463   3.629   2.399   9.706  0.2092 -0.3932 -0.4439
19695SOL    HW161464   3.621   2.393   9.802  3.3072  1.3167  0.0618
19695SOL    HW261465   3.549   2.442   9.678  0.0747  0.9051  1.6753
19696SOL     OW61466   7.745   3.507   6.167  0.0357 -0.1088  0.3038
19696SOL    HW161467   7.790   3.531   6.086 -0.7239  0.9315  0.1637
19696SOL    HW261468   7.752   3.586   6.222 -0.5428 -0.3682  0.7529
19697SOL     OW61469   1.827   3.100   5.155 -0.1191 -0.5625 -0.4595
19697SOL    HW161470   1.916   3.116   5.186 -1.1190  0.6972  2.1058
19697SOL    HW261471   1.799   3.184   5.118 -0.2536 -0.9528 -1.2603
19698SOL     OW61472   8.902   0.291   2.950  0.0174 -0.4634 -0.6988
19698SOL    HW161473   8.828   0.258   3.001 -0.7962  0.8412 -1.0129
19698SOL    HW261474   8.979   0.258   2.997 -0.7371 -2.0061 -0.4841
19699SOL     OW61475   6.838   2.705   7.839  0.2876 -0.5206  0.2757
19699SOL    HW161476   6.747   2.729   7.824  0.0103 -0.7009  1.5371
19699SOL    HW261477   6.852   2.626   7.787 -0.7394 -1.3736  1.2645
19700SOL     OW61478   9.049   8.629   3.982  0.2509 -1.0721  0.3285
19700SOL    HW161479   8.959   8.660   3.977  0.3819 -0.7341  0.0511
19700SOL    HW261480   9.102   8.709   3.979  0.6470 -1.3570 -1.5293
19701SOL     OW61481   4.506   8.978   2.975  0.0495  0.1173 -0.0517
19701SOL    HW161482   4.492   8.889   3.007  0.8021  0.1225  0.3146
19701SOL    HW261483   4.593   8.976   2.936 -0.0046  0.6448 -0.2081
19702SOL     OW61484   1.519   9.162   4.678  0.1978 -0.4353 -0.4131
19702SOL    HW161485   1.486   9.072   4.686  1.2827 -0.8501 -0.4106
19702SOL    HW261486   1.612   9.151   4.659  0.7259  0.7027  1.3043
19703SOL     OW61487   1.762   7.915   4.052  0.0721 -0.1515 -0.7759
19703SOL    HW161488   1.794   7.851   4.115  2.8551  1.9763  0.1862
19703SOL    HW261489   1.711   7.977   4.104  0.7477  0.5450 -0.9114
19704SOL     OW61490   6.480  10.412   1.270 -0.0602 -0.1262  0.0502
19704SOL    HW161491   6.551  10.355   1.299 -0.8081  0.2254  2.8372
19704SOL    HW261492   6.523  10.493   1.242  0.6657  0.0785  1.7069
19705SOL     OW61493   3.707   7.847   0.739  0.3188  0.4058 -0.4237
19705SOL    HW161494   3.719   7.938   0.714  0.4410  0.5991  0.3422
19705SOL    HW261495   3.691   7.849   0.833 -0.1147 -0.3269 -0.4729
19706SOL     OW61496  10.219   5.652   7.423  0.2371  0.0646 -0.1040
19706SOL    HW161497  10.164   5.695   7.489  1.3079 -0.5760  1.2486
19706SOL    HW261498  10.272   5.590   7.472  0.1437 -1.4085 -1.7585
19707SOL     OW61499   0.829  10.709   8.703  0.0776  0.6369  0.2993
19707SOL    HW161500   0.903  10.657   8.735 -0.3021 -1.4163 -1.8686
19707SOL    HW261501   0.854  10.800   8.720  2.8804 -0.0017  0.0848
19708SOL     OW61502   6.841  10.667   0.027 -0.2178 -0.0023 -0.2368
19708SOL    HW161503   6.803  10.673   0.114  2.2687 -1.5941  1.0650
19708SOL    HW261504   6.876  10.754   0.010 -1.5384  0.5798 -0.1032
19709SOL     OW61505   8.527   7.946   9.975 -0.2896 -0.0628 -0.4750
19709SOL    HW161506   8.545   8.027  10.023  1.8283 -0.6732 -0.1411
19709SOL    HW261507   8.432   7.933   9.985 -0.4753  1.6992  0.5013
19710SOL     OW61508   8.751   3.909   7.767 -0.0571  0.6145 -0.1732
19710SOL    HW161509   8.834   3.867   7.742 -0.4109 -1.0453  1.2104
19710SOL    HW261510   8.773   4.001   7.781  1.5681  0.2086  0.1452
19711SOL     OW61511   0.880   0.829   4.744 -0.1211  0.0989  0.2624
19711SOL    HW161512   0.790   0.854   4.725 -0.0016 -0.4762 -1.1824
19711SOL    HW261513   0.890   0.742   4.706  1.1758  0.3437 -0.0068
19712SOL     OW61514   9.581   8.127  10.321  0.4128  0.2519 -0.0986
19712SOL    HW161515   9.588   8.031  10.322 -0.7699  0.1511  0.3914
19712SOL    HW261516   9.510   8.146  10.382 -0.9665  1.2754 -1.9075
19713SOL     OW61517   5.973   0.133  10.165 -0.0324  0.2880  0.0655
19713SOL    HW161518   5.992   0.198  10.098  0.6163  0.4644  0.4163
19713SOL    HW261519   6.003   0.050  10.127  1.9306  0.6084  0.7627
19714SOL     OW61520   2.176   4.570   4.546 -0.0462 -0.0386  0.2627
19714SOL    HW161521   2.163   4.546   4.638  1.3923  1.4924  0.9136
19714SOL    HW261522   2.268   4.551   4.529  0.2096  1.5054 -0.2450
19715SOL     OW61523   4.121   8.584  10.770  0.0518 -0.1584 -0.8077
19715SOL    HW161524   4.200   8.634  10.791  0.5621 -1.2710  0.0007
19715SOL    HW261525   4.089   8.622  10.688 -0.2934  2.3312  0.3910
19716SOL     OW61526   7.238  10.528  10.348  0.2824  0.4196  0.4924
19716SOL    HW161527   7.292  10.451  10.361 -1.0505 -0.3521  1.6829
19716SOL    HW261528   7.169  10.500  10.288 -0.0773  0.7422  0.7440
19717SOL     OW61529   5.298   1.165   7.732  0.8067 -0.1102  0.6851
19717SOL    HW161530   5.222   1.161   7.674  0.5440 -0.2061  1.0279
19717SOL    HW261531   5.351   1.236   7.697  1.4868 -1.2332 -0.6632
19718SOL     OW61532   4.440   0.659   4.497  0.2924 -0.0013  0.2524
19718SOL    HW161533   4.530   0.692   4.503  0.2633 -0.1673  2.2337
19718SOL    HW261534   4.386   0.734   4.523 -0.0839 -0.2417  0.1631
19719SOL     OW61535   4.760   9.876   6.782  0.4578 -0.6268  0.9630
19719SOL    HW161536   4.776   9.899   6.691 -1.6461 -1.5207  0.3218
19719SOL    HW261537   4.846   9.848   6.815  1.1917 -0.5387 -0.7930
19720SOL     OW61538   2.415   9.181   8.329 -0.0645  0.1474 -0.6758
19720SOL    HW161539   2.436   9.170   8.236 -1.5900 -1.6586 -0.8786
19720SOL    HW261540   2.473   9.251   8.359  1.0704  0.1860 -2.7726
19721SOL     OW61541   7.203  10.683   1.500 -0.1037 -0.3310  0.0363
19721SOL    HW161542   7.237  10.607   1.547 -0.3170 -0.3180  0.2148
19721SOL    HW261543   7.165  10.647   1.420 -1.2241 -0.5664  0.6373
19722SOL     OW61544   8.355   0.048   4.917  0.1201 -0.2707  0.4259
19722SOL    HW161545   8.387   0.087   4.998 -0.5076 -1.5008  1.3053
19722SOL    HW261546   8.434   0.028   4.866  0.5173  0.4994  0.7296
19723SOL     OW61547   7.018   6.556   2.832 -0.2515  0.4866 -0.2885
19723SOL    HW161548   6.948   6.607   2.791 -1.1801  0.3101  1.0141
19723SOL    HW261549   7.052   6.501   2.762 -0.3135  1.7287 -1.3344
19724SOL     OW61550   6.158   0.540  10.621 -0.0634  0.0121  0.0779
19724SOL    HW161551   6.145   0.617  10.565  1.5589  0.2602  0.0112
19724SOL    HW261552   6.238   0.559  10.670  0.2479 -1.5455  0.2166
19725SOL     OW61553   8.882  10.460   2.944  0.5143  0.3679 -0.1983
19725SOL    HW161554   8.974  10.487   2.939  1.2376 -1.8324  0.3533
19725SOL    HW261555   8.858  10.474   3.035  0.4882  0.3726 -0.2060
19726SOL     OW61556   1.374   7.214   8.538 -0.1218  0.1738  0.5805
19726SOL    HW161557   1.315   7.241   8.608  0.7396  1.3655  0.8755
19726SOL    HW261558   1.457   7.256   8.559  0.8159 -1.3786  0.1102
19727SOL     OW61559   3.575   9.316   6.775 -0.2016 -0.0237  0.8631
19727SOL    HW161560   3.508   9.337   6.710  0.0652 -1.5910  0.0440
19727SOL    HW261561   3.582   9.221   6.773  0.4183 -0.0576  2.6060
19728SOL     OW61562   3.255   5.626   2.854  0.6961  0.4285 -0.3194
19728SOL    HW161563   3.258   5.673   2.937 -0.6782  0.2521 -0.1487
19728SOL    HW261564   3.296   5.686   2.791  0.9936  0.9096  0.3173
19729SOL     OW61565   7.712   7.442   4.232 -0.3957 -0.2527  0.2021
19729SOL    HW161566   7.669   7.450   4.317  0.0743  0.4905  0.3822
19729SOL    HW261567   7.641   7.434   4.169 -0.7896 -3.7302  0.8621
19730SOL     OW61568   2.315   2.680   1.033 -0.0428 -0.6446 -0.6758
19730SOL    HW161569   2.292   2.717   0.948 -1.3823  0.6053  0.1620
19730SOL    HW261570   2.406   2.652   1.024 -0.0696 -0.2791 -2.4152
19731SOL     OW61571   8.342   3.279   4.673 -0.3546 -0.0979 -0.0764
19731SOL    HW161572   8.326   3.365   4.711 -0.3664  0.2083 -0.7649
19731SOL    HW261573   8.437   3.273   4.665 -0.3696 -0.0211 -0.3175
19732SOL     OW61574   8.856   4.146   6.379  0.4552  0.1805 -0.3895
19732SOL    HW161575   8.877   4.057   6.351 -2.5760 -0.9029  0.3117
19732SOL    HW261576   8.929   4.171   6.435  1.8304 -1.4864 -1.3282
19733SOL     OW61577   6.789   9.069  10.378 -0.2348 -0.0601 -0.2089
19733SOL    HW161578   6.792   9.061  10.473 -2.0589  0.9682 -0.0434
19733SOL    HW261579   6.746   8.989  10.349 -0.4440  0.0126 -0.1011
19734SOL     OW61580   3.064   6.278   8.551  0.1285 -0.0589 -0.2815
19734SOL    HW161581   3.086   6.371   8.545 -0.6045  0.0761 -1.0441
19734SOL    HW261582   3.148   6.234   8.567  0.6591  0.6305 -1.0997
19735SOL     OW61583   3.106  10.403   6.957  0.1208 -0.0199  0.1385
19735SOL    HW161584   3.140  10.401   6.868  1.3826 -1.8081  0.6120
19735SOL    HW261585   3.044  10.476   6.957 -1.5251 -1.2447 -2.7817
19736SOL     OW61586   6.340   0.231   2.888 -0.3222  0.1116  0.4149
19736SOL    HW161587   6.327   0.317   2.927  1.5496  0.3930  0.5323
19736SOL    HW261588   6.433   0.229   2.865 -0.6899 -1.2443 -1.1419
19737SOL     OW61589   6.699   7.445   2.750 -0.1177  0.3802  0.2262
19737SOL    HW161590   6.749   7.500   2.689 -0.1113 -0.9133 -0.9785
19737SOL    HW261591   6.611   7.481   2.747  0.2160  1.2576  0.6194
19738SOL     OW61592   0.011   9.477   7.134 -0.5005  0.4528  0.1516
19738SOL    HW161593   0.014   9.410   7.202 -1.7065  0.0683 -0.1370
19738SOL    HW261594  -0.016   9.557   7.180  1.1605  0.8142  0.5342
19739SOL     OW61595   7.533   2.615   1.793  0.1003  0.0100  0.0839
19739SOL    HW161596   7.525   2.566   1.711  0.7397 -0.7834  0.4822
19739SOL    HW261597   7.625   2.640   1.796  0.1617 -0.2947  0.7492
19740SOL     OW61598   7.071   9.416   2.931 -0.1648 -0.3241  0.2512
19740SOL    HW161599   6.979   9.419   2.956 -0.5161  0.1296 -0.9879
19740SOL    HW261600   7.073   9.364   2.851  0.4271  0.9145 -0.5753
19741SOL     OW61601   8.171   4.211   2.046 -0.3267  0.3861 -0.1317
19741SOL    HW161602   8.177   4.118   2.026 -0.0008  0.5372 -0.7403
19741SOL    HW261603   8.166   4.254   1.961  0.5002  0.9909  0.1169
19742SOL     OW61604   4.768   5.492  10.551  0.3946 -0.2536 -0.6659
19742SOL    HW161605   4.829   5.506  10.623  1.6142  0.5048 -1.7888
19742SOL    HW261606   4.715   5.572  10.548  0.7327 -0.0376 -0.9582
19743SOL     OW61607   6.110   4.745   1.213 -0.7242 -0.4007  0.2525
19743SOL    HW161608   6.076   4.830   1.239  0.8963  0.7504 -1.2264
19743SOL    HW261609   6.086   4.736   1.120 -0.9483 -1.5996  0.4037
19744SOL     OW61610   6.775   5.320   1.385 -0.1998  0.4601 -0.4894
19744SOL    HW161611   6.740   5.252   1.328 -1.1740  1.0720 -0.6490
19744SOL    HW261612   6.721   5.397   1.366 -1.2445  0.4372  1.9444
19745SOL     OW61613   2.606   0.515   5.522  0.0749  0.6616  0.0584
19745SOL    HW161614   2.674   0.479   5.464 -1.4575 -2.1141 -0.1783
19745SOL    HW261615   2.552   0.569   5.465 -0.5638 -0.8611 -0.8148
19746SOL     OW61616   2.050   0.811   3.189  0.0987 -0.1712  0.7754
19746SOL    HW161617   2.139   0.825   3.222  0.7882 -1.9850 -0.1888
19746SOL    HW261618   2.015   0.899   3.178  1.7630  0.5906  1.1852
19747SOL     OW61619   0.394   4.667   1.437 -0.1401  0.4321 -0.1894
19747SOL    HW161620   0.431   4.730   1.499  0.7848 -0.9954  0.7940
19747SOL    HW261621   0.462   4.600   1.428 -1.6868 -1.2494  0.0759
19748SOL     OW61622   7.242   1.676   5.779 -0.2502 -0.3033  0.1462
19748SOL    HW161623   7.165   1.700   5.831 -0.1351 -0.4360  0.3784
19748SOL    HW261624   7.309   1.739   5.806 -0.4414  0.1845 -0.4771
19749SOL     OW61625   2.952   7.420   5.114 -0.0685 -0.0628  0.2493
19749SOL    HW161626   2.969   7.514   5.104  0.0944  0.0316  1.2660
19749SOL    HW261627   2.898   7.414   5.193  0.0497 -0.8383  0.2786
19750SOL     OW61628  10.650   7.402   9.871 -0.6254 -0.0375  0.0039
19750SOL    HW161629  10.558   7.383   9.889 -0.7515  0.6792  0.1678
19750SOL    HW261630  10.681   7.446   9.950 -0.2325  0.0063 -0.1723
19751SOL     OW61631   4.963   0.629   0.428  0.0271  0.8148  0.1729
19751SOL    HW161632   5.012   0.594   0.354  0.7011 -0.4047  1.1544
19751SOL    HW261633   4.906   0.558   0.455  1.4484  0.3716  2.2339
19752SOL     OW61634  10.427  10.159   3.997 -0.2291  0.0310 -0.2110
19752SOL    HW161635  10.353  10.180   4.054 -2.1599 -3.4329 -1.1483
19752SOL    HW261636  10.504  10.188   4.046 -1.9243 -0.4635  2.9915
19753SOL     OW61637   7.104   0.596   3.249 -0.2015 -0.7099 -0.0496
19753SOL    HW161638   7.189   0.558   3.274 -0.2013  0.2870  1.6518
19753SOL    HW261639   7.052   0.592   3.329 -0.7402  1.3592 -0.2324
19754SOL     OW61640   6.387   0.046   5.490 -0.1148 -0.4988  0.1393
19754SOL    HW161641   6.457   0.013   5.546  1.3460  1.9598 -0.0861
19754SOL    HW261642   6.412   0.019   5.402  0.2971 -0.0574  0.1172
19755SOL     OW61643   1.663   9.528   6.467 -0.2321  0.0362 -0.0878
19755SOL    HW161644   1.714   9.603   6.434 -2.5049  1.5153 -0.4834
19755SOL    HW261645   1.694   9.454   6.415  0.4297  1.1864 -1.4203
19756SOL     OW61646   2.411   2.002   2.177 -0.1731 -0.0474  0.2712
19756SOL    HW161647   2.455   2.062   2.116  1.2756 -1.7419 -0.4314
19756SOL    HW261648   2.482   1.957   2.222 -1.2349 -0.3028  1.7477
19757SOL     OW61649   0.491   4.725   0.139  0.1444 -0.1729  0.6491
19757SOL    HW161650   0.423   4.657   0.134  1.2224 -1.2506  0.1194
19757SOL    HW261651   0.442   4.807   0.143 -1.1865 -0.8766 -0.3012
19758SOL     OW61652   2.570   1.602   5.081 -0.4978  0.3462  0.0434
19758SOL    HW161653   2.484   1.590   5.123  0.1494 -1.1420  1.0597
19758SOL    HW261654   2.588   1.696   5.089 -2.4618  0.8687 -1.1145
19759SOL     OW61655   7.301   9.036   3.204 -0.5841 -0.1338  0.0464
19759SOL    HW161656   7.335   9.120   3.175 -1.9803 -0.0407 -1.5263
19759SOL    HW261657   7.371   8.998   3.257  0.1567  1.8938  0.5937
19760SOL     OW61658   1.553   3.741   0.543  0.2101  0.4293  0.3371
19760SOL    HW161659   1.459   3.758   0.546  0.2873  0.7577  1.6574
19760SOL    HW261660   1.560   3.645   0.541 -0.1579  0.4176 -1.5214
19761SOL     OW61661  10.229   9.468   8.394  0.3379 -0.7402 -0.1233
19761SOL    HW161662  10.158   9.510   8.347 -1.1492 -0.5626  2.1369
19761SOL    HW261663  10.198   9.379   8.412  2.0401 -1.7667 -1.8445
19762SOL     OW61664   4.885   3.246   7.893  0.6083 -0.3348 -0.4246
19762SOL    HW161665   4.934   3.164   7.895 -0.3334 -0.9003  1.0086
19762SOL    HW261666   4.805   3.226   7.844  1.3946  0.3752 -2.0724
19763SOL     OW61667   9.345   2.246   8.831 -0.4200 -0.3088 -0.2421
19763SOL    HW161668   9.310   2.319   8.779 -1.1806 -0.7405 -0.3475
19763SOL    HW261669   9.313   2.261   8.920 -1.3102 -0.9673 -0.4367
19764SOL     OW61670   0.517   4.928   7.924 -0.0742  0.5205  0.7645
19764SOL    HW161671   0.521   4.996   7.992 -1.4137  1.8715 -0.4528
19764SOL    HW261672   0.431   4.939   7.884  0.5376 -0.5025 -0.9108
19765SOL     OW61673   4.389   8.677   9.750 -0.5004 -0.6406  0.2745
19765SOL    HW161674   4.314   8.637   9.794 -1.0399 -1.6559 -1.4308
19765SOL    HW261675   4.351   8.746   9.696 -0.1624 -0.7960 -0.1749
19766SOL     OW61676   8.692   3.390   1.809  0.1412  0.0120  0.0188
19766SOL    HW161677   8.751   3.453   1.850 -0.2189  1.2388 -1.2694
19766SOL    HW261678   8.717   3.390   1.717 -1.3231 -0.0527 -0.4070
19767SOL     OW61679   8.724   9.905   1.932  0.5034  0.1250  0.7681
19767SOL    HW161680   8.670   9.984   1.927 -0.1939 -0.3703  0.2966
19767SOL    HW261681   8.664   9.838   1.964  0.7870 -0.4700  0.0717
19768SOL     OW61682   4.593   5.047   7.839 -0.6175  0.5068  0.1239
19768SOL    HW161683   4.586   5.125   7.785 -1.3757 -0.6176 -1.5096
19768SOL    HW261684   4.522   4.991   7.809 -0.4632 -0.5752  1.6592
19769SOL     OW61685   2.003   5.117   2.739  0.0611  0.5065 -0.5733
19769SOL    HW161686   2.057   5.171   2.797 -0.2996 -1.4243  1.7268
19769SOL    HW261687   2.046   5.031   2.741 -2.4668 -0.8252  0.5353
19770SOL     OW61688   4.928   0.347   4.570 -0.0914 -0.1953 -0.4060
19770SOL    HW161689   4.867   0.293   4.519  0.8576 -2.4258  0.6775
19770SOL    HW261690   4.993   0.376   4.506 -0.7524 -0.1013 -1.0567
19771SOL     OW61691   7.119   0.015   6.771  0.1939  0.3192 -0.4529
19771SOL    HW161692   7.098   0.095   6.819 -1.7077 -1.7105  2.4255
19771SOL    HW261693   7.208  -0.008   6.799  0.7168  1.2934 -1.2309
19772SOL     OW61694   8.934   3.474   7.938 -0.2700  0.3307 -0.6859
19772SOL    HW161695   8.890   3.393   7.964 -0.2948  0.0029 -1.7124
19772SOL    HW261696   9.026   3.449   7.927  0.3603  1.1155  1.9391
19773SOL     OW61697   6.412   1.932   4.031  0.0315  0.1695 -0.4627
19773SOL    HW161698   6.506   1.921   4.013  0.1337 -0.5165  0.3881
19773SOL    HW261699   6.373   1.848   4.007 -0.4534  0.6269 -1.3022
19774SOL     OW61700   3.415   8.087   8.361  0.2529  0.0801  0.3004
19774SOL    HW161701   3.486   8.150   8.364 -1.1494  1.7376  0.5017
19774SOL    HW261702   3.380   8.094   8.273  0.2049 -0.5785  0.2593
19775SOL     OW61703   0.175   8.041   8.079 -0.0852  0.3117  0.3481
19775SOL    HW161704   0.085   8.072   8.093 -0.3136 -0.7407  1.3364
19775SOL    HW261705   0.173   7.949   8.105  1.3504  0.3418  0.6311
19776SOL     OW61706   2.828   5.527   6.262  0.0153 -0.1763 -0.6003
19776SOL    HW161707   2.916   5.495   6.281  0.6285  1.1803 -1.0255
19776SOL    HW261708   2.788   5.539   6.348  1.4428  2.3388 -0.1890
19777SOL     OW61709   2.463   2.380   7.570 -0.3032 -0.3086 -0.2177
19777SOL    HW161710   2.522   2.353   7.499 -1.3849 -2.9950 -0.2313
19777SOL    HW261711   2.375   2.360   7.538 -0.8506 -1.2444  1.6650
19778SOL     OW61712   1.921   8.029   3.613  0.4586  0.9145  0.6040
19778SOL    HW161713   1.999   8.080   3.591 -2.2042  4.8647 -0.6944
19778SOL    HW261714   1.883   8.074   3.688 -1.4468  0.1722  0.1487
19779SOL     OW61715   3.444   9.068   4.521 -0.4184 -0.6125 -0.7362
19779SOL    HW161716   3.390   9.082   4.443 -0.4244 -0.8965 -0.7837
19779SOL    HW261717   3.396   9.112   4.592  0.6243  1.5316 -1.2624
19780SOL     OW61718   7.984   5.004   6.392  0.3379 -0.2613  0.2496
19780SOL    HW161719   7.990   4.926   6.336 -0.7905 -0.7862  0.8278
19780SOL    HW261720   7.891   5.027   6.390  0.6938  1.2256 -0.1061
19781SOL     OW61721   1.972   7.139   8.882 -0.0872  0.0570 -0.3077
19781SOL    HW161722   1.953   7.056   8.839 -2.2405  0.4950 -0.2952
19781SOL    HW261723   1.998   7.114   8.971 -3.4251 -0.5923  0.6191
19782SOL     OW61724   8.433   0.964   6.755 -0.2542 -0.6226 -0.1342
19782SOL    HW161725   8.382   0.888   6.728  0.9217 -2.1187  1.5731
19782SOL    HW261726   8.523   0.931   6.763  0.1028  0.6457  1.7242
19783SOL     OW61727   1.977   1.026   4.598 -0.2839 -0.1798  0.2646
19783SOL    HW161728   2.036   1.067   4.535 -2.0399  1.8635 -0.1775
19783SOL    HW261729   1.938   1.099   4.646 -0.5007 -1.5912  2.3842
19784SOL     OW61730   0.131   8.824   8.945 -0.1647  0.5598 -0.9177
19784SOL    HW161731   0.143   8.769   9.022  1.7275  1.3388 -0.5946
19784SOL    HW261732   0.037   8.825   8.930 -0.3353 -2.1746 -0.5451
19785SOL     OW61733  10.633   1.671   2.166 -0.5613  0.0023  0.1341
19785SOL    HW161734  10.678   1.706   2.243  0.3164  0.7493 -0.6818
19785SOL    HW261735  10.604   1.749   2.119 -1.8547 -0.4588  0.1270
19786SOL     OW61736   4.860   4.935   4.167  0.1250  0.0923 -0.1737
19786SOL    HW161737   4.799   4.938   4.093  0.1380  0.6646 -0.1614
19786SOL    HW261738   4.869   5.026   4.195  1.3153  0.0838 -0.4506
19787SOL     OW61739   9.098   7.871   7.850  0.5505  0.6138 -0.4803
19787SOL    HW161740   9.033   7.850   7.916  0.0160 -0.3209 -1.2756
19787SOL    HW261741   9.179   7.831   7.882 -0.0555 -1.2488 -1.1190
19788SOL     OW61742   9.926   8.383   2.024 -0.7096  0.0984 -0.1695
19788SOL    HW161743   9.983   8.313   2.056  1.2535  2.3318  1.5948
19788SOL    HW261744   9.915   8.364   1.931  3.5704 -0.1814 -0.8233
19789SOL     OW61745   2.577   8.226   8.847  0.1673  0.3513  0.0446
19789SOL    HW161746   2.527   8.174   8.910  0.0474  0.1321 -0.2320
19789SOL    HW261747   2.559   8.317   8.871  0.9283  0.2729  0.9751
19790SOL     OW61748   2.741   8.875   0.455  0.6624  0.1813 -0.2942
19790SOL    HW161749   2.747   8.926   0.536  0.4111  0.3388 -0.3735
19790SOL    HW261750   2.648   8.876   0.433  0.8066  0.6277 -0.9000
19791SOL     OW61751   2.605   9.951   8.908 -0.1622 -0.2971 -0.3667
19791SOL    HW161752   2.527   9.932   8.961 -0.4516  1.0389 -0.2798
19791SOL    HW261753   2.586   9.912   8.822 -0.3594 -1.1101  0.0400
19792SOL     OW61754   9.824   3.885   9.794  0.0027  0.0750  0.1085
19792SOL    HW161755   9.827   3.976   9.826  2.1189 -0.8519  2.9892
19792SOL    HW261756   9.813   3.833   9.874  0.0424 -2.2918 -1.3513
19793SOL     OW61757   1.196   9.598   6.762  0.1616 -0.3041 -0.4798
19793SOL    HW161758   1.136   9.616   6.835  0.1258 -0.3319 -0.5017
19793SOL    HW261759   1.155   9.640   6.687  0.3027 -0.1019 -0.4418
19794SOL     OW61760   7.916   1.972   0.774  0.9480  0.3976 -0.2798
19794SOL    HW161761   7.846   1.937   0.719  0.3535  2.3757 -0.8590
19794SOL    HW261762   7.980   2.007   0.713  1.9275 -0.3679  0.2711
19795SOL     OW61763   3.644   5.964   8.850 -0.0373  0.3590  0.2297
19795SOL    HW161764   3.559   5.923   8.867 -0.8048  1.6780 -0.3300
19795SOL    HW261765   3.634   6.055   8.878 -0.2156  1.7019 -3.5373
19796SOL     OW61766   1.432   1.631   3.230  0.3020 -0.5826 -0.1060
19796SOL    HW161767   1.527   1.622   3.220  0.6105  1.5293  0.3208
19796SOL    HW261768   1.421   1.715   3.275 -1.7744 -0.8307 -0.0579
19797SOL     OW61769   1.371   7.641   7.409 -0.2881  0.1620 -0.1361
19797SOL    HW161770   1.345   7.549   7.407  0.0245  0.0224  1.1489
19797SOL    HW261771   1.357   7.672   7.320  0.4785 -1.3669 -0.8253
19798SOL     OW61772   4.371   8.097   6.710  0.2868  0.2449  0.0865
19798SOL    HW161773   4.430   8.069   6.780  0.1366  0.7696  0.4291
19798SOL    HW261774   4.287   8.111   6.754 -0.5315 -1.9879 -0.6449
19799SOL     OW61775   9.988   7.212   9.805  0.1732 -0.0575  0.1100
19799SOL    HW161776   9.951   7.294   9.773 -0.5249  0.2042  1.4876
19799SOL    HW261777   9.924   7.145   9.779 -0.8320  0.2638  1.6117
19800SOL     OW61778   0.532   6.053   9.939  0.2319  0.0972 -0.9553
19800SOL    HW161779   0.476   6.039  10.015 -0.0068  0.4873 -1.0547
19800SOL    HW261780   0.563   5.966   9.915  0.7762  0.0391 -0.0620
19801SOL     OW61781   7.782   9.433   0.395 -0.0458 -0.2388 -0.0592
19801SOL    HW161782   7.818   9.514   0.358  0.9048 -0.1723  0.9502
19801SOL    HW261783   7.849   9.404   0.457 -1.1971 -0.8052  0.9450
19802SOL     OW61784   7.874   7.492   5.455  0.4239 -0.1608 -0.7664
19802SOL    HW161785   7.966   7.488   5.430  0.6396  1.4108 -0.3018
19802SOL    HW261786   7.866   7.570   5.509 -1.1439 -0.3816 -0.6121
19803SOL     OW61787   1.490   6.578   5.698  0.1334 -0.4141 -0.1910
19803SOL    HW161788   1.468   6.633   5.623  0.6733  0.4358  0.2655
19803SOL    HW261789   1.406   6.547   5.731 -0.1345 -0.4147 -0.8483
19804SOL     OW61790   1.328   7.113   6.528  0.2627  0.0093  0.2855
19804SOL    HW161791   1.388   7.087   6.458  1.4821 -0.2470  1.3786
19804SOL    HW261792   1.241   7.090   6.495  0.8497 -0.5883 -0.9218
19805SOL     OW61793   6.286  10.373   5.129 -0.2921 -0.4738  0.3100
19805SOL    HW161794   6.296  10.452   5.075 -1.3144 -0.9604 -0.6310
19805SOL    HW261795   6.300  10.300   5.068 -1.1473 -1.0274  0.7582
19806SOL     OW61796   2.746   1.795   1.334 -0.1925  0.3186  0.3161
19806SOL    HW161797   2.762   1.714   1.284 -1.5150  0.5920 -0.6130
19806SOL    HW261798   2.661   1.780   1.376 -0.6920  1.3929 -0.2734
19807SOL     OW61799   1.992   4.058   8.719 -0.0722  0.2250 -0.0031
19807SOL    HW161800   1.944   3.992   8.769 -0.5134 -1.2433 -2.2380
19807SOL    HW261801   1.986   4.137   8.772 -1.3902 -0.9595  1.7380
19808SOL     OW61802   4.928  10.257  10.085 -0.8997 -0.6073  0.4283
19808SOL    HW161803   4.848  10.248  10.138 -2.1189  1.4218 -0.9269
19808SOL    HW261804   4.921  10.187  10.020 -2.4398  0.4689 -0.6379
19809SOL     OW61805   2.716  10.312   4.034  0.0936  0.1464 -0.2467
19809SOL    HW161806   2.810  10.305   4.051  0.2033  0.1177 -0.8510
19809SOL    HW261807   2.705  10.400   3.998 -0.1024  0.1244 -0.2406
19810SOL     OW61808   4.810   6.636   3.199 -0.3520  0.0171  0.0643
19810SOL    HW161809   4.723   6.636   3.239  0.3185  1.2341  1.6132
19810SOL    HW261810   4.798   6.588   3.117 -2.0072 -1.6879  1.2247
19811SOL     OW61811   7.516   6.955   7.951 -0.1590  0.0663 -0.2322
19811SOL    HW161812   7.582   6.960   8.020 -0.6897  0.2969  0.2618
19811SOL    HW261813   7.555   6.896   7.885  1.0749  1.1840 -0.5447
19812SOL     OW61814   3.719   6.997   5.200  0.5071 -1.0007  0.0085
19812SOL    HW161815   3.777   6.978   5.126  1.6428  1.7441  0.0534
19812SOL    HW261816   3.772   6.977   5.278  1.4548  1.2732  0.0454
19813SOL     OW61817   1.285   8.295   1.650  0.6187  0.3645 -0.0972
19813SOL    HW161818   1.244   8.361   1.594 -0.9484 -0.9655 -0.5936
19813SOL    HW261819   1.234   8.216   1.635  1.6162 -0.6321  1.4824
19814SOL     OW61820   1.805   3.279   4.614 -0.2644  0.7053  0.1135
19814SOL    HW161821   1.850   3.364   4.610  0.0308  0.6497  1.6193
19814SOL    HW261822   1.867   3.218   4.574  0.5516  0.8279  1.1327
19815SOL     OW61823   0.882   1.611   4.883 -0.4064  0.3628  0.0649
19815SOL    HW161824   0.838   1.691   4.853 -1.1504  0.5675  1.5861
19815SOL    HW261825   0.949   1.642   4.944 -0.5164 -0.1387  0.4547
19816SOL     OW61826   0.805   6.767   6.944  0.1435  0.2640  0.0191
19816SOL    HW161827   0.779   6.859   6.949 -2.9797 -0.5173  0.6098
19816SOL    HW261828   0.783   6.731   7.031 -0.9096 -1.4711 -0.9043
19817SOL     OW61829   4.877   2.301   2.062 -0.2887  0.1234  0.0603
19817SOL    HW161830   4.811   2.277   1.998  0.0112 -2.4092  0.6024
19817SOL    HW261831   4.960   2.270   2.025  0.8938  3.9188 -0.9834
19818SOL     OW61832   8.361   0.692   3.176 -0.1670 -0.1687  0.3587
19818SOL    HW161833   8.276   0.700   3.219 -1.0698  0.9479 -1.4901
19818SOL    HW261834   8.396   0.781   3.176  0.0470 -0.2359 -0.6813
19819SOL     OW61835   7.511   1.430   0.746 -0.3613  0.4393 -0.5309
19819SOL    HW161836   7.493   1.370   0.674  1.4478 -0.0290 -0.6424
19819SOL    HW261837   7.507   1.517   0.707  1.2151  0.1593 -1.3742
19820SOL     OW61838   3.005   7.255  10.218 -0.1337  0.3288  0.1558
19820SOL    HW161839   2.963   7.319  10.161 -0.8135 -0.0578  0.1999
19820SOL    HW261840   2.943   7.242  10.290 -0.0581 -0.4381  0.0988
19821SOL     OW61841   0.504   6.111   7.079 -0.0882 -0.5375  0.4053
19821SOL    HW161842   0.471   6.109   6.990  0.6715 -0.1111  0.1086
19821SOL    HW261843   0.591   6.072   7.074  0.1175 -0.1545  0.8837
19822SOL     OW61844   4.097   6.527   2.594  0.3759  0.2838 -0.2480
19822SOL    HW161845   4.147   6.449   2.620 -0.0480  0.5035  1.3085
19822SOL    HW261846   4.030   6.536   2.661 -0.3408  1.3139 -1.0724
19823SOL     OW61847   4.826   3.190   2.200 -0.2114  0.3377 -0.6729
19823SOL    HW161848   4.821   3.184   2.295  0.2373  0.3943 -0.6431
19823SOL    HW261849   4.815   3.100   2.170  0.5146  0.1944 -0.5224
19824SOL     OW61850   9.606   1.202   5.827 -0.6237 -0.3320  0.4323
19824SOL    HW161851   9.684   1.253   5.846 -0.9084  0.5401 -0.6442
19824SOL    HW261852   9.541   1.232   5.891 -0.4805 -0.1029  0.4711
19825SOL     OW61853   6.322   5.474   9.711 -0.2151  0.1454 -1.0141
19825SOL    HW161854   6.255   5.528   9.671 -0.0139  1.7628  0.6809
19825SOL    HW261855   6.352   5.416   9.641 -0.2121  2.4343 -3.0321
19826SOL     OW61856   6.634   8.264   5.578  0.0630  1.0764 -0.3003
19826SOL    HW161857   6.651   8.242   5.486  2.4424  1.0384  0.0834
19826SOL    HW261858   6.688   8.341   5.594 -1.6859  2.1549  0.6352
19827SOL     OW61859   2.382   1.955   8.959 -0.1918 -0.2134  0.0198
19827SOL    HW161860   2.465   1.976   9.002 -1.4387  0.1859  2.3948
19827SOL    HW261861   2.408   1.907   8.880  2.3199  0.9005  0.0589
19828SOL     OW61862   1.172  10.766   1.249  0.9733  0.2356  0.6382
19828SOL    HW161863   1.135  10.817   1.176  0.7140  0.1768  0.7266
19828SOL    HW261864   1.103  10.704   1.271  1.8337 -1.1539 -0.4325
19829SOL     OW61865   4.754   6.796   3.633 -0.4206  0.5895 -0.4429
19829SOL    HW161866   4.695   6.840   3.572  0.2699  0.3315 -1.3203
19829SOL    HW261867   4.808   6.740   3.577  1.3629  1.5935  0.2042
19830SOL     OW61868   6.270   7.369   7.852 -0.1478 -0.3490  0.1280
19830SOL    HW161869   6.230   7.436   7.796 -0.5459 -1.3096 -0.7705
19830SOL    HW261870   6.348   7.412   7.888 -1.6985  1.4108  1.5688
19831SOL     OW61871   8.351   3.588   4.236 -0.0066  0.0307  0.3211
19831SOL    HW161872   8.306   3.635   4.307  1.9102  1.9601  0.3708
19831SOL    HW261873   8.370   3.502   4.273 -1.2424  0.1284  1.2516
19832SOL     OW61874   9.862   0.225   7.270 -0.6302  0.6607 -0.2302
19832SOL    HW161875   9.911   0.303   7.297  0.6382  0.1274 -0.9215
19832SOL    HW261876   9.873   0.221   7.175  0.8107 -1.3056 -0.0380
19833SOL     OW61877   1.930   4.195   1.613 -0.6065  0.5479 -0.2818
19833SOL    HW161878   1.941   4.207   1.519 -1.0947  1.1918 -0.2679
19833SOL    HW261879   1.976   4.114   1.633  2.4077  2.0715 -0.5078
19834SOL     OW61880   1.039   6.415  10.486  0.4300  0.1738 -0.5556
19834SOL    HW161881   1.095   6.447  10.556 -0.2466 -0.0326  0.0863
19834SOL    HW261882   1.077   6.331  10.460  0.1648 -0.1876  0.1926
19835SOL     OW61883   6.507   1.697   1.252 -0.1357  0.1074 -0.0472
19835SOL    HW161884   6.512   1.604   1.228 -0.0378  0.6712 -2.4239
19835SOL    HW261885   6.576   1.739   1.200 -0.8372  1.6656  0.2214
19836SOL     OW61886   0.916   6.978   9.501 -0.0249  0.3868  0.7452
19836SOL    HW161887   0.885   6.896   9.539 -3.4688  0.8646 -0.6777
19836SOL    HW261888   0.870   7.046   9.550 -0.5466  1.2186 -0.8194
19837SOL     OW61889   0.936   8.626  10.093 -0.3685  0.0267 -0.0540
19837SOL    HW161890   1.022   8.618  10.050  0.3531 -2.8985  1.6810
19837SOL    HW261891   0.877   8.573  10.039 -0.8468  1.0529 -0.5682
19838SOL     OW61892   8.144   3.523   5.408  0.3031 -0.4690  0.5151
19838SOL    HW161893   8.096   3.529   5.491 -0.4505 -1.2764  0.1577
19838SOL    HW261894   8.233   3.550   5.430 -0.0653  0.0499  1.4239
19839SOL     OW61895   5.163   5.293   4.667  0.3068 -0.2918  0.2486
19839SOL    HW161896   5.082   5.333   4.636  0.1240 -0.9682 -0.1678
19839SOL    HW261897   5.139   5.203   4.687  1.0075 -0.5524 -0.0750
19840SOL     OW61898   0.376   9.432   5.625  0.3864  0.3817  0.1484
19840SOL    HW161899   0.421   9.372   5.564 -2.1783 -0.7579 -0.7496
19840SOL    HW261900   0.419   9.516   5.610  0.1138  0.0971 -3.1227
19841SOL     OW61901   9.202   2.977   1.164  0.4414 -0.2231 -0.2144
19841SOL    HW161902   9.233   3.029   1.238 -0.0758 -2.4094  1.6759
19841SOL    HW261903   9.273   2.915   1.146 -0.2704 -1.1128 -0.0693
19842SOL     OW61904   1.633   6.657   7.813 -0.0795 -0.6242  0.0759
19842SOL    HW161905   1.651   6.596   7.884  1.0540  0.3195  0.6415
19842SOL    HW261906   1.681   6.622   7.738  2.0751  0.4287  0.8599
19843SOL     OW61907   5.200   6.067   9.765  0.1140  0.2814  0.1976
19843SOL    HW161908   5.257   5.995   9.791 -0.1820 -0.6461 -1.5922
19843SOL    HW261909   5.134   6.071   9.834  2.3161  1.4726  2.4117
19844SOL     OW61910   4.446   1.528   1.841 -0.0145 -0.2585 -0.4249
19844SOL    HW161911   4.512   1.481   1.893 -0.4981  0.4776  0.9061
19844SOL    HW261912   4.459   1.620   1.863 -0.3632  0.0569 -1.4907
19845SOL     OW61913   7.500  10.681   4.086  0.0951 -0.2841 -0.1113
19845SOL    HW161914   7.487  10.682   4.180 -0.4013  0.1344 -0.1807
19845SOL    HW261915   7.592  10.706   4.074 -0.1963  0.9885  0.2136
19846SOL     OW61916   6.042   0.043   2.371  0.3440 -1.0191 -0.1454
19846SOL    HW161917   6.041  -0.030   2.432 -3.1391 -1.4824 -0.5535
19846SOL    HW261918   6.076   0.007   2.289  1.8280 -1.2499  0.5485
19847SOL     OW61919   0.732  10.682   5.445  0.4435  0.3855 -0.5539
19847SOL    HW161920   0.754  10.698   5.353  1.2971  0.9314 -0.2696
19847SOL    HW261921   0.664  10.615   5.442 -1.0000  1.8127 -1.6734
19848SOL     OW61922   0.119   7.257   4.907 -0.3012  0.3407 -0.3142
19848SOL    HW161923   0.130   7.270   4.813 -1.3171 -0.1259 -0.5101
19848SOL    HW261924   0.179   7.186   4.929  1.3360  1.6840 -0.2357
19849SOL     OW61925   9.651   1.607   1.904 -0.3437  0.1493  0.2267
19849SOL    HW161926   9.586   1.670   1.935 -2.2534 -1.1557 -0.8756
19849SOL    HW261927   9.641   1.531   1.961  2.7078  1.1155  2.2621
19850SOL     OW61928   3.774   8.311   6.336  0.2077 -0.2054  0.6245
19850SOL    HW161929   3.771   8.406   6.349 -2.4281  0.1682 -1.9196
19850SOL    HW261930   3.684   8.286   6.315  1.3389 -2.7651 -1.8154
19851SOL     OW61931   9.079   7.250  10.800 -0.6905 -0.0125 -0.1955
19851SOL    HW161932   8.986   7.262  10.779 -1.0581  0.4842  1.5251
19851SOL    HW261933   9.115   7.339  10.800 -0.7323  0.0289  1.2219
19852SOL     OW61934   1.728   7.999   5.986 -0.3574  0.0942 -0.4036
19852SOL    HW161935   1.679   8.079   5.970  2.2123  1.5730 -1.5428
19852SOL    HW261936   1.721   7.984   6.080 -0.3090  2.1198 -0.0405
19853SOL     OW61937   7.868   2.201   7.244  0.6930 -0.3348  0.3308
19853SOL    HW161938   7.893   2.253   7.167  0.9711  0.5443  1.0058
19853SOL    HW261939   7.773   2.192   7.237  0.9870 -3.5687 -2.1778
19854SOL     OW61940   9.599   9.827   0.656  0.0788  0.3093 -0.5740
19854SOL    HW161941   9.690   9.800   0.641 -0.1763  0.0951 -1.8464
19854SOL    HW261942   9.595   9.845   0.750  1.7399  1.4668 -0.6737
19855SOL     OW61943   9.230   3.177  10.279  0.9372  0.7316  0.0076
19855SOL    HW161944   9.180   3.258  10.268 -0.1979  0.4023  2.1917
19855SOL    HW261945   9.311   3.192  10.229  0.4712  2.9292 -0.1961
19856SOL     OW61946   1.355   5.698   1.831 -0.0960 -0.0528  0.3678
19856SOL    HW161947   1.290   5.647   1.784 -0.8153 -0.2873  1.5751
19856SOL    HW261948   1.400   5.748   1.763 -0.0087 -1.5698 -0.7424
19857SOL     OW61949   3.551   6.323   0.280 -0.8484 -0.3032  0.5229
19857SOL    HW161950   3.614   6.395   0.274 -0.5389 -0.6806 -2.0923
19857SOL    HW261951   3.548   6.301   0.373  0.4220  1.8622  1.1409
19858SOL     OW61952   2.741   6.134   1.433  0.3063  0.7142 -0.1074
19858SOL    HW161953   2.647   6.128   1.416  0.6392  0.4573 -2.1216
19858SOL    HW261954   2.748   6.193   1.509 -1.6675 -3.0322  3.3364
19859SOL     OW61955   7.427   4.814   1.516 -0.2378  0.2381 -0.3073
19859SOL    HW161956   7.402   4.907   1.514  0.2856  0.3821 -0.2971
19859SOL    HW261957   7.374   4.776   1.585  0.3908  0.7833  0.4929
19860SOL     OW61958   5.906   6.017   8.214  0.1952 -0.8992  0.0772
19860SOL    HW161959   5.899   5.989   8.305  0.3827  0.1508  0.4328
19860SOL    HW261960   5.815   6.023   8.184  0.0375  0.3280  0.7223
19861SOL     OW61961   7.610   8.528   2.523  0.4748 -0.5262 -0.2640
19861SOL    HW161962   7.623   8.461   2.455  0.3917 -0.2045 -0.6015
19861SOL    HW261963   7.518   8.518   2.549 -0.7260  1.8710 -2.9821
19862SOL     OW61964   3.480   8.806   1.353  0.4658 -0.0491  0.7254
19862SOL    HW161965   3.493   8.716   1.383  0.8562  0.4594  2.1564
19862SOL    HW261966   3.430   8.797   1.272  0.2141 -1.5385  1.0143
19863SOL     OW61967   3.679   2.757   2.791 -0.1410  0.0695 -0.5601
19863SOL    HW161968   3.601   2.702   2.785 -0.0693 -0.2348  0.8540
19863SOL    HW261969   3.727   2.740   2.710 -0.7164 -1.0387 -0.6946
19864SOL     OW61970   6.195  10.355   2.393  0.5526 -0.4893  0.1708
19864SOL    HW161971   6.261  10.410   2.350  0.9086 -1.3621 -0.4353
19864SOL    HW261972   6.221  10.354   2.485 -0.3829  1.6414  0.5249
19865SOL     OW61973  10.062   1.720   9.372 -0.3607  0.4962  0.5376
19865SOL    HW161974   9.975   1.722   9.412 -0.9494 -1.9492 -0.4286
19865SOL    HW261975  10.064   1.794   9.312 -1.9938  0.2880  0.2007
19866SOL     OW61976   0.780   8.953   0.354  0.3460  0.8740  0.3001
19866SOL    HW161977   0.831   9.000   0.420  1.8187 -0.5723  0.2435
19866SOL    HW261978   0.817   8.982   0.271  1.0552 -0.1165  0.2555
19867SOL     OW61979   7.767   8.783   8.305  0.2710  0.1592 -0.9295
19867SOL    HW161980   7.698   8.784   8.371 -0.0070 -0.9819 -1.1915
19867SOL    HW261981   7.822   8.708   8.329  0.5571  0.1488 -1.6082
19868SOL     OW61982   0.990   5.092   8.706 -0.6819  0.2216 -0.1981
19868SOL    HW161983   1.022   5.148   8.635 -0.2696  0.0177 -0.1742
19868SOL    HW261984   0.938   5.025   8.662 -1.0806  0.5535 -0.2374
19869SOL     OW61985   9.124  10.024   3.285  0.2496  0.0054  0.6474
19869SOL    HW161986   9.042   9.986   3.316  0.8878 -0.3568  1.9484
19869SOL    HW261987   9.104  10.117   3.273 -0.3160 -0.0512  1.0970
19870SOL     OW61988   8.353   3.134   3.957  0.0086  0.2301 -0.4214
19870SOL    HW161989   8.337   3.222   3.991 -0.6131 -0.0347 -0.0159
19870SOL    HW261990   8.441   3.139   3.919 -0.2376  1.1696 -0.8928
19871SOL     OW61991   9.122   3.800   7.593 -0.4387  0.0467  0.4069
19871SOL    HW161992   9.119   3.824   7.685  0.2145 -0.2285  0.5063
19871SOL    HW261993   9.145   3.707   7.593 -2.0788 -0.3858  0.0067
19872SOL     OW61994   7.201   8.391   1.620  0.1860  0.3863  0.5265
19872SOL    HW161995   7.139   8.441   1.567 -0.9464 -0.8862  0.5633
19872SOL    HW261996   7.152   8.369   1.699  0.7062 -0.5514  0.6081
19873SOL     OW61997   6.884   7.907   5.266 -0.2194 -0.1031 -0.0536
19873SOL    HW161998   6.922   7.834   5.315 -0.6235 -0.0808  0.2947
19873SOL    HW261999   6.791   7.903   5.286 -0.1883  0.7469  0.2731
19874SOL     OW62000   7.194   2.490   6.452 -0.4366  0.0332 -0.3048
19874SOL    HW162001   7.275   2.449   6.422  0.4890  1.6032 -0.1105
19874SOL    HW262002   7.189   2.467   6.545 -0.9128 -1.1134 -0.5988
19875SOL     OW62003   3.413   5.864   8.952 -0.4612 -0.0530 -0.2883
19875SOL    HW162004   3.375   5.950   8.931  1.0642  0.4350 -1.2280
19875SOL    HW262005   3.407   5.858   9.047  0.6034  1.7343 -0.0513
19876SOL     OW62006   7.223   3.989   5.299  0.5968 -0.2639  0.1027
19876SOL    HW162007   7.209   3.937   5.220 -1.7432  0.6212 -0.1419
19876SOL    HW262008   7.303   4.039   5.281  0.7240 -0.8972 -1.2201
19877SOL     OW62009   3.101   5.746  10.323 -0.0893 -0.0870 -0.5590
19877SOL    HW162010   3.151   5.724  10.245  0.8630 -1.3279  0.3494
19877SOL    HW262011   3.161   5.728  10.396 -1.4419 -0.4435  0.5186
19878SOL     OW62012   9.826   4.745   8.373  0.1583  0.2970 -0.0015
19878SOL    HW162013   9.901   4.696   8.408  0.7326 -0.2101 -1.7945
19878SOL    HW262014   9.865   4.806   8.310 -0.9083  0.2567 -0.7281
19879SOL     OW62015   1.913   5.239   7.503  0.5479 -0.6456  0.1165
19879SOL    HW162016   1.874   5.154   7.486  0.6524 -0.3904 -1.5082
19879SOL    HW262017   1.993   5.241   7.449  0.7246  0.3451  0.3879
19880SOL     OW62018   4.589   8.455   5.203  0.0465  0.5380 -0.0893
19880SOL    HW162019   4.603   8.440   5.297 -1.5393  1.4340  0.3328
19880SOL    HW262020   4.614   8.547   5.190  0.4240  0.3666 -0.5917
19881SOL     OW62021   0.797   5.859   1.330 -0.0437  0.0066 -0.1099
19881SOL    HW162022   0.753   5.850   1.414  1.7444  0.0611  0.8986
19881SOL    HW262023   0.727   5.861   1.265 -1.4632 -0.1216  1.3697
19882SOL     OW62024   7.085   5.848   8.422  0.4878  0.1178 -0.7161
19882SOL    HW162025   7.093   5.834   8.516 -0.7408 -0.0982 -0.6330
19882SOL    HW262026   7.167   5.815   8.386  1.3100  0.9229  0.3451
19883SOL     OW62027   4.007   5.655   9.014 -0.2713 -0.2028 -0.1939
19883SOL    HW162028   4.084   5.602   8.992 -0.6240 -0.0842 -1.8703
19883SOL    HW262029   3.990   5.705   8.934 -1.9884 -0.0968  0.2087
19884SOL     OW62030   0.272   1.789   6.590  0.7535 -0.4567  0.7620
19884SOL    HW162031   0.310   1.871   6.557  0.0598  0.5931  2.4541
19884SOL    HW262032   0.347   1.738   6.620  1.0273  0.8433  2.4153
19885SOL     OW62033  10.786   8.084   0.729 -0.3049 -0.2428  0.0537
19885SOL    HW162034  10.761   8.076   0.822 -2.3553 -1.5772 -0.5344
19885SOL    HW262035  10.845   8.010   0.714  1.2766  0.8565  0.6060
19886SOL     OW62036   4.526  10.534   3.061 -0.2094  0.3683  0.2928
19886SOL    HW162037   4.587  10.551   2.990 -0.3760  1.8278  0.4783
19886SOL    HW262038   4.486  10.450   3.039 -1.0249  1.2713 -1.9107
19887SOL     OW62039   2.349  10.770   5.297 -0.3293 -0.5398 -0.4555
19887SOL    HW162040   2.357  10.848   5.241  0.9183  1.1266  1.8663
19887SOL    HW262041   2.422  10.714   5.270  0.5863  0.4824 -0.1897
19888SOL     OW62042   0.406   0.260   6.156  0.1477 -0.4625  0.3169
19888SOL    HW162043   0.488   0.212   6.144  0.4285  0.3148 -1.2111
19888SOL    HW262044   0.356   0.207   6.218  2.6736  0.2167  3.1165
19889SOL     OW62045   5.221   7.265   2.436  0.4052 -0.4851 -0.3169
19889SOL    HW162046   5.212   7.176   2.403  0.3829 -0.2492 -0.9698
19889SOL    HW262047   5.254   7.254   2.525 -3.1087 -1.2713  1.0569
19890SOL     OW62048   9.153  10.322   4.345 -0.3945  0.0732 -0.1510
19890SOL    HW162049   9.162  10.246   4.287 -1.7122  0.4977 -0.9541
19890SOL    HW262050   9.127  10.284   4.429 -3.0131 -0.3135 -1.0411
19891SOL     OW62051  10.335   5.907   1.720  0.1322  0.0715 -0.2687
19891SOL    HW162052  10.274   5.946   1.782 -0.4496 -0.3663 -0.5586
19891SOL    HW262053  10.281   5.879   1.647  0.9211  1.3969 -1.4032
19892SOL     OW62054   0.179   5.004   1.571  0.1114  0.0972  0.2267
19892SOL    HW162055   0.189   5.038   1.483 -0.2826 -0.1690  0.0765
19892SOL    HW262056   0.269   4.990   1.602  0.2818  1.2240  0.2842
19893SOL     OW62057   3.759   3.468   6.177  0.2983  0.0508 -0.2861
19893SOL    HW162058   3.687   3.502   6.230  0.1584 -0.2267 -0.3000
19893SOL    HW262059   3.783   3.542   6.121  1.7600  1.0435  1.4966
19894SOL     OW62060   7.246   7.297   0.705  0.0984 -0.0380 -0.3379
19894SOL    HW162061   7.161   7.292   0.660 -2.1533  0.1022  3.4445
19894SOL    HW262062   7.260   7.390   0.719  0.0301 -0.1430  0.4546
19895SOL     OW62063   2.071   4.111   0.856  0.3661  0.2442  0.0125
19895SOL    HW162064   2.050   4.140   0.945  1.7316 -0.3609  0.5552
19895SOL    HW262065   2.040   4.182   0.800  2.6409  2.3405  1.2041
19896SOL     OW62066   2.618   6.404   4.952  0.1254  0.0924 -0.2994
19896SOL    HW162067   2.632   6.319   4.994  1.1917 -0.4341 -1.6311
19896SOL    HW262068   2.666   6.398   4.869  0.3104  2.0304 -0.3835
19897SOL     OW62069   0.341   7.203   3.728  0.1314  0.7193  0.0861
19897SOL    HW162070   0.431   7.200   3.761 -0.4455  2.1741  2.0044
19897SOL    HW262071   0.310   7.290   3.751 -1.4525  0.6193 -1.4743
19898SOL     OW62072   7.571   2.352   3.199  0.0812  0.2774  0.2823
19898SOL    HW162073   7.491   2.368   3.149  0.3323 -1.3436 -0.7267
19898SOL    HW262074   7.642   2.387   3.145  0.1207  1.2118  0.9177
19899SOL     OW62075   7.080   2.834   8.697  0.9001 -0.0761 -0.6043
19899SOL    HW162076   6.990   2.805   8.684  1.9282 -2.3660 -4.4608
19899SOL    HW262077   7.079   2.927   8.674 -0.4268 -0.2279 -1.2590
19900SOL     OW62078  10.689  10.171   9.916  0.2185  0.8754  0.1901
19900SOL    HW162079  10.598  10.155   9.888 -0.2269  2.4784  0.6348
19900SOL    HW262080  10.724  10.232   9.851  1.1270  0.0081 -0.1704
19901SOL     OW62081   2.536   0.866   9.017  0.1487 -0.3251 -0.7736
19901SOL    HW162082   2.560   0.832   9.103 -0.4793 -1.0467 -0.8686
19901SOL    HW262083   2.604   0.931   8.997  0.5829 -0.5087  0.0382
19902SOL     OW62084   1.937   4.177   7.091  0.3680 -0.1255  0.2442
19902SOL    HW162085   1.931   4.271   7.108 -0.4920 -0.4297  1.7226
19902SOL    HW262086   2.023   4.166   7.052  0.9011  1.1429  0.9947
19903SOL     OW62087   9.893   5.614   0.224  0.0649 -0.0856 -0.4050
19903SOL    HW162088   9.827   5.567   0.172  1.2799  2.1254 -4.3695
19903SOL    HW262089   9.846   5.690   0.258  0.3560  1.3824 -3.0554
19904SOL     OW62090   7.968   0.595   1.697 -0.2870 -0.4508  0.0520
19904SOL    HW162091   8.053   0.614   1.738  1.2170 -0.6969 -2.6914
19904SOL    HW262092   7.965   0.654   1.621 -2.8455 -0.1132  0.3258
19905SOL     OW62093  10.246   3.425   0.737 -0.4747  0.0089  0.1410
19905SOL    HW162094  10.239   3.352   0.799 -0.0092 -0.2862 -0.1476
19905SOL    HW262095  10.340   3.436   0.724 -0.5640  0.1880 -0.3695
19906SOL     OW62096   2.656   1.847   7.918  0.1527  0.4719  0.3686
19906SOL    HW162097   2.610   1.830   7.836  1.6061  1.3008 -0.6743
19906SOL    HW262098   2.615   1.789   7.982 -1.0171 -0.1932 -0.9486
19907SOL     OW62099   4.622   9.250   1.735  0.4663 -0.3716  0.5593
19907SOL    HW162100   4.599   9.172   1.684 -2.2762 -0.5562  1.9038
19907SOL    HW262101   4.584   9.235   1.821  1.9466  1.4485  1.6191
19908SOL     OW62102   2.034   4.827   8.371  0.2532 -0.1877 -0.2061
19908SOL    HW162103   1.981   4.764   8.322  0.2930 -0.9194  0.6750
19908SOL    HW262104   2.097   4.774   8.419  1.0749  0.6115 -0.3864
19909SOL     OW62105   3.942   2.156  10.136  0.0536  0.0024  0.2527
19909SOL    HW162106   3.912   2.138  10.047 -0.7407 -2.6852  0.9635
19909SOL    HW262107   3.870   2.205  10.175 -0.3631 -0.3045 -0.1095
19910SOL     OW62108   9.107   2.723   4.230  0.1177  0.3491 -0.1098
19910SOL    HW162109   9.035   2.739   4.169 -0.8975 -0.3342  0.8661
19910SOL    HW262110   9.110   2.628   4.238  0.2570  0.4332  0.8815
19911SOL     OW62111   3.812   7.663   3.708  0.0433 -0.2660 -0.1982
19911SOL    HW162112   3.858   7.621   3.781  0.8378  2.5010  1.0404
19911SOL    HW262113   3.874   7.661   3.636  0.5552 -0.1014  0.2343
19912SOL     OW62114   9.897   1.966  10.155  0.4101 -0.4452 -0.6329
19912SOL    HW162115   9.938   2.020  10.087  2.9953  0.6319  1.6029
19912SOL    HW262116   9.852   2.028  10.212 -2.3194 -1.4025 -1.5654
19913SOL     OW62117   5.503   3.076   2.262 -0.0208 -0.1411  0.5527
19913SOL    HW162118   5.431   3.133   2.291 -0.0266 -0.4486  1.1650
19913SOL    HW262119   5.578   3.135   2.257 -0.1405  0.0262  0.6847
19914SOL     OW62120   4.671   2.333   4.843 -0.8796 -0.0684 -0.4416
19914SOL    HW162121   4.663   2.401   4.776 -1.5315  0.2095 -0.0996
19914SOL    HW262122   4.698   2.255   4.796  2.5283  1.0074 -0.5114
19915SOL     OW62123   2.881   7.740   4.100  0.3154 -0.0151  0.0783
19915SOL    HW162124   2.841   7.819   4.065  3.4418  1.8204  0.2895
19915SOL    HW262125   2.864   7.673   4.033 -0.2230  1.4664 -1.3267
19916SOL     OW62126   6.070   7.016   1.341  0.0417 -0.0861  0.2167
19916SOL    HW162127   5.980   7.048   1.335 -0.0070 -0.2426  0.1083
19916SOL    HW262128   6.121   7.093   1.366 -0.3217 -0.2864  1.6721
19917SOL     OW62129   8.253   6.205   1.762  0.4836  0.0226  0.1377
19917SOL    HW162130   8.322   6.172   1.819  1.0797  1.2173  0.1477
19917SOL    HW262131   8.243   6.297   1.788  0.1495  0.3440 -1.0928
19918SOL     OW62132   1.145   5.042   8.929 -0.3641 -0.6175  0.0322
19918SOL    HW162133   1.151   4.947   8.938  2.0358 -0.5124  0.0358
19918SOL    HW262134   1.119   5.057   8.838  3.1679 -1.2989 -1.2434
19919SOL     OW62135   8.440   7.439   5.162  0.0004 -0.1968 -0.1084
19919SOL    HW162136   8.521   7.488   5.151 -0.4794  0.3664 -1.4655
19919SOL    HW262137   8.468   7.349   5.175  0.8656  0.1919  0.8304
19920SOL     OW62138   4.360   4.660   5.337  0.0679  0.5312  0.3858
19920SOL    HW162139   4.417   4.728   5.372  2.0227 -0.0080 -1.5057
19920SOL    HW262140   4.356   4.594   5.406  2.5501  0.1805  0.2792
19921SOL     OW62141   1.379   3.073  10.102  0.1705  0.5291  0.0450
19921SOL    HW162142   1.311   3.096  10.165 -1.6076  0.2276 -1.6893
19921SOL    HW262143   1.354   2.987  10.069  2.6708 -0.6727  0.9635
19922SOL     OW62144   3.510   1.321   6.698  0.2929 -0.0874 -0.2000
19922SOL    HW162145   3.545   1.385   6.636  0.3501 -0.4541 -0.5467
19922SOL    HW262146   3.415   1.336   6.696  0.2443 -0.4321 -0.7549
19923SOL     OW62147   9.950  10.280   2.522 -0.1895 -0.7274 -0.1309
19923SOL    HW162148   9.988  10.348   2.467  0.4640 -0.9519  0.0376
19923SOL    HW262149   9.938  10.205   2.464  0.8797 -1.0994  0.1168
19924SOL     OW62150   4.158   0.332   2.245 -0.2254  0.2537  0.0085
19924SOL    HW162151   4.201   0.297   2.167  1.0146  0.4076  0.6108
19924SOL    HW262152   4.190   0.422   2.252  1.7913 -0.5301  2.1514
19925SOL     OW62153   3.764   1.434   3.106  0.1198 -0.0957 -0.2514
19925SOL    HW162154   3.683   1.483   3.090  0.5538 -0.1494 -3.2995
19925SOL    HW262155   3.738   1.342   3.101  0.1072 -0.1411  0.5395
19926SOL     OW62156   4.038   8.128   1.987 -0.1411  0.0575  0.6807
19926SOL    HW162157   4.047   8.079   1.905 -0.6016  1.1953 -0.0818
19926SOL    HW262158   4.001   8.065   2.049  1.0937 -1.0888  0.2998
19927SOL     OW62159   7.590   3.712   9.263  0.3144 -0.8325 -0.3037
19927SOL    HW162160   7.639   3.786   9.299  0.6598 -2.2272  2.4139
19927SOL    HW262161   7.592   3.724   9.168  0.2984  2.6185  0.0350
19928SOL     OW62162   3.804   8.712   9.103 -0.3442 -0.3177  0.4180
19928SOL    HW162163   3.802   8.632   9.050  1.0201 -0.4823  0.5780
19928SOL    HW262164   3.893   8.745   9.094 -0.9366  1.3415  0.1626
19929SOL     OW62165   3.296   5.504   1.191 -0.0523 -0.6076  0.0798
19929SOL    HW162166   3.321   5.575   1.132  0.2287 -0.5417  0.2733
19929SOL    HW262167   3.304   5.425   1.139 -1.3831 -0.4175 -0.4552
19930SOL     OW62168   0.411   8.964   3.875  0.1982 -0.2752 -0.7981
19930SOL    HW162169   0.417   8.900   3.804  2.2845 -0.2212 -0.7358
19930SOL    HW262170   0.446   9.045   3.838 -0.5071  0.2806 -0.2762
19931SOL     OW62171   2.004   1.846   0.477  0.1439  0.0379 -0.1787
19931SOL    HW162172   2.087   1.836   0.524  1.0866  1.5442 -1.4101
19931SOL    HW262173   1.938   1.852   0.546  0.5861 -3.9325  0.8368
19932SOL     OW62174   9.826   4.194   0.659  0.4439  0.3405  0.4526
19932SOL    HW162175   9.888   4.216   0.589  2.1470 -1.1305  1.3936
19932SOL    HW262176   9.843   4.259   0.727 -0.8762  1.4788 -0.2621
19933SOL     OW62177  10.379   1.260   6.934 -0.0747 -0.4249  0.8049
19933SOL    HW162178  10.366   1.347   6.973 -1.0952 -0.4107  0.4559
19933SOL    HW262179  10.436   1.276   6.859 -0.4997 -0.0097  0.5665
19934SOL     OW62180   8.520  10.359   2.775 -0.2607  0.3667 -0.5015
19934SOL    HW162181   8.473  10.277   2.761  1.4525 -0.5313 -1.3305
19934SOL    HW262182   8.476  10.400   2.850 -0.7903 -1.5633  0.2909
19935SOL     OW62183   8.597   1.182   2.681  0.1341 -0.3514  0.1481
19935SOL    HW162184   8.685   1.204   2.710  0.0873  1.1185 -0.7516
19935SOL    HW262185   8.595   1.086   2.681  1.7669 -0.4092  0.0619
19936SOL     OW62186   7.550   0.136   6.302  0.1918 -0.3041  0.5723
19936SOL    HW162187   7.622   0.078   6.326  1.0233  0.0383 -0.9550
19936SOL    HW262188   7.471   0.090   6.331  0.9632 -1.0656  1.5399
19937SOL     OW62189   5.583   8.585   4.050  0.2346 -0.0395 -0.2805
19937SOL    HW162190   5.617   8.595   4.139 -0.2004 -0.8816 -0.0092
19937SOL    HW262191   5.489   8.570   4.062  0.1387  0.0292 -0.8931
19938SOL     OW62192   2.927   1.347   0.469  0.0388 -0.0410  0.4523
19938SOL    HW162193   2.917   1.291   0.546  0.0232  0.8475  1.1062
19938SOL    HW262194   2.855   1.410   0.475 -0.3258 -0.3246 -0.6193
19939SOL     OW62195   8.784   9.511   1.837  0.1044 -0.2969  0.5327
19939SOL    HW162196   8.859   9.457   1.860  3.0361  2.4127 -1.7545
19939SOL    HW262197   8.751   9.543   1.921  0.6924 -2.4711  1.6620
19940SOL     OW62198   8.425   7.647   7.962 -0.3721  0.5784  0.1065
19940SOL    HW162199   8.399   7.739   7.966  0.6400  0.8173  1.6187
19940SOL    HW262200   8.347   7.599   7.990 -1.4280  0.8280 -2.1804
19941SOL     OW62201   3.902   8.647   9.913 -0.0888  0.8478  0.8291
19941SOL    HW162202   3.887   8.696   9.832 -0.5970  1.5127  1.3145
19941SOL    HW262203   3.848   8.691   9.978 -1.3498 -0.9408  1.0812
19942SOL     OW62204   9.163   7.290  10.020  0.3553 -0.2304  0.0604
19942SOL    HW162205   9.199   7.278   9.932  0.2498 -0.1604  0.0066
19942SOL    HW262206   9.197   7.217  10.071 -0.6949 -1.0451 -0.3842
19943SOL     OW62207  10.029   6.566   5.022 -0.4304 -0.3350 -0.3055
19943SOL    HW162208   9.986   6.533   5.100 -0.4476  1.0531  0.2994
19943SOL    HW262209  10.074   6.646   5.051 -1.1814  0.7137 -1.8897
19944SOL     OW62210   8.046   6.144   7.462  0.3270  0.3269  0.2101
19944SOL    HW162211   7.986   6.074   7.487  2.0678 -0.7964  1.4349
19944SOL    HW262212   8.006   6.223   7.499 -0.7873 -0.2723  0.3369
19945SOL     OW62213  10.474  10.446   3.317  0.0597 -0.0633  0.3145
19945SOL    HW162214  10.474  10.537   3.287  0.1629  0.3771  1.5879
19945SOL    HW262215  10.508  10.451   3.406 -4.2966 -0.7343  2.2177
19946SOL     OW62216   8.510   6.564   8.043 -0.4879  0.4000 -0.3950
19946SOL    HW162217   8.552   6.496   8.096 -1.4708  0.7437  0.8771
19946SOL    HW262218   8.553   6.645   8.069 -1.0793  0.5914 -0.0081
19947SOL     OW62219   5.867   1.076   2.380  0.0706 -0.4308 -0.7748
19947SOL    HW162220   5.910   1.075   2.295  1.3696  0.0207 -0.1480
19947SOL    HW262221   5.935   1.102   2.442 -1.1795  0.6182  0.2318
19948SOL     OW62222   4.258   6.986   6.154 -0.0597 -0.0443 -0.1344
19948SOL    HW162223   4.238   7.068   6.199  0.7883  1.1318 -1.8018
19948SOL    HW262224   4.293   6.929   6.222 -1.2907  0.7049  1.1939
19949SOL     OW62225   5.384   4.218   3.552 -0.0121 -0.5796 -0.1610
19949SOL    HW162226   5.330   4.240   3.476  0.8408 -0.6694 -0.8128
19949SOL    HW262227   5.323   4.180   3.614 -0.9262  0.4914 -0.3585
19950SOL     OW62228   2.819   7.110   9.847 -0.3872 -0.5627  0.3933
19950SOL    HW162229   2.900   7.076   9.807 -0.5138 -0.8913  0.4106
19950SOL    HW262230   2.827   7.088   9.940 -0.4270 -0.4565  0.4223
19951SOL     OW62231   3.000   0.104   5.263 -0.5149  0.2466 -0.3309
19951SOL    HW162232   2.960   0.185   5.296  1.0946  0.3666  1.5209
19951SOL    HW262233   3.039   0.128   5.179 -1.6889  0.8686 -0.7189
19952SOL     OW62234   4.146   8.716   2.224 -0.3302 -0.5351 -0.5287
19952SOL    HW162235   4.126   8.756   2.309  2.7686  1.0079 -0.3956
19952SOL    HW262236   4.130   8.786   2.160  1.2929 -0.3105 -0.7266
19953SOL     OW62237   4.678   3.907   5.279  0.5199 -0.2203 -0.7651
19953SOL    HW162238   4.755   3.964   5.271  0.0737  0.1159 -3.4865
19953SOL    HW262239   4.714   3.819   5.274  0.9617 -0.1697  0.8956
19954SOL     OW62240   7.594   9.802   4.453 -0.2811  0.3978  0.2058
19954SOL    HW162241   7.519   9.861   4.458  0.3086  1.0866  2.8995
19954SOL    HW262242   7.561   9.718   4.484  0.4923  1.3787  4.2420
19955SOL     OW62243   0.439   4.773   6.886 -0.5705 -0.1056  0.0321
19955SOL    HW162244   0.446   4.808   6.975 -1.7397  1.6453 -0.5201
19955SOL    HW262245   0.525   4.790   6.847 -0.3249 -0.1292  0.5469
19956SOL     OW62246   7.595   3.958   8.331  0.3667  0.4825  0.1810
19956SOL    HW162247   7.663   3.951   8.265  0.3525 -1.1164  0.2968
19956SOL    HW262248   7.516   3.983   8.282  0.5435  0.1554 -0.2722
19957SOL     OW62249   7.354   0.898   9.275 -0.4600 -0.0971  0.4046
19957SOL    HW162250   7.308   0.858   9.349  0.7026  0.4793  1.4629
19957SOL    HW262251   7.445   0.873   9.287 -0.3507 -0.5702 -1.2402
19958SOL     OW62252  10.010   7.634   8.989 -0.9112  0.2708  0.3868
19958SOL    HW162253  10.080   7.671   9.043 -0.5867 -0.6024  0.5793
19958SOL    HW262254  10.018   7.539   9.000 -0.3135 -0.0010 -1.8129
19959SOL     OW62255   0.035   3.097   0.390 -0.5237 -0.6345  0.9027
19959SOL    HW162256   0.039   3.086   0.485 -1.2101 -1.2526  0.8745
19959SOL    HW262257  -0.004   3.183   0.378 -0.1363 -0.4156  1.1745
19960SOL     OW62258   0.685   3.482   4.366  0.1405  0.1415  0.1035
19960SOL    HW162259   0.778   3.500   4.353 -0.1258  0.8721 -0.8670
19960SOL    HW262260   0.656   3.442   4.285 -1.0423  2.6769 -0.8398
19961SOL     OW62261  10.176   9.158   6.607  0.8037 -0.5022 -0.6728
19961SOL    HW162262  10.243   9.111   6.656 -0.8095  0.8577  3.2222
19961SOL    HW262263  10.112   9.090   6.583  0.5726 -0.9844  1.1593
19962SOL     OW62264  10.386   9.003   2.552 -0.4251  0.2228  0.3488
19962SOL    HW162265  10.458   8.943   2.531 -0.1207  0.6278  0.2206
19962SOL    HW262266  10.411   9.042   2.636 -1.9223 -1.8403  1.8827
19963SOL     OW62267   3.327   0.024   9.104  0.3252 -0.2126  0.0705
19963SOL    HW162268   3.285  -0.042   9.158  2.3749 -0.1129  1.8705
19963SOL    HW262269   3.326   0.104   9.157  0.2529  0.5548 -1.0232
19964SOL     OW62270   2.038   5.350   9.306 -0.2801 -0.3754  0.1788
19964SOL    HW162271   2.131   5.373   9.311 -0.3703  0.1951 -0.5973
19964SOL    HW262272   1.999   5.389   9.384 -0.0151  0.1252  0.0643
19965SOL     OW62273   5.699   6.136   3.287  0.2526 -0.3118 -0.4365
19965SOL    HW162274   5.769   6.112   3.347  0.7951 -1.5549 -1.5077
19965SOL    HW262275   5.620   6.099   3.327  0.7255 -1.8229 -0.8395
19966SOL     OW62276   0.698   2.884   1.247  0.1452  0.6777 -0.1582
19966SOL    HW162277   0.668   2.833   1.171  1.2056  2.0122 -1.5184
19966SOL    HW262278   0.653   2.968   1.239  0.7128  1.0417  0.3666
19967SOL     OW62279   8.403   8.841   8.920  0.4015  0.3655  0.6407
19967SOL    HW162280   8.409   8.933   8.895  0.6668  0.3281  0.5569
19967SOL    HW262281   8.315   8.831   8.956 -0.7943 -0.0213 -2.1388
19968SOL     OW62282   6.404   4.228   2.291 -0.0120 -0.1011  0.2902
19968SOL    HW162283   6.379   4.219   2.382  0.1555  0.0448  0.3520
19968SOL    HW262284   6.322   4.221   2.242 -0.2198  0.7512  0.5107
19969SOL     OW62285   9.977   3.459   4.515 -0.5114  0.3798  0.5733
19969SOL    HW162286   9.952   3.462   4.423  0.4898  1.1844  0.3161
19969SOL    HW262287  10.061   3.414   4.515 -1.4066 -1.4105  1.3268
19970SOL     OW62288   0.892   1.714   4.066 -0.2519 -0.2141 -0.3382
19970SOL    HW162289   0.907   1.645   4.132  1.1392 -0.1150 -0.5103
19970SOL    HW262290   0.831   1.775   4.108  2.7107  1.3621  2.0928
19971SOL     OW62291   3.197   9.843   0.049 -0.3794  0.2663  0.2723
19971SOL    HW162292   3.107   9.811   0.048  0.8278 -3.5764  0.3131
19971SOL    HW262293   3.199   9.907   0.120 -2.6880 -0.8587  1.4649
19972SOL     OW62294   7.691   4.154   8.953 -0.1745  0.5030 -0.7695
19972SOL    HW162295   7.625   4.086   8.945  0.2743 -0.5079  2.5057
19972SOL    HW262296   7.643   4.236   8.941 -1.9599 -0.2308  0.8111
19973SOL     OW62297   7.349   7.867   1.461 -0.0170  0.0800 -0.2983
19973SOL    HW162298   7.317   7.850   1.373 -1.0814 -1.5214  0.3344
19973SOL    HW262299   7.362   7.961   1.465 -3.1596  0.6621 -1.1368
19974SOL     OW62300   5.536   6.021   2.135  0.5320  0.0605 -0.1596
19974SOL    HW162301   5.532   6.022   2.040  0.8623 -0.7061 -0.1875
19974SOL    HW262302   5.627   5.999   2.155  0.5013  0.3746  0.3321
19975SOL     OW62303   5.442   8.041   9.657 -0.1742 -0.3134 -0.5253
19975SOL    HW162304   5.426   8.034   9.751  0.4405  0.0250 -0.3887
19975SOL    HW262305   5.537   8.032   9.648 -0.0681  1.0044 -0.9682
19976SOL     OW62306   0.634   0.611   5.748 -0.3466 -0.3979  0.0667
19976SOL    HW162307   0.595   0.621   5.662 -0.2959 -0.2431  0.0610
19976SOL    HW262308   0.623   0.518   5.769 -0.9014 -0.3145  0.1593
19977SOL     OW62309   9.840   2.286  10.794  0.0158 -0.1209 -0.3004
19977SOL    HW162310   9.837   2.208  10.738 -0.8310 -0.5327  0.2985
19977SOL    HW262311   9.853   2.251  10.882 -1.3926  0.3345  0.1027
19978SOL     OW62312  10.006   4.976   5.858 -0.1403  0.1501 -0.2856
19978SOL    HW162313   9.974   4.885   5.852 -0.3208  0.0916  1.1882
19978SOL    HW262314   9.965   5.010   5.937  1.0451  1.0725 -0.0446
19979SOL     OW62315   0.445   0.130  10.534  0.0183  0.4498  0.6176
19979SOL    HW162316   0.440   0.163  10.624 -2.7711 -0.0914  0.7480
19979SOL    HW262317   0.374   0.175  10.488 -0.1829 -1.1072 -0.6676
19980SOL     OW62318   4.324   4.165   2.360 -0.2174 -0.6531 -0.5150
19980SOL    HW162319   4.367   4.162   2.446  1.2358  1.5681 -1.0661
19980SOL    HW262320   4.230   4.169   2.380  0.0886 -0.3383  0.9654
19981SOL     OW62321   2.788   4.455   5.662 -0.0434  0.4203 -0.5036
19981SOL    HW162322   2.861   4.512   5.636  0.5613 -0.6492 -1.2200
19981SOL    HW262323   2.744   4.433   5.580 -0.3113 -0.0992 -0.2243
19982SOL     OW62324   9.923   6.310   9.545  0.0861 -0.2780  0.2278
19982SOL    HW162325   9.999   6.287   9.491  1.5093 -0.4144  2.1736
19982SOL    HW262326   9.890   6.226   9.576  1.5908 -0.1182  2.4897
19983SOL     OW62327   5.286   8.949   7.014 -0.3171  0.2039 -0.1175
19983SOL    HW162328   5.334   8.946   7.097 -0.3972 -3.0756 -0.0592
19983SOL    HW262329   5.350   8.977   6.950  0.7341 -0.5744  0.5527
19984SOL     OW62330   3.205   9.209   1.857  0.3035 -0.1653 -0.3978
19984SOL    HW162331   3.188   9.175   1.945 -0.9283 -1.6116 -1.1483
19984SOL    HW262332   3.289   9.253   1.864 -0.8441  1.9008  2.0920
19985SOL     OW62333   3.890   4.157  10.475  0.1043  0.7394 -0.4382
19985SOL    HW162334   3.933   4.152  10.561 -0.0346  1.0475 -0.3473
19985SOL    HW262335   3.960   4.182  10.415  0.1516  0.7665 -0.3726
19986SOL     OW62336   8.821   8.883   6.554  0.2697 -0.3130  0.2484
19986SOL    HW162337   8.883   8.819   6.519  0.6756 -0.8082  1.7836
19986SOL    HW262338   8.841   8.887   6.647 -1.5063  0.1056  0.6437
19987SOL     OW62339   8.218   3.132   6.771  0.0548  0.1541  0.3291
19987SOL    HW162340   8.146   3.160   6.828  1.1598  0.9424  1.4096
19987SOL    HW262341   8.280   3.090   6.831  0.7187 -0.0556 -0.5005
19988SOL     OW62342   4.383   5.846   3.491 -0.6339 -0.4495 -0.2031
19988SOL    HW162343   4.305   5.800   3.521 -1.3621  1.7925  1.6109
19988SOL    HW262344   4.357   5.938   3.487  1.5285  0.1950 -0.9073
19989SOL     OW62345   4.782  10.348   2.257  0.0560 -0.0823 -0.0434
19989SOL    HW162346   4.799  10.389   2.342 -1.4175  3.0526 -1.1117
19989SOL    HW262347   4.699  10.386   2.228  0.2650 -1.4169 -2.7099
19990SOL     OW62348   1.103   6.986   8.087 -0.3383 -0.3461 -0.5594
19990SOL    HW162349   1.127   7.018   8.174 -0.7705 -0.3287 -0.4429
19990SOL    HW262350   1.036   7.047   8.057  0.0953 -0.1209 -1.0738
19991SOL     OW62351   6.434   3.515   6.671 -0.0580 -0.0121 -0.1165
19991SOL    HW162352   6.349   3.546   6.639  0.2781  1.2042  0.1435
19991SOL    HW262353   6.438   3.423   6.641 -1.0682  0.1746 -0.9001
19992SOL     OW62354   2.434  10.425   9.667 -0.1805  0.1497 -0.2727
19992SOL    HW162355   2.421  10.510   9.710  0.9120  0.3961 -0.3938
19992SOL    HW262356   2.369  10.368   9.708  0.0760  0.6647  0.9116
19993SOL     OW62357   1.871   9.994   9.386  0.0881  0.3793 -0.4875
19993SOL    HW162358   1.821   9.926   9.432  1.0641 -0.7146 -0.9650
19993SOL    HW262359   1.874  10.067   9.447 -2.9971  0.9419 -0.8638
19994SOL     OW62360   1.037   7.125   3.848  0.4624  1.0158 -0.2464
19994SOL    HW162361   1.045   7.041   3.893 -1.0915  0.7590 -0.3965
19994SOL    HW262362   1.075   7.189   3.908  5.1753 -0.1055 -1.5779
19995SOL     OW62363   5.988   1.158   6.643 -0.3647 -0.5035 -0.0955
19995SOL    HW162364   6.011   1.170   6.735 -0.5005 -1.9990  0.1567
19995SOL    HW262365   5.911   1.102   6.645  0.7969 -2.2357 -1.1515
19996SOL     OW62366   3.918   8.121   4.707 -0.0859  0.0641  0.4207
19996SOL    HW162367   4.000   8.075   4.689 -1.4723 -2.2886 -0.2686
19996SOL    HW262368   3.908   8.116   4.802  0.3451 -0.0049  0.4656
19997SOL     OW62369   2.575   4.091   9.624 -0.4170  0.5759  0.1076
19997SOL    HW162370   2.601   4.036   9.550  0.8123  1.2935 -0.0224
19997SOL    HW262371   2.481   4.076   9.633 -0.5293  0.2070 -1.3764
19998SOL     OW62372   2.068   4.908   1.154  0.0850 -0.4263  0.6292
19998SOL    HW162373   2.079   5.000   1.178  0.0188 -0.4340  0.6914
19998SOL    HW262374   2.001   4.908   1.085 -0.4196 -0.4852  1.1060
19999SOL     OW62375   4.197   2.580   2.148  0.5696  0.6351 -0.0674
19999SOL    HW162376   4.259   2.521   2.106  1.7153  0.8927  1.1891
19999SOL    HW262377   4.222   2.667   2.116  2.1279  0.9554  1.8417
20000SOL     OW62378   1.759   4.303   0.125 -0.5282  0.1067  0.3147
20000SOL    HW162379   1.795   4.280   0.211 -1.2416 -0.1657  0.5448
20000SOL    HW262380   1.667   4.323   0.142 -0.3052  1.5794 -0.1443
20001SOL     OW62381   0.679   3.465   4.011  0.9807 -0.3399 -0.4021
20001SOL    HW162382   0.669   3.490   3.919 -1.0564  1.3738  0.1909
20001SOL    HW262383   0.592   3.436   4.038  1.3660 -0.1776  1.1336
20002SOL     OW62384   6.646   1.599   8.431  0.6171  0.3403 -0.5151
20002SOL    HW162385   6.630   1.504   8.426  1.7957  0.0068  1.1721
20002SOL    HW262386   6.604   1.634   8.352 -0.0397 -1.5475 -1.0766
20003SOL     OW62387   4.422   1.798   9.182  0.0629 -0.1604 -0.3778
20003SOL    HW162388   4.328   1.815   9.176 -0.0317  0.3225  1.6784
20003SOL    HW262389   4.462   1.863   9.124 -0.8000  0.6734 -0.0539
20004SOL     OW62390   8.473   0.547   0.923 -0.6106 -0.2156  0.2941
20004SOL    HW162391   8.473   0.572   1.015 -0.7929 -0.1698  0.2824
20004SOL    HW262392   8.522   0.465   0.920  0.6338  0.5049  0.2234
20005SOL     OW62393   4.937   3.403   1.022 -0.2219 -0.6161 -0.4667
20005SOL    HW162394   4.972   3.409   0.933 -0.3341 -1.1196 -0.5504
20005SOL    HW262395   4.917   3.493   1.046 -4.6139 -0.6541 -2.7729
20006SOL     OW62396   2.111   3.278   3.448  0.0624  0.7459  0.3473
20006SOL    HW162397   2.022   3.271   3.412  0.9040  0.1046 -1.7845
20006SOL    HW262398   2.133   3.189   3.475  0.0478  0.9093  0.9027
20007SOL     OW62399   3.185   7.921   8.380 -0.0015  0.5026  0.1626
20007SOL    HW162400   3.263   7.927   8.435 -0.3146 -0.7304  0.7529
20007SOL    HW262401   3.215   7.875   8.302  0.2991  1.7362 -0.4890
20008SOL     OW62402   7.241   8.177   7.459  0.3467  0.3209  0.3981
20008SOL    HW162403   7.209   8.106   7.515  0.3230  0.9991  1.2675
20008SOL    HW262404   7.311   8.218   7.509 -1.2089  2.4179  1.0088
20009SOL     OW62405   0.176   3.708   5.276  0.4301 -0.2315  0.1951
20009SOL    HW162406   0.207   3.649   5.344 -0.3835 -1.6553 -0.6196
20009SOL    HW262407   0.169   3.653   5.198 -3.7994 -0.0453  0.1964
20010SOL     OW62408   6.911   9.505   3.632  0.0667  0.4725  0.1431
20010SOL    HW162409   6.885   9.486   3.722  1.3749  1.1250  0.6924
20010SOL    HW262410   6.887   9.597   3.619  1.1463  0.8061  0.3435
20011SOL     OW62411  10.247   2.535   3.358 -0.4547  0.5156 -0.0751
20011SOL    HW162412  10.270   2.619   3.398 -0.8318  1.8394 -2.4666
20011SOL    HW262413  10.154   2.523   3.379 -0.0065 -0.2072  1.6936
20012SOL     OW62414   0.087   7.485   6.226 -0.2981 -0.1038 -0.3153
20012SOL    HW162415   0.046   7.428   6.291 -1.3866 -0.3224 -1.1652
20012SOL    HW262416   0.088   7.434   6.146 -2.0792  1.3203 -1.3291
20013SOL     OW62417   9.413   8.290  10.172  0.1856  0.7780  0.3241
20013SOL    HW162418   9.367   8.343  10.236 -0.7366  1.6109 -0.9671
20013SOL    HW262419   9.471   8.234  10.223 -3.0355 -1.1638  2.1981
20014SOL     OW62420   1.777   8.413   0.410  0.0496  0.4989 -0.2795
20014SOL    HW162421   1.852   8.437   0.356  0.1707 -0.8997 -0.7650
20014SOL    HW262422   1.810   8.416   0.499  0.6961 -0.1111 -0.4876
20015SOL     OW62423   7.633   1.855   8.650  0.1809 -0.1724 -0.7349
20015SOL    HW162424   7.620   1.890   8.562 -0.8877  0.0489 -0.5030
20015SOL    HW262425   7.699   1.913   8.689  0.1695  0.1305 -1.1608
20016SOL     OW62426   5.928   1.425  10.676 -0.9273 -0.5247  0.1403
20016SOL    HW162427   5.958   1.401  10.764 -0.1664  0.9446  0.3212
20016SOL    HW262428   5.848   1.474  10.691  1.5184  3.9050  0.5828
20017SOL     OW62429   2.540   4.464   7.283  0.3270  0.2694 -0.3978
20017SOL    HW162430   2.594   4.406   7.229  0.1982 -0.2106 -0.0100
20017SOL    HW262431   2.531   4.543   7.230 -1.3609 -0.8658 -1.9059
20018SOL     OW62432   0.419   8.819   4.377 -0.0861 -0.2315 -0.4015
20018SOL    HW162433   0.510   8.840   4.401  0.7487 -0.5911 -2.9732
20018SOL    HW262434   0.388   8.895   4.329 -0.9553 -0.3655 -0.0746
20019SOL     OW62435   5.990   0.565   7.755 -0.3651  0.2305 -0.1661
20019SOL    HW162436   5.906   0.530   7.784 -1.9773  1.9976 -2.3798
20019SOL    HW262437   5.999   0.535   7.665  2.0098 -0.8826  0.3723
20020SOL     OW62438   1.447   5.846   0.824 -0.4281 -0.3885 -0.5042
20020SOL    HW162439   1.388   5.871   0.895 -0.7639  0.3500 -1.0266
20020SOL    HW262440   1.400   5.778   0.776 -1.0059  0.3935 -1.0851
20021SOL     OW62441   5.545   7.534   9.740  0.8158  0.0951  0.1192
20021SOL    HW162442   5.508   7.556   9.825  0.6009  1.2041 -0.2491
20021SOL    HW262443   5.496   7.456   9.712  0.7640 -0.1679  0.9198
20022SOL     OW62444   5.545   2.294   4.954  0.3440  0.2796 -0.4317
20022SOL    HW162445   5.555   2.218   5.012  0.5817 -1.2057 -2.2963
20022SOL    HW262446   5.450   2.308   4.950  0.2441 -0.4080 -0.6367
20023SOL     OW62447   9.087   9.066  10.517  0.7779 -0.0051 -0.9503
20023SOL    HW162448   9.179   9.089  10.529  1.0130 -0.6370 -1.4892
20023SOL    HW262449   9.082   8.973  10.538 -0.6374  0.8808  3.6999
20024SOL     OW62450   1.600   4.116   3.633  0.1099 -0.0937 -0.0780
20024SOL    HW162451   1.676   4.163   3.668  0.2005  0.2885 -0.7813
20024SOL    HW262452   1.602   4.031   3.678  2.4507 -1.1204 -1.9186
20025SOL     OW62453   9.209   6.642   7.550  0.1189  0.4153  0.0473
20025SOL    HW162454   9.171   6.723   7.515 -0.9981  0.6438  1.6796
20025SOL    HW262455   9.256   6.604   7.476 -2.1499  0.8291 -1.7126
20026SOL     OW62456   8.391   4.466   1.190 -0.0966 -0.2681  0.6600
20026SOL    HW162457   8.422   4.553   1.167 -1.5231  0.2321  0.5052
20026SOL    HW262458   8.380   4.421   1.106 -0.9498 -0.0073  0.6203
20027SOL     OW62459   5.644   1.001   5.354  0.0194 -0.0132 -0.7293
20027SOL    HW162460   5.689   1.084   5.339 -0.6425  0.3869 -0.5532
20027SOL    HW262461   5.593   1.015   5.433 -1.4960  0.0187 -1.6745
20028SOL     OW62462   1.767   6.787   3.395  0.0687 -0.1908 -0.0259
20028SOL    HW162463   1.703   6.844   3.438  0.2547 -1.5887  2.3069
20028SOL    HW262464   1.825   6.759   3.466  1.6577 -1.0716 -1.6061
20029SOL     OW62465   5.486   4.052   2.402  0.2279  0.4438 -0.3776
20029SOL    HW162466   5.395   4.048   2.371  0.4195  1.9405 -1.2531
20029SOL    HW262467   5.504   4.146   2.410  1.8024  0.1775 -0.5188
20030SOL     OW62468   9.034   4.524   2.120  0.1614 -0.1880 -0.2351
20030SOL    HW162469   8.972   4.545   2.051  1.6083  1.2139 -1.1695
20030SOL    HW262470   8.997   4.447   2.163 -0.4619 -1.5743 -3.0155
20031SOL     OW62471   3.310   2.589   9.160  0.1856 -0.6718  0.0776
20031SOL    HW162472   3.331   2.496   9.170  1.5749 -0.4557 -0.6252
20031SOL    HW262473   3.358   2.616   9.082  1.2395  1.0656  1.2812
20032SOL     OW62474  10.425   9.150   0.738 -0.1973 -0.5617 -0.0224
20032SOL    HW162475  10.445   9.086   0.669 -1.6922 -0.3334 -0.7238
20032SOL    HW262476  10.386   9.098   0.808  0.4894 -0.6742  0.2843
20033SOL     OW62477   2.760   5.422   3.540 -0.6021  0.2283 -0.2118
20033SOL    HW162478   2.729   5.430   3.630  0.5214  1.3638  0.1069
20033SOL    HW262479   2.732   5.335   3.512  0.1357 -0.6609  1.6700
20034SOL     OW62480   5.100   1.759   1.834  1.0097 -0.0031  0.4235
20034SOL    HW162481   5.099   1.772   1.929  1.9528 -0.2506  0.4793
20034SOL    HW262482   5.049   1.679   1.820  2.2745 -0.9124  0.8946
20035SOL     OW62483   4.231   0.391   0.126 -0.6747 -0.3736  0.1828
20035SOL    HW162484   4.305   0.356   0.174  0.7048  2.4344  0.3184
20035SOL    HW262485   4.251   0.373   0.034  1.0786  1.7448  0.0816
20036SOL     OW62486   2.687   6.127   3.097  0.2171 -0.1644 -0.6765
20036SOL    HW162487   2.702   6.075   3.018  1.4163 -2.8997  1.1554
20036SOL    HW262488   2.641   6.067   3.156 -1.9584  2.2566  0.2831
20037SOL     OW62489   8.115   2.945   6.220  0.0516  0.7321  0.3772
20037SOL    HW162490   8.047   3.011   6.205 -0.3355  0.4547  0.8965
20037SOL    HW262491   8.073   2.861   6.201  0.8888  0.6770 -1.5133
20038SOL     OW62492   8.983   2.934   5.505  0.1945  0.1511 -0.2014
20038SOL    HW162493   9.048   2.866   5.524  0.1180  0.3498  0.8783
20038SOL    HW262494   8.902   2.902   5.546 -0.3802 -0.0528 -1.4587
20039SOL     OW62495   7.098   5.885   9.700  0.2201  0.6658 -0.8713
20039SOL    HW162496   7.117   5.961   9.755  0.3395  0.0953 -0.1116
20039SOL    HW262497   7.006   5.897   9.675  0.0016  0.6568 -0.1009
20040SOL     OW62498  10.397   8.822   1.449 -0.0222 -0.1935  0.0888
20040SOL    HW162499  10.431   8.733   1.440 -1.6892 -0.7814 -0.8354
20040SOL    HW262500  10.369   8.828   1.540  0.3443 -0.5184  0.2250
20041SOL     OW62501   8.463   9.936   5.447 -0.9429  0.1454 -0.1192
20041SOL    HW162502   8.380   9.918   5.491 -0.2553  0.3019  1.3070
20041SOL    HW262503   8.526   9.878   5.490  0.0424  1.3646  0.1291
20042SOL     OW62504  10.303   3.026   8.459  0.1753  0.5976 -0.1578
20042SOL    HW162505  10.395   3.000   8.472  0.5079  0.0074 -2.9360
20042SOL    HW262506  10.301   3.118   8.486  1.0868  0.1308  1.7024
20043SOL     OW62507   2.772   1.030  10.235 -0.2479  0.0272  0.3997
20043SOL    HW162508   2.766   1.054  10.328  0.2784 -0.7126  0.6384
20043SOL    HW262509   2.865   1.037  10.215 -0.4286  0.6936 -0.2212
20044SOL     OW62510   3.717   8.205   1.895 -0.1582 -0.3694 -0.5427
20044SOL    HW162511   3.760   8.143   1.954  1.5148  0.0778 -1.2190
20044SOL    HW262512   3.638   8.161   1.865  0.4312 -1.7172 -0.1563
20045SOL     OW62513   6.726   9.228   2.515  0.3863  0.1342 -0.0213
20045SOL    HW162514   6.666   9.187   2.453 -0.8355  0.3771  0.9492
20045SOL    HW262515   6.811   9.226   2.472 -0.0680 -1.3717 -0.9189
20046SOL     OW62516   5.868   3.291   1.860  0.0495 -0.0828 -0.0777
20046SOL    HW162517   5.873   3.352   1.787  0.8988 -2.3952 -2.1108
20046SOL    HW262518   5.775   3.272   1.870 -0.0371 -0.2612 -1.0877
20047SOL     OW62519   7.010   7.914   9.247  0.3318 -0.7211 -0.1040
20047SOL    HW162520   6.919   7.892   9.267  0.0253 -0.5166 -1.2402
20047SOL    HW262521   7.041   7.843   9.192  1.0035 -0.9948  0.5951
20048SOL     OW62522   4.359   9.544   3.463  0.0379 -0.3679  0.1440
20048SOL    HW162523   4.392   9.480   3.400  0.7731 -1.9658  2.0616
20048SOL    HW262524   4.297   9.496   3.517 -0.7300  1.0115  0.5385
20049SOL     OW62525   3.247   7.954   3.853  0.0144 -0.2394 -0.0635
20049SOL    HW162526   3.202   7.872   3.834  0.7308 -0.5155 -0.6147
20049SOL    HW262527   3.189   8.000   3.913 -0.6618 -0.8975 -0.2024
20050SOL     OW62528   4.978   2.656   3.096  0.3248 -0.6927  0.7422
20050SOL    HW162529   5.043   2.713   3.054  0.9067 -0.9483  1.2739
20050SOL    HW262530   4.956   2.592   3.029  0.5146 -0.5179  0.5081
20051SOL     OW62531   5.801  10.106   7.325  0.2186  0.0904  0.0451
20051SOL    HW162532   5.735  10.052   7.281  1.0627 -1.0736  0.1649
20051SOL    HW262533   5.842  10.047   7.388 -0.3048  1.4692  1.7404
20052SOL     OW62534   0.459   6.463   5.039 -0.1519 -0.3148  0.0260
20052SOL    HW162535   0.425   6.546   5.071 -0.2174 -0.4061  0.1884
20052SOL    HW262536   0.395   6.434   4.974 -0.3908 -0.4967  0.3454
20053SOL     OW62537   2.381   5.162   1.699  0.3937  0.2292 -0.1069
20053SOL    HW162538   2.292   5.187   1.675  0.6213  0.2277 -0.9860
20053SOL    HW262539   2.435   5.236   1.674  0.4320  1.0779  2.2605
20054SOL     OW62540   5.171   6.996   2.372 -0.3218 -0.4239 -0.2518
20054SOL    HW162541   5.137   6.972   2.286  0.1870  1.2148 -0.9569
20054SOL    HW262542   5.135   6.930   2.431 -1.3792 -1.0970 -1.5779
20055SOL     OW62543  10.292   4.177   8.956  0.0238  0.0641  0.4078
20055SOL    HW162544  10.355   4.249   8.947  0.6855 -0.6297 -0.9477
20055SOL    HW262545  10.210   4.212   8.920  0.2285  0.2847  0.1481
20056SOL     OW62546   4.490   2.755   5.778  0.6042  1.3390 -0.1483
20056SOL    HW162547   4.539   2.742   5.697  0.1724  0.0137 -0.2247
20056SOL    HW262548   4.504   2.675   5.828  0.6553  2.0322  0.9848
20057SOL     OW62549  10.052   1.338   3.267  0.3745 -0.1754 -0.0033
20057SOL    HW162550  10.043   1.248   3.237 -1.0829 -0.5381  1.3733
20057SOL    HW262551   9.975   1.383   3.233  0.6436  0.3304  0.0387
20058SOL     OW62552   1.726   1.275   2.521  0.4093  0.3772 -0.4413
20058SOL    HW162553   1.632   1.262   2.505  0.5839 -2.0431  0.0348
20058SOL    HW262554   1.747   1.358   2.478 -2.0196  1.2108 -0.1726
20059SOL     OW62555  10.086   6.337   7.159  0.7565  0.5148  0.3064
20059SOL    HW162556  10.039   6.359   7.239  0.9532 -1.5194  1.0370
20059SOL    HW262557  10.176   6.321   7.186  0.5730 -1.3741 -0.0799
20060SOL     OW62558   7.370   4.177   0.387  0.3288 -0.8584  0.6886
20060SOL    HW162559   7.439   4.236   0.356  0.2536 -2.2641 -2.6366
20060SOL    HW262560   7.376   4.101   0.329 -2.3779 -2.1644  1.9493
20061SOL     OW62561   2.386  10.329   3.910 -0.0602  0.9009 -0.1781
20061SOL    HW162562   2.466  10.315   3.859  0.3552  0.1356  0.6513
20061SOL    HW262563   2.418  10.351   3.998 -0.7672  1.4821 -0.0540
20062SOL     OW62564   4.083   5.619   4.787  0.1933 -0.5103 -0.3978
20062SOL    HW162565   4.035   5.550   4.833 -0.7845  1.3999  1.6215
20062SOL    HW262566   4.019   5.657   4.727  0.4040 -0.6190 -0.6934
20063SOL     OW62567   0.024   8.955  10.745 -0.9195 -0.7158  0.1467
20063SOL    HW162568   0.118   8.936  10.749 -0.6133 -0.4355 -3.1285
20063SOL    HW262569   0.015   9.040  10.788  0.7075  0.1827 -1.1718
20064SOL     OW62570   1.114   1.326   4.283 -0.1304  0.4689 -0.8283
20064SOL    HW162571   1.209   1.333   4.277 -0.2189  2.3339 -0.6133
20064SOL    HW262572   1.090   1.384   4.356 -1.4923  0.6554 -1.3871
20065SOL     OW62573   9.920   3.754   5.766 -0.7444 -0.5050  0.2249
20065SOL    HW162574   9.934   3.679   5.708 -0.7515 -1.0009  0.8539
20065SOL    HW262575   9.998   3.808   5.756 -1.5578  0.4029 -1.6766
20066SOL     OW62576   1.754   7.481   2.329 -0.3797 -0.0716 -0.3153
20066SOL    HW162577   1.781   7.391   2.312 -0.6025 -0.2114  0.0535
20066SOL    HW262578   1.716   7.510   2.247  0.5626  0.0142 -0.7341
20067SOL     OW62579   4.166   3.967   5.407 -0.3492 -0.1259 -0.5141
20067SOL    HW162580   4.252   3.926   5.402 -0.3613  0.0186 -3.4974
20067SOL    HW262581   4.110   3.901   5.447  1.2197  0.0659  2.2248
20068SOL     OW62582   4.447  10.302   5.385 -0.1328  0.1607 -0.0281
20068SOL    HW162583   4.456  10.273   5.295 -0.4013  0.1979 -0.0701
20068SOL    HW262584   4.536  10.314   5.417 -0.0451  1.6035 -0.7637
20069SOL     OW62585   3.489   4.201   7.048  0.0926  0.1015 -0.5827
20069SOL    HW162586   3.399   4.235   7.055  0.1965  0.1681  0.7581
20069SOL    HW262587   3.481   4.123   6.992 -0.4790  1.1449 -2.0248
20070SOL     OW62588   6.233   7.679   3.954  0.1054 -0.4604  0.5611
20070SOL    HW162589   6.175   7.754   3.945  1.4462  0.6747  1.1458
20070SOL    HW262590   6.258   7.658   3.864 -1.0395 -0.8673  0.3105
20071SOL     OW62591   7.694   1.493   4.374  0.0313  0.4705 -0.3827
20071SOL    HW162592   7.783   1.522   4.356 -0.7699  3.0275 -0.7561
20071SOL    HW262593   7.702   1.432   4.447  2.2478 -1.1244 -1.8483
20072SOL     OW62594   5.127  10.216   5.734  0.6937  0.2112  0.0124
20072SOL    HW162595   5.137  10.307   5.706  0.4363  0.5224  0.9225
20072SOL    HW262596   5.079  10.221   5.816  0.7392 -0.7454  0.1045
20073SOL     OW62597   7.444   5.256   5.465  0.4680 -0.3801  0.0153
20073SOL    HW162598   7.533   5.227   5.444  0.0707 -1.5225 -0.1920
20073SOL    HW262599   7.413   5.192   5.530 -0.2483 -0.0846 -0.0246
20074SOL     OW62600   7.525   4.497   4.459  0.2461 -0.6648  0.1021
20074SOL    HW162601   7.489   4.462   4.541 -0.0474 -0.5791  0.0114
20074SOL    HW262602   7.619   4.504   4.475  0.7342 -3.8047 -0.6885
20075SOL     OW62603   8.699   7.565   2.625 -0.2309 -0.1199 -0.5080
20075SOL    HW162604   8.760   7.556   2.697  0.5436 -1.1139 -1.2597
20075SOL    HW262605   8.615   7.584   2.667  0.1345 -0.9775  0.6705
20076SOL     OW62606   4.659   4.987   9.707 -0.4233  0.2536 -0.1641
20076SOL    HW162607   4.582   5.020   9.753 -0.8240 -0.2729 -0.4424
20076SOL    HW262608   4.684   4.908   9.755 -0.6274 -0.0968 -0.6224
20077SOL     OW62609   1.354   2.044   4.781  0.4893 -0.1908 -0.2112
20077SOL    HW162610   1.357   2.014   4.872 -1.0298 -1.8434 -0.6573
20077SOL    HW262611   1.439   2.019   4.745  0.7995 -0.2427  0.5342
20078SOL     OW62612   3.500   4.942   2.866 -0.2889  0.4220 -0.1801
20078SOL    HW162613   3.457   4.955   2.782 -0.1412 -0.5655 -0.4227
20078SOL    HW262614   3.550   4.861   2.856  0.7385  0.9574  0.4614
20079SOL     OW62615   7.669   6.335   2.057  0.1609  0.8244 -0.1494
20079SOL    HW162616   7.728   6.357   1.986 -0.4518 -0.8642 -1.2487
20079SOL    HW262617   7.598   6.399   2.051  0.9565  1.7365  0.0346
20080SOL     OW62618   7.593   3.802   6.378 -0.1793 -0.2067  0.0200
20080SOL    HW162619   7.638   3.886   6.385  1.4500 -1.1237  1.3089
20080SOL    HW262620   7.595   3.781   6.285  1.3512  0.1812 -0.0647
20081SOL     OW62621   7.846   4.700   3.307  0.4409 -0.0895 -0.0558
20081SOL    HW162622   7.807   4.743   3.383  1.2287  1.9700 -0.7577
20081SOL    HW262623   7.772   4.657   3.263 -0.3003  0.1422  0.9350
20082SOL     OW62624   4.761   9.114   9.312  0.5833 -0.1504  0.7284
20082SOL    HW162625   4.812   9.168   9.373  1.5922 -0.4414  0.1632
20082SOL    HW262626   4.819   9.102   9.237 -0.8450  0.6961 -0.5629
20083SOL     OW62627   6.974   5.581  10.240  0.4890 -0.0378 -0.3433
20083SOL    HW162628   7.015   5.582  10.154 -0.6309  0.9374 -0.8955
20083SOL    HW262629   6.983   5.671  10.272 -0.0266 -0.1390  0.1014
20084SOL     OW62630  10.771   6.092   9.792 -1.0948 -0.2441 -0.4169
20084SOL    HW162631  10.859   6.126   9.780 -1.0435  0.1406  0.8384
20084SOL    HW262632  10.779   5.998   9.777  0.0532 -0.5918  1.9046
20085SOL     OW62633   9.382   4.390   2.392  0.1079 -0.2224  0.4393
20085SOL    HW162634   9.465   4.429   2.420 -0.4425  0.8156  0.6846
20085SOL    HW262635   9.319   4.416   2.460 -0.8499  0.7305 -0.7514
20086SOL     OW62636  10.792   9.391   3.386 -0.0690 -0.4954 -0.5663
20086SOL    HW162637  10.784   9.329   3.314  0.4082  0.2916 -1.3211
20086SOL    HW262638  10.885   9.412   3.391 -0.2884  0.6354 -0.7669
20087SOL     OW62639   7.069   3.573   7.205 -0.9030 -1.0297  0.3962
20087SOL    HW162640   7.017   3.495   7.220 -2.4547 -0.2240 -0.5373
20087SOL    HW262641   7.035   3.638   7.266  0.5527 -1.1159  1.3569
20088SOL     OW62642   1.412   8.310   8.725  0.0407 -0.1016  0.0747
20088SOL    HW162643   1.468   8.286   8.651 -0.2637 -1.5756  0.2954
20088SOL    HW262644   1.331   8.260   8.711 -1.1508  1.7538 -0.0906
20089SOL     OW62645   5.282   1.230  10.029 -0.0688  0.5072 -0.5046
20089SOL    HW162646   5.225   1.155  10.047 -0.6973  0.4181 -2.6610
20089SOL    HW262647   5.368   1.191  10.012  0.3791  0.5509  1.3632
20090SOL     OW62648   2.358   4.279   6.291  0.5282  0.1970  0.8121
20090SOL    HW162649   2.293   4.337   6.249  0.8608 -0.0584 -0.0800
20090SOL    HW262650   2.431   4.277   6.229  1.0008 -0.2631  1.3780
20091SOL     OW62651   2.552  10.453   5.495  0.3864  0.2698 -0.2530
20091SOL    HW162652   2.626  10.497   5.537  1.3017 -0.9066 -0.6213
20091SOL    HW262653   2.482  10.459   5.560  1.1380  0.4054  0.5636
20092SOL     OW62654   1.765  10.682  10.152 -0.1661  0.2733  0.0682
20092SOL    HW162655   1.789  10.742  10.223  0.6743  1.4213 -1.1275
20092SOL    HW262656   1.769  10.595  10.191  0.0830  0.8961  1.4687
20093SOL     OW62657   8.318   1.909  10.412  0.3746  0.0136  0.0587
20093SOL    HW162658   8.401   1.873  10.443  0.1766 -0.9605 -0.5231
20093SOL    HW262659   8.340   1.951  10.328 -0.0447 -1.9548 -1.0965
20094SOL     OW62660  10.365   5.619   2.684 -0.0645 -0.5391  0.2631
20094SOL    HW162661  10.356   5.697   2.739 -0.1118 -0.8458  0.7028
20094SOL    HW262662  10.409   5.650   2.605 -1.2259  0.1770 -0.1237
20095SOL     OW62663   6.857   4.265   4.525  0.2204  0.1577 -0.3021
20095SOL    HW162664   6.863   4.315   4.443 -0.6283 -0.0027 -0.4779
20095SOL    HW262665   6.813   4.184   4.499 -0.3806  0.2597  0.3797
20096SOL     OW62666   8.688   9.267   8.526  0.2318  0.0660 -0.1822
20096SOL    HW162667   8.669   9.180   8.560  1.4234 -0.8861 -1.7742
20096SOL    HW262668   8.627   9.277   8.452  0.9423  0.0359 -0.7832
20097SOL     OW62669   0.801   3.954   7.268 -0.0140  0.2279  0.2673
20097SOL    HW162670   0.737   3.950   7.339 -2.7550 -2.4887 -2.0568
20097SOL    HW262671   0.752   3.993   7.195  1.5257 -0.4253 -1.1555
20098SOL     OW62672   2.985   6.628   2.839  0.6712  0.5550  0.0562
20098SOL    HW162673   3.076   6.604   2.820  0.1232 -0.0504 -2.0054
20098SOL    HW262674   2.934   6.550   2.818 -0.4053  1.1201  0.4883
20099SOL     OW62675   1.382  10.372   0.484  0.5514 -0.8339  0.1945
20099SOL    HW162676   1.436  10.414   0.417  2.3686 -1.1983  1.3710
20099SOL    HW262677   1.364  10.285   0.448 -0.6513 -0.1573 -0.9087
20100SOL     OW62678   5.707   7.026   2.701  0.0947 -0.1042  0.0346
20100SOL    HW162679   5.724   7.114   2.734 -1.1724 -0.4281  1.7633
20100SOL    HW262680   5.643   6.990   2.763 -0.6544 -1.6586 -1.5604
20101SOL     OW62681   4.024   7.347   7.025  0.5647  0.0376 -0.4235
20101SOL    HW162682   4.072   7.267   7.002  0.2350 -0.7631  1.5035
20101SOL    HW262683   4.080   7.391   7.089 -1.1002 -0.8521  1.7690
20102SOL     OW62684   2.402   5.151   3.964  0.1411  0.9384  0.5261
20102SOL    HW162685   2.338   5.211   4.002 -0.8982 -0.6187  1.2862
20102SOL    HW262686   2.486   5.194   3.980 -0.5123  1.8259  1.7541
20103SOL     OW62687   1.285   1.964   5.951 -0.3036 -0.3030 -0.4607
20103SOL    HW162688   1.251   2.047   5.984  0.1338 -0.1100 -0.4958
20103SOL    HW262689   1.378   1.966   5.970 -0.1365 -0.4244 -1.2178
20104SOL     OW62690   1.409   6.455   9.825 -0.3559 -0.3877 -0.1252
20104SOL    HW162691   1.460   6.458   9.906  0.0355  0.6679 -0.3942
20104SOL    HW262692   1.438   6.532   9.776 -0.0456 -1.4138 -1.6038
20105SOL     OW62693   1.893   4.854  10.439  0.7577  0.2404 -0.4394
20105SOL    HW162694   1.893   4.766  10.403  0.0781  1.1452 -2.8366
20105SOL    HW262695   1.801   4.873  10.458  0.6676  0.9748 -1.4959
20106SOL     OW62696   0.585   0.937   4.767  0.6247  0.1446 -0.1820
20106SOL    HW162697   0.517   0.911   4.829  1.3507 -1.6011 -0.0521
20106SOL    HW262698   0.581   1.033   4.764 -0.2996  0.1854  1.5366
20107SOL     OW62699   5.983   7.525   4.376  0.0407  0.3726 -0.0493
20107SOL    HW162700   6.043   7.591   4.342 -1.7568  1.4379 -1.3025
20107SOL    HW262701   5.955   7.559   4.461  1.2037 -0.1566  0.5656
20108SOL     OW62702   3.167  10.778   2.847  0.8156  0.2243 -0.1401
20108SOL    HW162703   3.185  10.704   2.788 -0.0075  1.8049 -2.5077
20108SOL    HW262704   3.196  10.855   2.798  0.0031  1.6388  1.5174
20109SOL     OW62705   5.008   5.858   2.848  0.0599 -0.0964 -0.6221
20109SOL    HW162706   4.932   5.806   2.821  1.2026 -2.1735 -0.0233
20109SOL    HW262707   5.040   5.816   2.927 -0.0648  2.7225  1.0650
20110SOL     OW62708   1.674   3.343   2.807  0.0467  0.0432 -0.5554
20110SOL    HW162709   1.725   3.317   2.884  0.3461  0.7889 -0.4894
20110SOL    HW262710   1.629   3.424   2.834 -0.2566  0.0234 -0.9923
20111SOL     OW62711   7.265   2.138   9.350 -0.1087 -0.4072  0.3965
20111SOL    HW162712   7.210   2.060   9.363 -0.2369 -0.2304  0.9392
20111SOL    HW262713   7.202   2.210   9.340 -0.1437 -0.7312 -3.1650
20112SOL     OW62714   9.278  10.330   4.943 -0.6098  0.2962  0.1379
20112SOL    HW162715   9.191  10.329   4.903 -0.1970 -1.1123 -0.7768
20112SOL    HW262716   9.336  10.367   4.876 -0.6515  2.3341  1.1583
20113SOL     OW62717   3.009   4.612   3.917 -0.0652 -0.0796  0.2545
20113SOL    HW162718   2.981   4.529   3.956 -1.2353  0.0075 -0.3470
20113SOL    HW262719   2.984   4.678   3.981  1.6880 -0.2462  1.1387
20114SOL     OW62720   1.001   3.555   4.341  0.2373 -0.0776 -0.6755
20114SOL    HW162721   1.032   3.490   4.278  1.2241  0.8966 -1.2157
20114SOL    HW262722   1.042   3.529   4.424  1.4259  0.4172 -1.0981
20115SOL     OW62723   1.865   1.068   8.998 -0.2817 -0.8619  0.1692
20115SOL    HW162724   1.810   1.035   8.927  1.0773  0.0896 -1.3756
20115SOL    HW262725   1.950   1.026   8.984  0.1228 -0.3315  0.9881
20116SOL     OW62726   4.571   3.029   2.306  0.1034  0.1052 -0.1858
20116SOL    HW162727   4.646   2.990   2.262 -0.5616 -0.3031 -0.9946
20116SOL    HW262728   4.604   3.057   2.391  0.6183 -2.2277  0.4496
20117SOL     OW62729   6.970   1.806   9.279  0.1506 -0.2446 -0.2093
20117SOL    HW162730   6.903   1.762   9.332  1.7304 -1.7074  0.6826
20117SOL    HW262731   7.000   1.740   9.218  1.6152 -0.0120  0.2156
20118SOL     OW62732   0.510   6.678   2.852 -0.0937 -0.0950  0.0360
20118SOL    HW162733   0.586   6.727   2.821  0.0876  0.0680  0.7328
20118SOL    HW262734   0.438   6.742   2.850 -0.5269 -0.5887 -1.8789
20119SOL     OW62735   7.160   2.443  10.113 -0.0227  0.0926 -0.2718
20119SOL    HW162736   7.091   2.376  10.116  0.0454  0.0167 -0.4116
20119SOL    HW262737   7.213   2.420  10.037 -0.5560  0.8631 -0.8873
20120SOL     OW62738   7.034   3.551   7.720 -0.1330 -0.1875 -0.1404
20120SOL    HW162739   7.102   3.551   7.788  0.1997 -0.3556 -0.4666
20120SOL    HW262740   6.956   3.582   7.765  0.3669  0.8816  0.0393
20121SOL     OW62741   2.584   8.429   4.181 -0.2496  0.0756 -0.5483
20121SOL    HW162742   2.649   8.499   4.176 -0.3987  0.2699  0.1129
20121SOL    HW262743   2.581   8.392   4.093  2.3200 -1.3591 -0.1433
20122SOL     OW62744   0.439   8.080   8.057  0.5170 -0.0760  1.3149
20122SOL    HW162745   0.428   8.090   8.152 -4.1517 -0.6264  1.0620
20122SOL    HW262746   0.349   8.076   8.023  1.9233  2.0774 -3.4163
20123SOL     OW62747   9.508   1.125   0.610  1.0495  0.4555 -0.3196
20123SOL    HW162748   9.438   1.095   0.551  0.6049 -0.2105  0.5292
20123SOL    HW262749   9.509   1.061   0.680  0.1235  2.3503  1.5448
20124SOL     OW62750   4.062   4.231   9.814 -0.2247  0.0416  0.6224
20124SOL    HW162751   4.150   4.269   9.811 -0.0259 -0.4884 -0.7636
20124SOL    HW262752   4.072   4.142   9.783 -1.4389  0.3557 -0.7891
20125SOL     OW62753  10.022   1.100   5.055  0.5393 -0.3982  0.0134
20125SOL    HW162754  10.099   1.130   5.006 -0.3881 -0.5585 -1.6260
20125SOL    HW262755   9.953   1.093   4.989 -0.9893  0.0482  1.4874
20126SOL     OW62756   2.462   2.928   7.250 -0.1676  0.0635  0.1913
20126SOL    HW162757   2.538   2.985   7.267 -0.2503 -0.0338  0.9297
20126SOL    HW262758   2.464   2.864   7.321  0.3848 -1.3655 -1.0842
20127SOL     OW62759   5.530  10.150   8.497  0.7282  0.4433  0.2469
20127SOL    HW162760   5.484  10.219   8.449  0.6991 -0.2018 -0.6749
20127SOL    HW262761   5.618  10.149   8.459  0.8778  0.3045  0.5952
20128SOL     OW62762   4.898   0.921   7.463  0.0311  0.2285 -0.2830
20128SOL    HW162763   4.940   0.837   7.445  1.4837  0.6807  0.7802
20128SOL    HW262764   4.813   0.916   7.419  0.6446 -1.2619 -1.3749
20129SOL     OW62765  10.172   2.304   2.516 -0.4878  0.4036 -0.0405
20129SOL    HW162766  10.249   2.346   2.555 -0.7685  1.2431 -0.3673
20129SOL    HW262767  10.151   2.358   2.441 -2.1902  0.9757  0.7953
20130SOL     OW62768   0.949   2.321   2.118  0.1524  0.6563 -0.4638
20130SOL    HW162769   0.944   2.381   2.193  1.0568  2.3157 -1.6631
20130SOL    HW262770   1.020   2.261   2.140 -1.0960 -0.3777  0.9785
20131SOL     OW62771   3.513   3.155   4.835 -1.0731  0.2530  0.1667
20131SOL    HW162772   3.509   3.117   4.923 -1.9367 -2.7193 -1.0300
20131SOL    HW262773   3.487   3.083   4.777 -0.8833  2.2091 -2.5097
20132SOL     OW62774   1.588   5.486   9.809  0.4030 -0.1746  0.2663
20132SOL    HW162775   1.548   5.564   9.770 -2.6323 -0.7108  1.9252
20132SOL    HW262776   1.596   5.507   9.902  3.2855 -0.4927  0.1595
20133SOL     OW62777   7.994   1.024   7.884  0.0298 -0.0081 -0.2868
20133SOL    HW162778   7.907   0.988   7.901  1.3103 -2.3220  2.0288
20133SOL    HW262779   8.005   1.093   7.949 -0.6592  1.5763 -1.7532
20134SOL     OW62780   9.720   5.765   3.092 -0.3560 -0.4322 -0.1223
20134SOL    HW162781   9.741   5.716   3.013  3.8864  1.5588 -0.4942
20134SOL    HW262782   9.759   5.714   3.163 -1.0492 -0.4561  0.2456
20135SOL     OW62783   5.685   7.650   7.075  0.3169  0.4164  0.1727
20135SOL    HW162784   5.746   7.578   7.092 -1.0687 -1.3030 -1.5328
20135SOL    HW262785   5.647   7.670   7.160 -0.1422 -1.7618  0.5443
20136SOL     OW62786  10.127   8.988   5.758 -1.0097  0.0600  0.1672
20136SOL    HW162787  10.063   9.034   5.813 -1.7372  0.2489 -0.8098
20136SOL    HW262788  10.078   8.966   5.679  0.1254  0.1379 -0.5712
20137SOL     OW62789   7.699   5.411   9.720 -0.1615  0.5796 -0.6007
20137SOL    HW162790   7.623   5.355   9.733 -0.5885  1.0763 -0.8856
20137SOL    HW262791   7.679   5.491   9.769  1.2191 -0.1694  1.2945
20138SOL     OW62792   0.902   9.359   4.907  0.1164  0.3972  0.3389
20138SOL    HW162793   0.901   9.402   4.822  2.5328  0.0705  0.0850
20138SOL    HW262794   0.812   9.327   4.918 -0.3402  0.6809 -1.9494
20139SOL     OW62795   5.394   9.579   0.353  0.2869 -0.5313 -0.5778
20139SOL    HW162796   5.462   9.625   0.401  0.1400  0.4404 -1.2622
20139SOL    HW262797   5.340   9.538   0.421 -0.6227  1.7771  0.2106
20140SOL     OW62798   0.663   5.636   2.616 -0.0397  0.1766  0.0274
20140SOL    HW162799   0.644   5.542   2.604  0.2636  0.2556 -1.2599
20140SOL    HW262800   0.730   5.639   2.683 -0.1634 -0.5223  0.1900
20141SOL     OW62801   6.938   9.177  10.171 -0.2018 -0.1509  0.1313
20141SOL    HW162802   7.023   9.210  10.198 -0.0957 -0.1340 -0.2134
20141SOL    HW262803   6.904   9.132  10.248 -0.8267  1.6689  0.9759
20142SOL     OW62804   8.441   5.744   3.608 -0.3927  0.1510 -0.1814
20142SOL    HW162805   8.440   5.649   3.592 -0.7948  0.0310  0.5204
20142SOL    HW262806   8.533   5.765   3.623 -0.2392 -0.0410 -0.8131
20143SOL     OW62807   5.456   1.644   2.310  0.6025  0.2187 -0.1668
20143SOL    HW162808   5.401   1.588   2.256  0.4843 -1.1915  1.3282
20143SOL    HW262809   5.395   1.709   2.346  0.6621  1.0785 -1.5676
20144SOL     OW62810   7.917   7.926   4.353 -0.1524 -0.2391 -0.1664
20144SOL    HW162811   7.951   7.952   4.267 -1.8344  1.0443 -0.4849
20144SOL    HW262812   7.828   7.961   4.356 -1.6214 -3.6177  0.5349
20145SOL     OW62813   0.591   1.561   8.744 -0.9542 -0.8474 -0.2958
20145SOL    HW162814   0.665   1.501   8.753 -1.1390 -0.8481  1.5790
20145SOL    HW262815   0.515   1.505   8.730 -0.7171 -0.8712 -1.6391
20146SOL     OW62816  10.391   2.831   0.061  0.0933 -0.1512  0.2484
20146SOL    HW162817  10.306   2.787   0.058 -0.2457  0.4805 -2.3150
20146SOL    HW262818  10.378   2.907   0.117 -1.6413  0.9555 -1.5410
20147SOL     OW62819   1.035   2.067   1.165 -0.2257  0.1620  0.1153
20147SOL    HW162820   1.010   2.145   1.115 -0.8467 -0.3528 -0.4042
20147SOL    HW262821   0.952   2.021   1.179  0.4018 -1.6088 -1.6416
20148SOL     OW62822   7.515   3.898  10.642  0.1019  0.0952 -0.1898
20148SOL    HW162823   7.497   3.968  10.705  0.2123  0.8088 -0.9304
20148SOL    HW262824   7.429   3.869  10.613  0.0553  1.3654 -1.4148
20149SOL     OW62825   7.513   3.569   1.771 -0.1186  0.6827  1.2159
20149SOL    HW162826   7.513   3.632   1.843  0.1749  0.8955  1.0277
20149SOL    HW262827   7.502   3.484   1.814  0.2588  0.7919  1.5289
20150SOL     OW62828   4.001   8.249   3.331  0.0908 -0.0674 -0.3418
20150SOL    HW162829   3.918   8.202   3.327 -0.5296  0.7114  1.8640
20150SOL    HW262830   4.040   8.222   3.414  1.3256  0.7604 -0.6142
20151SOL     OW62831   5.082   3.516   2.690  0.2797  0.0840 -0.5186
20151SOL    HW162832   5.067   3.490   2.781 -2.6841 -0.6774 -1.0981
20151SOL    HW262833   5.069   3.611   2.690  0.0516  0.0531 -0.1816
20152SOL     OW62834   2.450   7.724   3.666 -0.6513  0.1743  0.2565
20152SOL    HW162835   2.506   7.801   3.656 -0.0097 -0.3870 -0.6202
20152SOL    HW262836   2.371   7.746   3.617 -0.4015  0.2205 -0.1339
20153SOL     OW62837   0.221   2.540   6.836 -0.0117  0.0105  0.1083
20153SOL    HW162838   0.283   2.613   6.848 -1.7744  1.9683 -1.7559
20153SOL    HW262839   0.272   2.462   6.857  3.3974  1.4141 -2.0564
20154SOL     OW62840   5.470   5.120   5.519  0.4003  0.2965  0.3371
20154SOL    HW162841   5.471   5.147   5.427  1.0499 -2.5524 -0.6062
20154SOL    HW262842   5.382   5.141   5.549 -0.3149 -0.0300 -1.4071
20155SOL     OW62843   1.678   7.774   6.910 -0.4038  0.5782  0.5308
20155SOL    HW162844   1.584   7.776   6.893 -0.4632  0.4354  0.8245
20155SOL    HW262845   1.708   7.694   6.868 -0.4307  0.5713  0.5246
20156SOL     OW62846   6.612   7.927   6.526  0.4762 -0.1283  0.3954
20156SOL    HW162847   6.618   7.841   6.568  0.0487 -0.8896 -1.0322
20156SOL    HW262848   6.530   7.923   6.477  1.0630  0.6423 -0.6756
20157SOL     OW62849   3.432  10.361   4.871  0.0101 -0.1910 -0.2534
20157SOL    HW162850   3.527  10.361   4.853 -0.1497 -0.7890 -1.1625
20157SOL    HW262851   3.398  10.431   4.815  0.0636  0.8960  1.0314
20158SOL     OW62852   3.858   9.145   6.422  0.1316 -0.2748  0.0338
20158SOL    HW162853   3.942   9.134   6.378 -0.4561 -1.7687 -0.7809
20158SOL    HW262854   3.879   9.137   6.515  1.3751  2.8520  0.1595
20159SOL     OW62855   6.285   5.748   7.717  0.3060  0.3166 -0.6595
20159SOL    HW162856   6.276   5.659   7.749  2.3420  0.1332 -0.4842
20159SOL    HW262857   6.264   5.803   7.792  3.0416 -0.0946  0.5051
20160SOL     OW62858   5.203   9.339   2.852 -0.6582 -0.0738  0.3130
20160SOL    HW162859   5.275   9.291   2.893 -1.7308 -1.4107  0.7352
20160SOL    HW262860   5.244   9.414   2.809  0.6924  0.4768  2.4646
20161SOL     OW62861   9.730   4.720   3.074 -0.4914  0.2617  0.0487
20161SOL    HW162862   9.765   4.678   3.152 -0.6020  1.3226  0.6856
20161SOL    HW262863   9.775   4.804   3.069  0.6496 -0.4115 -1.9093
20162SOL     OW62864   6.859   4.041   2.070  0.2836  0.0833  0.5776
20162SOL    HW162865   6.838   4.063   1.979 -0.0577 -1.3863  0.2837
20162SOL    HW262866   6.905   3.957   2.066  1.4010  0.5940  1.6762
20163SOL     OW62867   8.454   1.988   8.883 -0.0443 -0.0950  0.2910
20163SOL    HW162868   8.485   2.063   8.832  1.0105 -1.5008 -1.2843
20163SOL    HW262869   8.495   1.913   8.840  0.5117 -1.4423  2.9649
20164SOL     OW62870   6.348   6.647   0.003  0.0240 -0.3723  0.2426
20164SOL    HW162871   6.346   6.560  -0.037  0.0173 -0.4860  0.4886
20164SOL    HW262872   6.291   6.640   0.079 -2.9074  0.8568 -1.6881
20165SOL     OW62873   8.695   2.544   1.257 -0.1425 -0.0936  0.0318
20165SOL    HW162874   8.737   2.567   1.174 -0.4603 -0.5986 -0.2783
20165SOL    HW262875   8.686   2.449   1.253  0.0229 -0.1420  0.7378
20166SOL     OW62876   3.105   9.653   5.176 -1.0034 -0.8379 -0.6368
20166SOL    HW162877   3.084   9.738   5.137  0.5628 -0.7087 -1.2929
20166SOL    HW262878   3.128   9.673   5.266 -0.2326 -0.4990 -0.9031
20167SOL     OW62879   1.364   1.129   5.225 -1.1064  0.0481  1.0712
20167SOL    HW162880   1.370   1.070   5.150 -0.9899  0.3279  0.8594
20167SOL    HW262881   1.444   1.114   5.274 -0.5633  0.8103  0.4378
20168SOL     OW62882   8.827   3.286   7.194 -0.0682 -0.0424 -0.4903
20168SOL    HW162883   8.849   3.207   7.242  1.3842  0.2130 -0.6897
20168SOL    HW262884   8.833   3.357   7.259 -2.4503 -0.1771 -0.0443
20169SOL     OW62885   0.324   7.418  10.310 -0.0675  0.0398 -0.5196
20169SOL    HW162886   0.377   7.406  10.388 -2.2403 -1.5366  0.7955
20169SOL    HW262887   0.321   7.331  10.269 -1.8469  0.0250 -0.3975
20170SOL     OW62888  10.605   0.490   4.149 -0.1180  0.1844 -0.0438
20170SOL    HW162889  10.685   0.449   4.181 -0.4944 -0.0287  0.6443
20170SOL    HW262890  10.603   0.468   4.056  0.5798  0.1276 -0.0535
20171SOL     OW62891   3.644   7.736   5.571 -0.4958  0.3032 -0.0646
20171SOL    HW162892   3.720   7.678   5.561  0.3508  1.2806  0.5363
20171SOL    HW262893   3.571   7.676   5.585 -0.0345 -0.7107 -1.6849
20172SOL     OW62894   5.351   6.808  10.109 -0.2089  0.7995  0.0466
20172SOL    HW162895   5.427   6.778  10.159 -0.0918 -0.9185 -1.0732
20172SOL    HW262896   5.352   6.754  10.030 -2.7798  0.4718  0.1392
20173SOL     OW62897   1.979   1.293   8.235  0.3144  0.2132  0.0568
20173SOL    HW162898   1.963   1.331   8.149  3.4527  0.9468 -0.3036
20173SOL    HW262899   1.953   1.362   8.297  0.2780  0.5786 -0.3631
20174SOL     OW62900  10.301   9.859   8.800  0.4704 -0.3089  0.6406
20174SOL    HW162901  10.320   9.804   8.724  2.7134  1.5663 -0.2722
20174SOL    HW262902  10.206   9.870   8.799  0.3837 -0.8791 -1.5047
20175SOL     OW62903   3.491   7.728   1.766  0.1953  0.3593  0.2021
20175SOL    HW162904   3.430   7.682   1.708  0.8233 -0.1676 -0.0702
20175SOL    HW262905   3.570   7.673   1.764 -0.0623 -0.1691  2.2700
20176SOL     OW62906   3.348   5.076   0.545 -0.1723 -0.3639 -0.2644
20176SOL    HW162907   3.379   4.994   0.583 -1.5435 -0.5909  0.4198
20176SOL    HW262908   3.310   5.051   0.461  2.3199  0.0590 -1.6272
20177SOL     OW62909   2.781   8.641   4.416 -0.4882 -0.4871  0.4420
20177SOL    HW162910   2.783   8.645   4.321 -0.7689  0.9003  0.4751
20177SOL    HW262911   2.688   8.637   4.439 -0.4114 -1.6522  0.6643
20178SOL     OW62912   6.456   1.959   2.501 -0.8928  0.1875  0.3268
20178SOL    HW162913   6.475   1.973   2.408 -2.2469  1.3280  0.1891
20178SOL    HW262914   6.401   1.881   2.503  0.0353 -0.4896  0.3044
20179SOL     OW62915   4.504   2.753   9.868 -0.1151 -0.0728 -0.2317
20179SOL    HW162916   4.417   2.746   9.829 -0.6085 -0.9486  0.9495
20179SOL    HW262917   4.558   2.695   9.814 -0.2825  0.3890 -0.9081
20180SOL     OW62918   6.690   8.819   7.353  0.0770  0.0615  0.3940
20180SOL    HW162919   6.661   8.731   7.328  1.8442  0.1027 -2.2614
20180SOL    HW262920   6.674   8.824   7.447 -1.9597 -2.3212  0.2876
20181SOL     OW62921   5.466   3.776   4.902 -0.1483  0.1149  0.2547
20181SOL    HW162922   5.386   3.750   4.948 -1.3048  0.4733 -1.4832
20181SOL    HW262923   5.502   3.695   4.868 -0.1934  0.0480  0.3640
20182SOL     OW62924  10.642   5.857   8.104  0.6154 -0.1422  0.0852
20182SOL    HW162925  10.552   5.825   8.102  0.6651 -0.4920  1.6861
20182SOL    HW262926  10.645   5.917   8.178  2.5006 -2.9693  2.5690
20183SOL     OW62927   7.654  10.468   6.785 -0.4993  0.3644 -0.0527
20183SOL    HW162928   7.625  10.381   6.811 -2.8732  1.0740 -0.0290
20183SOL    HW262929   7.651  10.519   6.866  3.0230  0.0530  0.4087
20184SOL     OW62930  10.431   2.687   0.758 -0.5955 -0.0706  0.3889
20184SOL    HW162931  10.396   2.775   0.746 -2.1136 -0.6282  0.4568
20184SOL    HW262932  10.404   2.663   0.847 -2.5230 -1.5539 -0.5260
20185SOL     OW62933   8.229   0.511   8.689  0.0210  0.7267  0.2045
20185SOL    HW162934   8.134   0.513   8.680 -0.0556 -1.8216 -0.3301
20185SOL    HW262935   8.244   0.494   8.782 -0.0559  0.7855  0.2274
20186SOL     OW62936   2.720   4.469   7.560 -0.6211  0.2995  0.3493
20186SOL    HW162937   2.700   4.455   7.467  0.3795 -1.1959  0.3100
20186SOL    HW262938   2.759   4.556   7.564  1.6649 -0.5716 -1.0839
20187SOL     OW62939   9.329   5.252  10.430  0.5204  0.1993  0.1803
20187SOL    HW162940   9.367   5.303  10.358  0.7977  1.0182  0.9005
20187SOL    HW262941   9.280   5.316  10.481 -2.0916 -0.8279 -0.8312
20188SOL     OW62942   1.850   3.958   7.254 -0.1367  0.5570  0.8581
20188SOL    HW162943   1.922   4.011   7.220  0.0401 -0.4032 -0.3280
20188SOL    HW262944   1.778   3.974   7.194 -0.6691  0.8521  1.5541
20189SOL     OW62945   6.430   3.116   7.378 -0.3379  0.1024  0.3591
20189SOL    HW162946   6.482   3.152   7.450  0.8740 -0.6336 -0.1306
20189SOL    HW262947   6.450   3.023   7.378 -1.4418 -0.1488 -0.0345
20190SOL     OW62948   6.673   2.273  10.043 -0.1749  0.3738  0.4446
20190SOL    HW162949   6.672   2.216  10.120  0.2765 -0.1003  0.1061
20190SOL    HW262950   6.659   2.361  10.078  1.0409  0.2953  1.1731
20191SOL     OW62951  10.126   9.849   7.861  0.5250 -0.4085 -0.1902
20191SOL    HW162952  10.138   9.815   7.949 -0.0267 -0.6594 -0.2111
20191SOL    HW262953  10.204   9.821   7.813 -0.2883 -2.3855 -0.4389
20192SOL     OW62954   4.225   1.496   0.160  0.4451 -0.9569 -0.2025
20192SOL    HW162955   4.176   1.466   0.083  0.9608 -0.9987 -0.5167
20192SOL    HW262956   4.181   1.454   0.234 -1.0676  0.3650 -0.3114
20193SOL     OW62957   6.809   3.870   1.655  0.0130  0.0019 -0.1707
20193SOL    HW162958   6.823   3.775   1.652 -1.2081 -0.1773 -0.6811
20193SOL    HW262959   6.731   3.884   1.601  0.7913  1.4195 -0.9767
20194SOL     OW62960  10.577   6.118  10.725 -0.3070 -0.7732  0.1590
20194SOL    HW162961  10.577   6.055  10.652 -2.9400 -0.8122  0.0847
20194SOL    HW262962  10.559   6.202  10.683  1.8586 -0.1290  0.4140
20195SOL     OW62963   0.439   3.982   3.910 -0.3204  0.2299  0.6403
20195SOL    HW162964   0.461   4.023   3.994 -0.3559  2.2302 -0.2894
20195SOL    HW262965   0.469   4.043   3.844  0.1557 -1.5380 -0.8669
20196SOL     OW62966   4.169   1.443   8.812 -0.8130  0.1550 -0.2263
20196SOL    HW162967   4.169   1.357   8.854 -0.5816  0.1099 -0.3192
20196SOL    HW262968   4.082   1.449   8.771 -1.6231  0.8027  1.4784
20197SOL     OW62969   9.556   2.324   0.105  0.4213 -0.5672  0.2383
20197SOL    HW162970   9.578   2.258   0.040  0.6459  0.1417 -0.4211
20197SOL    HW262971   9.462   2.312   0.121  0.3767 -0.7774 -0.1801
20198SOL     OW62972  10.679   1.000   9.469  0.2586 -0.1670 -0.0046
20198SOL    HW162973  10.586   0.977   9.477  0.2217 -0.5173 -1.2601
20198SOL    HW262974  10.706   1.022   9.558 -1.5600  1.9648  0.0976
20199SOL     OW62975   0.493  10.741   9.437 -0.1385 -0.4974 -0.2501
20199SOL    HW162976   0.500  10.665   9.380  0.8253 -0.9869  0.4887
20199SOL    HW262977   0.570  10.736   9.494  0.5234  1.6166 -0.8600
20200SOL     OW62978   3.242  10.593   4.938  0.1225  0.1063  0.4372
20200SOL    HW162979   3.296  10.668   4.965  0.9138 -0.7889  1.4394
20200SOL    HW262980   3.166  10.595   4.996  0.1298  0.1497  0.4448
20201SOL     OW62981   6.080   3.391   9.817  0.0190  0.1112  0.1076
20201SOL    HW162982   6.103   3.356   9.731 -0.1869 -0.3133  0.2205
20201SOL    HW262983   6.158   3.379   9.871  0.3486  0.9224 -0.1801
20202SOL     OW62984  10.215   3.259   3.381  0.1206  0.3660  0.2706
20202SOL    HW162985  10.163   3.306   3.446 -0.4905 -3.5928  2.9902
20202SOL    HW262986  10.306   3.274   3.407 -0.1040 -0.7239  1.7667
20203SOL     OW62987   4.062  10.480   6.768 -0.2963 -0.1691  0.0614
20203SOL    HW162988   3.967  10.492   6.762 -0.4231 -1.6097 -1.4613
20203SOL    HW262989   4.090  10.467   6.677  1.3829  0.3437  0.4767
20204SOL     OW62990   4.184   4.338   6.126  0.9449  0.4099  0.0742
20204SOL    HW162991   4.166   4.244   6.126  0.2277  0.5453  0.5820
20204SOL    HW262992   4.101   4.379   6.105  0.7491  1.0177  1.8839
20205SOL     OW62993   8.963   1.313  10.695 -0.2087 -0.7100 -0.0414
20205SOL    HW162994   9.056   1.330  10.712 -0.4360 -0.1237  0.6927
20205SOL    HW262995   8.927   1.400  10.678 -1.3416 -0.3653  3.4157
20206SOL     OW62996   2.067   9.234   1.355 -0.5729  0.5023  0.0974
20206SOL    HW162997   2.057   9.283   1.437  1.1974 -0.7245  1.0995
20206SOL    HW262998   2.071   9.301   1.287  5.6757  2.3421  1.6831
20207SOL     OW62999   8.558   8.484   6.158 -0.1499  0.0101 -0.0628
20207SOL    HW163000   8.507   8.540   6.099 -0.3138  0.1657  0.2252
20207SOL    HW263001   8.649   8.497   6.131 -0.2243  0.0796 -0.2835
20208SOL     OW63002   5.321   8.046   8.893 -0.1217 -0.1318  0.2893
20208SOL    HW163003   5.312   7.951   8.887  2.4735 -0.4102 -0.2332
20208SOL    HW263004   5.317   8.077   8.803 -0.3856  0.1931  0.4090
20209SOL     OW63005   8.043   6.336   9.794 -0.6158 -0.2295  0.3999
20209SOL    HW163006   7.956   6.365   9.820 -0.2742  0.1835  1.1043
20209SOL    HW263007   8.079   6.294   9.872 -1.0977 -2.6418 -0.5612
20210SOL     OW63008   6.386   9.785   2.747 -0.6055  0.0105 -0.8865
20210SOL    HW163009   6.317   9.820   2.803 -0.0740 -1.2200  0.6390
20210SOL    HW263010   6.374   9.828   2.663 -2.4118  0.7881 -0.2745
20211SOL     OW63011   3.350   0.933   6.153 -0.4298  0.2416  0.4379
20211SOL    HW163012   3.443   0.937   6.179 -0.8977 -1.6271  2.8271
20211SOL    HW263013   3.352   0.913   6.060  1.6347 -0.5654  0.5942
20212SOL     OW63014   3.168   7.619   4.365 -0.8260  0.1668 -0.2337
20212SOL    HW163015   3.204   7.683   4.303  1.3854  0.3247  1.1064
20212SOL    HW263016   3.162   7.538   4.314 -0.8526  0.7306 -1.1559
20213SOL     OW63017   3.403   7.415   0.750  0.1465  0.3930  0.5434
20213SOL    HW163018   3.359   7.493   0.783 -0.3369  0.9385 -1.2354
20213SOL    HW263019   3.343   7.343   0.770 -0.9109  0.9305 -0.5542
20214SOL     OW63020   7.962   6.577   4.937  0.2777 -0.6064  0.3007
20214SOL    HW163021   7.969   6.646   5.003  1.8665 -1.0075  0.5893
20214SOL    HW263022   8.051   6.568   4.902 -0.5783 -0.1335 -2.2142
20215SOL     OW63023   4.899   5.175   0.433  0.0340 -0.2802  1.0033
20215SOL    HW163024   4.816   5.152   0.474 -1.0823  0.9010 -0.4624
20215SOL    HW263025   4.937   5.242   0.490 -0.6395  0.0929  1.0141
20216SOL     OW63026   6.755   3.762   8.935  0.2919 -0.0965 -0.5672
20216SOL    HW163027   6.689   3.698   8.961 -0.0516  0.9124  1.1454
20216SOL    HW263028   6.837   3.727   8.970  0.4126 -0.5140 -1.2500
20217SOL     OW63029  10.215   0.357   2.504  0.0870  0.0472  0.0458
20217SOL    HW163030  10.273   0.307   2.562 -0.8137 -1.5299 -0.3314
20217SOL    HW263031  10.137   0.373   2.557 -1.1697 -2.2972 -0.9271
20218SOL     OW63032   2.334   1.880   9.314 -0.3821 -0.0454 -0.2866
20218SOL    HW163033   2.403   1.861   9.378  0.6529  2.4001 -0.5814
20218SOL    HW263034   2.254   1.848   9.355  0.2095  1.4992  2.3298
20219SOL     OW63035   0.989   7.627   2.279  0.2700 -0.1785  0.1852
20219SOL    HW163036   0.912   7.672   2.311 -0.0054  0.2255 -0.9901
20219SOL    HW263037   0.956   7.566   2.213  0.9563  0.0628 -0.4018
20220SOL     OW63038   2.013  10.777   8.394  0.1359 -0.0828  0.2656
20220SOL    HW163039   2.065  10.748   8.469  0.6385  0.2760  0.0602
20220SOL    HW263040   2.009  10.700   8.337  1.6134  0.2814 -0.3574
20221SOL     OW63041   1.668   7.225   9.149 -0.0994  0.6953 -0.7964
20221SOL    HW163042   1.718   7.279   9.210  1.5833  0.1948 -1.6912
20221SOL    HW263043   1.644   7.147   9.199 -1.0111  1.4386 -0.0301
20222SOL     OW63044   5.756   6.087   2.482  0.1589  0.1408  0.1660
20222SOL    HW163045   5.809   6.048   2.412 -0.5812  0.8720 -0.8216
20222SOL    HW263046   5.798   6.171   2.500 -0.4098  0.5457 -0.3441
20223SOL     OW63047   2.775   2.805  10.245  0.2724 -0.2739  0.1664
20223SOL    HW163048   2.790   2.758  10.327 -2.2256  0.5939  1.2261
20223SOL    HW263049   2.794   2.897  10.266 -1.2735  0.0956  0.1222
20224SOL     OW63050   7.991  10.279   7.182 -0.0126 -0.0313 -0.1991
20224SOL    HW163051   8.052  10.208   7.202 -0.4838 -0.3517  0.1388
20224SOL    HW263052   7.911  10.234   7.156 -0.2822  0.3805 -0.0910
20225SOL     OW63053   0.371   4.629   0.440 -0.3076  0.3879  0.6556
20225SOL    HW163054   0.294   4.583   0.473  0.4819 -0.7234  1.0433
20225SOL    HW263055   0.414   4.564   0.383 -0.1870  1.3258 -0.3455
20226SOL     OW63056   0.350   1.097   8.899 -0.2617  0.4461  0.1429
20226SOL    HW163057   0.370   1.051   8.818 -0.9352  0.2636  0.0813
20226SOL    HW263058   0.356   1.190   8.876 -1.0763  0.4010 -0.2765
20227SOL     OW63059   1.986   0.812   0.163  0.2614  0.3039  0.3024
20227SOL    HW163060   2.022   0.784   0.247 -1.8662  0.3833  1.3056
20227SOL    HW263061   1.895   0.782   0.164 -0.3105  1.7775 -1.2431
20228SOL     OW63062   2.737   0.095   2.552  0.3850  0.1736 -0.5995
20228SOL    HW163063   2.702   0.108   2.464 -1.0449 -2.8076 -0.6098
20228SOL    HW263064   2.665   0.056   2.601  0.9773  2.2088  2.1136
20229SOL     OW63065   3.480   9.054   1.459  0.4721  0.7761 -0.0905
20229SOL    HW163066   3.498   8.961   1.447  0.1271  0.7262 -0.2506
20229SOL    HW263067   3.450   9.062   1.549  1.0411  0.8208  0.0955
20230SOL     OW63068   7.794   2.219   0.147  0.3880 -0.1428 -0.4021
20230SOL    HW163069   7.740   2.295   0.168  1.2343  0.6663 -1.0601
20230SOL    HW263070   7.732   2.152   0.119 -0.3503  0.3701 -0.0330
20231SOL     OW63071   1.229   3.293   0.549 -0.1102 -0.6473  0.9458
20231SOL    HW163072   1.260   3.304   0.459  0.5066 -1.1839  1.0844
20231SOL    HW263073   1.209   3.382   0.578  0.6927 -0.3567  0.6298
20232SOL     OW63074   0.295   7.734   9.109 -0.0889 -0.1744 -0.1186
20232SOL    HW163075   0.289   7.639   9.104  0.0719 -0.1996  0.1494
20232SOL    HW263076   0.352   7.759   9.037 -1.7573 -0.1012 -1.4714
20233SOL     OW63077   5.164   7.904   1.192 -0.0549 -0.6889 -0.1706
20233SOL    HW163078   5.226   7.971   1.161 -0.7287  0.0882  0.1140
20233SOL    HW263079   5.202   7.872   1.273 -0.5870  0.6576  0.6497
20234SOL     OW63080   8.842   8.511   7.294  0.0325 -0.5120 -0.3674
20234SOL    HW163081   8.782   8.487   7.365  0.1023 -0.4269 -0.2798
20234SOL    HW263082   8.838   8.606   7.290  1.7027 -0.3548  0.9842
20235SOL     OW63083   5.597   9.870   7.907 -0.1047 -0.1352 -0.0408
20235SOL    HW163084   5.627   9.944   7.959 -0.9661 -0.1420  0.4818
20235SOL    HW263085   5.648   9.796   7.938 -0.6814 -0.1590  0.8748
20236SOL     OW63086   1.154   8.830   1.252  0.2137 -0.0696 -0.1598
20236SOL    HW163087   1.118   8.750   1.214 -0.4175  0.1538 -0.0501
20236SOL    HW263088   1.097   8.848   1.327  0.6313  0.2291  0.0874
20237SOL     OW63089   9.301   5.965   7.369 -0.0659 -0.3778  0.6981
20237SOL    HW163090   9.301   5.902   7.297  1.5998 -1.6592  1.7193
20237SOL    HW263091   9.371   6.027   7.347 -0.0467 -0.3445  0.8476
20238SOL     OW63092   8.178   9.032   7.869  0.1153  0.6285  0.0961
20238SOL    HW163093   8.158   9.114   7.825 -1.4304  0.8717  1.1694
20238SOL    HW263094   8.269   9.042   7.898  0.3766  1.4043 -0.9401
20239SOL     OW63095   4.721  10.326   9.507  0.0896 -0.2511  0.1659
20239SOL    HW163096   4.788  10.258   9.504  0.1215 -0.2502  0.7446
20239SOL    HW263097   4.765  10.401   9.547  0.2611  0.3515 -1.1237
20240SOL     OW63098   4.730   7.479   9.698 -0.0751  0.0040  0.2037
20240SOL    HW163099   4.711   7.392   9.662 -1.3749 -0.2395  1.4302
20240SOL    HW263100   4.755   7.531   9.621 -1.1457 -0.9410 -0.8210
20241SOL     OW63101   3.767   6.547  10.801 -0.4532 -0.3175  0.2047
20241SOL    HW163102   3.685   6.578  10.837 -0.3582 -0.2012  0.3226
20241SOL    HW263103   3.826   6.622  10.808 -0.5279 -0.1836 -0.5003
20242SOL     OW63104   4.786   7.414   5.058  0.2696  0.2996  0.8400
20242SOL    HW163105   4.792   7.342   4.995 -0.7451 -0.3096  1.4196
20242SOL    HW263106   4.829   7.488   5.014  1.0287 -0.5536  0.0978
20243SOL     OW63107   1.612   7.093  10.476 -0.1109 -0.4233 -0.4487
20243SOL    HW163108   1.659   7.010  10.478 -0.1336 -0.4232  0.6001
20243SOL    HW263109   1.522   7.071  10.498  0.3109  0.1157  2.1132
20244SOL     OW63110   6.707   5.188   8.632 -0.2767 -0.3321  0.3646
20244SOL    HW163111   6.703   5.132   8.709  2.1346  0.4715  1.1923
20244SOL    HW263112   6.721   5.128   8.559 -0.3439 -0.9731  0.8679
20245SOL     OW63113   3.778   0.154   9.029  0.2472  0.3456  0.1255
20245SOL    HW163114   3.803   0.132   8.939 -0.2826  0.3221 -0.0196
20245SOL    HW263115   3.777   0.070   9.074  0.7441  0.3845  0.2160
20246SOL     OW63116   6.830   5.377   3.011  0.0815 -0.2313  0.6039
20246SOL    HW163117   6.911   5.356   2.965  1.1273  0.4088  2.1131
20246SOL    HW263118   6.772   5.303   2.992  1.1789 -0.9342 -0.0760
20247SOL     OW63119   3.316   4.615  10.338  0.1645 -0.2241 -0.1133
20247SOL    HW163120   3.325   4.668  10.258  2.0578 -0.8448 -0.3704
20247SOL    HW263121   3.277   4.674  10.402  0.2177  0.8201 -1.0163
20248SOL     OW63122   3.770   8.177   3.155  0.1980 -0.3131 -0.2232
20248SOL    HW163123   3.684   8.148   3.185 -0.3853  1.4728 -0.0264
20248SOL    HW263124   3.757   8.196   3.062 -0.1287  1.6150  0.1813
20249SOL     OW63125   2.636   0.709   0.839 -0.8366  0.7714 -0.4371
20249SOL    HW163126   2.552   0.687   0.880 -1.1380 -1.4559 -2.0452
20249SOL    HW263127   2.614   0.724   0.747  0.4041  1.2087 -0.6752
20250SOL     OW63128   1.362   3.312   0.307 -0.0987 -0.3249  0.5054
20250SOL    HW163129   1.318   3.343   0.228 -0.2781  1.9273  1.4041
20250SOL    HW263130   1.452   3.296   0.279 -0.3705 -0.4324 -0.3453
20251SOL     OW63131   5.844   8.341   8.017  0.5311  0.0104 -0.2560
20251SOL    HW163132   5.938   8.345   8.000  0.5291  0.7039 -0.1415
20251SOL    HW263133   5.803   8.372   7.936  0.4922  2.2410  0.5475
20252SOL     OW63134   9.969   4.759   6.194  0.1842 -0.4078 -0.5101
20252SOL    HW163135   9.955   4.849   6.165 -0.8590 -0.5048 -0.3785
20252SOL    HW263136   9.897   4.743   6.256  1.5973 -0.6380  1.1237
20253SOL     OW63137   8.651   2.663   2.265  0.2191  0.0743 -0.0603
20253SOL    HW163138   8.607   2.650   2.349 -0.4595  0.5172 -0.3350
20253SOL    HW263139   8.737   2.622   2.275  1.4512  2.8123  1.9573
20254SOL     OW63140   9.202   9.774  10.702  0.2954  0.0883 -0.3835
20254SOL    HW163141   9.161   9.850  10.659 -0.8735 -0.6744 -0.6580
20254SOL    HW263142   9.194   9.792  10.795  1.3026  0.9470 -0.4333
20255SOL     OW63143   8.917   9.565   0.783  0.3333  0.1281 -0.0488
20255SOL    HW163144   8.991   9.518   0.821 -0.0098 -1.6341 -1.4203
20255SOL    HW263145   8.956   9.625   0.720  0.6517 -0.3117 -0.2793
20256SOL     OW63146   9.234   5.183   2.915  0.3360 -0.0323  0.6290
20256SOL    HW163147   9.226   5.095   2.880 -0.1509  0.1144  0.3597
20256SOL    HW263148   9.262   5.236   2.841  1.0576 -0.0317  0.8922
20257SOL     OW63149   9.555   2.056   0.295  0.0167 -0.4553  1.1590
20257SOL    HW163150   9.521   2.128   0.348 -1.2920 -0.8506  0.8876
20257SOL    HW263151   9.547   2.086   0.205 -0.7553 -0.9994  1.0288
20258SOL     OW63152   9.255   6.661   0.939 -0.4651 -0.4284 -0.0764
20258SOL    HW163153   9.200   6.608   0.881  0.7721 -0.5759 -1.1775
20258SOL    HW263154   9.241   6.624   1.026 -0.2105 -2.0973 -0.7074
20259SOL     OW63155   1.909   8.156   9.325 -0.1953  0.2917 -0.2038
20259SOL    HW163156   1.983   8.105   9.291  1.3075  1.9787  0.4013
20259SOL    HW263157   1.897   8.226   9.261 -0.7180  0.5204  0.1360
20260SOL     OW63158  10.045   2.156   9.803  0.2977  0.0909 -0.2347
20260SOL    HW163159   9.986   2.175   9.876 -0.0850  1.1050 -0.7938
20260SOL    HW263160  10.117   2.107   9.844 -0.0662  0.3540  0.7621
20261SOL     OW63161   8.640   7.291   9.447 -0.0672 -0.5680  0.3015
20261SOL    HW163162   8.621   7.247   9.530 -1.9905  0.7555  0.6259
20261SOL    HW263163   8.687   7.371   9.473 -1.3141  0.2171  0.2202
20262SOL     OW63164  10.125   2.837   8.289 -0.4371  0.3547 -0.0233
20262SOL    HW163165  10.181   2.761   8.305 -0.4974  0.2867 -0.1340
20262SOL    HW263166  10.186   2.911   8.280 -0.3600  0.2659 -0.2312
20263SOL     OW63167   8.028   3.336   8.495 -0.0971 -0.4923 -0.0147
20263SOL    HW163168   8.121   3.319   8.482 -0.1964 -0.6714 -0.5120
20263SOL    HW263169   8.017   3.428   8.470 -0.1976 -0.6999 -0.7853
20264SOL     OW63170   5.759   5.406   3.864 -0.5427  0.2976 -0.0254
20264SOL    HW163171   5.827   5.341   3.846 -1.1869 -0.3996 -0.0292
20264SOL    HW263172   5.790   5.453   3.941 -0.3779 -0.4966  0.4079
20265SOL     OW63173   0.955   3.759   2.251 -0.3507 -0.1056 -0.3855
20265SOL    HW163174   1.022   3.789   2.313 -0.8095  0.2542 -0.0572
20265SOL    HW263175   0.988   3.674   2.220  1.3255  1.0429 -1.9142
20266SOL     OW63176   7.801   5.958   6.627  1.1943 -0.1203 -0.2046
20266SOL    HW163177   7.801   5.968   6.723 -0.4195 -1.4920 -0.0209
20266SOL    HW263178   7.830   5.868   6.613  1.0904 -0.0322 -0.9871
20267SOL     OW63179   8.201   1.224   8.336  0.2302 -0.5951 -0.3154
20267SOL    HW163180   8.254   1.281   8.392 -0.4300 -0.0980 -0.1922
20267SOL    HW263181   8.136   1.186   8.395  0.9529 -1.8693 -0.2931
20268SOL     OW63182   3.522   4.092   9.773  0.7110 -0.0704 -0.1339
20268SOL    HW163183   3.618   4.095   9.782  0.5480  1.5767  1.7918
20268SOL    HW263184   3.502   4.157   9.706  0.9006  0.3627  0.2206
20269SOL     OW63185   5.288   5.246   2.038  0.0407  0.3685 -0.0008
20269SOL    HW163186   5.269   5.205   2.122  0.8191  0.2921  0.1523
20269SOL    HW263187   5.319   5.174   1.983 -0.5756  0.3993 -0.3864
20270SOL     OW63188   7.649   9.365   8.977 -0.4067 -0.2941 -0.0433
20270SOL    HW163189   7.596   9.368   9.056 -0.1662  0.2482  0.1037
20270SOL    HW263190   7.707   9.290   8.989  0.2801  0.3503  0.7179
20271SOL     OW63191   3.262   6.095   1.812  0.4422 -0.4617  0.2299
20271SOL    HW163192   3.202   6.113   1.885 -0.1433  3.2741 -0.9504
20271SOL    HW263193   3.226   6.017   1.771 -2.2219  0.2228  1.0382
20272SOL     OW63194   2.828   1.758   2.907  0.2704 -0.1157 -0.5379
20272SOL    HW163195   2.774   1.684   2.878  0.5570 -0.6277  0.1851
20272SOL    HW263196   2.909   1.750   2.856  0.6061 -0.7678  0.0637
20273SOL     OW63197   5.445   3.908   8.177 -0.0003  0.6050  0.0086
20273SOL    HW163198   5.539   3.895   8.185 -0.0997 -2.3734 -1.8201
20273SOL    HW263199   5.434   4.002   8.168  2.9712  0.9554 -1.1087
20274SOL     OW63200  10.295   6.996   6.947 -0.3957 -0.1794  0.4682
20274SOL    HW163201  10.282   7.007   7.041  0.7434 -1.1937  0.7730
20274SOL    HW263202  10.379   7.040   6.930 -0.8374  0.4285 -0.1703
20275SOL     OW63203   9.245   0.772   7.655 -0.5910 -0.3956 -0.1008
20275SOL    HW163204   9.316   0.835   7.638 -1.2316  0.2276 -0.5550
20275SOL    HW263205   9.195   0.812   7.727  0.0922 -1.3314  0.9219
20276SOL     OW63206   1.180   2.144   3.613  0.6574  0.2161 -0.4400
20276SOL    HW163207   1.265   2.187   3.617  0.4548  0.5626  2.2601
20276SOL    HW263208   1.183   2.079   3.683 -0.6866 -1.0116 -1.4679
20277SOL     OW63209  10.637  10.197   7.970  0.5599  0.0600  0.5716
20277SOL    HW163210  10.564  10.141   7.999  0.4738 -0.8023 -1.1409
20277SOL    HW263211  10.594  10.273   7.930  0.5077 -0.7817 -1.0860
20278SOL     OW63212   5.930   3.868   2.187  0.4316  0.1587  0.0056
20278SOL    HW163213   6.011   3.905   2.224  1.8912 -1.0612 -1.7688
20278SOL    HW263214   5.939   3.774   2.198 -0.7518 -0.0011 -0.2653
20279SOL     OW63215   1.267   9.168   0.321  0.3363 -0.3110  0.4040
20279SOL    HW163216   1.227   9.084   0.296  1.1790 -0.4886 -0.3966
20279SOL    HW263217   1.279   9.215   0.239  0.6050  0.2631  0.7648
20280SOL     OW63218   4.840   1.437   0.623 -0.7549  0.0065 -0.0600
20280SOL    HW163219   4.934   1.421   0.635 -0.9979 -1.3805  0.1786
20280SOL    HW263220   4.815   1.379   0.551 -1.7331 -0.8488  0.9437
20281SOL     OW63221   8.148   1.681   3.638 -0.3516  0.0716  0.0610
20281SOL    HW163222   8.203   1.657   3.563  1.2484  0.4295  1.0838
20281SOL    HW263223   8.110   1.598   3.667 -0.9919 -0.0776 -1.1158
20282SOL     OW63224  10.097   0.420   9.820  0.2720  0.1248 -0.5280
20282SOL    HW163225  10.065   0.495   9.771  0.4942  1.8031  1.7277
20282SOL    HW263226  10.084   0.444   9.912  1.9372 -1.8857  0.3203
20283SOL     OW63227   4.738   7.570   6.423 -0.5851 -0.3533  0.1784
20283SOL    HW163228   4.740   7.498   6.359 -0.9914  0.0027 -0.2402
20283SOL    HW263229   4.668   7.628   6.392 -0.2783  0.2139  0.5308
20284SOL     OW63230   3.063  10.543   1.754  0.2460  0.2090  0.2523
20284SOL    HW163231   3.090  10.628   1.720  1.7131 -0.4541 -0.3117
20284SOL    HW263232   3.081  10.547   1.847  1.3271  0.1640  0.0552
20285SOL     OW63233   9.377   1.918   4.636  0.6145 -0.2467  0.3853
20285SOL    HW163234   9.440   1.919   4.564 -0.5476  0.1333 -0.6670
20285SOL    HW263235   9.297   1.884   4.597 -0.4416  1.2590  1.1304
20286SOL     OW63236   5.701   7.985   9.712 -0.5563  0.0642 -0.0191
20286SOL    HW163237   5.788   8.019   9.734 -0.5240  0.2861 -0.4593
20286SOL    HW263238   5.702   7.895   9.742 -0.8603  0.6211  1.7423
20287SOL     OW63239   7.389   5.881   6.566 -0.2980 -0.3300  0.0822
20287SOL    HW163240   7.436   5.809   6.608 -0.7634 -0.0642  1.0805
20287SOL    HW263241   7.376   5.851   6.476  1.4495 -0.5614 -0.1383
20288SOL     OW63242   9.390   8.390   2.738 -0.1766 -0.3595  0.1079
20288SOL    HW163243   9.328   8.421   2.672  0.5123 -0.0244 -0.3873
20288SOL    HW263244   9.413   8.301   2.710 -0.6790 -0.6170  0.4806
20289SOL     OW63245   9.037   8.994   7.833  0.6570 -0.2230 -0.2455
20289SOL    HW163246   9.074   9.022   7.750 -2.9080 -1.0692 -2.3170
20289SOL    HW263247   8.968   9.057   7.852 -0.5043 -1.6673  0.5314
20290SOL     OW63248   9.528   6.881  10.267  0.1924  0.3237  0.3365
20290SOL    HW163249   9.463   6.931  10.316 -0.2613 -0.3110  0.3863
20290SOL    HW263250   9.538   6.799  10.316  0.8659  0.3215  0.2075
20291SOL     OW63251   0.893   5.844   0.293  0.1572  0.1890  0.2507
20291SOL    HW163252   0.861   5.760   0.260  0.8023  0.2688 -0.5978
20291SOL    HW263253   0.977   5.857   0.250  0.6801  0.6556  1.3821
20292SOL     OW63254   9.304   9.457   5.938 -0.0776 -0.0114 -0.6026
20292SOL    HW163255   9.367   9.447   6.010  0.5453 -0.7926 -1.2365
20292SOL    HW263256   9.312   9.375   5.888 -0.7858  0.3590 -1.3355
20293SOL     OW63257   4.130   0.967   8.335  0.6103  0.0648 -0.0484
20293SOL    HW163258   4.222   0.969   8.308  1.2210 -0.2817  1.8519
20293SOL    HW263259   4.082   0.950   8.254  2.3342 -1.3097 -0.8545
20294SOL     OW63260   5.713   6.601   1.117  0.0645 -0.4609 -1.0203
20294SOL    HW163261   5.618   6.595   1.109  0.1190 -1.1581 -1.2126
20294SOL    HW263262   5.733   6.555   1.199  0.0922  1.1706 -0.0593
20295SOL     OW63263  10.529   5.128   4.615 -0.6671 -0.3337 -0.3208
20295SOL    HW163264  10.444   5.120   4.658  0.2301  2.2300  2.2839
20295SOL    HW263265  10.518   5.199   4.552 -0.9934 -1.5939 -1.7468
20296SOL     OW63266   9.340   3.341   5.536 -0.2296 -0.0399 -0.5545
20296SOL    HW163267   9.411   3.392   5.575 -0.4367  0.4605 -0.8151
20296SOL    HW263268   9.381   3.259   5.508 -0.2650 -0.8780  1.6235
20297SOL     OW63269  10.667   1.413   3.446 -0.4316 -0.2385 -0.0569
20297SOL    HW163270  10.590   1.424   3.390 -0.0432 -2.0845 -1.0125
20297SOL    HW263271  10.643   1.457   3.528 -0.4796  3.8362 -2.0293
20298SOL     OW63272   3.747   6.561   6.785 -0.5100 -0.1801 -0.0091
20298SOL    HW163273   3.816   6.494   6.781  1.2523  1.4372  1.3829
20298SOL    HW263274   3.773   6.626   6.719  0.7196  1.6070  2.0955
20299SOL     OW63275   5.315   7.950   4.889 -0.3667 -0.6229  0.1340
20299SOL    HW163276   5.283   8.000   4.964 -0.2865  1.1671 -0.9699
20299SOL    HW263277   5.292   8.003   4.813  1.1420 -1.5032 -0.9978
20300SOL     OW63278   1.057   4.848   8.559 -0.4477  0.1387  0.5009
20300SOL    HW163279   0.961   4.846   8.562 -0.5206 -2.2636 -0.6029
20300SOL    HW263280   1.085   4.796   8.634 -0.1219 -0.9273 -0.3264
20301SOL     OW63281   1.159   4.962  10.572  0.7127  0.2758  0.8172
20301SOL    HW163282   1.152   4.962  10.477 -2.1047 -0.0266  0.9349
20301SOL    HW263283   1.159   4.870  10.597 -0.3342  0.3546  1.1574
20302SOL     OW63284   4.645  10.622   9.241  0.2763 -0.2830  0.4191
20302SOL    HW163285   4.582  10.625   9.313  0.7530 -0.3313  0.8446
20302SOL    HW263286   4.642  10.710   9.204 -2.6258 -1.1635 -1.8528
20303SOL     OW63287  10.428  10.339   1.790 -0.2383 -0.2104  0.2774
20303SOL    HW163288  10.382  10.421   1.807 -0.8839 -0.9533  2.4330
20303SOL    HW263289  10.388  10.305   1.710 -1.3909  0.5884  0.4897
20304SOL     OW63290   2.525   7.974   1.746 -0.2298  0.3304  0.3739
20304SOL    HW163291   2.555   8.065   1.750 -0.2971  0.3523  0.3793
20304SOL    HW263292   2.581   7.928   1.809  0.7158  0.1105 -0.6019
20305SOL     OW63293   8.288   6.114   3.217 -0.1878 -0.0899  0.8623
20305SOL    HW163294   8.200   6.081   3.199  0.3558 -0.1355 -2.0346
20305SOL    HW263295   8.319   6.061   3.290 -1.9293 -1.2077  0.8355
20306SOL     OW63296   4.640   0.120   8.701  0.1671 -0.8134  0.2692
20306SOL    HW163297   4.725   0.119   8.744 -0.0065 -0.7825  0.6223
20306SOL    HW263298   4.654   0.169   8.620  0.7838 -1.9320 -0.3115
20307SOL     OW63299   2.006   6.294   4.676  0.4602  0.2444 -0.2275
20307SOL    HW163300   1.921   6.318   4.639  0.6142  0.1474 -0.6377
20307SOL    HW263301   2.012   6.200   4.664  0.6476  0.2584 -0.2389
20308SOL     OW63302   2.932  10.167   8.530  0.1233  0.0846  0.5359
20308SOL    HW163303   3.013  10.188   8.485  0.4134 -1.3295  0.3387
20308SOL    HW263304   2.959  10.137   8.617 -0.3599  1.7352  1.3006
20309SOL     OW63305   7.353   1.535   1.511  0.1492 -0.8287  0.5266
20309SOL    HW163306   7.368   1.442   1.528 -2.1333 -1.3623 -0.0884
20309SOL    HW263307   7.352   1.542   1.415 -1.5531 -0.5614  0.5307
20310SOL     OW63308   4.825   7.274  10.060 -0.1387  0.1805  0.2138
20310SOL    HW163309   4.835   7.182  10.085  0.0753  0.1217 -0.0790
20310SOL    HW263310   4.793   7.271   9.970  0.0089  0.3909  0.1526
20311SOL     OW63311   5.551   9.516   9.266  0.0028  0.3326  0.3547
20311SOL    HW163312   5.632   9.566   9.253 -0.8108  1.9120  1.0896
20311SOL    HW263313   5.488   9.556   9.207  0.0130 -1.6809 -1.1295
20312SOL     OW63314   7.532   2.296   8.190  0.2083 -0.7665  0.5155
20312SOL    HW163315   7.541   2.313   8.096  2.2710  1.1649  1.0008
20312SOL    HW263316   7.586   2.218   8.205 -0.7645 -1.5582 -0.0017
20313SOL     OW63317   5.412  10.007   8.268  0.5669  0.3422 -0.6664
20313SOL    HW163318   5.453  10.044   8.346  0.2140  0.2024 -0.4152
20313SOL    HW263319   5.342   9.951   8.301 -2.1926  3.2423 -1.0920
20314SOL     OW63320   1.289   9.293   4.422 -0.3206 -0.8407  0.0345
20314SOL    HW163321   1.280   9.298   4.517  0.1384 -1.1962  0.0988
20314SOL    HW263322   1.212   9.340   4.388 -0.7251 -1.1031  0.5761
20315SOL     OW63323   4.395  10.666   7.517  0.2039 -0.3568  0.0813
20315SOL    HW163324   4.350  10.720   7.582 -3.0041 -3.3772  0.6714
20315SOL    HW263325   4.427  10.590   7.566  2.1053 -0.4121 -1.1376
20316SOL     OW63326   7.149   2.189   4.420  0.0686 -0.3138 -0.0571
20316SOL    HW163327   7.059   2.222   4.411  0.1687 -0.0262 -0.0294
20316SOL    HW263328   7.139   2.095   4.433 -0.2144 -0.3315 -0.3774
20317SOL     OW63329   3.053   5.170   3.442  0.2728  0.2397  0.4069
20317SOL    HW163330   2.962   5.150   3.417  0.4395  0.2917 -0.2593
20317SOL    HW263331   3.081   5.095   3.494 -0.6387  0.8852  1.8872
20318SOL     OW63332   0.293   7.176   7.802 -0.6510  0.4097  0.1332
20318SOL    HW163333   0.349   7.228   7.860 -0.4826 -0.6258  0.9091
20318SOL    HW263334   0.327   7.087   7.808 -0.6425  0.2706 -1.5558
20319SOL     OW63335   9.611   9.185   3.514  0.5695 -0.2484  0.0855
20319SOL    HW163336   9.668   9.114   3.544  0.6627 -0.1075  0.2516
20319SOL    HW263337   9.523   9.156   3.535  0.6243 -0.2101  0.3851
20320SOL     OW63338   0.812   0.332   8.061 -0.6777  0.3285 -0.2346
20320SOL    HW163339   0.829   0.343   8.154 -2.1210  0.8383  0.0029
20320SOL    HW263340   0.824   0.238   8.045 -0.0660  0.2994  0.3735
20321SOL     OW63341   1.382   6.060   6.301  0.4984 -0.0137 -0.4585
20321SOL    HW163342   1.421   6.147   6.307 -0.5314  0.5353 -1.3138
20321SOL    HW263343   1.340   6.059   6.215  0.0968 -1.1908 -0.2641
20322SOL     OW63344   6.854   6.063   0.987  0.0832 -0.0697 -0.5672
20322SOL    HW163345   6.874   5.980   0.944 -1.7502 -0.8710  0.0109
20322SOL    HW263346   6.926   6.077   1.048 -1.3437 -3.2878  2.1491
20323SOL     OW63347   8.036   0.822   9.676 -0.5441  0.1742 -0.4672
20323SOL    HW163348   8.030   0.918   9.673 -1.1551  0.1756  0.3951
20323SOL    HW263349   7.946   0.792   9.675 -0.5594 -0.2275  2.6647
20324SOL     OW63350   3.848   1.159   7.342  0.5829  0.1765  0.0154
20324SOL    HW163351   3.836   1.210   7.422 -0.5989  3.6539 -2.1821
20324SOL    HW263352   3.921   1.201   7.297 -1.2906  0.9062 -2.5166
20325SOL     OW63353   4.904   7.916  10.168  0.3768 -0.3661 -0.3979
20325SOL    HW163354   4.869   7.874  10.246  2.2690 -0.2783  0.5710
20325SOL    HW263355   4.911   8.009  10.191  2.0377 -0.5052 -0.1666
20326SOL     OW63356   4.010   0.148   2.372  0.3110  0.1181  0.3703
20326SOL    HW163357   4.084   0.204   2.350  0.4790  0.6551  2.1734
20326SOL    HW263358   4.026   0.121   2.462 -1.1983 -0.5651  0.4627
20327SOL     OW63359   4.320   1.181   9.886 -0.1068  0.2191 -0.3282
20327SOL    HW163360   4.323   1.178   9.791 -0.8540 -1.2155 -0.3281
20327SOL    HW263361   4.284   1.268   9.906 -0.6474  0.2472 -1.3643
20328SOL     OW63362   6.626   4.152   0.095  0.2087 -0.2383  0.0769
20328SOL    HW163363   6.578   4.202   0.161  1.1017 -0.4830  0.9471
20328SOL    HW263364   6.607   4.197   0.012 -0.6466  0.2914  0.5449
20329SOL     OW63365   2.143   1.643   7.820  0.2807  0.4792 -0.9280
20329SOL    HW163366   2.174   1.562   7.779  1.3819  0.4373 -0.0641
20329SOL    HW263367   2.122   1.617   7.910 -2.1178  0.5569 -1.3972
20330SOL     OW63368   3.206   6.065   7.786 -0.2455 -0.8306 -0.3794
20330SOL    HW163369   3.166   6.112   7.713 -0.6408 -0.4953  0.0534
20330SOL    HW263370   3.178   6.112   7.864  0.0656 -1.2686  0.0020
20331SOL     OW63371   1.667   7.905   1.924  1.0417 -0.2602  0.9190
20331SOL    HW163372   1.632   7.873   2.007  1.4254 -0.6733  0.9276
20331SOL    HW263373   1.592   7.946   1.880  1.2979  1.9899  2.4191
20332SOL     OW63374   1.208   5.795   4.090  0.0520  0.3275  0.1117
20332SOL    HW163375   1.298   5.801   4.122  0.1629 -0.4924 -0.0286
20332SOL    HW263376   1.204   5.710   4.046 -0.9742  0.0775  0.6683
20333SOL     OW63377   5.615   0.806   8.221 -0.6075  0.1555  0.1730
20333SOL    HW163378   5.569   0.888   8.209  0.0131  0.7002  1.2966
20333SOL    HW263379   5.564   0.759   8.287 -0.3690  0.1343  0.3479
20334SOL     OW63380   6.934   8.725   2.046  0.6392 -0.0076 -0.4722
20334SOL    HW163381   6.981   8.650   2.010 -0.5233 -1.0362  0.0738
20334SOL    HW263382   6.942   8.715   2.141  0.7393  0.7382 -0.3949
20335SOL     OW63383   4.875   9.101   8.791  0.0235 -0.2794  0.4890
20335SOL    HW163384   4.865   9.179   8.847  0.0196  0.5878 -0.6918
20335SOL    HW263385   4.786   9.066   8.784 -0.1446  0.2078  0.1789
20336SOL     OW63386   2.497   3.021   4.169  0.1885  0.7308  0.0858
20336SOL    HW163387   2.469   2.934   4.141 -0.8546  1.3055 -0.7102
20336SOL    HW263388   2.586   3.008   4.201 -0.0558 -0.6778  0.2531
20337SOL     OW63389   9.538   4.486   9.167 -0.0866 -0.5275  0.1255
20337SOL    HW163390   9.576   4.573   9.158 -0.4749 -0.2060  1.3314
20337SOL    HW263391   9.612   4.429   9.188  0.2078 -0.5464 -0.9461
20338SOL     OW63392   3.445   0.288   7.047  0.0510  0.3182 -0.0879
20338SOL    HW163393   3.410   0.320   6.964  0.8307  1.9578  0.1794
20338SOL    HW263394   3.501   0.214   7.022 -0.7185 -0.0087 -0.8828
20339SOL     OW63395   1.624   1.151   4.877  0.1464  0.2661 -0.5453
20339SOL    HW163396   1.574   1.078   4.841 -0.7830  0.7305 -0.2472
20339SOL    HW263397   1.715   1.125   4.869 -0.1692 -0.8595 -0.5843
20340SOL     OW63398   5.619  10.525   5.625  0.1947 -0.4384 -0.7824
20340SOL    HW163399   5.547  10.508   5.565  0.5613  0.7967 -1.5925
20340SOL    HW263400   5.678  10.583   5.577  1.4479 -0.9471  0.0754
20341SOL     OW63401   2.107   2.333   1.461  0.1597  0.3492 -0.0996
20341SOL    HW163402   2.195   2.327   1.424 -0.5427 -1.3500 -1.6460
20341SOL    HW263403   2.104   2.419   1.503  1.6715  1.5688 -2.3150
20342SOL     OW63404   7.924  10.331   6.632 -0.0034  0.0326 -0.1446
20342SOL    HW163405   7.918  10.369   6.720  1.3129 -0.7846  0.3228
20342SOL    HW263406   7.936  10.406   6.574  0.1613  0.5025  0.4902
20343SOL     OW63407   4.936   4.389   3.780  0.1339  0.2804 -0.2366
20343SOL    HW163408   4.988   4.389   3.861 -0.9371  0.1144  0.4750
20343SOL    HW263409   4.914   4.297   3.767 -0.7663  0.4532  0.0033
20344SOL     OW63410   9.381   1.464   2.947 -0.8503 -0.4770 -0.3742
20344SOL    HW163411   9.445   1.452   2.877 -0.1228 -0.1728  0.2307
20344SOL    HW263412   9.430   1.505   3.018 -2.4216  2.7906 -1.0261
20345SOL     OW63413   7.553   9.183   0.856 -0.2828 -0.2353 -0.2848
20345SOL    HW163414   7.469   9.213   0.890 -0.3143 -0.7012  0.0486
20345SOL    HW263415   7.557   9.091   0.879  1.1166  0.1884  1.3144
20346SOL     OW63416   0.809   7.042   4.477 -0.3206 -0.0028 -0.1354
20346SOL    HW163417   0.736   7.093   4.441  0.2970  1.5714  0.7563
20346SOL    HW263418   0.770   6.957   4.497 -1.5745  0.3383 -0.9782
20347SOL     OW63419   1.330   8.116   4.309  0.2032 -1.0156  0.3197
20347SOL    HW163420   1.397   8.047   4.304 -1.0306 -2.2076 -0.6787
20347SOL    HW263421   1.356   8.179   4.242  1.0986 -0.7186  0.9286
20348SOL     OW63422   5.391   9.334   4.826 -0.0435 -0.0585 -0.0617
20348SOL    HW163423   5.345   9.250   4.833  0.8181 -0.5187  0.2484
20348SOL    HW263424   5.449   9.323   4.750 -0.4524  0.5196 -0.4622
20349SOL     OW63425   2.461   0.655   4.801  0.2112 -0.2193 -0.1642
20349SOL    HW163426   2.532   0.669   4.863  1.7366 -0.3151 -1.7965
20349SOL    HW263427   2.481   0.572   4.758 -0.0927  0.4086 -1.6189
20350SOL     OW63428   6.787   9.327   3.238 -0.1127 -0.0413 -0.0688
20350SOL    HW163429   6.771   9.366   3.152 -1.1614 -2.6406 -1.1653
20350SOL    HW263430   6.871   9.282   3.228 -0.7198 -1.2047 -0.1137
20351SOL     OW63431   2.495  10.361  10.673  0.8228 -0.4090 -0.0614
20351SOL    HW163432   2.451  10.446  10.664 -0.7217 -1.0616  0.9214
20351SOL    HW263433   2.537  10.347  10.588  0.0143  0.7481 -0.6858
20352SOL     OW63434   4.083   2.306   7.313 -0.6171  0.1934 -0.3165
20352SOL    HW163435   4.025   2.243   7.271 -1.4547 -0.1647  1.2911
20352SOL    HW263436   4.026   2.379   7.337 -0.8240 -0.8387  2.7036
20353SOL     OW63437  10.266   3.743   2.225 -0.0585  0.1529 -0.0411
20353SOL    HW163438  10.199   3.796   2.183 -0.0458  0.4826  0.3428
20353SOL    HW263439  10.241   3.742   2.318  0.1115 -0.2582  0.0044
20354SOL     OW63440   8.905   1.794   8.528 -0.2083 -0.6452  0.1738
20354SOL    HW163441   8.880   1.815   8.618  0.5118 -1.4650  0.5857
20354SOL    HW263442   8.855   1.715   8.507  0.6182 -1.2414  0.3588
20355SOL     OW63443   9.231   5.386   5.469 -0.4972 -0.0550  0.0405
20355SOL    HW163444   9.245   5.481   5.470 -0.8943  0.0060  0.0430
20355SOL    HW263445   9.277   5.356   5.391 -1.1707  0.2728 -0.5015
20356SOL     OW63446   4.066   9.376   4.081  0.3843  0.0363 -0.3934
20356SOL    HW163447   4.138   9.405   4.137  0.8439 -0.8168 -0.5271
20356SOL    HW263448   4.018   9.313   4.134 -0.9975  1.4606  0.1363
20357SOL     OW63449   3.358   4.499   7.451  0.3689 -0.0580  0.0634
20357SOL    HW163450   3.444   4.541   7.457  0.8841 -0.9335 -0.9269
20357SOL    HW263451   3.378   4.407   7.437 -0.7137 -0.0483 -1.7071
20358SOL     OW63452   5.659   1.687   0.192 -0.3279 -0.5390  0.2524
20358SOL    HW163453   5.648   1.614   0.254  0.4078  0.0804  1.1495
20358SOL    HW263454   5.634   1.765   0.242  0.5255  0.0043 -0.1400
20359SOL     OW63455   5.731   0.326   4.708 -0.6476 -0.3343 -0.6548
20359SOL    HW163456   5.702   0.235   4.710 -1.0714 -0.2005  1.6332
20359SOL    HW263457   5.683   0.364   4.635  0.1165 -2.0826 -2.1549
20360SOL     OW63458   2.502   6.420   6.611 -0.5870  0.3320 -0.0208
20360SOL    HW163459   2.432   6.422   6.676 -0.9706  1.9491 -0.4148
20360SOL    HW263460   2.497   6.333   6.573 -1.9124  0.1578  0.4861
20361SOL     OW63461   5.802   7.517   6.260  0.4182 -0.2521 -0.3398
20361SOL    HW163462   5.783   7.522   6.167  1.2731 -0.6415 -0.5404
20361SOL    HW263463   5.897   7.520   6.266  0.3596  0.4101  0.5655
20362SOL     OW63464   7.337   7.297   5.742  0.5888  0.3083 -0.2150
20362SOL    HW163465   7.425   7.290   5.707  0.6339  1.5294 -0.4151
20362SOL    HW263466   7.281   7.258   5.675  0.8876  0.5509 -0.6109
20363SOL     OW63467   2.064   7.026  10.214 -0.3834  0.6499  0.3111
20363SOL    HW163468   2.042   7.107  10.259 -0.1599 -0.1040  1.8168
20363SOL    HW263469   2.006   7.025  10.137 -1.7351  1.3177  1.2869
20364SOL     OW63470   1.920   0.088   4.136 -0.0550 -0.3704 -0.2432
20364SOL    HW163471   1.934   0.133   4.053 -2.6484 -1.6076 -1.4365
20364SOL    HW263472   1.997   0.031   4.145  0.9385  0.7741 -1.0309
20365SOL     OW63473   4.118   4.634   3.235  0.0675  0.2345 -0.0158
20365SOL    HW163474   4.213   4.621   3.241 -0.1010 -1.2421 -0.3060
20365SOL    HW263475   4.090   4.650   3.325  0.4229 -0.6002  0.2485
20366SOL     OW63476   4.890   9.442   7.046  0.2568 -0.5730 -0.1833
20366SOL    HW163477   4.798   9.454   7.024  0.4191 -0.3406 -0.7730
20366SOL    HW263478   4.890   9.403   7.133 -0.4032 -0.9244 -0.3394
20367SOL     OW63479   5.244   0.750   1.306  0.0391  0.1007  0.4260
20367SOL    HW163480   5.218   0.660   1.286  0.9828  0.2623 -1.8211
20367SOL    HW263481   5.169   0.803   1.278  1.2553  0.3043 -2.7491
20368SOL     OW63482  10.449   9.891   4.020 -0.4071 -0.0489  0.2707
20368SOL    HW163483  10.461   9.978   3.981  0.2974 -0.1176  0.3237
20368SOL    HW263484  10.394   9.907   4.097 -3.6016 -0.1794 -1.7956
20369SOL     OW63485   7.503   8.203   2.976 -0.8929  0.3666  0.5639
20369SOL    HW163486   7.409   8.212   2.961 -1.0671  1.0395  1.8844
20369SOL    HW263487   7.540   8.188   2.889 -2.0928  1.2150 -0.1287
20370SOL     OW63488   8.360  10.111   6.373 -1.0207 -0.5159 -0.2137
20370SOL    HW163489   8.390  10.151   6.454  0.2108  0.1816 -0.9778
20370SOL    HW263490   8.265  10.109   6.381 -0.9674  0.3293  0.8820
20371SOL     OW63491   8.547   6.771   4.466 -0.2405 -0.0216 -0.0135
20371SOL    HW163492   8.495   6.702   4.425  0.4515  0.0350 -1.0427
20371SOL    HW263493   8.561   6.835   4.396  0.9250  0.1052  0.3063
20372SOL     OW63494   3.806   2.622   8.665 -0.3458  0.3359  0.4269
20372SOL    HW163495   3.745   2.680   8.619  1.1835  2.0209  0.4089
20372SOL    HW263496   3.806   2.541   8.615  1.5432  2.1954 -2.9125
20373SOL     OW63497   8.361   8.712   8.608 -1.4644  0.1591  0.2884
20373SOL    HW163498   8.428   8.650   8.580 -2.0488 -0.4620  0.2192
20373SOL    HW263499   8.387   8.738   8.696 -1.0832 -0.0012  0.2247
20374SOL     OW63500   2.619   5.462   8.516 -0.1393 -0.0101 -0.4205
20374SOL    HW163501   2.694   5.423   8.471 -0.4452 -0.1327 -0.8314
20374SOL    HW263502   2.565   5.498   8.446 -0.1376  0.6685 -0.0829
20375SOL     OW63503   5.070   0.903   4.401  0.5634 -0.4557  0.0324
20375SOL    HW163504   5.132   0.943   4.340  0.4551  1.9505  1.3826
20375SOL    HW263505   4.989   0.895   4.350  0.0875  2.7230  0.0459
20376SOL     OW63506   2.646   9.892   0.066 -0.3633 -0.3659  0.6887
20376SOL    HW163507   2.644   9.844   0.149 -0.4932 -3.3268 -0.9141
20376SOL    HW263508   2.555   9.894   0.037 -0.2013 -0.1335  0.1832
20377SOL     OW63509   3.293   0.081   0.920  0.8839 -0.5027 -0.3759
20377SOL    HW163510   3.283   0.009   0.858 -0.6101 -0.2973 -0.4206
20377SOL    HW263511   3.258   0.047   1.002  0.0854  0.1772 -0.4198
20378SOL     OW63512   2.687  10.409   4.583  0.0734  0.7396 -0.2113
20378SOL    HW163513   2.746  10.422   4.508 -0.1574 -0.6925 -0.6711
20378SOL    HW263514   2.692  10.316   4.602 -3.2654  0.1789 -1.3397
20379SOL     OW63515   5.104   4.622   6.670  0.5955 -0.0235 -0.1787
20379SOL    HW163516   5.015   4.633   6.637 -0.7763 -3.0222  2.0313
20379SOL    HW263517   5.134   4.711   6.689 -0.4556  1.4170 -4.1463
20380SOL     OW63518   6.580   1.219   0.402 -0.3162 -0.3354 -0.5071
20380SOL    HW163519   6.523   1.249   0.332 -3.1256 -0.9520  1.3574
20380SOL    HW263520   6.605   1.131   0.377  0.6518  0.2770 -1.7917
20381SOL     OW63521  10.337   6.746   2.588 -0.1992 -0.1385 -0.2344
20381SOL    HW163522  10.411   6.794   2.551  0.0554 -0.9893 -0.8733
20381SOL    HW263523  10.267   6.811   2.593 -0.3043  0.0030 -2.4113
20382SOL     OW63524   2.972   9.684   3.715  1.3801 -0.4197 -0.1826
20382SOL    HW163525   3.045   9.627   3.693  0.3937 -1.4193 -0.9875
20382SOL    HW263526   2.950   9.728   3.633  0.7252 -0.5601 -0.0921
20383SOL     OW63527   7.553   5.171   9.278 -0.6388 -0.0063 -0.1839
20383SOL    HW163528   7.548   5.258   9.239 -0.2937 -0.3710 -1.0508
20383SOL    HW263529   7.513   5.113   9.214  0.0431 -0.6306 -0.0574
20384SOL     OW63530   2.748   3.429   4.142  0.1561  1.0444 -0.3066
20384SOL    HW163531   2.762   3.485   4.067 -0.0914  1.0034 -0.3841
20384SOL    HW263532   2.660   3.393   4.130  1.2994 -1.6217 -1.7641
20385SOL     OW63533   5.010   6.656   3.949  0.2161 -0.7090 -0.4986
20385SOL    HW163534   4.934   6.714   3.945  0.0055 -1.0301 -1.5106
20385SOL    HW263535   5.085   6.714   3.956 -0.0567 -0.3490 -0.5524
20386SOL     OW63536   3.153   6.213   7.998  0.4778  0.0741  0.1186
20386SOL    HW163537   3.075   6.265   7.978  0.3622  0.0673  0.5404
20386SOL    HW263538   3.222   6.277   8.013  0.6914  0.0659 -0.8086
20387SOL     OW63539   1.344   3.465   1.131  0.5847 -0.0953  0.0646
20387SOL    HW163540   1.356   3.476   1.037  1.8870  1.9022  0.3915
20387SOL    HW263541   1.253   3.488   1.147  0.0957 -1.3825 -0.8079
20388SOL     OW63542   2.635   5.386   5.818 -0.5802 -0.6016  0.4020
20388SOL    HW163543   2.654   5.466   5.868 -1.4606 -0.0672 -0.0942
20388SOL    HW263544   2.541   5.390   5.802 -0.6156 -1.7013  0.2849
20389SOL     OW63545   2.729   7.885   3.915  0.1928  0.4877  0.2811
20389SOL    HW163546   2.635   7.877   3.931  0.3720 -1.1529  0.7388
20389SOL    HW263547   2.754   7.801   3.877  1.3124  1.2614 -0.7875
20390SOL     OW63548  10.596   9.241   9.752 -0.1719  0.0576  0.4744
20390SOL    HW163549  10.680   9.287   9.760  0.0960 -0.3054 -0.2374
20390SOL    HW263550  10.570   9.223   9.843  0.2348  0.6761  0.7213
20391SOL     OW63551  10.292   7.246   0.999  0.4827  0.1904  0.4560
20391SOL    HW163552  10.209   7.292   1.004  0.8305  1.2054 -1.7338
20391SOL    HW263553  10.269   7.154   1.002 -0.3948  0.4079  2.9849
20392SOL     OW63554   3.219   5.038   6.694 -0.2372 -0.3668  0.1525
20392SOL    HW163555   3.216   5.046   6.789 -2.2742  1.2226  0.0325
20392SOL    HW263556   3.134   5.071   6.664  0.9665  0.8119 -2.3121
20393SOL     OW63557  10.740   8.647   6.506  0.7501 -0.0653  0.2378
20393SOL    HW163558  10.696   8.631   6.423  1.8091 -1.1595 -0.1326
20393SOL    HW263559  10.830   8.666   6.482  1.0397 -0.2698  1.1266
20394SOL     OW63560   5.520   6.371   3.293  0.5158  0.7338  0.1671
20394SOL    HW163561   5.565   6.395   3.374 -0.9457  0.1059  1.2148
20394SOL    HW263562   5.552   6.283   3.273  0.4644  0.6648  0.3846
20395SOL     OW63563   9.911   2.919   0.878  0.4574  0.1281 -0.1929
20395SOL    HW163564   9.976   2.850   0.871  0.1887 -0.1064 -0.3952
20395SOL    HW263565   9.948   2.992   0.828  1.3917  0.6439  1.1974
20396SOL     OW63566  10.059   6.672   0.395 -0.1955 -0.6938  0.3180
20396SOL    HW163567  10.088   6.600   0.340  0.0069 -1.3433  1.2493
20396SOL    HW263568   9.964   6.666   0.395 -0.5543  1.7639 -3.1790
20397SOL     OW63569   0.680   1.285   2.556  0.0042  0.5650  0.2281
20397SOL    HW163570   0.752   1.328   2.602 -1.5687  0.5815  2.9045
20397SOL    HW263571   0.608   1.348   2.559 -1.5755 -1.2031  1.9968
20398SOL     OW63572   2.946   0.048   2.103  0.3275 -0.7338  0.4913
20398SOL    HW163573   3.024  -0.006   2.093  0.0897 -0.9564 -0.1941
20398SOL    HW263574   2.901   0.042   2.018 -0.1404 -0.1535  0.6916
20399SOL     OW63575   2.648   1.080   0.331  0.6445 -0.3468 -0.0837
20399SOL    HW163576   2.638   1.025   0.254 -3.7106  0.9372 -0.7328
20399SOL    HW263577   2.647   1.170   0.297 -0.7110  0.2325  1.3722
20400SOL     OW63578  10.168   8.210   2.408 -0.2337 -0.3326  0.1399
20400SOL    HW163579  10.190   8.275   2.474 -0.2532  0.3088 -0.4738
20400SOL    HW263580  10.240   8.146   2.413  1.3711  1.2579 -1.2253
20401SOL     OW63581   5.274   1.344   2.503 -0.0871 -0.5227 -0.4422
20401SOL    HW163582   5.332   1.417   2.525 -0.2585 -0.0498 -1.5000
20401SOL    HW263583   5.322   1.294   2.436 -1.3022  0.5060 -2.1740
20402SOL     OW63584   3.020  10.438   1.235  0.2319 -0.1813  0.3121
20402SOL    HW163585   3.021  10.437   1.139  0.9592 -0.7615  0.3201
20402SOL    HW263586   3.109  10.415   1.260  0.1979  0.5521  1.1337
20403SOL     OW63587   1.675   9.215   8.327 -0.4195  0.5805 -0.3173
20403SOL    HW163588   1.747   9.211   8.264 -1.0224  1.0453 -1.0502
20403SOL    HW263589   1.701   9.153   8.396  1.4634  1.9239  0.2747
20404SOL     OW63590   1.204  10.294   4.400  0.0501  0.0582  0.5391
20404SOL    HW163591   1.216  10.203   4.374  0.5141  0.0166  0.8911
20404SOL    HW263592   1.211  10.293   4.495 -0.7588  0.3413  0.6074
20405SOL     OW63593   8.744   0.807   4.578  0.6107 -0.0070  0.5210
20405SOL    HW163594   8.807   0.798   4.507 -0.4858 -0.8816 -0.3956
20405SOL    HW263595   8.787   0.767   4.654  2.0357  1.4865  0.5378
20406SOL     OW63596   6.386   7.438  10.699  0.5327 -0.4943 -0.5138
20406SOL    HW163597   6.434   7.520  10.688  0.5747 -0.2583  1.1354
20406SOL    HW263598   6.426   7.378  10.636  1.5501  0.3082 -0.6633
20407SOL     OW63599   9.056   0.843   4.208  0.1776  0.2042 -0.0358
20407SOL    HW163600   9.025   0.782   4.274 -1.3510  0.8392 -0.1107
20407SOL    HW263601   9.033   0.802   4.124 -1.1123  0.9701 -0.0817
20408SOL     OW63602   2.123   6.193   5.219  0.5924  0.7445  0.2040
20408SOL    HW163603   2.162   6.114   5.256 -0.0325  0.2295 -0.2210
20408SOL    HW263604   2.158   6.197   5.130 -0.8659 -0.1508 -0.4577
20409SOL     OW63605   3.276   0.829   5.390  0.5335  0.3277  0.2776
20409SOL    HW163606   3.330   0.751   5.388 -0.6827 -0.5490  0.7474
20409SOL    HW263607   3.210   0.812   5.456 -2.3311 -0.0433 -2.4263
20410SOL     OW63608  10.000   8.716   8.400 -0.4977 -0.5519 -0.5316
20410SOL    HW163609   9.983   8.773   8.476  1.2561  0.5837 -0.9464
20410SOL    HW263610  10.011   8.629   8.438 -2.9605 -0.6503  0.1416
20411SOL     OW63611  10.370   8.296   4.424  0.1528 -0.2936  0.2270
20411SOL    HW163612  10.431   8.234   4.462  0.5925 -1.3084 -1.9494
20411SOL    HW263613  10.305   8.242   4.380 -1.5312  0.7838  1.2794
20412SOL     OW63614   9.313   4.666  10.397  0.3007 -0.2829 -0.2839
20412SOL    HW163615   9.340   4.666  10.488 -0.5897 -1.0011 -0.0032
20412SOL    HW263616   9.385   4.708  10.350  1.1140 -0.6112  0.6439
20413SOL     OW63617   2.056   9.492   2.472 -0.2504 -0.3833  0.4712
20413SOL    HW163618   1.972   9.537   2.461  0.4596  0.7563 -0.5350
20413SOL    HW263619   2.045   9.409   2.425 -1.1359 -0.6970  1.2116
20414SOL     OW63620   5.886   8.544   9.216  0.8318 -0.6725 -0.2095
20414SOL    HW163621   5.825   8.561   9.288  0.5495 -1.2844 -0.3030
20414SOL    HW263622   5.926   8.459   9.238  2.2323  0.0593  0.2551
20415SOL     OW63623   8.384   0.731   1.403  0.0657 -0.0909  0.3445
20415SOL    HW163624   8.309   0.773   1.444 -1.0680 -2.1757  0.5272
20415SOL    HW263625   8.397   0.651   1.452  1.9654 -0.1419 -0.1680
20416SOL     OW63626   2.114   3.719   4.811 -0.4766  0.2110 -0.0451
20416SOL    HW163627   2.172   3.665   4.757  0.9948  3.4598 -2.0417
20416SOL    HW263628   2.174   3.768   4.868 -1.4847  1.3411  0.0758
20417SOL     OW63629   9.396   4.042   0.818  0.4710  0.2012  0.6958
20417SOL    HW163630   9.470   4.031   0.879  0.8819  0.4716  0.2571
20417SOL    HW263631   9.365   3.953   0.802  0.3544  0.1284  1.3031
20418SOL     OW63632   5.270   8.180   7.790  0.7736  0.6958 -0.3557
20418SOL    HW163633   5.244   8.254   7.844  0.6699 -1.1098  2.2918
20418SOL    HW263634   5.366   8.179   7.794  0.7678  0.5916 -0.2175
20419SOL     OW63635   5.382   8.882   1.092 -1.0583 -0.4262 -0.1873
20419SOL    HW163636   5.294   8.916   1.106 -0.4809  0.8039  0.6450
20419SOL    HW263637   5.430   8.955   1.053 -0.1655 -0.7805  0.2313
20420SOL     OW63638   8.279   1.812   0.231 -0.2881  0.0759  0.0709
20420SOL    HW163639   8.211   1.878   0.236  0.4472  0.8093  0.6458
20420SOL    HW263640   8.242   1.744   0.174 -0.5509  1.5626 -1.6242
20421SOL     OW63641   9.999   0.414   9.278 -0.4835  0.6736  0.2451
20421SOL    HW163642   9.994   0.370   9.193 -1.3957  0.7382  0.2600
20421SOL    HW263643  10.091   0.407   9.303 -0.0713  1.2345 -1.0551
20422SOL     OW63644   9.788   2.058  10.631 -0.0324 -0.1875 -0.4174
20422SOL    HW163645   9.787   2.058  10.536  1.2094 -0.2173 -0.4490
20422SOL    HW263646   9.856   1.995  10.655 -0.3553 -0.2143  0.4946
20423SOL     OW63647   6.556   9.306   2.750  0.2424 -1.2354 -0.3693
20423SOL    HW163648   6.618   9.336   2.817 -0.9221  1.8301 -0.4891
20423SOL    HW263649   6.611   9.285   2.674  1.2916 -0.8634  0.2698
20424SOL     OW63650   9.163   5.849   9.643  0.3558 -0.0125  0.6195
20424SOL    HW163651   9.122   5.783   9.699  3.3478 -1.0221  1.8401
20424SOL    HW263652   9.248   5.865   9.685  0.4978  3.2964 -0.6724
20425SOL     OW63653   6.583   8.269   9.060 -0.2820  0.1117 -0.1469
20425SOL    HW163654   6.537   8.352   9.044 -0.8110 -0.4610 -1.7913
20425SOL    HW263655   6.637   8.256   8.982 -0.1876 -1.0841  0.1021
20426SOL     OW63656  10.235   9.409   6.221 -0.1020 -0.0344 -0.3341
20426SOL    HW163657  10.280   9.327   6.200 -0.3641 -0.2972  0.1241
20426SOL    HW263658  10.160   9.411   6.161 -1.3129 -1.1817  1.0637
20427SOL     OW63659   5.022   0.352   7.015  0.0404 -0.2115  0.5803
20427SOL    HW163660   5.041   0.307   6.933 -2.2090  3.2769 -2.1854
20427SOL    HW263661   4.935   0.321   7.040 -0.9695  1.4336 -0.6472
20428SOL     OW63662   4.084   2.148   4.848 -0.4672  0.1357 -0.2434
20428SOL    HW163663   4.098   2.183   4.936  0.4800  0.7917 -0.6402
20428SOL    HW263664   4.163   2.098   4.830  1.0168  2.8915 -2.0678
20429SOL     OW63665   9.612   1.322   4.370  0.3215  0.1861  0.1696
20429SOL    HW163666   9.557   1.312   4.292 -1.1534  0.2005  1.1747
20429SOL    HW263667   9.701   1.307   4.338 -0.1125  1.2447 -1.7324
20430SOL     OW63668   9.676   6.337   2.812 -0.2459 -0.3801 -0.6631
20430SOL    HW163669   9.659   6.414   2.758 -0.3815  0.2452  0.2525
20430SOL    HW263670   9.751   6.294   2.770 -0.5845 -0.1135 -1.5517
20431SOL     OW63671   2.131   6.077   1.429  0.3478  0.4925  0.1288
20431SOL    HW163672   2.146   6.095   1.337  1.3740 -2.3199 -0.3502
20431SOL    HW263673   2.172   6.150   1.475 -0.8998  2.3751 -1.6022
20432SOL     OW63674   3.315   4.657   0.712  0.0414  1.2783  0.2046
20432SOL    HW163675   3.364   4.737   0.695 -0.7376  1.5548 -0.8748
20432SOL    HW263676   3.362   4.614   0.783  2.0404  1.3451 -1.0116
20433SOL     OW63677   6.211   4.680   9.985  0.3375 -0.2726 -0.4230
20433SOL    HW163678   6.154   4.605   9.971  1.0826 -0.8773 -0.2874
20433SOL    HW263679   6.289   4.644  10.028  0.3592  0.7012  0.4017
20434SOL     OW63680   3.966   4.431   2.591 -0.2955 -0.1965 -0.6323
20434SOL    HW163681   3.949   4.410   2.499  0.6102 -3.4663 -0.1697
20434SOL    HW263682   3.880   4.431   2.632 -0.6044  0.2470 -1.2602
20435SOL     OW63683   2.613   7.379   5.508 -0.2035  0.0275  0.1361
20435SOL    HW163684   2.638   7.345   5.594 -0.1314  0.3564  0.2476
20435SOL    HW263685   2.527   7.420   5.522 -1.0602 -1.5103 -0.3442
20436SOL     OW63686   9.225   3.335   1.735 -0.0972  0.5907  0.2543
20436SOL    HW163687   9.293   3.401   1.737 -0.9363  1.5141  3.1991
20436SOL    HW263688   9.148   3.378   1.773 -0.8834 -1.8331  1.6198
20437SOL     OW63689   5.075   6.937   7.735  0.0244  0.1932 -0.1467
20437SOL    HW163690   5.169   6.944   7.752  0.5047  1.1708 -2.8113
20437SOL    HW263691   5.059   6.992   7.659 -2.7112 -0.0820  0.1092
20438SOL     OW63692   5.483   1.870   5.475  0.3152 -0.1431 -0.0803
20438SOL    HW163693   5.492   1.887   5.569 -0.4873 -0.0522 -0.0107
20438SOL    HW263694   5.395   1.834   5.466 -0.0835  1.0321 -0.9699
20439SOL     OW63695   9.529   3.243   1.419  0.4910 -0.2395 -0.1411
20439SOL    HW163696   9.448   3.210   1.381  0.1249  2.0057 -1.4770
20439SOL    HW263697   9.590   3.250   1.345  0.2758  2.7027 -0.1693
20440SOL     OW63698  10.668   7.021   5.448 -0.4805  0.1097 -0.2003
20440SOL    HW163699  10.609   7.082   5.405  0.5073  1.9220  0.8852
20440SOL    HW263700  10.721   6.984   5.378  1.9082  3.8582 -0.6462
20441SOL     OW63701   7.721   5.871   0.849 -0.4627  0.4160  0.7398
20441SOL    HW163702   7.747   5.953   0.891 -1.1228  0.2234  1.5734
20441SOL    HW263703   7.721   5.890   0.756  3.3109  0.2309  0.5602
20442SOL     OW63704   4.161   0.514   8.796  0.1433 -0.0752 -0.0729
20442SOL    HW163705   4.149   0.551   8.709  2.2665 -0.6370 -0.6760
20442SOL    HW263706   4.113   0.431   8.794  0.6473 -0.3570 -0.9335
20443SOL     OW63707   9.952  10.600   6.272  0.2989  0.8217  0.0600
20443SOL    HW163708   9.906  10.630   6.193  0.1066 -1.1273 -0.6330
20443SOL    HW263709   9.916  10.653   6.343 -1.4331  0.8636 -0.7950
20444SOL     OW63710   2.532   8.632   2.878 -0.3797  0.0989  0.1655
20444SOL    HW163711   2.521   8.617   2.784  1.1565 -2.7779  0.3400
20444SOL    HW263712   2.456   8.684   2.903  0.2355  2.8980 -2.9880
20445SOL     OW63713   4.248   7.307   8.696 -0.2824 -0.0570  0.1567
20445SOL    HW163714   4.255   7.311   8.600  0.7438 -0.6583  0.1941
20445SOL    HW263715   4.279   7.392   8.726  1.8268 -0.7270  0.0435
20446SOL     OW63716   7.816   5.575   2.244 -0.6504 -0.0645  0.0893
20446SOL    HW163717   7.789   5.662   2.272 -0.5694  0.9186 -2.6292
20446SOL    HW263718   7.833   5.584   2.151  2.5414 -2.2435  0.3333
20447SOL     OW63719   3.229   5.744   0.568 -0.4524  0.4376  0.3381
20447SOL    HW163720   3.274   5.711   0.490 -3.2385 -2.4111 -0.2460
20447SOL    HW263721   3.271   5.699   0.641 -0.2989  0.1906  0.0994
20448SOL     OW63722   4.802  10.792   6.629 -0.2962  0.5533 -0.1612
20448SOL    HW163723   4.832  10.717   6.577  3.9281  1.4155  0.6954
20448SOL    HW263724   4.789  10.757   6.717  1.1666  0.6509  0.1180
20449SOL     OW63725   6.798   9.759   2.975  0.4870  0.0677 -0.0179
20449SOL    HW163726   6.789   9.664   2.973 -1.1805  0.2131 -0.4212
20449SOL    HW263727   6.741   9.790   2.904 -0.4508  1.4642  1.2903
20450SOL     OW63728   7.874  10.589   3.593 -0.5286  0.4911 -0.1574
20450SOL    HW163729   7.902  10.521   3.654  0.0703  0.5772 -0.3271
20450SOL    HW263730   7.798  10.551   3.548 -1.6216  0.8243  1.3528
20451SOL     OW63731   6.821   1.492   9.708 -0.3411  0.0409  0.7475
20451SOL    HW163732   6.879   1.497   9.784  0.6804  3.0017 -0.0898
20451SOL    HW263733   6.734   1.507   9.744 -0.0296  0.1490  1.4821
20452SOL     OW63734   6.375   3.730   1.671  0.0162  0.3952  0.3655
20452SOL    HW163735   6.314   3.791   1.713  0.3711  0.3451  0.9736
20452SOL    HW263736   6.396   3.667   1.740  0.4898  0.2155  0.0591
20453SOL     OW63737   4.969   2.535   7.920 -0.0670 -0.1496  0.3182
20453SOL    HW163738   5.013   2.537   8.005  0.9491  2.3315 -0.1747
20453SOL    HW263739   4.896   2.595   7.930 -0.3798 -0.4107 -0.3690
20454SOL     OW63740   1.017   9.289   6.633 -0.2053 -0.3648  0.7566
20454SOL    HW163741   1.003   9.209   6.683 -0.2885 -0.3874  0.6981
20454SOL    HW263742   1.111   9.306   6.640  0.0728 -1.2706 -0.4410
20455SOL     OW63743   5.987   1.421   9.202 -0.0203 -0.5697  0.5587
20455SOL    HW163744   6.034   1.338   9.197 -0.8056 -1.0232  0.5235
20455SOL    HW263745   6.024   1.474   9.132 -0.4455 -1.3892 -0.3050
20456SOL     OW63746   8.160   5.808   2.031 -0.0080  0.5803  0.0383
20456SOL    HW163747   8.075   5.808   1.988  0.6658 -2.2078 -1.5120
20456SOL    HW263748   8.172   5.898   2.060 -2.9031  1.3455 -0.8076
20457SOL     OW63749  10.090   0.903   0.269 -0.1592 -0.4172 -0.1862
20457SOL    HW163750  10.119   0.940   0.185 -2.2973 -0.3506 -0.9712
20457SOL    HW263751  10.149   0.830   0.285 -0.5487 -1.3211 -2.4922
20458SOL     OW63752   9.757   8.998   3.807 -0.7388  0.2460  0.4433
20458SOL    HW163753   9.845   9.024   3.833 -0.5198 -0.7120  0.7259
20458SOL    HW263754   9.768   8.962   3.719 -0.8445  0.1669  0.4619
20459SOL     OW63755   9.809   4.851   2.055 -0.1452 -0.7806 -0.3322
20459SOL    HW163756   9.860   4.818   1.980 -0.1060  0.8409 -1.0519
20459SOL    HW263757   9.756   4.922   2.018 -1.5244 -1.1755  0.8061
20460SOL     OW63758   5.635   6.020   0.945  0.5079  0.1277 -0.6233
20460SOL    HW163759   5.552   5.993   0.985  1.5515  0.4042  1.9064
20460SOL    HW263760   5.642   6.113   0.965  1.7256 -0.0432 -0.2251
20461SOL     OW63761   5.638   3.457   3.893  0.0874  0.0494 -0.0162
20461SOL    HW163762   5.629   3.516   3.819 -0.1895 -0.3044 -0.2655
20461SOL    HW263763   5.556   3.467   3.942  0.4693  0.6503  0.5170
20462SOL     OW63764   7.159   0.650   1.695  0.0932  0.6979  0.2351
20462SOL    HW163765   7.244   0.670   1.735  0.0014  1.5356  0.0245
20462SOL    HW263766   7.109   0.731   1.702 -0.9197  0.0422  0.9029
20463SOL     OW63767   0.025   8.112   3.290  0.0451  0.4810  0.1182
20463SOL    HW163768   0.094   8.104   3.225  0.2126 -1.3407  0.4876
20463SOL    HW263769  -0.045   8.056   3.258 -0.8759  1.4932  0.2792
20464SOL     OW63770   6.226   2.478  10.243  0.1280 -0.4289 -0.3550
20464SOL    HW163771   6.300   2.506  10.189 -0.6944 -2.1014 -2.4941
20464SOL    HW263772   6.257   2.402  10.290 -0.0293 -0.7686 -0.7929
20465SOL     OW63773   6.205   7.896   8.889 -0.0144 -0.1031  0.3750
20465SOL    HW163774   6.167   7.871   8.973 -3.1239 -0.7173 -1.0713
20465SOL    HW263775   6.237   7.814   8.851  0.0236 -0.0706  0.3370
20466SOL     OW63776   5.801   4.356   7.412 -0.3157  0.2512 -0.3392
20466SOL    HW163777   5.875   4.307   7.447 -1.8207 -1.0888  1.1562
20466SOL    HW263778   5.741   4.289   7.378 -1.2807  1.2160 -0.6096
20467SOL     OW63779   9.092   3.231   6.674  0.1776 -0.2438 -0.0029
20467SOL    HW163780   8.999   3.225   6.697  0.5039 -0.5082  1.3269
20467SOL    HW263781   9.097   3.303   6.612 -1.1647 -1.3659 -1.5148
20468SOL     OW63782   9.143   4.955   6.753  0.5367 -0.1123  0.1215
20468SOL    HW163783   9.219   4.929   6.701 -0.8755 -1.9331 -1.1683
20468SOL    HW263784   9.180   4.993   6.833  2.8001  2.0562 -1.7698
20469SOL     OW63785   7.271   0.949   1.584  0.5622  0.3413 -0.0123
20469SOL    HW163786   7.199   0.934   1.645  1.3362  1.1711  1.1527
20469SOL    HW263787   7.238   1.014   1.522  0.6581  1.5837  1.1997
20470SOL     OW63788   2.908   7.367   7.235  0.2497  0.1391  0.1401
20470SOL    HW163789   2.837   7.336   7.179 -2.4883  1.3010  2.6942
20470SOL    HW263790   2.935   7.291   7.285  1.2312 -0.4123 -1.1585
20471SOL     OW63791   4.072   4.320   3.257  0.0295 -0.1208 -0.1809
20471SOL    HW163792   3.988   4.276   3.273 -0.8565  1.3476 -0.5772
20471SOL    HW263793   4.058   4.369   3.176  1.3868 -0.0733 -0.4108
20472SOL     OW63794   0.059   1.383   6.527  0.0288  0.0338 -0.5896
20472SOL    HW163795   0.149   1.391   6.497 -0.3446 -1.2988 -2.1765
20472SOL    HW263796   0.024   1.306   6.482 -1.0709 -1.2189  2.1403
20473SOL     OW63797   2.731   1.317   8.094 -0.1759  0.1451  0.5349
20473SOL    HW163798   2.763   1.236   8.135  0.7373  0.3602  0.2639
20473SOL    HW263799   2.649   1.335   8.140 -0.2337 -0.7583  0.8263
20474SOL     OW63800   2.306   4.946   4.089  0.1687 -0.3083  0.2441
20474SOL    HW163801   2.323   5.019   4.030 -0.4208  0.1824  0.6674
20474SOL    HW263802   2.392   4.914   4.114  0.5526 -2.3878 -3.0853
20475SOL     OW63803   5.836   8.667   8.867  0.5294  0.4597 -0.0565
20475SOL    HW163804   5.759   8.629   8.910  0.1137  0.1320 -1.0606
20475SOL    HW263805   5.812   8.672   8.775  2.2362 -0.9790 -0.6341
20476SOL     OW63806   2.681   4.873   8.950  0.3820 -0.0497  0.0247
20476SOL    HW163807   2.706   4.793   8.996  0.5370 -0.2430 -0.3852
20476SOL    HW263808   2.698   4.944   9.013 -0.0263 -0.3610  0.4909
20477SOL     OW63809   0.599   7.676   4.999  0.0858 -0.8459 -0.1606
20477SOL    HW163810   0.539   7.628   4.942  0.8300 -2.3214  0.2615
20477SOL    HW263811   0.545   7.746   5.037 -1.2041 -1.7289 -0.3095
20478SOL     OW63812   8.188   0.150   7.176  0.7017  0.6289 -0.0076
20478SOL    HW163813   8.151   0.064   7.156 -1.3123  1.2422  0.8039
20478SOL    HW263814   8.272   0.132   7.219  1.7030 -0.8241 -2.4227
20479SOL     OW63815   7.562   8.877   5.028  0.2567 -0.5247  0.1450
20479SOL    HW163816   7.555   8.809   4.961 -1.0670 -1.9761  1.6667
20479SOL    HW263817   7.639   8.854   5.079  1.2068  0.5254 -0.7428
20480SOL     OW63818   7.054   5.113   0.527  0.3760  0.3848  0.2200
20480SOL    HW163819   6.979   5.130   0.470 -0.5942 -0.1456  1.2955
20480SOL    HW263820   7.033   5.160   0.608  1.2468  0.2828  0.5128
20481SOL     OW63821   6.376   1.399  10.629 -0.0631 -0.1999  0.1031
20481SOL    HW163822   6.357   1.478  10.679  1.2393 -0.1490  0.5335
20481SOL    HW263823   6.323   1.331  10.671 -2.5295  0.6971 -1.2927
20482SOL     OW63824   4.542   4.352   3.801 -0.0747 -0.4771  0.1780
20482SOL    HW163825   4.603   4.426   3.810  0.8807 -1.2635  0.2676
20482SOL    HW263826   4.530   4.344   3.706  0.0132 -0.3653  0.1557
20483SOL     OW63827   6.402   9.115   1.150  0.3882  0.3083  0.0765
20483SOL    HW163828   6.467   9.075   1.093 -0.0178 -0.4293  0.1179
20483SOL    HW263829   6.447   9.128   1.233  0.5767  0.1142  0.0046
20484SOL     OW63830   0.654  10.107   5.200  0.3447  0.6283 -0.2222
20484SOL    HW163831   0.583  10.109   5.263 -0.6398 -0.9497 -1.1972
20484SOL    HW263832   0.728  10.070   5.249 -0.3428 -0.3860  0.0848
20485SOL     OW63833   6.352   3.282   3.232 -0.5159  1.0247 -0.1491
20485SOL    HW163834   6.411   3.235   3.291  0.2206  0.8438 -1.0135
20485SOL    HW263835   6.265   3.251   3.256 -0.1062 -0.1743 -0.1665
20486SOL     OW63836   2.069   7.899   6.318 -0.1627 -0.4952 -0.1981
20486SOL    HW163837   2.139   7.833   6.319  0.4109  0.1018  0.6855
20486SOL    HW263838   2.000   7.860   6.264  1.1866 -0.7423 -1.7947
20487SOL     OW63839   4.425   6.800   9.530 -0.0918 -0.1289  0.2092
20487SOL    HW163840   4.430   6.705   9.536 -1.2931 -0.1626  1.1396
20487SOL    HW263841   4.430   6.819   9.436 -1.9916 -1.2864 -0.1799
20488SOL     OW63842   0.144   9.454  10.781  0.4720 -0.5293  0.0119
20488SOL    HW163843   0.230   9.441  10.821  0.5428  0.0640  0.0547
20488SOL    HW263844   0.149   9.540  10.740 -0.4992  0.0315  1.0364
20489SOL     OW63845   9.649   6.476   1.687  0.1847 -0.2211 -0.7000
20489SOL    HW163846   9.681   6.446   1.772 -2.0855 -1.4483 -0.2027
20489SOL    HW263847   9.640   6.571   1.697  0.2204 -0.3123  0.3462
20490SOL     OW63848   7.003   0.252   3.446 -0.0632  0.0301 -0.1870
20490SOL    HW163849   6.935   0.206   3.397 -1.7248  1.6913  0.4482
20490SOL    HW263850   6.998   0.215   3.534  0.4442 -0.4017 -0.3290
20491SOL     OW63851   3.970   2.489  10.364 -0.6275  0.1025  0.3092
20491SOL    HW163852   4.046   2.534  10.403  0.5812 -0.5762 -1.1350
20491SOL    HW263853   3.981   2.397  10.390 -0.7309 -0.0624 -0.2197
20492SOL     OW63854   3.354  10.359   2.330  0.0583  0.4392  0.0952
20492SOL    HW163855   3.381  10.306   2.406 -0.3609  0.6261  0.3810
20492SOL    HW263856   3.394  10.315   2.255 -0.1480 -0.2020  0.3452
20493SOL     OW63857   6.686   3.591   6.445  0.3419 -0.2703 -0.0728
20493SOL    HW163858   6.595   3.562   6.434  0.7316 -1.1720 -1.1169
20493SOL    HW263859   6.713   3.553   6.529 -0.0620 -0.4779 -0.0329
20494SOL     OW63860   6.402   0.587   2.191 -0.4279  0.4727  0.0204
20494SOL    HW163861   6.420   0.541   2.109  1.9768  3.4373 -1.3142
20494SOL    HW263862   6.477   0.567   2.246 -0.2120  1.3808  0.0671
20495SOL     OW63863   9.710   3.062   3.641  0.5148  0.1853  0.0974
20495SOL    HW163864   9.761   3.077   3.721 -2.3001  0.3975  2.0198
20495SOL    HW263865   9.648   2.993   3.665 -0.7558  0.6142 -1.7209
20496SOL     OW63866   2.420   0.967   4.464 -0.2873  0.2010  0.8578
20496SOL    HW163867   2.358   0.960   4.536  0.5358  0.5894  1.6289
20496SOL    HW263868   2.442   1.060   4.460 -1.6398  0.4917 -1.0577
20497SOL     OW63869   7.362   8.253   2.317 -0.6801 -0.0017 -0.0104
20497SOL    HW163870   7.324   8.299   2.392 -1.8868 -0.2827 -0.4208
20497SOL    HW263871   7.312   8.171   2.312 -0.5801 -0.0076 -1.0812
20498SOL     OW63872   7.736   8.470   9.716 -0.1589  0.5138 -0.6013
20498SOL    HW163873   7.697   8.400   9.768 -0.4344 -0.5632 -2.1902
20498SOL    HW263874   7.689   8.468   9.633  0.9996  1.4480 -1.3158
20499SOL     OW63875  10.766   8.614   1.735 -0.3062 -0.2839 -0.0708
20499SOL    HW163876  10.700   8.544   1.741  0.7143 -1.3791 -0.9960
20499SOL    HW263877  10.756   8.649   1.647 -1.0428  1.0206  0.5035
20500SOL     OW63878   7.301   7.864   0.882  0.3822  0.0798  0.1232
20500SOL    HW163879   7.393   7.878   0.860  0.3264 -0.7717 -0.7058
20500SOL    HW263880   7.262   7.952   0.878  0.6115  0.1421 -2.2300
20501SOL     OW63881   3.565   3.158   9.583 -0.0021  0.5462  0.2531
20501SOL    HW163882   3.649   3.169   9.539 -0.5744  1.7698 -0.5800
20501SOL    HW263883   3.586   3.109   9.662  1.3123 -0.1893 -0.5149
20502SOL     OW63884   0.185   2.973   1.452  0.0039 -0.2162 -0.2400
20502SOL    HW163885   0.152   3.032   1.384 -1.0760 -0.3902  0.1157
20502SOL    HW263886   0.273   3.006   1.472 -0.8325  1.7138  0.4504
20503SOL     OW63887  10.566   2.471   7.538 -0.7272 -0.7041  0.1067
20503SOL    HW163888  10.504   2.543   7.528 -1.0010 -0.7742  1.1719
20503SOL    HW263889  10.573   2.458   7.633  3.1650  1.2532  0.2743
20504SOL     OW63890   5.066   4.733   3.348  0.8345  0.5084  0.5801
20504SOL    HW163891   5.037   4.802   3.408 -0.6839  0.0341  0.4283
20504SOL    HW263892   5.027   4.653   3.382 -1.5381  0.4538 -1.9067
20505SOL     OW63893   6.212   4.351   1.618  0.6053 -0.1717 -0.1373
20505SOL    HW163894   6.176   4.360   1.706 -2.0847  1.2271 -1.2702
20505SOL    HW263895   6.172   4.422   1.568  1.4440 -1.3653 -2.6933
20506SOL     OW63896   0.928   9.842   4.494  0.0980  0.2565  0.2040
20506SOL    HW163897   1.010   9.792   4.490 -1.0690 -1.7074 -1.1870
20506SOL    HW263898   0.928   9.894   4.414 -0.6213 -0.8920 -0.5863
20507SOL     OW63899   1.940   8.617   0.094 -0.0851 -0.6980  0.6200
20507SOL    HW163900   1.866   8.580   0.046 -0.4244  0.4997  0.2040
20507SOL    HW263901   1.977   8.683   0.035  0.9861 -0.8978  1.0407
20508SOL     OW63902   2.453   9.557   9.603 -0.2717 -0.5486 -0.6241
20508SOL    HW163903   2.494   9.562   9.689 -3.0419  0.5875  0.7306
20508SOL    HW263904   2.377   9.500   9.615  0.2518 -1.8331 -2.8004
20509SOL     OW63905   4.772   3.822   3.104  0.2264  0.0310 -0.4300
20509SOL    HW163906   4.729   3.896   3.059  0.3434  1.6354  1.9232
20509SOL    HW263907   4.736   3.744   3.061 -1.7102  1.3977 -1.4716
20510SOL     OW63908   7.272   5.755   7.725  0.1508 -0.3378 -0.0207
20510SOL    HW163909   7.363   5.783   7.712 -0.0095  0.4846  0.5391
20510SOL    HW263910   7.274   5.704   7.806 -0.0089  0.3384  0.4174
20511SOL     OW63911   1.653   8.966   6.800 -0.2390  0.2095 -0.5776
20511SOL    HW163912   1.595   9.033   6.764 -0.6787  0.0278 -0.2184
20511SOL    HW263913   1.622   8.884   6.761 -1.7568 -0.2210  1.3831
20512SOL     OW63914   1.257   0.284   6.673  0.1958 -0.0510  0.3087
20512SOL    HW163915   1.174   0.321   6.705  0.6812  2.2412 -0.8798
20512SOL    HW263916   1.321   0.305   6.742  0.3693  0.9431 -0.1391
20513SOL     OW63917   0.699   2.754   4.042  0.1767  0.4739  0.2193
20513SOL    HW163918   0.710   2.702   3.963  1.7943  1.1529 -0.0475
20513SOL    HW263919   0.724   2.695   4.114 -0.3353  0.1547  0.1330
20514SOL     OW63920   0.019   9.036  10.467  0.4706  0.1858 -0.4927
20514SOL    HW163921   0.034   9.126  10.497 -0.1441  0.0844  0.1455
20514SOL    HW263922   0.003   8.987  10.548  0.3856 -0.4162 -0.8734
20515SOL     OW63923   3.105   1.410   6.525 -0.2302 -0.6060  0.0342
20515SOL    HW163924   3.110   1.332   6.469 -1.2706  0.5433 -1.7661
20515SOL    HW263925   3.085   1.481   6.465 -0.3698  0.8924  1.7745
20516SOL     OW63926  10.455   3.823   9.425 -0.5260 -0.6225  0.0939
20516SOL    HW163927  10.490   3.908   9.453 -1.4705 -0.7468  1.7527
20516SOL    HW263928  10.408   3.790   9.501  1.1526 -3.4042  0.0613
20517SOL     OW63929   9.468   8.008   1.664 -0.7295 -0.0697  0.0434
20517SOL    HW163930   9.376   8.001   1.636 -1.3433  1.6404  1.4317
20517SOL    HW263931   9.516   8.031   1.585 -1.5813 -0.4347 -0.5906
20518SOL     OW63932   5.650   4.931   8.003  0.7929  0.2882  0.0714
20518SOL    HW163933   5.678   4.840   8.006  1.0983  0.4023  1.9454
20518SOL    HW263934   5.695   4.968   7.928  0.8015 -1.0533 -0.6128
20519SOL     OW63935   0.215   2.154   2.132 -0.3885 -0.5534 -0.5849
20519SOL    HW163936   0.138   2.142   2.075 -1.3364  0.3625  0.4601
20519SOL    HW263937   0.184   2.128   2.219  0.9525 -1.6105 -0.3942
20520SOL     OW63938   5.787   2.775   6.547  0.1456  0.4882  0.6482
20520SOL    HW163939   5.808   2.791   6.639 -2.2837 -0.4701  1.4575
20520SOL    HW263940   5.700   2.814   6.535  0.1904  0.1244 -1.1084
20521SOL     OW63941   1.142   6.974   3.547 -0.1092 -0.4206 -0.3500
20521SOL    HW163942   1.164   7.066   3.530 -0.3320 -0.4928 -1.0343
20521SOL    HW263943   1.075   6.953   3.482  0.9959 -1.5101 -1.1723
20522SOL     OW63944   5.789   8.120   4.584 -0.3375 -0.4476  0.4015
20522SOL    HW163945   5.852   8.164   4.641 -1.2326 -0.9875  1.8524
20522SOL    HW263946   5.840   8.050   4.542  0.2723 -0.2110  0.7243
20523SOL     OW63947   6.252   1.047   8.444  0.3581  0.7908  0.6361
20523SOL    HW163948   6.257   1.100   8.364  0.7927  1.1026  0.8643
20523SOL    HW263949   6.286   1.104   8.513  1.4926 -0.0071  0.7686
20524SOL     OW63950   8.221   1.161   6.757  0.3249 -0.0294  0.5646
20524SOL    HW163951   8.230   1.171   6.662  0.9499  1.3384  0.7504
20524SOL    HW263952   8.290   1.099   6.781 -0.9162 -1.7309 -0.0690
20525SOL     OW63953   6.758   0.086   2.481  0.1563  0.8638 -0.1536
20525SOL    HW163954   6.786   0.143   2.409 -1.2937  2.0584  0.1808
20525SOL    HW263955   6.840   0.054   2.518  0.9557  0.7385 -1.9055
20526SOL     OW63956   0.238   8.322   8.721  0.3344 -0.2460  0.2284
20526SOL    HW163957   0.164   8.286   8.770 -0.8991  1.7214 -0.0516
20526SOL    HW263958   0.312   8.317   8.782 -0.6837  0.2617  1.5690
20527SOL     OW63959   5.565   7.134   0.391 -0.3657 -0.4875  0.0326
20527SOL    HW163960   5.531   7.151   0.480  0.0585  0.2177  0.0655
20527SOL    HW263961   5.536   7.209   0.340  1.9170  0.6218  0.2760
20528SOL     OW63962   0.940   6.279   4.196 -0.2824  0.2698  0.8595
20528SOL    HW163963   0.888   6.200   4.180 -0.2426  0.0751  1.6485
20528SOL    HW263964   1.002   6.283   4.123  0.6411 -1.1898  1.5425
20529SOL     OW63965   9.212   9.511  10.050 -0.5952  0.2153 -0.5776
20529SOL    HW163966   9.216   9.462   9.968  0.4811 -4.1690  1.7598
20529SOL    HW263967   9.301   9.508  10.084 -1.3343  0.3980  1.5151
20530SOL     OW63968   3.376   0.784  10.454 -0.2747 -0.5276  0.3489
20530SOL    HW163969   3.435   0.789  10.529  0.4937 -2.4652 -0.0473
20530SOL    HW263970   3.350   0.692  10.451 -1.0407 -0.2978 -1.2003
20531SOL     OW63971  10.703   2.992   0.048 -0.2508 -0.3160 -0.1013
20531SOL    HW163972  10.628   3.023   0.099 -1.6503  0.1280 -2.2577
20531SOL    HW263973  10.707   2.898   0.066 -0.1627 -0.0344  1.4340
20532SOL     OW63974   0.769  10.710   1.934  0.2577 -0.3859  0.4345
20532SOL    HW163975   0.717  10.705   1.854 -0.2985 -1.1128  0.8225
20532SOL    HW263976   0.856  10.737   1.905 -0.3359  0.9234 -0.2230
20533SOL     OW63977   3.625   7.246   9.192  1.0860 -0.9756  0.0104
20533SOL    HW163978   3.706   7.292   9.214  0.8675 -0.0757 -0.9532
20533SOL    HW263979   3.568   7.314   9.156  0.1575 -1.7213  0.0332
20534SOL     OW63980   7.987   9.435   0.781  0.1765  0.3483  0.1228
20534SOL    HW163981   7.931   9.423   0.704 -0.7972  1.2140  0.6594
20534SOL    HW263982   8.076   9.423   0.748 -0.2658 -0.0840 -0.9687
20535SOL     OW63983  10.764   6.597   3.961  0.4499  0.2649  0.1728
20535SOL    HW163984  10.812   6.565   4.037 -0.2491  0.8722  0.8893
20535SOL    HW263985  10.752   6.519   3.906  1.3820 -0.0821  0.4417
20536SOL     OW63986   3.850   2.692   5.487  0.3151 -0.2198 -0.5043
20536SOL    HW163987   3.925   2.732   5.444  0.0266  2.7472  1.4554
20536SOL    HW263988   3.887   2.622   5.541  1.0934 -1.4470 -2.5371
20537SOL     OW63989   6.191   8.514   0.282 -0.1649  0.1084 -0.0029
20537SOL    HW163990   6.155   8.457   0.350 -1.1573  0.1452 -0.4762
20537SOL    HW263991   6.258   8.565   0.328 -0.3116 -0.3757  0.7795
20538SOL     OW63992   8.090   3.349   9.158  0.0174  0.0285 -0.0375
20538SOL    HW163993   8.129   3.383   9.239 -0.3622  0.5252 -0.0595
20538SOL    HW263994   8.009   3.307   9.186  0.0956 -0.1739 -0.1100
20539SOL     OW63995  10.302   2.716  10.564 -0.2398 -0.7164  0.1435
20539SOL    HW163996  10.249   2.704  10.643  1.0035 -0.3918  1.0664
20539SOL    HW263997  10.335   2.628  10.544 -1.4671 -1.0043 -0.7107
20540SOL     OW63998   3.758   4.990   3.643  0.0829 -0.4876  0.1099
20540SOL    HW163999   3.692   4.939   3.595  1.4143 -1.9741 -0.2351
20540SOL    HW264000   3.826   5.009   3.577  1.9870 -2.6215  1.2929
20541SOL     OW64001   3.924   5.700   7.172 -0.0114  0.1289  0.0544
20541SOL    HW164002   3.962   5.780   7.209  3.1697 -0.3608 -1.7521
20541SOL    HW264003   3.934   5.634   7.241 -2.0228  1.0452  1.3013
20542SOL     OW64004   4.728   5.685   9.828  0.8396  0.0683 -0.1150
20542SOL    HW164005   4.706   5.608   9.776  0.0713  1.6445 -2.2529
20542SOL    HW264006   4.646   5.712   9.869  0.6017  0.9781 -1.1465
20543SOL     OW64007   7.823   0.337   1.379 -1.0231  0.2539  0.3095
20543SOL    HW164008   7.783   0.277   1.315 -0.4936  0.6112 -0.3689
20543SOL    HW264009   7.777   0.318   1.461  0.7678 -2.8259  0.7398
20544SOL     OW64010   1.278   4.551   1.863  0.2362 -0.2049 -0.2965
20544SOL    HW164011   1.296   4.516   1.951 -1.3478  0.8768  0.5151
20544SOL    HW264012   1.235   4.478   1.817  0.3988 -0.5394  0.0703
20545SOL     OW64013  10.579   9.731   9.328 -0.6615  0.3341 -0.0438
20545SOL    HW164014  10.673   9.714   9.325 -0.3129  1.6327  1.9110
20545SOL    HW264015  10.569   9.817   9.288 -1.2027 -0.3023 -1.3294
20546SOL     OW64016   4.355   5.452   5.912 -0.1175 -0.8444  0.3790
20546SOL    HW164017   4.407   5.521   5.954 -1.6655  2.6033 -2.8622
20546SOL    HW264018   4.264   5.474   5.932 -0.6622 -2.3576 -0.2454
20547SOL     OW64019  10.573   9.678   3.656 -0.5499  0.8175 -0.7845
20547SOL    HW164020  10.657   9.720   3.637  0.0751 -0.7163 -1.5516
20547SOL    HW264021  10.587   9.585   3.637 -3.0477  0.8014 -3.2740
20548SOL     OW64022   8.045   3.791   2.602 -0.4622 -0.1450  0.0999
20548SOL    HW164023   8.094   3.867   2.569  2.7927 -1.7011  0.8892
20548SOL    HW264024   8.030   3.737   2.524  0.0449 -0.1119 -0.0306
20549SOL     OW64025   2.507   1.908   5.506  0.4694 -0.4205 -0.1061
20549SOL    HW164026   2.438   1.844   5.523  0.3499  0.0659  1.3573
20549SOL    HW264027   2.460   1.987   5.479  0.5936 -0.7800 -1.4382
20550SOL     OW64028   6.663   2.920   0.546 -0.2013 -0.2290 -0.5378
20550SOL    HW164029   6.754   2.926   0.576 -0.6720  0.7155  0.8545
20550SOL    HW264030   6.616   2.882   0.621 -0.7204 -2.2359 -1.8233
20551SOL     OW64031   4.128  10.594   1.079  0.2486 -0.5518  0.1890
20551SOL    HW164032   4.090  10.646   1.009 -1.0793 -0.7185  0.7671
20551SOL    HW264033   4.220  10.623   1.082  0.2880 -0.3924 -1.4460
20552SOL     OW64034   7.731  10.789   4.836 -0.0125 -0.3736 -0.1716
20552SOL    HW164035   7.643  10.777   4.801 -0.5426 -0.6257  1.2011
20552SOL    HW264036   7.731  10.740   4.918  2.4550 -3.2955 -1.6856
20553SOL     OW64037   2.718  10.144   2.908  0.0874  0.7849 -0.2568
20553SOL    HW164038   2.666  10.219   2.878 -0.8385 -0.2259 -1.2821
20553SOL    HW264039   2.722  10.086   2.832  1.4588  0.1498  0.2795
20554SOL     OW64040   4.387   2.859   4.938 -0.2546 -0.0506 -0.0973
20554SOL    HW164041   4.303   2.849   4.893  0.4140  1.1140 -1.7251
20554SOL    HW264042   4.453   2.852   4.869  0.9937 -0.6951  1.1002
20555SOL     OW64043  10.681   7.999   7.378 -0.0554  0.0584 -0.2139
20555SOL    HW164044  10.720   8.046   7.451 -1.5456  0.7669  0.1668
20555SOL    HW264045  10.587   8.008   7.391 -0.3615 -0.7312 -1.6344
20556SOL     OW64046   8.577   5.836   7.870 -0.3256  0.1009  0.2501
20556SOL    HW164047   8.516   5.893   7.916  0.5592 -0.4969  2.2987
20556SOL    HW264048   8.635   5.803   7.939  0.0630 -2.1735 -1.0672
20557SOL     OW64049   1.380   8.688   0.145  0.2606 -0.3145 -0.0845
20557SOL    HW164050   1.455   8.632   0.162  0.7142  0.2371 -0.2362
20557SOL    HW264051   1.351   8.665   0.057 -0.6049 -1.4848  0.4734
20558SOL     OW64052   0.609  10.049   4.915 -0.5539 -0.4976  0.4324
20558SOL    HW164053   0.539  10.036   4.979 -0.5763 -1.0968  0.2890
20558SOL    HW264054   0.689  10.052   4.969 -0.5075 -1.6272  0.4459
20559SOL     OW64055   0.720   4.238   8.764  0.7710 -0.4908 -0.2189
20559SOL    HW164056   0.671   4.156   8.770  0.1063 -0.0380  0.8790
20559SOL    HW264057   0.787   4.221   8.698  1.3596 -2.2932  0.7730
20560SOL     OW64058   2.904   8.842   6.006 -0.6074 -0.1236 -0.5109
20560SOL    HW164059   2.850   8.775   6.047 -0.0157 -1.0965 -1.3012
20560SOL    HW264060   2.921   8.810   5.918  1.9923 -0.3026 -0.0232
20561SOL     OW64061   4.091   9.151   6.306 -0.5521  0.0429  0.1615
20561SOL    HW164062   4.174   9.105   6.320 -0.9460 -1.5210 -2.0679
20561SOL    HW264063   4.117   9.231   6.259  0.1374  2.3775  4.0826
20562SOL     OW64064   9.491   2.702   0.169  0.0641 -0.1354 -0.3073
20562SOL    HW164065   9.435   2.633   0.133 -0.4905  0.7430 -1.2101
20562SOL    HW264066   9.433   2.751   0.228  0.3452 -0.2245  0.0392
20563SOL     OW64067   5.948   4.098   3.357  0.1833 -0.5873 -0.0609
20563SOL    HW164068   6.035   4.062   3.376  0.1948 -0.7425 -0.4077
20563SOL    HW264069   5.895   4.021   3.338  0.5458 -0.3588 -2.2426
20564SOL     OW64070   1.376   7.793   6.580  0.1992  0.3366  0.0055
20564SOL    HW164071   1.466   7.776   6.552  0.6770  0.8978  1.1228
20564SOL    HW264072   1.385   7.817   6.672 -1.2271 -0.7806  0.4627
20565SOL     OW64073   7.703   1.865   0.644  0.4136  0.2987  0.2174
20565SOL    HW164074   7.705   1.769   0.638 -1.8438  0.2721 -2.5543
20565SOL    HW264075   7.611   1.885   0.662  1.1397  2.0051  2.5307
20566SOL     OW64076   9.131   0.205   2.226 -0.1493 -0.5503  0.5159
20566SOL    HW164077   9.041   0.187   2.254 -1.1942  1.9291 -0.9259
20566SOL    HW264078   9.140   0.300   2.234  2.2390 -0.7010  0.2721
20567SOL     OW64079  10.272   2.572   3.008  0.1055  0.1054 -0.5469
20567SOL    HW164080  10.270   2.609   3.096  2.3836 -1.7226  0.3416
20567SOL    HW264081  10.281   2.649   2.951  2.3824  1.1525  1.0690
20568SOL     OW64082   1.273   5.607   5.686 -0.4301 -0.3118 -0.4098
20568SOL    HW164083   1.180   5.610   5.664 -0.0827  0.1824 -1.9697
20568SOL    HW264084   1.281   5.653   5.769 -1.7859 -1.8388  0.6267
20569SOL     OW64085   8.664   1.647  10.306 -0.1367  0.4360  0.1796
20569SOL    HW164086   8.619   1.619  10.227 -0.0448 -0.0307  0.2836
20569SOL    HW264087   8.723   1.574  10.326  0.9025  1.1708 -0.1420
20570SOL     OW64088   2.017   2.051  10.675 -0.1354  0.8016  0.3365
20570SOL    HW164089   2.074   2.100  10.616  1.6146  0.2412  1.4818
20570SOL    HW264090   1.961   2.000  10.617  0.7183  1.1686 -0.8503
20571SOL     OW64091   4.428   2.871   3.787 -0.4524  0.4335 -0.0711
20571SOL    HW164092   4.349   2.841   3.743 -0.4334  1.8958 -1.2074
20571SOL    HW264093   4.419   2.842   3.878 -1.0221 -1.7088 -0.7558
20572SOL     OW64094   3.909   0.411   9.039 -0.2864  0.0036  0.0396
20572SOL    HW164095   3.869   0.324   9.032 -1.3493  0.5166 -0.4866
20572SOL    HW264096   3.851   0.468   8.990  0.8237  0.8888 -0.2998
20573SOL     OW64097   6.031   0.948   7.951  0.3514  0.1562 -0.5452
20573SOL    HW164098   6.039   1.026   7.896  1.4107  0.8491  0.5489
20573SOL    HW264099   6.071   0.878   7.899  3.0140  1.1592 -0.0155
20574SOL     OW64100   8.855   6.529   1.560  0.0541 -0.1375  0.2099
20574SOL    HW164101   8.769   6.520   1.602 -0.4752 -0.2934 -0.8613
20574SOL    HW264102   8.843   6.490   1.473  1.0829  0.2632 -0.1271
20575SOL     OW64103   7.814   9.835  10.735  0.0608  0.4326  0.1281
20575SOL    HW164104   7.762   9.908  10.701  0.6529  2.5439  3.3303
20575SOL    HW264105   7.904   9.869  10.737  0.2636 -0.1048  2.2413
20576SOL     OW64106   3.037   1.044   7.895  0.1477 -0.0649  0.0359
20576SOL    HW164107   3.036   1.125   7.946 -0.6397 -1.0009  1.5744
20576SOL    HW264108   2.990   1.066   7.815 -0.0060  1.0051  0.3997
20577SOL     OW64109   5.447   6.868   5.981 -0.0846  0.6239  0.0785
20577SOL    HW164110   5.375   6.845   5.922  1.6008 -2.7053 -0.9066
20577SOL    HW264111   5.473   6.956   5.954 -0.7612  0.0515 -2.7221
20578SOL     OW64112   6.423   8.972   5.657  0.0723 -0.4045 -0.1468
20578SOL    HW164113   6.460   9.035   5.596  0.6657 -1.6865 -1.1666
20578SOL    HW264114   6.466   8.991   5.741  1.2265 -0.2963 -0.7401
20579SOL     OW64115   3.655  10.711  10.551 -0.3606 -0.3763 -0.2839
20579SOL    HW164116   3.646  10.806  10.542 -1.4823 -0.5426 -1.1700
20579SOL    HW264117   3.681  10.698  10.642  1.6248  0.8733 -0.6192
20580SOL     OW64118   8.307   8.345   8.784 -0.6407 -0.1965  0.7383
20580SOL    HW164119   8.296   8.303   8.699  1.2727 -0.9613  0.8062
20580SOL    HW264120   8.395   8.319   8.812 -0.2247  2.1113  1.7892
20581SOL     OW64121   6.180   6.002   8.264  0.4029  0.3377 -0.4141
20581SOL    HW164122   6.090   6.016   8.234  0.2164 -1.6925 -0.9378
20581SOL    HW264123   6.202   6.083   8.310 -1.0471  1.6144 -1.8018
20582SOL     OW64124   5.982   7.770   7.899  0.6438 -0.7073 -0.1140
20582SOL    HW164125   6.008   7.688   7.943 -0.3597 -1.7580 -1.4136
20582SOL    HW264126   6.063   7.822   7.897  1.7287 -2.3350 -0.6876
20583SOL     OW64127   2.160   8.314   4.812  0.0417 -0.8356 -0.1079
20583SOL    HW164128   2.137   8.335   4.722 -1.6570 -0.0467  0.4513
20583SOL    HW264129   2.248   8.278   4.807  2.0388  3.5232 -1.5665
20584SOL     OW64130  10.736   4.901   6.288 -0.1505  0.0206 -0.2698
20584SOL    HW164131  10.721   4.881   6.195  0.8276  1.2703 -0.7317
20584SOL    HW264132  10.665   4.857   6.334 -0.7634 -0.4701 -1.6323
20585SOL     OW64133  10.351   8.583   8.563  0.1853 -0.5021  0.3657
20585SOL    HW164134  10.263   8.545   8.568  0.0352 -0.0547  1.3021
20585SOL    HW264135  10.380   8.589   8.654  0.6786  0.5225  0.1574
20586SOL     OW64136   0.216   9.148   8.259  0.4170 -0.4954 -0.0489
20586SOL    HW164137   0.227   9.053   8.261 -0.6239 -0.6122  1.1333
20586SOL    HW264138   0.243   9.176   8.347  1.3875  0.3919 -0.6161
20587SOL     OW64139   8.031   4.294   3.680 -0.4502 -0.1940  0.1959
20587SOL    HW164140   8.084   4.253   3.611 -0.9812  0.1132 -0.4112
20587SOL    HW264141   7.973   4.225   3.710 -1.6301  0.1834 -1.1136
20588SOL     OW64142   1.329   4.040   2.755  0.0921  0.1613 -0.8481
20588SOL    HW164143   1.262   4.083   2.808  0.0013 -0.3988 -0.4955
20588SOL    HW264144   1.334   4.092   2.676  1.8671  2.4037  0.6181
20589SOL     OW64145   4.309   1.899   1.689  0.4678 -0.0054 -0.6214
20589SOL    HW164146   4.369   1.953   1.639  0.7031 -1.5719 -2.1414
20589SOL    HW264147   4.315   1.812   1.648 -1.8357 -0.5406  0.0098
20590SOL     OW64148   4.750   3.807   9.224  0.5163 -0.0459  0.6774
20590SOL    HW164149   4.770   3.742   9.157 -0.7549 -0.2480  0.4613
20590SOL    HW264150   4.760   3.760   9.307 -0.3709 -0.5458  0.5234
20591SOL     OW64151   5.556   0.005   8.826  0.2825  0.2199  0.1546
20591SOL    HW164152   5.554  -0.019   8.919 -0.4939 -0.5291 -0.0422
20591SOL    HW264153   5.474   0.053   8.812 -0.7329 -1.6436 -0.6271
20592SOL     OW64154   6.349   6.554   8.177  0.0564  0.4389 -0.2076
20592SOL    HW164155   6.306   6.469   8.188  0.3002  0.4270  0.7889
20592SOL    HW264156   6.356   6.566   8.082 -0.4081 -0.4334 -0.3607
20593SOL     OW64157   8.754   3.716   0.642 -0.1381 -0.0267 -0.2649
20593SOL    HW164158   8.663   3.744   0.656 -0.6728  0.0861 -3.4030
20593SOL    HW264159   8.747   3.644   0.579  1.9846  0.2037 -0.8189
20594SOL     OW64160   4.029   9.450   9.626 -0.0136 -0.0008  0.6545
20594SOL    HW164161   4.007   9.467   9.534 -1.2550 -2.1541  0.4937
20594SOL    HW264162   3.946   9.454   9.672  0.5851  0.9604  1.7010
20595SOL     OW64163   6.127   6.101  10.440  0.1700  0.2889 -0.0052
20595SOL    HW164164   6.124   6.013  10.402 -0.0359  0.4642 -0.4056
20595SOL    HW264165   6.110   6.160  10.366  0.4567  0.6738  0.2283
20596SOL     OW64166   7.823   4.025   4.143 -0.2157  0.4039 -0.4314
20596SOL    HW164167   7.839   4.053   4.233  0.4603 -1.1028 -0.0564
20596SOL    HW264168   7.728   4.019   4.136 -0.2471 -1.0688  0.7261
20597SOL     OW64169   0.296   0.806   8.965 -0.3232  0.4360 -0.1102
20597SOL    HW164170   0.239   0.846   9.031 -1.4105 -1.4618  0.1812
20597SOL    HW264171   0.248   0.818   8.883 -0.2107  0.5474 -0.1587
20598SOL     OW64172   9.013  10.231   1.514  0.2352 -0.0493  0.0113
20598SOL    HW164173   9.104  10.238   1.483  0.1426 -0.4742 -0.3617
20598SOL    HW264174   8.985  10.144   1.488 -0.4831  0.3019 -0.4250
20599SOL     OW64175   3.681   0.548   8.948 -0.6043  0.1899  0.6938
20599SOL    HW164176   3.674   0.483   9.018 -1.6837 -0.5012 -0.0339
20599SOL    HW264177   3.591   0.563   8.920 -0.0470 -2.2617 -3.0159
20600SOL     OW64178  10.614   0.043   4.460  0.0609 -0.0633 -0.4660
20600SOL    HW164179  10.540  -0.007   4.424  0.2657  0.6659 -1.9817
20600SOL    HW264180  10.675   0.051   4.387 -0.1636  2.7718 -0.4669
20601SOL     OW64181   2.715   8.422   5.754  0.3740  0.6209 -0.0744
20601SOL    HW164182   2.691   8.473   5.677 -0.0699  0.9799  0.2947
20601SOL    HW264183   2.655   8.346   5.752 -1.4435  1.9184  1.2798
20602SOL     OW64184   9.449   1.104   3.178  0.8852 -0.2470 -0.5330
20602SOL    HW164185   9.393   1.068   3.110  0.0857 -0.2686  0.1165
20602SOL    HW264186   9.516   1.036   3.191  0.6035 -0.5762 -0.7674
20603SOL     OW64187   1.659   6.710   4.020  0.6705  0.7853 -0.0987
20603SOL    HW164188   1.601   6.699   4.095  1.1379 -0.6172  0.0874
20603SOL    HW264189   1.633   6.793   3.981 -0.8702  0.5984  0.4818
20604SOL     OW64190   3.716   8.359   0.613 -0.0187 -0.1687 -0.1047
20604SOL    HW164191   3.680   8.409   0.540  1.0593  1.4787  0.4353
20604SOL    HW264192   3.788   8.413   0.646 -0.0953 -1.1474  1.8027
20605SOL     OW64193   4.895   6.838   7.207  0.0300  0.4265 -0.1643
20605SOL    HW164194   4.832   6.793   7.263  0.4097  0.5913  0.4088
20605SOL    HW264195   4.879   6.931   7.224  1.4179  0.4640  1.1431
20606SOL     OW64196   1.240   9.632   7.208  0.5812  0.1062 -0.3467
20606SOL    HW164197   1.172   9.571   7.239  0.1948  0.3280 -0.7511
20606SOL    HW264198   1.197   9.682   7.139  1.5583 -0.6590 -1.5276
20607SOL     OW64199   0.262   3.015  10.133 -0.0533 -0.2327 -0.3494
20607SOL    HW164200   0.176   3.039  10.098 -0.2702 -0.0735  0.2978
20607SOL    HW264201   0.270   2.922  10.112  0.0041 -0.0469 -1.2059
20608SOL     OW64202   2.762   3.211   5.055 -0.0922 -0.3786  0.0023
20608SOL    HW164203   2.743   3.245   5.143  0.6345  0.9089 -0.3100
20608SOL    HW264204   2.726   3.123   5.056 -0.5749 -0.2061  1.4216
20609SOL     OW64205   1.169  10.701   8.270  0.2829  0.7118  0.3652
20609SOL    HW164206   1.138  10.647   8.197 -1.5348  1.1243  0.7850
20609SOL    HW264207   1.249  10.657   8.300 -0.8106 -1.4175  0.3156
20610SOL     OW64208   3.098   6.069  10.608  0.1703 -0.2343  0.4678
20610SOL    HW164209   3.187   6.103  10.598  0.3041 -0.4745  0.8553
20610SOL    HW264210   3.104   6.004  10.678 -0.5017  0.4835  1.2177
20611SOL     OW64211   9.622   2.952   6.268  0.6064 -0.0087 -0.4717
20611SOL    HW164212   9.635   2.857   6.266 -2.2924 -0.4833 -1.4478
20611SOL    HW264213   9.550   2.964   6.330 -0.3239  1.3337 -1.7619
20612SOL     OW64214  10.017   4.350   3.360  0.2349 -0.0158  0.4722
20612SOL    HW164215   9.968   4.421   3.401  0.9789  0.7772  0.0172
20612SOL    HW264216  10.085   4.327   3.424  0.2348 -0.0573  0.4577
20613SOL     OW64217   9.389   5.248   0.484  0.6957 -0.4007  0.6358
20613SOL    HW164218   9.395   5.195   0.564  0.4510 -2.2712 -0.5120
20613SOL    HW264219   9.469   5.227   0.435  0.1322 -0.4764 -0.2772
20614SOL     OW64220   2.115   3.689   2.566  0.1085  0.1720  0.7814
20614SOL    HW164221   2.066   3.654   2.641 -1.0945 -1.9140 -0.8761
20614SOL    HW264222   2.055   3.752   2.525  0.0186 -0.0976  0.4971
20615SOL     OW64223   1.504   3.885   6.422  0.2720  0.0323  0.3997
20615SOL    HW164224   1.543   3.898   6.508  0.3256  0.6307  0.2865
20615SOL    HW264225   1.413   3.862   6.440  0.6213 -1.2362  0.6591
20616SOL     OW64226   6.411   6.899   3.805  0.2704  0.0451 -0.8627
20616SOL    HW164227   6.408   6.987   3.766 -0.2883 -0.1202 -1.2007
20616SOL    HW264228   6.330   6.857   3.775  1.1518 -1.0410 -1.7673
20617SOL     OW64229   6.131   5.563   9.566  0.3933 -0.2637  0.1888
20617SOL    HW164230   6.077   5.641   9.580  1.3385  0.5739 -0.6361
20617SOL    HW264231   6.075   5.505   9.514  0.7012  1.1890 -1.9167
20618SOL     OW64232   1.879  10.669   6.838 -0.1939  0.0710 -0.1173
20618SOL    HW164233   1.831  10.654   6.757 -0.8924 -1.3433  0.5099
20618SOL    HW264234   1.953  10.608   6.834  2.6826  3.3027 -1.8075
20619SOL     OW64235   4.866   0.424   9.728 -0.4308  0.1479 -0.2994
20619SOL    HW164236   4.778   0.456   9.706 -0.0473  1.7313  0.2977
20619SOL    HW264237   4.877   0.447   9.820  1.1544  1.3494 -0.7468
20620SOL     OW64238   9.955   2.240  10.061  0.4257 -0.7859 -0.0963
20620SOL    HW164239  10.023   2.300  10.092  0.0675 -0.5312  0.1994
20620SOL    HW264240   9.872   2.285  10.080  0.1433 -1.4736  0.3426
20621SOL     OW64241   3.917   7.041   5.018 -0.5512  0.1606  0.2695
20621SOL    HW164242   3.904   7.114   4.957 -1.6770  0.1472  0.4759
20621SOL    HW264243   3.995   7.066   5.068  0.3815  0.1901 -1.1260
20622SOL     OW64244   3.786   0.222   9.393  0.2185 -0.2716  0.2655
20622SOL    HW164245   3.831   0.300   9.424  0.7715 -0.7727  0.7406
20622SOL    HW264246   3.856   0.164   9.363 -0.1726 -0.6652  0.1009
20623SOL     OW64247   0.279   7.864   9.487 -0.1770  0.2633  0.2518
20623SOL    HW164248   0.220   7.854   9.413 -1.2204  0.2348  1.0640
20623SOL    HW264249   0.289   7.775   9.522 -0.1635  0.3599  0.4990
20624SOL     OW64250   5.294   2.006   2.186  0.3855 -0.0701 -0.2432
20624SOL    HW164251   5.298   2.081   2.246  1.0570 -0.7274  0.5546
20624SOL    HW264252   5.359   1.944   2.220  1.4126 -0.1165 -2.1416
20625SOL     OW64253   8.212   9.130   0.529 -0.4614  0.1807  0.3387
20625SOL    HW164254   8.268   9.058   0.500 -1.5336 -1.0591  1.2408
20625SOL    HW264255   8.241   9.205   0.476  1.3956 -0.6229  0.1180
20626SOL     OW64256   0.049   0.449   3.937  0.4474  0.3368  0.1986
20626SOL    HW164257   0.047   0.507   3.861  0.5028  0.6435  0.4256
20626SOL    HW264258   0.075   0.364   3.902  1.5101  0.7154  0.0190
20627SOL     OW64259   8.066   2.889   3.106  0.1886  0.1955  0.0824
20627SOL    HW164260   8.002   2.843   3.160  1.7278 -1.5514  0.5417
20627SOL    HW264261   8.051   2.855   3.018  1.9907 -2.1734  0.5764
20628SOL     OW64262   7.924   0.645   5.319  0.2941  0.7656  0.2563
20628SOL    HW164263   7.942   0.577   5.254  0.1850  0.2948  0.7089
20628SOL    HW264264   7.838   0.621   5.354  0.4919  0.8403  0.7907
20629SOL     OW64265   3.376   8.696   7.848  0.2934 -0.6473  0.2985
20629SOL    HW164266   3.411   8.768   7.901 -1.1469  0.5044 -0.2410
20629SOL    HW264267   3.349   8.630   7.912 -0.4532  0.2723  0.9545
20630SOL     OW64268   4.457   8.591   8.425  0.3541 -0.0079 -0.0358
20630SOL    HW164269   4.541   8.545   8.433  0.6548  0.3339 -1.0519
20630SOL    HW264270   4.398   8.526   8.387  0.4386  0.0566 -0.2803
20631SOL     OW64271  10.145   3.339   4.722  0.2961  0.1126  0.1378
20631SOL    HW164272  10.191   3.399   4.781  1.0304  0.4069 -0.7225
20631SOL    HW264273  10.214   3.297   4.671 -0.3677  1.7289 -2.3082
20632SOL     OW64274   2.180   7.948   3.367 -0.5631 -0.3582  0.1319
20632SOL    HW164275   2.274   7.947   3.349 -0.8240 -1.3511 -1.2915
20632SOL    HW264276   2.170   7.891   3.443 -0.2346 -2.1342 -1.0936
20633SOL     OW64277   6.037   0.057   9.739  0.2866  0.0102 -0.3890
20633SOL    HW164278   6.011   0.136   9.786  0.0988 -0.5957  0.5535
20633SOL    HW264279   6.005  -0.015   9.794  3.2137 -0.7889  0.4721
20634SOL     OW64280   1.847  10.016   4.510  0.0749  0.0208  0.6708
20634SOL    HW164281   1.897  10.097   4.504  1.3799 -0.5700  2.5914
20634SOL    HW264282   1.879   9.963   4.437 -1.1169  1.3384 -0.8846
20635SOL     OW64283   8.205   8.057  10.144  0.0789  0.1531 -0.6653
20635SOL    HW164284   8.245   7.993  10.084  0.7504  1.3082 -1.4968
20635SOL    HW264285   8.121   8.078  10.103 -0.1162 -0.1626 -0.4235
20636SOL     OW64286   9.320   4.186   3.204 -0.0010  0.6591 -0.3567
20636SOL    HW164287   9.286   4.230   3.126  0.8757  0.7351 -0.7078
20636SOL    HW264288   9.410   4.217   3.212  0.1198  0.1564  0.3216
20637SOL     OW64289   4.621   8.286   3.774  0.3728  0.1842  0.5461
20637SOL    HW164290   4.609   8.225   3.701  2.7775 -0.2630  0.4368
20637SOL    HW264291   4.715   8.305   3.774 -0.1290  3.0815  1.2711
20638SOL     OW64292  10.014   6.602   9.047  0.0427 -0.1804 -0.0692
20638SOL    HW164293   9.956   6.642   9.111 -0.2209  1.3107 -1.1755
20638SOL    HW264294  10.057   6.531   9.094 -0.2842  0.7382  1.6960
20639SOL     OW64295   4.719   9.347   1.081 -0.6412  0.3995  0.7439
20639SOL    HW164296   4.658   9.397   1.136 -0.4240 -1.6542  3.0290
20639SOL    HW264297   4.662   9.294   1.025 -1.0699 -0.9477  2.3437
20640SOL     OW64298   5.481   8.825   3.390 -0.3611  0.1653  0.0438
20640SOL    HW164299   5.451   8.757   3.450  0.9399  0.8401  1.5385
20640SOL    HW264300   5.452   8.907   3.429 -1.3291  0.5499 -1.3853
20641SOL     OW64301   5.503   1.647   6.071  0.1219 -0.2024 -0.4519
20641SOL    HW164302   5.469   1.619   5.985 -0.5763 -2.7071  0.5422
20641SOL    HW264303   5.595   1.622   6.069  0.4009  0.8222 -0.8724
20642SOL     OW64304   8.693   5.816   8.212 -0.2417  0.2683  0.4159
20642SOL    HW164305   8.720   5.753   8.144 -0.0189  1.0382 -0.2241
20642SOL    HW264306   8.600   5.796   8.226 -0.0273 -0.5994  0.6604
20643SOL     OW64307   7.810   2.891   9.218  0.0967  0.2551 -0.4193
20643SOL    HW164308   7.734   2.938   9.182  0.8031  1.0664 -0.8726
20643SOL    HW264309   7.812   2.917   9.310 -1.9872 -2.1772  0.4459
20644SOL     OW64310   0.731   9.550   9.749  0.0034  0.6777  0.0624
20644SOL    HW164311   0.699   9.506   9.671 -1.9639  2.5106 -0.2433
20644SOL    HW264312   0.654   9.561   9.804  0.8613  1.7357  1.1192
20645SOL     OW64313   6.113   0.744   9.629  0.1701  0.2388 -0.1671
20645SOL    HW164314   6.031   0.711   9.592 -0.5114 -0.0628  1.5601
20645SOL    HW264315   6.170   0.667   9.635 -0.3271 -0.0489  0.9844
20646SOL     OW64316   5.291  10.505   9.150  0.0174  0.0307 -0.2549
20646SOL    HW164317   5.253  10.573   9.205  0.3181 -1.2200  1.6183
20646SOL    HW264318   5.227  10.491   9.081  0.6225  3.2042 -1.6375
20647SOL     OW64319   3.530   3.388   5.772 -0.0918  0.2440 -0.3868
20647SOL    HW164320   3.487   3.349   5.696  1.1787 -0.1714 -0.9189
20647SOL    HW264321   3.490   3.345   5.847  0.9993 -1.8959 -0.9470
20648SOL     OW64322   8.770   4.600   6.350  0.3460  0.1028  0.0456
20648SOL    HW164323   8.703   4.615   6.284  1.4140  0.0382 -1.0781
20648SOL    HW264324   8.746   4.517   6.390 -0.7670  0.5408  0.3353
20649SOL     OW64325   5.390   7.246   5.548  0.5354 -0.2858  0.1494
20649SOL    HW164326   5.339   7.322   5.520  1.3889 -0.0585 -0.8622
20649SOL    HW264327   5.347   7.172   5.506  0.0474 -0.3136  0.6734
20650SOL     OW64328   7.786   2.202   3.926  0.8005  0.1679 -0.0561
20650SOL    HW164329   7.775   2.219   3.832  1.5648 -2.3614 -0.6662
20650SOL    HW264330   7.727   2.265   3.968  0.7239  1.6426 -2.1769
20651SOL     OW64331   8.655   0.633   3.430 -0.3409 -0.0309  0.8474
20651SOL    HW164332   8.731   0.587   3.395 -0.7277  0.4458 -0.6699
20651SOL    HW264333   8.687   0.674   3.511  1.0196  0.1648  0.2389
20652SOL     OW64334   6.313   0.285   7.277 -0.2310 -0.1687 -0.0792
20652SOL    HW164335   6.221   0.294   7.255 -0.0052  1.1432 -0.5816
20652SOL    HW264336   6.335   0.194   7.256 -1.5158 -0.6430  0.5372
20653SOL     OW64337   0.691   2.324   2.362  0.3714  0.3305  0.9133
20653SOL    HW164338   0.775   2.369   2.349  0.7285  0.2895  2.7767
20653SOL    HW264339   0.710   2.258   2.429 -0.9086 -0.4152  0.5594
20654SOL     OW64340   8.486   3.301   1.236  0.3370 -0.3778 -0.6051
20654SOL    HW164341   8.546   3.337   1.300  0.4053 -2.1133  0.3781
20654SOL    HW264342   8.527   3.219   1.207 -1.8283 -2.0323  0.6951
20655SOL     OW64343   0.491  10.353   5.166  0.7935 -0.4298 -0.7405
20655SOL    HW164344   0.523  10.422   5.109 -0.1744 -0.3983 -1.2736
20655SOL    HW264345   0.554  10.282   5.158  0.9696 -0.2006 -1.3984
20656SOL     OW64346   1.959   5.304   4.764  0.2722  0.2221  0.4107
20656SOL    HW164347   1.901   5.291   4.689  0.9117  0.4446 -0.1369
20656SOL    HW264348   2.047   5.285   4.729  0.5308 -0.0910  1.2149
20657SOL     OW64349   0.427   6.463   5.487  0.3228  0.0945 -0.7003
20657SOL    HW164350   0.448   6.417   5.569  0.8185 -0.5905 -1.2043
20657SOL    HW264351   0.363   6.529   5.513 -0.3941 -0.8635  0.0592
20658SOL     OW64352   6.908   2.310   4.347  0.1619 -0.3782  0.1163
20658SOL    HW164353   6.884   2.338   4.259  1.0543 -1.8797 -0.6438
20658SOL    HW264354   6.848   2.239   4.367  0.6640 -0.7731  0.2588
20659SOL     OW64355   8.625   3.798   0.253  0.1770  0.0656  0.1093
20659SOL    HW164356   8.624   3.889   0.282  0.3419  1.0541 -2.6839
20659SOL    HW264357   8.547   3.759   0.294 -2.9793  2.9108 -2.5360
20660SOL     OW64358   2.406   4.122   8.065  0.0373  0.1540 -0.6416
20660SOL    HW164359   2.332   4.076   8.104  0.4164  1.5410  1.9244
20660SOL    HW264360   2.385   4.215   8.074  1.3509  0.5591 -1.4074
20661SOL     OW64361   8.012  10.073   5.058  0.3666 -0.3508 -0.1999
20661SOL    HW164362   7.964  10.154   5.075 -0.7522 -0.9048 -0.6377
20661SOL    HW264363   8.026  10.035   5.145 -1.3785 -0.9428 -0.1399
20662SOL     OW64364   2.588   4.856   0.555 -0.1824 -0.2406 -0.0891
20662SOL    HW164365   2.545   4.913   0.618 -0.4799 -0.6752  0.1060
20662SOL    HW264366   2.681   4.876   0.563 -0.3557  0.8888 -0.6927
20663SOL     OW64367   9.018   2.046   5.777  0.0589 -0.6243 -0.0374
20663SOL    HW164368   8.973   2.036   5.860  0.5384  0.2842  0.3519
20663SOL    HW264369   8.950   2.029   5.711 -0.1491 -2.0875  0.5096
20664SOL     OW64370   5.273   3.997   1.222  0.2619  0.0299  0.0533
20664SOL    HW164371   5.366   4.006   1.202  0.5824 -1.4576  0.7835
20664SOL    HW264372   5.238   3.946   1.149 -0.1308  1.0649 -0.5129
20665SOL     OW64373  10.053   6.559   1.823  0.9063 -0.4531  0.3058
20665SOL    HW164374  10.023   6.615   1.895  0.1636 -0.6277  0.1344
20665SOL    HW264375  10.092   6.620   1.760 -1.1434  0.0825 -0.5324
20666SOL     OW64376   8.201   6.647   4.814 -0.9772 -0.3092 -0.1581
20666SOL    HW164377   8.204   6.732   4.770 -2.5190 -0.4706 -0.6408
20666SOL    HW264378   8.241   6.662   4.899 -2.1292  1.1743  0.1709
20667SOL     OW64379  10.222  10.549   3.654 -0.1221 -0.5213  0.6121
20667SOL    HW164380  10.270  10.477   3.695 -0.0979 -1.7041 -1.3773
20667SOL    HW264381  10.254  10.552   3.564  0.3245  2.4395  0.7895
20668SOL     OW64382   2.811   4.090   7.881  0.8272  0.4217 -0.3063
20668SOL    HW164383   2.902   4.093   7.851  0.4386  0.0361 -1.5738
20668SOL    HW264384   2.763   4.142   7.816  0.4103  2.4361  1.4923
20669SOL     OW64385   3.460   7.188   2.791  0.1426 -0.0617  0.3589
20669SOL    HW164386   3.542   7.153   2.824  0.4076  1.2004  1.1164
20669SOL    HW264387   3.392   7.140   2.839  0.4033 -1.3775 -0.5465
20670SOL     OW64388   0.891   8.344   6.031  0.1790  0.0266 -0.3348
20670SOL    HW164389   0.802   8.351   6.067  0.5116  1.5584  0.2613
20670SOL    HW264390   0.935   8.424   6.060  2.7691 -2.0900  2.1025
20671SOL     OW64391   9.511   4.153   8.494 -0.2048 -0.1199 -0.1976
20671SOL    HW164392   9.544   4.071   8.456  0.3239 -1.8385  3.5636
20671SOL    HW264393   9.422   4.160   8.460  0.8970 -0.2110 -3.4319
20672SOL     OW64394   7.000   3.216   2.617 -0.1367 -0.6826  0.0389
20672SOL    HW164395   6.986   3.207   2.711 -0.7390 -2.2608 -0.1746
20672SOL    HW264396   7.088   3.181   2.602 -0.2436 -0.9183 -0.0458
20673SOL     OW64397   3.189   1.402   4.102  0.0460 -0.1682 -0.3287
20673SOL    HW164398   3.197   1.407   4.198  0.9050  1.7160 -0.4730
20673SOL    HW264399   3.255   1.338   4.076 -0.2732 -0.7837  0.3324
20674SOL     OW64400   2.530   7.128   9.814  0.1725  0.1631 -0.1977
20674SOL    HW164401   2.606   7.099   9.764  1.3825 -0.4628  1.8586
20674SOL    HW264402   2.560   7.128   9.905 -3.2257 -3.4187  1.2024
20675SOL     OW64403   8.912   4.277   1.804 -0.1417 -0.4127  0.1826
20675SOL    HW164404   8.863   4.359   1.805  0.4437 -0.0173  2.7048
20675SOL    HW264405   8.848   4.211   1.779 -0.8423  0.6531 -0.9612
20676SOL     OW64406   4.574   8.707   6.039 -0.2071 -0.0162  0.2640
20676SOL    HW164407   4.589   8.797   6.011 -1.2980  0.0034 -0.2872
20676SOL    HW264408   4.499   8.713   6.098 -0.7487 -0.6504 -0.3462
20677SOL     OW64409   8.353   1.975   6.634  0.4300  0.9534 -0.2295
20677SOL    HW164410   8.349   1.935   6.547  0.2811  0.4779 -0.0111
20677SOL    HW264411   8.352   2.069   6.618 -1.6356  0.9186 -0.6901
20678SOL     OW64412   1.781   2.010   5.840  0.1701 -0.2551  0.3533
20678SOL    HW164413   1.728   1.993   5.762 -0.1294 -0.1901  0.5398
20678SOL    HW264414   1.834   1.932   5.851 -0.7416 -0.8352  0.8438
20679SOL     OW64415  10.416   3.773   8.469  0.0808  0.1229 -0.1487
20679SOL    HW164416  10.379   3.732   8.548  1.0773 -0.2440  0.1394
20679SOL    HW264417  10.439   3.862   8.498 -0.5058  0.3264 -0.3076
20680SOL     OW64418   8.094   0.121   9.923 -0.6476 -0.1726 -0.3628
20680SOL    HW164419   8.136   0.046   9.966  3.0102  2.0718  0.4046
20680SOL    HW264420   8.037   0.082   9.857  0.7362 -3.6137  0.2535
20681SOL     OW64421   6.041   8.987   8.944  0.3928 -0.4758  0.6444
20681SOL    HW164422   6.036   8.892   8.952  0.2038 -0.7527 -1.8311
20681SOL    HW264423   5.956   9.012   8.906  0.9652  0.5015 -0.0375
20682SOL     OW64424   0.722   8.346   1.625  0.3868 -0.1922 -0.9966
20682SOL    HW164425   0.751   8.418   1.569  0.9551 -0.8868 -1.6301
20682SOL    HW264426   0.742   8.375   1.714  4.2196 -1.0447 -1.4050
20683SOL     OW64427   4.210   9.036   4.766  0.2303 -0.0489 -0.3027
20683SOL    HW164428   4.192   8.969   4.700  1.7397 -0.5176 -0.2873
20683SOL    HW264429   4.146   9.020   4.835  0.8653 -1.8208 -0.0739
20684SOL     OW64430   6.623   5.231   9.878 -0.2735 -0.2169 -0.2575
20684SOL    HW164431   6.704   5.247   9.928 -0.6873  1.7679 -0.1270
20684SOL    HW264432   6.579   5.316   9.877 -1.5931 -0.8741 -1.7140
20685SOL     OW64433   0.877   7.107   7.199 -0.2639  0.1809 -0.0143
20685SOL    HW164434   0.909   7.195   7.218  1.0675 -0.3404  0.2239
20685SOL    HW264435   0.955   7.057   7.174 -1.0636 -0.8153 -0.6312
20686SOL     OW64436   2.620  10.541   6.746 -0.6328 -0.0153  0.3093
20686SOL    HW164437   2.528  10.563   6.760 -0.4066  1.2794 -0.0604
20686SOL    HW264438   2.651  10.511   6.832 -1.2750  0.0237  0.5581
20687SOL     OW64439   2.575   1.452   3.018 -0.3321 -0.3471  0.6512
20687SOL    HW164440   2.647   1.403   3.056 -0.5432 -1.4146 -0.2852
20687SOL    HW264441   2.506   1.449   3.085  0.4074  0.5773  1.4962
20688SOL     OW64442   5.271   6.306   1.916  0.9836  0.0337 -0.4966
20688SOL    HW164443   5.236   6.249   1.984  1.0304 -0.9547 -1.2858
20688SOL    HW264444   5.194   6.342   1.872  0.9450 -0.5299 -0.9012
20689SOL     OW64445   9.000   5.316   7.779  0.5355  0.3808  0.3707
20689SOL    HW164446   8.968   5.398   7.816  0.1978  0.4701 -0.1108
20689SOL    HW264447   9.078   5.341   7.729  0.2858  0.4501  0.0129
20690SOL     OW64448   8.999   3.376   7.547 -0.1869  0.1918  1.1514
20690SOL    HW164449   8.947   3.348   7.622 -2.5724  0.2079 -0.4010
20690SOL    HW264450   9.041   3.296   7.515 -3.0770 -0.8769 -0.3342
20691SOL     OW64451   1.919   0.771   8.184 -0.2250 -0.1714  0.1341
20691SOL    HW164452   1.854   0.832   8.219 -0.9374 -0.5930 -0.4260
20691SOL    HW264453   1.995   0.826   8.165 -0.7002  0.4703  0.0476
20692SOL     OW64454   6.771   3.133   4.283 -0.0851 -0.3851  0.0908
20692SOL    HW164455   6.709   3.064   4.303 -0.3628 -0.8058 -1.9916
20692SOL    HW264456   6.857   3.093   4.298 -0.1367  0.5147  4.0060
20693SOL     OW64457   7.267   9.813   9.761  0.0704 -0.4590 -0.5137
20693SOL    HW164458   7.263   9.863   9.842 -0.2153  2.3893 -2.1288
20693SOL    HW264459   7.292   9.725   9.787 -0.3293  0.2716  2.6520
20694SOL     OW64460   6.549   9.311   6.360 -0.5627  0.3999 -0.3418
20694SOL    HW164461   6.605   9.263   6.420  0.5766  0.2897 -1.4439
20694SOL    HW264462   6.460   9.289   6.386 -0.1189  0.5884  1.4676
20695SOL     OW64463   9.496   5.796   0.897 -0.1879 -0.0242 -0.0003
20695SOL    HW164464   9.563   5.865   0.895 -0.6686  0.5255  1.3165
20695SOL    HW264465   9.479   5.783   0.991 -1.5782 -0.4770 -0.2982
20696SOL     OW64466   6.336   2.591   6.416 -0.7889 -0.2735  0.1877
20696SOL    HW164467   6.318   2.655   6.347  1.5997 -0.9991 -1.2603
20696SOL    HW264468   6.299   2.509   6.383  2.4837 -1.2164 -1.6528
20697SOL     OW64469   4.094   6.804   6.033 -0.4375  0.4885  0.0830
20697SOL    HW164470   4.148   6.728   6.013 -0.7423  0.1360  0.5913
20697SOL    HW264471   4.156   6.868   6.069 -0.4236 -0.1052  1.1596
20698SOL     OW64472   9.914   6.437   5.299 -0.3251  0.2203  0.1193
20698SOL    HW164473  10.002   6.462   5.329 -0.4712  0.0118  0.7361
20698SOL    HW264474   9.913   6.341   5.309 -0.6911  0.2441  0.3114
20699SOL     OW64475   2.876   4.057   6.816 -0.3626 -0.2252  0.7736
20699SOL    HW164476   2.796   4.106   6.802  0.3058  0.8135  0.4661
20699SOL    HW264477   2.940   4.123   6.843  1.2405 -0.4680 -2.0687
20700SOL     OW64478   1.334   6.300  10.645  0.5271  0.0467 -0.3733
20700SOL    HW164479   1.296   6.213  10.633  0.1950 -0.1488  1.7671
20700SOL    HW264480   1.260   6.355  10.672  0.9981  0.6905 -0.3612
20701SOL     OW64481   2.096   7.900   8.160  0.0466  0.3330 -0.0982
20701SOL    HW164482   2.084   7.989   8.192 -1.7105  0.0505  0.1238
20701SOL    HW264483   2.183   7.875   8.191  0.2146  1.6524  0.5682
20702SOL     OW64484   0.900   1.811   2.206  0.7510  0.2767  0.2558
20702SOL    HW164485   0.981   1.762   2.220  0.4502 -0.0874  0.7506
20702SOL    HW264486   0.840   1.747   2.168  1.7272  1.3436 -3.5762
20703SOL     OW64487   8.109   5.824   2.852 -0.4838 -0.0309  0.7547
20703SOL    HW164488   8.153   5.744   2.824  0.2402  1.2403 -2.0234
20703SOL    HW264489   8.023   5.821   2.809 -0.8634  0.2453  1.4623
20704SOL     OW64490   0.042   1.324   8.101 -0.3593  0.3529  0.4480
20704SOL    HW164491  -0.005   1.329   8.017 -0.6815 -0.5555  0.5642
20704SOL    HW264492   0.095   1.245   8.093 -1.4871 -0.5708  1.6373
20705SOL     OW64493   1.312   8.959   6.647  0.1113  0.0489  0.4177
20705SOL    HW164494   1.359   9.042   6.636  0.5683 -0.3143 -0.4674
20705SOL    HW264495   1.297   8.952   6.741  1.4584  0.3796  0.6741
20706SOL     OW64496   5.256   4.012   9.948  0.7094  0.4606 -0.0794
20706SOL    HW164497   5.269   3.918   9.961 -1.1190  0.4072  1.8687
20706SOL    HW264498   5.182   4.018   9.888 -1.2103  0.5257  2.1374
20707SOL     OW64499  10.748   0.420   2.603  0.0855 -0.0804  0.2150
20707SOL    HW164500  10.698   0.345   2.636  0.4496 -0.4521 -0.0659
20707SOL    HW264501  10.785   0.461   2.681 -0.0913 -0.2089  0.3663
20708SOL     OW64502  10.412   2.440   3.734  0.0021  0.5216 -0.2445
20708SOL    HW164503  10.321   2.410   3.731  0.0213  0.5320 -1.3167
20708SOL    HW264504  10.456   2.378   3.792 -0.5895  0.2422 -0.0866
20709SOL     OW64505   8.930   0.586   6.214  0.5545 -0.2856 -0.8901
20709SOL    HW164506   9.016   0.575   6.175 -0.4870  1.4940 -4.0681
20709SOL    HW264507   8.875   0.522   6.167 -0.0829 -0.6598  0.3283
20710SOL     OW64508   6.133   0.301   8.673 -0.2157 -0.7262 -0.3694
20710SOL    HW164509   6.207   0.278   8.617 -0.2126 -0.1417 -0.6092
20710SOL    HW264510   6.163   0.281   8.762  0.0370 -0.9828 -0.5117
20711SOL     OW64511   5.540   5.609   4.410 -0.4129  0.4523 -0.0588
20711SOL    HW164512   5.449   5.617   4.381 -0.5598  0.8016  0.4922
20711SOL    HW264513   5.552   5.515   4.423 -0.7438  0.4171  0.0119
20712SOL     OW64514   1.905   3.868  10.792  0.0755 -0.0642 -0.3481
20712SOL    HW164515   1.993   3.902  10.806  0.8279 -1.9426 -0.2553
20712SOL    HW264516   1.892   3.804  10.862 -1.6322  0.6410  0.0272
20713SOL     OW64517   8.819   4.861   9.181  0.2187  0.2723 -0.4845
20713SOL    HW164518   8.737   4.832   9.221  1.3088  0.0903  1.7637
20713SOL    HW264519   8.872   4.892   9.255  2.6260 -0.7018 -1.7088
20714SOL     OW64520   6.767   9.357   0.917  0.2484 -0.0847 -0.2218
20714SOL    HW164521   6.811   9.325   0.995  0.7720  1.5811  0.1921
20714SOL    HW264522   6.695   9.411   0.950 -0.2372 -0.3021 -0.8929
20715SOL     OW64523   3.790   5.866   1.888  0.7273  0.0417 -0.1509
20715SOL    HW164524   3.720   5.806   1.914 -0.2790  1.2609  0.0335
20715SOL    HW264525   3.817   5.835   1.801 -1.4040  0.6849 -1.1009
20716SOL     OW64526   7.126   2.158   4.044  0.1799 -0.7287 -0.5645
20716SOL    HW164527   7.216   2.170   4.073 -0.4841 -0.0974  1.4091
20716SOL    HW264528   7.111   2.064   4.047  0.4457 -0.7514  0.2412
20717SOL     OW64529   5.273   0.800   3.409 -0.4343 -0.0610  0.7467
20717SOL    HW164530   5.335   0.845   3.353  0.1754 -2.1425 -0.3746
20717SOL    HW264531   5.194   0.854   3.406 -0.1913  0.2650 -1.6016
20718SOL     OW64532   5.731   2.864   6.110 -0.2715 -0.2701 -0.0535
20718SOL    HW164533   5.636   2.854   6.101 -0.3568  1.7258 -2.4483
20718SOL    HW264534   5.762   2.775   6.127 -2.5416 -0.9687  0.8701
20719SOL     OW64535   0.424   8.879   3.256 -0.4060 -0.1512  0.1122
20719SOL    HW164536   0.512   8.915   3.248 -1.1897  1.6609 -0.8324
20719SOL    HW264537   0.394   8.909   3.341 -0.7386  0.7568 -0.3111
20720SOL     OW64538  10.141  10.076   3.605  0.6111 -0.6460 -0.3364
20720SOL    HW164539  10.078  10.147   3.597  0.6873 -0.5005  0.2767
20720SOL    HW264540  10.226  10.120   3.613  0.7532 -0.8303 -0.7930
20721SOL     OW64541   1.831   8.581   0.934  0.1304  0.1338  0.2032
20721SOL    HW164542   1.876   8.497   0.923  0.9121  0.3472  1.4808
20721SOL    HW264543   1.883   8.644   0.885 -0.2945 -0.0704 -0.5189
20722SOL     OW64544   2.382   2.047   7.516  0.0918 -0.4852 -0.6607
20722SOL    HW164545   2.332   2.072   7.439  0.0020  0.1396 -0.4006
20722SOL    HW264546   2.463   2.099   7.510  0.4069 -0.9709 -0.7121
20723SOL     OW64547   9.535   4.167   2.324  0.0941 -0.3102 -0.3219
20723SOL    HW164548   9.486   4.090   2.352 -0.6380  0.3455  0.2296
20723SOL    HW264549   9.489   4.241   2.362  2.4173  0.2874  1.5910
20724SOL     OW64550   8.882   5.779   8.461 -0.0595 -0.4257  0.7537
20724SOL    HW164551   8.898   5.810   8.372 -0.4917 -0.0540  0.8047
20724SOL    HW264552   8.790   5.752   8.461 -0.4377  0.8167  1.4438
20725SOL     OW64553   1.665  10.386   2.963  0.1026 -0.0696 -0.0585
20725SOL    HW164554   1.581  10.421   2.993 -1.2131 -1.7421 -1.5797
20725SOL    HW264555   1.701  10.343   3.041 -1.1899 -0.6474  0.2584
20726SOL     OW64556   5.448   8.886   4.971 -0.0966  0.5533  0.7741
20726SOL    HW164557   5.483   8.921   4.889 -0.2104  1.3610  1.0542
20726SOL    HW264558   5.414   8.800   4.949 -1.4958  1.3536 -0.3854
20727SOL     OW64559   8.800   0.304   4.667 -0.3232  0.0368 -0.3248
20727SOL    HW164560   8.719   0.277   4.625 -0.7694  0.3760  0.3070
20727SOL    HW264561   8.806   0.398   4.650 -1.2145  0.4551  1.5054
20728SOL     OW64562   1.961   4.390   2.299  0.1104 -0.1957 -0.3677
20728SOL    HW164563   1.956   4.427   2.211  0.2400 -0.8705 -0.6639
20728SOL    HW264564   1.997   4.461   2.353 -0.8831  0.5443 -0.6567
20729SOL     OW64565   8.826   9.840   2.802 -0.4241  1.0031 -0.3972
20729SOL    HW164566   8.761   9.851   2.872 -0.2673 -0.3102 -0.0208
20729SOL    HW264567   8.871   9.924   2.799  0.1006  0.8553  1.6553
20730SOL     OW64568   2.214   0.267   2.032  0.7342 -0.1361 -0.3452
20730SOL    HW164569   2.215   0.189   2.087  1.1082  0.9437  1.2482
20730SOL    HW264570   2.300   0.307   2.046  1.6310 -0.7657 -3.2219
20731SOL     OW64571   1.521   9.329   0.177 -0.5020 -0.2355 -1.0216
20731SOL    HW164572   1.548   9.388   0.107 -1.2124 -0.6851 -1.6867
20731SOL    HW264573   1.573   9.357   0.253 -1.2380  1.6116 -1.1478
20732SOL     OW64574   2.756   5.585   0.351  0.2326  0.4570 -0.3459
20732SOL    HW164575   2.824   5.652   0.347  0.0425  0.6178 -1.0965
20732SOL    HW264576   2.742   5.570   0.444  0.6257  1.1101 -0.1763
20733SOL     OW64577   0.874   1.821   9.984  0.1821  0.5687  0.3725
20733SOL    HW164578   0.893   1.877   9.908 -0.4237  0.0350 -0.1841
20733SOL    HW264579   0.778   1.821   9.990  0.2340  1.1177  1.5400
20734SOL     OW64580   5.902   0.880   1.239 -0.0797 -0.3909 -0.3493
20734SOL    HW164581   5.918   0.808   1.178 -1.4490  0.0063 -1.2257
20734SOL    HW264582   5.814   0.862   1.274 -0.6003  1.0278 -0.8600
20735SOL     OW64583   0.331   8.023   4.203  0.9613  0.1857  0.0623
20735SOL    HW164584   0.412   8.003   4.155  0.3955  0.1957 -0.9320
20735SOL    HW264585   0.321   8.117   4.195  0.0828  0.0174 -1.1301
20736SOL     OW64586   2.059   3.541  10.588  0.3698  0.2782  0.2197
20736SOL    HW164587   2.076   3.454  10.552  0.7801  0.4826 -0.0883
20736SOL    HW264588   2.055   3.528  10.682  1.8688  0.1477  0.2831
20737SOL     OW64589   9.105   2.889   3.295  0.5702 -0.4356 -0.0750
20737SOL    HW164590   9.177   2.939   3.332 -0.1599  0.1602  0.5822
20737SOL    HW264591   9.140   2.851   3.215  1.0155  1.5255 -0.8517
20738SOL     OW64592   2.480   9.532   4.633  0.2179  0.3689 -0.2662
20738SOL    HW164593   2.522   9.520   4.718  1.4152  0.7249 -0.7829
20738SOL    HW264594   2.396   9.488   4.642  0.8374 -0.6991  0.6982
20739SOL     OW64595   7.352   9.403   1.346  0.2274  0.3440 -0.2401
20739SOL    HW164596   7.370   9.432   1.436  0.6990 -0.1755 -0.1617
20739SOL    HW264597   7.272   9.351   1.354 -0.3559  1.1913 -0.3069
20740SOL     OW64598   0.124   3.741   9.601  0.1252  0.0776 -0.5060
20740SOL    HW164599   0.062   3.703   9.539  1.5845 -1.0555 -1.3255
20740SOL    HW264600   0.069   3.779   9.669 -1.4835  0.0448 -1.7299
20741SOL     OW64601   8.160   3.550   2.729 -0.4059 -0.3181 -0.4673
20741SOL    HW164602   8.243   3.517   2.695 -0.9517 -1.3003 -0.8782
20741SOL    HW264603   8.142   3.628   2.676  1.4126  1.3414  1.2150
20742SOL     OW64604   4.689   3.373   8.249 -0.1911  0.1208  0.0636
20742SOL    HW164605   4.693   3.324   8.331 -0.9622  0.9294  0.6048
20742SOL    HW264606   4.773   3.418   8.244  0.3528 -0.9125 -0.2280
20743SOL     OW64607   2.762   7.489   4.464 -0.2389 -0.2671  0.0250
20743SOL    HW164608   2.764   7.581   4.438 -0.0898 -0.6281 -1.3084
20743SOL    HW264609   2.842   7.477   4.516  1.1315 -0.2005 -1.9247
20744SOL     OW64610  10.065   0.725   4.161  0.3505  0.2260 -0.7770
20744SOL    HW164611  10.079   0.818   4.146 -2.1189  0.6235 -1.1111
20744SOL    HW264612  10.106   0.682   4.086  1.7254  0.9948 -0.4914
20745SOL     OW64613   4.233   9.001   2.926  0.1844 -0.1625  0.1593
20745SOL    HW164614   4.318   9.004   2.971  0.3513 -0.8694 -0.0959
20745SOL    HW264615   4.180   9.067   2.971  2.1065  3.3358 -2.2236
20746SOL     OW64616   2.234   6.901   0.515 -0.0734  0.4218 -0.0125
20746SOL    HW164617   2.297   6.957   0.469  0.3322  0.2223  0.2945
20746SOL    HW264618   2.181   6.962   0.566 -1.0153  0.7183 -1.3022
20747SOL     OW64619   1.323   4.871   1.311  0.2537 -0.1135 -0.4870
20747SOL    HW164620   1.323   4.932   1.385  0.5040 -1.4078  0.6185
20747SOL    HW264621   1.239   4.826   1.317  0.6603 -0.8824 -0.4189
20748SOL     OW64622   4.018   7.800   2.334 -0.2209 -0.7217  0.3283
20748SOL    HW164623   3.996   7.870   2.396  0.4817  1.0510 -1.3148
20748SOL    HW264624   4.083   7.747   2.380  1.9221  1.7927  0.4849
20749SOL     OW64625   8.706   0.749   5.246  0.2351 -0.3070  0.2955
20749SOL    HW164626   8.622   0.756   5.291  0.2770 -1.6680  0.6384
20749SOL    HW264627   8.742   0.665   5.275  1.4795  0.0037 -0.2483
20750SOL     OW64628  10.032   9.441   6.029 -0.0127 -0.0146  0.1220
20750SOL    HW164629   9.955   9.414   6.078  0.5120 -1.2990  0.2767
20750SOL    HW264630  10.003   9.441   5.937  0.0193 -1.3503  0.0949
20751SOL     OW64631   4.369   3.594   9.696 -0.2977 -0.0928  0.1551
20751SOL    HW164632   4.421   3.578   9.775  0.7128 -1.6037 -0.7578
20751SOL    HW264633   4.406   3.534   9.631 -1.7513  0.4047 -1.1840
20752SOL     OW64634   4.813   2.979   8.882  0.5482 -0.2391 -0.1507
20752SOL    HW164635   4.834   3.018   8.797 -1.0906  1.4578  0.1336
20752SOL    HW264636   4.826   3.050   8.944 -0.7591 -0.6597  0.6564
20753SOL     OW64637   9.009   4.143   2.041 -0.2811 -0.1238  0.0216
20753SOL    HW164638   8.929   4.150   2.091  0.0159 -0.2601  0.5229
20753SOL    HW264639   8.986   4.173   1.953 -0.6360  0.7579  0.4063
20754SOL     OW64640   9.241   1.736   3.803  0.1651  0.0516 -0.1058
20754SOL    HW164641   9.157   1.759   3.762 -0.0605 -1.2867 -0.4203
20754SOL    HW264642   9.306   1.784   3.751 -0.0934 -1.7507 -2.2532
20755SOL     OW64643   2.403   1.253   9.865 -0.4080 -0.3611 -0.0166
20755SOL    HW164644   2.419   1.175   9.810  1.1197 -0.6567  0.7856
20755SOL    HW264645   2.453   1.236   9.945  0.7861  1.8909 -0.2284
20756SOL     OW64646   2.827   4.241   0.764  0.3579 -0.4689 -0.4144
20756SOL    HW164647   2.746   4.283   0.734 -0.2306  1.5629  3.3628
20756SOL    HW264648   2.897   4.293   0.724 -0.1476 -1.1400 -2.3001
20757SOL     OW64649   6.555   7.841   4.978  0.1559 -0.2986  0.5431
20757SOL    HW164650   6.572   7.829   5.072  0.7054 -1.2474  0.3382
20757SOL    HW264651   6.571   7.934   4.962 -2.4481  0.4865  1.8667
20758SOL     OW64652   7.747   5.713   6.380 -0.0956  0.0078 -0.0439
20758SOL    HW164653   7.781   5.802   6.373  0.1758 -0.0883  0.0577
20758SOL    HW264654   7.797   5.662   6.316 -0.2082 -0.0861 -0.0591
20759SOL     OW64655   8.232   7.380  10.579  0.0691  0.1132 -0.3882
20759SOL    HW164656   8.266   7.314  10.640 -0.2904 -1.9470 -2.2736
20759SOL    HW264657   8.264   7.352  10.493  0.6598  2.9691 -1.2051
20760SOL     OW64658   5.632   4.335   8.755  0.2431  0.3088  0.3069
20760SOL    HW164659   5.685   4.291   8.689 -1.7812  1.1764 -2.0224
20760SOL    HW264660   5.675   4.419   8.769 -0.1050  0.7335 -1.0614
20761SOL     OW64661   7.303   7.108   1.257 -0.2792 -0.5076  0.3077
20761SOL    HW164662   7.388   7.131   1.295 -0.7401  0.3429  0.8843
20761SOL    HW264663   7.321   7.091   1.165  0.1366  2.4115 -0.2487
20762SOL     OW64664   4.603   8.355   7.371  0.3385 -0.4302 -0.0300
20762SOL    HW164665   4.625   8.356   7.278  1.4166 -0.1123  0.2184
20762SOL    HW264666   4.640   8.436   7.405 -0.6114 -0.2330  0.5606
20763SOL     OW64667  10.359   1.129   1.845 -0.5311  0.4049  0.4775
20763SOL    HW164668  10.367   1.197   1.778 -0.7714 -0.0456 -0.0157
20763SOL    HW264669  10.448   1.096   1.857 -0.6294 -0.2229 -0.3802
20764SOL     OW64670   6.115   4.356   8.485 -0.1534 -0.8030 -0.5158
20764SOL    HW164671   6.069   4.418   8.428  0.4014 -0.3474 -0.4837
20764SOL    HW264672   6.196   4.336   8.438  0.1793 -0.6410 -0.0213
20765SOL     OW64673   2.478   9.419   5.953 -0.4899 -0.2335  0.3000
20765SOL    HW164674   2.432   9.449   5.874  0.4308  0.7587  0.1335
20765SOL    HW264675   2.529   9.343   5.923  1.1538  1.1219 -0.4836
20766SOL     OW64676   3.012   1.887   9.896  0.1820 -0.5332  0.3882
20766SOL    HW164677   3.033   1.846   9.812 -1.1019  0.5498 -0.4875
20766SOL    HW264678   3.021   1.981   9.880 -1.9192 -0.2049  0.8992
20767SOL     OW64679   0.479   6.985   9.303 -0.6784  0.0452 -0.1475
20767SOL    HW164680   0.483   7.009   9.396  1.7700  0.6270 -0.3368
20767SOL    HW264681   0.532   6.905   9.297 -0.8194  0.0121 -1.0306
20768SOL     OW64682   0.666   2.017   9.178  0.1453 -0.0248 -0.0871
20768SOL    HW164683   0.669   2.023   9.083  1.3628 -0.4020 -0.0981
20768SOL    HW264684   0.624   2.098   9.207  1.4876  0.9936 -0.8673
20769SOL     OW64685   6.940   7.990   7.974 -0.0483  0.5741  0.2104
20769SOL    HW164686   6.961   7.929   7.903 -0.0317  2.7131 -1.7310
20769SOL    HW264687   7.023   7.999   8.022  0.6768  1.0277 -1.0751
20770SOL     OW64688   6.249   9.572   1.104  0.6386  0.0617  0.0872
20770SOL    HW164689   6.213   9.661   1.109  1.0659  0.3541 -1.3762
20770SOL    HW264690   6.308   9.565   1.179 -0.3418  0.5589  0.9248
20771SOL     OW64691   3.679   5.053   6.719 -0.1367  0.1825  0.8116
20771SOL    HW164692   3.765   5.014   6.735  0.7956  2.1551  1.0117
20771SOL    HW264693   3.665   5.042   6.625  0.9282  0.9065  0.5474
20772SOL     OW64694   1.982   6.795   5.982 -0.3670 -0.3610 -0.2349
20772SOL    HW164695   2.052   6.790   6.047 -0.0973 -0.2344 -0.5078
20772SOL    HW264696   2.015   6.856   5.916 -0.8639 -0.0711 -0.2170
20773SOL     OW64697  10.722   5.166   4.793 -0.4548 -0.0782 -0.0333
20773SOL    HW164698  10.677   5.151   4.876 -2.0879  2.8280 -0.2416
20773SOL    HW264699  10.652   5.168   4.727  0.4330  0.5766 -1.0083
20774SOL     OW64700   7.350   0.897   9.007  0.3089 -0.9562  0.3786
20774SOL    HW164701   7.335   0.920   9.099 -0.1085 -2.0288  0.6002
20774SOL    HW264702   7.349   0.801   9.006  2.7334 -1.0438 -0.3631
20775SOL     OW64703   5.164   5.634   0.386 -0.0611 -0.2901  0.5662
20775SOL    HW164704   5.185   5.637   0.292 -0.1277 -0.7245  0.5370
20775SOL    HW264705   5.220   5.701   0.425  0.6293 -0.7160  0.3360
20776SOL     OW64706   6.219   5.824   8.805  1.2410  0.4287 -0.1996
20776SOL    HW164707   6.169   5.882   8.747 -0.5672  1.5050  2.2818
20776SOL    HW264708   6.166   5.745   8.813  0.6602  0.9364  1.2052
20777SOL     OW64709   2.295  10.281   2.239  0.0428 -0.6029  0.7789
20777SOL    HW164710   2.345  10.212   2.195  1.4192  1.1100 -0.4913
20777SOL    HW264711   2.339  10.294   2.323  1.1665  0.1975  0.0902
20778SOL     OW64712   8.409   1.434   0.356 -0.2340  0.1704  0.5144
20778SOL    HW164713   8.470   1.365   0.331  0.3548  0.8579  0.0163
20778SOL    HW264714   8.464   1.502   0.396 -0.7592  0.4991  0.6992
20779SOL     OW64715   8.577   7.443   7.335 -0.6262  0.6031  0.3364
20779SOL    HW164716   8.541   7.357   7.357 -0.6303  0.3240 -0.6977
20779SOL    HW264717   8.604   7.480   7.419 -0.3770 -0.5203  0.7664
20780SOL     OW64718   2.844   1.608   9.039 -0.6625 -0.5125 -0.0514
20780SOL    HW164719   2.812   1.540   8.980 -0.2829 -1.5060  0.8632
20780SOL    HW264720   2.765   1.650   9.073 -0.8937  0.4360 -1.6198
20781SOL     OW64721   8.713   7.087   8.075 -0.7564 -0.1125  0.5028
20781SOL    HW164722   8.785   7.049   8.024 -1.3627  0.2837 -0.7060
20781SOL    HW264723   8.727   7.056   8.164  2.1194  1.6583  0.7660
20782SOL     OW64724   9.460   1.090   6.778 -0.1112  0.2179  0.0576
20782SOL    HW164725   9.497   1.035   6.709  1.3777  0.8750  0.2726
20782SOL    HW264726   9.382   1.043   6.807 -0.8143 -0.0280 -2.0971
20783SOL     OW64727   5.533   4.177   7.660  0.2971 -0.3418  0.0328
20783SOL    HW164728   5.620   4.202   7.691  0.2909  0.1147 -0.3083
20783SOL    HW264729   5.499   4.256   7.618 -0.4431 -0.4015  0.5208
20784SOL     OW64730   8.522  10.186   5.282  0.4806 -0.1094  0.1547
20784SOL    HW164731   8.492  10.104   5.322 -0.6317  1.0881  1.9061
20784SOL    HW264732   8.442  10.232   5.257  1.0689  0.6844 -0.3524
20785SOL     OW64733   5.804   4.171   7.733  0.2384 -0.3584  0.1039
20785SOL    HW164734   5.799   4.148   7.825  1.8901 -0.6627  0.1426
20785SOL    HW264735   5.897   4.187   7.716 -0.2307  1.5961 -1.0641
20786SOL     OW64736   5.829   2.847   8.817 -0.3628 -0.2981 -0.2205
20786SOL    HW164737   5.769   2.894   8.759 -0.7189  0.3610  0.6519
20786SOL    HW264738   5.780   2.770   8.845  0.0666 -1.0021 -1.3187
20787SOL     OW64739   3.072   7.770   3.766  0.0558 -0.4476  0.7548
20787SOL    HW164740   3.047   7.679   3.783  1.6315 -1.1088 -0.2205
20787SOL    HW264741   3.048   7.785   3.674 -0.8636  0.3802  1.1143
20788SOL     OW64742  10.228   3.747   1.030 -0.6152  0.1995 -0.0107
20788SOL    HW164743  10.279   3.762   1.110 -0.0986 -0.5042 -0.1893
20788SOL    HW264744  10.244   3.824   0.976  1.7510 -0.7527 -0.8079
20789SOL     OW64745   6.510   2.559   5.129  0.2248 -0.0829  0.1234
20789SOL    HW164746   6.600   2.592   5.126 -0.0430  0.9119  1.7645
20789SOL    HW264747   6.473   2.583   5.045  0.7516  1.8275  0.3815
20790SOL     OW64748   0.509   8.536   1.894  0.2974 -0.1487  0.2713
20790SOL    HW164749   0.483   8.587   1.971  0.1644 -1.5866  1.2109
20790SOL    HW264750   0.436   8.476   1.879  0.8868 -0.7703 -0.1760
20791SOL     OW64751  10.202   7.616   1.390  0.0117 -0.0241  0.0265
20791SOL    HW164752  10.254   7.666   1.327 -1.4514 -0.7597 -1.8883
20791SOL    HW264753  10.158   7.682   1.443  0.0413  0.6689 -0.7955
20792SOL     OW64754   0.134   1.977   6.319  0.1624 -0.1720 -0.5078
20792SOL    HW164755   0.065   1.980   6.386 -0.6018  0.5536 -1.3045
20792SOL    HW264756   0.087   1.985   6.236  1.3139  2.5310 -1.0032
20793SOL     OW64757   2.324   4.217   5.353  0.1738 -0.0322 -0.0047
20793SOL    HW164758   2.355   4.284   5.292  0.0973 -2.0543 -2.3966
20793SOL    HW264759   2.402   4.166   5.374 -0.3958 -1.4687 -1.2506
20794SOL     OW64760   0.307   5.853   6.081 -0.8389  0.2130 -0.2090
20794SOL    HW164761   0.233   5.908   6.107 -1.2883  0.5074 -1.9759
20794SOL    HW264762   0.286   5.824   5.993  0.6532 -0.6177 -0.3329
20795SOL     OW64763   9.756   2.091   2.036 -0.1950  0.8555  0.4666
20795SOL    HW164764   9.662   2.109   2.026 -0.3589  1.0302  2.0315
20795SOL    HW264765   9.760   2.014   2.093  0.6033  1.1179  0.7811
20796SOL     OW64766  10.447   7.105   8.217 -0.1135  0.5575  0.2227
20796SOL    HW164767  10.461   7.010   8.217  2.5100  0.8616  1.2152
20796SOL    HW264768  10.373   7.118   8.276  0.2557 -0.8055  1.0360
20797SOL     OW64769   0.996   1.633   9.184  0.4634 -0.0133 -0.1203
20797SOL    HW164770   1.012   1.650   9.091 -1.0053 -0.5700 -0.4966
20797SOL    HW264771   1.020   1.541   9.196  1.5089  0.2978  0.2736
20798SOL     OW64772   8.179  10.626   9.874 -0.3483  0.2234 -0.5811
20798SOL    HW164773   8.215  10.638   9.786  1.0811  0.4567  0.0013
20798SOL    HW264774   8.158  10.533   9.879 -0.9574  0.3070 -1.3401
20799SOL     OW64775   2.487   9.226   8.733  0.2208 -0.0688 -0.2589
20799SOL    HW164776   2.475   9.294   8.799 -1.2503  0.3234 -0.8962
20799SOL    HW264777   2.502   9.273   8.651 -0.5032 -0.5033 -0.6487
20800SOL     OW64778   5.220   6.658   7.770 -0.2602 -0.3757 -0.8902
20800SOL    HW164779   5.141   6.640   7.719 -0.2513  0.0250 -1.0434
20800SOL    HW264780   5.188   6.684   7.856 -0.2794 -0.8360 -0.7538
20801SOL     OW64781   0.641   4.600   4.152 -0.2521  0.1369 -0.5568
20801SOL    HW164782   0.663   4.618   4.060 -1.2408 -1.4478 -1.1505
20801SOL    HW264783   0.578   4.669   4.175  2.7073  2.8422  0.2017
20802SOL     OW64784   8.617   4.567   4.799  0.4019 -0.4300  0.0572
20802SOL    HW164785   8.607   4.652   4.842  0.1559 -0.2363 -0.3773
20802SOL    HW264786   8.534   4.522   4.815 -0.3777  0.3245 -1.6855
20803SOL     OW64787   2.223   9.000   5.061 -0.4715 -0.2202 -0.3985
20803SOL    HW164788   2.280   8.926   5.040 -1.7824 -0.9504 -1.5602
20803SOL    HW264789   2.191   8.981   5.149 -0.2160 -0.6501 -0.3930
20804SOL     OW64790   6.265  10.574   4.680 -0.0897 -0.0329  0.2311
20804SOL    HW164791   6.215  10.632   4.623  0.8322  0.7908  0.2286
20804SOL    HW264792   6.342  10.625   4.705 -0.6226 -0.2396  2.5003
20805SOL     OW64793   5.887   8.073   8.064  0.6765  0.5646 -0.0114
20805SOL    HW164794   5.867   8.165   8.081  0.5554  0.6804 -0.7620
20805SOL    HW264795   5.979   8.073   8.039  1.6411  0.0760  3.0727
20806SOL     OW64796   9.310   1.907   6.393  0.1055  0.1592 -0.3599
20806SOL    HW164797   9.354   1.840   6.446 -1.4230  0.8607  1.9232
20806SOL    HW264798   9.358   1.988   6.412  0.8614  0.0762 -1.7676
20807SOL     OW64799   0.988   2.402   8.650 -0.7913  0.6244 -0.3795
20807SOL    HW164800   0.938   2.322   8.637  0.5922 -0.6287  1.4374
20807SOL    HW264801   0.965   2.431   8.739  0.5609  0.8372 -0.0733
20808SOL     OW64802   7.032   4.635   5.328 -0.0285  0.0173 -0.1555
20808SOL    HW164803   6.963   4.681   5.375  0.8328  2.0269 -0.7611
20808SOL    HW264804   7.080   4.587   5.396 -0.6374  0.4313  0.5779
20809SOL     OW64805   3.782   5.868  10.633 -0.8540 -0.8905 -0.3628
20809SOL    HW164806   3.768   5.879  10.539  1.3575 -1.6140 -0.8373
20809SOL    HW264807   3.773   5.774  10.648  0.7976 -1.0776 -0.2898
20810SOL     OW64808   6.948   7.009   4.266  0.3425 -0.3679 -0.2525
20810SOL    HW164809   7.033   7.002   4.309 -0.5800  0.4606  1.8815
20810SOL    HW264810   6.967   7.049   4.181  1.9863  0.7571  0.5819
20811SOL     OW64811   9.727   5.123   2.431  0.2863 -0.2153 -0.1086
20811SOL    HW164812   9.793   5.056   2.415  0.4415 -0.0047 -0.3641
20811SOL    HW264813   9.663   5.110   2.362  0.4962  0.1218 -0.3697
20812SOL     OW64814   3.207   9.554   1.830  0.1083  0.2067 -0.1344
20812SOL    HW164815   3.289   9.510   1.809  0.3129  0.1753  0.6786
20812SOL    HW264816   3.153   9.543   1.753  0.3884 -0.9152 -0.1853
20813SOL     OW64817   4.569   1.977   7.132  0.3529  0.0387  0.1956
20813SOL    HW164818   4.562   1.942   7.221  0.1040  2.2697  1.1132
20813SOL    HW264819   4.642   2.039   7.136  0.6678 -0.2029 -1.3010
20814SOL     OW64820   8.713   1.403   2.332  0.4961  0.7240  0.0253
20814SOL    HW164821   8.671   1.400   2.418 -1.2135 -1.1241 -0.8073
20814SOL    HW264822   8.641   1.403   2.270  1.7071  1.9135 -1.4544
20815SOL     OW64823   8.289   1.594   7.581  0.2977  0.4691 -0.4083
20815SOL    HW164824   8.288   1.500   7.566  0.7418  0.5184 -0.7722
20815SOL    HW264825   8.301   1.632   7.494  1.9154  0.8015 -0.0648
20816SOL     OW64826   8.466   1.164  10.641 -0.0808  0.4047 -0.0656
20816SOL    HW164827   8.443   1.256  10.655 -0.0828  0.1106  2.2432
20816SOL    HW264828   8.383   1.122  10.618 -0.2336  0.8376 -0.3099
20817SOL     OW64829  10.602   5.509   1.037 -0.4120  0.2363 -0.0485
20817SOL    HW164830  10.534   5.518   0.970 -0.7250  0.2705  0.2711
20817SOL    HW264831  10.565   5.448   1.101 -0.2656  0.4828  0.2757
20818SOL     OW64832   4.688   2.357   9.127  0.6111 -0.3410 -0.2122
20818SOL    HW164833   4.736   2.353   9.210  2.5364  0.4433 -1.2019
20818SOL    HW264834   4.700   2.270   9.088  1.7914  0.0272 -0.7139
20819SOL     OW64835   8.358   6.522   7.836  0.3208  0.5317  0.0289
20819SOL    HW164836   8.424   6.539   7.903  0.1233  1.9187 -0.1181
20819SOL    HW264837   8.404   6.471   7.769  0.2985 -1.7237  1.5954
20820SOL     OW64838   7.720   6.046   6.400  0.4076  0.5124 -0.5447
20820SOL    HW164839   7.631   6.067   6.431 -0.2088 -0.5779 -1.4828
20820SOL    HW264840   7.768   6.024   6.480 -0.4670  0.0976 -0.1101
20821SOL     OW64841   1.096   8.493   9.518 -0.2063  0.3600 -0.0290
20821SOL    HW164842   1.086   8.420   9.458 -3.5970 -1.3287  2.2789
20821SOL    HW264843   1.176   8.473   9.568  0.2196 -0.4741 -1.0169
20822SOL     OW64844   7.817   1.342  10.581 -0.2753  0.2146 -0.0136
20822SOL    HW164845   7.887   1.312  10.639 -0.7420 -0.9056 -0.0194
20822SOL    HW264846   7.739   1.340  10.636 -0.5801 -0.0551 -0.4608
20823SOL     OW64847  10.339   5.745   7.814  1.0429 -0.3361  0.1167
20823SOL    HW164848  10.416   5.706   7.772  0.4456 -0.2236 -1.1264
20823SOL    HW264849  10.355   5.839   7.811  1.0673 -0.3334  0.2935
20824SOL     OW64850   4.028   3.434   1.238 -0.4291 -0.1335 -0.2834
20824SOL    HW164851   4.063   3.367   1.296 -1.1718 -0.5678 -0.3237
20824SOL    HW264852   4.086   3.431   1.161  0.6289  0.5282  0.4608
20825SOL     OW64853   6.368   4.892   0.396 -0.1697 -0.0924 -0.2716
20825SOL    HW164854   6.337   4.978   0.423 -2.5444 -0.7407 -0.6991
20825SOL    HW264855   6.299   4.858   0.339  1.8719 -1.2534 -2.2352
20826SOL     OW64856   1.883   3.800   4.692 -0.3027 -0.0749  0.2520
20826SOL    HW164857   1.977   3.787   4.703 -0.2181  0.9530  0.8275
20826SOL    HW264858   1.857   3.853   4.766 -1.4482 -0.7742  0.3690
20827SOL     OW64859  10.735   3.961   7.529 -0.2586 -0.6464 -0.3499
20827SOL    HW164860  10.698   3.891   7.583 -0.1571  0.5717  1.3741
20827SOL    HW264861  10.797   4.006   7.587  1.0860 -0.2547 -1.9868
20828SOL     OW64862   9.130   1.465  10.334 -0.0488 -0.0159  0.1639
20828SOL    HW164863   9.187   1.388  10.345 -0.5459 -0.2469  1.2478
20828SOL    HW264864   9.143   1.492  10.243 -0.7992 -2.1524 -0.6410
20829SOL     OW64865   8.199   3.677   0.992 -0.0133 -0.3271  0.5998
20829SOL    HW164866   8.218   3.600   1.046  0.1467 -0.7787 -0.0756
20829SOL    HW264867   8.281   3.693   0.945 -0.0265  0.3060  0.7977
20830SOL     OW64868   0.278   4.585   9.849 -0.2061  0.1123  0.0494
20830SOL    HW164869   0.217   4.520   9.884 -1.7834  1.4170 -0.1725
20830SOL    HW264870   0.278   4.656   9.913 -0.8013  1.1889 -1.1054
20831SOL     OW64871   9.710   2.061   9.040  0.4493  0.3385  0.0685
20831SOL    HW164872   9.750   2.146   9.062  0.6928 -0.0474  1.1832
20831SOL    HW264873   9.708   2.013   9.123 -0.8056 -0.2995 -0.3034
20832SOL     OW64874   3.755   9.706   9.397 -0.0489 -0.0628 -0.2893
20832SOL    HW164875   3.821   9.644   9.367  0.5911 -0.2425  1.3997
20832SOL    HW264876   3.772   9.717   9.491 -0.4548  2.2971 -0.4235
20833SOL     OW64877   8.595  10.588   7.889 -0.2096 -0.0153 -0.4827
20833SOL    HW164878   8.523  10.531   7.917 -1.2227  1.0975 -0.7516
20833SOL    HW264879   8.553  10.658   7.840  1.1129  0.4498 -0.9989
20834SOL     OW64880   4.597   8.212   2.249  0.6578 -0.0656 -0.4012
20834SOL    HW164881   4.647   8.222   2.331  0.1144 -1.1631  0.0825
20834SOL    HW264882   4.515   8.259   2.265  1.0637  0.7851 -0.7846
20835SOL     OW64883   0.634  10.119  10.268 -0.2609 -0.3652  0.0760
20835SOL    HW164884   0.573  10.047  10.286 -1.0631  0.4397  0.6817
20835SOL    HW264885   0.653  10.156  10.354  0.3875 -0.0473 -0.2015
20836SOL     OW64886   4.707   7.618   6.127  0.6532  0.2831  0.0716
20836SOL    HW164887   4.796   7.651   6.115  0.7696 -0.7230 -2.4426
20836SOL    HW264888   4.718   7.524   6.141 -0.0123  0.1577 -0.2246
20837SOL     OW64889   7.075   5.217   1.953  0.5813 -0.1445 -0.3843
20837SOL    HW164890   7.081   5.125   1.977 -0.1098 -0.2392 -0.5436
20837SOL    HW264891   7.126   5.263   2.019 -0.6195 -0.4698  0.8006
20838SOL     OW64892   4.426  10.705   6.821 -0.0367  0.3087 -0.3921
20838SOL    HW164893   4.452  10.712   6.912 -0.1949 -2.4279 -0.0542
20838SOL    HW264894   4.333  10.729   6.821  0.2971  1.6450 -0.0935
20839SOL     OW64895   3.296   3.037  10.395 -0.1272  0.4187 -0.4893
20839SOL    HW164896   3.298   3.084  10.311 -1.7401  1.6863  0.1307
20839SOL    HW264897   3.295   3.106  10.461 -0.1791 -0.5490  0.5402
20840SOL     OW64898   7.846   6.722   4.732  0.0447 -0.2219 -0.1049
20840SOL    HW164899   7.856   6.808   4.773  0.8925 -0.1333 -0.4837
20840SOL    HW264900   7.889   6.661   4.791  0.3714 -0.2358 -0.3548
20841SOL     OW64901   4.435  10.023   3.825  0.6112 -0.3165  0.1767
20841SOL    HW164902   4.406   9.998   3.737 -1.8427 -0.7536  1.0248
20841SOL    HW264903   4.497   9.955   3.850 -0.3211 -1.4185 -0.4186
20842SOL     OW64904   1.723   9.317   0.898  0.1891  0.3312 -0.0802
20842SOL    HW164905   1.694   9.257   0.829 -0.4049  0.2398  0.2433
20842SOL    HW264906   1.651   9.318   0.961  0.8572  0.1567  0.7070
20843SOL     OW64907  10.481   6.329   6.574  0.0054 -0.0931 -0.2142
20843SOL    HW164908  10.481   6.264   6.644 -0.3099 -0.0873 -0.2068
20843SOL    HW264909  10.476   6.277   6.494  2.0285 -0.1910 -0.3385
20844SOL     OW64910   4.387  10.426   8.760 -0.0560 -0.1232  0.4122
20844SOL    HW164911   4.381  10.432   8.856 -0.1717  0.4763  0.3738
20844SOL    HW264912   4.470  10.382   8.743 -1.8563 -4.1995  0.8832
20845SOL     OW64913   4.895   8.843   3.040 -0.0952  0.6374 -0.1652
20845SOL    HW164914   4.961   8.780   3.009  0.7274  1.4420 -0.1128
20845SOL    HW264915   4.821   8.831   2.981 -0.6468 -1.5137  0.8256
20846SOL     OW64916   9.373   8.700  10.506 -0.3495 -0.4998 -0.5332
20846SOL    HW164917   9.435   8.709  10.578 -0.9330  0.1605 -0.1038
20846SOL    HW264918   9.414   8.748  10.434 -0.8105  0.8342  0.0573
20847SOL     OW64919   8.628   2.967  10.222 -0.5250 -0.1985  0.0742
20847SOL    HW164920   8.593   2.942  10.136  0.2353  1.2857 -0.7008
20847SOL    HW264921   8.712   2.920  10.227 -1.0454 -1.1186  0.4914
20848SOL     OW64922   5.998   2.977   6.640  0.0522 -0.2788  0.4201
20848SOL    HW164923   5.976   3.070   6.634  1.1750 -0.0088  0.3618
20848SOL    HW264924   6.016   2.963   6.733 -1.0862 -0.6754  0.5937
20849SOL     OW64925   3.747   1.528   2.261 -1.1041  0.4879 -0.2983
20849SOL    HW164926   3.806   1.468   2.216 -0.7896  1.5066 -1.2920
20849SOL    HW264927   3.741   1.494   2.350 -1.8769 -1.6872 -1.1301
20850SOL     OW64928   1.981   1.338  10.287  0.1963 -0.0100 -0.2351
20850SOL    HW164929   1.960   1.312  10.376 -0.5872  1.1117 -0.0641
20850SOL    HW264930   2.008   1.257  10.244 -2.4313 -1.2338  0.1579
20851SOL     OW64931  10.569   0.138   5.134  0.0198 -0.0086  0.8489
20851SOL    HW164932  10.660   0.153   5.161  0.2927 -1.4440  0.7856
20851SOL    HW264933  10.519   0.201   5.185  1.2020  2.0664 -0.4288
20852SOL     OW64934   9.840   7.369   0.561  0.6791  0.1542  0.7700
20852SOL    HW164935   9.904   7.438   0.579  0.5186  1.0054 -1.6488
20852SOL    HW264936   9.756   7.414   0.555  0.5889 -0.1681 -0.9698
20853SOL     OW64937   8.843   6.494   4.413  0.0145 -0.1277 -0.2310
20853SOL    HW164938   8.784   6.448   4.472 -1.0165 -1.4198 -2.1606
20853SOL    HW264939   8.927   6.448   4.423 -0.2893 -0.6691 -0.1455
20854SOL     OW64940   8.981  10.335   5.022  0.2229 -0.4238 -0.9644
20854SOL    HW164941   8.962  10.262   5.081  3.5998 -1.6832 -1.2330
20854SOL    HW264942   8.946  10.307   4.937 -1.3295 -0.2574 -0.4042
20855SOL     OW64943   3.502   4.776   3.383 -0.0125  0.0727 -0.2089
20855SOL    HW164944   3.465   4.861   3.359 -0.0077 -0.4732 -2.3581
20855SOL    HW264945   3.597   4.788   3.377  0.0309  0.1836  0.5683
20856SOL     OW64946   1.928   5.921   7.413  0.0169 -0.1895 -0.3687
20856SOL    HW164947   1.896   5.851   7.356  1.7458 -1.0043 -0.3902
20856SOL    HW264948   1.903   5.893   7.501 -0.8771  0.0904 -0.5142
20857SOL     OW64949   8.417   0.145   6.616  0.5442 -0.6502  0.2009
20857SOL    HW164950   8.391   0.211   6.552  0.0730 -0.6943  0.3457
20857SOL    HW264951   8.510   0.129   6.598  0.5441 -0.2787 -0.1263
20858SOL     OW64952   1.780   8.711   2.685 -0.1651  0.2814 -0.1418
20858SOL    HW164953   1.784   8.653   2.762 -1.4322  0.5069  0.1189
20858SOL    HW264954   1.832   8.787   2.710 -1.7070  1.0047  1.1162
20859SOL     OW64955   2.930   1.378   5.330 -0.3965  0.3390  0.2922
20859SOL    HW164956   3.005   1.324   5.304 -0.5835 -0.0412  0.5358
20859SOL    HW264957   2.929   1.449   5.266 -0.1894  0.0157 -0.0750
20860SOL     OW64958   4.411   1.686   2.186 -1.1818 -0.0020 -0.6412
20860SOL    HW164959   4.352   1.610   2.188 -0.7172 -0.3812 -1.1704
20860SOL    HW264960   4.408   1.717   2.096 -1.7550  0.9293 -0.3179
20861SOL     OW64961   0.542   7.433   2.838 -0.4539 -0.3951  0.2755
20861SOL    HW164962   0.558   7.442   2.932  1.5309  1.1482 -0.1514
20861SOL    HW264963   0.489   7.510   2.816  0.7897  0.3585 -0.1805
20862SOL     OW64964  10.180   9.316   7.439  0.2824 -0.0764 -0.2296
20862SOL    HW164965  10.091   9.299   7.409  0.0325 -2.2379  1.4955
20862SOL    HW264966  10.170   9.367   7.519  0.5151 -1.2242  0.5453
20863SOL     OW64967   4.965   6.826   3.002  0.2754 -0.0836  0.2409
20863SOL    HW164968   4.963   6.768   3.077  0.7940  0.3010  0.5572
20863SOL    HW264969   4.920   6.777   2.932  0.2316 -0.6359  0.6536
20864SOL     OW64970   6.782   2.130   5.002  0.3195  0.3290  0.1201
20864SOL    HW164971   6.742   2.167   4.924  0.7203 -0.7721 -0.6353
20864SOL    HW264972   6.838   2.200   5.036 -0.2305  0.9835 -0.2930
20865SOL     OW64973   3.745   6.309   1.635 -0.1455  0.8958 -0.8226
20865SOL    HW164974   3.667   6.280   1.683  0.8913 -1.5179 -0.4306
20865SOL    HW264975   3.714   6.380   1.579 -2.5411  0.2836 -0.3985
20866SOL     OW64976   1.642   3.467  10.798  0.1696 -0.9357  0.3416
20866SOL    HW164977   1.711   3.429  10.852  1.4117 -0.9458 -1.1645
20866SOL    HW264978   1.586   3.514  10.859  1.6783 -0.6831  1.5957
20867SOL     OW64979   1.799   1.089   6.855 -0.0336 -0.0687 -0.4193
20867SOL    HW164980   1.769   1.175   6.823 -1.3618 -0.6944 -0.9402
20867SOL    HW264981   1.892   1.087   6.833 -0.2110  0.8273 -1.3545
20868SOL     OW64982   6.475   3.616   5.296 -0.3520 -0.4320  0.3525
20868SOL    HW164983   6.469   3.693   5.239  0.2114 -0.3574  0.3829
20868SOL    HW264984   6.550   3.567   5.262 -1.2356 -1.4334 -0.2195
20869SOL     OW64985   0.302   7.605   9.631 -0.0740 -0.6361 -0.1642
20869SOL    HW164986   0.373   7.608   9.566  0.9956 -1.3143  0.9412
20869SOL    HW264987   0.337   7.652   9.707 -0.9315 -0.7294  0.3033
20870SOL     OW64988   7.263   4.755   2.197  0.3166 -0.3249 -0.4834
20870SOL    HW164989   7.271   4.839   2.151  0.9937 -0.4455 -0.5935
20870SOL    HW264990   7.326   4.698   2.154 -0.9659 -1.2674 -1.1959
20871SOL     OW64991  10.073   3.941   4.417 -0.2425 -0.0996  0.6321
20871SOL    HW164992  10.151   3.994   4.437 -0.3719 -0.2693  1.6134
20871SOL    HW264993  10.103   3.881   4.348  0.0481  0.8869 -0.1326
20872SOL     OW64994   1.196   2.141   6.169  0.0263  0.0527  0.5042
20872SOL    HW164995   1.268   2.203   6.177  0.0452 -0.1245  1.8270
20872SOL    HW264996   1.214   2.073   6.234 -1.5949  0.2807  1.2378
20873SOL     OW64997   2.206   5.789   8.929  0.2297  0.3704 -0.1820
20873SOL    HW164998   2.291   5.810   8.890 -0.1169  0.0758 -1.1322
20873SOL    HW264999   2.173   5.873   8.960  1.5702  0.2501  1.6920
20874SOL     OW65000   7.533   0.182   5.063  0.7284 -0.0793  0.1217
20874SOL    HW165001   7.513   0.272   5.091  0.6300 -0.7037  2.1704
20874SOL    HW265002   7.529   0.186   4.967  1.2867  2.2207  0.1349
20875SOL     OW65003   7.980   7.860   7.550 -0.3694 -0.4943  0.8557
20875SOL    HW165004   7.989   7.883   7.457  0.5117  0.8658  1.2495
20875SOL    HW265005   7.898   7.901   7.577  0.0199  0.2254  0.9763
20876SOL     OW65006   1.834   0.737   1.456  0.7097  0.2365  0.2225
20876SOL    HW165007   1.900   0.686   1.410  2.0884  1.4146  0.8134
20876SOL    HW265008   1.816   0.687   1.536  2.0870  0.6577  0.8247
20877SOL     OW65009   7.424   8.163   1.135 -0.0530 -0.0828  0.1882
20877SOL    HW165010   7.389   8.153   1.224 -1.0136 -1.9811 -0.3565
20877SOL    HW265011   7.473   8.083   1.119 -1.1427 -0.4584 -1.5194
20878SOL     OW65012  10.540   4.426   9.519 -0.1256 -0.1666 -0.0315
20878SOL    HW165013  10.522   4.394   9.430  1.0521 -2.2250  0.4043
20878SOL    HW265014  10.611   4.489   9.507 -0.9560  0.7037 -0.6604
20879SOL     OW65015   3.928   9.143   4.214 -0.1279 -0.0494  0.4055
20879SOL    HW165016   3.995   9.130   4.280  0.9383 -1.4398 -0.8802
20879SOL    HW265017   3.845   9.130   4.260  0.5957 -1.4051  1.3720
20880SOL     OW65018   3.555   5.857   6.570  0.8732  0.2803  0.0150
20880SOL    HW165019   3.566   5.916   6.495  1.9050 -0.8712 -0.7799
20880SOL    HW265020   3.640   5.814   6.579  0.2577 -0.8107  0.8133
20881SOL     OW65021   5.156   9.778   9.374  0.3113  0.2819 -0.4572
20881SOL    HW165022   5.146   9.785   9.468  0.7335  0.7892 -0.4422
20881SOL    HW265023   5.196   9.862   9.348 -1.9762  1.1591 -1.3938
20882SOL     OW65024   4.745   8.587  10.629  0.6956 -0.0947 -0.1384
20882SOL    HW165025   4.736   8.566  10.722  1.4532  0.1457 -0.0041
20882SOL    HW265026   4.655   8.583  10.595  0.3537  0.2365  0.6903
20883SOL     OW65027   8.828   4.857   7.316 -0.6266 -0.4571  0.2729
20883SOL    HW165028   8.783   4.837   7.234 -2.3225  0.9371  0.8154
20883SOL    HW265029   8.910   4.808   7.311 -1.5188 -1.8621 -1.4254
20884SOL     OW65030   2.069   8.317   7.162 -0.2520  0.0887  0.0945
20884SOL    HW165031   2.064   8.361   7.077 -0.7270 -0.2411 -0.0535
20884SOL    HW265032   2.059   8.224   7.141  0.2088 -0.0486  0.4569
20885SOL     OW65033   6.808   6.629   8.019  0.3800 -0.2461  0.9065
20885SOL    HW165034   6.815   6.632   8.114 -0.3520 -0.4089  0.9655
20885SOL    HW265035   6.816   6.536   7.997  1.1602 -0.1552  0.7509
20886SOL     OW65036   6.175   7.243   9.485  0.0441 -0.2353 -0.6113
20886SOL    HW165037   6.089   7.213   9.453 -1.2909  2.9031 -0.3688
20886SOL    HW265038   6.237   7.178   9.452 -2.4329 -2.8464 -0.4947
20887SOL     OW65039   1.856   5.529   6.497 -0.0381  0.0262  0.4120
20887SOL    HW165040   1.884   5.612   6.534  1.2361 -1.2103  2.3869
20887SOL    HW265041   1.778   5.505   6.547  0.6623 -0.8168  1.1247
20888SOL     OW65042   2.427   6.891   6.641  0.9360 -0.3482 -0.2967
20888SOL    HW165043   2.364   6.943   6.591 -0.0834 -0.4546  0.8359
20888SOL    HW265044   2.443   6.941   6.720 -1.1033 -2.2892  1.4675
20889SOL     OW65045   5.961   2.969   3.836  0.2233  0.0660 -0.1707
20889SOL    HW165046   5.986   3.002   3.749  0.9862 -1.5318 -0.5892
20889SOL    HW265047   6.043   2.936   3.873 -0.2127  0.1744  0.9234
20890SOL     OW65048   6.804   5.882  10.227  0.5200 -0.3281 -0.0188
20890SOL    HW165049   6.743   5.817  10.262 -1.0548  1.5252  0.8905
20890SOL    HW265050   6.883   5.873  10.280 -0.0210 -0.8661  0.7145
20891SOL     OW65051   9.270  10.323   8.603  0.8283  0.4898 -0.9230
20891SOL    HW165052   9.201  10.262   8.577 -0.0518  0.9798  0.1662
20891SOL    HW265053   9.284  10.305   8.696  1.0431  1.4708 -0.7561
20892SOL     OW65054   7.111  10.037   5.926 -0.0366  0.1706 -0.1760
20892SOL    HW165055   7.044  10.105   5.915 -1.0461 -0.3550  2.0456
20892SOL    HW265056   7.173  10.075   5.989 -0.4240 -0.7792  0.8205
20893SOL     OW65057   5.326   8.249   8.413 -0.1370 -0.2947 -0.3333
20893SOL    HW165058   5.378   8.312   8.365 -0.2249  1.2017  1.4140
20893SOL    HW265059   5.238   8.287   8.416  0.2632  0.7079  2.5464
20894SOL     OW65060  10.180   7.425  10.258 -0.1693  0.5566  0.6482
20894SOL    HW165061  10.108   7.388  10.208 -0.7995  1.0172  1.2029
20894SOL    HW265062  10.147   7.509  10.289  0.1496  0.2141  1.9751
20895SOL     OW65063   8.646   5.176   2.430  0.3315  0.0501 -0.0605
20895SOL    HW165064   8.649   5.270   2.449 -0.1002 -0.2745  1.8976
20895SOL    HW265065   8.585   5.168   2.357 -1.1354  1.1742  0.9602
20896SOL     OW65066   7.808   6.810   7.139 -0.3736 -0.3271 -0.5468
20896SOL    HW165067   7.745   6.828   7.209 -1.1870 -1.5139 -0.9528
20896SOL    HW265068   7.776   6.859   7.064 -0.2413 -0.1101 -0.4612
20897SOL     OW65069   7.548   7.620   1.558  0.5573  0.2401 -0.0037
20897SOL    HW165070   7.456   7.646   1.551  1.0844  1.9213 -1.5830
20897SOL    HW265071   7.584   7.675   1.627  0.6741  0.5545 -0.3128
20898SOL     OW65072   8.797   6.241   7.330  0.1077 -0.0830  0.9120
20898SOL    HW165073   8.852   6.243   7.252 -0.4235  0.6789  0.5462
20898SOL    HW265074   8.859   6.227   7.402  0.8657  1.2418  0.5619
20899SOL     OW65075   8.874   2.915   6.291 -0.6004 -0.6433  0.3609
20899SOL    HW165076   8.855   2.922   6.385 -0.6803 -0.3974  0.3269
20899SOL    HW265077   8.856   3.002   6.257  1.4474 -0.1354  0.4749
20900SOL     OW65078   4.164  10.126  10.778  0.6093  0.4406 -0.3310
20900SOL    HW165079   4.259  10.130  10.765  0.6206  1.0492 -0.0632
20900SOL    HW265080   4.135  10.217  10.775  0.0135  0.2521 -0.5179
20901SOL     OW65081   9.447   4.758   1.067  0.4165  0.0005  0.3559
20901SOL    HW165082   9.522   4.814   1.085  0.3409 -0.0153  0.7338
20901SOL    HW265083   9.424   4.777   0.976 -0.1044  1.1592  0.7125
20902SOL     OW65084   5.173   8.234   1.608  0.2152  0.3452 -0.0601
20902SOL    HW165085   5.146   8.323   1.628 -0.3573  0.0019  0.7967
20902SOL    HW265086   5.122   8.210   1.530 -0.6803  0.3077  0.5160
20903SOL     OW65087   9.159   1.081   7.844 -0.3135 -0.0287  0.3503
20903SOL    HW165088   9.129   1.047   7.929 -1.9020  3.8935  1.5402
20903SOL    HW265089   9.081   1.085   7.790 -0.2627  1.8952  0.3694
20904SOL     OW65090   2.640   3.911   8.341  0.1756  0.5026  0.5732
20904SOL    HW165091   2.659   3.818   8.324  3.2714  0.9862  0.9288
20904SOL    HW265092   2.637   3.950   8.254  1.9198  0.5409  0.4950
20905SOL     OW65093   8.771  10.414   6.918 -0.1823  0.2299 -0.1829
20905SOL    HW165094   8.684  10.375   6.911 -0.3911  0.2743  1.6645
20905SOL    HW265095   8.786  10.456   6.833 -2.7078  1.7107  0.0013
20906SOL     OW65096   6.510   7.420   8.021  0.6731  0.4892 -0.3302
20906SOL    HW165097   6.544   7.493   8.074 -0.6621  0.0252  1.2861
20906SOL    HW265098   6.502   7.348   8.083  1.5726 -0.9470 -1.8098
20907SOL     OW65099   2.374   3.074   5.703  0.2482  0.1009 -0.4826
20907SOL    HW165100   2.342   2.984   5.704 -2.3110  0.9196  0.3552
20907SOL    HW265101   2.415   3.087   5.789 -2.6544  0.6757  0.9539
20908SOL     OW65102  10.342   3.623   0.372  0.0994  0.3598  0.5884
20908SOL    HW165103  10.253   3.643   0.402 -0.4230  0.7522 -1.1301
20908SOL    HW265104  10.398   3.685   0.419 -0.7409  1.3246  0.3498
20909SOL     OW65105   1.405   7.383  10.100 -0.2073 -0.7246 -0.6140
20909SOL    HW165106   1.408   7.310  10.161  0.3168 -0.2785 -0.0867
20909SOL    HW265107   1.313   7.407  10.096 -0.3584 -1.3036 -0.6619
20910SOL     OW65108   6.993   0.231   6.930  0.1652 -0.3104  0.3477
20910SOL    HW165109   6.924   0.244   6.995 -1.3560  0.2391 -1.2899
20910SOL    HW265110   7.017   0.319   6.902 -0.0040 -0.5622 -0.6279
20911SOL     OW65111   1.766   1.858   8.203 -0.2586 -0.3654 -0.5657
20911SOL    HW165112   1.718   1.921   8.258  0.8740  0.6627 -0.7164
20911SOL    HW265113   1.778   1.904   8.120  3.2532  0.5302  0.2839
20912SOL     OW65114   5.199   2.177   7.957 -0.1267 -0.0061  0.0436
20912SOL    HW165115   5.192   2.103   7.897 -1.1895  0.8763 -0.9669
20912SOL    HW265116   5.111   2.187   7.994  0.6950 -1.1063  2.5185
20913SOL     OW65117   5.346   7.394   3.743  0.2258 -0.6013 -0.1280
20913SOL    HW165118   5.358   7.377   3.650  2.7172  1.7268 -0.3389
20913SOL    HW265119   5.318   7.485   3.748  0.7189 -0.4983  1.4010
20914SOL     OW65120   1.017   9.686   6.977 -0.3914  0.0477 -0.2352
20914SOL    HW165121   1.002   9.778   6.996 -0.8123 -0.1904  0.5909
20914SOL    HW265122   0.933   9.644   6.993 -0.2904 -0.4427 -0.9209
20915SOL     OW65123   9.243   1.902  10.262  0.3379 -0.0671  0.1125
20915SOL    HW165124   9.326   1.898  10.311  1.0022 -0.7958 -1.0327
20915SOL    HW265125   9.200   1.980  10.295  2.7608  2.0012 -1.2692
20916SOL     OW65126   6.016   6.600   2.538  0.6544  0.2797 -0.4501
20916SOL    HW165127   5.952   6.638   2.598 -0.0297 -1.4107 -0.0442
20916SOL    HW265128   6.078   6.671   2.521 -0.6507  1.6122  0.0884
20917SOL     OW65129   4.973   6.521   6.586 -0.4000  0.1420  0.2813
20917SOL    HW165130   4.889   6.528   6.541 -0.6204  0.0262  0.6753
20917SOL    HW265131   5.038   6.520   6.516 -0.7133  0.4422 -0.0174
20918SOL     OW65132   7.774   5.547  10.324 -0.3471 -0.0891 -0.8246
20918SOL    HW165133   7.864   5.567  10.349 -0.9124  0.9127  0.5538
20918SOL    HW265134   7.755   5.607  10.252 -0.3349  0.6996 -0.1906
20919SOL     OW65135   5.073   3.588   7.080  0.4030 -0.0471 -0.0310
20919SOL    HW165136   5.041   3.572   7.169  0.1069 -0.9200 -0.2854
20919SOL    HW265137   5.041   3.676   7.060 -4.5895 -1.7861 -1.3245
20920SOL     OW65138   0.369   0.216   5.361  0.7629 -0.0429  0.0040
20920SOL    HW165139   0.298   0.276   5.385  0.9842 -0.2180  1.1596
20920SOL    HW265140   0.437   0.231   5.426 -0.0890 -3.1317  1.8130
20921SOL     OW65141   3.136  10.318   3.346 -0.0699 -0.0738  0.2886
20921SOL    HW165142   3.174  10.242   3.391  0.5789 -0.3086 -0.6277
20921SOL    HW265143   3.091  10.281   3.270  1.0562  0.5185 -0.7019
20922SOL     OW65144   2.589   1.508  10.752  0.1370 -0.0588  0.8189
20922SOL    HW165145   2.640   1.439  10.709 -2.9782 -1.1361 -1.5331
20922SOL    HW265146   2.635   1.524  10.834  4.2963 -0.7015 -1.0863
20923SOL     OW65147   0.428   0.413   9.878 -0.0915  0.7820  0.8195
20923SOL    HW165148   0.474   0.357   9.941 -1.4160  0.1512  1.2619
20923SOL    HW265149   0.379   0.475   9.932 -1.3749  0.1250  0.4531
20924SOL     OW65150   0.378   6.176  10.566  0.5493 -0.5057 -0.3481
20924SOL    HW165151   0.407   6.261  10.531 -0.4363  0.9265  2.0537
20924SOL    HW265152   0.432   6.163  10.644  0.3718 -1.8937 -0.4393
20925SOL     OW65153   6.944   3.368   6.283 -0.1558 -0.4980  0.0135
20925SOL    HW165154   6.933   3.275   6.301 -1.4361 -0.4843 -0.5703
20925SOL    HW265155   7.023   3.372   6.228  0.4668 -1.1171  0.8375
20926SOL     OW65156   7.497   1.836   8.107  0.2590  0.5759  0.3145
20926SOL    HW165157   7.460   1.750   8.121 -0.5601  0.7091 -0.8931
20926SOL    HW265158   7.583   1.819   8.068  0.1379  0.2965  0.1660
20927SOL     OW65159   2.789   3.847   2.756 -0.2306  0.2899  0.4191
20927SOL    HW165160   2.754   3.913   2.695 -1.6750  1.1939  2.1224
20927SOL    HW265161   2.852   3.895   2.810 -1.3456  0.3509  1.7205
20928SOL     OW65162   9.595   6.166   2.198 -0.0394  0.0555 -0.2232
20928SOL    HW165163   9.632   6.099   2.256  0.7094  0.5851 -0.0775
20928SOL    HW265164   9.643   6.155   2.116 -1.0157 -0.6156 -0.7183
20929SOL     OW65165   9.726   7.600   6.121  0.0112  0.5537 -0.3204
20929SOL    HW165166   9.705   7.562   6.207  0.1147 -0.2658 -0.6452
20929SOL    HW265167   9.647   7.648   6.096  0.1144  1.1058  0.3975
20930SOL     OW65168   4.850   8.629   8.000 -0.4862 -0.8251 -0.2789
20930SOL    HW165169   4.802   8.711   8.017 -0.8979 -0.7456 -1.7361
20930SOL    HW265170   4.815   8.598   7.917  0.6609 -1.7773 -0.4183
20931SOL     OW65171   5.505   8.054   7.851  0.0283 -0.3548  0.0665
20931SOL    HW165172   5.443   7.990   7.886 -0.5025 -1.1956 -2.1915
20931SOL    HW265173   5.586   8.004   7.838  0.1270 -0.1462 -0.1285
20932SOL     OW65174   3.008   7.047   7.541 -0.2634  0.3206 -0.1996
20932SOL    HW165175   3.059   6.996   7.478  0.3721 -0.1696  0.6957
20932SOL    HW265176   3.050   7.031   7.626 -0.9346  1.1858  0.3197
20933SOL     OW65177   8.438   2.885   3.988  0.8620 -0.5344 -0.3052
20933SOL    HW165178   8.516   2.929   3.955  0.7003  1.8944  2.1894
20933SOL    HW265179   8.369   2.952   3.983  0.3489 -0.6991  2.6911
20934SOL     OW65180   0.021   7.183   9.313 -0.2462 -0.0573  0.1318
20934SOL    HW165181  -0.008   7.111   9.370  0.7353 -1.0354 -0.5487
20934SOL    HW265182   0.058   7.139   9.237  1.1466  1.1652  0.0691
20935SOL     OW65183   6.078   4.316   0.417 -0.1292 -0.3131  0.0293
20935SOL    HW165184   6.106   4.406   0.435  0.6287 -0.7702  1.2909
20935SOL    HW265185   5.982   4.320   0.417 -0.1082  0.6203 -0.6894
20936SOL     OW65186   2.185   5.507   2.567  0.2947 -0.4683  0.0795
20936SOL    HW165187   2.255   5.442   2.567  1.6155  0.8654  2.1865
20936SOL    HW265188   2.217   5.578   2.622 -1.9051  1.1186 -0.5376
20937SOL     OW65189   8.767   5.497   5.230  0.7093 -0.2160  0.1857
20937SOL    HW165190   8.684   5.455   5.253  1.5708 -1.6800  0.7799
20937SOL    HW265191   8.824   5.480   5.305  1.3910  1.2609  0.0379
20938SOL     OW65192   0.875   0.777   9.123 -0.3820  0.3333  0.0814
20938SOL    HW165193   0.798   0.727   9.095 -0.1117  0.4517 -0.9279
20938SOL    HW265194   0.850   0.814   9.207 -1.2854  0.0307 -0.0398
20939SOL     OW65195   8.509   4.821   6.455  0.6678 -0.1168  0.2424
20939SOL    HW165196   8.575   4.835   6.524  1.3135 -1.5667 -0.0500
20939SOL    HW265197   8.469   4.737   6.477 -0.1089  0.0735 -0.3933
20940SOL     OW65198   3.486   2.936   4.605 -0.1811 -0.8725  0.0127
20940SOL    HW165199   3.416   2.976   4.553  0.4721 -0.5796 -0.6504
20940SOL    HW265200   3.440   2.882   4.670 -1.0117 -2.6092 -1.9167
20941SOL     OW65201   2.441   0.992   0.807  0.0313 -0.1153  0.3597
20941SOL    HW165202   2.496   0.921   0.774  1.5043  0.4564  1.4756
20941SOL    HW265203   2.456   1.064   0.746  0.3419 -0.0422  0.5190
20942SOL     OW65204   3.261   4.329   7.050 -0.3329  0.1708 -0.4835
20942SOL    HW165205   3.180   4.328   7.101 -0.3055  2.0724 -0.3384
20942SOL    HW265206   3.303   4.412   7.074  0.4407  0.3848 -2.4356
20943SOL     OW65207   4.457   2.272   3.437 -0.6614 -0.0934  0.6832
20943SOL    HW165208   4.441   2.190   3.391 -0.5458  0.1968  0.1162
20943SOL    HW265209   4.378   2.324   3.420  0.1219  0.6984 -0.7023
20944SOL     OW65210   2.162   3.977   7.201  0.5184  0.6719  0.4479
20944SOL    HW165211   2.096   3.965   7.133  0.6176  1.0603  0.2829
20944SOL    HW265212   2.181   3.888   7.231  0.3830  0.5070  0.0546
20945SOL     OW65213   8.697   9.605   6.407 -0.3590  0.5256  0.2581
20945SOL    HW165214   8.618   9.560   6.377 -0.7857  1.3470  0.1015
20945SOL    HW265215   8.671   9.697   6.412  0.2929  0.6764  1.1969
20946SOL     OW65216   2.770   8.441   2.686  0.0327  0.7082  0.1205
20946SOL    HW165217   2.740   8.373   2.624  0.3936  1.1044 -0.4978
20946SOL    HW265218   2.863   8.453   2.664  0.7513 -0.6222  2.1141
20947SOL     OW65219   3.816   6.492   7.151 -0.1200 -0.1355 -1.4734
20947SOL    HW165220   3.911   6.484   7.140 -0.1475 -0.4905 -1.4858
20947SOL    HW265221   3.805   6.561   7.216  0.1987 -1.0254 -0.4448
20948SOL     OW65222   3.970   4.939   6.787  0.1706  0.0017  0.2907
20948SOL    HW165223   3.946   4.926   6.879  1.0277  0.6950  0.6183
20948SOL    HW265224   3.989   4.850   6.755 -0.7849 -0.3205  0.5841
20949SOL     OW65225   0.970   4.356   9.408  0.2048  0.4191  0.7489
20949SOL    HW165226   0.937   4.438   9.371  0.8300 -0.2495 -1.4054
20949SOL    HW265227   1.047   4.335   9.355  0.5260 -1.1539  1.7840
20950SOL     OW65228   3.541   8.287  10.752  0.3346  0.1613 -0.3247
20950SOL    HW165229   3.554   8.197  10.721  0.5896 -0.2565  0.9422
20950SOL    HW265230   3.447   8.303  10.741  0.6173  0.5520 -2.6042
20951SOL     OW65231   0.399  10.258  10.541 -0.3376 -0.1531 -0.6400
20951SOL    HW165232   0.402  10.316  10.464  0.2165 -0.0036 -0.5109
20951SOL    HW265233   0.347  10.183  10.512 -1.5865  0.6748 -0.6195
20952SOL     OW65234   3.011   2.284   3.198 -0.0073 -0.3628  0.4041
20952SOL    HW165235   3.066   2.358   3.172  2.7099 -2.0391  0.9810
20952SOL    HW265236   3.025   2.276   3.292 -2.1168 -0.2425  0.7735
20953SOL     OW65237   0.015   9.764   3.550 -0.0848  0.2605  0.0644
20953SOL    HW165238   0.028   9.797   3.461  1.3247 -0.6753 -0.1095
20953SOL    HW265239   0.085   9.805   3.601 -0.9871  0.9271  0.8086
20954SOL     OW65240   8.965   0.593  10.028  0.2153 -0.2614  0.7018
20954SOL    HW165241   9.060   0.589  10.019  0.4209 -1.2983  2.6588
20954SOL    HW265242   8.939   0.504  10.051 -1.4873 -0.4090 -1.4239
20955SOL     OW65243   2.977   8.344   6.707  0.7722 -0.0688  0.3675
20955SOL    HW165244   2.917   8.271   6.689  1.6892 -0.7345 -0.0609
20955SOL    HW265245   2.924   8.407   6.755 -0.0050 -1.0896  0.8866
20956SOL     OW65246   5.706   4.902   4.360  0.4228 -0.1166 -0.0825
20956SOL    HW165247   5.691   4.932   4.270 -0.4920 -0.8776 -0.1926
20956SOL    HW265248   5.767   4.966   4.396  1.0230  0.0454 -1.3312
20957SOL     OW65249   9.253   8.893   3.992 -0.8882 -0.5910  0.4101
20957SOL    HW165250   9.251   8.835   4.068 -0.9663 -1.0847  0.0349
20957SOL    HW265251   9.334   8.943   4.003 -0.4889 -1.2230  0.4100
20958SOL     OW65252   2.400   7.229   2.909  0.1335  0.7002  0.4444
20958SOL    HW165253   2.423   7.226   2.816 -1.9073 -0.7713 -0.0979
20958SOL    HW265254   2.435   7.312   2.940  0.9832  1.1742 -1.6007
20959SOL     OW65255   6.387   2.840   5.080  0.0928  0.2824 -0.4379
20959SOL    HW165256   6.359   2.914   5.133  1.3089 -1.6109  3.2230
20959SOL    HW265257   6.483   2.840   5.088  0.3425 -0.1347 -2.7398
20960SOL     OW65258   3.949   4.104   4.978  0.0707  1.0010 -1.0421
20960SOL    HW165259   3.928   4.100   5.071 -1.3545  0.4710 -1.3602
20960SOL    HW265260   3.889   4.170   4.942  1.0398  1.6699 -1.4915
20961SOL     OW65261  10.172   3.128   7.890 -0.0873 -0.3799  0.0988
20961SOL    HW165262  10.104   3.079   7.844 -0.5907  0.7037 -0.3585
20961SOL    HW265263  10.237   3.063   7.914 -1.2104 -1.4172  0.4072
20962SOL     OW65264   2.128   6.249   0.618  0.1604 -0.0153 -0.2435
20962SOL    HW165265   2.203   6.189   0.612  0.7187  0.8059 -2.6642
20962SOL    HW265266   2.055   6.193   0.643  1.3198 -1.0577  0.9776
20963SOL     OW65267   0.760   3.433  10.773 -0.1144 -0.0707  0.3495
20963SOL    HW165268   0.689   3.469  10.826  0.9247  2.4017  0.1775
20963SOL    HW265269   0.753   3.338  10.786 -1.2730  0.2947  3.1000
20964SOL     OW65270   1.718   5.112   9.244  0.2605 -0.2084 -0.0129
20964SOL    HW165271   1.773   5.126   9.321  0.0656 -1.1031  0.3027
20964SOL    HW265272   1.771   5.059   9.185  1.0226  1.7884 -1.2304
20965SOL     OW65273   3.295   0.905   9.662 -0.0191 -0.3320  0.3645
20965SOL    HW165274   3.203   0.879   9.662 -0.3376  0.6985 -0.8019
20965SOL    HW265275   3.323   0.896   9.571  0.4551  1.2205  0.3135
20966SOL     OW65276   5.933   3.780   7.035 -0.0359 -0.0533 -0.1715
20966SOL    HW165277   6.018   3.806   6.999  0.5165 -0.0847  1.0592
20966SOL    HW265278   5.938   3.803   7.128 -1.9620  1.3878 -0.3611
20967SOL     OW65279   7.865   8.792   6.336  0.3925 -0.2497  0.2400
20967SOL    HW165280   7.892   8.810   6.426  0.6538  0.1606  0.0832
20967SOL    HW265281   7.876   8.876   6.290 -0.2789 -0.3061 -0.0406
20968SOL     OW65282   1.981   1.671   8.246 -0.2965 -0.4224 -0.1486
20968SOL    HW165283   1.921   1.745   8.237 -1.2633 -0.9985  1.2082
20968SOL    HW265284   1.989   1.635   8.158  1.3193  2.0897 -1.1533
20969SOL     OW65285   8.160   5.288   3.539  0.0443 -0.6234 -0.2220
20969SOL    HW165286   8.254   5.276   3.522 -0.3635 -2.8941 -1.2407
20969SOL    HW265287   8.122   5.300   3.452 -0.5864  0.7641  0.2193
20970SOL     OW65288   0.925   5.207   1.830  0.5988 -0.4933  0.8487
20970SOL    HW165289   0.957   5.236   1.916  0.8033  1.8798  0.0587
20970SOL    HW265290   0.846   5.259   1.815 -0.8510 -2.6597  0.6111
20971SOL     OW65291   9.984   3.178   0.753 -0.2217  0.2025  0.0426
20971SOL    HW165292   9.924   3.244   0.787 -0.8446 -0.8154  0.9902
20971SOL    HW265293   9.994   3.199   0.660 -2.4190  0.1355 -0.2482
20972SOL     OW65294   7.954   6.142   7.167 -0.0993  0.5742 -0.4153
20972SOL    HW165295   7.876   6.123   7.218  1.0603  0.2651  1.3500
20972SOL    HW265296   7.994   6.217   7.213 -0.6840  2.4926 -2.8270
20973SOL     OW65297   4.541   9.848   0.194  0.3627 -0.3314  0.1952
20973SOL    HW165298   4.608   9.854   0.126  1.2405 -0.7997  0.9843
20973SOL    HW265299   4.499   9.764   0.179 -0.8731  0.4720 -1.0139
20974SOL     OW65300   7.443   3.954   1.807 -0.2901 -0.0138  0.0175
20974SOL    HW165301   7.421   3.883   1.747 -0.6383 -0.3536  0.5421
20974SOL    HW265302   7.471   4.026   1.750  1.1687 -0.9325 -0.4712
20975SOL     OW65303   6.763   0.855   1.888  0.0679 -0.3384 -0.6577
20975SOL    HW165304   6.668   0.852   1.887  0.0577 -1.2772  0.4657
20975SOL    HW265305   6.785   0.883   1.977  0.8427  0.1375 -0.9829
20976SOL     OW65306   5.077   3.504   3.668 -0.0950  0.3644 -0.3742
20976SOL    HW165307   5.122   3.445   3.607 -0.2937  0.5212 -0.6749
20976SOL    HW265308   5.144   3.567   3.693  0.1326 -0.0093 -0.0151
20977SOL     OW65309   8.910   1.789   4.374  0.2566 -0.5745  0.0690
20977SOL    HW165310   8.841   1.778   4.309  0.3752 -2.3969  0.2084
20977SOL    HW265311   8.990   1.758   4.331  0.1929 -2.6219  1.2856
20978SOL     OW65312  10.417   5.331   4.864 -0.4560 -0.8202  0.0174
20978SOL    HW165313  10.450   5.242   4.877 -0.2965 -0.5203  2.0621
20978SOL    HW265314  10.388   5.358   4.951  1.5124  1.9142 -0.0571
20979SOL     OW65315   6.806   2.769   3.862 -0.3588  0.1707 -0.3177
20979SOL    HW165316   6.781   2.701   3.799  0.7217 -0.6374  0.0981
20979SOL    HW265317   6.829   2.721   3.942 -0.2114  1.0695  0.1984
20980SOL     OW65318   7.851   4.735   1.486 -0.1529 -0.3754  0.0140
20980SOL    HW165319   7.826   4.826   1.473  1.2988 -0.0459 -0.7440
20980SOL    HW265320   7.806   4.687   1.417  1.0022  0.1609 -1.1614
20981SOL     OW65321   3.794   5.279   7.376 -0.4759  0.3806  0.4137
20981SOL    HW165322   3.864   5.312   7.320  1.5066 -0.2732  2.3615
20981SOL    HW265323   3.724   5.343   7.369 -0.0562  0.6388 -2.2513
20982SOL     OW65324   1.434   9.568   3.741  0.5389  0.2062  0.3472
20982SOL    HW165325   1.403   9.657   3.726 -2.2731 -0.4666  1.5391
20982SOL    HW265326   1.399   9.517   3.668  0.3355 -0.2720  0.7731
20983SOL     OW65327   7.224   4.849   9.060 -0.4640 -0.2211  0.5450
20983SOL    HW165328   7.168   4.785   9.104 -0.0332 -1.3450 -0.4692
20983SOL    HW265329   7.232   4.921   9.122 -0.8385 -1.2140  1.7936
20984SOL     OW65330   4.669   8.074   7.169 -0.2982 -0.0244  0.2691
20984SOL    HW165331   4.671   8.015   7.094 -0.0519  1.0017 -0.5579
20984SOL    HW265332   4.576   8.085   7.189 -0.3719 -0.1960  0.0262
20985SOL     OW65333  10.005   5.256   9.159  0.6869 -0.0302 -0.9356
20985SOL    HW165334  10.014   5.253   9.064 -0.9233  0.1420 -1.1304
20985SOL    HW265335   9.916   5.226   9.175  0.6865  0.6406  0.4684
20986SOL     OW65336   8.016   4.899   1.177 -0.4314  0.2152 -0.1766
20986SOL    HW165337   8.083   4.954   1.137 -0.9843  1.4044  0.5135
20986SOL    HW265338   7.935   4.949   1.171 -1.6046 -1.7096 -2.1593
20987SOL     OW65339   0.216   6.879   0.531  0.2070  0.6096  0.2928
20987SOL    HW165340   0.300   6.902   0.571 -0.9684  1.8723  2.2094
20987SOL    HW265341   0.186   6.802   0.579  0.7981 -0.6262 -1.2434
20988SOL     OW65342   2.436   5.860   8.225 -0.0274 -0.8822  0.6725
20988SOL    HW165343   2.393   5.794   8.170  0.6319 -0.3589 -0.5346
20988SOL    HW265344   2.529   5.853   8.201 -0.1220  1.5555 -0.7440
20989SOL     OW65345   1.626  10.539   6.662  0.5994  0.2875 -0.4454
20989SOL    HW165346   1.532  10.557   6.656  0.4901 -0.0540  0.1441
20989SOL    HW265347   1.665  10.589   6.590 -0.0012  0.6698 -0.5115
20990SOL     OW65348   3.849   2.752  10.350  0.4707  0.7903  0.2663
20990SOL    HW165349   3.792   2.735  10.275  1.1824  1.5163 -0.4591
20990SOL    HW265350   3.888   2.667  10.371  0.6018  0.6657 -0.4711
20991SOL     OW65351   2.131   3.203   9.722  0.0468  0.1293  0.0064
20991SOL    HW165352   2.038   3.226   9.728 -0.3282 -1.2262 -0.1918
20991SOL    HW265353   2.177   3.283   9.747 -1.1940  0.2739  2.0422
20992SOL     OW65354   1.037   2.301   4.778  0.3840  0.2055 -0.2224
20992SOL    HW165355   1.113   2.357   4.796  1.3387 -1.8449  3.1033
20992SOL    HW265356   0.962   2.353   4.807  0.9053  0.9617 -0.2006
20993SOL     OW65357   6.438   8.939   8.950 -0.3493  0.0869 -0.3022
20993SOL    HW165358   6.452   8.932   8.855 -0.7372 -0.4541 -0.3259
20993SOL    HW265359   6.377   8.868   8.970  0.1276 -0.1227  0.4345
20994SOL     OW65360   1.647   5.435   4.839 -0.0492 -0.1487  0.2723
20994SOL    HW165361   1.679   5.380   4.911 -0.1676 -0.0501  0.3985
20994SOL    HW265362   1.572   5.482   4.876  0.3468  0.4608  0.3107
20995SOL     OW65363   1.449   2.486   2.988 -0.4087 -0.4001 -0.4653
20995SOL    HW165364   1.423   2.577   2.971  0.4944 -0.2674 -1.1995
20995SOL    HW265365   1.387   2.456   3.054 -0.0657  1.0742  0.5756
20996SOL     OW65366   1.224   5.296   4.428  0.3287  0.6493 -0.3552
20996SOL    HW165367   1.314   5.307   4.462 -0.1686 -0.0731  1.3235
20996SOL    HW265368   1.169   5.299   4.507 -1.0495  0.3087 -1.2806
20997SOL     OW65369   9.357   2.655   4.461  0.2150  0.1455  0.0475
20997SOL    HW165370   9.304   2.602   4.519 -1.0329  1.1190 -0.1646
20997SOL    HW265371   9.364   2.603   4.380 -0.9649  0.2788 -0.1522
20998SOL     OW65372   8.773   5.965   9.581 -0.3658 -0.6527 -0.3912
20998SOL    HW165373   8.680   5.972   9.557 -0.3395 -1.5466 -0.7730
20998SOL    HW265374   8.802   5.882   9.543  0.3544 -0.8313  0.5108
20999SOL     OW65375   7.511  10.640   3.134  0.5263 -0.1798  0.5127
20999SOL    HW165376   7.594  10.623   3.178 -0.1027  1.2707  2.4149
20999SOL    HW265377   7.535  10.657   3.043  2.2508 -0.3192  0.9112
21000SOL     OW65378   1.971  10.452   3.355  0.4286  0.0975 -0.5070
21000SOL    HW165379   2.014  10.502   3.285  0.2797 -1.3630 -1.6921
21000SOL    HW265380   2.026  10.374   3.365 -1.1905 -1.1475 -1.0902
21001SOL     OW65381   0.922   5.866   3.323 -0.0129  0.1566  0.1756
21001SOL    HW165382   0.950   5.775   3.323 -0.8625 -0.1318  1.2194
21001SOL    HW265383   0.871   5.876   3.243 -0.6959 -0.5554  0.5084
21002SOL     OW65384   0.187   6.818   1.920 -0.5633  0.2663  0.6553
21002SOL    HW165385   0.111   6.765   1.944  0.1165 -0.5921  0.9656
21002SOL    HW265386   0.216   6.783   1.836 -0.4193  0.4802  0.6147
21003SOL     OW65387   6.862   1.568  10.143  0.2665 -0.5021  0.3494
21003SOL    HW165388   6.783   1.617  10.121 -0.5254 -1.4515  1.0202
21003SOL    HW265389   6.899   1.543  10.058  1.8495  2.9118 -0.1589
21004SOL     OW65390   4.291   4.514   1.416 -0.2909 -0.3529 -0.0318
21004SOL    HW165391   4.198   4.514   1.391 -0.8562 -1.2571  1.9377
21004SOL    HW265392   4.334   4.462   1.347 -1.4022 -0.8153 -0.3973
21005SOL     OW65393   9.530   2.400   7.345  0.3317 -0.0124  0.0067
21005SOL    HW165394   9.572   2.317   7.368 -0.2166 -0.4150 -0.4105
21005SOL    HW265395   9.457   2.407   7.407  1.0921  0.7746  0.8523
21006SOL     OW65396   9.056   8.493   0.715 -0.0543  0.3675  0.4998
21006SOL    HW165397   9.083   8.545   0.639 -1.8955  1.2806  0.4045
21006SOL    HW265398   8.988   8.435   0.681 -2.0858  1.9139  1.6727
21007SOL     OW65399   4.408   3.620   4.803  0.2631 -0.7593 -0.4704
21007SOL    HW165400   4.361   3.538   4.790  1.1451 -1.1370 -1.4890
21007SOL    HW265401   4.342   3.681   4.836 -0.7647 -1.4532 -1.1791
21008SOL     OW65402   6.801   0.347   1.336  0.9259 -0.2049 -0.1346
21008SOL    HW165403   6.864   0.296   1.286  0.0422 -1.9958  0.4749
21008SOL    HW265404   6.853   0.412   1.382  2.0512 -0.2611 -1.2879
21009SOL     OW65405   7.160   3.913   2.216  0.1732  0.2146  0.2389
21009SOL    HW165406   7.121   3.845   2.270 -1.8733  1.0686 -0.0589
21009SOL    HW265407   7.173   3.987   2.276  1.4023 -0.0618  0.3367
21010SOL     OW65408   7.324   4.743   3.575  0.4360 -0.8990  0.0416
21010SOL    HW165409   7.398   4.791   3.539 -0.1950 -0.6402 -0.9335
21010SOL    HW265410   7.248   4.799   3.561 -0.3259 -2.1628 -1.1554
21011SOL     OW65411   7.807   5.481   4.919 -0.6809  0.5958 -0.3499
21011SOL    HW165412   7.856   5.473   5.001  0.3613  0.3241 -0.9903
21011SOL    HW265413   7.742   5.550   4.937 -0.4250  0.5877  0.6729
21012SOL     OW65414   8.760  10.484   6.610 -0.4273  0.0759  0.4093
21012SOL    HW165415   8.754  10.552   6.543  2.2375  0.2783  0.2725
21012SOL    HW265416   8.674  10.484   6.652 -0.8413  2.8248 -0.2620
21013SOL     OW65417   9.217   3.657   4.975  0.2940  0.3193  0.5373
21013SOL    HW165418   9.153   3.712   4.930  1.8850  2.0421  0.2658
21013SOL    HW265419   9.243   3.592   4.910 -0.6849 -0.0028  0.4507
21014SOL     OW65420   4.780   0.577   5.398  0.1228  0.1385  0.2271
21014SOL    HW165421   4.765   0.482   5.390 -0.3970  0.1846  0.5696
21014SOL    HW265422   4.768   0.611   5.310 -0.4470 -0.0197  0.2385
21015SOL     OW65423   2.547  10.696   6.479 -0.2596  0.0436 -0.4322
21015SOL    HW165424   2.506  10.654   6.554 -2.4368 -0.2813 -1.7227
21015SOL    HW265425   2.554  10.628   6.412  0.4572  0.6200 -0.9747
21016SOL     OW65426   6.776   5.990   4.046  0.0569  0.1311 -0.2139
21016SOL    HW165427   6.706   5.937   4.008  1.0072 -0.3484 -1.3500
21016SOL    HW265428   6.781   5.961   4.138 -1.6340  0.6322  0.0766
21017SOL     OW65429   3.528   4.588   2.293 -0.5840 -0.1597  0.1824
21017SOL    HW165430   3.519   4.681   2.315  2.2267  0.7735 -2.0013
21017SOL    HW265431   3.539   4.588   2.198  1.8979 -2.4662  0.3785
21018SOL     OW65432   0.268   5.958   0.021  0.1225  0.1849 -0.0181
21018SOL    HW165433   0.349   5.911   0.004  1.2294  1.6830  0.9210
21018SOL    HW265434   0.225   5.908   0.091  1.6942  0.9739  1.5798
21019SOL     OW65435  10.472   8.933   8.458 -0.3378 -0.3966 -0.3080
21019SOL    HW165436  10.400   8.894   8.408 -1.9319  1.4965  0.3837
21019SOL    HW265437  10.444   8.925   8.549 -0.2135  1.3537 -0.0906
21020SOL     OW65438   2.063   8.553   8.882  0.0563  0.5546  0.1439
21020SOL    HW165439   2.139   8.495   8.882 -0.3004 -0.0092 -2.1345
21020SOL    HW265440   2.044   8.569   8.975  0.8943 -2.0203  0.8217
21021SOL     OW65441  10.432   1.023   3.926 -0.4552  0.4633  0.9321
21021SOL    HW165442  10.492   0.998   3.996  0.5102  0.4438  0.1258
21021SOL    HW265443  10.441   1.118   3.920 -0.5038  0.4596  0.8053
21022SOL     OW65444   4.783   6.278   6.283  0.8022  0.5634  0.2436
21022SOL    HW165445   4.872   6.244   6.283  1.1002  1.2793 -0.6477
21022SOL    HW265446   4.793   6.371   6.303  0.3892  0.9008 -0.9877
21023SOL     OW65447  10.092   6.141   4.248  0.1609 -0.2417 -0.5071
21023SOL    HW165448  10.062   6.173   4.333 -0.4169 -0.4751 -0.6173
21023SOL    HW265449  10.016   6.094   4.212  0.6082 -0.7002 -0.8667
21024SOL     OW65450   8.625   7.110   5.512 -0.6662  0.4168 -0.0924
21024SOL    HW165451   8.597   7.115   5.421  1.2259  2.7671 -0.6283
21024SOL    HW265452   8.710   7.067   5.509 -0.1955  1.2805  0.4362
21025SOL     OW65453   8.235   6.371   9.623  0.4594  0.6264  0.5129
21025SOL    HW165454   8.161   6.358   9.683  1.0362 -3.1768  0.6372
21025SOL    HW265455   8.194   6.387   9.538 -0.4002  2.7561  1.2776
21026SOL     OW65456   3.826   3.674   3.256 -0.2398  0.2660 -0.1241
21026SOL    HW165457   3.901   3.706   3.306  0.0288 -1.0669  0.3714
21026SOL    HW265458   3.791   3.752   3.213  0.8755  1.0655  0.3592
21027SOL     OW65459   5.828   5.805   0.100  0.7012  0.0321  0.3055
21027SOL    HW165460   5.788   5.733   0.051 -2.3129  0.5871  1.6981
21027SOL    HW265461   5.759   5.871   0.106  2.5299  1.9841  1.2380
21028SOL     OW65462   9.400   2.533   3.220 -0.6904 -0.6749 -0.6342
21028SOL    HW165463   9.474   2.491   3.176 -0.7841 -0.9842 -0.4980
21028SOL    HW265464   9.424   2.533   3.313 -0.7290 -0.5019 -0.6226
21029SOL     OW65465   2.737   9.087   6.861  0.2410 -0.3113  0.2239
21029SOL    HW165466   2.702   9.167   6.823 -1.0861 -0.4843  1.0198
21029SOL    HW265467   2.830   9.105   6.875  0.3929  0.3414 -1.4864
21030SOL     OW65468   8.121   5.291   2.790  0.3250  0.2252  0.5634
21030SOL    HW165469   8.163   5.375   2.771  0.3381  0.3617  1.1575
21030SOL    HW265470   8.044   5.289   2.734  0.4438  0.5388  0.3844
21031SOL     OW65471   5.062   0.983   2.017 -0.1785  0.1718 -0.0124
21031SOL    HW165472   4.977   0.964   1.976 -0.4415  0.6764  0.2874
21031SOL    HW265473   5.040   1.018   2.103  0.2653  1.8892 -0.5582
21032SOL     OW65474   7.389   0.025   6.041  0.0546  0.8994 -0.2800
21032SOL    HW165475   7.462   0.065   6.089  0.4577  0.6742 -0.6915
21032SOL    HW265476   7.430  -0.008   5.961 -0.3474  0.0276 -0.1301
21033SOL     OW65477   7.898   5.678   1.239  0.5012  0.7263 -0.2704
21033SOL    HW165478   7.841   5.622   1.186 -0.4320  2.2711 -0.9341
21033SOL    HW265479   7.848   5.758   1.254  2.0364  1.6622  0.1333
21034SOL     OW65480   3.207   5.508   9.807  0.5024  0.3903  0.1125
21034SOL    HW165481   3.294   5.488   9.772  0.8798  1.0238  0.6595
21034SOL    HW265482   3.183   5.591   9.767 -0.6763 -0.6453 -1.4614
21035SOL     OW65483   4.373   4.599   3.188  0.3208  0.3985 -0.1045
21035SOL    HW165484   4.356   4.684   3.148 -0.6510 -0.9320 -2.7775
21035SOL    HW265485   4.468   4.590   3.187  0.3838  1.0477 -0.7677
21036SOL     OW65486   6.322   2.521   9.161 -0.4695  0.6350  0.7232
21036SOL    HW165487   6.401   2.498   9.209 -1.2222 -0.7210  1.3628
21036SOL    HW265488   6.351   2.586   9.097  1.0069  0.7143  1.4354
21037SOL     OW65489   4.023   5.058   0.726  0.0734 -0.1530  0.5392
21037SOL    HW165490   3.974   5.094   0.801 -0.4865  1.4369 -0.5348
21037SOL    HW265491   4.113   5.049   0.758 -0.0512  0.9807  1.2766
21038SOL     OW65492   0.983   2.351   5.241 -0.0871  0.1518  0.4069
21038SOL    HW165493   0.962   2.280   5.301 -0.2880  0.9495  1.3048
21038SOL    HW265494   1.026   2.417   5.295 -1.8598  1.6648  0.0899
21039SOL     OW65495   6.459   5.824   6.532  0.0243  0.8639  0.3009
21039SOL    HW165496   6.399   5.775   6.589  0.7084 -0.7081 -0.2622
21039SOL    HW265497   6.407   5.842   6.453  0.4739 -1.3246 -0.5843
21040SOL     OW65498   3.882   0.169   1.651  0.0658 -0.1885 -0.0659
21040SOL    HW165499   3.849   0.098   1.596 -0.3572 -0.3351  0.3619
21040SOL    HW265500   3.853   0.249   1.607  1.6244 -0.2296 -1.2203
21041SOL     OW65501   8.599   4.768   3.029 -0.0071 -0.1295 -0.6820
21041SOL    HW165502   8.663   4.828   2.991  2.4381 -1.3403  1.2313
21041SOL    HW265503   8.642   4.683   3.028 -1.7154 -1.0588  0.4376
21042SOL     OW65504   1.258   1.329   7.119  0.2557 -0.2232  0.2050
21042SOL    HW165505   1.320   1.314   7.047 -1.0242 -0.5465 -0.8586
21042SOL    HW265506   1.301   1.290   7.196  2.0370  0.9104 -0.1736
21043SOL     OW65507  10.336   8.320   6.604  0.2610  0.2290 -1.0250
21043SOL    HW165508  10.311   8.396   6.551 -0.8866  0.4481 -0.2013
21043SOL    HW265509  10.392   8.268   6.546  0.6608  1.4384 -1.7753
21044SOL     OW65510   2.023   0.522   3.734  0.3620 -0.2799 -0.1918
21044SOL    HW165511   1.945   0.470   3.716  0.0305 -1.5975  3.9795
21044SOL    HW265512   1.992   0.597   3.783  1.5935 -0.7804  1.4706
21045SOL     OW65513   3.438   2.235   5.822 -0.9541 -0.6817  0.0167
21045SOL    HW165514   3.496   2.167   5.787 -1.5904 -2.0134  1.4675
21045SOL    HW265515   3.353   2.216   5.783 -0.7073  0.6316 -1.2662
21046SOL     OW65516   9.923  10.601   1.878 -0.0908  0.4038  0.0352
21046SOL    HW165517   9.836  10.624   1.909 -0.2266 -0.7051  0.4937
21046SOL    HW265518   9.924  10.632   1.787 -1.5862 -1.0556 -0.5406
21047SOL     OW65519  10.736   8.290  10.185 -0.2206 -0.0601 -0.5593
21047SOL    HW165520  10.774   8.319  10.268 -1.6902  1.3532 -0.3282
21047SOL    HW265521  10.641   8.304  10.196 -0.6254 -1.4935 -1.8505
21048SOL     OW65522   5.476   6.729   3.427  0.4284  0.5450 -0.1634
21048SOL    HW165523   5.553   6.671   3.427  0.6503  0.8060 -1.6787
21048SOL    HW265524   5.408   6.678   3.384  0.1852  0.8533 -0.1437
21049SOL     OW65525   4.547   8.391   8.864  0.0707 -0.1128 -0.0739
21049SOL    HW165526   4.616   8.436   8.815  1.3782 -2.6100 -0.6499
21049SOL    HW265527   4.581   8.385   8.953  0.1339 -0.4789 -0.1250
21050SOL     OW65528   5.307   2.515   8.323 -0.4709  0.8900 -0.0024
21050SOL    HW165529   5.282   2.433   8.367  0.8215  0.3720 -0.1710
21050SOL    HW265530   5.287   2.500   8.231 -0.8416  1.0107  0.0586
21051SOL     OW65531   8.577   2.186   6.237  0.3983 -0.1873 -0.2041
21051SOL    HW165532   8.607   2.113   6.183 -0.0585 -2.1694  2.0788
21051SOL    HW265533   8.655   2.212   6.287  1.0243  2.1497 -2.1929
21052SOL     OW65534   6.473   2.889   9.159 -0.0336  0.5934 -0.5843
21052SOL    HW165535   6.566   2.882   9.181 -0.1986 -0.1424 -0.0747
21052SOL    HW265536   6.429   2.899   9.243 -0.4693  0.2794 -0.7703
21053SOL     OW65537   1.658   0.728   6.965 -0.0445 -0.0266 -0.1820
21053SOL    HW165538   1.696   0.767   7.044 -0.9942 -0.3954  0.4718
21053SOL    HW265539   1.578   0.777   6.949  0.9477  1.1331 -1.9011
21054SOL     OW65540   0.568   2.515   9.489 -0.6538 -0.1805 -0.3299
21054SOL    HW165541   0.497   2.460   9.457  0.1644 -0.2929 -2.0290
21054SOL    HW265542   0.627   2.455   9.534  0.3571 -0.8206 -2.3772
21055SOL     OW65543   2.135   6.615   2.815  0.1224  0.4689 -0.2131
21055SOL    HW165544   2.132   6.620   2.910 -1.0262  1.2145 -0.2702
21055SOL    HW265545   2.140   6.522   2.796 -2.4636  0.1098  0.5420
21056SOL     OW65546   4.454   0.141  10.615  0.5196 -0.5059 -0.1751
21056SOL    HW165547   4.429   0.058  10.655  0.8167  0.0218  1.1946
21056SOL    HW265548   4.457   0.124  10.521 -1.4798 -1.4849 -0.1103
21057SOL     OW65549   7.266   1.808  10.240 -0.7825  0.8297  0.0172
21057SOL    HW165550   7.183   1.838  10.202 -0.3830  3.1683  0.7950
21057SOL    HW265551   7.326   1.882  10.228  1.6577 -1.2521 -1.6790
21058SOL     OW65552   4.699   6.355   7.421 -0.1412  0.3548  0.4557
21058SOL    HW165553   4.794   6.361   7.419 -0.1713  0.9926  0.8714
21058SOL    HW265554   4.681   6.261   7.422  0.4828  0.2324  0.4027
21059SOL     OW65555   5.135   2.730   8.382 -0.0210 -0.0643  0.3497
21059SOL    HW165556   5.186   2.650   8.397  1.1675  0.4081 -0.9934
21059SOL    HW265557   5.097   2.718   8.295 -0.2154  0.6566  0.3295
21060SOL     OW65558   5.475   0.896   0.898  0.4946  0.2574  0.7336
21060SOL    HW165559   5.390   0.859   0.875 -0.2427  1.1763  1.8535
21060SOL    HW265560   5.539   0.837   0.859 -0.6546 -0.6599  0.1954
21061SOL     OW65561   7.913   0.085   2.392 -0.3177 -0.4105 -0.5437
21061SOL    HW165562   7.916  -0.006   2.419  0.1318 -0.3829 -0.5031
21061SOL    HW265563   7.913   0.135   2.474  0.8895 -0.3304 -0.5738
21062SOL     OW65564   3.457   7.641   9.539 -1.0188  0.4477 -0.4261
21062SOL    HW165565   3.541   7.646   9.584 -1.5718 -0.2177  0.7073
21062SOL    HW265566   3.409   7.718   9.569 -0.2440  1.7708 -2.3572
21063SOL     OW65567   3.133   4.498   7.248 -0.1531 -0.5891 -0.5915
21063SOL    HW165568   3.179   4.475   7.329 -0.7691 -0.3292 -0.1628
21063SOL    HW265569   3.143   4.593   7.240  1.5317 -0.8115 -1.8383
21064SOL     OW65570   2.095   5.624   5.842 -0.0597 -0.2312 -0.4702
21064SOL    HW165571   2.047   5.592   5.766 -1.9214  0.2312  0.4600
21064SOL    HW265572   2.119   5.714   5.820 -0.0825 -0.2915 -0.7407
21065SOL     OW65573   1.656   3.001   7.531  0.3018  0.2120 -0.2063
21065SOL    HW165574   1.583   3.059   7.554  0.7010  0.0654  1.5997
21065SOL    HW265575   1.693   3.039   7.451  0.5713  2.5185  0.9276
21066SOL     OW65576  10.002   6.131   1.365 -0.3288 -0.3429  0.2765
21066SOL    HW165577  10.073   6.120   1.302 -0.3780 -1.4852  0.3975
21066SOL    HW265578   9.997   6.226   1.380  0.6975 -0.1953 -0.2603
21067SOL     OW65579   9.112   3.711   8.647  0.5282  0.2220  0.0636
21067SOL    HW165580   9.190   3.689   8.596  0.4744  1.3478 -0.5518
21067SOL    HW265581   9.040   3.707   8.583  0.2836  0.4826  0.3168
21068SOL     OW65582   3.881   8.981   3.675 -0.5018  0.1168  0.0213
21068SOL    HW165583   3.934   8.977   3.755 -0.6338  0.6743  0.1399
21068SOL    HW265584   3.791   8.974   3.706 -0.5732  0.7303 -0.0414
21069SOL     OW65585   9.918   7.675   2.346 -0.1484 -0.5017 -0.0890
21069SOL    HW165586   9.983   7.729   2.301 -0.5410 -0.0206 -0.0942
21069SOL    HW265587   9.910   7.715   2.432 -1.0780  0.0034 -0.3868
21070SOL     OW65588   8.398   1.673   8.327  0.2720 -0.1174 -0.1295
21070SOL    HW165589   8.380   1.642   8.239  1.9168 -0.1468 -0.4819
21070SOL    HW265590   8.364   1.763   8.329 -1.1826 -0.6424 -0.2678
21071SOL     OW65591   5.581   5.683   8.669  0.7521  0.0415  0.0069
21071SOL    HW165592   5.553   5.772   8.648 -1.4414 -0.4569  0.5698
21071SOL    HW265593   5.606   5.688   8.762  0.8718  0.1203 -0.0289
21072SOL     OW65594   7.082   9.740  10.068  0.3141 -0.3857  0.0641
21072SOL    HW165595   7.126   9.818  10.100 -0.0853  0.2587 -0.9264
21072SOL    HW265596   6.990   9.766  10.062  0.6095  0.3218 -3.7409
21073SOL     OW65597   8.709   1.831   9.989 -0.7334  0.1675 -0.0124
21073SOL    HW165598   8.788   1.841  10.042 -0.9236 -0.0839  0.3225
21073SOL    HW265599   8.702   1.913   9.940  0.4751 -0.3046 -1.0639
21074SOL     OW65600   9.271   3.807   0.766  0.3097  0.4821 -0.3269
21074SOL    HW165601   9.210   3.811   0.692 -1.2550 -0.6178  0.8605
21074SOL    HW265602   9.337   3.744   0.738 -0.3684 -0.0630 -0.7190
21075SOL     OW65603   1.467   8.390   5.574  0.1303  0.4524 -0.0466
21075SOL    HW165604   1.460   8.307   5.623  1.5021 -0.2787 -1.0093
21075SOL    HW265605   1.540   8.435   5.615 -2.1366  2.4547  2.1409
21076SOL     OW65606   1.276   9.883   0.134  0.0416  0.3136 -0.0794
21076SOL    HW165607   1.316   9.964   0.166  2.0203 -0.2974 -0.8605
21076SOL    HW265608   1.212   9.912   0.068 -0.5911  1.2959  0.9237
21077SOL     OW65609   3.218   1.333   5.668 -0.0381  0.3236  0.2798
21077SOL    HW165610   3.130   1.310   5.640  0.8857 -0.2749 -2.5213
21077SOL    HW265611   3.248   1.397   5.603  2.2341 -0.9580 -0.0661
21078SOL     OW65612   5.693   9.053   7.189  0.1736  0.4144 -0.4775
21078SOL    HW165613   5.722   9.080   7.276  2.7501  0.7839 -1.3487
21078SOL    HW265614   5.681   9.135   7.141  2.2157  0.2562 -1.4042
21079SOL     OW65615   8.767  10.221   2.851  0.3173 -0.0702 -0.0828
21079SOL    HW165616   8.788  10.305   2.891  0.4270  0.6395 -1.5289
21079SOL    HW265617   8.699  10.242   2.786  1.4473 -0.7878 -1.5715
21080SOL     OW65618   6.642   9.641   4.752 -0.5304  0.1341 -0.0211
21080SOL    HW165619   6.567   9.618   4.807 -1.2814  0.9787 -0.6668
21080SOL    HW265620   6.612   9.716   4.702  1.3699  1.6383  0.9925
21081SOL     OW65621  10.268   6.337   1.403 -0.4200  0.3247  0.0137
21081SOL    HW165622  10.347   6.391   1.398  0.2819 -0.6006  0.7508
21081SOL    HW265623  10.300   6.247   1.391 -1.4205 -0.0239 -0.1067
21082SOL     OW65624   5.391   2.908   8.293  0.3977  0.1532 -0.6000
21082SOL    HW165625   5.426   2.823   8.319  2.1625  0.4477 -1.8038
21082SOL    HW265626   5.297   2.893   8.284  0.6849 -1.7439 -1.0274
21083SOL     OW65627   5.352   7.646   5.600 -0.3746 -0.2950  0.1107
21083SOL    HW165628   5.383   7.735   5.618 -0.2239 -0.0067 -1.4454
21083SOL    HW265629   5.355   7.602   5.686  2.7291  0.2057  0.3954
21084SOL     OW65630  10.310   8.996   7.295  0.3482  0.3060 -0.2842
21084SOL    HW165631  10.317   9.083   7.335 -1.2069  0.5558 -0.4769
21084SOL    HW265632  10.245   9.007   7.225  0.5874 -0.8752 -0.7230
21085SOL     OW65633   4.042   9.937   8.672 -0.5290 -0.6581  0.0521
21085SOL    HW165634   4.072  10.019   8.713  0.1391 -2.5745  3.8888
21085SOL    HW265635   3.954   9.924   8.708  0.1580 -2.5400  1.2047
21086SOL     OW65636   3.499   0.894   4.934 -0.5808 -0.4597 -0.3891
21086SOL    HW165637   3.568   0.898   4.867 -0.1052  0.7142  0.1289
21086SOL    HW265638   3.517   0.814   4.983 -0.4306 -0.8898 -1.1328
21087SOL     OW65639   3.816   7.802   6.180  0.0223  0.6579 -0.4557
21087SOL    HW165640   3.782   7.890   6.163 -1.5418 -0.2035 -2.1666
21087SOL    HW265641   3.744   7.757   6.224  0.6627  0.1225  0.0548
21088SOL     OW65642   5.455   3.744   0.303 -0.3904  0.2008 -0.3030
21088SOL    HW165643   5.529   3.790   0.263  0.6291 -0.0014  1.2954
21088SOL    HW265644   5.485   3.654   0.314  0.6910  0.8609  3.8059
21089SOL     OW65645   4.398   3.788   5.581  0.1119 -0.3015  0.3897
21089SOL    HW165646   4.458   3.847   5.535 -0.5219  0.3805  0.4164
21089SOL    HW265647   4.362   3.732   5.513  0.0702 -0.0783  0.2240
21090SOL     OW65648   3.964   9.004   1.764  0.5796  0.0946  0.4419
21090SOL    HW165649   3.978   9.081   1.709  1.6201  0.0704  0.6543
21090SOL    HW265650   3.874   9.013   1.796 -0.0782  0.0567 -1.3167
21091SOL     OW65651   2.000   4.599   0.913 -0.3353  1.0494  0.6491
21091SOL    HW165652   1.969   4.563   0.830  2.1498 -2.9340  1.1771
21091SOL    HW265653   2.088   4.631   0.895  0.4235 -0.2949  1.7272
21092SOL     OW65654   9.579  10.248   0.548  0.2781 -0.3142  0.3138
21092SOL    HW165655   9.565  10.342   0.558  0.0865 -0.3987  0.8710
21092SOL    HW265656   9.515  10.208   0.607 -0.0534 -0.8080 -0.3642
21093SOL     OW65657   7.988   0.292   6.479 -0.0203 -0.0275  0.3306
21093SOL    HW165658   8.019   0.382   6.469  0.8902 -0.4822 -1.1222
21093SOL    HW265659   7.947   0.291   6.566 -0.5259  1.9106  0.1626
21094SOL     OW65660   5.736   7.510   3.096 -0.2968 -0.3015 -0.3218
21094SOL    HW165661   5.749   7.565   3.019 -0.1427 -0.5166 -0.4502
21094SOL    HW265662   5.825   7.487   3.124 -0.1581  2.1891  1.6847
21095SOL     OW65663   5.333   5.872   9.874 -0.0487  0.4561 -0.1745
21095SOL    HW165664   5.264   5.857   9.939 -0.7986 -0.5959 -1.1704
21095SOL    HW265665   5.400   5.807   9.894 -0.4193 -0.0741 -0.6194
21096SOL     OW65666   4.056   2.099   0.007  0.2847 -0.0034 -0.5236
21096SOL    HW165667   3.967   2.119   0.036  0.5621  1.0546 -0.3246
21096SOL    HW265668   4.045   2.039  -0.067 -0.6235  0.6077 -0.9016
21097SOL     OW65669   4.173   3.271   3.072  0.3496 -0.0683 -0.0033
21097SOL    HW165670   4.109   3.278   3.001  0.7158 -0.5853 -0.3917
21097SOL    HW265671   4.251   3.314   3.038 -0.2634  2.0403  1.0814
21098SOL     OW65672  10.637   8.110   6.742 -0.3396  0.7966  0.6508
21098SOL    HW165673  10.637   8.115   6.646 -0.2495  1.3560  0.6766
21098SOL    HW265674  10.624   8.200   6.771 -0.9197  0.5598  1.1632
21099SOL     OW65675   9.532   7.341   7.249  0.2259  0.5115 -0.0560
21099SOL    HW165676   9.576   7.263   7.284  0.0600  0.0039 -0.9405
21099SOL    HW265677   9.469   7.365   7.316 -0.1683 -0.5075 -0.0430
21100SOL     OW65678   0.140   6.422  10.554 -0.4641  0.3964  0.9908
21100SOL    HW165679   0.176   6.333  10.555 -0.7202  0.2923  1.4377
21100SOL    HW265680   0.071   6.420  10.488 -0.1775  0.3835  0.6907
21101SOL     OW65681   6.414   3.105   4.084  0.4168 -0.4506 -0.5125
21101SOL    HW165682   6.504   3.076   4.068  1.3086  2.6580 -1.9938
21101SOL    HW265683   6.417   3.145   4.171  0.4400 -0.4500 -0.5134
21102SOL     OW65684   5.532   8.420   5.012  0.2864  0.3902  0.0685
21102SOL    HW165685   5.552   8.331   5.043  0.3588  0.3536 -0.0820
21102SOL    HW265686   5.617   8.455   4.986  0.3019  0.6215  0.4386
21103SOL     OW65687   4.586   9.815   9.454 -0.1578  0.2788 -0.1966
21103SOL    HW165688   4.521   9.885   9.463  0.4046  0.6064  1.9177
21103SOL    HW265689   4.669   9.862   9.444  0.0605 -0.0874 -0.1044
21104SOL     OW65690   1.301   1.218   7.372 -0.1096 -0.6109 -0.6617
21104SOL    HW165691   1.304   1.144   7.433 -0.3680 -3.1604 -3.5378
21104SOL    HW265692   1.392   1.235   7.350 -0.0645 -0.1470 -0.1547
21105SOL     OW65693   9.226   2.740  10.603  0.3049  0.1191 -0.3520
21105SOL    HW165694   9.158   2.674  10.588  1.2976 -1.2465  0.8073
21105SOL    HW265695   9.284   2.699  10.667  0.7532  2.3120  0.7169
21106SOL     OW65696  10.311   5.735   3.981  0.2497  0.6173 -0.5594
21106SOL    HW165697  10.239   5.774   4.031 -0.2910 -0.7428 -0.2393
21106SOL    HW265698  10.268   5.672   3.923  1.1992 -0.5297 -0.0607
21107SOL     OW65699   4.122   6.847   1.949  0.1930  0.5130  0.0870
21107SOL    HW165700   4.183   6.780   1.979 -0.3483 -0.0540 -0.0432
21107SOL    HW265701   4.113   6.831   1.855 -0.8546 -0.0113  0.2570
21108SOL     OW65702   4.063   7.443   9.022  0.5298 -0.4588 -0.3768
21108SOL    HW165703   4.039   7.449   9.114 -2.2427  0.0368 -1.0274
21108SOL    HW265704   4.114   7.523   9.005 -0.2400  0.2214  0.4043
21109SOL     OW65705   8.736   0.039   1.147 -0.1818 -0.3198 -0.3655
21109SOL    HW165706   8.674   0.073   1.212  0.2739 -1.4786  0.7248
21109SOL    HW265707   8.799   0.110   1.135 -0.5018  0.0664  0.1568
21110SOL     OW65708   3.032   6.655   3.584  0.1824  0.1150  0.4542
21110SOL    HW165709   2.964   6.652   3.517 -2.2658 -1.1318  2.8283
21110SOL    HW265710   3.005   6.724   3.644  1.7261  0.4696  0.7865
21111SOL     OW65711   3.297   7.749  10.506 -0.0536 -0.0987  0.0628
21111SOL    HW165712   3.292   7.655  10.487 -2.0969 -0.4094  1.7424
21111SOL    HW265713   3.365   7.756  10.572  0.8563 -0.2173 -0.8340
21112SOL     OW65714   0.820   5.161   9.000  0.2809  0.1658  0.2004
21112SOL    HW165715   0.906   5.146   8.960 -0.9518 -1.1587 -2.1943
21112SOL    HW265716   0.802   5.253   8.982  0.9173  0.2844  0.1292
21113SOL     OW65717   3.086   4.098   2.178 -0.5462 -0.2078  0.4526
21113SOL    HW165718   3.156   4.073   2.239 -0.9241 -2.0346  0.1695
21113SOL    HW265719   3.013   4.123   2.235 -0.1604  0.3202  0.7347
21114SOL     OW65720  10.107   5.623   2.144  0.1933 -0.0364 -0.3302
21114SOL    HW165721  10.163   5.599   2.070 -1.7400 -3.6391 -0.8409
21114SOL    HW265722  10.045   5.686   2.107 -1.4930 -2.6541 -2.2992
21115SOL     OW65723  10.412   6.605   9.792 -0.1651  0.0370 -0.3321
21115SOL    HW165724  10.369   6.522   9.814 -0.1460 -0.5875 -2.4085
21115SOL    HW265725  10.351   6.649   9.734  0.3256  0.9562 -0.1667
21116SOL     OW65726   2.315   9.027   1.221  0.6461 -0.4768 -0.1048
21116SOL    HW165727   2.373   9.094   1.187  1.2969 -0.6222  0.7036
21116SOL    HW265728   2.235   9.036   1.169  0.9774  0.4591 -0.4668
21117SOL     OW65729   3.587   3.451   4.848 -0.4359  0.2063  0.0360
21117SOL    HW165730   3.554   3.362   4.841  1.4887 -0.5641  0.2290
21117SOL    HW265731   3.640   3.452   4.928  2.8661  0.3230 -1.9810
21118SOL     OW65732   9.460   6.581   7.113  0.6111 -0.1531  0.5874
21118SOL    HW165733   9.507   6.506   7.078  0.2081 -0.0616 -0.1629
21118SOL    HW265734   9.527   6.648   7.128  0.7252  0.0129 -0.5674
21119SOL     OW65735  10.317   5.605   8.882  0.2336 -0.1776  0.4814
21119SOL    HW165736  10.402   5.587   8.842 -1.0342 -0.8333 -2.1199
21119SOL    HW265737  10.297   5.695   8.855 -2.0080 -1.5944 -3.3878
21120SOL     OW65738   8.498   6.139   4.521  0.1604  0.3345 -0.0795
21120SOL    HW165739   8.562   6.073   4.494  0.0355  0.4715 -0.7338
21120SOL    HW265740   8.484   6.123   4.614  0.5416 -0.2114 -0.1138
21121SOL     OW65741   9.623   6.867   7.419  0.2716  0.1032 -0.2515
21121SOL    HW165742   9.705   6.818   7.427  0.7905  0.7282 -1.4591
21121SOL    HW265743   9.581   6.859   7.504  1.7682  0.0842  0.5041
21122SOL     OW65744   8.874  10.130   8.170  0.3176 -0.0327  0.2358
21122SOL    HW165745   8.790  10.152   8.131  1.2960  1.2437 -1.2563
21122SOL    HW265746   8.902  10.209   8.215  1.0179 -0.2290  0.1637
21123SOL     OW65747   1.523   5.144   6.101  0.3184 -0.0645  0.7483
21123SOL    HW165748   1.512   5.178   6.190  2.9833  0.3335  0.9964
21123SOL    HW265749   1.474   5.205   6.046 -0.7624  0.0994  1.8452
21124SOL     OW65750   2.592   7.910   2.390  0.1283  0.9097  0.2831
21124SOL    HW165751   2.499   7.890   2.382  0.3510  0.0537 -0.2852
21124SOL    HW265752   2.604   7.929   2.483 -0.3585 -0.3459  0.6197
21125SOL     OW65753   6.533  10.335   0.539 -0.7191 -0.2510  0.1234
21125SOL    HW165754   6.565  10.252   0.505 -0.7732  0.3711 -1.5153
21125SOL    HW265755   6.563  10.400   0.476 -2.9698  0.6633 -0.0747
21126SOL     OW65756   0.308   4.988   0.773 -0.5657 -0.2880  0.0326
21126SOL    HW165757   0.269   4.914   0.819 -1.5471  0.2522  0.1039
21126SOL    HW265758   0.319   4.959   0.683  0.7668 -1.1345  0.4412
21127SOL     OW65759   1.768   9.802   8.154 -0.0900 -0.0988  0.1914
21127SOL    HW165760   1.857   9.771   8.139  0.5708  1.1452  1.2956
21127SOL    HW265761   1.738   9.831   8.068  1.0530  0.6360  0.0134
21128SOL     OW65762   0.108   7.398   9.768  0.4536  0.6273  0.4459
21128SOL    HW165763   0.021   7.398   9.808  0.2428  0.9642 -0.0075
21128SOL    HW265764   0.168   7.399   9.842  0.0699  0.4609  0.7610
21129SOL     OW65765   9.408   5.652   7.467  0.7777 -0.0494 -0.4563
21129SOL    HW165766   9.321   5.658   7.428  1.1574 -1.5370 -1.6266
21129SOL    HW265767   9.399   5.586   7.536  0.9695 -0.2254 -0.5970
21130SOL     OW65768   3.636   9.757  10.569 -0.5445 -0.9902  0.0187
21130SOL    HW165769   3.634   9.672  10.614 -1.6215 -0.1627  1.6321
21130SOL    HW265770   3.605   9.820  10.635 -0.8930  0.4935 -1.4970
21131SOL     OW65771   8.521   7.658   6.219 -0.0270 -0.0021 -0.2048
21131SOL    HW165772   8.572   7.586   6.257 -0.1082  0.2522  0.3916
21131SOL    HW265773   8.503   7.630   6.130  0.3208 -0.5296 -0.1123
21132SOL     OW65774   3.038   3.766   0.761  0.1381  0.1008  0.5720
21132SOL    HW165775   3.004   3.679   0.743 -0.5200  0.4069  0.2829
21132SOL    HW265776   2.962   3.824   0.751  0.9840  0.9622 -1.3322
21133SOL     OW65777   3.246   3.514   5.132 -0.0773 -0.3750  0.2296
21133SOL    HW165778   3.278   3.590   5.083  0.9451 -1.1791 -0.3983
21133SOL    HW265779   3.304   3.508   5.207  0.1521 -0.8127  0.0195
21134SOL     OW65780   6.614  10.662   4.917  0.1248  0.4040 -0.0127
21134SOL    HW165781   6.680  10.720   4.880  1.0407 -0.2171  0.5849
21134SOL    HW265782   6.531  10.692   4.880  0.7934  0.9117 -1.1380
21135SOL     OW65783   3.207   3.244   0.627 -0.1445  0.2085 -0.4961
21135SOL    HW165784   3.138   3.311   0.616 -0.5870 -0.0979  0.3854
21135SOL    HW265785   3.203   3.193   0.546  0.6822  1.6610 -1.5192
21136SOL     OW65786   4.519   3.799   8.588 -0.5099  0.2607 -0.0394
21136SOL    HW165787   4.604   3.754   8.585 -0.0976  1.0229 -0.1664
21136SOL    HW265788   4.540   3.888   8.615 -1.5805 -0.1872  2.5328
21137SOL     OW65789   4.200   5.516   8.915 -0.7940 -0.0905 -0.1320
21137SOL    HW165790   4.281   5.472   8.939 -0.0482  0.6591 -1.1807
21137SOL    HW265791   4.163   5.462   8.846 -1.5976 -0.8345  0.8474
21138SOL     OW65792   1.292   8.685   7.183  1.1387 -0.2891 -0.0603
21138SOL    HW165793   1.362   8.739   7.218  0.2284  0.1708  1.1331
21138SOL    HW265794   1.314   8.596   7.210  1.0518 -0.0881  0.6862
21139SOL     OW65795  10.578  10.625   6.522 -0.0211  0.3579  0.7042
21139SOL    HW165796  10.520  10.689   6.563 -0.0133 -0.9763  2.9595
21139SOL    HW265797  10.569  10.546   6.576  0.6363 -1.2880 -1.4300
21140SOL     OW65798  10.309   0.099   9.697 -0.2254 -0.1725 -0.0808
21140SOL    HW165799  10.317   0.194   9.701  0.7224 -0.2774  1.0641
21140SOL    HW265800  10.218   0.081   9.722 -0.8837  0.4796 -1.8254
21141SOL     OW65801   1.401   3.503   9.367  0.0665  0.1176 -0.9552
21141SOL    HW165802   1.345   3.503   9.289  0.1548  0.6933 -1.0263
21141SOL    HW265803   1.422   3.411   9.382 -2.8369 -0.4258  0.4776
21142SOL     OW65804  10.469  10.695   2.120  0.1233  0.4221 -0.0557
21142SOL    HW165805  10.515  10.661   2.044 -0.4339  0.9420 -0.6370
21142SOL    HW265806  10.504  10.783   2.132 -0.6464  0.7899 -0.4524
21143SOL     OW65807   1.436   4.818   4.055  0.5280 -0.1704  0.5423
21143SOL    HW165808   1.517   4.869   4.044  0.3909  0.2239  1.2899
21143SOL    HW265809   1.383   4.841   3.979  0.7491  0.2850  0.5200
21144SOL     OW65810   7.076   2.632  10.469 -0.0359  0.0189 -0.3710
21144SOL    HW165811   7.009   2.575  10.432 -0.7025  1.0384 -0.7807
21144SOL    HW265812   7.144   2.636  10.401  0.1698 -0.5523 -0.1993
21145SOL     OW65813   0.833   0.925   5.780  0.0241  0.3619 -0.1618
21145SOL    HW165814   0.749   0.884   5.797 -0.3554  0.6681 -1.1869
21145SOL    HW265815   0.877   0.927   5.864 -1.0190  0.2427  0.4007
21146SOL     OW65816   5.857   0.544   4.110 -0.2277  0.3471 -0.2079
21146SOL    HW165817   5.890   0.563   4.022  0.7917 -0.0092  0.0800
21146SOL    HW265818   5.824   0.628   4.142 -1.6960  0.2591 -1.3493
21147SOL     OW65819   8.877  10.331   5.551 -0.5803 -0.4067  0.1268
21147SOL    HW165820   8.962  10.375   5.553 -1.3092  1.0671  0.1202
21147SOL    HW265821   8.898  10.238   5.554  1.1954 -0.2479 -2.8463
21148SOL     OW65822   8.705   3.861   5.793  0.7766 -0.1328  0.6719
21148SOL    HW165823   8.793   3.850   5.828  0.6791  0.2121  1.0217
21148SOL    HW265824   8.693   3.785   5.736  1.6568  0.3014 -0.1314
21149SOL     OW65825   5.283   0.580   6.711 -0.5817  0.1295 -0.4770
21149SOL    HW165826   5.322   0.653   6.663 -0.7549  0.7700  0.3301
21149SOL    HW265827   5.217   0.621   6.768 -0.2983 -0.5789  0.3942
21150SOL     OW65828   3.481   6.052   0.993  0.8804  0.4922 -0.2763
21150SOL    HW165829   3.532   5.991   0.940 -0.5298 -1.2046  0.2240
21150SOL    HW265830   3.502   6.028   1.084  0.1849  0.6362 -0.0755
21151SOL     OW65831   7.204   6.832   1.008  0.6427 -0.2670 -0.3184
21151SOL    HW165832   7.127   6.888   1.002  1.1386  0.3378 -1.4360
21151SOL    HW265833   7.184   6.770   1.078 -0.9582 -0.2991 -0.7742
21152SOL     OW65834   9.447   3.369  10.519  0.6412  1.0165  0.2913
21152SOL    HW165835   9.526   3.408  10.558  0.8545 -1.1602  2.2698
21152SOL    HW265836   9.478   3.287  10.480 -0.4782  0.6801  0.0794
21153SOL     OW65837   2.479   0.727   1.215  0.4486  0.0182  0.0468
21153SOL    HW165838   2.440   0.679   1.143 -0.9066  1.4358 -0.2155
21153SOL    HW265839   2.572   0.732   1.193  0.6011 -2.2311 -0.0112
21154SOL     OW65840   6.904   2.887   2.594 -0.0436  0.5562 -0.8292
21154SOL    HW165841   6.857   2.963   2.560 -0.1508  1.1370  0.5565
21154SOL    HW265842   6.996   2.905   2.572 -0.1443  0.7649 -1.0876
21155SOL     OW65843   1.129   5.967   8.498 -0.0446  0.1000 -0.3368
21155SOL    HW165844   1.126   5.984   8.404  0.0266 -1.7643 -0.7109
21155SOL    HW265845   1.041   5.938   8.520  0.6774 -2.5261 -0.5222
21156SOL     OW65846   9.047  10.791   1.871 -0.0890  0.0073  0.0993
21156SOL    HW165847   8.998  10.749   1.941 -1.0416  2.1989  0.8307
21156SOL    HW265848   9.063  10.879   1.903  1.5085  0.3461 -1.5076
21157SOL     OW65849   0.855   4.858   1.806  0.4524 -0.1442 -0.2747
21157SOL    HW165850   0.927   4.894   1.754  0.7065 -0.1796  0.0528
21157SOL    HW265851   0.883   4.770   1.829  0.4869 -0.0077  0.2109
21158SOL     OW65852   0.640   6.005   7.665 -0.2055 -0.2781  0.1234
21158SOL    HW165853   0.723   6.050   7.683 -0.1217 -0.8817  1.3491
21158SOL    HW265854   0.587   6.022   7.743 -0.8247 -0.8039 -0.1804
21159SOL     OW65855   7.259   6.407   5.718 -0.0492 -0.0380 -0.0765
21159SOL    HW165856   7.258   6.498   5.748  0.2002 -0.1439  0.2560
21159SOL    HW265857   7.319   6.363   5.778  1.0621 -0.0953 -1.1893
21160SOL     OW65858   2.522  10.701   3.467  0.1279 -0.6236 -0.5741
21160SOL    HW165859   2.590  10.673   3.528  2.0382 -1.3276 -2.9122
21160SOL    HW265860   2.522  10.797   3.475  1.3924 -0.6063 -0.5322
21161SOL     OW65861   4.447   6.682   8.484 -0.5179  0.0348 -0.0584
21161SOL    HW165862   4.360   6.646   8.467 -1.1462  1.0888  0.8241
21161SOL    HW265863   4.457   6.753   8.420 -0.7593  0.6006  0.5137
21162SOL     OW65864   1.887   1.881   6.574  0.4414  0.4319  0.3138
21162SOL    HW165865   1.841   1.951   6.621 -0.3461 -0.4090  0.8320
21162SOL    HW265866   1.866   1.801   6.623  1.3683 -0.1704 -0.2343
21163SOL     OW65867   9.846   3.060   9.745  1.2903  0.2649  0.2530
21163SOL    HW165868   9.879   3.083   9.832  0.5618 -0.2593  0.6790
21163SOL    HW265869   9.752   3.074   9.751  1.4384  2.1761 -1.0862
21164SOL     OW65870   4.313   6.105   6.248  0.1130 -0.2270 -0.2554
21164SOL    HW165871   4.374   6.178   6.238 -0.3046  0.1812  0.1259
21164SOL    HW265872   4.363   6.028   6.220  0.3720  0.2746 -1.2164
21165SOL     OW65873   2.835   5.338   4.704 -0.2164  0.4991 -0.0569
21165SOL    HW165874   2.756   5.391   4.716  0.1678  0.9044  0.7523
21165SOL    HW265875   2.839   5.282   4.781  0.5193  0.7908  0.1270
21166SOL     OW65876   1.891   0.429   2.423 -0.0323  0.3288  0.4503
21166SOL    HW165877   1.936   0.359   2.469  0.9565  1.5375  1.3719
21166SOL    HW265878   1.927   0.427   2.334  0.3735  0.0156  0.6209
21167SOL     OW65879   6.248   7.556   2.988  0.0348  0.0649 -0.0566
21167SOL    HW165880   6.304   7.560   3.065 -1.2432 -0.7300  0.9666
21167SOL    HW265881   6.263   7.639   2.943  2.3126 -0.2916 -0.0674
21168SOL     OW65882   3.899   6.832   4.654  0.0484 -0.1389 -0.2076
21168SOL    HW165883   3.968   6.854   4.718  1.5329  1.9032 -2.3456
21168SOL    HW265884   3.821   6.875   4.688  0.6186  0.2756  0.6190
21169SOL     OW65885   1.755   6.242   3.751 -0.1829 -0.4237  0.4102
21169SOL    HW165886   1.757   6.335   3.773 -0.6309 -0.4448  0.5654
21169SOL    HW265887   1.827   6.229   3.691 -1.1550  0.3711 -0.9816
21170SOL     OW65888   6.542   4.176   0.630  0.2290  0.3394 -0.0885
21170SOL    HW165889   6.551   4.191   0.536 -0.7034  1.5075 -0.0221
21170SOL    HW265890   6.551   4.263   0.669 -0.2718 -0.0011  0.8194
21171SOL     OW65891   3.034   9.165   7.565 -0.7784 -0.1200 -0.1439
21171SOL    HW165892   3.059   9.091   7.621  0.6666 -0.1546 -0.7862
21171SOL    HW265893   3.011   9.126   7.481  1.0437  0.1759 -0.8357
21172SOL     OW65894   7.927   3.043  10.535  0.3773 -0.0530  0.8051
21172SOL    HW165895   7.933   2.952  10.507 -0.3200  0.3516 -0.7266
21172SOL    HW265896   7.909   3.037  10.629 -2.4623 -1.5956  0.2722
21173SOL     OW65897   1.987  10.253   5.324  0.2606 -0.1900 -0.5139
21173SOL    HW165898   1.955  10.190   5.389 -0.1175  0.5019 -0.0132
21173SOL    HW265899   1.916  10.317   5.316  0.9091  0.5583 -0.4825
21174SOL     OW65900   1.409   7.163   2.610 -0.7998 -0.0769 -0.4551
21174SOL    HW165901   1.394   7.228   2.678  0.0184  0.0344 -0.3748
21174SOL    HW265902   1.486   7.193   2.564 -0.7862 -0.6581 -0.8259
21175SOL     OW65903   5.671   4.967   2.866  0.6555 -0.3934  0.3133
21175SOL    HW165904   5.625   4.901   2.815 -1.1015 -0.3446  1.7411
21175SOL    HW265905   5.764   4.952   2.847  0.1401 -1.2398 -1.7682
21176SOL     OW65906   7.237   4.098   8.832  0.2800 -0.7958 -0.0289
21176SOL    HW165907   7.162   4.156   8.819  0.8372 -0.2323 -0.8730
21176SOL    HW265908   7.286   4.138   8.904  0.3250 -0.5629 -0.1865
21177SOL     OW65909   9.016   3.037  10.394  0.0458  0.6810 -0.0455
21177SOL    HW165910   9.044   3.027  10.485  1.9624  0.5662 -0.5999
21177SOL    HW265911   9.078   3.100  10.356  0.0155 -0.1357 -1.5528
21178SOL     OW65912   0.987   6.409   6.703 -0.6005  0.1367 -0.0455
21178SOL    HW165913   0.949   6.322   6.722 -0.7263 -0.0627 -1.1756
21178SOL    HW265914   1.079   6.392   6.686 -0.5190  0.3019  0.2126
21179SOL     OW65915   8.273   7.390   8.525  0.4491  0.1051 -0.5207
21179SOL    HW165916   8.216   7.466   8.531  0.7547  0.3400 -0.5313
21179SOL    HW265917   8.324   7.405   8.445  0.8628  0.1436 -0.2551
21180SOL     OW65918  10.253   8.990   6.295 -0.0860  0.3649 -0.1082
21180SOL    HW165919  10.228   8.908   6.337  0.1131 -0.1214 -0.9178
21180SOL    HW265920  10.180   9.010   6.236 -0.5609  1.2672  0.7374
21181SOL     OW65921   5.560   9.895   6.591  0.5860  0.0922  0.1237
21181SOL    HW165922   5.558   9.804   6.621  0.0578 -0.5053 -1.5551
21181SOL    HW265923   5.485   9.902   6.531  1.1832  1.3528 -0.5260
21182SOL     OW65924   9.347   8.982   2.797 -0.5649 -0.2832 -0.3831
21182SOL    HW165925   9.324   8.961   2.706 -0.2877 -3.3816  0.1453
21182SOL    HW265926   9.414   8.917   2.819  1.3628  2.1073  1.2512
21183SOL     OW65927   4.493   7.405   5.546  0.7363 -0.3640 -0.6824
21183SOL    HW165928   4.459   7.357   5.470 -2.1102  1.3122 -0.6297
21183SOL    HW265929   4.420   7.462   5.572  1.5983 -0.8221  3.3120
21184SOL     OW65930   2.485   5.817   9.123  0.1266  0.3677 -0.2841
21184SOL    HW165931   2.460   5.805   9.214  0.2974  1.2014 -0.1179
21184SOL    HW265932   2.554   5.753   9.108  0.9697  1.0555  0.5383
21185SOL     OW65933   4.936   7.364   8.712 -0.5596 -0.2132 -0.0623
21185SOL    HW165934   4.842   7.348   8.719 -0.1596 -2.0593  2.2141
21185SOL    HW265935   4.972   7.282   8.680  0.2434  0.7522 -1.7365
21186SOL     OW65936   2.119   8.810   3.690  0.7341  0.2052  0.3450
21186SOL    HW165937   2.182   8.745   3.659 -0.0360 -0.5111  0.2377
21186SOL    HW265938   2.034   8.776   3.662  0.3502  1.4929 -0.1119
21187SOL     OW65939   4.434   7.138   4.628 -0.3999  0.2173 -0.3527
21187SOL    HW165940   4.450   7.067   4.689  3.4163  1.5508  0.4655
21187SOL    HW265941   4.491   7.119   4.553 -1.0479  1.2841 -1.1542
21188SOL     OW65942   6.057   2.746   7.979 -0.2027  0.0859  0.0934
21188SOL    HW165943   6.032   2.820   8.034 -1.1048 -0.2711  0.1749
21188SOL    HW265944   6.121   2.698   8.032 -0.5186  0.1460  0.5299
21189SOL     OW65945   2.509   3.034   1.552 -0.2851 -0.3830  0.3001
21189SOL    HW165946   2.552   2.972   1.611  0.6402 -0.6210 -0.5949
21189SOL    HW265947   2.580   3.072   1.501 -0.9831  0.4235 -0.1056
21190SOL     OW65948   1.342   1.658   2.399 -0.0372  0.0513 -0.3082
21190SOL    HW165949   1.435   1.677   2.415 -0.0255  0.0404 -0.3644
21190SOL    HW265950   1.314   1.610   2.477  0.1886 -0.5809 -0.6166
21191SOL     OW65951   0.883   1.417   4.176  0.5220 -0.0112  0.0670
21191SOL    HW165952   0.832   1.411   4.257 -0.4720 -0.9207 -0.6078
21191SOL    HW265953   0.968   1.379   4.199  0.4996  0.3853  0.8582
21192SOL     OW65954   2.852   2.855   7.117  0.4561 -0.2145  0.8102
21192SOL    HW165955   2.862   2.947   7.143  1.9629 -0.1458  0.0698
21192SOL    HW265956   2.895   2.806   7.187 -0.5513 -0.3969  1.3239
21193SOL     OW65957   4.282   6.235  10.395 -0.3287  0.8350  0.5994
21193SOL    HW165958   4.205   6.290  10.380 -0.6216  0.0096 -1.2178
21193SOL    HW265959   4.247   6.153  10.427 -0.6236 -0.6231 -2.9920
21194SOL     OW65960   5.077   4.382   5.758  0.2803 -0.0549 -0.0237
21194SOL    HW165961   5.165   4.404   5.725  0.9470 -0.8053  1.1731
21194SOL    HW265962   5.021   4.453   5.726  1.6184  1.2678  0.4259
21195SOL     OW65963   2.127   0.056   5.908 -0.1131  0.5861 -0.1464
21195SOL    HW165964   2.040   0.033   5.876 -0.4779  1.1384  0.4127
21195SOL    HW265965   2.174   0.087   5.831 -0.5350  0.6431 -0.3824
21196SOL     OW65966   5.023   7.314   0.958 -0.1101  0.0596  0.8221
21196SOL    HW165967   4.951   7.266   0.998 -1.0071  1.0357  0.4110
21196SOL    HW265968   5.016   7.403   0.994  0.5671  0.2980  0.3822
21197SOL     OW65969   1.710   8.907   5.470 -0.4217  0.1567 -1.2101
21197SOL    HW165970   1.671   8.970   5.531  0.7923  1.7390 -1.9850
21197SOL    HW265971   1.702   8.822   5.514 -1.0178  1.0162  0.4154
21198SOL     OW65972   6.140   5.376   7.575  0.2369  0.9253  0.1952
21198SOL    HW165973   6.163   5.317   7.647 -1.5436 -1.7567 -1.2588
21198SOL    HW265974   6.045   5.365   7.564  0.3141  1.9020 -2.0108
21199SOL     OW65975   8.736   4.785   4.344  0.2394 -0.0792 -0.4802
21199SOL    HW165976   8.699   4.847   4.406 -1.0010  0.4222 -1.6749
21199SOL    HW265977   8.720   4.699   4.382 -0.0092  0.2404  0.1405
21200SOL     OW65978   4.915   3.065   5.416 -0.5480 -0.3323  0.0057
21200SOL    HW165979   4.885   2.995   5.474 -0.0262  1.0394  2.0148
21200SOL    HW265980   4.878   3.145   5.453  1.6845  0.8760 -0.1887
21201SOL     OW65981   4.947   6.424   3.809  0.1430  0.2868 -0.1039
21201SOL    HW165982   4.973   6.498   3.864  1.8225 -0.0502 -0.3866
21201SOL    HW265983   4.853   6.437   3.795  0.4562  2.6402 -0.5430
21202SOL     OW65984   1.830   8.502   9.700 -0.1259  0.0664 -0.6344
21202SOL    HW165985   1.860   8.440   9.633 -1.2411  1.4147 -2.5104
21202SOL    HW265986   1.811   8.582   9.651  2.0504  2.2238  1.7955
21203SOL     OW65987   7.397   5.353   3.011  0.1426 -0.0758  0.2523
21203SOL    HW165988   7.320   5.361   2.955  0.4050 -0.5191 -0.1766
21203SOL    HW265989   7.462   5.308   2.957  0.7220  0.3418  0.5924
21204SOL     OW65990   0.126   4.798   4.534 -0.1501  0.3283  0.0069
21204SOL    HW165991   0.130   4.873   4.474 -1.3234  0.0230 -0.4670
21204SOL    HW265992   0.212   4.798   4.577  0.7247  0.5623 -1.6518
21205SOL     OW65993   6.896   0.193   5.911 -0.4259 -0.7998 -0.4111
21205SOL    HW165994   6.969   0.163   5.857  0.9474 -0.5184  1.1981
21205SOL    HW265995   6.842   0.245   5.851  2.3911  1.6982 -1.0516
21206SOL     OW65996  10.346   0.244   3.878 -0.5695 -0.7062 -0.4241
21206SOL    HW165997  10.352   0.196   3.960  1.0669 -2.6240 -1.5921
21206SOL    HW265998  10.392   0.327   3.895  1.4664 -1.8739  0.1034
21207SOL     OW65999  10.098   5.984   8.191 -0.0897  0.5759  0.4325
21207SOL    HW166000  10.025   6.005   8.133  0.3615 -0.6369 -0.6378
21207SOL    HW266001  10.083   5.892   8.216  1.0808  0.2832  0.1397
21208SOL     OW66002   1.681   6.573   9.512  0.0427 -0.0363  0.0915
21208SOL    HW166003   1.632   6.607   9.586  2.4985  1.4624  1.1652
21208SOL    HW266004   1.727   6.649   9.476  1.1220 -1.2230 -1.1777
21209SOL     OW66005   6.586   6.782   6.269  0.3769  0.4373  0.6937
21209SOL    HW166006   6.599   6.698   6.224  0.8519  0.4085  0.8773
21209SOL    HW266007   6.520   6.827   6.216 -2.0651 -1.1934  2.1235
21210SOL     OW66008   9.085   9.224   5.283 -0.1959  0.4999  0.4210
21210SOL    HW166009   9.036   9.186   5.211 -0.8193 -0.5766  1.3861
21210SOL    HW266010   9.175   9.231   5.250 -0.6821  1.0893 -0.8303
21211SOL     OW66011   7.034   1.667   5.425 -0.0857 -0.4380 -0.0081
21211SOL    HW166012   7.094   1.733   5.459 -0.6308  0.1992 -0.2697
21211SOL    HW266013   7.071   1.584   5.455  2.2655 -0.2776 -2.1054
21212SOL     OW66014   1.976   4.615  10.119  0.9884 -0.0569 -0.3004
21212SOL    HW166015   1.942   4.606  10.208  0.3169 -1.7450 -0.6883
21212SOL    HW266016   1.902   4.594  10.063  1.9494 -1.1603 -1.2149
21213SOL     OW66017   1.429   8.376   2.679 -0.0902 -0.2069 -0.4267
21213SOL    HW166018   1.491   8.303   2.688 -1.0229 -1.3223 -2.3977
21213SOL    HW266019   1.385   8.380   2.764 -0.5316 -2.4686 -0.4740
21214SOL     OW66020   7.313   2.899   0.397  0.0965  0.2267 -0.1428
21214SOL    HW166021   7.225   2.880   0.366  0.1146  0.9786 -0.6912
21214SOL    HW266022   7.319   2.995   0.395  1.4040  0.1700 -1.5492
21215SOL     OW66023  10.336   5.347   5.109 -0.3218  0.9664 -0.3222
21215SOL    HW166024  10.332   5.374   5.201 -1.7972 -0.5125  0.0987
21215SOL    HW266025  10.320   5.252   5.111  1.0582  0.6455 -2.0023
21216SOL     OW66026   0.015   3.878   4.371 -0.0761  0.1045  0.0394
21216SOL    HW166027   0.091   3.935   4.380  0.8518 -1.2250  1.1059
21216SOL    HW266028   0.033   3.805   4.430 -0.5794 -1.9610 -2.2024
21217SOL     OW66029   0.288   9.503  10.417  0.4577 -0.0271  0.2818
21217SOL    HW166030   0.275   9.440  10.346  0.4658 -0.5018  0.6966
21217SOL    HW266031   0.298   9.449  10.495 -1.7890  0.5133  1.0276
21218SOL     OW66032   5.431   6.101   8.871 -0.0564  0.4924 -0.5325
21218SOL    HW166033   5.418   6.151   8.952 -1.5700 -2.6472  1.3610
21218SOL    HW266034   5.347   6.104   8.826  0.1949  0.6284 -0.9992
21219SOL     OW66035   6.256   3.244   6.853  0.5074 -0.0652 -0.1801
21219SOL    HW166036   6.339   3.205   6.882  0.2178 -0.9614 -0.5469
21219SOL    HW266037   6.269   3.338   6.865  1.1563 -0.2704  0.8656
21220SOL     OW66038   2.363   7.414   1.116 -0.3289 -0.2830  0.7554
21220SOL    HW166039   2.286   7.436   1.168  0.4931 -1.3327  2.4937
21220SOL    HW266040   2.425   7.486   1.134 -0.4897 -0.0118  0.2376
21221SOL     OW66041   1.930   0.284   7.225 -0.1680  0.2663  0.3133
21221SOL    HW166042   1.916   0.207   7.281 -0.1059 -2.3715 -2.9612
21221SOL    HW266043   1.856   0.283   7.165  1.5335  0.7105 -1.9305
21222SOL     OW66044   9.760   9.842   5.422 -0.1545 -0.0225  0.0178
21222SOL    HW166045   9.735   9.872   5.335  1.8797 -0.5812 -0.8228
21222SOL    HW266046   9.712   9.760   5.434 -0.0777 -0.1892 -0.7928
21223SOL     OW66047   8.781   4.587   4.571  0.2569  0.4721  0.6029
21223SOL    HW166048   8.725   4.594   4.648 -1.4462  1.8420 -0.6558
21223SOL    HW266049   8.766   4.499   4.537 -0.2916  0.4569  0.8852
21224SOL     OW66050   8.494   3.515   5.265 -0.0780  0.2454  0.6282
21224SOL    HW166051   8.469   3.575   5.335 -0.3979  0.0274  0.7027
21224SOL    HW266052   8.439   3.539   5.191  0.3623  0.5709  0.4035
21225SOL     OW66053  10.073   6.613   8.364 -0.1759  0.1676 -0.2178
21225SOL    HW166054  10.074   6.697   8.318 -0.7149  0.6004  0.5359
21225SOL    HW266055  10.010   6.560   8.314  1.6813 -0.5572 -1.9413
21226SOL     OW66056   8.935   9.118   8.457  0.2584  0.1721 -0.1483
21226SOL    HW166057   8.930   9.082   8.368 -1.3349 -0.9445  0.3538
21226SOL    HW266058   8.859   9.176   8.463 -0.2670 -0.5913  0.8173
21227SOL     OW66059   5.300   3.477   0.557 -0.4777  0.0844 -0.1198
21227SOL    HW166060   5.372   3.534   0.529 -1.2671  1.8033  1.1490
21227SOL    HW266061   5.301   3.482   0.652 -1.1795 -1.3010 -0.0186
21228SOL     OW66062   6.606   4.969   3.616  0.3344 -0.3764 -0.3191
21228SOL    HW166063   6.599   5.064   3.629  0.8989 -0.4724  0.8051
21228SOL    HW266064   6.679   4.943   3.672 -0.1079 -1.5485 -0.2762
21229SOL     OW66065   1.276   4.393   1.439  0.4577 -0.0672 -0.1891
21229SOL    HW166066   1.199   4.427   1.484 -0.3076  0.2256 -1.6588
21229SOL    HW266067   1.292   4.455   1.369  0.9226 -1.0891 -1.0163
21230SOL     OW66068   1.995   3.882   6.974 -0.1950  0.2530 -0.0964
21230SOL    HW166069   2.076   3.891   6.924  0.7001  0.8812  1.3772
21230SOL    HW266070   1.994   3.791   7.001  0.5864  0.4729  0.7398
21231SOL     OW66071   7.142   6.206  10.221 -0.2470 -0.6237 -0.0880
21231SOL    HW166072   7.206   6.149  10.264 -0.7767 -0.5306  0.8591
21231SOL    HW266073   7.075   6.147  10.188  0.2987 -0.7191 -1.0594
21232SOL     OW66074  10.582   7.211   5.178 -0.8613  0.1759  0.4747
21232SOL    HW166075  10.541   7.262   5.248  2.0392  0.1432  2.4114
21232SOL    HW266076  10.649   7.269   5.142 -1.3604 -0.3244 -1.3453
21233SOL     OW66077   5.122   5.983   0.095 -0.1768  0.0188 -0.0361
21233SOL    HW166078   5.075   6.001   0.014  0.6560  2.6533 -0.0252
21233SOL    HW266079   5.058   5.938   0.151 -2.7168  3.2174 -0.0973
21234SOL     OW66080   7.529  10.532   7.683 -0.3542 -0.6112 -0.0873
21234SOL    HW166081   7.602  10.535   7.621 -0.1301 -0.5101  0.1753
21234SOL    HW266082   7.467  10.471   7.645 -0.2859 -0.4345 -0.4836
21235SOL     OW66083   6.631   7.453   0.456  0.4401  0.0132 -0.0624
21235SOL    HW166084   6.597   7.407   0.379  2.4068 -1.8857  0.1116
21235SOL    HW266085   6.569   7.432   0.526  0.0531 -0.4436 -0.5348
21236SOL     OW66086   4.791   9.128   5.167 -0.0165 -0.1200  0.3532
21236SOL    HW166087   4.728   9.147   5.098  0.0031 -1.2387  0.0095
21236SOL    HW266088   4.876   9.138   5.125  0.0119  0.1271  0.4700
21237SOL     OW66089   6.287   5.894   4.617  0.3018  0.2550  0.3187
21237SOL    HW166090   6.215   5.906   4.555  0.7223  0.1480 -0.2039
21237SOL    HW266091   6.245   5.867   4.699 -0.2829  0.6830  0.1632
21238SOL     OW66092   4.578   0.738  10.217 -0.2648  0.0694  0.1968
21238SOL    HW166093   4.589   0.812  10.277  0.5453  0.9778 -1.0286
21238SOL    HW266094   4.664   0.697  10.214 -0.6132 -0.7004  0.5723
21239SOL     OW66095   2.471   9.168   2.546 -0.2512  0.2670 -0.3776
21239SOL    HW166096   2.495   9.237   2.608  1.6889  0.7777 -1.6194
21239SOL    HW266097   2.528   9.094   2.569 -1.2689 -0.4332 -0.0157
21240SOL     OW66098   2.241   8.783   7.780  0.2807  0.3376 -0.2906
21240SOL    HW166099   2.257   8.838   7.704  2.3335 -1.6805 -1.4247
21240SOL    HW266100   2.243   8.694   7.747 -2.1486 -0.5651  1.6171
21241SOL     OW66101   5.779   2.875   3.048  0.1423  0.0959 -0.1252
21241SOL    HW166102   5.805   2.790   3.084  1.2262  0.1949 -0.6301
21241SOL    HW266103   5.691   2.890   3.083  0.1259 -1.0105  0.3514
21242SOL     OW66104   1.849   5.745   8.174  0.0903 -0.4120 -0.1703
21242SOL    HW166105   1.892   5.666   8.206  0.6632 -0.0930 -0.1264
21242SOL    HW266106   1.889   5.761   8.088 -2.1132 -1.7921 -1.5501
21243SOL     OW66107  10.752   4.269   1.598  0.0882  0.2850  0.0226
21243SOL    HW166108  10.691   4.203   1.565  0.7348 -0.7175  0.7688
21243SOL    HW266109  10.837   4.244   1.561 -0.0616  2.2804 -1.8843
21244SOL     OW66110   7.352   5.340   4.524 -0.0222 -0.0220 -0.1016
21244SOL    HW166111   7.442   5.333   4.555  0.1144  1.8673  0.0913
21244SOL    HW266112   7.359   5.391   4.443 -0.9860  1.0974  0.4923
21245SOL     OW66113   0.291   1.375   2.681 -0.0015 -0.0855 -0.2189
21245SOL    HW166114   0.232   1.301   2.662  0.4310  0.3146 -3.9743
21245SOL    HW266115   0.330   1.354   2.766 -2.8247 -2.1452  0.7109
21246SOL     OW66116   4.895   9.474   9.744 -0.1717  0.4422 -0.3911
21246SOL    HW166117   4.923   9.517   9.825  0.2393  1.2555 -0.9467
21246SOL    HW266118   4.871   9.547   9.686  1.3081 -0.0173 -1.6335
21247SOL     OW66119   7.107   5.513   6.877  0.7264 -0.7077 -0.0088
21247SOL    HW166120   7.120   5.470   6.793 -0.1770  1.9768 -1.6668
21247SOL    HW266121   7.021   5.482   6.907 -0.2685  0.4151 -1.5523
21248SOL     OW66122   4.896   3.196   5.157 -0.3066  0.2855  0.5486
21248SOL    HW166123   4.950   3.133   5.109  0.4011  0.3143  1.2819
21248SOL    HW266124   4.893   3.162   5.246 -0.9055  0.6721  0.6826
21249SOL     OW66125   0.792   1.507   7.715 -0.8507  0.0612  0.7021
21249SOL    HW166126   0.846   1.486   7.639 -0.5061 -2.1657  1.5052
21249SOL    HW266127   0.705   1.524   7.678 -0.1777  1.3874 -0.3782
21250SOL     OW66128   8.549   3.606   2.228 -0.5366 -0.1749  0.4774
21250SOL    HW166129   8.629   3.554   2.225  1.5569  2.7930  0.6345
21250SOL    HW266130   8.563   3.668   2.300 -3.1566  0.2616  0.7322
21251SOL     OW66131   9.400   4.622   0.453  0.3963  0.2659 -0.0633
21251SOL    HW166132   9.426   4.555   0.516  1.5895  1.2289  0.5038
21251SOL    HW266133   9.306   4.634   0.469  0.0345 -1.5493 -0.4960
21252SOL     OW66134   2.334  10.405   6.526 -0.3959  0.2899 -0.1211
21252SOL    HW166135   2.345  10.467   6.598 -1.8590 -1.0147  1.3129
21252SOL    HW266136   2.245  10.420   6.495 -0.4713 -0.5375 -0.3135
21253SOL     OW66137   8.112   0.103  10.697 -0.0158 -0.1862  0.1433
21253SOL    HW166138   8.127   0.031  10.635  2.1229 -0.3051  0.7125
21253SOL    HW266139   8.050   0.161  10.652 -0.7194 -1.6768 -0.8947
21254SOL     OW66140   7.624  10.704   9.308  0.0620 -1.0824 -0.4161
21254SOL    HW166141   7.569  10.708   9.230 -0.9237 -0.4223  0.2874
21254SOL    HW266142   7.685  10.777   9.297 -1.2524  0.1688  0.2532
21255SOL     OW66143   0.514   9.554   5.187 -0.0196  0.1154  0.2246
21255SOL    HW166144   0.440   9.514   5.233 -1.2328 -0.7015 -2.2518
21255SOL    HW266145   0.588   9.496   5.207 -1.0208 -1.5502 -0.6290
21256SOL     OW66146   1.612   3.673   3.939  0.1833 -0.9675  0.2686
21256SOL    HW166147   1.551   3.697   4.009  0.5349 -0.8139  0.5256
21256SOL    HW266148   1.614   3.577   3.942 -2.5608 -1.2197 -1.8955
21257SOL     OW66149   6.336   8.463   6.980 -0.2099  0.2487  0.0392
21257SOL    HW166150   6.328   8.558   6.967  1.3973  0.3347 -0.5350
21257SOL    HW266151   6.393   8.434   6.909  0.1370 -0.9980  0.7969
21258SOL     OW66152   0.585   4.621   4.871 -0.6641 -0.4420  0.3306
21258SOL    HW166153   0.613   4.534   4.899  1.0449 -0.0573 -0.1000
21258SOL    HW266154   0.598   4.677   4.947  1.9654  0.1767 -0.4846
21259SOL     OW66155   3.922   3.045   5.430 -0.1987  0.1002  0.5109
21259SOL    HW166156   3.881   3.101   5.495 -0.6380  2.1850 -1.4413
21259SOL    HW266157   3.850   3.012   5.376  0.3765  1.3605 -1.1040
21260SOL     OW66158   6.569   3.051   0.131 -0.2586  0.5466  0.4456
21260SOL    HW166159   6.582   3.044   0.037  2.1943 -0.1026  0.7650
21260SOL    HW266160   6.521   2.971   0.154  1.7531 -0.8371  0.0866
21261SOL     OW66161   5.397   3.823   0.001  0.4159 -0.5604 -0.4757
21261SOL    HW166162   5.444   3.794  -0.077  0.3792  0.2567 -0.8110
21261SOL    HW266163   5.412   3.754   0.065 -0.9775 -2.0839 -1.7257
21262SOL     OW66164  10.093   3.433   7.633  0.1704 -0.6880 -0.1781
21262SOL    HW166165  10.036   3.419   7.709  0.0400 -0.5260 -0.2474
21262SOL    HW266166  10.098   3.528   7.624 -0.8641 -0.7090 -1.1709
21263SOL     OW66167   5.047   9.755   5.281 -0.5216 -0.3132 -0.0857
21263SOL    HW166168   5.087   9.749   5.367  0.2220  2.8588 -0.1000
21263SOL    HW266169   5.111   9.714   5.222  0.3300  0.0753  0.5446
21264SOL     OW66170   0.950   1.135   1.839  0.0822  0.5509 -0.1146
21264SOL    HW166171   0.905   1.082   1.774  0.2035  0.7417 -0.3545
21264SOL    HW266172   0.943   1.084   1.920  2.3846 -1.0767 -0.8415
21265SOL     OW66173   1.451   7.231  10.776 -0.2783 -0.4947 -0.5081
21265SOL    HW166174   1.410   7.252  10.860 -0.7770 -2.2843 -0.2590
21265SOL    HW266175   1.379   7.236  10.713  0.5296  3.3478 -1.3975
21266SOL     OW66176   5.919   9.955   8.715  0.2264  0.1999  0.2442
21266SOL    HW166177   5.847   9.963   8.652 -0.0620  1.4042  0.6976
21266SOL    HW266178   5.974   9.885   8.680 -0.7893 -0.2554 -0.4823
21267SOL     OW66179   0.129   2.450   7.403 -0.4743 -0.1096  0.3515
21267SOL    HW166180   0.170   2.372   7.440 -1.2626 -0.0308  1.4258
21267SOL    HW266181   0.100   2.501   7.479  0.1470  1.2986 -0.3336
21268SOL     OW66182   0.393   4.255   9.308  0.4042 -0.3494  0.5748
21268SOL    HW166183   0.366   4.163   9.313 -0.1490 -0.2489 -0.4190
21268SOL    HW266184   0.332   4.300   9.367 -0.5368 -0.3712 -0.3488
21269SOL     OW66185   8.711   0.652   2.590 -0.1647 -0.5413 -0.2872
21269SOL    HW166186   8.740   0.591   2.658  1.0030  0.8481  0.5167
21269SOL    HW266187   8.792   0.678   2.545 -0.0068  3.1410  1.7470
21270SOL     OW66188   8.636   7.284   2.293 -0.2772  0.4373 -0.0109
21270SOL    HW166189   8.728   7.261   2.278 -0.5828  0.2102 -1.7084
21270SOL    HW266190   8.638   7.378   2.314  0.3367  0.4405 -0.0610
21271SOL     OW66191  10.565   7.276   9.452  0.0650 -0.6162  0.2724
21271SOL    HW166192  10.610   7.201   9.492  0.9955 -0.8471 -1.1134
21271SOL    HW266193  10.571   7.345   9.517  1.6771 -0.9202  0.4987
21272SOL     OW66194   4.423   9.539   2.521  0.6441 -0.1768  0.5975
21272SOL    HW166195   4.348   9.598   2.520  1.2140  0.5646 -0.2533
21272SOL    HW266196   4.442   9.524   2.614 -0.8363 -0.7677  0.8217
21273SOL     OW66197   1.662   8.415   6.245  0.2010  0.0835  0.1973
21273SOL    HW166198   1.722   8.443   6.315  0.5196 -0.5457  0.1883
21273SOL    HW266199   1.575   8.420   6.285  0.3891 -0.3730  0.6854
21274SOL     OW66200   8.596   1.038   8.287 -0.1435  0.8023  0.2777
21274SOL    HW166201   8.525   0.981   8.258  0.1261  0.3044  0.5741
21274SOL    HW266202   8.658   0.979   8.330  0.0653  1.3421  0.7349
21275SOL     OW66203   9.096   0.563   5.487 -0.0603  0.3010  0.5231
21275SOL    HW166204   9.041   0.520   5.552  2.5906 -2.7935  1.0088
21275SOL    HW266205   9.169   0.599   5.537  1.1533 -0.6400 -0.4665
21276SOL     OW66206   2.531   2.651   2.340  0.3732 -0.0575 -0.3714
21276SOL    HW166207   2.618   2.620   2.314  0.1216  0.2584 -1.6789
21276SOL    HW266208   2.548   2.710   2.414  1.2100 -0.3909 -0.2808
21277SOL     OW66209   6.030   7.312   6.502 -0.1923  0.1562 -0.0031
21277SOL    HW166210   5.959   7.366   6.537  0.3027  0.5324  0.4412
21277SOL    HW266211   6.099   7.375   6.482 -0.5268 -0.0181 -1.8686
21278SOL     OW66212   2.629   6.194   8.118  0.1315 -0.6203  0.1955
21278SOL    HW166213   2.583   6.277   8.131 -0.6427 -0.9057 -0.5946
21278SOL    HW266214   2.655   6.195   8.026 -1.2205 -1.8910 -0.2338
21279SOL     OW66215   1.657   7.177  10.150  0.5150  0.3858  0.5340
21279SOL    HW166216   1.707   7.100  10.179  0.9442  0.9088  1.2108
21279SOL    HW266217   1.571   7.167  10.191  1.2693  1.3697  2.4822
21280SOL     OW66218   3.398   6.373   8.868  0.3598 -0.4249 -0.3296
21280SOL    HW166219   3.337   6.446   8.874  2.0199  1.0362 -0.2573
21280SOL    HW266220   3.449   6.391   8.789  1.9089 -0.5660  0.5937
21281SOL     OW66221   3.488   5.349   5.489 -0.1722 -0.3595  0.7540
21281SOL    HW166222   3.394   5.363   5.474 -0.2376 -0.0145  1.4390
21281SOL    HW266223   3.497   5.348   5.585  0.8863  2.2127  0.7707
21282SOL     OW66224  10.376   3.335   3.103 -0.3427 -0.3179  0.3919
21282SOL    HW166225  10.457   3.285   3.092  1.9670  2.8898  1.2578
21282SOL    HW266226  10.382   3.370   3.192 -1.5679  1.7070 -0.2505
21283SOL     OW66227   9.935   3.884   7.815  0.0241 -0.0347 -0.3328
21283SOL    HW166228   9.881   3.805   7.814  1.1505 -0.8281 -0.4411
21283SOL    HW266229   9.898   3.940   7.747 -0.3749 -0.7550 -0.7168
21284SOL     OW66230   3.840   9.225   3.426  0.6567 -0.3233  0.3545
21284SOL    HW166231   3.927   9.203   3.460  0.6470  0.1185  0.6718
21284SOL    HW266232   3.787   9.147   3.445  0.7314 -0.2024  1.0748
21285SOL     OW66233  10.379   8.834   4.696 -0.1651  0.4236 -0.4485
21285SOL    HW166234  10.285   8.839   4.679 -0.7476  0.5604  2.3155
21285SOL    HW266235  10.413   8.920   4.672 -0.9905  0.7921 -0.3293
21286SOL     OW66236   0.716   9.914   7.232  0.4800 -0.1844  0.0607
21286SOL    HW166237   0.763   9.952   7.306 -1.8555  0.9487  1.0601
21286SOL    HW266238   0.714   9.820   7.252  2.1995 -0.2743  0.0006
21287SOL     OW66239   5.776   6.369   0.311  0.2350 -0.0224  0.1009
21287SOL    HW166240   5.780   6.387   0.217  0.8721 -2.1357 -0.3189
21287SOL    HW266241   5.720   6.438   0.346 -2.4169 -0.7829 -2.2739
21288SOL     OW66242   1.016   1.041   4.310 -0.1898 -0.0119 -0.6161
21288SOL    HW166243   1.043   1.123   4.351  0.9209 -0.7592  0.1923
21288SOL    HW266244   1.062   1.039   4.226  1.7246 -0.9116  0.4128
21289SOL     OW66245   0.462   0.616   2.310  0.0287 -0.3118 -0.3314
21289SOL    HW166246   0.527   0.549   2.289 -0.9068 -1.0953 -0.8400
21289SOL    HW266247   0.419   0.634   2.226 -0.7968 -0.2416  0.0958
21290SOL     OW66248   2.420  10.165   2.482  0.2109  0.5774  0.0851
21290SOL    HW166249   2.371  10.083   2.491 -0.4229  1.1953  4.5737
21290SOL    HW266250   2.501  10.140   2.438 -1.7036 -1.5317 -2.5552
21291SOL     OW66251   6.997   0.445   8.773  0.3018 -0.1337 -0.1464
21291SOL    HW166252   6.999   0.350   8.770  2.0521 -0.1094 -0.9576
21291SOL    HW266253   6.937   0.466   8.844 -1.7512 -1.7914 -1.2739
21292SOL     OW66254   3.154   1.381   9.690  0.4442  0.1571 -0.2841
21292SOL    HW166255   3.180   1.432   9.613 -0.7495  1.5616  0.1905
21292SOL    HW266256   3.087   1.322   9.657  0.6154  0.0858 -0.5094
21293SOL     OW66257   1.317   6.075   3.834 -0.2308 -0.4387  0.0739
21293SOL    HW166258   1.342   6.158   3.874  0.0024  0.0732 -1.1036
21293SOL    HW266259   1.367   6.009   3.882  1.2234  0.3055 -0.3637
21294SOL     OW66260   8.940   6.079   4.444 -0.6041 -0.1635  0.5254
21294SOL    HW166261   8.976   6.167   4.457  0.9051 -0.6206 -0.2748
21294SOL    HW266262   8.996   6.022   4.496 -0.1309 -0.8904 -0.7247
21295SOL     OW66263  10.400   4.532   0.385 -0.3032  0.8940  0.6321
21295SOL    HW166264  10.398   4.436   0.378  1.7998  0.8576 -0.3813
21295SOL    HW266265  10.308   4.558   0.381 -0.9054 -1.0491  0.4958
21296SOL     OW66266   1.396   7.287   4.063 -0.3190  0.5478 -0.4474
21296SOL    HW166267   1.467   7.345   4.088  0.2529  0.1077 -1.0174
21296SOL    HW266268   1.439   7.208   4.030 -1.0685  0.2215 -0.6864
21297SOL     OW66269   3.276   3.728   7.685  0.0220 -0.1650 -0.7221
21297SOL    HW166270   3.309   3.734   7.775  1.0349 -1.3580 -0.9955
21297SOL    HW266271   3.210   3.797   7.680 -0.2168 -0.2130  1.0030
21298SOL     OW66272   6.294   8.751   4.788 -0.5018 -0.2300 -0.1451
21298SOL    HW166273   6.359   8.752   4.859 -2.3271 -0.2785  1.6000
21298SOL    HW266274   6.210   8.743   4.833 -1.7791  0.4637 -2.3012
21299SOL     OW66275   3.626   5.200   7.776 -0.2941 -0.9251 -0.3175
21299SOL    HW166276   3.671   5.280   7.751 -0.9825 -0.4541 -0.0796
21299SOL    HW266277   3.634   5.196   7.872 -1.4894 -0.3726 -0.1772
21300SOL     OW66278   8.517   5.490   4.243  0.1319  0.0733 -0.6266
21300SOL    HW166279   8.606   5.502   4.207 -0.7703  0.3265 -2.9806
21300SOL    HW266280   8.463   5.550   4.191 -1.5080 -0.4210  0.4508
21301SOL     OW66281   1.346   0.185   3.611 -0.6044  0.1293  0.3596
21301SOL    HW166282   1.434   0.205   3.644 -0.7563  1.0035  0.2443
21301SOL    HW266283   1.302   0.144   3.686  0.1675 -1.1307  0.1556
21302SOL     OW66284   9.583   6.720   5.444  0.3152  0.2323  0.3104
21302SOL    HW166285   9.664   6.673   5.424 -0.3463 -0.5592 -0.5904
21302SOL    HW266286   9.605   6.775   5.519  0.9662 -1.9519  1.7985
21303SOL     OW66287   3.389   6.310   3.234  0.2489 -0.7554  0.0683
21303SOL    HW166288   3.385   6.218   3.257 -0.0032 -1.0446 -1.0594
21303SOL    HW266289   3.297   6.337   3.226  0.3235 -0.7196 -0.7496
21304SOL     OW66290   8.098   0.028   0.723  0.3943 -0.3549  0.7118
21304SOL    HW166291   8.180   0.001   0.682  0.1867 -0.7097  0.5269
21304SOL    HW266292   8.107   0.001   0.814  0.5235 -0.3048  0.7145
21305SOL     OW66293   6.020   1.201   2.551  0.3436 -0.1544 -0.2841
21305SOL    HW166294   6.037   1.295   2.546  2.2512 -0.5236 -2.9091
21305SOL    HW266295   6.107   1.160   2.552 -0.3511 -1.9387  3.2629
21306SOL     OW66296   8.616   2.950   2.323  0.2004  0.3833  0.0410
21306SOL    HW166297   8.607   2.967   2.417 -1.8754  0.3522 -0.1067
21306SOL    HW266298   8.656   2.863   2.317  1.1695  0.7461  0.8543
21307SOL     OW66299   6.135   7.349  10.676  0.0690 -0.0902 -0.0372
21307SOL    HW166300   6.118   7.391  10.592 -1.5027  1.0127  0.7611
21307SOL    HW266301   6.220   7.382  10.703  0.2413  0.1442 -0.8435
21308SOL     OW66302   4.124   1.414   2.489  0.2045  0.3271 -0.1085
21308SOL    HW166303   4.197   1.353   2.502  1.0159  0.9876 -1.3893
21308SOL    HW266304   4.167   1.499   2.475 -0.8085  0.6839 -1.1179
21309SOL     OW66305   2.990   1.074   1.896  0.3533  0.0153 -0.0463
21309SOL    HW166306   3.029   1.117   1.819  1.7879 -1.0898  0.0084
21309SOL    HW266307   2.983   0.982   1.870 -0.4194 -0.1371  0.6768
21310SOL     OW66308   3.789  10.355   0.200  0.0576 -0.1178  0.4528
21310SOL    HW166309   3.851  10.286   0.224  0.4899  0.4048  0.8551
21310SOL    HW266310   3.805  10.425   0.262 -0.4407  0.3185  0.1028
21311SOL     OW66311  10.225   9.673  10.461  0.0520 -0.2119 -0.6459
21311SOL    HW166312  10.312   9.636  10.450  0.5023  1.1480 -2.0934
21311SOL    HW266313  10.216   9.734  10.388 -0.3808  2.9737  1.8469
21312SOL     OW66314   3.259   6.021   8.169 -0.6096  0.2399 -0.1653
21312SOL    HW166315   3.228   6.090   8.110 -1.0837 -1.3485 -1.8486
21312SOL    HW266316   3.192   6.015   8.237  0.4743  2.8451  1.2971
21313SOL     OW66317   4.634   6.463   6.035 -0.2274  0.0447 -0.0723
21313SOL    HW166318   4.644   6.465   5.940  0.8566  0.8874  0.0371
21313SOL    HW266319   4.637   6.555   6.061 -2.1451 -0.0540  0.6454
21314SOL     OW66320   6.375   0.906   9.533 -0.0487 -0.1966  0.2685
21314SOL    HW166321   6.452   0.881   9.584  1.2666  0.4723 -1.2868
21314SOL    HW266322   6.301   0.871   9.582  0.8921  2.2859  3.8796
21315SOL     OW66323   7.666   7.123   6.244 -0.1329  0.1391  0.3351
21315SOL    HW166324   7.652   7.142   6.151  2.6235 -0.7916 -0.3834
21315SOL    HW266325   7.607   7.050   6.263 -0.6212  0.2422 -0.7458
21316SOL     OW66326   9.385   8.322   2.109  0.2558 -0.1972  0.5109
21316SOL    HW166327   9.480   8.316   2.098  0.0767 -1.4846 -0.5744
21316SOL    HW266328   9.350   8.250   2.057 -1.5624  2.5896 -2.4927
21317SOL     OW66329   8.808   2.292   1.536  0.3555  0.0194 -0.3346
21317SOL    HW166330   8.801   2.210   1.585 -0.7134  0.2869 -0.0181
21317SOL    HW266331   8.740   2.286   1.469  0.4197  0.5577 -0.4505
21318SOL     OW66332   7.189   1.076   2.026  0.3412 -0.4627 -0.2739
21318SOL    HW166333   7.225   1.086   1.938 -0.7120 -1.8940 -0.9167
21318SOL    HW266334   7.218   1.154   2.073  2.4190 -0.5010 -1.3567
21319SOL     OW66335   1.049   0.062   7.629 -0.0735 -0.0105  0.1899
21319SOL    HW166336   1.114   0.007   7.586  2.2125  1.5309  1.4536
21319SOL    HW266337   1.006   0.004   7.692  2.3362 -0.4475  1.5625
21320SOL     OW66338   6.115   5.149   5.788 -0.2199  0.0237  0.1128
21320SOL    HW166339   6.066   5.228   5.811 -0.7984 -0.2677 -0.0817
21320SOL    HW266340   6.075   5.080   5.841 -1.6339 -0.6772 -1.7484
21321SOL     OW66341   9.380   2.767   1.116 -0.3864 -0.1071  0.2305
21321SOL    HW166342   9.452   2.740   1.172  0.9718 -0.3673 -1.5543
21321SOL    HW266343   9.330   2.687   1.100  0.2595 -0.4072 -0.3445
21322SOL     OW66344   8.374   8.756  10.698 -0.4097  0.1556 -0.1197
21322SOL    HW166345   8.331   8.816  10.760 -0.4526  0.0235 -0.0212
21322SOL    HW266346   8.314   8.682  10.691 -0.0067 -0.2202  0.3407
21323SOL     OW66347   0.953   9.985   0.510 -0.2504  0.2116  0.4375
21323SOL    HW166348   0.887  10.050   0.534 -0.7410 -0.1493  0.0674
21323SOL    HW266349   1.034  10.035   0.500 -0.3154  0.5681  1.5311
21324SOL     OW66350   5.968   0.623   4.561  0.3182 -0.1999 -0.5181
21324SOL    HW166351   5.883   0.578   4.558  0.9616 -1.5798  0.5474
21324SOL    HW266352   5.948   0.714   4.538 -1.0678 -0.9613 -2.7180
21325SOL     OW66353   2.304   8.098   0.517 -0.3006 -0.2483  0.3232
21325SOL    HW166354   2.249   8.070   0.590  1.0691 -0.7649  1.1951
21325SOL    HW266355   2.317   8.018   0.465 -0.6150 -0.0628 -0.0406
21326SOL     OW66356   9.911   1.538   7.517  0.0573  0.4385  0.6643
21326SOL    HW166357   9.857   1.617   7.509  1.3890  1.4220  0.9188
21326SOL    HW266358   9.903   1.495   7.432 -1.6954  0.1423  0.9419
21327SOL     OW66359   4.925   9.383   8.296  0.3731  0.6220 -0.6094
21327SOL    HW166360   4.952   9.396   8.205  1.8554 -0.5179 -0.3733
21327SOL    HW266361   4.997   9.418   8.348  0.7557 -1.0529  0.0649
21328SOL     OW66362   9.178   1.801   7.970 -0.2427 -0.4701 -0.3147
21328SOL    HW166363   9.220   1.837   8.048  0.4946 -0.3702 -0.7385
21328SOL    HW266364   9.101   1.756   8.002 -0.2880  0.1045  0.4031
21329SOL     OW66365   5.998   8.942   1.624 -0.1191 -0.3712 -0.6097
21329SOL    HW166366   5.911   8.903   1.612 -0.0154 -0.6508 -0.4479
21329SOL    HW266367   6.006   9.004   1.552 -0.8969  0.4419 -0.0295
21330SOL     OW66368  10.104   4.399   7.262 -0.2491 -0.1479 -0.3829
21330SOL    HW166369  10.092   4.330   7.326  0.8748 -0.4805 -0.4986
21330SOL    HW266370  10.172   4.365   7.204  0.6351  1.2285 -0.1856
21331SOL     OW66371   1.594   0.532   3.798  0.0955  0.0977  0.1731
21331SOL    HW166372   1.656   0.462   3.817 -0.1472 -0.2757 -0.3898
21331SOL    HW266373   1.629   0.575   3.719 -0.8098 -0.6763 -0.6772
21332SOL     OW66374   3.963   9.124   8.024  0.2224 -0.0453  0.3271
21332SOL    HW166375   3.957   9.106   8.118  0.3818  1.4087  0.6522
21332SOL    HW266376   4.013   9.051   7.988 -2.4280 -2.2630  0.8180
21333SOL     OW66377   5.163   4.184   2.851  0.1631 -0.7943  0.6528
21333SOL    HW166378   5.104   4.160   2.779 -0.3196  0.0675  0.7506
21333SOL    HW266379   5.107   4.187   2.928 -0.3547  2.7663  0.3166
21334SOL     OW66380   4.751   5.570   7.561  0.6967  0.2760 -0.1129
21334SOL    HW166381   4.802   5.650   7.553 -1.9852  2.0341 -0.5395
21334SOL    HW266382   4.751   5.551   7.655  2.2785  0.0760 -0.1246
21335SOL     OW66383   6.764   9.240   8.468 -0.5330 -0.3786 -0.0315
21335SOL    HW166384   6.726   9.170   8.414 -1.2325 -0.3821  0.4391
21335SOL    HW266385   6.794   9.305   8.406 -2.2775  0.1008 -0.4259
21336SOL     OW66386   1.478   0.879   6.815 -0.0373 -0.4963 -0.0381
21336SOL    HW166387   1.396   0.925   6.835 -0.1469 -1.2108  1.3025
21336SOL    HW266388   1.450   0.803   6.764  0.0056  0.1883 -1.1204
21337SOL     OW66389   4.374   9.878   4.468  0.5570  0.1670 -0.0660
21337SOL    HW166390   4.412   9.893   4.382  0.7339  1.4354  0.2097
21337SOL    HW266391   4.449   9.862   4.525  0.4890 -0.0039 -0.0244
21338SOL     OW66392   5.247   3.024   4.508  0.5259 -0.4705 -0.7051
21338SOL    HW166393   5.193   2.967   4.453  0.7800 -0.8082 -0.6074
21338SOL    HW266394   5.302   3.072   4.446 -1.1584  1.2696 -0.9641
21339SOL     OW66395   4.154  10.775   6.862  0.2252  0.5905  0.3495
21339SOL    HW166396   4.157  10.784   6.767 -0.6104  0.0515  0.2645
21339SOL    HW266397   4.061  10.775   6.884  0.2874 -1.7809  0.8872
21340SOL     OW66398  10.316   1.937   4.842  0.5694  0.2721 -0.6279
21340SOL    HW166399  10.254   1.936   4.915  0.6926 -1.9076 -0.4980
21340SOL    HW266400  10.277   1.997   4.778 -1.9925 -1.4491 -0.7995
21341SOL     OW66401   8.294   3.348   5.691 -0.3832 -0.3443  0.2248
21341SOL    HW166402   8.343   3.310   5.763  1.3234  1.4759  0.1180
21341SOL    HW266403   8.345   3.328   5.612 -0.6075  0.2384 -0.0834
21342SOL     OW66404   8.276   3.060   1.390  0.0689  0.3984 -0.2390
21342SOL    HW166405   8.310   3.050   1.301  0.3155 -1.0213 -0.0129
21342SOL    HW266406   8.187   3.025   1.386 -0.1930  1.0457 -0.0953
21343SOL     OW66407  10.069   8.268   6.518 -0.0971 -0.0940  0.2703
21343SOL    HW166408  10.068   8.343   6.578  0.6198  0.2061 -0.0798
21343SOL    HW266409  10.156   8.229   6.531  0.0014 -0.1215 -0.4646
21344SOL     OW66410   9.960   0.209   6.148 -0.3369 -0.2196 -0.3084
21344SOL    HW166411  10.046   0.182   6.115 -0.3030 -0.4805 -0.0117
21344SOL    HW266412   9.903   0.134   6.129 -0.1939 -0.6038  0.7150
21345SOL     OW66413   7.812   7.806   8.605  0.2743  0.3215 -0.1174
21345SOL    HW166414   7.759   7.764   8.673  0.4655 -0.0437 -0.1883
21345SOL    HW266415   7.749   7.837   8.541  0.0579  1.0773  0.4421
21346SOL     OW66416   9.452  10.731   8.452  0.0094  0.3082 -0.0962
21346SOL    HW166417   9.463  10.728   8.357 -1.4515  1.0330 -0.3082
21346SOL    HW266418   9.373  10.680   8.469  0.2534  0.1842  0.7421
21347SOL     OW66419   8.336   0.987   8.184 -0.0445 -1.1164 -0.8300
21347SOL    HW166420   8.300   0.942   8.260  2.0917 -2.0083 -0.2795
21347SOL    HW266421   8.342   1.079   8.210  0.2527 -1.3436 -0.1061
21348SOL     OW66422   3.671   9.407   6.120  0.0940  0.1828  0.4806
21348SOL    HW166423   3.646   9.478   6.060  1.2762  0.6745  0.5368
21348SOL    HW266424   3.763   9.391   6.101  0.1366 -0.5683  1.2650
21349SOL     OW66425   2.200   9.300   2.302 -0.2320  1.1869 -0.6215
21349SOL    HW166426   2.295   9.311   2.295  0.0737 -1.3257 -1.4400
21349SOL    HW266427   2.178   9.239   2.231 -1.7288 -1.8817  2.2284
21350SOL     OW66428   7.795   6.501   0.552 -0.5812  0.6298 -0.2698
21350SOL    HW166429   7.808   6.420   0.503  0.0442  0.0191  0.8737
21350SOL    HW266430   7.857   6.563   0.514 -0.8813  0.5135 -0.9711
21351SOL     OW66431   8.452   2.204   0.705  0.7754 -0.0556  0.0292
21351SOL    HW166432   8.479   2.261   0.777 -2.6844 -0.2355  1.7230
21351SOL    HW266433   8.445   2.262   0.629 -1.1540  1.5529  1.3308
21352SOL     OW66434   0.034   0.948   6.763 -0.5461  0.2125 -0.0687
21352SOL    HW166435  -0.031   1.000   6.809 -0.1177  1.5440 -0.8763
21352SOL    HW266436   0.098   1.013   6.732  1.3371 -1.0603  0.9488
21353SOL     OW66437   5.947   3.232   7.287  0.0402 -0.3853 -0.5057
21353SOL    HW166438   5.900   3.260   7.209  1.4348 -0.6951 -1.5117
21353SOL    HW266439   6.040   3.236   7.261  0.4877 -1.2780  0.8671
21354SOL     OW66440   6.103   5.649  10.780  0.3911 -0.1294 -0.3643
21354SOL    HW166441   6.031   5.687  10.730  0.7963  0.4403 -0.5324
21354SOL    HW266442   6.156   5.724  10.807  1.6336 -0.5989 -1.3546
21355SOL     OW66443   4.426   2.741   6.946 -0.7214  0.0615  0.3179
21355SOL    HW166444   4.439   2.750   6.852 -1.8061  0.1464  0.1713
21355SOL    HW266445   4.451   2.826   6.982  2.7164 -0.8602  0.5015
21356SOL     OW66446   7.059   2.887   2.344  0.1302 -0.2776  0.3913
21356SOL    HW166447   7.036   2.980   2.343  1.4893  0.0903  0.9890
21356SOL    HW266448   7.026   2.853   2.261  0.4127  0.9539 -0.2498
21357SOL     OW66449   2.109  10.737   2.858 -0.0243 -0.0209 -0.2864
21357SOL    HW166450   2.084  10.662   2.911 -0.9305  0.9003  0.6609
21357SOL    HW266451   2.058  10.810   2.895  0.5716  0.9845 -1.3778
21358SOL     OW66452   8.303   0.883   5.563 -0.3309  0.0730  0.4674
21358SOL    HW166453   8.225   0.887   5.508 -0.1418 -0.4606  0.1389
21358SOL    HW266454   8.278   0.827   5.636 -0.7565  1.2393  1.2328
21359SOL     OW66455   5.072  10.107   4.726  0.1410  0.0461 -0.5403
21359SOL    HW166456   5.107  10.166   4.792 -1.6200 -0.4480  0.9225
21359SOL    HW266457   5.091  10.019   4.760 -0.6354 -0.2146 -0.7634
21360SOL     OW66458   4.217   8.018  10.717 -0.0585  0.1920 -0.0388
21360SOL    HW166459   4.280   7.945  10.712 -1.1476 -0.7843  0.0215
21360SOL    HW266460   4.136   7.981  10.682 -1.0488  0.9078  1.3988
21361SOL     OW66461  10.730   0.002   1.868 -0.4233  0.1932  0.3960
21361SOL    HW166462  10.718   0.020   1.775 -0.8126  0.2302  0.4518
21361SOL    HW266463  10.699  -0.088   1.879  0.7282 -0.2398  0.2735
21362SOL     OW66464   8.610   6.077   7.442  0.1220  0.0492 -0.1896
21362SOL    HW166465   8.523   6.095   7.406 -1.0022 -1.9791  1.3137
21362SOL    HW266466   8.664   6.150   7.411 -1.7245  0.6023 -2.4067
21363SOL     OW66467   3.421   2.294   5.523  0.0136 -0.1388  1.3007
21363SOL    HW166468   3.445   2.205   5.549  1.0312 -0.2520  0.1097
21363SOL    HW266469   3.464   2.350   5.588  0.8141 -0.4683  1.0703
21364SOL     OW66470   8.141   4.846   2.043  0.3161  0.3427 -0.2174
21364SOL    HW166471   8.231   4.867   2.065  0.8712 -0.1540 -1.9161
21364SOL    HW266472   8.147   4.779   1.975 -1.3322  0.5416 -0.6119
21365SOL     OW66473   3.385   7.084   8.059  0.0802  0.5274  0.1582
21365SOL    HW166474   3.395   7.045   7.973  1.4703  1.8114 -0.3125
21365SOL    HW266475   3.416   7.017   8.120  1.0236  0.3372 -0.5054
21366SOL     OW66476   7.003   2.103   3.116  0.5289 -0.0405  0.3904
21366SOL    HW166477   6.963   2.023   3.148  1.5908 -0.7924 -0.1094
21366SOL    HW266478   6.999   2.096   3.020  1.0728  0.2735  0.3387
21367SOL     OW66479   3.484   9.232   2.782  0.7395  0.0297 -0.0820
21367SOL    HW166480   3.421   9.300   2.804 -0.0919 -0.8343  0.2577
21367SOL    HW266481   3.450   9.153   2.823  2.4627 -0.3031  0.7978
21368SOL     OW66482   0.776   7.251   2.071  0.6701  0.6254 -0.0251
21368SOL    HW166483   0.827   7.193   2.015 -0.1456 -0.3151  0.1723
21368SOL    HW266484   0.825   7.253   2.154 -0.2664 -1.3736  0.6343
21369SOL     OW66485  10.406   5.121   2.357  0.0409 -0.0198  0.0640
21369SOL    HW166486  10.319   5.156   2.375 -0.6366 -0.7393 -1.5892
21369SOL    HW266487  10.459   5.148   2.432 -1.5681  0.5261  1.0544
21370SOL     OW66488   8.625   4.084   3.176 -0.2420 -0.0178  0.0557
21370SOL    HW166489   8.709   4.060   3.217  0.5300  0.3239 -1.2784
21370SOL    HW266490   8.576   4.002   3.175 -0.1711 -0.1028  1.3679
21371SOL     OW66491   0.268   2.048   3.433  0.2273  0.2316 -0.0245
21371SOL    HW166492   0.253   2.017   3.522  0.4666 -0.4580 -0.2158
21371SOL    HW266493   0.336   2.116   3.442  0.9562 -0.5148  0.2157
21372SOL     OW66494   4.857   3.517   2.413 -0.2664 -0.2453  0.4202
21372SOL    HW166495   4.770   3.517   2.374  0.2889  1.3286 -0.9343
21372SOL    HW266496   4.916   3.496   2.340  0.7650  2.3866  0.3677
21373SOL     OW66497   7.007   1.859   1.623  0.5181  0.2096 -0.6310
21373SOL    HW166498   7.100   1.849   1.605  0.4052 -0.9101 -0.6554
21373SOL    HW266499   7.001   1.935   1.681  1.3942  0.5593 -0.9876
21374SOL     OW66500   6.946   1.489   4.682  0.5783  0.0929 -0.2800
21374SOL    HW166501   6.882   1.554   4.710  1.1751  1.3103 -1.6169
21374SOL    HW266502   6.917   1.408   4.723 -0.5800  1.0466  0.8801
21375SOL     OW66503   8.916   1.955   5.998 -0.1714  0.0697 -0.3833
21375SOL    HW166504   8.836   1.918   6.033  0.5300 -2.5902 -1.3979
21375SOL    HW266505   8.930   2.035   6.049 -1.8249 -0.9918  1.8832
21376SOL     OW66506   5.639   2.116   0.983  0.5271 -0.2761 -0.6802
21376SOL    HW166507   5.639   2.212   0.978 -2.2944 -0.2023 -0.9262
21376SOL    HW266508   5.614   2.087   0.895  0.4083 -1.2152 -0.3491
21377SOL     OW66509   4.681   3.611   7.070  0.5993 -0.1494  0.1081
21377SOL    HW166510   4.590   3.623   7.043  0.8939  3.6230  0.1570
21377SOL    HW266511   4.731   3.617   6.988  0.8898 -0.1354  0.2826
21378SOL     OW66512   1.176   8.593   9.970  0.4269  0.0988 -0.0287
21378SOL    HW166513   1.216   8.635  10.046 -1.3518  0.1247  0.9504
21378SOL    HW266514   1.157   8.665   9.910  1.2916  0.1481 -0.2559
21379SOL     OW66515   8.813   2.448   2.047 -0.2198  0.4991  0.4403
21379SOL    HW166516   8.882   2.389   2.079  1.0478  1.6144 -0.1192
21379SOL    HW266517   8.823   2.527   2.101 -2.9331 -0.2991  2.2871
21380SOL     OW66518   8.329   8.756   0.930 -0.1603  0.1385 -0.6788
21380SOL    HW166519   8.259   8.772   0.993 -0.1561  0.0760 -0.6575
21380SOL    HW266520   8.289   8.769   0.845  0.0081  0.8916 -0.6462
21381SOL     OW66521  10.197   8.161   4.280  0.4560  0.7632  1.2217
21381SOL    HW166522  10.159   8.119   4.358 -0.5350  0.9431  0.8519
21381SOL    HW266523  10.264   8.099   4.250 -1.4692 -0.9705  0.2603
21382SOL     OW66524   7.733   8.066   2.428  0.7139  0.3877 -0.0804
21382SOL    HW166525   7.687   8.030   2.353 -1.7561  0.9850  1.0412
21382SOL    HW266526   7.736   8.161   2.412 -2.2177  0.8942  1.6285
21383SOL     OW66527   1.538   0.098  10.539  0.1994  0.6787  0.7435
21383SOL    HW166528   1.529   0.191  10.560  0.5682  0.7719  0.4866
21383SOL    HW266529   1.487   0.087  10.459  1.2447  0.9356  0.0302
21384SOL     OW66530   4.946   8.488   4.060 -0.0277  0.0388 -0.1027
21384SOL    HW166531   4.909   8.405   4.031  0.9256 -0.1960 -0.6993
21384SOL    HW266532   5.032   8.465   4.096 -0.7333  0.4637  1.9892
21385SOL     OW66533   8.460   1.461  10.692  0.0541  0.4717 -0.1503
21385SOL    HW166534   8.547   1.491  10.718 -0.2626  0.3809  1.0599
21385SOL    HW266535   8.429   1.529  10.632  0.6297  0.9211  0.0430
21386SOL     OW66536   9.957   8.021   8.565  0.0342  0.0097 -0.6123
21386SOL    HW166537   9.982   8.080   8.494  2.4414  0.1013  0.2405
21386SOL    HW266538  10.037   8.007   8.615 -1.5401 -0.0066  2.1338
21387SOL     OW66539   6.065   5.413   1.686  0.2514 -0.2606 -0.0610
21387SOL    HW166540   5.999   5.359   1.729 -0.9101  0.9858 -0.2088
21387SOL    HW266541   6.143   5.358   1.683 -0.3729 -1.2821  1.3579
21388SOL     OW66542   7.485   5.469   4.889  0.1684 -0.2082  0.2447
21388SOL    HW166543   7.511   5.377   4.891 -1.3681 -0.6528  0.2945
21388SOL    HW266544   7.394   5.469   4.862 -0.3514  1.1879  1.7811
21389SOL     OW66545   8.579   8.418   0.920 -0.1820  0.3995 -0.0836
21389SOL    HW166546   8.523   8.434   0.996  0.9702 -0.2595  0.9482
21389SOL    HW266547   8.560   8.490   0.860 -2.0690  0.2185  0.2544
21390SOL     OW66548  10.211   8.662   6.206  0.7110 -0.4805  0.4626
21390SOL    HW166549  10.156   8.600   6.158 -0.5029  0.3543  0.7292
21390SOL    HW266550  10.243   8.723   6.139 -1.6148  1.1563  0.7199
21391SOL     OW66551   9.299  10.558   4.298  0.1369 -0.5058  0.1987
21391SOL    HW166552   9.260  10.639   4.265  0.0942 -0.1420  1.1267
21391SOL    HW266553   9.226  10.498   4.311  0.0154 -0.2472  0.7413
21392SOL     OW66554   7.101  10.618   6.426 -0.0916  0.1600 -0.5287
21392SOL    HW166555   7.109  10.536   6.475 -1.1006  0.7667  0.7167
21392SOL    HW266556   7.129  10.596   6.337  2.2035 -0.9019  0.3555
21393SOL     OW66557   5.214   9.846   8.366 -0.0134 -0.5703  0.0239
21393SOL    HW166558   5.144   9.805   8.315 -0.2821  0.0195 -0.0896
21393SOL    HW266559   5.179   9.932   8.390  0.5612 -0.3856  0.2133
21394SOL     OW66560   3.507   2.049   3.420  0.0212 -0.6726  0.5911
21394SOL    HW166561   3.517   2.042   3.515  0.3623 -0.5716  0.5661
21394SOL    HW266562   3.463   2.133   3.406  0.4706 -0.4260  0.6335
21395SOL     OW66563   8.450   3.819   2.094  0.1655  0.3406 -0.2869
21395SOL    HW166564   8.358   3.832   2.116  0.0930  1.3776 -1.1536
21395SOL    HW266565   8.472   3.736   2.136 -1.4993 -0.5680 -1.0822
21396SOL     OW66566   4.111   0.020   6.595 -0.3641 -0.5304 -0.3300
21396SOL    HW166567   4.021   0.022   6.565 -0.3936 -0.4218 -0.2335
21396SOL    HW266568   4.162  -0.002   6.516 -0.3035  1.1316 -0.7996
21397SOL     OW66569   2.736   8.093   0.806 -0.9318  0.0577  0.0670
21397SOL    HW166570   2.806   8.096   0.871 -0.9966 -0.0313  0.1414
21397SOL    HW266571   2.656   8.093   0.858 -0.9706 -1.0671  0.0269
21398SOL     OW66572   5.409   6.318   5.761 -0.7384 -0.3732 -0.1795
21398SOL    HW166573   5.479   6.253   5.755 -0.2949  0.1111 -0.3467
21398SOL    HW266574   5.440   6.390   5.707 -1.9471 -0.6755 -1.3349
21399SOL     OW66575   1.315   4.981   1.552 -0.8370 -0.1641  0.1331
21399SOL    HW166576   1.308   4.924   1.629 -0.6433  1.3509  1.3119
21399SOL    HW266577   1.299   5.069   1.586 -1.6374  0.4488 -1.7404
21400SOL     OW66578   9.123  10.387   8.984 -0.1311  0.1114  0.7212
21400SOL    HW166579   9.122  10.470   8.936 -0.0524  0.2061  0.8789
21400SOL    HW266580   9.204  10.345   8.958 -0.3898 -0.1215  0.2982
21401SOL     OW66581   9.478   2.128   9.396 -0.1318  0.1124 -0.1776
21401SOL    HW166582   9.514   2.147   9.482 -1.2232  1.0385  0.0988
21401SOL    HW266583   9.418   2.201   9.378 -1.4493 -1.0753 -0.8434
21402SOL     OW66584   3.020   3.086   7.198  0.1263 -0.0100  0.0261
21402SOL    HW166585   3.032   3.147   7.125 -0.9324 -0.0039 -0.1619
21402SOL    HW266586   3.001   3.142   7.273 -1.4053 -0.1036 -0.2648
21403SOL     OW66587   8.163   1.690  10.794  1.0094  0.9774 -0.3490
21403SOL    HW166588   8.092   1.748  10.770  2.1217  1.9945 -1.3015
21403SOL    HW266589   8.203   1.665  10.711  1.8407  0.5291  0.1645
21404SOL     OW66590   1.892   2.505   2.534  0.2289 -0.6052  0.0618
21404SOL    HW166591   1.804   2.472   2.516  0.8051 -2.1292 -0.1207
21404SOL    HW266592   1.915   2.556   2.456 -0.8650  0.7051  0.5516
21405SOL     OW66593  10.685   0.313   9.762  0.6044 -0.1595 -0.1937
21405SOL    HW166594  10.619   0.383   9.760  0.2884 -0.4523 -1.6915
21405SOL    HW266595  10.723   0.314   9.674  2.0654 -0.5159  0.4080
21406SOL     OW66596   3.835   0.749   3.332  0.4248 -0.2525  0.1813
21406SOL    HW166597   3.892   0.777   3.403  2.4629 -2.2222 -0.5454
21406SOL    HW266598   3.835   0.653   3.337  2.0355 -0.6088 -3.3779
21407SOL     OW66599   9.930  10.640  10.183  0.0595 -0.4433  0.1880
21407SOL    HW166600  10.004  10.642  10.244 -0.2155  0.9515  0.5063
21407SOL    HW266601   9.906  10.731  10.171 -1.6456 -0.8609  0.1264
21408SOL     OW66602   8.581   1.240   5.699 -0.1654  0.1541  0.5593
21408SOL    HW166603   8.673   1.251   5.721 -0.0429  0.4550 -0.0971
21408SOL    HW266604   8.576   1.153   5.658 -0.3087 -0.1876  1.2817
21409SOL     OW66605   0.313   0.641   3.264  0.0805  0.5830  0.3605
21409SOL    HW166606   0.312   0.648   3.359  0.5240 -0.2507  0.4386
21409SOL    HW266607   0.322   0.547   3.247 -1.8539  0.4997 -0.5098
21410SOL     OW66608   5.291   6.241   0.713  0.8013  0.2586  0.1272
21410SOL    HW166609   5.357   6.178   0.684 -0.5437 -0.8392 -0.7041
21410SOL    HW266610   5.222   6.187   0.751  0.1960  1.3445  0.6217
21411SOL     OW66611   6.357   0.090   7.729 -0.2750  0.2031 -0.2234
21411SOL    HW166612   6.328   0.011   7.775 -1.0026  0.0256 -0.9788
21411SOL    HW266613   6.279   0.145   7.723  0.3597  1.2889  0.8748
21412SOL     OW66614   7.222   2.388   1.673 -0.5877 -0.1117 -0.1219
21412SOL    HW166615   7.136   2.390   1.631 -0.0066  2.0121 -1.3182
21412SOL    HW266616   7.233   2.475   1.710 -0.2811 -1.3307  2.9610
21413SOL     OW66617  10.362  10.687   2.566  0.2876 -0.5102 -0.4313
21413SOL    HW166618  10.311  10.751   2.517  1.6965  0.5916 -0.5357
21413SOL    HW266619  10.401  10.630   2.500  0.5718 -0.2672 -0.4778
21414SOL     OW66620   6.174   1.556   2.688  0.7455 -0.1493 -1.1172
21414SOL    HW166621   6.107   1.513   2.742  1.0522 -0.1209 -0.7137
21414SOL    HW266622   6.219   1.484   2.645  1.0104 -0.2161 -0.7338
21415SOL     OW66623   9.833   0.811   6.334 -0.2143 -0.2167  0.6283
21415SOL    HW166624   9.891   0.775   6.267  0.1133  2.0107 -0.3866
21415SOL    HW266625   9.745   0.788   6.305 -0.0064 -0.4482  0.1808
21416SOL     OW66626   6.684   4.445   1.178 -0.1992 -0.3413  0.3032
21416SOL    HW166627   6.604   4.397   1.197 -0.4791  0.3534  0.8817
21416SOL    HW266628   6.660   4.537   1.186  0.5153 -0.1147 -0.0760
21417SOL     OW66629   8.189   7.708   2.730 -0.0254  0.1935 -0.1165
21417SOL    HW166630   8.185   7.709   2.635 -1.4167  0.9991 -0.0749
21417SOL    HW266631   8.208   7.798   2.755 -1.8217  0.4755  0.4022
21418SOL     OW66632   4.431   5.837   4.631  0.2636  0.2295 -0.2333
21418SOL    HW166633   4.424   5.755   4.680 -0.5734 -0.1561 -0.9653
21418SOL    HW266634   4.368   5.896   4.674 -0.2577 -0.0148 -0.6527
21419SOL     OW66635   3.630   0.408   1.095 -0.3426 -0.6726 -0.2765
21419SOL    HW166636   3.545   0.392   1.052 -0.4074 -1.3658  0.1009
21419SOL    HW266637   3.695   0.389   1.028 -0.4926  0.7724 -0.8634
21420SOL     OW66638   5.163   3.177  10.534  0.4771  0.8139  0.0832
21420SOL    HW166639   5.216   3.226  10.596  0.8534 -0.4729  0.8065
21420SOL    HW266640   5.227   3.136  10.475  0.4876 -2.0201  1.8984
21421SOL     OW66641   3.818   4.173   1.240 -0.0463  0.0292 -0.8302
21421SOL    HW166642   3.768   4.210   1.168 -0.8197 -0.9967 -0.8489
21421SOL    HW266643   3.754   4.121   1.289  0.5220  0.4885  0.4359
21422SOL     OW66644   3.403  10.445   1.947  0.0332 -0.0445 -0.2890
21422SOL    HW166645   3.448  10.493   1.878 -0.1978 -0.6199 -0.8507
21422SOL    HW266646   3.455  10.462   2.026  1.1684 -0.5759 -0.8994
21423SOL     OW66647   4.048   2.230   0.945 -0.5011 -0.1041 -1.0957
21423SOL    HW166648   4.025   2.138   0.932 -1.1806 -0.1113  0.0375
21423SOL    HW266649   4.135   2.227   0.986  0.1997 -0.1690 -2.5187
21424SOL     OW66650   1.295   8.531  10.628 -0.1965 -0.0583 -0.3243
21424SOL    HW166651   1.228   8.570  10.684 -1.0439 -0.6449 -0.9235
21424SOL    HW266652   1.273   8.439  10.624 -0.1760 -0.0167 -1.6696
21425SOL     OW66653   6.767   0.019  10.118 -0.1481 -0.2215 -0.3597
21425SOL    HW166654   6.784   0.034  10.211  0.9431 -2.7379 -0.0645
21425SOL    HW266655   6.853   0.025  10.077 -0.3188 -1.0435 -0.8625
21426SOL     OW66656   3.410   9.859  10.684  0.1273 -0.1667  0.3412
21426SOL    HW166657   3.331   9.849  10.738  1.6152 -3.2019  2.2721
21426SOL    HW266658   3.410   9.781  10.628  2.6839 -1.4248  1.8954
21427SOL     OW66659   3.534   1.811   0.855  0.0662  0.1246  0.4928
21427SOL    HW166660   3.579   1.852   0.929 -1.9407  0.2871  1.7042
21427SOL    HW266661   3.519   1.721   0.883 -4.0056  1.0772  2.0540
21428SOL     OW66662   2.620   7.742   5.172 -0.1253  0.2159 -0.3736
21428SOL    HW166663   2.648   7.654   5.198 -0.6925 -0.3050 -1.4514
21428SOL    HW266664   2.701   7.790   5.158  0.1934  0.2303  1.3558
21429SOL     OW66665   4.813   2.387   6.632 -0.2894 -0.0602  0.4983
21429SOL    HW166666   4.862   2.444   6.573 -0.5489 -1.5255 -1.2296
21429SOL    HW266667   4.876   2.363   6.700  0.6478  0.0700 -0.3041
21430SOL     OW66668  10.314   3.303   2.379 -0.1722  0.0138 -0.1864
21430SOL    HW166669  10.309   3.212   2.409 -1.2334  0.1747  0.1640
21430SOL    HW266670  10.278   3.353   2.452 -0.3212  0.6486 -0.6914
21431SOL     OW66671   5.250   8.086   3.722 -0.1703  0.1803 -0.1162
21431SOL    HW166672   5.291   8.141   3.788 -1.2956  2.1079 -0.9575
21431SOL    HW266673   5.203   8.019   3.773  1.7565 -0.4779  0.8925
21432SOL     OW66674   2.346   4.060   1.827  0.2314  0.0053  0.3172
21432SOL    HW166675   2.294   4.080   1.904 -0.2148 -1.1286  0.3328
21432SOL    HW266676   2.391   4.142   1.806 -2.1976  1.2922 -0.2068
21433SOL     OW66677   9.393   9.044   5.990  0.6932  0.0224 -0.4660
21433SOL    HW166678   9.436   9.028   5.905  0.3055 -1.1807 -0.4562
21433SOL    HW266679   9.326   9.109   5.971  0.7045 -0.1301 -1.0650
21434SOL     OW66680   7.460   1.917  10.605 -0.1773 -0.1018 -0.5750
21434SOL    HW166681   7.520   1.987  10.576  0.4035  1.0376  2.9392
21434SOL    HW266682   7.373   1.957  10.602 -0.1605 -0.0871 -0.9383
21435SOL     OW66683   1.076   2.858   3.136  0.6353  0.2586 -0.3169
21435SOL    HW166684   1.168   2.834   3.124  1.3116  1.4959  1.8372
21435SOL    HW266685   1.044   2.800   3.205 -0.4022 -0.5395 -1.4292
21436SOL     OW66686   6.712   3.547   8.215  0.5573 -0.3248 -0.1135
21436SOL    HW166687   6.729   3.472   8.273  1.6273  0.7135  0.9610
21436SOL    HW266688   6.795   3.594   8.212 -0.3019  1.2683 -0.1065
21437SOL     OW66689   4.230   2.979   0.537 -0.1248 -0.0305  0.2869
21437SOL    HW166690   4.247   3.018   0.623  0.4232 -0.8508  0.5660
21437SOL    HW266691   4.135   2.982   0.527 -0.1470  0.6679  0.6288
21438SOL     OW66692   0.514   4.988  10.135  0.1328 -0.1948  0.3844
21438SOL    HW166693   0.501   4.929  10.061 -0.0182  0.7063 -0.3190
21438SOL    HW266694   0.608   5.008  10.133  0.4464 -1.4159  1.4176
21439SOL     OW66695   6.410   5.450   3.141 -0.2568  0.0122 -0.4930
21439SOL    HW166696   6.466   5.401   3.201  0.0938  1.1817  0.1490
21439SOL    HW266697   6.410   5.397   3.061 -0.4416 -1.3779  0.3950
21440SOL     OW66698  10.543   4.790   9.581  0.4213  0.6005 -0.4197
21440SOL    HW166699  10.457   4.798   9.540  0.5265 -0.4625 -0.8771
21440SOL    HW266700  10.557   4.874   9.624 -0.0113  1.4736 -1.9389
21441SOL     OW66701   4.442   3.725   6.348  0.3211 -0.6411 -0.2897
21441SOL    HW166702   4.372   3.691   6.292  1.3556 -1.3552 -1.1730
21441SOL    HW266703   4.494   3.780   6.290  0.0750  0.5113  0.5511
21442SOL     OW66704   7.021  10.575   5.233  0.3986  0.3301  0.8983
21442SOL    HW166705   6.974  10.598   5.153 -1.0296 -1.7810  1.0458
21442SOL    HW266706   7.020  10.656   5.285  0.3204  1.3966 -0.6985
21443SOL     OW66707   0.758  10.599  10.099 -0.5353  0.0002 -0.0028
21443SOL    HW166708   0.765  10.505  10.082 -0.5193  0.1217 -0.6727
21443SOL    HW266709   0.749  10.639  10.013 -3.7875  0.3391  0.3480
21444SOL     OW66710   9.968   1.052   9.243  0.2047  0.2236 -0.1501
21444SOL    HW166711   9.928   1.136   9.222 -0.1285  0.6209  1.8706
21444SOL    HW266712  10.059   1.074   9.265 -0.0906  0.2215  1.1820
21445SOL     OW66713   4.681   6.223   4.672  0.4643 -0.1418 -0.0874
21445SOL    HW166714   4.597   6.219   4.625 -0.3918  0.5790  1.2912
21445SOL    HW266715   4.658   6.200   4.763  0.8483  4.3078  1.3536
21446SOL     OW66716   1.480   9.526   1.036  0.5981 -0.1718 -0.5279
21446SOL    HW166717   1.387   9.510   1.048  0.7737 -0.5578  0.4444
21446SOL    HW266718   1.520   9.438   1.037  1.1138  0.0506  0.5736
21447SOL     OW66719   5.488   8.679   3.664  0.4724 -0.5978 -0.0469
21447SOL    HW166720   5.426   8.609   3.685  1.5424 -1.8971 -0.9705
21447SOL    HW266721   5.467   8.750   3.724 -0.8908 -1.5851  0.6868
21448SOL     OW66722   0.888  10.747   6.902  0.4304 -0.2667  0.3910
21448SOL    HW166723   0.976  10.782   6.917  0.7266 -1.0282  0.4272
21448SOL    HW266724   0.830  10.809   6.948  0.6390  2.0226 -2.1408
21449SOL     OW66725   2.354   4.131   5.850 -0.3410  0.3536 -0.4978
21449SOL    HW166726   2.345   4.123   5.945 -0.3290  0.1343 -0.5151
21449SOL    HW266727   2.353   4.226   5.833  2.5944  0.5665  0.0164
21450SOL     OW66728   2.542   5.225   8.648  0.4235  0.0966 -0.4915
21450SOL    HW166729   2.564   5.298   8.590  1.5208 -0.4167 -0.7510
21450SOL    HW266730   2.611   5.225   8.714  0.4945 -0.7745 -0.5609
21451SOL     OW66731   6.862   4.671   0.989  0.0919 -0.1936  0.1897
21451SOL    HW166732   6.919   4.702   1.059 -0.7465 -4.3525  3.0861
21451SOL    HW266733   6.774   4.694   1.018 -0.1419  1.6402 -1.7032
21452SOL     OW66734   8.308   5.788   0.199  0.1156  0.2721  0.0843
21452SOL    HW166735   8.252   5.735   0.256 -0.7991 -0.3488 -1.3423
21452SOL    HW266736   8.390   5.739   0.194 -0.0501 -0.0331  0.2980
21453SOL     OW66737   6.484   9.155   5.863 -0.0736 -0.1029  0.4491
21453SOL    HW166738   6.414   9.221   5.863  0.5363  0.5628  0.1998
21453SOL    HW266739   6.521   9.158   5.951  0.6558  0.6719  0.1323
21454SOL     OW66740   9.315   9.662   8.121 -0.3851 -0.4005 -0.3997
21454SOL    HW166741   9.395   9.616   8.147 -0.0579  0.6763  0.5794
21454SOL    HW266742   9.284   9.703   8.202 -1.0917  0.4490 -1.0789
21455SOL     OW66743   7.560   6.346   7.952 -0.2613 -0.0867  0.0585
21455SOL    HW166744   7.513   6.391   8.022  2.0712  0.6576  1.2152
21455SOL    HW266745   7.525   6.257   7.953  0.3378 -0.3801  2.8346
21456SOL     OW66746   8.811   1.853   3.292 -0.0464 -0.4612  0.4867
21456SOL    HW166747   8.772   1.814   3.214 -1.8357  0.6504  0.7909
21456SOL    HW266748   8.804   1.784   3.359  0.0535 -0.8522  0.0989
21457SOL     OW66749   3.401   9.844   8.466  0.1132  0.6726  0.4727
21457SOL    HW166750   3.417   9.777   8.532  2.5454  1.7727  1.1129
21457SOL    HW266751   3.340   9.905   8.507  0.2925  0.4706  1.0361
21458SOL     OW66752   1.958   3.857   5.537 -0.3335  0.0802  0.2071
21458SOL    HW166753   1.968   3.898   5.451 -1.2677  0.5139  0.2905
21458SOL    HW266754   2.031   3.892   5.588  0.9230 -1.0757 -0.7104
21459SOL     OW66755   8.618   8.137   8.958 -0.0769  0.0047  0.3025
21459SOL    HW166756   8.541   8.081   8.953  0.0506 -0.2102  0.7041
21459SOL    HW266757   8.617   8.186   8.875  0.1833 -1.0666 -0.3506
21460SOL     OW66758   9.930   1.416   1.893 -0.0121  0.1107 -0.1987
21460SOL    HW166759  10.018   1.424   1.928  0.6318 -0.3091 -1.6554
21460SOL    HW266760   9.923   1.488   1.830 -0.4019 -0.3784 -0.7192
21461SOL     OW66761  10.271   9.628   5.437 -0.1606  0.1089 -0.1706
21461SOL    HW166762  10.238   9.578   5.362  0.5402  0.1419 -0.5182
21461SOL    HW266763  10.366   9.617   5.431 -0.1505 -0.9151  1.4365
21462SOL     OW66764   0.965   6.907   8.549 -0.0046 -0.2036 -0.6812
21462SOL    HW166765   0.876   6.873   8.556  0.5072 -1.7060 -1.0959
21462SOL    HW266766   1.008   6.877   8.628  0.1222  0.6033 -0.4364
21463SOL     OW66767   2.956   7.761  10.236 -0.2770  0.2578  0.2147
21463SOL    HW166768   3.039   7.741  10.193 -0.3910  1.1895 -0.4678
21463SOL    HW266769   2.954   7.703  10.312 -0.0558 -1.3978 -0.9956
21464SOL     OW66770   9.625   1.114   8.252  0.0053  0.0755  0.1963
21464SOL    HW166771   9.715   1.146   8.258 -0.3230  0.9949  0.3701
21464SOL    HW266772   9.572   1.193   8.241 -0.8456 -0.3999  0.7657
21465SOL     OW66773   5.909   5.102   4.976  0.1684 -0.3813  0.4594
21465SOL    HW166774   5.976   5.067   5.035  1.5113  0.3779 -0.5618
21465SOL    HW266775   5.855   5.027   4.952  0.5477 -0.9766  1.4262
21466SOL     OW66776   2.193   5.892   3.888 -0.1092  0.0721 -0.1754
21466SOL    HW166777   2.178   5.826   3.821  1.0107  0.2872 -0.6541
21466SOL    HW266778   2.107   5.932   3.901 -0.4427 -0.3094 -1.1203
21467SOL     OW66779   6.314   2.844   4.728 -0.0420 -0.9825  0.7297
21467SOL    HW166780   6.397   2.855   4.682 -0.4390  1.3728  0.4438
21467SOL    HW266781   6.249   2.882   4.669 -0.9283 -0.2714  2.1299
21468SOL     OW66782   2.573   4.458  10.414 -0.3455 -0.2247 -0.5787
21468SOL    HW166783   2.585   4.375  10.460  1.1401 -0.3960 -1.2245
21468SOL    HW266784   2.488   4.449  10.371 -0.6767 -0.9819  0.2039
21469SOL     OW66785  10.287   1.452   4.211  0.2238  0.6896 -0.1284
21469SOL    HW166786  10.368   1.403   4.226  0.2154  0.9201  0.7260
21469SOL    HW266787  10.280   1.459   4.116  0.7708 -0.0583 -0.2297
21470SOL     OW66788   6.924   0.915   9.935 -0.3327 -0.1410  0.6635
21470SOL    HW166789   6.892   0.892   9.848  0.9661  0.8432 -0.1264
21470SOL    HW266790   6.871   0.863   9.995 -0.3740 -1.8600 -0.7754
21471SOL     OW66791  10.702   9.868   9.108 -0.1050 -0.0620  0.4250
21471SOL    HW166792  10.732   9.780   9.127  0.0469 -0.2397 -0.5687
21471SOL    HW266793  10.782   9.918   9.090 -0.2444  0.0373  0.0619
21472SOL     OW66794   5.723  10.378   8.532  0.1391  0.1074  0.2493
21472SOL    HW166795   5.787  10.313   8.503  0.4037 -0.2935  1.6263
21472SOL    HW266796   5.696  10.347   8.619 -2.5671 -0.2054 -0.6020
21473SOL     OW66797   0.539   7.386   5.710 -0.2111 -0.2116  0.0275
21473SOL    HW166798   0.547   7.430   5.626 -0.6655 -1.0646 -0.4767
21473SOL    HW266799   0.473   7.435   5.758 -2.2757 -1.5250 -1.3392
21474SOL     OW66800   8.025   9.759   4.452 -0.4202 -0.5927  0.3320
21474SOL    HW166801   7.953   9.814   4.423  0.2802  0.0557 -0.2409
21474SOL    HW266802   8.037   9.696   4.380 -1.3450 -1.6496  1.0682
21475SOL     OW66803   3.202   4.513   6.305 -0.4627  0.2602  0.0925
21475SOL    HW166804   3.228   4.591   6.353  2.5039 -0.8010  0.4179
21475SOL    HW266805   3.229   4.530   6.215 -0.0930 -0.2349  0.1019
21476SOL     OW66806   8.994   6.179   7.140  0.0073 -0.3864  0.3739
21476SOL    HW166807   8.966   6.222   7.059  1.7376 -1.0674 -0.6385
21476SOL    HW266808   9.085   6.155   7.124  0.2769 -0.8753  2.4075
21477SOL     OW66809   3.894   2.956   9.963  0.2123 -0.0687 -0.1940
21477SOL    HW166810   3.954   2.920  10.029  1.4123  1.2526 -0.5008
21477SOL    HW266811   3.863   3.038  10.002 -0.7767 -0.3315 -0.3964
21478SOL     OW66812   2.631   9.897   7.223  0.6175 -0.8033 -0.2280
21478SOL    HW166813   2.665   9.851   7.300 -0.1927 -3.3625 -1.2892
21478SOL    HW266814   2.616   9.986   7.253  2.3148 -1.1669  1.9668
21479SOL     OW66815   9.977   5.744   1.793  0.5519  0.1477 -0.0106
21479SOL    HW166816   9.901   5.741   1.735 -0.1793 -2.9038  0.9187
21479SOL    HW266817  10.021   5.660   1.780  5.3575  2.6069 -2.3133
21480SOL     OW66818   1.844   8.492   5.278  0.0199 -0.3693  0.4141
21480SOL    HW166819   1.754   8.459   5.274  0.1397 -0.6644  0.1052
21480SOL    HW266820   1.856   8.537   5.194  0.0620 -0.0689  0.5797
21481SOL     OW66821   2.087   3.753   7.553  0.0124  0.8618 -0.3906
21481SOL    HW166822   2.157   3.786   7.609  0.0914 -0.6505  0.4335
21481SOL    HW266823   2.133   3.721   7.475  0.0558  1.4333 -0.6084
21482SOL     OW66824   2.493   6.656   6.798  0.0990 -0.2291  0.4664
21482SOL    HW166825   2.505   6.737   6.748 -1.0787 -0.4349 -0.1696
21482SOL    HW266826   2.467   6.685   6.885 -0.3864  0.0841  0.2202
21483SOL     OW66827   6.198   4.044   9.305 -0.3560 -0.2252 -0.1096
21483SOL    HW166828   6.274   4.065   9.359 -0.4560 -0.7264  0.2308
21483SOL    HW266829   6.227   4.062   9.215  0.2702 -0.7080 -0.0113
21484SOL     OW66830   0.476   0.130   8.575  0.0337 -0.2585 -0.4536
21484SOL    HW166831   0.416   0.169   8.512 -1.0746 -0.3990  0.4662
21484SOL    HW266832   0.421   0.068   8.625  0.9667 -0.4695  0.3535
21485SOL     OW66833   0.084   2.713   9.722 -0.4066  0.2657 -0.0827
21485SOL    HW166834   0.010   2.717   9.783 -1.3589  0.8554 -1.2323
21485SOL    HW266835   0.100   2.805   9.698  1.4695  0.2724  1.0123
21486SOL     OW66836   3.330   5.656  10.457  0.7855 -0.3956 -0.0556
21486SOL    HW166837   3.402   5.595  10.444 -0.1777 -1.5567 -0.0758
21486SOL    HW266838   3.373   5.740  10.476  2.1467 -0.6449 -1.8112
21487SOL     OW66839   5.528   0.725   4.652  0.4207  0.4203 -0.4469
21487SOL    HW166840   5.549   0.634   4.629 -0.3279  0.5625 -1.8016
21487SOL    HW266841   5.436   0.735   4.627  0.1964  1.2666  0.6584
21488SOL     OW66842   4.847   8.765   7.469  0.3640  0.4424 -0.1774
21488SOL    HW166843   4.770   8.709   7.457 -1.1082  2.1698  0.7416
21488SOL    HW266844   4.891   8.764   7.385  0.1908 -1.7747 -0.2932
21489SOL     OW66845   6.413   4.437   0.045 -0.2315  1.0768 -0.8072
21489SOL    HW166846   6.447   4.369  -0.013 -0.3233  0.4404 -0.1383
21489SOL    HW266847   6.405   4.515  -0.010 -0.4654  0.4509 -1.6698
21490SOL     OW66848   5.706   0.987   9.536  0.1142 -0.3136  0.1832
21490SOL    HW166849   5.669   0.945   9.614  0.6922 -1.6278 -0.2275
21490SOL    HW266850   5.775   0.927   9.507  0.0564  0.2642 -1.2096
21491SOL     OW66851   8.127   1.953   2.975  1.1668  0.0783  0.0654
21491SOL    HW166852   8.184   1.902   3.034  1.6630  0.3816 -0.1432
21491SOL    HW266853   8.100   1.890   2.908 -0.9338 -0.7860  1.5906
21492SOL     OW66854   6.596   2.952   6.497 -0.1559 -0.0986  0.5747
21492SOL    HW166855   6.560   2.888   6.558 -0.0329 -2.1148 -1.3466
21492SOL    HW266856   6.522   2.978   6.443 -0.1004  1.0539  1.0226
21493SOL     OW66857   8.494   9.618   5.067 -0.4726 -0.0034  1.0649
21493SOL    HW166858   8.520   9.527   5.085 -1.2122 -0.3253  0.5351
21493SOL    HW266859   8.524   9.633   4.978 -1.8612 -0.2951  0.5373
21494SOL     OW66860   7.102   5.790   8.687  0.2828 -0.2527 -0.4161
21494SOL    HW166861   7.010   5.788   8.711  0.5709  0.2482  0.8075
21494SOL    HW266862   7.147   5.747   8.761  0.9514 -1.3929 -1.4390
21495SOL     OW66863   2.145   0.455   6.841  0.5536 -0.1515  0.7077
21495SOL    HW166864   2.065   0.508   6.834  0.2614 -0.5101  1.2303
21495SOL    HW266865   2.117   0.366   6.819  0.7624 -0.3161  1.1006
21496SOL     OW66866   5.494  10.050   3.793  0.3929 -0.0917 -0.3731
21496SOL    HW166867   5.500   9.976   3.853 -0.9642  0.1742  0.1378
21496SOL    HW266868   5.455  10.120   3.845 -0.0398  0.4073 -1.3419
21497SOL     OW66869   1.416   5.818   4.316  0.2256 -0.5351 -0.0734
21497SOL    HW166870   1.392   5.792   4.405  1.3334  0.3526  0.5058
21497SOL    HW266871   1.474   5.748   4.285 -0.7969 -1.2541 -0.4256
21498SOL     OW66872   2.943   6.107   5.092 -0.3266  0.0304  0.0837
21498SOL    HW166873   2.942   6.043   5.020 -0.3793  0.5531 -0.3912
21498SOL    HW266874   3.026   6.092   5.137  0.9078  1.3424 -1.6170
21499SOL     OW66875   1.741   7.588   8.694 -0.3635 -0.0774 -0.1262
21499SOL    HW166876   1.786   7.504   8.705 -1.6380 -1.0337 -1.6280
21499SOL    HW266877   1.773   7.622   8.610 -1.1193  0.0745 -0.3636
21500SOL     OW66878   5.792   8.139   5.280  0.0038  0.3709  0.6323
21500SOL    HW166879   5.800   8.075   5.350  0.0339 -1.6477 -1.1250
21500SOL    HW266880   5.880   8.149   5.245 -0.1997  0.4816  0.1409
21501SOL     OW66881   3.340   4.987   5.728  0.0142  0.5893  0.2330
21501SOL    HW166882   3.418   5.012   5.776  0.9697 -2.1690  0.2937
21501SOL    HW266883   3.372   4.961   5.641 -0.9254  0.1618 -0.0030
21502SOL     OW66884   8.706   3.976   3.990 -0.4772 -0.5286  0.5941
21502SOL    HW166885   8.740   4.021   4.067  1.3795 -0.7064 -0.0892
21502SOL    HW266886   8.685   3.887   4.021  2.6602 -1.4327  0.4255
21503SOL     OW66887   3.576  10.327  10.246  0.1975  0.6242 -0.1995
21503SOL    HW166888   3.506  10.350  10.185 -1.3334  0.5809  1.4621
21503SOL    HW266889   3.570  10.232  10.256  0.7896  0.5621 -0.3714
21504SOL     OW66890   3.904   5.526   2.703  0.1929 -0.6564  0.0251
21504SOL    HW166891   3.986   5.476   2.703  1.2329  0.9002 -1.9438
21504SOL    HW266892   3.911   5.583   2.779  0.8000 -0.7551  0.0483
21505SOL     OW66893   3.759   5.357   6.662 -0.5067 -0.2149  0.3478
21505SOL    HW166894   3.835   5.387   6.612 -1.3716  1.1421 -0.2199
21505SOL    HW266895   3.776   5.265   6.678  1.5034  0.1509  0.6885
21506SOL     OW66896   0.114   5.267   0.480  0.1998  0.4156  1.1420
21506SOL    HW166897   0.188   5.258   0.541 -0.2397  1.3112  1.8302
21506SOL    HW266898   0.039   5.231   0.527  0.0185  0.2971  0.7724
21507SOL     OW66899   0.847   7.142   8.419  0.4258  0.0303 -0.3013
21507SOL    HW166900   0.832   7.120   8.511  2.6499  1.2373  0.4151
21507SOL    HW266901   0.942   7.139   8.409  0.3671  1.9184 -2.0293
21508SOL     OW66902   2.427   7.847   2.134  0.3091 -0.2004  0.3499
21508SOL    HW166903   2.517   7.878   2.125 -0.1085  1.9080  2.3549
21508SOL    HW266904   2.374   7.926   2.129 -1.3665 -1.2977  0.0494
21509SOL     OW66905   6.822  10.232   1.714 -0.3581 -0.6829  0.0311
21509SOL    HW166906   6.814  10.301   1.648 -2.0366 -0.6985  0.1727
21509SOL    HW266907   6.885  10.171   1.677 -0.0636  0.1227 -0.8313
21510SOL     OW66908   2.670   6.133   9.585 -0.3842 -0.1745  0.3192
21510SOL    HW166909   2.575   6.132   9.568 -0.4730 -1.5272  0.8095
21510SOL    HW266910   2.678   6.154   9.678 -0.1468  0.9379  0.0607
21511SOL     OW66911   5.250   6.249   4.191  0.1795 -0.7276 -0.5989
21511SOL    HW166912   5.322   6.312   4.186 -0.7730  0.4204 -0.2806
21511SOL    HW266913   5.232   6.241   4.285 -2.0254  1.2836 -0.7831
21512SOL     OW66914   2.603   6.430   9.897  0.2771  0.2140  0.0190
21512SOL    HW166915   2.588   6.513   9.852 -1.8148  0.0550  0.3411
21512SOL    HW266916   2.516   6.401   9.924  1.3126 -0.0061  3.6445
21513SOL     OW66917   1.911   0.571   6.849  0.2776  1.0012  0.0275
21513SOL    HW166918   1.832   0.596   6.898 -0.7983 -0.3715 -0.9453
21513SOL    HW266919   1.905   0.619   6.767  0.8532  1.4550  0.2413
21514SOL     OW66920   4.719  10.581   5.307 -0.0683 -0.1255 -0.2210
21514SOL    HW166921   4.723  10.505   5.366  1.8097  0.4785  0.4803
21514SOL    HW266922   4.794  10.570   5.249 -0.7482  0.3593 -1.2249
21515SOL     OW66923   5.740   0.085   9.494 -0.5440  0.3011 -0.9780
21515SOL    HW166924   5.769   0.176   9.498 -0.2288  0.1711  1.7706
21515SOL    HW266925   5.820   0.035   9.476 -0.5888  0.4934 -1.7466
21516SOL     OW66926   0.959   0.862   3.358  0.0219  0.5218  0.0222
21516SOL    HW166927   0.920   0.776   3.371  1.8828 -0.4624 -0.6129
21516SOL    HW266928   0.923   0.893   3.275 -1.0772  0.6187  0.5231
21517SOL     OW66929   9.541   9.962   2.553 -0.2767 -0.7525  0.3119
21517SOL    HW166930   9.613  10.022   2.531  1.3937 -2.8781 -0.3879
21517SOL    HW266931   9.488   9.959   2.474  1.0449 -2.0281 -0.5771
21518SOL     OW66932   0.077   5.881   4.598 -0.1953  0.2316 -0.3920
21518SOL    HW166933  -0.017   5.883   4.615 -0.3168 -3.6961  0.2471
21518SOL    HW266934   0.115   5.926   4.674 -1.5015 -0.1821  0.5525
21519SOL     OW66935   0.215   5.586   6.651 -0.2508 -0.5596 -0.3830
21519SOL    HW166936   0.285   5.549   6.596 -0.4900  0.9078 -1.7596
21519SOL    HW266937   0.250   5.670   6.681 -2.1726  1.4025 -3.1011
21520SOL     OW66938   7.534   6.312   6.768 -0.1030  0.5783  0.1320
21520SOL    HW166939   7.460   6.329   6.827 -0.4682 -0.8788  0.1455
21520SOL    HW266940   7.605   6.284   6.826 -0.0345  0.4516 -0.0126
21521SOL     OW66941   8.113   1.223   9.247  0.6913 -0.2077 -0.0300
21521SOL    HW166942   8.031   1.190   9.209  0.7305 -1.2166  0.7105
21521SOL    HW266943   8.088   1.256   9.333  0.6692  1.7176 -0.7452
21522SOL     OW66944  10.261   0.728   2.096  0.1701 -0.0839  0.0724
21522SOL    HW166945  10.295   0.653   2.145 -1.0680  0.1357  1.3375
21522SOL    HW266946  10.339   0.775   2.067  0.9526 -1.2480  0.2107
21523SOL     OW66947   5.336   3.986   7.193 -0.0103 -0.3886  0.3132
21523SOL    HW166948   5.328   4.009   7.286 -1.0272 -1.4622  0.5175
21523SOL    HW266949   5.286   3.905   7.184  0.8572 -0.8100 -0.9909
21524SOL     OW66950  10.596   6.130   4.817 -0.2940 -0.1169 -0.1836
21524SOL    HW166951  10.513   6.129   4.770 -1.1409  0.7665  1.2366
21524SOL    HW266952  10.574   6.159   4.905  1.1637 -2.1333  0.9479
21525SOL     OW66953   1.897   2.700   0.237 -0.6236  0.0846  0.0152
21525SOL    HW166954   1.965   2.735   0.295 -1.0658  0.0062  0.5828
21525SOL    HW266955   1.937   2.704   0.149 -0.1801  0.7699  0.2368
21526SOL     OW66956   9.725   1.065   8.950  0.1895  0.1328 -0.0352
21526SOL    HW166957   9.739   1.146   8.900  4.8518 -0.2406  0.2209
21526SOL    HW266958   9.665   1.090   9.020 -0.4799  2.6727 -1.3745
21527SOL     OW66959   6.261   9.488   5.564 -0.4106  0.1907  0.5948
21527SOL    HW166960   6.298   9.401   5.545 -0.6787  0.2130 -0.0606
21527SOL    HW266961   6.247   9.527   5.478 -1.0772  0.5563  0.8607
21528SOL     OW66962   7.136   2.628   9.814 -0.1847  0.3464  0.6956
21528SOL    HW166963   7.172   2.540   9.828  2.2541  1.4036  1.7299
21528SOL    HW266964   7.067   2.616   9.749  2.5894 -1.8290 -2.1190
21529SOL     OW66965   2.727   1.361   2.015 -0.4525  0.4462 -0.2140
21529SOL    HW166966   2.721   1.295   1.946 -0.5854 -1.7576  1.7970
21529SOL    HW266967   2.821   1.371   2.031 -0.3363  1.9463 -1.5067
21530SOL     OW66968   1.956   9.677   5.866 -0.0503 -0.1719 -0.2526
21530SOL    HW166969   1.967   9.682   5.771 -2.1268  1.1091 -0.4993
21530SOL    HW266970   2.011   9.604   5.893  1.8307  0.4118 -2.2053
21531SOL     OW66971   6.672   4.282   2.189  0.4411 -0.2332 -0.0510
21531SOL    HW166972   6.653   4.254   2.100 -1.1356  0.7512 -0.0707
21531SOL    HW266973   6.589   4.270   2.236  1.3951 -1.3172  1.4606
21532SOL     OW66974   9.487   6.351   8.153 -0.0857 -0.0807  0.8158
21532SOL    HW166975   9.432   6.398   8.090 -1.8139 -2.1845  0.6561
21532SOL    HW266976   9.446   6.370   8.238  0.4414  0.3152  0.9881
21533SOL     OW66977   4.592   4.741   0.280  0.2805  0.0162 -0.3769
21533SOL    HW166978   4.653   4.678   0.319 -1.0063 -0.8644  0.3004
21533SOL    HW266979   4.647   4.801   0.230  1.5557 -1.7773 -1.2329
21534SOL     OW66980   4.242   1.061   8.993  0.8756 -0.6418 -0.4367
21534SOL    HW166981   4.208   1.142   9.031  0.3159 -1.2996  0.5241
21534SOL    HW266982   4.328   1.050   9.033  1.7537  0.4201 -1.9794
21535SOL     OW66983   4.067   5.970   7.197 -0.0289 -0.4809 -0.4832
21535SOL    HW166984   4.099   6.012   7.277 -2.1341 -2.4986  1.6001
21535SOL    HW266985   4.140   5.916   7.167  0.5792 -0.2379  0.5002
21536SOL     OW66986   3.270   3.204   1.854  0.4575 -0.2518 -0.3843
21536SOL    HW166987   3.189   3.178   1.897 -0.4922  0.4579 -1.6698
21536SOL    HW266988   3.332   3.135   1.877  0.0689  0.1454  2.1867
21537SOL     OW66989   9.858   5.391   6.764 -0.3028 -0.1800  0.3805
21537SOL    HW166990   9.828   5.481   6.770  0.7698  0.5789 -3.3860
21537SOL    HW266991   9.782   5.342   6.733  0.1820  0.3292 -1.7754
21538SOL     OW66992   6.190   9.516   4.245  0.2169 -0.4888 -0.1099
21538SOL    HW166993   6.163   9.597   4.288 -5.4648 -1.1265 -1.5280
21538SOL    HW266994   6.191   9.451   4.315  1.4424  0.1838  0.5243
21539SOL     OW66995   2.765   4.211   4.272  0.0586  0.7314  0.4668
21539SOL    HW166996   2.780   4.139   4.333  0.5816  0.6231  0.2182
21539SOL    HW266997   2.818   4.188   4.195 -2.0951 -0.1479 -0.8495
21540SOL     OW66998   6.448  10.483   9.311  0.7483  0.3922 -0.2930
21540SOL    HW166999   6.481  10.395   9.291 -0.8984 -0.4401  0.3684
21540SOL    HW267000   6.437  10.483   9.407  0.5294  1.2372 -0.3103
21541SOL     OW67001  10.094   3.168   2.564 -0.5466  0.6681  0.2161
21541SOL    HW167002  10.134   3.226   2.628  1.2246  0.4691 -0.6481
21541SOL    HW267003  10.008   3.148   2.600 -0.9265  3.2209  0.8984
21542SOL     OW67004   8.188   8.590   5.532  0.4134  0.2816 -0.3484
21542SOL    HW167005   8.230   8.607   5.447 -1.6164  1.2529 -1.2161
21542SOL    HW267006   8.164   8.676   5.564  0.6047 -0.1335  0.9639
21543SOL     OW67007   0.408   2.596   2.949  0.7091  0.9401  0.1277
21543SOL    HW167008   0.357   2.635   2.878  0.0109 -0.0212  0.0745
21543SOL    HW267009   0.399   2.656   3.022 -0.5203  0.7912  0.1138
21544SOL     OW67010   4.070   3.584   9.838 -0.1747 -0.6532 -0.2250
21544SOL    HW167011   4.102   3.553   9.754  0.3468  1.7082 -0.9711
21544SOL    HW267012   4.134   3.552   9.901  0.7540 -0.4636 -1.0461
21545SOL     OW67013   8.189   5.267   6.821  0.1653  0.2953 -0.1022
21545SOL    HW167014   8.131   5.280   6.745 -0.4621 -0.2015  0.2810
21545SOL    HW267015   8.139   5.209   6.879  0.7074  0.5514  0.6241
21546SOL     OW67016   9.237   9.671   1.156  0.0559 -0.3290 -0.2930
21546SOL    HW167017   9.214   9.619   1.079 -0.3371 -1.8905  0.8257
21546SOL    HW267018   9.203   9.758   1.137 -0.5510 -0.8271 -1.6332
21547SOL     OW67019   1.953   4.007   5.296  0.0869  0.1188 -0.0312
21547SOL    HW167020   1.898   3.976   5.224 -0.0919  1.4942 -0.5220
21547SOL    HW267021   1.938   4.102   5.298  1.1385  0.2829  0.9369
21548SOL     OW67022   1.390   7.109   6.031 -0.2598 -0.4139 -0.1929
21548SOL    HW167023   1.334   7.171   5.985 -0.5739  0.0565  0.8046
21548SOL    HW267024   1.457   7.084   5.967 -0.1902  0.8719 -0.6406
21549SOL     OW67025   6.649   5.662   9.978 -0.2015  0.1660  0.1771
21549SOL    HW167026   6.728   5.706   9.947  1.0280 -1.8027  0.3097
21549SOL    HW267027   6.666   5.643  10.070 -0.8306 -0.2833  0.2129
21550SOL     OW67028  10.058   5.482   2.421  0.1036 -0.3472  0.5900
21550SOL    HW167029  10.063   5.547   2.352 -0.7275 -0.6775  0.2098
21550SOL    HW267030  10.045   5.532   2.501 -3.3762 -0.0864  0.0011
21551SOL     OW67031   6.246   9.189   9.478  0.0278 -0.0080 -0.2269
21551SOL    HW167032   6.243   9.254   9.408  0.7462 -1.1219 -1.3172
21551SOL    HW267033   6.166   9.137   9.466  0.4877 -0.6325 -0.6742
21552SOL     OW67034   5.469   1.666   4.700 -0.2238  0.2948 -0.6064
21552SOL    HW167035   5.494   1.697   4.787 -1.0846  0.5131 -0.4234
21552SOL    HW267036   5.528   1.711   4.640  0.5299 -0.0281 -0.1321
21553SOL     OW67037   5.425   0.945   4.834 -0.2606  0.8794  0.2384
21553SOL    HW167038   5.472   1.021   4.800 -0.9868  0.4777 -1.7921
21553SOL    HW267039   5.462   0.870   4.787 -1.1934  0.2606  0.4614
21554SOL     OW67040   5.419   2.299   4.114  0.1351 -0.8408  0.3833
21554SOL    HW167041   5.450   2.315   4.203 -1.0294 -0.4815  0.7381
21554SOL    HW267042   5.495   2.261   4.069  0.6018 -1.4690  1.6454
21555SOL     OW67043   2.018   1.063   0.065 -0.7478  0.3138  0.1199
21555SOL    HW167044   1.997   0.983   0.112 -4.1104 -0.5852 -2.5419
21555SOL    HW267045   2.065   1.034  -0.013 -0.1788  1.1921  0.1172
21556SOL     OW67046   1.685   0.765   5.093 -0.1601  0.4208 -0.3110
21556SOL    HW167047   1.777   0.777   5.070  0.1858  0.0207  0.7774
21556SOL    HW267048   1.666   0.673   5.073 -0.2979  0.4806 -0.4571
21557SOL     OW67049   3.418   8.970   6.396  0.2165  0.1400 -0.0243
21557SOL    HW167050   3.491   8.968   6.334  1.2587  2.3718  1.0199
21557SOL    HW267051   3.369   8.890   6.377  1.8346 -0.4754 -2.0637
21558SOL     OW67052   3.962   3.982   6.601 -0.4093  0.5761 -0.1811
21558SOL    HW167053   3.877   3.943   6.578  1.1073 -2.0454 -1.8019
21558SOL    HW267054   3.976   3.956   6.692 -1.1551  0.7137 -0.0167
21559SOL     OW67055   2.052   0.159   0.752 -0.1152  0.1070 -0.6243
21559SOL    HW167056   2.055   0.146   0.657 -0.9082 -0.2337 -0.6115
21559SOL    HW267057   2.044   0.071   0.788  1.0645  0.1692 -0.1872
21560SOL     OW67058   4.663   1.164   2.607  0.0888  0.0706 -0.0747
21560SOL    HW167059   4.743   1.112   2.616 -0.3615 -0.5342  0.5061
21560SOL    HW267060   4.685   1.230   2.541  0.2715 -1.6963 -1.9040
21561SOL     OW67061   2.807   1.774   4.921  0.2312  0.3219 -0.0692
21561SOL    HW167062   2.877   1.816   4.972  1.1590 -0.7594 -0.4142
21561SOL    HW267063   2.732   1.832   4.932  0.9031  1.0148  1.1069
21562SOL     OW67064   2.496   2.141   2.987  0.2566 -0.1195  0.2013
21562SOL    HW167065   2.452   2.108   2.909 -0.7773  0.5452  0.4695
21562SOL    HW267066   2.576   2.090   2.994  0.7916  0.3589 -1.7572
21563SOL     OW67067   0.836   8.906  10.103 -0.6889 -0.3530 -0.1026
21563SOL    HW167068   0.773   8.872  10.039  0.0036  0.3855 -1.2137
21563SOL    HW267069   0.882   8.829  10.135  0.0185 -0.6107 -1.6688
21564SOL     OW67070   6.722   3.863  10.168 -0.2232  0.4910 -0.5806
21564SOL    HW167071   6.772   3.928  10.119 -1.4931  1.9737  0.0234
21564SOL    HW267072   6.778   3.840  10.242  0.6509  0.1177 -1.3351
21565SOL     OW67073   6.574   2.569   0.080  0.4090  0.5737  0.4799
21565SOL    HW167074   6.588   2.622   0.158 -1.4932  0.0101  1.2675
21565SOL    HW267075   6.587   2.479   0.109  0.4008  0.4068 -0.0214
21566SOL     OW67076   5.465   5.292   4.234 -0.1932 -0.1253  0.0526
21566SOL    HW167077   5.493   5.239   4.160 -0.0389  0.1704 -0.1044
21566SOL    HW267078   5.544   5.340   4.260  0.1085 -1.2312  1.2781
21567SOL     OW67079   7.593   3.362   8.241 -0.5064  0.2106  0.0383
21567SOL    HW167080   7.519   3.301   8.251 -0.7030  0.6797  1.8610
21567SOL    HW267081   7.571   3.436   8.297 -0.0194  1.7602 -1.7255
21568SOL     OW67082   4.336   0.696   9.687  0.2871 -0.1446 -0.3085
21568SOL    HW167083   4.263   0.748   9.655  0.4576 -1.3745 -2.8971
21568SOL    HW267084   4.300   0.647   9.762 -1.5711 -0.7315 -1.5266
21569SOL     OW67085   2.799   5.244   5.643 -0.3009  0.3025  0.2191
21569SOL    HW167086   2.764   5.211   5.726 -0.2782  4.3614  2.1045
21569SOL    HW267087   2.752   5.326   5.628  1.6346  1.0942 -2.3451
21570SOL     OW67088  10.385   9.793   8.513  0.3851  0.7546  0.0269
21570SOL    HW167089  10.478   9.812   8.502  0.6563  0.2437  1.2224
21570SOL    HW267090  10.354   9.771   8.425  1.4089  0.8369 -0.3690
21571SOL     OW67091   8.250   2.594   4.226  0.0763 -0.0606 -0.3932
21571SOL    HW167092   8.251   2.606   4.321  0.6315  0.6092 -0.4670
21571SOL    HW267093   8.338   2.562   4.205 -0.8234 -2.6662 -0.4237
21572SOL     OW67094   5.219   4.147   1.749 -0.0567  0.3246  0.6928
21572SOL    HW167095   5.213   4.166   1.843 -1.6912  1.1799  0.4517
21572SOL    HW267096   5.130   4.126   1.724  0.6816 -1.9144 -0.3063
21573SOL     OW67097   4.433   0.912   8.161 -0.0150 -0.4466  0.3124
21573SOL    HW167098   4.467   1.000   8.141 -0.0886 -0.9126 -2.1636
21573SOL    HW267099   4.369   0.895   8.092 -0.7466 -2.0725  1.3339
21574SOL     OW67100   7.318   5.175   2.736  0.1218 -0.2029 -0.1833
21574SOL    HW167101   7.356   5.197   2.651  0.5996  0.7712  0.2722
21574SOL    HW267102   7.258   5.247   2.755  0.1074 -0.3529  0.3661
21575SOL     OW67103   5.595   0.131   6.907  0.4510 -0.8128  0.4234
21575SOL    HW167104   5.597   0.037   6.890 -0.2692 -0.4216 -2.1928
21575SOL    HW267105   5.507   0.147   6.943  0.1930 -0.9922 -0.1289
21576SOL     OW67106   0.845   6.055   9.175  0.2609  0.1712 -0.7059
21576SOL    HW167107   0.925   6.062   9.228 -0.0843 -0.1521 -0.1336
21576SOL    HW267108   0.858   5.976   9.122  0.7465  0.6736 -1.3539
21577SOL     OW67109   8.409  10.777   8.976 -0.0995 -0.4461  0.0715
21577SOL    HW167110   8.354  10.855   8.968 -0.1821 -0.5058  0.0576
21577SOL    HW267111   8.394  10.728   8.896  2.0251  0.8478 -1.2111
21578SOL     OW67112   2.055   3.014  10.368  0.2538 -0.1273 -0.3754
21578SOL    HW167113   2.009   3.080  10.317 -0.3021  0.1415  0.4419
21578SOL    HW267114   1.998   2.937  10.364  0.0753 -0.0200  0.0511
21579SOL     OW67115  10.737   9.509   5.491 -0.0209 -0.4292 -0.8325
21579SOL    HW167116  10.811   9.567   5.475 -0.2166  0.4854  1.2633
21579SOL    HW267117  10.773   9.438   5.545 -0.6663  0.1248  0.3637
21580SOL     OW67118   9.717   4.149   5.292 -0.5757 -0.0073 -0.1556
21580SOL    HW167119   9.746   4.134   5.202  2.2386  2.3677  0.1733
21580SOL    HW267120   9.659   4.225   5.286 -0.6684 -0.0664 -0.0129
21581SOL     OW67121   3.101   2.470   6.652  0.2517  0.2903  0.2805
21581SOL    HW167122   3.038   2.542   6.646 -0.3288 -0.3105 -1.6297
21581SOL    HW267123   3.070   2.406   6.587  2.0492 -0.6371  0.2869
21582SOL     OW67124   7.094   7.096   8.970 -0.1297 -0.0408 -0.2150
21582SOL    HW167125   7.137   7.030   8.915 -1.1047  0.6839 -1.9228
21582SOL    HW267126   7.160   7.118   9.036  1.9101  0.4815 -2.2766
21583SOL     OW67127   1.843   9.843   6.083  0.0520 -0.4286 -0.0876
21583SOL    HW167128   1.782   9.868   6.013 -1.4637  0.7821  1.5516
21583SOL    HW267129   1.836   9.914   6.147  1.6024 -1.3391  1.1630
21584SOL     OW67130   5.226   0.257   5.494 -0.4408  0.0212 -0.3513
21584SOL    HW167131   5.319   0.280   5.505 -0.2917 -0.3673 -0.7601
21584SOL    HW267132   5.220   0.227   5.404 -0.4590 -2.3333  0.3766
21585SOL     OW67133   2.461   7.510   1.794  0.1179  0.3102  0.4103
21585SOL    HW167134   2.415   7.433   1.763 -1.0228  0.9616  0.4453
21585SOL    HW267135   2.504   7.546   1.716  0.4036 -0.1814  0.3391
21586SOL     OW67136   3.102   6.478   4.432  0.1184 -0.2160  0.3995
21586SOL    HW167137   3.074   6.464   4.342  0.3173 -0.5762  0.3911
21586SOL    HW267138   3.021   6.482   4.482  0.0325 -0.9597  0.3336
21587SOL     OW67139   2.814   0.723   1.697 -0.4351 -0.1703 -0.2534
21587SOL    HW167140   2.838   0.736   1.789  0.3390  1.9115 -0.6722
21587SOL    HW267141   2.809   0.628   1.686  1.3325 -0.5372  1.4868
21588SOL     OW67142   8.964   7.989   9.458  0.0294  0.0234  0.0366
21588SOL    HW167143   9.033   8.054   9.470 -0.4064  0.7375 -1.1512
21588SOL    HW267144   8.976   7.927   9.530  2.9260 -0.8002 -1.0126
21589SOL     OW67145   9.737   8.826   1.014  0.6404 -0.5768  0.2178
21589SOL    HW167146   9.721   8.909   1.059 -1.1857 -0.5300 -0.4261
21589SOL    HW267147   9.829   8.806   1.031  0.2877 -0.0866  3.1097
21590SOL     OW67148   9.614   3.868   6.650 -0.1605 -0.4371  0.3646
21590SOL    HW167149   9.699   3.913   6.644  0.0496 -0.8424  0.2727
21590SOL    HW267150   9.560   3.926   6.703 -0.5445  0.9345 -1.4113
21591SOL     OW67151   6.191   5.554   5.408 -0.6956 -0.1163  0.1263
21591SOL    HW167152   6.124   5.555   5.340 -0.5514  1.0158 -0.0305
21591SOL    HW267153   6.143   5.566   5.490 -0.9196 -1.9743  0.3174
21592SOL     OW67154   7.585   0.397   6.452 -0.2053 -0.2874 -0.2953
21592SOL    HW167155   7.597   0.376   6.359  2.6733 -0.2853 -0.0151
21592SOL    HW267156   7.554   0.315   6.491 -2.4207 -0.0239 -1.3321
21593SOL     OW67157   5.997   7.915   9.816  0.4216  0.1605 -0.6363
21593SOL    HW167158   5.967   7.903   9.726 -1.1313  1.7050 -0.3560
21593SOL    HW267159   6.013   7.826   9.847 -1.0704 -0.5472 -1.7587
21594SOL     OW67160   7.239   0.750   8.235 -0.1006  0.0189 -0.4373
21594SOL    HW167161   7.254   0.739   8.142  0.6330  0.0748 -0.3339
21594SOL    HW267162   7.223   0.661   8.268 -2.3907  0.1762 -0.9166
21595SOL     OW67163   2.429  10.654   2.091  0.0768 -0.2185 -0.1371
21595SOL    HW167164   2.386  10.727   2.135 -2.3413 -1.1591 -0.7757
21595SOL    HW267165   2.491  10.696   2.030  0.1579  1.1922  0.8637
21596SOL     OW67166   1.261   3.617  10.675  0.1698 -0.4883 -0.6225
21596SOL    HW167167   1.280   3.693  10.621  1.1906  0.0974  0.4863
21596SOL    HW267168   1.166   3.607  10.673 -0.0973  1.5322  0.1198
21597SOL     OW67169   8.373   8.553   2.283 -0.2839 -0.0033 -0.0122
21597SOL    HW167170   8.304   8.510   2.335 -0.2391 -0.0299  0.0255
21597SOL    HW267171   8.455   8.524   2.323 -0.1643 -1.7095 -1.3785
21598SOL     OW67172   0.609   3.444   3.076  0.4514 -0.5846 -0.9023
21598SOL    HW167173   0.661   3.372   3.038 -0.4053 -0.1763 -2.9374
21598SOL    HW267174   0.652   3.461   3.160  2.5204 -1.4695 -1.6902
21599SOL     OW67175   9.101   4.616   0.494  0.2898 -0.0414  0.4773
21599SOL    HW167176   9.095   4.527   0.527 -1.3900  0.7333  2.4616
21599SOL    HW267177   9.012   4.639   0.469  0.6610  1.1679  0.1701
21600SOL     OW67178   2.401   3.303   8.638 -0.6409  0.0082 -0.1374
21600SOL    HW167179   2.368   3.282   8.551 -0.6321 -0.7307  0.0326
21600SOL    HW267180   2.426   3.395   8.633 -2.9963  0.7145 -0.1993
21601SOL     OW67181  10.501   8.830   9.444  0.2130  0.3697 -0.4201
21601SOL    HW167182  10.595   8.817   9.460  0.5597  1.4790 -1.4135
21601SOL    HW267183  10.462   8.833   9.531  1.4124  2.0393  0.1014
21602SOL     OW67184   7.015   2.555   9.570  0.1362  0.6084 -0.3279
21602SOL    HW167185   6.925   2.586   9.579 -0.2960  0.0066 -2.2379
21602SOL    HW267186   7.009   2.460   9.579  0.3616  0.4331 -1.8184
21603SOL     OW67187   5.508   7.329   6.295 -0.6274 -0.0635  0.4612
21603SOL    HW167188   5.505   7.400   6.231 -0.6142 -0.9167 -0.5235
21603SOL    HW267189   5.470   7.254   6.249  0.5621 -1.0359  1.0045
21604SOL     OW67190   7.172   2.074   8.897  0.2751  1.0989 -0.4829
21604SOL    HW167191   7.122   2.143   8.853  0.4871  1.8606  0.4427
21604SOL    HW267192   7.174   2.002   8.834 -0.6390  1.6388 -1.1459
21605SOL     OW67193   5.326   4.699   1.868 -0.2280 -0.1888  0.3470
21605SOL    HW167194   5.267   4.632   1.904  0.3171 -2.6813 -2.9654
21605SOL    HW267195   5.292   4.718   1.781  1.6069  1.3476 -0.1078
21606SOL     OW67196   5.403   7.114   2.086  0.4188 -0.1646  0.2342
21606SOL    HW167197   5.478   7.059   2.062  1.2517  0.5374  1.1636
21606SOL    HW267198   5.441   7.197   2.114 -0.4848 -0.6270  3.2344
21607SOL     OW67199   5.317  10.544   8.191  0.0914 -0.8158  0.1169
21607SOL    HW167200   5.315  10.462   8.241 -2.4684 -0.4879  0.7074
21607SOL    HW267201   5.371  10.524   8.114  2.3799 -1.9787  1.8919
21608SOL     OW67202   5.072   5.786   6.748 -0.0437  0.0483 -0.2553
21608SOL    HW167203   5.087   5.692   6.744 -0.5257 -0.0434  0.0692
21608SOL    HW267204   5.113   5.813   6.831  0.1007  0.1306 -0.3510
21609SOL     OW67205   0.295   0.751   7.467 -0.5408 -0.4005  0.4576
21609SOL    HW167206   0.271   0.752   7.559  0.5413  1.3186  0.7843
21609SOL    HW267207   0.385   0.718   7.466 -0.2835  0.2902  0.1202
21610SOL     OW67208   5.548   6.728   1.775 -0.5759 -0.0819 -0.0523
21610SOL    HW167209   5.503   6.674   1.839  0.5344 -1.5889 -0.4889
21610SOL    HW267210   5.556   6.814   1.817 -1.8472 -0.4046  0.8989
21611SOL     OW67211   4.420   4.817   7.720  0.0151 -0.3886  0.1542
21611SOL    HW167212   4.414   4.850   7.630 -0.5228  2.1077  1.0300
21611SOL    HW267213   4.502   4.768   7.722  0.1944 -0.2187 -1.5932
21612SOL     OW67214  10.405   0.865   2.655 -0.0301  0.4596 -0.7988
21612SOL    HW167215  10.333   0.848   2.716  1.0782  0.6193  0.5973
21612SOL    HW267216  10.442   0.948   2.684  2.6684 -1.0701  0.5391
21613SOL     OW67217   4.646   9.273   8.087 -0.4418  0.4556  0.3350
21613SOL    HW167218   4.571   9.279   8.146 -0.1603  0.7778  0.6667
21613SOL    HW267219   4.609   9.278   7.999 -0.7707  1.0359  0.5060
21614SOL     OW67220   4.648   7.795   7.381 -0.1492 -0.3501  0.3737
21614SOL    HW167221   4.555   7.795   7.405 -0.8397  1.5843 -1.8460
21614SOL    HW267222   4.649   7.765   7.290  1.0762  1.6724 -0.3640
21615SOL     OW67223   3.084  10.145   4.420 -0.3776 -0.4774  0.0392
21615SOL    HW167224   3.134  10.148   4.502 -0.4620 -1.1434  0.1186
21615SOL    HW267225   3.042  10.059   4.420 -1.2851 -0.0479 -0.1702
21616SOL     OW67226   0.155   0.662   1.105 -0.1035 -0.4347  0.2916
21616SOL    HW167227   0.091   0.634   1.040 -0.0858 -0.0052  0.0858
21616SOL    HW267228   0.233   0.685   1.053 -0.0252 -0.2749  0.4800
21617SOL     OW67229   2.689   2.847   1.238  0.2256  0.5735 -0.4166
21617SOL    HW167230   2.714   2.835   1.146 -0.3097  4.0230 -1.1869
21617SOL    HW267231   2.763   2.895   1.276 -0.3144  0.7139  0.4618
21618SOL     OW67232   7.372   8.927   3.794 -0.3503 -0.0492  0.1135
21618SOL    HW167233   7.388   8.913   3.887  1.5462  1.3655  0.0563
21618SOL    HW267234   7.293   8.981   3.792 -0.4228 -0.1146  0.8927
21619SOL     OW67235   7.106   0.754   3.609 -0.6031  0.3186  0.7979
21619SOL    HW167236   7.045   0.689   3.575 -0.9738  0.0516  1.9228
21619SOL    HW267237   7.051   0.825   3.640 -0.2204  0.9811  0.0022
21620SOL     OW67238   4.778   0.434   1.186 -0.1715 -0.4425  0.2361
21620SOL    HW167239   4.824   0.350   1.196  0.2323 -0.2449  0.0351
21620SOL    HW267240   4.818   0.491   1.252  0.3829 -0.0538 -0.4217
21621SOL     OW67241   5.957   3.729   1.557  0.2789 -0.2430  0.0861
21621SOL    HW167242   6.018   3.797   1.585 -0.2914  0.1018  0.5144
21621SOL    HW267243   6.007   3.678   1.493  0.1468  1.6689 -1.6657
21622SOL     OW67244   3.036   8.629   1.018  0.5298 -0.8911 -0.3556
21622SOL    HW167245   3.111   8.652   1.073  0.8827  1.2418 -1.6227
21622SOL    HW267246   3.058   8.542   0.983  2.6512 -0.1481 -1.0347
21623SOL     OW67247   4.742   9.055  10.156  0.5314  0.5238  0.0129
21623SOL    HW167248   4.684   8.980  10.145 -1.1852  1.7719  0.1476
21623SOL    HW267249   4.808   9.045  10.087 -0.6743 -0.2112 -1.0819
21624SOL     OW67250  10.086   5.490   1.711  1.0940 -0.4418  0.4417
21624SOL    HW167251  10.060   5.405   1.673  0.2499  0.0385 -0.0982
21624SOL    HW267252  10.115   5.468   1.799 -1.6494 -1.0239  1.3115
21625SOL     OW67253   0.717   5.192   8.617  0.4792 -0.1630  0.0596
21625SOL    HW167254   0.794   5.229   8.574 -0.0708  0.5551 -0.3252
21625SOL    HW267255   0.692   5.256   8.683 -0.9482  0.5910 -1.1365
21626SOL     OW67256   2.843   9.331   8.888 -0.0861  0.5286  0.3594
21626SOL    HW167257   2.829   9.238   8.873  0.5033  0.5756 -0.5530
21626SOL    HW267258   2.852   9.339   8.983  2.4491 -0.7582  0.3075
21627SOL     OW67259   5.164   3.918   7.648 -0.1305 -0.5078  0.4207
21627SOL    HW167260   5.241   3.862   7.662 -0.2271 -0.3937  1.5124
21627SOL    HW267261   5.098   3.883   7.707 -0.6355 -0.0711  0.1230
21628SOL     OW67262   0.193   0.431   6.285 -0.0380 -0.2907  0.5995
21628SOL    HW167263   0.109   0.385   6.292 -1.3090  1.9178  0.7007
21628SOL    HW267264   0.194   0.491   6.360  1.1190  0.5538 -0.0589
21629SOL     OW67265   6.598   5.356  10.342  0.1612  0.3809  0.0218
21629SOL    HW167266   6.572   5.270  10.308 -1.5669  0.9065 -0.1071
21629SOL    HW267267   6.531   5.376  10.408  0.2900  1.8099 -0.2558
21630SOL     OW67268   8.208   5.723   8.900  0.0779  0.5362  0.2031
21630SOL    HW167269   8.283   5.741   8.957  1.1306  0.3318 -1.0835
21630SOL    HW267270   8.199   5.628   8.901  0.1170  0.5303  0.0052
21631SOL     OW67271   9.379   9.072   9.673  0.0750  0.7877  0.0337
21631SOL    HW167272   9.344   8.997   9.721 -0.4674  1.2933  0.4439
21631SOL    HW267273   9.302   9.109   9.629  0.5205  0.4825 -1.0230
21632SOL     OW67274   9.378   5.589  10.593  0.5234 -0.4841  0.3170
21632SOL    HW167275   9.394   5.509  10.644  1.0474 -0.9225 -0.5113
21632SOL    HW267276   9.345   5.652  10.657 -0.4002 -1.5154  0.9058
21633SOL     OW67277   6.518  10.558   8.959  0.0158  0.4344 -0.7668
21633SOL    HW167278   6.505  10.606   9.040  1.2190 -2.0776  1.0391
21633SOL    HW267279   6.534  10.468   8.986  0.3790 -0.5418 -3.8080
21634SOL     OW67280   5.065   3.870   0.833 -0.5710  0.1082 -0.4150
21634SOL    HW167281   5.014   3.914   0.765 -0.7479  0.6576  0.0734
21634SOL    HW267282   5.007   3.801   0.865 -0.4520 -0.2160 -0.8788
21635SOL     OW67283   9.653   8.577  10.249 -0.0167 -0.5381  0.1184
21635SOL    HW167284   9.610   8.661  10.266 -2.6062 -1.8511  0.5817
21635SOL    HW267285   9.639   8.562  10.156  0.2673 -0.5517  0.0773
21636SOL     OW67286   3.493   8.167   9.553  0.1658  0.0439  0.0406
21636SOL    HW167287   3.506   8.212   9.469 -1.0628  0.2758 -0.0409
21636SOL    HW267288   3.444   8.229   9.606  0.9410 -0.1022  0.9578
21637SOL     OW67289   3.908   1.361   2.113  0.5076 -0.4290  0.1523
21637SOL    HW167290   3.850   1.289   2.088 -1.0734  0.7075  0.4160
21637SOL    HW267291   3.942   1.395   2.030 -2.5983  1.5918 -0.4785
21638SOL     OW67292   7.954   2.597   2.097  0.0264  0.0465 -0.1239
21638SOL    HW167293   7.997   2.515   2.122  0.1786  0.3600  0.6551
21638SOL    HW267294   7.892   2.571   2.028  0.6050 -0.5964 -0.4144
21639SOL     OW67295   5.310   9.684   4.562  1.1139 -0.4243 -0.3077
21639SOL    HW167296   5.345   9.635   4.487  0.5968 -0.0119 -0.8267
21639SOL    HW267297   5.276   9.616   4.621  1.0594 -0.7281 -0.6815
21640SOL     OW67298   8.572   3.177   6.848  0.1848 -0.1039 -0.2617
21640SOL    HW167299   8.606   3.224   6.924  1.4549 -0.9022 -0.2980
21640SOL    HW267300   8.482   3.154   6.871  0.2583  0.4580  0.6109
21641SOL     OW67301   8.037   4.784   3.494  0.2248 -0.6935  0.1778
21641SOL    HW167302   8.031   4.711   3.555  0.5941 -0.2988  0.6905
21641SOL    HW267303   7.992   4.753   3.415 -1.0957 -0.8516  0.9733
21642SOL     OW67304   8.854   4.820   1.215 -0.2729 -0.1044  0.0798
21642SOL    HW167305   8.844   4.802   1.122 -1.4433 -0.7269  0.3147
21642SOL    HW267306   8.781   4.877   1.237 -0.0722 -0.0556  0.6520
21643SOL     OW67307   4.308   1.264   2.582 -0.7597  0.5740  0.3789
21643SOL    HW167308   4.270   1.177   2.595  0.3448  0.1373  0.7394
21643SOL    HW267309   4.380   1.269   2.644  1.3320  0.4408 -1.8990
21644SOL     OW67310   5.695   6.643   2.081  0.0688  0.5102 -0.4592
21644SOL    HW167311   5.600   6.658   2.072  0.0206 -0.2835 -1.3484
21644SOL    HW267312   5.702   6.560   2.127  0.3089 -0.4600 -2.1703
21645SOL     OW67313  10.164  10.729   8.492  0.2394 -0.1899  0.6957
21645SOL    HW167314  10.168  10.639   8.524  0.0658 -0.0711  1.0631
21645SOL    HW267315  10.108  10.774   8.555  1.2254  0.4310  1.1670
21646SOL     OW67316   5.322   2.686   4.272 -0.2251 -0.2552 -0.2031
21646SOL    HW167317   5.353   2.695   4.182 -1.0391 -2.6298 -0.7965
21646SOL    HW267318   5.228   2.705   4.267 -0.8877 -3.0831 -0.5116
21647SOL     OW67319   5.778   8.864  10.640  0.4126 -0.4189  0.1795
21647SOL    HW167320   5.834   8.800  10.596  0.1092  1.4724 -3.3458
21647SOL    HW267321   5.689   8.836  10.619  0.2604  1.5718 -2.5353
21648SOL     OW67322   3.066   3.575   1.181  0.4308  0.1556 -0.1599
21648SOL    HW167323   3.068   3.568   1.086  0.5495  1.0755 -0.2371
21648SOL    HW267324   3.157   3.570   1.208  0.8993  3.7733 -0.4641
21649SOL     OW67325  10.390   2.363   9.960  0.4861  0.3736  0.6428
21649SOL    HW167326  10.351   2.346   9.874  0.2340  2.0237  0.4009
21649SOL    HW267327  10.377   2.281  10.008 -0.5397 -0.1467 -0.4482
21650SOL     OW67328   4.318   7.094   2.107 -0.1374 -0.3623  0.0271
21650SOL    HW167329   4.263   7.068   2.033  0.0648 -1.4457  0.2329
21650SOL    HW267330   4.407   7.075   2.079  0.0876  0.7027 -0.0251
21651SOL     OW67331   9.954   3.681   9.660 -0.1426 -0.3970  0.0658
21651SOL    HW167332   9.896   3.748   9.696  0.0736  0.4794 -1.1528
21651SOL    HW267333   9.981   3.630   9.736 -1.9174 -0.3726  0.7442
21652SOL     OW67334   3.342  10.422   1.313 -0.5742 -0.6510 -0.0897
21652SOL    HW167335   3.346  10.329   1.290 -0.6927 -0.4913 -0.7952
21652SOL    HW267336   3.394  10.465   1.245 -0.1251 -0.2416  0.5061
21653SOL     OW67337   2.923   3.061   7.726  0.3990  0.2429 -0.1373
21653SOL    HW167338   2.915   2.969   7.700 -0.6211  0.0541  0.7154
21653SOL    HW267339   2.999   3.063   7.784 -0.1207 -0.2686  0.5857
21654SOL     OW67340   8.862   5.460   9.650  0.0069  0.8257 -0.0020
21654SOL    HW167341   8.861   5.462   9.745 -1.7904  0.1020  0.0386
21654SOL    HW267342   8.876   5.367   9.628  1.0505  1.0784 -0.4627
21655SOL     OW67343   9.633   8.729   8.346  0.0915 -0.1829  0.0540
21655SOL    HW167344   9.687   8.679   8.284 -0.5988 -0.0816 -0.6559
21655SOL    HW267345   9.601   8.803   8.294 -2.3066 -1.2825 -0.1362
21656SOL     OW67346   7.577   0.394   3.166 -0.2580 -0.0081  0.0810
21656SOL    HW167347   7.507   0.351   3.117  0.5323 -1.4260  0.1359
21656SOL    HW267348   7.657   0.349   3.139  0.5119  0.8845  0.7831
21657SOL     OW67349   8.808   7.194   2.668  0.0051 -0.3445  0.5168
21657SOL    HW167350   8.815   7.130   2.740  1.5871  0.4283  1.0897
21657SOL    HW267351   8.741   7.255   2.698 -1.4905 -1.6463 -0.0102
21658SOL     OW67352   7.074   2.154   6.038 -0.1992  0.0206  0.0149
21658SOL    HW167353   7.092   2.078   6.094  0.0919  0.1016  0.0337
21658SOL    HW267354   6.980   2.168   6.046 -0.0793  0.3887  0.9503
21659SOL     OW67355   0.102   2.393   1.056 -0.5346  0.8353 -0.1830
21659SOL    HW167356   0.120   2.300   1.047 -1.6654  0.5506  0.3991
21659SOL    HW267357   0.013   2.398   1.090 -1.5320  2.1841 -2.6658
21660SOL     OW67358   2.978  10.344   6.578 -0.1765 -0.3514  0.4665
21660SOL    HW167359   2.909  10.368   6.640 -0.0218 -0.2042  0.5825
21660SOL    HW267360   2.932  10.326   6.496 -0.3466 -0.2049  0.5314
21661SOL     OW67361   4.769   7.707   8.287 -0.0310 -0.5704  0.2706
21661SOL    HW167362   4.773   7.796   8.319 -0.9566 -0.1580 -0.6839
21661SOL    HW267363   4.804   7.653   8.358 -2.3428  0.2334  2.1457
21662SOL     OW67364   8.930   1.167   3.414 -0.2864 -0.5075  0.0207
21662SOL    HW167365   8.997   1.212   3.362 -2.5129  1.2423 -1.5810
21662SOL    HW267366   8.914   1.086   3.366  1.7996 -1.7867  1.3705
21663SOL     OW67367   8.376  10.277   7.494 -0.8894 -0.0514 -0.1826
21663SOL    HW167368   8.425  10.196   7.507 -2.6039 -1.1995 -0.6368
21663SOL    HW267369   8.400  10.306   7.406 -0.8264 -0.4688 -0.3059
21664SOL     OW67370   9.256  10.751   5.377  0.3799  0.2914 -0.2556
21664SOL    HW167371   9.200  10.817   5.336 -2.4878 -0.5184  1.9891
21664SOL    HW267372   9.317  10.724   5.308 -2.2694  0.9639 -3.0638
21665SOL     OW67373   0.799   4.198  10.497  0.0444 -0.3646 -0.2578
21665SOL    HW167374   0.831   4.204  10.407  0.7015 -0.8809 -0.0664
21665SOL    HW267375   0.874   4.166  10.547 -0.4178 -0.4156  0.4157
21666SOL     OW67376   9.818   8.464   0.081  0.7653  0.3889  0.2737
21666SOL    HW167377   9.853   8.435   0.165 -0.2594 -0.4553  0.4387
21666SOL    HW267378   9.850   8.399   0.018  1.4819  0.9860  0.0061
21667SOL     OW67379   7.955   3.535   2.428  0.3759 -0.1274  0.0211
21667SOL    HW167380   8.036   3.519   2.379  0.3111  1.3571 -0.6537
21667SOL    HW267381   7.950   3.465   2.492  1.3951 -1.1244 -0.9521
21668SOL     OW67382   4.816   9.953   8.508 -0.3019 -0.2855 -0.6407
21668SOL    HW167383   4.887  10.017   8.515  0.5426 -1.1877 -0.6699
21668SOL    HW267384   4.764   9.967   8.587 -0.3134  0.6378 -0.8006
21669SOL     OW67385   3.811   4.616   4.551  0.5779  0.0411 -0.0381
21669SOL    HW167386   3.738   4.554   4.559  0.1692  0.3275 -1.2651
21669SOL    HW267387   3.770   4.702   4.568  0.8528  0.1059  0.3006
21670SOL     OW67388   3.535   1.326   3.387  0.0619  0.4556 -0.0608
21670SOL    HW167389   3.610   1.345   3.444  1.5538  0.4807 -1.9047
21670SOL    HW267390   3.552   1.377   3.308 -1.9942  0.5247 -0.5049
21671SOL     OW67391   3.571   5.443   9.983 -0.2410 -0.1815 -0.3060
21671SOL    HW167392   3.629   5.436   9.907  0.5237 -0.1117  0.2691
21671SOL    HW267393   3.560   5.537   9.996 -1.7403 -0.1718 -1.3446
21672SOL     OW67394   4.832   9.818   4.688 -0.2409  0.4495 -0.1273
21672SOL    HW167395   4.911   9.791   4.643  0.6368  2.3582  0.1934
21672SOL    HW267396   4.862   9.844   4.776 -1.4160 -0.0254  0.4382
21673SOL     OW67397   8.884  10.462   1.465  0.0372 -0.8768 -0.2463
21673SOL    HW167398   8.798  10.440   1.429  0.4447 -1.4657 -0.9022
21673SOL    HW267399   8.925  10.377   1.481  1.0850 -0.6257 -1.4131
21674SOL     OW67400   3.802   0.383   3.547 -0.1296 -0.3167 -0.4252
21674SOL    HW167401   3.717   0.418   3.518 -0.2118 -0.7899 -0.7721
21674SOL    HW267402   3.788   0.358   3.638 -0.3991 -0.4942 -0.5128
21675SOL     OW67403   1.766   4.587   7.746  0.0209 -0.1272 -0.5611
21675SOL    HW167404   1.722   4.672   7.742 -0.3140 -0.3381 -2.6751
21675SOL    HW267405   1.847   4.603   7.794 -1.0252  0.8859  0.9515
21676SOL     OW67406   1.622   2.087   4.047 -0.1136 -0.1772 -0.0387
21676SOL    HW167407   1.694   2.026   4.063  0.6362  0.7504  0.2201
21676SOL    HW267408   1.664   2.172   4.041 -1.2117  0.3946  0.1965
21677SOL     OW67409   7.249   8.828   4.179  0.4903 -0.1414 -0.4717
21677SOL    HW167410   7.268   8.922   4.170 -1.4842  0.4402  0.7007
21677SOL    HW267411   7.193   8.807   4.104  0.2117 -0.1508 -0.2638
21678SOL     OW67412   2.571   0.319   3.247  0.7306  0.0277  0.0979
21678SOL    HW167413   2.561   0.302   3.341  1.8279 -1.0670  0.0299
21678SOL    HW267414   2.581   0.233   3.207 -0.0102  0.4644 -1.0806
21679SOL     OW67415   3.530   7.647   7.105 -0.0148 -0.6252  0.6855
21679SOL    HW167416   3.562   7.733   7.131  0.0059 -0.4299  0.0495
21679SOL    HW267417   3.598   7.586   7.134  0.6116 -0.2864 -0.0223
21680SOL     OW67418   5.755   7.019   8.488  0.3705  0.1876  0.2408
21680SOL    HW167419   5.685   6.954   8.501  1.6177 -1.3848 -0.5651
21680SOL    HW267420   5.781   7.044   8.576 -1.2537  0.8842  0.5579
21681SOL     OW67421   9.420   2.699   9.799  0.0505  0.5497 -0.0702
21681SOL    HW167422   9.477   2.757   9.849 -0.4115  1.1291 -0.2043
21681SOL    HW267423   9.470   2.677   9.721  0.3559  0.5024  0.1350
21682SOL     OW67424   2.983  10.234   4.082  0.0701  0.1992 -0.1113
21682SOL    HW167425   3.036  10.311   4.059 -0.3097  0.2991 -0.6596
21682SOL    HW267426   2.949  10.255   4.169  0.0251  0.6259 -0.2274
21683SOL     OW67427   2.097   8.496   9.753 -0.3335  0.1180 -0.0343
21683SOL    HW167428   2.002   8.499   9.756 -0.3364  0.9389 -0.6522
21683SOL    HW267429   2.123   8.580   9.714  0.7027  0.3836  1.1749
21684SOL     OW67430   0.862   2.026   3.024  0.2205  0.0463  0.3322
21684SOL    HW167431   0.902   2.046   2.939 -0.8330  0.4910 -0.0817
21684SOL    HW267432   0.832   1.936   3.015  1.4992 -0.4369  0.8009
21685SOL     OW67433   5.758   5.133   1.100  0.5169  0.1520  0.0016
21685SOL    HW167434   5.720   5.200   1.156  2.1372  1.3799 -0.2948
21685SOL    HW267435   5.838   5.106   1.144 -0.8639 -2.8797  0.9565
21686SOL     OW67436   3.319   7.570   9.311  0.1698 -0.5497  0.4081
21686SOL    HW167437   3.354   7.584   9.399  1.7464 -1.0380 -0.1102
21686SOL    HW267438   3.345   7.648   9.262 -0.3328 -0.4720  0.2576
21687SOL     OW67439   8.417   0.764   2.275 -0.6781 -0.5947 -0.3755
21687SOL    HW167440   8.423   0.714   2.356 -0.5594 -1.0200 -0.6450
21687SOL    HW267441   8.507   0.770   2.243 -0.5572  0.6018  0.1356
21688SOL     OW67442   9.485   3.056   4.468 -0.2307 -0.2198  0.3496
21688SOL    HW167443   9.525   3.137   4.499  2.4668 -1.8255  1.5042
21688SOL    HW267444   9.560   2.998   4.452 -2.0281 -2.3957 -0.7061
21689SOL     OW67445   1.002   7.199   9.966 -0.4431  0.1496 -0.5459
21689SOL    HW167446   0.950   7.201  10.046 -0.4683  0.3710 -0.5664
21689SOL    HW267447   1.092   7.208   9.995 -0.4852  0.6512 -0.5716
21690SOL     OW67448   4.399   9.234   7.591  0.3768  0.5559 -0.5704
21690SOL    HW167449   4.428   9.252   7.501  0.1745  0.4143 -0.6658
21690SOL    HW267450   4.305   9.250   7.590  0.4433  0.9625 -0.2744
21691SOL     OW67451   6.167   8.860   0.585  0.1256 -0.1731 -0.0840
21691SOL    HW167452   6.254   8.889   0.611  0.0122  0.3451 -0.2811
21691SOL    HW267453   6.126   8.937   0.546 -0.6876 -0.2103  0.6771
21692SOL     OW67454   5.108   2.395   5.450  0.2936  0.5679  0.1180
21692SOL    HW167455   5.076   2.469   5.502  1.1681  1.0822 -0.0636
21692SOL    HW267456   5.169   2.433   5.387  1.2559 -0.3728  0.4385
21693SOL     OW67457   8.511   2.205   7.059  0.4694  0.0605 -1.0710
21693SOL    HW167458   8.459   2.181   7.135  0.3897 -1.5394 -1.5802
21693SOL    HW267459   8.447   2.228   6.992  0.5550  2.1792 -0.4749
21694SOL     OW67460   2.405   6.102   9.611 -0.0030 -0.0316  0.1938
21694SOL    HW167461   2.407   6.011   9.641 -1.3351 -0.1474 -0.0102
21694SOL    HW267462   2.358   6.098   9.527 -1.6921  1.0447  1.0272
21695SOL     OW67463   1.181   1.694   0.777 -0.2789  0.1065  0.2341
21695SOL    HW167464   1.224   1.755   0.718 -0.0285  0.7125  1.0361
21695SOL    HW267465   1.172   1.741   0.860 -1.9262 -0.2106  0.2823
21696SOL     OW67466   3.702   8.859   4.280 -0.4905 -0.0881  0.0246
21696SOL    HW167467   3.699   8.945   4.323  1.5381 -0.0979  0.2765
21696SOL    HW267468   3.631   8.809   4.322 -2.7220  1.8664 -1.1668
21697SOL     OW67469   7.966   6.650   3.020 -0.6302  0.3649  0.4559
21697SOL    HW167470   7.940   6.561   3.044 -0.9538  1.3369  4.3593
21697SOL    HW267471   8.039   6.670   3.079  1.8526  1.6009 -2.7065
21698SOL     OW67472   7.960   4.833   8.944  0.2156  0.5125 -0.2771
21698SOL    HW167473   7.886   4.780   8.914 -0.8892  1.4673  0.6479
21698SOL    HW267474   8.002   4.779   9.011  0.3267 -0.0052 -0.7539
21699SOL     OW67475   2.222   0.846  10.317  0.2132 -0.4657  0.0056
21699SOL    HW167476   2.144   0.847  10.263  1.6206 -1.2771 -2.1836
21699SOL    HW267477   2.197   0.796  10.395 -2.1397  1.5251  0.6465
21700SOL     OW67478  10.775   5.262  10.045 -0.6591 -0.4130 -0.2688
21700SOL    HW167479  10.700   5.298  10.092 -0.0320  1.0737 -0.3622
21700SOL    HW267480  10.744   5.251   9.955 -0.6516  0.5992 -0.4039
21701SOL     OW67481   7.496   9.073   3.493 -0.5576 -0.4053  0.4422
21701SOL    HW167482   7.431   9.143   3.488 -1.0407 -0.6743  2.4069
21701SOL    HW267483   7.445   8.992   3.489 -0.0515 -0.6914 -1.1512
21702SOL     OW67484   8.674  10.563   4.604  0.0596  0.4500  0.3481
21702SOL    HW167485   8.661  10.469   4.590 -1.5780  0.5861  0.7314
21702SOL    HW267486   8.601  10.605   4.557 -0.9110  1.3420  2.5311
21703SOL     OW67487   3.433  10.489   3.585 -0.2622 -0.1120  0.4742
21703SOL    HW167488   3.462  10.544   3.659  0.2413  1.4584 -0.8253
21703SOL    HW267489   3.503  10.498   3.520 -0.6330 -1.5719 -0.1501
21704SOL     OW67490   0.582   3.203   9.465  0.1054 -0.5208  0.0188
21704SOL    HW167491   0.592   3.278   9.407 -2.3890  0.4057  0.6918
21704SOL    HW267492   0.623   3.130   9.417 -0.4507  0.5274 -2.1655
21705SOL     OW67493   8.157   0.530   7.299 -0.0736  0.2026 -0.0551
21705SOL    HW167494   8.218   0.505   7.229 -1.3890 -0.9977 -0.8312
21705SOL    HW267495   8.190   0.486   7.377 -0.2506 -0.9262 -0.5947
21706SOL     OW67496   8.324   5.667   5.958  0.1450  0.6012  0.3775
21706SOL    HW167497   8.386   5.665   5.884 -1.0888 -0.6243 -0.6712
21706SOL    HW267498   8.370   5.622   6.028  0.1162 -1.1924 -0.6939
21707SOL     OW67499   7.795   2.450   2.751 -0.3880  0.4276 -0.3713
21707SOL    HW167500   7.890   2.447   2.739 -0.3828  0.1062 -0.2694
21707SOL    HW267501   7.762   2.377   2.699 -0.4370 -0.4364  0.8337
21708SOL     OW67502   3.420   3.737   4.994  0.6939 -0.1399  0.2614
21708SOL    HW167503   3.494   3.708   4.941  0.5755 -1.0768  0.5845
21708SOL    HW267504   3.415   3.831   4.980  0.4260 -0.4074 -1.6965
21709SOL     OW67505   9.598   5.317   5.456 -0.3304  0.1513  0.2024
21709SOL    HW167506   9.621   5.229   5.484  0.6743 -0.5847 -2.6310
21709SOL    HW267507   9.524   5.305   5.397 -0.8260  1.3256  0.5566
21710SOL     OW67508   4.433   0.422   5.218  0.1098 -0.2483 -0.1376
21710SOL    HW167509   4.420   0.348   5.158 -0.6577 -0.8581  0.7606
21710SOL    HW267510   4.411   0.388   5.304  1.2690  0.6040  0.5256
21711SOL     OW67511   2.140   2.412   2.147 -0.0858 -0.5234  0.3172
21711SOL    HW167512   2.172   2.330   2.109 -1.6227 -0.6479 -0.7918
21711SOL    HW267513   2.194   2.425   2.225  1.6166 -1.4786 -0.6450
21712SOL     OW67514   7.677   1.564   8.706 -0.4235  0.0176  0.5690
21712SOL    HW167515   7.601   1.510   8.727 -0.7227  0.8849  1.8312
21712SOL    HW267516   7.641   1.651   8.691  0.3757  0.5781  1.7924
21713SOL     OW67517   8.223   4.989   3.430  0.2408 -0.1844 -0.0833
21713SOL    HW167518   8.228   5.028   3.518 -1.1606  0.3702 -0.2195
21713SOL    HW267519   8.175   4.908   3.443  0.9996 -0.6606 -0.1858
21714SOL     OW67520   0.992   4.998   3.612 -0.3292 -0.2771 -0.3740
21714SOL    HW167521   1.011   4.904   3.617 -0.8227 -0.3421  0.4738
21714SOL    HW267522   1.062   5.034   3.559  1.0428 -0.8183  1.0002
21715SOL     OW67523   3.114   5.254   8.177  0.8221  0.8837  0.4184
21715SOL    HW167524   3.161   5.171   8.186  0.4534  0.7766  1.4294
21715SOL    HW267525   3.149   5.310   8.246  2.5477  2.3179 -1.4991
21716SOL     OW67526   1.860   2.563   4.127  0.0166  0.2611 -0.2724
21716SOL    HW167527   1.798   2.614   4.179 -0.1883  0.7494 -0.9723
21716SOL    HW267528   1.894   2.626   4.063 -1.1811 -0.7497 -1.9747
21717SOL     OW67529   3.834   0.943   1.638 -0.1206  0.6359  0.0137
21717SOL    HW167530   3.759   0.884   1.627 -0.1362  0.4202  1.1221
21717SOL    HW267531   3.903   0.887   1.674 -0.0455  1.2414  0.8279
21718SOL     OW67532   4.991   2.576   5.193  0.4786 -0.0814  0.7129
21718SOL    HW167533   5.019   2.599   5.104  1.0590 -1.0110  0.6477
21718SOL    HW267534   5.033   2.641   5.249  0.3055  0.3621  0.3437
21719SOL     OW67535   7.218   9.916   2.525  0.6472 -0.0345 -0.2816
21719SOL    HW167536   7.313   9.903   2.522  0.3775 -2.6757 -0.1286
21719SOL    HW267537   7.192   9.882   2.611 -0.5147 -0.2688 -0.7052
21720SOL     OW67538   9.505   6.066   6.373 -0.2201 -0.0952  0.3023
21720SOL    HW167539   9.450   6.140   6.346 -0.6886 -0.3016  0.6729
21720SOL    HW267540   9.577   6.066   6.310 -1.2883 -0.5685 -0.9608
21721SOL     OW67541   2.405   5.856  10.745 -0.0046  0.5791 -0.1474
21721SOL    HW167542   2.313   5.844  10.770 -0.2374  1.7046 -0.4167
21721SOL    HW267543   2.409   5.944  10.707  1.2411  0.6720  0.1353
21722SOL     OW67544   1.968   9.963  10.754  0.0407 -0.0468 -0.1072
21722SOL    HW167545   2.004   9.981  10.667 -0.2401  0.7902 -0.0684
21722SOL    HW267546   1.875   9.986  10.747  0.1122  0.4847  0.5345
21723SOL     OW67547   5.943   3.833   9.157  0.3575  0.1253 -0.1947
21723SOL    HW167548   5.857   3.797   9.137  0.2293  0.2354  0.1664
21723SOL    HW267549   5.946   3.840   9.252  1.4369 -1.5666 -0.0635
21724SOL     OW67550   5.102   2.772   2.858  0.8004 -0.3180 -0.0605
21724SOL    HW167551   5.125   2.689   2.817  0.4676 -1.0561  1.2072
21724SOL    HW267552   5.090   2.833   2.784  2.6032 -0.9680 -0.9446
21725SOL     OW67553   7.763   5.149   2.241 -0.3039  0.2237 -0.0179
21725SOL    HW167554   7.848   5.152   2.196 -0.7126 -0.7257 -0.8959
21725SOL    HW267555   7.783   5.174   2.331  1.1412 -1.2608  0.1176
21726SOL     OW67556   2.653   5.555   9.744 -0.0892 -0.4879  0.1543
21726SOL    HW167557   2.698   5.638   9.761  2.6415 -1.8548  0.2316
21726SOL    HW267558   2.645   5.515   9.830 -0.1433 -0.8848 -0.0357
21727SOL     OW67559   5.307   0.874   6.937  0.1084 -0.2363  0.2431
21727SOL    HW167560   5.253   0.821   6.879  1.1091 -0.6378 -0.3452
21727SOL    HW267561   5.252   0.949   6.959 -0.6286 -0.5578 -0.4659
21728SOL     OW67562   5.818   3.600   0.873  0.1779  0.1860 -0.6098
21728SOL    HW167563   5.801   3.573   0.963  2.0733 -0.1638 -0.3258
21728SOL    HW267564   5.772   3.534   0.820  0.5550 -0.6716  0.0990
21729SOL     OW67565   1.696   2.964   4.197  0.5621  0.1833  0.1866
21729SOL    HW167566   1.642   3.035   4.161  0.1242 -0.1351  0.2004
21729SOL    HW267567   1.755   3.007   4.258  0.7368  0.6217 -0.2867
21730SOL     OW67568   5.735   6.055   6.778  0.1064 -0.2135  0.2124
21730SOL    HW167569   5.659   6.101   6.741 -2.4702 -4.3455 -0.3428
21730SOL    HW267570   5.720   6.058   6.873 -0.6453 -0.7933  0.1186
21731SOL     OW67571   0.907   1.879   5.587 -0.0435  0.2887  0.2378
21731SOL    HW167572   0.999   1.903   5.596  0.2089 -0.7869  0.7225
21731SOL    HW267573   0.890   1.883   5.493  0.5504  0.3324  0.1288
21732SOL     OW67574   6.621   6.951   1.550  0.4053  0.3448  0.2535
21732SOL    HW167575   6.526   6.947   1.564  0.6751 -2.6132  2.0987
21732SOL    HW267576   6.654   7.000   1.626  0.4421  0.4450  0.1731
21733SOL     OW67577   2.000   7.280   5.396  1.4469 -0.0370 -0.4328
21733SOL    HW167578   2.004   7.375   5.410  0.6813  0.1053 -1.0775
21733SOL    HW267579   1.907   7.262   5.385  1.3177 -1.2544  2.1007
21734SOL     OW67580   9.742   6.163   5.794 -0.3681 -0.0104 -0.3160
21734SOL    HW167581   9.794   6.138   5.870 -0.1423  1.9754  0.2517
21734SOL    HW267582   9.787   6.240   5.759  0.0472 -1.3866 -3.0296
21735SOL     OW67583   4.692   3.145   7.441 -0.3264  0.4944 -0.3443
21735SOL    HW167584   4.657   3.057   7.451 -1.7758  0.9212 -1.4002
21735SOL    HW267585   4.696   3.159   7.347  1.8635  0.8389 -0.2665
21736SOL     OW67586   3.649   0.192   1.849  0.2393 -0.7929 -0.0969
21736SOL    HW167587   3.709   0.137   1.799  2.3708  0.7522  0.6233
21736SOL    HW267588   3.624   0.262   1.788  0.6558 -0.4305  0.1386
21737SOL     OW67589   0.459   0.042   0.183 -0.0370  0.1978 -0.1010
21737SOL    HW167590   0.425  -0.007   0.258 -0.3998 -0.8889 -0.9729
21737SOL    HW267591   0.402   0.020   0.110 -1.7910  3.8103 -0.0462
21738SOL     OW67592   3.895   5.686   1.190 -0.0973  0.8416 -0.3533
21738SOL    HW167593   3.977   5.675   1.141  0.6970 -0.0023  1.1097
21738SOL    HW267594   3.921   5.729   1.271 -0.5871 -1.9204  1.4096
21739SOL     OW67595   9.447   8.013   8.687  0.1129  0.4875  0.1901
21739SOL    HW167596   9.373   8.069   8.711 -1.0362 -0.2307 -1.5344
21739SOL    HW267597   9.461   7.958   8.764 -3.4563 -1.7590 -0.5584
21740SOL     OW67598   8.879   1.536   3.222  0.1112 -0.0841 -0.7221
21740SOL    HW167599   8.819   1.549   3.296  0.0081 -0.0681 -0.8065
21740SOL    HW267600   8.966   1.546   3.259  0.0688 -0.3704 -0.5465
21741SOL     OW67601   4.397   5.662   9.580 -0.1358  0.5930 -0.1479
21741SOL    HW167602   4.468   5.727   9.582 -0.0255  0.7647 -3.6743
21741SOL    HW267603   4.442   5.579   9.568 -0.4474  0.5261 -0.8998
21742SOL     OW67604   2.845   0.741   0.438 -0.0078  0.1699 -0.2248
21742SOL    HW167605   2.878   0.664   0.391 -0.2722 -0.3320  0.4065
21742SOL    HW267606   2.913   0.808   0.426  1.0194 -0.6917  0.6521
21743SOL     OW67607   3.893   2.826   7.380  0.1380 -0.5328 -0.0637
21743SOL    HW167608   3.868   2.859   7.466  1.8983 -2.8232  1.4501
21743SOL    HW267609   3.929   2.902   7.335 -0.1656  0.5845  1.4760
21744SOL     OW67610   1.060   9.505   6.239  0.1936  0.2326 -0.5710
21744SOL    HW167611   1.120   9.433   6.257 -1.4383 -1.0815 -0.1048
21744SOL    HW267612   1.004   9.473   6.169 -1.1938  0.6102  0.3140
21745SOL     OW67613   7.227   3.338   8.515 -0.1286  0.0683  0.2717
21745SOL    HW167614   7.185   3.292   8.443 -1.5265  0.1604  1.0060
21745SOL    HW267615   7.251   3.270   8.578 -0.7392  0.1771  0.6280
21746SOL     OW67616  10.743   5.928   4.181  0.0907  0.0585  0.2176
21746SOL    HW167617  10.795   5.848   4.187  0.5862  0.2504 -1.1480
21746SOL    HW267618  10.807   5.997   4.162 -0.6272  0.3211 -1.3527
21747SOL     OW67619   7.576   9.030   8.121 -0.1751  0.2774 -0.1628
21747SOL    HW167620   7.517   9.040   8.196 -2.0857 -0.0648 -1.5478
21747SOL    HW267621   7.558   8.942   8.088  1.9566 -0.2754  0.0103
21748SOL     OW67622   5.878   6.785   1.957 -0.0163  0.3950 -0.1992
21748SOL    HW167623   5.937   6.722   1.917 -1.8686 -0.1492 -2.3092
21748SOL    HW267624   5.814   6.732   2.004  0.2454  0.8921  0.7382
21749SOL     OW67625   6.805   2.580   9.116  0.2500 -0.2216 -0.0343
21749SOL    HW167626   6.862   2.631   9.058  1.8147 -1.1411  0.6444
21749SOL    HW267627   6.768   2.513   9.059  0.0645  0.2080 -0.4251
21750SOL     OW67628   3.642  10.299   8.005  0.1210  0.1748  0.3543
21750SOL    HW167629   3.674  10.294   7.915  0.5337 -0.1255  0.5122
21750SOL    HW267630   3.581  10.372   8.005 -0.1820 -0.0695 -0.2649
21751SOL     OW67631   4.699   3.071   6.373  0.3874 -0.3920  0.0968
21751SOL    HW167632   4.726   3.145   6.319  1.7617 -0.1450  1.0607
21751SOL    HW267633   4.634   3.107   6.434  1.9974  0.3923  1.4307
21752SOL     OW67634   7.875  10.704   8.576  0.0646  0.5878  0.2236
21752SOL    HW167635   7.959  10.710   8.621  0.9763 -1.3873 -1.1230
21752SOL    HW267636   7.889  10.750   8.494 -0.0512 -0.0465 -0.1549
21753SOL     OW67637  10.065   7.066   6.073  0.3003  0.4117  0.1785
21753SOL    HW167638  10.143   7.114   6.045  0.2399  0.1392 -0.4790
21753SOL    HW267639  10.091   6.974   6.071 -0.6066  0.1531 -2.0069
21754SOL     OW67640   1.692   6.688   6.086 -0.0967  0.1258  0.3758
21754SOL    HW167641   1.635   6.749   6.039  1.1387  0.4380 -0.7846
21754SOL    HW267642   1.778   6.730   6.085  0.1144 -0.1842  2.3581
21755SOL     OW67643   3.976  10.019   3.956 -0.0470  0.0415 -0.6878
21755SOL    HW167644   3.930  10.098   3.928  1.0550  0.6085 -0.9485
21755SOL    HW267645   4.003  10.038   4.046 -2.2264 -1.1714  0.2995
21756SOL     OW67646  10.009   6.322   9.159 -0.5526 -0.1446  0.1467
21756SOL    HW167647  10.003   6.228   9.174 -0.4959 -0.3013 -0.7954
21756SOL    HW267648  10.084   6.350   9.212  0.5073 -0.9187 -0.9039
21757SOL     OW67649  10.780   9.427   6.407  0.1881 -0.1326 -0.2890
21757SOL    HW167650  10.793   9.377   6.487 -0.4815  0.7954  0.4186
21757SOL    HW267651  10.693   9.402   6.377  0.0957  0.1635 -0.2648
21758SOL     OW67652   5.868   7.011   5.238  0.6365  0.1817  0.1510
21758SOL    HW167653   5.839   7.025   5.148 -0.2550  1.6831  0.6443
21758SOL    HW267654   5.963   7.003   5.231  0.6220  0.6781 -0.8800
21759SOL     OW67655   0.443   9.595   3.757  0.2351  0.1114  0.4706
21759SOL    HW167656   0.489   9.633   3.683 -0.1149  3.0030  1.6118
21759SOL    HW267657   0.502   9.527   3.790  1.9769  1.1436 -0.3741
21760SOL     OW67658   4.509   4.943   5.290  0.2102  0.0373 -0.1060
21760SOL    HW167659   4.567   4.991   5.349  1.2290 -0.7369 -0.4517
21760SOL    HW267660   4.553   4.946   5.205 -0.8065  0.3713 -0.6431
21761SOL     OW67661   0.326   6.640   6.581 -0.5945 -0.7297  0.0984
21761SOL    HW167662   0.355   6.560   6.624  1.2296 -0.6024 -0.8180
21761SOL    HW267663   0.404   6.674   6.537 -1.4176  1.3283  0.1005
21762SOL     OW67664   1.229   8.637   7.842 -0.8817 -0.4338 -0.2700
21762SOL    HW167665   1.243   8.656   7.935  0.4904 -0.7903 -0.3772
21762SOL    HW267666   1.215   8.723   7.802  2.6994  0.2610 -0.3498
21763SOL     OW67667   9.494   4.712   3.932 -0.4474 -0.2914  0.0751
21763SOL    HW167668   9.453   4.741   3.850  0.2018 -0.3445 -0.2772
21763SOL    HW267669   9.467   4.777   3.997 -1.3396 -0.4984 -0.0746
21764SOL     OW67670   6.062   6.390   6.540 -0.0856 -0.4731  0.5919
21764SOL    HW167671   6.125   6.371   6.609  0.1798  0.6447  0.6712
21764SOL    HW267672   6.006   6.459   6.576  1.4125  1.7563 -1.0200
21765SOL     OW67673   5.754   2.202   7.950  0.1973 -0.3054  0.4707
21765SOL    HW167674   5.753   2.241   7.862 -1.7725  2.9271  1.7490
21765SOL    HW267675   5.700   2.124   7.942 -1.7517  1.0745 -0.8207
21766SOL     OW67676   5.057   5.599   2.310  0.0098  0.2065 -0.4418
21766SOL    HW167677   5.104   5.530   2.263 -0.3161 -0.4141  0.1258
21766SOL    HW267678   5.115   5.675   2.305  1.6312 -0.8368  1.2096
21767SOL     OW67679   9.915   1.164   7.154 -0.2513 -0.3135 -0.1350
21767SOL    HW167680   9.866   1.145   7.074 -1.8206  0.5126  0.5747
21767SOL    HW267681   9.880   1.103   7.219 -1.2312  1.0452  0.6802
21768SOL     OW67682   7.443   7.367   2.103 -0.6075 -0.5558  0.3867
21768SOL    HW167683   7.353   7.376   2.074 -1.2936  0.7492  2.6756
21768SOL    HW267684   7.449   7.280   2.141 -1.9012  0.4096  3.0714
21769SOL     OW67685   7.041   4.526   7.393 -0.0804  0.0605 -0.2667
21769SOL    HW167686   7.133   4.545   7.374  0.1345 -0.7993 -0.1598
21769SOL    HW267687   7.001   4.611   7.411  1.2578  0.2432  2.2550
21770SOL     OW67688   5.480   0.896   1.191  0.3287 -0.1631 -0.0393
21770SOL    HW167689   5.510   0.884   1.101  1.0916  2.3615 -0.1898
21770SOL    HW267690   5.390   0.864   1.191  0.9806 -2.1686 -1.1277
21771SOL     OW67691   6.030   4.494   7.162  0.6510 -0.2711  0.4266
21771SOL    HW167692   5.941   4.476   7.194  0.5582 -0.8502 -0.1297
21771SOL    HW267693   6.061   4.409   7.131  0.9962  0.1387 -0.3686
21772SOL     OW67694   1.230   8.140   8.641 -0.2020  0.2953 -0.2903
21772SOL    HW167695   1.196   8.138   8.730  0.8367  1.7196  0.1723
21772SOL    HW267696   1.207   8.054   8.605 -0.2288 -0.4998  1.4924
21773SOL     OW67697   4.324   2.717   0.542 -0.2861 -0.1441  0.2896
21773SOL    HW167698   4.295   2.806   0.521 -0.6042 -0.4013 -0.3980
21773SOL    HW267699   4.252   2.680   0.592  0.5198  0.5070  2.0069
21774SOL     OW67700   3.780   9.673   3.409 -0.4175  0.1868  0.5941
21774SOL    HW167701   3.703   9.690   3.463  0.3122  0.3432  1.6295
21774SOL    HW267702   3.851   9.659   3.473  0.0269 -1.9062 -0.2826
21775SOL     OW67703   0.092   3.737   0.692 -0.4780 -0.0981  0.4050
21775SOL    HW167704   0.112   3.674   0.761 -0.3253  0.1877  0.6252
21775SOL    HW267705   0.075   3.819   0.738  1.2772  0.5260  0.0321
21776SOL     OW67706   6.587   7.031   1.945  0.2913 -0.0062  0.3350
21776SOL    HW167707   6.536   7.046   2.025 -0.7912 -1.6119  0.0007
21776SOL    HW267708   6.675   7.063   1.966  0.3020 -1.2817  2.5489
21777SOL     OW67709   6.850   0.327  10.284 -0.3716 -0.1483  0.1512
21777SOL    HW167710   6.779   0.340  10.222 -0.6579 -0.9211  0.2980
21777SOL    HW267711   6.856   0.232  10.294  0.1078 -0.0616  0.7969
21778SOL     OW67712   1.007   1.318   1.442  0.9732 -0.7921 -0.3535
21778SOL    HW167713   0.963   1.314   1.357 -0.5805  3.1729  0.0553
21778SOL    HW267714   1.100   1.321   1.421  0.6487 -0.5427 -1.8620
21779SOL     OW67715   0.949   8.314   7.404  0.4634  0.1813  0.0683
21779SOL    HW167716   1.029   8.355   7.370  2.2025 -1.5745  1.7492
21779SOL    HW267717   0.933   8.241   7.343  0.4781  0.2007  0.0408
21780SOL     OW67718   3.095   6.323   9.331 -0.0741 -0.1678  0.1220
21780SOL    HW167719   3.155   6.394   9.310 -0.5525  0.0636 -0.4875
21780SOL    HW267720   3.086   6.326   9.426  2.2081 -1.2900  0.4519
21781SOL     OW67721   9.025   1.299   0.219  0.0807 -0.0105  0.5319
21781SOL    HW167722   9.071   1.324   0.299  0.3784 -1.3602  0.8049
21781SOL    HW267723   9.042   1.206   0.210 -1.6921 -0.3074  0.0149
21782SOL     OW67724   0.867   4.269   0.765 -0.3899  0.3272  0.5072
21782SOL    HW167725   0.787   4.262   0.714  0.3360  0.6616 -0.7139
21782SOL    HW267726   0.912   4.186   0.752 -0.4832  0.1774  1.1086
21783SOL     OW67727  10.017  10.124   1.643 -0.1261 -0.2547  0.0035
21783SOL    HW167728   9.963  10.113   1.721 -0.3950  0.9234  0.0045
21783SOL    HW267729  10.107  10.129   1.675 -0.3055  1.1266  0.3513
21784SOL     OW67730   8.790   6.246   6.867  0.4755  0.0984 -0.3987
21784SOL    HW167731   8.773   6.211   6.779 -2.7508  0.8108 -0.2183
21784SOL    HW267732   8.760   6.178   6.927  0.7993  0.3859  0.1001
21785SOL     OW67733  10.567   4.347   4.453  0.4832  0.1187  0.3488
21785SOL    HW167734  10.559   4.295   4.373 -1.7184 -0.8622  1.1416
21785SOL    HW267735  10.643   4.309   4.498  0.6408 -0.5170 -0.4376
21786SOL     OW67736   2.048   7.530   9.678  0.1448  0.3223  0.0520
21786SOL    HW167737   2.133   7.569   9.698 -0.2468  0.7266  0.9872
21786SOL    HW267738   1.991   7.559   9.749 -0.6314 -0.4249 -0.2510
21787SOL     OW67739   2.948   4.790   6.604 -0.0434 -0.1544  0.1656
21787SOL    HW167740   2.881   4.795   6.672 -1.3511 -2.4082 -0.8654
21787SOL    HW267741   3.025   4.755   6.648 -0.5312 -0.5295  0.7327
21788SOL     OW67742   0.124   6.604   1.704  0.1987 -0.1070  0.0935
21788SOL    HW167743   0.182   6.668   1.662 -0.3587  0.3525  0.0165
21788SOL    HW267744   0.135   6.525   1.651 -0.2020  0.3515 -0.7057
21789SOL     OW67745   4.143   1.305   5.810 -0.5900  0.1220  0.0586
21789SOL    HW167746   4.096   1.384   5.781 -0.1825 -0.3916 -2.1369
21789SOL    HW267747   4.187   1.332   5.891 -0.4645  2.1457 -0.6312
21790SOL     OW67748   0.364   3.230   5.379 -0.0179  0.1028  0.3248
21790SOL    HW167749   0.453   3.251   5.407  0.7488 -2.2552 -0.0952
21790SOL    HW267750   0.372   3.217   5.284 -1.2269  1.6236 -0.0235
21791SOL     OW67751   5.210  10.146   8.866 -0.0103 -0.0183  0.2388
21791SOL    HW167752   5.122  10.179   8.849  0.3806  0.0662 -1.8709
21791SOL    HW267753   5.260  10.170   8.788  1.4303 -1.6285  0.6174
21792SOL     OW67754   7.403  10.382   3.022 -0.0071 -0.3654  0.3551
21792SOL    HW167755   7.404  10.478   3.025 -0.0752 -0.3156 -0.8931
21792SOL    HW267756   7.496  10.357   3.026  0.0308 -0.2347  0.3024
21793SOL     OW67757   4.230   2.530   9.340  0.4195  0.1604  0.5368
21793SOL    HW167758   4.240   2.438   9.365 -0.9620  0.4235  2.2854
21793SOL    HW267759   4.199   2.528   9.250  1.3788 -1.0472  0.2203
21794SOL     OW67760   1.119   9.773  10.200 -0.6884  0.4070 -0.0760
21794SOL    HW167761   1.059   9.842  10.228 -3.2895 -1.9506  0.5520
21794SOL    HW267762   1.075   9.730  10.127  1.5407  0.2655 -1.4430
21795SOL     OW67763   7.045   1.860   6.772  0.1526 -0.2538 -0.1272
21795SOL    HW167764   6.990   1.915   6.716  0.4223 -0.5516 -0.6936
21795SOL    HW267765   7.135   1.883   6.747  0.2718 -1.4546 -0.8904
21796SOL     OW67766   0.352   4.076   2.432  0.5342  0.5548  0.3611
21796SOL    HW167767   0.363   4.035   2.518  3.1145 -0.5748 -0.4162
21796SOL    HW267768   0.441   4.081   2.396 -0.1470  3.3066 -1.2393
21797SOL     OW67769   6.198   6.250   7.758 -0.3247  0.2186 -0.0065
21797SOL    HW167770   6.200   6.297   7.675 -0.6124 -0.4491 -0.4004
21797SOL    HW267771   6.118   6.280   7.801 -1.6128 -1.3618 -1.1510
21798SOL     OW67772   9.204   2.124   4.461  0.1390 -0.2918  0.7786
21798SOL    HW167773   9.277   2.064   4.476  1.1811  0.7464 -0.0112
21798SOL    HW267774   9.173   2.103   4.373 -0.9485 -1.1557  1.3478
21799SOL     OW67775   3.538   1.154   1.028 -0.2806 -0.5518  0.0921
21799SOL    HW167776   3.557   1.065   1.000 -1.2236 -1.5135  2.2561
21799SOL    HW267777   3.610   1.177   1.086 -1.1949 -0.8874  1.4287
21800SOL     OW67778   4.979  10.189   7.531  0.3314 -0.0269 -0.2731
21800SOL    HW167779   5.043  10.175   7.461  0.7102 -0.0333  0.0719
21800SOL    HW267780   4.895  10.171   7.490  0.6252 -1.1120 -0.4462
21801SOL     OW67781   2.828   1.227   2.478 -0.0439 -0.0680 -0.2971
21801SOL    HW167782   2.849   1.172   2.553  0.0222  0.8071  0.3378
21801SOL    HW267783   2.777   1.170   2.420 -1.7543 -0.2339  1.2931
21802SOL     OW67784   1.233   4.060   2.258  0.4763  0.0426  0.2097
21802SOL    HW167785   1.225   4.101   2.344  1.1548  1.0697 -0.1915
21802SOL    HW267786   1.221   4.133   2.196  1.0223 -0.4964 -0.5401
21803SOL     OW67787   9.751   8.866   8.730  0.2888 -0.3943 -0.1784
21803SOL    HW167788   9.736   8.788   8.678 -0.2710  0.0744 -0.7319
21803SOL    HW267789   9.715   8.937   8.678  0.7146  0.2275  0.3549
21804SOL     OW67790   1.121   7.194   5.167  0.6198 -0.0470  0.0768
21804SOL    HW167791   1.028   7.216   5.164  0.2333 -1.6380 -0.7944
21804SOL    HW267792   1.166   7.275   5.140 -0.4174  1.0451  1.4592
21805SOL     OW67793   7.031   8.706   5.492  0.3048 -0.2863  0.1549
21805SOL    HW167794   6.939   8.731   5.484  0.7031  0.9800 -0.7616
21805SOL    HW267795   7.069   8.775   5.548  1.0212  0.1212 -0.8099
21806SOL     OW67796  10.255   0.117   7.637  0.0364  0.3209  0.2300
21806SOL    HW167797  10.204   0.166   7.573 -4.1114 -3.4711  0.1920
21806SOL    HW267798  10.327   0.079   7.587 -1.5975 -0.4230 -1.6768
21807SOL     OW67799  10.712   0.313  10.663 -0.4387  0.3810 -0.1429
21807SOL    HW167800  10.617   0.315  10.662 -0.4363  1.4869 -1.7576
21807SOL    HW267801  10.738   0.367  10.589  1.4184 -1.7645 -1.1894
21808SOL     OW67802   7.192   4.425   6.396 -0.8454  0.2509 -0.0121
21808SOL    HW167803   7.206   4.504   6.448  0.0813  0.3381 -0.3537
21808SOL    HW267804   7.259   4.364   6.427 -2.3694 -0.9071  1.1508
21809SOL     OW67805   6.165  10.780   5.718  0.1352  1.1403  0.2146
21809SOL    HW167806   6.088  10.780   5.661  0.7951  0.6037 -0.7183
21809SOL    HW267807   6.233  10.821   5.665  0.8957  0.2004  0.4249
21810SOL     OW67808   4.329   6.645   5.032  0.2023  0.5993 -1.0479
21810SOL    HW167809   4.410   6.662   5.079  1.6360  0.8905 -3.4433
21810SOL    HW267810   4.352   6.576   4.969 -2.1055 -1.1263 -0.1412
21811SOL     OW67811   1.315   6.607   8.473  0.1734 -0.0012 -0.2779
21811SOL    HW167812   1.373   6.649   8.536 -1.7655  0.6754  1.1475
21811SOL    HW267813   1.277   6.533   8.521  1.1872 -1.5889 -1.7753
21812SOL     OW67814   4.264   1.699   3.626 -0.0279  0.5113 -0.3243
21812SOL    HW167815   4.330   1.712   3.558 -0.7477  2.5810 -0.7026
21812SOL    HW267816   4.211   1.626   3.594 -1.0730  2.1592 -2.6552
21813SOL     OW67817   2.739   3.117   8.151 -0.6619  0.4015 -0.2519
21813SOL    HW167818   2.805   3.073   8.203 -2.3359 -3.2482 -0.8857
21813SOL    HW267819   2.785   3.148   8.073  0.5425 -0.9772 -0.1243
21814SOL     OW67820   7.932   5.260   0.707  0.3614  0.0916  0.4940
21814SOL    HW167821   7.948   5.354   0.716  1.0917 -0.1887  2.8014
21814SOL    HW267822   7.837   5.253   0.699  0.1374  0.9836  1.9217
21815SOL     OW67823   6.148   8.828   3.933 -0.0012 -0.2667 -0.0699
21815SOL    HW167824   6.212   8.890   3.899 -0.8599 -0.6678 -2.6417
21815SOL    HW267825   6.087   8.815   3.861  0.5701 -4.6821 -0.0291
21816SOL     OW67826   3.071   5.487   7.033 -0.1769 -0.0688  0.2970
21816SOL    HW167827   3.108   5.576   7.030  0.5412 -0.3792 -0.1671
21816SOL    HW267828   3.139   5.434   7.073 -0.0949 -0.6578 -0.6121
21817SOL     OW67829   8.211   5.255   1.404 -0.3965  0.4587 -0.5789
21817SOL    HW167830   8.241   5.191   1.339  1.8095 -0.0243  0.8121
21817SOL    HW267831   8.143   5.208   1.453  0.6235 -0.5623 -0.1027
21818SOL     OW67832   8.675   4.226   5.420  0.7295  0.0979 -0.3020
21818SOL    HW167833   8.644   4.136   5.434 -0.9938  0.7292  0.1405
21818SOL    HW267834   8.770   4.220   5.430  0.4545 -1.2382  2.3716
21819SOL     OW67835   8.426   0.602   9.629  0.7607 -0.5504  0.0970
21819SOL    HW167836   8.374   0.669   9.585 -0.1188 -1.1730  0.1695
21819SOL    HW267837   8.458   0.547   9.557  2.0705  0.3329 -0.0253
21820SOL     OW67838   4.184   8.799   0.358  0.1311  0.6363 -0.9870
21820SOL    HW167839   4.118   8.850   0.311 -0.0356  0.4938 -0.9087
21820SOL    HW267840   4.205   8.852   0.435 -0.0185  0.6009 -0.9219
21821SOL     OW67841   6.000   3.154  10.172 -0.1866 -0.1115 -0.4778
21821SOL    HW167842   6.065   3.167  10.241  0.5565  0.6182 -1.2861
21821SOL    HW267843   5.994   3.240  10.129 -2.8560  0.3176  0.5388
21822SOL     OW67844   2.542   5.686   7.535  0.3662 -0.0486 -0.0438
21822SOL    HW167845   2.501   5.772   7.545  3.0275  1.4196 -0.6082
21822SOL    HW267846   2.479   5.635   7.485 -0.1820  2.5618 -2.2748
21823SOL     OW67847   6.660   6.481   0.231  0.0050 -0.5726 -0.1936
21823SOL    HW167848   6.730   6.521   0.283 -1.1943  0.2681  0.8393
21823SOL    HW267849   6.646   6.395   0.270  0.4928 -0.7746 -0.4513
21824SOL     OW67850   9.199   7.834   6.073  0.2489  0.2724  0.1090
21824SOL    HW167851   9.112   7.842   6.113  0.3548  0.1897  0.3573
21824SOL    HW267852   9.181   7.809   5.983  0.0056  0.5413  0.0799
21825SOL     OW67853   9.843   7.446   1.439  0.7857  0.1617 -0.5546
21825SOL    HW167854   9.853   7.366   1.388 -1.3272  1.0672 -2.5411
21825SOL    HW267855   9.890   7.512   1.389 -1.6808  1.1557 -1.7539
21826SOL     OW67856   6.488   9.761   0.893  0.1481  0.1730  0.1315
21826SOL    HW167857   6.529   9.805   0.819 -0.6233 -1.3518 -1.2813
21826SOL    HW267858   6.423   9.823   0.926  1.4964  1.4461  0.5305
21827SOL     OW67859   6.722   3.334   2.632  0.3563  0.1297  0.4365
21827SOL    HW167860   6.666   3.375   2.567 -1.2280 -0.3424  1.4496
21827SOL    HW267861   6.742   3.247   2.596 -1.4349 -0.5646  1.0312
21828SOL     OW67862   8.524   3.128  10.630  0.5233 -0.6345 -0.4017
21828SOL    HW167863   8.548   3.081  10.710 -0.3623 -1.4921 -0.6247
21828SOL    HW267864   8.450   3.079  10.594  0.3180  0.2693 -1.2658
21829SOL     OW67865   3.879   6.125   2.760 -0.1319 -0.2383 -0.1582
21829SOL    HW167866   3.921   6.044   2.731  1.4607  0.2452  0.6795
21829SOL    HW267867   3.950   6.189   2.763 -0.8193  0.5093  1.7324
21830SOL     OW67868   9.598   5.186   8.226  0.2252 -0.7221  0.0364
21830SOL    HW167869   9.659   5.246   8.184  1.1181 -1.7454 -0.1709
21830SOL    HW267870   9.646   5.153   8.302  0.1882 -2.0264 -0.4918
21831SOL     OW67871   3.806   1.519   8.359  0.3258  0.2335  0.5023
21831SOL    HW167872   3.727   1.571   8.373  0.1442  0.4259 -1.0598
21831SOL    HW267873   3.776   1.444   8.308  1.2251  0.5638 -0.5325
21832SOL     OW67874   1.162   7.141   2.006 -0.2258 -0.9197 -0.5418
21832SOL    HW167875   1.241   7.172   1.961 -0.9793  1.1266 -0.5496
21832SOL    HW267876   1.182   7.153   2.099 -0.7455  0.1937 -0.5680
21833SOL     OW67877   5.802   7.851   3.758  0.0242 -0.3639  0.3313
21833SOL    HW167878   5.786   7.936   3.717  0.6826 -0.0301  0.7338
21833SOL    HW267879   5.715   7.812   3.768 -0.2570  0.1297 -0.1400
21834SOL     OW67880   8.969   7.946   1.309 -0.5739 -0.4652  0.0295
21834SOL    HW167881   9.049   7.996   1.325 -0.1317 -1.1041 -0.1693
21834SOL    HW267882   8.923   7.997   1.242  0.4501 -0.9250 -1.0590
21835SOL     OW67883   7.482   4.050   7.304  0.0251 -0.2463 -0.1732
21835SOL    HW167884   7.398   4.086   7.331 -0.6323 -0.3868 -1.8991
21835SOL    HW267885   7.520   4.118   7.248  0.0055 -1.0756 -1.2317
21836SOL     OW67886   5.841   6.759   9.933  0.1696  0.4690  0.3280
21836SOL    HW167887   5.833   6.725   9.844 -0.4196  0.9349  0.1988
21836SOL    HW267888   5.785   6.837   9.935 -1.6902 -0.7978  1.7514
21837SOL     OW67889   0.555   1.611   4.782 -0.4445 -0.0462 -0.0446
21837SOL    HW167890   0.484   1.622   4.719  0.8614 -1.1129 -1.7831
21837SOL    HW267891   0.583   1.701   4.802 -2.4183  0.4179  0.9350
21838SOL     OW67892   5.076   4.176   0.889 -0.3323  0.0834 -0.3297
21838SOL    HW167893   5.012   4.183   0.819  0.2617 -1.4201 -1.0748
21838SOL    HW267894   5.031   4.129   0.959 -1.6118  3.3528  1.2609
21839SOL     OW67895   8.344   5.513  10.435  0.2304  0.1426  0.2059
21839SOL    HW167896   8.274   5.529  10.499 -1.1792  0.2509 -1.2820
21839SOL    HW267897   8.375   5.601  10.411 -0.1555  0.1747 -0.1960
21840SOL     OW67898   6.092  10.410   2.927  0.7225  0.1262 -0.0302
21840SOL    HW167899   6.141  10.466   2.987 -0.3784  2.5222 -1.2103
21840SOL    HW267900   6.155  10.386   2.860  1.4095 -0.7524  0.9042
21841SOL     OW67901   8.940   6.138   3.067  0.1764  0.0821 -0.1653
21841SOL    HW167902   8.943   6.166   2.975 -0.6681  1.4365  0.1969
21841SOL    HW267903   8.994   6.059   3.069  2.0399  1.2479 -1.3911
21842SOL     OW67904   9.182   9.192   5.896  0.7859 -0.2165  0.3513
21842SOL    HW167905   9.098   9.170   5.937  1.8490 -2.7567  1.3116
21842SOL    HW267906   9.158   9.250   5.824 -1.6770 -0.0157  1.2270
21843SOL     OW67907   5.988   3.153   3.552  0.0721 -0.3171  0.7089
21843SOL    HW167908   5.968   3.114   3.467  0.3847 -0.3683  0.6547
21843SOL    HW267909   5.906   3.192   3.581  0.0427 -0.0099  0.2261
21844SOL     OW67910   4.957   8.602   7.648  0.0700  0.1311  0.1999
21844SOL    HW167911   4.912   8.665   7.592 -0.9687 -0.4047  0.4162
21844SOL    HW267912   4.897   8.588   7.721  0.0645 -1.4691 -0.0877
21845SOL     OW67913   4.121   6.379   8.516 -0.6972  0.0891 -0.2367
21845SOL    HW167914   4.130   6.466   8.555 -0.7850 -0.8924  2.2057
21845SOL    HW267915   4.191   6.374   8.451 -0.5142  1.8788 -0.2191
21846SOL     OW67916   2.656   0.152   7.757  0.4192  0.0602  0.4478
21846SOL    HW167917   2.637   0.114   7.843  0.1337  1.0637  0.8419
21846SOL    HW267918   2.734   0.105   7.727  0.5444 -0.2856  1.2699
21847SOL     OW67919   0.101   6.589   6.431 -0.4215 -0.2362  0.0979
21847SOL    HW167920   0.135   6.520   6.375 -1.8531 -0.1006 -0.9975
21847SOL    HW267921   0.175   6.613   6.487  0.4469 -1.8037 -0.3156
21848SOL     OW67922   6.657   8.762   9.799  0.8474  0.3920 -0.2578
21848SOL    HW167923   6.639   8.703   9.726 -1.0755  1.3580 -0.6476
21848SOL    HW267924   6.660   8.849   9.759  0.2033  0.8931  0.7404
21849SOL     OW67925   5.043   7.735   8.171  0.2397 -0.3203 -0.5197
21849SOL    HW167926   4.951   7.720   8.195  0.1152  1.1509  0.0185
21849SOL    HW267927   5.077   7.647   8.153 -0.8240 -1.0651  0.8697
21850SOL     OW67928   1.070   9.742   0.411  0.8663  0.8540 -0.5024
21850SOL    HW167929   1.123   9.693   0.349 -0.8883 -0.2774 -1.1909
21850SOL    HW267930   1.062   9.683   0.487  0.6376  1.0333 -0.3866
21851SOL     OW67931   0.207   4.896   4.010  0.4192  0.5089  0.2253
21851SOL    HW167932   0.236   4.983   4.036  1.9208  0.8684 -2.2818
21851SOL    HW267933   0.140   4.912   3.943  0.9371 -0.2266 -0.4890
21852SOL     OW67934   5.837   9.352   6.357 -0.5553 -1.1622 -0.6162
21852SOL    HW167935   5.908   9.395   6.406 -0.4059 -1.4925 -0.5401
21852SOL    HW267936   5.757   9.385   6.397 -0.5491  1.3417 -2.4614
21853SOL     OW67937   7.642   2.760   3.017  0.7640 -0.6202 -0.2799
21853SOL    HW167938   7.649   2.854   3.030  0.2407 -0.8501  2.3052
21853SOL    HW267939   7.591   2.750   2.937  0.9039  1.2746 -0.6491
21854SOL     OW67940   3.479   7.257  10.581  0.0722  0.2671  0.1535
21854SOL    HW167941   3.457   7.316  10.653  2.7421  0.7357  0.6991
21854SOL    HW267942   3.470   7.311  10.502 -2.7966 -0.2320  0.0398
21855SOL     OW67943   7.613   4.417   8.980  0.0518 -0.1871  0.2997
21855SOL    HW167944   7.615   4.507   8.948 -1.5367 -0.5593 -0.9945
21855SOL    HW267945   7.675   4.416   9.053  1.3664  1.5253 -0.7273
21856SOL     OW67946   4.896   5.943   1.615 -0.0094 -0.3190 -0.7953
21856SOL    HW167947   4.894   5.917   1.707  0.8817  0.1436 -0.6318
21856SOL    HW267948   4.989   5.949   1.594 -0.1738  1.4646 -1.1728
21857SOL     OW67949   9.376   7.315  10.451 -0.6698  0.3509  0.0474
21857SOL    HW167950   9.282   7.331  10.468 -0.6908 -0.2843  0.5568
21857SOL    HW267951   9.420   7.356  10.526 -0.6747 -1.1502  0.9210
21858SOL     OW67952   2.809   5.666   2.588 -0.8771  0.2077 -0.1486
21858SOL    HW167953   2.871   5.603   2.552 -1.9388 -1.1028  0.2489
21858SOL    HW267954   2.808   5.648   2.682 -0.8402  1.1549  0.0454
21859SOL     OW67955   0.128   7.365   7.710  0.3393 -0.6031 -0.3733
21859SOL    HW167956   0.159   7.281   7.743 -0.6470 -0.5570  0.7120
21859SOL    HW267957   0.069   7.398   7.778 -0.8936  0.0144 -1.6792
21860SOL     OW67958   3.680   4.132   9.319  0.3394  0.0269  0.1079
21860SOL    HW167959   3.752   4.084   9.359  0.3946  0.6996  0.8391
21860SOL    HW267960   3.629   4.065   9.274  0.4809 -0.7037  1.0061
21861SOL     OW67961   2.295   8.790   9.480 -0.5919 -0.0254 -0.2039
21861SOL    HW167962   2.260   8.878   9.467  0.1519  0.1549 -1.0228
21861SOL    HW267963   2.269   8.742   9.402  1.0366  0.1434 -0.8928
21862SOL     OW67964   2.300   9.452   0.276  0.0939  0.0222 -0.0321
21862SOL    HW167965   2.283   9.534   0.322 -1.3651 -0.2047 -0.1037
21862SOL    HW267966   2.295   9.475   0.183  0.0726 -0.0627 -0.0528
21863SOL     OW67967   2.020   9.496   7.103  0.5581 -0.0650 -0.1436
21863SOL    HW167968   2.005   9.537   7.018 -1.0571  0.2414  0.2635
21863SOL    HW267969   2.099   9.442   7.090 -0.4412 -1.1369 -2.2344
21864SOL     OW67970   1.329   9.005   9.271 -0.4251 -0.2738  0.0531
21864SOL    HW167971   1.254   9.033   9.219  1.7971 -0.4278 -3.5511
21864SOL    HW267972   1.357   9.084   9.318 -2.3613 -0.0707  0.9485
21865SOL     OW67973   8.622   6.841   2.250  0.2478 -0.0165 -0.1833
21865SOL    HW167974   8.597   6.754   2.219  0.0853  0.1590 -0.5515
21865SOL    HW267975   8.698   6.864   2.197  0.4943 -0.0704  0.1432
21866SOL     OW67976   9.251  10.160   0.631 -1.0809 -0.2215  0.1001
21866SOL    HW167977   9.174  10.204   0.668 -0.3444  1.4697 -0.3099
21866SOL    HW267978   9.281  10.102   0.701 -2.5121 -0.6693  0.3863
21867SOL     OW67979   4.138   5.755   8.262 -0.5644 -0.3401 -0.2495
21867SOL    HW167980   4.185   5.678   8.231 -0.6351 -0.4804 -0.0114
21867SOL    HW267981   4.122   5.806   8.183  1.3971  0.5072 -0.1582
21868SOL     OW67982   4.269   3.957   4.113  0.7003  0.1311  0.2684
21868SOL    HW167983   4.228   4.041   4.090  0.4463  0.3375  1.4045
21868SOL    HW267984   4.341   3.981   4.171  1.9119 -0.3024 -1.0219
21869SOL     OW67985   7.629   5.633   1.600  0.2402 -0.2630 -0.1015
21869SOL    HW167986   7.571   5.702   1.633 -1.0443  0.5440 -3.6172
21869SOL    HW267987   7.576   5.553   1.606 -0.2637  0.0084 -0.8971
21870SOL     OW67988   4.628   6.215   9.024 -0.3960 -0.1266  0.4336
21870SOL    HW167989   4.587   6.179   8.945  0.9718 -0.5511 -0.1170
21870SOL    HW267990   4.555   6.238   9.081 -1.4600  0.9013 -1.2553
21871SOL     OW67991   2.034   0.647   7.510 -0.4901 -0.2390  0.3223
21871SOL    HW167992   2.056   0.700   7.587 -1.0942  0.8644 -0.2307
21871SOL    HW267993   2.104   0.666   7.447  0.3312 -1.6011  0.7800
21872SOL     OW67994   0.913   6.467  10.044  0.0091  0.0041 -0.1561
21872SOL    HW167995   1.003   6.480  10.076 -0.5378  2.0756  0.7152
21872SOL    HW267996   0.864   6.539  10.083 -2.1711 -1.3946 -0.1931
21873SOL     OW67997   7.093   8.626   2.336  0.0210  0.5031  0.7411
21873SOL    HW167998   7.066   8.709   2.375 -0.5452  0.2493  0.9011
21873SOL    HW267999   7.116   8.571   2.411 -0.6046  0.1754  0.6967
21874SOL     OW68000  10.757   1.925   1.112 -0.5293 -0.0545 -0.0038
21874SOL    HW168001  10.834   1.899   1.061  0.1273  0.1817  0.8355
21874SOL    HW268002  10.781   2.010   1.148 -1.1099 -0.0752  0.4387
21875SOL     OW68003   1.111   1.454   3.841  0.4161  0.1069  0.0398
21875SOL    HW168004   1.108   1.419   3.752 -1.4742 -0.3359  0.2258
21875SOL    HW268005   1.136   1.380   3.896  1.6625  0.3999 -0.1117
21876SOL     OW68006   8.629   1.230   0.294 -0.1622 -0.0260 -0.1581
21876SOL    HW168007   8.590   1.147   0.264 -0.1657  0.1029 -0.5246
21876SOL    HW268008   8.671   1.266   0.215 -0.6003  0.5648 -0.1301
21877SOL     OW68009   1.657   4.944  10.526  0.2128 -0.0068 -0.1423
21877SOL    HW168010   1.608   4.890  10.587 -0.4444  0.4428 -0.2668
21877SOL    HW268011   1.591   4.998  10.482  0.6092 -0.5944 -1.5364
21878SOL     OW68012   1.095  10.682   5.196 -0.3606  0.2139 -0.7015
21878SOL    HW168013   1.129  10.728   5.119  1.1785 -1.2084 -0.9112
21878SOL    HW268014   1.130  10.730   5.271 -0.1976  0.4044 -0.8996
21879SOL     OW68015   6.900   9.381   4.176  0.4721  0.5423 -0.3159
21879SOL    HW168016   6.945   9.415   4.254 -1.0938  0.5710  0.6123
21879SOL    HW268017   6.872   9.293   4.201  0.1828  0.4505 -0.9489
21880SOL     OW68018   4.948   7.671   7.041 -0.2463 -0.2673 -0.0174
21880SOL    HW168019   4.855   7.659   7.058  0.1724  0.7699  3.8284
21880SOL    HW268020   4.986   7.584   7.050 -0.5605 -0.3409  0.6203
21881SOL     OW68021   2.340   4.238  10.582  0.1105  0.0289  0.4558
21881SOL    HW168022   2.350   4.274  10.671 -0.2351 -0.3190  0.6381
21881SOL    HW268023   2.297   4.154  10.595 -1.6340  0.7918 -0.1850
21882SOL     OW68024   8.885   9.910   0.061 -0.1093 -0.3336 -0.7696
21882SOL    HW168025   8.836   9.992   0.068  1.0776  0.3046  0.6378
21882SOL    HW268026   8.824   9.843   0.091 -0.1685  0.4465  0.9817
21883SOL     OW68027   1.044   0.095   6.346 -0.0318 -0.0078 -0.2158
21883SOL    HW168028   1.113   0.043   6.304 -0.7096 -0.5902 -0.6213
21883SOL    HW268029   1.077   0.110   6.435  1.5222  1.4212 -0.9561
21884SOL     OW68030   5.921   9.265   3.908 -0.4234  0.3410 -0.2707
21884SOL    HW168031   5.938   9.353   3.939  0.8006  0.2312 -0.6008
21884SOL    HW268032   5.990   9.211   3.946 -2.6565 -1.0605  2.2235
21885SOL     OW68033   3.382   9.484   8.737  0.1410 -0.0596 -0.1169
21885SOL    HW168034   3.365   9.578   8.750  0.4364 -0.1139  0.7840
21885SOL    HW268035   3.470   9.481   8.701 -0.7711  0.1066 -2.5657
21886SOL     OW68036   0.234   7.955   8.641 -0.4113 -0.5255  0.4203
21886SOL    HW168037   0.223   7.953   8.736  1.0747  1.6205  0.7317
21886SOL    HW268038   0.150   7.987   8.608 -0.2942  0.7812  1.2583
21887SOL     OW68039   1.365   3.769   9.450 -0.6410 -0.4940 -0.0543
21887SOL    HW168040   1.359   3.676   9.427  2.1619 -0.8517  0.3487
21887SOL    HW268041   1.436   3.803   9.397  1.3830  0.2930  2.8922
21888SOL     OW68042   4.823   3.625   9.902  0.5041 -0.2417  0.1690
21888SOL    HW168043   4.853   3.547   9.950 -1.2725 -0.3250  1.2290
21888SOL    HW268044   4.729   3.612   9.892  0.2909  1.4588 -0.2738
21889SOL     OW68045   2.496   4.862   8.449  0.4431  0.3096  0.0114
21889SOL    HW168046   2.565   4.919   8.483 -0.5907  0.9507  1.1314
21889SOL    HW268047   2.470   4.902   8.366  2.2764 -0.6771 -1.1022
21890SOL     OW68048   1.970   4.901   4.309 -0.3453  0.0517 -0.2648
21890SOL    HW168049   2.031   4.916   4.381 -1.0770 -0.4021  0.4765
21890SOL    HW268050   1.969   4.806   4.299  0.3112  0.1423 -1.3959
21891SOL     OW68051   1.226   2.460   5.750  0.1390  0.2157  0.8322
21891SOL    HW168052   1.233   2.442   5.656 -1.5061 -1.4700  0.9709
21891SOL    HW268053   1.317   2.464   5.781  0.6906  0.2463 -0.7246
21892SOL     OW68054   9.007  10.279   7.016  0.2536  0.4646  0.1609
21892SOL    HW168055   8.924  10.287   6.971  0.3773  0.4217 -0.0749
21892SOL    HW268056   9.073  10.302   6.951  0.4656 -0.1545  0.1494
21893SOL     OW68057   2.262   0.158   8.020  0.1031  0.3940  0.1265
21893SOL    HW168058   2.167   0.158   8.030  0.2854  1.0932  2.3990
21893SOL    HW268059   2.281   0.237   7.969 -0.4565  1.2473  1.1864
21894SOL     OW68060   3.312   8.665   6.655 -0.1710  0.2066 -0.1915
21894SOL    HW168061   3.249   8.706   6.596  0.8107 -0.7178 -1.9397
21894SOL    HW268062   3.356   8.598   6.602  1.0738 -0.3611  1.4584
21895SOL     OW68063   8.677   5.624   6.601  0.0308 -0.1122  0.2028
21895SOL    HW168064   8.745   5.685   6.631 -0.4794  0.6007 -0.0683
21895SOL    HW268065   8.669   5.641   6.508 -0.0110 -0.7146  0.0920
21896SOL     OW68066   4.166   1.765   7.272 -0.4471  0.2236 -0.5888
21896SOL    HW168067   4.186   1.834   7.335  0.0545 -0.2785 -0.1949
21896SOL    HW268068   4.139   1.691   7.325  1.1752 -0.6222 -0.8761
21897SOL     OW68069   9.142   0.311   7.029  0.1776 -0.1462 -0.5645
21897SOL    HW168070   9.076   0.278   6.968  0.8251  0.8843 -1.8533
21897SOL    HW268071   9.177   0.232   7.070 -2.0341 -0.7205  0.4136
21898SOL     OW68072   5.427   1.491   6.411  0.7643 -0.4672  0.4012
21898SOL    HW168073   5.391   1.476   6.324  0.6134  0.7506  0.2339
21898SOL    HW268074   5.350   1.507   6.466  0.9630  1.5139  0.1722
21899SOL     OW68075   8.793  10.504   4.843 -0.4287  0.0107  0.3996
21899SOL    HW168076   8.773  10.530   4.753 -0.6903  1.5826  0.8753
21899SOL    HW268077   8.792  10.409   4.842 -1.6615  0.0123 -0.9944
21900SOL     OW68078   5.730   3.365   9.765 -0.0446 -0.0924  0.6546
21900SOL    HW168079   5.809   3.400   9.725  0.2023 -1.8692 -0.5255
21900SOL    HW268080   5.673   3.441   9.777  1.9759  1.3124  1.9978
21901SOL     OW68081   1.491   6.543   5.026  0.2216 -0.0212 -0.1604
21901SOL    HW168082   1.574   6.591   5.027  0.5123 -0.4907 -0.8480
21901SOL    HW268083   1.517   6.451   5.032 -0.3412 -0.1038  1.5257
21902SOL     OW68084   5.866   5.001   5.431  0.5009 -0.4360  0.1734
21902SOL    HW168085   5.923   5.071   5.398  0.5719 -0.7699 -0.4096
21902SOL    HW268086   5.922   4.924   5.436  0.1714 -0.6930 -0.1129
21903SOL     OW68087   3.537   4.001   2.481 -0.4345 -0.2417 -0.0520
21903SOL    HW168088   3.547   3.976   2.573 -1.1123 -0.0680  0.0684
21903SOL    HW268089   3.575   3.928   2.433 -1.5947 -1.1220  0.3213
21904SOL     OW68090   4.213   2.902   9.276 -0.3064 -0.0231  0.2533
21904SOL    HW168091   4.262   2.838   9.224 -0.6384  0.1846 -0.3216
21904SOL    HW268092   4.127   2.906   9.234 -0.0526  1.3642 -0.2040
21905SOL     OW68093   2.600   5.228   8.313 -0.4871  0.1315 -0.0952
21905SOL    HW168094   2.587   5.307   8.261 -4.5776  0.4686  1.1050
21905SOL    HW268095   2.681   5.245   8.362  1.6707  1.1802 -3.6323
21906SOL     OW68096   2.724   7.347   3.112 -0.1885 -0.3824  0.0642
21906SOL    HW168097   2.756   7.434   3.138 -0.3801 -0.2175 -0.2461
21906SOL    HW268098   2.682   7.313   3.191  1.5849 -1.0117  0.7932
21907SOL     OW68099  10.622   7.301   6.067 -0.0406  0.5721 -0.4599
21907SOL    HW168100  10.586   7.325   6.152  1.9627  1.8986  0.0954
21907SOL    HW268101  10.667   7.218   6.082  1.6807  1.5761  0.2589
21908SOL     OW68102  10.206   8.953   2.256 -0.2084  0.2657 -0.0226
21908SOL    HW168103  10.134   8.935   2.316  0.5511  1.3265  1.2553
21908SOL    HW268104  10.191   9.043   2.227  0.0794  0.1542 -0.5327
21909SOL     OW68105   0.893   0.529   5.630 -0.3082 -0.0999  0.3869
21909SOL    HW168106   0.905   0.617   5.595  0.6259 -0.0657  0.7508
21909SOL    HW268107   0.865   0.543   5.721  1.3532 -0.1436  0.9363
21910SOL     OW68108   6.979   7.312   6.261 -0.3686 -0.3428 -0.2930
21910SOL    HW168109   6.898   7.265   6.242 -1.5198  0.8255  1.4887
21910SOL    HW268110   6.959   7.364   6.338  2.3482 -0.6343  0.7045
21911SOL     OW68111   1.729   2.047   6.250  0.0021 -0.0249  0.1507
21911SOL    HW168112   1.713   2.098   6.170 -0.4658 -0.2601  0.0868
21911SOL    HW268113   1.821   2.024   6.246  0.4630  1.5780  0.6253
21912SOL     OW68114   3.843   4.352   0.214 -0.1440  0.0612 -0.2032
21912SOL    HW168115   3.866   4.444   0.200 -1.4450  0.4764  0.2835
21912SOL    HW268116   3.781   4.332   0.144  1.1570 -0.8663 -1.1341
21913SOL     OW68117  10.235   3.741   6.582 -0.4101  0.1995 -0.0379
21913SOL    HW168118  10.218   3.708   6.670 -2.0390  0.4521 -0.2402
21913SOL    HW268119  10.316   3.697   6.555 -1.1077 -1.5910  0.7057
21914SOL     OW68120   9.433   1.346   3.543 -0.0009 -0.1266 -0.4373
21914SOL    HW168121   9.441   1.415   3.609  1.5018 -1.7233  1.1790
21914SOL    HW268122   9.488   1.374   3.471 -0.4161  0.9266 -0.3615
21915SOL     OW68123   0.430   2.374   2.434  0.0930 -0.3354  0.0308
21915SOL    HW168124   0.434   2.299   2.493  1.1131 -2.3551 -2.4221
21915SOL    HW268125   0.518   2.379   2.396 -0.5296  0.8381 -1.3381
21916SOL     OW68126   4.541   9.578   9.285  0.1313  0.5291  0.1016
21916SOL    HW168127   4.548   9.665   9.323 -0.4748  0.6281 -0.0064
21916SOL    HW268128   4.551   9.518   9.358 -0.4448  0.7093  0.3348
21917SOL     OW68129   7.683   5.300   2.751 -0.1062 -0.0492 -0.2219
21917SOL    HW168130   7.765   5.344   2.728  0.5388 -0.9814  0.2150
21917SOL    HW268131   7.689   5.214   2.708 -0.0403 -0.8083  1.2111
21918SOL     OW68132   2.019   8.859   6.975  0.1221  0.3585 -0.0386
21918SOL    HW168133   2.081   8.789   6.996 -0.1131 -0.0291 -0.5827
21918SOL    HW268134   1.961   8.864   7.051  0.0880 -0.1063 -0.0304
21919SOL     OW68135   0.491   2.762   1.914 -0.5369 -0.0866 -0.1818
21919SOL    HW168136   0.586   2.755   1.922 -0.6418  0.0254  1.6974
21919SOL    HW268137   0.476   2.790   1.824  1.2008 -0.2637 -0.5564
21920SOL     OW68138   9.244   4.753   2.273 -0.0437 -0.1319  0.2004
21920SOL    HW168139   9.329   4.717   2.299  0.2925  1.3049  1.2129
21920SOL    HW268140   9.259   4.788   2.185  0.0963 -0.8886 -0.0814
21921SOL     OW68141   4.838   9.652   6.221  0.5119  0.2405 -0.3219
21921SOL    HW168142   4.906   9.584   6.213  0.1183 -0.1960  0.0148
21921SOL    HW268143   4.773   9.614   6.280  0.0785  0.7439 -0.4726
21922SOL     OW68144   6.448   3.526   0.484  0.3559 -0.8306 -0.1175
21922SOL    HW168145   6.516   3.580   0.445 -0.4538  1.2304  1.1765
21922SOL    HW268146   6.489   3.486   0.560  0.0221  0.9476  1.0577
21923SOL     OW68147   7.001   3.512   5.786  0.3859  0.5071  0.2032
21923SOL    HW168148   7.082   3.562   5.775  1.9559 -1.8857  0.1687
21923SOL    HW268149   6.984   3.474   5.700 -0.0480 -0.0481  0.5241
21924SOL     OW68150   5.070   8.622   6.514  0.1012 -0.5711  0.3586
21924SOL    HW168151   5.075   8.710   6.553 -1.2248 -0.5807  0.6038
21924SOL    HW268152   5.047   8.565   6.587 -1.6095 -0.7149 -0.2396
21925SOL     OW68153   9.321   8.721   5.026  0.0136  0.0510  0.3005
21925SOL    HW168154   9.276   8.776   5.090 -0.7697 -0.6532  0.3667
21925SOL    HW268155   9.399   8.771   5.003 -0.4513  0.9858  0.6933
21926SOL     OW68156   6.968   7.179   2.377  0.2548 -0.0818 -0.6692
21926SOL    HW168157   6.886   7.137   2.400 -0.6533  0.1670 -3.2043
21926SOL    HW268158   7.020   7.110   2.335 -0.0047  0.5120 -2.0207
21927SOL     OW68159   4.771   0.478   9.373 -0.1347  0.1711 -0.1098
21927SOL    HW168160   4.722   0.410   9.419  1.9632 -1.8465 -0.6890
21927SOL    HW268161   4.802   0.536   9.442  0.7864 -1.3438  0.7854
21928SOL     OW68162   9.703   7.471   6.389 -0.0265 -0.2244  0.6534
21928SOL    HW168163   9.664   7.390   6.357  0.3105 -0.0743 -0.1474
21928SOL    HW268164   9.797   7.452   6.396 -0.0569 -0.1746  1.3219
21929SOL     OW68165   9.999   5.094   9.546  0.2520  1.2401  0.2708
21929SOL    HW168166   9.973   5.026   9.484  0.0308  1.2764  0.3223
21929SOL    HW268167  10.093   5.105   9.531  0.8847 -0.9257  2.0600
21930SOL     OW68168   7.527   8.743   4.789 -0.2356 -0.5491 -0.2817
21930SOL    HW168169   7.600   8.700   4.745 -0.7062 -0.3624 -1.2881
21930SOL    HW268170   7.459   8.676   4.793 -0.1355 -0.6196  0.3483
21931SOL     OW68171   6.351   6.520   2.527 -0.1111  0.1703 -0.3059
21931SOL    HW168172   6.301   6.598   2.551 -0.8013 -0.9605  2.4059
21931SOL    HW268173   6.442   6.549   2.526 -0.5255  1.5956 -2.3193
21932SOL     OW68174   3.236   9.584   7.882  0.0767  0.2439 -0.3134
21932SOL    HW168175   3.213   9.597   7.790 -0.7058  1.3013  0.0175
21932SOL    HW268176   3.274   9.667   7.909  0.6444 -0.1880  0.2227
21933SOL     OW68177   2.456   3.178   6.292 -0.1281 -0.2653 -0.5623
21933SOL    HW168178   2.515   3.126   6.237 -1.0556 -0.5711 -1.2822
21933SOL    HW268179   2.477   3.269   6.270 -1.7035 -0.3735 -2.8096
21934SOL     OW68180   4.603   6.256   2.387  0.0770 -0.6468 -0.2025
21934SOL    HW168181   4.679   6.239   2.443  0.5113  1.9617  0.1146
21934SOL    HW268182   4.635   6.240   2.298  0.5412 -1.0313  0.0248
21935SOL     OW68183   5.032   8.737   0.972 -0.4034  0.1024  0.0922
21935SOL    HW168184   5.108   8.779   0.933 -0.5885  0.2606 -0.0988
21935SOL    HW268185   5.038   8.759   1.065 -0.1365 -0.0085  0.1019
21936SOL     OW68186  10.100   0.624   7.980  0.4256 -0.1955 -0.2803
21936SOL    HW168187  10.073   0.580   7.900 -0.2674  0.7399 -0.5726
21936SOL    HW268188  10.098   0.556   8.047 -2.6726 -0.2172 -0.2816
21937SOL     OW68189   6.742   2.843   9.244  0.1928 -0.3755  0.4826
21937SOL    HW168190   6.791   2.798   9.175 -0.2454 -1.1192  0.6512
21937SOL    HW268191   6.792   2.826   9.324  1.0291  0.9847  0.2798
21938SOL     OW68192   9.043   5.574  10.430  0.1410  1.0322 -0.0824
21938SOL    HW168193   8.949   5.579  10.413  0.2682 -0.0039 -1.2650
21938SOL    HW268194   9.063   5.653  10.480 -1.9554 -0.2798  3.2105
21939SOL     OW68195   4.438   6.604   7.476  0.2499 -0.1365  0.6503
21939SOL    HW168196   4.385   6.629   7.551 -1.6560 -2.2356  0.1071
21939SOL    HW268197   4.518   6.566   7.514  0.2500  0.7405  1.5394
21940SOL     OW68198   2.194   1.722   7.507 -0.2365  0.6722 -0.3718
21940SOL    HW168199   2.186   1.804   7.556 -0.1323  1.0139 -0.9157
21940SOL    HW268200   2.140   1.659   7.556 -0.1769  1.0159  0.1448
21941SOL     OW68201   1.153   7.444  10.037  0.1361 -0.0267  0.6911
21941SOL    HW168202   1.142   7.513   9.972 -1.4721 -1.5622 -0.7838
21941SOL    HW268203   1.103   7.474  10.113 -1.3156  0.1020 -0.2591
21942SOL     OW68204   0.685   0.772  10.610 -0.6989 -0.5885 -0.3307
21942SOL    HW168205   0.619   0.837  10.585 -1.0156 -0.4942  0.6994
21942SOL    HW268206   0.757   0.786  10.549 -1.3117 -0.1602 -0.9640
21943SOL     OW68207   0.341   8.717   5.216  0.3829 -0.1780  0.0690
21943SOL    HW168208   0.268   8.778   5.203  1.0980  0.9927  1.3053
21943SOL    HW268209   0.359   8.721   5.309  1.1065 -1.5642  0.0151
21944SOL     OW68210   3.779   8.068   9.039  0.7361  0.3400 -0.0740
21944SOL    HW168211   3.698   8.023   9.016  1.5105 -0.6527 -0.9433
21944SOL    HW268212   3.753   8.159   9.056 -0.4868  0.1348 -0.7749
21945SOL     OW68213   5.911   2.239  10.582 -0.0151  0.5055 -0.2079
21945SOL    HW168214   5.938   2.147  10.591 -0.1622  0.2893 -1.7522
21945SOL    HW268215   5.913   2.256  10.488  2.0016  2.6894  0.1259
21946SOL     OW68216   5.341   7.656   2.898 -0.4029  0.2482  0.0264
21946SOL    HW168217   5.249   7.659   2.924 -0.9804  0.9275 -1.9313
21946SOL    HW268218   5.363   7.747   2.877 -0.1827 -0.2792 -2.2969
21947SOL     OW68219   9.395   9.464   0.269 -0.1505  0.7111  0.0292
21947SOL    HW168220   9.453   9.539   0.257 -0.2724  0.8153  0.0875
21947SOL    HW268221   9.420   9.428   0.354 -0.3790  0.9428  0.1972
21948SOL     OW68222  10.543   6.917   2.493  0.3470 -0.4869  0.0863
21948SOL    HW168223  10.584   6.855   2.554 -0.4344  0.0415  1.1877
21948SOL    HW268224  10.600   6.993   2.495 -0.0343 -0.2059  0.7110
21949SOL     OW68225   9.522   7.881   2.988 -0.4225  0.0408  0.5103
21949SOL    HW168226   9.555   7.804   2.942 -1.1889 -0.1724  0.3056
21949SOL    HW268227   9.567   7.955   2.947  1.6133 -0.3869  1.8496
21950SOL     OW68228   9.509   1.634   7.271 -1.0293  0.8254  0.1598
21950SOL    HW168229   9.530   1.569   7.338  1.0456  1.7455  0.4788
21950SOL    HW268230   9.448   1.694   7.314 -1.2383  0.3291  0.5711
21951SOL     OW68231   4.975   1.236   4.318 -0.2147 -0.0534 -0.4052
21951SOL    HW168232   4.931   1.311   4.276 -0.9827 -1.3857 -2.0913
21951SOL    HW268233   4.964   1.164   4.256  0.8013 -1.4995  1.0229
21952SOL     OW68234   0.378   3.093   2.714  0.5100 -0.3826  0.6379
21952SOL    HW168235   0.368   3.039   2.636 -0.7183  0.1821  0.3906
21952SOL    HW268236   0.325   3.050   2.781 -0.5189  0.5191  0.4254
21953SOL     OW68237  10.776   6.118   8.226  0.2762 -0.7178 -0.0156
21953SOL    HW168238  10.697   6.113   8.280 -0.4928  0.8080 -0.9162
21953SOL    HW268239  10.838   6.059   8.268 -0.3128  0.3259  2.4605
21954SOL     OW68240   4.743   7.148   0.730 -0.2135 -0.0376  0.7637
21954SOL    HW168241   4.763   7.138   0.823 -2.5074 -1.5100  1.1852
21954SOL    HW268242   4.775   7.235   0.708  1.4747 -0.1067  2.5859
21955SOL     OW68243   0.607   6.358   0.724 -0.3520  0.3004  0.2667
21955SOL    HW168244   0.690   6.339   0.681 -0.5411 -0.1560  0.0966
21955SOL    HW268245   0.544   6.300   0.681 -0.5244 -0.2697  1.2630
21956SOL     OW68246   7.791   8.082   0.496 -0.0484  0.0460  0.3497
21956SOL    HW168247   7.840   8.027   0.434  0.5185  0.7050  0.1938
21956SOL    HW268248   7.856   8.144   0.529 -0.8874  1.3319 -0.3032
21957SOL     OW68249   7.372   4.041   7.578  0.1442 -0.2010 -0.0013
21957SOL    HW168250   7.313   3.981   7.532 -0.1666 -0.5480  0.8252
21957SOL    HW268251   7.418   3.985   7.641  0.8216  0.2021 -0.1302
21958SOL     OW68252   4.087  10.446   9.300 -0.3812 -0.1854  0.2740
21958SOL    HW168253   4.015  10.383   9.310 -0.2023 -0.6507 -1.0529
21958SOL    HW268254   4.099  10.453   9.205  2.0182 -0.9332  0.4494
21959SOL     OW68255   0.539   2.365   2.930  0.2038 -0.1356 -0.0774
21959SOL    HW168256   0.480   2.441   2.925 -0.6523 -0.8076 -0.4122
21959SOL    HW268257   0.600   2.387   3.000  0.2573  1.0619 -0.4696
21960SOL     OW68258   3.477   4.341   3.203 -0.2481  0.3472 -0.8761
21960SOL    HW168259   3.553   4.390   3.173 -0.9833  1.2070 -1.3614
21960SOL    HW268260   3.469   4.363   3.296 -0.9588  1.6954 -1.2355
21961SOL     OW68261   7.561   8.070   5.134 -0.4631  0.2267  0.2615
21961SOL    HW168262   7.541   7.977   5.138  2.2461 -0.5130 -1.4206
21961SOL    HW268263   7.647   8.079   5.174  0.0115  1.7335 -0.9813
21962SOL     OW68264   6.430   5.027   4.484  0.4367  1.1632  0.0847
21962SOL    HW168265   6.475   5.042   4.567 -0.2179  3.7857  0.0656
21962SOL    HW268266   6.496   5.046   4.417  0.4498  0.8365  0.0009
21963SOL     OW68267   5.652   9.124   4.900  0.1404  0.1084 -0.4520
21963SOL    HW168268   5.631   9.178   4.977 -0.7965 -0.0907 -0.5540
21963SOL    HW268269   5.676   9.187   4.832  0.0556  0.3382 -0.2709
21964SOL     OW68270   5.446   9.713   9.468 -0.3194  0.5736  0.1579
21964SOL    HW168271   5.508   9.645   9.493  0.5878  1.2624 -0.1421
21964SOL    HW268272   5.363   9.667   9.460  0.3173 -0.5664 -0.3211
21965SOL     OW68273   2.140   6.226  10.251  0.0992  0.0112 -0.4488
21965SOL    HW168274   2.231   6.236  10.224 -0.4676  0.6229 -2.2555
21965SOL    HW268275   2.098   6.308  10.225 -1.0539 -0.4056  0.0322
21966SOL     OW68276   0.977   4.897   6.668 -0.4577  0.4336  0.3694
21966SOL    HW168277   1.050   4.958   6.678  1.0937 -1.3228  0.1996
21966SOL    HW268278   0.949   4.907   6.577 -0.4523  1.1305  0.4425
21967SOL     OW68279   9.314   6.307   7.511 -0.0202  0.3067  1.1370
21967SOL    HW168280   9.333   6.228   7.459  1.0817  0.8060  0.7702
21967SOL    HW268281   9.296   6.374   7.445  3.0045  1.3740  1.2834
21968SOL     OW68282   8.558   5.317   5.305  0.4778  0.3357  0.1059
21968SOL    HW168283   8.495   5.249   5.279  0.1585  0.6112  0.1527
21968SOL    HW268284   8.634   5.268   5.337  0.6226 -0.0110 -0.7290
21969SOL     OW68285   6.497   2.363   2.158 -0.4028 -0.4977 -0.4186
21969SOL    HW168286   6.442   2.373   2.236 -1.1413  2.8996 -1.2001
21969SOL    HW268287   6.575   2.416   2.176  0.2252 -1.0798 -1.3336
21970SOL     OW68288   4.175   1.213   3.660 -0.0524  0.1538  0.0375
21970SOL    HW168289   4.129   1.209   3.744 -0.1039 -0.1864 -0.0035
21970SOL    HW268290   4.144   1.294   3.619  0.9571  0.9888  0.9018
21971SOL     OW68291   0.791   7.399   9.844  0.0734 -0.1686  0.6856
21971SOL    HW168292   0.879   7.366   9.861  0.2159  0.0048  0.2756
21971SOL    HW268293   0.768   7.447   9.924  0.1669 -0.5962  0.9733
21972SOL     OW68294   5.032   1.426   7.532 -0.2163 -0.4857  0.3857
21972SOL    HW168295   4.950   1.396   7.492 -0.3386  0.8575 -0.4171
21972SOL    HW268296   5.101   1.382   7.482 -0.3420  1.6928 -1.8598
21973SOL     OW68297   6.584   8.515   1.646  0.0611 -0.6566  0.5511
21973SOL    HW168298   6.676   8.512   1.672  0.8613  0.5678 -1.8498
21973SOL    HW268299   6.548   8.591   1.692  0.9149  0.2958 -0.3117
21974SOL     OW68300   5.490   8.644  10.260 -0.8167 -0.1944 -0.0519
21974SOL    HW168301   5.469   8.694  10.182 -0.9301 -0.3845 -0.1440
21974SOL    HW268302   5.524   8.561  10.227 -0.1118  0.0262  0.0921
21975SOL     OW68303  10.508   9.350   0.897 -0.0079  0.0788 -0.1199
21975SOL    HW168304  10.474   9.433   0.864  3.6161  0.5988 -3.1403
21975SOL    HW268305  10.465   9.283   0.844 -0.2788  0.2614 -0.1360
21976SOL     OW68306   7.589   6.507   6.580 -0.3604  0.2312 -0.3311
21976SOL    HW168307   7.507   6.546   6.550 -0.4973  1.1341  1.1352
21976SOL    HW268308   7.561   6.436   6.639 -0.0821 -0.2955 -0.8202
21977SOL     OW68309   1.302  10.295   5.873  0.9171  0.1146 -0.0647
21977SOL    HW168310   1.329  10.241   5.947  0.4126 -0.0166  0.0235
21977SOL    HW268311   1.243  10.360   5.911  1.8078  0.9714 -0.1027
21978SOL     OW68312   5.902   6.218   8.801 -0.0894  0.5481 -0.7101
21978SOL    HW168313   5.981   6.250   8.844  0.4777 -1.0467 -0.4893
21978SOL    HW268314   5.855   6.297   8.774  0.9484  1.5422  0.2862
21979SOL     OW68315   2.699   4.708   7.191  0.0500 -0.3406  0.6820
21979SOL    HW168316   2.616   4.744   7.221  0.5913  1.6042 -0.0377
21979SOL    HW268317   2.738   4.669   7.269 -1.8088 -1.9227  0.8867
21980SOL     OW68318   5.970   7.014  10.049  0.6223 -0.5063  0.1839
21980SOL    HW168319   5.876   7.026  10.059  1.0292  4.1216  0.8199
21980SOL    HW268320   5.983   6.995   9.956 -0.8914 -2.1308  0.2530
21981SOL     OW68321   6.916   4.499   5.127 -0.3317 -0.3056 -0.3608
21981SOL    HW168322   6.933   4.552   5.205  1.0362  1.2123 -1.5927
21981SOL    HW268323   6.994   4.444   5.119 -0.7373 -0.8912 -0.3457
21982SOL     OW68324   1.601   2.754   8.616  0.0143  0.4056 -0.2636
21982SOL    HW168325   1.664   2.752   8.688 -0.1726  1.4248 -0.0492
21982SOL    HW268326   1.521   2.717   8.654  0.1831  0.0734 -0.2282
21983SOL     OW68327   1.258  10.415   4.918 -0.3210  0.3107 -0.2204
21983SOL    HW168328   1.340  10.366   4.919 -0.5143 -0.0183 -0.2097
21983SOL    HW268329   1.256  10.460   5.002 -0.2211  0.2048 -0.1613
21984SOL     OW68330   1.533   6.432   9.286 -0.1225  0.3179 -0.0039
21984SOL    HW168331   1.553   6.495   9.218 -1.4202  2.5007  1.4853
21984SOL    HW268332   1.580   6.464   9.363  0.0836 -1.1851  0.5238
21985SOL     OW68333  10.063   4.191  10.189 -0.0757  0.7671  0.2230
21985SOL    HW168334  10.050   4.249  10.264 -0.5381  1.7991 -0.6224
21985SOL    HW268335  10.126   4.238  10.134 -0.3190  0.3795 -0.3965
21986SOL     OW68336   1.926  10.060   4.148  0.1860  0.5562 -0.0853
21986SOL    HW168337   1.921  10.076   4.054 -4.3690  2.3233  0.1761
21986SOL    HW268338   1.955  10.144   4.185 -1.1046  0.9453  0.1278
21987SOL     OW68339   5.389   2.190   0.703 -0.4186 -0.1283  0.1169
21987SOL    HW168340   5.371   2.271   0.752  1.0222  0.4674 -0.2671
21987SOL    HW268341   5.318   2.185   0.640  0.0973  1.5295 -0.6671
21988SOL     OW68342  10.686   1.382   3.991 -0.2806 -1.1666 -0.4617
21988SOL    HW168343  10.777   1.381   4.021  0.0539 -0.9502 -1.4511
21988SOL    HW268344  10.687   1.330   3.911 -0.5111  0.9975 -1.9286
21989SOL     OW68345  10.268   1.703   9.778 -0.2440 -0.4384  0.2692
21989SOL    HW168346  10.312   1.618   9.787  1.5421  0.4321  0.0370
21989SOL    HW268347  10.183   1.690   9.821  0.4267 -2.0199  1.2046
21990SOL     OW68348   0.370   5.992   0.414 -0.3880 -0.1751  0.4243
21990SOL    HW168349   0.358   6.042   0.495  0.9556  0.5532  0.2159
21990SOL    HW268350   0.281   5.973   0.384 -0.9097 -0.2367  1.9216
21991SOL     OW68351   1.662   5.802   9.609 -0.1139 -0.3746 -0.6177
21991SOL    HW168352   1.668   5.725   9.553  1.2760 -1.0419  0.4111
21991SOL    HW268353   1.619   5.771   9.689 -1.1414  0.3366 -0.8624
21992SOL     OW68354   4.684   7.593   1.341 -0.2712  0.5944  0.4425
21992SOL    HW168355   4.626   7.586   1.265 -1.8741  2.3428  1.4029
21992SOL    HW268356   4.628   7.567   1.415  0.7387  0.5921  1.2249
21993SOL     OW68357   8.859   9.568   7.371  0.4812  0.2873  0.3990
21993SOL    HW168358   8.851   9.605   7.284 -1.0025  0.0556  0.4151
21993SOL    HW268359   8.942   9.520   7.369  0.4487  0.2487 -0.8947
21994SOL     OW68360   0.535   5.097   0.894 -0.0916 -0.6145 -0.4010
21994SOL    HW168361   0.452   5.069   0.855  0.6067 -0.9815 -1.6839
21994SOL    HW268362   0.520   5.092   0.988 -0.9858 -2.3398 -0.5963
21995SOL     OW68363   1.911   4.175   3.345 -0.1661 -0.1325 -0.4141
21995SOL    HW168364   1.893   4.172   3.439 -1.6044  0.2207 -0.6575
21995SOL    HW268365   1.993   4.225   3.337 -1.5185  2.4300  0.5048
21996SOL     OW68366   6.164   8.619   5.271 -0.0062 -0.0243  0.3381
21996SOL    HW168367   6.127   8.608   5.358  4.1925 -0.3300  2.3332
21996SOL    HW268368   6.153   8.534   5.229 -3.0925  0.4483 -0.0105
21997SOL     OW68369   8.888   1.776   0.413  0.1050 -0.0209  0.6275
21997SOL    HW168370   8.823   1.705   0.410 -0.2793  0.3192  0.8263
21997SOL    HW268371   8.963   1.737   0.458  0.6952 -0.9302 -1.0301
21998SOL     OW68372   6.429   6.966   1.282  0.3195  0.5406 -0.4186
21998SOL    HW168373   6.390   6.954   1.369 -0.4649  1.0409 -0.6894
21998SOL    HW268374   6.444   6.878   1.250  0.3003  0.3473  0.0920
21999SOL     OW68375   0.794   8.161   0.190  0.0356 -0.5875  0.0918
21999SOL    HW168376   0.859   8.095   0.165  2.0836  1.1493  0.5793
21999SOL    HW268377   0.800   8.228   0.122 -1.6832 -0.6260 -0.1468
22000SOL     OW68378   3.809   7.108   8.692 -0.4801 -0.4052  0.0996
22000SOL    HW168379   3.871   7.176   8.720 -0.1740 -0.8415  0.5052
22000SOL    HW268380   3.724   7.152   8.692 -0.0766  0.4357 -1.2929
22001SOL     OW68381   4.901   8.164  10.612  0.1634  0.3266 -0.2545
22001SOL    HW168382   4.921   8.248  10.572 -0.3208 -0.1583 -1.5657
22001SOL    HW268383   4.805   8.160  10.614  0.1578 -0.7857 -1.5580
22002SOL     OW68384   4.085   3.724   5.493  0.1008 -0.2742 -0.9586
22002SOL    HW168385   4.148   3.655   5.469  1.7882  0.8522  0.0373
22002SOL    HW268386   4.013   3.712   5.431  0.3821 -2.8309 -0.9341
22003SOL     OW68387   9.997   3.795   8.433  0.2005  0.2569 -0.4136
22003SOL    HW168388  10.058   3.740   8.481  2.7912  3.7608  0.7799
22003SOL    HW268389   9.959   3.853   8.500 -2.8872 -0.3524 -1.4672
22004SOL     OW68390   2.781   6.490   8.171 -0.0684  0.2218 -0.0329
22004SOL    HW168391   2.685   6.488   8.172 -0.0838  0.8126  1.6512
22004SOL    HW268392   2.806   6.531   8.253  1.6511  0.0637 -0.4293
22005SOL     OW68393  10.034   9.401   1.123  0.1995  0.3972 -0.3294
22005SOL    HW168394   9.991   9.452   1.192 -1.4926  1.2305 -1.9089
22005SOL    HW268395  10.058   9.466   1.056 -2.2719 -0.7615 -2.5300
22006SOL     OW68396   1.220   5.869   5.494 -0.4155 -0.2031  0.3175
22006SOL    HW168397   1.276   5.800   5.531 -0.4612  0.6443  2.0442
22006SOL    HW268398   1.176   5.826   5.420 -0.2186 -1.9378  1.1475
22007SOL     OW68399   5.118   4.568   0.975  0.5644 -0.1568  0.0812
22007SOL    HW168400   5.105   4.596   0.884 -0.1527 -2.3421 -0.5511
22007SOL    HW268401   5.171   4.637   1.014 -1.8093  2.5086 -1.0545
22008SOL     OW68402   2.235   0.444   4.134  0.2275  0.4256 -0.4229
22008SOL    HW168403   2.260   0.352   4.123 -0.1538  0.4998 -2.3549
22008SOL    HW268404   2.237   0.480   4.045  1.1476  2.5105  0.3633
22009SOL     OW68405   0.892   2.493   5.611  0.6346  0.7109 -0.1163
22009SOL    HW168406   0.798   2.498   5.627 -0.0818 -2.0424 -2.4731
22009SOL    HW268407   0.911   2.564   5.550 -0.1429  0.6332 -0.4506
22010SOL     OW68408   7.527   6.799   4.329  0.6150  0.0956  0.3294
22010SOL    HW168409   7.588   6.737   4.289 -0.0019 -1.0793  1.1329
22010SOL    HW268410   7.551   6.800   4.421  0.1800  0.5343  0.4387
22011SOL     OW68411   8.242   7.236   8.144  0.2362 -0.1853 -0.2418
22011SOL    HW168412   8.234   7.173   8.216 -0.2967 -0.1391 -0.2504
22011SOL    HW268413   8.303   7.196   8.083 -0.3925 -0.8802 -0.4362
22012SOL     OW68414   4.660   8.453   7.011 -0.6442 -0.2020 -0.0237
22012SOL    HW168415   4.596   8.385   7.033 -0.4311 -0.6222 -0.6873
22012SOL    HW268416   4.708   8.417   6.937 -1.1674  1.0918 -1.0135
22013SOL     OW68417   9.659   8.325   2.010 -0.1134  0.0258  0.3941
22013SOL    HW168418   9.656   8.296   1.919 -0.8532  0.9625  0.1029
22013SOL    HW268419   9.752   8.324   2.032 -0.0246 -1.4986  0.0690
22014SOL     OW68420   5.806   4.321   0.869  0.3415  0.3498 -0.2194
22014SOL    HW168421   5.736   4.325   0.934  0.3686 -0.0711 -0.1652
22014SOL    HW268422   5.768   4.275   0.795  1.0344 -1.3055  0.4146
22015SOL     OW68423   8.260   8.782   3.511 -0.4564 -1.0352  0.0225
22015SOL    HW168424   8.290   8.840   3.442 -1.8453  0.0155  0.2522
22015SOL    HW268425   8.294   8.696   3.487  3.2120  0.0890  0.6185
22016SOL     OW68426   6.995   6.601   7.432 -0.8451 -0.1371 -0.5073
22016SOL    HW168427   6.998   6.650   7.514 -1.5080  1.5588 -1.4595
22016SOL    HW268428   6.994   6.509   7.460  1.1147  0.3105  1.3022
22017SOL     OW68429   2.992   2.215   8.676 -0.6175 -0.4318 -0.0065
22017SOL    HW168430   2.987   2.144   8.611  0.0712  0.9222 -1.6168
22017SOL    HW268431   3.080   2.251   8.664 -0.6494  0.1493  1.3981
22018SOL     OW68432   4.221   7.902  10.434 -0.3421 -0.0194 -0.0761
22018SOL    HW168433   4.210   7.886  10.341  0.1672 -1.3555  0.0723
22018SOL    HW268434   4.286   7.972  10.440  0.7135 -0.9216 -0.7084
22019SOL     OW68435   2.088   2.321   0.346  0.5062  0.2104  0.1893
22019SOL    HW168436   2.103   2.326   0.252 -0.2083  3.6519  0.1330
22019SOL    HW268437   2.021   2.254   0.356 -1.2388  1.4750 -2.0855
22020SOL     OW68438   8.201  10.545   1.602 -0.5076 -0.2561 -0.3351
22020SOL    HW168439   8.241  10.538   1.515  2.6057  2.3730  0.6724
22020SOL    HW268440   8.253  10.486   1.657 -1.2825 -0.5528  0.0973
22021SOL     OW68441   3.446   0.363   6.393  1.2740  0.1301 -0.5722
22021SOL    HW168442   3.422   0.362   6.300  1.1594 -0.8173 -0.5435
22021SOL    HW268443   3.463   0.272   6.415 -1.7636 -0.1625  1.1121
22022SOL     OW68444   3.531   9.144   5.485  0.0604  0.2983 -0.0521
22022SOL    HW168445   3.624   9.143   5.508 -0.0124  0.4888  0.2660
22022SOL    HW268446   3.529   9.174   5.394  0.2881  0.7207  0.0772
22023SOL     OW68447   6.992   4.290   9.672  0.0715 -0.1321  0.2982
22023SOL    HW168448   6.940   4.362   9.707  0.5587  0.0392  0.6745
22023SOL    HW268449   7.072   4.331   9.639 -0.4559 -0.2652 -1.2042
22024SOL     OW68450   6.960   9.549   8.875  0.7078 -0.0857 -0.0124
22024SOL    HW168451   7.020   9.505   8.934  0.8883 -0.5413 -0.5275
22024SOL    HW268452   6.917   9.479   8.827 -0.7471  0.1957  0.8233
22025SOL     OW68453   6.027   8.081   9.054  0.2875  0.2203  0.4180
22025SOL    HW168454   6.110   8.104   9.013  0.4270 -1.8144 -0.5959
22025SOL    HW268455   6.052   8.037   9.136  0.3065 -1.4374 -0.4425
22026SOL     OW68456   4.773   4.054   0.287  0.1826  0.1867 -0.6670
22026SOL    HW168457   4.709   4.078   0.220  0.2242 -0.3420 -0.9020
22026SOL    HW268458   4.858   4.075   0.249  0.1001  2.2958  0.2251
22027SOL     OW68459   1.342   5.736   5.927 -0.3104 -0.1086 -0.5810
22027SOL    HW168460   1.438   5.734   5.931 -0.3251 -0.2003 -0.2617
22027SOL    HW268461   1.317   5.809   5.983 -0.4810 -0.8770  0.3762
22028SOL     OW68462  10.142   1.759   4.129 -0.1657  0.0526  0.5476
22028SOL    HW168463  10.122   1.679   4.079 -1.2556  1.0361 -0.6539
22028SOL    HW268464  10.143   1.730   4.220 -0.7557 -1.2991  0.1549
22029SOL     OW68465   6.872   9.662   4.107  0.1616  0.3930  0.1325
22029SOL    HW168466   6.848   9.572   4.129  1.5857 -0.1159 -0.2745
22029SOL    HW268467   6.810   9.686   4.038 -0.7065 -0.0062  0.7594
22030SOL     OW68468   4.919  10.775   9.363  0.0875  0.0825  0.0489
22030SOL    HW168469   4.931  10.855   9.312 -0.2472 -0.2557 -0.5733
22030SOL    HW268470   4.884  10.805   9.446 -0.9709  0.5080 -0.5358
22031SOL     OW68471   5.492   5.215   4.935  0.4055  0.1969 -0.9332
22031SOL    HW168472   5.469   5.291   4.882 -0.2855  1.2973  0.8763
22031SOL    HW268473   5.408   5.177   4.961  0.7176 -0.0273 -0.2157
22032SOL     OW68474   7.823   6.297   9.202 -0.0041 -0.4127  0.2344
22032SOL    HW168475   7.824   6.241   9.280 -3.1671 -0.8278  0.1402
22032SOL    HW268476   7.781   6.378   9.232  0.4205  0.1278 -0.6275
22033SOL     OW68477   0.270   9.367   0.242 -0.4990  0.0291 -0.3445
22033SOL    HW168478   0.234   9.450   0.273  0.4221 -0.3174  1.8577
22033SOL    HW268479   0.364   9.376   0.256 -0.3422 -1.1877 -0.5644
22034SOL     OW68480   4.026   7.655   9.254  0.1397 -0.2281  0.4468
22034SOL    HW168481   3.995   7.660   9.344  0.5173 -0.5782  0.5982
22034SOL    HW268482   4.118   7.684   9.258  0.2210 -0.4478  0.2099
22035SOL     OW68483   8.956   9.318   2.137 -0.4634  0.1475 -0.3066
22035SOL    HW168484   8.975   9.392   2.194 -0.9435  0.2223 -0.2428
22035SOL    HW268485   9.041   9.294   2.100 -0.3423  0.8838 -0.5183
22036SOL     OW68486   9.823   9.872   0.061 -0.2866  0.4433  0.3736
22036SOL    HW168487   9.909   9.895   0.096  0.6812 -1.9371 -0.2724
22036SOL    HW268488   9.771   9.849   0.137  0.8094 -1.5940  0.5673
22037SOL     OW68489   8.718   4.442   9.397 -0.2673 -0.0939  0.1553
22037SOL    HW168490   8.647   4.413   9.341 -0.3056  0.8534 -0.3139
22037SOL    HW268491   8.797   4.405   9.358 -0.3666 -0.0090 -0.1305
22038SOL     OW68492   9.419   6.665   8.621 -0.1242 -0.2294 -0.1454
22038SOL    HW168493   9.365   6.639   8.696  0.4903  0.4594  0.5511
22038SOL    HW268494   9.441   6.757   8.637 -1.2217  0.3817 -1.9443
22039SOL     OW68495   0.999   6.216   2.330 -0.1942  0.1205 -0.4200
22039SOL    HW168496   1.054   6.193   2.255  1.0665  0.2557  0.4276
22039SOL    HW268497   1.059   6.212   2.405 -1.1721  1.0296  0.4304
22040SOL     OW68498   1.045   9.853   0.746 -0.5827 -0.3192 -0.0148
22040SOL    HW168499   1.034   9.895   0.660 -1.8652  1.8585  1.1232
22040SOL    HW268500   0.960   9.811   0.762 -0.5931 -0.0929  0.5079
22041SOL     OW68501   5.755   4.803   1.231  0.3448 -0.1128 -0.2273
22041SOL    HW168502   5.718   4.870   1.174  0.6791 -0.4324 -0.8282
22041SOL    HW268503   5.784   4.734   1.172 -1.3033 -1.4784  0.4599
22042SOL     OW68504   6.539   1.805   7.291  0.0753 -0.3804  0.1094
22042SOL    HW168505   6.597   1.832   7.362 -0.5645  0.5089  0.3205
22042SOL    HW268506   6.479   1.743   7.332 -1.1128  1.1042  0.7041
22043SOL     OW68507   8.793   5.363   6.097  0.3941 -0.2244  0.6215
22043SOL    HW168508   8.716   5.356   6.153  0.3155 -0.4572  0.4827
22043SOL    HW268509   8.761   5.345   6.009  0.6567 -0.5957  0.5979
22044SOL     OW68510   9.021   2.175   9.900 -0.2517  0.4015 -0.5118
22044SOL    HW168511   8.993   2.266   9.917 -0.4505  0.3127 -0.3512
22044SOL    HW268512   8.987   2.126   9.975  0.3107  0.2820 -0.3344
22045SOL     OW68513   6.976   8.776   7.419  0.1885 -0.1768 -0.7910
22045SOL    HW168514   6.888   8.810   7.401  0.2528  0.0443 -0.6955
22045SOL    HW268515   6.977   8.690   7.377 -0.1902 -0.3302 -0.4939
22046SOL     OW68516   9.151   8.113   0.661  0.3513 -0.8943 -0.3451
22046SOL    HW168517   9.218   8.115   0.730  1.1373 -1.0766 -1.0971
22046SOL    HW268518   9.071   8.142   0.706  1.7293  3.7176 -0.3387
22047SOL     OW68519   9.003   3.877   3.508 -0.0251  0.2541  0.1025
22047SOL    HW168520   9.016   3.873   3.603 -0.6484 -0.7787  0.1583
22047SOL    HW268521   9.069   3.817   3.472  0.1408  0.5647 -0.1150
22048SOL     OW68522   7.552   2.446   5.664 -0.6057  0.2505 -0.0796
22048SOL    HW168523   7.645   2.458   5.681 -0.7353 -0.8685  1.7766
22048SOL    HW268524   7.548   2.383   5.592  0.1190 -0.8353  0.7942
22049SOL     OW68525   4.908   2.936   3.648  0.1548 -0.2050  0.5427
22049SOL    HW168526   4.857   3.005   3.606 -0.3053 -0.5797  0.4776
22049SOL    HW268527   4.915   2.963   3.740 -0.2533 -0.1997  0.5752
22050SOL     OW68528   4.798   6.116   9.580  0.4858 -0.6860 -0.2579
22050SOL    HW168529   4.818   6.186   9.517 -1.6602 -1.5434 -2.0481
22050SOL    HW268530   4.860   6.047   9.559  2.3726  0.4482  1.2753
22051SOL     OW68531   2.961   2.081   1.369 -0.1125  0.4575 -0.1805
22051SOL    HW168532   2.988   2.135   1.443 -1.0832  0.9176 -0.1393
22051SOL    HW268533   2.990   1.993   1.390  0.3813  0.7407  0.3405
22052SOL     OW68534   6.773   4.805   2.958  0.1804  0.1545 -0.0466
22052SOL    HW168535   6.720   4.864   3.012 -0.4358 -1.0710  0.7372
22052SOL    HW268536   6.862   4.838   2.966 -0.1697  1.0838  0.2093
22053SOL     OW68537   5.704   7.649   4.018  0.2710 -0.5658 -0.1162
22053SOL    HW168538   5.728   7.705   4.093  1.3966  0.4512 -1.1905
22053SOL    HW268539   5.682   7.565   4.058 -3.5060  1.0970  1.7804
22054SOL     OW68540   7.598   0.435   1.131 -0.2185  0.1058  0.5728
22054SOL    HW168541   7.667   0.403   1.073 -0.9127 -0.0599 -0.1862
22054SOL    HW268542   7.576   0.360   1.186  0.8506  0.4315  1.4857
22055SOL     OW68543   1.601   3.413  10.242 -0.2317 -0.0935  0.2948
22055SOL    HW168544   1.587   3.319  10.231 -0.5018 -0.0938  0.6074
22055SOL    HW268545   1.560   3.433  10.326 -1.1070  0.4951 -0.2516
22056SOL     OW68546   9.286   1.649   2.059  0.1002  0.2798 -0.1862
22056SOL    HW168547   9.223   1.676   1.992 -0.4388 -0.4323  0.0236
22056SOL    HW268548   9.325   1.731   2.089 -2.3718  1.0386  1.3068
22057SOL     OW68549   9.401   8.944   4.234  0.0856 -0.2151 -0.0258
22057SOL    HW168550   9.449   9.027   4.239  0.3415 -0.4372  2.5689
22057SOL    HW268551   9.466   8.877   4.253  0.2392 -1.2853 -3.6158
22058SOL     OW68552   7.569   5.467   7.372  0.1034  0.0271  0.8823
22058SOL    HW168553   7.580   5.451   7.465  0.7878  0.8827  0.9738
22058SOL    HW268554   7.525   5.552   7.367  0.9007  0.4393  0.4482
22059SOL     OW68555   9.404   8.856   7.418 -0.7192 -0.2446 -0.1977
22059SOL    HW168556   9.444   8.941   7.396 -1.0785  0.4261  1.5789
22059SOL    HW268557   9.323   8.854   7.367 -0.9196  0.6881  0.0637
22060SOL     OW68558   3.277   6.683   7.065 -0.2703  0.2425  0.0611
22060SOL    HW168559   3.248   6.591   7.061 -2.3994  0.8609  0.1104
22060SOL    HW268560   3.280   6.711   6.973 -0.1964  0.2932  0.0792
22061SOL     OW68561   3.762  10.799   7.568 -0.2026  0.5174 -0.3135
22061SOL    HW168562   3.787  10.891   7.556  0.1630  0.8043  2.0053
22061SOL    HW268563   3.666  10.801   7.567 -0.3214  0.1931 -4.3070
22062SOL     OW68564   4.584   7.375   4.380 -0.2252 -0.1061 -0.2382
22062SOL    HW168565   4.656   7.437   4.371  1.0672 -1.6253 -0.8076
22062SOL    HW268566   4.566   7.372   4.474  0.0387  0.7228 -0.1535
22063SOL     OW68567   9.689   0.492   8.404 -0.0813 -0.0849  0.1811
22063SOL    HW168568   9.610   0.536   8.434 -0.6594  0.2647 -1.6847
22063SOL    HW268569   9.731   0.556   8.346 -0.0212 -1.3194 -1.2133
22064SOL     OW68570   1.011   7.860   5.657 -0.0107  0.2855 -0.4600
22064SOL    HW168571   1.104   7.858   5.635 -0.0924  1.5694 -1.0156
22064SOL    HW268572   1.000   7.789   5.721  1.8681  1.8052  1.7020
22065SOL     OW68573  10.029  10.413   7.086  0.5803  0.0303 -0.0289
22065SOL    HW168574   9.956  10.357   7.109  1.4604 -1.4465 -0.7054
22065SOL    HW268575  10.044  10.467   7.164 -0.5743 -0.3512  0.4652
22066SOL     OW68576  10.754   9.962   6.545  0.3530  0.1545  0.5104
22066SOL    HW168577  10.839   9.937   6.580 -1.1239 -0.8475  3.8358
22066SOL    HW268578  10.735   9.897   6.478  1.4554 -0.7184  1.0174
22067SOL     OW68579   5.348   5.730   9.036  0.6097  0.4986 -0.6105
22067SOL    HW168580   5.388   5.673   9.101  1.7236  1.6661 -0.2326
22067SOL    HW268581   5.254   5.729   9.058  0.8381  0.0993  0.3925
22068SOL     OW68582  10.524   2.870   8.475  0.7798  0.0490  0.3324
22068SOL    HW168583  10.557   2.844   8.389 -3.2780 -0.8482 -1.2134
22068SOL    HW268584  10.562   2.807   8.536  0.0152 -2.5128 -1.6472
22069SOL     OW68585   9.773   8.530   4.326  0.2686  0.8861  0.0264
22069SOL    HW168586   9.844   8.489   4.375  0.3454  0.5835 -0.3340
22069SOL    HW268587   9.816   8.594   4.270  0.2929  0.4759 -0.4279
22070SOL     OW68588   0.880   5.576   6.460 -0.0008  0.0610 -0.5882
22070SOL    HW168589   0.920   5.587   6.546 -0.1907  3.0842 -0.7847
22070SOL    HW268590   0.952   5.586   6.398 -0.4088  1.9815 -0.8309
22071SOL     OW68591   2.271   3.587  10.208 -0.5594 -0.5151  0.0977
22071SOL    HW168592   2.355   3.543  10.222  0.0303  0.7691  0.8286
22071SOL    HW268593   2.257   3.638  10.288 -1.6629 -0.1191 -0.3334
22072SOL     OW68594   9.249   5.726   1.646 -0.4862  0.1241  0.5627
22072SOL    HW168595   9.164   5.715   1.688  0.3102  1.6248  2.7430
22072SOL    HW268596   9.312   5.715   1.717  1.0300  1.0233 -0.5942
22073SOL     OW68597  10.468   8.444   0.377 -0.1205  0.0722  0.0936
22073SOL    HW168598  10.404   8.503   0.337 -0.1651  0.3788  0.6170
22073SOL    HW268599  10.541   8.443   0.314 -0.8826 -0.7598 -0.8044
22074SOL     OW68600   0.199   5.183   4.401  0.3049 -0.2462  0.0529
22074SOL    HW168601   0.255   5.141   4.466  1.7195  1.0066 -0.3237
22074SOL    HW268602   0.138   5.114   4.374  0.0688 -0.9648  2.2263
22075SOL     OW68603   2.879   9.747   8.670 -0.0909  0.4983  0.1285
22075SOL    HW168604   2.846   9.738   8.580  0.2315 -0.7750  0.1286
22075SOL    HW268605   2.817   9.697   8.723  0.1993  0.5320  0.5031
22076SOL     OW68606   1.258   0.430   9.087  0.6145 -0.2711  0.0161
22076SOL    HW168607   1.185   0.478   9.048  0.5858 -1.7163 -1.8966
22076SOL    HW268608   1.333   0.488   9.077  0.0925  0.4422  0.1958
22077SOL     OW68609   7.181   5.617   2.031 -0.7223 -0.1666 -0.4228
22077SOL    HW168610   7.217   5.563   2.102  0.5632  0.5448 -0.4919
22077SOL    HW268611   7.090   5.590   2.024 -0.3899 -1.5805  0.2435
22078SOL     OW68612   4.380   8.945   1.436  0.2447 -0.2469  0.0574
22078SOL    HW168613   4.302   8.941   1.493 -0.3701 -0.2277 -0.7604
22078SOL    HW268614   4.453   8.953   1.497 -0.4176  0.0927  0.8397
22079SOL     OW68615  10.461   8.062   0.742 -0.3888  0.0298 -0.3178
22079SOL    HW168616  10.451   8.157   0.739 -0.4979  0.0415  0.2032
22079SOL    HW268617  10.513   8.040   0.665  0.7931  0.6698  0.2652
22080SOL     OW68618   8.717   9.584   2.086  0.6264  0.0338 -0.0900
22080SOL    HW168619   8.652   9.646   2.052  3.1709  2.1673 -1.4849
22080SOL    HW268620   8.716   9.597   2.181 -1.8848 -1.0346  0.0869
22081SOL     OW68621   7.613   1.490   7.272  0.1822 -0.5277  0.0155
22081SOL    HW168622   7.605   1.396   7.255 -1.5738 -0.5901  0.9924
22081SOL    HW268623   7.678   1.496   7.343  0.0917 -1.0243  0.1429
22082SOL     OW68624   6.847   5.009   5.878 -0.7424 -0.2228  0.1858
22082SOL    HW168625   6.937   4.997   5.848 -0.9966  1.0006 -1.1685
22082SOL    HW268626   6.804   4.926   5.861 -0.3099 -0.2494 -0.8262
22083SOL     OW68627   1.807   9.320   7.125 -0.0464 -0.0422  0.3226
22083SOL    HW168628   1.819   9.251   7.061  0.2436  0.2565  0.0531
22083SOL    HW268629   1.875   9.385   7.105  0.4199 -0.2070  1.2885
22084SOL     OW68630   3.226   2.428   4.513  0.2360  0.4481  0.1852
22084SOL    HW168631   3.252   2.342   4.547 -0.4675 -0.1755 -0.7783
22084SOL    HW268632   3.304   2.463   4.471  0.7482  0.6509  1.2732
22085SOL     OW68633   9.295   1.401   6.421  0.5498  0.0905 -0.0544
22085SOL    HW168634   9.263   1.420   6.509 -2.6208 -3.2967 -0.2815
22085SOL    HW268635   9.236   1.449   6.363 -1.2501 -2.2869 -0.3442
22086SOL     OW68636   4.804   2.699   4.154 -0.5803 -0.4239  0.1714
22086SOL    HW168637   4.765   2.678   4.068 -0.7806 -0.3952  0.2549
22086SOL    HW268638   4.886   2.744   4.132 -0.6981 -0.2913 -0.0060
22087SOL     OW68639   9.416   2.986   4.824  0.1353  0.1453 -0.3773
22087SOL    HW168640   9.390   2.966   4.734  1.8111  0.4503 -0.9683
22087SOL    HW268641   9.451   2.904   4.858 -2.5022 -0.5886  0.8251
22088SOL     OW68642   8.333   7.134   5.894 -0.1540  0.2511 -0.8192
22088SOL    HW168643   8.296   7.086   5.820 -0.8008  0.9117 -0.9338
22088SOL    HW268644   8.282   7.214   5.899 -0.8503 -0.2448  0.9925
22089SOL     OW68645   6.240   4.165   4.601 -1.1644 -0.1194  0.6505
22089SOL    HW168646   6.264   4.200   4.687  1.3338  0.5898 -0.2274
22089SOL    HW268647   6.192   4.235   4.559 -0.2047  0.5235  0.5881
22090SOL     OW68648   9.686  10.160   8.138 -0.0244 -0.3811  0.3441
22090SOL    HW168649   9.635  10.193   8.064  1.4863 -0.3711 -0.7345
22090SOL    HW268650   9.698  10.067   8.119  2.8968  0.1905 -1.0412
22091SOL     OW68651   4.521   8.348   0.567  0.2808  0.8332 -0.0194
22091SOL    HW168652   4.528   8.330   0.473 -0.1665  0.3600  0.0378
22091SOL    HW268653   4.611   8.359   0.596  0.5290 -0.6360 -0.1881
22092SOL     OW68654   8.150   1.019   3.486  0.0062  0.0608 -0.2275
22092SOL    HW168655   8.081   1.065   3.534 -0.2554  1.3689 -1.7856
22092SOL    HW268656   8.231   1.038   3.535 -0.3668  0.6602  0.1571
22093SOL     OW68657   4.442   7.192   1.234 -0.1898  0.0407 -0.3290
22093SOL    HW168658   4.367   7.146   1.272  0.3265 -0.4060  0.1692
22093SOL    HW268659   4.406   7.237   1.157 -1.4188  1.6264  1.1155
22094SOL     OW68660   2.277   2.657   6.318  0.4758  0.0808  0.3300
22094SOL    HW168661   2.222   2.608   6.256  0.2497 -0.6385  1.0808
22094SOL    HW268662   2.239   2.745   6.319 -1.1916 -0.5943  1.4124
22095SOL     OW68663   3.308   0.939  10.219 -0.5455 -0.0862  0.1736
22095SOL    HW168664   3.336   0.900  10.302  1.3962 -0.3486 -0.5380
22095SOL    HW268665   3.336   0.877  10.153 -0.6760  0.8333 -0.7711
22096SOL     OW68666   0.221   2.011   4.638  0.3351 -0.0042  0.1716
22096SOL    HW168667   0.138   1.968   4.662  0.4259  0.0328  0.5544
22096SOL    HW268668   0.195   2.086   4.585  0.1788 -0.6070 -0.6272
22097SOL     OW68669   4.690  10.269  10.226 -0.2913  0.2492 -0.0972
22097SOL    HW168670   4.695  10.362  10.202 -0.5558  0.6780  1.3756
22097SOL    HW268671   4.664  10.270  10.318 -1.8720 -1.3257 -0.4712
22098SOL     OW68672   5.849   9.481  10.768  0.4909  0.3685 -0.3655
22098SOL    HW168673   5.927   9.490  10.822  1.0453 -0.7421 -0.9591
22098SOL    HW268674   5.833   9.386  10.763 -0.3298  0.5244 -1.0412
22099SOL     OW68675   1.601   2.621   1.010 -0.4057 -0.4943  0.0065
22099SOL    HW168676   1.638   2.615   1.098  0.3321  0.1378 -0.2556
22099SOL    HW268677   1.607   2.714   0.988 -0.2258 -0.7077 -0.8653
22100SOL     OW68678   4.558   9.616   2.131 -0.2340  0.0734  0.3659
22100SOL    HW168679   4.499   9.554   2.175 -0.1162 -1.1753 -1.1390
22100SOL    HW268680   4.506   9.653   2.060  0.3675 -0.0062 -0.1259
22101SOL     OW68681   7.239   3.730   3.364  0.4512  0.3209 -0.1167
22101SOL    HW168682   7.231   3.637   3.342  1.9948  0.7010 -2.6883
22101SOL    HW268683   7.192   3.739   3.447  0.9566 -2.8967  0.6533
22102SOL     OW68684   7.627  10.430   7.145  0.1755  0.3516  0.1688
22102SOL    HW168685   7.575  10.350   7.144  2.1163 -1.0039  0.6134
22102SOL    HW268686   7.653  10.441   7.236  0.1677  1.3594  0.0677
22103SOL     OW68687   2.237   8.361   0.546 -0.8971 -0.6242 -0.5730
22103SOL    HW168688   2.261   8.283   0.496 -1.3142  0.2396 -2.1962
22103SOL    HW268689   2.213   8.426   0.480  2.2189  1.9115  0.5372
22104SOL     OW68690   2.379   1.992   2.506 -0.3004  0.6075 -0.3001
22104SOL    HW168691   2.428   1.973   2.426 -1.2573 -0.0516 -0.7531
22104SOL    HW268692   2.392   1.915   2.561 -1.4116  0.0979 -0.7291
22105SOL     OW68693   0.301   9.321   4.947 -0.5725  0.5705 -0.2768
22105SOL    HW168694   0.260   9.403   4.972 -1.9394 -0.1634 -0.0130
22105SOL    HW268695   0.384   9.346   4.907 -1.4213  2.1316 -1.1191
22106SOL     OW68696   3.485   3.798   1.986  0.7425  0.2969 -0.3347
22106SOL    HW168697   3.403   3.843   2.003  0.3918  0.7372 -2.8207
22106SOL    HW268698   3.460   3.707   1.969  1.1100 -0.1991  1.5746
22107SOL     OW68699   6.718   0.865   8.905 -0.0696  0.0162 -0.3161
22107SOL    HW168700   6.714   0.808   8.829  1.4812  0.1574 -0.5390
22107SOL    HW268701   6.632   0.857   8.946  0.3664 -3.1806  0.1883
22108SOL     OW68702   3.322   0.948   4.159 -0.1964 -0.3071  0.1324
22108SOL    HW168703   3.313   1.029   4.109 -0.0105 -0.4191 -0.0869
22108SOL    HW268704   3.366   0.888   4.098 -0.4462 -0.6095  0.2493
22109SOL     OW68705   5.417  10.477   6.410 -0.0467 -0.0450  0.1341
22109SOL    HW168706   5.479  10.452   6.341 -0.4195 -1.6134  0.3421
22109SOL    HW268707   5.346  10.520   6.364 -0.1069 -0.7309 -0.4331
22110SOL     OW68708  10.520   2.446   4.290  0.4431  0.4144 -0.4715
22110SOL    HW168709  10.438   2.466   4.245 -0.1988 -0.7952  0.1049
22110SOL    HW268710  10.586   2.447   4.221  0.2201  2.7758 -0.7365
22111SOL     OW68711   9.895   0.628   3.835 -0.4444 -0.1762  0.2791
22111SOL    HW168712   9.932   0.715   3.816 -1.0301 -0.2562 -1.4384
22111SOL    HW268713   9.967   0.567   3.819 -0.2254 -0.0707  0.8245
22112SOL     OW68714   9.070   9.319   8.595  1.2036 -0.0564  0.1197
22112SOL    HW168715   9.042   9.381   8.528 -0.7937  0.2007  1.1239
22112SOL    HW268716   9.046   9.233   8.559  0.3843  0.0617  0.3666
22113SOL     OW68717   6.386   9.205   0.619 -0.5792 -0.0722  0.0422
22113SOL    HW168718   6.425   9.250   0.694 -0.3172 -0.2578  0.0173
22113SOL    HW268719   6.317   9.265   0.589 -1.8283 -0.7417  1.4625
22114SOL     OW68720   3.122   9.177   8.361 -0.7935  0.1269 -0.1424
22114SOL    HW168721   3.193   9.241   8.364 -1.0441  0.5089 -1.5292
22114SOL    HW268722   3.161   9.102   8.316 -0.7764 -0.3372  0.6359
22115SOL     OW68723   9.673   5.514   5.142  0.0073  0.0587  0.3477
22115SOL    HW168724   9.738   5.582   5.125  1.0868 -0.7823  0.9557
22115SOL    HW268725   9.594   5.562   5.165  0.3349  1.1141 -0.6331
22116SOL     OW68726  10.561   1.574   5.752 -0.1323  0.1699 -0.7909
22116SOL    HW168727  10.595   1.500   5.701 -1.6941  0.3163 -2.1152
22116SOL    HW268728  10.497   1.535   5.811 -0.1063  0.3239 -0.6604
22117SOL     OW68729   3.293   6.630   7.638  0.2583 -0.0879  0.2617
22117SOL    HW168730   3.383   6.657   7.656  0.2622 -0.0831  0.2340
22117SOL    HW268731   3.301   6.543   7.600  0.1663 -0.7896  1.7853
22118SOL     OW68732   7.701   0.818   2.036  0.4128  0.6543  0.0842
22118SOL    HW168733   7.668   0.790   2.122  0.2165  0.4222 -0.0654
22118SOL    HW268734   7.763   0.750   2.011  1.1843  1.1965  0.4608
22119SOL     OW68735   4.617   6.538   4.394 -0.0132  0.1813  0.0107
22119SOL    HW168736   4.651   6.626   4.378  1.7718 -0.5072 -0.2083
22119SOL    HW268737   4.564   6.547   4.473 -1.5605  1.8309 -1.1334
22120SOL     OW68738   1.523   4.272   4.764 -0.1720  0.3744  0.1467
22120SOL    HW168739   1.581   4.248   4.691 -0.7030  1.0115 -0.5063
22120SOL    HW268740   1.437   4.280   4.723 -1.3794 -3.3277  1.5461
22121SOL     OW68741   0.911   1.435   1.681  0.1345 -0.4806 -0.5330
22121SOL    HW168742   0.874   1.358   1.725  1.8093 -1.4140 -0.6581
22121SOL    HW268743   0.954   1.399   1.604  0.0772  0.7284 -1.1425
22122SOL     OW68744  10.746   3.056  10.395 -0.0439  0.4518 -0.3199
22122SOL    HW168745  10.698   2.989  10.445  1.2667  0.7724  1.4701
22122SOL    HW268746  10.838   3.034  10.408  0.3695  1.7624 -0.9145
22123SOL     OW68747   4.370   4.360   3.299 -0.2773 -0.4527  0.0567
22123SOL    HW168748   4.283   4.351   3.262 -0.3480 -0.2355  0.1720
22123SOL    HW268749   4.382   4.454   3.313 -0.9826 -0.6362  2.2990
22124SOL     OW68750   6.140   1.712   6.570 -0.0958 -0.0256 -0.4336
22124SOL    HW168751   6.102   1.638   6.617 -0.9854  1.6029  1.6222
22124SOL    HW268752   6.064   1.763   6.541  0.5023  0.2756 -1.5277
22125SOL     OW68753   8.344   5.164   3.264  0.0846  0.2231  0.5069
22125SOL    HW168754   8.265   5.203   3.226  0.2256  0.8546  0.8512
22125SOL    HW268755   8.311   5.103   3.331 -0.1580 -0.7493 -0.4667
22126SOL     OW68756   5.190   0.695   0.620  0.4454 -0.0177  0.0726
22126SOL    HW168757   5.213   0.786   0.601 -0.4492  0.8143  2.5387
22126SOL    HW268758   5.118   0.675   0.561  0.2283  1.1155 -0.0606
22127SOL     OW68759   5.765   1.999   3.068  0.6249 -0.5541 -0.5430
22127SOL    HW168760   5.806   2.023   3.151 -0.6036  3.1190 -0.8436
22127SOL    HW268761   5.679   1.966   3.093  0.6425 -0.4178 -0.2958
22128SOL     OW68762   7.294   2.542   6.835 -0.1071 -0.4765  0.3449
22128SOL    HW168763   7.282   2.565   6.928 -0.5535  1.3135 -0.1133
22128SOL    HW268764   7.205   2.523   6.805  0.0950 -1.5004  0.3794
22129SOL     OW68765   9.612   6.740   7.990 -0.4207  0.3536  0.0084
22129SOL    HW168766   9.598   6.688   8.069  0.4585  0.0601 -0.0125
22129SOL    HW268767   9.571   6.824   8.009  0.6053  0.6159  1.1641
22130SOL     OW68768   0.058   9.729   9.347  0.1255 -0.2248 -0.1374
22130SOL    HW168769   0.150   9.756   9.351 -0.0031  0.0859  1.2251
22130SOL    HW268770   0.033   9.717   9.439 -1.2461 -0.1291 -0.4840
22131SOL     OW68771   2.975   9.245   7.094 -0.0061 -0.5903 -0.2040
22131SOL    HW168772   3.066   9.257   7.123  0.4563 -0.5593 -1.6229
22131SOL    HW268773   2.980   9.239   6.999 -1.3431 -2.0407 -0.2203
22132SOL     OW68774   0.379   5.974   8.199 -0.2504 -0.0483  0.3104
22132SOL    HW168775   0.346   5.887   8.220  0.2447 -0.0381  1.1703
22132SOL    HW268776   0.473   5.963   8.189 -0.1659  0.4148  0.5757
22133SOL     OW68777   1.477   2.994   1.679  0.4456 -0.6438 -0.0422
22133SOL    HW168778   1.429   3.073   1.702  1.0297 -0.2001 -0.3262
22133SOL    HW268779   1.558   2.999   1.731  1.0282 -0.4458 -0.9527
22134SOL     OW68780   0.390   4.885   1.688 -0.0273  0.0713  0.7965
22134SOL    HW168781   0.350   4.926   1.765 -1.2861 -1.4045  0.9467
22134SOL    HW268782   0.414   4.797   1.717 -1.2262 -0.7896 -0.6835
22135SOL     OW68783   3.101   8.330  10.274  0.2262 -0.0368  0.0144
22135SOL    HW168784   3.137   8.393  10.337 -1.3821  0.9436  0.0218
22135SOL    HW268785   3.031   8.286  10.321  0.0486 -0.4278 -0.6003
22136SOL     OW68786   3.659   7.062   1.655  0.1030  0.1491  0.6217
22136SOL    HW168787   3.607   7.024   1.584  0.1339 -0.9510  1.1649
22136SOL    HW268788   3.602   7.127   1.695 -0.1700  0.2723  0.0313
22137SOL     OW68789   1.507   7.148   1.163 -0.3276 -0.3651 -0.0236
22137SOL    HW168790   1.441   7.086   1.133 -2.4047  0.5407  2.3015
22137SOL    HW268791   1.456   7.221   1.199  2.0006  2.0704 -1.3499
22138SOL     OW68792   4.385   2.719   4.029  0.6673 -0.2063 -0.1588
22138SOL    HW168793   4.382   2.633   3.985 -0.1413  0.5270 -1.6093
22138SOL    HW268794   4.411   2.699   4.119  0.6191 -1.9644 -0.4998
22139SOL     OW68795   5.087   9.825   8.051  0.4740  0.0396 -0.1175
22139SOL    HW168796   5.180   9.840   8.035  0.4125  0.0766 -0.4658
22139SOL    HW268797   5.075   9.731   8.040  0.9001 -0.3367  2.2840
22140SOL     OW68798   9.924   9.524   5.263  0.0943  0.4035 -0.3281
22140SOL    HW168799   9.872   9.511   5.184  0.3079 -0.0323 -0.3974
22140SOL    HW268800  10.014   9.534   5.231  0.3831 -1.1528 -0.0547
22141SOL     OW68801   3.837   4.888   0.151  0.2934  0.0938  0.4713
22141SOL    HW168802   3.909   4.946   0.177  1.1404 -1.4781  1.7440
22141SOL    HW268803   3.864   4.801   0.179 -1.5479 -0.7490 -0.2051
22142SOL     OW68804   1.925   4.213   2.568 -0.5830 -0.1177 -0.0985
22142SOL    HW168805   1.907   4.123   2.596 -1.9144  0.1954  0.1206
22142SOL    HW268806   2.014   4.231   2.600 -0.2158 -1.4208 -0.3358
22143SOL     OW68807   4.138   6.402   9.401 -0.6904  0.2664  0.2403
22143SOL    HW168808   4.098   6.462   9.338 -3.8227 -1.3911  0.4573
22143SOL    HW268809   4.131   6.316   9.360 -0.7150 -0.5685  1.9044
22144SOL     OW68810   4.063   4.915   3.710  0.3615 -0.4956 -0.1992
22144SOL    HW168811   4.079   4.901   3.617 -1.3386  0.1273 -0.6080
22144SOL    HW268812   4.075   5.009   3.723 -1.4495 -0.2290 -0.2485
22145SOL     OW68813   1.046  10.580   8.796 -1.1700 -0.5257  0.3748
22145SOL    HW168814   1.040  10.500   8.850 -2.2412  0.5997  2.0099
22145SOL    HW268815   1.077  10.647   8.856 -2.2385  0.7495 -0.4544
22146SOL     OW68816   6.365   8.219   5.034  0.2992  0.2495  0.3304
22146SOL    HW168817   6.360   8.226   5.129 -0.4013 -2.2243  0.5495
22146SOL    HW268818   6.293   8.161   5.010  1.6253 -0.7437 -1.4770
22147SOL     OW68819   6.789   7.175   4.762  0.8517 -0.9634 -0.0619
22147SOL    HW168820   6.735   7.108   4.803  0.3090 -0.4561  0.0822
22147SOL    HW268821   6.781   7.251   4.820 -1.8135  0.5585 -2.1662
22148SOL     OW68822  10.376   4.819   6.849 -0.9685  0.1091  0.3859
22148SOL    HW168823  10.456   4.866   6.825  0.6688 -2.5289  0.2721
22148SOL    HW268824  10.314   4.838   6.778  0.3962  0.2777 -0.7961
22149SOL     OW68825   1.633   3.656   6.338  0.0227 -0.6095 -0.0975
22149SOL    HW168826   1.607   3.748   6.340  1.4634 -0.1327 -1.5694
22149SOL    HW268827   1.629   3.628   6.430  0.0127  1.0546  0.4346
22150SOL     OW68828   1.828   5.986   7.668 -0.4062  0.2364 -0.5125
22150SOL    HW168829   1.736   6.004   7.686 -0.1501  0.7898  0.3248
22150SOL    HW268830   1.850   5.913   7.727 -0.2512  0.2569 -0.5446
22151SOL     OW68831   5.487   3.241   9.314 -0.3540  0.1695  0.0548
22151SOL    HW168832   5.504   3.206   9.401 -0.4656 -1.9717 -0.7121
22151SOL    HW268833   5.553   3.199   9.258 -1.3067  0.2133 -1.1421
22152SOL     OW68834   7.178   0.584   6.264 -1.5604 -0.3734  0.1493
22152SOL    HW168835   7.113   0.648   6.292  0.6935  2.1550  0.0326
22152SOL    HW268836   7.233   0.570   6.341 -1.2705 -1.1568 -0.1929
22153SOL     OW68837   9.648   0.527   0.526 -0.1654 -0.3415  0.2348
22153SOL    HW168838   9.645   0.529   0.621 -0.7167  0.6913  0.2086
22153SOL    HW268839   9.658   0.434   0.504 -0.2394 -0.6083  1.2810
22154SOL     OW68840   4.830   2.186   9.932  0.1140 -0.3132  0.2737
22154SOL    HW168841   4.893   2.123   9.897 -0.7302 -0.2175 -1.5522
22154SOL    HW268842   4.826   2.255   9.865 -1.3276  0.0749  0.7323
22155SOL     OW68843  10.638   2.296   0.949  0.5333  0.1015  0.4264
22155SOL    HW168844  10.696   2.356   0.902  0.1314  0.8750  0.8960
22155SOL    HW268845  10.631   2.333   1.037 -0.2486 -0.2788  0.5343
22156SOL     OW68846   0.119   0.494   0.407  0.1384 -0.4046  0.6975
22156SOL    HW168847   0.049   0.447   0.362  1.7422 -0.7218 -1.6036
22156SOL    HW268848   0.190   0.431   0.416  0.5184  0.1772  2.1267
22157SOL     OW68849   4.032   2.974   1.766 -0.0790 -0.4324  0.3988
22157SOL    HW168850   4.043   3.065   1.793  1.6621 -0.2416 -0.8233
22157SOL    HW268851   3.964   2.976   1.699  0.0152 -0.0062  0.3152
22158SOL     OW68852   3.763   0.857  10.148  0.0708 -0.2904 -0.3624
22158SOL    HW168853   3.742   0.784  10.206  0.9007  0.8005  1.3977
22158SOL    HW268854   3.850   0.836  10.114 -0.3304 -0.8276 -1.1127
22159SOL     OW68855   0.435   3.162   5.693 -1.3475  0.6200  0.4866
22159SOL    HW168856   0.498   3.156   5.765 -0.1042  2.6639 -0.3416
22159SOL    HW268857   0.423   3.071   5.664 -0.7648 -0.0884  2.3036
22160SOL     OW68858   5.634   4.985   0.292  0.6937 -0.1954  0.5529
22160SOL    HW168859   5.679   5.036   0.225  2.0679  0.5055  1.9532
22160SOL    HW268860   5.548   5.026   0.301  2.2615  2.9940  2.7056
22161SOL     OW68861   3.753  10.531   6.437  0.2161  0.2160  0.4819
22161SOL    HW168862   3.810  10.580   6.378 -0.5224  0.1798 -0.2957
22161SOL    HW268863   3.729  10.452   6.387 -0.2591  0.0836  0.9105
22162SOL     OW68864   8.186   9.410   5.616 -0.1038  0.2070 -0.3483
22162SOL    HW168865   8.275   9.389   5.642 -0.7066 -0.0500  1.7050
22162SOL    HW268866   8.192   9.497   5.576  0.9916  0.4058  0.2182
22163SOL     OW68867   5.763   4.623   0.510 -0.5915 -0.0828  0.3613
22163SOL    HW168868   5.775   4.582   0.425  1.4807 -1.4743  1.2389
22163SOL    HW268869   5.672   4.606   0.533 -0.7039 -1.2190 -0.8035
22164SOL     OW68870  10.742   0.384  10.395  0.9073  0.1929  0.0004
22164SOL    HW168871  10.812   0.439  10.360  1.2503 -0.6190 -0.6241
22164SOL    HW268872  10.769   0.295  10.373  0.4808 -0.2474  1.1975
22165SOL     OW68873   9.583   1.837   0.072 -0.2508 -0.6506 -0.3604
22165SOL    HW168874   9.550   1.916   0.031 -0.2923 -1.4915 -2.0113
22165SOL    HW268875   9.662   1.865   0.119 -0.8752  0.5462  0.0180
22166SOL     OW68876   1.227   5.522   9.647  0.0288 -0.3228  0.6764
22166SOL    HW168877   1.132   5.506   9.646 -0.3315  1.5282  0.1324
22166SOL    HW268878   1.261   5.469   9.575 -1.0960  1.2705 -1.1383
22167SOL     OW68879   6.154   4.908   7.964 -0.5107 -0.2605  0.1513
22167SOL    HW168880   6.163   4.956   8.046 -0.6683  1.1840 -0.6562
22167SOL    HW268881   6.239   4.915   7.921 -1.1599  1.2409 -0.9769
22168SOL     OW68882  10.576  10.104   4.247  0.1686 -0.2809 -0.5003
22168SOL    HW168883  10.600  10.025   4.296  3.4014  0.5129 -0.5696
22168SOL    HW268884  10.510  10.147   4.300  0.4200 -1.6093  0.9560
22169SOL     OW68885   0.752   8.806   8.359  0.0758 -0.1311  0.4747
22169SOL    HW168886   0.671   8.834   8.403 -0.5548  1.0401 -1.3103
22169SOL    HW268887   0.809   8.777   8.430 -1.9424 -1.1173  1.7888
22170SOL     OW68888  10.048   3.906   2.168 -0.0589 -0.4308 -0.0776
22170SOL    HW168889  10.089   3.989   2.144 -1.1845  0.1740  0.0536
22170SOL    HW268890   9.981   3.892   2.101 -0.5257 -0.7455  0.4502
22171SOL     OW68891   0.223   1.333   8.327 -0.0254  0.2109  0.3552
22171SOL    HW168892   0.138   1.300   8.299  0.7225 -0.7001 -0.9273
22171SOL    HW268893   0.285   1.296   8.265  1.4578 -0.0997  1.9325
22172SOL     OW68894   3.152   0.894   6.763 -0.6205  0.2609 -0.6284
22172SOL    HW168895   3.139   0.847   6.846 -0.5626 -1.1112 -1.3713
22172SOL    HW268896   3.068   0.889   6.719 -0.4038  0.1780 -1.0415
22173SOL     OW68897   3.987   7.606   9.515  0.7822  0.5117 -0.7643
22173SOL    HW168898   4.035   7.532   9.478 -0.1289  0.3597 -1.6641
22173SOL    HW268899   4.022   7.613   9.604 -0.1990 -2.0208 -0.0819
22174SOL     OW68900   2.887   6.964   4.851  0.5288  0.0027 -0.0443
22174SOL    HW168901   2.856   6.988   4.939 -1.9715 -2.5396 -0.0629
22174SOL    HW268902   2.823   7.004   4.792  0.3551 -0.8645 -0.4569
22175SOL     OW68903   2.161   9.694   6.225  0.2622  0.5156 -0.1622
22175SOL    HW168904   2.213   9.728   6.152 -0.3962 -1.0984 -1.4351
22175SOL    HW268905   2.178   9.600   6.225 -0.4146  0.3667  1.2557
22176SOL     OW68906   9.333   6.965   4.352  0.0554  0.2130  0.3360
22176SOL    HW168907   9.342   7.040   4.411 -1.8341  0.3678  0.4805
22176SOL    HW268908   9.313   7.004   4.267  3.0530  0.0076 -0.5823
22177SOL     OW68909   4.666   5.066   0.597 -0.4868  0.7005 -0.2810
22177SOL    HW168910   4.574   5.058   0.621 -0.3282 -1.1191 -0.1448
22177SOL    HW268911   4.710   5.083   0.681 -0.5911  0.6582 -0.2168
22178SOL     OW68912   3.181   9.682   9.082  0.0595 -0.4950 -0.0035
22178SOL    HW168913   3.220   9.741   9.018  1.1618 -1.5384 -0.3331
22178SOL    HW268914   3.167   9.601   9.034  1.4012 -1.4772  1.1685
22179SOL     OW68915   1.813   4.905   5.729 -0.2969 -0.8186  0.2953
22179SOL    HW168916   1.843   4.964   5.799 -1.9159 -1.4285  1.5515
22179SOL    HW268917   1.863   4.933   5.652 -2.0538  3.2946  0.3756
22180SOL     OW68918   5.630   8.990   7.567  0.2808  0.2959 -0.4127
22180SOL    HW168919   5.552   9.011   7.618 -0.1249  1.2190 -1.3911
22180SOL    HW268920   5.604   8.916   7.512  0.6886 -0.6326  0.5993
22181SOL     OW68921   2.802   0.272   2.991 -0.2003 -0.2862 -0.4579
22181SOL    HW168922   2.741   0.231   2.930 -0.4788 -1.6298  0.6689
22181SOL    HW268923   2.772   0.363   2.997 -2.8752 -1.1569  0.9432
22182SOL     OW68924   2.403   5.516   1.802 -0.4346  0.8233 -0.1877
22182SOL    HW168925   2.423   5.451   1.870 -0.5340 -0.1194 -1.0348
22182SOL    HW268926   2.308   5.530   1.809 -0.4446  0.7303 -0.1351
22183SOL     OW68927   7.766   3.012   4.756  0.1788 -0.3617  0.1007
22183SOL    HW168928   7.858   3.026   4.781  0.5534 -0.8209 -0.9189
22183SOL    HW268929   7.732   2.951   4.821  0.8080 -0.7192  0.1074
22184SOL     OW68930   8.505   9.078   4.187  0.5390  0.0667 -0.0758
22184SOL    HW168931   8.528   8.987   4.168 -0.1847  0.3143 -2.4339
22184SOL    HW268932   8.421   9.072   4.233  0.7774 -0.4659  0.3022
22185SOL     OW68933   6.232   7.195   5.429  0.4422  0.6268 -0.6678
22185SOL    HW168934   6.315   7.229   5.462 -0.0130  0.6438  0.5039
22185SOL    HW268935   6.192   7.269   5.384  0.4934  0.9962 -0.1185
22186SOL     OW68936   7.153   0.394   2.114  0.2070 -0.2074 -0.2133
22186SOL    HW168937   7.133   0.302   2.131 -1.3550  0.3220  1.1386
22186SOL    HW268938   7.126   0.408   2.023 -0.5490 -0.8459 -0.1041
22187SOL     OW68939   9.546   4.405   6.201 -0.2181 -0.0212 -0.2696
22187SOL    HW168940   9.619   4.355   6.164 -1.4523 -1.7435 -0.4998
22187SOL    HW268941   9.539   4.374   6.291 -1.1061 -0.4455 -0.4672
22188SOL     OW68942   0.167   1.868   0.170  0.3230 -0.3356  0.1662
22188SOL    HW168943   0.103   1.813   0.215  1.5263 -1.1959  0.8790
22188SOL    HW268944   0.192   1.935   0.234 -0.5903  0.6224 -0.4523
22189SOL     OW68945   1.014   8.665   2.306  0.2433  0.0302 -0.5951
22189SOL    HW168946   0.963   8.717   2.244 -1.9224  1.0167  1.8204
22189SOL    HW268947   1.082   8.725   2.336  0.2534  0.1067 -0.7652
22190SOL     OW68948   1.380   7.859   8.876  0.4239  0.2548 -0.6486
22190SOL    HW168949   1.424   7.939   8.848 -0.9834  0.7422 -1.5892
22190SOL    HW268950   1.411   7.792   8.815 -0.8821  0.8301 -2.0292
22191SOL     OW68951   1.342   9.570   7.507 -0.7572  0.9638 -0.6535
22191SOL    HW168952   1.319   9.525   7.425 -0.3908 -0.0911 -0.2001
22191SOL    HW268953   1.411   9.631   7.483 -2.2163  2.3248 -1.5530
22192SOL     OW68954  10.363  10.559   0.626  0.3458  0.5041  0.0349
22192SOL    HW168955  10.297  10.497   0.658 -1.2467  2.9320  1.8856
22192SOL    HW268956  10.341  10.571   0.534  1.2336 -2.1868 -0.6338
22193SOL     OW68957   4.935   6.032   7.390  0.2573  0.0786  0.3244
22193SOL    HW168958   4.854   5.990   7.421  0.7781 -0.4112  1.0550
22193SOL    HW268959   4.967   6.081   7.466 -0.4800  2.0982 -0.5827
22194SOL     OW68960   0.104   7.785   0.107  0.0439  0.0810  0.9419
22194SOL    HW168961   0.144   7.855   0.159  1.6013  0.1698 -0.2790
22194SOL    HW268962   0.138   7.800   0.018 -1.0488 -1.1603  0.2909
22195SOL     OW68963   3.601   2.011   7.792  0.0376  0.4222  0.2750
22195SOL    HW168964   3.611   1.923   7.827  0.9413  0.0111 -0.9338
22195SOL    HW268965   3.675   2.022   7.732 -0.6736  1.5839 -0.4493
22196SOL     OW68966   1.125   8.286   3.968  0.5173 -0.1593 -0.1604
22196SOL    HW168967   1.118   8.324   4.055 -0.8568 -0.4009 -0.1483
22196SOL    HW268968   1.079   8.203   3.974  0.7021 -0.3401 -1.0366
22197SOL     OW68969   0.561   6.122   8.953 -0.3758  0.1967 -0.1354
22197SOL    HW168970   0.633   6.174   8.986  0.9333 -0.9559 -1.0407
22197SOL    HW268971   0.499   6.116   9.026  1.0214  0.1975  1.0874
22198SOL     OW68972   0.076   2.518   1.385  0.6106  0.3546  0.0912
22198SOL    HW168973   0.118   2.434   1.402  1.0883  0.7326  0.8283
22198SOL    HW268974   0.136   2.583   1.423 -0.1845  0.9687  0.3220
22199SOL     OW68975   9.685   2.587   2.397 -0.2552 -0.0306 -0.6559
22199SOL    HW168976   9.601   2.548   2.422  0.5224 -0.7055  1.0955
22199SOL    HW268977   9.718   2.531   2.327 -1.3977  0.4512 -1.6163
22200SOL     OW68978   1.467   7.996   7.222  0.0871  0.0587  0.2298
22200SOL    HW168979   1.416   8.061   7.269  0.1791 -0.2284  0.7400
22200SOL    HW268980   1.557   8.011   7.250  0.5702  1.6646 -1.9375
22201SOL     OW68981  10.450   7.650   1.628 -0.1601  0.0318 -0.5041
22201SOL    HW168982  10.376   7.701   1.594  0.6320  1.1924 -0.5338
22201SOL    HW268983  10.525   7.710   1.624  1.1734 -1.6224 -2.0717
22202SOL     OW68984   2.066   6.720   9.568 -0.0678 -0.0928  0.0474
22202SOL    HW168985   1.973   6.702   9.554  0.2446 -3.5210  1.3577
22202SOL    HW268986   2.101   6.732   9.480 -1.3593 -1.3437 -0.6980
22203SOL     OW68987   1.644   7.380   5.153  0.2867  0.1523  0.1202
22203SOL    HW168988   1.659   7.355   5.244 -1.5264 -2.0027 -0.0773
22203SOL    HW268989   1.721   7.348   5.106  1.3507  1.5060  0.8794
22204SOL     OW68990   7.128   6.422   8.222  0.4248  0.1472 -0.0027
22204SOL    HW168991   7.061   6.411   8.289 -0.0748 -0.1262 -0.5493
22204SOL    HW268992   7.199   6.364   8.249 -0.3817 -1.0960 -0.5001
22205SOL     OW68993   9.572   2.882   3.060  0.3164 -0.1952  0.5679
22205SOL    HW168994   9.481   2.912   3.058  0.0714 -0.8744  1.1712
22205SOL    HW268995   9.612   2.921   2.981 -0.4512  0.2289  0.3806
22206SOL     OW68996   1.665   6.285   4.875  0.7739 -0.4895 -0.5105
22206SOL    HW168997   1.601   6.256   4.940 -0.3423 -0.2841 -1.4739
22206SOL    HW268998   1.750   6.271   4.916  0.1254 -1.2455  0.6167
22207SOL     OW68999   5.459   8.961  10.286 -0.4055  0.5339  0.1135
22207SOL    HW169000   5.415   9.044  10.268 -0.7434  0.1873 -0.7028
22207SOL    HW269001   5.436   8.905  10.212  1.4943  0.3715 -0.3961
22208SOL     OW69002   9.556   8.143   5.355  0.5703 -0.0289  1.2587
22208SOL    HW169003   9.610   8.171   5.282  0.9457 -2.7099  0.3957
22208SOL    HW269004   9.466   8.145   5.321  0.6780 -0.6373  0.9339
22209SOL     OW69005   1.659   4.578   9.304 -0.9791  0.1575 -0.0936
22209SOL    HW169006   1.594   4.566   9.373 -0.0973 -0.6700  0.6066
22209SOL    HW269007   1.711   4.653   9.333 -0.5988 -0.1996  0.1489
22210SOL     OW69008   8.882   4.958   0.325  0.6142 -0.3785  0.4984
22210SOL    HW169009   8.974   4.984   0.329  0.6424 -0.6073  1.2838
22210SOL    HW269010   8.884   4.865   0.304  0.5691 -0.5190  1.1276
22211SOL     OW69011  10.563  10.221   2.797  0.0988  0.4731  0.2950
22211SOL    HW169012  10.491  10.202   2.858  0.7625 -2.2126  0.3453
22211SOL    HW269013  10.605  10.137   2.781  1.5378  1.5050 -1.9400
22212SOL     OW69014   9.086   3.771   2.498 -0.0231 -0.2245  0.2697
22212SOL    HW169015   9.122   3.742   2.414  0.0784 -0.1484  0.2873
22212SOL    HW269016   9.129   3.716   2.563 -2.0357 -2.1828  0.0895
22213SOL     OW69017   7.073   1.708   8.671 -0.4179 -0.1425 -0.4625
22213SOL    HW169018   7.101   1.617   8.665 -0.9227 -0.2983 -0.4824
22213SOL    HW269019   7.149   1.754   8.707 -0.7819 -0.8739  1.3073
22214SOL     OW69020   4.484   1.871   7.356  0.5688  0.2233  0.7469
22214SOL    HW169021   4.454   1.872   7.447 -0.0413  2.6582  0.5924
22214SOL    HW269022   4.452   1.788   7.322 -1.3190  0.2943  2.1185
22215SOL     OW69023   3.519   8.253   0.336 -0.3415 -0.0854  0.0487
22215SOL    HW169024   3.552   8.324   0.391 -0.2747 -0.7376  0.8750
22215SOL    HW269025   3.598   8.204   0.311 -0.5146 -0.7408  0.7409
22216SOL     OW69026   2.999   1.364   2.029 -0.0585  0.3479 -0.0822
22216SOL    HW169027   3.039   1.450   2.014 -1.7927  0.8365 -2.4625
22216SOL    HW269028   3.042   1.306   1.966  0.5177 -0.3656  0.9456
22217SOL     OW69029   6.573   2.808   5.442  0.1523 -0.0826  0.1558
22217SOL    HW169030   6.649   2.752   5.458  0.6394  0.7326  0.7873
22217SOL    HW269031   6.591   2.888   5.491 -0.1579  0.9633 -1.3817
22218SOL     OW69032   4.461   6.520   0.152 -0.1928  0.2880  0.0214
22218SOL    HW169033   4.381   6.571   0.139 -0.8868 -0.9075 -0.4579
22218SOL    HW269034   4.490   6.498   0.063 -0.1241 -0.4893  0.2295
22219SOL     OW69035   8.098   3.343   9.599  0.4690  0.3657  0.2084
22219SOL    HW169036   8.069   3.428   9.630  1.5391  0.7692  0.1348
22219SOL    HW269037   8.159   3.363   9.527 -0.0719 -0.4847 -0.5059
22220SOL     OW69038   7.298   0.379   4.245  0.2017 -0.4190 -0.3582
22220SOL    HW169039   7.223   0.367   4.187 -0.5409 -0.0333  0.4821
22220SOL    HW269040   7.374   0.377   4.187 -0.5590  0.8148 -1.4669
22221SOL     OW69041   5.482   8.368  10.166 -0.4333 -0.9115  0.0503
22221SOL    HW169042   5.393   8.350  10.195 -0.9096  0.3615 -0.5460
22221SOL    HW269043   5.475   8.374  10.070 -0.1810  1.4767  0.1274
22222SOL     OW69044   0.795   4.734   8.252 -0.2796 -0.2997 -0.8251
22222SOL    HW169045   0.753   4.657   8.291 -0.1258 -0.8001 -1.6142
22222SOL    HW269046   0.755   4.741   8.165 -0.1393  0.3894 -0.8379
22223SOL     OW69047   9.708   1.236   5.013  0.1261 -0.0133  0.0848
22223SOL    HW169048   9.613   1.220   5.010 -0.0029  0.8386 -1.1021
22223SOL    HW269049   9.745   1.166   4.959  0.1655 -0.1917  0.3373
22224SOL     OW69050   5.656   7.962   1.819  0.2024 -0.0032  0.5419
22224SOL    HW169051   5.664   7.898   1.748 -0.0388  1.3184 -0.7093
22224SOL    HW269052   5.727   7.939   1.880  1.8946  0.2036 -1.2393
22225SOL     OW69053   6.526   2.782  10.296 -0.1145  0.0347 -0.3084
22225SOL    HW169054   6.608   2.822  10.266 -1.5168  2.0080 -1.8451
22225SOL    HW269055   6.530   2.788  10.391 -0.0040  3.6138 -0.3986
22226SOL     OW69056   3.166   7.742   1.993  0.0423  0.2006  0.4800
22226SOL    HW169057   3.131   7.742   2.082 -0.0974 -0.0145  0.4235
22226SOL    HW269058   3.122   7.670   1.949  1.6964 -1.0949  0.8436
22227SOL     OW69059   7.810   8.761   6.723  0.2409  0.5965 -0.1020
22227SOL    HW169060   7.757   8.747   6.645  0.4514 -0.6412 -0.0305
22227SOL    HW269061   7.785   8.691   6.783  0.0138  1.5799  0.9963
22228SOL     OW69062   6.224   9.190   0.212 -0.4023  0.1161  0.0501
22228SOL    HW169063   6.233   9.266   0.269  0.6982  0.0844 -0.0553
22228SOL    HW269064   6.293   9.201   0.147 -3.0394  1.4245 -2.8092
22229SOL     OW69065   7.316   1.989   0.491  0.5316 -0.5854 -0.1837
22229SOL    HW169066   7.325   2.085   0.487  0.7259 -0.5893  0.1634
22229SOL    HW269067   7.312   1.962   0.399 -0.6251 -0.1414 -0.2795
22230SOL     OW69068   5.195   3.881   0.341 -0.0680 -0.1397  0.4507
22230SOL    HW169069   5.272   3.830   0.313  0.1476  1.2878 -1.8521
22230SOL    HW269070   5.188   3.865   0.435  1.4752 -2.3790  0.2488
22231SOL     OW69071   4.725  10.067   9.639 -0.4107  0.0825 -0.4473
22231SOL    HW169072   4.659  10.069   9.569 -0.5099 -0.3024 -0.3716
22231SOL    HW269073   4.726  10.155   9.674  0.1828  0.4897 -1.4319
22232SOL     OW69074   4.860   9.370   7.322 -0.3462  0.0214  0.1440
22232SOL    HW169075   4.922   9.307   7.360 -2.0332 -0.6634  1.9377
22232SOL    HW269076   4.795   9.384   7.391 -3.2252 -0.7213 -2.2184
22233SOL     OW69077   3.656   6.199   9.620  0.4046 -0.6471  0.4895
22233SOL    HW169078   3.711   6.208   9.542 -1.6901  0.8042 -0.9647
22233SOL    HW269079   3.597   6.126   9.599 -0.1477 -0.2738  0.7136
22234SOL     OW69080   4.768   2.941   2.111  0.1137  0.2735 -0.0664
22234SOL    HW169081   4.687   2.919   2.065  0.3523  1.5477 -1.1548
22234SOL    HW269082   4.836   2.895   2.064  0.2808  1.0581 -0.6118
22235SOL     OW69083   1.356   1.042   1.876 -0.4168 -0.5327  0.0535
22235SOL    HW169084   1.313   1.086   1.803 -1.1475 -0.4759  0.5115
22235SOL    HW269085   1.447   1.070   1.870 -0.1018 -1.7453 -1.7591
22236SOL     OW69086   1.027   2.985   7.470  0.1360  0.0712 -0.1187
22236SOL    HW169087   0.968   3.040   7.523  1.2113  1.4025 -0.2528
22236SOL    HW269088   1.085   2.944   7.534 -0.6955 -0.9894 -0.0149
22237SOL     OW69089   9.135   1.091   2.104  0.5037  0.2940  0.4719
22237SOL    HW169090   9.199   1.138   2.158  1.1680  1.1018 -0.9497
22237SOL    HW269091   9.054   1.141   2.114  0.5971  0.3861  0.7809
22238SOL     OW69092   1.296   6.654   8.862 -0.1321  0.1042  1.0564
22238SOL    HW169093   1.381   6.697   8.870  0.0068  0.0553 -0.1271
22238SOL    HW269094   1.276   6.625   8.951  1.2409 -0.1946  1.2844
22239SOL     OW69095   3.753   2.260   5.216  0.1229 -0.4450 -0.0521
22239SOL    HW169096   3.695   2.320   5.169  0.6012 -0.7552 -1.0549
22239SOL    HW269097   3.763   2.185   5.158  1.6408 -0.3395  0.0191
22240SOL     OW69098   9.088   0.444   2.516  0.3413 -0.8490  0.3127
22240SOL    HW169099   9.092   0.349   2.527  1.7449 -0.8622 -0.0656
22240SOL    HW269100   9.095   0.479   2.605  1.8217 -1.0843  0.3067
22241SOL     OW69101   0.525   4.925   9.590 -0.4390  0.0110  0.1084
22241SOL    HW169102   0.451   4.980   9.566 -0.4072 -0.4420 -1.0537
22241SOL    HW269103   0.488   4.837   9.598 -0.3062  0.0256  1.0241
22242SOL     OW69104   3.982   6.924   8.189  0.4348 -0.1142 -0.3763
22242SOL    HW169105   3.963   6.991   8.254 -3.0733 -0.2603 -1.0651
22242SOL    HW269106   3.932   6.950   8.112  0.6844 -2.3760 -1.3917
22243SOL     OW69107   4.881   9.569   9.409 -0.4415 -0.2796  0.5924
22243SOL    HW169108   4.861   9.659   9.431 -2.0821 -0.7518  1.1205
22243SOL    HW269109   4.830   9.551   9.330 -0.4002 -0.8444  0.6851
22244SOL     OW69110   4.184   8.832   4.570  0.7121  0.1300 -0.0394
22244SOL    HW169111   4.095   8.797   4.580  0.7816 -0.0603 -0.0972
22244SOL    HW269112   4.194   8.844   4.476  1.3228 -1.3309 -0.1776
22245SOL     OW69113   2.872   6.565   8.419 -0.3280  0.2062 -0.1007
22245SOL    HW169114   2.838   6.652   8.437 -0.7988 -0.2652  1.4511
22245SOL    HW269115   2.919   6.541   8.499 -2.7566 -2.1399  0.7805
22246SOL     OW69116   2.037   8.556   2.814 -0.5341 -0.0437 -0.2380
22246SOL    HW169117   1.959   8.542   2.868  0.6734 -0.2447  1.5115
22246SOL    HW269118   2.104   8.586   2.875  2.3080 -4.7171 -0.5584
22247SOL     OW69119   0.597  10.514   8.295  0.0874  0.7195 -0.0941
22247SOL    HW169120   0.541  10.585   8.266 -0.0097  0.7120  0.0716
22247SOL    HW269121   0.686  10.551   8.294  0.1049  0.6732 -0.5389
22248SOL     OW69122   4.270   5.267   5.752 -0.1558 -0.0215  0.1990
22248SOL    HW169123   4.328   5.326   5.799 -1.3909  1.8903 -0.5571
22248SOL    HW269124   4.291   5.281   5.659 -0.5728 -0.6699 -0.0059
22249SOL     OW69125   5.519   0.366   7.608 -0.5988 -0.2175  0.0704
22249SOL    HW169126   5.516   0.315   7.528  1.7937 -0.1846 -0.1008
22249SOL    HW269127   5.449   0.431   7.598 -1.7930 -1.6021 -0.9631
22250SOL     OW69128   4.372   6.699   4.599  0.7565  0.2031 -0.0204
22250SOL    HW169129   4.314   6.758   4.647  1.1155 -0.1295  0.8380
22250SOL    HW269130   4.317   6.625   4.575  0.5331  0.4504 -0.2839
22251SOL     OW69131   0.565   6.791   0.092  0.2226 -0.4456  0.0756
22251SOL    HW169132   0.596   6.706   0.123  1.8509  0.1717  0.2544
22251SOL    HW269133   0.512   6.825   0.164  1.1321 -0.5154  0.8017
22252SOL     OW69134   9.124  10.537   3.592  0.3698 -0.8076  0.6134
22252SOL    HW169135   9.142  10.573   3.506  0.6078 -0.7902  0.6696
22252SOL    HW269136   9.032  10.511   3.589  0.4248 -0.9663  0.2999
22253SOL     OW69137  10.149   0.486   6.068 -0.1393  0.4179 -0.0526
22253SOL    HW169138  10.209   0.436   6.014 -1.1863 -0.1779 -0.7149
22253SOL    HW269139  10.081   0.423   6.094 -1.0025  1.2682 -0.1555
22254SOL     OW69140   6.935   9.036   9.821  0.8626 -0.5545  0.1504
22254SOL    HW169141   6.929   9.082   9.737 -2.0719 -0.4017  0.3521
22254SOL    HW269142   6.852   9.054   9.864  0.3039 -4.5441  1.0640
22255SOL     OW69143  10.215   2.374  10.735  0.3515 -0.9127 -0.5861
22255SOL    HW169144  10.284   2.400  10.795  0.3429  0.0342 -0.9675
22255SOL    HW269145  10.262   2.333  10.661  0.5404 -0.0208 -0.9733
22256SOL     OW69146   6.339   6.986   1.543 -0.0689  0.2874 -0.0176
22256SOL    HW169147   6.277   6.913   1.539  0.1364  0.1249 -0.2770
22256SOL    HW269148   6.286   7.064   1.531 -0.3156  0.1919  0.4411
22257SOL     OW69149   4.558   5.941   2.579 -0.2570 -0.0616 -0.6331
22257SOL    HW169150   4.479   5.993   2.592 -0.4257 -0.1015 -1.4440
22257SOL    HW269151   4.527   5.861   2.535  0.0514 -0.6874  0.2543
22258SOL     OW69152   2.732   7.383   2.321  0.3692 -0.4100 -0.2703
22258SOL    HW169153   2.674   7.404   2.394 -0.6640  0.1324 -1.2198
22258SOL    HW269154   2.718   7.290   2.306  1.2782 -0.7392  0.7931
22259SOL     OW69155  10.684   1.987   4.743  0.2741 -0.1103  0.3268
22259SOL    HW169156  10.673   1.927   4.816  0.1895  0.1185  0.5031
22259SOL    HW269157  10.638   1.946   4.670  1.2273 -0.8441  0.1190
22260SOL     OW69158   7.068   7.434   0.492 -0.3082 -0.4084 -0.5873
22260SOL    HW169159   7.010   7.508   0.506  0.8262 -0.0290  3.5625
22260SOL    HW269160   7.014   7.357   0.511  0.0724 -0.1195  2.0642
22261SOL     OW69161   6.651   6.475  10.756  0.5976  0.5084  0.2438
22261SOL    HW169162   6.589   6.403  10.757  0.4335  0.6492  0.4304
22261SOL    HW269163   6.668   6.494  10.849  2.1126 -0.5401  0.2124
22262SOL     OW69164   0.074   7.961   6.363  0.3973 -0.0252  0.2744
22262SOL    HW169165   0.065   7.875   6.324 -2.3719  0.1878  0.2441
22262SOL    HW269166   0.127   7.946   6.442  1.6960 -1.3196 -0.7737
22263SOL     OW69167   9.848   1.307   4.230  0.9214 -0.0257 -0.2017
22263SOL    HW169168   9.811   1.300   4.142  1.2728  1.5489 -0.5047
22263SOL    HW269169   9.902   1.229   4.240 -0.8338 -1.3279 -0.5295
22264SOL     OW69170   2.741   2.141   7.807  0.0264 -0.1188  0.1535
22264SOL    HW169171   2.766   2.085   7.880  2.1132 -0.0399 -0.4317
22264SOL    HW269172   2.734   2.082   7.732  2.7013  0.3818 -0.5667
22265SOL     OW69173   7.191   6.638   7.248 -0.1381 -0.3139 -0.2062
22265SOL    HW169174   7.146   6.629   7.165  0.5252  1.7795 -0.8621
22265SOL    HW269175   7.121   6.646   7.313 -0.6560 -1.6747 -0.5517
22266SOL     OW69176   2.987   9.869   7.165  0.5218 -0.0839 -0.5173
22266SOL    HW169177   3.067   9.836   7.205  0.7665  0.1717 -0.7966
22266SOL    HW269178   2.919   9.855   7.232  0.1069 -3.3436 -1.4251
22267SOL     OW69179   2.574   2.506   4.376 -0.2989 -0.0213  0.4454
22267SOL    HW169180   2.573   2.547   4.290  1.1739  2.1628  1.3529
22267SOL    HW269181   2.492   2.457   4.381  0.2091 -1.3893 -2.6721
22268SOL     OW69182   8.800   9.217   5.669 -0.3348 -0.6509  1.0266
22268SOL    HW169183   8.806   9.154   5.741 -0.5295 -0.6775  1.0177
22268SOL    HW269184   8.717   9.197   5.625 -1.4458  0.9621  2.2936
22269SOL     OW69185   8.459   6.139   8.247  0.0449  0.1307  0.5383
22269SOL    HW169186   8.476   6.121   8.339  0.3495 -0.4164  0.3852
22269SOL    HW269187   8.509   6.218   8.227  0.8461 -0.3479  0.5867
22270SOL     OW69188   0.466   6.424   6.646  0.3975 -0.1221  0.1435
22270SOL    HW169189   0.418   6.359   6.594  1.8532 -1.6730  0.6360
22270SOL    HW269190   0.557   6.416   6.618  1.0950 -0.4271  2.2679
22271SOL     OW69191   8.513   2.050   3.582  0.2934  0.1771 -0.3349
22271SOL    HW169192   8.604   2.072   3.602  0.0083  2.0665 -0.9935
22271SOL    HW269193   8.464   2.130   3.599 -0.8928 -0.0894 -2.2116
22272SOL     OW69194   0.751   6.055   2.523 -0.4503  0.1823  0.2352
22272SOL    HW169195   0.745   5.966   2.490 -1.2316  1.2153 -2.7192
22272SOL    HW269196   0.836   6.087   2.491 -0.7004  0.8691  0.2323
22273SOL     OW69197   1.224   9.836   1.377 -0.3768 -0.0115 -0.0704
22273SOL    HW169198   1.254   9.765   1.434  0.5839  1.2487  1.0713
22273SOL    HW269199   1.254   9.812   1.290  0.8775 -0.5305  0.4742
22274SOL     OW69200   9.366   2.031   6.989 -0.2393  0.0859 -0.6008
22274SOL    HW169201   9.386   2.125   6.992  0.0419  0.0048  0.4042
22274SOL    HW269202   9.303   2.022   6.917 -0.3804  1.0635 -0.6099
22275SOL     OW69203   5.246   8.936   5.145 -0.7971  0.3172  0.4931
22275SOL    HW169204   5.251   8.867   5.211  0.4134 -0.8502 -0.7448
22275SOL    HW269205   5.315   8.915   5.083  0.2648  3.1959  0.5314
22276SOL     OW69206   1.141   7.379   0.558 -0.3425  0.0080  0.0491
22276SOL    HW169207   1.158   7.364   0.652 -1.7344 -0.0507  0.3047
22276SOL    HW269208   1.160   7.295   0.517  2.0328  0.5093 -0.0119
22277SOL     OW69209   1.408   3.425   2.054 -0.1607 -0.2615  0.0721
22277SOL    HW169210   1.441   3.422   2.144 -1.1548 -0.8428  0.4301
22277SOL    HW269211   1.384   3.334   2.034  0.1254 -0.1539 -0.8142
22278SOL     OW69212   2.568   6.766   2.525 -0.0977  0.1649 -0.0510
22278SOL    HW169213   2.542   6.743   2.614 -0.1730 -0.0972 -0.1380
22278SOL    HW269214   2.485   6.786   2.480 -0.1974 -0.9559 -0.4081
22279SOL     OW69215   5.437   4.426   5.919 -0.2257  0.6816 -0.1745
22279SOL    HW169216   5.509   4.362   5.909 -0.4879  0.0395  1.6148
22279SOL    HW269217   5.472   4.507   5.884  0.8847  0.0342 -0.6129
22280SOL     OW69218  10.428   4.615   2.884  0.1572 -0.4141 -0.8253
22280SOL    HW169219  10.401   4.523   2.893 -2.3318  0.2885 -0.4331
22280SOL    HW269220  10.361   4.654   2.829  0.5947  1.4045 -0.1287
22281SOL     OW69221   8.620   1.547   0.775  0.6835 -0.2474  0.2924
22281SOL    HW169222   8.648   1.460   0.802  2.8937  0.6831  1.2005
22281SOL    HW269223   8.700   1.598   0.770 -0.5225  1.6987 -0.4622
22282SOL     OW69224   5.094   7.595   7.659  0.4737 -0.5669 -0.1016
22282SOL    HW169225   5.154   7.545   7.604  0.4026  0.0775 -0.7760
22282SOL    HW269226   5.025   7.533   7.682 -0.8492 -0.2301 -2.8049
22283SOL     OW69227   4.664   3.288   8.516  0.6630  0.1427 -0.1387
22283SOL    HW169228   4.578   3.315   8.483  0.6602 -0.0040 -0.2524
22283SOL    HW269229   4.670   3.328   8.603 -0.5167 -1.7658  0.8793
22284SOL     OW69230   5.375   3.153  10.336  0.0307  0.5366 -0.1565
22284SOL    HW169231   5.453   3.161  10.391 -0.1076  1.1612 -0.0464
22284SOL    HW269232   5.400   3.194  10.253  0.4065 -0.8448 -0.7527
22285SOL     OW69233   5.027   7.001   3.409 -0.1984  0.0329 -0.4718
22285SOL    HW169234   4.977   6.924   3.437 -0.0888  0.3691  0.7257
22285SOL    HW269235   5.004   7.013   3.317 -0.7604 -1.0080 -0.4828
22286SOL     OW69236   5.555  10.572  10.585  0.1737 -0.4645 -0.0102
22286SOL    HW169237   5.498  10.624  10.642 -0.6264 -1.5375  0.1843
22286SOL    HW269238   5.585  10.500  10.641  0.2047 -0.9613 -0.6640
22287SOL     OW69239   9.944   0.354   4.493 -0.1256 -0.0043  0.1232
22287SOL    HW169240  10.035   0.329   4.509 -0.5538 -1.2218  0.8662
22287SOL    HW269241   9.894   0.275   4.513 -1.3619  0.6934 -0.0940
22288SOL     OW69242   8.465   2.428   4.114  0.0481  0.8617  0.2330
22288SOL    HW169243   8.393   2.365   4.120  1.9307 -1.3096  2.2601
22288SOL    HW269244   8.525   2.390   4.049  0.1805  1.7695 -0.1941
22289SOL     OW69245   0.814   3.976   5.709  0.0052 -0.0876 -0.3258
22289SOL    HW169246   0.895   3.936   5.740 -0.4781 -0.1143  0.9424
22289SOL    HW269247   0.838   4.067   5.692 -0.4278  0.9080  3.4863
22290SOL     OW69248   0.986   2.297   6.563 -0.3058  0.5518 -0.7156
22290SOL    HW169249   1.051   2.279   6.630  0.9337  0.5273 -1.8852
22290SOL    HW269250   0.907   2.322   6.612  0.9982  2.0772  0.7307
22291SOL     OW69251   2.761   0.512  10.205 -0.0402 -0.0377  0.4550
22291SOL    HW169252   2.751   0.603  10.177 -1.8517 -0.8221 -1.7882
22291SOL    HW269253   2.855   0.494  10.194  0.1907  1.3119  0.0690
22292SOL     OW69254  10.333   9.477   0.331  0.3090  0.2994  1.1148
22292SOL    HW169255  10.333   9.533   0.409 -0.9537  0.6656  0.8691
22292SOL    HW269256  10.424   9.480   0.300  0.3861  1.7900  1.4055
22293SOL     OW69257   7.216   5.376   4.774 -0.2526  0.0768 -0.0520
22293SOL    HW169258   7.254   5.388   4.687 -0.6813  0.0696 -0.2416
22293SOL    HW269259   7.154   5.304   4.764  0.2840 -0.4692  0.4492
22294SOL     OW69260   4.749   9.407   0.059 -0.2281  0.9930 -0.2240
22294SOL    HW169261   4.788   9.342   0.117  1.5029  2.3303  0.2101
22294SOL    HW269262   4.797   9.399  -0.023 -0.4103  1.3226 -0.3660
22295SOL     OW69263   7.465   2.172   1.024 -0.2063 -0.4090  0.3541
22295SOL    HW169264   7.514   2.191   0.944  0.8035  0.0474  1.0512
22295SOL    HW269265   7.453   2.257   1.066  0.5019 -0.7827  1.3562
22296SOL     OW69266   3.350   9.519   0.197 -0.6569  0.5333  0.2186
22296SOL    HW169267   3.424   9.574   0.172 -1.2745  1.6675  0.8061
22296SOL    HW269268   3.331   9.468   0.118  1.0675 -0.1968  0.2139
22297SOL     OW69269   2.913   9.209   3.317 -0.1767 -0.6137  0.3208
22297SOL    HW169270   2.931   9.295   3.355  1.7496 -0.9202  0.2231
22297SOL    HW269271   2.963   9.208   3.235  0.4789 -2.0726  0.6987
22298SOL     OW69272   5.310   0.726   5.440  0.0265  0.2067 -0.4491
22298SOL    HW169273   5.310   0.811   5.397 -0.9869  0.4894  0.0912
22298SOL    HW269274   5.218   0.703   5.449  0.2873 -1.2295 -1.1127
22299SOL     OW69275   2.137   2.633   8.577 -0.4533  0.2480  0.0117
22299SOL    HW169276   2.125   2.591   8.662 -0.1075 -0.7417 -0.4030
22299SOL    HW269277   2.053   2.623   8.533 -0.3075 -0.2446 -0.1704
22300SOL     OW69278   1.087   8.142   3.730 -0.4887 -0.4189 -0.1016
22300SOL    HW169279   1.049   8.224   3.762  1.3807  0.1851  0.7340
22300SOL    HW269280   1.065   8.140   3.636  0.4030  1.6674 -0.4114
22301SOL     OW69281  10.058   0.354   8.717 -0.0540  0.4553 -0.2253
22301SOL    HW169282  10.016   0.418   8.660  0.0726  1.0742  0.3555
22301SOL    HW269283  10.152   0.367   8.702  0.1045  2.2858  1.7991
22302SOL     OW69284   6.318   1.029   5.099 -0.3540 -0.7134 -0.0717
22302SOL    HW169285   6.275   1.092   5.042  1.0035  0.4218  0.1107
22302SOL    HW269286   6.246   0.977   5.135 -1.5268  0.7871 -0.1341
22303SOL     OW69287   6.878   8.699   9.990 -0.2827 -0.0736 -0.4192
22303SOL    HW169288   6.944   8.752   9.944  0.6677 -2.3715 -1.8542
22303SOL    HW269289   6.798   8.711   9.938  0.4131 -1.4756 -1.8811
22304SOL     OW69290   3.501  10.677   1.211  0.0438 -1.3153 -0.2136
22304SOL    HW169291   3.568  10.642   1.269 -0.6460 -0.1794  1.3252
22304SOL    HW269292   3.519  10.771   1.207 -0.1071 -1.3222 -1.6252
22305SOL     OW69293   5.570   8.080   0.273 -0.3300 -0.5976  0.4564
22305SOL    HW169294   5.634   8.060   0.204  1.6896  0.8486  1.8055
22305SOL    HW269295   5.622   8.084   0.353 -2.3554 -0.6418  1.8325
22306SOL     OW69296   1.183   9.434   9.231  0.0685 -0.3282 -0.6290
22306SOL    HW169297   1.091   9.451   9.249 -0.0333 -1.0021 -0.4702
22306SOL    HW269298   1.229   9.511   9.265 -0.4011 -0.1576 -0.3694
22307SOL     OW69299   7.821   0.403   8.294  0.1886  0.3737 -0.2288
22307SOL    HW169300   7.845   0.363   8.211  2.3312 -1.9168  1.3207
22307SOL    HW269301   7.866   0.487   8.294  0.6366  0.1500 -1.1787
22308SOL     OW69302   9.835   7.063   3.216 -0.0453 -0.2493 -0.0162
22308SOL    HW169303   9.749   7.062   3.258 -0.6523  0.3564 -1.1810
22308SOL    HW269304   9.817   7.045   3.124  0.7763  2.0918 -0.7287
22309SOL     OW69305   4.914   2.729   8.914  0.0018 -0.1419 -1.0883
22309SOL    HW169306   4.884   2.818   8.896  1.0944  0.3556 -0.5122
22309SOL    HW269307   4.834   2.681   8.935 -0.4177  1.2231  0.7138
22310SOL     OW69308  10.362   7.975   8.465 -0.2148  0.1991 -0.2710
22310SOL    HW169309  10.361   7.885   8.433 -1.5570  0.8786 -2.3659
22310SOL    HW269310  10.416   8.023   8.401 -0.3937  1.0803  0.2114
22311SOL     OW69311   7.962   1.962  10.396 -0.5083  0.0511 -0.2506
22311SOL    HW169312   8.016   1.957  10.317 -0.0522 -1.6827  0.1389
22311SOL    HW269313   7.872   1.966  10.363 -0.4192 -2.1038 -0.8956
22312SOL     OW69314   5.888   9.518   8.613 -0.4367 -0.4081  0.2042
22312SOL    HW169315   5.814   9.470   8.576 -1.2923 -0.9100  2.4163
22312SOL    HW269316   5.886   9.497   8.706  2.4678 -0.3792  0.3564
22313SOL     OW69317   7.885   4.351   4.621  0.4487  0.0778 -0.0222
22313SOL    HW169318   7.853   4.441   4.625 -0.1518 -0.1605  1.0777
22313SOL    HW269319   7.895   4.333   4.528 -1.2285  0.6738 -0.3577
22314SOL     OW69320   1.936   0.497   9.457 -0.7249  0.1868  0.1889
22314SOL    HW169321   1.978   0.411   9.454 -1.7568 -0.3043 -0.9571
22314SOL    HW269322   1.938   0.528   9.367 -1.0773  1.0346  0.4582
22315SOL     OW69323   3.771   1.850   7.404  0.1204  1.1597 -0.3478
22315SOL    HW169324   3.810   1.789   7.341 -0.8175 -1.3509  1.3023
22315SOL    HW269325   3.759   1.931   7.355  2.1236  0.2747 -2.4931
22316SOL     OW69326   4.607   5.888   2.002 -0.2827 -0.4091  0.2628
22316SOL    HW169327   4.674   5.876   2.069  1.7145  1.0541 -1.3295
22316SOL    HW269328   4.575   5.977   2.016 -0.1959 -0.2679 -0.4040
22317SOL     OW69329   0.836   0.197   2.544 -0.4893  0.2642 -0.3708
22317SOL    HW169330   0.806   0.221   2.456 -0.7093  0.0066 -0.3668
22317SOL    HW269331   0.928   0.174   2.533 -0.7948 -0.8557 -0.7383
22318SOL     OW69332   7.850   4.601   2.992 -0.2156 -0.1089 -0.0805
22318SOL    HW169333   7.848   4.631   2.901  0.3104  0.1121 -0.0237
22318SOL    HW269334   7.761   4.617   3.024 -0.1976  0.5289 -0.3269
22319SOL     OW69335   9.039   2.683   9.252  0.3977  0.0929  0.2568
22319SOL    HW169336   9.069   2.761   9.204  0.4802 -0.5430 -0.7597
22319SOL    HW269337   8.946   2.676   9.228  0.2591  0.1774  0.7680
22320SOL     OW69338   4.514   3.386   1.033  0.6922  0.4149  0.2642
22320SOL    HW169339   4.523   3.292   1.046  0.1903  0.3250  0.0195
22320SOL    HW269340   4.578   3.407   0.964  1.3301  0.3912  0.8414
22321SOL     OW69341   8.668   1.632  10.717 -0.1574 -0.3613 -0.3181
22321SOL    HW169342   8.659   1.663  10.807  1.5262  0.2443 -0.3301
22321SOL    HW269343   8.761   1.611  10.708 -0.0634  0.6983 -2.2578
22322SOL     OW69344   7.860   9.953   0.481 -0.0895  0.3037 -0.2763
22322SOL    HW169345   7.829   9.893   0.549  0.3964  1.4924  1.0738
22322SOL    HW269346   7.839  10.040   0.516 -1.2018  0.9397 -2.3632
22323SOL     OW69347   2.065   0.831   6.489  0.2755 -0.1754  0.2135
22323SOL    HW169348   2.046   0.914   6.443 -0.1056  0.1313  0.9113
22323SOL    HW269349   2.051   0.764   6.422  0.6174  0.3190 -0.3716
22324SOL     OW69350  10.091   7.655   4.484 -0.3915 -0.2192  0.3815
22324SOL    HW169351  10.142   7.713   4.427 -0.1609  1.9132  2.5873
22324SOL    HW269352  10.147   7.579   4.498  1.3717  1.1380  1.1000
22325SOL     OW69353   5.145   7.058   6.259 -0.5692  0.0690 -0.0760
22325SOL    HW169354   5.166   7.126   6.322 -1.1756 -0.8708  1.1876
22325SOL    HW269355   5.171   7.094   6.174  0.8449  1.1157  0.7737
22326SOL     OW69356   4.543   3.361   1.906  0.0196 -0.0206 -0.4038
22326SOL    HW169357   4.614   3.408   1.949 -0.8043  0.1877  0.7527
22326SOL    HW269358   4.511   3.300   1.972  1.6494 -2.9567 -2.1198
22327SOL     OW69359   0.566   2.976   5.451 -0.3214 -0.1184  0.0592
22327SOL    HW169360   0.588   3.051   5.395 -2.1808  0.0461 -0.5281
22327SOL    HW269361   0.639   2.971   5.514  0.6532  1.1506 -0.9037
22328SOL     OW69362   9.822   5.828   7.323  0.2326  0.0461  0.5704
22328SOL    HW169363   9.807   5.865   7.236  0.1134 -0.4461  0.3793
22328SOL    HW269364   9.882   5.890   7.365  1.1302 -0.2485 -0.2342
22329SOL     OW69365   8.406   5.883   1.221 -0.1374  0.5971 -0.1553
22329SOL    HW169366   8.356   5.964   1.225  0.8641  1.1868  2.3182
22329SOL    HW269367   8.491   5.905   1.260  1.2140 -0.9685 -2.0051
22330SOL     OW69368   9.894   4.160   9.874  0.4170  0.3709  0.1785
22330SOL    HW169369   9.956   4.123   9.937 -0.7005  0.4326  1.3626
22330SOL    HW269370   9.841   4.221   9.925 -1.0758 -0.1887 -0.6118
22331SOL     OW69371   3.515   2.834   9.427  0.6437  0.4986  0.3510
22331SOL    HW169372   3.437   2.880   9.459 -0.4174 -2.1124  1.8885
22331SOL    HW269373   3.583   2.901   9.424 -1.6133  2.9185 -1.1587
22332SOL     OW69374   0.151   1.026   9.400 -0.3924  0.2381  0.3280
22332SOL    HW169375   0.203   1.053   9.325 -0.1283  1.2072  0.8507
22332SOL    HW269376   0.101   0.950   9.368 -0.1901  0.5528 -0.7786
22333SOL     OW69377   2.045  10.370   7.485 -0.2413 -0.5714 -0.3735
22333SOL    HW169378   1.980  10.319   7.437  0.6947 -2.0370 -0.1266
22333SOL    HW269379   1.998  10.449   7.512 -1.3110 -0.6035 -2.0304
22334SOL     OW69380   9.506   6.299   5.849  0.1301 -0.3523 -0.2744
22334SOL    HW169381   9.583   6.261   5.807 -0.0307 -0.2504 -0.6635
22334SOL    HW269382   9.536   6.385   5.881 -0.2907  0.4997 -2.0423
22335SOL     OW69383   4.093   3.470  10.560 -0.0432  0.4573  0.2823
22335SOL    HW169384   4.065   3.487  10.471 -0.1489 -1.0317  0.0074
22335SOL    HW269385   4.021   3.500  10.615 -0.7101 -0.1725 -0.2328
22336SOL     OW69386   2.018   4.450   6.843 -0.4899  0.5010 -0.0735
22336SOL    HW169387   2.058   4.454   6.930  0.1262  0.5484 -0.3560
22336SOL    HW269388   1.926   4.431   6.860 -0.1785 -0.5110  0.5429
22337SOL     OW69389   8.814   4.023   4.251  0.3685 -0.0725 -0.4357
22337SOL    HW169390   8.851   3.972   4.323 -0.3135 -0.4854 -0.3676
22337SOL    HW269391   8.877   4.093   4.235  1.3422 -0.9479 -0.5332
22338SOL     OW69392   5.166   3.791   4.780  0.5767  0.4244  0.3701
22338SOL    HW169393   5.080   3.834   4.776  1.3998  2.0894 -0.3232
22338SOL    HW269394   5.151   3.714   4.835 -1.6227  0.0190 -0.6609
22339SOL     OW69395   1.111   5.305   0.425  0.6040 -0.3295 -0.4818
22339SOL    HW169396   1.105   5.388   0.378  0.3445  0.2402  0.5268
22339SOL    HW269397   1.173   5.252   0.374 -0.8153 -0.3261 -2.2953
22340SOL     OW69398   3.262   9.044   0.959 -0.1989  0.6144 -0.2454
22340SOL    HW169399   3.171   9.032   0.985  0.4579 -0.7912  1.5701
22340SOL    HW269400   3.261   9.033   0.864 -1.5494 -2.5315 -0.0101
22341SOL     OW69401   9.108   8.433   9.442 -0.1865  0.0312 -0.0352
22341SOL    HW169402   9.044   8.478   9.388 -0.7451  1.4167  1.6854
22341SOL    HW269403   9.187   8.487   9.436  0.0327 -0.3023 -0.1822
22342SOL     OW69404   1.687   5.405   1.149 -0.5152 -0.1703 -0.3033
22342SOL    HW169405   1.762   5.457   1.179 -1.1065  1.0045 -0.7598
22342SOL    HW269406   1.677   5.336   1.214  0.6638 -0.0640  0.0169
22343SOL     OW69407   7.185  10.754   2.722  0.3247  0.5233 -0.1378
22343SOL    HW169408   7.132  10.823   2.761 -2.4335 -0.7107 -1.4670
22343SOL    HW269409   7.208  10.697   2.796 -1.5211  0.2944  0.3076
22344SOL     OW69410   1.206   1.804   1.421 -0.7960  0.4793  0.3581
22344SOL    HW169411   1.127   1.779   1.469 -0.5280  0.2643  0.6916
22344SOL    HW269412   1.267   1.733   1.438 -0.9504  0.0049 -0.9265
22345SOL     OW69413   2.010   1.657  10.374 -0.2935 -0.4401 -0.6214
22345SOL    HW169414   1.979   1.676  10.286 -0.9969 -0.5432 -0.4042
22345SOL    HW269415   1.939   1.607  10.414  1.2453 -3.0690 -0.9709
22346SOL     OW69416   0.638   5.125   0.137 -0.6066  0.1175  0.1200
22346SOL    HW169417   0.565   5.077   0.098 -0.5207  0.1056 -0.0289
22346SOL    HW269418   0.601   5.169   0.213 -0.8527  0.3851 -0.1502
22347SOL     OW69419   8.638   2.375   0.097  0.0953 -0.2611  0.2865
22347SOL    HW169420   8.613   2.434   0.026 -0.3144  0.9556  1.4017
22347SOL    HW269421   8.583   2.297   0.085  0.6149 -0.4374 -1.1811
22348SOL     OW69422   7.681   3.199   6.065  0.5388  0.5930  0.0961
22348SOL    HW169423   7.706   3.285   6.101  2.7380 -0.5728  1.5754
22348SOL    HW269424   7.601   3.217   6.015  0.4714  3.3543  0.9927
22349SOL     OW69425   5.739   8.717   9.708  0.0935 -0.0098 -0.1084
22349SOL    HW169426   5.661   8.772   9.712 -0.2447 -0.5475  2.4679
22349SOL    HW269427   5.743   8.675   9.794  1.6723 -2.1676 -1.1465
22350SOL     OW69428   5.844   7.187   1.970  0.2747  0.1722 -0.2279
22350SOL    HW169429   5.798   7.247   2.028 -1.3844 -1.0576 -0.1918
22350SOL    HW269430   5.926   7.230   1.950 -0.8246  2.4229 -0.1572
22351SOL     OW69431   8.517   6.684   8.633  0.3303 -0.2394 -0.1370
22351SOL    HW169432   8.601   6.709   8.594  0.7245  0.0795  0.8961
22351SOL    HW269433   8.479   6.623   8.569  0.6656  0.7424 -1.3059
22352SOL     OW69434   3.623   1.868   9.486  0.2328  0.0275  0.2913
22352SOL    HW169435   3.615   1.800   9.552 -0.3404 -0.1936  0.0044
22352SOL    HW269436   3.692   1.926   9.518  0.1735 -0.2505  0.9208
22353SOL     OW69437   7.739   1.817   2.675  0.1157  0.2939  0.5569
22353SOL    HW169438   7.700   1.797   2.760 -0.7388 -0.6225 -0.0208
22353SOL    HW269439   7.705   1.749   2.616 -2.3997  2.9825 -1.4039
22354SOL     OW69440  10.016   1.317   9.400  0.1520 -0.4902  0.3746
22354SOL    HW169441   9.971   1.266   9.468  0.8854 -1.6239  0.0372
22354SOL    HW269442  10.103   1.276   9.393  1.6287  2.1785  1.6429
22355SOL     OW69443   2.372   1.331   6.459 -0.1319  0.3049 -0.0088
22355SOL    HW169444   2.403   1.285   6.381  1.0529  0.6671  0.2222
22355SOL    HW269445   2.340   1.415   6.427 -1.8825 -0.4617 -0.3767
22356SOL     OW69446  10.400   3.128  10.063  0.5586 -0.3377  0.3161
22356SOL    HW169447  10.396   3.066  10.136  1.8050 -1.1963 -0.3103
22356SOL    HW269448  10.474   3.185  10.085  0.4258 -0.0876  0.1087
22357SOL     OW69449   5.534   4.676   3.053  0.0488 -0.1976 -0.1766
22357SOL    HW169450   5.463   4.649   2.996 -0.1205  1.5824 -0.8931
22357SOL    HW269451   5.514   4.637   3.138 -2.4805  1.1902 -0.0323
22358SOL     OW69452   8.860   0.405   0.738  0.2148 -0.0865  0.6158
22358SOL    HW169453   8.918   0.459   0.683  1.1963 -2.0055 -0.3613
22358SOL    HW269454   8.866   0.444   0.825 -0.7834  2.6064 -0.4354
22359SOL     OW69455   0.381  10.291   6.863 -0.1594  0.2018 -0.3709
22359SOL    HW169456   0.471  10.260   6.876 -0.6098 -1.1078 -0.1630
22359SOL    HW269457   0.363  10.344   6.940  1.2086  2.5392 -1.5282
22360SOL     OW69458   1.098   4.452   5.662 -0.4922  0.0586  0.4496
22360SOL    HW169459   1.054   4.466   5.578  0.4579 -1.0949 -0.2689
22360SOL    HW269460   1.078   4.530   5.713 -3.1086 -0.2736  0.0598
22361SOL     OW69461   7.784   2.805   1.379  0.2233  0.5501 -0.1538
22361SOL    HW169462   7.707   2.852   1.345  0.6096  1.0491 -0.3622
22361SOL    HW269463   7.761   2.713   1.372 -0.4466  0.6973 -0.0022
22362SOL     OW69464   8.734   8.227   2.692 -0.6912  0.1127 -0.7127
22362SOL    HW169465   8.642   8.239   2.715 -0.0816  2.9273  0.7251
22362SOL    HW269466   8.768   8.316   2.681  1.9859 -0.8040 -0.6290
22363SOL     OW69467   2.872   0.294   5.383  0.2983 -0.1976  0.2791
22363SOL    HW169468   2.906   0.292   5.473  0.2082 -0.7884  0.3096
22363SOL    HW269469   2.889   0.382   5.352  1.1959 -0.2685  0.5490
22364SOL     OW69470   1.375   7.066   2.947 -0.8675 -0.3576 -0.2648
22364SOL    HW169471   1.455   7.047   2.997 -0.6561 -0.4061 -0.6140
22364SOL    HW269472   1.388   7.155   2.915 -2.3469  0.8698  2.2985
22365SOL     OW69473   9.658   4.552   4.492  0.8012  0.8134 -0.1547
22365SOL    HW169474   9.672   4.568   4.585  0.6975  4.1907 -0.5932
22365SOL    HW269475   9.710   4.474   4.473  0.7502 -0.0415  2.6985
22366SOL     OW69476   3.991   6.405   5.082 -0.3501  0.5888 -0.3661
22366SOL    HW169477   3.940   6.349   5.024 -0.8770 -0.0687  0.6818
22366SOL    HW269478   4.055   6.346   5.122  0.0299  1.0363 -0.3021
22367SOL     OW69479   2.934   3.778   4.009  0.0620 -0.3277 -0.2326
22367SOL    HW169480   2.994   3.736   4.070 -0.3665  0.3667  0.6865
22367SOL    HW269481   2.924   3.714   3.938 -0.1334 -1.5248  0.8429
22368SOL     OW69482   6.752   8.364   3.138 -0.0912  0.2699 -0.7894
22368SOL    HW169483   6.673   8.410   3.168  0.4934  1.1552 -0.5614
22368SOL    HW269484   6.766   8.295   3.202  0.4010  1.3274  0.2877
22369SOL     OW69485   7.235   4.213  10.708 -0.0278  0.4758 -0.0087
22369SOL    HW169486   7.140   4.220  10.705 -0.3725 -2.7968 -0.6493
22369SOL    HW269487   7.260   4.181  10.621  1.6575  1.0217  0.2244
22370SOL     OW69488   5.407   5.686   2.508 -0.3163  0.2536 -0.0423
22370SOL    HW169489   5.396   5.762   2.565  0.8101  1.2243 -1.0744
22370SOL    HW269490   5.466   5.628   2.557 -1.0678  0.0792  0.6846
22371SOL     OW69491   4.723   7.605   0.474  0.4305 -0.2528  0.8627
22371SOL    HW169492   4.815   7.583   0.460  0.9373  1.9708  0.3608
22371SOL    HW269493   4.723   7.666   0.547 -0.9649 -2.1784  2.5650
22372SOL     OW69494   8.688   4.932   9.819 -0.2876 -0.5252 -0.0853
22372SOL    HW169495   8.637   4.937   9.900 -1.3113 -0.2393 -0.7255
22372SOL    HW269496   8.744   4.855   9.831 -0.9511 -0.9173  0.6070
22373SOL     OW69497   0.471   0.846   5.560 -0.1738 -0.7672 -0.3666
22373SOL    HW169498   0.519   0.909   5.506 -1.0609 -0.7303 -1.1224
22373SOL    HW269499   0.489   0.761   5.519  0.2568 -0.9127  0.1019
22374SOL     OW69500  10.563   7.357   6.726 -0.0364  0.4773  0.0122
22374SOL    HW169501  10.546   7.355   6.820 -0.7320 -0.0055 -0.1112
22374SOL    HW269502  10.639   7.415   6.716  0.1519  0.3969  0.8813
22375SOL     OW69503   3.540   6.156   2.055 -0.3983  0.0448 -0.5132
22375SOL    HW169504   3.542   6.217   1.980  2.2915  1.4515  0.5831
22375SOL    HW269505   3.601   6.087   2.031 -0.4639 -0.1477 -0.1199
22376SOL     OW69506   8.597   4.294   1.289 -1.2238  0.0119 -0.0366
22376SOL    HW169507   8.539   4.365   1.314 -0.8456  0.1829  0.3841
22376SOL    HW269508   8.563   4.217   1.336 -1.3375  0.0284 -0.0938
22377SOL     OW69509   8.015   2.958   9.874 -0.7101  0.3659 -0.1241
22377SOL    HW169510   8.077   3.004   9.931  0.1742  1.0675 -1.5885
22377SOL    HW269511   8.007   2.871   9.913  0.0289  0.7525  0.9448
22378SOL     OW69512   5.273   3.223   2.336  0.3396 -0.3155 -0.0493
22378SOL    HW169513   5.211   3.229   2.264  1.1056  1.7969 -0.5906
22378SOL    HW269514   5.218   3.212   2.414 -0.6374  0.3018 -0.6393
22379SOL     OW69515   8.882   6.834   7.151  0.1778 -0.4530 -0.1673
22379SOL    HW169516   8.954   6.889   7.120  0.6635 -1.2725 -0.5149
22379SOL    HW269517   8.815   6.896   7.179  0.6863  0.3163 -0.6296
22380SOL     OW69518   7.955   7.123   1.626  0.3365 -0.1958 -0.1429
22380SOL    HW169519   8.050   7.113   1.632  0.3515  0.4971  0.9241
22380SOL    HW269520   7.930   7.171   1.705 -1.0824 -1.6755  0.3674
22381SOL     OW69521   2.962   7.582   6.574  0.0845  0.0898  0.4121
22381SOL    HW169522   2.962   7.598   6.479 -1.4157 -1.8086  0.0113
22381SOL    HW269523   3.028   7.514   6.586 -0.7801 -0.7601  0.4681
22382SOL     OW69524   4.373   7.848   0.857 -0.3905  0.6829  0.2237
22382SOL    HW169525   4.320   7.848   0.778  0.8206  0.2987 -0.6025
22382SOL    HW269526   4.444   7.911   0.840  2.3353 -2.3979 -0.7473
22383SOL     OW69527   5.301   5.607   5.765 -0.3937 -0.0739 -0.7002
22383SOL    HW169528   5.272   5.660   5.691  0.7970  0.4215 -0.8343
22383SOL    HW269529   5.291   5.663   5.841 -0.2166 -0.0572 -0.6883
22384SOL     OW69530   7.110   6.697   0.764 -0.5078 -0.3478  0.1251
22384SOL    HW169531   7.132   6.610   0.732  0.5697  0.0909 -0.3958
22384SOL    HW269532   7.157   6.705   0.847 -0.0926 -0.0482 -0.1316
22385SOL     OW69533   0.263   6.791   3.653  0.2967  0.4138 -0.4670
22385SOL    HW169534   0.197   6.724   3.674  2.3010 -1.2266  1.1416
22385SOL    HW269535   0.293   6.768   3.565 -0.0419  0.0543 -0.4937
22386SOL     OW69536   9.475   4.113   6.156 -0.3445 -0.0377 -0.1453
22386SOL    HW169537   9.486   4.175   6.228  1.1552 -0.8292  0.3553
22386SOL    HW269538   9.541   4.139   6.092  1.0528 -1.7065  0.5413
22387SOL     OW69539   6.249   2.392   6.613  0.1404 -0.1005 -0.0001
22387SOL    HW169540   6.229   2.471   6.563 -0.8083 -0.2232  0.1643
22387SOL    HW269541   6.312   2.421   6.679  1.2545  0.1031 -1.1184
22388SOL     OW69542   0.260   8.918   0.724 -0.2629  0.1861  0.2882
22388SOL    HW169543   0.285   8.858   0.653 -0.4985  0.9881 -0.4968
22388SOL    HW269544   0.217   8.862   0.788  0.9460 -0.7443  0.3265
22389SOL     OW69545   0.916   6.564   1.194 -0.3539 -0.1784  0.0790
22389SOL    HW169546   1.011   6.567   1.211 -0.5080 -0.9949  1.2198
22389SOL    HW269547   0.887   6.655   1.207  0.3313  0.1739 -0.7367
22390SOL     OW69548   5.265   5.169   4.381 -0.1373  0.1511 -0.0669
22390SOL    HW169549   5.290   5.192   4.471 -0.1610  1.2848 -0.3258
22390SOL    HW269550   5.304   5.239   4.327  0.7076 -1.0446 -1.0565
22391SOL     OW69551   5.498   2.481   7.844 -0.0802  0.0904  0.2674
22391SOL    HW169552   5.477   2.570   7.815 -1.6361 -0.6891 -1.1621
22391SOL    HW269553   5.589   2.467   7.816 -0.2965  0.7213 -0.7859
22392SOL     OW69554   5.169   5.468   2.107  0.1557 -0.0625 -0.3637
22392SOL    HW169555   5.211   5.384   2.086  0.6581 -0.5928  2.4485
22392SOL    HW269556   5.240   5.532   2.103  0.4302 -0.3029  0.4895
22393SOL     OW69557   0.947   1.617   8.192  0.4130  0.4254 -0.0462
22393SOL    HW169558   1.020   1.643   8.249  1.1767 -1.0404 -0.3068
22393SOL    HW269559   0.982   1.545   8.140 -1.4571 -0.8247  0.3386
22394SOL     OW69560   2.934   5.352   5.155 -0.1482  0.2574  0.1249
22394SOL    HW169561   3.004   5.293   5.183  0.1495  0.9957  0.9787
22394SOL    HW269562   2.902   5.391   5.237 -1.2197  0.2992 -0.3059
22395SOL     OW69563   6.649   6.681   3.153 -0.3943  0.4087  0.1892
22395SOL    HW169564   6.735   6.690   3.113  0.4173 -1.4308  1.3900
22395SOL    HW269565   6.593   6.648   3.082  0.8708 -2.1959  0.2792
22396SOL     OW69566   9.824   7.983   7.117  0.6719 -0.1946  0.5938
22396SOL    HW169567   9.767   8.058   7.098 -1.1754 -2.3999 -4.2356
22396SOL    HW269568   9.902   7.999   7.064  0.4374 -1.4176 -0.1494
22397SOL     OW69569   9.880   9.588   0.456 -0.4725 -0.3710  0.0616
22397SOL    HW169570   9.852   9.512   0.404  1.1196 -0.2779 -1.0141
22397SOL    HW269571   9.832   9.662   0.419  0.6638 -0.2983 -1.3944
22398SOL     OW69572   7.010   9.782   8.693  0.2442  0.0978 -0.6633
22398SOL    HW169573   6.996   9.705   8.747  0.6352  1.1277  0.9921
22398SOL    HW269574   6.923   9.822   8.685  0.3539  0.5305  0.1754
22399SOL     OW69575   9.923   6.371   5.894  0.1683  0.1611  0.6160
22399SOL    HW169576   9.915   6.395   5.802 -0.4231  1.1094  0.8977
22399SOL    HW269577  10.014   6.390   5.917  0.3652 -0.2499  0.1905
22400SOL     OW69578   0.883   3.989   1.044 -0.3273  0.0839 -0.7083
22400SOL    HW169579   0.854   3.927   0.976  3.2300 -0.3232 -2.0588
22400SOL    HW269580   0.978   3.992   1.034  0.0879  2.0852  2.5862
22401SOL     OW69581   1.814   3.980   0.421  0.5577  0.4212  0.9060
22401SOL    HW169582   1.743   3.929   0.382  0.6525  0.9510  0.0170
22401SOL    HW269583   1.803   3.968   0.515 -0.8955  0.7268  0.7967
22402SOL     OW69584   9.700  10.204   2.573  0.3783  0.3944  0.6955
22402SOL    HW169585   9.639  10.259   2.524 -0.9664 -0.2825  1.5777
22402SOL    HW269586   9.780  10.257   2.580 -0.3899  1.6376  0.2815
22403SOL     OW69587   9.161   1.141   6.946  0.2706 -0.6761 -0.2531
22403SOL    HW169588   9.211   1.059   6.936  1.4114 -0.0206 -0.1021
22403SOL    HW269589   9.103   1.143   6.871  1.7988 -0.5591 -1.4787
22404SOL     OW69590  10.624   4.368   3.712  0.1350 -0.4203 -1.2942
22404SOL    HW169591  10.659   4.456   3.700 -1.6796  0.4885 -0.3230
22404SOL    HW269592  10.699   4.310   3.698  1.3424  1.2564 -2.0477
22405SOL     OW69593   3.056   0.838   2.412  0.9013  0.4084  0.2739
22405SOL    HW169594   3.035   0.800   2.327  1.6742 -0.1668  0.3361
22405SOL    HW269595   2.971   0.865   2.448  0.6406  1.3954 -1.0105
22406SOL     OW69596   9.343   6.473   8.374  0.4379  0.5538  0.1466
22406SOL    HW169597   9.368   6.532   8.445  0.9450  0.5263 -0.0054
22406SOL    HW269598   9.265   6.427   8.407 -0.0850  1.4441  0.1852
22407SOL     OW69599   8.327   1.598   0.814  0.2405  0.2532  0.1221
22407SOL    HW169600   8.417   1.585   0.785 -0.0397  1.3357 -1.3502
22407SOL    HW269601   8.305   1.518   0.861  1.5141 -0.6003 -0.6897
22408SOL     OW69602   1.952  10.251   4.979 -0.6080  0.5147  0.2145
22408SOL    HW169603   2.009  10.202   5.037  0.3702  0.3157 -0.8779
22408SOL    HW269604   1.913  10.185   4.921 -0.3370  0.8616 -0.3798
22409SOL     OW69605   5.277   5.055   8.422 -0.3928 -0.3079  0.9451
22409SOL    HW169606   5.215   4.995   8.464 -0.6112 -0.0008  1.0613
22409SOL    HW269607   5.235   5.080   8.340 -0.5474  0.1091  1.1467
22410SOL     OW69608  10.216   5.278  10.392 -0.5719  0.0156  0.6948
22410SOL    HW169609  10.238   5.370  10.375  0.1575 -0.2443  0.1796
22410SOL    HW269610  10.269   5.229  10.329 -0.7766 -0.7698  1.1273
22411SOL     OW69611   2.839   5.959   6.498  0.3192 -0.1496  0.6758
22411SOL    HW169612   2.867   5.868   6.507 -0.8882 -0.7455 -1.0094
22411SOL    HW269613   2.900   6.009   6.552  1.6437 -1.8482  0.8254
22412SOL     OW69614   5.167  10.744   1.854  0.2390  0.0838  0.1483
22412SOL    HW169615   5.149  10.714   1.942  0.4828 -2.4906 -0.5983
22412SOL    HW269616   5.117  10.685   1.797  0.5030  1.3243 -1.4597
22413SOL     OW69617   7.577   7.389   7.521  0.0365 -0.0665 -0.4481
22413SOL    HW169618   7.572   7.450   7.595  1.1446 -0.7702  0.2261
22413SOL    HW269619   7.485   7.366   7.504 -0.2370  0.0930  0.7164
22414SOL     OW69620   6.305   9.044   4.887  0.1059 -0.1212  0.1782
22414SOL    HW169621   6.333   8.956   4.866 -0.2253 -0.4070  0.8864
22414SOL    HW269622   6.229   9.060   4.830  1.4243  0.5196 -1.4732
22415SOL     OW69623   1.723   3.111   1.477 -0.0246 -0.5266 -0.0434
22415SOL    HW169624   1.665   3.186   1.487  1.1289  0.3489  0.1761
22415SOL    HW269625   1.707   3.081   1.388 -2.3234 -1.6165  0.6397
22416SOL     OW69626   9.987   8.069   0.566  0.4391  0.0392  0.2168
22416SOL    HW169627  10.014   8.126   0.494 -0.0385 -1.4916 -1.2485
22416SOL    HW269628   9.942   8.127   0.627 -1.6755  1.0195 -2.0852
22417SOL     OW69629   0.007   2.250   2.812 -0.2379  0.4835 -0.3830
22417SOL    HW169630   0.060   2.172   2.795 -0.2988 -0.5148  3.2288
22417SOL    HW269631  -0.059   2.249   2.742  0.6215 -1.8746 -1.2838
22418SOL     OW69632   9.415   0.386   1.979 -0.3123 -0.5098 -0.0172
22418SOL    HW169633   9.443   0.408   1.890 -0.4164 -1.4131 -0.2804
22418SOL    HW269634   9.427   0.467   2.029  0.2047 -0.1331 -0.7428
22419SOL     OW69635   2.272   0.215   6.278 -0.6749  0.0215 -0.0921
22419SOL    HW169636   2.337   0.249   6.217 -1.5720 -0.1140 -1.1458
22419SOL    HW269637   2.324   0.180   6.351  0.4943 -1.2997 -1.5054
22420SOL     OW69638   3.015   2.785   5.102 -0.2832 -0.1843  0.0703
22420SOL    HW169639   3.030   2.695   5.131  1.6173 -0.6379 -2.0153
22420SOL    HW269640   3.035   2.839   5.178  0.4502 -1.4644  0.8209
22421SOL     OW69641   1.261   4.975   4.209  0.5857 -0.2239 -0.1205
22421SOL    HW169642   1.202   4.943   4.276  0.5833  0.8433  0.4117
22421SOL    HW269643   1.317   4.901   4.188  0.8685 -0.4630  1.3739
22422SOL     OW69644   0.782   4.995   2.023  0.1274  0.1480  0.1852
22422SOL    HW169645   0.818   4.940   1.953  0.3928 -0.5155  0.8300
22422SOL    HW269646   0.755   5.075   1.979  0.8406 -0.0204 -0.5814
22423SOL     OW69647   3.795   3.488   1.103  0.0544 -0.3904  0.2998
22423SOL    HW169648   3.871   3.446   1.143  0.1934  0.2105  0.6839
22423SOL    HW269649   3.764   3.549   1.169 -1.4373 -1.4024  0.5739
22424SOL     OW69650   9.131   9.020   4.949 -0.3560 -0.0221 -0.0644
22424SOL    HW169651   9.103   9.109   4.931 -0.8692 -0.4946 -1.8749
22424SOL    HW269652   9.219   9.014   4.912 -0.8230 -0.5989 -1.1228
22425SOL     OW69653   7.099   2.277   7.029  0.1578  0.0324  0.1466
22425SOL    HW169654   7.096   2.195   7.079 -0.0740  1.2842  2.2980
22425SOL    HW269655   7.036   2.263   6.958  1.1621 -2.1507 -0.4131
22426SOL     OW69656   9.864   8.185   4.332  0.6916 -0.1146 -0.1099
22426SOL    HW169657   9.823   8.199   4.247  0.8901 -1.7881 -0.5128
22426SOL    HW269658   9.926   8.258   4.342  0.5547  0.1802 -1.3267
22427SOL     OW69659   7.659   3.110   4.526  0.3840  0.1117 -0.3366
22427SOL    HW169660   7.691   3.084   4.612 -0.3869 -0.9036 -0.3325
22427SOL    HW269661   7.563   3.105   4.533  0.3133 -0.2723 -1.3227
22428SOL     OW69662   6.694   9.156   6.586  0.0729  0.2642 -0.4481
22428SOL    HW169663   6.653   9.070   6.579  1.4645 -0.4776  0.1095
22428SOL    HW269664   6.782   9.138   6.619  1.7890  1.5310 -3.8520
22429SOL     OW69665   4.479   0.527   2.468  0.0129  0.1915  0.0073
22429SOL    HW169666   4.503   0.579   2.545 -0.7821  0.8791 -0.1932
22429SOL    HW269667   4.447   0.444   2.504 -0.4375  0.5426  0.4242
22430SOL     OW69668  10.400   8.443   2.381 -0.5588  0.3515 -0.6452
22430SOL    HW169669  10.444   8.527   2.393 -0.4621  0.1791  0.2829
22430SOL    HW269670  10.334   8.440   2.450  0.0896 -0.7455 -0.0354
22431SOL     OW69671   0.035   3.075   0.666  0.1478  0.0398 -0.4541
22431SOL    HW169672   0.077   3.006   0.718  1.8661  1.9079  0.7810
22431SOL    HW269673   0.007   3.140   0.730 -1.7851  0.3824 -1.5541
22432SOL     OW69674   6.031   9.452   7.241  0.1432  0.1722 -0.2746
22432SOL    HW169675   6.038   9.438   7.336  1.2973 -0.1242 -0.3882
22432SOL    HW269676   6.005   9.544   7.232  1.8342  0.7497  0.3185
22433SOL     OW69677   4.762   9.200   6.080  0.6689  0.1845  0.5695
22433SOL    HW169678   4.680   9.248   6.070  0.0177 -0.9506  0.2467
22433SOL    HW269679   4.818   9.233   6.009  1.0442  1.9797  1.6340
22434SOL     OW69680  10.400   2.765   9.325  0.3490  0.1939  0.1027
22434SOL    HW169681  10.476   2.709   9.313  0.6001 -0.1172  2.6595
22434SOL    HW269682  10.379   2.758   9.418 -2.7431  0.3749 -0.4726
22435SOL     OW69683   4.433   4.655   3.503 -0.0097 -0.5419 -0.0383
22435SOL    HW169684   4.385   4.613   3.575  0.5516 -1.4241 -0.1583
22435SOL    HW269685   4.516   4.608   3.500 -1.1228 -2.6104 -3.1711
22436SOL     OW69686   9.229   5.353   8.595 -0.1030  0.2130 -0.2018
22436SOL    HW169687   9.324   5.352   8.592 -0.0603  1.4472  0.3098
22436SOL    HW269688   9.205   5.445   8.589 -1.2595 -0.0616 -0.1413
22437SOL     OW69689  10.358   5.198   2.661 -0.1642  0.4274 -0.1260
22437SOL    HW169690  10.309   5.239   2.732  0.4961 -0.6814  0.9972
22437SOL    HW269691  10.430   5.259   2.643  0.7049 -0.0940  1.4045
22438SOL     OW69692  10.795   4.295   5.821 -0.8691  0.0616  0.2533
22438SOL    HW169693  10.744   4.336   5.752 -1.5192 -0.1876  0.5801
22438SOL    HW269694  10.745   4.217   5.845 -1.0302  0.5247  1.4986
22439SOL     OW69695   1.445  10.000   3.108  0.2380  0.1387  0.0215
22439SOL    HW169696   1.423  10.092   3.120  0.9080  0.1653  1.1103
22439SOL    HW269697   1.486   9.996   3.021  0.9293  0.9984  0.2969
22440SOL     OW69698   1.124   2.684  10.484  0.6450  0.0575  0.4380
22440SOL    HW169699   1.030   2.691  10.500  0.8395  2.5960  0.8310
22440SOL    HW269700   1.161   2.663  10.569  0.4518 -0.9744  0.2786
22441SOL     OW69701   9.287   5.966   7.639  0.4102  0.3583 -0.0847
22441SOL    HW169702   9.316   5.940   7.551  1.1708  0.9240 -0.0122
22441SOL    HW269703   9.232   6.043   7.624  1.1570  0.9143 -0.0151
22442SOL     OW69704   7.345   9.949   8.360  0.6634  0.2432 -0.0825
22442SOL    HW169705   7.382   9.874   8.315  0.7230 -0.6104  1.3283
22442SOL    HW269706   7.332  10.015   8.291  2.5129 -0.2938 -1.0055
22443SOL     OW69707   4.486   5.462   7.006 -0.2925  0.5275 -0.6131
22443SOL    HW169708   4.516   5.552   6.994  1.8682 -0.2324 -1.3426
22443SOL    HW269709   4.471   5.429   6.917  1.8303 -0.6879 -0.5984
22444SOL     OW69710   5.569   9.010   1.916 -0.5482 -0.4918  0.4910
22444SOL    HW169711   5.629   8.986   1.987 -1.5908  0.4239  1.7177
22444SOL    HW269712   5.558   9.105   1.925 -1.2086 -0.4593 -0.5088
22445SOL     OW69713   1.313   8.958   3.388  0.0488 -0.2648 -0.0895
22445SOL    HW169714   1.338   8.966   3.481 -0.3077 -0.3027  0.0115
22445SOL    HW269715   1.306   8.864   3.374 -0.1756 -0.2482 -0.0808
22446SOL     OW69716   3.400   0.629   0.426 -0.9294 -0.1972 -0.0657
22446SOL    HW169717   3.314   0.594   0.450 -0.4762 -2.0858 -1.0710
22446SOL    HW269718   3.384   0.722   0.412 -2.6369 -0.3531  0.5862
22447SOL     OW69719   6.575   0.674   6.880 -0.3951  0.5211 -0.6116
22447SOL    HW169720   6.626   0.690   6.801  0.9019 -1.5007 -0.2685
22447SOL    HW269721   6.488   0.649   6.848  0.1663 -0.4666 -1.4550
22448SOL     OW69722   1.516   0.807   1.593 -0.2158 -0.4675  0.5007
22448SOL    HW169723   1.521   0.717   1.558 -0.9460 -0.7519  1.1080
22448SOL    HW269724   1.435   0.809   1.643 -0.6442  0.7988 -0.2076
22449SOL     OW69725   2.590   3.120   3.765  0.1908  0.5075  0.0613
22449SOL    HW169726   2.559   3.031   3.783 -0.1564  0.7103  0.4978
22449SOL    HW269727   2.655   3.136   3.834 -0.2058  0.8186  0.3670
22450SOL     OW69728   6.307   5.151   2.665  0.1695  0.6019  0.2742
22450SOL    HW169729   6.402   5.144   2.665  0.0972 -0.6193 -0.3486
22450SOL    HW269730   6.277   5.068   2.702 -0.6579  0.9497  0.4036
22451SOL     OW69731   5.837   9.796   1.956  0.1224 -0.5552 -0.0621
22451SOL    HW169732   5.898   9.722   1.957  0.7457 -0.0496  0.1942
22451SOL    HW269733   5.821   9.815   2.048  0.6637  0.1875 -0.1165
22452SOL     OW69734   4.625   4.811   5.929 -0.3573 -0.4861  0.1523
22452SOL    HW169735   4.630   4.794   5.835  0.5056  2.0877 -0.3559
22452SOL    HW269736   4.533   4.796   5.950 -0.6981 -0.5276 -1.2323
22453SOL     OW69737   8.985   7.088   9.801 -0.3954 -0.3017 -0.0974
22453SOL    HW169738   8.919   7.093   9.871  0.0994  1.3849  0.2968
22453SOL    HW269739   9.049   7.025   9.833 -0.1219  0.5254  1.0557
22454SOL     OW69740   5.439   3.243   1.217 -0.9771  0.2747  0.1219
22454SOL    HW169741   5.350   3.234   1.250 -0.7927  0.7337  0.7523
22454SOL    HW269742   5.447   3.335   1.191 -0.5181  0.3655  0.5697
22455SOL     OW69743   4.018   9.127   1.438  0.1640 -0.6161  0.2939
22455SOL    HW169744   4.048   9.217   1.427  0.6515 -0.6956  0.9223
22455SOL    HW269745   3.923   9.133   1.438  0.1864 -0.1736 -0.2117
22456SOL     OW69746   1.698   4.764   3.845  0.1159  0.1363 -0.5536
22456SOL    HW169747   1.685   4.853   3.813  1.0460  0.3963 -0.2351
22456SOL    HW269748   1.654   4.709   3.780 -1.2516  0.8559 -0.2849
22457SOL     OW69749   0.467   3.478   8.411 -0.0028 -0.2747  0.1544
22457SOL    HW169750   0.496   3.388   8.427 -0.5095 -0.3831  0.4729
22457SOL    HW269751   0.434   3.508   8.496 -1.1541 -0.2710 -0.2870
22458SOL     OW69752   9.598   1.315   2.468 -0.4938 -0.1742  0.4224
22458SOL    HW169753   9.664   1.347   2.407 -0.7451  0.0316  0.2533
22458SOL    HW269754   9.521   1.371   2.452 -0.6933 -0.3790  0.6457
22459SOL     OW69755   5.126   2.078   9.158  0.4291 -0.3693  0.4658
22459SOL    HW169756   5.152   2.169   9.140  1.4520 -1.0298 -1.8278
22459SOL    HW269757   5.030   2.079   9.154  0.4596  0.2837 -1.8571
22460SOL     OW69758   4.943   7.081   8.923 -0.2551 -0.4377 -0.1311
22460SOL    HW169759   4.876   7.021   8.890  0.1902 -1.3049  0.5045
22460SOL    HW269760   5.012   7.078   8.857 -0.0826 -0.9171  0.0581
22461SOL     OW69761   8.612   6.411   8.243  0.2128 -0.3605 -0.1414
22461SOL    HW169762   8.523   6.442   8.261 -0.2744 -0.2809 -2.3690
22461SOL    HW269763   8.651   6.400   8.329 -2.0835 -0.7907  0.9326
22462SOL     OW69764   7.279   8.890   6.722 -0.0987  0.7519  0.1510
22462SOL    HW169765   7.270   8.806   6.677 -2.0513  0.7443  0.4916
22462SOL    HW269766   7.291   8.954   6.651 -1.9871  0.5876 -0.3701
22463SOL     OW69767   7.254   5.736   9.549 -0.2486  0.2763 -0.4161
22463SOL    HW169768   7.209   5.657   9.579  0.2225 -0.2077 -0.9586
22463SOL    HW269769   7.218   5.806   9.603 -1.1420 -0.2062 -0.3626
22464SOL     OW69770   8.625   0.120   4.039 -0.5828  0.1931  0.3687
22464SOL    HW169771   8.641   0.132   4.133  1.6065  1.6633 -0.1273
22464SOL    HW269772   8.673   0.041   4.016 -0.0045  0.5679  0.2612
22465SOL     OW69773   6.240   9.274   9.889 -0.1636 -0.0753  0.2592
22465SOL    HW169774   6.267   9.360   9.859  1.1914  0.0470  1.7147
22465SOL    HW269775   6.291   9.213   9.835  0.1393  0.0700  0.3816
22466SOL     OW69776   2.284   3.164   8.088  0.0270 -0.1661 -0.0374
22466SOL    HW169777   2.334   3.168   8.170 -1.1607 -1.2423  0.7521
22466SOL    HW269778   2.284   3.072   8.064 -2.0526 -0.3007  0.2994
22467SOL     OW69779   4.482   6.899   1.809  0.1095  0.4661 -0.0099
22467SOL    HW169780   4.525   6.877   1.727 -1.7360 -1.0288 -0.6482
22467SOL    HW269781   4.391   6.872   1.796 -0.2080  0.0625  2.5539
22468SOL     OW69782   9.676   3.763   8.212  0.1108  0.0151 -0.1587
22468SOL    HW169783   9.727   3.683   8.209 -0.0100 -0.0696  0.0237
22468SOL    HW269784   9.660   3.785   8.121  1.4051  0.6439 -0.2573
22469SOL     OW69785   2.958   6.711   9.909 -0.6173  0.4369  0.1611
22469SOL    HW169786   3.041   6.673   9.881  0.4886  1.4775  1.8196
22469SOL    HW269787   2.932   6.658   9.984 -0.3861  1.3370  0.8927
22470SOL     OW69788   2.883   0.079   1.834 -0.0441  0.3788  0.1837
22470SOL    HW169789   2.941   0.037   1.770  1.6860  1.7822  0.7439
22470SOL    HW269790   2.847   0.155   1.788 -1.1993 -0.2973 -0.0525
22471SOL     OW69791   5.087   1.326   6.501 -0.6781  0.2108 -0.8613
22471SOL    HW169792   5.063   1.419   6.492 -1.9769  0.0747  0.6457
22471SOL    HW269793   5.082   1.291   6.412  1.7821  1.9630 -1.7970
22472SOL     OW69794   0.120   7.307   6.015  0.0193 -0.4216  0.2562
22472SOL    HW169795   0.164   7.244   5.959  0.8789 -0.3394  0.8187
22472SOL    HW269796   0.029   7.278   6.018 -0.3621  0.2721 -2.1695
22473SOL     OW69797   0.507   2.992   6.197 -0.4634 -0.2517  0.0846
22473SOL    HW169798   0.554   2.959   6.274 -1.9293  1.3937  1.7660
22473SOL    HW269799   0.563   3.062   6.163 -1.5725  1.6923  2.0689
22474SOL     OW69800   3.119   1.864   6.650 -0.0541  0.7556  0.0676
22474SOL    HW169801   3.138   1.943   6.598 -1.0524  1.0059  0.0658
22474SOL    HW269802   3.037   1.831   6.614  0.3974 -0.3399  0.0245
22475SOL     OW69803   7.432   2.466   8.394 -0.1832 -0.1168 -0.3942
22475SOL    HW169804   7.451   2.387   8.344 -0.0247 -0.4398  0.1703
22475SOL    HW269805   7.443   2.440   8.486 -1.2922  0.2278 -0.1395
22476SOL     OW69806   0.215   4.507   5.823  0.4030 -0.2617 -0.6957
22476SOL    HW169807   0.144   4.443   5.834  0.5680 -0.2165  0.8039
22476SOL    HW269808   0.220   4.520   5.728  0.4919 -2.5945 -1.0790
22477SOL     OW69809   2.164   3.463   8.224  0.3754  0.2144 -0.2358
22477SOL    HW169810   2.134   3.554   8.226 -0.7215 -0.1235  1.5950
22477SOL    HW269811   2.084   3.411   8.221  0.9409 -0.7001  0.0275
22478SOL     OW69812  10.435   8.430   1.334  0.3175 -0.2620  0.0553
22478SOL    HW169813  10.410   8.464   1.248  1.3310  3.0288  0.8956
22478SOL    HW269814  10.530   8.420   1.330  0.3897  0.0437  0.7926
22479SOL     OW69815   5.606   7.146   7.075  0.1493 -0.1328 -0.4360
22479SOL    HW169816   5.545   7.091   7.125  2.2030 -1.7132  0.4608
22479SOL    HW269817   5.562   7.160   6.991 -1.5408 -0.9858  0.2525
22480SOL     OW69818   2.995   9.402   9.626 -0.2244  0.4649 -0.1465
22480SOL    HW169819   2.957   9.377   9.710 -0.5158 -1.2642 -0.7664
22480SOL    HW269820   3.086   9.426   9.648  0.1920 -1.4939  0.4745
22481SOL     OW69821   4.856  10.504   9.952 -0.5215 -0.1060  0.1525
22481SOL    HW169822   4.900  10.441  10.007 -1.1558 -1.2273 -0.5884
22481SOL    HW269823   4.924  10.568   9.929  0.2635 -0.8162  0.4705
22482SOL     OW69824   1.409   7.765   6.851  0.7647 -0.2891  0.4419
22482SOL    HW169825   1.374   7.676   6.852 -3.2278  1.0614 -1.4118
22482SOL    HW269826   1.360   7.811   6.919  0.3043  1.2464 -0.8638
22483SOL     OW69827   1.046   0.161   6.081 -0.1210  0.4010 -0.2936
22483SOL    HW169828   1.136   0.184   6.058 -0.4779  3.6812  1.1119
22483SOL    HW269829   1.044   0.164   6.177 -2.0159  1.7872 -0.3357
22484SOL     OW69830  10.030   6.938   7.437 -0.0115 -0.4843  0.6651
22484SOL    HW169831   9.951   6.887   7.419  0.1619 -0.5937  0.2042
22484SOL    HW269832  10.087   6.879   7.485 -0.3366 -0.3018  1.2913
22485SOL     OW69833   6.144   1.023   3.651  0.5353 -0.0937  0.3287
22485SOL    HW169834   6.204   0.992   3.583  0.3180 -2.0127  0.9571
22485SOL    HW269835   6.103   0.943   3.685 -0.1490  0.9187  1.9878
22486SOL     OW69836   1.895   9.730   9.783 -0.4530 -0.3703 -0.1634
22486SOL    HW169837   1.857   9.789   9.717 -0.1494 -0.5897 -0.5378
22486SOL    HW269838   1.946   9.667   9.732 -1.2698 -1.3455  0.1746
22487SOL     OW69839  10.498   7.882   3.986  0.1481 -0.3483 -0.3071
22487SOL    HW169840  10.461   7.959   3.942 -2.2371 -0.9651  0.4580
22487SOL    HW269841  10.463   7.807   3.938  0.6141 -0.9868  0.3199
22488SOL     OW69842   1.216   2.028  10.718  0.2222 -0.3864 -0.8637
22488SOL    HW169843   1.196   1.964  10.650 -1.8830  0.2159 -0.8659
22488SOL    HW269844   1.136   2.034  10.770  0.9473  1.0153  0.1616
22489SOL     OW69845   7.122   9.294   2.674  0.6710 -0.3462 -0.2058
22489SOL    HW169846   7.047   9.306   2.616 -0.2174  3.0692  1.4219
22489SOL    HW269847   7.195   9.335   2.628  0.3249  0.9641  0.3952
22490SOL     OW69848   2.638   1.149   8.616 -0.1211 -0.5899  0.5124
22490SOL    HW169849   2.671   1.067   8.580 -0.3486 -1.0761  1.3915
22490SOL    HW269850   2.711   1.184   8.667  0.4272  0.4241 -0.8866
22491SOL     OW69851   9.620   0.406   6.504 -0.0545  0.2079 -0.5217
22491SOL    HW169852   9.696   0.378   6.554  1.3259  1.4495 -1.8297
22491SOL    HW269853   9.577   0.471   6.559  1.4319  1.5425 -0.8670
22492SOL     OW69854   7.609   0.256   0.270  0.6042  0.0218 -0.1109
22492SOL    HW169855   7.662   0.253   0.191  1.0311  0.5323  0.1500
22492SOL    HW269856   7.655   0.201   0.333 -1.3029 -2.9475 -1.1086
22493SOL     OW69857  10.299   9.752   7.025 -0.2310 -0.2193  0.2772
22493SOL    HW169858  10.350   9.709   7.093  0.8139 -1.4498 -1.1980
22493SOL    HW269859  10.341   9.837   7.013 -0.6986  0.1931  1.4288
22494SOL     OW69860   5.397   8.767   6.126  0.1707 -0.2988  0.1359
22494SOL    HW169861   5.477   8.817   6.113 -0.5455  0.7359 -0.3928
22494SOL    HW269862   5.402   8.695   6.063 -0.1950  0.8804 -1.2921
22495SOL     OW69863   4.939   5.609   5.511  0.0343  0.1075  0.0839
22495SOL    HW169864   4.963   5.516   5.520 -0.1197  0.1670  1.2957
22495SOL    HW269865   5.006   5.656   5.561 -1.2348  0.4472  1.5401
22496SOL     OW69866   8.021   9.456   8.011 -0.6568  0.0903  0.4841
22496SOL    HW169867   7.994   9.377   7.965 -1.4540  0.2266  0.6950
22496SOL    HW269868   7.947   9.516   8.001  0.6661  1.5581 -1.3381
22497SOL     OW69869   9.471   0.633   8.471  0.0359  0.1394 -0.0363
22497SOL    HW169870   9.499   0.717   8.436 -1.1119  0.4630 -0.2117
22497SOL    HW269871   9.379   0.627   8.449 -0.7268  0.2638  2.7093
22498SOL     OW69872   8.277   2.719   9.376  0.5076  0.3828  0.3280
22498SOL    HW169873   8.201   2.677   9.335  0.4340  0.0717  0.7739
22498SOL    HW269874   8.254   2.723   9.469  0.9418  0.5048  0.4307
22499SOL     OW69875   9.335   2.836   4.132 -0.7479 -0.2374 -0.3218
22499SOL    HW169876   9.318   2.799   4.045  1.9237 -1.7490 -0.3391
22499SOL    HW269877   9.273   2.791   4.190 -1.6341 -0.2393 -1.2458
22500SOL     OW69878   1.363   5.535  10.542 -0.0114  0.3371  0.0403
22500SOL    HW169879   1.269   5.521  10.533 -0.2241  2.0968 -0.8731
22500SOL    HW269880   1.397   5.451  10.571 -2.0336  0.0272  1.7267
22501SOL     OW69881   6.686   1.978   3.988 -0.5527  0.0674 -0.3146
22501SOL    HW169882   6.718   2.061   3.952 -0.1155  0.4740  0.9621
22501SOL    HW269883   6.735   1.911   3.940  0.2636  0.6022 -0.2512
22502SOL     OW69884   4.002   2.068   3.760  0.0722  0.2196  0.1450
22502SOL    HW169885   4.069   2.006   3.788 -0.4851 -0.7988 -0.7171
22502SOL    HW269886   4.051   2.145   3.731  1.0292 -1.0824 -1.9463
22503SOL     OW69887   7.666   7.973   7.754 -0.7115 -0.1774 -0.0041
22503SOL    HW169888   7.725   8.041   7.786  0.7462 -0.6776 -1.4650
22503SOL    HW269889   7.608   8.019   7.692  0.9385 -0.3671 -1.7797
22504SOL     OW69890   9.088   0.487   3.642 -0.1016 -0.3307  0.0494
22504SOL    HW169891   9.093   0.404   3.690 -1.3914 -0.3631  0.1651
22504SOL    HW269892   8.996   0.496   3.619  0.7301 -1.7590 -5.0247
22505SOL     OW69893   4.892   1.664   3.164 -0.0336 -0.4650 -0.2200
22505SOL    HW169894   4.920   1.586   3.116 -1.4137 -1.0112 -0.1661
22505SOL    HW269895   4.850   1.719   3.098  1.4326  0.5330 -0.3777
22506SOL     OW69896   5.788   5.910   4.646 -0.1788  0.1267  0.1931
22506SOL    HW169897   5.810   5.825   4.608  0.2030  0.2066  0.2260
22506SOL    HW269898   5.805   5.973   4.575  0.0069  0.2216  0.3200
22507SOL     OW69899   6.378   7.130   6.323 -0.1862 -0.1350  0.7302
22507SOL    HW169900   6.387   7.160   6.414  0.2323 -0.6799  0.8721
22507SOL    HW269901   6.290   7.159   6.297 -0.7122 -0.8351  1.6403
22508SOL     OW69902   3.896  10.699   9.150 -0.0281  0.0909  0.7759
22508SOL    HW169903   3.951  10.712   9.073  0.3571 -0.0502  1.0254
22508SOL    HW269904   3.945  10.740   9.222 -0.0867 -0.3381  1.0636
22509SOL     OW69905   8.050   4.717   6.643 -0.0613 -0.0404 -0.4123
22509SOL    HW169906   8.010   4.804   6.641  2.0201  0.9781 -0.7043
22509SOL    HW269907   8.012   4.675   6.721 -2.7369  0.2381 -1.4707
22510SOL     OW69908   2.445   9.861   6.302  0.2719 -0.0151  0.3674
22510SOL    HW169909   2.407   9.857   6.214 -0.3935 -0.6409  0.6635
22510SOL    HW269910   2.529   9.904   6.291  1.5522 -2.6450 -1.0660
22511SOL     OW69911  10.371   0.454   1.631  0.1000 -0.4909  0.0202
22511SOL    HW169912  10.298   0.488   1.580  0.5318 -1.2790 -1.1675
22511SOL    HW269913  10.330   0.421   1.711 -0.7100 -0.0197 -0.1850
22512SOL     OW69914   5.627  10.083   0.915  0.3570 -0.5206  0.0036
22512SOL    HW169915   5.646  10.057   0.825 -2.2842 -2.2754 -0.1548
22512SOL    HW269916   5.599  10.003   0.958  0.7387  0.4461  2.1926
22513SOL     OW69917   0.689   7.423   3.201 -0.0985 -0.4517 -0.4657
22513SOL    HW169918   0.745   7.425   3.278  1.4131 -1.0254 -1.4913
22513SOL    HW269919   0.698   7.510   3.162 -1.5190  0.1241  0.4017
22514SOL     OW69920   1.506   4.021   3.300 -0.4050 -0.3606  0.4789
22514SOL    HW169921   1.449   3.986   3.368 -2.1327  0.3109 -0.5757
22514SOL    HW269922   1.473   3.983   3.219  0.0255  0.8307 -0.2762
22515SOL     OW69923   5.760   0.972   0.742 -0.4895 -0.1033  0.3804
22515SOL    HW169924   5.847   0.980   0.782  0.0034  1.5253 -0.9046
22515SOL    HW269925   5.750   0.878   0.727 -0.3273 -0.7107  3.3871
22516SOL     OW69926   2.004   5.065   0.507 -0.3889 -0.8985  0.2835
22516SOL    HW169927   1.981   5.004   0.577  0.7096  0.2352  1.7000
22516SOL    HW269928   2.061   5.015   0.449 -0.8765 -1.6967  0.4780
22517SOL     OW69929   8.126   3.204   3.724 -0.1492 -0.1976 -0.0330
22517SOL    HW169930   8.045   3.199   3.776 -1.4272  0.9130 -1.8200
22517SOL    HW269931   8.121   3.131   3.663  0.9558 -1.0088  0.8002
22518SOL     OW69932   4.775   6.383   8.385 -0.2062 -0.2604 -0.5819
22518SOL    HW169933   4.730   6.434   8.451  1.4792  0.4346  0.0761
22518SOL    HW269934   4.802   6.303   8.430 -0.6723 -0.6353 -0.9491
22519SOL     OW69935   8.630   3.735   9.238  0.2831 -0.0810 -0.2154
22519SOL    HW169936   8.633   3.657   9.182  1.1540 -1.0794  1.1746
22519SOL    HW269937   8.547   3.778   9.215 -0.0476 -1.2174 -1.2460
22520SOL     OW69938   7.818   0.589   1.914 -0.2941 -0.4960 -0.1953
22520SOL    HW169939   7.872   0.515   1.943  0.6077 -0.6604 -2.1817
22520SOL    HW269940   7.858   0.618   1.833 -0.0097  2.8700  1.0022
22521SOL     OW69941   3.357   9.341   8.399 -0.0877 -0.0457  0.2605
22521SOL    HW169942   3.293   9.402   8.437  0.5605  0.4552  0.5669
22521SOL    HW269943   3.386   9.384   8.319 -0.3648 -0.4257 -0.0512
22522SOL     OW69944   2.828   9.457  10.767  0.1087 -0.7999  0.5162
22522SOL    HW169945   2.759   9.487  10.708  0.3957 -1.4123 -0.1466
22522SOL    HW269946   2.832   9.362  10.754  1.3636 -0.7260  0.2230
22523SOL     OW69947   6.987   8.355  10.752  0.0518  0.1097  0.0142
22523SOL    HW169948   7.064   8.300  10.769 -1.9992 -2.8244  0.5141
22523SOL    HW269949   6.976   8.351  10.657 -0.0658 -0.2860  0.0452
22524SOL     OW69950   6.939   7.244   7.969  0.2250  0.2526  0.4567
22524SOL    HW169951   6.872   7.221   7.904  0.5563 -0.5178  0.3845
22524SOL    HW269952   6.928   7.180   8.039  0.9780  0.0338  0.3829
22525SOL     OW69953   0.308   1.835   2.541 -0.2284 -0.1845  0.4138
22525SOL    HW169954   0.260   1.773   2.485  1.4267  0.2273 -1.6108
22525SOL    HW269955   0.361   1.779   2.597  0.9165 -0.6939 -1.0915
22526SOL     OW69956   7.225   6.353   7.317 -0.0431 -0.2835 -0.3179
22526SOL    HW169957   7.209   6.442   7.286  0.2679 -0.0393  0.2222
22526SOL    HW269958   7.207   6.356   7.411 -1.1950 -1.0720 -0.4955
22527SOL     OW69959   1.835   5.830   4.549  0.3637 -0.2973  0.2978
22527SOL    HW169960   1.881   5.844   4.466  3.3999 -0.3149  1.8454
22527SOL    HW269961   1.826   5.735   4.555  0.0595 -0.2917 -0.0288
22528SOL     OW69962  10.720   9.132   2.215 -0.2066 -0.3277  0.1312
22528SOL    HW169963  10.644   9.107   2.267 -0.2984  1.1291  0.7533
22528SOL    HW269964  10.782   9.166   2.279  0.5802 -0.5770 -0.4860
22529SOL     OW69965   1.476   6.221   3.257 -0.0376 -0.0513 -0.4935
22529SOL    HW169966   1.473   6.134   3.216  0.7487 -0.6988  0.7585
22529SOL    HW269967   1.567   6.249   3.247  0.0088  0.0651  0.2041
22530SOL     OW69968   5.700   6.989   9.916  0.5036  0.5233  0.3759
22530SOL    HW169969   5.649   7.052   9.967 -2.1162  0.0179 -1.4670
22530SOL    HW269970   5.642   6.962   9.846  3.1745 -0.5273 -1.5854
22531SOL     OW69971   9.872   6.004   4.136 -0.0014  0.3589 -0.3240
22531SOL    HW169972   9.787   6.044   4.151  0.1083  0.8469 -0.9619
22531SOL    HW269973   9.854   5.910   4.131 -0.6650  0.5336 -1.5027
22532SOL     OW69974   0.405   8.702   4.027 -0.5853  0.0677 -0.2731
22532SOL    HW169975   0.439   8.741   3.946  1.1395  0.6597  0.6805
22532SOL    HW269976   0.314   8.730   4.031 -0.2058  1.5092 -1.1393
22533SOL     OW69977   6.142   2.938   6.016  0.0883  0.5442 -0.7455
22533SOL    HW169978   6.079   3.003   5.985  0.8327  1.8961  0.4642
22533SOL    HW269979   6.088   2.865   6.046 -1.0126  1.9739  0.9748
22534SOL     OW69980   0.892   2.896   6.276  0.0874  0.1782 -0.2729
22534SOL    HW169981   0.806   2.883   6.316  0.4053  0.5646  0.5614
22534SOL    HW269982   0.948   2.831   6.319  0.2678  0.0837 -0.6452
22535SOL     OW69983   7.559   0.300   5.929  0.6413  0.4773 -0.3492
22535SOL    HW169984   7.577   0.238   5.858  1.2889 -0.1790  0.3631
22535SOL    HW269985   7.534   0.381   5.885 -0.1497 -0.2591 -1.3037
22536SOL     OW69986   1.571   8.027   4.526 -0.2853 -0.5471 -0.2933
22536SOL    HW169987   1.599   7.998   4.439 -0.6231  1.6140 -1.1852
22536SOL    HW269988   1.605   7.961   4.585  0.2092 -1.9355 -2.0360
22537SOL     OW69989   4.428   1.893   2.726  0.6320 -0.2657 -0.1396
22537SOL    HW169990   4.493   1.895   2.655  0.4544 -1.0771 -0.3426
22537SOL    HW269991   4.412   1.799   2.740 -1.8279 -0.0973 -1.3478
22538SOL     OW69992   5.079   5.034   1.325 -0.1829 -0.1050  0.1846
22538SOL    HW169993   5.103   4.944   1.304 -2.0310 -0.4144 -0.7499
22538SOL    HW269994   5.121   5.050   1.409  1.6266 -1.2253 -0.4482
22539SOL     OW69995   0.698   1.317   9.419  0.1988 -0.0290  0.2754
22539SOL    HW169996   0.715   1.279   9.506 -1.3793  0.9363  1.0379
22539SOL    HW269997   0.722   1.409   9.428 -0.3610  0.1674 -0.1960
22540SOL     OW69998   6.870   6.261   9.642 -0.0463  0.3045 -0.1929
22540SOL    HW169999   6.926   6.231   9.714  0.7135  0.4933 -0.6992
22540SOL    HW270000   6.857   6.184   9.588 -0.8923  0.0815  0.3118
22541SOL     OW70001   1.634   7.070   5.868  0.2418  0.3902 -0.1519
22541SOL    HW170002   1.683   7.116   5.936 -1.1725  0.1066  1.1126
22541SOL    HW270003   1.685   6.990   5.851  0.6335  0.4863  0.5372
22542SOL     OW70004   4.635   8.831   4.232 -0.6917  0.0092  0.2197
22542SOL    HW170005   4.664   8.791   4.314  1.1558  0.6406 -0.0746
22542SOL    HW270006   4.591   8.911   4.259  0.3117  0.4516  0.6201
22543SOL     OW70007  10.767   9.369   3.014 -0.1009 -0.3203 -0.2489
22543SOL    HW170008  10.785   9.278   3.037 -0.0236 -0.5796 -1.3049
22543SOL    HW270009  10.672   9.376   3.013 -0.1188 -0.6505 -1.1473
22544SOL     OW70010   9.724   9.576   8.679  0.0478 -0.0180  0.1062
22544SOL    HW170011   9.636   9.612   8.687 -0.1877 -1.0219  2.8442
22544SOL    HW270012   9.781   9.642   8.720  0.5077  0.2389 -0.8961
22545SOL     OW70013   0.501   1.433   0.179  0.0353  0.3341  0.4404
22545SOL    HW170014   0.549   1.508   0.144 -0.5284  0.7358  0.5111
22545SOL    HW270015   0.430   1.417   0.116 -0.4906  0.5431  0.9689
22546SOL     OW70016  10.019   3.598   8.009  0.6909  0.6822 -0.6591
22546SOL    HW170017   9.928   3.616   7.985  0.2521 -0.5105  0.0663
22546SOL    HW270018  10.046   3.677   8.056 -1.0602 -0.1985  2.0834
22547SOL     OW70019   3.721   4.692   0.384  0.0256  0.5086  0.3530
22547SOL    HW170020   3.749   4.713   0.473  0.2830  0.9963  0.1615
22547SOL    HW270021   3.777   4.745   0.328 -0.1611  0.2349 -0.1017
22548SOL     OW70022   4.094   9.104  10.326  0.8952 -0.3403  0.6547
22548SOL    HW170023   4.067   9.173  10.266  2.1158  1.4153  2.0276
22548SOL    HW270024   4.025   9.037  10.318  0.9520 -0.1613 -2.5430
22549SOL     OW70025   6.807   5.457   8.656  0.4083  0.0445 -0.0000
22549SOL    HW170026   6.771   5.369   8.654  1.6800 -0.4905 -1.4613
22549SOL    HW270027   6.844   5.470   8.569  1.4155  1.5182  0.5998
22550SOL     OW70028   4.635   0.082   9.148 -0.2069  0.1599  0.1459
22550SOL    HW170029   4.694   0.157   9.158  0.2801 -0.4069  2.0513
22550SOL    HW270030   4.565   0.114   9.091  0.0746  2.0217  0.7546
22551SOL     OW70031   5.865   5.394   9.764 -0.4902  0.4603  0.4807
22551SOL    HW170032   5.792   5.429   9.815 -1.1431  0.5334 -0.4685
22551SOL    HW270033   5.881   5.461   9.697 -1.1224 -0.5775 -0.7628
22552SOL     OW70034   4.613   1.289  10.732  0.1898 -0.1257  0.5695
22552SOL    HW170035   4.546   1.294  10.800 -1.0211 -1.7281 -0.4355
22552SOL    HW270036   4.644   1.198  10.736  2.0260  0.4603  0.7035
22553SOL     OW70037  10.628   3.234   6.332 -0.2089 -0.3104 -0.1227
22553SOL    HW170038  10.556   3.217   6.392 -0.6591  0.2950 -0.4884
22553SOL    HW270039  10.679   3.303   6.374 -0.0786 -0.4389 -0.0675
22554SOL     OW70040   7.598   7.822   4.242 -0.0847 -0.0334 -0.5345
22554SOL    HW170041   7.664   7.838   4.174  1.2875 -0.2209  0.7253
22554SOL    HW270042   7.545   7.902   4.241 -0.7120 -0.4069 -2.4577
22555SOL     OW70043   4.289   0.024   0.978 -0.6621 -0.2001  0.2085
22555SOL    HW170044   4.239   0.085   0.924 -0.3615  1.1149  1.3753
22555SOL    HW270045   4.349   0.079   1.028 -0.2184 -1.4723  1.1327
22556SOL     OW70046   9.968   7.201   3.421  0.2768 -0.0218  0.3879
22556SOL    HW170047   9.998   7.267   3.359 -0.9893  0.1746 -0.0628
22556SOL    HW270048   9.923   7.136   3.366 -0.8968  0.1753  1.0894
22557SOL     OW70049   5.313   9.747   2.818 -0.5181 -0.2443  0.0703
22557SOL    HW170050   5.234   9.729   2.868 -1.2217  1.1379 -0.5070
22557SOL    HW270051   5.335   9.663   2.777 -1.5945 -0.6821  0.3585
22558SOL     OW70052   8.893   8.669   5.808 -0.5210  0.1310  0.3114
22558SOL    HW170053   8.914   8.737   5.871 -0.7407  0.2108  0.3007
22558SOL    HW270054   8.799   8.680   5.791 -1.0218 -1.3797  1.7774
22559SOL     OW70055   7.763   2.919  10.778 -0.4432 -0.4933 -0.2433
22559SOL    HW170056   7.817   2.993  10.808 -0.3919 -0.6513  0.0528
22559SOL    HW270057   7.689   2.960  10.733 -0.8586 -0.2351  0.6479
22560SOL     OW70058   2.191   5.631   9.306  0.1220 -0.7429  0.4491
22560SOL    HW170059   2.160   5.602   9.221  2.0760  0.1425 -0.6261
22560SOL    HW270060   2.254   5.565   9.333  1.2833  0.1850  0.0683
22561SOL     OW70061   2.968   2.418  10.550  0.1821  0.3892  0.2895
22561SOL    HW170062   2.879   2.431  10.517 -0.3563 -2.6563  0.1957
22561SOL    HW270063   3.009   2.361  10.485  1.0268 -1.0432  1.9876
22562SOL     OW70064  10.629   9.221   8.920  0.0811 -0.8756  0.4919
22562SOL    HW170065  10.679   9.258   8.847 -1.7943 -0.5628 -0.7121
22562SOL    HW270066  10.650   9.128   8.920  1.2360 -0.6274  0.5220
22563SOL     OW70067   8.151   4.707   7.943  0.1067 -0.3796  0.1619
22563SOL    HW170068   8.165   4.661   7.860 -2.7824  1.5893 -1.6108
22563SOL    HW270069   8.227   4.764   7.951  0.2171 -0.2487 -1.4303
22564SOL     OW70070   9.095   3.583   5.798 -0.1856  0.1680 -0.0190
22564SOL    HW170071   9.085   3.501   5.749 -1.9321 -0.3517  1.1246
22564SOL    HW270072   9.145   3.559   5.876 -0.9524  0.1241  0.4618
22565SOL     OW70073   9.648  10.541   1.943 -0.4165 -0.1657  0.2329
22565SOL    HW170074   9.580  10.608   1.950 -1.9110 -1.5452 -0.3735
22565SOL    HW270075   9.639  10.508   1.853  1.0411 -0.4046  0.1609
22566SOL     OW70076   1.557   6.175   6.495 -0.1274  0.0496 -0.3035
22566SOL    HW170077   1.605   6.257   6.510 -0.5427  0.2494 -0.0586
22566SOL    HW270078   1.626   6.110   6.479  0.4622 -0.2966  2.8839
22567SOL     OW70079   0.483   0.199   6.997 -0.2465  0.9560 -0.2498
22567SOL    HW170080   0.398   0.184   6.957  0.1935  1.2555 -1.3467
22567SOL    HW270081   0.511   0.284   6.963 -0.0030  1.4152  1.0074
22568SOL     OW70082   1.815   1.346   9.893  0.6915  0.5126  0.8137
22568SOL    HW170083   1.796   1.303   9.809  2.8054 -0.0271  0.5489
22568SOL    HW270084   1.902   1.313   9.917  1.4672  2.9918  1.6802
22569SOL     OW70085   5.024   6.298   1.528 -0.1276 -0.7692 -0.4962
22569SOL    HW170086   4.930   6.308   1.543 -0.4375  0.1407 -2.6105
22569SOL    HW270087   5.031   6.226   1.466  0.6661 -1.4778  0.4019
22570SOL     OW70088   6.316   3.486   9.439  0.0540 -0.5863  0.5342
22570SOL    HW170089   6.341   3.395   9.455  1.6533 -0.5539 -1.3949
22570SOL    HW270090   6.378   3.537   9.490  1.4000 -0.5716 -1.0472
22571SOL     OW70091   4.460   6.191   4.485 -0.1831 -0.1631  0.4498
22571SOL    HW170092   4.443   6.100   4.509  1.1565  0.0412  2.3489
22571SOL    HW270093   4.539   6.186   4.431  0.7843 -0.0359  1.8039
22572SOL     OW70094   5.927   6.096   5.341  0.1906 -0.0097 -0.0968
22572SOL    HW170095   5.863   6.079   5.272 -1.0211  0.1148  0.9504
22572SOL    HW270096   5.978   6.170   5.308 -1.2424  0.9232 -0.3291
22573SOL     OW70097   8.002   4.447  10.759 -0.0743  0.1725  0.4100
22573SOL    HW170098   8.012   4.464  10.666 -1.8100  1.7788  0.4580
22573SOL    HW270099   7.922   4.395  10.765  1.5838 -2.5447  0.8453
22574SOL     OW70100   3.388   5.364   7.056 -1.0042  0.0838 -0.6089
22574SOL    HW170101   3.439   5.429   7.105 -0.1182 -0.1729 -1.1557
22574SOL    HW270102   3.439   5.283   7.064  0.8707  0.6660 -4.4078
22575SOL     OW70103  10.137   8.391   8.987 -0.5147 -0.2719  0.1688
22575SOL    HW170104  10.075   8.328   8.952 -0.4924  0.2874 -0.9061
22575SOL    HW270105  10.223   8.352   8.971 -0.4997  0.0325 -0.5359
22576SOL     OW70106   2.918   6.384   3.568 -0.1263  0.1571  0.2086
22576SOL    HW170107   2.884   6.401   3.656  0.5752  0.1474  0.4838
22576SOL    HW270108   2.980   6.455   3.552  0.0442 -0.0644 -0.1241
22577SOL     OW70109   2.238   9.696   6.989 -0.4547 -0.0232  0.3423
22577SOL    HW170110   2.333   9.690   6.982 -0.4390 -1.1021  1.2755
22577SOL    HW270111   2.213   9.758   6.920  1.0232  1.2831  0.9200
22578SOL     OW70112   0.886   3.319   5.475 -0.4346  0.1006 -0.1316
22578SOL    HW170113   0.862   3.271   5.554  0.0497  1.1809  0.6958
22578SOL    HW270114   0.840   3.403   5.482 -0.3907  0.2122 -0.9981
22579SOL     OW70115   5.884   2.042   2.327 -0.1495  0.0424 -0.0102
22579SOL    HW170116   5.970   2.004   2.342 -0.6692 -1.0522  0.2417
22579SOL    HW270117   5.831   1.971   2.292 -1.3660  0.2986  1.2249
22580SOL     OW70118   7.580   6.854   1.358 -0.1939 -0.4079 -0.0663
22580SOL    HW170119   7.643   6.788   1.387  1.0389  0.9587  0.5288
22580SOL    HW270120   7.629   6.937   1.361 -1.9614  0.6866  0.1650
22581SOL     OW70121   7.153   0.076   6.171  0.0267  1.0427  0.4154
22581SOL    HW170122   7.224   0.040   6.118 -0.2639 -0.9897  1.3216
22581SOL    HW270123   7.178   0.167   6.186  1.4380  0.9206 -0.9219
22582SOL     OW70124   8.103   6.640   8.725 -0.4388 -0.0510 -0.3730
22582SOL    HW170125   8.095   6.604   8.813 -2.7330  0.5338 -0.2780
22582SOL    HW270126   8.024   6.610   8.679  0.2306  0.4495 -1.9436
22583SOL     OW70127   4.218   4.847   0.729 -0.1576  0.8022 -0.3294
22583SOL    HW170128   4.277   4.794   0.783 -1.2413  0.2576  0.3693
22583SOL    HW270129   4.188   4.788   0.660 -1.3834  0.4380  0.4632
22584SOL     OW70130   5.947  10.469   9.945 -0.4171 -0.1375 -0.3767
22584SOL    HW170131   5.987  10.388   9.977  1.3221  1.4555  1.7258
22584SOL    HW270132   5.869  10.480   9.999 -0.7912 -0.5102 -0.8321
22585SOL     OW70133   1.717   2.493   5.064  0.1973 -0.3304 -0.8553
22585SOL    HW170134   1.804   2.534   5.063  0.3543 -0.6613 -1.9284
22585SOL    HW270135   1.665   2.546   5.004 -0.5248  0.2062  0.2133
22586SOL     OW70136   5.614   9.436   6.862 -0.2369  0.6081  0.2430
22586SOL    HW170137   5.691   9.487   6.884 -0.3550  0.1739  1.7221
22586SOL    HW270138   5.543   9.501   6.856 -0.0579  0.8180  0.3905
22587SOL     OW70139   2.991   6.758   2.594  0.1329  0.0594 -0.0249
22587SOL    HW170140   3.078   6.797   2.599 -0.5312  1.5632  0.1697
22587SOL    HW270141   2.981   6.710   2.676  1.4941 -1.7703 -0.8523
22588SOL     OW70142  10.016   0.434   7.350  0.0815 -0.5909 -0.5861
22588SOL    HW170143  10.106   0.459   7.368 -0.2039  0.0974 -0.0536
22588SOL    HW270144   9.987   0.494   7.281 -0.9033  1.3099  1.3489
22589SOL     OW70145   1.506   5.000   5.511 -0.0540  0.3761 -0.1636
22589SOL    HW170146   1.422   5.023   5.472 -1.4039  0.5017  2.5951
22589SOL    HW270147   1.541   5.083   5.543  0.3109  0.0758  0.2169
22590SOL     OW70148   5.263   4.420   7.154 -0.1718  0.3559 -0.1624
22590SOL    HW170149   5.207   4.392   7.227 -0.4472  0.4211 -0.3477
22590SOL    HW270150   5.234   4.367   7.080  0.2510  0.1375 -0.1767
22591SOL     OW70151   3.210   8.409   1.149 -0.1745  0.2329  0.3070
22591SOL    HW170152   3.131   8.432   1.198 -0.6576 -0.1160 -0.2955
22591SOL    HW270153   3.178   8.377   1.065  0.5875 -0.3371  0.2190
22592SOL     OW70154   3.418   9.177  10.328 -0.6631  0.0217  0.1193
22592SOL    HW170155   3.463   9.243  10.276 -0.7284  1.3733  1.6953
22592SOL    HW270156   3.476   9.101  10.327 -0.0796  0.4630 -0.8286
22593SOL     OW70157   9.666   8.998   1.685 -0.2961 -0.4368 -0.2125
22593SOL    HW170158   9.705   8.956   1.762  0.1376  1.1443  0.4663
22593SOL    HW270159   9.727   9.068   1.663 -0.1427 -1.1842 -2.3490
22594SOL     OW70160   8.458   9.069   5.194  0.4331  0.0910 -0.2469
22594SOL    HW170161   8.534   9.017   5.220 -0.5328 -1.8291 -1.0671
22594SOL    HW270162   8.473   9.155   5.233  3.1033 -0.1764 -0.5591
22595SOL     OW70163   8.535   0.296   4.531 -0.3159 -0.4646  0.2097
22595SOL    HW170164   8.557   0.390   4.532  1.7334 -0.9015  0.3282
22595SOL    HW270165   8.454   0.290   4.583 -0.0538  1.1396  0.8788
22596SOL     OW70166   5.687   7.294   4.580 -0.0154  0.1412  0.0467
22596SOL    HW170167   5.779   7.295   4.554 -0.4552  0.3778 -1.6880
22596SOL    HW270168   5.671   7.382   4.615  0.2632  0.3302 -0.2933
22597SOL     OW70169   6.536   4.329   9.068  0.1167  0.0822 -0.1757
22597SOL    HW170170   6.545   4.344   8.974  0.2378  0.7532 -0.0607
22597SOL    HW270171   6.605   4.382   9.108  0.7699 -1.0542  0.2325
22598SOL     OW70172   7.057   9.293   3.215  0.3513  0.3397 -0.1622
22598SOL    HW170173   7.048   9.274   3.121 -0.1159 -2.8458  0.4083
22598SOL    HW270174   7.151   9.288   3.231  0.2831 -1.5787 -0.1079
22599SOL     OW70175   0.898   1.709   1.185  0.2880 -0.2367 -0.0391
22599SOL    HW170176   0.853   1.679   1.106  1.5485  0.1852 -0.9468
22599SOL    HW270177   0.965   1.770   1.153  0.2005  0.6982  1.4339
22600SOL     OW70178  10.659  10.249   6.883 -0.1476  0.1402  0.5699
22600SOL    HW170179  10.643  10.156   6.872  1.2755  0.0836 -1.4625
22600SOL    HW270180  10.702  10.276   6.802 -0.6647  2.6068  1.0354
22601SOL     OW70181   7.611   6.679   7.627  0.0398 -0.5704  1.0300
22601SOL    HW170182   7.669   6.707   7.697  3.1353 -1.0461 -1.1330
22601SOL    HW270183   7.607   6.584   7.636  0.1055 -0.5947  0.8106
22602SOL     OW70184   7.818   5.870   9.648 -0.3821 -0.2853 -0.1380
22602SOL    HW170185   7.805   5.953   9.696  0.3212 -1.1896  1.7107
22602SOL    HW270186   7.763   5.807   9.695  1.1733 -1.4501  0.1951
22603SOL     OW70187   7.526   9.826   3.508  0.2908 -0.6278 -0.1813
22603SOL    HW170188   7.504   9.815   3.600 -1.7669 -1.5404 -0.7118
22603SOL    HW270189   7.580   9.750   3.487  0.4261 -0.6314  0.1717
22604SOL     OW70190   1.175   4.456   0.091  0.0213 -0.0414 -0.1845
22604SOL    HW170191   1.090   4.492   0.117  0.3469 -0.1448  1.0849
22604SOL    HW270192   1.153   4.391   0.025 -1.0262 -0.9022  0.9448
22605SOL     OW70193   6.559   9.932   3.930  0.2950  0.3905  0.1413
22605SOL    HW170194   6.507   9.918   4.009  0.8168  0.1342  0.4506
22605SOL    HW270195   6.495   9.940   3.860 -0.1438 -0.3072  0.4520
22606SOL     OW70196   1.558   9.394   2.713 -0.0513 -0.5135  0.0823
22606SOL    HW170197   1.634   9.337   2.731  1.7451  1.3104 -1.3382
22606SOL    HW270198   1.501   9.381   2.789  0.8086 -3.2887  0.3742
22607SOL     OW70199   7.257   9.910   3.435 -0.2036  0.3589  0.5515
22607SOL    HW170200   7.341   9.946   3.463  1.6180 -1.6825 -1.7935
22607SOL    HW270201   7.192   9.973   3.467  2.2639  2.5863  1.5809
22608SOL     OW70202   6.207   9.037   2.400 -0.0759 -0.0871 -0.1521
22608SOL    HW170203   6.165   9.118   2.371 -0.2266 -1.2714 -3.7977
22608SOL    HW270204   6.144   8.997   2.460 -0.2205  2.1489  1.3239
22609SOL     OW70205  10.346   9.711   2.376  0.5654 -0.1812  0.7685
22609SOL    HW170206  10.392   9.628   2.390  0.2253 -0.8837 -1.7367
22609SOL    HW270207  10.256   9.694   2.405 -0.1548 -1.6049 -1.9768
22610SOL     OW70208   6.131   3.829   2.925  0.7630 -0.2470 -0.2740
22610SOL    HW170209   6.179   3.894   2.875  0.4264 -0.9799 -1.6171
22610SOL    HW270210   6.129   3.752   2.867  0.1508 -1.0486  0.7839
22611SOL     OW70211   3.841   9.934   1.455  0.2694 -0.4456 -0.2628
22611SOL    HW170212   3.815   9.896   1.538  0.7630 -0.7676 -0.2502
22611SOL    HW270213   3.928   9.971   1.471 -0.1765  0.6781 -0.2816
22612SOL     OW70214   1.430   8.932   0.916 -0.2392 -0.1108 -0.1924
22612SOL    HW170215   1.393   8.863   0.860  0.9414  0.3411 -1.6043
22612SOL    HW270216   1.525   8.917   0.911 -0.0256  1.0318  0.2839
22613SOL     OW70217   0.627   8.347   8.614 -0.0855 -0.0013  0.1740
22613SOL    HW170218   0.639   8.366   8.521 -0.2209  0.2010  0.1981
22613SOL    HW270219   0.590   8.259   8.616  0.2987 -0.1675  0.0518
22614SOL     OW70220   4.759   4.230   7.473 -0.1278  0.0412  0.6237
22614SOL    HW170221   4.815   4.291   7.522  0.0106 -0.4521  1.1002
22614SOL    HW270222   4.776   4.145   7.515  0.4393 -0.5086 -0.6645
22615SOL     OW70223   0.232   7.734   3.718 -0.2428  0.8504  0.5666
22615SOL    HW170224   0.303   7.739   3.782  0.4270  0.6775 -0.1431
22615SOL    HW270225   0.156   7.772   3.763 -0.0438 -0.1523  1.7939
22616SOL     OW70226   8.834   9.475   2.531  0.0850  0.1708 -0.8501
22616SOL    HW170227   8.838   9.403   2.469  0.4768 -0.4800 -0.0951
22616SOL    HW270228   8.780   9.441   2.603  0.8590  0.3725 -0.1625
22617SOL     OW70229   9.561   5.411   6.417  0.3008  0.1243 -0.4431
22617SOL    HW170230   9.551   5.325   6.375 -0.6117  0.2587 -0.5178
22617SOL    HW270231   9.623   5.396   6.489 -2.1503 -1.3107  1.5037
22618SOL     OW70232  10.422   3.215  10.415 -0.2682 -0.0579  0.1061
22618SOL    HW170233  10.412   3.200  10.509  1.2931 -1.1045  0.1291
22618SOL    HW270234  10.402   3.130  10.375 -1.1892  0.4487 -0.5572
22619SOL     OW70235   2.413   0.217   5.161 -0.3266  0.5265 -0.0443
22619SOL    HW170236   2.351   0.276   5.205 -0.5875  1.6382 -1.7944
22619SOL    HW270237   2.481   0.201   5.226 -2.5733 -1.0482  2.0821
22620SOL     OW70238   4.678   6.602   6.849 -0.2792  0.3033 -0.0075
22620SOL    HW170239   4.763   6.557   6.852 -0.2087  0.4354  2.2970
22620SOL    HW270240   4.615   6.534   6.826  0.0641 -0.6135  1.5922
22621SOL     OW70241   2.620  10.282   6.517 -0.2304  0.3397  0.8746
22621SOL    HW170242   2.553  10.282   6.449  2.3665 -0.7636 -1.8812
22621SOL    HW270243   2.615  10.370   6.555 -2.1570  0.8014 -0.3077
22622SOL     OW70244   0.856   1.125   8.031  0.7218 -0.4839  0.3217
22622SOL    HW170245   0.941   1.168   8.026  1.4142 -1.7984  0.1207
22622SOL    HW270246   0.830   1.133   8.123  0.4727  0.9767  0.1361
22623SOL     OW70247   9.808   4.030   7.632 -0.2388  0.4674 -0.1243
22623SOL    HW170248   9.718   4.063   7.622 -0.3277  0.1794 -0.3035
22623SOL    HW270249   9.824   3.983   7.551 -0.4428 -0.7012  0.4928
22624SOL     OW70250   5.323   5.910   6.853 -0.0340 -0.2466 -0.7641
22624SOL    HW170251   5.399   5.868   6.892 -0.0909 -0.3385 -0.7518
22624SOL    HW270252   5.340   5.911   6.759  0.4383  0.6367 -0.6811
22625SOL     OW70253   3.935   2.728   8.124 -0.0927  0.0649  0.4293
22625SOL    HW170254   3.997   2.731   8.052 -0.7969  3.2905 -0.1716
22625SOL    HW270255   3.988   2.745   8.202  0.1100  0.5009  0.1985
22626SOL     OW70256   8.004   9.410  10.103 -0.0291  0.0156 -0.2286
22626SOL    HW170257   8.078   9.349  10.098  0.2484  0.3521 -0.2946
22626SOL    HW270258   7.952   9.378  10.176 -0.5695 -1.0484 -1.0549
22627SOL     OW70259   3.118   4.124   1.447  0.4459 -0.1512  0.0311
22627SOL    HW170260   3.032   4.083   1.445  0.7982 -0.9252  0.0921
22627SOL    HW270261   3.102   4.215   1.425 -0.2545 -0.5203 -1.0958
22628SOL     OW70262   3.911   6.601   7.660  0.5169 -0.0247  0.6125
22628SOL    HW170263   3.954   6.671   7.610 -0.4624  0.5572  0.5536
22628SOL    HW270264   3.856   6.556   7.597  2.0291 -1.6522  0.3805
22629SOL     OW70265   2.003   9.111   5.004  0.4905 -0.3865  0.0542
22629SOL    HW170266   2.088   9.067   5.012  0.8341  0.5664  2.1629
22629SOL    HW270267   2.020   9.183   4.942  1.0831 -0.5148  0.0556
22630SOL     OW70268   5.759   8.892   2.803 -0.2758 -0.1563  0.0439
22630SOL    HW170269   5.765   8.942   2.885 -1.2954 -0.3206  0.2301
22630SOL    HW270270   5.801   8.808   2.824  1.4586  0.5903 -0.2764
22631SOL     OW70271   5.622   0.074   5.667  0.4437 -0.4098  0.2651
22631SOL    HW170272   5.608   0.050   5.576 -0.3017 -2.0892  0.7618
22631SOL    HW270273   5.644   0.167   5.666 -1.0442 -0.0258 -1.4884
22632SOL     OW70274   4.357   0.678   6.270 -0.3231  0.0018  0.2153
22632SOL    HW170275   4.316   0.625   6.202 -1.2450  1.4174 -0.3800
22632SOL    HW270276   4.285   0.708   6.325  0.1625  0.6375  0.5257
22633SOL     OW70277  10.357   6.938   6.368  0.2989  0.2229  0.7089
22633SOL    HW170278  10.377   6.907   6.456  0.6833 -0.2911  0.4511
22633SOL    HW270279  10.280   6.888   6.342  0.1140  0.4614  0.7993
22634SOL     OW70280  10.718   5.746   5.467 -0.0005 -0.3234  0.5930
22634SOL    HW170281  10.670   5.663   5.460  0.5511 -0.6838  0.9046
22634SOL    HW270282  10.788   5.727   5.531 -0.9895  0.9133  2.1189
22635SOL     OW70283   8.871   9.822  10.230 -0.2499 -0.0533 -0.2665
22635SOL    HW170284   8.806   9.797  10.165 -3.6514  1.1978  2.3113
22635SOL    HW270285   8.895   9.739  10.273 -0.0996 -0.5411 -1.2727
22636SOL     OW70286   3.526   7.899   1.508 -0.3761 -0.0063 -0.1928
22636SOL    HW170287   3.484   7.884   1.593  0.0891  2.3543  0.5298
22636SOL    HW270288   3.455   7.924   1.450 -0.2166  3.4919  0.9022
22637SOL     OW70289   2.614   0.412   8.358  0.1136 -0.2899  0.0938
22637SOL    HW170290   2.522   0.401   8.381 -1.1432 -2.0152 -4.6545
22637SOL    HW270291   2.624   0.506   8.342 -1.5119 -0.3222 -1.3929
22638SOL     OW70292   7.268   1.700  10.721 -0.0538  0.0875  0.4041
22638SOL    HW170293   7.253   1.795  10.718  0.2039  0.1036 -1.0092
22638SOL    HW270294   7.247   1.676  10.811  1.6898  1.7830  1.3341
22639SOL     OW70295   3.379  10.169   4.585  0.7323 -0.0417  0.4841
22639SOL    HW170296   3.458  10.171   4.532 -0.2596 -0.2033 -1.0561
22639SOL    HW270297   3.381  10.084   4.629  1.0043 -0.3891 -0.1919
22640SOL     OW70298   0.810   7.379   2.902 -0.1767  0.1599 -0.0290
22640SOL    HW170299   0.732   7.394   2.849  1.4435  0.2510 -2.5373
22640SOL    HW270300   0.844   7.466   2.921  1.0809  0.1156 -1.8312
22641SOL     OW70301   7.197   5.457   1.199 -1.0612 -0.0013  0.2598
22641SOL    HW170302   7.186   5.460   1.104 -0.5539  0.2254  0.2007
22641SOL    HW270303   7.272   5.515   1.215  0.5780 -2.0687  0.5209
22642SOL     OW70304   4.703   2.656  10.197 -0.1189 -0.5295  0.2836
22642SOL    HW170305   4.735   2.649  10.287 -0.0566 -0.8421  0.2391
22642SOL    HW270306   4.732   2.574  10.155 -0.0080 -0.3135 -0.0644
22643SOL     OW70307   2.789  10.197   8.132  0.0344 -0.0448  0.1480
22643SOL    HW170308   2.740  10.266   8.179 -0.5238  0.6616 -1.3924
22643SOL    HW270309   2.722  10.151   8.081  0.4707 -1.4959  0.8320
22644SOL     OW70310   0.757   0.798   2.291  0.0815  0.0593  0.2785
22644SOL    HW170311   0.750   0.861   2.363 -0.8458  0.3088 -0.0113
22644SOL    HW270312   0.680   0.815   2.237  0.3900 -0.6073 -0.3898
22645SOL     OW70313   5.539   5.777   3.360  0.2775 -0.0595 -0.1083
22645SOL    HW170314   5.519   5.848   3.298 -0.6099  1.5534  1.9027
22645SOL    HW270315   5.514   5.812   3.445  0.8027 -2.4544  1.1139
22646SOL     OW70316   1.388   8.158   4.829  0.3809 -0.1576 -0.0663
22646SOL    HW170317   1.401   8.215   4.905 -3.1404  2.3079 -1.0846
22646SOL    HW270318   1.412   8.211   4.754 -0.0222 -1.1317 -0.9123
22647SOL     OW70319   3.483   4.411   4.352  0.1262  0.8218  0.1612
22647SOL    HW170320   3.476   4.462   4.272 -0.1153 -1.4546 -1.3605
22647SOL    HW270321   3.459   4.322   4.326 -0.7941  0.1442  2.9524
22648SOL     OW70322   6.949   1.124   7.132 -0.2823  0.1329  0.2785
22648SOL    HW170323   6.960   1.206   7.084  1.2102  0.1966  0.6715
22648SOL    HW270324   6.992   1.139   7.216  3.6251 -2.1952 -1.0186
22649SOL     OW70325   8.553   9.748   7.651  0.0021  0.1689  0.1942
22649SOL    HW170326   8.490   9.750   7.723 -1.4390  0.8678 -1.0435
22649SOL    HW270327   8.552   9.658   7.621  0.0619  0.0372  0.5777
22650SOL     OW70328   2.736   3.623   9.013  0.7386 -0.8789  0.3157
22650SOL    HW170329   2.713   3.577   9.094  1.1885  0.3762  1.1976
22650SOL    HW270330   2.819   3.666   9.033  0.4251  0.1614 -0.5113
22651SOL     OW70331   4.599  10.417   1.871  0.0429  0.5262  0.0613
22651SOL    HW170332   4.631  10.508   1.873 -0.1622  0.6228 -0.8000
22651SOL    HW270333   4.661  10.372   1.814  1.0248 -0.2366  1.6600
22652SOL     OW70334   6.653   2.294   1.774 -0.5706 -0.1822  0.5691
22652SOL    HW170335   6.732   2.347   1.788 -0.6412  0.1951 -0.3648
22652SOL    HW270336   6.680   2.228   1.710 -0.9721 -0.1205  0.3290
22653SOL     OW70337   0.872   0.557   6.314  0.0771 -0.4587  0.6069
22653SOL    HW170338   0.862   0.524   6.404  0.8719 -1.5738  0.2992
22653SOL    HW270339   0.865   0.652   6.323  0.5511 -0.5238  1.9119
22654SOL     OW70340   1.675   2.070  10.295 -0.0488  0.0166 -0.4038
22654SOL    HW170341   1.625   2.151  10.290 -0.6914 -0.4553 -2.9554
22654SOL    HW270342   1.625   2.007  10.243  0.8674 -1.7929  0.8070
22655SOL     OW70343   1.580   7.136   6.806 -0.2723 -0.6848 -0.5650
22655SOL    HW170344   1.534   7.212   6.842  0.2441 -0.3545 -0.6039
22655SOL    HW270345   1.539   7.061   6.850  0.4440 -0.2886  0.8496
22656SOL     OW70346   1.950   3.341   5.359 -0.5888 -0.0453  0.3756
22656SOL    HW170347   2.008   3.370   5.429 -1.2408 -1.4523  1.5421
22656SOL    HW270348   2.003   3.348   5.280  0.4031  0.8827  1.0975
22657SOL     OW70349   4.253   7.867  10.180 -0.1496  0.6366  0.7997
22657SOL    HW170350   4.345   7.861  10.203  0.5319  0.4418 -1.7181
22657SOL    HW270351   4.244   7.815  10.100 -2.2732  1.2810  0.5434
22658SOL     OW70352   2.395  10.661   9.838  0.0973  0.2606 -0.5889
22658SOL    HW170353   2.381  10.723   9.910  0.2792  1.9865 -1.9590
22658SOL    HW270354   2.490  10.658   9.827  0.1468 -1.0101  0.0575
22659SOL     OW70355   8.840  10.705   3.419 -0.1981  0.3267  0.2731
22659SOL    HW170356   8.827  10.630   3.477  0.1307  1.0175  1.2781
22659SOL    HW270357   8.922  10.744   3.448  0.7173 -0.1070 -1.5946
22660SOL     OW70358   4.180   3.924   8.612  0.4963  0.0706  1.0644
22660SOL    HW170359   4.118   3.929   8.685  0.7982 -0.8747  1.4120
22660SOL    HW270360   4.211   3.833   8.614 -0.6069 -0.4302 -1.1762
22661SOL     OW70361   5.372   2.683   2.744 -0.1791 -0.9440  0.8351
22661SOL    HW170362   5.314   2.608   2.759 -1.9091  0.0788 -0.3519
22661SOL    HW270363   5.371   2.695   2.649  2.0875 -0.9155  0.7705
22662SOL     OW70364  10.353   5.416   4.608 -0.6219 -0.3564  0.0944
22662SOL    HW170365  10.290   5.344   4.594 -0.5760 -0.4441  0.3351
22662SOL    HW270366  10.388   5.400   4.696 -0.8405  0.1360  0.2752
22663SOL     OW70367   3.238  10.035   2.141 -0.1180 -0.0811 -0.3665
22663SOL    HW170368   3.262  10.091   2.214 -0.8474  0.6564 -0.6743
22663SOL    HW270369   3.322  10.014   2.098  0.1667  0.7721 -0.2434
22664SOL     OW70370   7.393   5.436   5.795 -0.2143 -0.0541  0.1399
22664SOL    HW170371   7.314   5.440   5.741 -0.1529 -0.3453  0.0250
22664SOL    HW270372   7.362   5.404   5.880 -0.4288  1.0987  0.5172
22665SOL     OW70373   0.514   0.605   4.253  0.2550  0.0244  0.0423
22665SOL    HW170374   0.516   0.665   4.178  2.2785  0.2917  0.2639
22665SOL    HW270375   0.606   0.584   4.270 -0.1870 -0.4836  2.0903
22666SOL     OW70376   1.242   3.760   0.934  0.6659 -0.0410  0.1370
22666SOL    HW170377   1.207   3.747   1.022 -0.1900  0.5286 -0.1134
22666SOL    HW270378   1.210   3.685   0.884  0.8378 -0.1653  0.2111
22667SOL     OW70379   5.497   6.462   1.920  0.5197 -0.4838  0.3024
22667SOL    HW170380   5.485   6.513   1.999 -0.4328 -0.6378  0.2752
22667SOL    HW270381   5.420   6.406   1.916 -0.4573  0.8862 -1.7389
22668SOL     OW70382   8.649  10.201   4.555 -0.6946  0.0704  0.2221
22668SOL    HW170383   8.636  10.107   4.540  0.2538 -0.1072  0.3946
22668SOL    HW270384   8.571  10.242   4.520 -0.5994 -0.6943 -0.9601
22669SOL     OW70385   1.704   6.461   0.372 -0.3589  0.7962 -0.2062
22669SOL    HW170386   1.669   6.546   0.345 -1.2209  0.4718 -0.1180
22669SOL    HW270387   1.712   6.412   0.291 -0.3529  0.7730 -0.1915
22670SOL     OW70388   1.399   2.306   1.553 -0.5925 -0.0059 -0.0193
22670SOL    HW170389   1.429   2.287   1.642  1.2614 -0.3000 -0.6552
22670SOL    HW270390   1.332   2.240   1.536  1.4968 -2.2788 -0.0363
22671SOL     OW70391   0.838   7.342   6.436  0.0645  0.0692  0.0089
22671SOL    HW170392   0.889   7.333   6.517  0.9443  1.4133 -0.3573
22671SOL    HW270393   0.903   7.348   6.367 -0.6059  1.0373 -0.5648
22672SOL     OW70394   9.566   7.544   1.367 -0.2477 -0.3731 -0.0504
22672SOL    HW170395   9.574   7.566   1.274 -0.3938  2.5617  0.5232
22672SOL    HW270396   9.654   7.556   1.403 -0.6191  0.6793  0.5546
22673SOL     OW70397   7.932   1.997   7.433  0.2002  0.0318 -0.7061
22673SOL    HW170398   7.928   2.050   7.353  0.0457  1.2503  0.0880
22673SOL    HW270399   8.024   2.000   7.459  0.1382  0.1472 -0.5003
22674SOL     OW70400  10.309   5.131   3.720  0.8593 -0.4760  0.2540
22674SOL    HW170401  10.392   5.084   3.713  0.6688 -0.6130 -1.7520
22674SOL    HW270402  10.333   5.222   3.735  1.2917 -0.7743  1.5382
22675SOL     OW70403   1.888   8.101   2.767  0.0326 -0.2129 -0.2267
22675SOL    HW170404   1.935   8.064   2.842 -0.6013  0.7046  0.6545
22675SOL    HW270405   1.942   8.175   2.739 -0.2838  0.1054  0.0116
22676SOL     OW70406   3.284   8.955   4.910  0.2716  0.4329  0.7565
22676SOL    HW170407   3.260   8.868   4.942  1.7622 -0.7477 -1.1335
22676SOL    HW270408   3.378   8.949   4.890  1.0446  3.2392  2.8396
22677SOL     OW70409  10.407   4.256   1.526 -0.1087 -0.2366 -0.1411
22677SOL    HW170410  10.315   4.282   1.529 -0.2930 -0.9283  0.4804
22677SOL    HW270411  10.449   4.309   1.593 -0.2771 -0.7309  0.3645
22678SOL     OW70412   4.224   0.300   6.514 -0.1153 -0.6337 -0.0982
22678SOL    HW170413   4.217   0.388   6.550  1.4725 -0.3046 -0.5227
22678SOL    HW270414   4.157   0.249   6.561 -1.1103  0.7889  0.0921
22679SOL     OW70415  10.082   9.828   8.153  0.2006 -0.1310  0.3584
22679SOL    HW170416  10.019   9.846   8.222 -0.3583  0.9512 -0.4084
22679SOL    HW270417  10.166   9.820   8.199  0.2820  3.0619  0.9942
22680SOL     OW70418   3.066   7.614   1.271  0.1646 -0.2094  0.8361
22680SOL    HW170419   2.976   7.599   1.300  0.4312 -0.6687  1.4673
22680SOL    HW270420   3.058   7.652   1.184 -0.6856  1.2913  1.5338
22681SOL     OW70421   4.721   6.962   9.451  0.2319  0.8549 -0.0996
22681SOL    HW170422   4.699   6.924   9.536  2.1607  1.3924  0.6948
22681SOL    HW270423   4.670   7.044   9.448  0.0574  0.7720  0.4881
22682SOL     OW70424   1.945   9.157   2.342 -0.1490 -0.8062  0.4314
22682SOL    HW170425   2.004   9.083   2.329 -0.4623 -0.9742 -0.0335
22682SOL    HW270426   1.891   9.160   2.263  0.1400  0.1766  0.2625
22683SOL     OW70427   4.343   2.758   0.145  0.4770 -0.3964 -0.2796
22683SOL    HW170428   4.385   2.721   0.223 -0.8319  0.4681  0.8724
22683SOL    HW270429   4.303   2.839   0.175  0.3941  0.2381 -1.9960
22684SOL     OW70430   2.389   8.217   6.805  0.0866 -0.0436  0.1290
22684SOL    HW170431   2.378   8.127   6.835  0.8026 -0.6364 -1.2559
22684SOL    HW270432   2.350   8.218   6.717  0.2972  0.9306  0.0334
22685SOL     OW70433   8.202   6.398   0.795 -0.0654  0.4020 -0.0945
22685SOL    HW170434   8.211   6.386   0.889  0.6980  0.6996 -0.1172
22685SOL    HW270435   8.235   6.486   0.779  0.1638  0.2178 -0.6816
22686SOL     OW70436   9.189   6.354   0.234 -0.1390 -0.3163  0.3490
22686SOL    HW170437   9.097   6.336   0.214 -0.1335  0.4444 -0.4169
22686SOL    HW270438   9.222   6.399   0.156  1.1537 -1.4681  0.1907
22687SOL     OW70439   4.873   0.351   7.994  0.3722 -0.4305  0.4006
22687SOL    HW170440   4.949   0.408   8.002  0.7535 -0.9684  0.5976
22687SOL    HW270441   4.802   0.411   7.970  1.1028 -0.0919 -1.0142
22688SOL     OW70442   7.499   0.530   7.132 -0.0410 -0.4469  0.0295
22688SOL    HW170443   7.510   0.624   7.141  0.6746 -0.5592  0.4275
22688SOL    HW270444   7.430   0.508   7.194  1.8999 -0.5897  2.3007
22689SOL     OW70445   8.801   7.914   7.407  0.3696  0.1990 -0.2536
22689SOL    HW170446   8.863   7.908   7.479 -1.2884 -0.3962  1.1982
22689SOL    HW270447   8.856   7.923   7.329  2.2355  0.4059  1.0101
22690SOL     OW70448   5.422   5.591   6.980 -0.3646 -0.1319  0.0873
22690SOL    HW170449   5.383   5.575   7.065  0.6361 -0.3737  0.5172
22690SOL    HW270450   5.364   5.547   6.918 -2.1110  1.5766  0.4254
22691SOL     OW70451  10.365  10.784   3.483  0.3113 -0.1058 -0.0385
22691SOL    HW170452  10.422  10.755   3.412  1.2181 -1.5602  1.2273
22691SOL    HW270453  10.394  10.734   3.559 -2.6323 -0.8881  0.6895
22692SOL     OW70454   2.705   4.885  10.636 -0.0915 -0.6308 -0.2511
22692SOL    HW170455   2.716   4.791  10.650  0.1505 -0.6998 -0.8648
22692SOL    HW270456   2.704   4.895  10.540  1.8344  0.2083 -0.2312
22693SOL     OW70457   6.092   0.302   9.555 -0.0721 -0.1623 -0.2172
22693SOL    HW170458   5.998   0.293   9.571 -0.1257 -1.4782 -1.1513
22693SOL    HW270459   6.128   0.216   9.574  0.6852 -0.1655 -1.5442
22694SOL     OW70460   8.294   1.153   5.549  0.3606 -0.0971 -0.3418
22694SOL    HW170461   8.206   1.170   5.581 -0.1161 -1.4962 -0.8284
22694SOL    HW270462   8.309   1.061   5.568  2.2172  0.3971  0.8321
22695SOL     OW70463   5.152   2.896   1.663  0.3509 -0.4060 -0.2801
22695SOL    HW170464   5.087   2.964   1.683  1.0665  0.3977 -0.6073
22695SOL    HW270465   5.174   2.859   1.748 -0.0491 -0.2243 -0.0936
22696SOL     OW70466   9.114   1.835   6.215 -0.1087 -0.1137  0.7548
22696SOL    HW170467   9.164   1.880   6.147 -1.7370  0.9142  0.1719
22696SOL    HW270468   9.156   1.860   6.297  2.1055 -1.6474  0.1615
22697SOL     OW70469   1.235   4.657   0.422 -0.1445 -0.0541  0.4676
22697SOL    HW170470   1.273   4.714   0.488  2.8177  0.1345 -1.2223
22697SOL    HW270471   1.233   4.570   0.463 -0.6177  0.4652  1.5725
22698SOL     OW70472   0.365   3.503   6.350 -0.4866  0.3802 -0.1531
22698SOL    HW170473   0.422   3.427   6.367 -1.3626 -0.3836 -0.5309
22698SOL    HW270474   0.356   3.504   6.254 -0.7342  0.7784 -0.1262
22699SOL     OW70475   2.819   3.360  10.248 -0.2931 -0.1116  0.1257
22699SOL    HW170476   2.822   3.380  10.154 -0.2304 -0.4654  0.0490
22699SOL    HW270477   2.841   3.442  10.291  0.5776 -0.1628 -0.1923
22700SOL     OW70478   5.889   7.467   8.445 -0.5179 -0.4654 -0.4150
22700SOL    HW170479   5.794   7.469   8.443 -0.5493 -1.5943 -0.5498
22700SOL    HW270480   5.914   7.407   8.374  0.2379 -1.1786  0.4291
22701SOL     OW70481   8.790   7.708   4.619  0.0810  0.0474 -0.0687
22701SOL    HW170482   8.854   7.637   4.609 -0.9373 -1.1843  1.6628
22701SOL    HW270483   8.828   7.764   4.687 -0.1948 -0.1238  0.2278
22702SOL     OW70484   7.123   6.526   0.465 -0.0473 -0.6212  0.0009
22702SOL    HW170485   7.035   6.547   0.497 -0.5111 -2.3111 -0.0953
22702SOL    HW270486   7.164   6.479   0.537  1.4807  1.6432  0.7423
22703SOL     OW70487   2.791   4.415   8.564 -0.8299  0.1248  0.3650
22703SOL    HW170488   2.764   4.499   8.602  0.6493  1.3072 -1.0486
22703SOL    HW270489   2.743   4.410   8.481  0.2389  0.3384 -0.2814
22704SOL     OW70490   2.323   1.170  10.670 -0.2355 -0.0248 -0.1902
22704SOL    HW170491   2.246   1.122  10.642 -0.8591 -0.0686  1.5450
22704SOL    HW270492   2.306   1.261  10.643 -0.7250 -0.0946 -0.1157
22705SOL     OW70493   3.735   0.762   7.478  0.2018 -0.1853  0.1886
22705SOL    HW170494   3.777   0.809   7.406 -0.2205  0.3827  0.2993
22705SOL    HW270495   3.793   0.688   7.496  0.9772  0.3887  0.1200
22706SOL     OW70496   1.482   2.754   5.391  0.2429  0.1215  0.0608
22706SOL    HW170497   1.517   2.753   5.480 -0.9555 -0.6419  0.5514
22706SOL    HW270498   1.510   2.839   5.355 -1.1503  1.4595  1.9511
22707SOL     OW70499   3.072   5.878   5.312 -0.2996  0.3945 -0.1331
22707SOL    HW170500   3.162   5.849   5.324 -0.3833 -0.0248 -0.4890
22707SOL    HW270501   3.043   5.835   5.232 -0.3282  1.6965 -0.8612
22708SOL     OW70502   3.473   9.670   2.890 -0.1406  0.7636  0.3794
22708SOL    HW170503   3.441   9.648   2.803  1.7525  1.6389 -0.6222
22708SOL    HW270504   3.514   9.590   2.922  0.6587  0.8853 -0.2968
22709SOL     OW70505   5.911   0.433   5.190 -0.0259 -0.2559 -0.7649
22709SOL    HW170506   5.853   0.499   5.227  1.3696  1.3941 -1.3927
22709SOL    HW270507   5.892   0.435   5.096  0.2504 -0.5084 -0.8274
22710SOL     OW70508   5.761   6.875   5.434  0.0062  0.0173 -0.0708
22710SOL    HW170509   5.804   6.918   5.361  2.2027 -1.3269  0.3239
22710SOL    HW270510   5.693   6.936   5.462 -0.2842  0.9531 -2.6122
22711SOL     OW70511   2.210   6.276   3.012 -0.5955 -0.1567  0.0175
22711SOL    HW170512   2.191   6.319   2.928  1.5197 -0.1260 -0.4929
22711SOL    HW270513   2.198   6.346   3.077  2.9960  1.4666 -0.8172
22712SOL     OW70514   5.717   6.584   8.952  0.0652  0.4068 -0.0834
22712SOL    HW170515   5.748   6.665   8.912 -0.7850  0.6959 -0.1739
22712SOL    HW270516   5.771   6.574   9.030 -0.8446  1.9006  0.7900
22713SOL     OW70517   6.968   8.614   0.918 -0.5068 -0.2613  0.4452
22713SOL    HW170518   7.012   8.691   0.883 -0.9225 -0.2979 -0.1746
22713SOL    HW270519   7.009   8.540   0.873  1.0514 -0.5534  2.2427
22714SOL     OW70520   4.475   6.513   3.566  0.2252  0.4072  0.3539
22714SOL    HW170521   4.458   6.572   3.639  2.0116  0.4674  0.7800
22714SOL    HW270522   4.530   6.444   3.603  0.0543 -0.2887 -0.6423
22715SOL     OW70523   5.513   0.232   7.362 -0.6086  0.0854 -0.0743
22715SOL    HW170524   5.600   0.242   7.324 -0.0192  1.2714  1.4813
22715SOL    HW270525   5.475   0.156   7.317 -0.1739  1.6224 -3.3505
22716SOL     OW70526   2.057   5.381   8.514  0.0103  0.2648 -1.2502
22716SOL    HW170527   2.113   5.304   8.500 -1.1286 -0.8149 -0.1515
22716SOL    HW270528   2.098   5.429   8.586 -1.0042 -1.1436  0.3545
22717SOL     OW70529   7.713   0.049   7.086  0.4007  0.2214  0.5465
22717SOL    HW170530   7.663   0.130   7.100  0.1170 -0.0002  0.8206
22717SOL    HW270531   7.721   0.011   7.173  0.5786 -0.0201  0.4233
22718SOL     OW70532   6.659   3.959   2.735 -0.4298 -0.4634 -0.2199
22718SOL    HW170533   6.623   3.916   2.658 -1.2086 -0.2700  0.0291
22718SOL    HW270534   6.667   4.051   2.710 -0.0672 -0.5096 -0.2840
22719SOL     OW70535   0.751   0.798   0.085  0.0906  0.2079 -0.2586
22719SOL    HW170536   0.737   0.831  -0.004 -0.0618 -1.3941 -0.8534
22719SOL    HW270537   0.841   0.824   0.106  0.3994 -0.0754 -1.1894
22720SOL     OW70538   0.780   5.904   1.857  0.1246 -0.1067  0.3054
22720SOL    HW170539   0.752   5.946   1.938 -1.4538  1.7875 -1.1271
22720SOL    HW270540   0.876   5.911   1.858  0.1988 -0.8576  2.3233
22721SOL     OW70541   4.260   1.403   7.503 -1.0340  0.7911  0.0666
22721SOL    HW170542   4.252   1.446   7.587 -0.6685  1.5436 -0.2753
22721SOL    HW270543   4.237   1.312   7.520 -0.1729  0.7616  1.1423
22722SOL     OW70544   7.790   7.635   4.979  0.5997 -0.6997  0.2631
22722SOL    HW170545   7.878   7.613   4.948  0.7680 -1.1426  1.0298
22722SOL    HW270546   7.804   7.707   5.040  0.2673  0.1805 -0.6683
22723SOL     OW70547   4.865   1.519   6.543  0.0537  0.1989 -0.3591
22723SOL    HW170548   4.954   1.553   6.529 -0.4860  1.1885 -1.5712
22723SOL    HW270549   4.846   1.469   6.464 -0.7747  0.7116 -0.4959
22724SOL     OW70550  10.413   3.421   6.862 -0.5119 -0.3421 -0.1376
22724SOL    HW170551  10.374   3.373   6.935  2.0887  0.5150  1.9734
22724SOL    HW270552  10.348   3.488   6.840 -1.6947 -1.1085  0.8828
22725SOL     OW70553   5.633  10.281   0.167  0.0323 -0.0830  0.0861
22725SOL    HW170554   5.728  10.280   0.175  0.1785  0.2067 -1.3004
22725SOL    HW270555   5.610  10.374   0.168 -0.0682 -0.0804 -1.0058
22726SOL     OW70556  10.475   1.916   8.214 -0.2326 -0.0235  0.0317
22726SOL    HW170557  10.460   1.867   8.134 -0.2208 -0.1246  0.0907
22726SOL    HW270558  10.452   1.855   8.284 -0.3155  0.0893  0.1024
22727SOL     OW70559   9.690   1.799   4.348  0.2004  0.2623  0.0482
22727SOL    HW170560   9.663   1.742   4.420 -1.4632 -0.2138 -0.8960
22727SOL    HW270561   9.711   1.739   4.277  0.4783  0.7778 -0.3081
22728SOL     OW70562   8.432   0.928   3.928 -0.0717  0.1798 -0.2539
22728SOL    HW170563   8.341   0.957   3.928 -0.1530 -0.0713 -0.5097
22728SOL    HW270564   8.455   0.922   3.835  0.6016  1.4571 -0.1861
22729SOL     OW70565   0.759   1.977   1.278 -0.4795  0.2582  0.1844
22729SOL    HW170566   0.752   2.071   1.262 -0.0684  0.3746  0.6586
22729SOL    HW270567   0.681   1.956   1.330 -2.0829 -0.2161 -2.2405
22730SOL     OW70568   2.755   5.104   3.476 -0.5846  0.2036 -0.4883
22730SOL    HW170569   2.805   5.024   3.491 -2.5240 -1.0855 -0.6954
22730SOL    HW270570   2.726   5.131   3.563 -0.5669  0.2685 -0.5021
22731SOL     OW70571   7.532   1.421   5.474 -0.1597 -0.1533 -0.2432
22731SOL    HW170572   7.498   1.472   5.401  1.0584 -0.6841 -1.2290
22731SOL    HW270573   7.550   1.485   5.542 -2.8674  0.1668  0.2732
22732SOL     OW70574   6.240   7.162   3.710 -0.4222 -0.0027  0.3845
22732SOL    HW170575   6.173   7.140   3.646 -0.0049 -0.5955  0.1372
22732SOL    HW270576   6.210   7.243   3.750 -0.7124  0.3520 -0.5313
22733SOL     OW70577   7.703   1.180   7.120  0.3408 -0.1332 -0.3128
22733SOL    HW170578   7.762   1.113   7.154  0.4265  0.1859  0.1756
22733SOL    HW270579   7.621   1.134   7.104  0.3891 -0.3525  0.0559
22734SOL     OW70580   9.709   0.114   6.782  0.1110  0.1624 -0.1061
22734SOL    HW170581   9.646   0.154   6.842  0.7134  1.0317 -0.0428
22734SOL    HW270582   9.741   0.186   6.729  2.2842  0.0601  0.9565
22735SOL     OW70583   6.132   1.394   4.116  0.5689 -0.5368  0.2514
22735SOL    HW170584   6.135   1.414   4.210 -1.9152  0.2903  0.2229
22735SOL    HW270585   6.044   1.419   4.089  0.7318 -2.1193 -2.0284
22736SOL     OW70586   3.677   8.705   3.668 -0.5416  0.1021 -0.5293
22736SOL    HW170587   3.626   8.624   3.679 -0.5029  0.2110  0.5337
22736SOL    HW270588   3.749   8.680   3.611  0.3470 -1.0251  1.0105
22737SOL     OW70589   3.542   9.823   2.579  0.6323  0.0805  0.2891
22737SOL    HW170590   3.595   9.902   2.564  0.7202 -0.2517 -1.3497
22737SOL    HW270591   3.467   9.855   2.629  0.3765  1.3398 -0.8266
22738SOL     OW70592   0.501   1.268   3.661 -0.8247 -0.7375  0.5391
22738SOL    HW170593   0.453   1.219   3.594 -0.7536  1.1206 -0.9356
22738SOL    HW270594   0.557   1.202   3.702 -2.8929 -2.4924  0.7338
22739SOL     OW70595   7.360   6.433   9.691  0.4590 -0.8426 -0.4043
22739SOL    HW170596   7.303   6.504   9.663  1.4474 -0.0394 -0.4725
22739SOL    HW270597   7.413   6.413   9.614  0.7910 -1.0406 -0.1306
22740SOL     OW70598   7.406   9.713   2.014 -0.0398 -0.8006  0.4054
22740SOL    HW170599   7.456   9.640   1.977  0.1955 -0.7184  0.5561
22740SOL    HW270600   7.461   9.790   1.999 -0.5657 -0.5525 -0.3110
22741SOL     OW70601   4.609   6.109   7.257 -0.3765 -0.2548  0.7749
22741SOL    HW170602   4.624   6.105   7.162 -0.1023  0.3528  0.7890
22741SOL    HW270603   4.526   6.156   7.266 -0.7735 -0.9565  0.8119
22742SOL     OW70604   3.094   0.524   5.585 -0.0568  0.4278  0.1579
22742SOL    HW170605   3.067   0.442   5.626 -1.7518  0.0894 -1.5018
22742SOL    HW270606   3.025   0.587   5.607  0.2154  0.8669 -0.2216
22743SOL     OW70607   2.414   9.933   0.636 -0.1725  0.3051  0.1480
22743SOL    HW170608   2.404   9.957   0.544 -1.3293  1.1664  0.4801
22743SOL    HW270609   2.391   9.840   0.639  2.4958 -0.5023 -0.8350
22744SOL     OW70610   8.727   8.845   7.718 -0.0685  0.2724  0.0760
22744SOL    HW170611   8.731   8.940   7.730  2.4372  0.1131  1.2724
22744SOL    HW270612   8.664   8.832   7.647 -0.2177  2.8433 -0.3590
22745SOL     OW70613  10.789   1.718   8.207 -0.0486  0.0435 -0.8191
22745SOL    HW170614  10.777   1.670   8.289  0.2178  0.9132 -0.2529
22745SOL    HW270615  10.708   1.703   8.158  0.5774 -2.1450 -1.3004
22746SOL     OW70616   2.935   8.460   9.434 -0.2207  0.0441 -0.1572
22746SOL    HW170617   2.956   8.526   9.501  0.9915 -0.0361 -0.4321
22746SOL    HW270618   2.891   8.391   9.482  0.9926 -0.1940  0.6597
22747SOL     OW70619   0.770   9.636   8.944  0.2887 -0.5064 -0.2819
22747SOL    HW170620   0.775   9.541   8.946  1.4745 -0.4661 -0.3770
22747SOL    HW270621   0.860   9.665   8.960 -0.0207  0.5909 -0.4275
22748SOL     OW70622   1.620   9.457   8.757  0.3531 -0.0864 -0.4467
22748SOL    HW170623   1.605   9.548   8.780  0.2229 -0.4043  0.7583
22748SOL    HW270624   1.687   9.461   8.689  2.6959  0.7934  1.7560
22749SOL     OW70625   0.161   6.218   5.597  0.4433 -0.7482  0.0399
22749SOL    HW170626   0.092   6.278   5.624  0.0458 -1.3293  0.3243
22749SOL    HW270627   0.224   6.220   5.669  1.3026  0.6428 -0.7111
22750SOL     OW70628   0.553   3.546   0.433  0.2903  0.0184  0.1267
22750SOL    HW170629   0.497   3.591   0.496 -1.2811 -0.5443 -0.8255
22750SOL    HW270630   0.633   3.527   0.482 -0.5492  0.3566  1.6956
22751SOL     OW70631   4.881   2.070   8.028  0.0227 -0.0604  0.1433
22751SOL    HW170632   4.841   2.027   8.104 -2.0311  0.1785 -0.7126
22751SOL    HW270633   4.862   2.163   8.041  2.2116  0.3611  0.7213
22752SOL     OW70634   4.549   2.591   1.310 -0.2925  0.1198  0.2362
22752SOL    HW170635   4.559   2.685   1.322 -2.2529  0.5024 -0.6842
22752SOL    HW270636   4.573   2.553   1.394  4.2859  1.0154 -0.4021
22753SOL     OW70637   8.954   7.787   8.081  0.0360  0.2721 -0.0458
22753SOL    HW170638   9.027   7.725   8.091 -0.3653 -0.3111 -0.6571
22753SOL    HW270639   8.877   7.732   8.070 -0.4948  0.8901  0.5518
22754SOL     OW70640   3.294   3.081   2.914  0.9909  0.3514 -0.1937
22754SOL    HW170641   3.234   3.149   2.883 -0.8594 -1.0339  0.1881
22754SOL    HW270642   3.307   3.024   2.838 -0.4424 -0.8682  0.4035
22755SOL     OW70643   7.605   1.159   1.455  0.1634 -0.0054  0.7289
22755SOL    HW170644   7.519   1.123   1.477  0.1045 -0.5088 -0.2653
22755SOL    HW270645   7.662   1.129   1.525 -0.0348 -1.4613  0.2974
22756SOL     OW70646   9.855   8.292   4.059  0.3456  0.0827  0.3225
22756SOL    HW170647   9.832   8.225   3.995 -0.2149  1.5441 -1.0523
22756SOL    HW270648   9.950   8.302   4.051  0.1313  1.1076 -1.1669
22757SOL     OW70649   8.796   7.119   6.511 -0.7408  0.2725  0.1225
22757SOL    HW170650   8.880   7.138   6.467 -1.0610 -0.7338 -0.9724
22757SOL    HW270651   8.801   7.168   6.593  0.2470  1.5442 -0.6405
22758SOL     OW70652   2.912   5.420   2.749 -0.0755 -0.1459 -0.4975
22758SOL    HW170653   2.886   5.327   2.749  0.2408 -0.2354 -0.1441
22758SOL    HW270654   2.999   5.420   2.708  0.2784 -0.1065  0.2446
22759SOL     OW70655   1.630   3.892   3.789  0.5281  0.5991 -0.0141
22759SOL    HW170656   1.720   3.894   3.755  1.1533  0.2718  1.5549
22759SOL    HW270657   1.625   3.810   3.838 -1.7025 -1.0882 -2.7379
22760SOL     OW70658   6.507   9.629   8.272 -0.4473 -0.6371  0.1484
22760SOL    HW170659   6.560   9.706   8.293  0.4580 -1.2766  0.2868
22760SOL    HW270660   6.444   9.623   8.344  0.9977 -1.3564  1.4147
22761SOL     OW70661   9.523  10.675   2.977 -0.6026  0.0561 -0.1317
22761SOL    HW170662   9.530  10.599   2.919 -2.0972 -0.4406  0.2802
22761SOL    HW270663   9.481  10.742   2.924 -1.0274 -0.0538  0.0620
22762SOL     OW70664   8.458   8.624   0.745  0.3395 -0.2977  0.7831
22762SOL    HW170665   8.501   8.699   0.702 -0.0571 -0.8636 -0.6624
22762SOL    HW270666   8.436   8.656   0.832  0.3483  1.2195  0.2599
22763SOL     OW70667   9.910   3.855   3.345 -0.2141 -0.5724 -0.1615
22763SOL    HW170668   9.988   3.800   3.347 -0.9796 -1.6508  1.0615
22763SOL    HW270669   9.860   3.830   3.422 -0.2837  2.3430  0.8676
22764SOL     OW70670   8.329   0.439   5.132  0.0064 -0.2484 -0.9833
22764SOL    HW170671   8.264   0.463   5.199 -0.6281 -0.9294 -1.3406
22764SOL    HW270672   8.387   0.515   5.127 -2.3562  1.5812 -2.6332
22765SOL     OW70673   0.007   7.124   3.275  0.2045 -0.2665 -0.0145
22765SOL    HW170674  -0.043   7.049   3.307  1.5809 -1.4611 -0.5719
22765SOL    HW270675   0.049   7.161   3.352 -1.0923  0.4432  0.3815
22766SOL     OW70676   4.233   1.481   2.113  1.0175 -0.5268 -0.1680
22766SOL    HW170677   4.141   1.475   2.140  0.8845 -2.4805 -0.9107
22766SOL    HW270678   4.230   1.471   2.018  1.7891  2.5644 -0.6239
22767SOL     OW70679   4.528   4.902   4.989 -0.9263  0.0079 -0.5649
22767SOL    HW170680   4.585   4.921   4.915 -1.0439 -0.0303 -0.6655
22767SOL    HW270681   4.518   4.986   5.034  0.1128 -0.2061  0.1004
22768SOL     OW70682   3.691   0.945   0.250 -0.3319 -0.5318 -0.1956
22768SOL    HW170683   3.684   0.855   0.282  0.0695 -0.6836 -0.5257
22768SOL    HW270684   3.643   0.945   0.167 -1.4655 -0.1123  0.4473
22769SOL     OW70685   0.221   7.962   0.259  0.5351  0.4261  0.2685
22769SOL    HW170686   0.291   7.958   0.323  0.9117  0.3372 -0.1446
22769SOL    HW270687   0.242   8.038   0.205  0.8638 -0.1801 -0.4809
22770SOL     OW70688   5.755   1.240   5.296 -0.0177  0.2966  0.3391
22770SOL    HW170689   5.779   1.328   5.325  0.2895 -0.1761  1.5953
22770SOL    HW270690   5.809   1.225   5.218  1.2660  0.5609  1.1390
22771SOL     OW70691   8.795   9.025   7.021 -0.0093 -0.1716  0.0879
22771SOL    HW170692   8.780   9.112   7.056 -0.6528  0.3160 -1.3299
22771SOL    HW270693   8.713   8.979   7.035  0.5575 -0.8104  1.4821
22772SOL     OW70694   1.766   5.710   8.450 -0.1476 -0.3466  0.1410
22772SOL    HW170695   1.731   5.796   8.424 -0.8008 -1.0489 -1.4033
22772SOL    HW270696   1.857   5.711   8.418  0.4508  0.4392  1.7571
22773SOL     OW70697   6.862   9.560   7.125  0.2443  0.8529  0.3531
22773SOL    HW170698   6.800   9.632   7.114 -1.2717 -0.3799  0.4694
22773SOL    HW270699   6.923   9.591   7.191  0.2170  2.3887 -0.2981
22774SOL     OW70700   1.793   2.554   5.698 -0.0633  0.6065  0.3663
22774SOL    HW170701   1.810   2.647   5.687  0.2859  1.0031  3.4374
22774SOL    HW270702   1.776   2.543   5.792 -0.6862 -2.3398  0.0193
22775SOL     OW70703   6.012   9.100   1.418 -0.1153  0.5259  0.2878
22775SOL    HW170704   6.065   9.078   1.342 -0.1908  0.4796  0.2483
22775SOL    HW270705   6.003   9.195   1.414 -1.8621  0.3525 -0.9340
22776SOL     OW70706   5.792   3.898   0.448  0.0777 -0.4294 -0.0188
22776SOL    HW170707   5.824   3.840   0.517  1.9862  1.0654  0.4296
22776SOL    HW270708   5.849   3.880   0.373 -0.3434 -0.2321 -0.3929
22777SOL     OW70709  10.183   6.646  10.444 -0.2354  0.6133  0.1157
22777SOL    HW170710  10.180   6.566  10.391 -1.6769  0.0558  0.9560
22777SOL    HW270711  10.179   6.717  10.381 -2.0305 -0.0338 -0.5694
22778SOL     OW70712   6.134   0.499   4.771 -0.3777 -0.0682 -0.4460
22778SOL    HW170713   6.179   0.536   4.847  0.2074 -1.3099 -0.1558
22778SOL    HW270714   6.092   0.574   4.728  1.6273  1.0998 -0.4888
22779SOL     OW70715   6.456   8.960   7.503 -0.0421  0.0646  0.1034
22779SOL    HW170716   6.534   8.965   7.559 -1.5144  1.1485  2.1744
22779SOL    HW270717   6.409   8.884   7.535 -1.1105  0.9408  0.6744
22780SOL     OW70718   5.760   7.298   6.930  0.3988 -0.5687 -0.2057
22780SOL    HW170719   5.765   7.248   6.849  1.7548 -1.0301  0.1371
22780SOL    HW270720   5.715   7.240   6.992 -0.6361 -0.2155 -0.6131
22781SOL     OW70721   6.976   8.100   1.456  0.2461 -0.3403  0.6349
22781SOL    HW170722   6.898   8.049   1.433 -0.0133  0.4762 -0.3686
22781SOL    HW270723   6.999   8.146   1.376  2.0451 -0.9046  0.7807
22782SOL     OW70724   4.328   9.113   5.942 -0.0426 -0.1100 -0.0452
22782SOL    HW170725   4.323   9.023   5.909 -0.2019 -0.1236  0.0134
22782SOL    HW270726   4.369   9.162   5.871  1.1778 -0.4603  0.4032
22783SOL     OW70727   7.345   3.767   2.550  0.3557  0.6828  0.2540
22783SOL    HW170728   7.429   3.787   2.509  1.0784 -1.8818  0.3053
22783SOL    HW270729   7.369   3.729   2.635 -0.8259 -0.4256  0.1193
22784SOL     OW70730   0.245   9.161   1.993  0.4409 -0.3435  0.2579
22784SOL    HW170731   0.174   9.223   1.978 -0.6570 -1.8649 -1.3693
22784SOL    HW270732   0.323   9.205   1.960 -0.3286  0.1665 -0.9745
22785SOL     OW70733   1.533   4.086   6.207  0.5280  0.7790 -0.1355
22785SOL    HW170734   1.559   4.037   6.129 -0.0352  0.2742 -0.0113
22785SOL    HW270735   1.528   4.019   6.276 -1.4333  0.7911 -0.2246
22786SOL     OW70736   9.855   3.770  10.599 -0.4606 -0.0080 -0.2983
22786SOL    HW170737   9.881   3.861  10.588  1.8948 -0.2922  1.9980
22786SOL    HW270738   9.799   3.751  10.523  0.0022  2.9461 -1.4791
22787SOL     OW70739   3.143   0.357  10.649  0.7111  0.4340 -0.3726
22787SOL    HW170740   3.190   0.418  10.705  1.3103  0.0281 -0.4285
22787SOL    HW270741   3.181   0.272  10.668 -0.8015 -0.1005  0.4462
22788SOL     OW70742   2.171   4.534   9.025 -0.3682 -0.0161 -0.1038
22788SOL    HW170743   2.167   4.583   9.107  1.2066 -0.9801  0.5872
22788SOL    HW270744   2.263   4.536   9.000 -0.8046  0.1576 -1.8045
22789SOL     OW70745   0.039   0.762   5.347 -0.2710 -0.4144  0.4360
22789SOL    HW170746   0.026   0.856   5.361 -2.9603 -0.2325 -2.2099
22789SOL    HW270747   0.108   0.756   5.281 -0.5867 -0.2536  0.0908
22790SOL     OW70748   0.956   2.109   9.860 -0.1356  0.2703  0.1272
22790SOL    HW170749   1.047   2.089   9.883  0.0866  1.0263 -0.0332
22790SOL    HW270750   0.945   2.073   9.772 -0.2276 -0.4809  0.4435
22791SOL     OW70751   5.376   0.837   6.138 -0.2091 -0.0921 -0.5555
22791SOL    HW170752   5.308   0.902   6.121 -0.5169 -0.0483  0.6852
22791SOL    HW270753   5.441   0.882   6.192 -1.3040 -1.1898  1.8765
22792SOL     OW70754   7.922   3.512   0.097 -0.1392  0.1939 -0.4798
22792SOL    HW170755   7.828   3.520   0.081 -0.3492 -1.1753 -0.0914
22792SOL    HW270756   7.934   3.420   0.123  1.4190  0.1346 -1.2995
22793SOL     OW70757  10.281   6.189   3.011  0.4275 -0.2323 -0.1547
22793SOL    HW170758  10.327   6.273   3.006 -0.5012  0.2184 -1.7195
22793SOL    HW270759  10.339   6.134   3.063  1.6635  0.9837 -0.1668
22794SOL     OW70760   1.719   4.408   1.388 -0.3516  0.7251  0.3705
22794SOL    HW170761   1.717   4.376   1.479  0.7826  1.3005  0.6121
22794SOL    HW270762   1.686   4.334   1.337  0.9919 -0.3850  1.0430
22795SOL     OW70763   5.162   5.382   5.855  0.2045  0.4517 -0.0743
22795SOL    HW170764   5.205   5.456   5.814  0.4601  0.0789 -0.4805
22795SOL    HW270765   5.069   5.404   5.853  0.4064  1.8630  1.9703
22796SOL     OW70766   7.304   1.178   1.801  0.2516  0.1347  0.2528
22796SOL    HW170767   7.396   1.162   1.821  0.1391 -0.1876  0.5185
22796SOL    HW270768   7.289   1.134   1.717 -0.5471 -2.9830  1.8799
22797SOL     OW70769   7.413   1.857   5.897  0.0786 -0.0357 -0.2230
22797SOL    HW170770   7.394   1.913   5.971  2.0055  0.5395 -0.1122
22797SOL    HW270771   7.448   1.776   5.935  0.9875  0.2246 -0.4789
22798SOL     OW70772   5.692  10.465   9.359 -0.1107 -0.6359 -0.4781
22798SOL    HW170773   5.735  10.456   9.444 -2.2553  0.4559  0.8144
22798SOL    HW270774   5.763  10.487   9.299  1.3698 -0.6245  1.1770
22799SOL     OW70775   4.962   9.684   8.596  0.3753  0.5942  0.3097
22799SOL    HW170776   4.929   9.724   8.515 -0.8414 -0.9272  0.0078
22799SOL    HW270777   4.926   9.595   8.595  1.1929  0.2093  2.0281
22800SOL     OW70778  10.000   3.172   3.219  0.4642 -0.5508 -0.2331
22800SOL    HW170779   9.962   3.257   3.196  0.6450 -0.6048 -0.7325
22800SOL    HW270780  10.081   3.195   3.267 -0.0950 -0.4385  0.6922
22801SOL     OW70781   8.866   9.849   5.831  0.1976  0.0102 -0.3541
22801SOL    HW170782   8.882   9.924   5.888  2.7148 -0.3884 -0.3957
22801SOL    HW270783   8.781   9.815   5.858  0.5113  0.8916  1.9554
22802SOL     OW70784   1.900   3.885   2.010  0.4975  0.8187  0.0421
22802SOL    HW170785   1.968   3.949   1.990  0.5863  0.7022 -0.0282
22802SOL    HW270786   1.854   3.922   2.085  0.8898  0.7109  0.3404
22803SOL     OW70787   8.985   6.779   0.623  0.1850 -0.1373 -0.2709
22803SOL    HW170788   8.987   6.837   0.699 -0.5114 -1.4462  0.7897
22803SOL    HW270789   9.067   6.730   0.627 -0.9617 -2.1278  1.2809
22804SOL     OW70790   0.770   4.533   0.472 -0.2791  0.0149  0.3120
22804SOL    HW170791   0.736   4.446   0.457 -0.0166  0.0581 -0.5581
22804SOL    HW270792   0.761   4.578   0.388  0.8690  0.3764  0.3551
22805SOL     OW70793   1.061   7.895   6.910  0.3155  0.2985  0.5020
22805SOL    HW170794   1.146   7.893   6.953 -0.3838  0.0202  1.9158
22805SOL    HW270795   1.000   7.857   6.973 -0.6703 -0.6831 -0.9502
22806SOL     OW70796   1.185   0.181   0.055  0.1753 -0.0408  0.4039
22806SOL    HW170797   1.260   0.128   0.030  1.1857  1.4547  0.1113
22806SOL    HW270798   1.189   0.184   0.151  0.6655  0.2650  0.3769
22807SOL     OW70799   1.113   4.701   6.790  0.7377 -0.2524  0.0005
22807SOL    HW170800   1.075   4.781   6.752  2.0973 -0.8918 -2.9459
22807SOL    HW270801   1.133   4.726   6.880 -0.2955  2.2338 -0.3568
22808SOL     OW70802   6.317   9.708   8.647  0.2125  0.2835 -0.3330
22808SOL    HW170803   6.318   9.619   8.612 -0.7660  1.1589 -2.7810
22808SOL    HW270804   6.225   9.727   8.661  0.2643  1.5183 -1.5603
22809SOL     OW70805   4.238   4.538   7.750 -0.0072  0.5828 -0.3991
22809SOL    HW170806   4.296   4.581   7.687  0.7601 -0.5377 -0.4779
22809SOL    HW270807   4.258   4.582   7.833  1.8346 -0.5302 -0.1863
22810SOL     OW70808   3.712   0.823   2.423 -0.1404  0.0311 -0.0652
22810SOL    HW170809   3.685   0.781   2.341  0.2299  0.3698 -0.3692
22810SOL    HW270810   3.791   0.872   2.399 -0.2816  0.4915  0.3931
22811SOL     OW70811  10.789   0.243   6.278  0.6769 -0.0716  0.0024
22811SOL    HW170812  10.827   0.160   6.308 -0.1508 -0.4179  0.1145
22811SOL    HW270813  10.730   0.270   6.349 -0.3122 -0.2291 -0.7339
22812SOL     OW70814   3.779   7.515   4.906 -0.5232 -0.0831  0.1757
22812SOL    HW170815   3.791   7.468   4.989 -0.6366 -0.1699  0.1426
22812SOL    HW270816   3.745   7.601   4.932  0.7223  0.3956  0.3202
22813SOL     OW70817   1.287   4.400  10.439 -0.7390  0.2880  0.0550
22813SOL    HW170818   1.272   4.396  10.344  0.2446  2.6514 -0.2763
22813SOL    HW270819   1.341   4.322  10.457 -2.1669 -1.0143 -1.0184
22814SOL     OW70820   0.315   0.137   6.390 -0.0842  0.3477  0.2415
22814SOL    HW170821   0.316   0.231   6.407 -0.2985  0.2313  0.9467
22814SOL    HW270822   0.248   0.103   6.449  0.3852 -0.3207  0.4008
22815SOL     OW70823   5.325   6.632   9.902  0.8819  0.3091 -0.1753
22815SOL    HW170824   5.319   6.654   9.808  0.1158 -1.5407 -0.5967
22815SOL    HW270825   5.397   6.570   9.908 -0.8043 -1.7231 -0.0256
22816SOL     OW70826   4.605   2.868   0.986 -0.4196 -0.4697 -0.5770
22816SOL    HW170827   4.683   2.859   0.931 -1.0682 -1.4488 -1.3569
22816SOL    HW270828   4.553   2.790   0.967 -1.6149  0.1930 -0.1059
22817SOL     OW70829   2.406  10.355  10.232  0.0337 -0.1073 -0.0669
22817SOL    HW170830   2.346  10.416  10.190 -0.5180  0.4319  1.4345
22817SOL    HW270831   2.483  10.353  10.175 -0.5677  0.8034 -0.9297
22818SOL     OW70832   7.364   4.300   9.088  0.2514 -0.3186  0.0005
22818SOL    HW170833   7.411   4.222   9.117  2.0371  0.3002 -1.0021
22818SOL    HW270834   7.429   4.370   9.095 -1.1594  1.0034  0.4221
22819SOL     OW70835   5.462   7.473   4.911  0.2351 -0.2025 -0.6319
22819SOL    HW170836   5.382   7.502   4.955  0.4516 -1.8773  0.9985
22819SOL    HW270837   5.433   7.401   4.855  0.8269 -2.5018  1.8104
22820SOL     OW70838   5.128   5.726   7.330 -0.4006 -0.5540  0.1396
22820SOL    HW170839   5.045   5.679   7.324 -0.7035  0.1162 -1.8935
22820SOL    HW270840   5.138   5.767   7.244  1.1407  0.9024  0.9545
22821SOL     OW70841   7.751   5.479   6.674 -0.8614 -0.0530 -0.4144
22821SOL    HW170842   7.716   5.407   6.725  0.5776 -0.9928 -0.6888
22821SOL    HW270843   7.735   5.557   6.727  0.1535 -0.9356  1.2777
22822SOL     OW70844   0.099   1.587   9.616 -0.8171 -0.1596 -0.3074
22822SOL    HW170845   0.012   1.618   9.640 -0.4853 -0.0740  0.8375
22822SOL    HW270846   0.132   1.652   9.554 -1.6192 -0.2843 -0.8882
22823SOL     OW70847   1.780   5.239   6.395  0.0211  0.3048  0.4072
22823SOL    HW170848   1.810   5.320   6.437  2.0061  0.0316 -0.3870
22823SOL    HW270849   1.857   5.182   6.395 -1.0160 -1.1604 -0.1021
22824SOL     OW70850   4.220   4.951   3.491 -0.2228  0.0302 -0.2280
22824SOL    HW170851   4.286   4.936   3.423  0.5872 -0.1660  0.5843
22824SOL    HW270852   4.266   5.000   3.559 -1.1279  0.5651  0.0198
22825SOL     OW70853   2.042   0.250   2.857  0.3931  0.2269  0.4418
22825SOL    HW170854   2.000   0.332   2.831  0.0265 -0.3225 -0.7675
22825SOL    HW270855   1.972   0.198   2.896  0.8020  0.7868  2.0152
22826SOL     OW70856   2.396   5.059   9.578 -0.4168  0.6512 -0.3726
22826SOL    HW170857   2.321   5.031   9.526 -0.1778  0.6983 -0.7443
22826SOL    HW270858   2.383   5.017   9.663 -2.2828  2.7711  0.4951
22827SOL     OW70859   7.475   5.835   4.065  0.2098  0.2425 -0.6124
22827SOL    HW170860   7.485   5.767   4.000  0.0313 -0.8346  0.4520
22827SOL    HW270861   7.411   5.896   4.027  1.2785  0.4749 -2.0737
22828SOL     OW70862   3.092   5.075   7.564 -0.0843 -0.1349 -0.0177
22828SOL    HW170863   3.012   5.121   7.588 -0.6102 -1.5177  1.0495
22828SOL    HW270864   3.163   5.128   7.600 -0.5846  0.4875  0.0665
22829SOL     OW70865   6.674   0.692   3.154  0.3574 -0.2206 -0.7771
22829SOL    HW170866   6.725   0.726   3.081  0.1920 -0.2188 -0.8940
22829SOL    HW270867   6.680   0.760   3.221 -0.8596  0.5525 -1.4100
22830SOL     OW70868   0.890   2.978   2.233 -0.5100  0.4085  0.3193
22830SOL    HW170869   0.863   2.945   2.319 -0.2695  3.2760  1.6154
22830SOL    HW270870   0.835   2.931   2.171 -1.5126 -0.9405  2.1292
22831SOL     OW70871  10.389   4.544  10.213  0.2535  0.1763  0.2262
22831SOL    HW170872  10.300   4.575  10.199 -0.1173 -1.2429 -0.8102
22831SOL    HW270873  10.389   4.454  10.180  2.8245  1.0263 -2.5075
22832SOL     OW70874   8.099   3.532   8.959  0.4790  0.0602  0.2782
22832SOL    HW170875   8.084   3.477   9.036  3.7805  0.0791  1.1127
22832SOL    HW270876   8.091   3.472   8.885 -1.3825 -0.2611  0.6946
22833SOL     OW70877   5.733   1.088   8.752 -0.6628 -0.7448 -0.3290
22833SOL    HW170878   5.771   1.169   8.786 -2.9847  0.1103  0.3654
22833SOL    HW270879   5.708   1.109   8.662 -0.8457 -0.8368 -0.3003
22834SOL     OW70880   0.520   7.176   0.283  0.2345  0.0006  0.6468
22834SOL    HW170881   0.489   7.220   0.204  0.2212 -0.4202  0.4145
22834SOL    HW270882   0.441   7.141   0.324  0.4909 -2.5670 -0.8427
22835SOL     OW70883   2.603   7.093   8.144 -0.0002  0.3451 -0.5236
22835SOL    HW170884   2.655   7.027   8.190 -0.9298 -0.4953 -0.6405
22835SOL    HW270885   2.605   7.170   8.201  0.6061  0.0203 -0.0995
22836SOL     OW70886   3.035   2.091   6.893  0.1145 -0.1289 -0.0634
22836SOL    HW170887   3.112   2.035   6.888 -0.5259 -1.0430 -0.0834
22836SOL    HW270888   3.065   2.171   6.936  0.9377 -0.6943  0.4426
22837SOL     OW70889   8.215   5.705   9.675 -0.1820 -0.1162  0.5661
22837SOL    HW170890   8.297   5.718   9.628 -0.0630 -1.1357  0.4715
22837SOL    HW270891   8.227   5.624   9.723 -1.5672 -0.9505 -0.4218
22838SOL     OW70892   7.907   4.558  10.072 -0.6757  0.5696  0.3449
22838SOL    HW170893   7.836   4.519  10.123  0.1731  0.5497  1.5502
22838SOL    HW270894   7.956   4.611  10.135 -0.2560  1.4605 -0.7021
22839SOL     OW70895   7.803   6.878   2.921 -0.6515 -0.9289  0.0711
22839SOL    HW170896   7.734   6.899   2.984  1.4823 -0.6789  2.4995
22839SOL    HW270897   7.842   6.797   2.955  1.4549 -0.0325 -0.0618
22840SOL     OW70898   4.332   5.113   9.024 -0.1198  0.0101  0.3849
22840SOL    HW170899   4.393   5.042   9.043 -0.0644 -0.2234 -0.5977
22840SOL    HW270900   4.374   5.191   9.060  0.7872 -0.1454 -0.2965
22841SOL     OW70901   2.717  10.363   2.672 -0.1798  0.3200 -0.2402
22841SOL    HW170902   2.663  10.284   2.673  0.9028 -0.4444 -0.6377
22841SOL    HW270903   2.669  10.424   2.616 -0.8371 -0.1957 -0.2484
22842SOL     OW70904   5.189   0.132   1.144  0.0953  0.0371 -0.2313
22842SOL    HW170905   5.266   0.112   1.090 -1.4488 -1.6534 -1.9580
22842SOL    HW270906   5.209   0.093   1.229  0.2648 -2.4366 -1.3333
22843SOL     OW70907  10.506   6.638   0.110  0.5748 -0.0631 -0.2074
22843SOL    HW170908  10.517   6.630   0.016  1.7060 -0.0708 -0.0793
22843SOL    HW270909  10.586   6.681   0.141  1.0740 -1.7362  0.9845
22844SOL     OW70910   9.706   2.688   3.255  0.0891 -0.4526 -0.1651
22844SOL    HW170911   9.679   2.745   3.183  0.6718  1.5474  1.1266
22844SOL    HW270912   9.645   2.707   3.326  1.0195 -0.5498  0.6843
22845SOL     OW70913   1.315   0.461  10.781 -0.3948 -0.3563 -0.2127
22845SOL    HW170914   1.248   0.405  10.821  1.4725 -1.7400  1.1539
22845SOL    HW270915   1.340   0.522  10.852 -0.2663  0.2118 -0.7371
22846SOL     OW70916   9.382   7.846   9.667  0.4215  0.3551  0.1505
22846SOL    HW170917   9.428   7.891   9.738 -0.0546  1.0014  0.0633
22846SOL    HW270918   9.360   7.761   9.703  0.9680  0.3422  0.4695
22847SOL     OW70919   9.285   8.467   4.251 -0.5614 -0.5434 -0.4715
22847SOL    HW170920   9.374   8.474   4.216 -0.5887 -1.1377 -0.6770
22847SOL    HW270921   9.291   8.504   4.339  0.5370 -2.9787  0.6010
22848SOL     OW70922   8.652   4.321   2.370  0.6305 -0.6159  0.0737
22848SOL    HW170923   8.575   4.279   2.409  0.4284 -1.5000 -1.2404
22848SOL    HW270924   8.622   4.410   2.348  0.1471 -0.7839  0.0473
22849SOL     OW70925   5.867   6.518   5.726  0.1610  0.2931 -0.3991
22849SOL    HW170926   5.784   6.559   5.749 -0.5383 -1.3961  0.2552
22849SOL    HW270927   5.857   6.493   5.634  0.2879  0.8309 -0.5659
22850SOL     OW70928   8.276   1.387   9.779  0.4631  0.0418 -0.1239
22850SOL    HW170929   8.214   1.318   9.803  1.5454 -1.0790 -0.4551
22850SOL    HW270930   8.362   1.347   9.791  1.1455  1.7018  0.7139
22851SOL     OW70931   9.823   7.209   2.065 -0.3269  0.2162  0.1580
22851SOL    HW170932   9.756   7.142   2.083 -1.1309  0.4848 -1.5734
22851SOL    HW270933   9.776   7.292   2.074  0.4440  0.5297  1.4252
22852SOL     OW70934   8.544   7.163   5.095 -0.1286  0.6113 -0.1740
22852SOL    HW170935   8.509   7.109   5.166 -1.7669 -0.6142 -1.8152
22852SOL    HW270936   8.566   7.100   5.026 -0.4540  1.9119 -1.5012
22853SOL     OW70937   7.053  10.061   9.838  0.5051  0.5375  0.0096
22853SOL    HW170938   7.001  10.123   9.889 -0.4875  0.2029 -0.5717
22853SOL    HW270939   6.989  10.007   9.793  1.2990 -1.5093  1.1576
22854SOL     OW70940   9.047   8.587   9.832 -0.0442  0.0732  0.2063
22854SOL    HW170941   8.953   8.601   9.847  0.6829  2.3886  4.0909
22854SOL    HW270942   9.078   8.669   9.795  0.7460  0.2876  1.2785
22855SOL     OW70943   6.977   4.188   2.908 -0.1690  0.0839  0.1600
22855SOL    HW170944   7.007   4.277   2.888 -0.3118  0.4377  1.4323
22855SOL    HW270945   6.884   4.197   2.926 -0.1868 -0.3307  0.2834
22856SOL     OW70946  10.751   5.957   6.614 -0.0733  0.4209 -0.2585
22856SOL    HW170947  10.720   5.871   6.643 -0.7904  0.1985 -1.6227
22856SOL    HW270948  10.672   6.012   6.614  0.0941  0.6691 -0.8257
22857SOL     OW70949   9.784   8.807   0.684  0.1678  0.2747  0.0652
22857SOL    HW170950   9.844   8.839   0.752 -0.2804  0.4284  0.3953
22857SOL    HW270951   9.833   8.817   0.602  0.8382 -0.2323  0.3988
22858SOL     OW70952  10.466   7.499   7.603 -0.1507 -0.6250 -0.3816
22858SOL    HW170953  10.550   7.535   7.573  0.1351 -0.6471  0.3751
22858SOL    HW270954  10.486   7.409   7.627 -0.2690 -0.4584  0.3422
22859SOL     OW70955   3.848   0.482   3.290 -0.0079 -0.0950  0.1895
22859SOL    HW170956   3.787   0.441   3.352  0.4019 -0.2900  0.4623
22859SOL    HW270957   3.920   0.420   3.282 -1.1100 -1.1945 -2.2770
22860SOL     OW70958  10.628   3.765   7.678  0.1551  0.0738  0.2485
22860SOL    HW170959  10.560   3.716   7.632 -2.2358  1.9730  1.4994
22860SOL    HW270960  10.610   3.749   7.771  1.7247  0.2689  0.6056
22861SOL     OW70961   1.130   6.884   4.632 -0.6256 -0.0458 -0.4623
22861SOL    HW170962   1.056   6.937   4.662  0.2719  0.8016  0.3076
22861SOL    HW270963   1.188   6.945   4.588  0.2288 -0.4521  0.0721
22862SOL     OW70964   0.078   2.614   3.489  0.8327 -0.0071  0.3766
22862SOL    HW170965   0.093   2.610   3.395 -0.2305  0.3117  0.1824
22862SOL    HW270966   0.023   2.537   3.508  0.8177  0.0757  0.6825
22863SOL     OW70967  10.381   2.200   8.532  0.4940 -0.4504 -0.6547
22863SOL    HW170968  10.297   2.225   8.492  1.0597  0.3713 -1.3769
22863SOL    HW270969  10.436   2.176   8.458  1.2448  0.1036 -0.2861
22864SOL     OW70970   6.900   3.605   4.412 -0.0994 -0.5105  0.3340
22864SOL    HW170971   6.817   3.636   4.377  0.4342  1.4479  0.6381
22864SOL    HW270972   6.882   3.517   4.445 -1.4744 -1.0061 -1.5656
22865SOL     OW70973   1.242   5.278   9.866 -0.7590 -0.2530  0.1912
22865SOL    HW170974   1.207   5.355   9.911 -1.0007 -0.0453 -0.3453
22865SOL    HW270975   1.166   5.220   9.855 -0.6771 -0.3535  0.1565
22866SOL     OW70976   7.167   0.955   8.733 -0.0129  0.6365  0.1777
22866SOL    HW170977   7.077   0.979   8.752 -0.3015 -0.9162  0.9013
22866SOL    HW270978   7.218   0.993   8.805 -0.0080  1.8015 -0.4083
22867SOL     OW70979  10.191   9.212   5.317  0.2219 -0.2158  0.3504
22867SOL    HW170980  10.278   9.172   5.328 -0.1381 -1.3811 -0.8109
22867SOL    HW270981  10.142   9.149   5.264 -1.0155  0.8888  0.1324
22868SOL     OW70982   3.600   0.539   9.494  0.1343 -0.5227 -0.5381
22868SOL    HW170983   3.687   0.499   9.501 -0.3632 -1.2931  2.2845
22868SOL    HW270984   3.603   0.614   9.553 -1.5948 -1.5939  1.0139
22869SOL     OW70985   2.379   2.188   3.236 -0.2014  0.2675 -0.2269
22869SOL    HW170986   2.409   2.174   3.147  0.0525  0.8687 -0.2451
22869SOL    HW270987   2.450   2.154   3.291  0.5100  1.5923 -0.2698
22870SOL     OW70988  10.390   6.493   5.797  0.0356 -0.1586 -0.1401
22870SOL    HW170989  10.450   6.451   5.859  0.1783 -0.7222 -0.6477
22870SOL    HW270990  10.418   6.460   5.711  0.0203  0.8156 -0.5364
22871SOL     OW70991   0.287   5.288   3.034  0.1620 -0.3477 -0.1466
22871SOL    HW170992   0.230   5.222   2.996  0.4842 -1.7643  1.7089
22871SOL    HW270993   0.309   5.346   2.960  0.7610 -2.8964 -2.1023
22872SOL     OW70994   1.642  10.419  10.017 -0.4147 -1.0120  0.5849
22872SOL    HW170995   1.680  10.376  10.093 -0.4852  1.0371  1.8752
22872SOL    HW270996   1.547  10.413  10.030 -0.4602 -1.8077 -0.0505
22873SOL     OW70997   5.003   5.142  10.006  0.5654  0.9264 -0.5564
22873SOL    HW170998   5.003   5.124  10.100 -2.6988  1.3330 -0.3611
22873SOL    HW270999   4.963   5.065   9.967  0.5250  1.3881 -1.4444
22874SOL     OW71000   2.435   3.781   6.330 -0.1514  0.6949 -0.9536
22874SOL    HW171001   2.527   3.763   6.351 -0.2974  0.9206 -0.0627
22874SOL    HW271002   2.436   3.807   6.238  0.4834 -0.6845 -1.3611
22875SOL     OW71003   1.557   1.511   6.082 -0.5233  0.5946 -0.2098
22875SOL    HW171004   1.545   1.427   6.128 -1.3655  0.5942 -0.4107
22875SOL    HW271005   1.485   1.566   6.114  0.2426  1.3839  0.2153
22876SOL     OW71006   0.999   5.788   1.542  0.4303 -0.3323 -0.6261
22876SOL    HW171007   0.926   5.816   1.598  0.0231  1.0878 -1.7913
22876SOL    HW271008   0.958   5.738   1.472  0.5807  0.2501 -1.1434
22877SOL     OW71009  10.782   7.687   8.290  0.4151  0.4013  0.3416
22877SOL    HW171010  10.706   7.720   8.242  0.6134  2.0482  1.1014
22877SOL    HW271011  10.745   7.633   8.360  0.1078 -1.5768 -1.2490
22878SOL     OW71012   3.328   1.605   1.470 -0.9091  0.2969 -0.0028
22878SOL    HW171013   3.265   1.668   1.434 -1.4701  0.8598  1.8231
22878SOL    HW271014   3.413   1.636   1.438 -1.4160  0.3500 -1.3663
22879SOL     OW71015  10.490   2.997   1.538 -0.0384 -0.1125  0.6412
22879SOL    HW171016  10.422   3.020   1.474  0.5964 -0.0532 -0.0186
22879SOL    HW271017  10.563   2.966   1.485  0.5132 -0.0215  1.3386
22880SOL     OW71018   4.304   5.270   3.324  0.0112  0.3192  0.6435
22880SOL    HW171019   4.250   5.300   3.397  0.1394 -1.1745  1.3779
22880SOL    HW271020   4.387   5.315   3.335 -0.0220  0.2177  1.3346
22881SOL     OW71021   2.096   5.028   2.141  0.3745 -0.4549  0.3689
22881SOL    HW171022   2.159   4.988   2.080  0.1472 -0.5502  0.1954
22881SOL    HW271023   2.010   5.009   2.102  0.2519 -0.0649  0.4486
22882SOL     OW71024   8.311   9.928   7.290 -0.0846 -0.9862 -0.1387
22882SOL    HW171025   8.278   9.942   7.379 -2.1858  0.4355 -1.0544
22882SOL    HW271026   8.280   9.841   7.266  1.9533 -2.1170  1.0501
22883SOL     OW71027   2.439   8.984   8.647 -0.1971 -0.0663  0.6381
22883SOL    HW171028   2.451   9.077   8.665 -0.0688  0.0098  0.1804
22883SOL    HW271029   2.358   8.961   8.692 -1.0399  0.6228 -0.4663
22884SOL     OW71030   0.127  10.435  10.493 -0.0183  0.2069 -0.0293
22884SOL    HW171031   0.218  10.449  10.466 -0.4698  0.0609 -1.7222
22884SOL    HW271032   0.117  10.491  10.570  1.7204 -0.3907  0.6950
22885SOL     OW71033   7.783   2.978   6.541  0.8893  0.3134 -0.0128
22885SOL    HW171034   7.751   3.024   6.618 -1.7367 -1.6082  0.1590
22885SOL    HW271035   7.725   3.005   6.470 -0.4608 -2.2268  0.0095
22886SOL     OW71036   5.479   7.415   2.878 -0.1148  0.5448 -0.5877
22886SOL    HW171037   5.460   7.506   2.856  1.0874  0.7817 -0.7107
22886SOL    HW271038   5.400   7.367   2.851 -0.2158  1.3608 -1.8464
22887SOL     OW71039   2.661   4.248   7.729  0.0507  0.6267  0.5704
22887SOL    HW171040   2.567   4.230   7.724 -0.2393  1.2245  2.6465
22887SOL    HW271041   2.678   4.307   7.656 -0.7887 -0.8505 -0.8903
22888SOL     OW71042   1.733   1.187  10.690  0.5965 -0.3344  0.2789
22888SOL    HW171043   1.691   1.272  10.707  1.5921 -0.1390  1.9232
22888SOL    HW271044   1.723   1.138  10.771  2.2194 -0.8428  0.2043
22889SOL     OW71045   5.870   0.076   5.029  0.6436  0.4946  0.1956
22889SOL    HW171046   5.908  -0.010   5.049  0.6691  0.5325  0.3101
22889SOL    HW271047   5.908   0.100   4.944  1.4322  0.8560  0.6426
22890SOL     OW71048   1.075   6.905   0.267 -0.9482 -0.3486 -0.7045
22890SOL    HW171049   0.985   6.873   0.275 -0.6541 -1.1775 -0.5936
22890SOL    HW271050   1.112   6.893   0.355 -0.3196 -1.3323 -1.0784
22891SOL     OW71051   9.890   0.672   0.178  0.1753  0.3599  0.2453
22891SOL    HW171052   9.914   0.764   0.170 -0.4776  0.6977  1.7466
22891SOL    HW271053   9.898   0.637   0.090 -1.4390  2.3379 -0.7772
22892SOL     OW71054   0.410   6.979   4.609 -0.4641  0.4495 -0.4620
22892SOL    HW171055   0.361   6.928   4.673 -2.5570 -0.1858 -2.4326
22892SOL    HW271056   0.473   6.917   4.571 -1.2397 -0.0062 -1.0387
22893SOL     OW71057   1.437   1.463   8.375  0.4009 -0.1819 -0.2278
22893SOL    HW171058   1.381   1.512   8.434 -0.7142 -0.0178 -1.3704
22893SOL    HW271059   1.510   1.522   8.355  0.6313 -0.1388  0.7320
22894SOL     OW71060   5.554   9.805  10.706 -0.1959 -0.1792 -0.8838
22894SOL    HW171061   5.633   9.858  10.718  0.5692 -1.2966 -0.9133
22894SOL    HW271062   5.489   9.846  10.763 -0.1167  1.7678 -2.0858
22895SOL     OW71063   9.252   3.405   3.481 -0.4547  0.5706  0.6875
22895SOL    HW171064   9.190   3.442   3.545 -1.3043 -0.4557  0.4941
22895SOL    HW271065   9.308   3.348   3.533  0.5522  1.6978  0.9069
22896SOL     OW71066   0.604   0.573   7.266  0.0306  0.2923  0.8686
22896SOL    HW171067   0.687   0.616   7.284  0.5122 -0.8958  1.5810
22896SOL    HW271068   0.591   0.512   7.339 -0.6824 -0.6719 -0.0280
22897SOL     OW71069   7.810   5.039   5.949  0.0827  0.2760  0.3670
22897SOL    HW171070   7.816   5.125   5.909 -0.0226 -0.0014 -0.2488
22897SOL    HW271071   7.721   5.010   5.931  0.4376 -0.4109 -0.3716
22898SOL     OW71072   4.578   6.553   9.776 -0.3413 -0.0560  0.4726
22898SOL    HW171073   4.507   6.518   9.830 -1.0661  1.1532  0.3043
22898SOL    HW271074   4.642   6.481   9.774 -1.3629 -1.0157  0.9424
22899SOL     OW71075   5.737   5.548   1.666 -0.8161  0.3786 -0.1927
22899SOL    HW171076   5.647   5.581   1.668 -0.1949  2.1774  2.0834
22899SOL    HW271077   5.763   5.543   1.759  1.4073 -0.1674 -0.7820
22900SOL     OW71078   2.304   2.757   0.775  0.3232 -0.0192 -0.1447
22900SOL    HW171079   2.311   2.688   0.709  0.1580  0.2565 -0.4539
22900SOL    HW271080   2.226   2.807   0.749  1.2381  1.1475 -0.7506
22901SOL     OW71081   4.841   0.584   3.464 -0.1743 -0.4012  0.7212
22901SOL    HW171082   4.751   0.569   3.436  0.1856 -1.8920  0.2728
22901SOL    HW271083   4.839   0.670   3.506 -2.2051 -1.1986  2.4677
22902SOL     OW71084   3.646   8.169   2.238 -0.1128  0.1661 -0.1714
22902SOL    HW171085   3.731   8.212   2.229  0.1129 -0.4245 -1.0408
22902SOL    HW271086   3.668   8.076   2.248 -0.6519  0.0225 -0.3217
22903SOL     OW71087   6.353   9.261   3.000  0.1199 -0.2329  0.4696
22903SOL    HW171088   6.281   9.214   3.042  0.1325 -0.4274  0.2772
22903SOL    HW271089   6.430   9.237   3.052  0.2673 -1.1028 -0.1240
22904SOL     OW71090   4.834  10.763   3.294 -0.0946  0.4900 -0.0803
22904SOL    HW171091   4.739  10.765   3.298 -0.1922  0.4561 -1.7902
22904SOL    HW271092   4.856  10.804   3.210  1.2809 -1.5783 -0.8087
22905SOL     OW71093   1.147   2.119   1.424 -0.4389  0.0010  0.4991
22905SOL    HW171094   1.087   2.194   1.433 -0.3281  0.1347  0.1397
22905SOL    HW271095   1.145   2.098   1.331  1.2452  0.9826  0.2095
22906SOL     OW71096   5.147   2.803   5.282 -0.1606  0.1112 -0.5618
22906SOL    HW171097   5.210   2.781   5.213 -0.9763 -1.1864 -0.9301
22906SOL    HW271098   5.075   2.846   5.237 -0.2286  0.1906 -0.3780
22907SOL     OW71099   6.199   2.533   5.693 -0.0456  0.6406  0.1787
22907SOL    HW171100   6.181   2.441   5.713 -0.1148  0.3379 -1.1631
22907SOL    HW271101   6.294   2.537   5.677 -0.1431  0.6594 -0.4218
22908SOL     OW71102   4.356   7.204   6.836  0.7335  0.5977  0.2015
22908SOL    HW171103   4.271   7.162   6.851  0.6523  1.1381  1.3711
22908SOL    HW271104   4.408   7.182   6.913  1.6580  0.2904 -0.4996
22909SOL     OW71105   0.632   0.318   3.828  0.0792 -0.4966  0.0167
22909SOL    HW171106   0.577   0.334   3.752  0.2021  0.8323  0.1855
22909SOL    HW271107   0.700   0.258   3.797 -0.1121 -0.2970 -0.8003
22910SOL     OW71108   2.094   2.369   2.669  0.6535  0.2289 -0.0259
22910SOL    HW171109   2.043   2.288   2.661 -0.0143  0.8091 -2.3787
22910SOL    HW271110   2.035   2.438   2.638  1.2857  1.6116  1.7280
22911SOL     OW71111  10.035   7.038   0.317 -0.3793 -0.0301  0.0750
22911SOL    HW171112   9.981   6.976   0.268 -2.7017  0.9172  1.2992
22911SOL    HW271113  10.065   7.101   0.250 -1.8929  0.1593 -0.4626
22912SOL     OW71114   0.941   3.745   7.314 -0.3289 -0.5052  0.3647
22912SOL    HW171115   1.007   3.775   7.377  0.6424 -0.5064 -0.6136
22912SOL    HW271116   0.888   3.822   7.295  0.9845  0.1651 -0.7231
22913SOL     OW71117   6.041   2.544  10.034 -0.0654  0.5898 -0.4207
22913SOL    HW171118   6.061   2.487  10.108 -2.1503 -0.2441 -0.4466
22913SOL    HW271119   6.112   2.608  10.033  1.5853 -1.1323  0.4913
22914SOL     OW71120   1.930   9.653  10.637 -0.1312 -0.0633 -0.9267
22914SOL    HW171121   1.856   9.674  10.581 -1.3754 -3.5480 -0.8098
22914SOL    HW271122   1.892   9.641  10.724  1.2107  1.6114 -0.0462
22915SOL     OW71123   0.261   2.527   8.263  0.1017 -0.0324 -0.1746
22915SOL    HW171124   0.321   2.521   8.189 -0.6858  0.8097 -0.9112
22915SOL    HW271125   0.268   2.618   8.292 -0.5027 -0.0373  0.0005
22916SOL     OW71126   7.289   2.914  10.415  0.1950 -0.1186  0.6736
22916SOL    HW171127   7.327   2.838  10.371 -0.3189  1.6996 -3.3012
22916SOL    HW271128   7.204   2.884  10.446  0.5167 -1.4710  0.3091
22917SOL     OW71129   1.945   9.837   2.964  0.4631 -0.0189 -0.4474
22917SOL    HW171130   2.029   9.809   2.998  1.6139  2.7098 -0.8013
22917SOL    HW271131   1.956   9.839   2.869 -0.4284 -0.8375 -0.5853
22918SOL     OW71132   7.673   4.284   6.408  0.1000  0.0535 -0.0640
22918SOL    HW171133   7.748   4.328   6.449 -0.3363  0.6027  0.1472
22918SOL    HW271134   7.709   4.201   6.376  0.1452 -1.1590  2.7957
22919SOL     OW71135   2.929  10.307   7.145 -0.4588 -0.3665  0.2750
22919SOL    HW171136   2.983  10.317   7.066 -0.3084 -0.4095  0.3732
22919SOL    HW271137   2.976  10.353   7.213 -1.5063  1.3161 -0.0688
22920SOL     OW71138   1.545   1.316   3.266 -0.4274  0.0168 -0.0991
22920SOL    HW171139   1.544   1.375   3.342 -0.6045 -0.4168  0.2363
22920SOL    HW271140   1.454   1.289   3.255 -0.6416  1.1078 -1.2894
22921SOL     OW71141   6.847   7.519   7.235  0.7483  0.1765  0.2217
22921SOL    HW171142   6.923   7.549   7.285  2.1598 -2.0613 -0.4348
22921SOL    HW271143   6.883   7.490   7.151 -0.7970 -1.1191 -0.0514
22922SOL     OW71144   8.036   9.164   0.212 -0.2050 -0.6114  0.1661
22922SOL    HW171145   8.117   9.170   0.262 -1.0318  1.9341  1.3442
22922SOL    HW271146   8.006   9.254   0.203 -3.3217 -1.5087  0.4505
22923SOL     OW71147   5.147   1.800   4.261  0.5928  0.4896 -0.0831
22923SOL    HW171148   5.109   1.791   4.174 -0.2434  0.3513  0.2899
22923SOL    HW271149   5.104   1.733   4.314 -0.9585  2.3413  1.1271
22924SOL     OW71150   1.460   3.857   9.701 -0.2839  0.0735 -0.0863
22924SOL    HW171151   1.432   3.833   9.613  2.1028  4.2259 -2.2760
22924SOL    HW271152   1.391   3.913   9.734  0.0993  0.8365 -0.5617
22925SOL     OW71153   7.759   4.809   7.581 -0.2661  0.2937 -0.4758
22925SOL    HW171154   7.734   4.901   7.581  1.3616  0.7656 -0.3060
22925SOL    HW271155   7.812   4.798   7.502  0.4847 -0.2275  0.0864
22926SOL     OW71156   2.772   0.777   3.180  0.0287 -0.5069  0.6449
22926SOL    HW171157   2.862   0.810   3.184  0.5402 -1.7802 -0.0442
22926SOL    HW271158   2.780   0.683   3.194 -1.0625 -0.8093 -0.5967
22927SOL     OW71159   1.906   3.505   4.248 -0.5358 -0.8044 -0.0765
22927SOL    HW171160   1.966   3.463   4.310 -0.2251  0.2412  0.3396
22927SOL    HW271161   1.860   3.432   4.207 -1.2660 -1.5106  1.8769
22928SOL     OW71162   9.238   2.641   7.588 -0.5275 -0.6152 -0.1966
22928SOL    HW171163   9.216   2.560   7.541  0.3966 -0.8442 -0.2470
22928SOL    HW271164   9.267   2.611   7.674  1.8349 -0.5277 -0.8915
22929SOL     OW71165   8.383   8.603   7.475 -0.0114 -0.1527  0.4668
22929SOL    HW171166   8.296   8.566   7.492 -1.0572  2.8880  2.6609
22929SOL    HW271167   8.433   8.585   7.554  0.1457  1.0720  0.6791
22930SOL     OW71168   2.627   5.230   9.511 -0.5811  0.7034 -0.5445
22930SOL    HW171169   2.548   5.176   9.508  0.4060 -1.0033  1.5797
22930SOL    HW271170   2.636   5.255   9.603  2.9383 -1.7738 -0.0110
22931SOL     OW71171   7.526   9.857   0.375  0.2195 -0.0381  0.1352
22931SOL    HW171172   7.449   9.903   0.343  0.7592  1.1381  0.4940
22931SOL    HW271173   7.494   9.800   0.445 -0.1553  1.2888  1.0659
22932SOL     OW71174   1.462   7.166   3.349  0.1504  0.2265 -0.4392
22932SOL    HW171175   1.435   7.240   3.294  0.8745  1.9267  1.3648
22932SOL    HW271176   1.549   7.144   3.318 -0.1751 -0.0566 -1.1631
22933SOL     OW71177   6.443   1.301   5.655 -0.4230  0.3488 -0.1210
22933SOL    HW171178   6.489   1.217   5.662 -2.3152 -0.6292  1.8404
22933SOL    HW271179   6.363   1.280   5.606 -1.2260  0.8171  0.9452
22934SOL     OW71180   0.348   3.018   6.629  0.3624 -0.1011  0.1662
22934SOL    HW171181   0.283   3.086   6.646  0.0138 -0.6769  1.2413
22934SOL    HW271182   0.301   2.951   6.580  0.1714 -0.4397  0.7966
22935SOL     OW71183   7.093   4.618   4.847  0.8080 -0.2647  0.3487
22935SOL    HW171184   7.077   4.523   4.851 -1.5787 -0.0186 -1.1229
22935SOL    HW271185   7.089   4.646   4.938 -0.9361 -1.3031  0.6606
22936SOL     OW71186   9.341   9.433   9.589  0.9528  0.4255  0.7255
22936SOL    HW171187   9.407   9.383   9.541 -0.6758  0.5461 -1.7699
22936SOL    HW271188   9.378   9.522   9.594  2.1898 -0.1204  1.8807
22937SOL     OW71189   5.151   7.315   7.340  0.2740  0.1243  0.0803
22937SOL    HW171190   5.231   7.276   7.375 -0.5667 -0.8593  0.9610
22937SOL    HW271191   5.113   7.246   7.286 -0.1881  0.4388  0.0008
22938SOL     OW71192   5.397   4.010  10.501  0.1460 -0.6475 -0.1039
22938SOL    HW171193   5.326   3.946  10.493  0.7978 -1.3794 -0.0875
22938SOL    HW271194   5.460   3.985  10.434 -0.0779  0.6391 -0.8297
22939SOL     OW71195   8.639  10.153   9.382 -0.2492 -0.2111 -0.5849
22939SOL    HW171196   8.556  10.126   9.342 -1.2650 -0.9100  1.8063
22939SOL    HW271197   8.623  10.243   9.412 -0.1310 -0.3248 -0.1730
22940SOL     OW71198   3.883   1.496   3.821 -0.1057  0.1565 -0.0851
22940SOL    HW171199   3.921   1.569   3.870  0.8698 -0.8376  0.6783
22940SOL    HW271200   3.939   1.488   3.743 -0.6054  0.6273 -0.4974
22941SOL     OW71201   3.489   3.522   0.701  0.7674 -0.1875 -0.5984
22941SOL    HW171202   3.462   3.554   0.788 -0.4237  0.1127 -1.0596
22941SOL    HW271203   3.567   3.470   0.718  1.3040  0.9099  0.5008
22942SOL     OW71204   0.808   1.563   1.388 -0.8506 -0.5953 -0.1725
22942SOL    HW171205   0.855   1.625   1.332 -1.9083  0.3807 -0.0167
22942SOL    HW271206   0.804   1.482   1.336 -0.4071 -0.2029 -0.8383
22943SOL     OW71207   8.062   7.599  10.658  0.4686  0.6480 -0.0908
22943SOL    HW171208   8.123   7.532  10.627 -0.3625  1.0603 -2.8606
22943SOL    HW271209   8.082   7.676  10.606 -1.7301  1.0976 -0.3731
22944SOL     OW71210   6.200   0.104   8.281  0.6441 -0.1765  0.0855
22944SOL    HW171211   6.228   0.134   8.367  1.4783 -0.2025 -0.1681
22944SOL    HW271212   6.117   0.150   8.265  0.3886 -0.3170  0.9720
22945SOL     OW71213   5.013   1.610   2.262 -0.2072  0.0995 -0.4220
22945SOL    HW171214   4.974   1.675   2.320  0.6649 -0.1156  0.4325
22945SOL    HW271215   5.030   1.658   2.180  2.5108  1.6328  0.9097
22946SOL     OW71216   2.070   0.912   8.523 -1.1004  0.3320  0.3302
22946SOL    HW171217   2.077   0.990   8.578 -1.5024  0.2014  0.5703
22946SOL    HW271218   2.119   0.845   8.571  3.0676  1.4441 -1.8626
22947SOL     OW71219   3.614   3.129   3.481  0.3044 -0.0019  0.3724
22947SOL    HW171220   3.661   3.082   3.550  0.6184 -0.3460 -0.0658
22947SOL    HW271221   3.565   3.061   3.435  0.8570  0.0725 -0.3449
22948SOL     OW71222  10.479   7.725   6.188 -0.6592 -0.4516 -0.3621
22948SOL    HW171223  10.410   7.721   6.254  0.1288  0.5731  0.5655
22948SOL    HW271224  10.487   7.818   6.168  0.2729 -0.5819 -0.6387
22949SOL     OW71225   1.893   6.716   1.273  0.1548 -0.1662  0.5460
22949SOL    HW171226   1.977   6.721   1.229 -0.0619  1.0646  0.2125
22949SOL    HW271227   1.914   6.712   1.367  0.6487 -3.9283  0.4234
22950SOL     OW71228   9.753  10.463   5.213  0.1520 -0.0258 -0.0639
22950SOL    HW171229   9.818  10.525   5.246 -0.4344 -0.4447  1.9896
22950SOL    HW271230   9.793  10.377   5.225 -1.2118 -0.3990  2.5315
22951SOL     OW71231   3.306   9.796   8.078  0.5029 -0.1121 -0.3611
22951SOL    HW171232   3.345   9.816   7.993  2.0713 -0.6683  0.1842
22951SOL    HW271233   3.356   9.848   8.141 -0.6414  0.3007  0.2307
22952SOL     OW71234   4.189   9.376   3.593 -0.1522 -0.1861 -0.1169
22952SOL    HW171235   4.127   9.333   3.534 -1.0207  0.1650  0.5160
22952SOL    HW271236   4.206   9.311   3.661  1.3710 -0.8379 -1.0892
22953SOL     OW71237   6.555   3.764   8.194 -0.5563 -0.0915  0.1677
22953SOL    HW171238   6.619   3.694   8.210  0.7813  0.8336 -0.8806
22953SOL    HW271239   6.565   3.823   8.269  0.0356  0.1767 -0.1105
22954SOL     OW71240   0.245   6.186   9.049 -0.0496 -0.4482  0.9438
22954SOL    HW171241   0.202   6.204   8.966  1.5420  2.6094  0.6276
22954SOL    HW271242   0.240   6.269   9.097  0.2475 -1.7430  3.3483
22955SOL     OW71243   3.826   1.866   5.186 -0.0669  0.2509 -0.5994
22955SOL    HW171244   3.900   1.846   5.244 -0.8886 -2.4472 -0.3085
22955SOL    HW271245   3.754   1.886   5.246  0.0708  1.5564 -0.8465
22956SOL     OW71246   4.272   3.832   4.886  0.7957 -0.3111 -0.5570
22956SOL    HW171247   4.193   3.846   4.938  0.3277 -1.5471 -0.9093
22956SOL    HW271248   4.344   3.857   4.945  0.1758  0.4839 -0.1163
22957SOL     OW71249   0.550   8.782   7.697  0.1519 -0.4921 -0.2740
22957SOL    HW171250   0.607   8.720   7.742  1.8543  1.6871  0.7537
22957SOL    HW271251   0.462   8.761   7.728  0.9810 -0.7860  2.0279
22958SOL     OW71252   1.432   5.902   8.892 -0.4380 -0.1477  0.0254
22958SOL    HW171253   1.519   5.905   8.850 -0.3685  0.0821  0.1828
22958SOL    HW271254   1.370   5.906   8.819 -0.3162 -0.9640 -0.1271
22959SOL     OW71255   7.448   7.076   4.300 -0.2221  0.5328 -0.2014
22959SOL    HW171256   7.503   7.084   4.222 -0.0749 -0.2180 -0.1845
22959SOL    HW271257   7.454   6.984   4.324 -0.4849  0.7007  0.5425
22960SOL     OW71258   8.559   0.920   5.639  0.2982  0.6500 -0.5388
22960SOL    HW171259   8.553   0.898   5.545 -1.2923 -2.1402  0.0785
22960SOL    HW271260   8.468   0.916   5.670  1.0614 -3.5483  1.9731
22961SOL     OW71261   9.536  10.344   4.221 -0.1333 -0.1956  0.1181
22961SOL    HW171262   9.477  10.368   4.150  0.1875 -1.7917 -0.7491
22961SOL    HW271263   9.620  10.383   4.197 -0.2026 -0.1176 -0.0006
22962SOL     OW71264  10.376   2.689   6.947  0.1233  0.6979 -0.0260
22962SOL    HW171265  10.356   2.736   7.028  2.0840  0.1347  0.8419
22962SOL    HW271266  10.359   2.597   6.967 -1.4949  0.7336 -1.0013
22963SOL     OW71267   2.532  10.174   5.498 -0.1080  0.1353  0.1043
22963SOL    HW171268   2.536  10.219   5.583  1.2609  0.3074 -0.0294
22963SOL    HW271269   2.549  10.243   5.434  1.8170 -0.4896 -0.1203
22964SOL     OW71270   4.253   7.275   5.747  0.8321 -0.2936 -0.4841
22964SOL    HW171271   4.262   7.231   5.831 -2.4959 -0.2854  0.0309
22964SOL    HW271272   4.220   7.362   5.769  2.0205  0.5269 -1.7565
22965SOL     OW71273   1.994   3.414   1.761 -0.0688  0.0777 -0.1496
22965SOL    HW171274   2.014   3.457   1.844  0.3258 -0.5761  0.1005
22965SOL    HW271275   2.079   3.387   1.726 -0.3333 -0.8540 -0.0995
22966SOL     OW71276   0.211   8.468  10.703 -0.4534  0.4250 -0.6984
22966SOL    HW171277   0.153   8.531  10.745 -2.2073 -0.2289 -2.0478
22966SOL    HW271278   0.291   8.519  10.684 -1.2508  1.8292 -0.4288
22967SOL     OW71279   8.153   4.692   8.231  0.2261 -0.3870  0.5901
22967SOL    HW171280   8.241   4.718   8.206  0.4344 -0.7383  0.9362
22967SOL    HW271281   8.111   4.666   8.149  1.0147 -1.8639  0.6240
22968SOL     OW71282   2.653   0.593   0.269  0.4722  0.4978  0.1541
22968SOL    HW171283   2.682   0.568   0.357 -0.1304 -0.1792  0.1660
22968SOL    HW271284   2.652   0.689   0.271 -0.5840  0.4910  1.2386
22969SOL     OW71285   1.693   4.361   9.956  0.1778  0.1536 -0.6182
22969SOL    HW171286   1.677   4.282   9.904  0.9794 -0.3099 -0.1906
22969SOL    HW271287   1.705   4.329  10.045  0.1430  0.7988 -0.3792
22970SOL     OW71288   1.819   5.222   4.989  0.6149 -0.1786  0.0305
22970SOL    HW171289   1.847   5.234   5.080  0.0552  3.1163 -0.0911
22970SOL    HW271290   1.891   5.257   4.937 -0.2122  0.6172 -0.6265
22971SOL     OW71291  10.705   0.633   6.035 -0.2760 -0.1062  0.4043
22971SOL    HW171292  10.684   0.726   6.033 -3.6138 -0.7165  0.6067
22971SOL    HW271293  10.757   0.618   5.956  0.5013  1.9280  0.4726
22972SOL     OW71294   9.055   2.177   2.644 -0.4644  1.0462 -0.1668
22972SOL    HW171295   9.070   2.200   2.736 -0.6641  0.3823  0.0375
22972SOL    HW271296   8.990   2.240   2.613  2.4342  3.8433 -1.0051
22973SOL     OW71297   0.237   6.441   9.161  0.2415  0.5600  0.0490
22973SOL    HW171298   0.323   6.434   9.202  0.0632 -1.2516  0.1859
22973SOL    HW271299   0.218   6.535   9.161  1.3512  0.8273  1.8097
22974SOL     OW71300   5.101   7.362   2.043 -0.0120  0.0997  0.0115
22974SOL    HW171301   5.149   7.409   2.112 -0.5554 -0.8390  1.0620
22974SOL    HW271302   5.165   7.302   2.006  0.1660  0.3010 -0.0118
22975SOL     OW71303   8.431   3.638   1.786  0.1056  0.1301 -0.0359
22975SOL    HW171304   8.432   3.573   1.856 -0.8436  0.1045 -0.0326
22975SOL    HW271305   8.483   3.711   1.819  1.0922 -0.5686  0.0052
22976SOL     OW71306   7.407   8.408   8.357  0.0852  0.6595 -0.0035
22976SOL    HW171307   7.349   8.352   8.305  1.3158 -0.2944 -0.4022
22976SOL    HW271308   7.490   8.409   8.309  0.5347  1.6684  0.7437
22977SOL     OW71309   6.359   4.897   1.660  0.0080  0.0341  0.2747
22977SOL    HW171310   6.305   4.915   1.583 -0.4512 -1.6788  0.1534
22977SOL    HW271311   6.449   4.906   1.629 -0.1849  0.7565 -0.0899
22978SOL     OW71312   1.610   1.012   6.393  0.1098  0.9218 -0.4944
22978SOL    HW171313   1.668   0.953   6.440  1.0250  0.2516 -2.3656
22978SOL    HW271314   1.668   1.065   6.339 -0.9057  1.5405 -1.0149
22979SOL     OW71315   2.806   8.401   3.877 -0.2080 -0.7297  0.6537
22979SOL    HW171316   2.812   8.403   3.782  0.0410 -1.4385  0.6486
22979SOL    HW271317   2.780   8.490   3.901 -0.8502 -0.6932 -0.1170
22980SOL     OW71318   9.669   8.074   1.455 -0.1784 -0.0799  0.5610
22980SOL    HW171319   9.709   8.160   1.443 -1.3888  0.2178 -1.8407
22980SOL    HW271320   9.736   8.024   1.502  1.6169  1.4010 -0.2578
22981SOL     OW71321   3.450   4.676   6.991  0.4525  0.1495 -0.6816
22981SOL    HW171322   3.457   4.746   6.926 -0.5560  0.8876 -0.0121
22981SOL    HW271323   3.429   4.720   7.073 -1.8674 -1.0101 -0.5547
22982SOL     OW71324   3.010   2.268   3.529  0.1697 -0.1731  0.1017
22982SOL    HW171325   2.994   2.338   3.592 -0.8834  0.7563 -1.1237
22982SOL    HW271326   3.088   2.223   3.561  0.0628  0.6993  1.6641
22983SOL     OW71327   1.442   3.800   2.783  0.3079  0.2590 -0.2034
22983SOL    HW171328   1.391   3.874   2.750  0.4379  0.1807 -0.5909
22983SOL    HW271329   1.486   3.765   2.705 -0.8932 -1.1470 -0.3032
22984SOL     OW71330   9.412   5.864   9.746 -0.1404  0.2603 -0.0350
22984SOL    HW171331   9.485   5.805   9.728 -0.9551 -0.7755 -0.0118
22984SOL    HW271332   9.393   5.852   9.839 -0.4163  0.4381 -0.0680
22985SOL     OW71333   7.536   5.595  10.498 -0.0073  0.5890  0.4676
22985SOL    HW171334   7.622   5.600  10.458 -0.6453 -0.6655 -1.1890
22985SOL    HW271335   7.512   5.502  10.491 -0.9907  0.7022  1.9938
22986SOL     OW71336   6.173   9.364   0.669 -0.3715  0.4522 -0.0654
22986SOL    HW171337   6.171   9.423   0.745 -1.0332  0.3004  0.0432
22986SOL    HW271338   6.129   9.413   0.599  2.1508  1.4841 -1.0476
22987SOL     OW71339  10.621   5.425   7.243 -0.0785 -0.6015  0.2112
22987SOL    HW171340  10.536   5.431   7.200  1.2397  0.4236 -2.5076
22987SOL    HW271341  10.625   5.500   7.302 -0.5111  0.2504 -0.8105
22988SOL     OW71342   7.006   8.513   2.674  0.4973  0.3363  0.2881
22988SOL    HW171343   7.013   8.450   2.746 -0.3131 -0.4304 -0.2852
22988SOL    HW271344   7.087   8.502   2.625  0.9409  0.6818  0.9141
22989SOL     OW71345   3.097   5.106   1.614  0.0659  0.6002 -0.3832
22989SOL    HW171346   3.158   5.058   1.558  0.2468 -0.1840  0.4791
22989SOL    HW271347   3.153   5.162   1.668  0.3540 -2.2056  2.4721
22990SOL     OW71348   3.112   0.026   4.325  0.3564 -1.0194  0.0423
22990SOL    HW171349   3.094   0.118   4.344 -0.1302 -1.1424  0.1891
22990SOL    HW271350   3.142   0.026   4.234  0.2558 -0.7282  0.0082
22991SOL     OW71351   6.971  10.522   2.498  0.2253 -0.3495 -0.6484
22991SOL    HW171352   7.021  10.453   2.542  1.1763 -0.5423 -1.9800
22991SOL    HW271353   6.881  10.509   2.528  0.7669 -0.6805  0.9510
22992SOL     OW71354   9.824   7.093  10.717  0.4956 -0.2249 -0.2772
22992SOL    HW171355   9.878   7.021  10.684  1.5793  0.3664  0.1684
22992SOL    HW271356   9.884   7.167  10.725 -0.1830  0.2287  1.0112
22993SOL     OW71357   1.673   7.723   5.998  0.4888  0.2609 -0.6375
22993SOL    HW171358   1.701   7.813   5.980 -0.1264  0.5128 -0.3755
22993SOL    HW271359   1.670   7.682   5.911  2.2294  0.0347 -0.6244
22994SOL     OW71360   1.788   3.020   3.570 -0.3403 -0.5410 -0.4408
22994SOL    HW171361   1.855   3.049   3.632 -1.4567  1.1248  0.0355
22994SOL    HW271362   1.793   3.083   3.498 -1.4702 -0.3061 -0.3328
22995SOL     OW71363   0.854   9.109  10.297  0.2752  1.0620 -0.2898
22995SOL    HW171364   0.910   9.178  10.261  1.1640 -0.1812 -1.4078
22995SOL    HW271365   0.846   9.045  10.226 -2.6284  1.1890 -0.1719
22996SOL     OW71366   2.560   4.330   3.837 -0.6478  1.1206  0.1879
22996SOL    HW171367   2.574   4.297   3.926  0.8186 -0.6711 -0.6429
22996SOL    HW271368   2.645   4.367   3.812 -0.5594  0.1646 -1.0081
22997SOL     OW71369   1.824   1.937   9.912  0.1581  0.1586  0.3928
22997SOL    HW171370   1.752   1.991   9.943 -0.1312  0.1923 -0.3097
22997SOL    HW271371   1.799   1.913   9.823  1.2163  0.5308 -0.0217
22998SOL     OW71372   6.661   7.777   0.096  0.2610 -0.0047  0.6632
22998SOL    HW171373   6.716   7.699   0.104  1.3658  0.6230 -0.5022
22998SOL    HW271374   6.711   7.836   0.039 -2.0728  0.1562 -1.3792
22999SOL     OW71375   4.502   1.720   8.571 -0.2800  0.0335 -0.5690
22999SOL    HW171376   4.513   1.655   8.502  0.1857  0.7959 -1.2256
22999SOL    HW271377   4.572   1.783   8.556 -0.7441  0.7089  0.0383
23000SOL     OW71378   2.230   9.148   9.988  0.1513  0.2922  0.6673
23000SOL    HW171379   2.303   9.087   9.978  1.1370  1.3569  1.0898
23000SOL    HW271380   2.268   9.223  10.033 -1.3330  0.6839  1.3141
23001SOL     OW71381   1.228   0.079   9.225  0.2955  0.4545  0.1659
23001SOL    HW171382   1.255   0.170   9.237  2.6096 -0.4267  2.9352
23001SOL    HW271383   1.307   0.034   9.196 -0.7425 -0.7446 -0.9015
23002SOL     OW71384   3.694   0.489   7.265  0.2447  0.1129 -0.2391
23002SOL    HW171385   3.783   0.520   7.281 -0.2182  1.6868 -0.5869
23002SOL    HW271386   3.645   0.517   7.342 -0.4145  1.2629 -1.0488
23003SOL     OW71387   5.614   1.334  10.248 -0.1176 -0.2660 -0.2599
23003SOL    HW171388   5.703   1.352  10.279  0.2923  0.0913 -1.5837
23003SOL    HW271389   5.558   1.382  10.309  0.7488  1.7806 -0.9701
23004SOL     OW71390   9.869   4.036   0.897  0.1298  0.2454  0.1859
23004SOL    HW171391   9.828   4.050   0.812  1.0293 -0.9415 -0.4670
23004SOL    HW271392   9.942   4.099   0.900  1.3688 -1.0788 -0.8264
23005SOL     OW71393   8.824   6.051   0.049  0.3400  0.4841 -0.0705
23005SOL    HW171394   8.755   6.018   0.107 -0.8677 -1.0436 -2.2193
23005SOL    HW271395   8.893   5.985   0.054  0.0320  0.1036 -0.6690
23006SOL     OW71396   8.303   5.115   7.944  0.0975  0.5499  0.0008
23006SOL    HW171397   8.319   5.026   7.912  1.0768  0.9632 -0.7140
23006SOL    HW271398   8.295   5.105   8.039  1.4719 -0.1587  0.0680
23007SOL     OW71399   9.603   7.115   0.893 -0.0526  0.0651  0.9532
23007SOL    HW171400   9.658   7.038   0.900 -0.1160 -0.1631 -0.6164
23007SOL    HW271401   9.525   7.095   0.945  0.2319 -0.6441  1.1070
23008SOL     OW71402   5.747   9.826   3.991 -0.0431  0.1106  0.2020
23008SOL    HW171403   5.654   9.804   3.982  0.1947 -0.8801  0.0335
23008SOL    HW271404   5.785   9.750   4.035  1.0115 -0.2884 -1.3382
23009SOL     OW71405   6.743   7.407   9.854  0.6317 -0.2157 -0.0684
23009SOL    HW171406   6.721   7.500   9.853 -1.0387 -0.5345 -2.5695
23009SOL    HW271407   6.683   7.368   9.918  1.3089  0.3853  0.9552
23010SOL     OW71408   8.061   0.303   3.347 -0.0609 -0.0310 -0.2564
23010SOL    HW171409   8.148   0.268   3.369 -0.3658 -0.9611 -0.4937
23010SOL    HW271410   8.026   0.336   3.430  0.1804 -0.4108 -0.0013
23011SOL     OW71411   2.329   8.869   6.845  0.5781 -1.1916  0.0529
23011SOL    HW171412   2.291   8.957   6.850 -0.7439 -1.6022 -1.6502
23011SOL    HW271413   2.398   8.869   6.911 -0.3232  0.6486  1.0938
23012SOL     OW71414   7.541   6.143   7.438  0.6012  0.0925  0.4173
23012SOL    HW171415   7.568   6.234   7.425  0.2437  0.2101  0.5025
23012SOL    HW271416   7.463   6.148   7.493 -0.7082 -0.1476 -1.3321
23013SOL     OW71417   6.063   4.985   7.574 -0.4376 -0.3794 -0.0571
23013SOL    HW171418   6.024   4.931   7.642 -0.5196 -1.6669 -1.0966
23013SOL    HW271419   6.001   5.057   7.562 -1.0768 -0.8591  0.3047
23014SOL     OW71420   8.428   7.011   5.329  0.5081  0.3044 -0.4433
23014SOL    HW171421   8.404   6.977   5.242  2.0400  0.0777 -0.8100
23014SOL    HW271422   8.415   6.936   5.388 -0.1738  0.3473 -0.5333
23015SOL     OW71423   2.695   3.158   8.656  0.0174 -0.0837  0.4452
23015SOL    HW171424   2.671   3.172   8.565  2.3912 -0.2788 -0.2819
23015SOL    HW271425   2.680   3.064   8.671 -1.0998  0.1008  0.4981
23016SOL     OW71426   2.222   9.081   3.309  0.3376  0.3458  0.1739
23016SOL    HW171427   2.192   9.005   3.258  2.7787 -0.5177 -0.1089
23016SOL    HW271428   2.233   9.046   3.397  0.0404  0.7882  0.3877
23017SOL     OW71429   1.552   4.425   3.060 -0.1360 -0.2985  0.1480
23017SOL    HW171430   1.562   4.335   3.029 -1.7752 -0.3818 -0.2335
23017SOL    HW271431   1.526   4.416   3.152  2.7867 -0.0922  1.1013
23018SOL     OW71432   4.453   7.425   7.375  0.6240  0.0375  0.2215
23018SOL    HW171433   4.368   7.421   7.420  1.4286 -0.1006  1.7967
23018SOL    HW271434   4.488   7.337   7.384  1.1175  0.2042 -0.0618
23019SOL     OW71435   9.333  10.186   5.507  0.3113 -0.3579 -0.4498
23019SOL    HW171436   9.342  10.112   5.567 -0.6884  0.0659  0.2645
23019SOL    HW271437   9.271  10.156   5.441 -0.5825  0.0079  0.1848
23020SOL     OW71438   9.646   6.556   5.897 -0.0507 -0.2555 -0.0520
23020SOL    HW171439   9.674   6.543   5.988 -0.8279  1.3283  0.4589
23020SOL    HW271440   9.702   6.626   5.864 -1.7222  1.2717  0.2182
23021SOL     OW71441   5.546   8.257   3.112  0.1243 -0.2449 -0.8251
23021SOL    HW171442   5.562   8.249   3.018 -1.6756 -0.0545 -1.1761
23021SOL    HW271443   5.507   8.344   3.123  0.5154 -0.1714  0.1462
23022SOL     OW71444   0.266   7.963   3.900  0.2323 -0.2266 -0.7209
23022SOL    HW171445   0.172   7.979   3.891  0.3306  2.3889  1.4749
23022SOL    HW271446   0.279   7.946   3.994  2.1957  2.3544 -0.4050
23023SOL     OW71447   7.406   3.768   1.605  0.3521 -0.1942 -0.4514
23023SOL    HW171448   7.437   3.703   1.669  1.6730  0.5563 -0.2976
23023SOL    HW271449   7.432   3.732   1.520  1.1907  0.1592 -0.3588
23024SOL     OW71450   9.439   6.462   1.387  0.2572 -0.5931 -0.5023
23024SOL    HW171451   9.491   6.487   1.310  1.6977  0.6303  0.8151
23024SOL    HW271452   9.502   6.422   1.447 -0.5456 -0.2047  0.6367
23025SOL     OW71453   0.836   8.531   3.966  0.1062  0.5203  0.6691
23025SOL    HW171454   0.846   8.435   3.972 -1.0509  0.3746  0.4422
23025SOL    HW271455   0.749   8.548   3.999 -0.1573  1.3689 -0.4024
23026SOL     OW71456   8.302   3.685   9.370 -0.4969 -0.2249  0.2401
23026SOL    HW171457   8.365   3.668   9.440 -0.8734 -0.6254  0.4910
23026SOL    HW271458   8.270   3.773   9.388 -1.7310 -0.8684  1.5163
23027SOL     OW71459   6.389   7.414  10.344 -0.1616  0.2958  0.1524
23027SOL    HW171460   6.389   7.377  10.256  0.7425  1.2194 -0.2578
23027SOL    HW271461   6.464   7.373  10.387 -0.0438  0.5363  0.1797
23028SOL     OW71462   9.176   8.841   7.241  0.1171  0.1590 -0.0473
23028SOL    HW171463   9.188   8.920   7.189 -0.9411  0.3549 -0.0154
23028SOL    HW271464   9.122   8.869   7.315 -0.8688 -0.7388 -0.4108
23029SOL     OW71465   5.553   5.707   6.694 -0.1377  0.5022 -0.4339
23029SOL    HW171466   5.508   5.776   6.647  1.2929 -0.3765 -3.3624
23029SOL    HW271467   5.536   5.628   6.642  1.3155 -0.6172  0.7046
23030SOL     OW71468   3.248   7.671   7.522  0.1121 -0.6784 -0.1980
23030SOL    HW171469   3.221   7.757   7.488 -1.0224 -0.3684  1.3667
23030SOL    HW271470   3.344   7.674   7.521  0.0958  0.0739 -1.4385
23031SOL     OW71471   7.634   5.350   6.111 -0.6191  0.2431  0.4606
23031SOL    HW171472   7.717   5.396   6.123  0.2251 -1.1336  0.1687
23031SOL    HW271473   7.571   5.400   6.162  0.3475  1.4246  0.5387
23032SOL     OW71474   1.391   5.947   7.252 -0.2383  0.0724  0.3104
23032SOL    HW171475   1.390   5.885   7.325  1.1568  0.1172  0.3906
23032SOL    HW271476   1.389   6.033   7.293 -0.6233  0.0948  0.2492
23033SOL     OW71477   4.596   7.060  10.181 -0.1049  0.0094 -0.8399
23033SOL    HW171478   4.578   7.152  10.201  1.5592  0.1277  0.3163
23033SOL    HW271479   4.566   7.012  10.258  1.2732 -0.1292 -0.3637
23034SOL     OW71480   4.316   5.207   9.607  0.1652 -0.1473 -0.3308
23034SOL    HW171481   4.229   5.236   9.580 -0.4514 -0.2119  1.4815
23034SOL    HW271482   4.330   5.126   9.558  0.1043  0.9165 -2.1897
23035SOL     OW71483   7.708   1.071   3.579 -0.4429 -0.1349 -0.4749
23035SOL    HW171484   7.763   1.069   3.657  0.3697 -2.7828 -1.0211
23035SOL    HW271485   7.647   1.143   3.595 -0.1186 -0.3891  2.4419
23036SOL     OW71486   1.087   6.939  10.473 -0.7023 -0.5745  0.8289
23036SOL    HW171487   1.112   7.019  10.425  1.3174 -1.3512  0.5116
23036SOL    HW271488   1.001   6.960  10.510 -0.9991  1.1309 -0.6656
23037SOL     OW71489   0.251   8.674   8.431 -0.5937  0.0801  0.1729
23037SOL    HW171490   0.253   8.760   8.473 -2.5522  1.7253 -2.7314
23037SOL    HW271491   0.315   8.680   8.360 -1.4526 -0.4417 -0.6769
23038SOL     OW71492   5.029   9.157   2.962  0.0319  0.2255  0.6375
23038SOL    HW171493   5.011   9.204   3.044 -1.3883  1.7250 -0.4633
23038SOL    HW271494   5.091   9.213   2.915  1.7810 -1.2093  1.1281
23039SOL     OW71495   1.048   1.364   9.191  0.5977 -0.1540  0.2731
23039SOL    HW171496   1.104   1.291   9.219  0.0838 -1.1276 -1.1033
23039SOL    HW271497   0.959   1.328   9.191 -0.1863  1.4871  2.8360
23040SOL     OW71498   7.699   1.895   4.914 -0.1749 -0.0970  0.1700
23040SOL    HW171499   7.656   1.819   4.874 -3.1095  0.7876  1.3870
23040SOL    HW271500   7.701   1.960   4.844  0.7876 -0.6793 -0.3743
23041SOL     OW71501   7.654  10.209   2.778 -0.0252 -0.4165  0.0536
23041SOL    HW171502   7.618  10.207   2.867  0.3633  0.4452  0.2386
23041SOL    HW271503   7.640  10.300   2.749 -0.2260 -0.7140 -0.7975
23042SOL     OW71504   7.073   8.960   2.102  0.0058 -0.0289  0.0890
23042SOL    HW171505   7.147   8.925   2.151  1.5149  0.7214 -1.5386
23042SOL    HW271506   7.022   8.884   2.078 -0.1182 -0.5100  1.7641
23043SOL     OW71507   6.821  10.384   7.998  0.0033 -0.3333  0.6937
23043SOL    HW171508   6.766  10.414   8.070  1.4528 -0.7225  1.9959
23043SOL    HW271509   6.850  10.297   8.024 -3.1581 -2.6482 -2.4650
23044SOL     OW71510   4.394   6.763   3.472  0.1923  0.4687 -0.4100
23044SOL    HW171511   4.443   6.681   3.486 -0.8550 -0.2275 -0.7536
23044SOL    HW271512   4.461   6.826   3.445  1.2636  0.1481  1.2962
23045SOL     OW71513   0.503   6.900   4.191 -0.1083  0.4128  0.1941
23045SOL    HW171514   0.547   6.944   4.119 -0.4960 -0.5048 -0.6376
23045SOL    HW271515   0.548   6.930   4.270  0.0973  1.7048 -0.4019
23046SOL     OW71516   3.056   2.922   0.420 -0.0490 -0.0291 -0.2855
23046SOL    HW171517   3.051   2.827   0.431  1.5184 -0.4915 -2.8461
23046SOL    HW271518   2.964   2.950   0.424 -0.7227 -1.8865 -1.0932
23047SOL     OW71519   1.280   8.133   0.161  0.5647 -0.5517 -0.0772
23047SOL    HW171520   1.258   8.202   0.097  2.8146  0.9681  0.6555
23047SOL    HW271521   1.225   8.153   0.237  2.1157  1.3626  0.6348
23048SOL     OW71522   5.392   0.406   4.659  0.0379  0.2623 -0.0464
23048SOL    HW171523   5.368   0.357   4.580  0.5941  0.7607 -0.5332
23048SOL    HW271524   5.308   0.432   4.697 -0.2455 -0.4473 -0.1776
23049SOL     OW71525   7.715   5.213  10.732 -0.1383 -0.6021  0.2524
23049SOL    HW171526   7.739   5.202  10.824  0.1463  0.1139  0.2735
23049SOL    HW271527   7.671   5.298  10.729  1.0348  0.0106 -0.4738
23050SOL     OW71528   6.495  10.065   6.352  0.0903 -0.3239 -0.2394
23050SOL    HW171529   6.413  10.108   6.330  0.0710 -0.6728 -0.8634
23050SOL    HW271530   6.474   9.972   6.357  1.0003 -0.8575 -3.5413
23051SOL     OW71531   6.514   1.176   1.773 -0.2263  0.2560  0.1888
23051SOL    HW171532   6.539   1.250   1.719  0.5348 -0.0760  0.0751
23051SOL    HW271533   6.538   1.202   1.862 -1.1877  0.6723  0.3495
23052SOL     OW71534   3.057   4.289   8.258  0.5837  0.0099  0.4724
23052SOL    HW171535   3.070   4.343   8.335 -1.1978  0.8356  0.2371
23052SOL    HW271536   3.122   4.321   8.195  0.2984  1.1300  0.7232
23053SOL     OW71537   2.992   0.191   2.541 -0.1931  0.5707  0.0163
23053SOL    HW171538   2.908   0.148   2.525 -0.5116  1.1179  0.1944
23053SOL    HW271539   2.971   0.265   2.598  0.6409 -0.2686  1.4937
23054SOL     OW71540   6.076   1.382   2.073  0.5126 -0.4662 -0.2840
23054SOL    HW171541   6.037   1.324   2.008 -0.1952  0.9499 -1.1492
23054SOL    HW271542   6.041   1.468   2.054  0.4942  0.0520  1.8132
23055SOL     OW71543   4.958   2.555   6.463 -0.2901  0.1484 -0.0961
23055SOL    HW171544   4.973   2.637   6.416 -0.6083 -0.4563 -1.3029
23055SOL    HW271545   5.016   2.560   6.539  0.1755  1.2100 -0.4960
23056SOL     OW71546   4.922   3.056   2.851 -0.1272  1.0514 -0.2345
23056SOL    HW171547   4.869   3.054   2.931  3.5890 -0.8439  2.5291
23056SOL    HW271548   4.898   2.976   2.804  1.7045 -1.1469  2.2539
23057SOL     OW71549   3.270   6.991   2.297  0.2679  0.3026 -0.1477
23057SOL    HW171550   3.349   7.046   2.299  1.0468 -0.7855  0.4314
23057SOL    HW271551   3.206   7.040   2.349  1.3602  0.0956  1.4749
23058SOL     OW71552   2.224   7.092   4.738  0.3794 -0.7655  0.5644
23058SOL    HW171553   2.184   7.005   4.734  0.6937 -0.8628 -1.9379
23058SOL    HW271554   2.198   7.135   4.656  2.4501  0.4938  0.4753
23059SOL     OW71555   9.354   9.136   6.349 -0.1015 -0.5169 -0.2751
23059SOL    HW171556   9.391   9.064   6.299 -3.5520 -2.2010 -0.6844
23059SOL    HW271557   9.287   9.173   6.291  0.1824  1.7288  0.7245
23060SOL     OW71558   4.543   0.959   2.830  0.2334 -1.1678 -0.1845
23060SOL    HW171559   4.587   1.038   2.797 -0.8321 -0.7541 -0.6525
23060SOL    HW271560   4.588   0.940   2.912 -0.3369  0.6990  0.6099
23061SOL     OW71561  10.514   4.307   0.997 -0.2118  0.0600 -0.8409
23061SOL    HW171562  10.526   4.328   1.090  1.4873  0.3482 -1.1040
23061SOL    HW271563  10.548   4.217   0.988  0.5442  0.3890 -1.3549
23062SOL     OW71564   4.459   3.763   5.853 -0.4145 -0.1528 -0.0552
23062SOL    HW171565   4.446   3.772   5.758 -0.2074 -0.1257 -0.0815
23062SOL    HW271566   4.545   3.801   5.869  0.0108 -1.1112 -0.0075
23063SOL     OW71567   8.442   5.118   3.537 -0.2889 -0.1414 -0.0169
23063SOL    HW171568   8.458   5.212   3.535  1.9161 -0.4711 -0.3103
23063SOL    HW271569   8.456   5.094   3.629  0.5403 -0.3606 -0.1884
23064SOL     OW71570   3.874   8.433   9.491  0.0682 -0.3173 -0.2390
23064SOL    HW171571   3.824   8.499   9.444  2.9486  1.2909 -1.2644
23064SOL    HW271572   3.941   8.404   9.429  1.5667 -1.0273  1.6054
23065SOL     OW71573   2.649   1.040   5.562 -0.0137  0.1345  0.2695
23065SOL    HW171574   2.618   1.111   5.507 -1.3092 -0.6007 -0.0165
23065SOL    HW271575   2.688   1.083   5.638  0.7243  1.1411 -0.6534
23066SOL     OW71576   4.212   0.295  10.392 -0.1250 -0.3749  0.2541
23066SOL    HW171577   4.251   0.225  10.340 -3.1266 -2.2482  0.2687
23066SOL    HW271578   4.141   0.328  10.337 -1.9837 -0.9050  2.2229
23067SOL     OW71579   4.902   5.176   3.811 -0.1906 -0.4028 -0.0653
23067SOL    HW171580   4.841   5.207   3.744  1.3196 -0.9858 -1.7921
23067SOL    HW271581   4.988   5.189   3.772  0.7233 -1.3105  1.5591
23068SOL     OW71582   2.364   6.542   1.555 -0.2185 -0.0838  0.2299
23068SOL    HW171583   2.349   6.485   1.630  0.2643  0.2505  0.5865
23068SOL    HW271584   2.329   6.627   1.582 -0.2007 -0.0050  0.0068
23069SOL     OW71585   9.624   7.482   7.868  0.6723 -0.4931 -0.2688
23069SOL    HW171586   9.642   7.516   7.955 -1.4723  1.9192 -0.6671
23069SOL    HW271587   9.667   7.396   7.867  4.6322  1.2153  1.5574
23070SOL     OW71588   1.048   0.571   9.574  0.1587 -0.4112  0.2517
23070SOL    HW171589   1.083   0.489   9.608  0.7357 -0.5498 -0.6267
23070SOL    HW271590   1.016   0.548   9.487 -0.9520  0.0051  0.5418
23071SOL     OW71591   4.781   2.295   9.383 -0.9916  0.0764  0.5163
23071SOL    HW171592   4.789   2.208   9.421 -2.4603 -0.0318  0.6393
23071SOL    HW271593   4.869   2.333   9.391 -0.2963 -1.4305  0.3226
23072SOL     OW71594   5.025   2.823  10.772 -0.2645  0.0509  0.2643
23072SOL    HW171595   5.016   2.842  10.679 -0.6949 -0.9294  0.0928
23072SOL    HW271596   5.116   2.845  10.792  0.1173 -0.6631 -0.6230
23073SOL     OW71597   7.029   7.247   2.729  0.2788 -0.1599 -0.3325
23073SOL    HW171598   7.118   7.280   2.736  0.4226 -0.7272  0.9604
23073SOL    HW271599   6.980   7.316   2.685  1.1551  0.5700 -0.1783
23074SOL     OW71600   1.147   1.313   5.190  0.0848  0.0420  0.6404
23074SOL    HW171601   1.228   1.357   5.163 -0.5435  1.8735  1.6089
23074SOL    HW271602   1.167   1.220   5.180  0.6249  0.4039 -3.9969
23075SOL     OW71603   2.299   7.358   6.443 -0.7002 -0.2254  0.1357
23075SOL    HW171604   2.300   7.420   6.516  0.8305  0.1194 -0.1420
23075SOL    HW271605   2.346   7.282   6.475  2.2487  0.8937 -1.2278
23076SOL     OW71606   6.160   5.306   4.139  0.0420  0.1278  0.3668
23076SOL    HW171607   6.212   5.230   4.164  2.0306  1.4158  0.3563
23076SOL    HW271608   6.190   5.328   4.051 -0.7875  0.7071  0.2165
23077SOL     OW71609   9.991   2.409   3.435 -0.7051  0.6875 -0.1820
23077SOL    HW171610  10.039   2.396   3.516 -1.6863 -0.0916  0.2943
23077SOL    HW271611   9.971   2.321   3.404 -2.3928  0.9694  0.0053
23078SOL     OW71612   5.115   8.492   1.651 -0.2562  0.2262 -0.0200
23078SOL    HW171613   5.179   8.550   1.692 -0.3620  1.2952 -1.2856
23078SOL    HW271614   5.106   8.526   1.562 -0.6642 -1.4749 -0.6731
23079SOL     OW71615   7.475   8.165   4.843 -0.1216 -0.1026  0.5147
23079SOL    HW171616   7.501   8.134   4.930 -1.6907 -2.0606  0.3493
23079SOL    HW271617   7.380   8.156   4.841 -0.0068 -1.9525 -2.0143
23080SOL     OW71618   8.599   8.325   5.446  0.4265 -0.3722  0.0236
23080SOL    HW171619   8.541   8.290   5.514 -0.3271  0.5127 -0.1400
23080SOL    HW271620   8.664   8.256   5.432  0.3014 -0.7667  1.2778
23081SOL     OW71621   4.076   4.987   0.277  0.3673  0.0125  0.3008
23081SOL    HW171622   4.048   5.077   0.293  0.2199 -0.1568  1.0609
23081SOL    HW271623   4.165   4.995   0.243 -0.0045  0.4848 -0.5883
23082SOL     OW71624   1.258   5.770  10.673 -0.0129 -0.2224 -0.2232
23082SOL    HW171625   1.310   5.789  10.752 -1.0135  0.1422  0.3660
23082SOL    HW271626   1.309   5.704  10.627  0.8879 -0.0106  0.4279
23083SOL     OW71627   0.897   1.006   2.107 -0.9438  0.6070  0.0382
23083SOL    HW171628   0.826   1.044   2.158 -2.7590 -2.2388 -0.1893
23083SOL    HW271629   0.900   0.914   2.133  0.1584 -0.2334 -2.6632
23084SOL     OW71630   8.510   9.873  10.223 -0.0029  0.2104 -0.1891
23084SOL    HW171631   8.421   9.863  10.191 -0.3938  1.2821  0.5063
23084SOL    HW271632   8.564   9.824  10.161 -0.9344  0.5975 -1.3314
23085SOL     OW71633   5.420   4.115   9.704  0.7137 -0.1870 -0.1547
23085SOL    HW171634   5.431   4.136   9.797  3.6461 -0.6037 -0.3031
23085SOL    HW271635   5.501   4.144   9.663 -0.4803 -0.0691 -2.6221
23086SOL     OW71636   1.817   2.284   8.346  0.0569 -0.2437 -0.4978
23086SOL    HW171637   1.878   2.326   8.407 -0.2975  0.2214 -0.4514
23086SOL    HW271638   1.871   2.225   8.294  0.8203  1.2264 -1.4397
23087SOL     OW71639   2.422   1.132   5.846 -0.0700  0.2629 -0.0920
23087SOL    HW171640   2.367   1.087   5.782  0.7524 -0.2885 -0.4255
23087SOL    HW271641   2.512   1.115   5.817  0.3133  0.1851  1.0931
23088SOL     OW71642   6.830   0.234   2.278  0.2832 -0.3935 -0.1169
23088SOL    HW171643   6.860   0.324   2.281 -1.6972  0.3354 -0.7340
23088SOL    HW271644   6.902   0.185   2.238  1.2839  0.9506  0.0104
23089SOL     OW71645   7.823   7.109   8.559 -0.5331 -0.3778 -0.5810
23089SOL    HW171646   7.854   7.136   8.472  0.5517  0.7392  0.1038
23089SOL    HW271647   7.860   7.022   8.571  1.9915  0.6561 -0.0644
23090SOL     OW71648   1.922  10.539   4.741  0.2188 -0.3401  0.1294
23090SOL    HW171649   1.881  10.460   4.706  2.0000 -0.9261 -0.7826
23090SOL    HW271650   2.004  10.508   4.780  0.6575  0.9680  0.3027
23091SOL     OW71651   9.091   8.688  10.193  0.2938  0.1668 -0.1391
23091SOL    HW171652   9.128   8.692  10.104  0.1572  0.9617 -0.1636
23091SOL    HW271653   9.160   8.721  10.250  1.7282 -3.5153  0.5197
23092SOL     OW71654   8.719   5.781  10.126  0.3346  0.0205  0.3949
23092SOL    HW171655   8.636   5.767  10.172 -1.2365 -2.0365 -2.6704
23092SOL    HW271656   8.742   5.872  10.144 -3.1043  0.9752  0.6630
23093SOL     OW71657   1.117   2.614   0.855 -0.5936 -0.1771 -0.2861
23093SOL    HW171658   1.199   2.654   0.824  0.2682 -1.3919  0.3445
23093SOL    HW271659   1.130   2.520   0.839 -2.0751 -0.3410 -0.6132
23094SOL     OW71660   8.513   1.952   9.212 -0.2733  0.1885  0.4381
23094SOL    HW171661   8.581   1.896   9.175  1.0365  0.8667  1.7214
23094SOL    HW271662   8.520   1.939   9.306 -1.1500  1.1496  0.6543
23095SOL     OW71663   9.555   3.419   8.095  0.0374 -0.1022  0.1199
23095SOL    HW171664   9.536   3.345   8.153  0.4319 -0.9632 -0.8126
23095SOL    HW271665   9.651   3.425   8.096  0.0243  0.1376 -0.1192
23096SOL     OW71666   1.364   6.452   3.774  0.2295 -0.1923 -0.7633
23096SOL    HW171667   1.326   6.483   3.856 -0.9803 -1.0375 -0.9688
23096SOL    HW271668   1.427   6.385   3.801  0.5923  0.2663 -0.4733
23097SOL     OW71669  10.020   9.964   5.369 -0.5391 -0.0506 -0.1719
23097SOL    HW171670   9.945   9.933   5.418 -1.8436 -1.4581 -2.8208
23097SOL    HW271671   9.993   9.960   5.277  2.7211 -0.5383 -1.2773
23098SOL     OW71672   6.022   1.309   5.524  0.6564 -0.2503  0.7346
23098SOL    HW171673   6.071   1.346   5.597  3.2960  0.3223 -1.1966
23098SOL    HW271674   6.087   1.262   5.472 -0.9491 -0.0744 -1.6167
23099SOL     OW71675   6.066   0.710  10.409 -0.0847  0.0555 -0.3728
23099SOL    HW171676   5.979   0.751  10.405 -0.7555 -1.1786  0.8633
23099SOL    HW271677   6.121   0.775  10.452 -0.4610  0.7120 -0.8511
23100SOL     OW71678   4.616  10.323   4.165 -0.5202 -0.1261  0.3739
23100SOL    HW171679   4.656  10.399   4.121 -0.2914 -0.7725 -0.5828
23100SOL    HW271680   4.533  10.310   4.118  0.4066 -1.7302 -0.9061
23101SOL     OW71681   9.568   2.096  10.750  0.6246 -0.3086 -0.4851
23101SOL    HW171682   9.491   2.100  10.694 -0.3668 -2.8284  0.5314
23101SOL    HW271683   9.642   2.090  10.689 -0.0321  1.1746 -1.4712
23102SOL     OW71684   3.691   7.488   8.286 -0.3134 -0.1735  0.0130
23102SOL    HW171685   3.786   7.476   8.279 -0.2873 -1.4354  1.7300
23102SOL    HW271686   3.673   7.566   8.234  1.6323 -0.0337 -0.5463
23103SOL     OW71687   6.865   6.286   0.816  0.0019  0.0052 -0.2023
23103SOL    HW171688   6.847   6.207   0.866  1.1973 -0.8193 -1.0219
23103SOL    HW271689   6.924   6.337   0.872 -1.1639  0.5746  0.5384
23104SOL     OW71690   8.563   9.400   6.032  0.1152 -0.9797  0.4124
23104SOL    HW171691   8.645   9.414   5.985 -0.9571  0.3780 -1.1719
23104SOL    HW271692   8.552   9.481   6.083 -0.3875 -1.0285  0.3779
23105SOL     OW71693   7.825   4.104   3.799  0.2942  0.0674  0.1519
23105SOL    HW171694   7.738   4.140   3.783  0.5195  1.7355  2.2847
23105SOL    HW271695   7.816   4.053   3.879  1.1036 -0.4465 -0.0710
23106SOL     OW71696   3.124   5.970   3.577  0.4897 -0.2325 -0.0565
23106SOL    HW171697   3.143   6.060   3.552 -0.7240  0.0084 -0.1343
23106SOL    HW271698   3.203   5.921   3.552  1.2902  0.8487  0.2914
23107SOL     OW71699   1.980   1.601   6.623  0.8262  0.3363  0.0206
23107SOL    HW171700   1.934   1.582   6.705 -0.9059 -0.5238 -1.1050
23107SOL    HW271701   2.070   1.573   6.640  0.1959 -1.1298  1.1955
23108SOL     OW71702   9.642   0.242   4.818  0.5700  0.0982  0.0067
23108SOL    HW171703   9.731   0.209   4.806  0.4343  0.3270 -1.9414
23108SOL    HW271704   9.590   0.165   4.842  1.1645 -0.1274  0.6161
23109SOL     OW71705   5.122   0.226   4.207  0.2628 -0.7398 -0.5471
23109SOL    HW171706   5.146   0.308   4.165  1.1817 -0.4349  0.5364
23109SOL    HW271707   5.096   0.169   4.135 -0.2458  0.4454 -1.3240
23110SOL     OW71708   1.999  10.089   3.252  0.6043  0.2118  0.2354
23110SOL    HW171709   2.043  10.006   3.272  0.6263 -0.0725 -0.9302
23110SOL    HW271710   2.069  10.154   3.257  0.5488  0.2076  1.3547
23111SOL     OW71711  10.543   2.990   4.028 -0.0974 -0.3014 -0.1465
23111SOL    HW171712  10.452   3.018   4.021  0.0302 -0.0942 -1.1232
23111SOL    HW271713  10.542   2.899   3.999  0.3501  0.3934 -2.5409
23112SOL     OW71714   1.485   6.284   0.888  0.1950  0.3322  0.4387
23112SOL    HW171715   1.539   6.332   0.826 -0.4799 -0.3353 -0.6935
23112SOL    HW271716   1.540   6.276   0.966  1.9146 -0.6920 -0.8080
23113SOL     OW71717   4.667   5.023   2.800 -0.1502 -0.4835 -0.2092
23113SOL    HW171718   4.745   5.022   2.746 -0.9797 -1.6885 -1.4687
23113SOL    HW271719   4.597   4.993   2.742 -1.1611 -1.4268  1.4016
23114SOL     OW71720   2.628   2.190   7.427 -0.0381 -0.6400  0.4433
23114SOL    HW171721   2.676   2.130   7.484  1.7502 -0.1215 -0.4517
23114SOL    HW271722   2.660   2.170   7.339 -0.5814  0.5612 -0.0434
23115SOL     OW71723   7.080   6.093   5.146  0.1456  0.6122  0.0056
23115SOL    HW171724   7.159   6.060   5.188  0.3197  1.7713  0.6107
23115SOL    HW271725   7.045   6.017   5.099  1.7484  0.1476 -0.5012
23116SOL     OW71726   5.298   4.987   0.248 -0.0113  0.1395 -0.1857
23116SOL    HW171727   5.330   4.904   0.285  1.8735  1.2540  0.8446
23116SOL    HW271728   5.274   4.966   0.158 -0.0686 -1.6364  0.2135
23117SOL     OW71729   9.962   6.880  10.644  0.1909 -0.5356 -0.1975
23117SOL    HW171730   9.960   6.784  10.637  0.0799 -0.5119 -0.4936
23117SOL    HW271731  10.053   6.901  10.664  0.2439 -0.6922 -0.2752
23118SOL     OW71732  10.212   4.484   9.324 -0.0303  0.5650  0.2274
23118SOL    HW171733  10.285   4.546   9.325  0.0999  0.4071  0.3755
23118SOL    HW271734  10.251   4.400   9.348 -0.2903  0.5131  0.4664
23119SOL     OW71735   1.153   9.475   4.249  0.2554  0.1727 -0.2660
23119SOL    HW171736   1.169   9.454   4.157 -0.5882  0.0721 -0.3927
23119SOL    HW271737   1.065   9.511   4.251  0.0460 -0.3574  0.5894
23120SOL     OW71738   4.648   7.948   5.330 -0.5470  0.6688 -0.1943
23120SOL    HW171739   4.657   7.889   5.405  0.0058  2.1709  0.9486
23120SOL    HW271740   4.558   7.978   5.334 -0.7991  0.0095 -0.7178
23121SOL     OW71741   4.889   9.419   8.659  0.6111 -0.1412 -0.4069
23121SOL    HW171742   4.952   9.347   8.659  0.1933 -0.5366  0.8462
23121SOL    HW271743   4.840   9.408   8.740 -1.7863 -0.4562 -1.8040
23122SOL     OW71744  10.316   8.604  10.401  0.2241  0.3299  0.1468
23122SOL    HW171745  10.323   8.663  10.476  0.9488  0.9245 -0.3722
23122SOL    HW271746  10.394   8.623  10.348 -1.0852  1.1293 -1.5997
23123SOL     OW71747   6.817   1.872   3.751 -0.0328 -0.7357  0.1387
23123SOL    HW171748   6.822   1.777   3.746 -2.9311 -1.0276  0.9590
23123SOL    HW271749   6.756   1.897   3.682  0.0402  0.4490  0.4734
23124SOL     OW71750   8.627   9.613   7.157 -0.0094 -0.5013 -0.0673
23124SOL    HW171751   8.634   9.571   7.072 -0.1360 -1.6690  0.4875
23124SOL    HW271752   8.559   9.679   7.146 -1.3021 -1.8463 -0.4031
23125SOL     OW71753   8.438   9.178   9.090  0.2443 -0.2832 -0.1248
23125SOL    HW171754   8.378   9.253   9.097 -0.9990 -1.1952 -0.5176
23125SOL    HW271755   8.449   9.148   9.180 -1.3126 -1.1424 -0.1831
23126SOL     OW71756   1.654   8.823   3.250 -0.4405 -0.2412 -0.2542
23126SOL    HW171757   1.644   8.914   3.279  0.6044  0.0198 -0.6660
23126SOL    HW271758   1.663   8.830   3.155 -1.7324 -0.9071 -0.4556
23127SOL     OW71759   8.416   5.809   9.898 -0.1996  0.0464 -0.4900
23127SOL    HW171760   8.454   5.721   9.898  0.8758  0.4837 -0.1822
23127SOL    HW271761   8.465   5.855   9.966 -1.1947  0.7046 -0.2037
23128SOL     OW71762   5.795   8.007   2.318 -0.5021  0.2163  0.2987
23128SOL    HW171763   5.803   7.991   2.224 -1.4677  1.8315 -0.0886
23128SOL    HW271764   5.875   8.054   2.341  0.1424 -0.9270  0.4950
23129SOL     OW71765   3.249   0.884   1.622  0.3887  0.3472  0.1199
23129SOL    HW171766   3.282   0.962   1.577  0.7629  0.6951  0.9783
23129SOL    HW271767   3.154   0.898   1.626  0.2420 -0.1068 -1.3203
23130SOL     OW71768   9.210   4.414   9.937 -0.2944 -0.4195  0.6788
23130SOL    HW171769   9.241   4.334   9.895  2.2173  0.7442  0.1378
23130SOL    HW271770   9.116   4.400   9.948 -0.2773 -2.6443 -1.1552
23131SOL     OW71771   7.807   7.246   8.799 -0.3383 -0.4168  0.3714
23131SOL    HW171772   7.712   7.235   8.809 -0.4309 -1.2720 -1.1421
23131SOL    HW271773   7.829   7.192   8.723  1.0328  1.4227 -0.5933
23132SOL     OW71774   4.468   5.680   0.062 -0.1692 -0.5722 -0.0208
23132SOL    HW171775   4.423   5.652  -0.018  1.1097  0.0255 -0.9914
23132SOL    HW271776   4.451   5.610   0.125 -4.4094  0.6267  0.5207
23133SOL     OW71777   7.503   1.450   9.778 -0.3410  1.0473 -0.2560
23133SOL    HW171778   7.591   1.414   9.781 -0.8288 -0.1850 -0.3816
23133SOL    HW271779   7.455   1.403   9.846 -1.3176  0.5640 -1.2646
23134SOL     OW71780   0.366   7.531   6.813 -0.1506  0.8141  0.1771
23134SOL    HW171781   0.460   7.522   6.826 -0.1308  1.2260  0.3580
23134SOL    HW271782   0.355   7.619   6.777 -0.6142  1.5646  2.0085
23135SOL     OW71783   6.345   1.255   3.557  0.2270 -0.0544 -0.6331
23135SOL    HW171784   6.300   1.250   3.641  0.8378  0.2178 -0.2886
23135SOL    HW271785   6.318   1.338   3.520 -2.1771 -1.3180 -1.9460
23136SOL     OW71786   7.029   6.924   9.874 -0.3808 -0.9519  0.4787
23136SOL    HW171787   7.121   6.919   9.847 -0.5821  0.3782 -0.5517
23136SOL    HW271788   7.018   7.014   9.904 -2.0881 -0.0546 -2.4413
23137SOL     OW71789   0.719  10.703   4.137  0.4292  0.3373 -0.5096
23137SOL    HW171790   0.686  10.632   4.083  1.4916  0.5454 -1.4707
23137SOL    HW271791   0.705  10.782   4.085  1.4659  0.5401 -0.5033
23138SOL     OW71792   7.819   2.381   5.985 -0.0681 -0.1978  0.2724
23138SOL    HW171793   7.734   2.337   5.976 -0.9239  1.4096 -0.0506
23138SOL    HW271794   7.829   2.430   5.903  1.3138 -0.5618  0.2004
23139SOL     OW71795   3.428   5.148   4.644 -0.3758  0.2627  0.1468
23139SOL    HW171796   3.500   5.170   4.704 -0.1085  2.6717 -0.9396
23139SOL    HW271797   3.356   5.206   4.671 -1.3588 -0.9287  0.1516
23140SOL     OW71798   4.223   5.904   1.585 -0.1456 -0.2282  0.5012
23140SOL    HW171799   4.305   5.918   1.634 -0.2350 -0.9456  0.8667
23140SOL    HW271800   4.156   5.948   1.638 -0.0958 -0.1959  0.5382
23141SOL     OW71801   7.956   8.786  10.133  0.4084  0.0811 -0.2011
23141SOL    HW171802   7.899   8.758  10.062  0.4824  0.0919 -0.2648
23141SOL    HW271803   7.990   8.871  10.104 -1.7465  1.4532  1.0716
23142SOL     OW71804   6.719   6.473   5.888 -0.0716 -0.0396  0.2242
23142SOL    HW171805   6.724   6.479   5.793 -1.7076 -1.0557  0.0348
23142SOL    HW271806   6.784   6.406   5.912  1.5229  1.3831  0.0299
23143SOL     OW71807   5.306   2.535   7.250  0.4177  0.0594  0.2027
23143SOL    HW171808   5.238   2.478   7.287 -0.1441  0.1446 -0.6589
23143SOL    HW271809   5.354   2.567   7.326  0.5481 -1.3078  0.7364
23144SOL     OW71810   6.182   1.107   1.345  0.5200 -0.0946 -0.3153
23144SOL    HW171811   6.123   1.102   1.270  0.5329  0.1833 -0.3453
23144SOL    HW271812   6.140   1.054   1.413  0.2526  0.0768 -0.3474
23145SOL     OW71813   6.784   2.069   0.955 -0.3547  0.6350 -0.5234
23145SOL    HW171814   6.744   2.138   0.904 -0.2550  1.6527  0.7130
23145SOL    HW271815   6.715   2.040   1.015  0.2582  1.2813  0.5198
23146SOL     OW71816   6.102  10.334   9.736  0.6598 -0.5594  0.2352
23146SOL    HW171817   6.190  10.319   9.769  0.7262  1.1250  0.9092
23146SOL    HW271818   6.069  10.409   9.786 -0.4360  0.0489 -1.3077
23147SOL     OW71819   2.981   6.554   2.404  0.1789 -0.5077  0.4607
23147SOL    HW171820   3.037   6.603   2.343 -1.2427 -1.9027 -2.1004
23147SOL    HW271821   2.958   6.618   2.471  2.2806  0.9424 -0.0864
23148SOL     OW71822   0.863  10.345   1.377 -0.2461  0.3791 -0.3113
23148SOL    HW171823   0.769  10.361   1.372 -0.4310 -0.0590  1.2486
23148SOL    HW271824   0.889  10.380   1.462  0.7353 -0.7078 -0.1367
23149SOL     OW71825   4.732   6.773   1.901 -0.2509  0.2013 -0.1661
23149SOL    HW171826   4.639   6.786   1.880  0.1197  0.6195 -1.7403
23149SOL    HW271827   4.762   6.707   1.838  0.3762 -0.4207  0.7619
23150SOL     OW71828   9.921   8.744   5.311 -0.2080 -0.4560 -0.6130
23150SOL    HW171829   9.974   8.803   5.258 -0.1325  0.9232  0.9382
23150SOL    HW271830   9.972   8.663   5.315  2.0094  0.8977  1.0284
23151SOL     OW71831   0.933  10.792   1.467 -1.0971 -0.3401 -0.1098
23151SOL    HW171832   0.956  10.877   1.430 -2.6631  0.4870  0.7120
23151SOL    HW271833   1.016  10.746   1.475 -0.3871  0.5424 -1.9212
23152SOL     OW71834   3.585   5.522   7.673 -0.0209  0.0319 -0.3422
23152SOL    HW171835   3.605   5.548   7.583 -0.8445 -1.7744 -1.0993
23152SOL    HW271836   3.667   5.536   7.721  0.2956  1.4407 -1.2586
23153SOL     OW71837   5.227   3.180   1.902 -0.4577 -0.4145  0.0129
23153SOL    HW171838   5.297   3.118   1.920  0.1410  0.5592  1.2277
23153SOL    HW271839   5.256   3.226   1.823  0.2930 -0.0234  0.5027
23154SOL     OW71840   4.105   3.296   5.519  0.1773 -0.0702  0.2891
23154SOL    HW171841   4.160   3.369   5.488  0.1724  0.5552  1.6874
23154SOL    HW271842   4.157   3.218   5.502  2.0247  0.5706  2.4904
23155SOL     OW71843   6.087   6.793   8.983  0.7406 -0.1848  0.0045
23155SOL    HW171844   6.145   6.727   9.020 -0.2141 -0.9806  0.1336
23155SOL    HW271845   6.068   6.853   9.055  3.3864  1.5906 -0.6498
23156SOL     OW71846  10.014   0.866   2.055 -0.0788  0.4095 -0.3450
23156SOL    HW171847  10.027   0.959   2.035 -0.4482 -0.0886 -3.4356
23156SOL    HW271848  10.102   0.829   2.054  0.1796  0.8248  1.9417
23157SOL     OW71849  10.265   4.494   3.083  0.1195 -0.1492 -0.0037
23157SOL    HW171850  10.299   4.472   3.170 -2.6271  0.4797  1.3620
23157SOL    HW271851  10.263   4.590   3.082 -0.4322 -0.1607 -0.5159
23158SOL     OW71852   3.837  10.262   9.041 -0.0314 -0.3595 -0.1704
23158SOL    HW171853   3.819  10.262   9.135 -1.0648 -0.5455 -0.3571
23158SOL    HW271854   3.752  10.277   9.000 -0.0750 -2.7539 -1.1538
23159SOL     OW71855   1.921   0.753   4.747  0.2082  0.8540 -0.2264
23159SOL    HW171856   1.918   0.839   4.706  3.0548  0.2188 -2.0645
23159SOL    HW271857   1.987   0.705   4.697  1.8269 -1.0078  3.3258
23160SOL     OW71858   5.026   4.923  10.461 -0.4078  0.0143 -0.3964
23160SOL    HW171859   4.943   4.916  10.508 -1.4406 -0.1041 -2.1462
23160SOL    HW271860   5.021   4.856  10.393  1.4985 -0.5552 -0.0300
23161SOL     OW71861   1.977   9.875   1.997  0.5111 -0.4755 -0.0632
23161SOL    HW171862   2.007   9.966   1.991  1.6209 -0.7308  1.0637
23161SOL    HW271863   1.901   9.878   2.055  1.3481 -0.4002  1.0654
23162SOL     OW71864   5.755  10.517   0.755 -0.4538 -0.0127 -0.1065
23162SOL    HW171865   5.710  10.432   0.748  0.1030 -0.3688  0.5419
23162SOL    HW271866   5.710  10.573   0.691 -1.3008 -0.5845 -0.0332
23163SOL     OW71867   9.113   2.481   2.835 -0.2720 -0.2345  0.3926
23163SOL    HW171868   9.161   2.527   2.904 -1.8850  0.3338  1.1685
23163SOL    HW271869   9.088   2.397   2.875  0.8483 -0.9442 -0.3278
23164SOL     OW71870   6.157   6.455  10.454 -0.3115  0.3002 -0.6935
23164SOL    HW171871   6.252   6.439  10.455 -0.0416  1.1068  3.3702
23164SOL    HW271872   6.143   6.508  10.375  2.3988 -0.7522 -2.0104
23165SOL     OW71873   0.127   1.267   2.988  0.0547 -0.0114  0.6013
23165SOL    HW171874   0.147   1.357   2.961 -2.9054 -0.3202 -3.6039
23165SOL    HW271875   0.034   1.269   3.012 -0.5322 -2.1185 -1.1384
23166SOL     OW71876   9.779   4.298   0.127 -0.1239  0.8930  0.3912
23166SOL    HW171877   9.764   4.207   0.151 -2.5797  0.3476 -2.6201
23166SOL    HW271878   9.723   4.348   0.186 -1.8224  0.0688 -0.4644
23167SOL     OW71879   7.188   5.440   0.931 -0.1362 -0.1827 -0.1312
23167SOL    HW171880   7.146   5.458   0.847 -0.9562 -0.0351  0.3077
23167SOL    HW271881   7.281   5.429   0.909 -0.0749  1.5216 -0.8305
23168SOL     OW71882  10.675   9.015   6.965  0.0869  0.0096  0.2818
23168SOL    HW171883  10.690   8.936   6.913  0.1739 -1.2352  2.1013
23168SOL    HW271884  10.706   8.992   7.052 -1.6240  1.3970  1.3240
23169SOL     OW71885   8.110   4.949   3.152  0.6695  0.5678 -0.3659
23169SOL    HW171886   8.163   4.971   3.228 -0.9244 -0.2751  1.0693
23169SOL    HW271887   8.107   4.853   3.151 -3.0985  0.4716  1.4306
23170SOL     OW71888   4.476   0.951   3.371 -0.0326 -0.7420 -0.0951
23170SOL    HW171889   4.452   0.957   3.464 -0.4389 -2.2400 -0.0725
23170SOL    HW271890   4.392   0.954   3.325  0.2088  0.6823 -0.4792
23171SOL     OW71891   5.644   8.327   8.565  0.0441 -0.0728 -0.0215
23171SOL    HW171892   5.608   8.338   8.653  0.4344  1.5622 -0.0297
23171SOL    HW271893   5.568   8.310   8.510 -0.3087 -0.1428  0.4767
23172SOL     OW71894   9.478  10.346   0.811  0.1943 -0.3843 -0.8816
23172SOL    HW171895   9.572  10.355   0.825 -0.1645  1.2652  0.8478
23172SOL    HW271896   9.453  10.271   0.865  0.2063  0.5213  0.4204
23173SOL     OW71897   9.101   7.171   4.950 -0.1658  0.3736  0.1105
23173SOL    HW171898   9.063   7.115   4.883 -1.1005 -1.1530  1.8128
23173SOL    HW271899   9.195   7.169   4.932 -0.3021 -0.8047 -0.5708
23174SOL     OW71900   3.042   2.297   2.327 -0.2644 -0.1438  0.1156
23174SOL    HW171901   3.135   2.291   2.347 -0.3440  2.1232  1.5207
23174SOL    HW271902   3.001   2.231   2.384  0.4266 -0.9734 -0.3276
23175SOL     OW71903   2.431   9.850   3.134 -0.1264 -0.0501 -0.0590
23175SOL    HW171904   2.469   9.827   3.050  0.8979 -1.3853  0.7377
23175SOL    HW271905   2.506   9.871   3.190 -0.7971  0.9765  0.4909
23176SOL     OW71906   5.824   5.421   1.937  0.5196  0.4786 -0.5393
23176SOL    HW171907   5.822   5.337   1.893  1.2726 -1.2193  2.4081
23176SOL    HW271908   5.851   5.401   2.026  0.9483  3.8925  0.2400
23177SOL     OW71909   7.476   9.853   8.869 -0.1728  0.7119  0.2284
23177SOL    HW171910   7.445   9.778   8.819 -0.6435  0.2305  1.2108
23177SOL    HW271911   7.558   9.879   8.827  0.6279 -1.1035  0.6165
23178SOL     OW71912   9.361   4.143   1.122 -0.1963 -0.7482 -0.0753
23178SOL    HW171913   9.404   4.200   1.057 -0.1176 -1.5490 -0.7380
23178SOL    HW271914   9.389   4.055   1.098 -0.5086 -1.0892  0.8027
23179SOL     OW71915   4.336  10.296   5.809 -0.3932 -0.3609 -1.3606
23179SOL    HW171916   4.260  10.296   5.750 -2.1459  2.7080  0.6096
23179SOL    HW271917   4.373  10.384   5.800  0.0596 -0.2405  1.0747
23180SOL     OW71918   9.599   7.215   2.453 -0.9441 -0.0527  0.4738
23180SOL    HW171919   9.549   7.228   2.373  0.1122 -0.1170 -0.2173
23180SOL    HW271920   9.544   7.252   2.523 -2.0917 -0.4545 -0.2057
23181SOL     OW71921   2.634   5.159   7.682  0.3323  0.5914  0.5799
23181SOL    HW171922   2.716   5.207   7.694  0.9953  0.1966 -1.8990
23181SOL    HW271923   2.602   5.186   7.596 -0.4966 -1.6148  0.1241
23182SOL     OW71924   6.109   9.261   8.537 -0.3557  0.1079  0.3884
23182SOL    HW171925   6.062   9.179   8.555  1.1315 -0.8106  0.2294
23182SOL    HW271926   6.042   9.329   8.547 -1.2554 -0.9576  2.1947
23183SOL     OW71927   7.310   1.839   8.709  0.0879  0.3734 -0.0222
23183SOL    HW171928   7.325   1.878   8.623  0.3898  1.6313  0.5705
23183SOL    HW271929   7.398   1.818   8.741  0.0365  0.6766  0.3191
23184SOL     OW71930   6.151   2.277   6.906  0.5928 -0.5336 -0.2995
23184SOL    HW171931   6.087   2.333   6.949  1.2411 -1.0747  1.4383
23184SOL    HW271932   6.109   2.191   6.902  0.2375 -0.3302 -1.5005
23185SOL     OW71933   3.444   6.546   3.342  0.0632  0.0538  0.4342
23185SOL    HW171934   3.386   6.570   3.414 -0.6873  1.8316 -0.6859
23185SOL    HW271935   3.404   6.468   3.303 -0.5607  0.1847  0.8033
23186SOL     OW71936   6.763   9.981   0.054 -0.0689 -0.4463 -0.0469
23186SOL    HW171937   6.710  10.061   0.060 -0.5146 -0.7923  0.6735
23186SOL    HW271938   6.705   9.917   0.014 -0.6886 -1.2197  1.9701
23187SOL     OW71939   7.540   8.599   0.381  0.4881 -0.4950 -0.0768
23187SOL    HW171940   7.587   8.644   0.310 -0.7109  1.5180  0.3174
23187SOL    HW271941   7.451   8.588   0.346 -0.1785  0.7163  1.1240
23188SOL     OW71942   0.920   8.242  10.587  0.0230 -0.3430 -0.0233
23188SOL    HW171943   0.859   8.185  10.634  1.8140 -1.0825  1.5106
23188SOL    HW271944   0.863   8.302  10.538 -1.9190 -2.7771 -0.9273
23189SOL     OW71945   8.020   9.503   3.827  0.2265  0.5878  1.1141
23189SOL    HW171946   8.024   9.562   3.902  1.6574  2.7919 -0.5381
23189SOL    HW271947   8.033   9.561   3.751 -0.0283 -1.6609 -0.7532
23190SOL     OW71948   1.535   2.937   3.653  0.2807 -0.1217  0.2663
23190SOL    HW171949   1.628   2.953   3.663  0.1448  1.7750 -0.9894
23190SOL    HW271950   1.523   2.921   3.559 -0.6939 -0.0613  0.3642
23191SOL     OW71951   0.227   6.182  10.340  0.0457  0.2397 -0.0483
23191SOL    HW171952   0.145   6.142  10.370 -0.0187  0.5046  0.1238
23191SOL    HW271953   0.290   6.161  10.408 -0.0020  0.4831  0.0709
23192SOL     OW71954  10.694   0.353   7.682  0.1297 -0.3162 -0.1675
23192SOL    HW171955  10.763   0.381   7.742  0.1689 -0.0837 -0.3176
23192SOL    HW271956  10.736   0.354   7.596 -0.1917  0.2922 -0.3224
23193SOL     OW71957  10.261  10.150  10.266  0.1141  0.0424 -0.4768
23193SOL    HW171958  10.201  10.220  10.239  0.1492 -0.1590 -1.1056
23193SOL    HW271959  10.303  10.122  10.184 -0.2441 -1.0322 -0.3114
23194SOL     OW71960   3.884   3.193   6.961 -0.3929 -0.0833 -0.1369
23194SOL    HW171961   3.826   3.122   6.933  1.2044 -1.0844 -1.0013
23194SOL    HW271962   3.847   3.221   7.045 -2.5997 -0.1054 -1.0206
23195SOL     OW71963   6.519   3.482   7.136 -0.5127  0.0466 -0.3897
23195SOL    HW171964   6.591   3.442   7.088 -1.8902 -1.3030 -1.4354
23195SOL    HW271965   6.478   3.540   7.073 -0.4569  0.6824  0.1493
23196SOL     OW71966   3.688   8.104   5.212 -0.5196 -0.1024  0.2118
23196SOL    HW171967   3.671   8.155   5.291  1.7980 -0.2241  0.8634
23196SOL    HW271968   3.769   8.058   5.230 -0.2668 -0.6510 -2.0064
23197SOL     OW71969   1.205   2.549   7.474 -0.0394 -0.5737  0.3774
23197SOL    HW171970   1.166   2.621   7.423  1.4627  0.1268  0.1661
23197SOL    HW271971   1.223   2.481   7.409  3.3756  0.9317 -0.4967
23198SOL     OW71972   5.189   1.096  10.411 -0.2395  0.1328 -0.1223
23198SOL    HW171973   5.192   1.191  10.417  2.0973  0.0353  1.2998
23198SOL    HW271974   5.144   1.067  10.490 -0.0781  0.0098 -0.0750
23199SOL     OW71975   8.724   9.434   5.807 -0.0393  0.1463 -0.8110
23199SOL    HW171976   8.753   9.352   5.767  0.2727 -0.2488  0.1862
23199SOL    HW271977   8.791   9.498   5.782  0.2877 -0.1560 -0.7137
23200SOL     OW71978   3.847   6.373   8.791 -0.2998 -0.5782 -0.6615
23200SOL    HW171979   3.870   6.325   8.711 -0.3637 -1.8352  0.0512
23200SOL    HW271980   3.782   6.317   8.835 -1.0231  0.5670 -0.2104
23201SOL     OW71981   0.798   0.709   1.497 -0.3248 -0.0503  0.1880
23201SOL    HW171982   0.705   0.695   1.513 -0.2460  0.6138  1.3228
23201SOL    HW271983   0.842   0.658   1.566  0.1188  0.5380  0.3474
23202SOL     OW71984   4.275   6.606   6.079 -0.1831  0.0639  0.0693
23202SOL    HW171985   4.282   6.511   6.080  1.0350  0.1331  0.1097
23202SOL    HW271986   4.339   6.635   6.144 -1.6976  0.8776  1.2675
23203SOL     OW71987   9.878   5.751   2.379  0.3836 -0.4679  0.2548
23203SOL    HW171988   9.799   5.697   2.374 -0.7027  0.8226  2.4708
23203SOL    HW271989   9.920   5.724   2.460  1.0106  0.4680  0.2455
23204SOL     OW71990   7.924  10.773  10.462  0.0057 -0.1468  0.1876
23204SOL    HW171991   7.981  10.834  10.415 -1.3485  1.0675  0.0485
23204SOL    HW271992   7.904  10.705  10.398  1.4100 -0.7014  0.2983
23205SOL     OW71993   2.201   6.507   7.692 -0.6160 -0.6052 -0.3099
23205SOL    HW171994   2.221   6.518   7.785 -0.4507  0.9295 -0.5027
23205SOL    HW271995   2.277   6.460   7.657 -0.3604 -0.5828  0.2012
23206SOL     OW71996   2.811   9.228   2.165  0.1153  0.6543  0.1472
23206SOL    HW171997   2.771   9.285   2.231  1.6417  1.7035  0.2105
23206SOL    HW271998   2.776   9.260   2.082  0.8182  1.5876  0.1984
23207SOL     OW71999   2.771   7.676   3.024  0.4635 -0.4769 -0.6096
23207SOL    HW172000   2.719   7.746   3.064  0.6323 -0.8605  0.3130
23207SOL    HW272001   2.858   7.685   3.063  0.1566 -1.9702  0.5070
23208SOL     OW72002   3.783   6.098   2.451 -0.5317  0.2225  0.0821
23208SOL    HW172003   3.817   6.047   2.378 -0.1738 -0.0325  0.4219
23208SOL    HW272004   3.829   6.064   2.528 -1.3095  0.1100  0.5025
23209SOL     OW72005   5.202   3.042   4.765  0.0690 -0.2594 -0.4217
23209SOL    HW172006   5.210   3.046   4.670  1.3853  1.0968 -0.2842
23209SOL    HW272007   5.249   2.963   4.791  2.3295  0.9392 -0.6883
23210SOL     OW72008   9.745   1.284   6.401 -0.3249  0.1019  0.0913
23210SOL    HW172009   9.659   1.323   6.385 -1.0662 -1.1954  0.7612
23210SOL    HW272010   9.807   1.348   6.364 -1.5218  1.3465  0.1266
23211SOL     OW72011   3.320   6.520   1.366 -0.2789  0.7600  0.2380
23211SOL    HW172012   3.301   6.476   1.283 -0.1206  0.7553  0.2041
23211SOL    HW272013   3.259   6.481   1.429  1.2094 -0.9977  0.6749
23212SOL     OW72014   9.825   7.902   3.702  0.1669 -0.0282  0.2219
23212SOL    HW172015   9.809   7.808   3.705  0.3865 -0.1062 -0.8286
23212SOL    HW272016   9.821   7.924   3.609 -0.7540  1.1506  0.5171
23213SOL     OW72017   0.806  10.245  10.462  0.6183 -0.4400 -0.0049
23213SOL    HW172018   0.823  10.338  10.448 -0.4126 -0.1637  0.4782
23213SOL    HW272019   0.801  10.236  10.557  0.9649 -1.0465 -0.0375
23214SOL     OW72020   7.091   0.861   0.797  0.2063  0.0220 -0.2245
23214SOL    HW172021   7.140   0.824   0.870  0.7353  0.2088 -0.4696
23214SOL    HW272022   7.061   0.946   0.829 -0.8362 -0.5143  0.2690
23215SOL     OW72023   9.335   0.811   2.295 -0.4033 -0.2766  0.2604
23215SOL    HW172024   9.418   0.799   2.250  1.8615  2.9689  3.0383
23215SOL    HW272025   9.324   0.731   2.347  0.9127 -0.7934 -0.2162
23216SOL     OW72026  10.777   3.216   5.627  0.6648 -0.2837 -0.0835
23216SOL    HW172027  10.773   3.139   5.570  2.3696 -0.2250 -0.3168
23216SOL    HW272028  10.833   3.189   5.700  1.3821  0.7728 -0.2284
23217SOL     OW72029   9.268   1.229  10.341 -0.3357  0.0851 -0.1002
23217SOL    HW172030   9.355   1.223  10.380 -0.0268 -0.4065 -0.8532
23217SOL    HW272031   9.216   1.164  10.387  0.1241 -0.7529 -0.7464
23218SOL     OW72032   3.257   4.317  10.724 -0.1902  0.1156  0.2832
23218SOL    HW172033   3.269   4.409  10.746  0.6160  0.2148 -0.4848
23218SOL    HW272034   3.228   4.318  10.633  0.1350 -0.3875  0.1674
23219SOL     OW72035   1.746  10.785   2.010  0.4674 -0.1097  0.6884
23219SOL    HW172036   1.653  10.809   2.010  0.3739 -0.3457  2.6206
23219SOL    HW272037   1.747  10.691   1.991  0.2112 -0.3526  1.8300
23220SOL     OW72038   6.954   3.658   6.316 -0.1179 -0.3065  0.5898
23220SOL    HW172039   6.929   3.571   6.347 -3.0010  0.1958 -0.1081
23220SOL    HW272040   6.941   3.654   6.221 -1.0315  1.0834  0.6400
23221SOL     OW72041   8.641  10.382   1.373  0.2262  0.1862  1.2417
23221SOL    HW172042   8.605  10.448   1.314 -3.3201  0.0887  3.0169
23221SOL    HW272043   8.625  10.298   1.329 -0.0453  0.2613  1.1932
23222SOL     OW72044   4.357   4.938   2.717 -0.7850  0.5130  0.3073
23222SOL    HW172045   4.296   5.005   2.688  2.6418  3.2463 -1.3828
23222SOL    HW272046   4.364   4.878   2.643 -1.7826 -0.1832  0.7507
23223SOL     OW72047   9.445   7.449   8.293 -0.0196 -0.2814  0.2686
23223SOL    HW172048   9.375   7.478   8.234  0.2658 -1.1165 -0.4968
23223SOL    HW272049   9.419   7.484   8.379 -0.9158  0.1685 -0.1642
23224SOL     OW72050   8.340   1.336   2.312 -0.1074  0.2493  0.2520
23224SOL    HW172051   8.336   1.242   2.331 -2.9780  0.5899  1.8387
23224SOL    HW272052   8.376   1.374   2.392  0.7030  0.5849 -0.2570
23225SOL     OW72053   9.038   5.867   3.640  0.6978  0.0252 -0.1394
23225SOL    HW172054   8.995   5.840   3.558 -0.1699  0.1845  0.2504
23225SOL    HW272055   8.986   5.826   3.709  1.5102 -0.2251  0.3362
23226SOL     OW72056  10.262   1.854   1.881 -0.2580  0.5142  0.3493
23226SOL    HW172057  10.316   1.837   1.804  0.1489  1.6119  0.3795
23226SOL    HW272058  10.223   1.769   1.902 -3.0474  0.8013 -3.0062
23227SOL     OW72059   8.552   6.866   7.250 -0.1038  0.0991 -0.5473
23227SOL    HW172060   8.468   6.874   7.295 -0.6310 -0.0512 -1.4804
23227SOL    HW272061   8.617   6.860   7.321 -0.8623  0.3050  0.1805
23228SOL     OW72062   0.383   7.221   2.405  0.1609 -0.1038  0.0258
23228SOL    HW172063   0.322   7.188   2.339  0.2195 -1.0401  0.4347
23228SOL    HW272064   0.470   7.199   2.370  0.3592  1.9940 -0.9841
23229SOL     OW72065   3.534  10.443   0.404 -0.2391  0.2034  0.0138
23229SOL    HW172066   3.514  10.457   0.496  0.0701 -0.7951  0.2489
23229SOL    HW272067   3.582  10.360   0.402 -0.0943  0.2942 -1.0254
23230SOL     OW72068   7.679   9.180   8.468 -0.1702 -0.0084 -0.3814
23230SOL    HW172069   7.699   9.266   8.506 -1.2091 -0.8096  2.1958
23230SOL    HW272070   7.764   9.143   8.446  0.5443  0.4528  1.4348
23231SOL     OW72071   6.182   5.965   1.721  0.3049  0.0351  0.3850
23231SOL    HW172072   6.114   5.922   1.668 -0.0295  0.3960  0.5168
23231SOL    HW272073   6.145   6.051   1.742  0.8144  0.2411  0.4430
23232SOL     OW72074   5.070   5.408   3.310  0.6617 -0.2937  0.5070
23232SOL    HW172075   5.128   5.433   3.382  0.9307  1.5200 -0.3017
23232SOL    HW272076   5.126   5.355   3.252  1.5369  1.3222 -0.1962
23233SOL     OW72077   4.283   5.281   0.178  0.1598  0.2424 -0.1057
23233SOL    HW172078   4.325   5.296   0.262 -0.7666  0.5223  0.3211
23233SOL    HW272079   4.308   5.356   0.124  0.4122  0.2758  0.0597
23234SOL     OW72080   0.668   0.531   0.845  0.0055  0.3740  0.5661
23234SOL    HW172081   0.739   0.594   0.841 -0.2140  0.6036  0.2496
23234SOL    HW272082   0.620   0.543   0.763  1.3406 -1.8090 -0.6144
23235SOL     OW72083   4.610   4.555   2.880  0.4803 -0.4323  0.2904
23235SOL    HW172084   4.631   4.489   2.947  0.2099 -1.6756 -0.7980
23235SOL    HW272085   4.672   4.626   2.896  1.3879 -1.3425  0.9567
23236SOL     OW72086   6.685   8.238   0.698 -0.1484 -0.0491 -0.1981
23236SOL    HW172087   6.689   8.181   0.621 -3.4532  1.3488 -1.5749
23236SOL    HW272088   6.627   8.192   0.758  1.5924 -0.6301  1.1249
23237SOL     OW72089   3.197  10.273   9.886  0.2289  0.3472 -0.1647
23237SOL    HW172090   3.198  10.299   9.794 -0.6537 -2.5593 -1.0950
23237SOL    HW272091   3.258  10.199   9.891  0.7412  0.8272  1.7669
23238SOL     OW72092   4.471   4.853   9.027 -0.4824  0.1039  0.9807
23238SOL    HW172093   4.474   4.760   9.006  0.0073 -0.2705  2.5382
23238SOL    HW272094   4.563   4.879   9.031 -0.6231  0.7259  0.2722
23239SOL     OW72095   1.457   4.914   4.447 -0.3898 -0.0923 -0.7747
23239SOL    HW172096   1.528   4.939   4.507 -0.5101  0.8308 -1.0028
23239SOL    HW272097   1.385   4.973   4.470 -1.2666 -1.3413 -0.2160
23240SOL     OW72098   7.881   3.451  10.207  0.0543 -1.3273  0.5979
23240SOL    HW172099   7.894   3.390  10.280  0.7960  0.3485  1.9219
23240SOL    HW272100   7.942   3.420  10.140 -1.7192 -3.8221 -0.0186
23241SOL     OW72101   6.149   1.362   9.949  1.2138  0.4531 -0.0189
23241SOL    HW172102   6.184   1.305   9.881 -1.7957 -0.7279 -0.7386
23241SOL    HW272103   6.120   1.440   9.903 -0.5212 -0.2077 -0.1262
23242SOL     OW72104   9.270   0.320   8.487  0.6925  0.4057 -0.3068
23242SOL    HW172105   9.318   0.268   8.422  0.4265  0.8032 -0.8280
23242SOL    HW272106   9.264   0.407   8.448  0.4843  0.6368  0.2346
23243SOL     OW72107   6.424   8.066   9.187  0.6532  0.3607 -0.3706
23243SOL    HW172108   6.450   7.991   9.134 -0.3237 -0.1231 -0.1828
23243SOL    HW272109   6.478   8.138   9.155  0.1148  0.0776 -2.0046
23244SOL     OW72110   4.169   4.668   8.036 -0.4404  0.3285 -0.3294
23244SOL    HW172111   4.182   4.761   8.053 -0.8982  0.4256 -0.4822
23244SOL    HW272112   4.218   4.623   8.105  0.1295  0.6778 -0.5051
23245SOL     OW72113  10.246   2.849   5.640  0.1399 -0.2907 -0.0436
23245SOL    HW172114  10.285   2.784   5.699 -0.9604 -0.8336  0.1213
23245SOL    HW272115  10.287   2.931   5.664  1.2902 -0.8644  0.0006
23246SOL     OW72116   2.042   7.408   6.367 -0.1541  0.9708  0.4377
23246SOL    HW172117   2.045   7.468   6.292  0.5754  0.1583 -0.1993
23246SOL    HW272118   2.134   7.392   6.388 -0.3537  0.5720  1.0166
23247SOL     OW72119  10.685   6.394  10.416  0.4780 -0.1316  0.3645
23247SOL    HW172120  10.706   6.449  10.341  1.6770  0.5263  1.1581
23247SOL    HW272121  10.595   6.419  10.439  0.3463  0.1445 -0.4169
23248SOL     OW72122  10.689   4.153   6.128 -0.2729  0.3669  0.5196
23248SOL    HW172123  10.653   4.134   6.215  1.5430  1.6697  1.6236
23248SOL    HW272124  10.687   4.248   6.121  0.4718  0.3291 -0.4715
23249SOL     OW72125  10.169   2.835   8.604  0.7029 -0.5525 -0.2233
23249SOL    HW172126  10.158   2.899   8.674 -0.9270 -0.2030 -0.7417
23249SOL    HW272127  10.217   2.881   8.535 -0.2074  0.0328 -0.4751
23250SOL     OW72128  10.160   5.801   6.975  0.7118  0.1884  0.0881
23250SOL    HW172129  10.192   5.728   7.029  1.1005  0.0593 -0.3191
23250SOL    HW272130  10.178   5.879   7.028  2.3644  0.1906 -0.4272
23251SOL     OW72131   7.766  10.197   7.450  0.4930 -0.1795  0.4066
23251SOL    HW172132   7.784  10.195   7.356  1.8438  1.4973  0.5661
23251SOL    HW272133   7.694  10.135   7.463 -0.7369  0.6559 -1.9424
23252SOL     OW72134   4.909   7.964   4.551  0.3802  0.0007  0.1737
23252SOL    HW172135   4.950   7.879   4.563  0.1495 -0.2799 -0.8596
23252SOL    HW272136   4.819   7.943   4.524  0.2433  0.5752  0.1698
23253SOL     OW72137   1.352   2.794   3.135  0.2814 -0.5523 -0.1401
23253SOL    HW172138   1.356   2.835   3.221  1.5366 -0.3697 -0.2630
23253SOL    HW272139   1.334   2.702   3.153 -0.8431 -0.2753  0.2272
23254SOL     OW72140   9.540   9.327   8.220  0.1400  0.2725 -0.1470
23254SOL    HW172141   9.477   9.290   8.158 -0.4909 -0.8642  1.1096
23254SOL    HW272142   9.581   9.250   8.260  2.7158  0.9720 -1.2457
23255SOL     OW72143   7.246   6.993   2.349  0.0658  0.3627 -0.1462
23255SOL    HW172144   7.255   6.931   2.421 -1.7998 -0.3399 -0.4636
23255SOL    HW272145   7.331   6.993   2.306  0.5597 -0.8189  0.7769
23256SOL     OW72146   8.994   1.366   7.018  0.0673 -0.4393 -0.5574
23256SOL    HW172147   8.993   1.420   6.939 -0.6877 -1.2005 -1.0961
23256SOL    HW272148   9.052   1.293   6.996  0.2755 -0.3816 -0.2083
23257SOL     OW72149   3.131   0.327   8.709  0.0105  0.7845 -0.0660
23257SOL    HW172150   3.216   0.284   8.716 -0.2050  0.4143  0.3362
23257SOL    HW272151   3.092   0.290   8.630  0.0394  0.6215 -0.0039
23258SOL     OW72152   7.845   5.616  10.672  0.3676 -0.1888 -0.3997
23258SOL    HW172153   7.776   5.679  10.692  0.8845  0.0235  0.8365
23258SOL    HW272154   7.812   5.532  10.705 -0.0916 -0.4836 -1.5559
23259SOL     OW72155   8.649   8.033   4.815 -0.1265 -0.1325 -0.1575
23259SOL    HW172156   8.647   8.079   4.899  0.6175 -1.0099  0.3464
23259SOL    HW272157   8.722   7.972   4.822 -0.4922 -0.7117 -1.1821
23260SOL     OW72158   4.918  10.109   7.788 -0.1849  0.0965  0.5569
23260SOL    HW172159   4.922  10.202   7.810  3.5850  0.4904 -0.9465
23260SOL    HW272160   4.927  10.108   7.692  2.1286 -1.7663  0.7120
23261SOL     OW72161   4.526   4.479   7.628  0.4740 -0.2972 -0.0236
23261SOL    HW172162   4.612   4.515   7.604 -0.0730 -0.1480 -1.8492
23261SOL    HW272163   4.517   4.501   7.721  1.8882  0.7617 -0.0977
23262SOL     OW72164   1.536   4.722   5.049 -0.7374  0.4207  0.2328
23262SOL    HW172165   1.581   4.803   5.024 -0.7600  0.0911 -0.9388
23262SOL    HW272166   1.607   4.659   5.061 -0.8289  0.0636 -0.9973
23263SOL     OW72167   9.486   6.513   0.147 -0.6244  0.1556  0.0792
23263SOL    HW172168   9.419   6.508   0.078 -0.9458  1.9460  0.2219
23263SOL    HW272169   9.559   6.560   0.106  0.4966 -1.5483  0.0057
23264SOL     OW72170   5.161   5.969   3.251 -0.2118  0.6759 -0.7029
23264SOL    HW172171   5.074   6.004   3.231 -1.2157 -1.5455 -0.4683
23264SOL    HW272172   5.144   5.885   3.292  2.0770 -0.6646 -2.2936
23265SOL     OW72173   0.326  10.412   4.907 -0.5796 -0.2650  0.7039
23265SOL    HW172174   0.342  10.502   4.877 -1.0397 -0.9476 -1.8742
23265SOL    HW272175   0.277  10.422   4.988 -2.0625  1.8743 -0.3479
23266SOL     OW72176   2.558   3.449   2.941 -0.1880 -0.0014  0.2048
23266SOL    HW172177   2.468   3.472   2.918 -0.6570  0.2567  2.0994
23266SOL    HW272178   2.554   3.357   2.966  0.7200 -0.8972 -2.5371
23267SOL     OW72179  10.406   3.925   1.179  0.0680 -0.3763  0.4032
23267SOL    HW172180  10.477   3.963   1.128 -1.4862 -1.2891 -2.7012
23267SOL    HW272181  10.450   3.869   1.243  2.1458  0.0373 -0.5668
23268SOL     OW72182   3.667   6.104   7.426 -0.6183 -0.3364 -0.1265
23268SOL    HW172183   3.577   6.088   7.398  0.1847  1.2174 -4.3595
23268SOL    HW272184   3.667   6.194   7.458 -0.5303 -0.3212 -0.1707
23269SOL     OW72185   0.065   4.541  10.173  0.4226  0.0290  0.6618
23269SOL    HW172186  -0.010   4.506  10.220 -0.8182  1.4899 -0.1460
23269SOL    HW272187   0.093   4.469  10.116 -0.4794 -0.4911  0.8548
23270SOL     OW72188   5.356   1.997   0.908 -0.3658  0.2071 -0.1070
23270SOL    HW172189   5.277   1.951   0.877 -1.1440  1.5495 -0.1818
23270SOL    HW272190   5.379   2.056   0.836  0.7630 -0.2137 -0.1077
23271SOL     OW72191  10.569   9.030   6.350  0.9459  0.2922  0.3872
23271SOL    HW172192  10.592   9.067   6.264 -1.1013  0.2012 -0.2714
23271SOL    HW272193  10.477   9.005   6.340  0.8076 -0.1584  2.4864
23272SOL     OW72194   2.193   9.118   8.754 -0.2014  0.3842 -0.0746
23272SOL    HW172195   2.224   9.150   8.670  0.4336 -1.2010 -0.4680
23272SOL    HW272196   2.120   9.060   8.732  0.7923 -1.0714  0.3340
23273SOL     OW72197   9.513   3.593   5.236 -0.4198 -0.1299  0.0925
23273SOL    HW172198   9.430   3.609   5.281  0.6385  2.3801  1.3909
23273SOL    HW272199   9.506   3.643   5.155  0.1370  0.9878  0.6958
23274SOL     OW72200   2.352   3.045   4.461  0.3272 -0.4309 -0.0066
23274SOL    HW172201   2.338   3.051   4.367  1.0218 -0.8284 -0.1399
23274SOL    HW272202   2.363   2.951   4.478 -0.3046 -0.4104  0.5461
23275SOL     OW72203   6.415   1.801  10.001 -0.2242  0.1298  0.0799
23275SOL    HW172204   6.423   1.853  10.081 -2.2087 -0.4494  0.7241
23275SOL    HW272205   6.378   1.862   9.937  0.5724  0.3729 -0.1526
23276SOL     OW72206   3.200   7.389   1.178  0.2287 -0.4027  0.2533
23276SOL    HW172207   3.160   7.472   1.201  0.4710 -0.2011 -0.0401
23276SOL    HW272208   3.169   7.370   1.089 -2.4480 -2.2522  1.4692
23277SOL     OW72209   5.649   2.650   0.922  0.1904 -0.1436  0.0982
23277SOL    HW172210   5.687   2.674   1.007 -0.4295 -1.9615  0.9516
23277SOL    HW272211   5.572   2.706   0.913  0.2647  0.0699  0.7441
23278SOL     OW72212   9.771   4.068   6.419  0.0663  0.5525  0.0096
23278SOL    HW172213   9.838   4.134   6.438 -0.8340  1.5547 -0.1645
23278SOL    HW272214   9.688   4.112   6.442 -0.6401 -0.1035 -1.2202
23279SOL     OW72215   4.475   9.279   8.326 -0.0895 -0.1099 -0.1902
23279SOL    HW172216   4.462   9.197   8.373 -0.8044  0.5672  0.8307
23279SOL    HW272217   4.553   9.318   8.365  0.5314 -0.4946 -0.9959
23280SOL     OW72218   5.653   8.572   0.569  0.3664 -0.6210  0.5737
23280SOL    HW172219   5.643   8.594   0.476 -0.3529 -0.9355  0.5709
23280SOL    HW272220   5.648   8.657   0.614 -1.7553 -0.6606  0.5082
23281SOL     OW72221   6.358   5.509  10.439  0.1209  0.2069 -0.2353
23281SOL    HW172222   6.368   5.481  10.530 -0.6956 -1.3359 -0.5805
23281SOL    HW272223   6.290   5.451  10.403  3.1680 -2.0266 -2.9615
23282SOL     OW72224   7.576   6.834   0.289  0.0062  0.0872 -0.3817
23282SOL    HW172225   7.517   6.758   0.289 -0.2051  0.2166 -2.4795
23282SOL    HW272226   7.534   6.896   0.348 -1.2577 -0.3586 -0.7747
23283SOL     OW72227   6.376   6.451   2.258 -0.1594  0.2500 -0.0326
23283SOL    HW172228   6.281   6.458   2.251 -0.3695 -0.6228  1.3278
23283SOL    HW272229   6.398   6.504   2.335  0.6604  1.5653 -1.1267
23284SOL     OW72230   9.331   5.362  10.799 -0.0168  0.0765  0.1980
23284SOL    HW172231   9.331   5.267  10.790  0.7700  0.0658  0.2413
23284SOL    HW272232   9.247   5.390  10.762 -0.7195 -0.7196  1.1515
23285SOL     OW72233   6.431   3.791   1.267 -0.2018 -0.0403 -0.2203
23285SOL    HW172234   6.387   3.761   1.187 -0.3660 -1.9834  0.5307
23285SOL    HW272235   6.524   3.790   1.245 -0.2375 -0.7086 -0.3615
23286SOL     OW72236  10.034   0.814   5.345  0.1217 -0.2806 -0.2405
23286SOL    HW172237   9.960   0.838   5.401  0.3573  0.6932 -0.3248
23286SOL    HW272238  10.099   0.882   5.362  0.5546 -0.4879 -1.0232
23287SOL     OW72239   2.947   5.766   0.987  0.3558  0.1868  0.6683
23287SOL    HW172240   2.943   5.766   0.891  0.6792 -0.3137  0.6485
23287SOL    HW272241   2.859   5.792   1.015 -0.3417 -1.5111  0.2327
23288SOL     OW72242   6.635   6.781   1.891  0.0827  0.5902 -0.1968
23288SOL    HW172243   6.705   6.776   1.826 -1.5950  2.0724 -2.2419
23288SOL    HW272244   6.627   6.874   1.912 -0.7504  0.3617  0.5872
23289SOL     OW72245   4.286   3.096   5.829 -0.7232 -0.5197 -0.1751
23289SOL    HW172246   4.247   3.074   5.744 -0.1882 -0.1670 -0.5199
23289SOL    HW272247   4.300   3.191   5.825  0.3095 -0.6554 -0.1298
23290SOL     OW72248   8.025   1.281  10.763  0.2797 -0.0039 -1.0233
23290SOL    HW172249   8.097   1.305  10.822 -0.1492  1.6660 -1.1191
23290SOL    HW272250   8.053   1.198  10.725  1.8700  0.2812 -0.5877
23291SOL     OW72251   1.866   7.726   2.904  0.7622 -0.5069 -0.0710
23291SOL    HW172252   1.914   7.746   2.824  1.9765  1.0998  0.9866
23291SOL    HW272253   1.854   7.811   2.947  1.4265 -1.4534  2.1288
23292SOL     OW72254   6.702   2.121   7.484  0.1704 -0.0050 -0.7488
23292SOL    HW172255   6.726   2.213   7.474  0.3096  0.1856  1.0429
23292SOL    HW272256   6.609   2.124   7.509  0.7063 -0.1630  1.5003
23293SOL     OW72257   7.431   8.995  10.659  0.8318  0.3561 -0.1289
23293SOL    HW172258   7.394   8.908  10.671  1.1588 -0.1976 -2.7374
23293SOL    HW272259   7.503   8.999  10.722  0.2728 -0.8929  0.6352
23294SOL     OW72260   1.987   2.379   5.343 -1.0849 -0.0134 -0.2958
23294SOL    HW172261   1.971   2.313   5.276 -0.2181  0.4077 -0.9422
23294SOL    HW272262   1.980   2.462   5.297 -0.7769  0.2923  0.1936
23295SOL     OW72263   0.321   8.847   4.768 -0.8131 -0.3034 -0.1078
23295SOL    HW172264   0.339   8.774   4.826 -1.1387 -0.4839 -0.2297
23295SOL    HW272265   0.271   8.808   4.696  2.3970 -0.8059 -2.2884
23296SOL     OW72266   9.232   3.646   8.408 -0.3111  0.2616 -0.6155
23296SOL    HW172267   9.157   3.667   8.352 -0.3036  0.8227 -0.4236
23296SOL    HW272268   9.261   3.560   8.379 -0.5283  0.3950 -1.2305
23297SOL     OW72269   2.379   1.258   7.973 -0.5456 -0.2257  0.3739
23297SOL    HW172270   2.458   1.207   7.954 -1.2458 -0.4673 -2.2662
23297SOL    HW272271   2.307   1.196   7.963 -1.2607  0.7194 -0.5951
23298SOL     OW72272   4.499   4.630   5.081 -0.0073  0.1170  0.3763
23298SOL    HW172273   4.488   4.717   5.043 -0.8293 -0.3651 -0.5526
23298SOL    HW272274   4.430   4.623   5.147 -0.6548 -0.2131 -0.3164
23299SOL     OW72275   4.305   4.365  10.309 -0.1815 -0.2162 -0.2961
23299SOL    HW172276   4.395   4.347  10.335 -0.0486  1.8348  0.8837
23299SOL    HW272277   4.312   4.437  10.246 -0.9740 -0.2139 -0.4012
23300SOL     OW72278   0.003   9.767   1.911 -0.5074  0.4534  0.2516
23300SOL    HW172279   0.004   9.789   1.818 -0.1820  0.3348  0.2235
23300SOL    HW272280  -0.088   9.776   1.937 -1.0970 -1.9172 -0.6682
23301SOL     OW72281   7.289   1.461   1.798  0.4578 -0.0219  0.0260
23301SOL    HW172282   7.297   1.365   1.804 -0.0252  0.0083  2.0203
23301SOL    HW272283   7.226   1.476   1.728  1.1743 -1.1124 -0.8920
23302SOL     OW72284   5.301   3.840   8.941  0.1604 -1.0808 -0.1937
23302SOL    HW172285   5.317   3.872   9.029 -1.6177 -1.8683  0.4645
23302SOL    HW272286   5.266   3.915   8.893 -0.5329 -1.0796  0.2981
23303SOL     OW72287   3.255   2.154   4.649  0.1905 -0.0501 -0.2791
23303SOL    HW172288   3.204   2.180   4.726  2.1369  1.1148  0.6987
23303SOL    HW272289   3.345   2.179   4.670  1.3241 -2.5651 -1.6557
23304SOL     OW72290   8.128   8.137   8.882 -0.2360 -0.6404  0.4567
23304SOL    HW172291   8.159   8.217   8.926 -0.7749 -0.0916 -0.1371
23304SOL    HW272292   8.177   8.135   8.800 -2.3661  0.7550 -0.9427
23305SOL     OW72293   7.859   5.367   9.094  0.1733  0.2624  0.4948
23305SOL    HW172294   7.851   5.462   9.092  0.0682  0.2385 -1.2953
23305SOL    HW272295   7.950   5.352   9.121  0.1378  0.8443  0.9750
23306SOL     OW72296   0.285   1.302   5.176  0.1108 -0.1040  0.0996
23306SOL    HW172297   0.307   1.283   5.267  0.9384 -0.0520 -0.0817
23306SOL    HW272298   0.363   1.346   5.141 -0.5821  0.7966 -0.3477
23307SOL     OW72299   2.065   3.943   4.333 -0.4820 -0.2240  0.2011
23307SOL    HW172300   2.067   3.869   4.274 -0.6796  0.9093 -1.2824
23307SOL    HW272301   2.138   3.929   4.393 -0.1544 -1.2811 -0.4324
23308SOL     OW72302   3.054   3.154  10.231  0.1381 -0.2514 -0.7121
23308SOL    HW172303   3.021   3.099  10.159 -1.3361  0.4926 -0.6381
23308SOL    HW272304   2.990   3.225  10.238  0.8493  0.2859  0.6199
23309SOL     OW72305   3.104   7.747   1.517  0.0799 -0.7883  0.2244
23309SOL    HW172306   3.033   7.811   1.517 -0.4891 -1.3836  1.4731
23309SOL    HW272307   3.105   7.712   1.428 -1.9732 -1.5971  0.4676
23310SOL     OW72308   8.624   6.688   7.771  0.2453 -0.1290 -0.4581
23310SOL    HW172309   8.626   6.727   7.859 -2.5985  0.2189 -0.4509
23310SOL    HW272310   8.690   6.620   7.773  2.3841  1.8334  0.9441
23311SOL     OW72311   8.661   5.850   0.185 -0.1989 -0.3182  0.0299
23311SOL    HW172312   8.626   5.877   0.270 -1.0320 -0.3579 -0.2871
23311SOL    HW272313   8.655   5.755   0.186  0.1586 -0.3411  0.0760
23312SOL     OW72314   6.011   9.990   5.555 -0.1760 -0.1717 -0.6073
23312SOL    HW172315   6.070   9.930   5.509  0.2687  0.4748 -0.9088
23312SOL    HW272316   6.027   9.972   5.648  0.7948  0.2479 -0.6738
23313SOL     OW72317   9.077   8.112   2.275 -0.1186 -0.0421 -1.0036
23313SOL    HW172318   9.150   8.173   2.283 -2.2773  2.5053  0.9996
23313SOL    HW272319   9.000   8.161   2.305 -2.8277 -2.3625 -3.4471
23314SOL     OW72320   0.372   2.781   9.457 -0.1861  0.0044  0.1597
23314SOL    HW172321   0.442   2.734   9.503 -2.0140 -3.2748 -0.0716
23314SOL    HW272322   0.411   2.805   9.373  1.4240  0.7764  1.0784
23315SOL     OW72323   6.698   0.121   2.019 -0.2633 -0.0464  0.0137
23315SOL    HW172324   6.749   0.043   2.000  0.7570  0.6282 -0.0970
23315SOL    HW272325   6.634   0.093   2.085 -0.0584 -1.0200 -0.1979
23316SOL     OW72326   3.459   7.106  10.363 -0.0014 -0.0865 -0.2354
23316SOL    HW172327   3.446   7.135  10.453  1.4260  1.0649 -0.3539
23316SOL    HW272328   3.554   7.095  10.355 -0.0343  0.4688 -1.7554
23317SOL     OW72329   3.859  10.206   2.677  0.0242 -0.1236  0.0546
23317SOL    HW172330   3.875  10.270   2.747  0.9429 -0.7018  0.3911
23317SOL    HW272331   3.931  10.143   2.685  0.9439  0.5513 -2.2949
23318SOL     OW72332   9.375   7.469   6.733 -0.4825 -0.0644 -0.0016
23318SOL    HW172333   9.465   7.502   6.734 -0.8125  0.8349  0.7839
23318SOL    HW272334   9.361   7.435   6.822 -1.0789  0.2487  0.0273
23319SOL     OW72335   4.690  10.016   2.950 -0.5321 -0.2625 -0.1947
23319SOL    HW172336   4.691  10.043   3.042  1.0590 -1.6091  0.2243
23319SOL    HW272337   4.669   9.922   2.953  2.0739 -0.9483 -0.9596
23320SOL     OW72338   9.655   9.843   3.406  0.2310 -0.1530  0.4430
23320SOL    HW172339   9.575   9.893   3.398  2.3638  4.1209  2.4351
23320SOL    HW272340   9.692   9.841   3.318 -0.6495  0.4867  0.0555
23321SOL     OW72341   8.185   2.250   1.893  0.0957  0.3022  0.4807
23321SOL    HW172342   8.266   2.248   1.944  0.5709  0.0994 -0.2643
23321SOL    HW272343   8.213   2.233   1.803 -0.7985  0.0089  0.2450
23322SOL     OW72344   4.793   3.812   2.791 -0.2278 -0.0634  0.3746
23322SOL    HW172345   4.744   3.883   2.833 -1.9534 -0.9122 -0.1182
23322SOL    HW272346   4.776   3.735   2.846 -1.8866 -1.0230 -1.3508
23323SOL     OW72347   5.827   4.669   4.293  0.0417 -0.3312  0.1368
23323SOL    HW172348   5.773   4.592   4.273 -1.2349  0.9144 -1.4311
23323SOL    HW272349   5.766   4.732   4.332  0.5489  0.7543 -0.7723
23324SOL     OW72350   5.468   5.200   2.347 -0.0865 -0.3230 -0.0597
23324SOL    HW172351   5.427   5.284   2.369 -0.3633 -0.2410 -0.8482
23324SOL    HW272352   5.429   5.138   2.408  1.3039  0.3801  1.6196
23325SOL     OW72353   6.351   4.702   4.232  0.2096 -0.4281  0.0801
23325SOL    HW172354   6.266   4.745   4.236 -0.6402 -2.1073  1.6330
23325SOL    HW272355   6.350   4.642   4.306  2.0566 -1.7747 -0.9227
23326SOL     OW72356   5.022   9.056   0.574  0.1176  0.0190 -0.2046
23326SOL    HW172357   5.084   9.117   0.615  0.3529  1.3084 -2.2831
23326SOL    HW272358   5.078   8.997   0.523 -0.2440 -0.4016 -0.1139
23327SOL     OW72359   6.918   2.598   4.883 -0.6084  0.1957  0.1930
23327SOL    HW172360   6.924   2.539   4.808 -1.2477  0.3902 -0.0092
23327SOL    HW272361   7.009   2.626   4.898 -0.6538  1.4760 -1.5625
23328SOL     OW72362   1.256   3.114   9.733  0.1367 -0.9760 -0.3179
23328SOL    HW172363   1.240   3.021   9.744 -0.2669 -0.6207  3.2037
23328SOL    HW272364   1.169   3.154   9.732  0.3431 -0.5165 -0.4441
23329SOL     OW72365   3.298   1.975   9.641 -0.0371 -0.2256 -0.3291
23329SOL    HW172366   3.256   2.058   9.664  1.0153  0.1388  0.3162
23329SOL    HW272367   3.278   1.964   9.548 -2.9413 -0.8960  0.2540
23330SOL     OW72368   2.120   4.357   0.675 -0.1039  0.2898 -0.1141
23330SOL    HW172369   2.173   4.384   0.750  0.1158 -1.0570  0.2412
23330SOL    HW272370   2.046   4.417   0.676  0.0565  0.4999  1.0050
23331SOL     OW72371   5.846   5.706   9.540 -0.3876 -0.1716  0.8698
23331SOL    HW172372   5.879   5.791   9.569  1.6603 -0.8424  0.6964
23331SOL    HW272373   5.845   5.712   9.444  1.7973 -0.9710  0.7407
23332SOL     OW72374   0.284   0.720   3.911  0.2696 -0.0272  0.7262
23332SOL    HW172375   0.269   0.709   3.817  0.6811 -0.1587  0.6725
23332SOL    HW272376   0.199   0.744   3.947 -0.1333 -1.0609  0.4862
23333SOL     OW72377   8.542   6.282   3.494 -0.0381  0.1611 -0.4918
23333SOL    HW172378   8.573   6.198   3.461 -0.5550  0.3388 -1.4534
23333SOL    HW272379   8.546   6.274   3.589 -0.6978 -1.1728 -0.5658
23334SOL     OW72380   7.923   5.553   7.027  0.2774  0.3174  0.2348
23334SOL    HW172381   7.962   5.626   7.074  1.4181 -1.0626  1.5081
23334SOL    HW272382   7.962   5.557   6.939 -0.1463  1.5734  0.0922
23335SOL     OW72383   7.372   2.499   4.672 -0.1715  0.1689  0.1136
23335SOL    HW172384   7.438   2.522   4.737  1.3343 -3.0197 -0.0946
23335SOL    HW272385   7.389   2.557   4.598  1.1712  0.6613  0.7848
23336SOL     OW72386   8.286   6.904   7.389 -0.0229  0.1716 -0.1739
23336SOL    HW172387   8.284   6.971   7.457 -0.1102 -0.4509  0.4492
23336SOL    HW272388   8.231   6.834   7.423  2.5012 -1.5714  0.6593
23337SOL     OW72389   4.845   9.891   0.169 -0.2365 -0.1320 -0.1747
23337SOL    HW172390   4.924   9.925   0.212  1.1021 -0.4931 -2.2108
23337SOL    HW272391   4.787   9.869   0.241  1.2456  0.7796  1.3933
23338SOL     OW72392   9.454   8.262   0.581  0.5959 -0.0256 -0.0946
23338SOL    HW172393   9.380   8.253   0.521  1.1704  0.7332 -0.9583
23338SOL    HW272394   9.421   8.319   0.651  0.4571  0.6229 -0.6698
23339SOL     OW72395   7.698  10.012   3.396  0.1386 -0.0711 -0.6816
23339SOL    HW172396   7.664  10.024   3.308 -0.1124 -1.6378 -0.8294
23339SOL    HW272397   7.626   9.970   3.444 -0.4066  2.3449  0.8177
23340SOL     OW72398   3.327   6.637  10.439  0.2199 -0.4567 -0.3964
23340SOL    HW172399   3.284   6.677  10.364 -0.8662 -1.1311 -0.1607
23340SOL    HW272400   3.416   6.671  10.437  0.1629 -0.3463 -1.8939
23341SOL     OW72401   5.425   0.872   2.994  0.6215 -0.5491  0.7428
23341SOL    HW172402   5.381   0.930   2.933  0.5484  1.1602  2.3236
23341SOL    HW272403   5.374   0.791   2.993 -0.5938  0.2067  0.1019
23342SOL     OW72404   0.235   9.668  10.645  0.8511  0.2448 -0.0204
23342SOL    HW172405   0.326   9.644  10.631  1.0269 -0.4045  1.9583
23342SOL    HW272406   0.239   9.758  10.678  0.8585 -0.0351  0.7693
23343SOL     OW72407   1.535   6.923   3.899  0.1435 -0.2262 -0.0196
23343SOL    HW172408   1.493   6.978   3.832  0.4691  1.1713  0.8687
23343SOL    HW272409   1.515   6.967   3.982  1.0326 -1.0708  0.6669
23344SOL     OW72410   4.818   5.854   2.193 -0.1631  0.1179 -0.5080
23344SOL    HW172411   4.896   5.902   2.222 -0.2492  0.8156 -1.4047
23344SOL    HW272412   4.799   5.794   2.266 -0.2067  1.6029  0.7478
23345SOL     OW72413   6.766   2.955   8.911 -0.4944  0.2336  0.3451
23345SOL    HW172414   6.808   2.906   8.982  2.7148  1.2127 -0.7084
23345SOL    HW272415   6.736   3.036   8.951  2.4471  1.3554  0.4950
23346SOL     OW72416  10.007   3.629   5.551  0.4864  0.0047  0.0043
23346SOL    HW172417   9.932   3.626   5.492  0.9936 -1.0462 -0.6057
23346SOL    HW272418  10.081   3.652   5.495  0.7043  0.6283  0.5310
23347SOL     OW72419   3.444   6.809   5.958 -0.0186 -0.3909  0.1851
23347SOL    HW172420   3.452   6.718   5.929  0.2286 -0.2160 -0.3024
23347SOL    HW272421   3.487   6.860   5.890 -3.1848  0.4295 -1.4126
23348SOL     OW72422   8.885   0.156   3.695 -0.6581 -0.5186  0.7843
23348SOL    HW172423   8.976   0.134   3.713 -0.5354  0.8436  2.0223
23348SOL    HW272424   8.878   0.152   3.600  1.4641  1.9665  0.3993
23349SOL     OW72425   6.845   6.527   0.546  0.8315  0.2251  0.5485
23349SOL    HW172426   6.793   6.452   0.577 -1.9423  1.8023  0.0903
23349SOL    HW272427   6.810   6.602   0.596  0.6736  1.8156 -1.8106
23350SOL     OW72428   0.170  10.171   2.204  0.1559  0.0515 -0.0736
23350SOL    HW172429   0.227  10.245   2.226  0.9828 -0.0218 -1.7741
23350SOL    HW272430   0.082  10.202   2.224  0.6986  0.2621  2.3999
23351SOL     OW72431   6.071   7.311   6.888 -0.0402 -0.1598 -0.4070
23351SOL    HW172432   6.009   7.283   6.820  0.3197 -0.8202 -0.4670
23351SOL    HW272433   6.151   7.262   6.869 -0.3078 -1.2984  1.2116
23352SOL     OW72434   5.478   7.367   2.141  0.0938 -0.5418 -0.0125
23352SOL    HW172435   5.473   7.389   2.234 -0.2814 -1.9293  0.3205
23352SOL    HW272436   5.541   7.430   2.105 -1.1442  1.2537  0.7771
23353SOL     OW72437   6.592  10.660   2.397 -0.0171 -0.6077 -0.0980
23353SOL    HW172438   6.650  10.601   2.349  1.4885 -1.1260  2.2188
23353SOL    HW272439   6.645  10.738   2.413 -1.0831  0.2918 -0.7070
23354SOL     OW72440   1.747   7.371   3.235 -0.2169 -0.1115  0.2144
23354SOL    HW172441   1.746   7.439   3.302 -1.2847  0.4427 -0.3325
23354SOL    HW272442   1.733   7.418   3.152 -1.5545 -1.0103 -0.1226
23355SOL     OW72443   7.695   0.752   4.333  0.5834  0.1003 -0.6789
23355SOL    HW172444   7.622   0.756   4.395  1.2494  1.7279  0.0611
23355SOL    HW272445   7.655   0.718   4.253 -0.4260 -1.4534  0.4210
23356SOL     OW72446   0.139   0.587   7.053 -0.0155  0.1484 -0.4599
23356SOL    HW172447   0.216   0.643   7.061 -0.6567  1.0191 -0.2354
23356SOL    HW272448   0.065   0.648   7.051 -0.7530 -0.6991  0.0732
23357SOL     OW72449   9.167   6.772   8.557 -0.5855  0.1543  0.0573
23357SOL    HW172450   9.148   6.769   8.651  0.7307  0.9427  0.3723
23357SOL    HW272451   9.261   6.757   8.551 -0.7376 -0.3890 -1.1827
23358SOL     OW72452   1.222   7.716   4.132  0.2531  0.2351 -0.3810
23358SOL    HW172453   1.305   7.753   4.161  0.6018 -0.3559 -0.6012
23358SOL    HW272454   1.215   7.742   4.040  0.5093 -0.2399 -0.5425
23359SOL     OW72455   3.582   2.527  10.144 -0.0714  0.4391 -0.0348
23359SOL    HW172456   3.606   2.606  10.095  1.2213  2.1254  3.0221
23359SOL    HW272457   3.541   2.561  10.224 -2.0462 -2.1338  0.1576
23360SOL     OW72458  10.046   8.863   9.961  0.4648  0.2556  0.5768
23360SOL    HW172459  10.133   8.829   9.982  0.4289  0.2920  0.7888
23360SOL    HW272460  10.009   8.888  10.046 -0.0864 -0.5458  0.5756
23361SOL     OW72461  10.754   6.998   0.464  0.4387 -0.4178  0.7396
23361SOL    HW172462  10.845   6.996   0.493  0.5681 -2.4029  0.3396
23361SOL    HW272463  10.707   7.039   0.536  1.5979  0.4182  1.0532
23362SOL     OW72464   5.374   0.221   1.929  0.0768  0.2272  0.4145
23362SOL    HW172465   5.334   0.140   1.960 -2.0487  1.1396  0.1616
23362SOL    HW272466   5.365   0.282   2.002 -1.1150  1.1142 -0.4407
23363SOL     OW72467   4.206  10.655   5.058  0.1849 -0.2710  0.3584
23363SOL    HW172468   4.262  10.713   5.110  0.3266  2.2403 -2.2868
23363SOL    HW272469   4.267  10.608   5.001 -0.1295 -1.0374  0.6432
23364SOL     OW72470   0.762   0.449   5.245 -0.2949 -0.2359  0.2649
23364SOL    HW172471   0.791   0.401   5.323  1.2018 -0.6633 -0.5136
23364SOL    HW272472   0.843   0.472   5.199 -1.1429 -0.1857 -1.2802
23365SOL     OW72473   9.620   2.983   9.056  0.1562 -0.5110 -0.1990
23365SOL    HW172474   9.540   2.996   9.005  0.0852 -0.1986 -0.0083
23365SOL    HW272475   9.653   3.071   9.074 -1.2430 -0.4248  2.5395
23366SOL     OW72476   1.103   2.120   0.832 -0.3694  0.7097  0.5352
23366SOL    HW172477   1.012   2.091   0.831 -0.0680 -0.3103 -1.2206
23366SOL    HW272478   1.151   2.050   0.877 -0.3958  1.1040  1.1898
23367SOL     OW72479   1.909   2.807   6.025 -0.0805 -0.4103 -0.2140
23367SOL    HW172480   1.909   2.856   5.943 -0.3262  0.7941  0.4696
23367SOL    HW272481   1.825   2.762   6.026 -0.2124 -0.1734 -0.4862
23368SOL     OW72482   8.495   3.413   8.005  0.0129 -0.4522 -0.4195
23368SOL    HW172483   8.538   3.332   7.978 -0.8168 -1.0462  0.0108
23368SOL    HW272484   8.549   3.445   8.077  0.1889 -0.7621 -0.4102
23369SOL     OW72485   9.255   2.736   6.431  0.4227 -0.3924 -0.7156
23369SOL    HW172486   9.214   2.674   6.492 -0.2358  0.2136 -0.5307
23369SOL    HW272487   9.202   2.815   6.439  0.6893 -0.1136 -1.6472
23370SOL     OW72488   0.528   0.584   7.617  0.3883  0.0597  0.3124
23370SOL    HW172489   0.570   0.517   7.563  0.4128 -0.4320  0.9330
23370SOL    HW272490   0.561   0.667   7.582  0.1308 -0.2304 -0.6505
23371SOL     OW72491  10.509   1.432   2.125 -0.6260 -0.1253  0.0688
23371SOL    HW172492  10.555   1.504   2.169 -0.7739 -0.1874  0.3287
23371SOL    HW272493  10.464   1.473   2.051 -1.7004  0.2686  0.9115
23372SOL     OW72494   9.027   3.415   2.148 -0.1892 -0.1663 -0.0882
23372SOL    HW172495   8.981   3.363   2.214  0.3884  0.4245  0.7844
23372SOL    HW272496   9.100   3.359   2.120 -1.9878 -1.6160 -2.3365
23373SOL     OW72497   1.937   4.653   2.674 -0.4683 -0.0172 -0.0580
23373SOL    HW172498   1.929   4.618   2.585  0.1657  0.1607 -0.1930
23373SOL    HW272499   1.874   4.724   2.678 -0.4669  0.0015 -0.3803
23374SOL     OW72500   4.207  10.232   5.522  0.1484  0.3661  0.4522
23374SOL    HW172501   4.293  10.260   5.490 -0.1537  2.2161  1.1196
23374SOL    HW272502   4.154  10.222   5.444  0.2007  2.0337  0.1757
23375SOL     OW72503   7.265   4.644   6.523 -0.7124  0.2608 -0.0943
23375SOL    HW172504   7.197   4.711   6.522 -0.4242  0.6385  2.2177
23375SOL    HW272505   7.342   4.688   6.556  1.0089  0.0402 -3.3470
23376SOL     OW72506   3.587   6.609   8.808  0.2406  0.4076 -0.0794
23376SOL    HW172507   3.558   6.639   8.894 -0.4716 -0.5974  0.0468
23376SOL    HW272508   3.657   6.547   8.826  1.2153  1.4117 -0.3083
23377SOL     OW72509   2.419   7.713   9.293 -0.3257  0.0514  0.0243
23377SOL    HW172510   2.466   7.630   9.283 -0.9240 -0.3945  0.6984
23377SOL    HW272511   2.376   7.705   9.379 -1.2763  0.6004 -0.3802
23378SOL     OW72512   4.395   5.726   8.842  0.5297  0.5439 -0.1348
23378SOL    HW172513   4.331   5.665   8.880  1.9083 -0.4686  0.6833
23378SOL    HW272514   4.428   5.776   8.917 -0.5533  2.3365 -0.7884
23379SOL     OW72515   6.161   6.994   8.286 -0.3100 -0.0604 -0.1041
23379SOL    HW172516   6.147   7.081   8.250  0.1305  0.5964  1.2673
23379SOL    HW272517   6.094   6.940   8.244  0.6855  0.4590 -2.4918
23380SOL     OW72518   7.068   3.366   4.900 -0.0400 -0.2158  0.4426
23380SOL    HW172519   7.149   3.417   4.906  0.8715 -1.7695  2.4980
23380SOL    HW272520   7.060   3.344   4.807  0.9193  1.4164 -0.0775
23381SOL     OW72521   2.621   2.996   2.001  0.4920  0.5907 -0.3680
23381SOL    HW172522   2.577   2.926   2.049  1.6015 -1.7008 -2.5218
23381SOL    HW272523   2.704   3.008   2.047  0.1007  0.8814  0.2832
23382SOL     OW72524   4.000   7.882   7.301  0.1423 -0.4979  0.2696
23382SOL    HW172525   3.977   7.925   7.219  2.2861 -0.6118 -0.4583
23382SOL    HW272526   4.033   7.952   7.357  0.2183 -0.6511  0.4171
23383SOL     OW72527   1.392   9.068  10.019  0.0446  0.3720 -0.2086
23383SOL    HW172528   1.439   9.009  10.078 -0.4427 -1.8229 -1.8824
23383SOL    HW272529   1.453   9.083   9.947 -0.2041  1.1457 -0.2652
23384SOL     OW72530   3.503   4.841   2.374 -0.0688 -0.0577  0.2102
23384SOL    HW172531   3.460   4.875   2.453  1.3706 -0.2865  1.1510
23384SOL    HW272532   3.593   4.822   2.403  0.2834 -0.8614 -1.3099
23385SOL     OW72533   8.277   1.409   2.732  0.1735 -0.1250  0.1549
23385SOL    HW172534   8.310   1.321   2.713  0.1051 -0.3724  1.0922
23385SOL    HW272535   8.355   1.459   2.758  0.1502 -0.0427  0.0661
23386SOL     OW72536   0.072   2.067   3.946  0.2217 -0.0747 -0.1197
23386SOL    HW172537  -0.005   2.051   3.999 -0.1496  0.1761 -0.5769
23386SOL    HW272538   0.099   2.156   3.968 -1.2335  0.8870 -1.9292
23387SOL     OW72539   6.246   7.601   8.134  0.0713  0.6048  0.2361
23387SOL    HW172540   6.180   7.551   8.086 -0.7675 -0.6621  2.5197
23387SOL    HW272541   6.285   7.660   8.069 -2.5074  0.5969 -1.4407
23388SOL     OW72542   2.608   6.917   4.135 -0.2020 -0.4356  0.2000
23388SOL    HW172543   2.630   7.010   4.141 -0.5447 -0.3276 -0.1714
23388SOL    HW272544   2.690   6.876   4.107 -0.8642  0.2365 -3.2452
23389SOL     OW72545   4.563   2.078   6.203  0.0628  0.5416 -0.0454
23389SOL    HW172546   4.579   2.147   6.139 -0.8803  0.2739 -0.5916
23389SOL    HW272547   4.484   2.107   6.249  0.5698  0.5927  0.8192
23390SOL     OW72548   7.015   8.240   4.631 -0.4706  0.5113  0.3252
23390SOL    HW172549   6.944   8.251   4.568 -1.9568  0.7012  1.9714
23390SOL    HW272550   7.064   8.322   4.625 -0.9186  0.7534 -0.1644
23391SOL     OW72551   6.003  10.581   2.004 -0.2750  0.4388  0.1748
23391SOL    HW172552   6.048  10.576   1.919  0.7658 -2.0863  0.7580
23391SOL    HW272553   6.067  10.620   2.063 -0.7229  1.4960 -0.0283
23392SOL     OW72554   5.577   3.458   4.625  0.1996  0.2240  0.1661
23392SOL    HW172555   5.608   3.419   4.707  0.5700 -2.2670 -1.0801
23392SOL    HW272556   5.634   3.535   4.612  2.5226 -1.3450  0.5209
23393SOL     OW72557   4.301   5.608   1.607  0.1121  0.6232  0.3212
23393SOL    HW172558   4.341   5.575   1.687  2.1600 -0.4778 -1.0668
23393SOL    HW272559   4.317   5.702   1.609  1.6738  0.3752  0.4340
23394SOL     OW72560   2.617   3.294   4.761  0.4198  0.1508  0.0456
23394SOL    HW172561   2.679   3.280   4.833  0.9511 -0.9700 -0.6053
23394SOL    HW272562   2.543   3.339   4.802  1.1851  0.5460  1.0607
23395SOL     OW72563   2.718  10.580   1.733  0.3355  0.4362 -0.2342
23395SOL    HW172564   2.730  10.550   1.643  0.9153 -0.5584  0.1631
23395SOL    HW272565   2.773  10.523   1.786 -0.8259  0.2930  0.8812
23396SOL     OW72566   5.973   2.069   8.063  0.6255 -0.4142  0.2390
23396SOL    HW172567   5.939   2.059   8.152 -0.7026 -2.2865 -0.4070
23396SOL    HW272568   5.906   2.118   8.017  0.1771 -1.4720 -0.2782
23397SOL     OW72569   8.632   4.791   7.132  0.0023 -0.2475 -0.2148
23397SOL    HW172570   8.543   4.762   7.152 -0.1173  0.0330 -0.3407
23397SOL    HW272571   8.652   4.750   7.047  0.2220 -0.8036  0.0989
23398SOL     OW72572   0.873   9.111   2.648  0.0100 -0.6338 -0.4809
23398SOL    HW172573   0.824   9.029   2.643 -0.1421 -0.5295 -0.6853
23398SOL    HW272574   0.926   9.112   2.569 -0.8853  0.0387 -1.0810
23399SOL     OW72575   7.756   4.535   5.668  0.1870 -0.0179  0.1415
23399SOL    HW172576   7.842   4.558   5.701  0.5115 -0.4874 -0.3715
23399SOL    HW272577   7.697   4.598   5.710  0.3568 -1.4462  2.7804
23400SOL     OW72578   4.258   6.293   4.287 -0.1876 -0.3716  0.2814
23400SOL    HW172579   4.308   6.327   4.362 -0.7582  1.0012  0.0730
23400SOL    HW272580   4.286   6.202   4.279  2.2072  0.2800  0.2664
23401SOL     OW72581  10.613   0.945   1.019  0.1171  1.1936 -0.8196
23401SOL    HW172582  10.679   0.956   0.951 -0.1788  1.1882 -1.1124
23401SOL    HW272583  10.661   0.955   1.101  0.4360  1.4291 -1.0307
23402SOL     OW72584   0.505   6.632   1.477  0.3684 -0.8880 -0.3601
23402SOL    HW172585   0.427   6.592   1.440  0.2995 -0.3055 -0.8595
23402SOL    HW272586   0.578   6.582   1.438  0.2632 -1.2612 -0.0920
23403SOL     OW72587   5.492   4.856   5.060 -0.0155 -0.1091 -0.0813
23403SOL    HW172588   5.532   4.887   5.142  2.1868  1.2635 -1.5530
23403SOL    HW272589   5.418   4.915   5.046  0.2883  0.3838  0.3539
23404SOL     OW72590   5.899   2.717  10.577 -0.2478  0.0172 -0.1904
23404SOL    HW172591   5.944   2.670  10.506  0.7530  0.2378  0.2771
23404SOL    HW272592   5.935   2.805  10.573 -0.4675  0.1321  0.3668
23405SOL     OW72593   8.940  10.320   8.703 -0.4072 -0.3430 -0.0487
23405SOL    HW172594   8.934  10.245   8.763 -1.4168 -0.3232 -0.1120
23405SOL    HW272595   8.987  10.285   8.626  0.7456 -0.4120  0.6605
23406SOL     OW72596   5.860   1.953   9.540 -0.2321 -0.1451  0.6913
23406SOL    HW172597   5.866   1.864   9.574  0.4470 -1.2189 -1.9868
23406SOL    HW272598   5.775   1.957   9.497 -0.0852  0.3294  0.4280
23407SOL     OW72599   3.499   5.015   4.941 -0.2875 -0.1829 -0.5698
23407SOL    HW172600   3.547   4.976   5.014  1.0670  0.6403 -0.9804
23407SOL    HW272601   3.567   5.047   4.882 -1.2525  2.9381 -0.1960
23408SOL     OW72602   9.135   9.532   3.836  0.3600  0.3878  0.3965
23408SOL    HW172603   9.156   9.440   3.829  1.2947  0.7442 -2.5206
23408SOL    HW272604   9.216   9.574   3.865  0.5193  0.4988 -0.1945
23409SOL     OW72605   7.623   1.133   2.560 -0.2649  0.4762 -0.0464
23409SOL    HW172606   7.686   1.097   2.498  0.1279  0.6381  0.2572
23409SOL    HW272607   7.632   1.228   2.551  1.2672  0.5487  1.7096
23410SOL     OW72608   3.405   5.807   3.767  0.1648 -0.5197  0.3094
23410SOL    HW172609   3.316   5.808   3.802 -0.0362 -2.5663 -0.0242
23410SOL    HW272610   3.458   5.846   3.836 -1.2049  3.0899 -0.4252
23411SOL     OW72611   6.151   1.733   4.530  0.2192 -0.1609 -0.2174
23411SOL    HW172612   6.118   1.822   4.513  0.8746 -0.1977 -1.8619
23411SOL    HW272613   6.193   1.739   4.615 -1.2870  0.6621  0.5061
23412SOL     OW72614   0.009   4.274   8.573  0.4464 -0.0527  0.3373
23412SOL    HW172615   0.089   4.305   8.615  0.6941 -0.8769  0.5084
23412SOL    HW272616   0.039   4.204   8.514 -0.1278 -0.2698  0.2964
23413SOL     OW72617   8.472   8.439   7.690  0.3800  0.1811 -0.3846
23413SOL    HW172618   8.509   8.468   7.773 -0.2356  0.1399 -0.0893
23413SOL    HW272619   8.408   8.372   7.714 -0.0445  0.4076 -0.8675
23414SOL     OW72620   9.470   2.822   6.674 -0.6655 -0.0873  0.2039
23414SOL    HW172621   9.497   2.734   6.646  0.5018  0.2559  0.2386
23414SOL    HW272622   9.383   2.833   6.635 -0.3829 -0.8443 -0.6731
23415SOL     OW72623   0.595   5.622  10.483 -0.1094  0.4353 -0.4749
23415SOL    HW172624   0.560   5.615  10.572  0.6690 -0.6200 -0.2292
23415SOL    HW272625   0.574   5.711  10.456 -1.1048  0.5059  0.4443
23416SOL     OW72626   2.090   0.060   3.686 -0.1486  0.2647  0.3370
23416SOL    HW172627   2.098   0.129   3.621  0.4122  0.7288  0.8830
23416SOL    HW272628   2.174   0.061   3.732 -0.2014 -0.6592  0.4734
23417SOL     OW72629   8.520   1.933   9.496 -0.1437  0.4773 -0.6039
23417SOL    HW172630   8.494   1.983   9.573 -1.1400 -0.9673  0.0362
23417SOL    HW272631   8.583   1.869   9.529 -1.0951 -0.6089 -0.8125
23418SOL     OW72632   1.862   2.007   7.059  0.5343 -0.0449  0.2935
23418SOL    HW172633   1.781   1.956   7.054  0.5336 -0.0038 -0.1202
23418SOL    HW272634   1.875   2.021   7.153 -0.5424  0.9040  0.3275
23419SOL     OW72635   7.873   3.284   9.775  0.0511  0.0407  0.1569
23419SOL    HW172636   7.903   3.304   9.686  0.5404  0.0096  0.3114
23419SOL    HW272637   7.823   3.203   9.766  0.2008 -0.0266 -0.0691
23420SOL     OW72638  10.051   8.809   3.698  0.1673  0.8383  0.0050
23420SOL    HW172639  10.097   8.840   3.777  1.7272 -0.8367 -0.1707
23420SOL    HW272640  10.036   8.716   3.715  0.2431  0.5244 -1.5467
23421SOL     OW72641   5.614  10.287   0.704  0.2595  0.0555 -0.2636
23421SOL    HW172642   5.583  10.254   0.620 -1.8921  0.2977  0.3802
23421SOL    HW272643   5.595  10.217   0.766  0.2260  0.5505  0.2986
23422SOL     OW72644   7.888   0.265   6.201 -0.9190 -0.5977 -0.2240
23422SOL    HW172645   7.904   0.280   6.295 -0.0294  0.8794 -0.5708
23422SOL    HW272646   7.846   0.345   6.171  0.8226 -0.1091 -1.5116
23423SOL     OW72647   1.240  10.084   6.483  0.2246  0.1746  0.2115
23423SOL    HW172648   1.168  10.055   6.539  0.6480  0.1132  0.7236
23423SOL    HW272649   1.298  10.008   6.476 -0.3893 -0.2048 -1.2479
23424SOL     OW72650   6.278   8.688   1.592 -0.2170  0.1052  0.5967
23424SOL    HW172651   6.209   8.716   1.533 -0.0336  0.3261  0.4854
23424SOL    HW272652   6.263   8.738   1.672  1.6502  2.5565 -0.4644
23425SOL     OW72653   3.144   4.663   3.345  0.5592 -0.0785  0.5591
23425SOL    HW172654   3.160   4.599   3.276  2.2663  0.1877  0.6629
23425SOL    HW272655   3.130   4.610   3.424  1.1302 -0.3567  0.4815
23426SOL     OW72656   5.184   1.201   0.974 -0.2523  0.3019  0.3794
23426SOL    HW172657   5.258   1.171   1.026  0.6505  1.2960 -0.2890
23426SOL    HW272658   5.110   1.148   1.004  0.2639  0.7270  2.5282
23427SOL     OW72659   0.652   8.482   4.953 -0.0951 -0.5427 -0.2307
23427SOL    HW172660   0.616   8.408   4.903  1.2446 -1.5479  0.2377
23427SOL    HW272661   0.695   8.442   5.028 -1.7159  0.9177  1.5956
23428SOL     OW72662   3.134   2.020   0.270  0.2313  0.0152 -0.3204
23428SOL    HW172663   3.202   1.962   0.304 -0.4891 -0.6019  0.0978
23428SOL    HW272664   3.113   1.984   0.184  1.5804  1.1838 -1.1898
23429SOL     OW72665  10.054   1.997   4.956 -0.1722  0.5988  0.1434
23429SOL    HW172666   9.969   1.964   4.927  0.6038 -0.2399 -1.3088
23429SOL    HW272667  10.075   2.067   4.895  0.8167 -0.1785 -0.4393
23430SOL     OW72668   9.376   0.984   0.421  0.4720  0.1136  0.1297
23430SOL    HW172669   9.426   0.906   0.399 -0.6563 -0.4814 -0.4032
23430SOL    HW272670   9.296   0.977   0.369 -0.0860  1.1287  0.8155
23431SOL     OW72671   5.691   1.914   4.381 -0.0587 -0.4429 -0.2123
23431SOL    HW172672   5.723   1.839   4.331  0.2377 -0.5596  0.1529
23431SOL    HW272673   5.765   1.975   4.383 -0.3340 -0.0905 -0.6018
23432SOL     OW72674   0.481   6.538   6.161  0.7848 -0.3386  0.3253
23432SOL    HW172675   0.438   6.604   6.216  0.9333 -0.7722  0.9750
23432SOL    HW272676   0.544   6.496   6.219  1.1106 -0.6465 -0.2480
23433SOL     OW72677   3.560   0.132   1.124  0.1835 -0.6313  0.2065
23433SOL    HW172678   3.518   0.200   1.072  0.1447  0.1864  1.2909
23433SOL    HW272679   3.645   0.168   1.147 -0.0472 -0.7154  1.2356
23434SOL     OW72680   6.182   1.495   8.374 -0.1519  0.2514 -0.6632
23434SOL    HW172681   6.173   1.462   8.463  0.1066  1.2088 -0.2724
23434SOL    HW272682   6.276   1.500   8.359 -0.0265  3.6663  0.4302
23435SOL     OW72683  10.161   1.799   6.311 -0.1414  0.6751 -0.8728
23435SOL    HW172684  10.145   1.854   6.234 -0.2188  1.8680 -0.0393
23435SOL    HW272685  10.255   1.779   6.306 -0.3868 -0.2913 -1.9190
23436SOL     OW72686   6.566   9.421   9.947  0.2122  0.3106 -0.3016
23436SOL    HW172687   6.474   9.443   9.963  0.4764  1.2058  0.0196
23436SOL    HW272688   6.570   9.405   9.852 -0.6078 -1.4365 -0.0875
23437SOL     OW72689   6.865   2.417   1.833 -0.7060  0.1039  0.1063
23437SOL    HW172690   6.912   2.371   1.903 -1.0707  2.1152  1.7534
23437SOL    HW272691   6.933   2.440   1.770 -0.0409 -0.0661  0.7422
23438SOL     OW72692   1.607  10.210   6.531  0.0492 -0.1180  0.0284
23438SOL    HW172693   1.608  10.251   6.618 -0.4086 -0.2900  0.1146
23438SOL    HW272694   1.618  10.117   6.548  0.8132 -0.0709 -0.1531
23439SOL     OW72695   3.956   4.894   2.259 -0.0149 -0.2810 -0.0727
23439SOL    HW172696   3.945   4.985   2.284  2.9544 -0.4535  2.4780
23439SOL    HW272697   4.038   4.892   2.209 -1.5672 -1.2409 -2.8393
23440SOL     OW72698   0.318   5.653   2.839  0.5168  0.3798 -0.4188
23440SOL    HW172699   0.287   5.630   2.927  1.4291  0.4341 -0.0774
23440SOL    HW272700   0.275   5.736   2.820 -0.8947 -0.3731 -0.6634
23441SOL     OW72701   4.826   5.190   9.502 -0.2291 -0.6056  0.1711
23441SOL    HW172702   4.858   5.112   9.547 -0.6600 -1.2047 -0.5235
23441SOL    HW272703   4.748   5.159   9.455 -0.7791  0.3980  0.4072
23442SOL     OW72704   5.675  10.664   0.522 -0.1582 -0.0602 -0.0191
23442SOL    HW172705   5.708  10.746   0.560  1.6899 -0.4455 -0.7070
23442SOL    HW272706   5.681  10.677   0.427 -1.0269 -0.5539 -0.1570
23443SOL     OW72707   3.845   8.974   7.382  0.0364 -0.2611 -0.9122
23443SOL    HW172708   3.931   9.011   7.399  0.4544 -1.9657  1.1523
23443SOL    HW272709   3.784   9.033   7.426  0.3571 -0.1506 -0.6129
23444SOL     OW72710   0.896   8.180   9.422 -0.6139 -0.1725 -0.3728
23444SOL    HW172711   0.827   8.238   9.453  1.4576  2.2113  0.0929
23444SOL    HW272712   0.895   8.106   9.483 -1.6708  0.6362  0.6182
23445SOL     OW72713   2.914   8.629  10.264  0.1143  0.1327  0.0251
23445SOL    HW172714   2.850   8.692  10.233  2.0860  2.4332  0.3475
23445SOL    HW272715   2.864   8.571  10.321 -2.1269  0.2408 -1.6661
23446SOL     OW72716   5.190   9.493   4.721 -0.0482 -0.8934 -0.9749
23446SOL    HW172717   5.141   9.415   4.694  2.4640 -2.2282 -1.9602
23446SOL    HW272718   5.268   9.458   4.764 -0.5841  1.1521  1.9859
23447SOL     OW72719  10.797   3.836   2.087  0.3535 -0.0276 -0.0470
23447SOL    HW172720  10.808   3.927   2.115  0.7212 -0.1207  0.1217
23447SOL    HW272721  10.785   3.840   1.993 -1.1669  0.3181  0.1268
23448SOL     OW72722   2.884   3.445   7.716  0.5836  0.2767  0.5678
23448SOL    HW172723   2.961   3.455   7.659  1.8155  3.9266  2.5162
23448SOL    HW272724   2.837   3.528   7.707 -1.0123 -0.3662  2.3313
23449SOL     OW72725   0.542   0.741   4.001 -0.8892 -0.0029  0.1486
23449SOL    HW172726   0.457   0.715   3.965 -2.1096  0.7670  2.2714
23449SOL    HW272727   0.527   0.828   4.038  0.8217  0.1378  0.6031
23450SOL     OW72728   5.932   8.258   4.764  0.3882  0.3879  0.0244
23450SOL    HW172729   5.926   8.351   4.744 -0.2682  0.6974  1.5430
23450SOL    HW272730   6.010   8.250   4.820 -0.8914  0.4518  1.9190
23451SOL     OW72731   8.235   3.897   4.817 -0.2677  0.5030  0.4136
23451SOL    HW172732   8.249   3.802   4.808  0.6909  0.6405  0.2747
23451SOL    HW272733   8.205   3.908   4.907 -0.7965  0.0217  0.2990
23452SOL     OW72734   5.839   2.613   0.015  0.0357 -0.7751  0.0564
23452SOL    HW172735   5.845   2.661  -0.068  0.2803  1.5209  1.3319
23452SOL    HW272736   5.779   2.665   0.068 -0.3920 -2.3940  1.2163
23453SOL     OW72737   5.677   1.438   1.969 -0.3060  0.3604 -0.1108
23453SOL    HW172738   5.750   1.500   1.965  0.5753 -0.2819  2.9549
23453SOL    HW272739   5.679   1.393   1.884  2.3747  0.9393 -0.4575
23454SOL     OW72740   5.650   0.793   2.818  0.1330 -0.2093  0.6366
23454SOL    HW172741   5.682   0.778   2.729 -1.1033 -0.2535  0.1733
23454SOL    HW272742   5.570   0.844   2.807 -0.7003 -1.2302  1.6336
23455SOL     OW72743   2.442  10.462   4.138 -0.0458 -0.0525  0.3198
23455SOL    HW172744   2.514  10.519   4.111 -0.8503 -0.0306 -1.9672
23455SOL    HW272745   2.471  10.424   4.221  1.7306  1.4617  0.4452
23456SOL     OW72746   6.812   8.659   3.846  0.5169  0.4707 -0.5107
23456SOL    HW172747   6.774   8.747   3.833  0.0224  0.0668 -2.1287
23456SOL    HW272748   6.736   8.600   3.842  0.9706 -0.1094 -0.6506
23457SOL     OW72749   0.491   1.870   1.776 -0.1266  0.0220  0.5529
23457SOL    HW172750   0.413   1.915   1.809 -0.1118 -0.2389  0.9556
23457SOL    HW272751   0.533   1.934   1.719  0.8076  1.1740  2.4280
23458SOL     OW72752   3.371   8.072   9.866  0.3569  0.3118  0.4276
23458SOL    HW172753   3.276   8.067   9.873  0.2846  0.6227 -0.2611
23458SOL    HW272754   3.399   8.117   9.946 -0.0254 -0.2118  0.8615
23459SOL     OW72755   0.788   7.176   8.690  0.1453 -0.7284 -0.0617
23459SOL    HW172756   0.751   7.109   8.749  1.3152 -2.0329 -0.7538
23459SOL    HW272757   0.873   7.196   8.728  0.2101 -0.3531 -0.4080
23460SOL     OW72758   3.779   2.407   1.485 -0.5659  0.3933  0.1423
23460SOL    HW172759   3.855   2.459   1.511  1.3684 -1.0869 -2.1788
23460SOL    HW272760   3.816   2.324   1.455 -2.7584  0.6112 -3.8085
23461SOL     OW72761   7.062   3.304   6.846  0.3225  0.3019  0.1230
23461SOL    HW172762   7.052   3.383   6.794 -0.8458 -0.4427 -0.8453
23461SOL    HW272763   7.156   3.292   6.854  0.5374  2.2452  1.0404
23462SOL     OW72764   5.715  10.394   2.573  0.0990  0.8314 -0.3556
23462SOL    HW172765   5.669  10.376   2.491  1.1982  0.5132 -0.9197
23462SOL    HW272766   5.804  10.419   2.547  1.1053 -1.2499  0.7820
23463SOL     OW72767   1.595   7.740   6.382  0.3950  0.6393  0.1083
23463SOL    HW172768   1.513   7.695   6.362  0.8726  1.0525 -3.3442
23463SOL    HW272769   1.656   7.669   6.402  0.0920  0.0363 -1.0109
23464SOL     OW72770   2.489   9.437   7.060 -0.1656 -0.4544 -0.2265
23464SOL    HW172771   2.562   9.396   7.106 -1.7308 -2.6665  0.4456
23464SOL    HW272772   2.501   9.531   7.075  1.9878 -0.8169  0.6373
23465SOL     OW72773   4.739   0.381   8.602  0.4311  0.6417 -0.3333
23465SOL    HW172774   4.779   0.364   8.687  0.0458 -0.0149 -0.2801
23465SOL    HW272775   4.804   0.351   8.538 -0.1804 -0.9876 -0.2448
23466SOL     OW72776   8.336  10.783   0.569 -0.1237  0.0821 -0.7789
23466SOL    HW172777   8.377  10.843   0.507  0.3484 -0.9402 -1.4827
23466SOL    HW272778   8.407  10.725   0.597 -0.7280 -0.6583 -0.7320
23467SOL     OW72779   2.780   9.230   5.181  0.3368 -0.2840 -0.0555
23467SOL    HW172780   2.761   9.284   5.258  0.1169  0.1407 -0.3996
23467SOL    HW272781   2.746   9.144   5.203 -1.5622  0.3160 -0.4290
23468SOL     OW72782   8.084   2.429   6.027 -0.1529 -0.0562 -0.0518
23468SOL    HW172783   7.992   2.404   6.022 -0.2681  0.3716 -0.0550
23468SOL    HW272784   8.085   2.508   6.081  0.2406 -0.2020  0.1565
23469SOL     OW72785   4.871   4.597   7.819  0.1199 -0.5354  0.3143
23469SOL    HW172786   4.940   4.662   7.832 -1.5158  1.0259  1.6419
23469SOL    HW272787   4.864   4.552   7.903  1.0130 -2.2979 -0.4957
23470SOL     OW72788   2.053   9.165   7.212  0.4115  0.1396  0.2970
23470SOL    HW172789   2.132   9.199   7.171  0.6317 -0.0709  0.5504
23470SOL    HW272790   2.027   9.234   7.273  0.4072  0.2015  0.2252
23471SOL     OW72791   3.536   3.264   6.038 -0.1652 -0.0305  0.1368
23471SOL    HW172792   3.629   3.286   6.034 -0.0570 -0.3003  0.9372
23471SOL    HW272793   3.531   3.173   6.010 -0.3441  0.3258 -1.0456
23472SOL     OW72794   8.026   9.509   2.138  0.1537  0.0447 -0.2795
23472SOL    HW172795   8.100   9.567   2.121 -0.2266 -0.1703 -3.2595
23472SOL    HW272796   8.066   9.425   2.162  0.9563 -0.2013 -2.3034
23473SOL     OW72797   9.292   2.325   2.259  0.0217  0.2422 -0.1392
23473SOL    HW172798   9.250   2.303   2.176  0.3692 -0.8768 -0.0478
23473SOL    HW272799   9.374   2.274   2.258  1.3330  2.2408 -0.2552
23474SOL     OW72800   9.511   9.534   9.869 -0.6337  0.7247 -0.0799
23474SOL    HW172801   9.598   9.520   9.831 -1.0031  0.9837 -1.0413
23474SOL    HW272802   9.489   9.624   9.845 -1.0219  0.7827  0.4735
23475SOL     OW72803  10.144  10.420   5.917  0.1637 -0.3827 -0.1936
23475SOL    HW172804  10.165  10.512   5.905 -0.7713  0.2125  2.0792
23475SOL    HW272805  10.227  10.374   5.900  1.2193  1.0983  0.6495
23476SOL     OW72806  10.048   8.022  10.717 -0.2337 -0.3800 -0.0141
23476SOL    HW172807   9.995   7.984  10.646 -0.1660 -3.4136  1.4050
23476SOL    HW272808  10.138   8.016  10.685 -0.4046  1.2012 -0.8783
23477SOL     OW72809   4.763   8.962   9.753  0.1012 -0.2902  0.2808
23477SOL    HW172810   4.737   9.054   9.759 -1.1001 -0.5199 -0.9035
23477SOL    HW272811   4.725   8.921   9.831  0.2020  0.1228  0.5471
23478SOL     OW72812   2.351   7.582   8.877 -0.1448  0.2104  0.4243
23478SOL    HW172813   2.359   7.562   8.784 -0.0967  0.1219  0.4477
23478SOL    HW272814   2.353   7.678   8.882  0.0067  0.2100  0.3488
23479SOL     OW72815   1.676   6.417   8.824 -0.1358 -0.1214  0.0968
23479SOL    HW172816   1.594   6.375   8.851 -1.1593  0.6262 -1.6986
23479SOL    HW272817   1.654   6.464   8.744  2.1092 -0.0485 -0.5408
23480SOL     OW72818   5.458   0.954   3.273 -0.3072 -0.6098  0.0187
23480SOL    HW172819   5.418   1.017   3.213 -0.1451  0.6031  1.1410
23480SOL    HW272820   5.488   0.883   3.216 -0.2716  0.4296 -1.3205
23481SOL     OW72821   7.883   9.885   2.254 -0.0338 -0.2106  0.7431
23481SOL    HW172822   7.925   9.883   2.340 -2.5724 -2.1710  2.0921
23481SOL    HW272823   7.848   9.797   2.243 -0.8745  0.3683 -1.7645
23482SOL     OW72824   1.800   9.320   0.526 -0.0926 -0.9505 -0.1240
23482SOL    HW172825   1.803   9.309   0.621 -0.0509  1.2445  0.1787
23482SOL    HW272826   1.888   9.294   0.497 -0.2017 -1.9273  0.3807
23483SOL     OW72827   0.316   8.057   5.483  0.1919 -0.3431 -0.1176
23483SOL    HW172828   0.335   8.096   5.568  2.3359 -2.9030  0.7145
23483SOL    HW272829   0.275   8.127   5.433 -0.2344  1.5508  2.6693
23484SOL     OW72830   8.175   4.125   8.232  0.0725 -0.6359  0.0952
23484SOL    HW172831   8.156   4.067   8.306 -1.6129 -0.0686  0.1457
23484SOL    HW272832   8.155   4.213   8.264  0.2594 -0.2846 -0.7250
23485SOL     OW72833   3.981   7.362   5.296 -0.1807  0.5997 -0.1940
23485SOL    HW172834   4.020   7.286   5.339 -0.5595  0.1861 -0.5677
23485SOL    HW272835   4.005   7.351   5.204 -1.9066 -0.1369 -0.5849
23486SOL     OW72836   8.720   2.264   5.453  0.1134  0.1236 -0.0202
23486SOL    HW172837   8.738   2.184   5.503  0.3865  0.0785 -0.1887
23486SOL    HW272838   8.628   2.256   5.428  0.3742 -0.5582 -0.7843
23487SOL     OW72839   9.592   8.962  10.568 -0.3563  0.1942  0.5121
23487SOL    HW172840   9.581   8.932  10.478 -1.0118  0.6947  0.4200
23487SOL    HW272841   9.613   8.882  10.617  0.6033  0.0037 -0.1675
23488SOL     OW72842   1.547   3.169   4.059 -0.1041 -0.6303  0.0373
23488SOL    HW172843   1.506   3.248   4.094  0.2057 -0.3355 -0.2578
23488SOL    HW272844   1.509   3.159   3.972 -1.9086 -2.1222  0.9040
23489SOL     OW72845   1.505   2.161   2.791 -0.5873 -0.4922  0.8765
23489SOL    HW172846   1.547   2.103   2.728  0.4000  0.3885  0.6973
23489SOL    HW272847   1.447   2.216   2.739  0.4002  0.3915  0.6678
23490SOL     OW72848   6.954   6.028   8.826  0.9088 -0.0714  0.2889
23490SOL    HW172849   6.952   5.936   8.853  1.5685  0.7986  3.7395
23490SOL    HW272850   7.033   6.064   8.866  0.1042  2.2525 -0.0363
23491SOL     OW72851   8.701   9.818   6.866 -0.2009  0.1502  0.1468
23491SOL    HW172852   8.769   9.769   6.912 -0.1524  0.1900  0.1163
23491SOL    HW272853   8.709   9.907   6.898 -0.4963  0.0747  0.4415
23492SOL     OW72854   8.951   1.559   5.176 -0.1016 -0.5040  0.0203
23492SOL    HW172855   8.945   1.605   5.260  0.7970  0.9589 -0.6611
23492SOL    HW272856   9.015   1.490   5.192  0.8631  0.4106  0.3187
23493SOL     OW72857   1.874   1.070   4.974 -0.0180 -0.4867  0.1018
23493SOL    HW172858   1.962   1.106   4.974 -0.5223  1.0188  2.7311
23493SOL    HW272859   1.886   0.976   4.987  1.2438 -0.2101  1.1654
23494SOL     OW72860   4.279   7.741   3.101  0.2669  0.6654  0.1541
23494SOL    HW172861   4.349   7.762   3.162 -1.7207  3.2372  1.7576
23494SOL    HW272862   4.320   7.684   3.035  3.3871  0.7630  1.8483
23495SOL     OW72863   9.705  10.159   1.907 -0.0577 -0.3623 -0.3598
23495SOL    HW172864   9.700  10.142   2.001  0.6425 -0.5527 -0.3460
23495SOL    HW272865   9.762  10.090   1.874  0.8886  0.5470 -0.6784
23496SOL     OW72866   7.183  10.000   1.945  0.0357 -0.6731 -0.4703
23496SOL    HW172867   7.199   9.982   2.037  0.6429  1.4311 -0.1245
23496SOL    HW272868   7.092   9.970   1.931 -0.6271  0.4131  1.2195
23497SOL     OW72869   7.316   0.045   4.004 -0.2897  0.3348 -0.4198
23497SOL    HW172870   7.384  -0.020   4.023 -0.0661  0.9943  1.2670
23497SOL    HW272871   7.362   0.115   3.957 -0.0654  0.2454 -0.3321
23498SOL     OW72872   7.438   4.961  10.396  0.2614  0.0158 -0.7313
23498SOL    HW172873   7.363   4.912  10.429  1.0018 -0.7444 -0.1152
23498SOL    HW272874   7.498   4.965  10.471  0.1248  2.1240 -0.6590
23499SOL     OW72875   0.683   6.345   9.504  0.4384 -0.2437 -0.3499
23499SOL    HW172876   0.649   6.257   9.489  0.8903 -0.6430  0.8424
23499SOL    HW272877   0.778   6.333   9.512  0.6472  0.5489 -1.4938
23500SOL     OW72878   2.341   6.928   2.058  0.0357  0.1742 -0.6018
23500SOL    HW172879   2.313   7.018   2.069 -0.3933  0.1002 -1.0138
23500SOL    HW272880   2.426   6.933   2.014  1.1823  0.4304  1.5414
23501SOL     OW72881   5.139   9.677   4.940  0.0419  0.1252  0.2885
23501SOL    HW172882   5.139   9.594   4.989 -0.2709  0.4015  0.7590
23501SOL    HW272883   5.136   9.650   4.849 -3.0447 -0.4175  0.4308
23502SOL     OW72884   1.825  10.059   2.762 -0.1125  0.0257 -0.3235
23502SOL    HW172885   1.814  10.143   2.717 -0.4096  0.1063 -0.1066
23502SOL    HW272886   1.848  10.083   2.852 -1.9328 -0.0674  0.2269
23503SOL     OW72887   2.652   9.307   3.748 -0.3412  0.1339  0.5691
23503SOL    HW172888   2.628   9.396   3.720  2.5945  0.8125 -0.1052
23503SOL    HW272889   2.695   9.319   3.833  0.1894 -0.6022  0.4129
23504SOL     OW72890   7.824   8.957   0.230  0.1520 -0.7346  0.1540
23504SOL    HW172891   7.767   9.025   0.268  0.4440 -0.8007  0.7165
23504SOL    HW272892   7.913   8.987   0.249  0.2820 -1.4943  0.8038
23505SOL     OW72893   3.751   8.503   5.492 -0.0377 -0.5200  0.0351
23505SOL    HW172894   3.705   8.425   5.522 -1.9365  0.7703  0.6153
23505SOL    HW272895   3.745   8.499   5.397 -1.3584 -0.3771  0.1019
23506SOL     OW72896   5.090   0.148   5.707  0.3859  0.3163  0.0584
23506SOL    HW172897   5.104   0.192   5.623 -1.3169  0.2941 -0.2739
23506SOL    HW272898   5.090   0.219   5.771 -2.2269  0.9011 -0.4594
23507SOL     OW72899   9.313  10.084   7.573 -0.2485 -0.2861  0.0890
23507SOL    HW172900   9.228  10.069   7.533 -0.5244 -1.5795  1.0951
23507SOL    HW272901   9.369  10.014   7.538 -0.6559 -1.8418  2.3239
23508SOL     OW72902   2.147  10.342   2.927 -0.1102  0.3682 -0.2651
23508SOL    HW172903   2.074  10.332   2.865  0.4945  0.2693 -0.9738
23508SOL    HW272904   2.181  10.253   2.938  0.5322  0.5457 -0.7261
23509SOL     OW72905   1.642   9.408  10.268  0.1207 -0.0505  0.5203
23509SOL    HW172906   1.617   9.340  10.331  1.7938 -1.5615 -0.3604
23509SOL    HW272907   1.668   9.360  10.190 -1.0111  1.7481 -1.0507
23510SOL     OW72908   0.733   0.080   5.612  0.2641 -0.0199 -0.2921
23510SOL    HW172909   0.691   0.040   5.689 -2.4352  0.5550 -1.3579
23510SOL    HW272910   0.711   0.021   5.540  2.1793 -0.1784 -0.8044
23511SOL     OW72911   6.227   1.772   2.540  0.1012 -0.5661  0.0333
23511SOL    HW172912   6.210   1.686   2.578  2.0033 -0.9144  0.2243
23511SOL    HW272913   6.197   1.764   2.449 -1.6704 -0.7147  0.6000
23512SOL     OW72914   2.245  10.307   5.304  0.0266 -0.8412 -0.7007
23512SOL    HW172915   2.152  10.286   5.298  0.0512 -0.7127 -1.7753
23512SOL    HW272916   2.251  10.398   5.274  0.2103 -0.0190  1.6580
23513SOL     OW72917   1.849   1.550   2.852 -0.1757 -0.9511 -0.0578
23513SOL    HW172918   1.817   1.471   2.897 -0.8810 -0.2758  0.6555
23513SOL    HW272919   1.770   1.591   2.817  0.0392  0.0095  0.5328
23514SOL     OW72920   6.111   2.559   1.885  0.3541  0.4340  0.0941
23514SOL    HW172921   6.205   2.558   1.905  0.4854 -0.6975 -0.4799
23514SOL    HW272922   6.102   2.500   1.810 -0.8470  0.3878  0.2569
23515SOL     OW72923   6.924   0.970   3.623 -0.0881  0.2175  0.4425
23515SOL    HW172924   6.931   1.064   3.637 -0.8332  0.3224  0.1449
23515SOL    HW272925   6.854   0.941   3.682 -2.6775  0.5270 -2.2138
23516SOL     OW72926   9.657  10.567   1.654 -0.1333 -0.1068  0.6686
23516SOL    HW172927   9.642  10.651   1.610 -0.4279 -0.2643  0.4720
23516SOL    HW272928   9.587  10.510   1.623  0.4195 -0.6120  0.3270
23517SOL     OW72929   2.260   9.478   5.336 -0.0769  0.4052  0.1152
23517SOL    HW172930   2.195   9.485   5.266  0.5040 -0.2528 -0.4936
23517SOL    HW272931   2.334   9.434   5.296 -0.0810 -0.8142  1.3918
23518SOL     OW72932   8.639   0.467   5.499 -0.1602 -0.3882 -0.4003
23518SOL    HW172933   8.549   0.465   5.532  0.3574 -1.2922  1.0518
23518SOL    HW272934   8.630   0.492   5.407 -1.8615 -0.0935 -0.1938
23519SOL     OW72935   5.827   7.078   9.145 -0.3743 -0.0598  0.6316
23519SOL    HW172936   5.777   7.070   9.064 -0.4282 -1.1487  0.7602
23519SOL    HW272937   5.778   7.140   9.198 -0.0857  1.0462 -0.3430
23520SOL     OW72938   6.643   1.671   9.953  0.3331 -0.7328  0.1087
23520SOL    HW172939   6.613   1.597   9.900 -0.3054  0.4613 -1.2513
23520SOL    HW272940   6.564   1.722   9.972  1.0085  0.7024 -0.7480
23521SOL     OW72941   8.796   2.500   8.185 -0.2811  0.6957  0.0233
23521SOL    HW172942   8.856   2.452   8.242 -0.0149 -0.3516 -1.0835
23521SOL    HW272943   8.802   2.591   8.215 -2.3430 -0.1574  3.5206
23522SOL     OW72944   1.128   3.994   4.510  0.0180 -0.0752 -0.7009
23522SOL    HW172945   1.202   4.013   4.452 -0.1721 -2.1254 -1.6899
23522SOL    HW272946   1.145   3.906   4.544 -1.0475  0.1646  0.5630
23523SOL     OW72947   5.449   4.584   8.740  0.0259  0.2272 -0.5330
23523SOL    HW172948   5.533   4.628   8.754  1.1909 -2.0647  0.2530
23523SOL    HW272949   5.464   4.526   8.665  0.0185 -2.0660  1.1335
23524SOL     OW72950   5.361   5.685   2.942 -0.4630 -0.4492 -0.5007
23524SOL    HW172951   5.287   5.677   3.002  1.3678 -2.5222  1.7271
23524SOL    HW272952   5.368   5.598   2.901  2.2094 -1.2936  1.4184
23525SOL     OW72953   3.242   7.905   7.362 -0.2890  0.3059  0.1178
23525SOL    HW172954   3.170   7.853   7.327  0.1981  0.9707 -2.0252
23525SOL    HW272955   3.239   7.987   7.311  0.7667  1.1538  1.3602
23526SOL     OW72956   9.847   5.279   1.600 -0.4989 -0.7537 -0.0593
23526SOL    HW172957   9.874   5.334   1.526  0.1366 -0.1564  0.5887
23526SOL    HW272958   9.815   5.199   1.560 -0.0085 -0.5123 -0.9818
23527SOL     OW72959   5.087  10.667   0.395 -0.1357  0.4817  0.0787
23527SOL    HW172960   5.116  10.576   0.394 -2.8948 -0.4897 -0.1949
23527SOL    HW272961   5.106  10.699   0.307 -0.4525 -0.3077 -0.2891
23528SOL     OW72962   4.798  10.519   7.739 -0.0916 -0.2548 -0.0706
23528SOL    HW172963   4.891  10.524   7.760 -0.0606 -1.6360  0.2273
23528SOL    HW272964   4.756  10.574   7.805  0.5049  0.3262 -0.1654
23529SOL     OW72965   5.166   5.479   1.603  0.3507 -0.4001 -0.0530
23529SOL    HW172966   5.089   5.430   1.574 -1.0285 -0.1327  2.7910
23529SOL    HW272967   5.235   5.414   1.609 -0.4026 -1.2192 -0.0750
23530SOL     OW72968   8.688   3.583  10.603 -0.3855  0.6278 -0.7491
23530SOL    HW172969   8.683   3.489  10.620 -2.7371  0.0607 -3.6291
23530SOL    HW272970   8.772   3.595  10.557 -0.7199 -0.3481 -1.6367
23531SOL     OW72971   6.213   5.165   7.779  0.0114 -0.3575  0.1995
23531SOL    HW172972   6.253   5.087   7.817 -0.5397 -0.9325 -0.3622
23531SOL    HW272973   6.129   5.134   7.743 -0.2702  0.5143  0.0697
23532SOL     OW72974   9.235   9.440   2.669  0.0172 -0.2456  0.9668
23532SOL    HW172975   9.173   9.396   2.727  0.4659 -0.6013  1.1843
23532SOL    HW272976   9.316   9.444   2.720  0.4181 -0.5733  0.3588
23533SOL     OW72977   4.960   8.647   3.836 -0.1764  0.0791  0.4535
23533SOL    HW172978   4.981   8.591   3.761  0.1811  0.6366  0.1315
23533SOL    HW272979   4.971   8.590   3.912 -1.2133 -0.6917  0.0536
23534SOL     OW72980  10.293   2.130  10.076 -0.2337 -0.2770 -0.1641
23534SOL    HW172981  10.263   2.101  10.162 -0.6835  0.0330 -0.2120
23534SOL    HW272982  10.274   2.057  10.017 -2.4415  0.4826 -0.5099
23535SOL     OW72983   6.973   9.268   2.426  0.0633 -0.2199 -0.4786
23535SOL    HW172984   7.059   9.229   2.408  0.5860  0.5066  0.3570
23535SOL    HW272985   6.959   9.330   2.354  0.8003  0.5349  0.0075
23536SOL     OW72986   3.332   3.063   7.768 -0.2535 -0.1431 -0.6104
23536SOL    HW172987   3.416   3.101   7.793 -0.7305  2.0944 -2.1312
23536SOL    HW272988   3.299   3.022   7.848  0.5790  2.1989  1.0121
23537SOL     OW72989   7.394   3.426   2.014 -0.0853 -0.0860 -0.2146
23537SOL    HW172990   7.328   3.398   2.077 -1.2418 -2.1841 -2.1929
23537SOL    HW272991   7.365   3.389   1.930  1.9569  1.5899 -1.7947
23538SOL     OW72992   7.226   8.254   8.211 -0.3702 -0.0344  0.0662
23538SOL    HW172993   7.300   8.194   8.214  0.2181  0.6696 -0.0955
23538SOL    HW272994   7.155   8.207   8.255 -0.9114 -2.1691 -2.7832
23539SOL     OW72995   8.198   4.366   4.143  0.1890 -0.0705  0.4380
23539SOL    HW172996   8.285   4.400   4.163  1.4914 -3.9783  2.5855
23539SOL    HW272997   8.206   4.331   4.054  0.2759  0.9700  0.0266
23540SOL     OW72998   0.236   1.057   2.632  0.1086  0.3184  0.2419
23540SOL    HW172999   0.178   1.015   2.695 -0.9256 -0.8078 -1.3609
23540SOL    HW273000   0.287   0.986   2.594  2.6753  1.2988  1.6438
23541SOL     OW73001   2.680   8.327   0.030 -0.2654 -0.2509  0.8763
23541SOL    HW173002   2.699   8.253   0.087  1.7715 -0.6010 -0.1384
23541SOL    HW273003   2.608   8.297  -0.026  0.3145 -1.3633  0.7013
23542SOL     OW73004   1.615  10.210   4.132 -0.0635 -0.1459 -0.3256
23542SOL    HW173005   1.686  10.239   4.189 -0.3388 -0.5231  0.2219
23542SOL    HW273006   1.612  10.115   4.144 -1.5184 -0.0062  0.7034
23543SOL     OW73007   1.619   1.714   0.248  0.2075  0.3718  0.1046
23543SOL    HW173008   1.550   1.648   0.253 -0.2546  0.9687  2.7291
23543SOL    HW273009   1.700   1.666   0.263  0.1620  0.0282 -0.6911
23544SOL     OW73010   2.887   2.735   3.384  0.0750  0.4868  0.1538
23544SOL    HW173011   2.881   2.756   3.291  3.9269 -2.5095 -1.0394
23544SOL    HW273012   2.967   2.780   3.413  0.5303 -0.9369  1.2053
23545SOL     OW73013   8.254   9.382   5.272  0.1973  0.3370 -0.0801
23545SOL    HW173014   8.277   9.417   5.358  0.3442 -0.8022  0.3684
23545SOL    HW273015   8.338   9.357   5.233  0.0611  0.0273 -0.1789
23546SOL     OW73016   7.454   9.942   2.842 -0.4441 -0.2145 -0.0228
23546SOL    HW173017   7.432  10.028   2.878  0.3347 -0.1407  0.2905
23546SOL    HW273018   7.530   9.914   2.893  1.2435  0.2771 -2.1506
23547SOL     OW73019   8.784   5.118   0.598  0.1707 -0.1838  0.1559
23547SOL    HW173020   8.717   5.116   0.667 -1.0407 -0.1145 -0.9832
23547SOL    HW273021   8.775   5.034   0.553 -0.5591  0.6093 -1.2659
23548SOL     OW73022  10.637   4.406   5.358  0.0781 -0.0513 -0.1042
23548SOL    HW173023  10.619   4.451   5.275 -0.1386  0.1391  0.0445
23548SOL    HW273024  10.602   4.318   5.346 -2.3088  0.7028  0.6748
23549SOL     OW73025   8.612  10.604   5.027 -0.4165  0.0996  0.2110
23549SOL    HW173026   8.649  10.585   5.113 -1.0170 -1.3957  0.1734
23549SOL    HW273027   8.662  10.549   4.967 -0.9097  0.1012 -0.2067
23550SOL     OW73028   7.313   0.493  10.667 -0.2838 -0.4215 -0.1080
23550SOL    HW173029   7.303   0.465  10.758 -1.6993  1.4120  0.3686
23550SOL    HW273030   7.315   0.412  10.617  0.6973 -1.4813  1.5606
23551SOL     OW73031  10.050   1.994   6.460  0.2715  0.2172  0.0706
23551SOL    HW173032  10.088   1.909   6.440 -0.3308 -0.1111  0.3181
23551SOL    HW273033  10.126   2.051   6.475  0.6756 -0.2496 -0.1718
23552SOL     OW73034   3.502   2.450   0.962 -0.2229 -0.0710 -0.2170
23552SOL    HW173035   3.494   2.391   0.886 -0.2338 -0.1746 -0.1358
23552SOL    HW273036   3.543   2.396   1.029 -0.7629 -0.1635  0.0467
23553SOL     OW73037   7.052   5.873   7.994  0.3328 -0.3561 -0.0287
23553SOL    HW173038   7.109   5.796   7.987  0.7759 -0.2185  1.7133
23553SOL    HW273039   6.993   5.853   8.066 -0.8525  0.1380 -0.8384
23554SOL     OW73040   2.343  10.181   1.934 -0.4505 -1.0039  0.1991
23554SOL    HW173041   2.282  10.230   1.878  0.3978  1.0749  1.0020
23554SOL    HW273042   2.287  10.127   1.989 -1.5367  0.0782  0.2022
23555SOL     OW73043   1.228  10.078   1.997 -0.1033  0.0565  0.1040
23555SOL    HW173044   1.303  10.087   2.057 -0.8066  1.9784  0.7574
23555SOL    HW273045   1.159  10.039   2.051 -0.5998  1.3868  0.4638
23556SOL     OW73046   0.017   2.462   5.704 -0.2631  0.5806 -0.7651
23556SOL    HW173047  -0.002   2.479   5.612  0.3222  2.2265 -0.6226
23556SOL    HW273048  -0.061   2.494   5.750  0.2270  1.5492 -0.5853
23557SOL     OW73049  10.125   1.988   3.166  0.2063  0.0641  0.3466
23557SOL    HW173050  10.123   1.897   3.135  1.7149  0.0734  0.1411
23557SOL    HW273051  10.109   2.041   3.088 -2.3925 -0.0092  0.7460
23558SOL     OW73052   0.379   4.992   1.949  0.1684  0.5531  0.0064
23558SOL    HW173053   0.332   5.075   1.957 -0.0259  0.6227 -1.5402
23558SOL    HW273054   0.469   5.012   1.977 -0.6349  0.4102  3.0188
23559SOL     OW73055   9.306   9.850   4.833  0.1366 -0.0985 -0.5071
23559SOL    HW173056   9.337   9.759   4.832  0.8452  0.0450  1.9380
23559SOL    HW273057   9.235   9.852   4.768  0.5731 -2.2064 -1.1185
23560SOL     OW73058   4.152   2.216   3.168  0.6965  0.2801 -0.6282
23560SOL    HW173059   4.057   2.219   3.174  0.7536  0.0780  0.8440
23560SOL    HW273060   4.171   2.135   3.122  0.1651 -0.5642  0.5770
23561SOL     OW73061   9.287   2.600   2.167  0.8935 -0.3457 -0.6345
23561SOL    HW173062   9.236   2.538   2.219  0.7507  0.6383  0.4590
23561SOL    HW273063   9.370   2.556   2.151 -0.5747 -2.3909 -3.3165
23562SOL     OW73064   9.947   4.647   5.491  0.4187 -0.1433  0.1941
23562SOL    HW173065   9.907   4.561   5.504  1.0484 -0.3890  0.5501
23562SOL    HW273066   9.897   4.706   5.547  0.2353 -0.3517  0.2512
23563SOL     OW73067   4.497   8.616   2.331  0.4689 -0.5040 -0.3132
23563SOL    HW173068   4.429   8.563   2.373 -0.2652 -0.1407 -1.0224
23563SOL    HW273069   4.577   8.592   2.377 -0.3836  0.3440  1.7140
23564SOL     OW73070   1.290   3.670   3.653 -0.6764 -0.2562  0.4879
23564SOL    HW173071   1.328   3.586   3.680  0.6680 -0.2598 -1.2044
23564SOL    HW273072   1.231   3.694   3.724  1.2909 -1.0668  2.5161
23565SOL     OW73073   1.637   1.130   2.078 -0.1882  0.7640  0.0790
23565SOL    HW173074   1.666   1.045   2.110  1.1074  1.4649  0.8148
23565SOL    HW273075   1.599   1.111   1.992 -0.1212 -0.5750  0.3216
23566SOL     OW73076   8.445   4.732   1.095 -0.1482  0.3603 -0.4736
23566SOL    HW173077   8.352   4.732   1.117 -0.0324  2.7552  0.3396
23566SOL    HW273078   8.478   4.815   1.131  2.0022  0.2268 -1.9632
23567SOL     OW73079   7.665   0.803   6.541 -0.1659 -0.4193  0.3592
23567SOL    HW173080   7.728   0.817   6.613  0.9542 -1.5013 -0.3653
23567SOL    HW273081   7.649   0.709   6.542  0.2212 -0.5166 -1.0934
23568SOL     OW73082   6.845   5.866   9.939 -0.1754  0.7617 -0.0119
23568SOL    HW173083   6.865   5.916  10.018  1.7801 -1.6565  1.1710
23568SOL    HW273084   6.930   5.834   9.909 -1.3397 -2.8659  0.0999
23569SOL     OW73085   0.545   9.182   6.858 -0.1451  0.0827 -0.3573
23569SOL    HW173086   0.535   9.277   6.862  0.6280  0.1601 -0.2562
23569SOL    HW273087   0.632   9.168   6.822  1.2272 -0.5573  2.8300
23570SOL     OW73088   5.742   2.804   5.160  0.4476 -0.4493 -0.0952
23570SOL    HW173089   5.666   2.752   5.186  0.2839  0.0312  0.3912
23570SOL    HW273090   5.799   2.741   5.116  0.8270 -1.3527  1.5803
23571SOL     OW73091   7.068   2.396   5.196 -0.0023 -0.4504 -0.3638
23571SOL    HW173092   7.137   2.390   5.262  0.7894  2.2365 -0.8353
23571SOL    HW273093   7.085   2.321   5.138  2.2356 -0.1861 -0.1553
23572SOL     OW73094   8.372   1.513   3.961 -0.3201 -0.7921 -0.7624
23572SOL    HW173095   8.324   1.435   3.992 -0.5276 -0.4807 -0.2902
23572SOL    HW273096   8.444   1.522   4.023 -1.4603  0.5818  0.4515
23573SOL     OW73097   0.592   3.855   1.390  0.1820 -0.0800  0.2133
23573SOL    HW173098   0.663   3.851   1.454 -0.2185 -1.2147  0.6121
23573SOL    HW273099   0.535   3.781   1.412 -1.6270  1.3268  0.4860
23574SOL     OW73100   9.234   8.301   2.346  0.0857  0.3577 -0.4840
23574SOL    HW173101   9.226   8.375   2.406 -0.4122 -0.1621  0.1010
23574SOL    HW273102   9.302   8.328   2.284  1.2117  0.5843  0.7907
23575SOL     OW73103   1.959   9.601   6.787  0.2545  0.1418 -0.2878
23575SOL    HW173104   1.868   9.583   6.764  0.0435 -2.3333  1.9428
23575SOL    HW273105   1.956   9.682   6.838 -1.0500 -0.9080  1.3942
23576SOL     OW73106   7.066   4.674   9.162  0.3522 -0.2050  0.1926
23576SOL    HW173107   7.103   4.605   9.217  0.8587 -0.9852 -1.1005
23576SOL    HW273108   6.972   4.655   9.161  0.4270 -0.5860  0.2357
23577SOL     OW73109   0.936   1.441   3.360 -0.4008 -0.4096 -0.6332
23577SOL    HW173110   0.913   1.510   3.422 -2.0370 -0.8997 -0.6414
23577SOL    HW273111   1.016   1.472   3.318 -0.4586  0.9298  0.1936
23578SOL     OW73112   5.414   5.945   6.225  0.3549  0.2207 -0.3303
23578SOL    HW173113   5.388   5.853   6.214 -0.3831  0.2964  0.6694
23578SOL    HW273114   5.381   5.988   6.146 -0.1740 -0.1915 -0.3403
23579SOL     OW73115   1.064   0.216   2.743  0.3171 -0.6183 -0.0776
23579SOL    HW173116   1.110   0.179   2.819 -0.2505 -1.7715 -0.2737
23579SOL    HW273117   0.978   0.173   2.744  0.4865 -1.0484 -1.6583
23580SOL     OW73118   7.163   8.968  10.287  0.2332  0.5191 -0.1456
23580SOL    HW173119   7.244   9.010  10.317  0.4767  0.6330 -0.9495
23580SOL    HW273120   7.158   8.987  10.194 -0.0383 -0.6017 -0.3809
23581SOL     OW73121   7.547   7.126   5.985 -0.1679  0.3496  0.5736
23581SOL    HW173122   7.451   7.125   5.984 -0.1762 -0.8595  1.2051
23581SOL    HW273123   7.573   7.076   5.908 -0.0284  1.1481  0.0928
23582SOL     OW73124   3.306   2.229  10.616 -0.5606  0.8651 -0.7253
23582SOL    HW173125   3.331   2.162  10.552  0.9128  0.9688 -0.2804
23582SOL    HW273126   3.235   2.277  10.573 -1.2935 -0.6170 -1.2778
23583SOL     OW73127   9.370   0.527   9.534  0.0457  0.0908 -0.3190
23583SOL    HW173128   9.375   0.454   9.595  0.3750 -0.8206 -1.4058
23583SOL    HW273129   9.424   0.501   9.460 -0.7729  0.9296 -1.2509
23584SOL     OW73130   0.750   0.472   0.080 -0.2936 -0.4391 -0.0177
23584SOL    HW173131   0.748   0.560   0.118  0.0072 -0.0504 -0.8756
23584SOL    HW273132   0.705   0.417   0.144 -0.9447  0.4297  0.2875
23585SOL     OW73133   1.936   0.812   5.011  0.7177 -0.2516  0.0880
23585SOL    HW173134   1.952   0.812   4.916 -1.6694 -0.3388 -0.3553
23585SOL    HW273135   2.004   0.755   5.046 -0.8638 -3.7957 -2.0950
23586SOL     OW73136   1.587   3.369   1.802 -1.1225 -0.0195 -0.0697
23586SOL    HW173137   1.518   3.393   1.864 -1.7271 -1.2194 -0.2716
23586SOL    HW273138   1.639   3.303   1.848  1.8160  2.9350  1.3198
23587SOL     OW73139   3.508  10.486   7.607  0.2292  0.3812 -0.0239
23587SOL    HW173140   3.417  10.462   7.624  0.1869  1.5076  1.6150
23587SOL    HW273141   3.505  10.539   7.528 -0.2761 -1.0467 -1.0023
23588SOL     OW73142   2.692   2.702   4.519 -0.0838  0.1062 -0.2148
23588SOL    HW173143   2.758   2.759   4.479  1.9704 -1.6450  0.4772
23588SOL    HW273144   2.658   2.650   4.445 -0.7291  1.0009 -0.5698
23589SOL     OW73145   4.919  10.473   0.102 -0.3885  0.5818  0.0441
23589SOL    HW173146   4.936  10.566   0.088 -2.4929  0.8585 -1.0641
23589SOL    HW273147   4.828  10.470   0.134 -0.7621 -1.1494 -1.0402
23590SOL     OW73148   5.774   2.143   5.170  0.2506  0.1246  0.0273
23590SOL    HW173149   5.835   2.145   5.244  0.3169  0.9590 -0.0397
23590SOL    HW273150   5.691   2.173   5.206  0.1320 -0.0613 -0.0944
23591SOL     OW73151   4.344   7.980   9.879 -0.3750  0.0992  0.4173
23591SOL    HW173152   4.417   7.918   9.878  0.4195  1.0158  0.8421
23591SOL    HW273153   4.337   8.010   9.789  0.0749  0.3531  0.4638
23592SOL     OW73154   4.435  10.116  10.796  0.2729 -0.2726  0.2851
23592SOL    HW173155   4.508  10.178  10.802  0.6095 -0.7526  1.3852
23592SOL    HW273156   4.459  10.056  10.726  0.6128 -0.0170  0.1810
23593SOL     OW73157   4.344   7.149  10.381  0.0419  0.5553  0.3859
23593SOL    HW173158   4.420   7.171  10.328  0.1636 -0.5281  0.0860
23593SOL    HW273159   4.281   7.114  10.318 -1.2122  2.5499  0.4285
23594SOL     OW73160   5.595   3.283   1.883  0.0850  0.1805  0.1747
23594SOL    HW173161   5.548   3.205   1.912 -0.9060  1.1418  1.2594
23594SOL    HW273162   5.534   3.329   1.826  0.1189  0.8476  0.6505
23595SOL     OW73163   2.983   8.819   9.769  0.1869 -0.3058  0.9215
23595SOL    HW173164   2.957   8.869   9.692 -0.0624  1.0260  1.8490
23595SOL    HW273165   3.047   8.874   9.813  0.6342 -1.2396  1.4602
23596SOL     OW73166   2.630   0.507   0.558 -0.3630 -0.1058 -0.2949
23596SOL    HW173167   2.614   0.600   0.542  0.7373 -0.2121 -2.2116
23596SOL    HW273168   2.706   0.506   0.617 -0.6770  0.1919  0.1283
23597SOL     OW73169   3.007   2.460   0.239 -0.3182 -0.2313 -0.4678
23597SOL    HW173170   3.099   2.484   0.248 -0.5448  0.0064  1.5927
23597SOL    HW273171   2.982   2.493   0.153  1.3003  0.4513 -0.7062
23598SOL     OW73172   8.570   0.904   8.816 -0.2684 -0.4436  0.2013
23598SOL    HW173173   8.548   0.813   8.831  1.9170 -1.3527 -1.5464
23598SOL    HW273174   8.584   0.940   8.904 -0.9257 -1.8376  0.9033
23599SOL     OW73175   7.487   2.771   2.784  0.3333 -0.2475 -0.3205
23599SOL    HW173176   7.429   2.726   2.723 -0.6134  0.5280 -0.0105
23599SOL    HW273177   7.539   2.830   2.730 -1.0079  0.9744 -0.3386
23600SOL     OW73178   5.544   4.382   3.704  0.1621  0.1875  0.1377
23600SOL    HW173179   5.526   4.451   3.640 -1.6160  2.5812  2.9712
23600SOL    HW273180   5.501   4.305   3.668 -2.3466  1.8739 -0.7858
23601SOL     OW73181   1.229   2.566   6.165  0.5464 -0.1408 -0.1284
23601SOL    HW173182   1.183   2.522   6.093  0.1526  2.2403 -1.4359
23601SOL    HW273183   1.216   2.508   6.241  0.6921 -2.5774 -1.8416
23602SOL     OW73184   7.340   9.079   0.485 -0.4367  0.4266 -0.2393
23602SOL    HW173185   7.359   9.030   0.565 -3.3442 -0.7676 -0.1732
23602SOL    HW273186   7.372   9.168   0.504  0.0852 -0.1287  1.7235
23603SOL     OW73187   5.530   6.166   5.414 -0.1991 -0.3689  0.0814
23603SOL    HW173188   5.524   6.261   5.422 -0.1501 -0.3783  0.2330
23603SOL    HW273189   5.460   6.142   5.353  1.2877  0.0325 -1.9095
23604SOL     OW73190   1.019   8.289   3.218 -0.4680 -0.3845  0.7153
23604SOL    HW173191   1.098   8.276   3.167 -0.4493  0.3904  0.5462
23604SOL    HW273192   0.948   8.284   3.154 -0.4525  0.4584  0.6227
23605SOL     OW73193   9.881   9.090   9.604  0.0139 -0.3783 -0.4240
23605SOL    HW173194   9.928   9.027   9.551  0.3631  0.0028 -0.5698
23605SOL    HW273195   9.926   9.173   9.589 -0.8624  0.0460 -0.7762
23606SOL     OW73196   8.822   0.002   8.061 -0.1330  0.3340 -0.2048
23606SOL    HW173197   8.775   0.033   7.984  0.3050 -1.4002 -1.2346
23606SOL    HW273198   8.754  -0.022   8.123 -0.5080  1.1494 -0.2920
23607SOL     OW73199   0.951   5.813   4.053 -0.1470  0.0425  0.2747
23607SOL    HW173200   1.042   5.810   4.082  0.6211  3.1424 -1.3589
23607SOL    HW273201   0.950   5.764   3.971  0.3084  0.8008 -0.1933
23608SOL     OW73202   5.225   5.103   5.648  0.1156  0.0940 -0.0801
23608SOL    HW173203   5.149   5.052   5.620 -0.5768  0.1867  1.5226
23608SOL    HW273204   5.212   5.116   5.742  1.6076  0.9913  0.0363
23609SOL     OW73205  10.158   0.019  10.067 -0.0046 -0.4784 -0.6477
23609SOL    HW173206  10.229   0.039  10.128 -0.3685  1.1119 -0.6953
23609SOL    HW273207  10.095   0.090  10.079 -1.1899 -1.3836 -1.2321
23610SOL     OW73208   8.434   6.747   0.990 -0.2023 -0.0021  0.7785
23610SOL    HW173209   8.391   6.707   0.915 -0.5030 -1.9602  1.9438
23610SOL    HW273210   8.527   6.729   0.976 -0.1516  0.5200  0.3964
23611SOL     OW73211   9.306   5.941   5.539 -0.1182 -0.6334 -0.4816
23611SOL    HW173212   9.303   6.017   5.481 -1.4703  0.5302  1.0151
23611SOL    HW273213   9.396   5.939   5.571 -0.3751  1.1914  0.4784
23612SOL     OW73214   3.591   8.544   0.075  0.2346 -0.0243  0.0979
23612SOL    HW173215   3.598   8.537   0.171 -3.2091  0.6255  0.5263
23612SOL    HW273216   3.612   8.456   0.044 -1.5915 -1.1303  1.7620
23613SOL     OW73217   1.979   6.203   4.339  0.2507 -0.6774 -0.2626
23613SOL    HW173218   1.977   6.108   4.350 -1.9413 -0.4804  1.9041
23613SOL    HW273219   1.913   6.236   4.400 -0.3099  2.1480 -2.1768
23614SOL     OW73220   2.754   4.748   6.800  0.3911 -0.2218 -0.0187
23614SOL    HW173221   2.692   4.821   6.807  0.6683 -0.0108  0.3117
23614SOL    HW273222   2.799   4.747   6.884  1.9550  0.6599 -0.7793
23615SOL     OW73223   8.110   3.177   4.556 -0.5139  0.0980  0.9294
23615SOL    HW173224   8.190   3.221   4.586  0.2225  0.0556 -0.8219
23615SOL    HW273225   8.097   3.209   4.467 -0.5853 -2.3242 -0.0272
23616SOL     OW73226   1.539   0.518   0.917 -0.6515  0.3824  0.1635
23616SOL    HW173227   1.563   0.604   0.952  0.7675  1.0122 -2.1194
23616SOL    HW273228   1.452   0.531   0.881 -0.9205  0.5250  0.8484
23617SOL     OW73229   4.510   8.802   4.933 -0.0336  0.4326  0.1618
23617SOL    HW173230   4.511   8.888   4.889 -0.2951  0.0976 -0.5124
23617SOL    HW273231   4.557   8.745   4.872 -1.4041 -0.3041 -0.2272
23618SOL     OW73232   3.655   2.709   3.678  0.0924  0.6312  0.4538
23618SOL    HW173233   3.562   2.730   3.682  0.0169  0.2209  1.0351
23618SOL    HW273234   3.695   2.785   3.636 -0.6745  0.2496 -1.0381
23619SOL     OW73235   5.469   6.625   1.539  0.1688  0.1354  0.6774
23619SOL    HW173236   5.497   6.667   1.621  1.7505 -1.6854  1.1416
23619SOL    HW273237   5.457   6.533   1.562 -2.7169  0.1290 -0.4252
23620SOL     OW73238   5.839   1.971   4.716 -0.1292  0.1921  0.3093
23620SOL    HW173239   5.876   2.019   4.791 -1.7902 -0.4509  1.5976
23620SOL    HW273240   5.840   2.035   4.644  1.2872  0.9024  0.9230
23621SOL     OW73241   1.024   5.729   2.205  0.3836  0.0796  0.4432
23621SOL    HW173242   1.049   5.817   2.175 -0.4414  0.4412  0.8065
23621SOL    HW273243   1.011   5.680   2.124  0.0042  0.5385  0.2180
23622SOL     OW73244   0.538   1.173   3.108  0.0046  0.4091 -0.1957
23622SOL    HW173245   0.564   1.082   3.124 -1.1474  0.2879  1.1233
23622SOL    HW273246   0.602   1.225   3.156  0.5337  0.2961 -0.7684
23623SOL     OW73247   4.268   5.982   8.361  0.7716 -0.4139  0.1539
23623SOL    HW173248   4.224   6.009   8.441  1.4630  0.7824  0.1514
23623SOL    HW273249   4.201   5.935   8.311 -0.8061  2.1630 -0.2885
23624SOL     OW73250   0.259   0.088   2.804  0.4342  0.1829  0.3695
23624SOL    HW173251   0.169   0.108   2.830  0.1545 -0.0057 -0.4218
23624SOL    HW273252   0.277   0.149   2.733  0.1162 -1.2649 -1.0163
23625SOL     OW73253   8.845   4.003   3.288 -0.2614 -0.0942 -0.0194
23625SOL    HW173254   8.893   4.080   3.257  1.1967 -1.5879 -1.6565
23625SOL    HW273255   8.901   3.964   3.354  0.3973 -1.3080 -1.2457
23626SOL     OW73256   6.062   0.165   3.286 -0.6413  0.2041  0.7177
23626SOL    HW173257   6.035   0.083   3.327 -0.0928  0.2801  1.2401
23626SOL    HW273258   6.123   0.204   3.348 -1.2397  1.2340  0.6937
23627SOL     OW73259   3.488   3.789   8.313 -0.1260  0.2932 -0.0104
23627SOL    HW173260   3.496   3.855   8.244 -2.6332 -2.2510 -3.0236
23627SOL    HW273261   3.393   3.775   8.322  0.2740 -3.2411  0.0247
23628SOL     OW73262   1.259   8.006   0.985 -0.1733 -0.0936 -0.0678
23628SOL    HW173263   1.337   8.006   1.040  0.1123 -2.9122 -0.3070
23628SOL    HW273264   1.218   8.091   1.001  2.2671  0.9715  1.0014
23629SOL     OW73265   3.850   6.905   1.024  0.5594  0.2754  0.7170
23629SOL    HW173266   3.926   6.866   0.980  0.8887  1.1664  0.4493
23629SOL    HW273267   3.804   6.953   0.954 -0.6105 -0.7646  0.7536
23630SOL     OW73268   6.923   8.605   3.262 -0.2580  0.2742  0.1077
23630SOL    HW173269   6.876   8.571   3.186 -1.0463  1.1635  0.1835
23630SOL    HW273270   6.976   8.677   3.227 -1.1922  1.1845  0.4888
23631SOL     OW73271   6.680   5.157   7.625 -0.0927  0.9489  0.1142
23631SOL    HW173272   6.749   5.120   7.680 -1.4258 -0.8310  0.6573
23631SOL    HW273273   6.628   5.082   7.597 -0.7908  2.0606 -1.7532
23632SOL     OW73274   3.402   6.248   9.130  0.0828  0.2840 -0.0471
23632SOL    HW173275   3.364   6.302   9.061  0.7222  0.0994 -0.5526
23632SOL    HW273276   3.383   6.158   9.103  1.4549  0.1606 -0.6648
23633SOL     OW73277   2.267   0.564   9.959  0.3271 -0.6072 -0.1933
23633SOL    HW173278   2.209   0.499   9.999 -1.0090  0.2386 -0.6940
23633SOL    HW273279   2.301   0.614  10.034 -1.8344  0.6999  0.0202
23634SOL     OW73280   2.888   3.963   9.075 -0.3509  0.4707 -0.1759
23634SOL    HW173281   2.833   3.969   8.997 -0.5846 -1.0496 -0.1456
23634SOL    HW273282   2.916   3.872   9.079  0.9542  0.8658  0.6561
23635SOL     OW73283   4.190   7.815   0.454 -0.1418 -0.2046 -0.1489
23635SOL    HW173284   4.197   7.722   0.476 -0.0568 -0.3227 -0.6595
23635SOL    HW273285   4.115   7.846   0.504  0.2869 -0.3669  0.6135
23636SOL     OW73286  10.069   7.188   2.169  0.6872  0.0533 -0.1003
23636SOL    HW173287   9.989   7.216   2.125 -0.1441 -2.1185 -0.1142
23636SOL    HW273288  10.128   7.162   2.098 -0.6923 -3.5502 -0.1430
23637SOL     OW73289   0.695   6.260   9.852 -0.0336 -0.0786 -0.8120
23637SOL    HW173290   0.655   6.227   9.771 -0.2814  0.1885 -0.8008
23637SOL    HW273291   0.700   6.184   9.909 -0.8848 -0.0435 -0.6746
23638SOL     OW73292   8.113   4.287   7.236  0.0796 -0.0564  0.3112
23638SOL    HW173293   8.127   4.339   7.315 -0.0125  2.6584 -1.3276
23638SOL    HW273294   8.177   4.216   7.242  0.5490  0.4808  2.4548
23639SOL     OW73295   5.499   3.444   7.717  1.1254  0.1122 -1.0342
23639SOL    HW173296   5.581   3.490   7.700  0.9978  1.2139  0.9928
23639SOL    HW273297   5.490   3.445   7.812 -1.1771 -0.0934 -1.1937
23640SOL     OW73298   3.508   8.314   9.288  0.5453 -0.2813  0.2085
23640SOL    HW173299   3.519   8.390   9.345  1.5488  0.3264 -0.7442
23640SOL    HW273300   3.581   8.319   9.227  0.1019 -1.5026 -0.4701
23641SOL     OW73301   0.793   3.048   1.026 -0.1651 -0.4859  0.0932
23641SOL    HW173302   0.729   3.039   0.956 -0.1457  1.1106 -0.1660
23641SOL    HW273303   0.860   2.983   1.005 -0.1262  0.0008 -1.4253
23642SOL     OW73304   6.813   1.365   0.956  0.2387  0.1907 -0.0970
23642SOL    HW173305   6.806   1.455   0.923  1.8294  0.3034 -0.1732
23642SOL    HW273306   6.888   1.367   1.016 -0.1037 -0.9509  0.3899
23643SOL     OW73307   5.852   0.922   0.417  0.4456  0.6097 -0.3686
23643SOL    HW173308   5.770   0.968   0.399  1.0501  1.3954 -1.2324
23643SOL    HW273309   5.834   0.871   0.496  0.1224  3.3983  1.5331
23644SOL     OW73310   3.147   9.042   0.598 -0.1483 -0.2054 -0.5287
23644SOL    HW173311   3.092   9.039   0.520  0.5369 -1.2825 -0.9981
23644SOL    HW273312   3.172   9.134   0.606 -1.5745  0.2041 -0.6042
23645SOL     OW73313  10.609  10.701  10.383 -0.4922  0.2206  0.0643
23645SOL    HW173314  10.594  10.622  10.332  0.7392  1.4298 -2.3189
23645SOL    HW273315  10.523  10.744  10.388 -0.8185 -0.4059 -0.1241
23646SOL     OW73316   0.954   8.205   8.492  0.2934  0.1553 -0.2797
23646SOL    HW173317   1.039   8.222   8.534  0.5703 -1.1872 -0.2428
23646SOL    HW273318   0.892   8.201   8.564  0.2840  0.6251 -0.2589
23647SOL     OW73319   9.805   7.309   5.406  0.3454  0.0022 -0.0766
23647SOL    HW173320   9.737   7.261   5.358 -0.0403 -0.1810  0.6276
23647SOL    HW273321   9.861   7.346   5.338  0.2837 -0.9205 -0.6463
23648SOL     OW73322   8.430   7.824   1.585  0.2165  0.1614 -0.7834
23648SOL    HW173323   8.376   7.753   1.548  0.8407  0.3109 -2.0402
23648SOL    HW273324   8.494   7.779   1.640 -1.1686 -0.0157  0.7367
23649SOL     OW73325   8.514   6.506  10.008 -0.2417  0.0658 -0.2191
23649SOL    HW173326   8.562   6.542   9.933  0.3419 -0.7472 -0.2473
23649SOL    HW273327   8.424   6.537   9.996 -0.0636  0.3060 -1.0232
23650SOL     OW73328   0.960  10.070   6.327  0.1474 -0.3429 -0.4195
23650SOL    HW173329   1.050  10.064   6.358  0.0132 -0.0330  0.0333
23650SOL    HW273330   0.956  10.009   6.254  0.3610 -1.4093  0.4352
23651SOL     OW73331   8.229   6.735   9.222 -0.7642 -0.0030  0.0386
23651SOL    HW173332   8.198   6.687   9.299 -2.2762  0.6198 -0.1408
23651SOL    HW273333   8.210   6.827   9.242  2.5325  0.6714  0.5942
23652SOL     OW73334  10.069   7.779   7.759 -0.0597  0.0961 -0.5034
23652SOL    HW173335  10.115   7.701   7.726  0.2755  0.5139 -1.0621
23652SOL    HW273336  10.057   7.763   7.852 -1.8941 -1.5551 -0.9771
23653SOL     OW73337   4.029   4.853   9.586  0.1031 -0.3244  0.0798
23653SOL    HW173338   4.049   4.782   9.646  0.2063 -1.0002 -0.7490
23653SOL    HW273339   3.993   4.922   9.643  0.9625 -0.6249  1.0243
23654SOL     OW73340   2.933   4.487   2.113  0.4431  0.0156  0.4447
23654SOL    HW173341   2.967   4.446   2.033  2.2403  1.3594  0.4506
23654SOL    HW273342   2.999   4.467   2.179 -1.1706 -1.3298  1.7216
23655SOL     OW73343   2.877   0.683   9.395  0.4459 -0.5950 -0.4632
23655SOL    HW173344   2.858   0.590   9.383 -1.1512 -0.3682  0.1086
23655SOL    HW273345   2.843   0.704   9.482 -3.2261  1.4436 -2.1402
23656SOL     OW73346   1.658   7.239   8.212 -0.2849  0.2648 -0.1514
23656SOL    HW173347   1.667   7.234   8.308  0.8887  1.0699 -0.2099
23656SOL    HW273348   1.565   7.259   8.199 -0.9659 -1.9879  0.7179
23657SOL     OW73349  10.793   0.708   6.632 -0.1490  0.8193  0.7131
23657SOL    HW173350  10.738   0.642   6.676 -0.4326  0.9336  0.5350
23657SOL    HW273351  10.813   0.771   6.701  0.8132  0.1182  1.0848
23658SOL     OW73352   2.802   4.689   3.351  0.2525  0.1321  0.0678
23658SOL    HW173353   2.798   4.631   3.275 -0.9755  0.0034  0.2110
23658SOL    HW273354   2.886   4.670   3.391  0.2218 -0.9654 -0.3562
23659SOL     OW73355   5.961   2.638   3.051 -0.5093  0.1106  0.0036
23659SOL    HW173356   5.902   2.564   3.047  0.0139 -0.3997  1.2432
23659SOL    HW273357   6.027   2.620   2.985 -1.0945  0.1273 -0.5972
23660SOL     OW73358   4.100   4.401   3.523 -0.1458 -0.2331  0.5384
23660SOL    HW173359   4.147   4.340   3.466  0.9188  0.2833  0.8438
23660SOL    HW273360   4.009   4.371   3.520 -0.2714  0.1703 -1.9781
23661SOL     OW73361   7.750   3.654   2.549  0.1227  0.1952  0.4398
23661SOL    HW173362   7.712   3.575   2.586  1.3544 -0.3056  0.6818
23661SOL    HW273363   7.828   3.624   2.502  0.7892  1.2884  0.8041
23662SOL     OW73364   4.394   0.253   4.092  0.2202 -0.2273  0.3674
23662SOL    HW173365   4.320   0.237   4.033 -0.0491 -0.9679  0.8988
23662SOL    HW273366   4.449   0.316   4.045 -0.3466 -0.2752 -0.3711
23663SOL     OW73367   1.059   7.967   9.356 -0.2312  0.1640  0.1889
23663SOL    HW173368   1.024   7.916   9.430  0.9368  1.7955  1.9755
23663SOL    HW273369   1.003   8.045   9.352 -1.7411 -0.9318 -2.2456
23664SOL     OW73370   2.795   0.383   9.630 -0.7667 -0.5493  0.4803
23664SOL    HW173371   2.824   0.378   9.539  0.4538  0.9307  0.7534
23664SOL    HW273372   2.703   0.357   9.627 -0.1221 -3.0074 -0.7781
23665SOL     OW73373   6.965   8.099   2.982 -0.0630  0.1766  1.1644
23665SOL    HW173374   7.055   8.088   3.012 -0.0816 -1.6333  0.6443
23665SOL    HW273375   6.951   8.028   2.919 -0.7999  2.3876 -1.3402
23666SOL     OW73376   0.274   5.210   8.485 -0.2071  0.4871 -0.1353
23666SOL    HW173377   0.252   5.204   8.393 -1.5505  1.7892  0.0619
23666SOL    HW273378   0.353   5.157   8.495  0.8526  1.5409 -2.3157
23667SOL     OW73379   8.368   4.796   8.119 -0.4479  0.3932 -0.2276
23667SOL    HW173380   8.384   4.887   8.145  1.8932 -0.0113 -0.0817
23667SOL    HW273381   8.374   4.797   8.024 -0.5778  0.4167 -0.2352
23668SOL     OW73382   4.221   5.852   9.439  0.1559  0.1721  0.3348
23668SOL    HW173383   4.250   5.781   9.496  1.1647 -0.9390 -1.4627
23668SOL    HW273384   4.206   5.810   9.354 -0.4085  1.9031 -0.4608
23669SOL     OW73385   4.803   2.617   5.985  0.6304  0.0478  0.3188
23669SOL    HW173386   4.715   2.630   5.951  1.2964 -0.6278 -1.7892
23669SOL    HW273387   4.791   2.605   6.079 -1.4206  0.7909  0.1961
23670SOL     OW73388   9.215  10.492   7.579  0.2077  0.0877 -0.5709
23670SOL    HW173389   9.173  10.440   7.648  0.0243  0.8367 -0.1151
23670SOL    HW273390   9.308  10.471   7.589  0.0939 -0.5008 -0.6835
23671SOL     OW73391   6.253   5.875   5.369 -0.0123  0.6400 -0.0136
23671SOL    HW173392   6.221   5.788   5.392  1.2118  0.1570 -0.0279
23671SOL    HW273393   6.195   5.936   5.414  0.0025 -0.2142  1.2035
23672SOL     OW73394   1.005   0.498   7.168  0.1565 -0.3338 -0.2886
23672SOL    HW173395   0.946   0.424   7.178  0.2483 -0.4090 -0.3001
23672SOL    HW273396   1.039   0.514   7.256 -0.7630  0.4495 -0.0609
23673SOL     OW73397   4.789   7.837   3.912 -0.4840  0.1581 -0.2222
23673SOL    HW173398   4.745   7.918   3.936  0.0024 -0.0684  1.5867
23673SOL    HW273399   4.718   7.774   3.899 -0.8527  0.7957 -1.4234
23674SOL     OW73400   3.512   6.170   8.226  0.1208  0.2778  0.2002
23674SOL    HW173401   3.515   6.242   8.164  0.1476  0.4324  0.3786
23674SOL    HW273402   3.421   6.139   8.223  0.1927  0.0977 -0.1248
23675SOL     OW73403   6.310   5.465   5.075 -0.1424 -0.1537 -0.1087
23675SOL    HW173404   6.332   5.396   5.138 -1.0876  0.7376  1.2589
23675SOL    HW273405   6.224   5.496   5.104 -0.2120  0.8612 -1.3537
23676SOL     OW73406   0.890   7.623   8.680 -0.4439 -0.2090  0.0592
23676SOL    HW173407   0.975   7.629   8.724  0.1373 -0.1646 -1.0330
23676SOL    HW273408   0.847   7.707   8.699 -0.9676 -0.8635  1.9994
23677SOL     OW73409   3.479  10.621   1.730  0.0523  0.1625 -0.0766
23677SOL    HW173410   3.416  10.693   1.736  0.7052  0.7954 -0.6408
23677SOL    HW273411   3.451  10.571   1.654 -1.0581 -0.8492  0.9510
23678SOL     OW73412   7.930   3.294  10.441  0.1506 -0.6895  0.2917
23678SOL    HW173413   7.928   3.202  10.469  1.0686 -1.7403 -2.7113
23678SOL    HW273414   8.020   3.322  10.456  0.3330 -0.8697 -0.4520
23679SOL     OW73415   1.879   3.591   8.959 -0.2537 -0.3966  0.2766
23679SOL    HW173416   1.975   3.593   8.960 -0.2438 -0.7333  0.2455
23679SOL    HW273417   1.857   3.516   8.904 -0.5369 -0.2589  0.2024
23680SOL     OW73418   6.507   8.975  10.628 -0.2821  0.0069  0.1399
23680SOL    HW173419   6.534   8.886  10.607  0.1627  0.2415 -0.3277
23680SOL    HW273420   6.415   8.968  10.653 -0.2256 -0.5893  0.1816
23681SOL     OW73421   3.999   5.260   5.871  0.3141  0.4465  0.1461
23681SOL    HW173422   4.090   5.252   5.842  0.4140  0.4667  0.4511
23681SOL    HW273423   3.949   5.265   5.789  0.4667 -0.8041 -0.0530
23682SOL     OW73424   7.719   2.821   4.489  0.1083  0.0512 -0.1115
23682SOL    HW173425   7.746   2.904   4.528 -2.9741  0.6760  0.9581
23682SOL    HW273426   7.725   2.758   4.561  0.3135 -0.1848 -0.3303
23683SOL     OW73427  10.442   0.660   4.775 -0.0769  0.2584  0.5117
23683SOL    HW173428  10.446   0.753   4.796 -2.5195  0.1717  1.7536
23683SOL    HW273429  10.467   0.654   4.683 -0.1492  2.1761  0.3420
23684SOL     OW73430   9.630   4.265   0.970 -0.1222  0.2682 -0.4361
23684SOL    HW173431   9.611   4.335   1.032 -1.9552 -0.0728 -0.5453
23684SOL    HW273432   9.659   4.310   0.891 -0.6645  0.8888 -0.2970
23685SOL     OW73433   7.876   2.305   6.978 -0.1674 -0.8924 -0.3394
23685SOL    HW173434   7.791   2.320   6.937 -0.5068 -0.3880  0.5416
23685SOL    HW273435   7.931   2.271   6.907 -1.2011 -1.5741 -0.8221
23686SOL     OW73436   7.230   1.717   2.444 -0.5328 -0.3572  0.1443
23686SOL    HW173437   7.164   1.695   2.510 -0.8181  0.8338  0.2711
23686SOL    HW273438   7.179   1.734   2.365 -0.5143  1.7102  0.5289
23687SOL     OW73439   3.377   5.482   7.859  0.3191 -0.6605 -0.0422
23687SOL    HW173440   3.450   5.511   7.804 -0.2551  2.4904  0.6114
23687SOL    HW273441   3.398   5.517   7.946 -2.3837  1.3690 -0.0838
23688SOL     OW73442   2.733   6.626   0.201 -0.0413  0.0534 -0.0952
23688SOL    HW173443   2.803   6.588   0.252  0.8548  0.4599 -0.9851
23688SOL    HW273444   2.666   6.651   0.265  0.5770 -0.4309  0.7458
23689SOL     OW73445   5.952   9.778   1.454  0.0318  0.0248 -0.6256
23689SOL    HW173446   5.942   9.851   1.515  0.7774  0.5837 -1.1598
23689SOL    HW273447   5.878   9.720   1.474 -0.5535  0.9045 -0.1839
23690SOL     OW73448   9.317   1.864   1.718 -0.2170 -0.0942 -0.1177
23690SOL    HW173449   9.261   1.940   1.703 -0.0145 -0.2071 -1.6122
23690SOL    HW273450   9.264   1.805   1.772 -1.5511 -0.1911 -1.4763
23691SOL     OW73451   1.836   5.224   8.545 -0.3300  0.0728  0.0959
23691SOL    HW173452   1.773   5.294   8.559  0.1789  0.1383  2.4592
23691SOL    HW273453   1.917   5.269   8.521 -0.0593  0.3298  1.4052
23692SOL     OW73454   2.718   1.882   3.572 -0.5434 -0.7794 -0.0319
23692SOL    HW173455   2.665   1.933   3.633 -0.0417  0.0246 -0.2562
23692SOL    HW273456   2.791   1.939   3.549 -0.5816 -1.1589 -1.1867
23693SOL     OW73457   6.046   9.925   6.103 -1.1431  0.1731  0.4191
23693SOL    HW173458   6.072   9.856   6.164 -0.9096  1.0547  1.3318
23693SOL    HW273459   6.025  10.000   6.158  1.0326  1.6543 -0.6409
23694SOL     OW73460   1.620   1.894   0.444 -0.0586  0.1616 -0.2516
23694SOL    HW173461   1.623   1.810   0.398 -1.0681  0.1928 -0.3846
23694SOL    HW273462   1.538   1.934   0.415 -1.7569 -0.6388  2.9957
23695SOL     OW73463   5.988   4.661   4.526 -0.2162 -0.0600  0.3561
23695SOL    HW173464   5.921   4.672   4.458 -0.8159 -1.4865  0.6816
23695SOL    HW273465   6.057   4.724   4.502 -0.0635 -1.0201 -2.0029
23696SOL     OW73466   2.465   3.801  10.666 -0.5120  0.1070 -0.0066
23696SOL    HW173467   2.408   3.797  10.590  0.0260 -1.4239 -0.3546
23696SOL    HW273468   2.438   3.881  10.712 -1.0284  0.9030 -1.6306
23697SOL     OW73469   7.900   3.890   6.540  0.6062 -0.0776  0.0087
23697SOL    HW173470   7.832   3.953   6.564 -0.4625 -0.0355 -2.8106
23697SOL    HW273471   7.971   3.907   6.603 -0.3264  2.7412  0.4703
23698SOL     OW73472   6.055   2.020   2.661  0.3804 -0.4995 -0.3112
23698SOL    HW173473   6.037   2.000   2.754 -0.8724 -0.8569 -0.6036
23698SOL    HW273474   5.985   1.974   2.614  0.8498 -0.0914 -1.4185
23699SOL     OW73475   7.564   7.835   2.685 -0.1384  0.2517  0.1698
23699SOL    HW173476   7.626   7.802   2.620 -0.5085 -0.4438  0.1596
23699SOL    HW273477   7.486   7.858   2.635 -0.8230 -1.2880  0.4581
23700SOL     OW73478   2.623   3.263   0.395  0.0508 -0.4130  0.3500
23700SOL    HW173479   2.567   3.305   0.329  0.2474  0.8133  0.9417
23700SOL    HW273480   2.671   3.196   0.346 -1.7380 -1.3522 -0.2317
23701SOL     OW73481   1.921   1.847   3.413  0.2498  0.0132 -0.2151
23701SOL    HW173482   2.002   1.808   3.445  0.5792  0.7806 -0.0766
23701SOL    HW273483   1.862   1.847   3.488  0.8947  1.4762  0.3380
23702SOL     OW73484   2.789   2.823   4.770  0.2745 -0.0594  0.3456
23702SOL    HW173485   2.768   2.752   4.709  1.8220 -0.2574 -0.0007
23702SOL    HW273486   2.822   2.893   4.715  2.0057 -0.3596  0.9482
23703SOL     OW73487   8.545   8.488   7.942  0.2168  0.4692  0.0020
23703SOL    HW173488   8.552   8.582   7.960 -0.3080  0.3538  0.8275
23703SOL    HW273489   8.492   8.453   8.013  0.0951 -0.3995 -0.4992
23704SOL     OW73490   4.567   4.817  10.514 -0.4978 -0.1774 -0.0546
23704SOL    HW173491   4.503   4.749  10.494  0.8029 -2.0007  1.5077
23704SOL    HW273492   4.533   4.860  10.592 -0.8372  0.3174 -0.4689
23705SOL     OW73493   8.603   0.295   1.004 -0.3657 -0.0185 -0.2830
23705SOL    HW173494   8.626   0.281   1.096 -1.4286  1.5982  0.2825
23705SOL    HW273495   8.635   0.217   0.959  2.2056  0.1439  1.0782
23706SOL     OW73496   9.676   2.544   4.475  0.1546 -0.2860  0.1842
23706SOL    HW173497   9.645   2.583   4.393 -0.1854 -3.3192 -1.2722
23706SOL    HW273498   9.599   2.500   4.511  0.6127 -0.0323  1.5284
23707SOL     OW73499   2.757   4.545   0.877  0.3001  0.2302 -0.2181
23707SOL    HW173500   2.778   4.554   0.971  1.6439  0.0528 -0.4754
23707SOL    HW273501   2.842   4.529   0.836 -0.4749 -1.3435 -1.2860
23708SOL     OW73502   8.784   3.891   8.080 -0.2939  0.3228  0.3092
23708SOL    HW173503   8.779   3.795   8.084  0.6988  0.2142 -0.6420
23708SOL    HW273504   8.751   3.913   7.993 -0.1820  0.8198  0.3943
23709SOL     OW73505   9.557   2.363   6.162  0.4196  0.0137  0.1003
23709SOL    HW173506   9.499   2.303   6.115 -0.7704  0.1076  1.3661
23709SOL    HW273507   9.642   2.321   6.159  0.0292 -0.7624 -0.7230
23710SOL     OW73508   5.047   8.632   9.481 -0.0601  0.1271 -0.0766
23710SOL    HW173509   5.102   8.681   9.543 -0.1605 -1.2551  1.1399
23710SOL    HW273510   5.110   8.595   9.418  0.2742 -0.2849  0.4902
23711SOL     OW73511   3.706   4.072   7.163 -0.0552 -0.2676  0.2344
23711SOL    HW173512   3.632   4.131   7.171  0.4315  0.1738  2.1712
23711SOL    HW273513   3.783   4.127   7.180  0.7423 -0.7152 -1.6981
23712SOL     OW73514   2.961   1.548   2.303 -0.3613  0.1886  0.1959
23712SOL    HW173515   2.900   1.582   2.238  1.3457 -0.7505 -2.0257
23712SOL    HW273516   3.042   1.599   2.289  0.0755 -0.1122  1.5159
23713SOL     OW73517   4.386   2.270   4.213  0.0561  0.1092  0.4414
23713SOL    HW173518   4.417   2.194   4.263 -0.7687  0.0811  0.9223
23713SOL    HW273519   4.458   2.290   4.154  0.3558 -0.9367  0.4319
23714SOL     OW73520   3.688   3.477   6.851  0.0424 -0.0227  0.4345
23714SOL    HW173521   3.606   3.518   6.876 -1.1168 -1.5993 -0.6060
23714SOL    HW273522   3.673   3.383   6.865  0.3833 -0.7120 -3.0039
23715SOL     OW73523   5.818   6.374   5.464 -0.3855 -0.2549  0.2267
23715SOL    HW173524   5.813   6.322   5.384  1.5081 -0.5897  0.2758
23715SOL    HW273525   5.756   6.446   5.450 -1.3201 -1.2213 -0.8169
23716SOL     OW73526   5.203   2.234   1.199  0.0531  0.1932 -0.2323
23716SOL    HW173527   5.191   2.290   1.275 -2.7929 -2.0051  1.1443
23716SOL    HW273528   5.278   2.179   1.220  0.5746  0.9917  0.0252
23717SOL     OW73529   7.953   9.313   3.300 -0.1632 -0.7484 -0.5788
23717SOL    HW173530   8.039   9.305   3.259  0.3359  1.2651 -0.0693
23717SOL    HW273531   7.891   9.298   3.229  0.6597  1.7157 -1.9321
23718SOL     OW73532  10.060  10.338  10.181  0.2648 -0.8607  0.1658
23718SOL    HW173533  10.121  10.408  10.155 -0.5445  0.3504  1.3950
23718SOL    HW273534   9.974  10.381  10.184 -0.0126 -1.4442  2.5449
23719SOL     OW73535   1.591  10.174   9.657 -0.1523  0.7450  0.0760
23719SOL    HW173536   1.533  10.148   9.585 -1.4915  0.9995  1.0275
23719SOL    HW273537   1.564  10.264   9.678  0.8795  1.0248  0.2770
23720SOL     OW73538   4.876   8.139   5.855  0.4190  0.3932 -0.4372
23720SOL    HW173539   4.956   8.141   5.908 -0.0825  1.7360  0.3205
23720SOL    HW273540   4.877   8.222   5.807 -0.2211  0.1502 -0.8842
23721SOL     OW73541   6.216   1.942   6.271  0.0987  0.1692  0.9645
23721SOL    HW173542   6.196   2.031   6.300  0.5361  0.2646  0.9855
23721SOL    HW273543   6.278   1.910   6.337  0.2025 -0.0266  0.7702
23722SOL     OW73544   6.362   6.542   8.458  0.2948 -0.7150 -0.1610
23722SOL    HW173545   6.441   6.583   8.493  0.9338 -0.9482 -1.2768
23722SOL    HW273546   6.369   6.555   8.363 -1.8345  0.7676 -0.2016
23723SOL     OW73547  10.079  10.251   3.039  0.1143 -0.5127 -0.0384
23723SOL    HW173548  10.138  10.326   3.039  0.1170 -0.5116  0.2664
23723SOL    HW273549  10.104  10.201   3.117 -1.0915  0.1418  0.7978
23724SOL     OW73550   1.837   7.652  10.499 -0.0350  0.0829  0.2677
23724SOL    HW173551   1.776   7.627  10.430 -0.4167 -0.3875  0.7678
23724SOL    HW273552   1.796   7.725  10.544 -0.0911 -0.0319  0.4057
23725SOL     OW73553   5.637   3.053   8.981  0.2575 -0.0102 -0.0611
23725SOL    HW173554   5.623   2.984   9.045 -1.6484 -0.6189 -1.0871
23725SOL    HW273555   5.549   3.082   8.956  0.9379  0.2547 -2.3485
23726SOL     OW73556  10.236  10.536   4.473  0.5321 -0.1136  0.0524
23726SOL    HW173557  10.154  10.489   4.463 -0.9459  2.1702  0.7369
23726SOL    HW273558  10.272  10.502   4.555 -1.1837  0.8396  1.2564
23727SOL     OW73559   5.004   8.154   5.384  0.5825 -0.4022 -0.2900
23727SOL    HW173560   5.074   8.105   5.427  1.8898  0.2952 -1.5376
23727SOL    HW273561   4.928   8.141   5.440  1.8494 -0.6835  1.4637
23728SOL     OW73562   2.385   9.893  10.773  0.4885  0.0354 -0.1937
23728SOL    HW173563   2.303   9.851  10.746  0.1620  0.9756 -0.7152
23728SOL    HW273564   2.360   9.983  10.792  1.1089 -0.0821  1.2835
23729SOL     OW73565   1.681   2.627   4.777  0.3064 -0.1476 -0.0917
23729SOL    HW173566   1.676   2.557   4.712  2.0686  2.0144 -2.7880
23729SOL    HW273567   1.590   2.648   4.798 -0.2727 -1.8627 -0.7266
23730SOL     OW73568   7.135   2.407   8.545 -1.0887  0.2071  0.2169
23730SOL    HW173569   7.181   2.415   8.462 -3.2893  0.7044 -1.0336
23730SOL    HW273570   7.152   2.490   8.590 -0.6923  0.3427 -0.1831
23731SOL     OW73571   0.275   2.428   1.893  0.0471  0.0861 -0.2802
23731SOL    HW173572   0.328   2.363   1.847  0.4356 -1.4328  2.0911
23731SOL    HW273573   0.334   2.501   1.909  0.4913 -0.2301 -0.4587
23732SOL     OW73574   1.282   5.712   0.380 -0.0963 -0.0154  0.6597
23732SOL    HW173575   1.205   5.741   0.428  0.1005  0.6469  0.5797
23732SOL    HW273576   1.307   5.787   0.326 -1.0903 -1.1239 -1.4897
23733SOL     OW73577   0.332   9.561   9.709  0.1774 -0.1921 -0.9043
23733SOL    HW173578   0.282   9.479   9.714  0.4581 -0.3625 -0.8793
23733SOL    HW273579   0.382   9.563   9.791 -1.0716  0.8145 -0.1156
23734SOL     OW73580   7.223   1.268   8.064 -0.0573  0.1975 -0.5642
23734SOL    HW173581   7.180   1.204   8.008 -2.1223 -0.7209  1.8751
23734SOL    HW273582   7.310   1.231   8.080 -0.4464 -0.9079 -0.9078
23735SOL     OW73583   3.406   2.599   3.479  0.8249  0.6090  0.1223
23735SOL    HW173584   3.498   2.585   3.459  1.3660  3.4979  0.0689
23735SOL    HW273585   3.360   2.574   3.399  1.6301 -0.2191 -0.0915
23736SOL     OW73586   1.087  10.792   3.598  0.1592  0.1874  0.2970
23736SOL    HW173587   1.108  10.796   3.691 -2.0095  1.5443  0.7915
23736SOL    HW273588   1.148  10.853   3.557 -1.0865  2.2522  1.3539
23737SOL     OW73589   0.157   2.683   8.516 -0.3289 -0.0098  0.0585
23737SOL    HW173590   0.144   2.776   8.498 -1.2474 -0.5418 -2.5449
23737SOL    HW273591   0.250   2.668   8.497  0.0019  0.4788  1.2135
23738SOL     OW73592   1.719   0.549  10.732 -0.5003 -0.1852  0.3958
23738SOL    HW173593   1.805   0.511  10.747 -0.5437 -0.0215  1.1120
23738SOL    HW273594   1.708   0.613  10.803 -0.4651  1.1094 -0.7256
23739SOL     OW73595   9.828   0.103   4.504 -0.5400  0.3770 -0.1991
23739SOL    HW173596   9.810   0.054   4.424  0.3532 -0.3191 -0.0012
23739SOL    HW273597   9.796   0.047   4.575 -2.2723  1.4405 -0.0784
23740SOL     OW73598   7.934   0.206   0.551 -0.2823  0.2821 -0.2994
23740SOL    HW173599   7.949   0.195   0.457  2.0075 -0.0482  0.0619
23740SOL    HW273600   7.982   0.135   0.592 -1.0575  0.5583  1.1599
23741SOL     OW73601   9.539   1.695   6.093  0.4400 -0.3212  0.0775
23741SOL    HW173602   9.525   1.633   6.022 -1.9934 -0.4210  0.5604
23741SOL    HW273603   9.484   1.770   6.070  0.3611  0.0338  1.3751
23742SOL     OW73604   6.580   6.287   7.978  0.6608  0.5265 -0.0305
23742SOL    HW173605   6.630   6.260   8.056 -0.3611 -0.6070  0.2652
23742SOL    HW273606   6.493   6.309   8.012 -0.0901 -0.8900 -0.9457
23743SOL     OW73607   9.149   1.236   8.885 -0.4801  0.3305  0.2203
23743SOL    HW173608   9.153   1.197   8.798 -1.5473 -0.0058  0.3061
23743SOL    HW273609   9.187   1.323   8.875 -0.5404  0.2670 -0.5631
23744SOL     OW73610   2.404   4.597   6.986  0.2881 -0.0374  0.2211
23744SOL    HW173611   2.400   4.693   6.984 -1.7232 -0.0729  0.0612
23744SOL    HW273612   2.454   4.574   6.907 -0.4641  0.8739 -0.5563
23745SOL     OW73613   5.524   1.162   7.293 -0.2462 -0.2309  0.0646
23745SOL    HW173614   5.576   1.166   7.213 -0.0322  0.8305  0.2409
23745SOL    HW273615   5.589   1.170   7.363 -0.3105 -2.2377  0.3931
23746SOL     OW73616   1.816   2.013   7.985 -0.2036 -0.0005  0.2620
23746SOL    HW173617   1.735   2.055   7.955 -1.3417 -1.4812  1.1179
23746SOL    HW273618   1.855   1.978   7.905 -0.4372  0.6579 -0.1531
23747SOL     OW73619  10.425   0.995   3.467  0.2023 -0.0024  0.7766
23747SOL    HW173620  10.409   0.901   3.475 -0.6137  0.0996  0.3867
23747SOL    HW273621  10.515   1.001   3.433  0.4595 -0.6215  1.3280
23748SOL     OW73622   3.633   0.337   7.618  0.4112  0.8135  0.1989
23748SOL    HW173623   3.688   0.308   7.546  0.8317  0.1511  0.7733
23748SOL    HW273624   3.556   0.375   7.576  0.1343 -0.5727 -0.6018
23749SOL     OW73625   0.212   6.865  10.197 -0.0834  0.0347  0.5101
23749SOL    HW173626   0.193   6.826  10.283  0.6966 -0.3230  0.5271
23749SOL    HW273627   0.256   6.795  10.148  0.3509  0.5454  0.1631
23750SOL     OW73628  10.256   8.584   7.238 -0.3446  0.0046  1.0908
23750SOL    HW173629  10.184   8.648   7.236 -3.7459 -3.4702  1.4017
23750SOL    HW273630  10.275   8.572   7.331 -1.5952 -1.2323  1.2205
23751SOL     OW73631   9.492  10.188   7.907  0.0098 -0.0925 -0.4231
23751SOL    HW173632   9.562  10.145   7.858  1.0392  0.8231  0.1959
23751SOL    HW273633   9.430  10.118   7.927  1.0990 -1.0730 -0.3719
23752SOL     OW73634   3.054   7.429   9.907  0.0655  0.0348 -0.1662
23752SOL    HW173635   3.025   7.354   9.854 -2.0111  0.7022 -0.0560
23752SOL    HW273636   2.991   7.433   9.980  0.6784  1.3529  0.3265
23753SOL     OW73637   9.546   7.139   7.839  0.1742  0.5356 -0.6074
23753SOL    HW173638   9.582   7.179   7.760 -0.4870  0.8691 -0.7420
23753SOL    HW273639   9.618   7.141   7.902  0.4840  0.9198 -0.9712
23754SOL     OW73640   0.509   1.908   5.835  0.0277 -0.1041  0.8199
23754SOL    HW173641   0.428   1.935   5.878 -0.8247  0.9518 -1.2714
23754SOL    HW273642   0.481   1.884   5.746  2.1459  1.5656 -0.3907
23755SOL     OW73643   7.469   9.855   7.263 -0.2896  0.3669 -0.3797
23755SOL    HW173644   7.424   9.793   7.319 -1.6164  1.0559 -0.6301
23755SOL    HW273645   7.400   9.915   7.234  0.7180  1.1867 -1.1610
23756SOL     OW73646   6.322   9.888   8.354  0.2998  0.2034  0.1723
23756SOL    HW173647   6.265   9.812   8.366  1.0616 -0.9338 -2.4884
23756SOL    HW273648   6.276   9.961   8.396 -1.4471 -1.3238  1.0173
23757SOL     OW73649   6.478   7.216   0.646  0.3719 -0.1930 -0.2432
23757SOL    HW173650   6.532   7.289   0.680  0.3939 -0.5108  0.4287
23757SOL    HW273651   6.451   7.245   0.559 -0.6871  1.1913  0.4979
23758SOL     OW73652   2.256   4.575   5.436 -0.6606 -0.3589  0.2213
23758SOL    HW173653   2.327   4.553   5.496  0.7304  2.8692 -0.0329
23758SOL    HW273654   2.292   4.557   5.349  0.7612  3.0341 -0.0357
23759SOL     OW73655   2.130   9.057   6.560  0.3060 -0.1548  0.3513
23759SOL    HW173656   2.210   9.026   6.603  0.5197  1.6343  1.3304
23759SOL    HW273657   2.069   8.983   6.568  1.2436 -0.8562  1.3035
23760SOL     OW73658   6.145   4.654   6.776  0.1129  0.4520 -0.0224
23760SOL    HW173659   6.107   4.663   6.863  1.3034  0.5708  0.5118
23760SOL    HW273660   6.160   4.560   6.767 -1.7154  0.1951 -0.8896
23761SOL     OW73661   7.135   3.596   6.939  0.3210  0.0068 -0.0257
23761SOL    HW173662   7.100   3.668   6.886  0.2175  0.1213  0.1958
23761SOL    HW273663   7.082   3.597   7.019  0.3304 -0.3047 -0.0140
23762SOL     OW73664   4.692  10.595   4.636  0.9074  0.0170  0.0089
23762SOL    HW173665   4.759  10.537   4.599  0.7442  0.7838 -1.5812
23762SOL    HW273666   4.741  10.672   4.665  0.8216  0.2419 -0.4298
23763SOL     OW73667   5.890   4.412   5.655 -0.1558 -0.2479 -0.0317
23763SOL    HW173668   5.907   4.506   5.660  0.3603 -0.3886  2.3620
23763SOL    HW273669   5.971   4.375   5.618 -0.0140  0.1714 -0.1496
23764SOL     OW73670   0.815   0.358   9.968  0.1009  1.0719 -0.2207
23764SOL    HW173671   0.908   0.366   9.950 -0.0365 -0.1169 -1.5437
23764SOL    HW273672   0.811   0.323  10.057  1.0415 -1.9794 -1.2539
23765SOL     OW73673   7.576   3.978   4.157  0.3739 -0.2291 -0.2157
23765SOL    HW173674   7.519   3.917   4.110  0.5600 -0.2841 -0.3730
23765SOL    HW273675   7.539   3.984   4.245 -1.7470  2.0967 -1.1279
23766SOL     OW73676   8.415   6.271   5.261  0.3656  0.2820  0.2060
23766SOL    HW173677   8.370   6.199   5.218 -0.3356  0.7029  0.2241
23766SOL    HW273678   8.482   6.299   5.198  0.0472  0.1974 -0.1731
23767SOL     OW73679  10.101   9.461   3.277  0.0511 -0.5817 -0.4636
23767SOL    HW173680  10.194   9.442   3.290  0.1818  0.0836 -0.4079
23767SOL    HW273681  10.056   9.380   3.302  0.6277 -0.9956 -0.7341
23768SOL     OW73682   4.121   3.577   8.261  0.5403  0.4504 -1.0085
23768SOL    HW173683   4.072   3.641   8.313  0.8344 -0.3270  0.2853
23768SOL    HW273684   4.206   3.572   8.304  0.5310 -0.7722 -1.1005
23769SOL     OW73685   4.467   1.243   7.340  0.4698 -0.5548 -0.0706
23769SOL    HW173686   4.396   1.244   7.405 -0.6119 -3.0395 -1.0597
23769SOL    HW273687   4.535   1.189   7.380 -0.1917 -2.0768 -0.8887
23770SOL     OW73688   3.865   3.549  10.707 -0.1082 -0.1554  0.1425
23770SOL    HW173689   3.791   3.497  10.739  0.7926  0.2421  3.2249
23770SOL    HW273690   3.829   3.637  10.696 -0.7541 -0.5792 -1.4274
23771SOL     OW73691   4.734   2.644   7.404  0.2787 -0.8536 -0.0795
23771SOL    HW173692   4.770   2.571   7.354 -0.0426 -1.0485 -0.0295
23771SOL    HW273693   4.639   2.633   7.398  0.1018  1.0636 -2.3174
23772SOL     OW73694   6.010  10.188   2.310 -0.9233 -0.1592  0.2452
23772SOL    HW173695   5.962  10.224   2.235 -1.2546 -0.4548  0.3139
23772SOL    HW273696   6.067  10.260   2.338  2.4772 -1.2976 -2.9470
23773SOL     OW73697   1.319   2.657   1.724  0.2272 -0.0674  0.0031
23773SOL    HW173698   1.414   2.666   1.719  0.2264 -0.4549 -1.0631
23773SOL    HW273699   1.290   2.656   1.633 -0.8332  0.3195  0.3138
23774SOL     OW73700   5.509   4.127   6.618 -0.7118  0.1823  0.6765
23774SOL    HW173701   5.439   4.104   6.557 -0.2052 -0.5260  0.3404
23774SOL    HW273702   5.534   4.043   6.657 -0.3676  0.4945  1.1350
23775SOL     OW73703   2.828   5.123   5.412 -0.4941  0.2292 -0.2488
23775SOL    HW173704   2.917   5.090   5.402 -0.1596  1.2060 -0.6771
23775SOL    HW273705   2.825   5.158   5.501  0.3187  2.3124 -0.9868
23776SOL     OW73706   0.691   0.367   1.239 -0.1604  0.4658  0.4010
23776SOL    HW173707   0.703   0.306   1.166  0.6057 -0.9734  1.6655
23776SOL    HW273708   0.702   0.454   1.200 -0.8521 -0.1931 -1.3762
23777SOL     OW73709   1.944   4.757   8.904 -0.1995  0.1716 -0.6671
23777SOL    HW173710   2.032   4.725   8.882 -0.6123 -2.6251  1.1274
23777SOL    HW273711   1.959   4.820   8.975  0.4006 -1.6882  0.9803
23778SOL     OW73712   1.337   7.261   8.849 -0.2288  0.3959  0.2202
23778SOL    HW173713   1.307   7.251   8.939  0.1237 -0.9267  0.2071
23778SOL    HW273714   1.395   7.337   8.851 -1.0781  1.0441  0.8785
23779SOL     OW73715   3.986   2.904   0.510  0.0936 -0.1415 -0.1921
23779SOL    HW173716   3.948   2.862   0.433  0.7715  0.8769 -1.1162
23779SOL    HW273717   4.030   2.834   0.558  0.8637 -0.5693 -1.4893
23780SOL     OW73718   3.550   6.845   8.210  0.1791  0.1002 -0.2664
23780SOL    HW173719   3.527   6.907   8.280 -1.0015  1.5099 -1.8456
23780SOL    HW273720   3.633   6.807   8.240  0.7957  2.1889  0.9566
23781SOL     OW73721  10.058   5.363  10.651 -0.1131 -0.0950  0.6819
23781SOL    HW173722  10.059   5.457  10.670 -1.1709  0.0737 -0.0161
23781SOL    HW273723  10.098   5.355  10.565 -1.9467 -0.0107 -0.2284
23782SOL     OW73724   8.622  10.320   9.093 -0.3655 -0.3007 -0.0332
23782SOL    HW173725   8.612  10.391   9.029 -0.1238  1.1874  1.5097
23782SOL    HW273726   8.691  10.351   9.152  0.5746 -2.3588  0.0414
23783SOL     OW73727   9.736   9.634   9.144 -0.3383  0.1096  0.0409
23783SOL    HW173728   9.757   9.542   9.160  0.4013  0.3269  0.3742
23783SOL    HW273729   9.641   9.640   9.158 -0.4421 -0.6623 -0.3040
23784SOL     OW73730   2.264   5.272   6.308  0.4092  0.1777 -0.1008
23784SOL    HW173731   2.322   5.200   6.333  0.1842  0.4273  1.2258
23784SOL    HW273732   2.265   5.331   6.384 -1.4238  0.2696 -0.1058
23785SOL     OW73733   0.690   9.371   5.635 -0.0955 -0.0205 -0.0537
23785SOL    HW173734   0.779   9.361   5.668  0.9282  3.5783 -1.3088
23785SOL    HW273735   0.700   9.387   5.542 -2.1679 -0.5171 -0.4055
23786SOL     OW73736   6.455   5.123   1.334  1.0731 -0.5749 -0.2991
23786SOL    HW173737   6.455   5.152   1.426 -1.4928  1.1475 -0.7444
23786SOL    HW273738   6.381   5.062   1.328 -1.3332  2.2171 -1.8758
23787SOL     OW73739   0.485   0.066   8.923 -0.0988  0.1093  0.2746
23787SOL    HW173740   0.509  -0.016   8.880  0.0782  0.1027  0.3847
23787SOL    HW273741   0.556   0.082   8.986 -0.9258 -0.5078  1.4184
23788SOL     OW73742   2.416   2.175   6.790 -0.5591 -0.6000 -0.7561
23788SOL    HW173743   2.367   2.257   6.778 -0.6253 -0.4192  0.5946
23788SOL    HW273744   2.382   2.139   6.872  1.6505 -0.4056  0.3213
23789SOL     OW73745   2.998   4.756   4.307  0.2304  0.2303 -0.4447
23789SOL    HW173746   3.011   4.675   4.256 -0.5755  1.1124 -2.1403
23789SOL    HW273747   2.966   4.726   4.392  0.2178 -1.2628 -0.9458
23790SOL     OW73748   5.668   5.460   0.171 -0.4455  0.1468 -0.0735
23790SOL    HW173749   5.714   5.491   0.249  2.1886 -1.1848 -1.0006
23790SOL    HW273750   5.693   5.521   0.102  0.1295 -0.7036 -0.6356
23791SOL     OW73751   0.623   4.864   9.883 -0.2285 -0.0658  0.2403
23791SOL    HW173752   0.576   4.918   9.820 -3.1303 -0.0398  2.2188
23791SOL    HW273753   0.594   4.774   9.864 -0.5484 -0.1397  1.0431
23792SOL     OW73754   7.196   8.816   4.579  0.2390 -0.2076  0.1962
23792SOL    HW173755   7.268   8.760   4.550 -0.0631 -0.7765  0.5111
23792SOL    HW273756   7.193   8.804   4.674  1.6357  2.1399  0.6044
23793SOL     OW73757   4.231   9.662   2.111 -0.4558 -0.5347 -0.5386
23793SOL    HW173758   4.143   9.682   2.143  0.3566  0.6044  1.1707
23793SOL    HW273759   4.280   9.639   2.190  1.2657  0.8592 -1.1336
23794SOL     OW73760   7.753   4.473   2.134  0.2803  0.1163 -0.9624
23794SOL    HW173761   7.659   4.489   2.119  0.0576 -0.3660 -0.1031
23794SOL    HW273762   7.779   4.542   2.195  0.2667 -0.3242 -0.4594
23795SOL     OW73763   8.137   7.450   1.026  0.3129  0.3320 -0.3859
23795SOL    HW173764   8.216   7.471   0.977 -0.0898  0.0432 -1.1898
23795SOL    HW273765   8.082   7.529   1.018  0.2514  0.2886 -0.3954
23796SOL     OW73766   2.074  10.125   0.304 -0.5149  0.0718 -0.2967
23796SOL    HW173767   2.050  10.036   0.276 -2.0838  0.7429 -1.1835
23796SOL    HW273768   1.991  10.167   0.324  0.2283  1.2890  0.3159
23797SOL     OW73769   6.812   8.331   5.939  0.2036 -0.3281 -0.0025
23797SOL    HW173770   6.880   8.396   5.920  0.3842 -0.8299 -1.2292
23797SOL    HW273771   6.730   8.379   5.932  0.4130  0.5086  2.4366
23798SOL     OW73772   7.967   8.447   2.626  0.7102 -0.5593 -0.4604
23798SOL    HW173773   7.898   8.430   2.690  0.8000  1.6597  0.3072
23798SOL    HW273774   7.996   8.360   2.599 -1.5542 -1.5613  0.0626
23799SOL     OW73775   8.004   2.441   1.829 -0.1506  0.2954 -0.5669
23799SOL    HW173776   8.061   2.370   1.859  0.6712  0.6434 -1.2662
23799SOL    HW273777   8.045   2.472   1.748 -1.2002  0.7276 -0.9457
23800SOL     OW73778   7.149   9.305   7.210 -0.2688  0.4853 -0.2311
23800SOL    HW173779   7.209   9.230   7.211 -0.2763  0.4706 -0.6804
23800SOL    HW273780   7.207   9.382   7.211 -0.2627  0.4767  0.3388
23801SOL     OW73781   4.182   0.855   3.336 -0.3270 -0.1220  0.8151
23801SOL    HW173782   4.178   0.950   3.343 -2.3124 -0.2603  2.5138
23801SOL    HW273783   4.123   0.823   3.405  0.8295 -2.6053  0.7674
23802SOL     OW73784   6.027   3.804   0.315  0.5448 -0.0320 -0.2271
23802SOL    HW173785   6.022   3.712   0.288  0.5397  0.1330 -0.8125
23802SOL    HW273786   6.111   3.835   0.281 -0.2363  0.6594 -1.6179
23803SOL     OW73787   0.247   2.437   4.734 -0.7662  0.3534  0.2295
23803SOL    HW173788   0.285   2.442   4.822 -1.2662 -1.3129  0.5774
23803SOL    HW273789   0.168   2.492   4.740 -1.0509 -0.1245  0.9707
23804SOL     OW73790   5.739   3.716   8.793  0.3065  0.8094  0.1306
23804SOL    HW173791   5.695   3.761   8.722 -1.7736 -0.2832  0.6609
23804SOL    HW273792   5.770   3.634   8.754  0.0038  0.6320  0.2644
23805SOL     OW73793   6.172   6.876   4.960  0.1193  0.3409  0.4685
23805SOL    HW173794   6.167   6.953   5.015  1.0744 -0.0873  1.1853
23805SOL    HW273795   6.111   6.893   4.888  0.4384  1.8256  0.5221
23806SOL     OW73796   4.830   1.152   9.942 -0.3713 -0.0719 -0.3083
23806SOL    HW173797   4.742   1.187   9.957 -0.4677 -0.0553 -0.9129
23806SOL    HW273798   4.830   1.068   9.987 -1.1587 -0.7176 -1.4590
23807SOL     OW73799   0.055   0.102   0.452  0.0447 -0.3136 -0.1892
23807SOL    HW173800   0.001   0.023   0.465 -1.7105  0.1870 -3.3592
23807SOL    HW273801  -0.000   0.174   0.482 -0.7594  0.1050 -2.4506
23808SOL     OW73802   6.028   6.019   9.920  0.3770  0.3254  0.3006
23808SOL    HW173803   6.005   6.111   9.912  0.0792  0.1489 -1.1337
23808SOL    HW273804   5.966   5.974   9.862  0.1146 -0.8496  1.4437
23809SOL     OW73805   8.960   3.677   9.050 -0.4115 -0.5802  0.1885
23809SOL    HW173806   9.002   3.614   9.109  1.0329 -0.0918 -0.2703
23809SOL    HW273807   8.898   3.625   9.000  0.9003 -1.7262 -0.3237
23810SOL     OW73808   4.052   3.108   3.632  0.3986  0.0450  0.1713
23810SOL    HW173809   4.122   3.067   3.581  0.1731  0.1724 -0.2436
23810SOL    HW273810   4.083   3.197   3.649  0.2376  0.1751 -0.2117
23811SOL     OW73811  10.157   2.531   4.512 -0.3441  0.4013 -0.1964
23811SOL    HW173812  10.239   2.488   4.536  0.1642  1.5939  0.2480
23811SOL    HW273813  10.136   2.495   4.426 -0.3222 -1.2560  0.4538
23812SOL     OW73814   0.403   8.506   4.677 -0.5132  0.1874 -0.0723
23812SOL    HW173815   0.364   8.419   4.663  0.7658 -0.6267  1.1451
23812SOL    HW273816   0.419   8.510   4.771  3.6571 -0.2058 -0.5861
23813SOL     OW73817   6.578   9.573   5.698  0.1985 -0.0053  0.4802
23813SOL    HW173818   6.528   9.535   5.626  0.1188 -0.0811  0.5750
23813SOL    HW273819   6.564   9.512   5.771 -1.9097  1.4366  1.3660
23814SOL     OW73820   4.149   7.018   4.402 -0.2425 -0.0783 -0.0142
23814SOL    HW173821   4.220   7.015   4.339 -0.0215 -0.7892  0.2611
23814SOL    HW273822   4.089   7.084   4.367 -1.1598 -1.8884 -2.0860
23815SOL     OW73823   4.492   1.137   9.051  0.6520 -0.9311  0.1152
23815SOL    HW173824   4.546   1.089   8.987  0.9399  1.1484 -1.2998
23815SOL    HW273825   4.547   1.210   9.078 -0.2425 -0.6633  1.2606
23816SOL     OW73826  10.454   5.360   6.466 -0.2574  0.5198  0.1395
23816SOL    HW173827  10.423   5.287   6.412  0.2050  0.5656 -0.1980
23816SOL    HW273828  10.479   5.319   6.549  1.3392  0.0436 -0.5250
23817SOL     OW73829   9.771   4.791   3.381 -0.0247 -0.1867  0.5487
23817SOL    HW173830   9.739   4.745   3.459  2.2074 -0.3209  1.4501
23817SOL    HW273831   9.837   4.733   3.344 -0.0628  0.5096 -0.6470
23818SOL     OW73832   4.742   1.471   8.638 -0.0699 -0.2417 -0.0360
23818SOL    HW173833   4.699   1.508   8.715 -0.4168 -1.0988  0.1908
23818SOL    HW273834   4.671   1.446   8.580  0.1680 -0.2400 -0.3297
23819SOL     OW73835   4.544   7.474   8.415  0.1353 -0.1333 -0.9590
23819SOL    HW173836   4.461   7.445   8.454  0.9375 -0.7390  0.3591
23819SOL    HW273837   4.590   7.392   8.395  1.8416  0.0977  1.5155
23820SOL     OW73838   9.789   6.169   9.841  0.5362 -0.5174 -0.0760
23820SOL    HW173839   9.765   6.177   9.933 -1.0738  0.9889 -0.5928
23820SOL    HW273840   9.849   6.242   9.826  1.2583 -1.1050 -0.1037
23821SOL     OW73841  10.660   4.200   6.877 -0.3986 -0.0731 -0.5221
23821SOL    HW173842  10.614   4.241   6.951  0.4117 -0.3932  0.1803
23821SOL    HW273843  10.639   4.107   6.885 -0.5093 -0.0760 -0.8492
23822SOL     OW73844   2.246   9.756   3.509 -0.5912 -0.2344 -0.2743
23822SOL    HW173845   2.326   9.715   3.476 -0.1015  1.0886 -0.8233
23822SOL    HW273846   2.274   9.807   3.584 -0.8835  0.3509 -0.5547
23823SOL     OW73847   3.997   0.604   0.904  0.6725  0.1998  0.1438
23823SOL    HW173848   4.035   0.522   0.935  0.4683  0.1051  0.1437
23823SOL    HW273849   4.034   0.616   0.816  1.2713  0.4808  0.4284
23824SOL     OW73850   5.088  10.035  10.724 -0.0076  0.5981 -0.2869
23824SOL    HW173851   5.002  10.076  10.731 -0.4573 -0.5762  2.1724
23824SOL    HW273852   5.082   9.978  10.647 -1.0285  1.3670 -0.8037
23825SOL     OW73853   9.026   7.138   3.179  0.8762 -0.3246  0.2285
23825SOL    HW173854   9.069   7.177   3.103 -1.7149 -0.2912 -1.3338
23825SOL    HW273855   9.097   7.095   3.227  2.6733  0.0116 -1.9487
23826SOL     OW73856   6.703   2.164  10.289 -0.2616 -0.1249  0.2289
23826SOL    HW173857   6.634   2.098  10.294  1.0956 -1.5326  1.4390
23826SOL    HW273858   6.675   2.231  10.352  0.4736 -1.7610  2.4305
23827SOL     OW73859   5.599   1.706   9.053 -0.2982  0.1606 -0.0679
23827SOL    HW173860   5.590   1.619   9.091  1.0968 -0.9230 -2.0115
23827SOL    HW273861   5.513   1.727   9.018 -0.7584 -0.2223  0.8211
23828SOL     OW73862   6.371   8.250   5.303  0.0577 -0.0736 -0.2001
23828SOL    HW173863   6.463   8.229   5.316 -0.0143 -0.2377  0.0506
23828SOL    HW273864   6.343   8.284   5.388 -0.2261 -0.4403 -0.1462
23829SOL     OW73865   2.887   3.324   8.441  0.2834  0.4364 -0.2650
23829SOL    HW173866   2.979   3.326   8.468  0.2579  0.8225 -0.2030
23829SOL    HW273867   2.884   3.375   8.361 -0.1957  2.0864  0.7609
23830SOL     OW73868   3.311   3.187   4.014  0.6624  0.0737  0.0642
23830SOL    HW173869   3.312   3.122   4.085  1.8737 -0.2368 -0.2020
23830SOL    HW273870   3.381   3.248   4.038 -0.2980  1.1572  0.1792
23831SOL     OW73871   9.682   7.635   5.540 -0.7384 -0.0485 -0.1315
23831SOL    HW173872   9.719   7.698   5.601 -0.6832  0.0122 -0.2273
23831SOL    HW273873   9.732   7.554   5.556 -1.7421 -0.4810  0.9788
23832SOL     OW73874  10.800   1.137   8.785  0.1466 -0.3439 -0.8241
23832SOL    HW173875  10.726   1.085   8.754  0.0148 -0.1938 -0.7636
23832SOL    HW273876  10.870   1.073   8.798  0.8003 -0.1676 -3.1858
23833SOL     OW73877   7.876   7.543   9.283 -0.0602  0.2894 -0.0893
23833SOL    HW173878   7.834   7.616   9.238 -0.5779 -0.1371 -0.3023
23833SOL    HW273879   7.961   7.533   9.240 -0.6230 -0.2364 -1.1077
23834SOL     OW73880   5.595  10.045   1.434 -0.2193 -0.5489 -0.2078
23834SOL    HW173881   5.592   9.949   1.441  1.5062 -0.5844  0.4946
23834SOL    HW273882   5.527  10.066   1.370 -2.6127 -1.9967  1.6672
23835SOL     OW73883   1.956   9.444   3.840  0.1872 -0.3498 -0.0798
23835SOL    HW173884   1.960   9.412   3.930 -0.1175  1.0954  0.4697
23835SOL    HW273885   1.864   9.436   3.816  0.5614 -2.7527 -1.0835
23836SOL     OW73886  10.435   4.700   4.188 -0.5769  0.1587  0.3317
23836SOL    HW173887  10.475   4.779   4.151 -0.5123  0.8087  1.7383
23836SOL    HW273888  10.444   4.711   4.283 -1.8825 -0.8532  0.5910
23837SOL     OW73889   7.178   1.799   2.868  0.3529 -0.1084 -0.4164
23837SOL    HW173890   7.099   1.763   2.909  0.0232  0.8853 -0.1698
23837SOL    HW273891   7.240   1.726   2.869 -0.4114 -0.7708 -0.2167
23838SOL     OW73892   5.315  10.023   8.607  0.3451  0.1082 -0.0747
23838SOL    HW173893   5.359   9.938   8.598  0.8375  0.5125 -1.9115
23838SOL    HW273894   5.381  10.087   8.579 -0.3640  1.0193  0.2852
23839SOL     OW73895   1.881   1.361   1.327  0.1667  0.0667 -0.3646
23839SOL    HW173896   1.875   1.457   1.325  2.1600  0.2660  1.0320
23839SOL    HW273897   1.794   1.333   1.356 -0.2787  1.4801 -0.2271
23840SOL     OW73898   9.102   1.652   0.548  0.5978  0.0716  0.6398
23840SOL    HW173899   9.086   1.558   0.549  0.3204  0.0976 -0.5415
23840SOL    HW273900   9.171   1.665   0.483  0.1304  0.7528  0.2624
23841SOL     OW73901   9.552   6.037   3.805  0.6555 -0.0021  0.9994
23841SOL    HW173902   9.465   6.077   3.799  1.6066  1.9670 -1.5232
23841SOL    HW273903   9.583   6.059   3.893 -1.3915 -0.8447  1.9806
23842SOL     OW73904   8.358   7.005   6.161 -0.0367  0.6568  0.6009
23842SOL    HW173905   8.400   7.014   6.246  1.0953 -1.4203  0.3393
23842SOL    HW273906   8.389   7.079   6.109  1.0676  0.6998  1.3125
23843SOL     OW73907   1.835   5.205   4.498  0.6591 -0.0545 -0.0435
23843SOL    HW173908   1.792   5.176   4.418 -0.8627  0.0247  0.7221
23843SOL    HW273909   1.878   5.126   4.532 -0.6377 -0.6567  0.2609
23844SOL     OW73910   3.476   9.833   5.904 -0.4405  0.3421  0.7520
23844SOL    HW173911   3.476   9.901   5.837  1.3886 -1.0992 -0.7981
23844SOL    HW273912   3.384   9.814   5.919 -0.9384  2.1451  0.1865
23845SOL     OW73913   4.959   3.970   4.391 -0.3689 -0.1040  0.2572
23845SOL    HW173914   4.920   3.921   4.463  0.0622  0.5465  0.9552
23845SOL    HW273915   4.885   4.013   4.348 -0.6586 -0.7226  0.1342
23846SOL     OW73916  10.699   9.831   1.659  0.2036 -0.7940  0.0170
23846SOL    HW173917  10.634   9.799   1.597  0.4407  1.6032 -1.5757
23846SOL    HW273918  10.779   9.839   1.607  0.5645  0.6925  0.7473
23847SOL     OW73919   0.565   3.068  10.637 -0.0131 -0.3970  0.4429
23847SOL    HW173920   0.553   3.008  10.710 -1.2787 -0.7187 -0.0025
23847SOL    HW273921   0.510   3.143  10.659  1.9663  0.9037  1.2621
23848SOL     OW73922   9.364   6.044   0.532 -0.1336 -0.5871 -0.3515
23848SOL    HW173923   9.271   6.024   0.524 -0.7497  1.5678  0.7321
23848SOL    HW273924   9.408   5.973   0.485 -2.3905 -0.4895 -2.8292
23849SOL     OW73925   5.575   6.117   1.601 -0.2268  0.7142 -0.1898
23849SOL    HW173926   5.633   6.072   1.541  0.8425  1.3921  0.2994
23849SOL    HW273927   5.624   6.120   1.684 -0.8653  1.4803  0.1747
23850SOL     OW73928   8.644   3.993   0.907  0.2697  0.4856  0.0422
23850SOL    HW173929   8.597   3.950   0.836  0.4328  0.3971 -0.0115
23850SOL    HW273930   8.583   4.059   0.940 -0.1594 -0.0984  0.4276
23851SOL     OW73931   4.415  10.213   5.117  0.3219  0.2947 -0.0312
23851SOL    HW173932   4.367  10.187   5.038 -0.1979  0.5846  0.1786
23851SOL    HW273933   4.506  10.219   5.090  0.1282  0.5332 -0.6483
23852SOL     OW73934   6.978   0.484   1.513  0.6663 -0.1495  0.0901
23852SOL    HW173935   6.891   0.505   1.549  1.6480  0.3303  2.3220
23852SOL    HW273936   7.033   0.557   1.541  2.1808 -1.3035  0.1996
23853SOL     OW73937  10.671   3.833   5.306 -0.1776 -0.1880  0.4133
23853SOL    HW173938  10.601   3.804   5.364  0.9277 -0.4072  1.7102
23853SOL    HW273939  10.703   3.752   5.266  0.5188 -0.3478  1.2486
23854SOL     OW73940   6.975  10.343   3.729  0.3807  0.7786 -0.1597
23854SOL    HW173941   6.911  10.274   3.746  0.5740  0.3684 -1.0181
23854SOL    HW273942   7.019  10.316   3.648  1.5291  1.1327  0.3166
23855SOL     OW73943   5.890   1.893   5.353 -0.5030 -0.7958  0.1421
23855SOL    HW173944   5.956   1.843   5.305  1.8740  1.0168  1.3262
23855SOL    HW273945   5.870   1.840   5.429 -2.0271 -2.2915 -1.2264
23856SOL     OW73946   6.923   2.045   7.870  0.2400 -0.2759 -0.3352
23856SOL    HW173947   6.978   1.984   7.821  0.5641 -0.7629  0.6231
23856SOL    HW273948   6.959   2.046   7.958  0.1732  1.2258 -0.2850
23857SOL     OW73949   7.158   3.437   7.525  0.0408  0.1740 -0.0050
23857SOL    HW173950   7.126   3.496   7.593 -1.4447 -2.9654  2.2863
23857SOL    HW273951   7.078   3.399   7.488  0.9211  0.0666 -1.8803
23858SOL     OW73952  10.084   4.441   3.692  0.1067 -0.3579 -0.5144
23858SOL    HW173953  10.098   4.346   3.696  0.4777 -0.3000 -0.3229
23858SOL    HW273954  10.027   4.461   3.766 -1.2209 -0.6300 -1.4339
23859SOL     OW73955   5.264   8.467   2.083 -0.7268 -0.0654  0.2128
23859SOL    HW173956   5.221   8.455   2.168 -0.6035  1.7336  0.5622
23859SOL    HW273957   5.222   8.402   2.026 -2.0692 -0.1159  1.2058
23860SOL     OW73958   5.464   3.929   7.761 -0.4096  0.1967  0.4673
23860SOL    HW173959   5.558   3.918   7.752 -0.3602 -0.1518  1.2900
23860SOL    HW273960   5.446   4.015   7.724  0.0318 -0.2804 -0.9144
23861SOL     OW73961   8.349   7.028   9.554 -0.2743 -0.2916 -0.1351
23861SOL    HW173962   8.380   7.075   9.632 -0.2560  1.0420 -0.9102
23861SOL    HW273963   8.278   6.973   9.586 -1.6059  1.6848  0.5310
23862SOL     OW73964   7.691   4.075   6.042  0.0089  0.0422 -0.4873
23862SOL    HW173965   7.617   4.073   6.103  0.0327  0.3208 -0.4442
23862SOL    HW273966   7.680   4.159   5.996  1.5724  1.2104  1.1264
23863SOL     OW73967   7.208   6.787   2.828 -0.2989  0.1752  0.0084
23863SOL    HW173968   7.144   6.717   2.817 -1.3114  1.1988 -0.8339
23863SOL    HW273969   7.250   6.795   2.742  0.5837 -0.1147  0.4024
23864SOL     OW73970   9.463  10.282   4.493  0.3447  0.0044 -0.1467
23864SOL    HW173971   9.498  10.193   4.502  0.1425  0.0466  1.2992
23864SOL    HW273972   9.472  10.302   4.400  2.9940 -0.4605 -0.0482
23865SOL     OW73973   7.187   3.355   2.195 -0.4621 -0.1389 -0.2700
23865SOL    HW173974   7.197   3.425   2.260 -0.4978 -0.1077 -0.2987
23865SOL    HW273975   7.134   3.393   2.126  0.7584  0.2972 -1.0051
23866SOL     OW73976   7.578   4.320   5.726 -0.3785  0.0167  0.3962
23866SOL    HW173977   7.618   4.234   5.710 -0.4810 -0.2073  1.3026
23866SOL    HW273978   7.645   4.383   5.701 -0.1656 -0.3271  0.0769
23867SOL     OW73979   1.996   2.120   8.190  0.2995  0.2322 -0.4265
23867SOL    HW173980   1.929   2.093   8.127  0.1063  1.8095 -0.9447
23867SOL    HW273981   2.039   2.194   8.149  0.1625  1.3168  1.2796
23868SOL     OW73982   3.551   2.037   5.668 -0.2148 -0.6566 -0.0603
23868SOL    HW173983   3.536   1.963   5.728  0.0337  0.1310  1.0139
23868SOL    HW273984   3.595   1.998   5.592  1.0863 -1.4307  1.0365
23869SOL     OW73985   8.977   3.752   4.877 -0.1632 -0.1705 -0.0942
23869SOL    HW173986   8.959   3.755   4.971  1.2942  1.4112  0.1833
23869SOL    HW273987   8.986   3.844   4.851  1.3572 -0.6231 -1.3796
23870SOL     OW73988   3.261   2.581   1.966  0.0509  0.3755 -0.2249
23870SOL    HW173989   3.284   2.657   1.913 -0.6497  0.2505 -0.7224
23870SOL    HW273990   3.304   2.596   2.050  1.6188  0.3312 -0.9790
23871SOL     OW73991  10.046   5.768   4.684 -0.7643  0.0550  0.2348
23871SOL    HW173992  10.140   5.778   4.669 -0.5069 -0.5480  1.3546
23871SOL    HW273993  10.009   5.752   4.597  0.3427 -0.9448 -0.0784
23872SOL     OW73994   1.766  10.353  10.254  0.5614  0.0684 -0.0322
23872SOL    HW173995   1.861  10.352  10.238  0.6508 -1.5217  0.4105
23872SOL    HW273996   1.746  10.263  10.281 -1.0851  0.3776 -0.1577
23873SOL     OW73997   0.744   6.807   2.372 -0.4894  0.5951 -0.2054
23873SOL    HW173998   0.708   6.871   2.312 -1.7273 -0.0746 -0.2173
23873SOL    HW273999   0.673   6.743   2.384 -0.2807  0.6941  1.9358
23874SOL     OW74000  10.084  10.038   9.905 -0.4659  0.3767 -0.1215
23874SOL    HW174001  10.134  10.022   9.825 -1.0280  0.6691 -0.5349
23874SOL    HW274002  10.083   9.954   9.951  1.6834  0.7058  0.6430
23875SOL     OW74003   5.113   4.843   8.476 -0.3535  0.7046 -0.1585
23875SOL    HW174004   5.077   4.852   8.565  2.2178 -1.2548  1.2116
23875SOL    HW274005   5.039   4.812   8.423 -2.1922  2.7634  1.0130
23876SOL     OW74006   4.507   8.043   0.062  0.1162  0.1301  0.7791
23876SOL    HW174007   4.494   7.960   0.017 -1.5787  1.0347 -0.5480
23876SOL    HW274008   4.439   8.045   0.130 -0.9472  1.0759 -0.2668
23877SOL     OW74009   9.644   5.968  10.227  0.3858 -0.0915  0.0964
23877SOL    HW174010   9.694   6.040  10.190 -2.4070  1.2400 -1.4342
23877SOL    HW274011   9.698   5.890  10.213  2.1509  1.2831 -1.0381
23878SOL     OW74012   1.134   8.603   4.943  0.0695 -0.0438  0.0488
23878SOL    HW174013   1.173   8.530   4.991 -1.2350 -0.8893 -0.1337
23878SOL    HW274014   1.104   8.663   5.011  1.8278  0.7418  0.1937
23879SOL     OW74015   8.625   7.084   8.969  0.0714 -0.1151 -0.4765
23879SOL    HW174016   8.649   7.070   9.061 -0.8203 -0.7010 -0.3271
23879SOL    HW274017   8.613   6.997   8.934 -3.2604  0.1138 -0.1521
23880SOL     OW74018   8.693   2.693   7.653 -0.1698 -0.4181  0.0020
23880SOL    HW174019   8.746   2.651   7.720  0.0578  0.5877  0.4531
23880SOL    HW274020   8.750   2.697   7.576 -0.2126 -0.9666 -0.0669
23881SOL     OW74021   6.317   8.105   2.921 -0.6733 -0.2409  0.4216
23881SOL    HW174022   6.230   8.145   2.915 -0.8447 -0.2006  2.4695
23881SOL    HW274023   6.370   8.170   2.967  0.0628 -0.8760  0.4856
23882SOL     OW74024   9.385   5.192   4.231  0.2501 -0.0068  0.3269
23882SOL    HW174025   9.310   5.203   4.173  0.0861  0.3987  0.6165
23882SOL    HW274026   9.444   5.263   4.208  0.4989 -0.2574  0.1785
23883SOL     OW74027   6.994   5.102  10.114  0.1084 -0.7661 -0.1632
23883SOL    HW174028   6.955   5.018  10.093  1.2282 -1.2046 -0.5951
23883SOL    HW274029   7.063   5.114  10.048  1.5793 -0.6613  1.3028
23884SOL     OW74030   4.374   1.549   0.781  0.0642 -0.4568  0.4384
23884SOL    HW174031   4.440   1.595   0.832 -0.1917  0.0823  0.2967
23884SOL    HW274032   4.291   1.590   0.807 -0.1182 -0.5102 -0.0458
23885SOL     OW74033   0.946   3.485   9.963 -0.2660  0.3709 -0.2182
23885SOL    HW174034   0.869   3.477  10.019 -0.6164 -0.2631 -0.7804
23885SOL    HW274035   0.957   3.580   9.950  0.7743  0.6546  2.1979
23886SOL     OW74036   8.312   5.040   5.504  0.3567 -0.0602 -0.2391
23886SOL    HW174037   8.291   4.952   5.537  0.4664  0.3044  0.8358
23886SOL    HW274038   8.386   5.069   5.557 -1.0572  1.5567  0.9868
23887SOL     OW74039   8.034   3.653  10.418 -0.5290  0.4048  0.5738
23887SOL    HW174040   8.103   3.608  10.369 -0.2094  1.2284  0.2369
23887SOL    HW274041   8.001   3.588  10.479 -1.7360 -1.0296 -1.4768
23888SOL     OW74042  10.097   7.368   7.267 -0.4266 -0.0457  0.6470
23888SOL    HW174043  10.156   7.413   7.327  0.2723 -3.1132  2.5105
23888SOL    HW274044  10.153   7.341   7.194  0.4020 -2.1077  1.9495
23889SOL     OW74045   6.876   2.424  10.438 -0.1767  0.1821  1.2427
23889SOL    HW174046   6.912   2.345  10.477  0.4629 -0.9331 -1.3504
23889SOL    HW274047   6.781   2.412  10.442 -0.1055 -1.7507 -0.8523
23890SOL     OW74048   6.558   1.743   1.857  0.2373 -0.0779  0.1176
23890SOL    HW174049   6.627   1.752   1.791  1.8652 -0.5292  1.6636
23890SOL    HW274050   6.507   1.823   1.850  0.6367  0.0783 -1.3678
23891SOL     OW74051   7.445   2.269   0.306 -0.8064  0.1305  0.0886
23891SOL    HW174052   7.451   2.186   0.257 -1.1790 -0.2300  0.6347
23891SOL    HW274053   7.504   2.328   0.260 -0.3681 -0.5044 -0.1840
23892SOL     OW74054   8.926   6.102   2.296  0.2861 -0.0267 -0.4139
23892SOL    HW174055   8.930   6.184   2.345  0.0513 -0.2338 -0.0489
23892SOL    HW274056   8.905   6.036   2.361  2.7888 -0.7732 -0.2634
23893SOL     OW74057   9.008   4.952   6.380 -0.2364  0.5109 -0.9073
23893SOL    HW174058   9.067   5.022   6.406  0.5315 -0.7276  0.8538
23893SOL    HW274059   9.023   4.941   6.286  2.5912  0.0301 -0.4742
23894SOL     OW74060   2.797  10.348   8.762  0.1444 -0.1182 -0.2740
23894SOL    HW174061   2.730  10.304   8.815  1.1012  1.0932  2.0614
23894SOL    HW274062   2.796  10.300   8.679 -3.0669 -0.6366 -0.0820
23895SOL     OW74063   8.205   8.236   7.617 -0.2447  0.2800  0.0840
23895SOL    HW174064   8.284   8.183   7.616  0.4358  1.2587 -0.4368
23895SOL    HW274065   8.171   8.230   7.528 -0.2100  0.6229  0.0430
23896SOL     OW74066   2.279   2.276   0.530 -0.3084 -0.1896  0.0105
23896SOL    HW174067   2.229   2.266   0.611 -1.3770  1.6936 -0.3626
23896SOL    HW274068   2.214   2.305   0.465  1.0260  0.9912 -0.8370
23897SOL     OW74069   4.426   8.919  10.573  0.1118  0.4503 -0.6149
23897SOL    HW174070   4.375   8.988  10.614  0.3264  0.8493 -1.0139
23897SOL    HW274071   4.390   8.912  10.485 -0.7857 -0.8450 -0.1821
23898SOL     OW74072   2.923   9.423  10.418  0.1091 -0.5242  0.4791
23898SOL    HW174073   3.016   9.409  10.400 -0.0242  0.3990 -1.1691
23898SOL    HW274074   2.886   9.335  10.427  0.7967 -0.9748 -0.8765
23899SOL     OW74075   0.482   6.367  10.406  0.0161  0.5707 -0.2129
23899SOL    HW174076   0.429   6.388  10.329 -0.7090  1.3877  0.5010
23899SOL    HW274077   0.560   6.325  10.369 -0.1513  1.2602 -1.4335
23900SOL     OW74078   3.978   8.291   1.115  0.2837 -0.4601 -0.1564
23900SOL    HW174079   3.900   8.258   1.158 -1.0667 -0.0835 -2.1775
23900SOL    HW274080   4.050   8.241   1.153 -0.7887 -0.1873  2.4211
23901SOL     OW74081   1.624   5.994   4.486  0.7925  0.2956 -0.0983
23901SOL    HW174082   1.542   5.948   4.501  0.2210  1.2443 -0.2474
23901SOL    HW274083   1.691   5.937   4.523 -0.0057 -0.1342  0.7013
23902SOL     OW74084   4.656   1.873   5.692  0.0827 -0.0447 -0.0975
23902SOL    HW174085   4.707   1.800   5.656 -0.1997 -1.1615  1.6097
23902SOL    HW274086   4.585   1.830   5.740 -0.9598  1.4204 -0.2958
23903SOL     OW74087   1.592   2.196   9.630 -0.3382  0.5213  0.3894
23903SOL    HW174088   1.516   2.252   9.646 -0.5681 -0.3958  2.8529
23903SOL    HW274089   1.658   2.227   9.692 -0.4153 -1.8080  1.7003
23904SOL     OW74090   8.558   5.094   4.984 -0.2163 -0.8690 -0.1211
23904SOL    HW174091   8.582   5.155   5.053 -1.2019 -0.4358 -0.1508
23904SOL    HW274092   8.463   5.098   4.980 -0.4590 -3.5808  0.9406
23905SOL     OW74093   1.274   1.731   6.103 -0.3026 -0.2428  0.3753
23905SOL    HW174094   1.291   1.808   6.048  0.4612 -0.1654  0.6996
23905SOL    HW274095   1.205   1.683   6.057  0.2386 -0.1243 -0.5960
23906SOL     OW74096   6.071   9.661   6.208  0.4861  0.7270  0.2781
23906SOL    HW174097   6.136   9.593   6.195  0.2270  0.6831 -0.9117
23906SOL    HW274098   5.992   9.628   6.164  0.0898  1.4021  0.4542
23907SOL     OW74099   2.135   2.277   0.745  0.6606  0.0217 -0.7418
23907SOL    HW174100   2.065   2.325   0.790  1.6020  0.8869 -0.1546
23907SOL    HW274101   2.178   2.227   0.814  0.6115 -0.5364 -1.1095
23908SOL     OW74102   2.742   8.387   1.400  0.4437  0.1353 -0.1260
23908SOL    HW174103   2.676   8.453   1.379  0.2363 -0.5520 -1.7349
23908SOL    HW274104   2.697   8.303   1.391  1.4269 -0.3368 -0.8911
23909SOL     OW74105   2.822   8.475   2.210 -0.5751  0.2255  0.4322
23909SOL    HW174106   2.905   8.513   2.184 -0.7028  1.3425  1.5726
23909SOL    HW274107   2.841   8.382   2.225 -0.0859 -0.0606 -1.6175
23910SOL     OW74108   9.004   6.457   2.056  0.0298 -0.4191 -0.8908
23910SOL    HW174109   9.001   6.381   1.998  1.9633  0.1272 -1.8008
23910SOL    HW274110   9.062   6.519   2.012  0.4644  0.5938  0.9790
23911SOL     OW74111   4.200   4.871   9.205 -0.0268  0.2344 -0.5221
23911SOL    HW174112   4.196   4.777   9.187  2.0498  0.2607 -1.3941
23911SOL    HW274113   4.249   4.908   9.131  1.1509  1.6601  0.8864
23912SOL     OW74114   4.091   7.086   4.664 -0.0865  0.4349 -0.1534
23912SOL    HW174115   4.143   7.085   4.584 -0.1968  1.6676 -0.2521
23912SOL    HW274116   4.111   7.002   4.707  1.1224  0.4163 -0.7205
23913SOL     OW74117   3.536   0.172   3.165 -0.1929  0.3898  0.2676
23913SOL    HW174118   3.472   0.240   3.142 -0.7765  0.2877  1.5207
23913SOL    HW274119   3.512   0.098   3.109  1.8954  1.8569 -2.8651
23914SOL     OW74120   6.491   4.583   2.419 -0.0315  0.4581 -0.2823
23914SOL    HW174121   6.481   4.601   2.325  0.9603 -2.0662 -0.9684
23914SOL    HW274122   6.531   4.496   2.422 -0.9697  0.0304  2.5184
23915SOL     OW74123  10.426   4.187   6.225 -0.4462  0.5754 -0.4128
23915SOL    HW174124  10.371   4.147   6.293 -0.9651  1.1239 -0.4985
23915SOL    HW274125  10.388   4.274   6.212 -1.1658  0.0300 -2.3040
23916SOL     OW74126   6.757   1.691   0.335  0.1330 -0.1194 -0.3840
23916SOL    HW174127   6.793   1.613   0.377 -0.9429  0.1044  1.0398
23916SOL    HW274128   6.669   1.666   0.308 -0.4973  0.7797  0.7449
23917SOL     OW74129   1.251   0.978   7.966 -0.7577 -0.1244  0.4928
23917SOL    HW174130   1.213   1.065   7.956  1.3331  1.0555  1.8928
23917SOL    HW274131   1.262   0.968   8.061  2.1727 -0.4010  0.2019
23918SOL     OW74132  10.444   7.471   0.024  0.2635 -0.1182  0.3428
23918SOL    HW174133  10.379   7.524  -0.023  1.5665 -0.2088 -1.6519
23918SOL    HW274134  10.419   7.480   0.116 -2.0553  0.5288 -0.2788
23919SOL     OW74135   7.356   1.383   5.860  0.4103  0.7196 -0.1667
23919SOL    HW174136   7.299   1.434   5.918 -0.4032 -0.9579  0.5829
23919SOL    HW274137   7.400   1.320   5.918  0.9279  0.1718 -1.1192
23920SOL     OW74138   1.828   5.743   9.327  0.3862  0.7217  0.0838
23920SOL    HW174139   1.777   5.667   9.357  1.7885  0.4353  1.8869
23920SOL    HW274140   1.762   5.802   9.288 -1.0840 -0.3359  0.8719
23921SOL     OW74141   6.471   1.311   5.040  0.3808  0.5546  0.0694
23921SOL    HW174142   6.473   1.222   5.074 -1.1100  0.1467 -0.7789
23921SOL    HW274143   6.556   1.324   4.999  0.2124 -0.9408 -0.8344
23922SOL     OW74144   2.042   3.056   1.799 -0.0119  0.3162  0.2369
23922SOL    HW174145   1.949   3.074   1.788 -0.2636 -0.1920  1.3988
23922SOL    HW274146   2.052   3.039   1.892  1.5790  2.2124  0.4855
23923SOL     OW74147   4.145   0.735   1.192 -0.5379 -0.0928  0.2966
23923SOL    HW174148   4.189   0.716   1.109 -0.9752  1.9777 -0.4835
23923SOL    HW274149   4.191   0.812   1.226 -0.6430 -0.6654  1.7708
23924SOL     OW74150   5.204   2.023   6.786  0.3859  0.4402  0.7447
23924SOL    HW174151   5.153   2.083   6.732 -0.8978  0.9765  2.4495
23924SOL    HW274152   5.212   2.068   6.870 -0.7590 -1.7999  2.1435
23925SOL     OW74153   4.182   0.775   6.457 -0.2370  0.6642  0.1039
23925SOL    HW174154   4.099   0.822   6.458 -0.3454  0.4757  0.2888
23925SOL    HW274155   4.188   0.737   6.545 -0.1816  0.2873 -0.0622
23926SOL     OW74156   7.319   9.347  10.456 -0.4564 -0.2642 -0.0634
23926SOL    HW174157   7.270   9.395  10.389 -0.3311 -0.2195 -0.1221
23926SOL    HW274158   7.388   9.407  10.484 -0.1405 -0.5066 -0.3239
23927SOL     OW74159   3.145   7.331   1.812  0.1483 -0.2918  0.4421
23927SOL    HW174160   3.198   7.257   1.840 -1.3654 -1.1524  1.1282
23927SOL    HW274161   3.130   7.315   1.718  0.9017 -0.1518  0.2924
23928SOL     OW74162   4.497  10.381   9.658 -0.5694  1.0170  0.3405
23928SOL    HW174163   4.526  10.458   9.707 -0.0355  0.8368  0.3110
23928SOL    HW274164   4.576  10.349   9.614 -0.3776 -0.6124  1.7812
23929SOL     OW74165   4.092   8.724   9.058  0.2955  0.1732  0.0243
23929SOL    HW174166   4.171   8.684   9.096  0.8747  2.4011  1.3566
23929SOL    HW274167   4.120   8.754   8.972  0.2363 -0.9846 -0.4211
23930SOL     OW74168   7.686   9.865   1.016  0.0331 -0.4548 -0.1095
23930SOL    HW174169   7.685   9.781   0.972 -0.1210  0.1039 -1.2127
23930SOL    HW274170   7.671   9.929   0.947 -1.8178  0.3627  0.9665
23931SOL     OW74171   5.827   4.134   4.263 -0.2857 -0.7564  0.5006
23931SOL    HW174172   5.912   4.177   4.274 -0.1502 -1.4199  2.4120
23931SOL    HW274173   5.792   4.171   4.182  1.2068  0.5598  0.4001
23932SOL     OW74174   1.597   1.929   7.093 -0.2270 -0.3071 -0.4110
23932SOL    HW174175   1.596   2.015   7.134  3.3982 -0.0051 -0.6167
23932SOL    HW274176   1.624   1.870   7.164 -0.5660 -0.9124 -0.7807
23933SOL     OW74177   4.912   8.417   7.453  0.0239 -0.3269 -0.0225
23933SOL    HW174178   4.883   8.470   7.527  2.2209  0.3098  0.4543
23933SOL    HW274179   4.904   8.475   7.377 -2.6358 -1.1129 -0.4523
23934SOL     OW74180   2.548   6.530   5.522  0.5905 -0.0262 -0.0177
23934SOL    HW174181   2.469   6.582   5.513  0.7856  0.4097  0.7446
23934SOL    HW274182   2.581   6.521   5.432 -0.5522 -0.6043 -0.4012
23935SOL     OW74183   2.329   2.969   8.534  0.2327  0.2145  0.4172
23935SOL    HW174184   2.310   2.895   8.591  1.0087  0.3971  0.9193
23935SOL    HW274185   2.243   2.995   8.499 -0.0134 -1.0954  0.0059
23936SOL     OW74186   4.816   5.647   1.603  0.6058 -0.8986  0.0381
23936SOL    HW174187   4.905   5.619   1.584 -0.1789 -2.4474 -1.7489
23936SOL    HW274188   4.821   5.742   1.611  2.1839 -0.8139 -1.5152
23937SOL     OW74189   9.982   5.414   3.016  0.4754  0.3412  0.1982
23937SOL    HW174190  10.036   5.468   3.075  3.6608 -0.1266 -2.0307
23937SOL    HW274191  10.011   5.324   3.033 -0.6442 -0.1004 -0.1326
23938SOL     OW74192   5.242   6.040   8.654  0.2388 -0.2366 -0.2509
23938SOL    HW174193   5.270   5.980   8.585 -4.3811  0.3719 -3.1410
23938SOL    HW274194   5.150   6.017   8.669 -0.4424  3.1926  1.7722
23939SOL     OW74195   6.846   3.599   9.675 -0.5335 -0.1625  0.2941
23939SOL    HW174196   6.840   3.686   9.635  0.1636 -0.3377 -0.2123
23939SOL    HW274197   6.859   3.539   9.601 -1.4870 -0.7682  0.5867
23940SOL     OW74198   5.106   8.475   7.166  0.5590 -0.4936  0.1564
23940SOL    HW174199   5.120   8.409   7.235  2.5119  0.1190  0.4242
23940SOL    HW274200   5.194   8.490   7.130 -0.0092  1.2154 -0.6049
23941SOL     OW74201   0.553   7.838   0.965  0.3266 -0.3061 -0.2252
23941SOL    HW174202   0.570   7.932   0.960  0.4805 -0.3029  0.3247
23941SOL    HW274203   0.598   7.801   0.889  1.4539 -0.1097  0.3268
23942SOL     OW74204   4.817   5.877   4.428  0.0731  0.5347 -0.5719
23942SOL    HW174205   4.822   5.893   4.523  0.1429  0.6863 -0.6020
23942SOL    HW274206   4.729   5.904   4.404 -0.2450 -0.2923 -0.3996
23943SOL     OW74207   2.204   8.486   6.352  0.5129 -0.5504 -0.1807
23943SOL    HW174208   2.132   8.481   6.413  1.3238 -0.9346  0.7673
23943SOL    HW274209   2.191   8.413   6.292 -0.6658  0.2346 -0.9271
23944SOL     OW74210   2.330   5.457   5.784  0.1317  0.5455 -1.1112
23944SOL    HW174211   2.245   5.472   5.825 -0.4862 -1.0383 -1.7461
23944SOL    HW274212   2.332   5.516   5.709  0.2669  1.7015 -0.2330
23945SOL     OW74213   9.341   0.796   9.870  0.1233  0.1320  0.3538
23945SOL    HW174214   9.266   0.748   9.906  0.4319 -0.9600 -0.4089
23945SOL    HW274215   9.336   0.882   9.911 -0.4829 -0.5279  1.7464
23946SOL     OW74216   7.911   9.970   5.634 -0.1183  0.4468 -0.2281
23946SOL    HW174217   7.904   9.953   5.540 -0.3931  0.4965 -0.2187
23946SOL    HW274218   7.980  10.035   5.642  0.7564 -0.4558 -0.2918
23947SOL     OW74219   7.603   5.163   8.083 -0.2926  0.5879 -0.2771
23947SOL    HW174220   7.556   5.084   8.057 -2.8659  2.1192 -0.5268
23947SOL    HW274221   7.619   5.151   8.177 -0.1428 -0.4438 -0.4147
23948SOL     OW74222  10.710   2.795   3.722 -0.6675  0.6377 -0.1902
23948SOL    HW174223  10.726   2.730   3.654  0.5750 -0.8180  1.4099
23948SOL    HW274224  10.623   2.774   3.756 -0.3388 -0.1094  0.2062
23949SOL     OW74225   3.362   9.006   9.229 -0.1845  0.3674 -0.7486
23949SOL    HW174226   3.356   9.082   9.172 -3.7203 -0.3789 -1.6074
23949SOL    HW274227   3.366   9.042   9.317 -1.3198  1.6142 -1.1706
23950SOL     OW74228   7.481   8.435   1.673 -0.3495 -0.0186 -0.3285
23950SOL    HW174229   7.396   8.391   1.676 -0.1500 -0.3876 -0.0202
23950SOL    HW274230   7.471   8.511   1.730 -0.8274  0.5853 -1.1954
23951SOL     OW74231   6.266   3.913   0.243  0.6365  0.3894  0.3424
23951SOL    HW174232   6.274   4.003   0.275  1.4210  0.1843  0.7473
23951SOL    HW274233   6.301   3.915   0.154 -0.3978  0.7102 -0.0632
23952SOL     OW74234   9.662   0.468   3.752 -0.1071 -0.0733  0.1392
23952SOL    HW174235   9.672   0.495   3.660  0.5754  1.6557  0.6760
23952SOL    HW274236   9.730   0.518   3.798  0.4838 -1.9596  1.4071
23953SOL     OW74237   7.049   3.886   0.215  0.0308 -0.3001 -0.3097
23953SOL    HW174238   7.087   3.904   0.300 -0.8189 -0.3352  0.0864
23953SOL    HW274239   6.978   3.825   0.232  1.6082 -2.5912 -1.3910
23954SOL     OW74240   6.642   8.754   4.105  0.7085  0.7463 -0.3239
23954SOL    HW174241   6.608   8.724   4.020  0.0095 -0.4443  0.3520
23954SOL    HW274242   6.574   8.731   4.168  1.7075  0.5630  0.7292
23955SOL     OW74243   0.629   4.542   2.749 -0.3679  0.2229  0.0546
23955SOL    HW174244   0.561   4.592   2.794 -2.1903 -0.6070 -1.6354
23955SOL    HW274245   0.587   4.458   2.728  1.1664 -0.3031 -1.0681
23956SOL     OW74246   7.741   6.919   8.793  0.3826  0.1423  0.3650
23956SOL    HW174247   7.718   6.877   8.877 -2.2459  0.8644  0.1100
23956SOL    HW274248   7.660   6.964   8.767  0.7215 -1.0365 -3.1620
23957SOL     OW74249  10.621   8.934   1.615  0.2497 -0.0554  0.0959
23957SOL    HW174250  10.696   8.902   1.565 -0.6257  1.0266 -2.0424
23957SOL    HW274251  10.547   8.883   1.583 -0.1173 -0.3989  1.4302
23958SOL     OW74252   5.665   7.790  10.746 -0.2847  0.8557  0.3601
23958SOL    HW174253   5.701   7.732  10.813  1.3794 -0.5901 -1.6354
23958SOL    HW274254   5.618   7.731  10.687 -0.3622  1.8258 -0.5792
23959SOL     OW74255   7.245   1.285   2.205  0.3082 -0.0642 -0.4453
23959SOL    HW174256   7.340   1.290   2.197  0.1796  1.1363 -1.5003
23959SOL    HW274257   7.217   1.375   2.219 -0.6169 -0.5312  0.9410
23960SOL     OW74258   6.654   2.091   7.845  0.2592  0.1116 -0.0793
23960SOL    HW174259   6.748   2.084   7.860  0.2940 -0.9868 -0.7173
23960SOL    HW274260   6.621   2.001   7.855 -0.5728  0.3248 -0.7447
23961SOL     OW74261   7.072   4.248   7.629  0.0006  0.0363 -0.0880
23961SOL    HW174262   7.121   4.311   7.577 -0.3000 -0.8007 -1.4328
23961SOL    HW274263   7.043   4.297   7.706  2.0375  0.8201  0.2479
23962SOL     OW74264   4.469   9.095   8.620 -0.1675  0.3561  0.1760
23962SOL    HW174265   4.467   9.042   8.540  0.3787  0.6585 -0.0501
23962SOL    HW274266   4.380   9.092   8.654 -0.3741  0.1138 -0.3763
23963SOL     OW74267   3.389   8.736   5.330 -0.1870 -0.3581 -0.0684
23963SOL    HW174268   3.439   8.762   5.252 -0.7756 -1.5572 -0.8676
23963SOL    HW274269   3.414   8.801   5.396  2.1840 -0.7201 -0.5114
23964SOL     OW74270   3.378   0.963   2.865  0.3844 -0.5453  0.3562
23964SOL    HW174271   3.357   0.876   2.899  0.8376 -0.5941  0.5100
23964SOL    HW274272   3.414   0.947   2.778  0.4868 -0.5130  0.3926
23965SOL     OW74273  10.237   5.180  10.766  0.5781  0.5417  0.1730
23965SOL    HW174274  10.165   5.224  10.720 -0.2914 -1.7936 -0.8362
23965SOL    HW274275  10.300   5.250  10.784 -0.7889  2.2146 -1.1928
23966SOL     OW74276   0.069   1.194   7.068 -0.1195  0.1661  0.3894
23966SOL    HW174277  -0.019   1.179   7.103 -0.5639  0.0282 -0.7494
23966SOL    HW274278   0.123   1.213   7.145 -1.1370  0.2112  1.1029
23967SOL     OW74279  10.684   4.604   9.965 -0.2665 -0.1569 -0.2741
23967SOL    HW174280  10.606   4.548   9.969  0.9181 -2.1107 -2.1454
23967SOL    HW274281  10.748   4.560  10.022 -0.0163  0.5407 -0.0085
23968SOL     OW74282   5.144   1.473   1.107  0.2964 -0.4092  0.2536
23968SOL    HW174283   5.226   1.476   1.057  0.6834 -1.0853  0.8326
23968SOL    HW274284   5.161   1.411   1.177  0.0778  1.1920  1.7907
23969SOL     OW74285   3.721   8.074   1.535  0.3605  0.0369 -0.0838
23969SOL    HW174286   3.661   8.001   1.524  1.1162 -0.6193  0.0662
23969SOL    HW274287   3.751   8.095   1.447 -0.4215  0.6661 -0.2115
23970SOL     OW74288   5.745   7.496   7.329 -0.3228 -0.0999 -0.3574
23970SOL    HW174289   5.766   7.589   7.332  1.4622 -0.4733  2.5917
23970SOL    HW274290   5.821   7.455   7.286  0.0020 -0.3772  0.4516
23971SOL     OW74291   7.810   8.981   7.714  0.4799  0.0830  0.0643
23971SOL    HW174292   7.762   8.900   7.729 -0.6106  0.6540 -0.1843
23971SOL    HW274293   7.756   9.049   7.755  2.2349  0.5162  1.8512
23972SOL     OW74294   3.831   2.785   3.325 -0.7044 -0.6756 -0.6255
23972SOL    HW174295   3.804   2.766   3.235  1.3265 -2.0783 -1.0102
23972SOL    HW274296   3.836   2.880   3.329 -1.6262 -0.5547 -1.7144
23973SOL     OW74297  10.746   6.982  10.141 -0.3523  0.2004 -0.5860
23973SOL    HW174298  10.781   6.903  10.183 -1.0346 -0.2307 -0.8170
23973SOL    HW274299  10.801   6.995  10.064 -0.3490 -0.1467 -0.6416
23974SOL     OW74300   5.047   1.572   6.866  0.7691  0.4153  0.4662
23974SOL    HW174301   5.054   1.479   6.845  0.9752  0.6956 -0.7639
23974SOL    HW274302   5.134   1.608   6.848  0.7095  0.8423  0.9992
23975SOL     OW74303   4.100   9.702   0.086 -0.0630  0.5342 -0.1613
23975SOL    HW174304   4.159   9.733   0.017 -0.4725 -1.7627 -1.7027
23975SOL    HW274305   4.074   9.614   0.056 -0.9117 -0.2368  2.5680
23976SOL     OW74306   6.932   9.201   9.577 -0.0793  0.0325 -0.3941
23976SOL    HW174307   7.026   9.209   9.565  0.0906  0.7744  1.1462
23976SOL    HW274308   6.900   9.291   9.583 -0.4046 -0.1562  2.0320
23977SOL     OW74309  10.219   3.788   4.230 -0.1386 -0.3990  0.2431
23977SOL    HW174310  10.291   3.851   4.232 -1.6881  1.4456  2.3585
23977SOL    HW274311  10.256   3.707   4.266  1.1595  0.1364  0.1615
23978SOL     OW74312   6.585   7.383   3.153  0.1183 -0.3082  0.6272
23978SOL    HW174313   6.509   7.435   3.128  0.0162 -1.4158 -1.6821
23978SOL    HW274314   6.657   7.419   3.100  0.0590 -2.3391 -0.9704
23979SOL     OW74315   5.990  10.457   7.102 -0.3507 -0.1451  0.2010
23979SOL    HW174316   5.988  10.553   7.107 -0.8666 -0.1749  0.6461
23979SOL    HW274317   6.042  10.438   7.024  0.8966  0.4780  0.8519
23980SOL     OW74318   6.923   6.365   4.364  0.0737 -0.4687  0.2781
23980SOL    HW174319   6.932   6.278   4.404 -2.2935 -1.2426 -0.7235
23980SOL    HW274320   6.849   6.357   4.304 -2.1408  2.9782  2.1758
23981SOL     OW74321   8.903   7.970   3.637 -0.3132  0.1310 -0.1840
23981SOL    HW174322   8.984   8.014   3.611  0.1955 -1.1431 -0.8103
23981SOL    HW274323   8.843   7.987   3.564 -0.6629  1.1330  0.3102
23982SOL     OW74324   8.196   0.436   4.013 -0.0516  0.0626 -0.5582
23982SOL    HW174325   8.118   0.384   3.996 -1.5721  1.8546  0.6012
23982SOL    HW274326   8.237   0.392   4.088  0.5874 -1.3605 -1.6765
23983SOL     OW74327   8.035  10.495   8.787 -0.0151  0.0304  0.0894
23983SOL    HW174328   8.111  10.457   8.742  0.5323  2.0844 -0.8295
23983SOL    HW274329   7.966  10.498   8.720 -0.1406  0.3845  0.2313
23984SOL     OW74330   6.638   1.352   3.559 -0.1122  0.3698 -1.0053
23984SOL    HW174331   6.559   1.307   3.529 -0.8397  1.0715 -0.2148
23984SOL    HW274332   6.643   1.331   3.652 -0.2706  1.6082 -0.6993
23985SOL     OW74333  10.029   3.738   3.033  0.1042  0.3068  0.1473
23985SOL    HW174334  10.012   3.741   3.127  0.7648 -1.9690  0.4103
23985SOL    HW274335   9.950   3.700   2.995 -0.6928  2.4313 -0.4396
23986SOL     OW74336   4.921  10.487   5.606 -0.4019  0.4427  0.5430
23986SOL    HW174337   4.969  10.534   5.537 -1.7250 -0.6933 -1.2655
23986SOL    HW274338   4.931  10.541   5.684  1.3319  1.7067 -0.4804
23987SOL     OW74339   7.262   0.668   4.690 -0.2184 -0.3610  0.5420
23987SOL    HW174340   7.259   0.573   4.693 -1.2469 -0.4727 -1.7485
23987SOL    HW274341   7.172   0.697   4.707 -0.3275  0.0670 -0.6436
23988SOL     OW74342   9.025   4.448   4.887 -0.1579 -0.4097 -0.0232
23988SOL    HW174343   8.946   4.405   4.855  0.3932 -1.0957 -0.5104
23988SOL    HW274344   9.096   4.404   4.840  0.4276  1.3039 -0.8313
23989SOL     OW74345  10.518   9.087   5.036 -0.3476  0.0664  0.1072
23989SOL    HW174346  10.503   9.154   5.103 -2.8132  0.5012 -0.7764
23989SOL    HW274347  10.571   9.131   4.969  0.2826  0.2844  0.7352
23990SOL     OW74348   9.530   8.426   6.783 -0.2978 -0.1019 -0.2355
23990SOL    HW174349   9.521   8.433   6.688 -0.4233 -1.6261 -0.3648
23990SOL    HW274350   9.520   8.516   6.815 -0.8571  0.3508 -1.6083
23991SOL     OW74351   9.116   5.371   4.805 -0.1412 -0.1021  0.4157
23991SOL    HW174352   9.042   5.390   4.863 -0.8667  0.4105 -0.6367
23991SOL    HW274353   9.134   5.278   4.818 -2.3327 -0.7737 -0.7784
23992SOL     OW74354   8.739   4.808   8.637  0.0954 -0.0469  0.5462
23992SOL    HW174355   8.763   4.835   8.726  1.0949  1.0393 -0.0295
23992SOL    HW274356   8.678   4.875   8.607  0.2092 -0.0946  0.2092
23993SOL     OW74357   0.601   3.278   6.127  0.5169  0.0910  0.6964
23993SOL    HW174358   0.545   3.268   6.204  1.5714  1.0462  1.6398
23993SOL    HW274359   0.685   3.306   6.163  1.1743  0.1110 -0.7852
23994SOL     OW74360   6.231   9.299   1.041 -0.3399 -0.3921  0.3352
23994SOL    HW174361   6.252   9.389   1.066 -1.7699  0.3666 -1.0006
23994SOL    HW274362   6.302   9.247   1.078  1.9829  1.5735 -0.9680
23995SOL     OW74363   2.631   1.034   1.003 -0.2089  0.6425  0.2224
23995SOL    HW174364   2.547   1.018   0.960  0.1045  2.0781 -1.0498
23995SOL    HW274365   2.644   1.129   0.995  0.7010  0.7136  2.0134
23996SOL     OW74366   6.176   9.262   7.694 -0.5393 -0.2115 -0.3831
23996SOL    HW174367   6.222   9.193   7.743  1.4959  1.1120 -0.2916
23996SOL    HW274368   6.094   9.274   7.740  0.9994  0.5124  2.3882
23997SOL     OW74369   0.620   8.588   6.954 -0.7199 -1.0897 -0.1237
23997SOL    HW174370   0.599   8.666   6.903 -0.0227 -0.6474  0.2481
23997SOL    HW274371   0.697   8.550   6.911 -1.3013 -1.8153 -0.5490
23998SOL     OW74372   2.641   2.343   8.291  0.0322 -0.0600 -0.1863
23998SOL    HW174373   2.665   2.403   8.220 -0.9376 -0.9034 -1.2636
23998SOL    HW274374   2.609   2.400   8.361 -0.5879  0.7025 -1.0732
23999SOL     OW74375   4.170   6.985  10.226  0.0490  0.1157 -0.2439
23999SOL    HW174376   4.119   7.019  10.153  0.2193  1.1706  0.1084
23999SOL    HW274377   4.205   6.901  10.195  0.4915  0.7617 -1.5401
24000SOL     OW74378  10.556   4.245  10.466  0.2456  0.3301 -0.5043
24000SOL    HW174379  10.565   4.303  10.542 -0.1362  0.5898 -0.6525
24000SOL    HW274380  10.461   4.234  10.457  0.1378  2.1799 -2.3673
24001SOL     OW74381   0.463   7.780   2.018 -0.4737 -0.5091 -0.3248
24001SOL    HW174382   0.437   7.770   1.927  0.1196 -1.1219 -0.4433
24001SOL    HW274383   0.499   7.694   2.042 -0.5774 -0.3428  0.4702
24002SOL     OW74384   4.814   0.720   4.853 -0.2927  0.3083  0.3735
24002SOL    HW174385   4.851   0.684   4.772 -1.0968 -2.3074  1.0714
24002SOL    HW274386   4.738   0.769   4.824 -0.1799 -0.0270 -0.5367
24003SOL     OW74387   7.430   8.253   9.253 -0.0863 -0.3756 -0.4072
24003SOL    HW174388   7.497   8.208   9.203 -0.7396  0.5535 -2.2246
24003SOL    HW274389   7.359   8.190   9.261  0.2691 -0.7382 -0.0920
24004SOL     OW74390   9.137  10.615   0.289  0.1839 -0.0063 -0.1303
24004SOL    HW174391   9.141  10.524   0.258 -0.5539 -0.8009  1.9567
24004SOL    HW274392   9.139  10.608   0.384  2.0917  2.3158  0.0789
24005SOL     OW74393   6.620   2.428   5.632 -0.4191  0.2708  0.1434
24005SOL    HW174394   6.564   2.351   5.624 -1.1759  0.7551  0.5535
24005SOL    HW274395   6.709   2.396   5.619 -0.6706 -0.7667  0.8708
24006SOL     OW74396   1.725   5.405   5.223  0.2309  0.3281  0.2455
24006SOL    HW174397   1.770   5.405   5.307  0.3112  1.0295  0.2068
24006SOL    HW274398   1.788   5.442   5.161  1.0352 -2.2648 -0.6104
24007SOL     OW74399   7.009   2.648   0.665  0.4961 -0.1911  0.1160
24007SOL    HW174400   6.964   2.621   0.585 -0.3215  1.7160 -0.1443
24007SOL    HW274401   6.947   2.628   0.735  0.4766 -0.2720  0.0756
24008SOL     OW74402   5.121   7.343   8.439  0.3506 -0.1298 -0.5089
24008SOL    HW174403   5.175   7.309   8.367  2.8226  2.4388 -0.0215
24008SOL    HW274404   5.173   7.328   8.518  1.0003  3.2888 -0.1282
24009SOL     OW74405   1.569   7.961   5.261 -0.1745 -0.0270  0.2358
24009SOL    HW174406   1.604   7.987   5.176  1.1360  1.2661  1.1061
24009SOL    HW274407   1.642   7.916   5.304 -0.5871 -0.0556  0.9200
24010SOL     OW74408   7.149   0.891   2.675 -0.0176  0.1130 -0.5673
24010SOL    HW174409   7.156   0.943   2.595  0.3194  0.2761 -0.4315
24010SOL    HW274410   7.060   0.855   2.672 -0.0509  0.2207 -0.9507
24011SOL     OW74411   2.090   1.390   6.985 -0.3231 -0.8855  0.1817
24011SOL    HW174412   2.078   1.485   6.978 -0.4672 -0.9938 -1.7756
24011SOL    HW274413   2.021   1.362   7.045 -0.2710  0.2460  0.8018
24012SOL     OW74414   6.928   3.216   1.219  0.1463 -0.0728  0.2257
24012SOL    HW174415   6.915   3.195   1.311 -0.8739  0.2877  0.1747
24012SOL    HW274416   6.922   3.311   1.215  0.3643 -0.0728 -0.1974
24013SOL     OW74417   1.872   0.252   3.421  0.6870  0.0117 -0.1221
24013SOL    HW174418   1.966   0.257   3.438  1.0335 -3.0134 -0.7709
24013SOL    HW274419   1.863   0.199   3.342 -1.5674  0.9541 -0.6047
24014SOL     OW74420   4.347   0.716   8.605 -0.0912 -0.0629  0.2314
24014SOL    HW174421   4.353   0.805   8.639  1.2915 -0.3036  0.7185
24014SOL    HW274422   4.431   0.676   8.629 -0.2066 -1.1251 -1.0211
24015SOL     OW74423   1.144   0.447   1.735 -0.1937 -0.0107 -0.4267
24015SOL    HW174424   1.055   0.433   1.768 -0.0866  0.4144  0.0382
24015SOL    HW274425   1.155   0.378   1.669 -1.1192  0.3562 -0.9956
24016SOL     OW74426   5.056   2.670   4.929  0.5454  0.3778  0.1559
24016SOL    HW174427   5.007   2.750   4.949 -0.2255 -0.6136  2.5670
24016SOL    HW274428   4.997   2.618   4.876  0.5684  0.8425 -0.3425
24017SOL     OW74429   5.027   4.151   5.518 -0.0785  0.2033 -0.2292
24017SOL    HW174430   5.087   4.224   5.501 -1.4015  1.0437 -1.5577
24017SOL    HW274431   5.043   4.089   5.447  0.7278 -0.6305  0.6517
24018SOL     OW74432   3.782   9.752   3.157  0.1117  0.1101  0.6445
24018SOL    HW174433   3.772   9.731   3.250  2.0030  0.5033  0.9887
24018SOL    HW274434   3.700   9.795   3.133  0.3465  1.8825  2.7071
24019SOL     OW74435   3.845   9.422   1.678  0.8926 -0.5287  0.7299
24019SOL    HW174436   3.785   9.398   1.748  0.2973 -0.5624  0.2127
24019SOL    HW274437   3.907   9.349   1.674  0.4001 -0.9444  0.6270
24020SOL     OW74438   3.413   6.776   1.484  0.1978 -0.1100  0.1351
24020SOL    HW174439   3.366   6.802   1.404  0.7369  2.1963  0.5053
24020SOL    HW274440   3.383   6.686   1.501 -1.2887 -0.0119 -1.6501
24021SOL     OW74441   5.840   5.013   0.764  0.2678 -0.4757 -0.2187
24021SOL    HW174442   5.814   4.977   0.679 -0.8407 -1.4734  0.5164
24021SOL    HW274443   5.765   4.996   0.821  0.7398  0.7585  0.8109
24022SOL     OW74444   9.329   9.115   3.491  0.0144  0.5800 -0.2786
24022SOL    HW174445   9.303   9.121   3.583 -2.7136  0.2298 -0.9187
24022SOL    HW274446   9.256   9.069   3.449  2.1182 -1.1645 -2.2941
24023SOL     OW74447   1.685   3.371   3.085 -0.0368  0.2406 -0.1402
24023SOL    HW174448   1.763   3.408   3.127  0.8388 -2.7881  1.1233
24023SOL    HW274449   1.613   3.398   3.142  0.4557  0.5977  0.3319
24024SOL     OW74450   6.697   8.160   8.602  0.1966 -0.6001 -0.0431
24024SOL    HW174451   6.703   8.156   8.507  0.4097  2.7744 -0.2811
24024SOL    HW274452   6.603   8.163   8.620  0.1634 -0.1403 -0.2662
24025SOL     OW74453  10.540  10.717   7.273  0.1593 -0.4113 -0.1820
24025SOL    HW174454  10.605  10.648   7.280  0.3636 -0.1107  1.4547
24025SOL    HW274455  10.590  10.796   7.252  1.0367  0.5972  4.5156
24026SOL     OW74456   3.007  10.310  10.508  0.0465 -0.5151 -0.0701
24026SOL    HW174457   2.939  10.245  10.526 -0.0284 -0.4212 -0.0146
24026SOL    HW274458   3.078  10.288  10.568 -0.0760 -0.3966  0.1187
24027SOL     OW74459   2.937   5.877   7.790  0.1846 -0.3466  0.3086
24027SOL    HW174460   2.928   5.785   7.764  1.8034 -0.0956 -1.3387
24027SOL    HW274461   2.983   5.874   7.874  0.7009 -1.0347  0.0129
24028SOL     OW74462   5.933   1.418   0.875 -0.0038 -0.6281  0.3509
24028SOL    HW174463   5.887   1.346   0.833 -0.6319  0.0305 -0.1079
24028SOL    HW274464   5.973   1.466   0.803 -1.0157  0.4604  0.4873
24029SOL     OW74465   6.701   9.190   0.325 -0.2763 -0.8861  0.5760
24029SOL    HW174466   6.777   9.232   0.284 -0.4002  2.0855  3.0222
24029SOL    HW274467   6.738   9.132   0.391 -0.1386 -0.7912  0.5817
24030SOL     OW74468   0.453   4.190   7.489 -0.1404 -0.1100 -1.0416
24030SOL    HW174469   0.432   4.168   7.398 -0.3334 -2.5831 -0.4735
24030SOL    HW274470   0.477   4.283   7.486 -0.3508 -0.0557 -3.5577
24031SOL     OW74471   6.235   9.613   8.369 -0.1548 -0.0921 -0.0964
24031SOL    HW174472   6.199   9.539   8.320 -0.3779  0.3160 -0.5587
24031SOL    HW274473   6.171   9.629   8.438 -0.4981  0.1580 -0.4675
24032SOL     OW74474  10.546   2.645   1.943  0.1461 -0.1474  0.0059
24032SOL    HW174475  10.636   2.632   1.972  0.3839  0.0803 -0.6288
24032SOL    HW274476  10.519   2.558   1.912  0.7964  0.2041 -1.6018
24033SOL     OW74477  10.371   0.974   1.578  0.4810  0.0268 -0.2171
24033SOL    HW174478  10.437   0.995   1.645  0.5232  1.4606 -0.6810
24033SOL    HW274479  10.418   0.920   1.515  0.3165 -1.7759  1.1282
24034SOL     OW74480   2.627   6.972   5.949 -0.1078  0.1253  0.4261
24034SOL    HW174481   2.573   6.894   5.947  0.2002 -0.2075  2.3385
24034SOL    HW274482   2.565   7.044   5.936 -0.1502 -0.4006 -3.2760
24035SOL     OW74483   1.768  10.436   0.230  0.0346 -0.1482  0.2045
24035SOL    HW174484   1.698  10.442   0.164 -0.1423  1.2801  0.4991
24035SOL    HW274485   1.849  10.450   0.180  0.1133 -1.3314 -0.0548
24036SOL     OW74486   6.017   5.990   2.739  0.4578 -0.4987  0.2819
24036SOL    HW174487   6.061   5.913   2.775 -1.2879 -0.7712  2.0313
24036SOL    HW274488   5.924   5.973   2.755 -0.0147  1.6225  0.0111
24037SOL     OW74489   7.719  10.271   9.403  0.8638  0.1712 -0.3075
24037SOL    HW174490   7.701  10.199   9.463  1.6283 -0.2994 -0.6328
24037SOL    HW274491   7.789  10.238   9.346  1.2375  1.1757 -0.4459
24038SOL     OW74492   2.250   5.655   0.776 -0.3177  0.5601  0.2080
24038SOL    HW174493   2.313   5.715   0.737 -0.0202 -0.1975 -0.4806
24038SOL    HW274494   2.301   5.601   0.837 -0.5171  0.7240  0.5280
24039SOL     OW74495   7.376   9.404   1.885  0.0715  0.2845  1.0316
24039SOL    HW174496   7.303   9.460   1.860 -0.3631  0.3730  2.4280
24039SOL    HW274497   7.452   9.443   1.841 -0.9540 -1.1054 -2.3427
24040SOL     OW74498   5.951   1.282   1.621  0.9007 -0.0934  0.1949
24040SOL    HW174499   5.970   1.261   1.712  1.9697  0.0048  0.0071
24040SOL    HW274500   6.013   1.351   1.598 -0.4132  1.0160 -0.1598
24041SOL     OW74501   3.010   1.466   8.713 -0.1059 -0.1453 -0.0491
24041SOL    HW174502   3.097   1.493   8.686  0.3352 -2.3431 -1.1087
24041SOL    HW274503   2.998   1.380   8.672 -1.8621 -0.9410  1.9206
24042SOL     OW74504   3.598   2.280   0.377 -0.0381 -0.3337 -0.0534
24042SOL    HW174505   3.611   2.314   0.288 -2.7109 -1.6598 -1.0843
24042SOL    HW274506   3.643   2.196   0.377 -1.8083 -1.3511 -0.9881
24043SOL     OW74507   4.875   4.564   1.984 -0.1074 -0.6251  0.3716
24043SOL    HW174508   4.968   4.554   1.963 -0.6568 -1.5548 -1.8824
24043SOL    HW274509   4.855   4.654   1.960  0.1663 -0.4718  0.7043
24044SOL     OW74510   9.618   1.470   6.218 -0.4978  0.1455  0.0873
24044SOL    HW174511   9.707   1.472   6.252  0.3691 -2.5573 -1.7433
24044SOL    HW274512   9.601   1.560   6.190 -0.3230  1.9686  4.8221
24045SOL     OW74513   7.594   5.980   1.448  0.5728  0.9592  0.3944
24045SOL    HW174514   7.615   5.994   1.541  0.9440  1.5227  0.2360
24045SOL    HW274515   7.511   5.933   1.449  0.7253  0.6839  1.0181
24046SOL     OW74516   2.103   1.412   1.116  0.2680 -0.0727  0.0196
24046SOL    HW174517   2.067   1.332   1.079 -2.6652  1.4506 -0.7956
24046SOL    HW274518   2.081   1.407   1.210  1.4254 -0.8261  0.2697
24047SOL     OW74519   8.380   3.772   9.100  0.0040  0.3304  0.5545
24047SOL    HW174520   8.352   3.739   9.186 -3.5722  3.1226  0.7389
24047SOL    HW274521   8.323   3.728   9.037 -0.4699  1.4343  0.1681
24048SOL     OW74522   2.364   7.756   7.172  0.4492 -0.2613  0.0698
24048SOL    HW174523   2.396   7.838   7.210  0.3153 -0.6094  0.9746
24048SOL    HW274524   2.276   7.746   7.210  0.0891 -0.3451 -0.7795
24049SOL     OW74525   9.982  10.620   1.421  0.0429 -0.0344 -0.3986
24049SOL    HW174526  10.023  10.570   1.491 -0.3390  0.0604 -0.1025
24049SOL    HW274527  10.055  10.650   1.367  0.3039 -0.5302 -0.3279
24050SOL     OW74528   4.000   7.031   8.926 -0.0570 -0.4970  0.2832
24050SOL    HW174529   3.981   7.046   9.019  0.3724 -0.3820  0.3557
24050SOL    HW274530   3.917   7.050   8.881 -0.6910 -1.9533  0.7676
24051SOL     OW74531   5.795   0.601   0.397 -0.3859  0.4158  0.0488
24051SOL    HW174532   5.875   0.635   0.438 -0.4648  0.1142  0.4656
24051SOL    HW274533   5.814   0.598   0.304  0.3095 -0.2081  0.1999
24052SOL     OW74534   2.412   7.292   7.661  0.2560  0.5447  0.6240
24052SOL    HW174535   2.471   7.336   7.722  0.5199 -1.8205  2.2178
24052SOL    HW274536   2.452   7.206   7.646 -1.7157 -0.3580  0.1235
24053SOL     OW74537   1.473   5.223   9.138 -0.0963 -0.2373 -0.3983
24053SOL    HW174538   1.516   5.307   9.158 -1.0364  0.8048 -2.5040
24053SOL    HW274539   1.539   5.157   9.162  1.0028  1.1113  0.5019
24054SOL     OW74540   1.626   9.350   1.347 -0.1737 -0.3359  0.6383
24054SOL    HW174541   1.590   9.270   1.385  0.2669 -0.2887  1.1678
24054SOL    HW274542   1.702   9.321   1.297 -0.1439 -0.2730  0.6477
24055SOL     OW74543   0.915   2.042   6.445 -0.0046  0.4974  0.2582
24055SOL    HW174544   0.889   2.114   6.388 -0.6771  0.3052  0.3210
24055SOL    HW274545   0.943   2.084   6.526  1.8469  0.8435 -0.5073
24056SOL     OW74546  10.584   9.770   6.910 -0.4703 -0.1898 -0.0802
24056SOL    HW174547  10.554   9.853   6.948 -1.6157  0.1335 -1.6243
24056SOL    HW274548  10.564   9.705   6.977 -2.0451  0.4275  0.0954
24057SOL     OW74549   8.578   6.823   8.924  0.3858  0.0707  0.0118
24057SOL    HW174550   8.499   6.833   8.871  0.1443  1.2528  0.5666
24057SOL    HW274551   8.552   6.762   8.994  0.1323  0.0201 -0.1236
24058SOL     OW74552   1.491   8.885  10.211  0.3620  0.3357  0.1617
24058SOL    HW174553   1.465   8.846  10.295  0.5003 -0.0214  0.0360
24058SOL    HW274554   1.489   8.813  10.149 -1.5689  0.9388 -0.5602
24059SOL     OW74555   6.373   9.715   8.023  0.2194  0.4883  0.3542
24059SOL    HW174556   6.434   9.684   8.089 -0.7744  2.3300  2.2618
24059SOL    HW274557   6.353   9.805   8.049 -2.2584  0.4114 -0.9513
24060SOL     OW74558   1.246   0.363   9.346  0.0848 -1.3303  0.2355
24060SOL    HW174559   1.288   0.409   9.274  2.3440  1.9287  3.2556
24060SOL    HW274560   1.155   0.394   9.344  0.7573  0.8512  0.2142
24061SOL     OW74561   2.954  10.010   9.307 -0.1543 -0.1853  0.2742
24061SOL    HW174562   2.924   9.932   9.259  0.5944 -1.2568  1.5061
24061SOL    HW274563   2.899  10.013   9.385  0.6181 -0.1702  0.8268
24062SOL     OW74564  10.379   0.232   0.196  0.9120 -0.7354  0.0108
24062SOL    HW174565  10.284   0.239   0.200  0.9373 -0.3108  0.0043
24062SOL    HW274566  10.403   0.177   0.271  0.7109 -0.2546  0.4386
24063SOL     OW74567  10.273   7.333   1.402  0.1195 -0.1372  0.4113
24063SOL    HW174568  10.237   7.294   1.482 -0.5722 -1.3188 -0.4316
24063SOL    HW274569  10.231   7.418   1.395 -3.5683 -1.8676 -1.0929
24064SOL     OW74570   5.160   5.035   1.575 -0.0447 -0.2016 -0.3530
24064SOL    HW174571   5.203   4.951   1.590 -0.0328 -0.4955 -1.8800
24064SOL    HW274572   5.150   5.073   1.663 -0.2373 -1.8798  0.3900
24065SOL     OW74573   5.338   5.205   6.599 -0.3074  0.4242 -0.0181
24065SOL    HW174574   5.267   5.173   6.543 -1.1827 -0.6931  1.6336
24065SOL    HW274575   5.410   5.145   6.584 -0.8189 -0.3664  0.6321
24066SOL     OW74576   2.448   9.588   6.351  0.1557 -0.3780  0.7874
24066SOL    HW174577   2.386   9.571   6.279  1.1209  0.3409 -0.2486
24066SOL    HW274578   2.500   9.507   6.357 -0.5312 -0.7919  1.3240
24067SOL     OW74579   7.103   1.036   6.911 -0.1856  0.6768 -0.1758
24067SOL    HW174580   7.061   1.036   6.997  1.8154  2.3125  0.8926
24067SOL    HW274581   7.068   1.113   6.866 -0.3280  0.5025 -0.3692
24068SOL     OW74582   8.338   4.192   6.006  0.2072  0.0998  0.5673
24068SOL    HW174583   8.378   4.225   6.086  0.1734  0.5274  0.4098
24068SOL    HW274584   8.412   4.163   5.952  0.2742  0.3972  0.4959
24069SOL     OW74585   5.888   1.662   5.848  0.6877 -0.1919  0.3995
24069SOL    HW174586   5.914   1.576   5.881  0.4645  0.2654  1.8427
24069SOL    HW274587   5.840   1.702   5.921 -0.4006  0.6255 -0.7268
24070SOL     OW74588   0.947   4.953   6.391 -0.9296  0.1473 -0.3036
24070SOL    HW174589   0.969   4.872   6.345 -1.6213 -0.3704  0.2530
24070SOL    HW274590   1.017   5.013   6.367 -0.1479 -0.7527 -0.3621
24071SOL     OW74591   6.140   0.273  10.667 -0.3386  0.7996 -0.2503
24071SOL    HW174592   6.071   0.240  10.608 -1.5839  3.0944 -0.1906
24071SOL    HW274593   6.151   0.364  10.642 -0.1903  1.5806  2.4282
24072SOL     OW74594  10.396   6.972   0.609  0.3307  0.0074 -0.5561
24072SOL    HW174595  10.331   6.903   0.597  0.7402 -0.4797 -0.0253
24072SOL    HW274596  10.364   7.045   0.555 -0.1206 -0.5807 -1.0989
24073SOL     OW74597   7.481   9.326   3.733  0.4568 -0.0169 -0.4753
24073SOL    HW174598   7.413   9.321   3.666  0.9067 -0.2425 -0.9209
24073SOL    HW274599   7.459   9.255   3.794 -0.1575  0.4138 -0.1787
24074SOL     OW74600   1.583   3.435   5.251 -0.0156  0.0345  0.0697
24074SOL    HW174601   1.630   3.433   5.168 -3.1476 -1.2995 -1.8714
24074SOL    HW274602   1.625   3.367   5.304 -0.2877 -1.8924 -1.9889
24075SOL     OW74603   7.781   7.029   3.730  0.0536  0.0127  0.1421
24075SOL    HW174604   7.750   7.105   3.779  0.0546  0.7758 -1.0091
24075SOL    HW274605   7.875   7.025   3.748 -0.1910 -0.6134  1.3742
24076SOL     OW74606   8.762   7.242   6.149 -0.4192  0.5547  0.1836
24076SOL    HW174607   8.811   7.174   6.196 -0.9294  0.0109 -0.0600
24076SOL    HW274608   8.730   7.199   6.070  0.0081  1.3301 -0.4251
24077SOL     OW74609  10.236  10.658   1.300 -0.1362  0.6474  0.2532
24077SOL    HW174610  10.311  10.706   1.337  0.9155  0.4672 -1.4856
24077SOL    HW274611  10.224  10.583   1.358  0.6661  0.9908  0.8916
24078SOL     OW74612   2.391   2.074   1.560 -0.5657 -0.2096 -0.1086
24078SOL    HW174613   2.360   2.058   1.470 -0.4945 -0.3436 -0.1088
24078SOL    HW274614   2.441   1.996   1.583 -1.7130 -0.7807  0.5479
24079SOL     OW74615   0.671   8.858   4.491 -0.3381 -0.2956  0.3194
24079SOL    HW174616   0.765   8.878   4.485 -0.2027 -1.0805 -0.3193
24079SOL    HW274617   0.653   8.860   4.585  0.4560 -0.7241  0.4959
24080SOL     OW74618  10.343   8.994   5.423 -0.2419  0.9460 -0.7103
24080SOL    HW174619  10.380   8.931   5.360 -0.1626  0.8343 -0.5520
24080SOL    HW274620  10.250   8.975   5.425 -0.2437  0.9480 -0.7925
24081SOL     OW74621  10.203   6.538   3.102  0.0479 -0.6250  0.6249
24081SOL    HW174622  10.229   6.528   3.193  1.3084  0.7345  0.4573
24081SOL    HW274623  10.265   6.483   3.053 -0.8243 -1.6020  0.5880
24082SOL     OW74624   0.016   0.780   8.408 -0.1396  0.1667  0.0063
24082SOL    HW174625   0.033   0.742   8.321 -1.2702  1.6543 -0.9009
24082SOL    HW274626  -0.068   0.742   8.434  0.0101  0.0293  0.3015
24083SOL     OW74627   7.842   8.676   8.883 -0.3543  0.4552  0.2329
24083SOL    HW174628   7.750   8.654   8.866  0.2590  0.0380 -3.3381
24083SOL    HW274629   7.881   8.594   8.912 -0.5892 -0.0833 -0.9233
24084SOL     OW74630   1.598   1.422   3.564 -0.4795  0.5131 -0.1308
24084SOL    HW174631   1.520   1.469   3.595 -2.4729 -1.8140 -1.2969
24084SOL    HW274632   1.614   1.356   3.631  0.0351  0.4722 -0.2904
24085SOL     OW74633   2.671   9.571   1.797  0.3404  0.0880 -0.6681
24085SOL    HW174634   2.752   9.586   1.845  0.6163  2.5155 -1.7370
24085SOL    HW274635   2.694   9.584   1.705 -1.0163 -0.4069 -1.1168
24086SOL     OW74636   2.022   2.240   9.061 -0.6958 -0.1523  0.4013
24086SOL    HW174637   2.084   2.182   9.105  3.3623  3.5753  0.2854
24086SOL    HW274638   1.996   2.303   9.128  0.1195  1.5484 -0.8003
24087SOL     OW74639  10.181   0.132   9.273  0.1005 -0.3797  0.6917
24087SOL    HW174640  10.157   0.143   9.365 -0.5177 -4.3535  1.2085
24087SOL    HW274641  10.100   0.145   9.225  0.9170  4.4256  0.1890
24088SOL     OW74642   7.345   1.477  10.564  1.2221 -0.0929 -0.2568
24088SOL    HW174643   7.334   1.561  10.609  0.4196  0.9319 -2.2402
24088SOL    HW274644   7.434   1.450  10.586  0.5871 -0.1314  2.6114
24089SOL     OW74645   6.569   5.022   6.247  0.0086  0.0861 -0.2400
24089SOL    HW174646   6.639   5.084   6.225  0.7464 -1.4562 -2.6376
24089SOL    HW274647   6.488   5.066   6.219  0.1974  1.0754  0.7178
24090SOL     OW74648   6.877  10.639   0.412 -0.0428  0.1260 -0.3022
24090SOL    HW174649   6.960  10.682   0.433 -0.0436  0.4138 -0.8794
24090SOL    HW274650   6.877  10.560   0.466 -0.0305  0.8275  0.7581
24091SOL     OW74651   7.278   1.567   4.060  0.1427  0.1703 -0.2611
24091SOL    HW174652   7.249   1.503   4.124 -0.8814 -0.0777 -0.9534
24091SOL    HW274653   7.345   1.618   4.106 -0.1231 -0.3964  0.7894
24092SOL     OW74654   2.072  10.721   6.542  0.4179  0.4137  0.9583
24092SOL    HW174655   2.099  10.811   6.520  0.5504  0.2384  0.3735
24092SOL    HW274656   2.133  10.693   6.610 -0.9900  1.5390  2.7820
24093SOL     OW74657   4.037   8.073   8.988  0.3547 -0.2895  0.3262
24093SOL    HW174658   4.048   8.010   8.917  0.1161  1.1075 -0.9979
24093SOL    HW274659   3.943   8.080   9.000  0.3100  0.7450 -0.4451
24094SOL     OW74660   6.345   5.177   7.466  0.4396  0.3350  0.5046
24094SOL    HW174661   6.287   5.209   7.535 -2.7719 -0.1925 -1.7374
24094SOL    HW274662   6.344   5.082   7.475  2.9910  0.3222  1.8117
24095SOL     OW74663   9.830   0.680   4.282 -0.1523 -0.1005 -0.0542
24095SOL    HW174664   9.908   0.696   4.230  0.3853 -2.4857 -0.0997
24095SOL    HW274665   9.766   0.647   4.220 -1.5497  2.5516 -0.1599
24096SOL     OW74666   6.008   8.152  10.357 -0.2464 -0.6280  0.3607
24096SOL    HW174667   6.043   8.234  10.323 -1.2478 -1.1683 -2.2211
24096SOL    HW274668   5.974   8.174  10.443 -0.1457  1.5836 -0.1163
24097SOL     OW74669   8.964   2.671   1.768  0.0826 -0.1832  0.2703
24097SOL    HW174670   8.981   2.750   1.716  0.4407 -0.6855 -0.4039
24097SOL    HW274671   8.929   2.703   1.850  1.9714  0.8154  0.7584
24098SOL     OW74672   2.366   3.758   1.965 -0.0053 -0.3583  0.0151
24098SOL    HW174673   2.342   3.851   1.967  3.6296  0.7304  0.0550
24098SOL    HW274674   2.369   3.736   1.872  1.8156  0.4383 -0.1496
24099SOL     OW74675   6.445   9.372   0.821  0.6340  0.2444 -0.0329
24099SOL    HW174676   6.493   9.409   0.896 -0.4495 -0.0421  0.8252
24099SOL    HW274677   6.364   9.338   0.859  0.3255 -0.4339 -1.2608
24100SOL     OW74678   7.536  10.701   0.881 -0.2070  0.3275 -0.0555
24100SOL    HW174679   7.614  10.662   0.842 -0.0620  0.3171  0.2404
24100SOL    HW274680   7.491  10.743   0.808 -0.5352 -0.6761 -0.4409
24101SOL     OW74681   7.248   0.972   3.700 -0.0318 -0.5541 -0.7690
24101SOL    HW174682   7.201   0.994   3.780  0.4821  2.4904 -1.1756
24101SOL    HW274683   7.200   0.898   3.664 -0.6382 -1.6243  1.9985
24102SOL     OW74684   1.116   9.993   3.779  0.0288 -0.4197  0.2851
24102SOL    HW174685   1.113   9.952   3.866 -1.4909 -2.1177 -0.4928
24102SOL    HW274686   1.029   9.975   3.741  0.0153  1.8519 -0.9106
24103SOL     OW74687   8.370   1.820  10.043 -0.0227 -0.1055 -0.0900
24103SOL    HW174688   8.437   1.859  10.100 -0.7343 -0.5097  1.0506
24103SOL    HW274689   8.376   1.726  10.059 -0.2191 -0.2293 -0.7164
24104SOL     OW74690   4.448   6.483   1.759 -0.7557  0.2081 -0.0061
24104SOL    HW174691   4.495   6.558   1.722 -0.0840  0.7587  1.8449
24104SOL    HW274692   4.356   6.512   1.761 -0.7737  0.2569 -0.9687
24105SOL     OW74693   4.719   8.325  10.262 -0.0077  0.0840  0.1922
24105SOL    HW174694   4.724   8.377  10.182 -0.2946 -2.5551 -1.6460
24105SOL    HW274695   4.627   8.330  10.288  0.0867  0.9535  0.3842
24106SOL     OW74696   7.355   6.891   1.553  0.4574 -0.0565  0.2417
24106SOL    HW174697   7.430   6.938   1.517  0.1756  0.0989 -0.1517
24106SOL    HW274698   7.389   6.804   1.574  0.4967 -0.3667 -0.9968
24107SOL     OW74699   4.675   2.772   3.754  0.0914  0.2431 -0.2205
24107SOL    HW174700   4.687   2.799   3.663  2.3887  0.4768  0.0924
24107SOL    HW274701   4.584   2.793   3.774 -1.1093 -1.7928 -3.0748
24108SOL     OW74702   4.758  10.769   6.249  0.3265 -0.0674 -1.4237
24108SOL    HW174703   4.784  10.714   6.323 -0.6368  1.1127 -0.1699
24108SOL    HW274704   4.719  10.708   6.187 -1.5412 -0.7616  0.3126
24109SOL     OW74705  10.776   6.212  10.048  0.0704 -0.2941  0.1417
24109SOL    HW174706  10.832   6.152  10.096  0.5608  0.0800  0.0520
24109SOL    HW274707  10.802   6.201   9.956  0.1499  0.0340  0.1233
24110SOL     OW74708   0.933   1.376   2.268  0.4852 -0.1585 -0.1126
24110SOL    HW174709   0.854   1.399   2.218  1.1992  1.1190 -0.7074
24110SOL    HW274710   0.989   1.333   2.204  0.7582  0.0484 -0.0123
24111SOL     OW74711   2.943   5.600   3.001  0.2266 -0.5444 -0.0346
24111SOL    HW174712   2.853   5.576   3.024  0.5043 -1.7779 -0.1925
24111SOL    HW274713   2.981   5.520   2.966  0.5067  0.6773 -2.7901
24112SOL     OW74714   6.238   9.861   6.489 -0.0010  0.5068 -0.2307
24112SOL    HW174715   6.151   9.846   6.525 -0.7583  0.6721 -1.8858
24112SOL    HW274716   6.275   9.931   6.544 -0.9299  0.4780  0.4557
24113SOL     OW74717   1.253   7.164   6.946 -0.3558  0.1161 -0.2936
24113SOL    HW174718   1.205   7.215   6.881 -0.6057  0.4502  0.1524
24113SOL    HW274719   1.335   7.213   6.958  0.2926 -0.6587 -1.3435
24114SOL     OW74720   5.132   3.440   0.253 -0.0100  0.5066  0.6410
24114SOL    HW174721   5.097   3.403   0.334  0.2156  0.0668  0.5424
24114SOL    HW274722   5.161   3.363   0.203 -1.0028  0.7013 -0.2519
24115SOL     OW74723   9.566   6.082   0.944 -0.1605 -0.2675  0.1997
24115SOL    HW174724   9.614   6.106   1.023 -1.1522  0.6933  0.5363
24115SOL    HW274725   9.474   6.084   0.971 -0.4348 -1.5123 -0.5673
24116SOL     OW74726   4.249   8.349   1.424  0.1416 -0.2410  0.1074
24116SOL    HW174727   4.214   8.433   1.393 -0.3789 -0.3643  0.3493
24116SOL    HW274728   4.252   8.294   1.346  2.5988  0.6631 -0.5524
24117SOL     OW74729   1.094   3.616   1.136  0.4910 -0.2895  0.2752
24117SOL    HW174730   1.043   3.619   1.217  1.3341  0.5073  0.7985
24117SOL    HW274731   1.029   3.624   1.066 -0.2566 -1.1176  0.8661
24118SOL     OW74732   5.039   4.449   8.077  0.2245  0.6265  0.1695
24118SOL    HW174733   5.032   4.377   8.139 -3.1550  0.2978 -0.4388
24118SOL    HW274734   5.120   4.494   8.102  1.9183 -2.6914  1.2138
24119SOL     OW74735   8.060   4.994   5.064 -0.5515 -0.1536  0.4921
24119SOL    HW174736   8.040   4.910   5.022 -1.2780  0.3533 -0.2128
24119SOL    HW274737   8.027   4.985   5.153  0.4321 -1.0202  0.7904
24120SOL     OW74738   9.438   5.324   9.358  0.2806 -0.3655  0.1469
24120SOL    HW174739   9.347   5.349   9.371 -0.4233 -2.9635  0.7188
24120SOL    HW274740   9.485   5.366   9.431 -0.9955 -1.4449  1.6502
24121SOL     OW74741   0.427   5.796   9.966  0.4740 -0.4365 -0.0087
24121SOL    HW174742   0.359   5.862   9.955  0.4234 -0.5870 -0.5784
24121SOL    HW274743   0.423   5.743   9.887 -0.0379 -1.6433  0.7925
24122SOL     OW74744   7.849   8.737   5.720 -0.2964  0.1171  0.0572
24122SOL    HW174745   7.940   8.749   5.748  0.2128  1.6257 -2.0004
24122SOL    HW274746   7.799   8.738   5.802  1.3676  0.8960  1.1317
24123SOL     OW74747  10.360   1.754   6.018 -0.0683 -0.2986  0.2114
24123SOL    HW174748  10.294   1.809   6.059 -0.9854 -0.3379 -1.1237
24123SOL    HW274749  10.310   1.694   5.963  1.0840  0.1036 -1.3511
24124SOL     OW74750   7.318   0.358   2.605  0.0044  0.4996 -0.7949
24124SOL    HW174751   7.326   0.380   2.512  0.6039  0.5816 -0.7296
24124SOL    HW274752   7.393   0.301   2.622 -1.5668 -1.7506 -0.9869
24125SOL     OW74753   3.481   5.212   2.950  0.4682 -0.0805 -0.0227
24125SOL    HW174754   3.453   5.274   2.882 -1.6649  1.3403  2.0176
24125SOL    HW274755   3.482   5.127   2.906  1.2467  1.0390 -2.3353
24126SOL     OW74756   7.397   4.710   2.986  0.2737 -0.4015  0.2728
24126SOL    HW174757   7.328   4.682   2.925  0.9941  0.0737 -0.7791
24126SOL    HW274758   7.390   4.806   2.988 -0.1272 -0.4279  1.4267
24127SOL     OW74759   4.679   0.867   9.593 -0.3621 -1.1171 -0.2724
24127SOL    HW174760   4.597   0.914   9.576  0.2254 -0.7752 -2.4662
24127SOL    HW274761   4.745   0.935   9.598  0.1645 -1.5334 -1.2494
24128SOL     OW74762   6.157   6.162   6.972  0.3732 -0.2962  0.2114
24128SOL    HW174763   6.189   6.235   6.920 -1.2540 -0.6377 -1.3282
24128SOL    HW274764   6.231   6.100   6.973  0.6417 -0.0374 -1.2287
24129SOL     OW74765   6.519   4.311   0.285 -0.0274  0.3597  0.5106
24129SOL    HW174766   6.534   4.380   0.350 -0.3859  0.8837  0.0517
24129SOL    HW274767   6.467   4.354   0.217  0.1919 -0.2291 -0.0355
24130SOL     OW74768   7.065   0.551   5.347  0.1449 -0.0396 -0.0289
24130SOL    HW174769   7.040   0.470   5.392  0.1168 -0.1086 -0.1676
24130SOL    HW274770   6.984   0.582   5.307  0.1554  0.0591  0.0262
24131SOL     OW74771   7.983   9.114   9.775  0.4307 -0.3819 -0.4334
24131SOL    HW174772   8.056   9.167   9.743  0.1702 -0.8292 -1.8801
24131SOL    HW274773   8.009   9.024   9.757  0.4653 -0.7097  1.1362
24132SOL     OW74774   1.130   1.804   4.411 -0.3153 -0.1771 -0.0289
24132SOL    HW174775   1.173   1.859   4.476 -1.4725  2.3875 -1.2714
24132SOL    HW274776   1.199   1.782   4.349 -0.3073  2.4962 -1.1063
24133SOL     OW74777   5.864   0.509   8.561  0.3339  0.1164 -0.3149
24133SOL    HW174778   5.925   0.568   8.606  0.6201 -1.3502  1.3171
24133SOL    HW274779   5.779   0.553   8.568  0.3957  0.0078  1.6029
24134SOL     OW74780   1.507  10.094   5.678 -0.6068  0.0771 -0.1319
24134SOL    HW174781   1.439  10.154   5.648 -1.5877 -0.8059  0.2694
24134SOL    HW274782   1.528  10.124   5.767 -0.7566  0.1066 -0.1070
24135SOL     OW74783   7.390   8.062   5.973 -0.0917  0.0481 -0.3404
24135SOL    HW174784   7.431   8.058   5.886 -0.5669  1.1525 -0.6322
24135SOL    HW274785   7.334   8.140   5.969  0.7108  0.7605  1.3233
24136SOL     OW74786   2.375   5.541   2.870  0.2133  0.1001 -0.1654
24136SOL    HW174787   2.439   5.598   2.827 -0.0508  0.0140 -0.6840
24136SOL    HW274788   2.361   5.581   2.956 -0.6361  1.3384 -0.8428
24137SOL     OW74789   7.337   4.245   8.608 -0.1037  0.3392 -0.0249
24137SOL    HW174790   7.269   4.310   8.586 -1.6732 -1.8037 -2.0190
24137SOL    HW274791   7.304   4.202   8.687 -0.3666  0.2795 -0.1642
24138SOL     OW74792   4.281   8.359   1.922 -0.2492 -0.4075  0.0877
24138SOL    HW174793   4.326   8.389   1.844 -1.4253 -0.7438 -0.7517
24138SOL    HW274794   4.220   8.430   1.944  0.1045 -0.2910  0.7492
24139SOL     OW74795   0.058   6.587   3.622 -0.2561 -0.5560 -0.0477
24139SOL    HW174796   0.034   6.508   3.670 -0.3855 -1.4617 -1.5460
24139SOL    HW274797  -0.013   6.601   3.560  0.0544  0.3961 -0.2157
24140SOL     OW74798   0.709   9.600   7.343  0.3215 -0.3758 -0.0908
24140SOL    HW174799   0.739   9.511   7.363  1.2353 -0.2679 -0.8947
24140SOL    HW274800   0.664   9.629   7.423  1.5385 -0.9242  0.8351
24141SOL     OW74801   1.913   8.633   2.079 -0.6212 -0.0481 -0.1255
24141SOL    HW174802   1.966   8.614   2.156  1.1939  0.9021 -1.0718
24141SOL    HW274803   1.825   8.647   2.113  0.4518  2.1835  2.0406
24142SOL     OW74804   5.582   7.746   0.207 -0.4580  0.5417 -0.5222
24142SOL    HW174805   5.506   7.744   0.265  0.6949  0.3491  1.0525
24142SOL    HW274806   5.589   7.838   0.180 -0.5728  0.7868  0.2618
24143SOL     OW74807   7.724   2.182   3.395  0.4150  0.5660 -0.2352
24143SOL    HW174808   7.641   2.214   3.360 -0.5406 -1.7716 -0.2968
24143SOL    HW274809   7.773   2.153   3.318  1.0251  1.2874 -0.1333
24144SOL     OW74810   8.868   0.292   5.401 -0.8553  0.3863 -0.0183
24144SOL    HW174811   8.905   0.340   5.327 -2.5544  2.1084  0.1449
24144SOL    HW274812   8.819   0.359   5.450 -4.0544 -1.5723 -0.2077
24145SOL     OW74813   2.096   8.158   5.327  0.2589  0.8527  0.0823
24145SOL    HW174814   2.050   8.179   5.245  0.2531 -0.1372 -0.1760
24145SOL    HW274815   2.032   8.111   5.380  0.4829  0.8618  0.3670
24146SOL     OW74816   7.164   9.298   3.849  0.0279 -0.4814  0.4063
24146SOL    HW174817   7.202   9.321   3.934 -1.0696 -0.4144  0.9080
24146SOL    HW274818   7.137   9.207   3.859 -0.2052 -0.4396  0.1787
24147SOL     OW74819   1.169  10.043   8.916 -0.0001 -0.2561 -0.5025
24147SOL    HW174820   1.185  10.045   8.822  0.9769 -1.0433 -0.3670
24147SOL    HW274821   1.106   9.971   8.928 -1.3131  0.8244 -0.6987
24148SOL     OW74822   1.528   0.379  10.625  0.8798  0.2393 -0.1275
24148SOL    HW174823   1.601   0.432  10.655  0.9096  0.6718 -0.9354
24148SOL    HW274824   1.451   0.418  10.668  1.2442 -1.0084  1.7340
24149SOL     OW74825   8.717   2.949   2.027 -0.1876  0.5884  0.3859
24149SOL    HW174826   8.666   2.928   2.105 -1.4014  0.8275 -0.3199
24149SOL    HW274827   8.736   3.042   2.036  0.4549  0.4207  0.8274
24150SOL     OW74828   4.930   7.705   1.753  1.0067  0.1664  0.6824
24150SOL    HW174829   4.857   7.747   1.797  1.9715 -1.5312  4.2483
24150SOL    HW274830   4.936   7.618   1.792  4.1551 -0.2184 -0.3047
24151SOL     OW74831   2.200   1.811   8.559 -0.1666 -0.2934  0.0329
24151SOL    HW174832   2.178   1.872   8.488 -0.0463 -0.0853  0.1753
24151SOL    HW274833   2.193   1.863   8.639  0.6130 -0.2873  0.0990
24152SOL     OW74834   9.206  10.664   1.261 -0.0523  0.2822  0.4915
24152SOL    HW174835   9.138  10.698   1.319  0.3204  0.2393  0.9567
24152SOL    HW274836   9.224  10.736   1.200 -2.4080 -0.5889 -1.3747
24153SOL     OW74837   7.851   2.922   6.118 -0.1290 -0.2571 -0.0721
24153SOL    HW174838   7.814   2.887   6.036  0.8370  0.2394 -0.7451
24153SOL    HW274839   7.869   3.015   6.098 -1.0591  0.1989  1.1204
24154SOL     OW74840   7.088   0.139   2.154  0.5233 -0.1590  0.2505
24154SOL    HW174841   7.169   0.087   2.154  0.2371 -0.6175 -0.7525
24154SOL    HW274842   7.040   0.109   2.077  1.0525  2.7057 -1.3270
24155SOL     OW74843   9.583   6.659   4.113 -0.0035 -0.3809  0.1575
24155SOL    HW174844   9.585   6.714   4.191  0.2440  1.7858 -1.3155
24155SOL    HW274845   9.654   6.692   4.058  0.8931 -2.9221 -0.3536
24156SOL     OW74846   8.393   8.999   2.211 -0.3136  0.5314  0.1722
24156SOL    HW174847   8.316   8.949   2.240  0.8815 -0.8715  1.1111
24156SOL    HW274848   8.446   8.935   2.164 -0.3140  1.8100 -1.6457
24157SOL     OW74849   0.116  10.152   1.455 -0.0390  0.8114  0.3235
24157SOL    HW174850   0.152  10.084   1.512 -0.4110 -0.2821 -0.7035
24157SOL    HW274851   0.189  10.212   1.441  0.3342  0.5632  1.1434
24158SOL     OW74852  10.337   7.551   5.753  0.8976 -0.2622  0.0094
24158SOL    HW174853  10.243   7.562   5.770  1.2977 -0.3855  2.7721
24158SOL    HW274854  10.376   7.542   5.840  3.7412  1.6853 -0.9301
24159SOL     OW74855   5.089   1.463   4.526 -0.3917 -0.1121  0.2756
24159SOL    HW174856   4.999   1.458   4.560 -0.7770 -0.2745 -0.7288
24159SOL    HW274857   5.078   1.473   4.431  0.6589 -1.0904  0.0318
24160SOL     OW74858   4.847   3.637   8.345  0.3219  0.2363 -0.2014
24160SOL    HW174859   4.772   3.580   8.362 -0.5050  1.3157 -0.0850
24160SOL    HW274860   4.842   3.704   8.414  1.8138 -0.0658  0.2328
24161SOL     OW74861  10.008   3.846   8.144  0.0291  0.3028 -0.1971
24161SOL    HW174862   9.969   3.820   8.228 -0.5269  1.2557 -0.1486
24161SOL    HW274863  10.091   3.888   8.169 -0.2914  0.8820 -0.0989
24162SOL     OW74864   7.843   9.967   4.023 -0.9114  0.2958 -0.2444
24162SOL    HW174865   7.926   9.922   4.007 -0.0624  1.7193 -0.0171
24162SOL    HW274866   7.798   9.965   3.939 -0.3563  0.0635 -0.5411
24163SOL     OW74867   7.302  10.170   2.328 -0.2969  0.5116 -0.7881
24163SOL    HW174868   7.352  10.158   2.409  1.4484  0.1737 -1.8556
24163SOL    HW274869   7.265  10.084   2.309  0.6821  0.1601 -1.1883
24164SOL     OW74870   6.076   7.637   0.180  0.0810 -0.0315 -0.4128
24164SOL    HW174871   6.007   7.584   0.141  0.4131 -1.9963  1.4691
24164SOL    HW274872   6.157   7.601   0.146  0.2717  1.7161 -1.9506
24165SOL     OW74873   6.675   0.172   3.098  0.5514 -0.6038 -0.5249
24165SOL    HW174874   6.714   0.254   3.129  2.6418 -0.6908 -2.6309
24165SOL    HW274875   6.741   0.134   3.041  0.3110 -4.6123  1.5291
24166SOL     OW74876   7.175   2.360   7.354  0.5930 -0.3822 -0.3758
24166SOL    HW174877   7.135   2.277   7.330  0.7800 -0.5333 -0.1627
24166SOL    HW274878   7.255   2.365   7.302  1.8469 -1.4591  1.3852
24167SOL     OW74879   2.407   5.605   9.617  0.4574  0.1722  0.0201
24167SOL    HW174880   2.479   5.611   9.679  1.0801 -0.2989 -0.6355
24167SOL    HW274881   2.366   5.691   9.620  1.9195  0.9463 -0.5985
24168SOL     OW74882   7.854   3.071   5.739 -0.2176  0.2382  0.0524
24168SOL    HW174883   7.777   3.128   5.739  0.2672  0.9233 -1.4437
24168SOL    HW274884   7.928   3.130   5.753  0.0640 -0.4370  1.6672
24169SOL     OW74885   0.727   7.104   5.015 -0.2225  0.0646  0.3324
24169SOL    HW174886   0.722   7.141   5.103 -1.0874 -1.0866  0.8091
24169SOL    HW274887   0.704   7.176   4.956  2.7855  1.5488  0.7998
24170SOL     OW74888   0.056   0.364   4.198  0.3254 -0.2925 -0.2582
24170SOL    HW174889   0.081   0.423   4.127 -0.4408  0.4038  0.0487
24170SOL    HW274890   0.061   0.277   4.159  0.4467  0.0458 -1.0074
24171SOL     OW74891   3.078   7.107   2.452 -0.1092 -0.0255  0.5942
24171SOL    HW174892   3.016   7.080   2.520 -1.1823  1.3129  0.1697
24171SOL    HW274893   3.074   7.202   2.452  1.2757  0.0597 -0.0827
24172SOL     OW74894   8.956   8.990   8.199  0.1923  0.3398  0.3353
24172SOL    HW174895   8.881   8.931   8.205  0.4543 -0.1232 -0.5947
24172SOL    HW274896   8.935   9.048   8.126  0.5286  0.5044  0.3691
24173SOL     OW74897  10.464   7.944   4.270  0.4622  0.2578 -0.0964
24173SOL    HW174898  10.520   7.940   4.192  0.9536 -1.6256  0.2880
24173SOL    HW274899  10.525   7.948   4.343  0.0376  0.4948  0.2489
24174SOL     OW74900   2.264   1.962   6.633  0.7794  0.3933  0.5259
24174SOL    HW174901   2.219   1.893   6.682 -0.0367  0.9893  0.6464
24174SOL    HW274902   2.271   2.035   6.695  0.8441  0.7183  0.1397
24175SOL     OW74903   9.358   0.584   7.493 -0.3851  0.2267 -0.1734
24175SOL    HW174904   9.295   0.654   7.507 -2.1954 -1.2379 -0.6736
24175SOL    HW274905   9.368   0.542   7.578 -0.2996  0.2841 -0.1550
24176SOL     OW74906   4.433   6.384   3.245 -0.3694 -0.1866  0.2175
24176SOL    HW174907   4.434   6.343   3.331  0.1810  0.0117  0.3094
24176SOL    HW274908   4.464   6.315   3.186  1.3935  0.3159  0.4875
24177SOL     OW74909   0.549   8.477   4.442  0.3151  0.4319  0.2023
24177SOL    HW174910   0.644   8.481   4.437  0.5883 -2.9029  0.8240
24177SOL    HW274911   0.528   8.517   4.527  1.1268  1.1830  0.0601
24178SOL     OW74912   4.186   4.091   5.157  0.1108  0.0051  0.0378
24178SOL    HW174913   4.112   4.149   5.140  1.6437  2.1939  0.5063
24178SOL    HW274914   4.172   4.059   5.246 -1.1415 -1.0179 -0.5001
24179SOL     OW74915   6.061   8.415   5.121  0.1606 -0.0268  0.2598
24179SOL    HW174916   6.089   8.419   5.030  0.2206  0.3336  0.2930
24179SOL    HW274917   5.969   8.386   5.117 -0.2979  1.4065 -0.0048
24180SOL     OW74918   6.637   7.092   5.587  0.4790  0.3996 -0.1924
24180SOL    HW174919   6.594   7.087   5.672  0.2891 -0.5536 -0.3391
24180SOL    HW274920   6.612   7.177   5.552 -1.4528 -0.2027 -0.3640
24181SOL     OW74921   4.650   8.507   6.682  0.0972 -0.1582  0.1328
24181SOL    HW174922   4.612   8.466   6.604 -1.2160  2.1325 -0.5341
24181SOL    HW274923   4.702   8.580   6.648 -2.4589  2.4275  1.3468
24182SOL     OW74924   4.708   9.929   2.653  0.8012 -0.4252  0.0493
24182SOL    HW174925   4.728   9.852   2.706  1.6525  0.2820  0.8066
24182SOL    HW274926   4.790   9.980   2.653  0.6075 -0.0710 -1.3821
24183SOL     OW74927   3.452   9.830   4.104  0.0323 -0.4212  0.6498
24183SOL    HW174928   3.445   9.851   4.197 -2.4077  0.8726  0.2771
24183SOL    HW274929   3.542   9.851   4.081  0.9108 -1.4995  2.8410
24184SOL     OW74930   3.664   2.746   6.942  0.0816 -0.3603 -0.3190
24184SOL    HW174931   3.597   2.731   7.008  0.1040 -0.6546 -0.3601
24184SOL    HW274932   3.630   2.818   6.888  0.4681  0.4990  0.5549
24185SOL     OW74933   4.704   6.568   1.649  0.4326 -0.7622  0.2292
24185SOL    HW174934   4.729   6.648   1.604 -0.5333  0.7608  2.2368
24185SOL    HW274935   4.700   6.502   1.580  3.4728  0.3273 -1.1723
24186SOL     OW74936   4.820   2.556   3.279  0.2933  0.6137  0.1106
24186SOL    HW174937   4.880   2.585   3.211 -1.1367  2.7617 -0.3664
24186SOL    HW274938   4.853   2.596   3.359 -0.0378  1.1559 -0.0155
24187SOL     OW74939   2.753   6.267   5.470  0.3185  0.2125  0.0895
24187SOL    HW174940   2.783   6.186   5.429 -2.3239  0.3481 -2.3722
24187SOL    HW274941   2.702   6.238   5.546  0.7570 -0.3248  0.1881
24188SOL     OW74942   5.622   4.407   5.552  0.4621  0.0778 -0.1804
24188SOL    HW174943   5.715   4.393   5.574  0.1339 -0.6720  0.8272
24188SOL    HW274944   5.586   4.318   5.546 -0.0155  0.3320 -1.4512
24189SOL     OW74945   2.895   0.157  10.062  0.3603 -0.3615  0.0294
24189SOL    HW174946   2.824   0.220  10.049 -0.5028 -1.1337  0.8412
24189SOL    HW274947   2.943   0.191  10.137  0.0608 -0.5011  0.2913
24190SOL     OW74948   3.202   2.893   7.230 -0.3061  0.0775  0.0783
24190SOL    HW174949   3.131   2.953   7.207  0.3861  0.3548 -1.4419
24190SOL    HW274950   3.279   2.929   7.186  0.9256  0.0570  2.0725
24191SOL     OW74951   9.301   9.331   2.421  0.4840 -0.4843 -0.1044
24191SOL    HW174952   9.255   9.373   2.493 -0.7006 -0.8691 -0.6018
24191SOL    HW274953   9.237   9.330   2.349  1.0403 -1.6440 -0.6155
24192SOL     OW74954   1.825   4.974   2.117  0.1039 -0.2118 -0.0667
24192SOL    HW174955   1.833   4.891   2.163 -2.4800 -0.6886 -0.3005
24192SOL    HW274956   1.813   4.949   2.025 -0.3985  0.4223 -0.1788
24193SOL     OW74957   4.430   4.596   4.369  0.0146 -0.0151 -0.2178
24193SOL    HW174958   4.434   4.542   4.448 -1.8307  0.0921 -0.0128
24193SOL    HW274959   4.521   4.598   4.337  0.3648 -2.0917  0.4981
24194SOL     OW74960   5.292   8.759   4.197 -0.7200 -0.4113 -0.1334
24194SOL    HW174961   5.297   8.664   4.182  1.0945 -0.3961  0.2146
24194SOL    HW274962   5.310   8.798   4.111 -1.2144 -0.3707 -0.2217
24195SOL     OW74963  10.439   2.921   8.213  0.1833 -0.3322  0.0412
24195SOL    HW174964  10.457   3.012   8.190  1.3966 -0.2596  1.2067
24195SOL    HW274965  10.419   2.922   8.306 -1.8004 -1.0170 -0.3264
24196SOL     OW74966   8.446   3.165   2.711  0.2337 -0.2890 -0.1853
24196SOL    HW174967   8.371   3.142   2.766  0.4587 -1.1034 -0.2002
24196SOL    HW274968   8.410   3.219   2.641 -0.0464  0.8552  0.8059
24197SOL     OW74969   0.320   4.121   6.930 -0.4348  0.1872  0.0290
24197SOL    HW174970   0.306   4.030   6.905 -0.4471  0.1266  0.2554
24197SOL    HW274971   0.259   4.171   6.875 -1.3162 -0.0481  0.7694
24198SOL     OW74972  10.406  10.524  10.453 -0.0652 -0.9316 -0.1434
24198SOL    HW174973  10.370  10.595  10.507  1.8653  0.5594 -0.7012
24198SOL    HW274974  10.383  10.444  10.500 -3.4578 -0.1179 -0.1407
24199SOL     OW74975   0.886   4.564   2.840  0.1737  0.4307  0.3168
24199SOL    HW174976   0.798   4.548   2.806  0.2705 -1.8004  0.9627
24199SOL    HW274977   0.891   4.659   2.851 -1.9913  0.6400 -0.1166
24200SOL     OW74978   0.291   8.591   6.562 -0.2752 -0.0946 -0.0533
24200SOL    HW174979   0.236   8.571   6.487  0.1993 -0.9581 -0.1878
24200SOL    HW274980   0.330   8.507   6.586  0.3157  0.3451  0.5674
24201SOL     OW74981   6.948   0.872   5.600 -0.1663 -0.2958 -0.6247
24201SOL    HW174982   6.930   0.961   5.628 -1.3520  0.2112 -2.7793
24201SOL    HW274983   6.915   0.817   5.671  1.6966  0.9534  1.2844
24202SOL     OW74984   2.572   9.040   8.946 -0.5871  0.2398 -0.4402
24202SOL    HW174985   2.639   8.979   8.916 -0.8451 -0.4589  0.3657
24202SOL    HW274986   2.541   9.083   8.866  1.4946  1.3191 -0.7379
24203SOL     OW74987   1.527  10.694   1.485  0.9470 -0.2925  0.6650
24203SOL    HW174988   1.530  10.763   1.419 -0.0482 -0.0652  0.8308
24203SOL    HW274989   1.617  10.683   1.513  1.1556  0.7974  0.4811
24204SOL     OW74990   5.192   8.040   6.275  0.8338 -0.0807 -0.4798
24204SOL    HW174991   5.211   7.967   6.334  1.6473  0.2368 -0.3386
24204SOL    HW274992   5.163   8.111   6.332  0.3387 -0.1934 -0.5878
24205SOL     OW74993   3.809   4.108   8.861  0.3960  0.0650  0.1329
24205SOL    HW174994   3.858   4.190   8.855  2.6651 -1.2834 -1.3540
24205SOL    HW274995   3.720   4.131   8.836  0.8785  2.1582  0.1983
24206SOL     OW74996   4.723   5.229   9.210  0.4463  0.3336 -0.4720
24206SOL    HW174997   4.657   5.280   9.257  0.0558  0.3368 -1.0116
24206SOL    HW274998   4.731   5.273   9.126  2.5830  1.5313  0.2702
24207SOL     OW74999   0.178   2.985   2.864  0.3349  0.2694 -0.1779
24207SOL    HW175000   0.139   2.899   2.852  2.5215 -0.8148  0.0449
24207SOL    HW275001   0.147   3.014   2.950 -1.0140  0.0572 -0.5833
24208SOL     OW75002   6.473   6.107   8.165 -0.3270 -0.1587 -0.2659
24208SOL    HW175003   6.540   6.128   8.230  0.0043  2.8665 -1.4124
24208SOL    HW275004   6.517   6.046   8.105  0.3143 -0.7054  0.7294
24209SOL     OW75005   6.899   2.814   5.720  0.1776 -0.1534  0.2047
24209SOL    HW175006   6.952   2.852   5.790  1.6919 -1.0662 -0.3987
24209SOL    HW275007   6.962   2.767   5.665 -1.3327 -1.8275 -0.2013
24210SOL     OW75008  10.019   3.964   0.587  0.4739 -0.0482 -0.0438
24210SOL    HW175009  10.077   4.040   0.580  2.3502 -1.3226  0.8673
24210SOL    HW275010   9.969   3.979   0.667  2.2058 -0.6119  1.1972
24211SOL     OW75011   2.005   5.827   5.532  0.4530  0.1239 -0.8034
24211SOL    HW175012   1.918   5.842   5.568  1.3368 -0.6308  1.9078
24211SOL    HW275013   2.056   5.904   5.557  1.3286 -0.8278  0.4579
24212SOL     OW75014   1.821   0.945   0.423 -0.1477 -0.5405 -0.1748
24212SOL    HW175015   1.815   0.992   0.507  1.9932  2.0092 -1.3296
24212SOL    HW275016   1.896   0.886   0.434 -0.4284 -0.8793 -0.0343
24213SOL     OW75017   9.078   0.504   2.779 -0.2058  0.6653  0.5701
24213SOL    HW175018   8.993   0.466   2.801  0.4419  0.0279  2.0567
24213SOL    HW275019   9.071   0.595   2.806 -0.3580  0.5734  0.8396
24214SOL     OW75020   5.661   0.336  10.204 -0.0525 -0.7600 -0.2705
24214SOL    HW175021   5.624   0.255  10.242  1.3892 -0.8579  1.0287
24214SOL    HW275022   5.603   0.356  10.131 -1.8883 -1.6294  0.8553
24215SOL     OW75023   3.105   6.167   0.138 -0.4073  0.0287  0.5528
24215SOL    HW175024   3.170   6.097   0.137 -0.0504  0.3019 -1.9122
24215SOL    HW275025   3.157   6.247   0.130 -0.9516  0.2663 -1.1163
24216SOL     OW75026   0.140   2.327   4.012 -0.6683  0.1556  0.1208
24216SOL    HW175027   0.187   2.357   4.089 -0.6209  0.0862  0.1184
24216SOL    HW275028   0.059   2.379   4.012 -1.8232 -1.5064  1.5739
24217SOL     OW75029   8.163   1.838   2.547 -0.2632 -0.8012 -0.7159
24217SOL    HW175030   8.117   1.758   2.569 -0.0085 -0.9119 -0.5795
24217SOL    HW275031   8.182   1.830   2.453  1.2681 -1.6884 -0.3649
24218SOL     OW75032   3.984   3.188  10.520 -0.2233  0.1448  0.8044
24218SOL    HW175033   3.906   3.157  10.475  0.1011  0.5442 -0.0684
24218SOL    HW275034   3.955   3.207  10.609 -1.0931  0.1822  0.5219
24219SOL     OW75035   2.666   4.327   9.534 -0.0269  0.2215  0.1119
24219SOL    HW175036   2.643   4.252   9.589  1.1299 -0.9067 -0.8458
24219SOL    HW275037   2.745   4.363   9.574  1.2120 -1.0160 -1.0927
24220SOL     OW75038   5.870   7.821   5.276  0.2205  0.0719 -0.0541
24220SOL    HW175039   5.788   7.865   5.299  1.1523  1.3290  1.0132
24220SOL    HW275040   5.857   7.793   5.185 -1.8881 -0.9882  0.5093
24221SOL     OW75041   4.022   0.052   0.434 -0.2150 -0.8420 -0.4884
24221SOL    HW175042   4.106   0.089   0.407 -0.9320  0.0079 -1.6587
24221SOL    HW275043   4.045  -0.013   0.500  1.0806  2.3267  2.4683
24222SOL     OW75044   7.963   0.445   4.358  0.2470 -0.0534 -0.1358
24222SOL    HW175045   8.016   0.378   4.315  0.1551 -0.2261  0.0173
24222SOL    HW275046   7.960   0.517   4.296  0.2428 -0.2419 -0.3546
24223SOL     OW75047   2.914   4.315   9.054 -0.0401  0.6183  0.1059
24223SOL    HW175048   2.893   4.307   8.961  0.1889  1.8183 -0.0613
24223SOL    HW275049   2.850   4.258   9.097 -0.1449  0.0393 -0.7708
24224SOL     OW75050   1.086   3.815   2.604  0.0215 -0.4522  0.2522
24224SOL    HW175051   1.114   3.817   2.512  0.6175 -1.9426  0.3605
24224SOL    HW275052   1.083   3.721   2.625 -2.0304 -0.2284  1.1874
24225SOL     OW75053   8.779   0.563   1.333  0.4709 -0.2861  0.2831
24225SOL    HW175054   8.817   0.563   1.245 -0.4481  0.7920 -0.1467
24225SOL    HW275055   8.723   0.640   1.334 -1.0778 -1.3631  1.1396
24226SOL     OW75056  10.604   5.058   9.914 -0.3034  0.3764 -0.2430
24226SOL    HW175057  10.568   5.078   9.828  0.4636  0.6689 -0.5005
24226SOL    HW275058  10.672   4.994   9.898 -1.3326 -0.9094  0.3570
24227SOL     OW75059   2.631   6.256   2.763  0.8968 -0.0526  0.0622
24227SOL    HW175060   2.676   6.263   2.679  0.4735 -1.4315 -0.3059
24227SOL    HW275061   2.635   6.163   2.785  1.6597  0.3857  1.9651
24228SOL     OW75062   1.334   9.564   2.658 -0.5013 -0.2269  0.1383
24228SOL    HW175063   1.289   9.486   2.689 -0.3141 -0.5470 -0.3682
24228SOL    HW275064   1.421   9.559   2.697 -0.8332  0.2980  0.9742
24229SOL     OW75065   7.767   8.963   6.085 -0.0038 -0.7438  0.2829
24229SOL    HW175066   7.854   8.981   6.121 -1.1041  0.6387  2.5296
24229SOL    HW275067   7.743   9.044   6.040 -0.1685 -1.0699 -0.2105
24230SOL     OW75068   1.489   5.038   5.212  0.0098 -0.0746  0.8227
24230SOL    HW175069   1.489   5.133   5.223  0.1113 -0.0390  0.5360
24230SOL    HW275070   1.580   5.013   5.226  0.3737  0.1072 -0.9747
24231SOL     OW75071   7.708   4.180   1.334 -0.4561 -0.1116  0.0830
24231SOL    HW175072   7.620   4.187   1.369 -0.2698  0.3582  0.4702
24231SOL    HW275073   7.747   4.266   1.348  0.4579 -0.6451  1.0097
24232SOL     OW75074  10.616   1.850   5.949 -0.0958  0.2346  0.3999
24232SOL    HW175075  10.529   1.812   5.962 -0.5719  1.4026  0.8140
24232SOL    HW275076  10.615   1.879   5.858  0.0329 -0.1702  0.2692
24233SOL     OW75077   3.492   5.108  10.777  0.2774  0.0226 -0.4289
24233SOL    HW175078   3.582   5.076  10.782  0.3308  0.0858 -0.9094
24233SOL    HW275079   3.441   5.033  10.747  0.4537  0.4544 -1.8624
24234SOL     OW75080   5.859   4.759   2.106 -0.4302  0.1774  0.1031
24234SOL    HW175081   5.888   4.672   2.132 -0.1268  1.1886  3.6857
24234SOL    HW275082   5.775   4.744   2.063 -1.6868 -1.7896  2.9257
24235SOL     OW75083   9.794   7.650   7.029 -0.3900  0.0336  0.0031
24235SOL    HW175084   9.757   7.704   6.960  1.6892  0.8702 -0.5455
24235SOL    HW275085   9.889   7.659   7.019  0.0553 -2.7175  0.6973
24236SOL     OW75086   6.597   3.986   6.818 -0.1239 -0.3058  0.1257
24236SOL    HW175087   6.535   3.939   6.762 -1.0565 -0.4843  1.2730
24236SOL    HW275088   6.555   4.071   6.833  0.0034 -0.3528  0.7438
24237SOL     OW75089  10.162   5.565   3.161 -0.5045  0.1111 -0.1674
24237SOL    HW175090  10.199   5.548   3.248 -0.3069 -2.4416 -0.6540
24237SOL    HW275091  10.231   5.540   3.100 -2.5254 -4.4388 -1.0981
24238SOL     OW75092   5.883   6.801   1.513 -0.0984 -0.4936 -0.3674
24238SOL    HW175093   5.966   6.849   1.515 -0.0093 -0.5089 -2.1053
24238SOL    HW275094   5.909   6.709   1.507 -0.2379 -0.5277 -0.4582
24239SOL     OW75095   4.552   5.428   9.618 -0.1655  0.6816 -0.1677
24239SOL    HW175096   4.632   5.410   9.666 -0.0530  1.3675 -0.0837
24239SOL    HW275097   4.511   5.342   9.605  0.5801  0.3285 -0.2214
24240SOL     OW75098   8.308   6.130   5.845 -0.0660 -0.2892  0.2978
24240SOL    HW175099   8.258   6.068   5.792  0.9903 -1.6171  0.7975
24240SOL    HW275100   8.302   6.094   5.934 -1.1228  1.4436  0.9728
24241SOL     OW75101   7.293   3.520   4.894 -0.3273 -0.0369 -0.2759
24241SOL    HW175102   7.325   3.610   4.900 -0.3026 -0.1507  3.1887
24241SOL    HW275103   7.372   3.466   4.904 -0.6484 -0.3988  0.3430
24242SOL     OW75104   1.641   0.902   0.768  0.3060 -0.2337 -0.3845
24242SOL    HW175105   1.683   0.988   0.756 -1.1672  0.4120 -1.3083
24242SOL    HW275106   1.677   0.848   0.697  1.7449 -0.6156  0.6063
24243SOL     OW75107   5.864   8.482   1.370  0.4602  0.2745  0.1303
24243SOL    HW175108   5.853   8.553   1.308 -0.9630 -1.4130 -1.6911
24243SOL    HW275109   5.943   8.436   1.341  0.4370  0.1351  0.2851
24244SOL     OW75110   8.047   9.589   7.681  0.2540 -0.1777 -0.2199
24244SOL    HW175111   8.108   9.551   7.744  1.0309 -1.6259 -1.7773
24244SOL    HW275112   8.101   9.650   7.629  0.2087 -0.8193 -1.0407
24245SOL     OW75113   3.288   0.569   9.056 -0.4825 -0.2124 -0.3235
24245SOL    HW175114   3.360   0.598   9.112 -0.6170 -0.0750 -0.2201
24245SOL    HW275115   3.270   0.479   9.085 -1.2074  0.1925  0.5364
24246SOL     OW75116   2.096  10.046   1.463  0.0162  0.4805 -0.6311
24246SOL    HW175117   2.191  10.053   1.473 -0.2635  2.4649  1.2853
24246SOL    HW275118   2.085  10.002   1.379  2.6168 -0.3471 -0.6540
24247SOL     OW75119   4.829   2.327   4.200 -0.6862  0.4202  0.4554
24247SOL    HW175120   4.894   2.361   4.139  1.2942  0.8589  2.6802
24247SOL    HW275121   4.807   2.240   4.165  0.2353  0.7222 -0.9659
24248SOL     OW75122   9.649   1.325   0.737  0.2372  0.0746 -0.2793
24248SOL    HW175123   9.595   1.255   0.701 -0.8499 -0.5204  2.2966
24248SOL    HW275124   9.607   1.405   0.707 -1.7623 -0.3867  1.0926
24249SOL     OW75125   7.074   1.487   8.015 -0.2752  0.2130 -0.2261
24249SOL    HW175126   7.123   1.411   8.046 -0.2212  0.2852 -0.1322
24249SOL    HW275127   7.104   1.500   7.925  0.5210  0.7792  0.1122
24250SOL     OW75128   9.595   7.376   3.700 -0.0380 -0.2132 -0.0914
24250SOL    HW175129   9.537   7.409   3.631 -1.2760  0.3730  1.1876
24250SOL    HW275130   9.682   7.381   3.662 -0.4980  1.7746 -1.0164
24251SOL     OW75131   0.063   6.767   9.910  0.5009  0.6732  0.0589
24251SOL    HW175132  -0.021   6.782   9.867  0.6925 -0.3608 -0.7225
24251SOL    HW275133   0.099   6.854   9.926 -0.6323  1.1182  0.2393
24252SOL     OW75134   3.991   0.839   2.096  0.1443 -0.4451  0.5131
24252SOL    HW175135   3.920   0.849   2.033  1.4822  3.2939 -0.6809
24252SOL    HW275136   3.961   0.887   2.174  0.1705 -1.5049  1.1989
24253SOL     OW75137   3.303   8.107  10.709  0.4067  0.1746  0.2908
24253SOL    HW175138   3.314   8.144  10.797  0.6252  1.0934 -0.1128
24253SOL    HW275139   3.241   8.036  10.721 -0.3132  0.8994  1.0425
24254SOL     OW75140   6.942   9.627   9.404 -0.0007  0.2326  0.3295
24254SOL    HW175141   6.979   9.639   9.317  2.0072  0.5608  1.1713
24254SOL    HW275142   6.975   9.701   9.455 -1.2976  0.1661  1.3403
24255SOL     OW75143   9.710   5.167   4.378  0.0081 -0.6524 -0.0331
24255SOL    HW175144   9.781   5.104   4.392  0.4488  0.1387  1.6141
24255SOL    HW275145   9.632   5.120   4.406  0.0689 -1.0646 -0.5345
24256SOL     OW75146   5.880   2.685   7.414  0.2904  0.0718  0.7967
24256SOL    HW175147   5.910   2.764   7.459  1.3155  1.5204 -2.1356
24256SOL    HW275148   5.786   2.697   7.404  0.2223  0.2301  1.5937
24257SOL     OW75149   8.851   8.868   6.814 -0.9822  0.3095 -0.0784
24257SOL    HW175150   8.899   8.790   6.842  2.0739  2.4192  1.1259
24257SOL    HW275151   8.839   8.918   6.894 -2.5605  1.2551 -0.8755
24258SOL     OW75152   0.266   4.833   4.913  0.0554 -0.0523 -0.4119
24258SOL    HW175153   0.324   4.815   4.839 -0.1721  3.2549 -1.5110
24258SOL    HW275154   0.213   4.908   4.886 -1.0906  0.3510  2.5461
24259SOL     OW75155   6.162   2.967   0.492 -0.4780 -0.3613  0.1823
24259SOL    HW175156   6.177   3.058   0.518 -0.0644 -0.5691  0.6916
24259SOL    HW275157   6.148   2.920   0.574 -1.1788 -0.6729 -0.1108
24260SOL     OW75158   1.506   7.645   3.454 -0.0725  0.2906 -0.0594
24260SOL    HW175159   1.525   7.551   3.453  0.9300  0.4813 -0.2658
24260SOL    HW275160   1.490   7.665   3.546  0.1322 -0.0128  0.0449
24261SOL     OW75161  10.198   8.853   3.952 -0.3446  0.5687  0.1036
24261SOL    HW175162  10.218   8.895   4.035 -0.0592  0.0956  0.2786
24261SOL    HW275163  10.184   8.761   3.974 -1.3644  0.6371 -0.2168
24262SOL     OW75164   1.036   1.928   7.227  0.9563  0.0761 -0.4631
24262SOL    HW175165   1.038   1.995   7.158  2.4574  0.1496 -0.3894
24262SOL    HW275166   0.964   1.870   7.203  1.4085  0.1338 -2.0660
24263SOL     OW75167   7.900   0.085   4.466  0.1542  0.1945  0.0731
24263SOL    HW175168   7.828   0.131   4.509 -1.7735 -1.0618 -1.6320
24263SOL    HW275169   7.905   0.001   4.512  0.0313 -0.0100 -0.2848
24264SOL     OW75170   5.532   2.729   8.103  0.3455  0.3949  0.6056
24264SOL    HW175171   5.437   2.722   8.093  0.1845  2.2791  0.4579
24264SOL    HW275172   5.544   2.782   8.182  1.2346  0.9505  0.1178
24265SOL     OW75173   9.474   6.868   1.384 -0.3570 -0.4264  0.1107
24265SOL    HW175174   9.419   6.916   1.445 -1.0744  0.2964 -1.0677
24265SOL    HW275175   9.546   6.833   1.438  0.0658  1.7637  1.0451
24266SOL     OW75176  10.159   7.258   0.126  0.3930  0.3314 -0.1993
24266SOL    HW175177  10.241   7.210   0.123  0.7144  0.9050 -2.4258
24266SOL    HW275178  10.182   7.344   0.158  0.4176  0.1053  0.4060
24267SOL     OW75179   1.543   3.051   3.388 -0.1227  0.2212 -0.2919
24267SOL    HW175180   1.605   3.028   3.318  1.1176 -0.0762  0.8546
24267SOL    HW275181   1.598   3.090   3.456 -0.5765 -2.9392  2.1307
24268SOL     OW75182   1.485   9.820   3.557 -0.0729 -0.0013 -0.7708
24268SOL    HW175183   1.413   9.762   3.532 -1.1450  0.2061  1.5552
24268SOL    HW275184   1.453   9.908   3.537 -0.0386  0.0310 -0.6820
24269SOL     OW75185  10.537   7.064   7.881 -0.4324 -0.5171 -0.2000
24269SOL    HW175186  10.515   7.035   7.970 -0.4731  0.2399  0.0441
24269SOL    HW275187  10.632   7.068   7.880 -0.4166 -0.9499 -0.3269
24270SOL     OW75188   7.749   5.923   1.251  0.3229  0.2988  0.4366
24270SOL    HW175189   7.825   5.980   1.250  1.1341 -0.7609 -0.5661
24270SOL    HW275190   7.717   5.928   1.341 -0.0277  2.7849  0.2507
24271SOL     OW75191   0.981   5.437   3.541  0.1096  0.1362 -0.4177
24271SOL    HW175192   0.923   5.446   3.466  0.8192 -0.1969 -1.0228
24271SOL    HW275193   1.069   5.452   3.505  0.2878  2.4568  0.8089
24272SOL     OW75194   6.009   4.147   7.101  0.3056  0.4317 -0.0808
24272SOL    HW175195   5.935   4.119   7.047  1.5038  0.3944 -1.7949
24272SOL    HW275196   6.041   4.067   7.142  1.1983 -0.1276 -1.7344
24273SOL     OW75197   7.877   8.254   0.005  0.2502  0.4688  0.4781
24273SOL    HW175198   7.963   8.272   0.041  0.6266 -0.9105  0.3154
24273SOL    HW275199   7.858   8.164   0.032  1.2445 -1.3155 -4.0048
24274SOL     OW75200   8.790   2.410   3.702 -0.5638 -0.4070  0.0779
24274SOL    HW175201   8.878   2.438   3.726 -0.3458 -1.5474  0.6630
24274SOL    HW275202   8.744   2.491   3.680  0.3710  0.2856  0.6199
24275SOL     OW75203   7.993   8.243   9.142 -0.4580  0.0505 -0.3301
24275SOL    HW175204   8.026   8.155   9.157 -1.0694 -0.1860 -0.3668
24275SOL    HW275205   8.072   8.295   9.123 -0.0409 -0.3714  0.2100
24276SOL     OW75206   0.583   1.696   1.390  0.1581  0.1103 -0.0998
24276SOL    HW175207   0.664   1.645   1.388  1.2037  1.6841 -0.1354
24276SOL    HW275208   0.573   1.727   1.300 -0.0218  0.5816  0.0790
24277SOL     OW75209   6.315   1.787   9.036 -0.1286  0.2501  0.2670
24277SOL    HW175210   6.312   1.881   9.020 -1.9273 -0.0181 -1.3310
24277SOL    HW275211   6.224   1.762   9.052 -0.8358 -2.0026 -5.1682
24278SOL     OW75212   2.026   6.994   0.236 -0.0960 -0.6253  0.6567
24278SOL    HW175213   2.065   7.071   0.194 -0.7063  0.4284  1.9233
24278SOL    HW275214   2.020   7.018   0.329 -1.0921 -1.8660  0.9421
24279SOL     OW75215   2.773   7.967   0.423 -0.5264  0.0146  0.4875
24279SOL    HW175216   2.725   8.050   0.431  2.0096  1.5805  0.4447
24279SOL    HW275217   2.770   7.929   0.511 -0.1800  1.0710  0.9669
24280SOL     OW75218   0.810   1.834   4.771  0.2851 -0.5882  0.7030
24280SOL    HW175219   0.771   1.921   4.764 -0.0502 -0.8415 -1.7385
24280SOL    HW275220   0.830   1.810   4.680  0.4456 -3.0298  1.3183
24281SOL     OW75221   1.754   1.528   0.527  0.6814  0.1102  0.1532
24281SOL    HW175222   1.795   1.544   0.442  1.9449  0.3318  0.7854
24281SOL    HW275223   1.778   1.439   0.550 -1.2160 -0.6441 -0.5298
24282SOL     OW75224  10.495   4.644   4.907 -0.0646  0.0339  0.4378
24282SOL    HW175225  10.546   4.696   4.844 -0.6214 -0.1862 -0.2066
24282SOL    HW275226  10.420   4.613   4.857 -1.2614  0.9999  1.5627
24283SOL     OW75227   0.259   9.686   8.927 -0.1531 -0.0260 -0.1580
24283SOL    HW175228   0.192   9.661   8.990 -0.3462 -0.4671 -0.5303
24283SOL    HW275229   0.213   9.740   8.863 -0.0572  0.0369 -0.1744
24284SOL     OW75230   1.096   7.370   1.014 -0.3159  0.3108 -0.4468
24284SOL    HW175231   1.164   7.376   0.946 -2.1672 -0.5886 -2.5304
24284SOL    HW275232   1.110   7.447   1.069  1.6824  0.7466 -1.4610
24285SOL     OW75233   1.905   6.231   5.034 -0.1588 -0.0349 -0.1567
24285SOL    HW175234   1.982   6.176   5.019 -0.3105  0.3048 -2.6902
24285SOL    HW275235   1.939   6.305   5.084  0.9045 -0.4689 -0.1896
24286SOL     OW75236   3.089   4.335   4.788 -0.4309  0.5599 -0.2686
24286SOL    HW175237   3.040   4.398   4.841  1.3776  0.8815  1.1152
24286SOL    HW275238   3.093   4.256   4.842 -0.3236  0.1832 -0.8206
24287SOL     OW75239   0.728   2.413   0.985  0.4246  0.5182 -0.7596
24287SOL    HW175240   0.716   2.508   0.988  0.3719  0.4979  1.0622
24287SOL    HW275241   0.664   2.383   0.920  1.5815  1.8505 -2.5980
24288SOL     OW75242   4.428   7.814   2.805  0.1705 -0.9514 -0.1482
24288SOL    HW175243   4.374   7.878   2.853  0.6648 -0.5582 -0.1131
24288SOL    HW275244   4.384   7.805   2.721  1.0064  0.6952 -0.7886
24289SOL     OW75245   3.706   6.255   5.619 -0.1551  0.2454  0.4983
24289SOL    HW175246   3.619   6.266   5.659  0.2247  0.5911  1.2405
24289SOL    HW275247   3.692   6.272   5.526 -0.9581 -0.0756  0.5524
24290SOL     OW75248   1.621   2.852   2.013  0.1065 -0.3668  0.1007
24290SOL    HW175249   1.607   2.853   2.108  0.1554 -0.9260  0.1151
24290SOL    HW275250   1.705   2.808   2.001  1.9225  2.7954 -0.0052
24291SOL     OW75251   9.696   1.931   4.022  0.0090 -0.2288 -0.5051
24291SOL    HW175252   9.625   1.867   4.019  0.4607 -1.2587  3.8821
24291SOL    HW275253   9.657   2.007   4.067  1.1833 -0.1048  0.3496
24292SOL     OW75254   9.263   0.745   6.161  0.8815 -0.0917 -0.0673
24292SOL    HW175255   9.284   0.738   6.068  0.8800 -0.9536 -0.0161
24292SOL    HW275256   9.223   0.660   6.183  1.9074 -0.3317  0.9684
24293SOL     OW75257   0.718   7.236   2.584  0.0149  0.2776  0.0292
24293SOL    HW175258   0.648   7.206   2.526  0.4396 -0.0940 -0.2998
24293SOL    HW275259   0.746   7.319   2.546  0.0543  0.2063 -0.0994
24294SOL     OW75260   6.993   8.548   5.282  0.6119  0.3745  0.1042
24294SOL    HW175261   7.034   8.608   5.344  0.3661 -0.2674  0.9165
24294SOL    HW275262   7.051   8.547   5.206  1.3724  0.5378  0.6723
24295SOL     OW75263   7.486   0.983   2.051  0.0081  0.0469  0.3169
24295SOL    HW175264   7.563   0.925   2.042  0.4093  0.6714 -0.4438
24295SOL    HW275265   7.412   0.923   2.052  0.5596 -0.7117  2.8848
24296SOL     OW75266   8.050   9.807   0.375  0.0053  0.0238 -0.7583
24296SOL    HW175267   8.019   9.769   0.293 -0.3609  1.1288 -1.1371
24296SOL    HW275268   7.976   9.856   0.409  0.6003  0.7701 -0.5039
24297SOL     OW75269   2.781   3.814   6.617  0.2165 -0.0921 -0.3027
24297SOL    HW175270   2.707   3.865   6.651  1.4966  0.7173  1.4072
24297SOL    HW275271   2.812   3.865   6.542  2.1893  2.4645  2.0324
24298SOL     OW75272   5.260  10.663   6.236  0.0306  0.0084  0.0499
24298SOL    HW175273   5.187  10.610   6.205 -0.3289  0.7157 -0.3394
24298SOL    HW275274   5.293  10.707   6.158 -0.5659  1.4121  0.5438
24299SOL     OW75275   3.286   2.412   3.648  0.6228 -0.0419 -0.0550
24299SOL    HW175276   3.343   2.467   3.594  0.2166  1.5197  1.0285
24299SOL    HW275277   3.280   2.330   3.600  2.3137  0.3865 -1.1021
24300SOL     OW75278   9.487   9.279   9.429  0.3758 -0.0198 -0.1519
24300SOL    HW175279   9.546   9.323   9.368 -0.0300  0.0963 -0.4697
24300SOL    HW275280   9.533   9.200   9.455  0.5708 -0.0515 -0.5819
24301SOL     OW75281   7.971   0.241   3.972 -0.3025  0.1285  0.2846
24301SOL    HW175282   7.907   0.303   3.934  0.2211  0.3590 -0.2392
24301SOL    HW275283   7.981   0.173   3.905  2.2244  1.6246 -1.0190
24302SOL     OW75284  10.719   0.683   7.826  0.3060 -0.2644  0.2021
24302SOL    HW175285  10.722   0.626   7.903  0.1522 -0.4015  0.1097
24302SOL    HW275286  10.809   0.711   7.812  0.9202 -2.7018 -1.3965
24303SOL     OW75287   7.461   1.552   3.730  0.2108 -0.6251 -0.2239
24303SOL    HW175288   7.410   1.533   3.651  1.5887 -0.6769 -1.1286
24303SOL    HW275289   7.440   1.643   3.750  0.9387 -0.1343 -1.5303
24304SOL     OW75290   3.033  10.228   2.084  0.2904 -0.4571  0.6898
24304SOL    HW175291   2.983  10.247   2.164 -1.8284 -1.0606 -0.4029
24304SOL    HW275292   3.078  10.146   2.104 -0.6635 -0.9048  1.1150
24305SOL     OW75293   2.029   2.182   5.805 -0.1176  0.2404  0.4869
24305SOL    HW175294   2.011   2.100   5.759 -0.4117 -0.5926  2.0231
24305SOL    HW275295   2.000   2.250   5.744 -1.8017 -0.8470 -0.0058
24306SOL     OW75296   3.530   6.679   0.058 -0.3489  0.1567  0.3674
24306SOL    HW175297   3.489   6.745   0.113 -0.5758  1.1961 -0.9974
24306SOL    HW275298   3.468   6.606   0.057 -1.1317  0.8110  0.1335
24307SOL     OW75299   7.360   9.662   8.142 -0.5231 -0.2938 -0.0054
24307SOL    HW175300   7.407   9.593   8.094  0.1287 -0.3754  0.7251
24307SOL    HW275301   7.421   9.735   8.145 -1.4223  0.5673 -1.2768
24308SOL     OW75302   5.884   3.876   0.883  0.1513  0.0685  0.1852
24308SOL    HW175303   5.904   3.787   0.912  0.7418  0.0436 -0.2721
24308SOL    HW275304   5.807   3.866   0.827 -1.6064  0.2449  2.4475
24309SOL     OW75305   7.741   3.132   0.778 -0.3923 -0.0363 -0.6006
24309SOL    HW175306   7.770   3.158   0.691  0.3026  0.3339 -0.2640
24309SOL    HW275307   7.786   3.049   0.794 -0.5432 -0.1192 -0.6039
24310SOL     OW75308   8.912   3.052   8.363 -0.3202 -0.2697  0.2384
24310SOL    HW175309   8.929   2.980   8.424 -0.6550 -0.3573  0.2306
24310SOL    HW275310   8.824   3.036   8.330 -1.3172  1.3033  1.9054
24311SOL     OW75311   0.086   5.809   0.213 -0.1951 -0.3681 -0.3865
24311SOL    HW175312   0.087   5.881   0.276  1.0318 -0.6148 -0.0973
24311SOL    HW275313  -0.006   5.784   0.205 -0.3573 -0.4186  1.4128
24312SOL     OW75314   0.291  10.152   1.182  0.1846 -0.2944 -0.1350
24312SOL    HW175315   0.212  10.110   1.214  0.5702 -0.6968  0.3159
24312SOL    HW275316   0.332  10.189   1.261  0.8771 -0.8380 -0.2277
24313SOL     OW75317   0.812   1.961   1.938  0.0244  0.2298 -0.2905
24313SOL    HW175318   0.747   1.965   1.868  0.0372  0.7426 -0.2713
24313SOL    HW275319   0.892   1.929   1.895 -0.2010 -0.2710 -0.3407
24314SOL     OW75320   9.425   7.444   6.994 -0.2385  0.1749 -0.7519
24314SOL    HW175321   9.428   7.539   7.004 -0.5090  0.2882 -1.6128
24314SOL    HW275322   9.460   7.410   7.076 -0.1299  1.0161 -0.4350
24315SOL     OW75323   1.347   8.551   8.851  0.0816  0.5665 -0.4410
24315SOL    HW175324   1.375   8.466   8.817  1.3634 -0.1367  2.1448
24315SOL    HW275325   1.251   8.548   8.845  0.1235 -0.8784 -0.7687
24316SOL     OW75326   7.834   2.242   2.353  0.0313  0.8500  0.1906
24316SOL    HW175327   7.856   2.235   2.260 -2.8466  1.4118 -0.6463
24316SOL    HW275328   7.814   2.334   2.366 -0.7187  0.5839  1.0447
24317SOL     OW75329  10.144   6.084   4.933 -0.0001  0.2662  0.4746
24317SOL    HW175330  10.187   6.151   4.985  0.5353  1.4446 -1.3726
24317SOL    HW275331  10.052   6.088   4.960 -0.0143  1.8956  0.3040
24318SOL     OW75332   1.698   7.341   9.934  0.1175  1.0389  0.3636
24318SOL    HW175333   1.675   7.265   9.988  0.0321  0.8613  0.0778
24318SOL    HW275334   1.742   7.401   9.995 -0.7569  1.2184  0.8414
24319SOL     OW75335   6.150   9.475   3.282 -0.5667  0.0894  0.1938
24319SOL    HW175336   6.094   9.401   3.260 -0.7980  0.5369 -0.7999
24319SOL    HW275337   6.104   9.520   3.352 -0.6950 -0.3993  0.4272
24320SOL     OW75338   8.611   8.111   7.342  0.1765  0.3604  0.3931
24320SOL    HW175339   8.665   8.039   7.376  1.6962  1.7757  1.1013
24320SOL    HW275340   8.575   8.152   7.421  0.5119  1.2439  0.0954
24321SOL     OW75341   2.994   3.035  10.501  0.7365 -0.1428  0.7457
24321SOL    HW175342   3.073   3.026  10.448  0.0898 -0.4835 -0.1859
24321SOL    HW275343   2.930   3.074  10.442  0.8363  2.3003  2.1466
24322SOL     OW75344   3.210   5.261   1.799 -1.1648 -0.1187 -0.2694
24322SOL    HW175345   3.298   5.290   1.824 -0.2213 -1.6948 -1.5200
24322SOL    HW275346   3.164   5.247   1.882 -0.8991  2.5073  0.3856
24323SOL     OW75347   8.480   0.860   7.085 -0.6549  0.2339 -0.3555
24323SOL    HW175348   8.426   0.802   7.031 -0.7034  1.7664 -2.0802
24323SOL    HW275349   8.430   0.942   7.088  0.2343  0.7641  0.4751
24324SOL     OW75350   4.781   5.891   8.668  0.1445  0.7507  0.5347
24324SOL    HW175351   4.847   5.941   8.716  0.7982 -0.0254  0.4619
24324SOL    HW275352   4.827   5.856   8.592 -0.9141  2.1097 -0.8032
24325SOL     OW75353   8.668  10.491  10.171 -0.3615 -0.0790  0.0468
24325SOL    HW175354   8.731  10.466  10.238  1.0943  0.3861 -1.0989
24325SOL    HW275355   8.642  10.580  10.194  0.6842  0.3491 -0.3887
24326SOL     OW75356   7.334   8.661   0.183  0.1596  0.2409 -0.4765
24326SOL    HW175357   7.277   8.584   0.193  0.3490  0.0537 -0.8273
24326SOL    HW275358   7.302   8.704   0.104  1.4896 -0.7175 -1.5684
24327SOL     OW75359   7.816   7.101   4.493 -0.1782  0.3078  0.0815
24327SOL    HW175360   7.756   7.080   4.565 -1.3117  0.5381 -0.7562
24327SOL    HW275361   7.903   7.082   4.528 -0.7310 -0.0439  1.3447
24328SOL     OW75362   8.532   2.771  10.550 -0.1182 -0.5809  0.2931
24328SOL    HW175363   8.447   2.799  10.583  1.4773  0.7894  3.7506
24328SOL    HW275364   8.585   2.851  10.549  1.4089 -1.5344 -0.9286
24329SOL     OW75365   0.709   8.187   5.555 -0.0339  0.6483  0.4793
24329SOL    HW175366   0.764   8.221   5.626  2.2804 -1.2931 -0.2573
24329SOL    HW275367   0.761   8.201   5.476 -0.0275 -2.2626 -0.1249
24330SOL     OW75368   6.577   0.997   8.261 -0.0635  0.1909 -0.2301
24330SOL    HW175369   6.631   0.920   8.279  1.4534  0.9920 -1.1425
24330SOL    HW275370   6.605   1.062   8.324  0.2279  0.6897 -0.8603
24331SOL     OW75371   1.907   2.627   6.839 -0.2063 -0.2547  0.5968
24331SOL    HW175372   1.892   2.611   6.932 -0.8759  3.2050  1.2426
24331SOL    HW275373   2.002   2.628   6.830 -0.1017  0.5045  1.5384
24332SOL     OW75374   6.938   0.814   8.023  0.1819 -0.5373 -0.4077
24332SOL    HW175375   6.892   0.771   7.951 -2.9415  0.9328  0.5039
24332SOL    HW275376   6.953   0.746   8.088  1.0906 -1.4299 -1.5154
24333SOL     OW75377   0.919   8.395   7.654  0.1376  0.2039  0.2886
24333SOL    HW175378   0.926   8.374   7.561  1.7567 -2.3874  0.8915
24333SOL    HW275379   0.859   8.470   7.658 -1.3928 -0.7325 -2.6793
24334SOL     OW75380   0.312   0.974   0.895  0.0345 -0.1240  0.9200
24334SOL    HW175381   0.304   0.892   0.846  0.6432  0.3790 -0.0484
24334SOL    HW275382   0.362   0.949   0.974 -0.4274 -0.8177  1.0035
24335SOL     OW75383   1.254   0.969   2.254  0.5908  0.1131 -0.4712
24335SOL    HW175384   1.173   0.952   2.206  0.0277  4.1330 -1.2978
24335SOL    HW275385   1.320   0.978   2.186  0.7973  1.0456 -0.1598
24336SOL     OW75386   4.332   5.776   2.233  0.6094  0.2675 -0.0083
24336SOL    HW175387   4.325   5.692   2.188 -0.8175 -0.0550  0.7433
24336SOL    HW275388   4.322   5.841   2.164 -0.0657 -0.2038 -0.3700
24337SOL     OW75389   8.139   3.083   7.048  0.0706 -0.1551 -0.6665
24337SOL    HW175390   8.078   3.011   7.067 -1.2835  0.9738 -0.5532
24337SOL    HW275391   8.225   3.048   7.071 -0.5046 -1.8492 -0.9412
24338SOL     OW75392   5.306   3.869   8.537 -0.0624  0.5413 -0.3000
24338SOL    HW175393   5.289   3.919   8.616  0.2346  2.4081 -1.3528
24338SOL    HW275394   5.395   3.834   8.549 -0.1890  0.4451  0.3687
24339SOL     OW75395   4.798   2.853   5.545  0.3682  0.0461 -0.2877
24339SOL    HW175396   4.756   2.768   5.548  1.2119 -0.4003 -0.7503
24339SOL    HW275397   4.777   2.893   5.630  0.8105 -1.0399  0.3609
24340SOL     OW75398   8.690   7.590   7.989  0.0542 -0.0703 -0.1652
24340SOL    HW175399   8.713   7.498   7.976  0.5020 -0.0677  0.5778
24340SOL    HW275400   8.596   7.594   7.969 -0.3693 -1.0482  1.4619
24341SOL     OW75401   5.479   7.046   1.120 -0.1739  0.2647 -0.5954
24341SOL    HW175402   5.443   6.993   1.192  0.2090 -0.0790 -0.6521
24341SOL    HW275403   5.487   7.134   1.156 -1.7035  0.5134 -0.7847
24342SOL     OW75404   3.843   6.116   0.345  0.3922 -0.2775  0.5879
24342SOL    HW175405   3.877   6.047   0.288 -3.1162 -0.5407 -1.4439
24342SOL    HW275406   3.881   6.196   0.309  1.5997 -0.7931  0.6474
24343SOL     OW75407   3.395   8.505   6.456  0.0930 -0.0877 -0.1953
24343SOL    HW175408   3.490   8.506   6.463  0.1775 -0.4242 -1.1007
24343SOL    HW275409   3.378   8.501   6.362 -0.8158 -0.2542 -0.0353
24344SOL     OW75410   4.297   2.199   1.719 -1.2554 -0.3934  0.4289
24344SOL    HW175411   4.293   2.147   1.799  1.1808 -1.6244 -0.1340
24344SOL    HW275412   4.366   2.157   1.667 -1.7832  1.2078 -1.7101
24345SOL     OW75413   2.872   5.035   2.289 -0.1726  1.0548 -0.6226
24345SOL    HW175414   2.902   4.981   2.215 -0.3258  1.1603 -0.7626
24345SOL    HW275415   2.947   5.089   2.311  0.0510  0.6443 -0.3487
24346SOL     OW75416   6.160   9.916   1.285  0.0782 -0.0350 -0.0211
24346SOL    HW175417   6.208   9.993   1.314  0.9681 -0.8300  0.6795
24346SOL    HW275418   6.096   9.900   1.354  0.4483 -0.4088  0.2341
24347SOL     OW75419   0.302   2.674   2.105 -0.3373  0.1936 -0.0868
24347SOL    HW175420   0.317   2.587   2.142 -1.2814 -0.5535 -1.3788
24347SOL    HW275421   0.376   2.687   2.045 -0.2124  0.2662  0.0834
24348SOL     OW75422   6.125   0.419   0.343 -0.4045  0.2356  0.0309
24348SOL    HW175423   6.036   0.433   0.310 -0.6605 -1.3287 -0.0467
24348SOL    HW275424   6.112   0.370   0.425  0.3436  1.4073  0.8735
24349SOL     OW75425   7.518   2.749   5.516 -0.0899  0.6114  0.0373
24349SOL    HW175426   7.563   2.694   5.581  0.2743 -0.4697 -1.0877
24349SOL    HW275427   7.582   2.763   5.447 -0.4384  1.8368 -0.0634
24350SOL     OW75428   7.900  10.191   3.052  0.7593 -0.1529 -0.6133
24350SOL    HW175429   7.995  10.193   3.039  1.0598 -1.2569  0.9740
24350SOL    HW275430   7.877  10.099   3.037  0.2300 -0.2242  0.5156
24351SOL     OW75431   9.419   8.706   6.850  0.4354  0.0854 -0.1734
24351SOL    HW175432   9.349   8.668   6.902 -0.3501  1.1061 -0.4422
24351SOL    HW275433   9.374   8.751   6.778  1.3543  0.7990 -0.3296
24352SOL     OW75434   9.717   1.174   0.943 -0.0272 -0.3242 -0.0157
24352SOL    HW175435   9.696   1.235   0.872  0.9534 -0.3495 -0.3503
24352SOL    HW275436   9.804   1.141   0.921  0.8889  0.6615  1.8564
24353SOL     OW75437   4.718   7.175   1.307 -0.1694 -0.3632  0.0529
24353SOL    HW175438   4.625   7.164   1.292 -0.6131  1.2294  1.3848
24353SOL    HW275439   4.727   7.184   1.402  1.5197 -1.8335  0.0850
24354SOL     OW75440   8.272   0.737   4.202  0.0629 -0.2765 -0.1848
24354SOL    HW175441   8.326   0.810   4.233  0.4962 -0.6969  0.0627
24354SOL    HW275442   8.284   0.738   4.107 -0.2894  0.2501 -0.2297
24355SOL     OW75443   2.386  10.447   0.291 -0.0650  0.4106  0.3246
24355SOL    HW175444   2.351  10.522   0.244  0.7785  1.0910  0.7624
24355SOL    HW275445   2.471  10.431   0.250  0.4840  0.7358  1.3060
24356SOL     OW75446   5.435   7.094   3.858 -0.3356  0.0016  0.5663
24356SOL    HW175447   5.436   7.054   3.771 -1.9195  1.4139 -0.1687
24356SOL    HW275448   5.425   7.021   3.918  0.5985 -0.9905 -0.4498
24357SOL     OW75449   0.225   4.761  10.048  0.3459 -0.1522 -0.5218
24357SOL    HW175450   0.178   4.682  10.074  1.3923 -0.4807  0.4388
24357SOL    HW275451   0.188   4.830  10.102 -1.4856  0.3360 -2.2635
24358SOL     OW75452   6.667   8.005   0.542  0.0623  0.1883 -0.1503
24358SOL    HW175453   6.744   7.990   0.488 -0.6881 -0.6378 -1.0213
24358SOL    HW275454   6.594   7.970   0.491 -0.6130 -1.2272  1.6645
24359SOL     OW75455   8.465   3.112   7.222 -0.3857 -0.4376 -0.0920
24359SOL    HW175456   8.516   3.170   7.278 -3.7721  1.2866  1.5640
24359SOL    HW275457   8.427   3.048   7.282 -2.1483 -0.0691 -0.7559
24360SOL     OW75458   4.635   0.443   9.110 -0.2572  0.5297  0.2350
24360SOL    HW175459   4.680   0.475   9.188  1.2489 -0.4736 -0.1744
24360SOL    HW275460   4.542   0.453   9.130  0.1204  1.5832  1.5882
24361SOL     OW75461   0.321   8.543   4.315  0.4579  0.1461 -0.0369
24361SOL    HW175462   0.393   8.521   4.373 -1.1937  0.8369  2.4444
24361SOL    HW275463   0.329   8.638   4.302 -0.6460  0.4430  1.2663
24362SOL     OW75464   0.902   0.283   4.475 -0.2654 -0.7326 -0.0524
24362SOL    HW175465   0.993   0.309   4.485 -0.2046 -0.4037 -1.2924
24362SOL    HW275466   0.906   0.197   4.433 -0.5194 -1.1671  0.7985
24363SOL     OW75467  10.145   5.851  10.452 -0.0382 -0.1570 -0.4570
24363SOL    HW175468  10.204   5.837  10.378 -0.8035  0.3654 -1.1676
24363SOL    HW275469  10.059   5.824  10.421 -0.6709  1.5427 -0.3001
24364SOL     OW75470   7.355   1.893   7.187 -0.3349 -0.3842  0.2426
24364SOL    HW175471   7.361   1.836   7.264  1.3185 -0.4523  0.0968
24364SOL    HW275472   7.364   1.833   7.112  2.5506  0.0615  0.0920
24365SOL     OW75473   0.927  10.682   7.782  0.5079  0.4239  0.0553
24365SOL    HW175474   0.856  10.745   7.792  0.9206  0.6941  1.4832
24365SOL    HW275475   0.937  10.642   7.869  0.8472 -0.9779 -0.5884
24366SOL     OW75476   6.632   0.843   3.824 -0.3583 -0.1074 -0.8807
24366SOL    HW175477   6.570   0.788   3.871 -0.7262  2.8940  2.5492
24366SOL    HW275478   6.717   0.800   3.837 -0.3993  0.6420  3.0177
24367SOL     OW75479   3.602   7.862   7.790  0.4986  0.1135 -0.3275
24367SOL    HW175480   3.592   7.944   7.742  1.3150 -0.7087 -1.9962
24367SOL    HW275481   3.676   7.818   7.748  0.2826 -1.3538  0.7182
24368SOL     OW75482   7.911   6.331   5.325  0.6376  0.4917  0.0455
24368SOL    HW175483   7.864   6.408   5.293  0.4280  0.4869  0.3386
24368SOL    HW275484   7.999   6.341   5.289 -0.1971 -0.7766 -2.6085
24369SOL     OW75485   4.001   4.532   6.449  0.2368 -0.5368 -0.1163
24369SOL    HW175486   4.088   4.562   6.421  0.2449  0.8769  1.3055
24369SOL    HW275487   4.008   4.436   6.447  2.3656 -0.5040  1.3741
24370SOL     OW75488   7.051   0.435   7.343  0.2163  0.0481  0.4197
24370SOL    HW175489   7.048   0.490   7.265  0.2147 -0.4282  0.0771
24370SOL    HW275490   6.999   0.482   7.408 -0.4245  0.0804 -0.1101
24371SOL     OW75491   3.832   9.268   8.977  0.1068 -0.0310 -0.2231
24371SOL    HW175492   3.816   9.279   8.883 -0.6032  1.4342  0.0427
24371SOL    HW275493   3.747   9.243   9.013  0.1468  0.3928  0.1689
24372SOL     OW75494   5.065  10.553   7.705 -0.6564  0.1791  0.0032
24372SOL    HW175495   5.147  10.511   7.681  0.0305  1.2531  0.4534
24372SOL    HW275496   5.048  10.616   7.636 -1.7474 -0.8515 -0.7248
24373SOL     OW75497   5.600   3.124   2.893 -0.2408  0.1422 -0.1332
24373SOL    HW175498   5.638   3.038   2.914  1.6524  0.7371 -0.9345
24373SOL    HW275499   5.582   3.120   2.799 -0.1438  0.6189 -0.1718
24374SOL     OW75500  10.635   5.501   4.228  0.2481  0.1435 -0.5562
24374SOL    HW175501  10.552   5.486   4.183  0.3033  0.3585 -0.7296
24374SOL    HW275502  10.613   5.556   4.303 -0.1761 -1.8191  0.8402
24375SOL     OW75503   6.642   4.583   7.800 -0.5497  0.0098  0.4685
24375SOL    HW175504   6.714   4.646   7.807  0.5258 -1.1997  0.6192
24375SOL    HW275505   6.571   4.623   7.851  0.7989  0.1670  2.3421
24376SOL     OW75506   2.022   6.781   7.311 -0.2574 -0.1216 -0.2278
24376SOL    HW175507   2.111   6.764   7.343 -0.9350 -1.0666  1.2749
24376SOL    HW275508   2.027   6.766   7.217  1.6713  2.0750 -0.5816
24377SOL     OW75509   7.750  10.742   6.333  0.1372 -0.0556  0.2354
24377SOL    HW175510   7.753  10.706   6.422  1.5411  0.7157  0.5252
24377SOL    HW275511   7.709  10.673   6.281  1.7167 -1.6155  0.9813
24378SOL     OW75512   8.998   6.621   2.573 -0.5478 -0.1719 -0.1656
24378SOL    HW175513   8.935   6.687   2.603 -1.7663 -0.4959 -1.8120
24378SOL    HW275514   9.046   6.665   2.502 -0.6499 -0.7115 -0.5719
24379SOL     OW75515   2.015   8.995   4.163 -0.3038 -0.3104 -0.4848
24379SOL    HW175516   2.079   9.051   4.207 -0.6299 -0.7871  0.6438
24379SOL    HW275517   1.931   9.039   4.176 -0.4773 -0.7334 -0.1355
24380SOL     OW75518   6.196  10.683   5.319  0.2814  0.5045  0.1239
24380SOL    HW175519   6.174  10.604   5.368  1.6636  0.9196  1.4773
24380SOL    HW275520   6.235  10.742   5.383  0.3222  1.8554 -1.0842
24381SOL     OW75521   4.945   7.896   9.902 -0.5163  0.1923 -0.5202
24381SOL    HW175522   5.028   7.849   9.904  0.2448  1.3893 -2.2024
24381SOL    HW275523   4.932   7.926   9.992 -0.5432 -2.2920  0.3972
24382SOL     OW75524   4.089   7.270   4.321  0.2072 -0.2644 -0.0251
24382SOL    HW175525   4.155   7.325   4.280  1.1558 -0.1889  1.5217
24382SOL    HW275526   4.007   7.292   4.276  1.1460 -0.1187 -1.7530
24383SOL     OW75527   9.293   9.038   0.664 -0.4847 -0.3300  0.2075
24383SOL    HW175528   9.381   9.001   0.669 -0.3896  0.0006  1.1147
24383SOL    HW275529   9.277   9.049   0.570 -0.2961 -2.1289 -0.0856
24384SOL     OW75530   8.099   5.446   3.043 -0.1056 -0.3997 -0.5812
24384SOL    HW175531   8.077   5.404   2.960 -0.5081  3.1730 -2.4830
24384SOL    HW275532   8.189   5.476   3.031 -0.4191  0.8036 -0.0772
24385SOL     OW75533   1.282   8.437   3.832  0.5432 -0.1356 -0.0128
24385SOL    HW175534   1.224   8.369   3.867 -0.1771  1.2446  1.5958
24385SOL    HW275535   1.251   8.518   3.872  1.0495  1.2626 -2.2462
24386SOL     OW75536   3.272   8.168   5.136  0.7631 -0.7142  0.2935
24386SOL    HW175537   3.208   8.239   5.137 -0.1560 -1.5115 -0.2229
24386SOL    HW275538   3.287   8.148   5.229  2.5753  1.4578  0.5479
24387SOL     OW75539   6.086   0.201   1.362 -0.1737  0.1842  0.0727
24387SOL    HW175540   6.025   0.212   1.435 -0.4632  0.2531 -0.1821
24387SOL    HW275541   6.167   0.170   1.404 -0.6113 -0.6239  0.3214
24388SOL     OW75542   8.603   6.087   1.016 -0.3782 -0.6034  0.6073
24388SOL    HW175543   8.532   6.055   0.959 -0.2253 -0.1992  0.1891
24388SOL    HW275544   8.672   6.021   1.007 -0.4379 -0.6511  0.4898
24389SOL     OW75545  10.750   0.909   6.231 -0.1901  0.1780  0.1167
24389SOL    HW175546  10.688   0.885   6.300  0.1617 -0.0119  0.3709
24389SOL    HW275547  10.700   0.899   6.149 -0.1463 -1.1745  0.2257
24390SOL     OW75548   2.501  10.213   2.726  0.0463 -0.0389  0.1129
24390SOL    HW175549   2.438  10.177   2.788 -0.6592 -2.0027 -1.6482
24390SOL    HW275550   2.465  10.191   2.640  1.3914  1.8880 -1.0178
24391SOL     OW75551   4.331   5.773  10.301  0.1638 -0.1889 -0.0285
24391SOL    HW175552   4.341   5.781  10.206 -0.3820  1.3035  0.0132
24391SOL    HW275553   4.271   5.843  10.325 -1.8904 -2.2187  1.1010
24392SOL     OW75554   2.338   2.308   1.704 -0.2651  0.3750  0.3416
24392SOL    HW175555   2.360   2.354   1.623 -3.1612  0.6336 -0.4044
24392SOL    HW275556   2.359   2.217   1.687  1.2683  0.7306  0.1763
24393SOL     OW75557   4.054  10.000   9.393 -0.3366  0.0183 -0.1727
24393SOL    HW175558   4.081   9.970   9.306  1.2317 -1.1086  0.6365
24393SOL    HW275559   4.066   9.923   9.450  1.0924  1.3734  1.4835
24394SOL     OW75560   5.840   3.045   0.857 -0.2861 -0.3000 -0.3955
24394SOL    HW175561   5.758   3.026   0.902 -0.3362  0.1895 -0.2751
24394SOL    HW275562   5.891   3.095   0.920  0.9881 -2.3783  0.3433
24395SOL     OW75563   8.561   9.492   7.583 -0.5247  0.4128  0.1471
24395SOL    HW175564   8.555   9.459   7.673 -1.8920 -1.9104 -0.6929
24395SOL    HW275565   8.650   9.469   7.555  0.1378  1.7404  1.0691
24396SOL     OW75566   2.772   9.455   2.909  0.5911  0.2956  0.2868
24396SOL    HW175567   2.858   9.447   2.949 -0.0145 -3.7135  1.2095
24396SOL    HW275568   2.774   9.395   2.834 -0.9038  1.3261 -0.6405
24397SOL     OW75569   2.680   5.864   9.500  0.0371 -0.4881 -0.2442
24397SOL    HW175570   2.765   5.841   9.538  2.5008 -0.9924 -5.2046
24397SOL    HW275571   2.665   5.954   9.529  2.0720 -0.4833  1.0135
24398SOL     OW75572   1.198   6.623   9.707  0.5040 -0.1633 -0.4983
24398SOL    HW175573   1.264   6.564   9.742 -0.0977 -0.7491 -0.3348
24398SOL    HW275574   1.116   6.573   9.710  0.3089 -0.0082 -2.1207
24399SOL     OW75575   8.931   7.869   7.650 -0.5940  0.4599  0.0396
24399SOL    HW175576   9.008   7.886   7.704 -0.5377 -2.0181  0.8473
24399SOL    HW275577   8.860   7.857   7.713 -1.3707  1.2688 -0.6409
24400SOL     OW75578   2.172   0.323   9.285  0.9434  0.3881 -0.6425
24400SOL    HW175579   2.191   0.243   9.333 -1.3164 -0.6031 -1.2232
24400SOL    HW275580   2.166   0.295   9.193 -1.5847  0.7921 -0.6699
24401SOL     OW75581   4.244   1.319   7.972  0.6016 -0.0908  0.3916
24401SOL    HW175582   4.322   1.265   7.967  1.2902  0.9094  0.1746
24401SOL    HW275583   4.233   1.337   8.066  1.8660  1.5021  0.2713
24402SOL     OW75584   4.002   8.267   8.465 -0.1959 -0.3530 -0.6036
24402SOL    HW175585   4.040   8.203   8.526 -1.3730 -0.9328 -0.4394
24402SOL    HW275586   3.951   8.325   8.521  0.1603  0.2091 -0.8551
24403SOL     OW75587   3.910   3.072   5.831  0.1268 -0.3005  0.1656
24403SOL    HW175588   3.914   3.167   5.815  1.8438 -0.2406  0.7274
24403SOL    HW275589   3.861   3.038   5.757  0.2589  0.9403 -0.5333
24404SOL     OW75590   4.449  10.735   2.045 -0.3629 -0.0669  0.3304
24404SOL    HW175591   4.364  10.717   2.084  0.0844 -1.3939  0.7259
24404SOL    HW275592   4.501  10.771   2.116  0.3945 -2.3129  0.9848
24405SOL     OW75593   7.591  10.024   1.524  0.0641 -0.0487  0.4469
24405SOL    HW175594   7.617  10.002   1.434  0.8559  0.0453  0.6478
24405SOL    HW275595   7.577  10.118   1.523 -0.2802 -0.1015  0.3353
24406SOL     OW75596   9.818   6.835   1.331 -0.4768  0.0379 -0.2381
24406SOL    HW175597   9.888   6.796   1.278 -0.4963  0.7683 -0.8268
24406SOL    HW275598   9.745   6.774   1.323 -0.1672 -0.3293 -0.2855
24407SOL     OW75599  10.474   8.747   7.863  0.2021 -0.1848 -0.0061
24407SOL    HW175600  10.560   8.788   7.854 -0.0141  0.4335  0.6477
24407SOL    HW275601  10.468   8.686   7.789 -0.5999  2.9033 -2.6785
24408SOL     OW75602   2.347   1.566   3.434 -0.5886 -0.4613 -0.3078
24408SOL    HW175603   2.434   1.528   3.449  0.3977  1.5575 -0.5306
24408SOL    HW275604   2.287   1.508   3.482  0.9671 -1.4494  0.5316
24409SOL     OW75605   5.004   4.548   9.343 -0.1789 -0.1984  0.3437
24409SOL    HW175606   5.008   4.461   9.383 -0.0778  0.5500  2.0593
24409SOL    HW275607   4.926   4.545   9.287 -0.0035 -1.4750  0.1458
24410SOL     OW75608   6.204   4.141   0.839  0.0927 -0.3622 -0.4534
24410SOL    HW175609   6.119   4.131   0.882  1.0312 -1.1503  1.3548
24410SOL    HW275610   6.185   4.139   0.745 -1.7812 -1.4289 -0.0866
24411SOL     OW75611   1.741   7.310  10.422 -0.3388 -0.1569 -0.0540
24411SOL    HW175612   1.696   7.364  10.358 -0.8469 -1.9111 -1.2457
24411SOL    HW275613   1.680   7.238  10.440  1.1230 -1.4764 -0.1446
24412SOL     OW75614   0.906   5.613   1.248 -0.1852 -0.1282  0.1861
24412SOL    HW175615   1.001   5.602   1.246 -0.1368 -0.8771  2.8135
24412SOL    HW275616   0.893   5.706   1.267  0.2403 -0.6330  3.6021
24413SOL     OW75617   9.322   8.717   3.229  0.0159 -0.2139  0.0252
24413SOL    HW175618   9.406   8.715   3.183  0.6760 -0.2785  1.1897
24413SOL    HW275619   9.298   8.624   3.237  1.0395 -0.3880  1.7472
24414SOL     OW75620   2.083   4.237  10.044 -0.3697 -0.2887  0.2452
24414SOL    HW175621   2.114   4.317  10.002  0.4951 -0.2375  0.9558
24414SOL    HW275622   2.009   4.265  10.098  0.9334  0.3327  1.7470
24415SOL     OW75623   2.821  10.700   6.651 -0.0401  0.1793 -0.1086
24415SOL    HW175624   2.749  10.645   6.682  0.3367 -0.9725 -1.1662
24415SOL    HW275625   2.801  10.787   6.684  0.2531 -0.8654  3.2439
24416SOL     OW75626   3.540   5.720   0.206  0.6617  0.5073 -0.6739
24416SOL    HW175627   3.564   5.661   0.134  0.8631  0.8280 -0.8734
24416SOL    HW275628   3.510   5.800   0.162 -1.0462  0.0374 -0.4420
24417SOL     OW75629   7.620   8.878   1.873  0.2352  0.4132  0.8732
24417SOL    HW175630   7.554   8.838   1.930 -1.6617  2.3867  0.1794
24417SOL    HW275631   7.601   8.842   1.786 -0.5268  1.6284  0.5188
24418SOL     OW75632   1.469   2.485   9.247 -0.3066  0.3835 -0.2542
24418SOL    HW175633   1.464   2.511   9.156  1.4114  0.5721 -0.3277
24418SOL    HW275634   1.552   2.521   9.278 -1.5316  1.6068  1.8080
24419SOL     OW75635   7.780  10.113   8.095 -0.1272  0.2774 -0.8077
24419SOL    HW175636   7.857  10.070   8.132 -1.0738  0.0354  0.9725
24419SOL    HW275637   7.771  10.074   8.007  1.8356  0.4367 -1.1314
24420SOL     OW75638   9.634  10.618  10.263  0.4663  0.0047 -0.0430
24420SOL    HW175639   9.717  10.629  10.217  0.5686 -0.5335  0.0110
24420SOL    HW275640   9.653  10.556  10.333 -0.5524 -2.1612 -1.5933
24421SOL     OW75641   5.559   1.313   0.930 -1.0607  0.2798  0.1046
24421SOL    HW175642   5.525   1.280   0.847 -2.4356 -0.4859  0.9177
24421SOL    HW275643   5.495   1.378   0.958 -0.2341  1.0523  0.2389
24422SOL     OW75644  10.695   7.606   0.017  0.1518 -0.8856 -0.1423
24422SOL    HW175645  10.625   7.666   0.041 -2.1405 -2.7403 -1.7149
24422SOL    HW275646  10.776   7.654   0.036 -1.5139  2.2777 -0.4689
24423SOL     OW75647   6.042   2.788   5.656 -0.1675 -0.2609  0.3231
24423SOL    HW175648   6.053   2.868   5.605 -2.2819 -0.7174 -0.9639
24423SOL    HW275649   6.117   2.734   5.631  1.5753  1.3983  1.5850
24424SOL     OW75650   5.353   0.139   7.033 -0.2353  0.0822 -0.9729
24424SOL    HW175651   5.310   0.136   7.118  0.6570 -0.2372 -0.5207
24424SOL    HW275652   5.302   0.081   6.978 -0.6030  0.0038 -0.5559
24425SOL     OW75653   3.592   6.087   6.891  0.0554  0.2913  0.0620
24425SOL    HW175654   3.633   6.173   6.904  1.1284 -0.4081  1.8054
24425SOL    HW275655   3.636   6.030   6.955 -0.7495 -1.5202 -0.9147
24426SOL     OW75656   3.114   6.287   1.636 -0.3227 -0.1261 -0.2992
24426SOL    HW175657   3.190   6.257   1.685 -1.9761 -0.4351  2.2567
24426SOL    HW275658   3.039   6.267   1.692 -2.1417  2.1626 -1.6988
24427SOL     OW75659   8.823   0.972   2.441 -0.0987 -0.1651  0.5902
24427SOL    HW175660   8.911   0.952   2.474  0.2719  0.9341  0.3226
24427SOL    HW275661   8.832   1.058   2.400 -0.6359 -1.2694 -2.0152
24428SOL     OW75662   5.459   7.108   6.154 -0.1935 -0.1213  0.3491
24428SOL    HW175663   5.386   7.127   6.095 -0.0893  0.4859  0.4061
24428SOL    HW275664   5.437   7.024   6.193 -0.5379 -0.2610 -0.1338
24429SOL     OW75665   1.722   5.129   5.888 -0.8586 -0.6798  0.2390
24429SOL    HW175666   1.785   5.201   5.885 -0.5190 -1.0022 -2.2186
24429SOL    HW275667   1.656   5.157   5.952 -0.1870  1.3289  0.1019
24430SOL     OW75668   7.769   0.858   2.764 -0.2945 -0.1732  0.7289
24430SOL    HW175669   7.759   0.843   2.670 -0.2685 -0.7147  0.8132
24430SOL    HW275670   7.828   0.790   2.794  2.4786  1.9790  0.5540
24431SOL     OW75671   3.080   1.768   1.358  0.2135  0.3685 -0.2247
24431SOL    HW175672   2.996   1.723   1.366  0.3006  0.3044  0.3522
24431SOL    HW275673   3.082   1.799   1.267 -0.6480  0.8010 -0.1033
24432SOL     OW75674   9.309   2.233   2.557 -0.0186 -0.0617  0.7024
24432SOL    HW175675   9.214   2.225   2.569  0.1745 -0.9095  1.7915
24432SOL    HW275676   9.322   2.214   2.464 -0.7325 -2.1613  0.9634
24433SOL     OW75677   6.614   8.798   8.581  0.3984 -0.2034 -0.1100
24433SOL    HW175678   6.575   8.885   8.583 -0.9874 -0.7837  2.1906
24433SOL    HW275679   6.707   8.813   8.598  0.1762  0.8218  0.2836
24434SOL     OW75680   6.626   4.916   1.583  0.2311  0.0093 -0.6056
24434SOL    HW175681   6.652   4.859   1.656 -3.0272  0.4399  1.0900
24434SOL    HW275682   6.662   5.001   1.605  0.6088 -0.2160 -0.3330
24435SOL     OW75683   2.033   2.913   7.288 -0.3464 -0.3554  0.0454
24435SOL    HW175684   2.107   2.903   7.229  0.5835 -1.9137  1.3984
24435SOL    HW275685   2.064   2.970   7.358  0.2752 -2.4535  1.5792
24436SOL     OW75686   9.679   4.869   1.207  0.7376  0.1731 -0.1985
24436SOL    HW175687   9.751   4.889   1.147  1.0897  2.2208  0.7925
24436SOL    HW275688   9.688   4.776   1.227  1.7160 -0.1235 -1.8471
24437SOL     OW75689   2.619   6.513   8.527  0.3257  0.0867 -0.7384
24437SOL    HW175690   2.595   6.424   8.500 -1.5867  0.4270 -0.2842
24437SOL    HW275691   2.694   6.535   8.472  1.1789 -1.9905 -0.4873
24438SOL     OW75692   7.539  10.648   7.008  0.0896 -0.0496  0.4374
24438SOL    HW175693   7.611  10.708   7.025  0.5746 -0.4289 -0.2489
24438SOL    HW275694   7.560  10.570   7.059  1.4275 -1.0992 -1.5959
24439SOL     OW75695   1.424   6.509   7.031 -0.0091  0.3245  0.3816
24439SOL    HW175696   1.436   6.446   6.960 -0.5522 -0.7268  1.1933
24439SOL    HW275697   1.486   6.482   7.098 -0.1135  0.7802  0.6671
24440SOL     OW75698   6.754   8.200  10.245  0.2494 -0.2692 -0.0290
24440SOL    HW175699   6.847   8.182  10.232  0.1820 -1.6644  1.1716
24440SOL    HW275700   6.737   8.173  10.335 -0.8725  1.9545  0.4857
24441SOL     OW75701   4.477   3.415   6.172 -0.0348 -0.2017 -0.3898
24441SOL    HW175702   4.555   3.437   6.122 -1.4816  1.4607 -2.0788
24441SOL    HW275703   4.457   3.325   6.147  0.7138 -0.2655 -0.7936
24442SOL     OW75704   7.541   3.730   7.985  0.5929  0.2313 -0.4597
24442SOL    HW175705   7.547   3.645   7.941 -0.8286  0.1270 -0.4886
24442SOL    HW275706   7.457   3.727   8.031  0.4473  1.6893 -0.5983
24443SOL     OW75707   9.902   5.752   3.698 -0.5406 -0.5631  0.1809
24443SOL    HW175708   9.900   5.676   3.756  0.8552 -1.0344 -0.3626
24443SOL    HW275709   9.930   5.825   3.755 -1.5216 -0.5071  0.6168
24444SOL     OW75710   3.612   2.162  10.189  0.1031 -0.2669 -0.1844
24444SOL    HW175711   3.583   2.228  10.126 -0.1086 -2.0886 -2.1126
24444SOL    HW275712   3.649   2.213  10.262 -1.2980  1.9667 -0.9257
24445SOL     OW75713   3.238   2.345   8.722 -0.1397  0.7237 -0.1674
24445SOL    HW175714   3.309   2.283   8.738  0.7435  1.3873 -1.4087
24445SOL    HW275715   3.213   2.376   8.810 -0.6258 -1.3594  0.4885
24446SOL     OW75716   3.944   9.095   5.866  0.0446 -0.0849  0.0482
24446SOL    HW175717   3.905   9.026   5.812  0.4246 -0.7528  0.6133
24446SOL    HW275718   3.965   9.052   5.948  0.4957  0.6583  0.3316
24447SOL     OW75719  10.107   4.952   3.983 -0.6563 -0.0027  0.3534
24447SOL    HW175720  10.162   4.934   3.907 -1.4801 -0.6940 -0.0931
24447SOL    HW275721  10.062   5.034   3.962 -0.6995 -0.0650  0.2081
24448SOL     OW75722   4.865  10.667   4.273 -0.1606 -0.1528 -0.3373
24448SOL    HW175723   4.793  10.660   4.210 -0.8827  2.3664  0.0986
24448SOL    HW275724   4.837  10.611   4.346 -1.8013  0.8453 -0.1322
24449SOL     OW75725   6.396   3.907   7.433  0.2423  0.1175 -0.3110
24449SOL    HW175726   6.420   3.878   7.345 -0.7144 -1.5670 -0.0454
24449SOL    HW275727   6.364   3.828   7.477 -0.3289  1.1488  1.1997
24450SOL     OW75728   6.040   4.186   6.681 -0.7602  0.2925 -0.1196
24450SOL    HW175729   6.078   4.166   6.596 -1.4670  1.1720 -0.6728
24450SOL    HW275730   6.003   4.103   6.712  0.2949 -0.2306 -0.2475
24451SOL     OW75731  10.793   8.856   7.590 -0.0934 -0.2118  0.3205
24451SOL    HW175732  10.781   8.876   7.683  0.5518 -1.0337  0.5878
24451SOL    HW275733  10.713   8.890   7.548 -0.5177 -0.0866  1.2059
24452SOL     OW75734   9.404   6.443   5.238  0.4648 -0.2140  0.2022
24452SOL    HW175735   9.368   6.527   5.209 -1.1184 -0.8162  0.3157
24452SOL    HW275736   9.498   6.449   5.220 -0.0137  0.4728 -2.5772
24453SOL     OW75737   5.838   5.873   3.662  0.0370  0.0524  0.0238
24453SOL    HW175738   5.770   5.900   3.724  0.5400 -0.7742  0.9636
24453SOL    HW275739   5.816   5.782   3.641  1.7113 -0.7752  1.5915
24454SOL     OW75740   0.482   2.956   2.158 -0.2369  0.4116  0.5187
24454SOL    HW175741   0.495   2.926   2.068  0.4577  2.3850 -0.0986
24454SOL    HW275742   0.392   2.989   2.160 -0.4288 -0.1114  0.7124
24455SOL     OW75743   8.681   8.048   4.077  0.0200  0.1237 -0.5609
24455SOL    HW175744   8.720   7.993   4.145 -1.8936  1.2835  1.6603
24455SOL    HW275745   8.756   8.082   4.028  1.5091 -0.9411  0.8533
24456SOL     OW75746   8.859   1.050   5.527  0.9983 -0.1286 -0.0184
24456SOL    HW175747   8.834   1.012   5.443  0.6247 -2.3468  1.0165
24456SOL    HW275748   8.855   1.144   5.513 -0.3329 -0.4295 -2.0956
24457SOL     OW75749   1.846   3.819   1.292 -0.2729  0.2828 -0.3212
24457SOL    HW175750   1.869   3.812   1.385  0.5033  2.5739 -0.2803
24457SOL    HW275751   1.897   3.751   1.249 -0.9625 -1.1011  0.9388
24458SOL     OW75752   8.711   4.037  10.136 -0.0126 -0.4298  0.1768
24458SOL    HW175753   8.758   3.956  10.153  0.0505 -0.5874 -0.7005
24458SOL    HW275754   8.766   4.105  10.173 -0.4466 -0.8415  1.6324
24459SOL     OW75755  10.188   3.388   2.910 -0.6856  0.0896 -0.5089
24459SOL    HW175756  10.112   3.349   2.955 -0.4767 -0.4733 -0.6404
24459SOL    HW275757  10.259   3.381   2.974 -0.5283 -0.1893 -0.7135
24460SOL     OW75758   9.214   4.656   2.991  0.5654 -0.4114  0.1157
24460SOL    HW175759   9.309   4.653   2.995  0.5887  0.9571  1.4466
24460SOL    HW275760   9.190   4.577   2.942  2.4358  0.0791 -1.7454
24461SOL     OW75761   4.051   3.631   1.454 -0.0942  0.0429  0.5007
24461SOL    HW175762   4.031   3.713   1.409  2.7287  0.4460 -0.2590
24461SOL    HW275763   4.018   3.562   1.396 -0.2015  0.6229 -0.1381
24462SOL     OW75764   2.148   6.146   8.586 -0.0923  0.1841 -0.0331
24462SOL    HW175765   2.194   6.081   8.533  1.1364 -0.3190  1.5344
24462SOL    HW275766   2.208   6.220   8.590  1.0193 -0.7231  2.5610
24463SOL     OW75767   1.975  10.600   5.289 -0.4181 -0.4249 -0.6927
24463SOL    HW175768   1.939  10.543   5.221  0.4996  0.7119 -2.1950
24463SOL    HW275769   1.904  10.608   5.353 -1.5595 -1.0302 -1.8312
24464SOL     OW75770  10.797   6.207   1.651 -0.7845 -0.0850 -0.4813
24464SOL    HW175771  10.796   6.125   1.601  0.2986 -0.4480  0.0658
24464SOL    HW275772  10.705   6.233   1.656 -1.3428 -2.0732  0.6351
24465SOL     OW75773   9.148   5.659   0.449 -0.0575  0.5160 -0.1941
24465SOL    HW175774   9.090   5.734   0.458 -0.0900  0.4788 -0.0963
24465SOL    HW275775   9.178   5.640   0.537 -0.9489 -0.2954 -0.0373
24466SOL     OW75776   1.963   5.841   6.559  0.3814  0.6850  0.3607
24466SOL    HW175777   2.008   5.925   6.564  2.2725 -0.3213  1.1213
24466SOL    HW275778   2.012   5.784   6.618 -1.4273 -0.7106  0.6003
24467SOL     OW75779   7.761   6.547   7.062 -0.1219  0.6706  0.3353
24467SOL    HW175780   7.673   6.556   7.026 -0.1500  0.3236  0.3075
24467SOL    HW275781   7.796   6.636   7.065  0.4907  0.5858 -2.0875
24468SOL     OW75782   7.273   8.785   3.108  0.4034 -0.3952 -0.3640
24468SOL    HW175783   7.313   8.713   3.156 -0.0678  0.8028  2.0400
24468SOL    HW275784   7.287   8.862   3.164 -2.1738  0.7166 -1.0579
24469SOL     OW75785  10.723   4.895   3.210  0.6728  0.1853  0.2769
24469SOL    HW175786  10.650   4.896   3.272  1.6912 -0.5570  1.5540
24469SOL    HW275787  10.772   4.975   3.232  0.0971  0.8450 -0.7846
24470SOL     OW75788   1.969   8.023   4.372  0.3258  0.5701  0.4997
24470SOL    HW175789   1.919   8.076   4.434 -1.2509 -0.2991  0.0050
24470SOL    HW275790   2.053   8.009   4.416  0.8700  3.5242  0.5888
24471SOL     OW75791   2.516   2.360   5.122  0.1725  0.3394  0.8731
24471SOL    HW175792   2.427   2.351   5.087  0.5543 -0.9921  0.1386
24471SOL    HW275793   2.504   2.385   5.213 -0.9643  0.1494  0.7916
24472SOL     OW75794   2.584   9.516   4.877  0.2884 -0.3310  0.3446
24472SOL    HW175795   2.509   9.529   4.935 -1.4792  0.6170 -2.0029
24472SOL    HW275796   2.643   9.459   4.927 -1.0470  0.4656  3.0561
24473SOL     OW75797  10.196   6.458   5.375  0.3280 -0.3858  0.5228
24473SOL    HW175798  10.215   6.378   5.424  1.3300 -0.4207  0.0943
24473SOL    HW275799  10.281   6.500   5.363  0.4609 -1.3363 -2.8588
24474SOL     OW75800  10.729   9.977   0.230 -0.4437  0.8852 -0.5012
24474SOL    HW175801  10.654   9.942   0.277  0.2512 -1.6086 -1.1161
24474SOL    HW275802  10.713  10.071   0.225 -2.3313  0.7227  1.4339
24475SOL     OW75803   2.358   2.739   1.477 -0.2371 -0.0742  0.1570
24475SOL    HW175804   2.322   2.806   1.419  1.2392  1.2197  0.6680
24475SOL    HW275805   2.345   2.773   1.565  1.9047  0.3279  0.3732
24476SOL     OW75806   7.490   5.743   8.668  0.0039  0.3933 -0.0244
24476SOL    HW175807   7.462   5.829   8.700 -0.1521  0.6081 -0.7066
24476SOL    HW275808   7.582   5.756   8.641  0.8035 -0.3037  2.1880
24477SOL     OW75809   5.715   3.394   2.972 -0.7813 -0.5740 -0.6253
24477SOL    HW175810   5.683   3.401   3.062 -0.6862 -0.1546 -0.6212
24477SOL    HW275811   5.669   3.318   2.936 -0.8124 -0.7481 -0.2213
24478SOL     OW75812   9.686   2.660   4.742  0.4184 -0.1551  0.3634
24478SOL    HW175813   9.637   2.622   4.668 -0.7213  0.2565  0.8781
24478SOL    HW275814   9.774   2.625   4.732  0.6961  0.9966 -2.0132
24479SOL     OW75815   3.866   5.189   0.915  0.1352  0.0476 -0.2262
24479SOL    HW175816   3.918   5.269   0.913  0.2234  0.0218  0.6698
24479SOL    HW275817   3.789   5.210   0.862  1.1352  0.0162 -1.7294
24480SOL     OW75818   2.658   6.160   6.013  0.0916  0.2626  0.1386
24480SOL    HW175819   2.717   6.103   6.061 -0.4304 -1.3665 -1.0677
24480SOL    HW275820   2.714   6.202   5.947  0.1394 -0.4475 -0.2913
24481SOL     OW75821   2.156   4.435   6.218 -0.7848  0.8087 -0.3878
24481SOL    HW175822   2.092   4.399   6.156 -0.4832  0.8339 -0.7141
24481SOL    HW275823   2.106   4.446   6.299 -0.7410 -0.8786 -0.1017
24482SOL     OW75824  10.478   9.423   3.029  0.6715 -0.6106  0.3485
24482SOL    HW175825  10.482   9.518   3.039 -0.1061 -0.5884  0.4464
24482SOL    HW275826  10.440   9.391   3.111 -0.5081 -0.8718 -0.2831
24483SOL     OW75827   7.178   2.623   0.305  0.3595 -0.4272 -0.1911
24483SOL    HW175828   7.126   2.575   0.369 -0.0873 -0.8089 -0.8338
24483SOL    HW275829   7.138   2.709   0.301  1.1378  0.0200  0.9358
24484SOL     OW75830   7.207   4.255   6.203  0.2348  0.1898 -0.1801
24484SOL    HW175831   7.215   4.309   6.124  2.4253 -0.3260 -0.3812
24484SOL    HW275832   7.229   4.314   6.275 -1.0834  0.4828  0.0052
24485SOL     OW75833  10.735   5.460   2.688  0.2731 -0.2322 -0.2736
24485SOL    HW175834  10.743   5.510   2.769  3.2924 -1.3569  0.2264
24485SOL    HW275835  10.805   5.494   2.632 -2.1844  1.0869 -2.8855
24486SOL     OW75836   4.507   3.328   6.808  0.4984  0.2840 -0.1016
24486SOL    HW175837   4.529   3.408   6.762 -2.6740 -0.1796 -2.8033
24486SOL    HW275838   4.435   3.290   6.758 -1.4891 -1.7425  3.7619
24487SOL     OW75839  10.412   5.114   4.078  0.8628 -0.2111 -0.0219
24487SOL    HW175840  10.508   5.109   4.077  0.8898  0.1453  0.1974
24487SOL    HW275841  10.391   5.185   4.017  0.6996 -0.7070 -0.5491
24488SOL     OW75842   5.475   0.558  10.380  0.6202 -0.7960 -0.1576
24488SOL    HW175843   5.416   0.493  10.341 -1.0037  0.8205 -0.5427
24488SOL    HW275844   5.482   0.627  10.314  1.3228 -0.0127  0.7055
24489SOL     OW75845   3.112   7.032   4.447 -0.1470 -0.1261  0.3774
24489SOL    HW175846   3.207   7.028   4.432 -0.0628  1.8590  0.1099
24489SOL    HW275847   3.101   7.098   4.515 -1.3504 -0.3104  0.3883
24490SOL     OW75848   7.302  10.276   3.998 -0.2650  0.0218  0.2207
24490SOL    HW175849   7.285  10.230   3.915  0.0294  0.3287 -0.0100
24490SOL    HW275850   7.310  10.368   3.973  2.4510 -0.1540  0.1858
24491SOL     OW75851   2.315   3.163   2.683  0.3608 -0.2999  0.3475
24491SOL    HW175852   2.371   3.229   2.643  1.2347 -0.8180  0.6802
24491SOL    HW275853   2.283   3.204   2.763 -0.0580  0.1398 -0.0397
24492SOL     OW75854   1.584   2.139   6.466 -0.3070 -0.3647  0.4521
24492SOL    HW175855   1.613   2.092   6.387  0.9257 -0.5495  1.0064
24492SOL    HW275856   1.613   2.229   6.453  0.6981 -0.5890  1.0904
24493SOL     OW75857   2.935   4.459   5.277  0.0555  0.0252 -0.3180
24493SOL    HW175858   3.020   4.502   5.288  0.6466 -0.7518 -1.6111
24493SOL    HW275859   2.946   4.373   5.316 -0.0067 -0.2108 -0.8099
24494SOL     OW75860   0.679   2.972   2.611 -0.0729  0.0640  0.3935
24494SOL    HW175861   0.720   3.057   2.597 -0.1658  0.2796  1.3467
24494SOL    HW275862   0.585   2.988   2.601 -0.0274 -0.1639 -0.5089
24495SOL     OW75863   9.250   8.055  10.050 -0.2504  0.0504 -0.5174
24495SOL    HW175864   9.344   8.043  10.035 -0.3243 -1.1456 -0.1823
24495SOL    HW275865   9.241   8.056  10.146 -0.6056 -0.1062 -0.5479
24496SOL     OW75866   4.606   9.381   6.962  0.2300 -0.4580 -0.1640
24496SOL    HW175867   4.636   9.292   6.976  0.1651 -0.3800  0.5069
24496SOL    HW275868   4.637   9.404   6.874 -0.8961 -1.6079 -0.9125
24497SOL     OW75869   4.472   3.025   9.239 -0.0681 -0.1272  0.3917
24497SOL    HW175870   4.395   2.980   9.274 -0.8455 -0.4398 -1.6168
24497SOL    HW275871   4.454   3.036   9.146  1.7967  0.9089  0.0991
24498SOL     OW75872  10.738   4.021   3.503  0.4035 -0.2220  0.3404
24498SOL    HW175873  10.786   4.088   3.552  0.2160 -0.7057  1.2237
24498SOL    HW275874  10.681   4.071   3.444  1.6431  0.3546 -0.3985
24499SOL     OW75875   5.190   4.264   8.695  0.2386  0.2225 -0.1366
24499SOL    HW175876   5.108   4.300   8.730 -0.4480 -1.4389  0.0976
24499SOL    HW275877   5.202   4.308   8.611 -1.3784 -0.0864 -0.5663
24500SOL     OW75878   7.471   2.863   4.967 -0.1995 -0.1648 -0.6611
24500SOL    HW175879   7.429   2.886   4.884 -1.9878 -1.1293 -0.0772
24500SOL    HW275880   7.403   2.815   5.015  1.3964 -1.2219  0.6119
24501SOL     OW75881   1.210  10.731   1.569 -0.5593  0.2548  0.9118
24501SOL    HW175882   1.206  10.636   1.555 -0.8736  0.0578  2.1552
24501SOL    HW275883   1.304  10.750   1.572 -0.4926 -0.0518  0.8116
24502SOL     OW75884  10.495   4.581   9.201 -0.2272  0.1517 -0.4014
24502SOL    HW175885  10.578   4.628   9.202 -0.5173  0.7089  1.6289
24502SOL    HW275886  10.440   4.630   9.141 -0.6669  2.7819  1.9575
24503SOL     OW75887   1.136   9.590   5.540  0.6045 -0.8035  0.1756
24503SOL    HW175888   1.221   9.587   5.584  0.3162 -1.2496  0.7194
24503SOL    HW275889   1.100   9.676   5.561  0.7875 -0.7363  0.2082
24504SOL     OW75890   1.745   2.248   4.454  0.0406 -0.4480 -0.4614
24504SOL    HW175891   1.835   2.280   4.447 -0.3377  0.6152 -0.6342
24504SOL    HW275892   1.754   2.153   4.452  1.0978 -0.3586 -1.3038
24505SOL     OW75893   5.788   5.896   1.316  0.0508 -0.4838 -0.2766
24505SOL    HW175894   5.758   5.805   1.324  1.0497 -0.8420 -0.4297
24505SOL    HW275895   5.864   5.891   1.258  1.6428  0.0849  1.6201
24506SOL     OW75896   5.173   0.323   7.886  0.2121 -0.7342  0.0067
24506SOL    HW175897   5.124   0.274   7.820 -0.0315 -0.2079 -0.2070
24506SOL    HW275898   5.258   0.279   7.891  1.5026  1.0958 -2.9959
24507SOL     OW75899   2.402   3.345  10.027  0.1520  0.5189  0.2137
24507SOL    HW175900   2.442   3.271   9.981  2.9172  2.2653 -0.4716
24507SOL    HW275901   2.365   3.307  10.107 -0.5443 -1.8872 -1.1533
24508SOL     OW75902   6.679   9.319   7.935 -0.3499  0.4032  0.4299
24508SOL    HW175903   6.612   9.341   7.999  0.5443 -0.9783  1.9315
24508SOL    HW275904   6.759   9.309   7.987  0.6417  0.2594 -1.0581
24509SOL     OW75905   8.926   9.905   2.162 -0.6616  0.1620 -0.2890
24509SOL    HW175906   8.915   9.991   2.122 -2.4240 -0.2341 -0.7557
24509SOL    HW275907   8.884   9.844   2.101  2.0601 -1.3111 -0.8294
24510SOL     OW75908   0.792   7.697   8.286 -0.0654 -0.3867  1.1292
24510SOL    HW175909   0.747   7.771   8.244  0.4383 -1.4563 -1.5278
24510SOL    HW275910   0.871   7.736   8.324 -0.0984  0.5474  0.2891
24511SOL     OW75911   2.379  10.298   6.931 -0.6837  0.2677 -0.2615
24511SOL    HW175912   2.289  10.318   6.956 -0.3705 -0.6016  1.7403
24511SOL    HW275913   2.432  10.345   6.996  0.2029 -1.5873  0.4293
24512SOL     OW75914   0.577   9.169   5.125  0.5216 -0.2612  0.4706
24512SOL    HW175915   0.610   9.221   5.052 -0.8938  0.7089  0.4800
24512SOL    HW275916   0.624   9.202   5.202  1.2205 -0.5253  0.1583
24513SOL     OW75917   9.299   2.248   7.661  0.0800  0.0088  0.3493
24513SOL    HW175918   9.247   2.259   7.581  1.8061  0.0368 -0.8205
24513SOL    HW275919   9.266   2.167   7.699 -1.0734  0.2232 -0.1332
24514SOL     OW75920   4.815   4.061   8.353 -0.4583 -0.4295 -0.8280
24514SOL    HW175921   4.797   4.081   8.445  1.4544  1.6736 -0.8173
24514SOL    HW275922   4.729   4.062   8.312 -1.0869  3.3524  0.1695
24515SOL     OW75923  10.009   2.784   8.052  0.6577  0.1204  0.8457
24515SOL    HW175924  10.033   2.787   8.144  1.1698  1.4756  0.6975
24515SOL    HW275925  10.087   2.817   8.006  0.6189 -1.0725 -0.1257
24516SOL     OW75926   0.336   2.150   5.189  0.2582  0.0391  0.0217
24516SOL    HW175927   0.342   2.063   5.228 -0.4252 -1.2244 -2.4789
24516SOL    HW275928   0.425   2.169   5.158  0.1966 -0.2238 -0.3184
24517SOL     OW75929   8.374   0.004   0.111 -0.0097  0.3136  0.4065
24517SOL    HW175930   8.394   0.060   0.036  0.7894 -1.5893 -0.8690
24517SOL    HW275931   8.349   0.065   0.181 -0.1110  2.1774 -1.1869
24518SOL     OW75932   7.233   6.773   0.497  0.0629 -0.1953 -0.0844
24518SOL    HW175933   7.241   6.695   0.443  0.3914  0.6578 -1.3180
24518SOL    HW275934   7.177   6.747   0.570 -0.2970 -1.4100 -0.7772
24519SOL     OW75935   8.445   8.870   1.718  0.1864  0.2865  0.5582
24519SOL    HW175936   8.444   8.788   1.668  0.5461  0.4124  0.3406
24519SOL    HW275937   8.414   8.846   1.805  0.1849 -0.0594  0.4624
24520SOL     OW75938   3.577   3.515   6.566 -0.6362  1.0719 -0.6853
24520SOL    HW175939   3.568   3.557   6.652 -0.4776 -1.6284  0.7666
24520SOL    HW275940   3.669   3.489   6.562 -1.4506 -2.6117  0.3927
24521SOL     OW75941   8.303   6.714   2.908 -0.2682 -0.2355 -0.2138
24521SOL    HW175942   8.312   6.638   2.851  2.6748  0.4097 -0.8060
24521SOL    HW275943   8.329   6.682   2.994  0.2143 -0.0951 -0.3037
24522SOL     OW75944   9.991   8.191   8.818  0.0793  0.1268  0.4066
24522SOL    HW175945  10.027   8.119   8.870 -1.0361  0.6940  2.0433
24522SOL    HW275946   9.918   8.152   8.770  0.3572 -0.1328  0.1899
24523SOL     OW75947   1.059   3.571   2.677  0.4197  0.5031  0.0518
24523SOL    HW175948   1.083   3.528   2.595  1.8280 -0.5816  0.9908
24523SOL    HW275949   0.981   3.525   2.707  0.2749  0.4844 -0.3499
24524SOL     OW75950   5.340   8.581   1.818 -0.0234 -0.3346 -0.0992
24524SOL    HW175951   5.374   8.535   1.895  0.4529  0.3943  0.1339
24524SOL    HW275952   5.418   8.609   1.770 -0.3202 -0.7634 -0.8363
24525SOL     OW75953   6.723   7.383   4.934  0.8366  0.3866 -0.7635
24525SOL    HW175954   6.791   7.411   4.995  1.5732 -3.2465  0.2988
24525SOL    HW275955   6.672   7.319   4.983 -1.0827  0.3057 -2.7392
24526SOL     OW75956   1.313   0.346   7.689 -0.7714  0.6064  0.4067
24526SOL    HW175957   1.328   0.293   7.768  0.2610  1.1086  0.5668
24526SOL    HW275958   1.219   0.366   7.692 -0.8692  0.1171  1.1873
24527SOL     OW75959  10.064   3.626   1.410 -0.6025 -0.3965 -0.2201
24527SOL    HW175960   9.977   3.609   1.446 -0.3759 -0.2115  0.4450
24527SOL    HW275961  10.124   3.602   1.481 -0.1770  0.8912 -0.1168
24528SOL     OW75962   5.760   4.928   6.750  0.4453  0.3933 -0.0959
24528SOL    HW175963   5.786   4.954   6.838  2.5939 -0.9031 -0.2944
24528SOL    HW275964   5.798   4.841   6.738 -2.7061 -1.0205 -1.0809
24529SOL     OW75965   7.371   0.648   3.985  0.3509  0.3658  0.4657
24529SOL    HW175966   7.401   0.558   3.997 -0.6473 -0.2374 -1.1042
24529SOL    HW275967   7.290   0.639   3.935  0.2995  2.1528  0.1640
24530SOL     OW75968   7.991   7.319   4.894 -0.3436 -0.4370 -0.0288
24530SOL    HW175969   8.029   7.405   4.909  0.9695 -0.7392 -1.3919
24530SOL    HW275970   8.065   7.264   4.869 -1.0332 -2.1466  1.4187
24531SOL     OW75971   5.476   1.625   3.607  0.4240 -0.1446 -0.0469
24531SOL    HW175972   5.498   1.596   3.695  0.5240  1.8484  0.6346
24531SOL    HW275973   5.385   1.598   3.595  0.4982 -0.6900  0.5388
24532SOL     OW75974  10.504   8.871   9.160  0.1508 -0.0055  0.0702
24532SOL    HW175975  10.515   8.850   9.253  0.3370 -1.9505 -0.3337
24532SOL    HW275976  10.411   8.856   9.143 -0.0996  1.3441  0.1351
24533SOL     OW75977  10.187   9.459   0.039  0.4579  0.0750 -0.3325
24533SOL    HW175978  10.131   9.392  -0.001 -0.6002  1.5139 -1.3837
24533SOL    HW275979  10.169   9.538  -0.012  2.7402  0.8383 -0.0644
24534SOL     OW75980   3.536   6.525   9.229  0.0370  0.3775 -0.1912
24534SOL    HW175981   3.625   6.552   9.252  0.1387 -0.6037  0.6421
24534SOL    HW275982   3.538   6.430   9.235 -0.9112  0.3142 -0.7874
24535SOL     OW75983   6.128  10.063   4.132 -0.8037 -0.1717 -0.4988
24535SOL    HW175984   6.159  10.138   4.080 -1.3553  3.0577  3.3907
24535SOL    HW275985   6.208  10.015   4.153  0.3595  2.2104  0.9327
24536SOL     OW75986  10.632   3.240   4.084 -0.3278 -0.0408 -0.0803
24536SOL    HW175987  10.696   3.261   4.016 -1.4437 -1.2277 -1.5335
24536SOL    HW275988  10.619   3.146   4.077 -1.4433  0.0157  0.9151
24537SOL     OW75989   8.396   7.707   9.419 -0.5115  0.3384  0.2558
24537SOL    HW175990   8.328   7.640   9.412  0.5540 -0.7849  0.0551
24537SOL    HW275991   8.393   7.735   9.511 -0.5240 -0.5268  0.5332
24538SOL     OW75992   5.785  10.217  10.058 -0.0061  0.4394  0.4151
24538SOL    HW175993   5.797  10.127  10.088  0.1228 -0.1894 -1.3943
24538SOL    HW275994   5.817  10.271  10.130  0.0223 -0.9554  1.4888
24539SOL     OW75995   5.845   4.517   6.103 -0.5163  0.0953 -0.1976
24539SOL    HW175996   5.810   4.465   6.031 -0.3140 -2.7387  1.5776
24539SOL    HW275997   5.774   4.521   6.167  0.1281  0.2556  0.5256
24540SOL     OW75998   5.219   7.433   4.721 -0.5707 -0.3564 -0.1847
24540SOL    HW175999   5.235   7.527   4.726  1.1628 -0.5522 -1.0406
24540SOL    HW276000   5.149   7.417   4.784 -1.0351  1.5231 -0.1555
24541SOL     OW76001  10.127   6.044   5.692  0.0976  0.2445  0.2846
24541SOL    HW176002  10.150   5.992   5.769 -0.5988  1.2142  1.1745
24541SOL    HW276003  10.041   6.080   5.712 -0.4922 -0.1819 -1.3286
24542SOL     OW76004   6.706   0.377   4.740  0.2457  0.5928  0.0818
24542SOL    HW176005   6.770   0.401   4.807 -0.3574  0.5664  0.6824
24542SOL    HW276006   6.712   0.447   4.675  1.8665 -0.1124 -0.6008
24543SOL     OW76007   8.389  10.278   6.115 -0.1001  0.1170  0.3809
24543SOL    HW176008   8.318  10.259   6.176 -0.6836  0.6618 -0.1224
24543SOL    HW276009   8.467  10.244   6.159 -0.6668 -0.5258  0.9165
24544SOL     OW76010   3.495   1.173   0.447  0.4070 -0.5935  0.1442
24544SOL    HW176011   3.516   1.265   0.461 -1.0544  0.3963 -3.0867
24544SOL    HW276012   3.552   1.146   0.375  0.3493 -1.9981  0.6042
24545SOL     OW76013   1.987   2.350   4.922 -0.2541  0.2273 -0.1834
24545SOL    HW176014   1.953   2.304   4.999 -0.1960 -0.2827 -0.4600
24545SOL    HW276015   2.006   2.438   4.954  0.2965 -0.1368  0.5335
24546SOL     OW76016   6.590   3.853   7.941  0.4689 -1.3528  0.3328
24546SOL    HW176017   6.674   3.810   7.928  1.9436  1.3005  0.3445
24546SOL    HW276018   6.568   3.835   8.033  1.6866 -1.0648  0.7020
24547SOL     OW76019   5.078   0.180   4.928  0.2182 -0.3288  0.2354
24547SOL    HW176020   5.066   0.108   4.990 -1.2625 -0.6168 -0.3474
24547SOL    HW276021   5.080   0.137   4.842 -0.4731  0.2855 -0.0978
24548SOL     OW76022   6.687   4.573   5.322 -0.6977 -0.2860 -0.7041
24548SOL    HW176023   6.653   4.515   5.390  0.2585  0.8520  0.8319
24548SOL    HW276024   6.758   4.524   5.282 -1.8179 -1.3020 -1.5066
24549SOL     OW76025   6.807   6.238   7.713  0.1973 -0.0527  0.0863
24549SOL    HW176026   6.787   6.146   7.731  0.2337 -0.1739 -0.4597
24549SOL    HW276027   6.836   6.273   7.797  1.9684 -1.0018 -0.0659
24550SOL     OW76028   7.909   1.657   5.202 -0.0949 -0.1751 -0.7093
24550SOL    HW176029   7.973   1.611   5.148 -0.6737  0.1232 -1.6959
24550SOL    HW276030   7.922   1.750   5.180  0.9688  0.1627  1.1512
24551SOL     OW76031  10.055   4.799   4.906 -0.3027 -0.4129 -0.1137
24551SOL    HW176032  10.082   4.820   4.816  1.6320  0.6472  0.6528
24551SOL    HW276033  10.003   4.875   4.933  1.8038  0.8205  0.6867
24552SOL     OW76034   6.374   6.025   3.190  0.2556 -0.5429  0.5515
24552SOL    HW176035   6.291   6.046   3.232 -1.1677 -1.8767 -1.4358
24552SOL    HW276036   6.354   5.953   3.131  2.4964  0.1353 -1.1782
24553SOL     OW76037   6.790   3.380   4.901  0.3026  0.0285 -0.3508
24553SOL    HW176038   6.767   3.287   4.891  0.0482 -0.3271  2.5563
24553SOL    HW276039   6.884   3.383   4.888  0.3572 -0.7067 -0.1836
24554SOL     OW76040   7.852   3.643   0.510  0.4055  0.2849  0.1097
24554SOL    HW176041   7.833   3.686   0.593 -0.2932 -0.0956  0.1605
24554SOL    HW276042   7.806   3.695   0.445  1.1553  0.7226 -0.0702
24555SOL     OW76043   2.377   8.439   2.113  0.6607 -0.1159  0.3998
24555SOL    HW176044   2.358   8.505   2.180 -1.3124  1.4726 -1.5776
24555SOL    HW276045   2.458   8.469   2.071 -0.3361  1.2571 -0.6283
24556SOL     OW76046  10.457   2.671   3.586  0.1248  0.2065 -0.9917
24556SOL    HW176047  10.437   2.586   3.624  1.0875  0.7850  0.9453
24556SOL    HW276048  10.448   2.733   3.659  0.5428  1.6032 -2.0755
24557SOL     OW76049   2.145   0.855   1.448  0.0488 -0.2978 -0.3972
24557SOL    HW176050   2.130   0.763   1.428 -1.3120 -1.1050  3.4372
24557SOL    HW276051   2.065   0.899   1.419 -0.9154 -1.0184  1.0457
24558SOL     OW76052   9.982   8.896   1.100  0.6428  0.5991 -0.1996
24558SOL    HW176053   9.957   8.980   1.061  0.9522  0.5518 -0.4977
24558SOL    HW276054  10.001   8.918   1.192 -0.5209  0.6305  0.0459
24559SOL     OW76055   8.261   7.098   8.790  0.1494  0.0876 -0.1907
24559SOL    HW176056   8.197   7.105   8.860  0.9550  0.9922  0.4816
24559SOL    HW276057   8.301   7.012   8.802  0.9937  0.6273  1.1208
24560SOL     OW76058   1.241   5.089   2.143 -0.1071  0.5043 -0.4740
24560SOL    HW176059   1.194   5.069   2.224 -1.6365  1.2615 -1.1290
24560SOL    HW276060   1.309   5.151   2.169 -0.2120  0.2992  0.3085
24561SOL     OW76061   5.803   5.345   6.265 -0.0236  0.0668  0.2246
24561SOL    HW176062   5.894   5.320   6.249  0.0172 -0.4185  1.1584
24561SOL    HW276063   5.801   5.369   6.357 -0.5003  1.6584 -0.1549
24562SOL     OW76064   4.535   2.628   3.126 -0.5630  0.0393  0.2285
24562SOL    HW176065   4.440   2.615   3.125 -0.6402  0.6128  0.0799
24562SOL    HW276066   4.558   2.627   3.219 -0.7347  0.0431  0.2713
24563SOL     OW76067   1.431   3.548   3.160 -0.0365  0.2757  0.0477
24563SOL    HW176068   1.388   3.598   3.090 -0.1299 -0.9531 -0.8114
24563SOL    HW276069   1.361   3.532   3.224 -0.3490  0.0585 -0.3416
24564SOL     OW76070  10.714   8.926   3.629 -0.7029  0.4504  0.0325
24564SOL    HW176071  10.746   8.955   3.715 -1.0749  0.6190  0.1191
24564SOL    HW276072  10.696   8.833   3.641  1.1757 -0.0123 -0.4514
24565SOL     OW76073   3.774   8.475   1.674 -0.3472  0.0835 -0.0108
24565SOL    HW176074   3.866   8.494   1.691 -0.8525  1.1385  1.9138
24565SOL    HW276075   3.726   8.540   1.725 -2.1561 -1.6950  0.7227
24566SOL     OW76076   4.881   1.504   0.303  0.0553 -0.3553 -0.2652
24566SOL    HW176077   4.944   1.519   0.233 -0.6183 -1.9977 -1.2847
24566SOL    HW276078   4.899   1.572   0.367  1.0430  0.8716 -1.7885
24567SOL     OW76079   4.868   8.207   4.055 -0.3636 -0.0183  0.0983
24567SOL    HW176080   4.844   8.211   4.147 -2.6643  0.5753 -0.4627
24567SOL    HW276081   4.811   8.139   4.018 -1.0689  1.2486 -1.2734
24568SOL     OW76082   9.672   0.955   3.216  0.5757 -0.4467 -0.0266
24568SOL    HW176083   9.643   0.910   3.137 -1.7855 -0.8272  0.9935
24568SOL    HW276084   9.697   0.885   3.276  1.5602 -0.1777 -0.0935
24569SOL     OW76085   7.441   3.388   6.717 -0.1804 -0.3435 -0.8072
24569SOL    HW176086   7.429   3.384   6.812 -0.9115 -1.5417 -0.9344
24569SOL    HW276087   7.367   3.338   6.682 -0.5502  1.0156 -2.0596
24570SOL     OW76088   0.984   4.675   6.323  0.2100  0.6914  0.3348
24570SOL    HW176089   0.976   4.583   6.347  0.0013  0.1082 -1.7767
24570SOL    HW276090   1.074   4.699   6.347  0.6913 -0.4391 -0.2795
24571SOL     OW76091   9.825   0.225   8.865  0.2034 -0.0085  0.7300
24571SOL    HW176092   9.810   0.238   8.771  0.7044  1.4946  0.8288
24571SOL    HW276093   9.823   0.131   8.877  0.0982 -0.2240 -0.7925
24572SOL     OW76094   8.889  10.025   4.468 -0.1751  0.1540 -0.6799
24572SOL    HW176095   8.794  10.035   4.466 -0.4235 -1.2818  0.9075
24572SOL    HW276096   8.919  10.095   4.527 -0.6341 -1.2577  1.3113
24573SOL     OW76097   1.001   5.230   0.012 -0.1530  0.0471  0.6483
24573SOL    HW176098   1.011   5.170   0.086  1.1225  1.2266  1.4968
24573SOL    HW276099   1.081   5.282   0.013  0.8714 -1.2059 -2.8415
24574SOL     OW76100   9.012   8.904   1.360  0.5796  0.5913  0.1554
24574SOL    HW176101   8.945   8.916   1.293  0.3664  0.0183  0.2572
24574SOL    HW276102   9.037   8.993   1.385  0.7624  0.8209 -0.7766
24575SOL     OW76103  10.760   6.477   4.277 -0.1038 -0.0839 -0.4379
24575SOL    HW176104  10.727   6.447   4.362 -1.7800  0.5809 -0.8175
24575SOL    HW276105  10.850   6.443   4.273 -0.6077 -1.7130  0.7999
24576SOL     OW76106   9.652   0.429   1.264  0.1944 -0.3137 -0.0304
24576SOL    HW176107   9.573   0.407   1.213 -0.5232  1.5026  0.2328
24576SOL    HW276108   9.619   0.448   1.352  1.0930 -0.7102  0.4020
24577SOL     OW76109   0.860   5.143   0.472  0.3064 -0.7069 -0.2278
24577SOL    HW176110   0.936   5.186   0.510  0.6747 -2.8844  1.7098
24577SOL    HW276111   0.787   5.201   0.493  1.0997  0.2016  0.0665
24578SOL     OW76112   9.159   7.641   9.788 -0.6080  0.3079  0.1549
24578SOL    HW176113   9.111   7.638   9.705  0.6163 -1.1579 -0.5417
24578SOL    HW276114   9.125   7.719   9.833 -2.2605  0.3625 -1.1197
24579SOL     OW76115   4.590   5.263   5.827  0.3545 -0.0522  0.4033
24579SOL    HW176116   4.543   5.336   5.866 -0.6843 -0.3187 -0.3135
24579SOL    HW276117   4.584   5.277   5.733  0.1488 -1.0391  0.2545
24580SOL     OW76118   2.482   2.228   7.800 -0.0766 -0.2729 -0.0398
24580SOL    HW176119   2.577   2.217   7.801 -0.0070  0.1607 -0.7472
24580SOL    HW276120   2.461   2.245   7.708 -0.5841  1.6376  0.3715
24581SOL     OW76121   9.716   4.626   1.355  0.1383  0.0278  0.6003
24581SOL    HW176122   9.666   4.633   1.437  0.0388  0.6313  0.4920
24581SOL    HW276123   9.799   4.587   1.381 -0.7584 -1.9755  0.6321
24582SOL     OW76124   0.032  10.748   7.035  0.8032 -0.1983  0.3429
24582SOL    HW176125  -0.060  10.765   7.016  0.9241  1.6916  1.1869
24582SOL    HW276126   0.055  10.675   6.979 -1.9928 -2.8552  2.3078
24583SOL     OW76127   5.334   8.489  10.429 -0.2872 -0.1958  0.3444
24583SOL    HW176128   5.391   8.557  10.392 -1.7855 -0.2015 -2.2524
24583SOL    HW276129   5.311   8.523  10.516  0.2098  1.9191 -0.2705
24584SOL     OW76130  10.139   9.401   4.658 -0.0401 -0.4433  0.2471
24584SOL    HW176131  10.102   9.489   4.668  1.0899 -0.0002  0.6386
24584SOL    HW276132  10.115   9.375   4.569 -0.1802  0.3609  0.0454
24585SOL     OW76133   5.327   2.142   9.532  0.5460  0.1714  0.1315
24585SOL    HW176134   5.336   2.089   9.611 -0.0070 -0.2688 -0.0908
24585SOL    HW276135   5.369   2.090   9.463  2.5662  1.3131  0.4303
24586SOL     OW76136   5.669   2.885   9.181  0.3876 -0.3151  0.7739
24586SOL    HW176137   5.634   2.803   9.215 -0.0683  0.0496  1.1864
24586SOL    HW276138   5.716   2.859   9.102 -2.1839 -0.6303 -0.7606
24587SOL     OW76139   3.030  10.115   8.774 -0.0361  0.1077 -0.3800
24587SOL    HW176140   2.997  10.124   8.864 -3.2453  0.3635 -1.4476
24587SOL    HW276141   3.025  10.021   8.756 -0.5995  0.1884 -0.6693
24588SOL     OW76142   1.955   6.325   3.546 -0.2010  0.0200  0.2314
24588SOL    HW176143   2.027   6.321   3.609  0.2037 -0.5014 -0.2571
24588SOL    HW276144   1.974   6.256   3.482  0.2975  1.5777 -1.4040
24589SOL     OW76145   9.614   5.186   3.473 -0.1860 -0.6535 -0.0880
24589SOL    HW176146   9.682   5.252   3.484  0.8724 -1.5113 -1.1651
24589SOL    HW276147   9.624   5.128   3.548 -0.7653  0.0920  0.5763
24590SOL     OW76148   7.947   2.284   7.494  1.0168  0.2822  0.1030
24590SOL    HW176149   7.900   2.246   7.568  0.3512  1.4292  0.2943
24590SOL    HW276150   7.904   2.248   7.417  0.4695  0.5417  0.2811
24591SOL     OW76151   1.413   3.649   6.665 -0.0391 -0.6194  0.4122
24591SOL    HW176152   1.387   3.731   6.624 -1.8865 -1.1831  0.3534
24591SOL    HW276153   1.476   3.675   6.732 -1.5744  1.0479  1.3091
24592SOL     OW76154   0.808   9.800   2.138 -0.3743  0.1410 -0.4042
24592SOL    HW176155   0.899   9.828   2.131 -0.0445 -1.0310 -0.9531
24592SOL    HW276156   0.766   9.833   2.059 -0.1881 -0.1666 -0.6328
24593SOL     OW76157   3.025   9.218   3.854  0.1609  0.1252 -0.1973
24593SOL    HW176158   3.103   9.242   3.905 -0.0187 -0.8733  0.5885
24593SOL    HW276159   2.959   9.281   3.881 -0.2836 -1.0996  1.7771
24594SOL     OW76160   6.587   1.668   3.668 -0.3971 -0.0551 -0.7285
24594SOL    HW176161   6.517   1.732   3.684  0.9944  1.2053  0.5861
24594SOL    HW276162   6.553   1.586   3.703 -1.3299  0.4743 -0.3479
24595SOL     OW76163   4.157   7.787   6.999  0.0411 -0.1393 -0.5644
24595SOL    HW176164   4.172   7.759   6.908  0.6530 -0.2515 -0.4332
24595SOL    HW276165   4.244   7.786   7.039 -0.3214 -0.9058  0.2559
24596SOL     OW76166   2.260   6.251   6.457 -0.0071  0.2777 -0.0085
24596SOL    HW176167   2.291   6.192   6.389 -0.0152 -0.5744  0.7035
24596SOL    HW276168   2.279   6.339   6.424 -1.5311 -0.0293 -1.8472
24597SOL     OW76169   9.862   9.741   6.585 -0.0042 -0.1338 -0.1062
24597SOL    HW176170   9.778   9.696   6.593 -0.1524  0.1847  0.1250
24597SOL    HW276171   9.839   9.833   6.573  0.2929 -0.1412 -0.7735
24598SOL     OW76172   4.367   3.755   8.987  0.6613  0.5490 -0.0064
24598SOL    HW176173   4.388   3.803   9.068  2.0501 -1.0408  0.6418
24598SOL    HW276174   4.452   3.745   8.943  0.1510  0.0673 -0.9000
24599SOL     OW76175   6.192   0.209   0.145 -0.1285 -0.1326 -0.4025
24599SOL    HW176176   6.175   0.271   0.216 -0.6747 -0.4269 -0.2689
24599SOL    HW276177   6.187   0.261   0.065  2.8097  0.6977 -0.1500
24600SOL     OW76178   7.028   1.208   1.546  0.0296 -0.2006  0.2362
24600SOL    HW176179   7.007   1.292   1.506  0.1314 -0.1733  0.2381
24600SOL    HW276180   6.963   1.197   1.616 -1.1654 -1.0064 -0.9654
24601SOL     OW76181   1.478   5.841   7.507  0.1035 -0.6383 -0.6045
24601SOL    HW176182   1.445   5.804   7.589 -1.0045 -1.3339 -1.3294
24601SOL    HW276183   1.567   5.869   7.527 -0.4266 -0.0228  1.0576
24602SOL     OW76184   6.058   3.882   7.733 -0.6452 -0.0836  0.2535
24602SOL    HW176185   6.153   3.876   7.738 -0.6010  0.5111  0.1821
24602SOL    HW276186   6.041   3.935   7.655 -1.0027  0.5146  0.7313
24603SOL     OW76187   7.331   6.863   7.405  0.4554  0.2773 -0.4245
24603SOL    HW176188   7.329   6.936   7.344 -2.1171  0.7275  0.0859
24603SOL    HW276189   7.289   6.790   7.359 -3.3201  1.1475  1.1963
24604SOL     OW76190   9.769   2.812   9.577 -0.2455 -0.5978 -0.0475
24604SOL    HW176191   9.798   2.867   9.649  1.8235  0.6133 -1.7165
24604SOL    HW276192   9.848   2.766   9.548 -0.8260 -0.4278 -2.0480
24605SOL     OW76193   4.072   2.490   3.166 -0.3027 -0.0492  0.0084
24605SOL    HW176194   4.037   2.533   3.088 -0.4079  1.1654  0.6833
24605SOL    HW276195   4.084   2.399   3.141 -0.1386  0.3570 -1.4787
24606SOL     OW76196   6.938   5.176   3.650 -0.1644 -0.2583 -0.1528
24606SOL    HW176197   6.860   5.231   3.662 -0.0946 -0.5314  2.1625
24606SOL    HW276198   6.926   5.105   3.713  3.0267  0.9561  2.1029
24607SOL     OW76199   9.663   1.871   9.270 -0.5415 -0.2596  0.8096
24607SOL    HW176200   9.685   1.778   9.272  0.4702 -0.0390  0.5970
24607SOL    HW276201   9.690   1.904   9.356 -0.1147 -0.0032  0.5813
24608SOL     OW76202   0.074   3.294   1.742 -0.1533  0.0912  0.5390
24608SOL    HW176203   0.006   3.285   1.675  0.7015  0.1740 -0.3689
24608SOL    HW276204   0.031   3.267   1.823 -1.6342  1.3658  0.2321
24609SOL     OW76205   5.219   4.326   5.402  0.3428 -0.3814 -0.2068
24609SOL    HW176206   5.279   4.375   5.459 -1.5300  0.6530  0.9865
24609SOL    HW276207   5.271   4.254   5.369  1.6977 -0.7663  2.4934
24610SOL     OW76208   8.965   4.393   9.277 -0.4618  0.2493  0.0993
24610SOL    HW176209   9.003   4.306   9.264  2.3956  1.4526 -0.3252
24610SOL    HW276210   9.021   4.433   9.345 -0.3372  2.4663 -1.2211
24611SOL     OW76211   0.780   0.640   1.239 -0.1240 -0.0799 -0.0501
24611SOL    HW176212   0.772   0.736   1.243  0.1864 -0.0009 -1.0609
24611SOL    HW276213   0.809   0.616   1.327  0.8304  0.8782 -0.0649
24612SOL     OW76214   2.879   9.164  10.784  0.6937 -0.5321  0.0256
24612SOL    HW176215   2.928   9.083  10.770  1.3416 -0.2258  0.4546
24612SOL    HW276216   2.826   9.147  10.862  0.2228 -0.8105 -0.3492
24613SOL     OW76217   6.477   2.510   1.939  0.4252  0.3196 -0.0455
24613SOL    HW176218   6.484   2.437   2.001  2.7243 -0.7173 -1.3779
24613SOL    HW276219   6.416   2.571   1.981 -0.1618 -1.5045  1.9817
24614SOL     OW76220   7.528   6.310   3.889 -0.0638 -0.2107 -0.6243
24614SOL    HW176221   7.579   6.390   3.901  0.8278 -1.1365  2.6912
24614SOL    HW276222   7.591   6.239   3.900 -1.4085 -1.3743 -0.1651
24615SOL     OW76223   7.293   9.852   5.764 -0.0705 -0.6273  0.3451
24615SOL    HW176224   7.383   9.821   5.756  0.3528  0.5927  0.2101
24615SOL    HW276225   7.287   9.887   5.853  0.3117  1.4252 -0.3859
24616SOL     OW76226   3.770   4.962   2.015  0.0687 -0.4207 -0.1202
24616SOL    HW176227   3.735   5.043   2.052  0.0080 -0.4355 -0.1448
24616SOL    HW276228   3.818   4.921   2.087  0.4658 -0.1506 -0.2256
24617SOL     OW76229   8.822   8.749   6.231 -0.0773 -0.3527  0.8157
24617SOL    HW176230   8.913   8.775   6.245  0.0247  0.1536 -0.5678
24617SOL    HW276231   8.827   8.666   6.184 -0.1791  1.1728 -2.1503
24618SOL     OW76232   3.110   4.185   6.165 -0.0808 -0.7240  0.2671
24618SOL    HW176233   3.123   4.258   6.104  0.4692 -0.6028  0.5168
24618SOL    HW276234   3.079   4.227   6.245  1.1408 -0.6348  0.7234
24619SOL     OW76235   5.002  10.642   7.078  0.1887  0.0892  0.6033
24619SOL    HW176236   5.065  10.586   7.123 -0.1014  0.6597  1.7483
24619SOL    HW276237   4.931  10.654   7.141 -0.2566  0.8560 -0.0304
24620SOL     OW76238   3.228  10.011   0.286 -0.2083  0.0772  0.0962
24620SOL    HW176239   3.216  10.105   0.277 -2.8637 -0.2210 -0.2908
24620SOL    HW276240   3.202   9.991   0.376 -0.5184 -0.3737 -0.0859
24621SOL     OW76241   1.235   9.695   1.051 -0.7483 -0.0280 -0.0560
24621SOL    HW176242   1.328   9.683   1.030  0.0080  1.2488  2.1979
24621SOL    HW276243   1.211   9.776   1.006 -0.6813 -0.1621 -0.3389
24622SOL     OW76244   3.047   0.307   7.301 -0.4536  0.4962 -0.1518
24622SOL    HW176245   3.066   0.224   7.344 -1.0372  1.1079  1.3616
24622SOL    HW276246   3.133   0.350   7.292 -0.2665  0.1442 -0.0543
24623SOL     OW76247   6.690   9.104   9.954 -0.6687  0.3046 -0.1632
24623SOL    HW176248   6.754   9.105  10.025  0.5207 -1.5048 -1.1267
24623SOL    HW276249   6.610   9.070   9.995  0.1441 -1.2107  0.2282
24624SOL     OW76250   1.184   9.973   5.479  0.7888 -0.7494  0.2216
24624SOL    HW176251   1.208  10.065   5.488  1.6733 -0.7135 -1.8731
24624SOL    HW276252   1.097   9.966   5.517 -0.5058  1.5811 -1.9954
24625SOL     OW76253   2.150   0.574   9.124 -0.0203  0.1867  0.4581
24625SOL    HW176254   2.221   0.609   9.070 -0.6592 -0.5444 -0.9206
24625SOL    HW276255   2.193   0.529   9.196  1.0232 -1.7945 -1.2983
24626SOL     OW76256   7.079   6.969   0.710 -0.2714 -0.5314 -0.3466
24626SOL    HW176257   7.081   6.875   0.726  0.1659 -0.3578  0.6454
24626SOL    HW276258   7.078   7.009   0.797  0.1843  0.3938 -0.7510
24627SOL     OW76259   0.267   9.789   4.463  0.1943  0.1770 -0.2107
24627SOL    HW176260   0.301   9.863   4.412 -1.2284  0.8096 -0.2714
24627SOL    HW276261   0.207   9.828   4.526 -1.0942 -0.9682 -0.6762
24628SOL     OW76262   7.788  10.788   6.601  0.0869 -0.6388 -0.4344
24628SOL    HW176263   7.695  10.776   6.621  0.1385  0.5516  0.6337
24628SOL    HW276264   7.800  10.883   6.600  2.1168 -0.6553  3.7233
24629SOL     OW76265   9.539   3.057   2.263  0.3944 -0.7500 -0.0914
24629SOL    HW176266   9.477   2.996   2.222  0.8087 -1.1524 -0.1384
24629SOL    HW276267   9.581   3.005   2.332  0.1452 -0.2589  0.4394
24630SOL     OW76268   4.985   2.339   7.031  0.0265  0.3200  0.4014
24630SOL    HW176269   5.014   2.374   6.947 -0.0979 -0.4636  0.0223
24630SOL    HW276270   4.918   2.275   7.008 -0.4204  0.5118  1.1387
24631SOL     OW76271   6.126   5.830   9.169 -0.6672  0.3606 -0.1208
24631SOL    HW176272   6.146   5.885   9.094 -0.8102 -0.1116 -0.5055
24631SOL    HW276273   6.211   5.808   9.207 -0.5557 -0.0939 -0.6382
24632SOL     OW76274   8.965   1.310   7.673  0.2142  0.3904 -0.3046
24632SOL    HW176275   9.021   1.366   7.726  0.1414  0.9289 -0.8014
24632SOL    HW276276   8.921   1.254   7.738  1.3178 -0.0524  0.0842
24633SOL     OW76277   3.211   9.987   8.599 -0.9368  0.1014 -0.4489
24633SOL    HW176278   3.251  10.041   8.667 -0.9433  0.6214 -0.8511
24633SOL    HW276279   3.199  10.046   8.525 -2.5369  0.0026 -0.3126
24634SOL     OW76280   5.245   0.189   5.203  0.8008  0.0512 -0.2865
24634SOL    HW176281   5.315   0.245   5.169  0.9467 -0.8756 -1.5777
24634SOL    HW276282   5.165   0.241   5.191  0.9687  0.1060 -1.2294
24635SOL     OW76283   0.388  10.650   3.131 -0.8295  0.2515 -0.4185
24635SOL    HW176284   0.431  10.569   3.102  0.7736  1.5558 -1.9242
24635SOL    HW276285   0.304  10.649   3.085 -0.3971 -0.0994 -1.2338
24636SOL     OW76286   2.829  10.189   6.404 -0.3301  0.3000 -0.2858
24636SOL    HW176287   2.755  10.232   6.447 -0.6688  0.2549 -0.8114
24636SOL    HW276288   2.793  10.108   6.369  0.2489 -0.2939  0.4678
24637SOL     OW76289  10.529   5.069   7.098  0.3015 -0.6025  0.7005
24637SOL    HW176290  10.574   5.118   7.029  1.0828 -1.3314  0.6825
24637SOL    HW276291  10.439   5.058   7.065  0.7452 -1.2139 -0.3481
24638SOL     OW76292   7.580   2.380   2.132  0.6437 -0.0281 -0.6734
24638SOL    HW176293   7.521   2.336   2.194 -0.3931 -0.8351 -2.1756
24638SOL    HW276294   7.638   2.432   2.187 -1.9206  1.4005  0.8605
24639SOL     OW76295   4.858   4.067   5.151 -0.2189  0.5451  0.2240
24639SOL    HW176296   4.861   4.007   5.077 -0.1418  0.7896  0.0283
24639SOL    HW276297   4.918   4.137   5.128 -0.9458  1.1270  0.0721
24640SOL     OW76298   3.398   0.767   4.688 -0.1345 -0.6742 -0.0730
24640SOL    HW176299   3.318   0.762   4.635 -0.3968 -1.3503  0.3778
24640SOL    HW276300   3.376   0.828   4.758 -0.5222 -1.4272  0.4790
24641SOL     OW76301   6.509   2.465   8.161 -0.1407  0.4561 -0.3710
24641SOL    HW176302   6.597   2.497   8.142  0.2651  0.3485  1.1444
24641SOL    HW276303   6.494   2.395   8.097  0.5015  1.0831 -1.2249
24642SOL     OW76304   5.937   2.650   2.716 -0.2681  0.0039  0.2295
24642SOL    HW176305   5.984   2.604   2.785  0.6067  1.0517  0.3795
24642SOL    HW276306   5.919   2.737   2.753 -1.0156  0.1159 -0.3707
24643SOL     OW76307   0.229   1.693   2.080  0.6466  0.0146 -0.6085
24643SOL    HW176308   0.293   1.634   2.041  1.2581  0.6944 -0.6712
24643SOL    HW276309   0.282   1.753   2.133 -0.2162 -1.2971  1.8391
24644SOL     OW76310   3.048  10.705   9.080 -0.1043  0.5991 -0.5149
24644SOL    HW176311   3.129  10.711   9.030  0.0577  1.7964 -0.1307
24644SOL    HW276312   3.076  10.701   9.172 -0.4451 -0.3650 -0.4336
24645SOL     OW76313   0.368   6.919   6.327 -0.5543 -0.3210 -0.4747
24645SOL    HW176314   0.430   6.855   6.361  0.6415  0.6987 -0.6627
24645SOL    HW276315   0.299   6.924   6.393  2.3868  2.6753  2.7884
24646SOL     OW76316   5.417   3.766   6.841  0.1798 -0.0800 -0.4033
24646SOL    HW176317   5.354   3.703   6.878 -1.0124  1.3256  0.0547
24646SOL    HW276318   5.502   3.737   6.874 -0.2440 -1.7652 -0.6631
24647SOL     OW76319   7.649   8.015   3.342  0.0479  0.1274 -0.5047
24647SOL    HW176320   7.586   7.954   3.304 -2.0023  1.3257  0.7767
24647SOL    HW276321   7.684   8.064   3.267 -0.6080 -0.4986 -1.2358
24648SOL     OW76322  10.250   3.986   0.911  0.0451  0.6809 -0.2607
24648SOL    HW176323  10.293   4.026   0.987 -0.6987  0.1515  0.4623
24648SOL    HW276324  10.195   4.056   0.876 -0.4369  0.6201  0.3530
24649SOL     OW76325   2.809   4.445   3.745 -0.0726  0.3900 -0.2066
24649SOL    HW176326   2.857   4.527   3.756 -0.3690  0.5998 -0.4908
24649SOL    HW276327   2.783   4.444   3.653  0.8660 -0.5313 -0.4930
24650SOL     OW76328   6.084   7.384   3.787 -0.3625 -0.4763 -0.0932
24650SOL    HW176329   6.158   7.439   3.759 -0.0272 -0.4270  0.8699
24650SOL    HW276330   6.022   7.445   3.827 -0.8772 -0.5379 -0.7729
24651SOL     OW76331   6.202   3.537   2.939 -0.8961 -0.1583  0.4665
24651SOL    HW176332   6.165   3.450   2.923 -1.7422  0.2035  0.3908
24651SOL    HW276333   6.272   3.522   3.003  0.7440 -1.2549 -1.4359
24652SOL     OW76334   0.615   1.299   4.370  0.2684  0.2377 -0.4641
24652SOL    HW176335   0.555   1.259   4.432  0.0141 -0.4621 -1.1434
24652SOL    HW276336   0.613   1.241   4.294  0.7044  0.9817 -1.0567
24653SOL     OW76337   4.115   0.065   1.794 -0.1570 -0.3923  0.4381
24653SOL    HW176338   4.024   0.081   1.768 -0.0927 -2.6409 -1.4625
24653SOL    HW276339   4.115  -0.026   1.825  1.7594 -1.1441 -1.5250
24654SOL     OW76340   2.948   2.968   1.385 -0.1918 -0.0350 -0.1037
24654SOL    HW176341   2.980   2.997   1.300 -0.0444 -1.5546 -0.5965
24654SOL    HW276342   2.993   2.885   1.400 -0.7771 -0.1484  1.1198
24655SOL     OW76343   1.638   4.277   0.868  0.7802  0.3498  0.0072
24655SOL    HW176344   1.662   4.306   0.957  2.3211 -0.9039  0.0343
24655SOL    HW276345   1.643   4.182   0.871 -1.7699  0.1120 -0.7559
24656SOL     OW76346   8.102   2.400   2.203  0.2322 -0.2439 -0.0350
24656SOL    HW176347   8.116   2.448   2.284 -1.6229  1.6214 -0.7341
24656SOL    HW276348   8.183   2.414   2.153  0.7128  0.0327  0.8093
24657SOL     OW76349   5.385   9.539   2.638 -0.1487  0.1161  0.3828
24657SOL    HW176350   5.462   9.493   2.605  1.3172  2.2659  0.6314
24657SOL    HW276351   5.327   9.546   2.562  0.3961 -0.5404 -0.0997
24658SOL     OW76352   0.621   9.528   1.461  0.8272 -0.5479  0.0839
24658SOL    HW176353   0.677   9.546   1.385 -1.2491  0.6505 -1.2430
24658SOL    HW276354   0.577   9.446   1.440  0.8712 -0.6512  0.3853
24659SOL     OW76355   1.888   3.403   5.706 -0.7408 -0.2311  0.5588
24659SOL    HW176356   1.827   3.350   5.757 -0.1966  1.6515  3.4494
24659SOL    HW276357   1.832   3.463   5.656 -1.3218 -0.2562  1.1638
24660SOL     OW76358   8.613   4.479   2.722 -0.1099  0.1371 -0.2373
24660SOL    HW176359   8.684   4.535   2.690  0.7300  0.7398  2.4378
24660SOL    HW276360   8.557   4.466   2.646  2.1050  0.8201 -2.0861
24661SOL     OW76361   2.336   4.635   0.585  0.1329  0.4764 -0.1990
24661SOL    HW176362   2.299   4.706   0.637 -1.7335 -0.3449 -0.3022
24661SOL    HW276363   2.402   4.595   0.641 -0.8545  0.4807  0.9954
24662SOL     OW76364   1.011   9.713   7.500 -0.5473  0.0827 -0.2670
24662SOL    HW176365   0.991   9.659   7.576 -1.3726  1.7028  0.7369
24662SOL    HW276366   0.971   9.667   7.426  0.4355 -1.6140  0.2058
24663SOL     OW76367   3.614   6.791  10.434 -0.1273 -0.1389 -0.2417
24663SOL    HW176368   3.651   6.872  10.398  1.7583 -1.2228 -0.8980
24663SOL    HW276369   3.679   6.761  10.498 -0.7520 -1.1714 -0.0646
24664SOL     OW76370   4.990  10.005   2.580  0.0394 -0.6129 -0.1473
24664SOL    HW176371   5.082   9.980   2.586 -0.0724 -0.8589  0.7019
24664SOL    HW276372   4.981  10.078   2.642 -0.3518 -0.6305 -0.1818
24665SOL     OW76373   9.265   6.095   0.198  0.5171 -0.0142  0.2206
24665SOL    HW176374   9.354   6.111   0.165  0.8618 -1.1535  0.5522
24665SOL    HW276375   9.234   6.182   0.226  1.1918  0.5347 -0.6960
24666SOL     OW76376   8.330   2.033   8.129 -0.4190 -0.5371 -0.4673
24666SOL    HW176377   8.385   1.965   8.089  0.9454  0.9162 -1.1608
24666SOL    HW276378   8.319   2.004   8.220 -1.0474 -2.3605 -1.0703
24667SOL     OW76379   0.795   0.566   5.971 -0.4271 -0.0746 -0.1193
24667SOL    HW176380   0.729   0.580   5.904 -0.4272 -1.0398 -0.3412
24667SOL    HW276381   0.799   0.648   6.020 -1.3907  0.1724 -0.4488
24668SOL     OW76382   4.113   2.124   4.360  0.8089  0.4929  0.1388
24668SOL    HW176383   4.053   2.059   4.394  0.8248  0.4864  0.1546
24668SOL    HW276384   4.177   2.075   4.309  1.6768  0.3239  1.3392
24669SOL     OW76385   6.935   3.345  10.007 -0.1615 -0.4636  0.0879
24669SOL    HW176386   6.976   3.405   9.945  1.3104 -0.7107  0.7892
24669SOL    HW276387   6.960   3.379  10.093  0.2328 -1.7780  0.5026
24670SOL     OW76388   1.827   5.526   3.825  0.1625 -0.2043 -0.7083
24670SOL    HW176389   1.756   5.463   3.839  0.0800  0.1520  0.6054
24670SOL    HW276390   1.900   5.473   3.791 -0.0557 -0.9369 -0.0590
24671SOL     OW76391   2.232   5.014   0.911  0.4044 -0.3358  0.1615
24671SOL    HW176392   2.212   5.012   1.005 -0.7905 -0.4873 -0.0786
24671SOL    HW276393   2.186   5.092   0.879  2.8931  1.2238  0.1199
24672SOL     OW76394   8.269   5.809   7.060 -0.0408 -0.1505  0.1981
24672SOL    HW176395   8.182   5.820   7.099 -0.0309  0.5486  0.0354
24672SOL    HW276396   8.268   5.865   6.982  1.0580  1.0504  1.0057
24673SOL     OW76397   9.369   3.504   9.844 -0.3090 -0.5942 -0.2044
24673SOL    HW176398   9.295   3.487   9.786 -0.2252  0.4123 -0.6099
24673SOL    HW276399   9.402   3.416   9.866 -0.2153 -0.9954 -1.8279
24674SOL     OW76400  10.620   5.390   5.797  1.1188 -0.1525 -0.6873
24674SOL    HW176401  10.714   5.374   5.796  0.9799 -1.2784  0.7808
24674SOL    HW276402  10.590   5.355   5.882 -0.7747 -0.8065 -1.5580
24675SOL     OW76403   9.146  10.785   4.216 -0.3614  0.6394  0.9264
24675SOL    HW176404   9.149  10.792   4.312 -1.8827 -2.2561  1.3080
24675SOL    HW276405   9.071  10.839   4.191 -0.7189  0.4492  1.5508
24676SOL     OW76406  10.283   6.731   6.869 -0.6964  0.0530  0.2391
24676SOL    HW176407  10.281   6.825   6.886 -1.3316  0.1283 -0.2483
24676SOL    HW276408  10.252   6.692   6.951 -0.0356  0.2332  0.5926
24677SOL     OW76409  10.114   2.692   3.895  0.2908  0.2449 -0.2991
24677SOL    HW176410  10.162   2.644   3.962 -2.3617  0.2652  1.7522
24677SOL    HW276411  10.063   2.625   3.849 -1.6486  0.7357  1.0396
24678SOL     OW76412   5.336   8.209   9.397  0.0885  0.7350  0.2162
24678SOL    HW176413   5.360   8.162   9.477  1.0316  0.7406 -0.0577
24678SOL    HW276414   5.419   8.239   9.360 -0.3430  0.8553 -0.6954
24679SOL     OW76415   4.314   4.617   0.897 -0.2005  0.2480 -0.6494
24679SOL    HW176416   4.274   4.638   0.981  0.1658  0.9181 -0.6371
24679SOL    HW276417   4.328   4.522   0.901 -0.3659  0.2421 -0.0349
24680SOL     OW76418   5.180   1.362   8.086 -0.2061  0.5760 -0.1004
24680SOL    HW176419   5.251   1.345   8.024 -1.1414  1.0185 -1.3431
24680SOL    HW276420   5.222   1.403   8.161  1.1196 -0.9723  0.0438
24681SOL     OW76421   6.482   2.573  10.139 -0.3106 -0.1261 -0.8017
24681SOL    HW176422   6.572   2.553  10.168 -0.6843 -0.7669 -0.0509
24681SOL    HW276423   6.465   2.660  10.175 -0.0690 -0.1004 -0.7456
24682SOL     OW76424   5.116   5.123   9.031  0.0121 -0.0757 -0.9315
24682SOL    HW176425   5.057   5.166   9.093  1.8375  0.4286  0.5187
24682SOL    HW276426   5.143   5.193   8.971  1.1701  0.3227  0.0226
24683SOL     OW76427   7.450   9.652   6.923 -0.1583 -0.0254 -0.2734
24683SOL    HW176428   7.410   9.738   6.912  0.5120  0.1199 -1.7912
24683SOL    HW276429   7.420   9.622   7.009  0.2768  2.0747  0.6653
24684SOL     OW76430  10.374   1.214   8.491  0.7931  0.0919  0.1389
24684SOL    HW176431  10.369   1.218   8.587 -1.3639  3.0277  0.0381
24684SOL    HW276432  10.461   1.249   8.471 -0.0260  2.9950  1.0741
24685SOL     OW76433  10.554  10.791   6.998  0.3509  0.1039  0.4127
24685SOL    HW176434  10.517  10.877   6.983 -0.7957 -0.3641  0.4658
24685SOL    HW276435  10.480  10.737   7.026  0.7313 -1.2791 -1.0584
24686SOL     OW76436  10.425   9.813   9.997 -0.0934 -0.7036  0.0322
24686SOL    HW176437  10.334   9.785   9.987 -0.4196  0.5222 -0.6213
24686SOL    HW276438  10.444   9.862   9.917  0.3369  1.1729  1.2183
24687SOL     OW76439   8.650   0.709   2.998  0.1364  0.3629 -0.1848
24687SOL    HW176440   8.570   0.688   2.950  0.5758  0.8802 -1.1759
24687SOL    HW276441   8.620   0.755   3.077 -0.6031 -0.6143  0.1224
24688SOL     OW76442   0.593   4.951   0.537 -0.4966  0.1656  0.3209
24688SOL    HW176443   0.686   4.942   0.517 -0.4529  1.7220 -0.3165
24688SOL    HW276444   0.578   4.892   0.611  0.8338 -0.6188 -0.0067
24689SOL     OW76445   1.290   0.473   0.584 -0.4648 -0.0013  0.2721
24689SOL    HW176446   1.275   0.379   0.578  0.0961 -0.0300 -0.9163
24689SOL    HW276447   1.382   0.480   0.609 -0.7592  0.2398  1.3560
24690SOL     OW76448   5.407   3.368   6.324  0.2328 -0.4330 -0.2615
24690SOL    HW176449   5.408   3.277   6.354  0.5659 -0.0764  0.8592
24690SOL    HW276450   5.418   3.420   6.404  0.4921  0.5796 -0.9334
24691SOL     OW76451   0.930   6.017   9.474 -0.5357  0.0610 -0.6771
24691SOL    HW176452   0.899   5.927   9.460 -1.5824  0.3681 -0.4052
24691SOL    HW276453   1.018   6.017   9.438 -0.8633 -0.8339 -1.5447
24692SOL     OW76454   1.721   4.807   4.116 -0.3051  0.0783 -0.1983
24692SOL    HW176455   1.789   4.873   4.132  0.3656 -0.6258 -0.1213
24692SOL    HW276456   1.714   4.803   4.021  1.3345 -1.3974 -0.3113
24693SOL     OW76457   9.062   0.274   9.923  0.0760 -0.2375  0.7184
24693SOL    HW176458   9.008   0.238   9.993 -0.1212  0.0284  0.7044
24693SOL    HW276459   9.027   0.235   9.843  0.3381 -0.5858  0.7716
24694SOL     OW76460   7.163   0.536   5.959  0.1713 -0.1323  0.0456
24694SOL    HW176461   7.240   0.578   5.997  0.9992  0.0686 -1.7268
24694SOL    HW276462   7.198   0.460   5.913 -0.2986  1.1620 -2.6637
24695SOL     OW76463   1.957   2.400   9.275  0.3512  0.6494  0.8492
24695SOL    HW176464   1.863   2.390   9.285  0.7359 -1.9698  2.7683
24695SOL    HW276465   1.988   2.428   9.361  1.3411  1.5074  0.2351
24696SOL     OW76466  10.008   2.893   0.127 -0.4596  0.0805  0.2147
24696SOL    HW176467   9.913   2.897   0.142 -0.4745 -0.3955  0.2929
24696SOL    HW276468  10.031   2.978   0.090 -0.7526  0.5691  1.1171
24697SOL     OW76469   0.087   0.460   8.550 -0.1779  0.2960  0.7167
24697SOL    HW176470   0.167   0.510   8.537 -1.9914  3.5002  0.9831
24697SOL    HW276471   0.099   0.417   8.635  1.7566 -0.5049  0.1045
24698SOL     OW76472   4.015   3.848   5.022  0.4371 -0.2620 -0.1647
24698SOL    HW176473   3.994   3.939   5.002  0.5857 -0.3338 -0.6512
24698SOL    HW276474   3.972   3.831   5.106  0.1229  0.1545 -0.2426
24699SOL     OW76475   5.741  10.286   3.483 -0.3420 -0.3392  0.4974
24699SOL    HW176476   5.793  10.364   3.467  0.5280 -0.9221  0.4066
24699SOL    HW276477   5.801  10.213   3.466 -1.0225 -1.0251  0.9471
24700SOL     OW76478   3.544   6.292   7.672  0.2119  0.4184  0.3544
24700SOL    HW176479   3.538   6.200   7.698  0.2864 -0.0764 -1.2807
24700SOL    HW276480   3.537   6.341   7.755  0.1579 -1.0405  1.2451
24701SOL     OW76481   8.175   8.068   1.379  0.2590  0.5997 -0.0638
24701SOL    HW176482   8.157   8.053   1.472  0.2620 -0.5316 -0.2336
24701SOL    HW276483   8.269   8.053   1.370  0.2425  0.6129 -0.2624
24702SOL     OW76484   9.490   7.293   1.382  0.2533  0.0527  0.4537
24702SOL    HW176485   9.566   7.261   1.430  0.0016 -0.9371  0.2224
24702SOL    HW276486   9.504   7.387   1.373  2.5293 -0.3894 -1.4675
24703SOL     OW76487   2.801   0.908   9.936  0.2688  0.3677  0.7789
24703SOL    HW176488   2.897   0.915   9.935  0.1629  3.2005  0.8439
24703SOL    HW276489   2.771   0.998   9.919 -2.3508 -0.0291  2.7354
24704SOL     OW76490   6.473   2.746   9.532 -0.4790  0.2674  0.0453
24704SOL    HW176491   6.396   2.763   9.477  0.0952 -0.3778 -0.9920
24704SOL    HW276492   6.470   2.815   9.599 -1.4502  0.8070 -0.5241
24705SOL     OW76493   4.489   7.434   7.801  0.3910  0.3366  0.4420
24705SOL    HW176494   4.477   7.417   7.895 -1.0064 -1.3061  0.0195
24705SOL    HW276495   4.535   7.518   7.798  0.3701  0.4918  2.5912
24706SOL     OW76496   6.233   9.820   5.494 -0.1932  0.8471 -0.3483
24706SOL    HW176497   6.305   9.815   5.557 -1.3823 -0.1982  0.9807
24706SOL    HW276498   6.276   9.811   5.409  1.2863  0.6636  0.3828
24707SOL     OW76499   3.532   7.295   5.658 -0.3166  0.1130 -0.2274
24707SOL    HW176500   3.613   7.316   5.613 -0.7880 -1.1939 -1.7927
24707SOL    HW276501   3.483   7.378   5.661  1.1816  1.0016  1.0931
24708SOL     OW76502   2.669  10.108   3.193 -0.4042 -0.1574 -0.1425
24708SOL    HW176503   2.693  10.185   3.244 -0.0953 -0.3210 -0.0356
24708SOL    HW276504   2.659  10.140   3.103 -3.0716  0.5544  0.3427
24709SOL     OW76505   3.469   3.269   9.046  0.1019 -0.8846  0.3263
24709SOL    HW176506   3.550   3.318   9.034 -0.2986 -0.5501 -1.3305
24709SOL    HW276507   3.429   3.306   9.125  0.3080  0.7830 -0.3077
24710SOL     OW76508   8.475   1.117   6.537  0.1757 -0.3103 -0.1652
24710SOL    HW176509   8.473   1.052   6.607 -0.9023 -1.1565 -0.9366
24710SOL    HW276510   8.493   1.066   6.457 -0.5029  0.3526 -0.7599
24711SOL     OW76511   4.813   5.367   3.376 -0.7183  0.1869  0.1977
24711SOL    HW176512   4.767   5.313   3.312 -0.6715  0.0835  0.2511
24711SOL    HW276513   4.902   5.375   3.341 -0.1924 -1.3066  1.0960
24712SOL     OW76514   3.394   6.800   1.785 -0.0043  0.0596 -0.1548
24712SOL    HW176515   3.408   6.779   1.693 -0.4010 -0.5752 -0.0755
24712SOL    HW276516   3.478   6.780   1.827  0.7116  1.8787 -0.6164
24713SOL     OW76517   4.019   1.844  10.181 -1.0548  0.2646  0.6315
24713SOL    HW176518   3.984   1.932  10.185  2.3705  1.8994 -1.0836
24713SOL    HW276519   3.979   1.806  10.103  1.4389  2.4826 -1.9484
24714SOL     OW76520   3.019   7.539   1.911 -0.3399 -0.0685  0.3603
24714SOL    HW176521   2.972   7.500   1.984  0.2483 -0.8988  0.3107
24714SOL    HW276522   3.062   7.465   1.868 -1.3826  0.2655 -1.3669
24715SOL     OW76523   6.081   8.703   4.969 -0.3810 -0.4897  0.6940
24715SOL    HW176524   5.987   8.696   4.952 -0.4411  1.0282  0.3180
24715SOL    HW276525   6.088   8.700   5.065 -1.0360  1.4895  0.8436
24716SOL     OW76526   2.748   3.489   0.541  0.1756 -0.6838  0.5476
24716SOL    HW176527   2.691   3.427   0.496 -1.3112 -0.3567  1.9113
24716SOL    HW276528   2.734   3.472   0.634 -0.1599  1.5521  0.9629
24717SOL     OW76529   4.140   7.583   1.857 -0.5435  0.0295 -0.1468
24717SOL    HW176530   4.060   7.532   1.852 -0.1474 -0.5386 -1.0842
24717SOL    HW276531   4.177   7.578   1.769 -0.8807  2.6098 -0.4927
24718SOL     OW76532   3.334   0.785   9.415 -0.0199 -0.3313 -0.8098
24718SOL    HW176533   3.394   0.798   9.342  0.5097 -1.1627 -0.5402
24718SOL    HW276534   3.326   0.690   9.424  1.8277 -0.3556  1.6867
24719SOL     OW76535   2.490   1.072   2.014  0.4144 -0.0478  0.1853
24719SOL    HW176536   2.530   0.992   2.049 -0.3675 -0.0568  1.0964
24719SOL    HW276537   2.556   1.109   1.956  1.0947 -0.9366  0.3831
24720SOL     OW76538   7.302   9.258   0.950  0.5449 -0.5589 -0.4303
24720SOL    HW176539   7.277   9.206   1.026 -1.3108  2.1217  0.9344
24720SOL    HW276540   7.236   9.237   0.884  1.6033 -2.1636 -1.0397
24721SOL     OW76541   6.389   6.960   0.851 -0.3812 -0.2658  0.4678
24721SOL    HW176542   6.410   7.020   0.923  1.3737 -1.6693  1.1743
24721SOL    HW276543   6.401   7.013   0.772  0.7636  0.4469  1.0864
24722SOL     OW76544   5.356   1.887   9.678 -0.0705  0.4270  0.1095
24722SOL    HW176545   5.307   1.813   9.642  0.1568  0.6910 -0.7722
24722SOL    HW276546   5.380   1.859   9.767 -0.6075 -0.2573  0.0502
24723SOL     OW76547   3.761   6.773   6.597  0.2508 -0.1453  0.1244
24723SOL    HW176548   3.758   6.850   6.655 -0.9133 -0.6838  0.8221
24723SOL    HW276549   3.669   6.746   6.589  0.7469 -2.4321  1.2572
24724SOL     OW76550   7.107  10.127   7.641  0.3963  0.5129  0.1892
24724SOL    HW176551   7.100  10.186   7.566  0.0911  1.2835  0.8135
24724SOL    HW276552   7.154  10.176   7.708  1.1946 -0.3798  0.3079
24725SOL     OW76553  10.388   7.375  10.417  0.4616 -0.0411 -0.6747
24725SOL    HW176554  10.322   7.409  10.357  0.6483 -0.4459 -1.1249
24725SOL    HW276555  10.397   7.283  10.392  0.9188 -0.0837 -0.3693
24726SOL     OW76556   4.613  10.240   6.688  0.1288  0.4449 -0.3374
24726SOL    HW176557   4.592  10.155   6.727  2.1043 -1.2236 -2.5750
24726SOL    HW276558   4.539  10.260   6.632 -0.4862  0.3668  0.4287
24727SOL     OW76559   0.069   5.339   2.282 -0.4326  0.3037  0.3316
24727SOL    HW176560   0.152   5.386   2.274  0.9682 -1.9531  0.7376
24727SOL    HW276561   0.029   5.376   2.361  0.8857  0.4154  0.9712
24728SOL     OW76562   7.718   9.723   6.973  0.5087 -0.3218  0.3351
24728SOL    HW176563   7.643   9.679   6.934  1.0392 -1.3656  0.4607
24728SOL    HW276564   7.760   9.768   6.900  0.5595 -0.9044 -0.0047
24729SOL     OW76565   1.472   3.518  10.488  0.0232  0.0584  0.0408
24729SOL    HW176566   1.544   3.579  10.507 -0.0022  0.4152 -0.9460
24729SOL    HW276567   1.408   3.535  10.558 -0.1796  1.4958 -0.4487
24730SOL     OW76568   3.342   3.585   1.306  0.2817  0.5636  0.0710
24730SOL    HW176569   3.390   3.620   1.231 -0.8709  0.1541 -0.8850
24730SOL    HW276570   3.339   3.658   1.368  1.2052  0.9305 -0.2967
24731SOL     OW76571   9.642   2.528   2.749 -0.0053  0.5283  0.4614
24731SOL    HW176572   9.655   2.622   2.759 -1.6028  0.7755  0.5078
24731SOL    HW276573   9.553   2.519   2.715 -0.6278 -1.0423  2.3259
24732SOL     OW76574   4.906   4.662   4.968  0.6388  0.0880 -0.2185
24732SOL    HW176575   4.888   4.753   4.945  0.5207  0.0739 -0.1791
24732SOL    HW276576   4.978   4.668   5.032  0.5664  0.1590 -0.1431
24733SOL     OW76577   2.883   4.873   3.531  0.3872 -0.2938 -0.1802
24733SOL    HW176578   2.864   4.823   3.610 -0.4359  1.0565  0.5144
24733SOL    HW276579   2.835   4.827   3.462 -2.1790  0.6431  0.8157
24734SOL     OW76580  10.187   7.348   2.344  0.1836 -0.3825 -0.0337
24734SOL    HW176581  10.158   7.273   2.292 -1.0760  0.9327 -1.3313
24734SOL    HW276582  10.271   7.373   2.306  2.0336 -2.7543  2.2002
24735SOL     OW76583   8.874   8.043   8.183 -0.6430 -0.5992 -0.0437
24735SOL    HW176584   8.895   7.958   8.145  0.8023 -0.3796  0.2088
24735SOL    HW276585   8.862   8.026   8.276  3.4955 -0.0557  0.7748
24736SOL     OW76586   3.470   6.554   2.995 -0.2447 -0.3291 -0.1673
24736SOL    HW176587   3.479   6.649   3.001 -1.4516 -0.2007 -0.2587
24736SOL    HW276588   3.485   6.523   3.085  2.9189 -0.3562 -0.5765
24737SOL     OW76589   1.860   6.922   7.701  0.2076  0.1252 -0.1204
24737SOL    HW176590   1.822   6.926   7.613 -0.4343  1.4084  0.1975
24737SOL    HW276591   1.908   7.004   7.710  0.8075 -0.2820  0.5015
24738SOL     OW76592   7.389   3.852  10.005 -0.4484 -0.0687  0.3306
24738SOL    HW176593   7.421   3.866  10.095 -0.3117  1.5037  0.0675
24738SOL    HW276594   7.373   3.940   9.972 -0.5255 -0.6307 -1.1891
24739SOL     OW76595   8.402   8.884   5.657 -0.1968  0.2457 -0.5526
24739SOL    HW176596   8.434   8.807   5.703  0.7236  0.4204 -0.8640
24739SOL    HW276597   8.373   8.943   5.726 -3.5123 -1.3986 -0.3680
24740SOL     OW76598   4.362   4.442   6.296 -0.3954  0.1313 -0.0607
24740SOL    HW176599   4.376   4.373   6.360 -1.1834  0.3131  0.3282
24740SOL    HW276600   4.310   4.401   6.227  1.7450 -0.4964 -1.4053
24741SOL     OW76601  10.028   0.109   8.035 -0.6150  0.3069  0.0131
24741SOL    HW176602  10.101   0.100   8.096  0.3633  1.9472 -0.8470
24741SOL    HW276603  10.047   0.046   7.965  0.0612  0.7712 -0.2410
24742SOL     OW76604   2.499   3.527   4.334  0.3027  0.3798  0.0288
24742SOL    HW176605   2.462   3.454   4.384 -0.6972 -0.7837 -2.2776
24742SOL    HW276606   2.433   3.547   4.267 -0.1871  4.4678  1.4069
24743SOL     OW76607   1.640   5.267   3.848 -0.2943 -0.4859 -0.2102
24743SOL    HW176608   1.571   5.330   3.827  0.8472  0.4192 -1.4500
24743SOL    HW276609   1.629   5.249   3.941 -0.6433  1.5708  0.1957
24744SOL     OW76610   0.691   7.995   6.178 -0.3159 -0.1845  0.3918
24744SOL    HW176611   0.606   7.958   6.155  0.4299 -0.5727 -1.9699
24744SOL    HW276612   0.732   7.929   6.233 -1.6764  0.2087  1.9428
24745SOL     OW76613   3.020   0.951   0.668 -0.1428 -0.3316  0.0531
24745SOL    HW176614   2.951   0.933   0.605  0.0608 -0.4928 -0.1251
24745SOL    HW276615   3.037   1.045   0.659 -1.0149 -0.0941  0.7917
24746SOL     OW76616   2.472   9.288   2.284 -0.4954  0.2912  0.3121
24746SOL    HW176617   2.465   9.275   2.379 -0.9045  0.5721  0.3201
24746SOL    HW276618   2.510   9.375   2.274  0.3487 -0.0772  0.2250
24747SOL     OW76619   2.856   3.260   6.249  0.1900  0.0746  0.4783
24747SOL    HW176620   2.903   3.291   6.172  0.2205 -2.6002 -0.6672
24747SOL    HW276621   2.792   3.198   6.216 -1.6737  0.8265  2.3897
24748SOL     OW76622   7.802   4.222   9.849  0.2989  0.0426  0.3244
24748SOL    HW176623   7.827   4.173   9.927  0.4538  0.3804  0.4854
24748SOL    HW276624   7.855   4.184   9.779  0.6922  0.2322  0.5193
24749SOL     OW76625   7.101   6.900   0.034  0.3773  0.0750 -0.3712
24749SOL    HW176626   7.186   6.942   0.028  0.6217 -0.4563 -0.6730
24749SOL    HW276627   7.067   6.928   0.119  0.6807  0.5985 -0.4184
24750SOL     OW76628   8.568   5.374   4.513 -0.5641  0.0923 -0.4989
24750SOL    HW176629   8.489   5.320   4.525 -0.7406  0.5607  0.5453
24750SOL    HW276630   8.561   5.407   4.424 -1.3338 -0.2240 -0.5658
24751SOL     OW76631   1.167   6.717  10.623 -0.5398 -0.0635 -0.5344
24751SOL    HW176632   1.221   6.775  10.676 -0.0387 -0.0854 -1.0102
24751SOL    HW276633   1.148   6.767  10.544 -0.3919 -0.4132 -0.7981
24752SOL     OW76634   5.792   3.500   0.380 -0.3724  0.0082  0.1126
24752SOL    HW176635   5.852   3.524   0.309 -0.3442 -2.1551 -0.6677
24752SOL    HW276636   5.838   3.525   0.460 -0.4874  2.6935 -0.5653
24753SOL     OW76637   6.539   2.726  10.576  0.0206  0.4989 -0.2159
24753SOL    HW176638   6.572   2.669  10.646  0.5335  2.5247  1.2506
24753SOL    HW276639   6.454   2.688  10.553  0.4065 -0.9422  0.5830
24754SOL     OW76640   2.407   1.283   2.488 -0.3694 -0.8941  0.2210
24754SOL    HW176641   2.476   1.270   2.554 -0.5760 -0.8396  0.4488
24754SOL    HW276642   2.326   1.263   2.534 -0.7793  1.6733  0.7626
24755SOL     OW76643   7.333   2.232   1.877  0.1725 -0.1406 -0.2579
24755SOL    HW176644   7.299   2.236   1.788 -0.7212 -1.3956  0.0054
24755SOL    HW276645   7.320   2.321   1.912 -0.6027  0.0357 -0.9747
24756SOL     OW76646   8.746   1.045   3.052  0.0834 -0.9934  0.0020
24756SOL    HW176647   8.712   0.976   3.109  1.7264 -1.0999  0.9121
24756SOL    HW276648   8.771   1.115   3.112 -0.3459 -0.1317 -0.8046
24757SOL     OW76649   0.044   9.969  10.044  0.2982 -0.2925  0.6087
24757SOL    HW176650  -0.002  10.021   9.978 -1.1171 -0.6803  1.2451
24757SOL    HW276651   0.104  10.031  10.086 -0.9483  0.7227  0.9671
24758SOL     OW76652   7.739   3.732  10.628 -0.5530  0.1545 -0.1164
24758SOL    HW176653   7.758   3.720  10.721  0.0008  0.0614 -0.2381
24758SOL    HW276654   7.656   3.781  10.626 -0.0400  1.0720  0.4321
24759SOL     OW76655   9.893  10.270  10.599  0.6771 -0.1171 -0.4986
24759SOL    HW176656   9.799  10.255  10.612  0.6366 -0.2536 -0.9249
24759SOL    HW276657   9.932  10.183  10.600  1.1341  0.0459  1.9899
24760SOL     OW76658   1.159   2.736   7.283 -0.5246 -0.3931 -0.3847
24760SOL    HW176659   1.218   2.787   7.338 -3.1602  1.7384  0.6994
24760SOL    HW276660   1.202   2.734   7.198  1.5695  0.1251  0.5789
24761SOL     OW76661   2.654   6.286   3.561  0.0754  0.2729 -0.1687
24761SOL    HW176662   2.612   6.371   3.578  0.7807  0.5028  0.4692
24761SOL    HW276663   2.747   6.307   3.549  0.0734 -0.2676 -1.2451
24762SOL     OW76664   8.302   4.563   9.773 -0.3913  0.5087 -0.2569
24762SOL    HW176665   8.225   4.511   9.798  0.3077  0.4219  1.9393
24762SOL    HW276666   8.374   4.523   9.821  0.7954  1.4368 -1.2121
24763SOL     OW76667   1.002   6.727   3.011 -0.0353  0.1682  0.2920
24763SOL    HW176668   0.926   6.773   2.975  0.2794  0.5991  0.1653
24763SOL    HW276669   1.059   6.713   2.936 -0.0180 -0.2156  0.3750
24764SOL     OW76670   4.827  10.273   8.307 -0.1321 -0.1614 -0.5529
24764SOL    HW176671   4.792  10.322   8.382  0.7787  1.2541 -1.0167
24764SOL    HW276672   4.751  10.226   8.273 -0.6651 -0.4698  0.9702
24765SOL     OW76673   0.109   5.059  10.753 -0.1154  0.0998  0.3309
24765SOL    HW176674   0.088   5.148  10.780 -1.8225 -0.4500  0.9540
24765SOL    HW276675   0.033   5.031  10.702  1.4265 -0.1964 -1.9658
24766SOL     OW76676  10.370   8.889   3.351  0.1065 -0.0760  0.7884
24766SOL    HW176677  10.320   8.820   3.308  1.9084 -1.2337  0.4585
24766SOL    HW276678  10.358   8.873   3.444 -0.4558 -0.0936  0.7163
24767SOL     OW76679   3.105   1.729   5.469  0.0724  0.2196 -0.2783
24767SOL    HW176680   3.140   1.723   5.558  0.2915  2.1218 -0.2072
24767SOL    HW276681   3.176   1.699   5.413  1.0617  1.9024  0.0174
24768SOL     OW76682   3.668   6.702   7.000  0.0729  0.3392 -0.5333
24768SOL    HW176683   3.693   6.665   6.915 -0.1890 -2.9301  0.7000
24768SOL    HW276684   3.736   6.674   7.060 -1.3963 -0.2178  0.9431
24769SOL     OW76685   4.976   9.559   2.567 -0.1906  0.0905 -0.2712
24769SOL    HW176686   4.903   9.526   2.514 -1.9582  1.9766  0.7994
24769SOL    HW276687   5.055   9.535   2.519 -1.4880 -2.1671 -1.4346
24770SOL     OW76688   0.517   6.791   5.173  0.1884  0.1551  0.1377
24770SOL    HW176689   0.562   6.750   5.247  0.3950  0.4706  0.1870
24770SOL    HW276690   0.458   6.856   5.213 -2.6736 -2.3241  0.3443
24771SOL     OW76691   4.845   5.990   8.963  0.5338  0.0256 -0.0695
24771SOL    HW176692   4.800   5.934   9.026  0.1301  0.7780  0.3337
24771SOL    HW276693   4.779   6.013   8.898  0.4845  0.6171  0.1750
24772SOL     OW76694   1.373   1.489   1.474  0.1219 -0.0424 -0.3259
24772SOL    HW176695   1.461   1.473   1.509  0.4770 -1.7431 -1.8378
24772SOL    HW276696   1.387   1.545   1.397 -0.2974  0.9010  0.2661
24773SOL     OW76697   4.611   1.643   0.049  0.4725 -0.5988 -0.2809
24773SOL    HW176698   4.528   1.686   0.030  0.2174 -0.5358  0.8755
24773SOL    HW276699   4.599   1.552   0.022 -0.7695 -1.1296  1.8070
24774SOL     OW76700   0.011   5.392  10.581  0.4760  0.2988  0.0311
24774SOL    HW176701   0.001   5.354  10.668  1.3609 -0.1400 -0.0420
24774SOL    HW276702  -0.044   5.339  10.524  0.7825 -0.1380  0.1350
24775SOL     OW76703   5.265   7.994   0.352 -0.2448  0.6865  0.1767
24775SOL    HW176704   5.353   8.000   0.389  0.9220  1.1700 -2.4731
24775SOL    HW276705   5.268   7.917   0.295 -1.0912  1.4725 -0.9797
24776SOL     OW76706  10.353   3.192   4.600 -0.4806 -0.2180 -0.2749
24776SOL    HW176707  10.421   3.150   4.547 -0.7814 -0.8987 -0.1251
24776SOL    HW276708  10.271   3.151   4.572 -1.0411  1.5558 -1.4513
24777SOL     OW76709   4.892   0.435   5.762  0.0283  0.1937  0.1488
24777SOL    HW176710   4.900   0.358   5.817 -1.0812  0.3126  0.4891
24777SOL    HW276711   4.983   0.460   5.743  0.4046 -1.3027 -0.1508
24778SOL     OW76712   1.585   6.442   7.237 -0.5078  0.1024  0.6308
24778SOL    HW176713   1.517   6.473   7.297 -0.4217 -2.1052  1.9878
24778SOL    HW276714   1.666   6.477   7.272 -0.3382 -1.9187  2.5128
24779SOL     OW76715   7.232   6.763   6.532  0.8156 -0.7037  0.6984
24779SOL    HW176716   7.279   6.732   6.455  0.2414 -0.4128  0.2192
24779SOL    HW276717   7.140   6.761   6.505  0.7495  1.5156  0.6015
24780SOL     OW76718   8.979   7.263   4.175 -0.8792  0.3827  0.0629
24780SOL    HW176719   8.928   7.202   4.228 -1.2003  2.2230  2.0442
24780SOL    HW276720   8.976   7.345   4.225  0.4326  1.7133 -1.9218
24781SOL     OW76721   1.827   9.104   6.976  0.2559  0.0726 -0.1031
24781SOL    HW176722   1.747   9.064   6.944 -0.9354  0.9461  1.6465
24781SOL    HW276723   1.890   9.031   6.980 -0.4656 -0.6591 -1.2978
24782SOL     OW76724   2.505   9.660   3.479 -0.5654 -0.2674  0.2941
24782SOL    HW176725   2.527   9.741   3.433 -2.8772  0.1547 -0.1640
24782SOL    HW276726   2.473   9.602   3.411 -2.7463 -0.1091  1.1134
24783SOL     OW76727   4.992   3.361   5.754 -0.5065  0.3675  0.0759
24783SOL    HW176728   5.043   3.282   5.735  0.5051  1.4441 -2.1156
24783SOL    HW276729   5.051   3.414   5.807 -0.6702  0.2157  0.4122
24784SOL     OW76730   6.881   6.289   1.298 -0.2318 -0.4714  0.3719
24784SOL    HW176731   6.801   6.237   1.286  0.0252 -0.8206  0.1696
24784SOL    HW276732   6.853   6.379   1.279 -1.1201 -0.2456  2.4891
24785SOL     OW76733   6.333   6.213   0.402 -0.0363 -0.0163 -0.4860
24785SOL    HW176734   6.257   6.238   0.454  0.8061  0.8053  0.3950
24785SOL    HW276735   6.298   6.191   0.316 -1.2136  0.7789 -0.2260
24786SOL     OW76736   7.657   3.734   0.300 -0.4740 -0.0395  0.0690
24786SOL    HW176737   7.587   3.772   0.353 -0.6746  0.0976 -0.2914
24786SOL    HW276738   7.635   3.641   0.293  0.4604 -0.4069  1.6546
24787SOL     OW76739   4.705   4.795   9.248 -0.3849  0.2543 -0.0852
24787SOL    HW176740   4.763   4.816   9.320  2.0846 -0.2326 -1.8033
24787SOL    HW276741   4.619   4.826   9.276  1.0549  2.9672  1.7660
24788SOL     OW76742   4.276   3.083   5.509 -0.4966  0.1260 -0.6926
24788SOL    HW176743   4.361   3.118   5.537 -0.7851  0.6271 -0.4319
24788SOL    HW276744   4.289   3.059   5.417 -0.4872  1.6179 -1.1049
24789SOL     OW76745   1.182   6.555  10.106  0.0716 -0.9509 -0.1248
24789SOL    HW176746   1.266   6.556  10.152  0.0105 -1.2443 -0.0023
24789SOL    HW276747   1.193   6.616  10.034  0.0395 -0.1807  0.5056
24790SOL     OW76748   7.421   9.192   7.651  0.5698 -0.4945 -0.2333
24790SOL    HW176749   7.462   9.122   7.702 -0.5765 -0.9366  0.1178
24790SOL    HW276750   7.435   9.167   7.560  1.2521 -0.5167 -0.1301
24791SOL     OW76751   0.885   5.175   8.229 -0.1353  0.2485 -0.5003
24791SOL    HW176752   0.798   5.190   8.192 -0.1547  0.9263 -0.1881
24791SOL    HW276753   0.894   5.079   8.231 -1.9901  0.0307  1.9647
24792SOL     OW76754   1.459   5.224   2.193 -0.2439 -0.0840  0.0665
24792SOL    HW176755   1.506   5.271   2.125  0.2863 -0.8576 -0.1168
24792SOL    HW276756   1.442   5.289   2.261 -0.1416  0.5217 -0.4823
24793SOL     OW76757   3.208   1.238   9.915 -0.7192 -0.3202 -0.3907
24793SOL    HW176758   3.203   1.276   9.827 -1.7097  0.4338 -0.0275
24793SOL    HW276759   3.254   1.155   9.902 -1.2676 -0.4483 -1.6980
24794SOL     OW76760   4.129   5.129   5.319  0.5348 -0.0541 -0.1288
24794SOL    HW176761   4.124   5.210   5.370 -1.2868  0.8315 -1.6082
24794SOL    HW276762   4.051   5.080   5.344  1.1649 -0.9790  0.0811
24795SOL     OW76763   2.741   1.537   5.665 -0.1131  0.1892  0.4002
24795SOL    HW176764   2.743   1.631   5.681  1.7127  0.1216  0.8767
24795SOL    HW276765   2.763   1.498   5.750  0.6409 -0.5861 -0.1315
24796SOL     OW76766   6.102   3.392   6.020 -0.4462  0.6438 -0.3765
24796SOL    HW176767   6.118   3.322   6.083  0.4384 -0.6061 -1.8993
24796SOL    HW276768   6.046   3.352   5.953 -0.0412  1.4180 -1.2093
24797SOL     OW76769   7.453   3.982   5.750  0.0172  0.1941  0.1005
24797SOL    HW176770   7.524   4.037   5.715 -1.1909 -0.0075 -2.9829
24797SOL    HW276771   7.373   4.030   5.729 -0.9139 -1.2328  0.2468
24798SOL     OW76772   1.881   1.009   3.449  0.0475  0.1671 -0.0959
24798SOL    HW176773   1.975   1.025   3.442  0.2132 -1.1804 -1.5120
24798SOL    HW276774   1.846   1.034   3.363 -0.5749 -1.0625 -0.2293
24799SOL     OW76775  10.288  10.109   1.717  0.8138 -0.6060 -0.0324
24799SOL    HW176776  10.289  10.068   1.804 -0.4680  0.1680  0.3718
24799SOL    HW276777  10.378  10.100   1.686  0.7919 -2.9717  0.3739
24800SOL     OW76778   2.457   1.177   4.010 -0.9138  0.3312  0.1115
24800SOL    HW176779   2.496   1.183   3.923 -1.1565  0.6988  0.0267
24800SOL    HW276780   2.520   1.219   4.068 -0.3854 -0.6070  0.2375
24801SOL     OW76781   7.421   3.598  10.158 -0.5648 -0.6337 -0.0062
24801SOL    HW176782   7.399   3.684  10.123  2.2916  0.1242 -0.1294
24801SOL    HW276783   7.484   3.615  10.228 -0.9152 -2.5834  0.8644
24802SOL     OW76784   2.149   5.615   5.417 -0.2195 -0.2362 -0.0628
24802SOL    HW176785   2.137   5.526   5.449 -0.3928 -0.6670 -1.2732
24802SOL    HW276786   2.096   5.669   5.475  2.0158 -0.5080  2.4353
24803SOL     OW76787   2.739   6.325  10.562  0.0124 -0.6385 -0.5478
24803SOL    HW176788   2.755   6.398  10.621  0.3229 -0.8385 -0.3832
24803SOL    HW276789   2.786   6.251  10.601 -0.9859 -1.1456 -0.2444
24804SOL     OW76790   6.539   4.963   2.372  0.0844 -0.7207  1.2761
24804SOL    HW176791   6.452   4.942   2.339 -0.6759  2.8149  0.7337
24804SOL    HW276792   6.598   4.907   2.320 -1.5283  0.4104 -2.0782
24805SOL     OW76793   5.804   8.472   6.802  0.1616  0.4158  0.1293
24805SOL    HW176794   5.730   8.533   6.808 -0.7764 -0.7641  1.2830
24805SOL    HW276795   5.832   8.476   6.711  0.1828  2.6057  0.1872
24806SOL     OW76796   1.113   8.191   8.102  0.2650  0.2046 -0.4493
24806SOL    HW176797   1.132   8.100   8.124 -0.3865  0.3855  0.9711
24806SOL    HW276798   1.135   8.198   8.009 -1.9982 -2.0813 -1.2880
24807SOL     OW76799   6.296   9.228   5.478 -0.2935 -0.5587  0.3578
24807SOL    HW176800   6.276   9.203   5.568 -1.7321  3.4419  1.3748
24807SOL    HW276801   6.217   9.206   5.429 -0.4086 -0.6374  0.5759
24808SOL     OW76802   4.583   9.000   5.361  0.0372 -0.3524 -0.1746
24808SOL    HW176803   4.640   9.032   5.291  1.1316  0.7418  1.1573
24808SOL    HW276804   4.514   9.067   5.368 -0.5781 -0.9035 -0.7543
24809SOL     OW76805  10.505   0.158   2.167  0.4973  0.4529 -0.0531
24809SOL    HW176806  10.502   0.236   2.111 -0.0312  1.5394  1.4277
24809SOL    HW276807  10.467   0.186   2.250  3.1511 -0.4985  1.6080
24810SOL     OW76808   2.571   0.169   3.509 -0.1258  0.2615  0.3732
24810SOL    HW176809   2.645   0.218   3.544 -0.9479 -0.0761  2.7191
24810SOL    HW276810   2.494   0.207   3.551 -1.1435 -0.5170 -0.7114
24811SOL     OW76811   0.939   1.193   8.725  0.7794  0.1967 -0.2563
24811SOL    HW176812   0.957   1.269   8.671  0.0260  0.4987 -0.0914
24811SOL    HW276813   0.868   1.220   8.783 -0.5776 -1.0949 -1.2407
24812SOL     OW76814   1.606   1.186   8.873 -0.2688 -0.0771 -0.1090
24812SOL    HW176815   1.594   1.134   8.953 -0.0316  1.7203  1.1804
24812SOL    HW276816   1.646   1.268   8.904 -0.9209  1.0131 -1.9650
24813SOL     OW76817   8.590   3.483   9.114  0.0009  0.6312  0.4510
24813SOL    HW176818   8.656   3.415   9.106  1.1600  1.8433 -0.8111
24813SOL    HW276819   8.507   3.437   9.102  0.6885 -0.7046  0.6444
24814SOL     OW76820   2.253   5.464   6.903 -0.4330 -0.4064  0.7287
24814SOL    HW176821   2.167   5.497   6.926 -1.1645 -1.8218  0.1628
24814SOL    HW276822   2.285   5.423   6.984  0.4659  1.5549  1.4223
24815SOL     OW76823   2.659   5.348  10.261 -0.2729 -0.1583 -0.2157
24815SOL    HW176824   2.601   5.304  10.199  0.0321 -0.5858 -0.2067
24815SOL    HW276825   2.733   5.378  10.208  0.3780 -1.2243  0.0421
24816SOL     OW76826   7.302   6.098   8.338  0.2654  0.1478  0.3548
24816SOL    HW176827   7.273   6.087   8.247  1.8839 -1.3036 -0.0325
24816SOL    HW276828   7.222   6.119   8.386 -0.8258 -0.2546 -1.2099
24817SOL     OW76829   0.782   9.074   6.464 -0.5060 -0.7722  0.0423
24817SOL    HW176830   0.779   9.088   6.559 -0.0675 -1.0660  0.0988
24817SOL    HW276831   0.872   9.048   6.446 -0.6954 -1.1417 -0.3974
24818SOL     OW76832   0.699   2.046   6.066  0.0305  0.4116 -0.0539
24818SOL    HW176833   0.661   1.976   6.014  1.0449  0.3066 -0.6892
24818SOL    HW276834   0.793   2.026   6.068  0.1935  1.1810  0.6431
24819SOL     OW76835   0.819   6.371   1.046  0.4138 -0.0028 -0.1745
24819SOL    HW176836   0.862   6.433   1.105 -0.4228 -0.8742  1.4216
24819SOL    HW276837   0.844   6.285   1.079  0.4001 -0.5385 -1.4783
24820SOL     OW76838   7.468   3.863  10.276 -0.7605  0.4265  0.9366
24820SOL    HW176839   7.480   3.949  10.316 -1.5704  0.7946  0.4095
24820SOL    HW276840   7.487   3.801  10.347 -0.3871  1.0391  1.3815
24821SOL     OW76841   2.066   5.898   6.200  0.2554 -0.4492 -0.1216
24821SOL    HW176842   2.035   5.810   6.180  0.5740 -0.2725 -1.4994
24821SOL    HW276843   1.986   5.951   6.205  0.0272 -0.8662  1.1550
24822SOL     OW76844   5.309   1.320   8.675  0.5501  0.2441  0.0879
24822SOL    HW176845   5.350   1.395   8.719  1.2952 -0.8716  1.3688
24822SOL    HW276846   5.249   1.284   8.741 -0.2147  0.0171 -0.7053
24823SOL     OW76847   3.821   2.980   1.535  0.2835  0.4288 -0.2771
24823SOL    HW176848   3.809   2.958   1.442  0.5940  3.3816 -1.1420
24823SOL    HW276849   3.786   2.905   1.582  0.0610 -1.1686 -2.7657
24824SOL     OW76850   2.899   4.950   1.376 -0.1421 -0.3812  0.1902
24824SOL    HW176851   2.919   5.013   1.306  1.4009 -1.5159 -0.4338
24824SOL    HW276852   2.831   4.994   1.428 -0.2688  1.1166 -1.1441
24825SOL     OW76853   9.493   7.727   9.902 -0.2007  0.0292 -0.0332
24825SOL    HW176854   9.575   7.685   9.877 -0.6460 -1.4448  0.8290
24825SOL    HW276855   9.439   7.656   9.937 -1.1852  1.2457  1.0671
24826SOL     OW76856  10.727   4.632   5.514 -0.6696 -0.3891 -0.8764
24826SOL    HW176857  10.654   4.612   5.573  0.0407 -1.7274 -0.3930
24826SOL    HW276858  10.689   4.628   5.427 -1.3339 -0.3360 -0.5928
24827SOL     OW76859   4.323   6.158   9.615 -0.4916 -0.2115 -0.7416
24827SOL    HW176860   4.369   6.193   9.691 -1.5509 -0.1536 -0.1021
24827SOL    HW276861   4.366   6.198   9.540 -0.8967  1.5362 -0.0884
24828SOL     OW76862   5.782   2.164   1.751 -0.1925  0.5004 -0.7812
24828SOL    HW176863   5.798   2.076   1.715 -0.6600  0.0913 -0.0028
24828SOL    HW276864   5.751   2.215   1.676 -1.0659 -0.3173 -0.9918
24829SOL     OW76865   5.496   6.866   4.682  0.6557  0.2692  0.6603
24829SOL    HW176866   5.408   6.872   4.720  0.4638 -1.1275  0.5197
24829SOL    HW276867   5.513   6.953   4.646 -1.2371  0.2172 -0.5297
24830SOL     OW76868   7.144   3.924   0.470 -0.1074  0.1292  0.4634
24830SOL    HW176869   7.064   3.915   0.520  0.5508 -1.2409  1.3300
24830SOL    HW276870   7.193   3.993   0.515 -0.3240  0.2112  0.5769
24831SOL     OW76871   3.699   3.415   9.073  0.0056 -0.2993 -0.1917
24831SOL    HW176872   3.709   3.457   9.159 -1.0316  0.3074 -0.3561
24831SOL    HW276873   3.757   3.464   9.015  0.1790 -0.2694  0.0050
24832SOL     OW76874   9.147  10.679   8.882 -0.4000  0.2645 -0.3132
24832SOL    HW176875   9.135  10.774   8.878  2.8757  0.9329  2.0869
24832SOL    HW276876   9.164  10.654   8.791 -1.2100  1.9792 -0.9883
24833SOL     OW76877   6.576   7.183   2.188 -0.3235 -0.1445  0.2098
24833SOL    HW176878   6.624   7.175   2.270 -1.2674 -2.4054  0.6120
24833SOL    HW276879   6.516   7.256   2.202  0.9991  0.8976  0.6899
24834SOL     OW76880   6.310   2.244  10.359 -0.2338  0.0430  0.5007
24834SOL    HW176881   6.247   2.182  10.395 -0.1639 -0.5573 -0.3690
24834SOL    HW276882   6.393   2.197  10.359  0.0355  0.5036  0.7803
24835SOL     OW76883   2.888   4.676   8.412 -0.1900  0.3826  0.0868
24835SOL    HW176884   2.822   4.705   8.474 -0.2670 -0.3057  0.3364
24835SOL    HW276885   2.869   4.725   8.332 -0.5951  0.6714  0.3547
24836SOL     OW76886   1.074   5.391   8.806 -0.4797 -0.1974 -0.1699
24836SOL    HW176887   1.008   5.335   8.766  0.5210 -2.3127  0.9816
24836SOL    HW276888   1.152   5.379   8.752 -0.4539  0.7040 -0.3493
24837SOL     OW76889   3.217   4.448   3.204  0.0249 -0.0546  0.1432
24837SOL    HW176890   3.298   4.399   3.193  0.0149  0.0125 -0.2549
24837SOL    HW276891   3.164   4.424   3.128 -0.6647 -0.7329  0.8215
24838SOL     OW76892   2.136   0.494   0.191 -0.3798 -0.5197 -0.4357
24838SOL    HW176893   2.186   0.433   0.245 -0.7686 -1.2091 -0.8460
24838SOL    HW276894   2.122   0.570   0.248 -0.9410 -1.3062  0.5050
24839SOL     OW76895   2.567   9.885   2.851 -0.3935 -0.1339  0.1717
24839SOL    HW176896   2.499   9.952   2.846  0.1678  0.4269 -0.0555
24839SOL    HW276897   2.599   9.876   2.761  1.5142  1.3893  0.6480
24840SOL     OW76898   2.102   9.364   8.306  0.0092  0.0215  0.0196
24840SOL    HW176899   2.121   9.293   8.244 -0.9116  0.9180 -1.3423
24840SOL    HW276900   2.179   9.367   8.363  0.5599 -1.3196 -0.5974
24841SOL     OW76901   4.104   5.328   9.471  0.4757  0.0782 -0.0830
24841SOL    HW176902   4.138   5.411   9.438  1.1002  0.1436  0.6767
24841SOL    HW276903   4.015   5.322   9.435  0.6323  0.7939 -0.6125
24842SOL     OW76904  10.032   2.567   5.051  0.2301  0.1699 -0.0073
24842SOL    HW176905   9.972   2.627   5.094 -0.4199 -0.7138  0.3571
24842SOL    HW276906   9.974   2.506   5.004  0.7448 -1.4201  1.3061
24843SOL     OW76907   3.372   0.211   9.333  0.4931  0.1024 -0.3313
24843SOL    HW176908   3.447   0.266   9.312 -0.3793  1.6234  0.3254
24843SOL    HW276909   3.403   0.153   9.403  0.8851  1.1593  0.3924
24844SOL     OW76910   0.373   0.156   9.326  0.7616 -0.2886  0.3346
24844SOL    HW176911   0.416   0.092   9.383  1.1563  0.9871  1.5334
24844SOL    HW276912   0.342   0.105   9.252  0.4529 -1.9926  1.5681
24845SOL     OW76913   7.552   4.771   6.724  0.2201 -0.3879  0.5051
24845SOL    HW176914   7.629   4.724   6.756 -0.0320 -1.0038  0.2029
24845SOL    HW276915   7.485   4.756   6.790  0.1413 -0.4429  0.4124
24846SOL     OW76916   1.009  10.271   3.266  0.1481  0.3048  0.1361
24846SOL    HW176917   1.068  10.206   3.303 -2.1442 -0.9316  1.8500
24846SOL    HW276918   0.988  10.329   3.339 -0.3747  1.0306 -0.5685
24847SOL     OW76919  10.462  10.475   5.490  1.1029  0.2256  0.2755
24847SOL    HW176920  10.382  10.432   5.522  0.8357  1.4451  1.3680
24847SOL    HW276921  10.514  10.405   5.452 -0.3308 -0.6608 -0.1166
24848SOL     OW76922   8.570   2.633  10.013  0.7270 -0.0750  0.0885
24848SOL    HW176923   8.600   2.639  10.103  0.0420 -1.0999  0.4034
24848SOL    HW276924   8.477   2.614  10.020  0.8291 -1.0081 -0.8129
24849SOL     OW76925   8.759   1.320   0.076  0.2287  0.7809  0.1410
24849SOL    HW176926   8.844   1.301   0.116  0.3660 -0.1105 -0.5379
24849SOL    HW276927   8.775   1.314  -0.019  0.5896  5.5382 -0.3320
24850SOL     OW76928   7.555   1.244   3.727  0.0591 -0.7212 -0.0259
24850SOL    HW176929   7.568   1.322   3.674  1.3926 -0.5511  0.5168
24850SOL    HW276930   7.491   1.271   3.793  1.3371  0.3042  0.8541
24851SOL     OW76931   5.412  10.505   9.599 -0.2080  0.7136  0.1982
24851SOL    HW176932   5.471  10.563   9.552  1.0507  0.7746  1.7810
24851SOL    HW276933   5.350  10.474   9.532  0.6571  1.8545 -1.1780
24852SOL     OW76934   6.048   0.865   8.463  0.3610  0.2112 -0.1762
24852SOL    HW176935   6.087   0.947   8.493 -1.7119  1.3222 -0.3308
24852SOL    HW276936   6.045   0.872   8.368 -1.7814  1.0132 -0.1237
24853SOL     OW76937   8.578   1.183   5.000  0.1042  0.1619  0.2905
24853SOL    HW176938   8.522   1.208   4.926 -0.0726  0.2458  0.4516
24853SOL    HW276939   8.611   1.096   4.977 -0.7860 -0.2674  0.5793
24854SOL     OW76940   4.950  10.735   0.057 -0.8671  0.3451 -0.2813
24854SOL    HW176941   4.893  10.787   0.113 -0.3477 -0.3350  0.9267
24854SOL    HW276942   5.036  10.776   0.066 -0.3128 -1.0324  1.1909
24855SOL     OW76943   2.095   4.943   6.344 -0.4928  0.6665 -0.5214
24855SOL    HW176944   2.017   4.973   6.297 -0.2981 -1.0657 -2.0350
24855SOL    HW276945   2.161   4.931   6.276 -0.6954 -3.6219 -0.2083
24856SOL     OW76946   9.758   8.804   7.271 -0.3507  0.1877 -0.0687
24856SOL    HW176947   9.669   8.795   7.304 -0.1106  0.7059  0.7557
24856SOL    HW276948   9.814   8.773   7.343  0.1520  0.4986 -0.3161
24857SOL     OW76949   9.494   6.792   3.400  0.4199 -0.3438 -0.6367
24857SOL    HW176950   9.524   6.702   3.384  3.1472  0.5723 -1.1936
24857SOL    HW276951   9.451   6.818   3.319  2.2771 -0.2117 -1.6340
24858SOL     OW76952   2.471   8.555   5.208 -0.3776  0.0288 -0.0145
24858SOL    HW176953   2.438   8.560   5.298  0.2610 -0.1307  0.2323
24858SOL    HW276954   2.476   8.461   5.190 -0.7376  0.0626 -0.3103
24859SOL     OW76955   8.721  10.641   9.956 -0.5417 -0.0194  0.4923
24859SOL    HW176956   8.647  10.697   9.978 -1.8147 -1.7822  0.8525
24859SOL    HW276957   8.720  10.572  10.022  1.0111 -0.4867  0.0873
24860SOL     OW76958   2.662   2.772   6.337  0.5460 -0.2041  0.0551
24860SOL    HW176959   2.658   2.678   6.351 -1.4212 -0.4222 -1.6257
24860SOL    HW276960   2.745   2.799   6.378  1.1836 -2.6394  0.4888
24861SOL     OW76961   3.703   8.321   2.514 -0.4141 -0.2276 -0.0013
24861SOL    HW176962   3.610   8.342   2.503 -0.7022 -1.7852 -0.8621
24861SOL    HW276963   3.724   8.267   2.437  1.7019  1.6416 -0.8478
24862SOL     OW76964   0.455   3.636   2.926 -0.0189  0.1819  0.3496
24862SOL    HW176965   0.467   3.549   2.964  0.8731  0.4103  0.6111
24862SOL    HW276966   0.487   3.697   2.993  0.1756  0.6666 -0.1699
24863SOL     OW76967   0.227   5.801   5.478  0.0892 -0.0045  0.2890
24863SOL    HW176968   0.257   5.759   5.397 -0.1748  1.4265 -0.5920
24863SOL    HW276969   0.218   5.729   5.540 -1.7513 -1.5085 -1.5420
24864SOL     OW76970   8.784   4.243   2.166  0.5247 -0.8114  0.6141
24864SOL    HW176971   8.755   4.277   2.251  1.9436  0.0742  0.7830
24864SOL    HW276972   8.708   4.198   2.131 -0.0789 -1.2917  2.4053
24865SOL     OW76973  10.666   9.757   4.905  0.3381 -0.5447 -0.0238
24865SOL    HW176974  10.592   9.788   4.853 -0.0070 -0.1456  0.6905
24865SOL    HW276975  10.705   9.837   4.941  0.9908 -0.7660 -0.2161
24866SOL     OW76976   9.435   5.980   2.846  0.2428  0.2725  0.2222
24866SOL    HW176977   9.524   5.948   2.860  0.3696  1.1354  1.5295
24866SOL    HW276978   9.420   6.043   2.917 -0.8426  1.3286 -0.8893
24867SOL     OW76979   3.628   6.251   8.941 -0.0100  0.2778 -0.2774
24867SOL    HW176980   3.639   6.286   9.030  0.2980  1.4607 -0.7552
24867SOL    HW276981   3.553   6.298   8.906  1.5272  1.9370 -1.5829
24868SOL     OW76982   1.822   7.155   1.733  0.4814  0.2024  0.3144
24868SOL    HW176983   1.791   7.196   1.814 -0.2190 -0.1555  0.2358
24868SOL    HW276984   1.742   7.135   1.684  0.9175  1.2950 -0.9138
24869SOL     OW76985   3.100   4.789   0.667 -0.1216 -0.4356 -0.3997
24869SOL    HW176986   3.169   4.724   0.677  0.0803 -0.0445  1.0498
24869SOL    HW276987   3.093   4.830   0.754 -0.0017  1.7238 -1.3593
24870SOL     OW76988   7.598   3.497   5.845 -0.4817  0.2390 -0.1962
24870SOL    HW176989   7.532   3.486   5.914 -1.8348  0.0264 -1.4774
24870SOL    HW276990   7.561   3.565   5.788  0.5197  0.2575 -0.8310
24871SOL     OW76991   5.356   2.946   1.158  0.4369 -0.2994  0.5909
24871SOL    HW176992   5.405   2.892   1.221  0.8449  0.5447  1.0204
24871SOL    HW276993   5.332   3.024   1.208 -0.7151 -0.3600  0.1657
24872SOL     OW76994   7.165   4.047   6.024  0.4470  0.2645 -0.5565
24872SOL    HW176995   7.071   4.032   6.021 -0.1180  2.8658  1.1884
24872SOL    HW276996   7.178   4.108   6.096  3.4326  0.4462 -1.0990
24873SOL     OW76997  10.769   7.728   6.185 -0.3501 -0.2590 -0.6543
24873SOL    HW176998  10.680   7.698   6.205 -0.1599  0.1071  0.8843
24873SOL    HW276999  10.822   7.649   6.190  0.0216  0.0455  2.5955
24874SOL     OW77000   8.562   4.066   2.098  0.0085 -0.0724  0.6629
24874SOL    HW177001   8.552   4.043   2.006  0.6508  0.0305  0.5584
24874SOL    HW277002   8.515   3.998   2.146 -1.6382  0.6977  0.2158
24875SOL     OW77003   4.067   0.664   4.622  0.4486 -0.4544 -0.3987
24875SOL    HW177004   4.101   0.754   4.629  3.7941 -1.6939  1.4314
24875SOL    HW277005   4.026   0.661   4.535  2.5517  2.1191 -1.6333
24876SOL     OW77006   0.293   7.372   7.503 -0.3690 -0.4614 -0.3547
24876SOL    HW177007   0.235   7.373   7.579  0.3140 -3.7662  0.3777
24876SOL    HW277008   0.376   7.409   7.535 -0.9544  0.9621 -0.4109
24877SOL     OW77009   0.423   3.042   7.932 -0.0903  0.1063 -0.7450
24877SOL    HW177010   0.464   2.982   7.870 -0.8976  1.7341 -2.9946
24877SOL    HW277011   0.458   3.128   7.909 -0.7980  0.8422  0.7806
24878SOL     OW77012   7.328   2.531   9.192  0.3158 -0.1028 -0.2324
24878SOL    HW177013   7.310   2.529   9.286 -0.1892  0.1925 -0.3219
24878SOL    HW277014   7.423   2.518   9.186  0.8848  2.8962  0.4887
24879SOL     OW77015   0.685   7.287   6.811  0.3956 -0.6870  0.1717
24879SOL    HW177016   0.609   7.251   6.857  0.1643 -0.7830 -0.2745
24879SOL    HW277017   0.723   7.212   6.765  0.2016 -0.4645 -0.3652
24880SOL     OW77018   5.066   4.173   9.222  0.1014 -0.0614 -0.1445
24880SOL    HW177019   5.121   4.231   9.275 -0.8595  0.0164  0.7937
24880SOL    HW277020   5.099   4.184   9.133 -1.9016  4.1766 -0.5840
24881SOL     OW77021   6.937  10.740   3.854  0.1345 -0.2961  0.6236
24881SOL    HW177022   6.908  10.654   3.885  1.1670 -0.9547 -0.1892
24881SOL    HW277023   6.966  10.785   3.934 -1.7031 -0.1545  1.2489
24882SOL     OW77024   4.170   5.280  10.625  0.0715 -0.2637 -0.8401
24882SOL    HW177025   4.174   5.187  10.601 -0.3999  0.2558 -3.2388
24882SOL    HW277026   4.098   5.315  10.572 -1.7779  0.9382  2.2226
24883SOL     OW77027   6.683   1.425   1.407 -0.1943 -0.5494 -0.6462
24883SOL    HW177028   6.621   1.437   1.479 -0.5428 -4.2730 -0.1296
24883SOL    HW277029   6.629   1.414   1.329 -0.1011 -1.4856 -0.5896
24884SOL     OW77030   6.343   6.230   9.212 -0.2726  0.1329 -0.0261
24884SOL    HW177031   6.251   6.230   9.188 -0.1986  1.3597 -0.3565
24884SOL    HW277032   6.351   6.159   9.276 -1.0640 -1.2019 -1.3602
24885SOL     OW77033   1.569   2.354   4.298 -0.6186 -0.4029  0.3540
24885SOL    HW177034   1.611   2.320   4.219  2.0914  1.9668  0.6001
24885SOL    HW277035   1.608   2.303   4.370  0.0391  0.1715  0.4136
24886SOL     OW77036   3.846   0.136   3.175  0.2492 -0.0741 -0.4706
24886SOL    HW177037   3.755   0.166   3.181 -0.0363 -0.9873 -0.0441
24886SOL    HW277038   3.858   0.115   3.083  0.2307  0.6498 -0.6448
24887SOL     OW77039   6.893   6.856   1.045  0.2323 -0.7077 -0.0875
24887SOL    HW177040   6.876   6.870   1.139 -0.7317 -1.0550 -0.1916
24887SOL    HW277041   6.805   6.847   1.007  0.6227 -0.6597 -1.0112
24888SOL     OW77042   7.237   1.713   4.954  0.2172  0.2912 -0.0850
24888SOL    HW177043   7.198   1.727   5.041  1.2687  1.3066  0.2465
24888SOL    HW277044   7.186   1.641   4.917 -0.1466 -0.2838  1.4353
24889SOL     OW77045   7.411   5.564   8.873 -0.1354 -0.2095 -0.7664
24889SOL    HW177046   7.402   5.606   8.959  0.3568  0.6333 -1.1159
24889SOL    HW277047   7.482   5.611   8.831  0.0625 -1.0557 -1.3932
24890SOL     OW77048   5.678   6.775   4.505 -0.1566 -0.7236  0.6854
24890SOL    HW177049   5.610   6.816   4.559 -0.1909  0.2095 -0.0338
24890SOL    HW277050   5.631   6.746   4.426  0.5147  1.5402 -0.6398
24891SOL     OW77051   8.171   8.353   0.089 -0.0992 -0.2713  0.3110
24891SOL    HW177052   8.229   8.391   0.023  0.3080  0.9328  1.3228
24891SOL    HW277053   8.196   8.261   0.092 -1.6165 -0.9361 -2.7439
24892SOL     OW77054   3.756   5.207   1.275  0.2506  0.1156  0.6655
24892SOL    HW177055   3.699   5.197   1.351  2.6141  0.3177  2.5550
24892SOL    HW277056   3.804   5.125   1.268 -0.7088 -0.3535 -1.3799
24893SOL     OW77057   9.583   6.533   0.439  0.6776  0.3936 -0.2124
24893SOL    HW177058   9.560   6.467   0.374 -0.1195  0.5452 -0.0955
24893SOL    HW277059   9.572   6.617   0.393  1.4803  0.4672 -0.2973
24894SOL     OW77060   0.137   8.368   5.638 -0.0723 -0.0434  0.0479
24894SOL    HW177061   0.165   8.365   5.729 -0.9520  0.7200  0.3563
24894SOL    HW277062   0.079   8.444   5.633 -0.9921 -0.7758 -0.8768
24895SOL     OW77063   8.891   6.194   8.893  1.0330  0.2290 -0.7143
24895SOL    HW177064   8.861   6.246   8.967 -2.1172 -0.4895 -1.3377
24895SOL    HW277065   8.859   6.241   8.816  0.3123 -1.2682 -1.3760
24896SOL     OW77066   1.308   4.211   2.529  0.1587  0.2864  0.0151
24896SOL    HW177067   1.317   4.278   2.596 -1.0654 -1.3339  1.9042
24896SOL    HW277068   1.239   4.243   2.471  1.4217  1.8281 -0.7082
24897SOL     OW77069   0.754   8.982   9.105 -0.7549 -0.0376  0.4036
24897SOL    HW177070   0.715   9.070   9.102  1.8705  1.2000 -0.4707
24897SOL    HW277071   0.764   8.964   9.199  0.4046  1.4714  0.6026
24898SOL     OW77072   9.765   1.728   3.184  0.0149 -0.4041  0.0061
24898SOL    HW177073   9.839   1.715   3.244 -0.3079 -1.2737  0.2256
24898SOL    HW277074   9.806   1.754   3.102  0.4341  1.4397  0.7371
24899SOL     OW77075   8.832   5.918   9.208  0.1997  0.4962  0.1330
24899SOL    HW177076   8.793   5.986   9.263  1.8066  0.8994  0.8336
24899SOL    HW277077   8.869   5.856   9.271  1.7197  0.7591 -0.4684
24900SOL     OW77078   5.197   2.956   3.310 -0.0837  0.4030 -0.1008
24900SOL    HW177079   5.218   2.970   3.402 -1.4461 -0.6518  0.4090
24900SOL    HW277080   5.103   2.938   3.310  0.1034 -0.7082 -1.5748
24901SOL     OW77081   6.716   2.986   5.622 -0.0468  0.2622  0.1547
24901SOL    HW177082   6.777   2.924   5.663  1.7451  2.0073  0.2792
24901SOL    HW277083   6.663   3.020   5.694 -0.0240 -0.0309  0.3105
24902SOL     OW77084   0.389   2.743   8.818  0.6482 -0.3582 -0.0620
24902SOL    HW177085   0.463   2.699   8.775  0.2449 -0.5944 -0.5274
24902SOL    HW277086   0.415   2.751   8.910  0.8697 -1.2716 -0.0377
24903SOL     OW77087   9.835  10.660   2.861 -0.0331 -0.5667  0.0761
24903SOL    HW177088   9.751  10.626   2.893 -0.2324 -0.4266 -0.2877
24903SOL    HW277089   9.863  10.596   2.795  0.1058 -0.5677  0.1353
24904SOL     OW77090   1.315   3.173   8.325 -0.0973 -0.3145 -0.5080
24904SOL    HW177091   1.341   3.205   8.411  0.9261  0.5364 -1.1170
24904SOL    HW277092   1.383   3.110   8.301 -0.3512 -0.5123 -0.7107
24905SOL     OW77093   9.345   9.639   3.969  0.1610  0.1615  0.4056
24905SOL    HW177094   9.348   9.732   3.989 -0.2240  0.1506  0.5189
24905SOL    HW277095   9.437   9.613   3.960  0.2396  0.9426 -1.4623
24906SOL     OW77096   1.645   1.468   5.569  0.1885  0.5495 -0.1689
24906SOL    HW177097   1.562   1.490   5.611 -0.4986 -1.1208 -0.5551
24906SOL    HW277098   1.620   1.432   5.484  1.4084  1.3688 -0.9050
24907SOL     OW77099   9.719   7.799   0.870  0.0179  0.2843  0.5312
24907SOL    HW177100   9.670   7.717   0.879 -0.1355  0.3632  0.4165
24907SOL    HW277101   9.746   7.820   0.959 -0.1638  0.2441  0.5963
24908SOL     OW77102   9.346   6.402   8.756  0.4200 -0.2173  0.1303
24908SOL    HW177103   9.325   6.395   8.849  0.1636  0.3365  0.1179
24908SOL    HW277104   9.441   6.394   8.752  0.7365  2.3517  0.7279
24909SOL     OW77105   1.973   9.276   0.973  0.2298 -1.0501 -0.5407
24909SOL    HW177106   1.915   9.306   0.903  0.2852  0.0794 -0.1265
24909SOL    HW277107   1.997   9.356   1.021 -0.2645 -1.8452  1.1269
24910SOL     OW77108  10.059   6.752   8.805 -0.0138  0.7086  0.5779
24910SOL    HW177109   9.968   6.768   8.780 -0.7334 -1.9640  1.1018
24910SOL    HW277110  10.056   6.735   8.899  0.8733 -0.1943  0.4698
24911SOL     OW77111   9.499  10.578   3.941  0.5895  0.4542  0.5873
24911SOL    HW177112   9.549  10.651   3.904  0.2040 -0.0002 -0.9231
24911SOL    HW277113   9.409  10.596   3.916  0.6832 -1.3934 -1.4427
24912SOL     OW77114   3.697   7.957   9.580 -0.0159 -0.4914 -0.2190
24912SOL    HW177115   3.731   8.027   9.524  1.4233 -1.0348 -0.0636
24912SOL    HW277116   3.727   7.876   9.539  0.2301 -0.9321  0.7884
24913SOL     OW77117   5.316   7.602   5.167  0.2855 -0.1226 -0.4160
24913SOL    HW177118   5.381   7.618   5.236 -0.1444 -0.5161  0.0953
24913SOL    HW277119   5.256   7.677   5.173  0.9408  0.4708 -1.1891
24914SOL     OW77120   8.743   2.628   4.743  0.0633  0.4698  0.1642
24914SOL    HW177121   8.701   2.713   4.732  0.7333  0.7116 -0.7201
24914SOL    HW277122   8.683   2.566   4.701 -0.4926  0.4803  0.9347
24915SOL     OW77123   3.854   8.104   8.324  0.3585 -0.2921 -0.0455
24915SOL    HW177124   3.897   8.183   8.357  0.3827 -0.0984 -0.5261
24915SOL    HW277125   3.770   8.135   8.292 -0.2731 -0.7187  1.1559
24916SOL     OW77126   8.434   3.316   7.044 -0.2147  0.1243 -0.4333
24916SOL    HW177127   8.342   3.337   7.026 -0.2761 -0.1514 -0.4557
24916SOL    HW277128   8.429   3.249   7.113  0.0020  0.9822  0.4349
24917SOL     OW77129  10.233  10.579   6.335  0.2460  0.3391  0.1026
24917SOL    HW177130  10.137  10.587   6.335  0.2158  0.0427  0.5836
24917SOL    HW277131  10.264  10.659   6.293 -0.1964  0.6999  0.4510
24918SOL     OW77132   5.475  10.371   5.951  0.1111 -0.2576 -0.0254
24918SOL    HW177133   5.461  10.446   5.893 -1.0736  0.0336  0.6060
24918SOL    HW277134   5.448  10.296   5.898  1.4907 -0.2887 -0.7293
24919SOL     OW77135   3.093   3.418   3.080 -0.5743  0.3251  0.4459
24919SOL    HW177136   3.104   3.391   2.989 -0.3434  0.3132  0.4760
24919SOL    HW277137   3.037   3.495   3.076 -0.5701  0.3203  0.2955
24920SOL     OW77138   6.500   4.867   9.378 -0.4257  0.1759 -0.2863
24920SOL    HW177139   6.457   4.948   9.352 -1.2514 -0.4241 -0.8659
24920SOL    HW277140   6.437   4.824   9.437 -0.0488 -0.0932 -0.0727
24921SOL     OW77141   3.747   4.386   1.882 -0.2875 -0.0807  0.6512
24921SOL    HW177142   3.738   4.302   1.927 -2.0012  0.1161  0.7494
24921SOL    HW277143   3.733   4.364   1.789  1.2369 -0.1750  0.4138
24922SOL     OW77144   8.652   3.019   2.581  0.0627 -0.8408 -0.4278
24922SOL    HW177145   8.586   3.068   2.630  0.0384 -0.4587 -0.8319
24922SOL    HW277146   8.736   3.047   2.617  0.0172 -1.1298 -0.0924
24923SOL     OW77147   4.928   6.552   5.252  0.6850 -0.2080  0.1195
24923SOL    HW177148   4.983   6.613   5.302  0.6233  0.4418 -0.5970
24923SOL    HW277149   4.914   6.595   5.168  0.5812 -1.1830 -0.3754
24924SOL     OW77150   6.816   9.706   5.822  0.4350 -0.6337 -0.0577
24924SOL    HW177151   6.800   9.761   5.746  1.1692  0.4233  0.5289
24924SOL    HW277152   6.761   9.629   5.808 -0.0477 -0.0935 -1.2546
24925SOL     OW77153   3.624   0.255   8.666 -0.2383 -0.2013  0.7086
24925SOL    HW177154   3.529   0.247   8.677 -0.3212 -1.4422 -0.6236
24925SOL    HW277155   3.637   0.342   8.629 -1.2056 -1.1894 -2.1504
24926SOL     OW77156   2.336   8.468   9.105 -0.3436 -0.2437  0.4989
24926SOL    HW177157   2.391   8.471   9.027  1.4094 -2.1783  1.5820
24926SOL    HW277158   2.385   8.516   9.171 -0.6085 -0.7859  1.0979
24927SOL     OW77159   4.548   1.525   2.601 -0.5610 -0.1156  0.3923
24927SOL    HW177160   4.537   1.453   2.539  0.9836 -0.7756  0.8277
24927SOL    HW277161   4.607   1.586   2.555 -0.9483  0.3194  0.4703
24928SOL     OW77162   8.720  10.145   8.561  0.4391  0.4088  0.4434
24928SOL    HW177163   8.653  10.165   8.496 -1.2315 -1.4102  1.5019
24928SOL    HW277164   8.692  10.190   8.640 -1.0280 -2.2679  1.6031
24929SOL     OW77165   9.163   8.612   8.161  0.3350  0.1695  0.3923
24929SOL    HW177166   9.216   8.536   8.135  0.9201  0.6014  0.2904
24929SOL    HW277167   9.100   8.623   8.090  3.4083  2.7826 -2.2856
24930SOL     OW77168   3.012   8.055   7.148  0.5294  0.0548  0.2283
24930SOL    HW177169   2.920   8.052   7.120 -0.5099  0.2317  3.2916
24930SOL    HW277170   3.059   8.084   7.070 -1.9302 -0.4972 -1.5938
24931SOL     OW77171   8.190   5.816   5.002 -0.0121  0.4400  0.0442
24931SOL    HW177172   8.259   5.751   4.987  0.0180  0.4358  0.2010
24931SOL    HW277173   8.126   5.771   5.058 -1.0205 -0.1560 -1.5138
24932SOL     OW77174   2.980   1.262   6.884 -0.5936 -0.0455 -0.4737
24932SOL    HW177175   3.062   1.291   6.842 -1.0045 -0.0281 -1.2881
24932SOL    HW277176   2.915   1.327   6.857 -1.0344 -0.4595 -0.4270
24933SOL     OW77177   6.583  10.371   3.492  0.2388  0.3001  0.1809
24933SOL    HW177178   6.583  10.376   3.397 -0.1134  1.1778  0.2173
24933SOL    HW277179   6.540  10.288   3.512 -3.1275  1.7302 -0.4038
24934SOL     OW77180   1.416   6.385   2.373  0.0498 -0.0153 -0.4743
24934SOL    HW177181   1.349   6.452   2.377 -1.4356 -1.3436 -1.5020
24934SOL    HW277182   1.427   6.367   2.279 -1.8220 -3.2004 -0.2529
24935SOL     OW77183   5.477  10.231   1.129  0.5937  0.2994 -0.0965
24935SOL    HW177184   5.383  10.233   1.113  0.7033  1.6352 -0.6705
24935SOL    HW277185   5.514  10.193   1.048  0.5012 -1.2177  0.5323
24936SOL     OW77186   4.270   2.089   9.184 -0.2357 -0.9888  0.1165
24936SOL    HW177187   4.210   2.083   9.258 -0.3085  0.1267  0.1722
24936SOL    HW277188   4.214   2.081   9.107 -0.9681  2.5863  0.0766
24937SOL     OW77189  10.164   2.567   2.382 -0.2242  0.3299 -0.7118
24937SOL    HW177190  10.133   2.567   2.291 -0.6693 -0.0841 -0.5604
24937SOL    HW277191  10.258   2.548   2.375 -0.2218  0.4700 -1.0955
24938SOL     OW77192   0.886  10.237   7.061 -0.0521 -0.0435 -0.1337
24938SOL    HW177193   0.871  10.326   7.029 -1.4951 -0.4707 -0.7101
24938SOL    HW277194   0.940  10.249   7.140  1.1398  1.2163 -1.0951
24939SOL     OW77195   1.974   2.618   0.766  0.5662  0.2489 -0.2618
24939SOL    HW177196   1.996   2.542   0.820  2.7238  0.4677 -0.7538
24939SOL    HW277197   1.933   2.581   0.688  0.6861 -0.3298 -0.0590
24940SOL     OW77198   8.417   1.147   9.695 -0.1100  0.1860  0.0470
24940SOL    HW177199   8.415   1.091   9.773 -0.7981  1.4703  0.9905
24940SOL    HW277200   8.474   1.101   9.634  0.6724 -0.7184  1.4124
24941SOL     OW77201   3.225   8.460   3.337  0.1705 -0.5236  0.5867
24941SOL    HW177202   3.298   8.449   3.277  1.0270 -0.9062  1.6690
24941SOL    HW277203   3.180   8.540   3.307  1.5414  0.2085  0.4223
24942SOL     OW77204   2.800   6.839   2.404 -0.4078  0.2711  0.2439
24942SOL    HW177205   2.720   6.814   2.451  0.5326 -0.4568  1.5410
24942SOL    HW277206   2.871   6.814   2.464  0.8880 -0.9101 -1.6776
24943SOL     OW77207   4.297   1.919   8.626  0.0600 -0.2612  0.5921
24943SOL    HW177208   4.211   1.879   8.638 -0.1990  0.3777  0.8677
24943SOL    HW277209   4.355   1.844   8.610 -0.5053 -0.7129  0.6025
24944SOL     OW77210  10.257   2.947   4.035  0.2748 -0.7757  0.0020
24944SOL    HW177211  10.209   2.926   3.955 -0.5626 -2.4705  0.9041
24944SOL    HW277212  10.293   2.864   4.064  0.8282 -0.1309  1.2358
24945SOL     OW77213  10.659   1.484   1.317  0.0656  0.2274  0.1758
24945SOL    HW177214  10.639   1.551   1.250 -0.2298  0.4830  0.5132
24945SOL    HW277215  10.631   1.402   1.277  3.0705 -0.1421 -1.4200
24946SOL     OW77216   7.694   8.829   2.998 -0.4141  0.9667 -0.2098
24946SOL    HW177217   7.650   8.753   3.036 -2.1583  1.4219 -1.1948
24946SOL    HW277218   7.714   8.885   3.073  3.5262 -1.5889  0.9296
24947SOL     OW77219   3.072   9.568   4.091 -0.5767  0.0779 -0.3453
24947SOL    HW177220   3.104   9.485   4.055  0.4900  0.0583  0.5982
24947SOL    HW277221   3.147   9.628   4.083 -1.5512  1.1830 -1.6727
24948SOL     OW77222   8.715   4.003   2.369  0.6372  0.1100 -0.3061
24948SOL    HW177223   8.739   4.086   2.328  1.3597  0.6673  1.1674
24948SOL    HW277224   8.724   3.939   2.299  1.5274  1.0520 -1.1062
24949SOL     OW77225   3.722   8.104   0.251  0.3022  0.3305  0.6621
24949SOL    HW177226   3.771   8.144   0.179  0.7061 -0.2272  0.6121
24949SOL    HW277227   3.789   8.058   0.302 -0.2668 -1.1332  0.1388
24950SOL     OW77228   1.316   8.245   7.431 -0.0085  0.0836  0.0414
24950SOL    HW177229   1.353   8.201   7.508  1.5107 -1.8925 -1.7017
24950SOL    HW277230   1.250   8.184   7.398 -0.2353  0.6468 -0.5486
24951SOL     OW77231   8.685   5.017   6.106  0.4647 -0.1001 -0.3592
24951SOL    HW177232   8.616   5.072   6.142  2.2480  0.9807  1.6922
24951SOL    HW277233   8.705   5.055   6.021 -2.8932 -1.8264 -2.1070
24952SOL     OW77234   2.044   3.622   3.873  0.1861  0.0168  0.3353
24952SOL    HW177235   2.126   3.613   3.824 -0.1426  0.2044 -0.2605
24952SOL    HW277236   2.008   3.533   3.875  0.4916 -0.0982  0.7550
24953SOL     OW77237   4.783   7.570   8.508 -0.0598  0.3285 -0.4166
24953SOL    HW177238   4.817   7.512   8.577  0.6674  2.0116  0.6987
24953SOL    HW277239   4.696   7.535   8.488  0.2848 -1.0452  0.3180
24954SOL     OW77240   1.977   8.744   4.351  0.4098 -0.3408 -0.5268
24954SOL    HW177241   1.942   8.791   4.276  0.3408  0.3572 -0.0653
24954SOL    HW277242   1.915   8.763   4.422  0.1097 -1.5215 -0.4421
24955SOL     OW77243   1.138   2.338   4.409 -0.4325 -0.2485  0.9771
24955SOL    HW177244   1.149   2.243   4.412  1.1675 -0.1096  0.3593
24955SOL    HW277245   1.075   2.357   4.479  0.8878 -1.5577  2.6035
24956SOL     OW77246   5.554   8.111   6.412  0.2459  0.4342  0.2272
24956SOL    HW177247   5.508   8.189   6.441 -0.0679 -0.2746  1.6995
24956SOL    HW277248   5.529   8.101   6.320 -0.6150  1.3988  0.3452
24957SOL     OW77249   1.870   5.459   1.537  0.3270  0.0089  0.0612
24957SOL    HW177250   1.947   5.510   1.563  0.3884  0.2908 -0.6724
24957SOL    HW277251   1.866   5.468   1.442  0.9150 -2.1439 -0.2218
24958SOL     OW77252   9.837   5.641   2.867 -0.0680  0.0050 -0.7739
24958SOL    HW177253   9.798   5.579   2.805 -0.4132  0.2776 -0.8287
24958SOL    HW277254   9.887   5.585   2.927 -1.6326 -0.4873  0.1129
24959SOL     OW77255   9.687   7.179   1.567  0.0490 -0.0831 -0.1598
24959SOL    HW177256   9.739   7.197   1.645 -1.7764 -4.7714  2.6235
24959SOL    HW277257   9.751   7.163   1.498  1.7756  3.2288  0.5122
24960SOL     OW77258   6.840   9.837  10.589 -0.9868 -0.2584 -0.2273
24960SOL    HW177259   6.762   9.788  10.615  0.0480 -2.3941 -0.8682
24960SOL    HW277260   6.912   9.788  10.629  0.0356  2.1145  1.0263
24961SOL     OW77261   5.233   2.506   3.226 -0.5837 -0.1533 -0.4523
24961SOL    HW177262   5.279   2.568   3.170 -0.6361  0.1427 -0.1718
24961SOL    HW277263   5.141   2.514   3.201 -0.4921 -0.7343 -1.0030
24962SOL     OW77264   7.076   3.649  10.076  0.1982 -0.5071 -0.0578
24962SOL    HW177265   7.136   3.644  10.001  1.0933 -0.9941  0.6724
24962SOL    HW277266   7.121   3.706  10.138  0.5388 -1.9372  1.0547
24963SOL     OW77267   3.659   6.346   0.853 -0.5662 -0.5989 -0.3505
24963SOL    HW177268   3.735   6.302   0.891 -0.1168 -0.5165 -1.1430
24963SOL    HW277269   3.694   6.426   0.815 -1.2325 -0.0108  0.2492
24964SOL     OW77270   6.647   1.325  10.270  0.5120  0.5651 -0.3017
24964SOL    HW177271   6.701   1.276  10.208  0.2024  1.9024 -1.6914
24964SOL    HW277272   6.562   1.332  10.227  0.1510  1.1414  0.4839
24965SOL     OW77273   3.761   4.818   7.289  0.0484 -0.0083  0.6877
24965SOL    HW177274   3.670   4.845   7.304 -0.3002 -0.6654 -0.1241
24965SOL    HW277275   3.813   4.878   7.341 -0.8590  0.3518  1.2057
24966SOL     OW77276   0.028   1.087   4.135  0.1173 -0.7082 -0.1578
24966SOL    HW177277   0.058   1.022   4.071  1.9635  0.0668 -0.1420
24966SOL    HW277278   0.092   1.159   4.128 -3.0793  2.2717 -1.8656
24967SOL     OW77279   9.419   0.826   7.172 -0.5476 -0.3606 -0.0571
24967SOL    HW177280   9.366   0.844   7.095 -1.7361 -1.4833  0.4683
24967SOL    HW277281   9.368   0.861   7.245 -0.5130 -1.3197  0.4376
24968SOL     OW77282   5.786   8.887   5.852 -0.3543 -0.6602 -0.0155
24968SOL    HW177283   5.801   8.971   5.810 -0.2354 -0.6162  0.1123
24968SOL    HW277284   5.746   8.833   5.785  0.4067 -0.7882 -0.3835
24969SOL     OW77285   8.658   2.547   8.836  0.7578  0.0759 -1.1612
24969SOL    HW177286   8.673   2.641   8.834  0.1128  0.2576  0.5807
24969SOL    HW277287   8.680   2.517   8.748  2.6859  1.5730 -1.2488
24970SOL     OW77288   8.633   0.628   4.261  0.0922 -0.1774  0.2391
24970SOL    HW177289   8.550   0.599   4.300  0.4361  0.3902  1.4442
24970SOL    HW277290   8.645   0.570   4.185 -0.9784 -0.8268  0.5338
24971SOL     OW77291  10.788   3.199   4.608  0.6767 -0.1512  0.0380
24971SOL    HW177292  10.863   3.248   4.576  0.7988  0.6713  1.4941
24971SOL    HW277293  10.823   3.112   4.629  1.0187 -0.0592 -0.1517
24972SOL     OW77294   3.371   9.162   3.744  0.4709 -0.6775 -0.2246
24972SOL    HW177295   3.316   9.159   3.822 -0.0807  1.1850 -0.5045
24972SOL    HW277296   3.379   9.070   3.717 -0.5483 -1.2058  1.1540
24973SOL     OW77297   4.372   3.702   9.317  0.7806  0.4728 -0.2196
24973SOL    HW177298   4.421   3.783   9.299  0.9267  0.9987  2.1681
24973SOL    HW277299   4.438   3.633   9.316  0.9553  0.6461 -0.5694
24974SOL     OW77300   2.735   1.176   5.811 -0.4845  0.0274 -0.0093
24974SOL    HW177301   2.766   1.260   5.842 -1.4713 -0.2396  1.8098
24974SOL    HW277302   2.808   1.116   5.827 -0.5188  0.1451  0.5982
24975SOL     OW77303  10.626   6.257   9.519 -0.1802 -0.0954  0.1337
24975SOL    HW177304  10.569   6.254   9.596  0.5284  0.2767  0.6772
24975SOL    HW277305  10.687   6.328   9.537  0.7991 -0.8347 -0.2153
24976SOL     OW77306   7.484   2.823   9.261  0.4899  0.0989  0.0752
24976SOL    HW177307   7.478   2.821   9.357  0.6268 -0.7809  0.0707
24976SOL    HW277308   7.528   2.742   9.238  3.2143  1.6370 -0.5792
24977SOL     OW77309   3.937   9.443   8.371 -0.3933  0.1314  0.5145
24977SOL    HW177310   4.019   9.490   8.358  0.0462 -0.9188 -0.8028
24977SOL    HW277311   3.874   9.510   8.396  0.6224  1.1172  0.5001
24978SOL     OW77312   1.470   2.282   6.148 -0.1889 -0.0869  0.3141
24978SOL    HW177313   1.483   2.319   6.235  0.6736 -0.9346  0.5689
24978SOL    HW277314   1.559   2.265   6.116 -0.5285 -0.6735 -0.3400
24979SOL     OW77315   2.498   4.147   4.611  0.1232 -0.3338  0.1882
24979SOL    HW177316   2.493   4.240   4.586  0.1257 -0.6665 -1.1206
24979SOL    HW277317   2.408   4.124   4.635  0.2031  0.1049  0.9625
24980SOL     OW77318   9.055   8.362   4.177  0.2405 -0.1485 -0.4558
24980SOL    HW177319   9.037   8.365   4.083  0.3123 -0.4927 -0.4813
24980SOL    HW277320   9.132   8.418   4.188 -0.3212  0.6388 -0.4684
24981SOL     OW77321   9.870   8.156  10.123 -0.0640 -0.0075  0.1903
24981SOL    HW177322   9.862   8.216  10.049  0.5802 -2.0812 -1.6404
24981SOL    HW277323   9.785   8.111  10.127  0.1797 -0.4577  0.2407
24982SOL     OW77324   1.349   9.041   1.155  0.6892 -0.2143 -0.0126
24982SOL    HW177325   1.375   9.009   1.068  1.2736 -2.0954  0.8059
24982SOL    HW277326   1.292   8.972   1.189  0.8296  0.2876  1.2757
24983SOL     OW77327   2.137   1.123   4.985  0.6194 -0.5363  0.1797
24983SOL    HW177328   2.177   1.036   4.991  1.3215 -0.1813  0.8278
24983SOL    HW277329   2.192   1.171   4.924  0.3182 -0.4994 -0.0650
24984SOL     OW77330   2.993   3.396   6.612 -0.1070 -0.0962 -0.2715
24984SOL    HW177331   3.012   3.320   6.556  1.0248  0.1473 -0.2390
24984SOL    HW277332   3.077   3.441   6.619 -0.3844  0.2276  1.1069
24985SOL     OW77333   3.960   2.948   9.158 -0.2225  0.5446  0.6099
24985SOL    HW177334   3.874   2.906   9.149  0.3024 -0.4529  0.2042
24985SOL    HW277335   3.939   3.041   9.168 -1.3069  0.4482 -0.4949
24986SOL     OW77336   7.566   0.356   8.862  0.5143  0.9426  0.2553
24986SOL    HW177337   7.615   0.274   8.864 -0.9751 -0.0247 -0.6784
24986SOL    HW277338   7.594   0.403   8.941  0.9747 -0.7146  1.1293
24987SOL     OW77339   1.850   4.243   0.386 -0.1095 -0.1893 -0.3163
24987SOL    HW177340   1.930   4.262   0.435  0.3318 -0.5956 -0.8648
24987SOL    HW277341   1.830   4.152   0.409 -1.0254  0.2360  0.6521
24988SOL     OW77342   7.845   3.370   4.576 -0.0522  0.2195  0.1139
24988SOL    HW177343   7.930   3.403   4.606  0.1687 -0.4068  0.1906
24988SOL    HW277344   7.833   3.288   4.623 -0.9975  0.6057  0.5806
24989SOL     OW77345   8.772  10.467   0.290 -0.0026 -0.0241  1.0607
24989SOL    HW177346   8.719  10.527   0.343  0.7178  0.2276  1.5122
24989SOL    HW277347   8.783  10.389   0.344  0.3183  0.0361  1.0857
24990SOL     OW77348   6.255   3.672   6.480 -0.2655  0.2689 -0.6030
24990SOL    HW177349   6.265   3.737   6.410  0.8007  2.4801  1.4558
24990SOL    HW277350   6.162   3.672   6.500 -0.3845  0.6080 -1.1249
24991SOL     OW77351   1.006   7.833   1.874 -0.1925  0.6402 -0.2089
24991SOL    HW177352   0.976   7.843   1.964 -0.7612  0.1763 -0.3388
24991SOL    HW277353   0.948   7.767   1.836 -0.8295  1.7927 -1.3250
24992SOL     OW77354  10.099   2.675   7.471 -0.1657  0.2162 -0.3733
24992SOL    HW177355  10.093   2.624   7.552  1.4914  1.5639  0.6771
24992SOL    HW277356  10.034   2.745   7.482 -2.0312 -1.2519 -1.5604
24993SOL     OW77357   8.196  10.729   0.954  0.1622  0.4710  0.0945
24993SOL    HW177358   8.133  10.701   1.021  0.1795 -0.0996 -0.1196
24993SOL    HW277359   8.233  10.647   0.921  0.2860  0.7599 -0.4854
24994SOL     OW77360   1.100   0.745   7.920 -0.5611 -0.1687  0.0563
24994SOL    HW177361   1.168   0.679   7.931 -0.7454 -0.6453 -1.3550
24994SOL    HW277362   1.145   0.828   7.932  0.3668 -0.4624 -1.1806
24995SOL     OW77363   0.761   9.402   2.810  0.2220 -0.6418 -0.0634
24995SOL    HW177364   0.717   9.412   2.895 -0.4988  1.6305 -0.6394
24995SOL    HW277365   0.836   9.346   2.829 -0.6863 -1.3039  1.7890
24996SOL     OW77366   1.390   5.659   6.952 -0.0767  0.3159 -0.5577
24996SOL    HW177367   1.348   5.713   6.886  0.5295  1.2088 -0.2240
24996SOL    HW277368   1.327   5.654   7.023  0.0895  1.0471 -0.3587
24997SOL     OW77369   3.132   7.077   7.822  0.1609 -0.3284 -0.0283
24997SOL    HW177370   3.188   7.144   7.785 -1.1548 -0.0157 -1.5488
24997SOL    HW277371   3.189   7.000   7.832  1.1831  0.3990 -0.1527
24998SOL     OW77372   7.807   1.605   5.449 -0.1955  0.2725 -0.2120
24998SOL    HW177373   7.716   1.630   5.430 -0.0028  1.0464 -0.1576
24998SOL    HW277374   7.854   1.619   5.367 -0.3970 -1.6185 -0.7072
24999SOL     OW77375   7.923   1.664   8.784 -0.0660 -0.2072  0.6629
24999SOL    HW177376   7.930   1.616   8.866  1.6766 -0.1801  0.5613
24999SOL    HW277377   7.830   1.656   8.760 -0.2496 -1.7102  1.7088
25000SOL     OW77378   3.557   6.370   4.225  0.3257 -0.1739 -0.0992
25000SOL    HW177379   3.475   6.417   4.241 -1.1432 -2.4918 -0.2359
25000SOL    HW277380   3.616   6.436   4.188 -1.8888  1.3284 -1.1918
25001SOL     OW77381   4.178   8.696   3.600 -0.8147 -0.2106 -0.0681
25001SOL    HW177382   4.193   8.697   3.506  0.8451  0.2672  0.1772
25001SOL    HW277383   4.240   8.633   3.634 -1.0179  0.0313  0.7720
25002SOL     OW77384   9.472   5.853   7.793  0.0410 -0.4299  0.1767
25002SOL    HW177385   9.439   5.836   7.882  1.9701  0.0887  1.0417
25002SOL    HW277386   9.402   5.903   7.751  0.4957  2.6997  2.7039
25003SOL     OW77387   2.400   3.533   7.681 -0.7345  0.5523  0.1991
25003SOL    HW177388   2.430   3.622   7.699  1.1333 -0.4577  2.5879
25003SOL    HW277389   2.324   3.522   7.737 -0.9870  0.6280 -0.1232
25004SOL     OW77390   0.402   1.269   2.092 -0.2452 -0.0305  0.3162
25004SOL    HW177391   0.361   1.236   2.172  0.6816 -0.2111  0.7264
25004SOL    HW277392   0.431   1.191   2.045  0.2176  0.1158  0.3520
25005SOL     OW77393   7.253   3.583   8.581 -0.0312 -0.0077 -0.5387
25005SOL    HW177394   7.229   3.492   8.563  1.8856 -1.0332  1.6063
25005SOL    HW277395   7.325   3.601   8.520 -0.0736 -0.0999 -0.6175
25006SOL     OW77396   6.493   7.391   5.205 -0.4231 -0.1598 -0.3273
25006SOL    HW177397   6.583   7.398   5.235  0.3934  2.2049 -2.9439
25006SOL    HW277398   6.446   7.459   5.252 -0.7318 -0.9347  0.5181
25007SOL     OW77399   8.171   9.506   1.144 -0.4379 -0.5003 -0.5435
25007SOL    HW177400   8.124   9.484   1.225 -0.1017  0.1558 -0.1654
25007SOL    HW277401   8.233   9.433   1.133 -1.3841 -1.2659 -0.9373
25008SOL     OW77402   6.830   8.091   2.303 -0.7096  0.2446 -0.3766
25008SOL    HW177403   6.805   8.091   2.211 -1.7201  1.1168 -0.1111
25008SOL    HW277404   6.926   8.085   2.301 -0.7385 -0.1372 -1.4661
25009SOL     OW77405   2.529   5.005   3.182 -0.3077 -0.2996  0.1753
25009SOL    HW177406   2.563   5.094   3.192 -1.2816  0.0604  0.4068
25009SOL    HW277407   2.565   4.957   3.256  1.4258 -0.5022 -0.7502
25010SOL     OW77408   5.320   7.827   0.605 -0.3195 -0.3698  0.1094
25010SOL    HW177409   5.298   7.773   0.529  2.3576  0.1968 -1.1915
25010SOL    HW277410   5.328   7.916   0.569  0.0030  0.0893  1.2647
25011SOL     OW77411   6.644   5.240   1.138  0.8954  0.2623  0.3181
25011SOL    HW177412   6.629   5.284   1.054  1.0626  0.2763  0.2957
25011SOL    HW277413   6.557   5.237   1.179  0.1519 -2.6662 -1.2602
25012SOL     OW77414   3.401   9.035   2.923  0.4792  0.2037  0.5980
25012SOL    HW177415   3.440   9.058   3.007 -0.3426 -0.0250  1.0609
25012SOL    HW277416   3.353   8.954   2.941  0.6716 -0.0889 -0.2016
25013SOL     OW77417   4.316   4.861   7.096 -0.2115  0.2463  0.7222
25013SOL    HW177418   4.305   4.768   7.119  0.6819  0.2654  1.2512
25013SOL    HW277419   4.235   4.902   7.126 -1.5083 -0.6698 -1.3037
25014SOL     OW77420   2.700   8.983   4.915 -0.7090 -0.6337  0.4611
25014SOL    HW177421   2.643   9.059   4.907 -0.5832 -0.7078 -1.9838
25014SOL    HW277422   2.780   9.008   4.870 -0.1584 -1.7609  0.7747
25015SOL     OW77423   2.187  10.252   6.254 -0.1383 -0.0817 -0.0204
25015SOL    HW177424   2.136  10.208   6.322  0.3077  0.1122  0.4376
25015SOL    HW277425   2.154  10.342   6.254 -1.4911 -0.5317 -1.3808
25016SOL     OW77426   0.689   5.563   7.622  0.1275 -0.0275 -0.6309
25016SOL    HW177427   0.774   5.539   7.585 -0.3052  0.7472 -2.2314
25016SOL    HW277428   0.649   5.618   7.555 -0.8003  1.3167  0.9587
25017SOL     OW77429   3.715   0.174   6.120  0.3853  0.2329  0.3240
25017SOL    HW177430   3.741   0.103   6.179  2.7905  0.2570 -0.5947
25017SOL    HW277431   3.628   0.150   6.090  0.9527 -2.0988  0.4029
25018SOL     OW77432   0.193   9.886   6.670 -0.5260  0.3099 -0.0415
25018SOL    HW177433   0.269   9.830   6.653 -0.0338  1.4208 -1.7187
25018SOL    HW277434   0.216   9.934   6.750  0.0166 -0.2207  0.1271
25019SOL     OW77435   3.790   9.640   5.905 -0.4140 -0.1209 -0.3824
25019SOL    HW177436   3.796   9.652   5.810 -1.5072 -4.2119 -1.1342
25019SOL    HW277437   3.702   9.672   5.928  0.2574  1.9425 -0.4163
25020SOL     OW77438   1.660   6.703   7.070 -0.3254  0.2205 -0.3457
25020SOL    HW177439   1.683   6.621   7.028 -4.0683 -0.5459 -1.2384
25020SOL    HW277440   1.734   6.761   7.053  1.8000 -2.4911 -0.8999
25021SOL     OW77441   5.637   4.110   7.377 -0.6019 -0.4968 -0.1864
25021SOL    HW177442   5.586   4.113   7.458 -1.6540  0.4521 -0.8405
25021SOL    HW277443   5.591   4.171   7.318 -0.2004 -1.5792 -1.6794
25022SOL     OW77444   3.939   6.773   0.457  0.0622  0.2122 -0.6339
25022SOL    HW177445   3.884   6.849   0.433  1.8717  1.3091 -1.5471
25022SOL    HW277446   3.882   6.719   0.512 -1.2488  2.3180  0.2165
25023SOL     OW77447   3.368   5.552   3.909  0.0447 -0.2209 -0.1154
25023SOL    HW177448   3.437   5.511   3.961 -1.2309 -2.4151 -0.0258
25023SOL    HW277449   3.391   5.530   3.819 -1.5803 -2.9260  0.0163
25024SOL     OW77450   0.804   5.409   1.088 -0.1361 -0.0550 -0.0390
25024SOL    HW177451   0.789   5.339   1.153  0.5474  0.3176  0.5344
25024SOL    HW277452   0.839   5.482   1.139  0.4426  0.2385 -0.8354
25025SOL     OW77453   2.703   4.620  10.587 -1.1684 -0.5102 -0.0861
25025SOL    HW177454   2.668   4.589  10.671  0.2131 -1.8977  0.0350
25025SOL    HW277455   2.659   4.565  10.522 -0.6475 -0.9663 -0.0704
25026SOL     OW77456   2.176   2.779   0.278  0.1497  0.0115  1.0907
25026SOL    HW177457   2.247   2.809   0.335  0.4243 -0.4959  1.0200
25026SOL    HW277458   2.152   2.693   0.313  0.6127 -0.5014  0.1837
25027SOL     OW77459  10.366   0.507  10.710 -0.1495 -0.0017  0.5894
25027SOL    HW177460  10.296   0.493  10.647  1.0657 -2.1199 -0.3929
25027SOL    HW277461  10.425   0.569  10.667 -0.5638  0.4712  0.6998
25028SOL     OW77462  10.331   4.775   3.292 -0.1609 -0.6638 -0.6221
25028SOL    HW177463  10.405   4.831   3.317 -0.9095  1.1206 -2.1870
25028SOL    HW277464  10.300   4.739   3.375  1.5520 -0.3275  0.2288
25029SOL     OW77465   1.096   8.863  10.394  0.5712  0.2516  0.4946
25029SOL    HW177466   1.077   8.954  10.371 -0.9315 -0.1821 -0.0433
25029SOL    HW277467   1.144   8.828  10.319  0.0460  0.2457  0.1625
25030SOL     OW77468   7.874   7.449  10.447 -0.0373 -0.1765  0.2972
25030SOL    HW177469   7.811   7.521  10.446  1.5036  1.2663  1.4043
25030SOL    HW277470   7.832   7.380  10.395 -1.3383  1.7080 -1.3430
25031SOL     OW77471   3.306   4.176   9.145 -0.1097 -0.0042  0.3071
25031SOL    HW177472   3.380   4.120   9.122 -0.1219  0.2698 -0.4306
25031SOL    HW277473   3.251   4.177   9.066 -1.5895 -1.2666  1.2520
25032SOL     OW77474   8.689   2.542   1.681 -0.1101  0.1183 -0.0733
25032SOL    HW177475   8.617   2.478   1.676  1.1722 -1.4941  0.9624
25032SOL    HW277476   8.667   2.596   1.756 -0.0528 -0.6391  0.5020
25033SOL     OW77477   7.132   1.528   4.488  0.2901 -0.6711  0.3400
25033SOL    HW177478   7.048   1.485   4.505 -0.6126  0.3964 -1.1744
25033SOL    HW277479   7.176   1.530   4.573 -1.0051 -1.7031  1.0574
25034SOL     OW77480   8.527   6.136   1.813 -0.2098 -0.3596  0.9536
25034SOL    HW177481   8.577   6.088   1.747 -0.2764  1.0248 -0.1530
25034SOL    HW277482   8.577   6.216   1.828 -1.5994  0.6567  0.4563
25035SOL     OW77483   3.707   4.248   5.764  0.3888  0.0631 -1.0702
25035SOL    HW177484   3.671   4.327   5.726  0.8897  0.6556 -0.3564
25035SOL    HW277485   3.631   4.195   5.787  0.0777 -0.3827 -2.9658
25036SOL     OW77486   1.373   0.435   0.277 -0.3053 -0.6198  0.9025
25036SOL    HW177487   1.303   0.372   0.292 -0.8470 -0.5690 -1.0673
25036SOL    HW277488   1.329   0.520   0.275  0.0303 -0.4397  1.0754
25037SOL     OW77489   9.109  10.036   8.622  0.1596 -0.6542 -0.1696
25037SOL    HW177490   9.090  10.084   8.542 -1.2235  1.0613  1.1222
25037SOL    HW277491   9.025  10.001   8.650  0.3553 -0.0864  1.2247
25038SOL     OW77492  10.087   0.345   5.744  0.4066 -0.3853 -0.1862
25038SOL    HW177493   9.992   0.349   5.745  0.4235  0.1351 -0.3250
25038SOL    HW277494  10.108   0.298   5.663  0.2761 -0.1900 -0.3335
25039SOL     OW77495   1.665   4.305   9.257 -0.0094 -0.0159 -0.0990
25039SOL    HW177496   1.577   4.270   9.238  0.0197 -0.5543  0.7024
25039SOL    HW277497   1.657   4.399   9.241  0.6631 -0.5478 -5.1841
25040SOL     OW77498   9.753   0.435   6.107  0.1049 -0.1856  0.2579
25040SOL    HW177499   9.811   0.396   6.042 -1.0921 -0.6380 -0.5798
25040SOL    HW277500   9.722   0.362   6.160 -0.6048 -0.1225 -0.0552
25041SOL     OW77501   2.732   3.129   3.986 -0.4193  0.1919  0.0697
25041SOL    HW177502   2.723   3.084   4.070  1.0283  0.7031  0.5342
25041SOL    HW277503   2.820   3.104   3.955 -0.3106  1.2617 -0.5262
25042SOL     OW77504   9.943  10.233   4.137 -0.4373  0.5855  0.6499
25042SOL    HW177505   9.866  10.259   4.187 -1.0876 -0.4761  0.2478
25042SOL    HW277506   9.924  10.143   4.110  0.7473  0.4721  0.1500
25043SOL     OW77507   3.375   6.375   8.098  0.3527 -0.7862 -0.0340
25043SOL    HW177508   3.425   6.402   8.021 -0.1201 -0.8160 -0.3578
25043SOL    HW277509   3.385   6.448   8.160  0.5922 -0.6874 -0.1871
25044SOL     OW77510   9.580   9.619   0.103  0.1477  0.0986 -0.8181
25044SOL    HW177511   9.586   9.668   0.021  2.1383  0.6273 -0.4101
25044SOL    HW277512   9.557   9.685   0.168  0.2752  0.0086 -0.6814
25045SOL     OW77513   8.565   5.613   8.806 -0.3734  0.1373 -0.3449
25045SOL    HW177514   8.593   5.658   8.726 -4.1820  2.6947 -0.4771
25045SOL    HW277515   8.544   5.524   8.776  3.2045 -0.6358 -0.9702
25046SOL     OW77516   8.225   7.200   7.433 -0.4521  0.3324 -0.4833
25046SOL    HW177517   8.131   7.187   7.427 -0.7365  1.6765  0.5974
25046SOL    HW277518   8.253   7.219   7.344 -1.1936 -0.0816 -0.8079
25047SOL     OW77519   1.301   0.318   8.364 -0.0911 -0.0199 -0.1753
25047SOL    HW177520   1.218   0.272   8.351  0.0396  0.1822 -1.8920
25047SOL    HW277521   1.351   0.262   8.423 -0.9173 -0.7962 -0.1985
25048SOL     OW77522   8.330   0.819   0.241  0.0612 -0.1962 -0.8161
25048SOL    HW177523   8.411   0.785   0.279  0.8115  1.5752 -0.7103
25048SOL    HW277524   8.263   0.802   0.308  0.5271 -0.8631 -0.5141
25049SOL     OW77525   3.581   9.409   5.650  0.5099 -0.0188  0.0313
25049SOL    HW177526   3.506   9.372   5.603 -0.5975  0.3195  1.4830
25049SOL    HW277527   3.611   9.481   5.594 -0.0983 -0.3027 -0.6742
25050SOL     OW77528   8.360   4.367  10.346  0.1683 -0.3253 -0.5589
25050SOL    HW177529   8.395   4.292  10.299 -0.1094 -0.6713 -0.2114
25050SOL    HW277530   8.306   4.413  10.282  0.4248 -0.3567 -0.8001
25051SOL     OW77531  10.599   3.432   5.393  0.0045  0.0757 -1.1095
25051SOL    HW177532  10.664   3.499   5.369 -0.2296  0.5779 -0.3694
25051SOL    HW277533  10.534   3.479   5.445 -0.1138 -0.7501 -0.4874
25052SOL     OW77534   6.968   4.963   2.040 -0.3060 -0.5686  0.5062
25052SOL    HW177535   6.953   4.963   2.135 -2.2084 -0.3975  0.2566
25052SOL    HW277536   6.983   4.871   2.019  0.4659 -0.5634  1.0143
25053SOL     OW77537   3.402   8.762   9.573  0.2350 -0.1647 -0.3019
25053SOL    HW177538   3.390   8.849   9.611  2.2734 -0.3429  0.8720
25053SOL    HW277539   3.470   8.721   9.626 -1.3990 -2.9230 -0.0965
25054SOL     OW77540   4.554   7.748   6.786  0.0871 -0.5994  0.2734
25054SOL    HW177541   4.489   7.685   6.817 -0.1350 -0.6647 -0.3096
25054SOL    HW277542   4.626   7.695   6.752  0.2916 -0.5290  0.5900
25055SOL     OW77543   9.819   3.637   7.802  0.6165 -0.0989  0.6303
25055SOL    HW177544   9.848   3.562   7.749 -1.6526 -1.2971  0.9145
25055SOL    HW277545   9.739   3.667   7.758  1.2512  1.9280  0.7811
25056SOL     OW77546   3.609   5.876   0.839 -0.2672  0.2367  0.0925
25056SOL    HW177547   3.598   5.930   0.761  0.4331  1.1466  0.6034
25056SOL    HW277548   3.618   5.787   0.805  2.5769  0.8677 -1.1076
25057SOL     OW77549   4.151   1.243   6.517 -0.4414  0.5345 -0.1430
25057SOL    HW177550   4.242   1.214   6.511 -0.0185  1.6447  0.6560
25057SOL    HW277551   4.105   1.172   6.562  0.0966  0.1244 -0.2372
25058SOL     OW77552   3.411   9.415   3.662  0.1590  0.4346 -0.1540
25058SOL    HW177553   3.385   9.325   3.681 -1.1548  1.1743  1.8966
25058SOL    HW277554   3.480   9.406   3.595 -0.0178 -2.0500 -0.1186
25059SOL     OW77555   6.091   1.001   0.278  0.4392 -0.3645  0.4567
25059SOL    HW177556   6.012   0.975   0.326  0.8986  0.2138  1.5747
25059SOL    HW277557   6.124   0.919   0.240 -0.9685 -0.5311 -0.4783
25060SOL     OW77558   2.295   1.145   7.296 -0.3720  0.1147  0.0044
25060SOL    HW177559   2.337   1.072   7.251 -0.5085 -0.8970  1.4572
25060SOL    HW277560   2.356   1.169   7.365 -0.1801  1.6262 -0.6560
25061SOL     OW77561   1.865   8.784   5.876  0.2480  0.1615 -0.6184
25061SOL    HW177562   1.961   8.789   5.867  0.3680  0.2782  0.5857
25061SOL    HW277563   1.836   8.739   5.796  1.5632 -2.2932  0.2064
25062SOL     OW77564   3.174   4.603   4.900  0.9760 -0.1126 -0.4616
25062SOL    HW177565   3.101   4.629   4.844  0.8265  2.4153  0.7622
25062SOL    HW277566   3.133   4.556   4.973  0.8250 -0.6703 -0.9050
25063SOL     OW77567   3.552   7.427   0.209  0.9523  0.5564 -0.2741
25063SOL    HW177568   3.639   7.387   0.197  1.0181  0.0448  1.5893
25063SOL    HW277569   3.571   7.514   0.243  0.7458  0.2758  0.5782
25064SOL     OW77570   8.034   2.738   5.917  0.1427  0.2310  0.0888
25064SOL    HW177571   8.030   2.697   6.003 -0.6186  2.0033  0.9445
25064SOL    HW277572   7.974   2.687   5.863 -1.4620  0.7068  1.3541
25065SOL     OW77573  10.055   1.415   9.998  0.2884 -0.3122  0.5379
25065SOL    HW177574  10.021   1.337  10.041  1.9313 -0.6423  1.3321
25065SOL    HW277575  10.100   1.463  10.068  1.2738  0.1757 -0.4003
25066SOL     OW77576   0.870   4.179   3.828 -0.2500 -0.0385  0.0840
25066SOL    HW177577   0.911   4.265   3.828  1.2850 -0.7082 -1.2888
25066SOL    HW277578   0.878   4.147   3.918 -0.2133  0.9486  0.4387
25067SOL     OW77579   2.281   0.641   2.363 -0.0416 -0.0589 -0.4569
25067SOL    HW177580   2.352   0.665   2.422 -0.3960 -1.7577  0.7461
25067SOL    HW277581   2.266   0.719   2.309  2.2876  0.5471 -0.3166
25068SOL     OW77582   3.577   7.930   2.909 -0.7543 -0.2156 -0.0416
25068SOL    HW177583   3.596   8.023   2.902  0.9534 -0.5683 -0.3781
25068SOL    HW277584   3.486   7.926   2.941 -0.5964  1.5490  0.6902
25069SOL     OW77585   7.901   5.671  10.000 -0.1304 -0.2562  0.1964
25069SOL    HW177586   7.906   5.580  10.030  3.2585  0.4067  2.1292
25069SOL    HW277587   7.954   5.720  10.063  1.3338  2.4697 -2.8853
25070SOL     OW77588   5.533   3.976   0.979 -0.6573  0.3546 -0.0195
25070SOL    HW177589   5.595   3.989   0.907  0.2244 -0.9377  0.4799
25070SOL    HW277590   5.458   4.031   0.956 -0.0165  0.6678 -1.4616
25071SOL     OW77591   1.281   3.610   2.904 -0.2161 -0.1943 -0.3707
25071SOL    HW177592   1.337   3.679   2.869 -1.0848  0.9869  0.5030
25071SOL    HW277593   1.196   3.623   2.863 -0.7342  0.0585  0.7470
25072SOL     OW77594   5.113   8.477   2.316 -0.0735  0.1481 -0.0981
25072SOL    HW177595   5.149   8.530   2.387  0.1905  0.8342 -0.7432
25072SOL    HW277596   5.048   8.421   2.359 -0.4957  1.1251  0.5511
25073SOL     OW77597   5.233   2.151   9.967  0.2218 -0.3915 -0.5945
25073SOL    HW177598   5.201   2.183  10.051 -1.9908  1.6515 -2.0876
25073SOL    HW277599   5.180   2.072   9.950  2.6678 -2.5758  1.0985
25074SOL     OW77600   1.023   9.835   7.885 -0.0300 -0.2096 -0.3080
25074SOL    HW177601   1.068   9.894   7.945  1.7915 -0.4694 -1.3658
25074SOL    HW277602   1.093   9.788   7.840 -1.3586 -0.5538 -2.1091
25075SOL     OW77603   4.888   2.365   3.633 -0.0138 -0.0393 -0.1333
25075SOL    HW177604   4.973   2.362   3.589  1.0296  1.7446  1.5592
25075SOL    HW277605   4.825   2.341   3.566  1.8435 -2.0974 -1.2870
25076SOL     OW77606   0.610   4.790   2.084  0.2718  0.0597 -0.2100
25076SOL    HW177607   0.676   4.849   2.047  0.4538  1.4357  2.1237
25076SOL    HW277608   0.530   4.843   2.086  0.7919  0.9314  3.3420
25077SOL     OW77609   1.747  10.525   1.959 -0.6377 -0.1469 -0.1512
25077SOL    HW177610   1.722  10.492   1.872  0.4587 -0.1083 -0.4974
25077SOL    HW277611   1.832  10.483   1.976 -1.2177 -0.7998  1.2673
25078SOL     OW77612   3.185   9.423   7.347 -0.0631 -0.2088 -0.5739
25078SOL    HW177613   3.100   9.417   7.389  1.0184 -1.4778  1.6053
25078SOL    HW277614   3.177   9.498   7.288 -2.4422  0.1418  0.0924
25079SOL     OW77615   5.222   2.420   1.424  0.0582 -0.1713 -0.2589
25079SOL    HW177616   5.153   2.484   1.444  0.3416 -0.5189  2.0316
25079SOL    HW277617   5.301   2.473   1.411 -0.2198  0.0860 -1.0059
25080SOL     OW77618   0.334  10.648   4.785 -0.0310 -0.3748  0.1469
25080SOL    HW177619   0.384  10.729   4.792 -0.4170 -0.1197 -0.0357
25080SOL    HW277620   0.244  10.676   4.772 -0.3298 -0.8225  1.1211
25081SOL     OW77621   9.019   8.710   8.806  0.8295  0.4390  0.6016
25081SOL    HW177622   9.044   8.686   8.716  0.7023  0.8101  0.4633
25081SOL    HW277623   9.102   8.735   8.847  0.6012  2.8818 -0.2337
25082SOL     OW77624   2.624   9.743   0.276 -0.6608 -0.5627 -0.4967
25082SOL    HW177625   2.628   9.657   0.318 -1.1538 -1.7200 -2.6228
25082SOL    HW277626   2.572   9.797   0.334 -0.6488 -1.8148  0.7233
25083SOL     OW77627   5.574   4.564   1.174 -0.1983 -0.1097  0.2408
25083SOL    HW177628   5.543   4.610   1.097 -0.6481  0.1900  0.5981
25083SOL    HW277629   5.587   4.474   1.145  0.8329  0.2517 -0.5022
25084SOL     OW77630   9.495   9.654  10.386 -0.3699  0.1891 -0.6211
25084SOL    HW177631   9.585   9.685  10.397 -0.1716 -0.7085  0.5470
25084SOL    HW277632   9.500   9.589  10.316 -0.1650  0.3813 -0.7821
25085SOL     OW77633   4.256  10.477   1.574  0.3822 -0.0554 -0.0367
25085SOL    HW177634   4.339  10.497   1.618  0.9198 -2.3157  0.1079
25085SOL    HW277635   4.192  10.536   1.615  0.9865 -1.4726  3.3049
25086SOL     OW77636   9.037   5.463   1.482 -0.5725 -0.3131  0.3929
25086SOL    HW177637   9.089   5.543   1.475  1.9218 -1.9043 -0.8694
25086SOL    HW277638   8.953   5.485   1.440  0.5160  1.2959 -1.1002
25087SOL     OW77639   0.876   5.334   2.929  0.5722  0.0001 -0.1045
25087SOL    HW177640   0.880   5.348   2.834  2.1962  1.3830  0.1354
25087SOL    HW277641   0.860   5.240   2.938  0.2300 -0.1312 -1.7404
25088SOL     OW77642   6.430   8.197   8.640  0.3271 -0.2810  0.4474
25088SOL    HW177643   6.367   8.126   8.654  1.2032 -0.7683  2.3117
25088SOL    HW277644   6.381   8.277   8.657 -0.1642 -0.5660  0.3878
25089SOL     OW77645   9.802   1.639  10.355  0.1260 -0.4506 -0.4534
25089SOL    HW177646   9.731   1.576  10.365 -0.3779  0.1466 -0.2198
25089SOL    HW277647   9.772   1.698  10.286 -0.4104  0.8788  0.8789
25090SOL     OW77648   6.114   5.165   6.465  0.0920 -0.7604  0.1076
25090SOL    HW177649   6.061   5.110   6.407 -1.5808  0.2970  0.5629
25090SOL    HW277650   6.166   5.219   6.405  0.3630 -1.5305 -0.3635
25091SOL     OW77651   0.370   5.352   1.006 -0.1905  0.0526 -0.4048
25091SOL    HW177652   0.456   5.395   1.006 -0.2945  0.2609 -1.3713
25091SOL    HW277653   0.374   5.293   1.082  1.2804 -0.8758 -1.1523
25092SOL     OW77654  10.700   4.679   8.610  0.2094 -0.6574  0.5277
25092SOL    HW177655  10.694   4.722   8.695 -0.1178 -1.5383  0.9651
25092SOL    HW277656  10.778   4.625   8.616  0.6080 -0.1439 -0.0106
25093SOL     OW77657   7.384   4.244   6.452  0.7194 -0.5854 -0.0082
25093SOL    HW177658   7.384   4.152   6.427  2.7903 -1.2205  1.9805
25093SOL    HW277659   7.475   4.272   6.440  0.4938  0.7087  1.0543
25094SOL     OW77660   5.517   2.349   3.168 -0.1318  0.0278 -0.1992
25094SOL    HW177661   5.483   2.282   3.228 -2.7006  0.5363 -0.9619
25094SOL    HW277662   5.452   2.419   3.170  0.9766  1.1738 -1.7060
25095SOL     OW77663   1.703   0.760   9.133  0.0011  0.1113 -0.2806
25095SOL    HW177664   1.683   0.833   9.192 -2.2625  1.6011 -2.6715
25095SOL    HW277665   1.782   0.721   9.170  1.2620  3.6578  1.2599
25096SOL     OW77666   8.897   2.663   7.449  0.9660 -0.1267 -0.1027
25096SOL    HW177667   8.889   2.599   7.378  0.6746 -1.2483  0.9077
25096SOL    HW277668   8.951   2.620   7.515  0.8267  0.7017  0.5811
25097SOL     OW77669   8.027   3.950  10.771  0.1582  0.0508 -0.0096
25097SOL    HW177670   8.066   3.877  10.820  2.9048  1.4276  0.0717
25097SOL    HW277671   7.942   3.963  10.812  0.2177 -2.1315  0.9579
25098SOL     OW77672   2.902   5.732   8.441  0.0564 -0.5926  0.1294
25098SOL    HW177673   2.807   5.744   8.448  0.3330  1.3900  1.2192
25098SOL    HW277674   2.917   5.717   8.348 -1.0842  2.0095 -0.5592
25099SOL     OW77675   3.149   2.550   2.455 -0.1688  0.1073 -0.2657
25099SOL    HW177676   3.090   2.498   2.401 -0.5888 -0.7907  1.0035
25099SOL    HW277677   3.222   2.491   2.476 -0.5545  0.0461  1.0355
25100SOL     OW77678   9.128   1.257   2.928 -0.3401  0.1929 -0.2491
25100SOL    HW177679   9.160   1.327   2.985 -1.9462  0.5576  0.2865
25100SOL    HW277680   9.204   1.203   2.910  0.6554  1.3114  0.4594
25101SOL     OW77681   7.791   0.574   9.304 -0.5531 -0.0089 -0.1817
25101SOL    HW177682   7.710   0.571   9.355 -0.2358  0.0212  0.3276
25101SOL    HW277683   7.851   0.625   9.358 -0.0341 -0.4506 -0.3347
25102SOL     OW77684  10.416   4.628   2.490  0.1471 -0.1451  0.4416
25102SOL    HW177685  10.360   4.618   2.568  0.6374  0.6537  0.9107
25102SOL    HW277686  10.359   4.667   2.424  0.2332  1.0450  1.0444
25103SOL     OW77687   2.343   0.031   3.823  0.3581  0.1897  0.6821
25103SOL    HW177688   2.396   0.071   3.892  0.6450 -1.3896  1.4152
25103SOL    HW277689   2.401  -0.034   3.783  0.6387  1.8880 -1.9461
25104SOL     OW77690   2.726   8.828   9.896  0.3651  0.6387  0.6799
25104SOL    HW177691   2.812   8.826   9.853 -0.6227  2.7719 -1.7330
25104SOL    HW277692   2.689   8.742   9.879  0.3608  1.1037 -2.2733
25105SOL     OW77693   0.256   1.952   5.941 -0.0998  0.3312 -0.0907
25105SOL    HW177694   0.180   1.963   5.999  0.4483 -1.0402  0.9560
25105SOL    HW277695   0.231   1.996   5.860 -1.5957  0.8044  0.5905
25106SOL     OW77696   9.169   9.240   8.028  0.6556  0.0825 -0.7205
25106SOL    HW177697   9.093   9.183   8.020 -1.1453  2.2458 -0.2052
25106SOL    HW277698   9.164   9.275   8.117  1.6416  1.0587 -1.0175
25107SOL     OW77699   0.513   9.476   0.967  0.2227 -0.2199 -0.2488
25107SOL    HW177700   0.505   9.433   0.882 -0.3456 -0.9682  0.1724
25107SOL    HW277701   0.607   9.492   0.977  0.3294 -0.4257 -0.8711
25108SOL     OW77702   3.632   2.762   8.442  0.3185  0.3802  0.6269
25108SOL    HW177703   3.699   2.820   8.406 -0.8088  1.0483 -0.4612
25108SOL    HW277704   3.622   2.693   8.376  0.8144 -0.4232  1.3698
25109SOL     OW77705   5.122   4.461   7.627 -0.0857  0.3161 -0.1758
25109SOL    HW177706   5.180   4.532   7.655  1.2034 -0.8443  0.2491
25109SOL    HW277707   5.102   4.412   7.707 -0.0847 -0.4014 -0.6023
25110SOL     OW77708   1.848   9.291   6.711 -0.5365  1.0018  0.1198
25110SOL    HW177709   1.760   9.327   6.728 -0.3163  0.8835  1.7218
25110SOL    HW277710   1.876   9.257   6.796  2.1552  3.4651  0.3776
25111SOL     OW77711   3.017  10.076   8.221 -0.1055  0.4816 -0.7268
25111SOL    HW177712   2.937  10.118   8.190  0.0383  1.1901 -0.1748
25111SOL    HW277713   3.021   9.994   8.173 -1.8843 -0.2300  0.2666
25112SOL     OW77714   0.842   5.817   8.064 -0.3103  0.0170 -0.2778
25112SOL    HW177715   0.788   5.762   8.008 -0.9783  0.0742  0.2843
25112SOL    HW277716   0.831   5.906   8.030 -2.1697  0.3299  0.9867
25113SOL     OW77717   6.986   3.313   4.084  0.2725 -0.3342  0.0327
25113SOL    HW177718   6.937   3.394   4.098 -0.6738 -0.8391 -0.2599
25113SOL    HW277719   7.078   3.341   4.077 -0.2133  1.0040 -2.1795
25114SOL     OW77720   8.191   1.361   8.889 -0.0574  0.1034  0.5506
25114SOL    HW177721   8.169   1.395   8.976  0.6372 -1.0321  1.2004
25114SOL    HW277722   8.257   1.294   8.906  0.2916  0.0517 -0.8906
25115SOL     OW77723   8.079   8.427   2.093 -0.6494 -0.2219 -0.1320
25115SOL    HW177724   8.040   8.446   2.008  0.9668  0.4554 -0.7742
25115SOL    HW277725   8.096   8.513   2.132 -1.1247 -0.5210  0.7698
25116SOL     OW77726   9.615   2.116   9.967  0.4217  0.2717  0.4182
25116SOL    HW177727   9.665   2.197   9.980  1.5013 -0.3919  0.5445
25116SOL    HW277728   9.677   2.057   9.926 -0.5352 -0.3108 -0.2096
25117SOL     OW77729   8.166   9.526   9.887 -0.5145  0.4369 -0.7848
25117SOL    HW177730   8.097   9.577   9.846  0.2188  0.5629 -1.9481
25117SOL    HW277731   8.125   9.482   9.961 -1.9996 -0.0385 -1.8598
25118SOL     OW77732   5.714   2.734   5.555 -0.2121  0.0164 -0.3275
25118SOL    HW177733   5.774   2.728   5.481 -0.8308 -0.9744 -0.7769
25118SOL    HW277734   5.634   2.773   5.517 -0.1213  0.6217  0.0932
25119SOL     OW77735   6.852   2.959   6.121 -0.1886 -0.1521  0.4109
25119SOL    HW177736   6.825   2.958   6.030  0.3877 -1.1489  0.2321
25119SOL    HW277737   6.943   2.928   6.120  0.1703  0.8200  1.2231
25120SOL     OW77738   9.543   0.543   9.303 -0.0705 -0.0715 -0.3147
25120SOL    HW177739   9.591   0.610   9.255  1.9316 -0.3636  1.1431
25120SOL    HW277740   9.569   0.460   9.261 -0.3947 -0.1409 -0.3822
25121SOL     OW77741   2.609   2.621   4.125  0.1707  0.2325  0.0719
25121SOL    HW177742   2.548   2.661   4.064 -0.2050  0.6860  0.7264
25121SOL    HW277743   2.669   2.692   4.149  1.1964 -0.3001 -0.8468
25122SOL     OW77744   8.026   6.769   1.134 -0.0070  0.1935 -0.4066
25122SOL    HW177745   8.015   6.848   1.187  2.5448  0.8898 -0.7962
25122SOL    HW277746   7.943   6.722   1.145  0.0698  0.6475  3.5278
25123SOL     OW77747   0.849   4.518   4.286  0.0535 -0.2413 -0.2376
25123SOL    HW177748   0.908   4.593   4.291  0.4397 -0.3659 -2.1513
25123SOL    HW277749   0.770   4.552   4.242 -0.6073 -0.4889  0.7299
25124SOL     OW77750   2.772   8.249   3.212 -0.1430 -0.1555 -0.3545
25124SOL    HW177751   2.788   8.322   3.152  1.0592  0.5335  0.7262
25124SOL    HW277752   2.838   8.261   3.281 -1.1995 -1.1338  0.8778
25125SOL     OW77753   2.359   3.347  10.750  0.3874  0.0572 -0.0050
25125SOL    HW177754   2.412   3.421  10.719  1.2420 -0.9522 -1.0102
25125SOL    HW277755   2.376   3.277  10.688  1.5822 -1.8362  2.2903
25126SOL     OW77756   8.655   3.903   6.743  0.0854  0.0297  0.3574
25126SOL    HW177757   8.633   3.820   6.700  0.4225  0.0307  0.1789
25126SOL    HW277758   8.597   3.967   6.702  1.6248  0.3676 -1.4179
25127SOL     OW77759   9.101   5.776   8.206 -0.7295 -0.2228 -0.5432
25127SOL    HW177760   9.041   5.847   8.184 -0.6828 -0.2800 -0.8595
25127SOL    HW277761   9.080   5.707   8.143 -0.3638 -0.2615 -0.6236
25128SOL     OW77762   6.545   5.431   7.619  0.1222 -0.2432 -0.2439
25128SOL    HW177763   6.559   5.338   7.632  0.8381 -0.0205  0.6888
25128SOL    HW277764   6.548   5.468   7.708  0.3987  0.7363 -0.6536
25129SOL     OW77765   0.755   0.844   2.681 -0.2336 -1.3443 -0.4825
25129SOL    HW177766   0.846   0.872   2.690 -0.3813 -1.1951  0.6457
25129SOL    HW277767   0.725   0.885   2.600  0.7949 -1.6684 -1.0418
25130SOL     OW77768   9.687   5.544   1.376  0.0298 -0.5533  0.5093
25130SOL    HW177769   9.608   5.585   1.410  0.5681 -1.2530  2.8456
25130SOL    HW277770   9.656   5.473   1.319 -1.0514 -0.9326  1.5382
25131SOL     OW77771   9.958   1.991   0.730  0.0355 -0.2552  0.5392
25131SOL    HW177772  10.007   2.072   0.738  0.8854 -0.8095  1.0731
25131SOL    HW277773   9.907   2.002   0.649  1.2093  0.2419 -0.1685
25132SOL     OW77774   3.860   8.155   0.021 -0.3446 -0.2612 -0.1882
25132SOL    HW177775   3.846   8.097  -0.054  0.0055 -0.3712 -0.1692
25132SOL    HW277776   3.873   8.242  -0.017 -0.6465 -0.2330 -0.2283
25133SOL     OW77777   4.763   3.671   8.043  0.0543 -0.6741 -0.5748
25133SOL    HW177778   4.755   3.724   7.964 -1.3274 -2.0323 -1.4067
25133SOL    HW277779   4.698   3.707   8.103 -1.1115 -1.5296 -1.2571
25134SOL     OW77780   1.356   6.781   5.179  0.1602 -0.4521 -0.4471
25134SOL    HW177781   1.420   6.756   5.246 -0.1644  0.6322  0.2803
25134SOL    HW277782   1.277   6.732   5.201  0.0387 -0.0576  0.0015
25135SOL     OW77783   0.818   4.780   9.479 -0.0442 -0.2829 -0.3294
25135SOL    HW177784   0.727   4.773   9.508  0.2894 -1.4868  0.4833
25135SOL    HW277785   0.823   4.724   9.402  0.2253 -0.9918  0.1940
25136SOL     OW77786  10.697  10.272   0.793 -0.1029  0.1023  0.3188
25136SOL    HW177787  10.708  10.219   0.872  1.3152  0.6055  0.4713
25136SOL    HW277788  10.761  10.237   0.731 -1.6802 -0.7744 -0.9218
25137SOL     OW77789   7.189   7.388   1.946  0.1440  0.4067 -0.4779
25137SOL    HW177790   7.161   7.478   1.958 -0.5122  0.0206  1.1302
25137SOL    HW277791   7.113   7.343   1.909 -0.5793 -0.0570  1.4020
25138SOL     OW77792   2.787   1.654  10.491 -0.1268 -0.3234  0.6500
25138SOL    HW177793   2.819   1.593  10.425  2.3342  0.0863  1.3687
25138SOL    HW277794   2.693   1.662  10.473  0.3967 -0.3857 -2.6552
25139SOL     OW77795   1.883   6.531   0.634 -0.1625  0.0370  0.4783
25139SOL    HW177796   1.870   6.507   0.543 -0.1172  0.5894  0.3251
25139SOL    HW277797   1.801   6.573   0.660 -0.5309 -0.9449  0.9696
25140SOL     OW77798   8.299   2.866   8.889  0.2012  0.4483  0.7027
25140SOL    HW177799   8.243   2.921   8.944 -0.4666  0.9507 -0.4464
25140SOL    HW277800   8.320   2.790   8.944 -0.4462  0.9243  1.6323
25141SOL     OW77801   4.782   8.329   3.080  0.0719  0.5485 -0.3699
25141SOL    HW177802   4.735   8.267   3.136 -0.1655  1.9378  1.0334
25141SOL    HW277803   4.717   8.360   3.017  0.7528 -2.3998 -2.8098
25142SOL     OW77804  10.760   3.097   9.088  0.9014  0.0253  0.3391
25142SOL    HW177805  10.787   3.018   9.136  2.8122  0.5799  0.2441
25142SOL    HW277806  10.751   3.068   8.997  2.2962  0.0408  0.1786
25143SOL     OW77807   5.979   6.467   1.323 -0.4108 -0.7768 -0.4286
25143SOL    HW177808   6.036   6.527   1.276 -0.5673 -0.1784  0.1241
25143SOL    HW277809   5.978   6.500   1.413 -1.0885 -1.1677 -0.2800
25144SOL     OW77810   5.391   9.833   5.327  0.7802 -0.1187  0.3348
25144SOL    HW177811   5.422   9.861   5.241 -0.2485 -1.2751 -0.4521
25144SOL    HW277812   5.384   9.737   5.319  0.6774 -0.2380  1.7158
25145SOL     OW77813   4.985   2.986   7.940  0.3276  0.3221  0.2356
25145SOL    HW177814   4.965   2.912   7.999 -0.4477 -0.5037 -1.0186
25145SOL    HW277815   4.957   2.956   7.854  0.5490  1.8795 -0.4068
25146SOL     OW77816   2.618   9.823   1.473  0.5060 -0.6234  0.0798
25146SOL    HW177817   2.525   9.801   1.480  0.6376 -0.8949  1.2270
25146SOL    HW277818   2.664   9.741   1.489  0.9506 -0.3442  0.2775
25147SOL     OW77819   6.779   2.369  10.737 -0.2297 -0.3410  0.1244
25147SOL    HW177820   6.831   2.449  10.748  0.9404 -0.9221 -0.8673
25147SOL    HW277821   6.837   2.310  10.688 -1.2014 -1.6617  0.5079
25148SOL     OW77822   9.351   0.813   3.159 -0.1881 -0.0226 -0.1554
25148SOL    HW177823   9.384   0.731   3.121  2.8566  0.6894  0.6692
25148SOL    HW277824   9.343   0.872   3.084  0.0017 -0.3780 -0.4617
25149SOL     OW77825   0.065   7.769   7.752 -0.5035  0.1282 -1.0352
25149SOL    HW177826   0.061   7.854   7.796 -1.1962  1.2322 -3.0981
25149SOL    HW277827   0.143   7.774   7.696  0.4188 -1.2820  0.0201
25150SOL     OW77828   6.881   8.224   7.303  0.1151  0.4947  0.4754
25150SOL    HW177829   6.820   8.150   7.303  1.7856 -0.9455  0.9337
25150SOL    HW277830   6.882   8.254   7.212 -1.7767  1.0186  0.5852
25151SOL     OW77831   3.998   0.080   9.341 -0.6126  0.1818  0.0952
25151SOL    HW177832   3.992   0.010   9.406 -0.7734 -2.1257 -2.2588
25151SOL    HW277833   4.090   0.104   9.340 -0.5185 -0.1188  0.7870
25152SOL     OW77834   1.643   7.162   7.611  0.1469 -0.0415 -0.4860
25152SOL    HW177835   1.655   7.194   7.701 -0.6388  0.5307 -0.5788
25152SOL    HW277836   1.719   7.198   7.564 -0.8099  1.9610 -0.6369
25153SOL     OW77837   2.803   7.616   7.308 -0.3504 -0.0825 -0.2174
25153SOL    HW177838   2.832   7.617   7.399 -2.9924  0.6908  0.7256
25153SOL    HW277839   2.838   7.535   7.272  1.7593  0.1804  1.0956
25154SOL     OW77840   1.406  10.357   3.755 -0.0120 -0.0936  0.4494
25154SOL    HW177841   1.424  10.344   3.662  0.6897  0.2232  0.5274
25154SOL    HW277842   1.325  10.310   3.772  0.7244 -1.5653  0.0367
25155SOL     OW77843   4.929   7.785   4.912 -0.1694  0.6336 -0.1419
25155SOL    HW177844   4.910   7.824   4.997 -2.8313  1.1758 -0.9138
25155SOL    HW277845   4.987   7.848   4.869  0.9023  0.5207  1.0799
25156SOL     OW77846   9.079   9.286   3.592 -0.4910 -0.2409  0.0045
25156SOL    HW177847   9.007   9.317   3.647  0.2238 -0.6219  1.1847
25156SOL    HW277848   9.058   9.319   3.505 -1.8046  0.1296  0.4344
25157SOL     OW77849   7.605  10.148  10.402  0.1894 -0.0593 -0.1233
25157SOL    HW177850   7.654  10.119  10.326 -0.6741  0.1053 -0.7622
25157SOL    HW277851   7.667  10.201  10.453  1.1581 -1.2499 -0.0231
25158SOL     OW77852   5.396  10.323   7.165 -0.2421  0.1265 -0.4387
25158SOL    HW177853   5.432  10.359   7.085  1.5581  1.6615  0.9816
25158SOL    HW277854   5.472  10.308   7.221 -1.2912 -2.3219  0.4894
25159SOL     OW77855   8.218   9.988  10.160 -0.5748  0.1595 -0.5641
25159SOL    HW177856   8.309   9.997  10.134 -1.0380  1.0835 -1.9642
25159SOL    HW277857   8.216  10.016  10.252  0.3689  1.1424 -0.8341
25160SOL     OW77858   8.065   7.829  10.506  1.0140 -0.1561 -0.0001
25160SOL    HW177859   8.070   7.924  10.496  2.0849 -0.0806  0.9727
25160SOL    HW277860   8.137   7.796  10.453  1.4985 -0.3106  0.7308
25161SOL     OW77861   1.873   9.704   0.540 -0.5887 -0.1669 -0.1638
25161SOL    HW177862   1.869   9.713   0.635  2.5260 -1.2474  0.1681
25161SOL    HW277863   1.795   9.653   0.518 -0.7682 -0.9434  1.9927
25162SOL     OW77864   0.923   0.398   1.014  0.2821  0.2360 -0.1168
25162SOL    HW177865   0.955   0.415   0.926 -0.4217  1.9798 -0.0747
25162SOL    HW277866   0.963   0.467   1.068  0.2374 -0.4528  0.8358
25163SOL     OW77867   3.535   5.210   9.231  0.4343 -0.1390 -0.1063
25163SOL    HW177868   3.622   5.230   9.197 -0.1767 -0.4058 -1.9333
25163SOL    HW277869   3.481   5.283   9.202  0.6327  2.0402  4.1261
25164SOL     OW77870   1.068   1.755   9.696 -0.3960  0.2827 -0.4584
25164SOL    HW177871   1.085   1.661   9.707  0.4327  0.3875 -0.7706
25164SOL    HW277872   1.057   1.767   9.602 -1.5489  0.3435 -0.3331
25165SOL     OW77873   1.783   2.158   7.580 -0.2940  0.2242  0.0487
25165SOL    HW177874   1.861   2.134   7.529 -2.3254  0.5654 -3.5431
25165SOL    HW277875   1.733   2.077   7.586 -0.4739  0.3884  0.8473
25166SOL     OW77876   6.106   6.842   3.815  0.3057  0.3995  0.4270
25166SOL    HW177877   6.035   6.809   3.759  0.7677  0.8395 -0.4448
25166SOL    HW277878   6.144   6.763   3.855 -0.1550  0.0933  0.2722
25167SOL     OW77879   3.246   1.017   2.541 -0.2070  0.3148  0.3693
25167SOL    HW177880   3.199   0.952   2.489  0.5190 -0.1870  0.3269
25167SOL    HW277881   3.220   0.998   2.631 -1.5134  1.2250  0.2142
25168SOL     OW77882   3.364   8.207   3.008 -0.3038 -0.0017 -0.2897
25168SOL    HW177883   3.444   8.201   2.955  0.5027  2.6350  0.4490
25168SOL    HW277884   3.392   8.186   3.097  0.3796  3.6001  0.5105
25169SOL     OW77885   6.808   1.918   8.440 -0.5977  0.2293 -0.5265
25169SOL    HW177886   6.819   1.880   8.353  0.5250 -0.1052 -0.2599
25169SOL    HW277887   6.767   2.003   8.425 -3.8149 -1.2821 -1.1026
25170SOL     OW77888   3.741   5.971   5.694  0.2512 -0.2579 -0.4254
25170SOL    HW177889   3.785   5.913   5.756  0.4791  0.0708 -0.2784
25170SOL    HW277890   3.774   6.059   5.714 -0.9793  0.1009  0.1625
25171SOL     OW77891   8.170   4.242   3.911  0.2159  0.4655 -0.1884
25171SOL    HW177892   8.109   4.268   3.842  0.6370  1.4661 -0.2009
25171SOL    HW277893   8.250   4.218   3.863  0.1581  0.1328 -0.1152
25172SOL     OW77894   7.017  10.132   2.716  0.0571  0.2258 -0.0693
25172SOL    HW177895   6.931  10.090   2.723  0.6230 -0.7780  1.6906
25172SOL    HW277896   7.079  10.058   2.712  0.9696  0.8876  1.2122
25173SOL     OW77897   3.555   4.707   7.468 -0.2094 -0.5386  0.0727
25173SOL    HW177898   3.550   4.666   7.554 -1.2794  0.1804  0.3735
25173SOL    HW277899   3.642   4.686   7.436  0.3861 -0.4031  1.5443
25174SOL     OW77900   6.658   5.980   6.937  0.0235  0.0125  0.0902
25174SOL    HW177901   6.745   5.989   6.977  0.4093 -2.0502 -0.1848
25174SOL    HW277902   6.651   5.887   6.915 -2.7735 -0.1662  1.2702
25175SOL     OW77903   3.725   2.897   5.668  0.0985  0.2055 -0.3575
25175SOL    HW177904   3.779   2.828   5.630 -0.2052  0.0686 -0.5414
25175SOL    HW277905   3.678   2.854   5.739 -2.3441 -0.5620 -2.2932
25176SOL     OW77906   0.405   6.865   0.315  0.1492 -0.0359 -0.0764
25176SOL    HW177907   0.350   6.841   0.241 -0.3283  0.5997  0.0617
25176SOL    HW277908   0.348   6.917   0.372  0.3259 -1.0274  1.0508
25177SOL     OW77909   0.120   6.708   5.715 -0.0867 -0.1181 -0.5250
25177SOL    HW177910   0.085   6.796   5.730  2.3949  1.0558 -1.0394
25177SOL    HW277911   0.188   6.721   5.649  0.9657 -2.2899  0.0559
25178SOL     OW77912  10.797   7.694   6.969  0.0882 -0.4897 -1.0897
25178SOL    HW177913  10.885   7.715   7.001 -0.0410 -0.2257 -0.8983
25178SOL    HW277914  10.766   7.776   6.930 -0.0608 -0.5891 -1.1799
25179SOL     OW77915   5.463  10.197   2.977 -0.2521 -0.2018  0.1410
25179SOL    HW177916   5.416  10.124   3.016 -1.7082  1.1169  0.9794
25179SOL    HW277917   5.421  10.275   3.014  0.1987  1.0907 -1.9086
25180SOL     OW77918   2.578   9.987   0.841 -0.6569  0.6128  0.8109
25180SOL    HW177919   2.530   9.976   0.759 -0.5174  1.7931  0.5536
25180SOL    HW277920   2.581  10.081   0.854 -1.0882  0.4164  2.4318
25181SOL     OW77921   4.736   4.915   1.644  0.7465  0.3991  0.1498
25181SOL    HW177922   4.647   4.919   1.610  0.1863 -1.2886  1.2989
25181SOL    HW277923   4.791   4.924   1.567 -0.3414  2.6151 -0.4690
25182SOL     OW77924   7.535  10.129   7.757  0.7700 -0.3173  0.4218
25182SOL    HW177925   7.511  10.048   7.802  1.4128  1.2883  4.0367
25182SOL    HW277926   7.629  10.138   7.773  0.8554  0.7910 -0.5802
25183SOL     OW77927   2.064   3.033   5.436  0.2059  0.0431  0.4589
25183SOL    HW177928   2.024   3.069   5.516  0.1084 -0.4886  0.6521
25183SOL    HW277929   2.078   2.941   5.456  1.6926  0.2459  0.4506
25184SOL     OW77930   1.261   8.790   0.734 -0.0130  0.3861 -0.5280
25184SOL    HW177931   1.303   8.788   0.648 -0.3018 -0.2754 -0.6620
25184SOL    HW277932   1.172   8.820   0.716 -1.3426 -3.3894 -1.0699
25185SOL     OW77933   1.909   1.388   6.160  0.0596  0.1750 -0.9603
25185SOL    HW177934   1.982   1.364   6.217  0.2115 -1.1686 -1.6849
25185SOL    HW277935   1.917   1.329   6.085 -0.5315  1.4460 -2.0600
25186SOL     OW77936   9.280   7.585   7.224 -0.4215 -0.0807  0.7640
25186SOL    HW177937   9.185   7.597   7.221 -0.4769 -0.4965 -2.2373
25186SOL    HW277938   9.309   7.609   7.136  2.0498 -1.5785  1.0989
25187SOL     OW77939   9.210  10.610   8.149 -0.0181  0.0354 -0.2538
25187SOL    HW177940   9.195  10.543   8.216 -0.6614  1.0541  0.6628
25187SOL    HW277941   9.136  10.670   8.158 -1.0912 -0.7189 -3.0889
25188SOL     OW77942   9.980   6.377   7.417 -0.0808  0.5430 -0.1770
25188SOL    HW177943  10.033   6.427   7.479 -0.3669  0.9021 -0.2182
25188SOL    HW277944   9.984   6.287   7.450 -1.3342  0.9334  1.1606
25189SOL     OW77945   1.911   5.529   1.217 -0.6343  0.1038 -0.3028
25189SOL    HW177946   1.916   5.623   1.197 -0.5444 -0.0772 -1.1977
25189SOL    HW277947   1.999   5.506   1.247 -0.0027 -0.1140 -2.1511
25190SOL     OW77948   5.214   9.776   0.256 -0.2201 -0.0817  0.1781
25190SOL    HW177949   5.290   9.739   0.302  0.6451  1.4001  0.0134
25190SOL    HW277950   5.175   9.837   0.319  1.2270  2.2884 -1.0776
25191SOL     OW77951   9.793   6.913   4.331 -0.0839 -0.1083  0.1808
25191SOL    HW177952   9.715   6.858   4.323  1.5206 -2.2489 -2.5562
25191SOL    HW277953   9.835   6.883   4.412 -0.5305 -1.1650  0.0363
25192SOL     OW77954   4.906  10.128   2.831  0.3581 -0.0445 -0.2567
25192SOL    HW177955   4.945  10.166   2.909 -0.0266  1.4038 -0.7485
25192SOL    HW277956   4.823  10.090   2.860 -0.1389  1.1472 -0.0849
25193SOL     OW77957   4.743   7.498   2.918 -0.7139 -0.0568 -0.2609
25193SOL    HW177958   4.739   7.586   2.956 -1.6439 -0.3561  0.3745
25193SOL    HW277959   4.835   7.485   2.897 -0.6421  1.2714 -0.8512
25194SOL     OW77960   0.296   4.835   8.294  0.2878 -0.1952 -0.1808
25194SOL    HW177961   0.269   4.755   8.339  1.1752  0.0034  0.7292
25194SOL    HW277962   0.391   4.828   8.287  0.1866 -0.2449 -2.1098
25195SOL     OW77963   7.955   9.730   9.804  0.4287 -0.3910 -0.1714
25195SOL    HW177964   7.964   9.742   9.898  1.8511 -3.0443  0.1161
25195SOL    HW277965   7.962   9.819   9.768  2.2792  0.4833  2.0749
25196SOL     OW77966   8.818   5.392   2.888  0.1581  0.1575 -0.0491
25196SOL    HW177967   8.896   5.352   2.925  0.4049 -0.1904 -0.9249
25196SOL    HW277968   8.851   5.466   2.837  0.1171 -0.9621 -1.7993
25197SOL     OW77969   9.835   2.679   0.667 -0.0693  0.5857 -0.1382
25197SOL    HW177970   9.774   2.642   0.604 -0.7121 -0.4579  1.0576
25197SOL    HW277971   9.920   2.642   0.643 -0.4741 -0.5752  0.1827
25198SOL     OW77972   3.937   1.588   2.942  0.1119  0.3766 -0.3632
25198SOL    HW177973   3.856   1.552   2.904 -0.9705  2.9170 -0.6464
25198SOL    HW277974   3.912   1.614   3.031  0.9756  0.1246 -0.0341
25199SOL     OW77975   7.750   0.810   3.486  0.1843 -0.1782 -0.2402
25199SOL    HW177976   7.748   0.801   3.391  0.9114  0.0176 -0.2840
25199SOL    HW277977   7.758   0.904   3.501 -0.4296 -0.1647  0.0322
25200SOL     OW77978   1.995   3.492   4.934 -0.0285  0.3437  0.1020
25200SOL    HW177979   2.060   3.514   5.001  0.8696  0.3360 -0.7384
25200SOL    HW277980   1.990   3.571   4.880 -0.4753  0.2229 -0.0325
25201SOL     OW77981   7.085  10.284   1.484  0.0304  0.6229 -0.0052
25201SOL    HW177982   7.159  10.282   1.424  1.1525  0.5641  1.3151
25201SOL    HW277983   7.056  10.193   1.489  1.7282  0.1139  1.6118
25202SOL     OW77984   7.512   2.330   4.011 -0.0058 -0.0818 -0.4918
25202SOL    HW177985   7.496   2.251   3.960  1.2069 -0.0702 -0.9137
25202SOL    HW277986   7.451   2.324   4.085 -1.1875 -0.5140 -1.4706
25203SOL     OW77987   9.785   2.087   3.022 -0.2177  0.0950 -0.0050
25203SOL    HW177988   9.728   2.152   2.981 -0.5341 -0.4387 -0.4114
25203SOL    HW277989   9.733   2.050   3.094 -0.1876 -0.0137 -0.0396
25204SOL     OW77990  10.118   0.492   1.499 -0.6264 -0.1589  0.4685
25204SOL    HW177991  10.152   0.580   1.515 -1.1458  0.2989 -0.7665
25204SOL    HW277992  10.035   0.507   1.453 -0.9388 -1.2902  0.6398
25205SOL     OW77993   3.525   7.992   0.103 -0.0630  0.1443  0.0214
25205SOL    HW177994   3.595   8.014   0.165 -0.3006 -1.2096  0.8014
25205SOL    HW277995   3.449   8.042   0.135  0.3776  1.1536 -0.4806
25206SOL     OW77996  10.183   3.142   4.224  0.0636  0.3572  0.1042
25206SOL    HW177997  10.167   3.069   4.164 -0.1120  1.0315 -0.6733
25206SOL    HW277998  10.173   3.220   4.171  0.5795  0.9512  0.8599
25207SOL     OW77999   4.810   9.980   6.556  0.0880 -0.2016 -0.2530
25207SOL    HW178000   4.762  10.063   6.557  0.2048 -0.1043  1.8825
25207SOL    HW278001   4.899  10.004   6.583  0.6603 -0.7674 -1.5714
25208SOL     OW78002   8.544   1.860   2.006 -0.3896  0.5690  0.1728
25208SOL    HW178003   8.513   1.822   2.088  0.1799  0.8711  0.5365
25208SOL    HW278004   8.465   1.891   1.962 -0.8211 -0.6613  0.0561
25209SOL     OW78005  10.355   0.954  10.552 -0.0986  0.4407  0.2912
25209SOL    HW178006  10.307   0.938  10.633  0.6241  0.6268  0.7660
25209SOL    HW278007  10.321   1.037  10.519 -0.9926 -0.0540 -0.0453
25210SOL     OW78008   6.771   5.966   4.566  0.3495  0.5206  0.5368
25210SOL    HW178009   6.703   5.952   4.632  0.8042  1.8888  1.3240
25210SOL    HW278010   6.843   6.006   4.613  1.5608 -0.4878 -0.3867
25211SOL     OW78011   1.608   5.958   4.810  0.9329  0.4156  0.1147
25211SOL    HW178012   1.615   6.001   4.896 -1.5631  2.9760 -0.7885
25211SOL    HW278013   1.660   6.014   4.752  0.7988 -0.0184 -0.4278
25212SOL     OW78014   3.059   9.165   2.420 -0.4068  0.1580 -0.1914
25212SOL    HW178015   3.052   9.117   2.503  1.9074 -1.4306 -0.8145
25212SOL    HW278016   3.009   9.111   2.358 -0.9053  0.5729 -0.1627
25213SOL     OW78017   4.020   5.056  10.092 -0.1021 -0.3945 -0.1468
25213SOL    HW178018   3.992   5.067  10.001  0.6172  0.1841 -0.3114
25213SOL    HW278019   3.943   5.077  10.144 -0.3283 -0.0656 -0.6061
25214SOL     OW78020   6.142   3.519   3.257 -0.0227  0.2518  0.6839
25214SOL    HW178021   6.115   3.434   3.223  2.0096 -0.2174  0.0728
25214SOL    HW278022   6.230   3.532   3.220  0.0235  2.2514  1.4080
25215SOL     OW78023   6.551  10.069   0.441  0.1169  0.4703 -0.3044
25215SOL    HW178024   6.625  10.015   0.413 -0.1726  0.2722 -0.6855
25215SOL    HW278025   6.473  10.018   0.420 -0.1633  1.0565 -0.7330
25216SOL     OW78026   5.315   9.967   1.539 -0.2844 -0.4607 -0.3263
25216SOL    HW178027   5.220   9.958   1.530 -0.1052 -2.0510 -0.8238
25216SOL    HW278028   5.325  10.042   1.598 -1.9425 -2.1221  2.3238
25217SOL     OW78029   2.558   0.408   0.939 -0.1979 -0.2683  0.1650
25217SOL    HW178030   2.477   0.371   0.905 -0.5766 -1.2494  2.0309
25217SOL    HW278031   2.620   0.335   0.939  0.5078  0.3129 -0.6313
25218SOL     OW78032  10.499   7.235   8.755 -0.1835  0.2478  0.5825
25218SOL    HW178033  10.453   7.309   8.796 -1.9544 -0.8390  0.6642
25218SOL    HW278034  10.529   7.182   8.828  1.7890  1.2121  0.5504
25219SOL     OW78035   4.048   6.612   9.205  0.0389 -0.7611 -0.2639
25219SOL    HW178036   4.059   6.607   9.110 -0.7333 -1.3258 -0.3343
25219SOL    HW278037   4.074   6.701   9.228 -1.0616 -0.1612 -1.1946
25220SOL     OW78038   6.782   4.364   7.367  0.0145  0.0509 -0.0224
25220SOL    HW178039   6.866   4.408   7.380 -0.6455  1.2526  0.3709
25220SOL    HW278040   6.731   4.388   7.444 -0.3177 -1.6000  0.3045
25221SOL     OW78041  10.278  10.134   7.652 -0.1622  0.6377 -0.3594
25221SOL    HW178042  10.214  10.122   7.721 -0.0816  2.0798  0.0065
25221SOL    HW278043  10.233  10.109   7.571 -0.6467  0.1086  0.0718
25222SOL     OW78044   2.073   0.689   0.654  0.3562 -0.0105  0.2663
25222SOL    HW178045   2.119   0.762   0.696  0.1475  0.0053  0.4684
25222SOL    HW278046   2.003   0.667   0.715 -0.0450  0.1130 -0.1497
25223SOL     OW78047   8.523   9.217   6.828  0.1014  0.4356  0.1952
25223SOL    HW178048   8.542   9.157   6.900  0.5371 -0.0159 -0.2839
25223SOL    HW278049   8.587   9.193   6.761  0.9196  2.0704  0.3544
25224SOL     OW78050   9.497   2.895   8.669  0.3280 -0.4154  0.1245
25224SOL    HW178051   9.557   2.887   8.743 -1.9583  0.5525  2.2426
25224SOL    HW278052   9.483   2.990   8.659  1.5265 -0.4096 -2.4638
25225SOL     OW78053   0.723   0.959   7.805  0.1602  0.1627 -0.4628
25225SOL    HW178054   0.739   0.865   7.798 -0.1814 -0.1531  1.9394
25225SOL    HW278055   0.772   0.986   7.882 -2.4509  1.2110  0.9694
25226SOL     OW78056   3.709   5.085   5.372  0.0453  0.1582  0.4789
25226SOL    HW178057   3.776   5.017   5.383 -0.8930 -1.2680 -1.8199
25226SOL    HW278058   3.674   5.070   5.284 -1.9411  2.0861  0.8559
25227SOL     OW78059  10.598   1.083  10.632 -0.7088  0.0975  0.3563
25227SOL    HW178060  10.522   1.025  10.619 -0.2124 -0.5354  0.2072
25227SOL    HW278061  10.631   1.099  10.543 -1.7183  1.8595  0.2399
25228SOL     OW78062   1.020  10.375   2.805  0.1309  0.1046 -0.4017
25228SOL    HW178063   1.009  10.470   2.803 -2.8489 -0.1079  0.6792
25228SOL    HW278064   0.965  10.343   2.734  0.1860 -0.8535 -0.0213
25229SOL     OW78065   4.558  10.028   5.553  0.0174  0.2691  0.3698
25229SOL    HW178066   4.529  10.115   5.527 -1.0309 -0.5001 -1.1742
25229SOL    HW278067   4.611  10.043   5.631  1.9064  2.5604 -1.2011
25230SOL     OW78068   1.988   0.457  10.750  0.0791 -0.0505  0.2714
25230SOL    HW178069   2.007   0.369  10.782 -0.8055 -0.5480 -0.5426
25230SOL    HW278070   2.037   0.515  10.810 -0.8039 -0.9742  1.9608
25231SOL     OW78071  10.273   6.074   0.588  1.0941 -0.6637 -0.3145
25231SOL    HW178072  10.254   6.128   0.665  3.7682 -2.0505  1.4489
25231SOL    HW278073  10.289   6.137   0.518  0.6753  0.7015  0.7691
25232SOL     OW78074   5.233   6.514   5.070 -0.0066 -0.3245 -0.0849
25232SOL    HW178075   5.311   6.550   5.028  0.9970 -1.3407  0.8392
25232SOL    HW278076   5.190   6.463   5.002 -0.0793  0.5402 -0.7026
25233SOL     OW78077   1.288   6.540   2.003  0.2172 -0.8577  0.1997
25233SOL    HW178078   1.333   6.462   2.037  1.2936 -0.0899  0.6106
25233SOL    HW278079   1.195   6.525   2.022  0.4447 -1.9028  0.5368
25234SOL     OW78080   7.148  10.043   3.076  0.2361 -0.0714  0.1367
25234SOL    HW178081   7.230  10.028   3.123  1.4551  2.1165 -1.0904
25234SOL    HW278082   7.132  10.137   3.086 -2.1460 -0.4387  0.3167
25235SOL     OW78083   7.633   4.679   1.141 -0.0994 -0.2641  0.2334
25235SOL    HW178084   7.640   4.773   1.124 -1.3269 -0.1851  0.0657
25235SOL    HW278085   7.665   4.638   1.061  0.3143  0.0027  0.2546
25236SOL     OW78086   5.519   0.919  10.065 -0.4711 -0.3847  0.0760
25236SOL    HW178087   5.613   0.920  10.085 -0.6271 -0.2607  0.8340
25236SOL    HW278088   5.497   1.010  10.047 -0.3329 -0.4950 -0.6734
25237SOL     OW78089   3.996   2.930   2.931  0.2536  0.1602  0.0972
25237SOL    HW178090   3.927   2.984   2.969  0.0881 -1.4843  2.3356
25237SOL    HW278091   4.022   2.976   2.852 -2.6850  1.3776 -0.2830
25238SOL     OW78092   7.316   9.266   8.068  0.2726 -0.1715  0.1067
25238SOL    HW178093   7.396   9.317   8.056  0.5637 -0.4720  0.7207
25238SOL    HW278094   7.345   9.184   8.107 -0.0602 -1.2905 -1.9196
25239SOL     OW78095   8.344   1.569   9.347  0.1372 -0.1334  0.2930
25239SOL    HW178096   8.314   1.568   9.438  3.0578 -0.2581  1.3516
25239SOL    HW278097   8.375   1.658   9.332 -0.0886 -0.1799 -0.4992
25240SOL     OW78098  10.016   4.426   9.124 -0.1199  0.6775 -0.7161
25240SOL    HW178099  10.000   4.337   9.155 -2.3818  1.5076  0.7980
25240SOL    HW278100  10.051   4.472   9.201  0.7096  1.1969 -1.3869
25241SOL     OW78101   3.893   6.607   3.709  0.1804  0.3436 -0.2671
25241SOL    HW178102   3.873   6.630   3.618  0.6122 -2.2890 -1.1082
25241SOL    HW278103   3.816   6.636   3.758 -1.5552 -1.0432 -1.9934
25242SOL     OW78104   4.888   8.814   5.021 -0.3996 -0.3924 -0.2338
25242SOL    HW178105   4.940   8.890   5.048 -0.2306 -1.1518  1.7630
25242SOL    HW278106   4.826   8.802   5.092  0.1296 -2.6083 -0.0915
25243SOL     OW78107   2.906   4.570   2.868  0.0914 -0.2321  0.1171
25243SOL    HW178108   2.990   4.550   2.826  0.2916  0.3730  0.2192
25243SOL    HW278109   2.854   4.490   2.858  0.2434 -0.2081 -1.0192
25244SOL     OW78110   3.096   7.760   4.716 -0.3718  0.6080 -0.1736
25244SOL    HW178111   3.082   7.854   4.705 -0.9229  0.8654  2.1606
25244SOL    HW278112   3.165   7.753   4.782 -1.2498 -0.5927  0.6704
25245SOL     OW78113   1.898   5.138   1.427  0.3999 -0.1099 -0.2610
25245SOL    HW178114   1.831   5.200   1.456  0.4516  0.4132 -1.2199
25245SOL    HW278115   1.849   5.069   1.383  0.4389 -0.0645 -0.3769
25246SOL     OW78116   0.724   8.259   2.046  0.3871  0.0530 -0.8915
25246SOL    HW178117   0.748   8.325   1.982  1.9773 -0.7266 -1.1476
25246SOL    HW278118   0.632   8.277   2.066  0.6353  2.0168 -1.3058
25247SOL     OW78119   5.914   4.613  10.367 -0.1013  0.3922  0.2257
25247SOL    HW178120   5.877   4.691  10.408 -0.3786  1.1190 -1.3336
25247SOL    HW278121   5.843   4.576  10.315  0.2903 -0.3844  0.2221
25248SOL     OW78122   3.229   4.978   4.894  0.2757 -0.6040  0.7257
25248SOL    HW178123   3.202   5.002   4.805 -2.9336  0.0238  1.7594
25248SOL    HW278124   3.325   4.973   4.889  0.1535 -2.0499 -3.0742
25249SOL     OW78125   6.709   7.792   7.441 -0.1989  0.5578  0.0597
25249SOL    HW178126   6.624   7.783   7.485 -0.8305 -0.4635 -1.2938
25249SOL    HW278127   6.687   7.818   7.352  0.6968 -2.0606 -1.0195
25250SOL     OW78128   8.541   3.005   3.467 -0.4549  0.2476  0.8206
25250SOL    HW178129   8.555   2.912   3.451 -1.4848  0.0877  0.7632
25250SOL    HW278130   8.626   3.038   3.495 -0.4373 -1.0493  2.4512
25251SOL     OW78131   4.557   3.123   1.094 -0.0204  0.1610 -0.3197
25251SOL    HW178132   4.550   3.108   1.189 -1.7170  2.7013  0.0425
25251SOL    HW278133   4.591   3.040   1.060  1.7392 -0.4899  2.6057
25252SOL     OW78134   3.735   8.139   3.700  0.4370  0.2115 -0.1508
25252SOL    HW178135   3.652   8.148   3.747  0.5769 -1.3324  0.4586
25252SOL    HW278136   3.752   8.226   3.663 -0.1347  1.2602  1.9102
25253SOL     OW78137   6.622   1.067   8.658  0.1072 -0.1001  0.2367
25253SOL    HW178138   6.578   0.982   8.653 -1.5570  0.7244  0.0225
25253SOL    HW278139   6.551   1.130   8.649  1.4275  1.3197 -0.5807
25254SOL     OW78140   9.733  10.447   5.620 -0.0055 -0.1558 -0.1147
25254SOL    HW178141   9.756  10.408   5.704 -1.2442 -2.1371 -0.6088
25254SOL    HW278142   9.793  10.404   5.557  1.7349  2.1780 -0.1689
25255SOL     OW78143   0.450   7.647   5.819 -0.1477 -0.4788  0.5974
25255SOL    HW178144   0.359   7.646   5.790  0.3962 -0.0855 -1.3358
25255SOL    HW278145   0.479   7.737   5.800  0.1819 -0.0359  2.8933
25256SOL     OW78146   2.455   9.701   1.701 -0.2341  0.3421  0.2941
25256SOL    HW178147   2.443   9.767   1.769  0.0801 -1.2009  1.9427
25256SOL    HW278148   2.504   9.631   1.744  3.2247  0.7419 -2.4736
25257SOL     OW78149   7.802   6.431   5.551  0.2610  0.5096  0.2750
25257SOL    HW178150   7.816   6.372   5.477 -0.8646 -1.1793  1.3043
25257SOL    HW278151   7.890   6.451   5.583  0.7253 -2.1125  0.9328
25258SOL     OW78152   6.743   6.350   8.551  0.3435 -0.0756  0.9264
25258SOL    HW178153   6.695   6.428   8.525 -0.0426 -0.4204  0.5898
25258SOL    HW278154   6.733   6.346   8.646  1.5917  1.0799  1.1440
25259SOL     OW78155   0.963   3.124   2.583  0.6513  0.3489  0.2692
25259SOL    HW178156   1.037   3.065   2.569  0.6554  0.2469  0.6861
25259SOL    HW278157   0.953   3.126   2.678  1.3072  1.8140  0.3347
25260SOL     OW78158  10.368   5.445   7.566  0.0928 -0.0078  0.0436
25260SOL    HW178159  10.396   5.385   7.496 -1.2512 -1.8527  0.9897
25260SOL    HW278160  10.449   5.467   7.611  0.7141 -0.6037 -0.7379
25261SOL     OW78161   9.599   7.491   2.161  0.2551  0.3655 -0.2413
25261SOL    HW178162   9.538   7.425   2.126  0.9815 -0.7466  0.5307
25261SOL    HW278163   9.572   7.572   2.118  0.3575 -0.7004 -2.5029
25262SOL     OW78164   4.376   4.614  10.505  0.2650 -0.9093 -0.2659
25262SOL    HW178165   4.373   4.527  10.546 -0.4653 -0.5567  0.4478
25262SOL    HW278166   4.294   4.620  10.455 -0.3373 -0.1269  0.7715
25263SOL     OW78167   3.975   1.117   5.913  0.5443  0.3533 -0.2691
25263SOL    HW178168   4.040   1.160   5.856  1.0068 -1.3473 -1.0940
25263SOL    HW278169   3.928   1.190   5.954 -0.6134  1.7335 -3.6850
25264SOL     OW78170   5.492  10.273  10.024  0.2601  0.9267 -0.8879
25264SOL    HW178171   5.476  10.327  10.102  1.7497 -0.3849  0.4121
25264SOL    HW278172   5.586  10.278  10.011  0.5753 -1.8023 -0.2989
25265SOL     OW78173   5.473   1.427   7.358  0.3031  0.4442 -0.0351
25265SOL    HW178174   5.399   1.461   7.309 -1.3362  1.1705  2.7463
25265SOL    HW278175   5.470   1.332   7.343 -1.7005  0.3617  0.6346
25266SOL     OW78176   8.821   8.773   5.491 -0.2482  0.1137  0.2571
25266SOL    HW178177   8.892   8.815   5.539  1.9327 -2.7521 -0.1993
25266SOL    HW278178   8.768   8.730   5.558 -0.9413  1.3395  0.5155
25267SOL     OW78179   4.584   5.275   0.988 -0.3754 -0.0116 -0.1123
25267SOL    HW178180   4.621   5.294   1.074  1.0852  1.2310 -0.9488
25267SOL    HW278181   4.507   5.332   0.982  0.0609  0.6019  0.0247
25268SOL     OW78182   2.509   4.142   6.478 -0.1773 -0.3474  0.2050
25268SOL    HW178183   2.445   4.192   6.426  0.5005 -0.3476 -0.6650
25268SOL    HW278184   2.555   4.208   6.530  0.5486 -0.0626 -0.7615
25269SOL     OW78185   6.606   0.632  10.668 -0.1812 -0.6759 -0.2258
25269SOL    HW178186   6.643   0.646  10.755 -1.4418 -2.3542  0.6404
25269SOL    HW278187   6.553   0.709  10.650  2.0412  0.8411 -0.6299
25270SOL     OW78188   6.423   2.890   2.496 -0.3787  0.5057 -0.1772
25270SOL    HW178189   6.481   2.936   2.557  0.4035  0.8272 -1.1241
25270SOL    HW278190   6.435   2.798   2.516 -0.4358  0.6257  0.4174
25271SOL     OW78191   3.271   6.395   1.932 -0.3258 -0.1234  0.0347
25271SOL    HW178192   3.219   6.476   1.933 -1.8940 -1.0613  2.1631
25271SOL    HW278193   3.341   6.411   1.995 -0.1157 -0.1364 -0.1923
25272SOL     OW78194   6.427   6.100   1.979  0.3992 -0.5556 -0.0437
25272SOL    HW178195   6.422   6.175   1.920 -0.9264  0.6704  1.5284
25272SOL    HW278196   6.521   6.090   1.996  0.5898  1.0139  0.0173
25273SOL     OW78197   1.064   1.493  10.555 -0.0498 -0.3557  0.3751
25273SOL    HW178198   1.141   1.464  10.505 -0.3877  1.1783 -1.1484
25273SOL    HW278199   1.099   1.555  10.618 -0.2054  2.4355 -2.0826
25274SOL     OW78200   1.668   4.961   9.524 -0.0850  0.2304  0.1990
25274SOL    HW178201   1.744   5.012   9.552 -0.5878  0.7308  0.6859
25274SOL    HW278202   1.634   5.009   9.448 -1.2158  1.2941  1.3246
25275SOL     OW78203   1.256   3.510   8.147  0.1377  0.0669  0.2871
25275SOL    HW178204   1.179   3.481   8.099  1.0392 -2.3540  0.1734
25275SOL    HW278205   1.245   3.473   8.235 -0.1811  2.1683  1.2005
25276SOL     OW78206   0.226   4.115  10.777 -0.0515 -0.2272 -0.0205
25276SOL    HW178207   0.301   4.174  10.775 -0.7197  0.6408 -0.4962
25276SOL    HW278208   0.213   4.089  10.686 -0.0682 -0.7190  0.1194
25277SOL     OW78209   0.673   9.203   8.314 -0.1860  0.2969 -0.3192
25277SOL    HW178210   0.649   9.180   8.404 -0.2166  0.6922 -0.2244
25277SOL    HW278211   0.658   9.123   8.264  2.2828 -0.7582  0.4618
25278SOL     OW78212   2.439   5.370   1.145  0.0112 -0.5300  0.0449
25278SOL    HW178213   2.362   5.396   1.196 -1.0359 -3.5849  0.2379
25278SOL    HW278214   2.502   5.340   1.211  2.2000  3.4469  0.0350
25279SOL     OW78215  10.781   4.086   4.830 -0.0910  0.4644  0.8891
25279SOL    HW178216  10.725   4.011   4.811  0.8962 -0.1274  0.2460
25279SOL    HW278217  10.743   4.125   4.910 -0.4274 -0.8858  1.4059
25280SOL     OW78218   2.411   7.364   9.001  0.0356 -0.0991 -0.0857
25280SOL    HW178219   2.322   7.335   9.022  0.0706 -0.1535 -0.0135
25280SOL    HW278220   2.398   7.444   8.950 -0.0164  0.7141  1.1893
25281SOL     OW78221   4.751   4.556   4.639 -0.1537  0.2853  0.2106
25281SOL    HW178222   4.679   4.526   4.695  0.0370  2.7757  1.9953
25281SOL    HW278223   4.830   4.537   4.689  0.0302  2.4534  0.8702
25282SOL     OW78224   4.119   6.658   0.238 -0.3512 -0.5277  0.1126
25282SOL    HW178225   4.086   6.570   0.257 -0.8765 -0.4513 -0.4410
25282SOL    HW278226   4.081   6.713   0.307 -1.7219 -0.3703 -0.7317
25283SOL     OW78227   6.155   1.728  10.184  0.4365 -0.1786  0.1124
25283SOL    HW178228   6.099   1.744  10.108  1.1080 -1.5810 -0.7262
25283SOL    HW278229   6.244   1.722  10.148  0.8959  0.1637  1.1494
25284SOL     OW78230   1.989   8.714   3.108  0.3423  0.2303  0.2071
25284SOL    HW178231   1.958   8.805   3.104 -0.5134 -0.0605 -0.0811
25284SOL    HW278232   1.992   8.693   3.201  0.2675  0.4676  0.2625
25285SOL     OW78233   4.729   8.460   8.177  0.0176  0.0383 -0.0922
25285SOL    HW178234   4.801   8.500   8.129  0.4009 -1.3864 -0.7556
25285SOL    HW278235   4.650   8.499   8.139  0.3375 -0.7056 -1.5688
25286SOL     OW78236  10.022   5.362   9.402 -0.0947  0.5479 -0.1224
25286SOL    HW178237  10.017   5.309   9.323 -0.2185 -0.7222  0.6999
25286SOL    HW278238  10.004   5.300   9.473  1.3817  1.3421  1.0111
25287SOL     OW78239   1.358   4.332   6.502  0.3762  0.3511 -0.3113
25287SOL    HW178240   1.292   4.279   6.457  0.6436  0.1471 -0.4661
25287SOL    HW278241   1.318   4.419   6.509 -0.1354  0.0907  0.0901
25288SOL     OW78242   7.287  10.215   6.106  0.3991  0.5064 -0.1113
25288SOL    HW178243   7.233  10.280   6.060 -1.6648 -0.0830  1.3042
25288SOL    HW278244   7.250  10.212   6.195 -0.5765 -3.5266 -0.4509
25289SOL     OW78245   9.705  10.046   1.588 -0.2019  0.6137 -0.3772
25289SOL    HW178246   9.801  10.044   1.582 -0.1752 -3.1211 -1.8212
25289SOL    HW278247   9.687  10.025   1.679  0.4873 -1.1286 -0.5900
25290SOL     OW78248   8.853   8.302   5.049  0.9236 -0.0156  0.0355
25290SOL    HW178249   8.878   8.375   5.104 -0.9966 -0.5733  1.8113
25290SOL    HW278250   8.835   8.341   4.963  1.5433  1.3069  0.4879
25291SOL     OW78251   0.008   5.318   3.237  0.4853 -0.0164  0.0237
25291SOL    HW178252   0.052   5.284   3.160 -1.0785  1.1358 -1.4461
25291SOL    HW278253   0.004   5.244   3.297  3.2806 -0.4929 -0.2206
25292SOL     OW78254   5.009   2.152   2.361  1.0005 -0.1419  0.0067
25292SOL    HW178255   4.986   2.172   2.452 -0.6027  1.2868 -0.6450
25292SOL    HW278256   5.062   2.226   2.333  0.0832  0.2885 -0.6726
25293SOL     OW78257   2.959   7.837   7.484  0.4255 -0.1627  0.0862
25293SOL    HW178258   2.983   7.753   7.523 -1.8135 -0.5105  0.8446
25293SOL    HW278259   2.998   7.903   7.543 -0.4490 -0.6966  1.3094
25294SOL     OW78260   3.241   0.915   3.127  0.1345  0.0008  0.5531
25294SOL    HW178261   3.247   1.004   3.092  0.9282 -0.6865 -1.1288
25294SOL    HW278262   3.265   0.924   3.219  0.6400  1.4614  0.3035
25295SOL     OW78263   4.972  10.552   1.952 -0.3135 -0.1191  0.2265
25295SOL    HW178264   4.914  10.484   1.985 -0.4017  0.0009  0.3166
25295SOL    HW278265   4.977  10.535   1.858 -1.4913  0.6154  0.0078
25296SOL     OW78266   3.466   1.668  10.657  0.4963  0.0151  0.6633
25296SOL    HW178267   3.400   1.727  10.621  0.6433 -0.3810 -0.2957
25296SOL    HW278268   3.440   1.581  10.626  1.0914 -0.2276  0.8334
25297SOL     OW78269   8.506   6.774   0.269  0.4100  0.3842  0.4887
25297SOL    HW178270   8.592   6.743   0.241  1.0889  2.1259  0.5014
25297SOL    HW278271   8.448   6.699   0.256  1.4783 -0.1397 -1.6562
25298SOL     OW78272   3.839   4.765   1.728  0.2999  0.1083  0.2887
25298SOL    HW178273   3.756   4.745   1.771  0.0602  0.6062  0.0598
25298SOL    HW278274   3.882   4.828   1.786  1.0516 -1.0254  1.0053
25299SOL     OW78275   9.649   5.625   7.337 -0.8246  0.1410 -0.2700
25299SOL    HW178276   9.570   5.651   7.384 -0.2122  1.1456  0.2345
25299SOL    HW278277   9.707   5.701   7.342  1.0491 -1.2675  1.2493
25300SOL     OW78278   7.090   1.991   0.092 -0.2712  0.2191  0.6427
25300SOL    HW178279   7.136   1.934   0.153 -0.3651 -2.0276 -1.2499
25300SOL    HW278280   7.001   1.956   0.090 -0.3049  0.3379 -0.6482
25301SOL     OW78281   6.204   3.753   9.047 -0.1190 -0.4432 -0.0320
25301SOL    HW178282   6.131   3.792   9.095 -0.0170  0.1147 -0.3218
25301SOL    HW278283   6.249   3.828   9.007  1.0306 -0.7239  0.7150
25302SOL     OW78284   7.191   0.324   6.205 -0.0164  0.4735 -0.7696
25302SOL    HW178285   7.179   0.413   6.238  2.4778  0.0596  1.6165
25302SOL    HW278286   7.284   0.319   6.185 -0.3094 -1.3273 -1.8476
25303SOL     OW78287   9.239   2.612   6.197 -0.5045  0.3973 -0.5454
25303SOL    HW178288   9.150   2.631   6.167 -0.4956  0.2791 -0.6479
25303SOL    HW278289   9.249   2.664   6.277 -0.4946  0.7954 -0.7974
25304SOL     OW78290  10.162   8.695   2.829  0.1244 -0.5683  0.2902
25304SOL    HW178291  10.134   8.612   2.790  0.4000 -1.3479  1.6851
25304SOL    HW278292  10.237   8.722   2.777 -0.8608 -0.3959 -1.1111
25305SOL     OW78293  10.656   1.140   9.064 -0.1389 -0.3897  0.2897
25305SOL    HW178294  10.663   1.146   8.968 -0.9438  0.8132  0.2876
25305SOL    HW278295  10.733   1.186   9.097 -0.3358 -0.0089  0.2208
25306SOL     OW78296   5.150   4.637  10.033 -0.2184 -0.1046  0.1292
25306SOL    HW178297   5.111   4.653   9.947  0.2953  1.3747  0.1412
25306SOL    HW278298   5.223   4.578  10.016 -0.7971 -0.7286 -0.2705
25307SOL     OW78299   3.753   6.000   3.532 -0.2880 -0.0202 -0.4038
25307SOL    HW178300   3.773   5.937   3.464  4.1592  0.7652 -0.1018
25307SOL    HW278301   3.770   6.085   3.492  0.9935  0.5220  1.1606
25308SOL     OW78302   1.988   9.810   0.179 -0.0001 -0.4959 -0.0681
25308SOL    HW178303   1.994   9.868   0.103 -0.3970  1.1153  1.0739
25308SOL    HW278304   2.069   9.760   0.178  1.9005  2.3382  0.6435
25309SOL     OW78305   0.408   3.852   5.260  0.5335 -0.5100 -0.2818
25309SOL    HW178306   0.469   3.814   5.197  0.0381 -0.4615 -0.8081
25309SOL    HW278307   0.329   3.799   5.251 -0.1676  0.6103 -1.0279
25310SOL     OW78308   2.734   2.612  10.439 -0.0923  0.2061 -0.4302
25310SOL    HW178309   2.656   2.612  10.384 -0.6883  0.8254  0.3829
25310SOL    HW278310   2.706   2.654  10.521  0.7238 -0.8237  0.4148
25311SOL     OW78311   3.456   2.019   2.507 -0.6871 -0.5902 -0.4397
25311SOL    HW178312   3.498   2.104   2.519  1.2849 -1.6841  1.1897
25311SOL    HW278313   3.493   1.985   2.426  3.3263 -2.2624  1.7728
25312SOL     OW78314   8.245   0.765   3.693  0.2761 -0.2866 -0.1151
25312SOL    HW178315   8.150   0.765   3.687  0.2558  1.6848 -0.3275
25312SOL    HW278316   8.270   0.857   3.693  2.2219 -0.7556 -0.4248
25313SOL     OW78317   1.960   2.311   7.313  0.3798 -0.0634 -0.3604
25313SOL    HW178318   1.870   2.307   7.344  0.7374 -0.8505  0.5966
25313SOL    HW278319   1.994   2.222   7.324  0.9399 -0.0589 -1.7711
25314SOL     OW78320   8.154   2.404   8.872  0.4072 -0.2649  0.0343
25314SOL    HW178321   8.104   2.323   8.859 -1.2882  0.6089  0.7323
25314SOL    HW278322   8.105   2.470   8.824  0.6513  0.7190  1.0987
25315SOL     OW78323   9.465   6.871   5.239  0.1330 -0.0307 -0.2903
25315SOL    HW178324   9.410   6.921   5.299 -0.5938 -0.8940 -0.1992
25315SOL    HW278325   9.520   6.818   5.296  2.3238  2.0469 -0.3449
25316SOL     OW78326   5.333   3.611   5.501 -0.0396  0.4085  0.0095
25316SOL    HW178327   5.278   3.533   5.502  0.2374  0.2079  1.0320
25316SOL    HW278328   5.301   3.663   5.427 -1.6208  0.3147  0.6077
25317SOL     OW78329   3.910   1.762   3.467  0.0834  0.1112 -0.7887
25317SOL    HW178330   3.934   1.672   3.491  0.0325  0.2075 -0.3650
25317SOL    HW278331   3.866   1.796   3.545  0.0767  0.4962 -0.9600
25318SOL     OW78332   6.655   3.940   9.165 -0.2924  0.1855 -0.2262
25318SOL    HW178333   6.683   3.892   9.087  0.1260 -1.2420  0.7528
25318SOL    HW278334   6.593   3.881   9.209 -1.4834  1.4778 -0.0892
25319SOL     OW78335   8.924   3.868   4.463 -0.3948  0.8245 -0.2973
25319SOL    HW178336   8.976   3.870   4.543 -0.8214  0.0771  0.0035
25319SOL    HW278337   8.984   3.834   4.396 -0.3196  0.5312 -0.0822
25320SOL     OW78338   7.297   5.329   8.040  0.1527  0.0366  0.6349
25320SOL    HW178339   7.289   5.303   8.131  1.0350  1.4689  1.1618
25320SOL    HW278340   7.208   5.348   8.012 -0.2838 -1.7051  0.7647
25321SOL     OW78341   0.570   2.394   4.277  0.1675 -0.2546  0.3711
25321SOL    HW178342   0.620   2.317   4.250  2.4347  0.9102  0.9961
25321SOL    HW278343   0.636   2.464   4.284 -1.7463  1.6495  0.2068
25322SOL     OW78344   9.537   6.445   7.647 -0.2100  0.5185  0.5730
25322SOL    HW178345   9.493   6.506   7.707 -1.2741 -2.1590  2.7325
25322SOL    HW278346   9.466   6.395   7.608  0.6437  0.4863 -0.9991
25323SOL     OW78347   1.463   0.897   2.572 -0.0613  0.1281 -0.0580
25323SOL    HW178348   1.394   0.962   2.557 -0.2720  0.0769  0.6625
25323SOL    HW278349   1.442   0.825   2.512  0.3242  0.8191 -1.0620
25324SOL     OW78350   5.921   8.120   1.334  0.0785 -0.4103  0.1119
25324SOL    HW178351   5.963   8.206   1.345 -0.3963  0.1055 -1.7997
25324SOL    HW278352   5.829   8.140   1.319  0.0041 -1.2434 -0.5694
25325SOL     OW78353   3.757   7.718   9.344  0.0511 -0.0285 -0.5216
25325SOL    HW178354   3.793   7.670   9.269 -0.2891  0.8592 -1.2741
25325SOL    HW278355   3.763   7.810   9.318  1.8344  0.4737  1.3744
25326SOL     OW78356   0.921   9.370   9.821  0.0722  0.2218 -0.4499
25326SOL    HW178357   0.861   9.301   9.851 -0.4201  0.5513 -0.6583
25326SOL    HW278358   0.865   9.448   9.814  0.8630  0.9704  1.0110
25327SOL     OW78359   6.434   7.436   4.129  0.2342 -0.0809  0.3551
25327SOL    HW178360   6.344   7.459   4.107 -0.0621 -0.0965  1.4862
25327SOL    HW278361   6.468   7.513   4.175  0.5710 -0.3282  0.5285
25328SOL     OW78362  10.275   8.614   1.835 -0.2684  0.0459  0.1119
25328SOL    HW178363  10.279   8.655   1.921 -1.6722 -0.7729  0.6065
25328SOL    HW278364  10.205   8.549   1.843  1.3383 -1.9062 -0.8627
25329SOL     OW78365   8.366   4.855   8.648 -0.4083 -0.1920 -0.7439
25329SOL    HW178366   8.380   4.761   8.654 -0.4165 -0.1844 -0.5845
25329SOL    HW278367   8.328   4.879   8.733  0.5662  0.1129 -0.3707
25330SOL     OW78368   9.024   0.667   6.628 -0.1200 -0.7133 -0.0287
25330SOL    HW178369   9.113   0.654   6.596  0.2200  0.5370  0.3207
25330SOL    HW278370   9.035   0.709   6.713 -1.0443 -0.0849 -0.1977
25331SOL     OW78371   4.495   5.486   3.442  0.2198 -0.2999  0.6538
25331SOL    HW178372   4.423   5.534   3.402  0.2136  0.1422  1.1924
25331SOL    HW278373   4.505   5.524   3.529  1.4377 -0.0104  0.4037
25332SOL     OW78374   2.652  10.666   9.944 -0.2215  0.1046 -0.8177
25332SOL    HW178375   2.644  10.576   9.915 -0.8932  0.3521 -1.4174
25332SOL    HW278376   2.709  10.707   9.880  0.0772  0.1094 -0.5497
25333SOL     OW78377   2.974   0.745   5.131  0.7047  0.0928 -0.4758
25333SOL    HW178378   2.978   0.810   5.200  1.7031 -0.6430  0.1948
25333SOL    HW278379   3.049   0.764   5.076  0.9727 -0.4471 -0.3043
25334SOL     OW78380   6.340   4.615   5.738 -0.1020 -0.0151  0.5022
25334SOL    HW178381   6.310   4.532   5.701  0.0645 -0.4836  1.3595
25334SOL    HW278382   6.333   4.678   5.667  0.6377 -0.9626 -0.4505
25335SOL     OW78383   9.188   1.610   9.275 -0.4310  0.0593 -0.2195
25335SOL    HW178384   9.172   1.696   9.314  0.2083  0.0663  0.0379
25335SOL    HW278385   9.134   1.550   9.326 -2.3988  0.5542 -1.6243
25336SOL     OW78386   7.869  10.471   2.971 -0.3870 -0.1574  0.4949
25336SOL    HW178387   7.954  10.467   2.928 -0.3640  1.1470  0.3969
25336SOL    HW278388   7.868  10.394   3.028  0.7407 -0.3431  0.2849
25337SOL     OW78389   0.647   1.946   6.459 -0.2425 -0.1338  0.0540
25337SOL    HW178390   0.732   1.977   6.427 -0.4362  0.3053 -0.0338
25337SOL    HW278391   0.592   1.941   6.380  0.3954 -2.8226 -0.3430
25338SOL     OW78392   9.744   9.140   2.685 -0.1616  0.3473  0.3772
25338SOL    HW178393   9.659   9.182   2.669 -0.1427  0.7363  1.3053
25338SOL    HW278394   9.733   9.094   2.768  0.0557 -0.8947 -0.2401
25339SOL     OW78395   3.435   1.058   0.687  0.3187 -0.4202  0.2440
25339SOL    HW178396   3.461   0.968   0.669 -1.3172 -0.8251 -0.2416
25339SOL    HW278397   3.457   1.106   0.606  1.5328 -0.2834  0.6382
25340SOL     OW78398   2.436   5.599   4.131  0.1049  1.1018 -0.4757
25340SOL    HW178399   2.498   5.560   4.192  0.8434 -0.0344 -1.8999
25340SOL    HW278400   2.470   5.687   4.115 -0.6790  1.8188  1.5091
25341SOL     OW78401   4.907   7.399   7.237  0.1545 -0.5983  0.2153
25341SOL    HW178402   4.996   7.365   7.243 -0.6206 -2.9591 -0.7296
25341SOL    HW278403   4.882   7.419   7.327  0.8085 -2.2485  0.7949
25342SOL     OW78404   7.715   8.711  10.597  0.0038  0.6954  0.0435
25342SOL    HW178405   7.653   8.732  10.667 -1.7178  1.8818 -1.7221
25342SOL    HW278406   7.716   8.615  10.593 -2.9182  0.6145 -0.7846
25343SOL     OW78407   7.101   7.952   9.946 -0.3042  0.4847  0.8430
25343SOL    HW178408   7.181   7.967   9.997  0.0588  0.5697  0.2520
25343SOL    HW278409   7.051   7.889   9.999 -0.1641  0.9530  1.5459
25344SOL     OW78410   4.635   9.229   9.771 -0.5132 -0.3134  0.0143
25344SOL    HW178411   4.540   9.241   9.775 -0.4176  0.7090 -0.5004
25344SOL    HW278412   4.670   9.298   9.827 -0.0028  0.8723 -1.6856
25345SOL     OW78413   1.002  10.450   4.772  0.0531 -0.2564 -0.1589
25345SOL    HW178414   1.075  10.445   4.834  1.4053 -0.6329 -1.7209
25345SOL    HW278415   0.985  10.544   4.762 -0.1998 -0.1933  0.7904
25346SOL     OW78416   0.203   0.717   2.674 -0.0656 -0.7014  0.4638
25346SOL    HW178417   0.215   0.662   2.596 -0.9078 -1.4758  0.8725
25346SOL    HW278418   0.154   0.663   2.735 -1.3463  0.6697  0.7045
25347SOL     OW78419   9.885   3.335   8.505  0.0908 -0.2560  0.2583
25347SOL    HW178420   9.904   3.297   8.591 -0.5756  1.1025  1.0326
25347SOL    HW278421   9.833   3.268   8.460 -1.3239 -0.1958  1.7068
25348SOL     OW78422   6.583   3.527   4.839  0.0370 -0.2071  0.1041
25348SOL    HW178423   6.508   3.475   4.865 -0.3683 -0.4022 -1.3484
25348SOL    HW278424   6.659   3.473   4.859 -0.1488  0.1469  1.9452
25349SOL     OW78425   6.102   4.835   8.416  0.3103  0.1759 -0.4756
25349SOL    HW178426   6.185   4.826   8.462  0.3243  1.5237 -0.1801
25349SOL    HW278427   6.041   4.869   8.482 -0.6716 -1.3915 -0.5167
25350SOL     OW78428   3.891  10.544   9.655  0.4684  0.3992 -0.1029
25350SOL    HW178429   3.826  10.474   9.658 -0.8265  1.5668  3.0467
25350SOL    HW278430   3.857  10.605   9.589 -0.1931 -0.2974 -0.4178
25351SOL     OW78431   8.852   6.154   0.725  0.7916  0.4336  0.3464
25351SOL    HW178432   8.770   6.131   0.683  1.3299  0.5100 -0.7930
25351SOL    HW278433   8.852   6.105   0.807 -0.2189  0.1570  0.1912
25352SOL     OW78434   2.152   1.698   0.764  0.8071  0.7481 -0.4430
25352SOL    HW178435   2.115   1.781   0.793 -0.2991 -0.7021  2.8013
25352SOL    HW278436   2.241   1.697   0.801 -0.1066 -0.5055  1.9466
25353SOL     OW78437   7.615   6.784   4.581 -0.1882 -0.3220 -0.3727
25353SOL    HW178438   7.572   6.847   4.639  0.6116  1.3625 -1.5556
25353SOL    HW278439   7.686   6.747   4.634  0.3713  1.0027 -0.1667
25354SOL     OW78440  10.357   0.953   5.140  0.4017 -0.7288 -0.4636
25354SOL    HW178441  10.331   0.874   5.186 -2.1908 -0.0808 -0.6241
25354SOL    HW278442  10.329   0.938   5.049  0.8348 -0.0437 -0.7174
25355SOL     OW78443   1.952   0.524   4.145  1.1377  0.3613 -0.2107
25355SOL    HW178444   1.947   0.559   4.056  1.2416 -1.4593 -0.9872
25355SOL    HW278445   2.035   0.476   4.147 -0.8045 -3.4203 -0.7235
25356SOL     OW78446   8.026   4.756   8.682 -0.1182  0.4538  0.1496
25356SOL    HW178447   7.971   4.679   8.693 -0.4909  0.8699  1.3177
25356SOL    HW278448   7.991   4.820   8.745  1.6463  0.7546  0.8826
25357SOL     OW78449  10.041   5.428   1.122 -0.3123  0.2021  0.2514
25357SOL    HW178450  10.132   5.439   1.152 -0.0167 -0.4292 -0.3769
25357SOL    HW278451  10.021   5.509   1.075  0.5533 -0.3550 -1.1417
25358SOL     OW78452   0.730   5.078   3.630 -0.3200 -0.4317  0.1948
25358SOL    HW178453   0.728   5.093   3.535  0.3116 -0.0783  0.2343
25358SOL    HW278454   0.816   5.039   3.647  0.1914  0.9253  0.8192
25359SOL     OW78455   8.809  10.245   4.764 -0.3080  0.7380  0.4144
25359SOL    HW178456   8.744  10.219   4.829 -1.3993  1.3835 -0.3855
25359SOL    HW278457   8.765  10.232   4.680  0.0426  2.5854 -0.0928
25360SOL     OW78458   9.305   9.008   2.486  0.1448  0.3259 -0.2633
25360SOL    HW178459   9.352   9.036   2.408 -0.8118  1.1111 -0.5878
25360SOL    HW278460   9.221   9.055   2.481 -0.2922 -0.3113  0.7628
25361SOL     OW78461   4.316   5.796   2.503  0.1422  0.6017  0.2256
25361SOL    HW178462   4.350   5.805   2.414  0.2964  0.1334  0.2338
25361SOL    HW278463   4.233   5.750   2.493 -0.0461  0.9275  0.2872
25362SOL     OW78464  10.333   7.438   9.954  0.3068  0.2571 -0.4298
25362SOL    HW178465  10.271   7.484   9.896 -1.6563  0.1890  1.4991
25362SOL    HW278466  10.310   7.346   9.945  0.2353  0.2131  0.1694
25363SOL     OW78467   9.893   7.587   9.994  0.3496  0.2434  0.2631
25363SOL    HW178468   9.936   7.626  10.070  2.8448  0.6381 -1.2403
25363SOL    HW278469   9.868   7.662   9.940  0.0387 -0.0781 -0.0427
25364SOL     OW78470   8.282   4.549   9.488  0.1449 -0.1880 -0.0197
25364SOL    HW178471   8.201   4.545   9.538  1.6824  1.1967  2.7964
25364SOL    HW278472   8.351   4.530   9.552  2.0680 -2.2572 -2.4880
25365SOL     OW78473   5.844   7.455   1.746 -0.1524 -0.2895 -0.1703
25365SOL    HW178474   5.905   7.390   1.780 -0.2002 -0.4553 -0.3975
25365SOL    HW278475   5.757   7.418   1.762 -0.3318  0.9984  2.3462
25366SOL     OW78476   0.251   2.544   9.111  0.5214  0.1642  0.2321
25366SOL    HW178477   0.218   2.555   9.199 -0.5728  1.5209 -0.3178
25366SOL    HW278478   0.322   2.607   9.104 -0.9811  1.8395 -0.5945
25367SOL     OW78479   0.357   0.299   8.371 -0.1059  0.2822  0.3583
25367SOL    HW178480   0.449   0.303   8.347 -0.4410  1.2766 -0.8880
25367SOL    HW278481   0.342   0.378   8.423 -0.8896  1.8366 -2.0484
25368SOL     OW78482   3.506   4.812   8.645  0.1668  0.2975 -0.2525
25368SOL    HW178483   3.457   4.757   8.705  0.4836 -1.5002 -1.5571
25368SOL    HW278484   3.439   4.861   8.597 -0.0826  1.9477  1.6246
25369SOL     OW78485   6.736   0.259   8.086  0.7423  0.2993  0.4137
25369SOL    HW178486   6.741   0.182   8.142 -1.7906 -1.1931 -1.2085
25369SOL    HW278487   6.749   0.333   8.146  1.6417 -1.2960  2.2944
25370SOL     OW78488   3.781   3.054   3.281  0.2612 -0.0765  0.0454
25370SOL    HW178489   3.748   3.098   3.359  0.2223 -1.1911  0.6775
25370SOL    HW278490   3.716   3.074   3.213 -1.3489 -1.5236  1.0614
25371SOL     OW78491   0.228   6.829   2.408 -0.0210 -0.2139 -0.5191
25371SOL    HW178492   0.226   6.905   2.466  3.1221 -0.8703  0.6566
25371SOL    HW278493   0.271   6.760   2.460  0.5319 -1.6631 -2.7612
25372SOL     OW78494   7.331   8.352   7.020  0.5119 -0.6400  0.4946
25372SOL    HW178495   7.338   8.435   6.974 -0.1068 -1.6445 -1.5013
25372SOL    HW278496   7.296   8.375   7.106  0.7679  1.1854  0.1533
25373SOL     OW78497   5.838   2.024   0.361 -0.2026  0.2989  0.4367
25373SOL    HW178498   5.786   2.083   0.415 -0.2246  0.0423  0.6962
25373SOL    HW278499   5.929   2.051   0.376 -0.2060  0.2044  0.6291
25374SOL     OW78500   0.337   5.353   1.375 -0.5735  0.1374  0.0993
25374SOL    HW178501   0.325   5.446   1.354 -1.2698  0.4251  1.6701
25374SOL    HW278502   0.426   5.348   1.410 -0.9252  0.4260  1.0553
25375SOL     OW78503   7.630   0.073   2.945 -0.1550 -0.1801 -0.1734
25375SOL    HW178504   7.612  -0.021   2.945  2.0672 -0.6703  0.8194
25375SOL    HW278505   7.621   0.099   3.037 -0.5305  0.5479 -0.4084
25376SOL     OW78506   5.190   0.206   8.183 -0.7105 -0.2184 -0.2360
25376SOL    HW178507   5.121   0.272   8.189  1.7147  2.5298 -0.2620
25376SOL    HW278508   5.210   0.184   8.274 -0.0914  0.7895 -0.1076
25377SOL     OW78509   8.530   1.969   7.436 -0.2766 -0.2844 -0.2294
25377SOL    HW178510   8.600   2.027   7.466 -1.3962  1.0218 -0.0097
25377SOL    HW278511   8.570   1.917   7.367  0.7031  1.0259 -0.6963
25378SOL     OW78512   3.324   5.391   5.745 -0.1940  0.4623  0.4442
25378SOL    HW178513   3.334   5.326   5.814 -1.4874  1.9282  2.1237
25378SOL    HW278514   3.235   5.378   5.713 -0.5567  1.5240  0.9764
25379SOL     OW78515   7.531   1.401   2.541 -0.1488 -0.2783  0.3855
25379SOL    HW178516   7.530   1.431   2.450 -2.6216  0.3107  0.5303
25379SOL    HW278517   7.477   1.464   2.588  0.0473 -1.2674  2.0244
25380SOL     OW78518   3.889   9.892   4.892 -0.3374  0.0440 -0.0792
25380SOL    HW178519   3.851   9.953   4.829 -0.3062  0.8827  0.6977
25380SOL    HW278520   3.922   9.948   4.963  1.6940 -0.7027 -0.3778
25381SOL     OW78521   2.754   5.517   5.018 -0.8072 -0.8935  0.9464
25381SOL    HW178522   2.792   5.436   5.053  0.4313 -0.9870 -0.5054
25381SOL    HW278523   2.790   5.587   5.072 -1.4509 -1.2555  1.8605
25382SOL     OW78524   5.724   4.290   4.518 -0.0262 -0.1746 -0.2225
25382SOL    HW178525   5.746   4.198   4.509 -0.2988 -0.1355 -1.4178
25382SOL    HW278526   5.634   4.291   4.549  0.2348 -0.3040  0.5625
25383SOL     OW78527   4.001   4.405   0.591 -0.0889 -0.2002 -0.5802
25383SOL    HW178528   3.978   4.348   0.518  0.0189 -1.1509  0.1139
25383SOL    HW278529   4.093   4.386   0.608  0.3567  1.2383 -1.2604
25384SOL     OW78530   0.972   9.856   1.167 -1.2390 -0.1536 -0.1962
25384SOL    HW178531   0.951   9.879   1.258  0.1968  1.3961 -0.1854
25384SOL    HW278532   1.006   9.767   1.172  0.9096  0.6370  1.2265
25385SOL     OW78533   3.897   5.860   8.857 -0.4682 -0.5433 -0.0718
25385SOL    HW178534   3.899   5.884   8.764  0.2656  1.2452  0.3801
25385SOL    HW278535   3.805   5.870   8.882 -0.8871 -2.1137 -0.8291
25386SOL     OW78536   2.142   0.463   4.861 -0.1355 -0.6620 -0.1632
25386SOL    HW178537   2.134   0.475   4.766  0.3172 -1.6940 -0.3465
25386SOL    HW278538   2.121   0.371   4.875  0.0107 -0.5676  0.7220
25387SOL     OW78539   8.210   6.293   7.056 -0.1287 -0.1583  0.0479
25387SOL    HW178540   8.241   6.381   7.034 -0.0074 -0.6906 -2.1876
25387SOL    HW278541   8.155   6.305   7.133 -0.6966  1.9977 -0.6325
25388SOL     OW78542   4.491   4.069   7.896  0.2297  1.0799 -0.0987
25388SOL    HW178543   4.448   4.120   7.964 -1.0112  0.3192 -0.2606
25388SOL    HW278544   4.422   4.010   7.864  2.0008 -2.0199  1.3380
25389SOL     OW78545   9.282   6.776   0.166 -0.1891 -0.0738 -0.0745
25389SOL    HW178546   9.284   6.694   0.215 -2.7039  0.2832  0.7592
25389SOL    HW278547   9.280   6.844   0.233 -2.6973  0.4532 -0.6041
25390SOL     OW78548   7.688   5.253   7.224  0.0031  0.1192 -0.2478
25390SOL    HW178549   7.643   5.336   7.243  0.4015  0.2460  0.1404
25390SOL    HW278550   7.764   5.253   7.281 -0.1113 -0.6229 -0.0863
25391SOL     OW78551   3.839   0.904   7.233 -0.6237  0.2651 -0.0292
25391SOL    HW178552   3.838   0.991   7.274  0.5149 -1.2774  3.7713
25391SOL    HW278553   3.911   0.908   7.170 -0.7783  2.1142 -0.1527
25392SOL     OW78554   0.219   6.969   3.858 -1.3066 -0.8719 -0.3519
25392SOL    HW178555   0.236   6.915   3.780  0.3011 -0.3689 -0.3910
25392SOL    HW278556   0.259   7.053   3.838  0.3463 -1.1310  1.5026
25393SOL     OW78557   0.890   2.011   2.744  0.0084  0.2427 -0.6339
25393SOL    HW178558   0.815   1.953   2.731  0.1689 -0.2214  0.3667
25393SOL    HW278559   0.948   1.992   2.670 -0.5388  0.0876 -1.0284
25394SOL     OW78560   1.525   7.554   1.663  0.1900  0.3968  0.0713
25394SOL    HW178561   1.535   7.476   1.608 -0.7200 -0.5651  1.2340
25394SOL    HW278562   1.566   7.530   1.746 -2.4141  0.1433  1.3688
25395SOL     OW78563   7.338   2.600   8.108 -0.4949 -0.3833 -0.1262
25395SOL    HW178564   7.404   2.615   8.040 -1.0096  1.5965 -0.2524
25395SOL    HW278565   7.366   2.656   8.180  0.1678 -2.6153  1.4497
25396SOL     OW78566   9.215   6.695   2.939 -0.6902  0.4756  0.0328
25396SOL    HW178567   9.143   6.757   2.932  0.0798  1.5981  1.3958
25396SOL    HW278568   9.187   6.619   2.887 -3.1139  0.6112  0.9897
25397SOL     OW78569   7.217   0.538   3.780  0.3136 -0.5769 -0.3114
25397SOL    HW178570   7.193   0.619   3.735 -0.1917 -0.3640  0.3307
25397SOL    HW278571   7.240   0.478   3.709  0.4430  0.0418 -0.8080
25398SOL     OW78572   4.235   6.856   0.075  0.4705 -0.8917 -0.2689
25398SOL    HW178573   4.166   6.824   0.016 -1.5647  2.0507  0.2649
25398SOL    HW278574   4.212   6.819   0.160 -1.1140  0.7410  0.0897
25399SOL     OW78575   3.344   7.762   4.837  0.0175 -0.3681 -0.0938
25399SOL    HW178576   3.420   7.806   4.800  0.6863 -1.4472 -0.0531
25399SOL    HW278577   3.370   7.740   4.927 -0.1575 -1.1517 -0.2234
25400SOL     OW78578   4.805   1.702   9.798 -0.3988 -0.0031 -0.7559
25400SOL    HW178579   4.721   1.731   9.763 -0.5259 -0.1998 -0.6172
25400SOL    HW278580   4.815   1.751   9.880 -1.0170 -0.9695 -0.0862
25401SOL     OW78581   8.039   4.174   4.791 -0.0818 -0.6479 -0.3490
25401SOL    HW178582   7.958   4.214   4.761  0.7466 -0.0274 -1.8711
25401SOL    HW278583   8.107   4.240   4.774  0.9646 -1.7502 -0.6385
25402SOL     OW78584   7.421   2.854   4.448  0.3900 -0.0833 -0.0007
25402SOL    HW178585   7.472   2.841   4.368 -0.7104 -1.5477 -0.5046
25402SOL    HW278586   7.358   2.782   4.448 -0.1272  0.3298  1.8092
25403SOL     OW78587   1.750   0.292   6.015 -0.7733  0.3209 -0.0623
25403SOL    HW178588   1.841   0.289   6.046 -0.7724  0.6945 -0.0256
25403SOL    HW278589   1.703   0.339   6.083 -0.9286  0.4358 -0.2488
25404SOL     OW78590   9.358   4.973   7.368 -0.0307  0.1194  0.3948
25404SOL    HW178591   9.332   4.935   7.451 -1.1436 -0.5381 -0.2325
25404SOL    HW278592   9.420   4.910   7.331 -0.6969 -0.3470  0.0526
25405SOL     OW78593   7.957   9.652   9.291  0.6217 -0.4400  0.1942
25405SOL    HW178594   8.046   9.637   9.323  0.3016 -1.0636  0.8166
25405SOL    HW278595   7.965   9.651   9.196  1.2261 -0.8254  0.2432
25406SOL     OW78596   7.216   4.084   5.645  0.3695  0.1447  0.2076
25406SOL    HW178597   7.124   4.099   5.667  0.9329  2.2615  1.3387
25406SOL    HW278598   7.226   4.120   5.557  0.1941  0.1883  0.2056
25407SOL     OW78599   9.308   2.122   3.679  0.2420  0.2570 -0.1316
25407SOL    HW178600   9.357   2.057   3.730  2.6815  0.9052 -1.4997
25407SOL    HW278601   9.355   2.204   3.695  0.2480  0.7240 -2.3020
25408SOL     OW78602   3.907   7.022   3.519 -0.1925 -0.2840 -0.2625
25408SOL    HW178603   3.870   7.027   3.608 -0.5496 -1.0893 -0.3603
25408SOL    HW278604   3.954   7.104   3.509  0.6461 -0.5776  1.0296
25409SOL     OW78605   8.495   8.300  10.629 -0.5643 -0.5331  0.0148
25409SOL    HW178606   8.445   8.230  10.587 -1.1210 -0.6385  0.8419
25409SOL    HW278607   8.530   8.260  10.708 -0.2080 -0.0994  0.0787
25410SOL     OW78608   0.826   0.471   1.637 -0.0179 -0.2907 -0.0282
25410SOL    HW178609   0.847   0.381   1.610 -0.9712 -0.5577  0.0540
25410SOL    HW278610   0.748   0.461   1.692  1.4394  0.3150  2.2444
25411SOL     OW78611   2.856   4.720   9.904  0.2733  0.1724 -0.3283
25411SOL    HW178612   2.811   4.640   9.931  2.2361 -0.7997  0.2341
25411SOL    HW278613   2.934   4.724   9.959 -0.5762  3.4406  0.8904
25412SOL     OW78614   8.542   2.407   0.946  0.6237  0.2190  0.3849
25412SOL    HW178615   8.501   2.488   0.916 -0.3358 -0.4841 -0.2702
25412SOL    HW278616   8.630   2.409   0.910  0.3443  0.6035 -0.2838
25413SOL     OW78617   4.896   1.474   2.960  0.0471 -0.3367 -0.1067
25413SOL    HW178618   4.809   1.436   2.971 -0.2530  0.5208  0.5727
25413SOL    HW278619   4.956   1.401   2.976 -0.5409 -0.7845  0.0712
25414SOL     OW78620   9.869   1.997   5.622 -0.1239 -0.0512 -0.4234
25414SOL    HW178621   9.878   1.902   5.613 -3.0007 -0.3394 -1.2041
25414SOL    HW278622   9.783   2.010   5.661  0.8777  2.2474  1.2654
25415SOL     OW78623   9.822   1.882   6.760 -0.1602  0.2549 -0.2391
25415SOL    HW178624   9.765   1.882   6.836 -0.2187  0.3911 -0.2821
25415SOL    HW278625   9.827   1.790   6.733 -1.6008  0.3995 -1.1545
25416SOL     OW78626   4.209   9.027   8.715  0.6242  0.3294 -0.7859
25416SOL    HW178627   4.151   9.050   8.788 -0.2503  0.5587 -1.5346
25416SOL    HW278628   4.197   8.933   8.704  2.4640 -0.1454  0.7914
25417SOL     OW78629   0.001   6.744   8.617 -0.3770 -1.2963  0.2234
25417SOL    HW178630  -0.018   6.828   8.575  1.4397 -0.2364  1.3725
25417SOL    HW278631  -0.071   6.730   8.678 -0.7503 -0.6478 -0.0637
25418SOL     OW78632   9.692   2.369   4.115  0.0543 -0.2663  0.5443
25418SOL    HW178633   9.778   2.345   4.082 -0.0393 -0.3388  0.3531
25418SOL    HW278634   9.670   2.450   4.069  1.0940  1.1350  2.3955
25419SOL     OW78635   1.429   9.691   5.308  0.9148 -0.7080 -0.3893
25419SOL    HW178636   1.437   9.785   5.294  1.4799 -0.4601  1.3749
25419SOL    HW278637   1.349   9.682   5.361  1.0333 -1.1769 -0.2870
25420SOL     OW78638   8.425  10.272   4.048  0.1242  0.2027  0.0117
25420SOL    HW178639   8.512  10.239   4.070 -0.2925 -1.2547 -0.4506
25420SOL    HW278640   8.441  10.359   4.013  1.1427  1.1006  2.4558
25421SOL     OW78641   8.954   4.497  10.685  0.8525  0.3428  0.0405
25421SOL    HW178642   8.977   4.569  10.744 -1.7139  2.4167 -1.2732
25421SOL    HW278643   8.947   4.539  10.599 -1.2027 -1.3506 -0.6926
25422SOL     OW78644   7.017  10.742   0.713  0.2536 -0.2648 -0.0803
25422SOL    HW178645   7.052  10.828   0.691  0.9885  0.1568  2.4116
25422SOL    HW278646   6.924  10.756   0.727  0.2636  0.0057 -0.3035
25423SOL     OW78647   6.509   0.689   4.725  0.1076 -0.2741  0.1946
25423SOL    HW178648   6.553   0.723   4.802  0.2590 -0.0663  0.0166
25423SOL    HW278649   6.453   0.619   4.759  0.4712 -0.4522  0.4365
25424SOL     OW78650   0.468   0.488   7.032  0.7524 -0.2719 -0.1087
25424SOL    HW178651   0.519   0.477   7.112  1.5084  0.7550 -0.4277
25424SOL    HW278652   0.440   0.580   7.033 -0.7569 -0.6966 -0.1558
25425SOL     OW78653   8.127   1.517   5.608  0.3028  0.6075  0.3468
25425SOL    HW178654   8.143   1.490   5.698 -2.3048 -0.8308  0.4764
25425SOL    HW278655   8.208   1.496   5.561  1.4509  0.7458  2.1688
25426SOL     OW78656   3.437   0.676   2.685  0.0728  0.1297  0.0934
25426SOL    HW178657   3.526   0.660   2.653 -0.1887 -0.7010 -0.2569
25426SOL    HW278658   3.390   0.712   2.610 -0.7116 -2.4118 -0.7536
25427SOL     OW78659   8.334  10.017   0.645  0.4655  0.1314 -0.0135
25427SOL    HW178660   8.380  10.101   0.638 -0.3154  0.5841  0.1228
25427SOL    HW278661   8.315   9.993   0.554 -0.2794  0.6680 -0.0129
25428SOL     OW78662   0.818   1.754   7.827 -0.0365 -0.3763 -0.6180
25428SOL    HW178663   0.826   1.665   7.793  1.3519 -0.5352  0.0506
25428SOL    HW278664   0.741   1.751   7.884  0.0875 -1.1958 -0.4864
25429SOL     OW78665   5.260   8.526   7.521 -0.1549  0.2693 -0.5594
25429SOL    HW178666   5.180   8.546   7.570  0.1089 -0.3460  0.1405
25429SOL    HW278667   5.258   8.586   7.446  0.1169  2.2242  0.9120
25430SOL     OW78668   9.685   5.883   1.854 -0.5494 -0.3018  0.4396
25430SOL    HW178669   9.691   5.810   1.915 -0.7038 -0.1958  0.5839
25430SOL    HW278670   9.672   5.842   1.769 -4.0373 -0.4641  0.8715
25431SOL     OW78671   6.229   2.265   0.333 -0.9770  0.2900 -0.1813
25431SOL    HW178672   6.223   2.354   0.297  0.6987  0.0588 -1.1300
25431SOL    HW278673   6.192   2.209   0.265 -1.1352  0.1768 -0.0020
25432SOL     OW78674   7.967   1.103   4.810 -0.9538 -0.1992 -0.0167
25432SOL    HW178675   7.946   1.094   4.903 -2.0474 -1.3235 -0.3409
25432SOL    HW278676   7.997   1.193   4.801 -2.6203  0.5193  1.0961
25433SOL     OW78677   7.941   5.667   8.939 -0.0975 -0.5634  0.1994
25433SOL    HW178678   8.016   5.719   8.912 -0.8724 -0.3007 -1.6207
25433SOL    HW278679   7.961   5.640   9.029  0.9596  1.6764  0.7024
25434SOL     OW78680   4.891   6.833   0.108  0.0166  0.1765 -0.2953
25434SOL    HW178681   4.879   6.927   0.125 -2.9017 -0.2890  0.6657
25434SOL    HW278682   4.830   6.813   0.038 -0.6761 -1.3079  0.6780
25435SOL     OW78683   2.905   9.551   7.128 -0.4905 -0.7068  0.3590
25435SOL    HW178684   2.893   9.457   7.142  3.4880 -1.5683 -0.7810
25435SOL    HW278685   2.849   9.572   7.053  0.2068 -2.7081 -0.7800
25436SOL     OW78686   0.599   9.232   0.491 -0.3594  0.6120  0.2507
25436SOL    HW178687   0.578   9.141   0.513  0.6550  0.4914  0.7682
25436SOL    HW278688   0.659   9.225   0.416  1.9876  0.7006  2.0301
25437SOL     OW78689   8.854   4.662   0.384 -0.2310 -0.2745 -0.0332
25437SOL    HW178690   8.786   4.670   0.451 -0.2279  1.9423 -0.2170
25437SOL    HW278691   8.807   4.649   0.302 -0.2847 -1.5469  0.1740
25438SOL     OW78692   8.654   7.037   2.453 -0.2442  0.1192  0.0561
25438SOL    HW178693   8.674   7.113   2.398  1.1919  0.5465  1.1149
25438SOL    HW278694   8.639   6.966   2.391  1.3020  0.5977 -0.9406
25439SOL     OW78695   8.473   1.279   7.172  0.3382  0.1709  0.7241
25439SOL    HW178696   8.503   1.302   7.084 -0.0079  1.0863  0.8386
25439SOL    HW278697   8.414   1.204   7.158 -0.2813  0.7648  0.0891
25440SOL     OW78698   2.675   8.582   5.535  0.2768 -0.0971 -0.5370
25440SOL    HW178699   2.763   8.567   5.502 -0.3041  0.6162 -2.5503
25440SOL    HW278700   2.666   8.677   5.539  0.3864 -0.1271  2.0377
25441SOL     OW78701   0.746   7.835   0.333  0.5697 -0.1617 -0.6470
25441SOL    HW178702   0.751   7.912   0.390  0.5145  0.3327 -1.3102
25441SOL    HW278703   0.690   7.862   0.261 -2.3766 -1.8882  0.7865
25442SOL     OW78704   0.723   5.143   6.204 -0.2319  0.6420  0.1381
25442SOL    HW178705   0.668   5.221   6.195  0.4208  1.1752  0.6606
25442SOL    HW278706   0.749   5.142   6.296  0.2355  0.1297  0.0077
25443SOL     OW78707   0.667   8.790   9.910  0.0308 -0.6303 -0.2729
25443SOL    HW178708   0.626   8.704   9.908  2.7306 -2.0192 -0.3105
25443SOL    HW278709   0.709   8.799   9.824  2.9208 -1.0394  0.9595
25444SOL     OW78710   4.236   8.954   7.171 -0.6648  0.6287  0.0756
25444SOL    HW178711   4.201   9.000   7.095 -0.7724  2.9421  1.4227
25444SOL    HW278712   4.330   8.968   7.166 -0.4182 -1.1424 -0.7809
25445SOL     OW78713   5.301   3.557   0.070  0.4894  0.3140 -0.2430
25445SOL    HW178714   5.248   3.534   0.146  1.0045  1.8085  0.6143
25445SOL    HW278715   5.391   3.548   0.100  0.8306 -2.4750 -1.7672
25446SOL     OW78716   1.273   2.437   7.223 -0.4385  0.2289  0.6625
25446SOL    HW178717   1.227   2.467   7.146  0.1652  2.0588  0.9607
25446SOL    HW278718   1.361   2.415   7.192 -0.6316 -0.4680  0.5908
25447SOL     OW78719   6.105   7.731   4.263 -0.1892  0.4203  0.7877
25447SOL    HW178720   6.061   7.800   4.311 -1.3510  2.0009 -2.2520
25447SOL    HW278721   6.188   7.770   4.234 -0.6594  0.4623 -0.5878
25448SOL     OW78722   3.035   8.936  10.702 -0.1927  0.0589  0.2572
25448SOL    HW178723   3.068   8.891  10.779  0.2248 -1.8457 -0.9837
25448SOL    HW278724   2.966   8.880  10.669  1.0481 -0.2861 -1.9404
25449SOL     OW78725   8.859   3.300   8.725 -0.7769 -0.0184 -0.0981
25449SOL    HW178726   8.811   3.321   8.806  0.3398 -1.1011  0.8909
25449SOL    HW278727   8.927   3.239   8.753 -2.6478 -3.5092 -2.3939
25450SOL     OW78728  10.287   2.472   5.960  0.4897  0.4356  0.4982
25450SOL    HW178729  10.253   2.504   6.043 -1.3610  0.2565 -0.1538
25450SOL    HW278730  10.311   2.551   5.911  0.5913  0.5838  0.7871
25451SOL     OW78731   7.177   4.032   2.819 -0.0835  0.1046  0.7688
25451SOL    HW178732   7.096   4.083   2.820  0.1709  0.8742 -2.5844
25451SOL    HW278733   7.156   3.955   2.766  1.2139  0.0963  0.2205
25452SOL     OW78734   0.023   7.300   6.393  0.0133  0.1893 -0.6683
25452SOL    HW178735  -0.017   7.334   6.473 -0.9341 -0.5686 -0.8004
25452SOL    HW278736   0.106   7.262   6.421 -1.1824 -1.8229  0.3143
25453SOL     OW78737  10.231   1.991   4.032 -0.2830  0.1587 -0.5508
25453SOL    HW178738  10.271   1.935   3.966  1.1801 -0.9660  1.1881
25453SOL    HW278739  10.168   1.934   4.077  0.1134  0.3428  0.2465
25454SOL     OW78740   2.337   5.538   4.721  0.2872 -0.1954 -0.6001
25454SOL    HW178741   2.260   5.518   4.775  1.8828 -1.6567  1.2995
25454SOL    HW278742   2.304   5.538   4.632 -2.5416  2.4897  0.2645
25455SOL     OW78743   0.512   7.892   5.704  0.0064 -0.5431  0.4305
25455SOL    HW178744   0.476   7.979   5.689 -0.3837 -0.4257  1.9852
25455SOL    HW278745   0.586   7.887   5.643  0.1533  0.9434  0.4449
25456SOL     OW78746   9.807   5.020   5.419 -0.0324  0.3710 -0.1845
25456SOL    HW178747   9.835   5.109   5.443 -1.7136  0.1971  2.8916
25456SOL    HW278748   9.712   5.026   5.413 -0.1466 -1.1609 -0.3340
25457SOL     OW78749   6.870   1.859   3.171 -0.4305  0.4127 -0.0662
25457SOL    HW178750   6.916   1.800   3.111 -0.9626 -1.4139  1.2378
25457SOL    HW278751   6.901   1.833   3.258  0.0611  2.7588  0.5229
25458SOL     OW78752   5.969  10.287   7.516 -0.2914  0.2315  0.8351
25458SOL    HW178753   5.921  10.228   7.459 -0.9074  2.6026 -1.2714
25458SOL    HW278754   6.061  10.276   7.491 -0.4710  0.6262 -0.0072
25459SOL     OW78755   2.441   6.893   3.263  0.1525 -0.7386  0.4389
25459SOL    HW178756   2.408   6.889   3.173  0.5610 -1.3631  0.3100
25459SOL    HW278757   2.425   6.805   3.297 -2.6488  0.2217  1.9462
25460SOL     OW78758  10.560   7.345   7.383 -0.1583 -0.1772  0.0279
25460SOL    HW178759  10.545   7.400   7.305  1.2798 -2.1414 -1.7420
25460SOL    HW278760  10.625   7.393   7.434  1.4653 -0.3993 -1.7380
25461SOL     OW78761   1.718   7.022   5.213  0.4429  0.7216 -0.6197
25461SOL    HW178762   1.707   6.939   5.258  1.1963  1.2293  0.5442
25461SOL    HW278763   1.727   6.998   5.121  0.1505 -0.4351 -0.3648
25462SOL     OW78764   7.442   2.273  10.652  0.1163 -0.1819  0.1108
25462SOL    HW178765   7.427   2.234  10.738  0.7443  0.6809  0.6256
25462SOL    HW278766   7.475   2.361  10.671  0.0225  0.1114 -1.0154
25463SOL     OW78767   4.348   2.358   2.853  0.0533 -0.4703  0.2238
25463SOL    HW178768   4.360   2.404   2.935 -1.3600 -0.7368  0.6166
25463SOL    HW278769   4.307   2.275   2.878  1.2815 -1.3554 -0.5933
25464SOL     OW78770   5.918   2.987   4.669  0.0914 -0.2036  0.1184
25464SOL    HW178771   5.856   3.053   4.700 -0.8368 -0.6082 -0.7935
25464SOL    HW278772   5.866   2.932   4.609  1.0584 -1.2320  0.1939
25465SOL     OW78773   5.760   2.485   3.470 -0.3843 -0.2835 -0.0637
25465SOL    HW178774   5.713   2.416   3.518 -1.3139  0.4548  0.1057
25465SOL    HW278775   5.819   2.437   3.412 -1.8575 -1.2630 -0.8122
25466SOL     OW78776   9.066   3.626   0.986  0.1159  0.5588 -0.4200
25466SOL    HW178777   8.994   3.682   0.957  0.0737  1.3404  1.0670
25466SOL    HW278778   9.028   3.574   1.058  0.6930  0.0530 -0.4713
25467SOL     OW78779   0.813   5.361   9.989 -0.2597 -0.5302 -0.1506
25467SOL    HW178780   0.870   5.334   9.917  1.9325  0.1670  1.1989
25467SOL    HW278781   0.758   5.285  10.008  2.1816 -2.3023  0.2614
25468SOL     OW78782   9.027   0.315   5.791 -0.0478  0.0400 -0.0388
25468SOL    HW178783   8.953   0.360   5.749  0.6928  0.3295 -1.0831
25468SOL    HW278784   9.048   0.243   5.731  0.0513 -0.4983  0.6245
25469SOL     OW78785   0.461   4.823   3.481  0.0527 -0.1634 -0.0534
25469SOL    HW178786   0.550   4.787   3.482  0.3498  0.5436  1.1376
25469SOL    HW278787   0.473   4.917   3.495 -0.9421 -0.2329  1.4470
25470SOL     OW78788   3.405   1.442   1.205 -0.3660  0.2341  0.1053
25470SOL    HW178789   3.380   1.350   1.196  0.2653  0.1352 -0.8149
25470SOL    HW278790   3.399   1.460   1.298 -1.0103 -0.5932  0.2348
25471SOL     OW78791   0.134   5.442   5.152 -0.2957  0.1008  0.2848
25471SOL    HW178792   0.114   5.486   5.069 -0.4308 -0.5125 -0.0092
25471SOL    HW278793   0.118   5.349   5.135  2.1265 -0.3667  0.2240
25472SOL     OW78794   3.503  10.204   2.150 -0.4775  0.6773  0.1281
25472SOL    HW178795   3.481  10.138   2.084 -0.7611  0.1855  0.7090
25472SOL    HW278796   3.592  10.231   2.128 -0.6085  0.5970 -0.5208
25473SOL     OW78797   2.936   1.631   7.912 -0.4097  0.4975  0.2561
25473SOL    HW178798   2.962   1.639   8.003  1.0889  1.4508 -0.2115
25473SOL    HW278799   2.920   1.537   7.899  2.0151 -0.0623  0.8568
25474SOL     OW78800   7.272   5.797   3.674  0.5660 -0.1068 -0.0532
25474SOL    HW178801   7.179   5.786   3.693  0.5458 -1.2609 -0.7416
25474SOL    HW278802   7.275   5.855   3.599  0.1283 -3.1393 -2.6437
25475SOL     OW78803   7.881   3.606   1.849  0.1111  0.2649  0.0193
25475SOL    HW178804   7.797   3.576   1.885  0.2751 -1.0732 -0.6390
25475SOL    HW278805   7.862   3.622   1.756  0.2320  1.4577  0.1899
25476SOL     OW78806  10.021   4.525   2.722 -0.5327 -0.6228 -0.1824
25476SOL    HW178807  10.026   4.460   2.652 -1.3077  1.2294 -2.0684
25476SOL    HW278808   9.927   4.538   2.736 -0.4053  0.4706 -0.2267
25477SOL     OW78809   8.432   9.928   1.431  0.3868 -0.2581  0.0808
25477SOL    HW178810   8.507   9.973   1.470 -0.0069  0.9374 -0.4859
25477SOL    HW278811   8.469   9.852   1.387  1.2286  0.1391  0.0871
25478SOL     OW78812   1.138   1.642   8.434  0.1893  0.2354 -0.5761
25478SOL    HW178813   1.209   1.693   8.396 -0.5905  0.9057 -1.1625
25478SOL    HW278814   1.147   1.656   8.529  0.1708  1.2274 -0.7107
25479SOL     OW78815   6.182   5.947   7.917 -0.5808 -0.3145  0.0587
25479SOL    HW178816   6.188   5.971   8.009  0.8091  0.1037 -0.1190
25479SOL    HW278817   6.157   6.028   7.872 -0.0182 -0.2154 -0.0748
25480SOL     OW78818   9.013   9.437   3.367 -0.3483 -0.2075 -0.5594
25480SOL    HW178819   9.040   9.499   3.434 -0.8440 -0.7996  0.2127
25480SOL    HW278820   9.088   9.431   3.307 -0.0401  0.6014 -0.2617
25481SOL     OW78821   7.131   7.146   0.939 -0.1671 -0.8816  0.2735
25481SOL    HW178822   7.220   7.113   0.932  0.4666  1.0834 -2.6940
25481SOL    HW278823   7.129   7.223   0.883 -3.6271 -0.5542  0.6087
25482SOL     OW78824   1.825   6.564   6.840  0.5780 -0.0164 -0.5260
25482SOL    HW178825   1.864   6.480   6.865  1.2554  0.2276 -0.7478
25482SOL    HW278826   1.827   6.564   6.744  2.0020  0.8889 -0.5257
25483SOL     OW78827   0.468   2.167   2.033  0.2719 -0.7494 -0.2143
25483SOL    HW178828   0.382   2.171   2.073  1.0111  2.5543  1.3671
25483SOL    HW278829   0.529   2.171   2.107  1.7089  1.2402 -1.3981
25484SOL     OW78830   8.083   4.078   2.316 -0.5208  0.2837  0.5943
25484SOL    HW178831   8.092   4.115   2.404 -2.1407  0.0715  0.8831
25484SOL    HW278832   8.127   4.140   2.259  1.4656 -0.0851  1.6386
25485SOL     OW78833   7.391   1.262   9.558  0.1769  0.2607 -0.2664
25485SOL    HW178834   7.449   1.232   9.487  0.9048 -1.5930  1.0240
25485SOL    HW278835   7.435   1.339   9.593  1.1118 -0.2505 -0.2697
25486SOL     OW78836   8.265   7.398   9.624 -0.1541 -0.1521  0.7630
25486SOL    HW178837   8.278   7.325   9.684  1.7760 -0.8027 -0.3678
25486SOL    HW278838   8.195   7.368   9.566  1.8278 -2.0241 -0.8710
25487SOL     OW78839   0.013   0.560   1.746 -0.6682  0.1529  0.2717
25487SOL    HW178840  -0.030   0.575   1.830  1.5499  0.8160  1.3761
25487SOL    HW278841   0.043   0.470   1.749  0.4920  0.5418  0.7464
25488SOL     OW78842   7.316   5.103   3.543 -0.3133 -0.1343 -0.4734
25488SOL    HW178843   7.348   5.082   3.631 -0.7540  0.0955 -0.2558
25488SOL    HW278844   7.374   5.054   3.484 -1.7549 -2.6420  0.0313
25489SOL     OW78845   2.906   8.119   7.424 -0.0621 -0.0381  0.0144
25489SOL    HW178846   2.864   8.039   7.457  0.5996 -0.3048  0.2248
25489SOL    HW278847   2.938   8.095   7.337 -0.1423  0.0958 -0.0525
25490SOL     OW78848   8.103   0.014   9.194 -0.1254 -0.0728 -0.0798
25490SOL    HW178849   8.046  -0.048   9.148 -0.5068 -0.6162  1.0656
25490SOL    HW278850   8.173  -0.040   9.230  1.4803  0.6662 -1.9378
25491SOL     OW78851   7.306   9.256   3.547 -0.0398 -0.8200 -0.0845
25491SOL    HW178852   7.211   9.269   3.542 -0.1555 -1.5889 -0.0652
25491SOL    HW278853   7.342   9.325   3.492 -0.5163  0.4797  1.1700
25492SOL     OW78854  10.543   2.592   8.106  0.0302 -0.4989 -0.2826
25492SOL    HW178855  10.522   2.648   8.031  1.3820 -1.1429 -1.1971
25492SOL    HW278856  10.631   2.621   8.132  1.1449 -2.7059 -1.3453
25493SOL     OW78857   7.487   7.252   9.670  0.0716 -0.1863  0.2093
25493SOL    HW178858   7.503   7.214   9.584  0.9037 -1.6553  0.9621
25493SOL    HW278859   7.556   7.317   9.682 -0.1746  0.1736 -0.3086
25494SOL     OW78860   1.351   2.157   4.538 -0.7736 -0.8812  0.0245
25494SOL    HW178861   1.412   2.118   4.475 -0.4543 -1.8725  0.9231
25494SOL    HW278862   1.358   2.101   4.616 -0.4608  0.8510  1.2956
25495SOL     OW78863   2.121  10.528   9.348  0.0636  0.8490 -0.0125
25495SOL    HW178864   2.103  10.495   9.436  0.2961  2.2994  0.6001
25495SOL    HW278865   2.209  10.565   9.353  0.2809  0.5186 -1.0016
25496SOL     OW78866  10.578   0.591   2.383 -0.2874  0.0197  0.0306
25496SOL    HW178867  10.647   0.622   2.441 -0.1295 -1.4442  0.6485
25496SOL    HW278868  10.534   0.671   2.354  1.6835  0.9933 -0.4454
25497SOL     OW78869  10.615   8.380   7.941  0.4774 -0.8488 -0.0424
25497SOL    HW178870  10.554   8.340   7.879  0.1209  0.9147 -0.8925
25497SOL    HW278871  10.662   8.306   7.980 -1.5000 -2.2041 -0.0723
25498SOL     OW78872   3.152   3.753   3.091 -0.0842  0.2193 -0.0684
25498SOL    HW178873   3.091   3.760   3.017 -0.1787  0.8608  0.0646
25498SOL    HW278874   3.156   3.660   3.110 -0.0896  0.0510 -0.8633
25499SOL     OW78875   8.098  10.129   6.464 -0.5152  0.6909  0.2804
25499SOL    HW178876   8.129  10.067   6.532 -0.2477  1.8275  1.2268
25499SOL    HW278877   8.019  10.168   6.502 -1.7086 -0.3358 -1.0647
25500SOL     OW78878  10.779   9.679   0.217 -0.2256 -0.0156  0.3261
25500SOL    HW178879  10.807   9.654   0.129 -1.6858 -0.6706  0.0116
25500SOL    HW278880  10.717   9.751   0.202 -0.4428 -0.0963  0.8287
25501SOL     OW78881   8.895   7.452   4.714 -0.1946 -0.9313 -0.4272
25501SOL    HW178882   8.933   7.469   4.801  0.7317 -1.7953 -0.6464
25501SOL    HW278883   8.964   7.406   4.666 -0.0837  0.9336 -2.1813
25502SOL     OW78884   0.948   0.779   2.998  0.2294  0.0282  0.1179
25502SOL    HW178885   0.882   0.716   2.969 -0.7235  0.2874  1.6328
25502SOL    HW278886   1.022   0.725   3.027 -0.1953 -0.3694  0.4828
25503SOL     OW78887   1.280   2.318   3.906  0.4015 -0.5117  0.0066
25503SOL    HW178888   1.308   2.301   3.816 -1.2116  0.3487 -0.6905
25503SOL    HW278889   1.355   2.361   3.946  0.9263 -0.3392 -1.1156
25504SOL     OW78890   4.495   1.155   0.950 -0.2006  0.2801 -0.3674
25504SOL    HW178891   4.512   1.223   0.885  2.3254 -0.2454 -0.3411
25504SOL    HW278892   4.511   1.072   0.904  1.0180 -0.1157  0.6869
25505SOL     OW78893  10.085   2.424   1.344  0.9287 -0.3144  0.0706
25505SOL    HW178894  10.101   2.518   1.337  0.5027 -0.1490  1.1085
25505SOL    HW278895  10.031   2.403   1.267 -0.4350  0.6419  0.7314
25506SOL     OW78896   9.099   7.026   5.872  0.5280 -0.1711  0.0928
25506SOL    HW178897   9.186   7.048   5.905 -0.9668  1.2386  3.5938
25506SOL    HW278898   9.072   6.950   5.925 -0.3749 -0.6125 -0.9631
25507SOL     OW78899   4.762   5.566   9.196  0.4042  0.2862 -0.4401
25507SOL    HW178900   4.685   5.618   9.220  1.7637  2.3380 -0.3015
25507SOL    HW278901   4.795   5.534   9.280  0.6108  0.7554 -0.3401
25508SOL     OW78902   4.550   5.911   4.348 -0.3475 -0.4176  0.0698
25508SOL    HW178903   4.504   5.856   4.412 -0.1318  0.5559  1.0971
25508SOL    HW278904   4.482   5.970   4.315 -0.7280 -1.6794 -1.5177
25509SOL     OW78905   8.926   0.256   4.001 -0.0773  0.0154  0.2616
25509SOL    HW178906   9.005   0.277   3.951 -0.3779  0.5907  0.0307
25509SOL    HW278907   8.922   0.160   3.999 -0.4767  0.0367 -1.4322
25510SOL     OW78908   5.804   5.823   0.947 -0.3063 -0.3876 -0.2306
25510SOL    HW178909   5.834   5.848   0.860  2.3060  0.7644  0.8887
25510SOL    HW278910   5.739   5.889   0.971  0.9170  0.8838 -0.3105
25511SOL     OW78911   5.571   9.731   3.639 -0.0626 -0.1545  0.1371
25511SOL    HW178912   5.607   9.655   3.685  1.7779 -0.4061 -1.5589
25511SOL    HW278913   5.524   9.693   3.564  1.8741  0.3132 -1.4056
25512SOL     OW78914   1.691   5.877   6.501 -0.4200 -0.3851  0.0554
25512SOL    HW178915   1.704   5.807   6.437  1.7732 -1.3484  1.4094
25512SOL    HW278916   1.780   5.902   6.527 -1.1664 -0.9077  3.5830
25513SOL     OW78917  10.053   8.478   1.723 -0.1992  0.7549  0.0596
25513SOL    HW178918   9.999   8.553   1.747 -0.4910 -0.0182  1.9799
25513SOL    HW278919  10.087   8.500   1.637 -1.1763  2.5880  0.0933
25514SOL     OW78920   2.099   0.987   5.838  0.1784  0.4932  0.2067
25514SOL    HW178921   2.076   0.895   5.848  1.7360  0.0769  0.2983
25514SOL    HW278922   2.165   0.988   5.769 -1.2170  1.8021 -1.1831
25515SOL     OW78923   0.770   4.559   1.639  0.3105 -0.8659 -0.4646
25515SOL    HW178924   0.687   4.542   1.595  0.7227  1.6034 -2.4299
25515SOL    HW278925   0.779   4.488   1.702 -2.4992 -2.0939 -1.2998
25516SOL     OW78926   9.446   8.783   5.516 -0.0626  0.4719  0.1504
25516SOL    HW178927   9.520   8.817   5.566  0.4318 -0.5375  0.1227
25516SOL    HW278928   9.416   8.707   5.566 -0.3727  0.2165 -0.4176
25517SOL     OW78929   6.352   2.968   5.820  0.0371 -0.3639 -0.1331
25517SOL    HW178930   6.307   2.934   5.897  1.5631 -2.4526 -0.0545
25517SOL    HW278931   6.377   2.890   5.771 -0.6185  0.9098 -2.6154
25518SOL     OW78932   1.478   0.084   0.723 -0.1709 -0.3501 -0.0996
25518SOL    HW178933   1.473  -0.011   0.726  1.1372 -0.4190  1.0281
25518SOL    HW278934   1.494   0.105   0.631 -0.1294 -1.2295 -0.3006
25519SOL     OW78935  10.146  10.738   3.843 -0.1181  0.4471 -0.5013
25519SOL    HW178936  10.191  10.702   3.919  0.5011  1.0187 -0.5843
25519SOL    HW278937  10.160  10.674   3.774  0.0143  0.3129 -0.3525
25520SOL     OW78938   4.082  10.047   1.580  0.2495  0.1115  0.1177
25520SOL    HW178939   4.135  10.034   1.501 -0.1134 -0.6385 -0.0039
25520SOL    HW278940   4.059  10.140   1.577 -0.4266 -0.0638 -1.0975
25521SOL     OW78941  10.647   6.931   7.053  0.1695  0.5115  0.1967
25521SOL    HW178942  10.668   6.962   7.140  1.1400 -1.8149  0.8731
25521SOL    HW278943  10.707   6.978   6.995  1.9493 -0.3870  1.2270
25522SOL     OW78944   4.806   7.915  10.726 -0.3815 -0.2318  0.3451
25522SOL    HW178945   4.736   7.977  10.707 -1.5635 -0.6674  2.8443
25522SOL    HW278946   4.779   7.872  10.807  2.3367 -1.1406  0.8892
25523SOL     OW78947   5.759   7.737   5.030 -0.3412  0.0665  0.2696
25523SOL    HW178948   5.668   7.764   5.037 -0.2479  0.9120 -1.2454
25523SOL    HW278949   5.792   7.786   4.954  1.1977 -0.6898  0.4200
25524SOL     OW78950   4.763   2.125   8.999 -0.1543 -0.0918 -0.5824
25524SOL    HW178951   4.687   2.092   8.950 -0.7566  2.7922 -1.7866
25524SOL    HW278952   4.835   2.120   8.937 -0.2735  0.8224 -0.8143
25525SOL     OW78953   5.395   7.383   4.048  0.1908 -0.7059 -0.3008
25525SOL    HW178954   5.339   7.460   4.044  0.6163 -0.2750  1.4174
25525SOL    HW278955   5.368   7.336   4.126  1.1701 -1.3192 -0.3066
25526SOL     OW78956   3.809   8.888   2.243  0.0437 -0.0151  0.1110
25526SOL    HW178957   3.834   8.810   2.195 -0.4044  0.2816 -0.6292
25526SOL    HW278958   3.858   8.883   2.325  0.7857 -0.5562 -0.3544
25527SOL     OW78959  10.050   5.884   3.907  0.2417 -0.0248 -0.0513
25527SOL    HW178960  10.085   5.958   3.857  1.0827  0.1355  0.7361
25527SOL    HW278961   9.984   5.923   3.964  1.8948  0.4764  1.6234
25528SOL     OW78962   9.233   9.289   4.111  0.1331  0.4171  0.2333
25528SOL    HW178963   9.183   9.370   4.106 -0.7128  0.1456  2.8316
25528SOL    HW278964   9.179   9.224   4.065 -0.6477  0.7012  0.7347
25529SOL     OW78965   0.186  10.140   4.878  0.1384 -0.6227  0.2661
25529SOL    HW178966   0.172  10.234   4.893 -0.8449 -0.8975  1.1967
25529SOL    HW278967   0.251  10.137   4.808 -1.3898  0.7621 -1.3132
25530SOL     OW78968   2.929   6.515   5.718  0.4684 -0.1311 -0.2683
25530SOL    HW178969   2.874   6.447   5.757 -1.7472  1.8134  0.2362
25530SOL    HW278970   3.010   6.513   5.769 -0.5234 -0.7719  1.3383
25531SOL     OW78971   6.709   1.822   1.107 -0.0918 -0.5881 -0.1392
25531SOL    HW178972   6.797   1.851   1.129 -1.0904  1.4099  1.5897
25531SOL    HW278973   6.700   1.840   1.013  1.1446 -0.3398 -0.2227
25532SOL     OW78974   7.560   4.612   1.408 -0.2171 -0.2010  0.6410
25532SOL    HW178975   7.513   4.691   1.438 -2.0942 -1.7374  1.9804
25532SOL    HW278976   7.556   4.616   1.313 -1.3228  0.7494  0.7044
25533SOL     OW78977   7.953   7.559   7.891  0.1239  0.5180 -0.2859
25533SOL    HW178978   7.911   7.644   7.907 -1.4198 -0.4871  1.4183
25533SOL    HW278979   7.946   7.546   7.797 -2.4933  0.9039 -0.2220
25534SOL     OW78980   4.936   6.879   6.561 -0.4698 -0.3837  0.7331
25534SOL    HW178981   5.014   6.861   6.509  0.7120  1.9068  1.5804
25534SOL    HW278982   4.866   6.891   6.496  1.0022  2.6273 -0.4889
25535SOL     OW78983   6.958   7.513   9.581 -0.5753 -0.1302  0.4297
25535SOL    HW178984   6.918   7.427   9.589 -0.6004 -0.2010 -0.3333
25535SOL    HW278985   6.884   7.573   9.573 -0.5687 -0.2889 -1.2452
25536SOL     OW78986   1.435   4.310   3.929  0.0940 -0.2647  0.0517
25536SOL    HW178987   1.457   4.229   3.883 -0.4396 -0.4097  0.0361
25536SOL    HW278988   1.379   4.358   3.868  0.2548  0.0292  0.1345
25537SOL     OW78989   8.412   6.312   4.294  0.5677  0.0556  0.0657
25537SOL    HW178990   8.443   6.239   4.347 -1.3213  0.1709  1.3971
25537SOL    HW278991   8.383   6.272   4.212 -0.2650 -0.6728  0.7061
25538SOL     OW78992   3.583   1.638   4.211 -0.2640  0.1923  0.3656
25538SOL    HW178993   3.522   1.648   4.284 -1.4171  0.6054 -0.6288
25538SOL    HW278994   3.534   1.590   4.144  0.5509  0.3760 -0.3856
25539SOL     OW78995   8.426   0.846  10.782  0.1820 -0.2594  0.1065
25539SOL    HW178996   8.393   0.832  10.871  0.2973 -0.1940  0.1599
25539SOL    HW278997   8.506   0.897  10.794  0.3272 -0.4581 -0.0201
25540SOL     OW78998   4.322   8.054   3.387 -0.6481 -0.5121  0.3359
25540SOL    HW178999   4.392   7.997   3.359 -1.4500 -1.3598  0.0161
25540SOL    HW279000   4.316   8.121   3.319 -1.3652 -1.4995 -0.5945
25541SOL     OW79001  10.489   9.986   9.789 -0.3200  0.0689  0.2631
25541SOL    HW179002  10.496  10.066   9.737  0.9785  0.1028  0.4751
25541SOL    HW279003  10.430   9.930   9.738 -0.6588  0.8632 -0.2480
25542SOL     OW79004   6.541   3.970   2.161 -0.3245  0.2115 -0.7273
25542SOL    HW179005   6.498   4.042   2.206 -0.8962 -0.5780  0.0242
25542SOL    HW279006   6.627   4.004   2.135 -0.9981  1.4861 -1.3394
25543SOL     OW79007   3.896   7.379   1.776 -0.0907  0.0269 -0.5531
25543SOL    HW179008   3.860   7.291   1.788 -0.4690  0.1964 -0.4439
25543SOL    HW279009   3.953   7.371   1.699  1.9571 -0.9516  0.9495
25544SOL     OW79010   0.010  10.558   6.867 -0.6015 -0.0296 -0.5026
25544SOL    HW179011  -0.083  10.553   6.888 -0.1029 -1.8279  1.6389
25544SOL    HW279012   0.025  10.485   6.807 -0.5778  0.3340 -0.9452
25545SOL     OW79013   9.552   9.924  10.142 -0.0632  0.5102 -0.5735
25545SOL    HW179014   9.589   9.907  10.055  0.6299  2.1395 -0.6456
25545SOL    HW279015   9.458   9.909  10.131 -0.3758  3.0143 -2.3303
25546SOL     OW79016   7.976   1.360   5.393  0.0818  0.0882  0.2463
25546SOL    HW179017   7.938   1.447   5.398 -2.2286 -0.9094  1.9653
25546SOL    HW279018   7.997   1.337   5.483  3.4349 -0.0977 -0.4420
25547SOL     OW79019   6.933   6.501   2.466 -0.2329  0.3226  0.3432
25547SOL    HW179020   6.890   6.583   2.441  2.6655  1.8149 -0.2037
25547SOL    HW279021   6.914   6.442   2.393 -0.7431  1.1341 -0.2078
25548SOL     OW79022   6.571  10.240  10.540 -0.3032 -0.1143 -0.4161
25548SOL    HW179023   6.476  10.237  10.531 -0.5591  1.9948  0.8992
25548SOL    HW279024   6.601  10.287  10.462 -0.6644  1.6835  0.4782
25549SOL     OW79025  10.081   2.226   0.815  0.3677 -0.9641  0.0972
25549SOL    HW179026  10.176   2.237   0.818  0.3142 -0.5646  0.3518
25549SOL    HW279027  10.050   2.257   0.900 -0.0823 -0.1505 -0.3465
25550SOL     OW79028   9.283   1.856   1.269 -0.8080  0.0738  0.5308
25550SOL    HW179029   9.335   1.822   1.196  0.0482  0.1499  1.0817
25550SOL    HW279030   9.317   1.811   1.346 -0.6613  1.0803  1.0825
25551SOL     OW79031   1.567   6.938   0.188 -0.7504  0.0363 -0.5727
25551SOL    HW179032   1.582   6.877   0.116  1.6942 -0.8161  0.5650
25551SOL    HW279033   1.594   7.023   0.153  0.0605 -0.3027 -0.8033
25552SOL     OW79034   7.427   4.705   7.408  0.6084 -0.0550  0.0797
25552SOL    HW179035   7.396   4.676   7.322  0.3670  1.5913 -0.4261
25552SOL    HW279036   7.430   4.801   7.401  0.7722  0.0957  1.8504
25553SOL     OW79037   5.366   0.152   7.993 -0.1043 -0.1464  0.3712
25553SOL    HW179038   5.440   0.126   8.047 -1.1487  1.1340  2.5292
25553SOL    HW279039   5.294   0.166   8.055 -1.4026  1.3038 -1.3497
25554SOL     OW79040   2.402   0.606   6.865 -0.0342  0.1818  0.3520
25554SOL    HW179041   2.315   0.569   6.880  0.1563 -0.7624 -0.7229
25554SOL    HW279042   2.462   0.535   6.889  0.4014  0.4071 -0.0544
25555SOL     OW79043   4.229   4.539   1.848  0.1043 -0.2552  0.5745
25555SOL    HW179044   4.179   4.489   1.784  0.8019 -1.0360  0.6228
25555SOL    HW279045   4.321   4.517   1.830  0.3481  0.0212  1.4190
25556SOL     OW79046   6.052  10.398   1.570 -0.0303 -0.2212  0.5536
25556SOL    HW179047   6.006  10.327   1.614 -0.7575 -0.9301 -1.2362
25556SOL    HW279048   6.025  10.390   1.478  1.6238  0.9944 -0.0831
25557SOL     OW79049   5.464   2.177   7.253 -0.3110 -0.7406  0.1397
25557SOL    HW179050   5.397   2.161   7.319 -1.0670 -2.5322 -0.9897
25557SOL    HW279051   5.423   2.237   7.191  0.0182  0.0966  0.7231
25558SOL     OW79052   9.137   4.063   4.003  0.4668 -0.3473 -0.0957
25558SOL    HW179053   9.102   4.008   3.933 -2.1443 -1.2681  1.7815
25558SOL    HW279054   9.205   4.010   4.044 -1.0502 -1.6992  0.7952
25559SOL     OW79055  10.078   0.126   1.811  0.4539  0.2579 -0.0601
25559SOL    HW179056  10.096   0.074   1.890  0.8029  1.0521  0.3894
25559SOL    HW279057   9.983   0.120   1.800  0.7120 -2.8611 -1.6855
25560SOL     OW79058   7.580   5.317   6.861 -0.2382 -1.0526 -0.1525
25560SOL    HW179059   7.577   5.393   6.919 -0.6552  0.7039 -2.3741
25560SOL    HW279060   7.512   5.259   6.895 -1.6317  0.6833  0.1460
25561SOL     OW79061   3.691   0.047   4.444 -0.2353 -0.8080 -0.0249
25561SOL    HW179062   3.637   0.079   4.516 -0.3252 -1.1699  0.0707
25561SOL    HW279063   3.684   0.114   4.376  0.1068 -0.3092  0.4273
25562SOL     OW79064   3.414   8.159   1.407  0.4878  0.1927 -0.2864
25562SOL    HW179065   3.477   8.214   1.454  0.4986 -0.2442  0.2213
25562SOL    HW279066   3.465   8.115   1.339  0.2015  1.9707 -1.7423
25563SOL     OW79067   6.629   4.740   1.103  0.9982 -0.3374 -0.7544
25563SOL    HW179068   6.650   4.784   1.186 -0.3521  0.5603 -0.8542
25563SOL    HW279069   6.544   4.776   1.078  0.6763 -1.7407 -1.7636
25564SOL     OW79070   2.672   3.156   9.265 -0.3537 -0.2175  0.6753
25564SOL    HW179071   2.668   3.096   9.191  2.7945 -0.0268  0.1814
25564SOL    HW279072   2.740   3.220   9.240  1.7276 -0.8013  4.0838
25565SOL     OW79073   4.213  10.019   1.798 -0.1145 -1.0768  0.1059
25565SOL    HW179074   4.158  10.025   1.719 -0.8430  0.6420  0.6970
25565SOL    HW279075   4.165   9.961   1.857 -0.5564 -0.7881  0.0354
25566SOL     OW79076   0.584   1.544   4.054  0.0223  0.5531 -0.0761
25566SOL    HW179077   0.574   1.540   3.959 -0.4408 -0.5546  0.0041
25566SOL    HW279078   0.670   1.506   4.070 -0.7066 -1.1034  0.0671
25567SOL     OW79079   4.859   4.249   0.743 -0.3875  0.4979 -0.7115
25567SOL    HW179080   4.805   4.327   0.759 -1.4753 -0.4250  0.2686
25567SOL    HW279081   4.810   4.177   0.783  1.5328 -0.3971  0.1496
25568SOL     OW79082   5.847   0.268   0.980  0.2825 -0.5970  0.2811
25568SOL    HW179083   5.817   0.296   1.066 -0.1710  0.7807 -0.2957
25568SOL    HW279084   5.800   0.186   0.964 -0.2108 -0.4670  1.0125
25569SOL     OW79085   7.926   0.429   8.014  0.3408  0.5125  0.0666
25569SOL    HW179086   8.019   0.435   8.037  0.1477  2.2403  0.5654
25569SOL    HW279087   7.902   0.518   7.987 -1.4828  0.4438  1.2726
25570SOL     OW79088   3.536   2.014   4.454  0.0990  0.0596  0.0554
25570SOL    HW179089   3.558   2.037   4.544  2.5645  0.4391 -0.5927
25570SOL    HW279090   3.497   2.093   4.418  0.3848  0.3543  0.3907
25571SOL     OW79091   0.232   8.886   7.138 -0.6465 -0.1920 -0.0756
25571SOL    HW179092   0.257   8.958   7.080 -2.6571  0.5262 -0.1609
25571SOL    HW279093   0.243   8.807   7.085 -0.6365  0.2771 -0.7858
25572SOL     OW79094   6.992   3.114   0.257 -0.0451  0.1451 -0.4302
25572SOL    HW179095   6.900   3.137   0.265  0.0328  0.9563 -1.5728
25572SOL    HW279096   7.032   3.143   0.339 -0.5704  0.9968 -0.4690
25573SOL     OW79097   5.193   2.479   2.771  0.5780 -0.9004 -0.9524
25573SOL    HW179098   5.102   2.492   2.744  0.5748 -0.7865 -0.8869
25573SOL    HW279099   5.214   2.390   2.743  0.3706 -1.0108 -0.7521
25574SOL     OW79100   9.231   0.449   9.011 -0.5075  0.2364  0.2332
25574SOL    HW179101   9.202   0.535   8.978  0.0925 -0.2404 -1.6613
25574SOL    HW279102   9.290   0.416   8.943 -0.1295 -1.3566  1.2886
25575SOL     OW79103   3.711   4.814   1.497  0.1023 -0.4816  0.2325
25575SOL    HW179104   3.648   4.744   1.514  0.4353 -0.5351  1.3524
25575SOL    HW279105   3.761   4.820   1.578  1.3194 -0.2185 -0.5183
25576SOL     OW79106   9.648  10.308   4.795 -0.1363  0.1459 -0.2174
25576SOL    HW179107   9.740  10.302   4.771  0.5219  0.6075  1.9059
25576SOL    HW279108   9.607  10.231   4.756  1.9688 -2.2626  1.8998
25577SOL     OW79109   1.540   3.933   8.067  0.2687 -0.0242  0.9109
25577SOL    HW179110   1.577   3.852   8.104 -0.0091  0.8344  3.2365
25577SOL    HW279111   1.568   4.001   8.127 -1.3597  1.3036  0.2328
25578SOL     OW79112   4.715   6.346   1.371  0.0963 -0.0868  0.1654
25578SOL    HW179113   4.760   6.312   1.294  0.7592  0.5801  0.2433
25578SOL    HW279114   4.732   6.282   1.439 -1.8113 -1.5106 -0.5889
25579SOL     OW79115   1.454   5.313   6.802  0.2375  0.7105  0.4555
25579SOL    HW179116   1.468   5.242   6.864 -0.8365  1.4584  1.5946
25579SOL    HW279117   1.360   5.327   6.802  0.3834  1.8107 -0.1127
25580SOL     OW79118   2.921   8.505   3.161  0.1090  0.5150  0.5248
25580SOL    HW179119   2.888   8.574   3.219 -0.5411  0.6566  0.0034
25580SOL    HW279120   2.866   8.512   3.083 -1.4994 -2.0230  1.3063
25581SOL     OW79121   3.938   4.952   1.044  0.3503  0.1035  0.3016
25581SOL    HW179122   3.945   4.891   0.971 -0.6872 -1.0643  1.1391
25581SOL    HW279123   3.916   5.036   1.003 -0.9944 -0.6889 -0.7073
25582SOL     OW79124   6.770   1.574   7.586 -0.0204 -0.0349 -0.0096
25582SOL    HW179125   6.822   1.508   7.539  0.2146 -0.6218  1.0540
25582SOL    HW279126   6.799   1.567   7.677 -1.2716  0.3032  0.4336
25583SOL     OW79127   3.517   9.050   3.203 -0.6971  0.5500  0.0787
25583SOL    HW179128   3.433   9.042   3.248 -0.2051  0.5966  1.0346
25583SOL    HW279129   3.579   9.074   3.272  0.2786 -0.3881 -0.4407
25584SOL     OW79130   7.633   0.075   7.934 -0.6392  0.0388 -0.1872
25584SOL    HW179131   7.666   0.077   8.024  0.9528 -2.2883 -0.6444
25584SOL    HW279132   7.651   0.163   7.900 -0.2400  0.6027  1.4134
25585SOL     OW79133   8.949   6.251   5.879 -0.4207  0.2856  0.1063
25585SOL    HW179134   8.966   6.250   5.785  0.1403 -0.4665  0.1981
25585SOL    HW279135   8.854   6.251   5.887 -0.4858  1.4753 -0.4530
25586SOL     OW79136   8.539   4.965   2.561  0.2551  0.9698 -0.3271
25586SOL    HW179137   8.605   5.034   2.564  1.1184  0.1387  0.5881
25586SOL    HW279138   8.485   4.981   2.638  0.8005  0.3155  0.2036
25587SOL     OW79139   8.054   5.460   1.368 -0.5245  0.3473 -0.5579
25587SOL    HW179140   8.009   5.444   1.285  2.2800  0.5020 -2.2421
25587SOL    HW279141   8.126   5.397   1.368 -0.9597 -0.2657  2.2591
25588SOL     OW79142   6.845   8.984   0.469  0.0719  0.2128 -0.0011
25588SOL    HW179143   6.865   8.902   0.515 -0.4205  0.1680  0.1453
25588SOL    HW279144   6.929   9.014   0.435  0.1290 -0.7953 -0.7963
25589SOL     OW79145   1.400   2.829   9.223 -0.0966  0.5143 -0.6418
25589SOL    HW179146   1.341   2.895   9.185 -1.7931  0.5480  1.8292
25589SOL    HW279147   1.441   2.873   9.297  0.9927 -0.3499 -0.7106
25590SOL     OW79148   9.491   6.739  10.749  0.1680 -0.4347  0.1642
25590SOL    HW179149   9.518   6.830  10.763 -0.1852 -0.4199  0.7940
25590SOL    HW279150   9.419   6.726  10.810 -0.4563 -0.8378 -0.6428
25591SOL     OW79151   4.184   4.291   7.654 -0.1880 -0.1683 -0.2608
25591SOL    HW179152   4.232   4.364   7.693  1.2672 -1.1857 -0.0635
25591SOL    HW279153   4.189   4.306   7.560  2.3439 -1.2775 -0.3788
25592SOL     OW79154  10.579   3.734  10.254 -0.0769 -0.2648  0.0802
25592SOL    HW179155  10.501   3.704  10.300 -0.6829  2.4588  1.0005
25592SOL    HW279156  10.608   3.811  10.303  1.7769  0.2302 -1.6541
25593SOL     OW79157   2.630   5.167   2.258 -0.1177  0.0722 -0.2301
25593SOL    HW179158   2.641   5.226   2.333  0.3059 -0.6391  0.2823
25593SOL    HW279159   2.718   5.132   2.242 -0.7297 -2.4440  1.2013
25594SOL     OW79160  10.022   7.068   2.823 -0.1745 -0.6073 -0.5263
25594SOL    HW179161  10.079   7.005   2.778 -1.9807 -3.0311  0.3516
25594SOL    HW279162  10.036   7.051   2.916  0.3861  1.4183 -0.1889
25595SOL     OW79163   8.727   5.945   8.949  0.3173  0.2971 -0.0978
25595SOL    HW179164   8.766   5.942   9.036  0.4190 -0.0638 -0.1541
25595SOL    HW279165   8.772   6.016   8.904 -0.2639  0.9933  0.3963
25596SOL     OW79166   0.131   1.890   0.917 -0.5355 -0.3165  0.1307
25596SOL    HW179167   0.218   1.874   0.880  0.0203  3.3780 -0.5750
25596SOL    HW279168   0.078   1.919   0.843 -2.2813 -1.9392  0.6654
25597SOL     OW79169   2.292   3.517   8.458 -0.0798 -0.0499  0.5809
25597SOL    HW179170   2.327   3.606   8.452 -0.2511  0.0052  0.3477
25597SOL    HW279171   2.224   3.514   8.390  1.7218 -1.1852 -1.2849
25598SOL     OW79172   5.152   8.796   7.707  0.2377  0.3641  0.3802
25598SOL    HW179173   5.116   8.871   7.658  1.6016 -0.5577 -2.2054
25598SOL    HW279174   5.087   8.727   7.695  0.7637  0.0142 -0.5362
25599SOL     OW79175   7.605   6.092   4.981 -0.5820 -0.2733  0.3194
25599SOL    HW179176   7.561   6.018   4.938  0.1159  0.2086 -1.2844
25599SOL    HW279177   7.547   6.166   4.965  0.5516  0.2751 -1.4176
25600SOL     OW79178   0.499   8.408   3.800 -0.1747  0.0184  0.0601
25600SOL    HW179179   0.505   8.381   3.892 -0.7641 -0.0497  0.0863
25600SOL    HW279180   0.421   8.463   3.797  2.2073  3.7435  0.4678
25601SOL     OW79181  10.443   1.438   3.318  0.1035 -0.3436 -0.4877
25601SOL    HW179182  10.424   1.345   3.307 -3.8319  0.4809 -2.3303
25601SOL    HW279183  10.483   1.465   3.236  2.0574 -0.5022  0.3702
25602SOL     OW79184   6.042   5.337   8.380 -0.3987  0.7193 -0.0100
25602SOL    HW179185   6.067   5.289   8.459 -0.5673  2.7688  1.3714
25602SOL    HW279186   5.996   5.273   8.327  0.7073 -1.0286  1.0166
25603SOL     OW79187   1.141   2.158   2.187  0.7804  0.0080  0.2072
25603SOL    HW179188   1.210   2.207   2.231  1.1801 -1.8909  1.8461
25603SOL    HW279189   1.187   2.102   2.125  0.9598 -2.2286  2.2274
25604SOL     OW79190   0.161   5.636  10.627  0.1874  0.1321  0.3011
25604SOL    HW179191   0.254   5.619  10.638  0.3718  1.4144  0.8395
25604SOL    HW279192   0.123   5.549  10.611  1.8899 -0.1354 -3.2983
25605SOL     OW79193   3.998   8.729   4.883  0.2827  0.5254 -0.4489
25605SOL    HW179194   4.091   8.734   4.906  0.5981  1.5495 -1.8299
25605SOL    HW279195   3.995   8.667   4.811  0.1996  1.9173 -1.6908
25606SOL     OW79196   1.664   4.829   0.918 -0.9348  0.3978 -0.1578
25606SOL    HW179197   1.709   4.804   0.837 -0.8457  1.7655 -0.5434
25606SOL    HW279198   1.628   4.746   0.951 -0.6031 -0.2523 -1.3530
25607SOL     OW79199   3.841   2.396  10.162  0.4744 -0.0377 -0.8874
25607SOL    HW179200   3.891   2.436  10.233 -0.0105  0.2344 -0.6926
25607SOL    HW279201   3.750   2.424  10.178 -0.3341 -3.0188  0.6365
25608SOL     OW79202   2.448   0.978   7.155 -0.2287  0.2510 -0.0762
25608SOL    HW179203   2.453   0.941   7.066 -1.3197 -2.5479  0.9187
25608SOL    HW279204   2.489   0.912   7.211 -0.1859  1.6449  1.6154
25609SOL     OW79205   3.231   6.907   2.605  0.0673  0.0004 -0.1221
25609SOL    HW179206   3.245   6.931   2.513  1.5257 -1.9192 -0.4605
25609SOL    HW279207   3.315   6.871   2.634 -0.9907 -1.5305  1.2557
25610SOL     OW79208   6.785   7.435   6.012 -0.1951 -0.3158 -0.0062
25610SOL    HW179209   6.861   7.401   5.966  0.4881 -0.3748  1.1212
25610SOL    HW279210   6.789   7.394   6.099 -2.0935 -1.1154 -0.2495
25611SOL     OW79211   8.304   3.526  10.172 -0.0746 -0.1346 -0.4093
25611SOL    HW179212   8.371   3.577  10.218  1.1118 -0.9337 -1.2087
25611SOL    HW279213   8.232   3.588  10.159  1.2204  1.2973 -1.1087
25612SOL     OW79214   5.511   3.677   2.115  0.1755 -0.0342  0.3409
25612SOL    HW179215   5.550   3.736   2.180  1.1703 -0.4706  0.1673
25612SOL    HW279216   5.453   3.621   2.166 -0.8711  1.1483  0.4908
25613SOL     OW79217  10.536   4.874   2.810 -0.3726 -0.3200  0.2805
25613SOL    HW179218  10.561   4.837   2.726  0.2184 -0.0491  0.3343
25613SOL    HW279219  10.509   4.798   2.862  0.6925 -0.6755  0.3432
25614SOL     OW79220   3.398   9.322   7.466 -0.3916 -0.0261  0.5006
25614SOL    HW179221   3.446   9.405   7.473 -0.9566  0.7016 -2.4513
25614SOL    HW279222   3.317   9.346   7.421 -0.2977 -2.2259 -1.0109
25615SOL     OW79223   9.211   3.543   7.622 -0.0930  0.3339 -0.3940
25615SOL    HW179224   9.133   3.493   7.598  0.7598 -0.7394 -1.0213
25615SOL    HW279225   9.284   3.485   7.600  0.8560  0.8539  1.2357
25616SOL     OW79226   4.892   7.056  10.415 -0.9503  0.0055  0.2052
25616SOL    HW179227   4.824   7.016  10.469 -1.2525  1.1081  0.6813
25616SOL    HW279228   4.863   7.147  10.403  0.3077  0.4395  0.2170
25617SOL     OW79229   1.029   7.844   0.578  0.0106 -0.7424 -0.4182
25617SOL    HW179230   1.113   7.885   0.598 -0.6971  1.4872 -1.6164
25617SOL    HW279231   0.971   7.873   0.648  0.4198 -3.1406  0.9967
25618SOL     OW79232   2.510   0.369   9.623 -0.2092 -0.0032 -0.6202
25618SOL    HW179233   2.476   0.279   9.618 -1.0635  0.3259 -0.8242
25618SOL    HW279234   2.432   0.424   9.626  0.2987  0.8261 -1.9881
25619SOL     OW79235   9.388   0.272   0.229  0.1972  0.1392 -0.7449
25619SOL    HW179236   9.482   0.273   0.210  0.6185 -1.5872  0.8598
25619SOL    HW279237   9.366   0.363   0.250  1.5906  0.5147 -0.8387
25620SOL     OW79238   2.842   2.264   8.943 -0.3091  0.0835 -0.4065
25620SOL    HW179239   2.821   2.205   8.871 -1.4562  0.4373 -0.3863
25620SOL    HW279240   2.912   2.320   8.908  0.5051 -1.0042 -0.5578
25621SOL     OW79241   4.543   4.609   6.573 -0.6573 -0.0055  0.0141
25621SOL    HW179242   4.454   4.619   6.540 -0.6405 -0.5096 -0.1940
25621SOL    HW279243   4.551   4.675   6.642 -1.6682 -0.9025  1.0138
25622SOL     OW79244   6.285  10.528   8.202 -0.3018  0.3811  0.2004
25622SOL    HW179245   6.313  10.452   8.151  0.6930  0.6889  0.2691
25622SOL    HW279246   6.217  10.569   8.149  0.2103  0.2863 -0.5371
25623SOL     OW79247   4.838   8.278   6.540  0.5551 -0.4045 -0.0436
25623SOL    HW179248   4.818   8.241   6.626  1.5671  0.2573  0.4966
25623SOL    HW279249   4.795   8.219   6.478 -2.1424  0.3568  0.9673
25624SOL     OW79250   3.612   3.433   8.063 -0.4017 -0.4996 -0.6332
25624SOL    HW179251   3.707   3.431   8.073 -0.4718 -2.3098  0.1968
25624SOL    HW279252   3.579   3.469   8.145 -0.4550 -0.4265 -0.6863
25625SOL     OW79253   6.578  10.689   5.641 -0.3572 -0.2348 -0.0076
25625SOL    HW179254   6.560  10.595   5.647  0.5959 -0.4958 -0.8041
25625SOL    HW279255   6.579  10.720   5.731 -3.3165 -0.4256  0.1681
25626SOL     OW79256   8.571   3.248   7.708 -0.2069  0.9740  0.5657
25626SOL    HW179257   8.603   3.212   7.791  0.9640  2.2947  0.7477
25626SOL    HW279258   8.476   3.253   7.718 -0.1340  0.5177  1.5768
25627SOL     OW79259   8.719   1.602   2.016  0.1623  0.6675  0.4749
25627SOL    HW179260   8.716   1.588   1.921  1.2091 -0.1411  0.5396
25627SOL    HW279261   8.633   1.575   2.048 -0.3323  1.2964 -0.2707
25628SOL     OW79262  10.393  10.710   4.327  0.3041 -0.1482  0.0086
25628SOL    HW179263  10.326  10.669   4.382 -1.7482  2.4375 -0.4065
25628SOL    HW279264  10.387  10.663   4.243 -0.4569 -0.4125  0.2077
25629SOL     OW79265  10.411   9.572   6.097  0.0210  0.4072  0.4592
25629SOL    HW179266  10.350   9.511   6.138  0.3331  0.5542  1.1631
25629SOL    HW279267  10.356   9.645   6.067  0.0105  1.3334  2.5859
25630SOL     OW79268   8.037   9.070   1.750 -0.4915  0.6340  0.2789
25630SOL    HW179269   8.113   9.091   1.694 -0.6092  0.9258  0.2268
25630SOL    HW279270   8.075   9.046   1.834 -0.3498  1.0121  0.3245
25631SOL     OW79271   5.377   4.508   6.788 -0.3167  0.7103 -0.0148
25631SOL    HW179272   5.347   4.423   6.820 -0.6809  1.1722  0.9038
25631SOL    HW279273   5.297   4.556   6.769 -0.1419  1.2625  0.5995
25632SOL     OW79274   4.863  10.718   0.793  0.3728 -0.1949 -0.5171
25632SOL    HW179275   4.783  10.770   0.796  1.2587  1.1634  0.4609
25632SOL    HW279276   4.933  10.781   0.806  1.7038 -1.2011 -2.3652
25633SOL     OW79277   3.633   4.131   8.399  0.2850 -0.0145 -0.2550
25633SOL    HW179278   3.624   4.103   8.490 -1.3113  0.2778 -0.2971
25633SOL    HW279279   3.568   4.201   8.389 -0.2243 -0.6719 -1.8571
25634SOL     OW79280   0.868   3.288   7.069 -0.1608 -0.2287  0.2938
25634SOL    HW179281   0.815   3.216   7.103  0.5504 -0.5177  0.8199
25634SOL    HW279282   0.854   3.286   6.974 -1.1170 -0.2683  0.4324
25635SOL     OW79283   1.433  10.080   7.919 -0.3449 -0.1223 -0.2846
25635SOL    HW179284   1.465  10.065   8.008 -0.6570 -1.6285 -0.4007
25635SOL    HW279285   1.511  10.102   7.869  0.0276 -0.5084  0.1169
25636SOL     OW79286   7.335   7.950   3.935 -0.7376 -0.3212  0.1946
25636SOL    HW179287   7.277   8.005   3.883  1.1434 -0.9362 -2.7875
25636SOL    HW279288   7.351   8.001   4.014 -1.7074  1.8942 -0.9343
25637SOL     OW79289   4.906   4.736   2.351  0.2729 -0.4573 -0.2056
25637SOL    HW179290   4.897   4.820   2.306  0.6083  0.4232  1.2833
25637SOL    HW279291   4.920   4.760   2.443  3.3837 -2.0254 -0.1394
25638SOL     OW79292   3.921   5.275   3.994 -0.3042 -0.5574 -0.5336
25638SOL    HW179293   3.912   5.261   3.900  1.8288  0.5645 -0.9837
25638SOL    HW279294   3.909   5.189   4.033 -0.3957 -1.1994 -1.9286
25639SOL     OW79295   2.438   5.982   3.836  0.0946  0.3117 -0.1859
25639SOL    HW179296   2.347   5.952   3.835 -0.3837  1.6809 -0.3527
25639SOL    HW279297   2.441   6.047   3.906  0.7762  0.7343 -0.5920
25640SOL     OW79298   9.022   8.237   8.056  0.0086  0.2783 -0.1965
25640SOL    HW179299   8.978   8.173   8.113  0.3553  0.2932  0.0894
25640SOL    HW279300   9.035   8.313   8.112  1.0563  0.0125 -0.0638
25641SOL     OW79301   3.120   3.263   5.167  0.1590 -0.6033  0.8567
25641SOL    HW179302   3.161   3.348   5.151  0.7583 -0.9865  0.3208
25641SOL    HW279303   3.074   3.242   5.086 -3.4418  1.0449  2.2634
25642SOL     OW79304   1.377   4.711   5.834  0.4407  0.6459  0.0364
25642SOL    HW179305   1.409   4.799   5.811 -3.6254  1.6214 -3.0827
25642SOL    HW279306   1.319   4.726   5.909  0.7492  0.3432  0.3410
25643SOL     OW79307   1.136   1.660   0.350 -0.0186 -0.1203 -0.0760
25643SOL    HW179308   1.127   1.755   0.346 -0.2827 -0.1650 -0.6450
25643SOL    HW279309   1.048   1.628   0.370 -0.4975 -0.3684 -2.2951
25644SOL     OW79310   4.029  10.503   6.317  0.0351 -0.3454  0.2502
25644SOL    HW179311   3.992  10.453   6.244 -1.1950 -0.2264  0.7761
25644SOL    HW279312   4.059  10.584   6.277 -1.2853  0.0247 -0.0202
25645SOL     OW79313  10.610   9.054   8.021 -0.3854 -0.0184 -0.2256
25645SOL    HW179314  10.532   9.033   8.072 -1.6213 -0.3059 -2.1301
25645SOL    HW279315  10.681   9.009   8.067 -2.0048 -3.5973 -0.8613
25646SOL     OW79316   8.451   5.989  10.743 -0.3036 -0.3687 -0.0947
25646SOL    HW179317   8.407   5.908  10.720  0.1141 -0.6322  0.0238
25646SOL    HW279318   8.538   5.962  10.773 -0.2379  0.1014  0.1560
25647SOL     OW79319   4.275   5.101   3.958  0.0812 -0.3900  0.0484
25647SOL    HW179320   4.228   5.026   3.994  1.4743 -2.2177 -1.6581
25647SOL    HW279321   4.365   5.069   3.947  0.9264  1.8282  0.0416
25648SOL     OW79322   3.335   0.497   7.967 -0.2329 -0.2240  0.5432
25648SOL    HW179323   3.321   0.476   7.875  0.8542 -0.3072  0.3863
25648SOL    HW279324   3.373   0.418   8.005  0.0014  0.0585  0.9035
25649SOL     OW79325   4.086   9.131   9.931 -0.0515  0.0778  0.8736
25649SOL    HW179326   4.104   9.132   9.837 -0.6549 -1.0268  0.7252
25649SOL    HW279327   4.129   9.052   9.963 -2.1142 -1.0696  1.0026
25650SOL     OW79328   1.010   4.773   0.292 -0.1249 -0.5742 -0.3407
25650SOL    HW179329   1.043   4.759   0.203 -2.0709 -4.6418 -0.6104
25650SOL    HW279330   1.069   4.721   0.347  0.7432  1.4935  0.8012
25651SOL     OW79331   6.599   3.872   6.309 -0.4489  0.7092  0.1389
25651SOL    HW179332   6.657   3.864   6.385 -0.7837 -1.5887  0.2039
25651SOL    HW279333   6.516   3.833   6.337 -1.0944  1.2495 -0.9231
25652SOL     OW79334   9.737   7.327   9.681 -0.1565  0.1156 -0.5034
25652SOL    HW179335   9.732   7.422   9.684  0.1512  0.1207 -0.0455
25652SOL    HW279336   9.738   7.306   9.587 -1.5806  0.4810 -0.6292
25653SOL     OW79337   7.999   0.356   9.632  0.2007  0.0480 -0.1403
25653SOL    HW179338   8.048   0.415   9.575 -0.9158  0.2511 -0.9379
25653SOL    HW279339   8.060   0.285   9.652  0.8032  0.2719 -1.1162
25654SOL     OW79340   7.149   9.729   0.389  0.3595  0.4146 -0.2838
25654SOL    HW179341   7.174   9.656   0.332  0.0922  0.0134  0.1078
25654SOL    HW279342   7.166   9.697   0.477  0.3852  0.8860 -0.1155
25655SOL     OW79343   5.517   3.702   0.916  0.0685  0.2828 -0.2091
25655SOL    HW179344   5.542   3.792   0.939  0.7048 -0.0013  0.2116
25655SOL    HW279345   5.587   3.647   0.950 -2.0403 -0.7630  2.9035
25656SOL     OW79346   7.523   1.128   5.493 -0.3961  0.2135 -0.7202
25656SOL    HW179347   7.525   1.222   5.478 -1.2485  0.4283  0.3550
25656SOL    HW279348   7.431   1.104   5.481  0.0209 -0.7188 -2.2421
25657SOL     OW79349   4.418   3.821   1.747  0.6686 -0.0186  0.0632
25657SOL    HW179350   4.508   3.793   1.759  0.0356 -1.3498  2.2423
25657SOL    HW279351   4.425   3.912   1.719  2.6699 -0.1781 -0.1024
25658SOL     OW79352   9.081   1.432   8.380  0.1076  0.1824  0.1046
25658SOL    HW179353   9.015   1.395   8.439  0.4398  0.1219  0.4438
25658SOL    HW279354   9.113   1.358   8.330  1.1234 -0.1003  1.1252
25659SOL     OW79355   0.087   1.378   4.368  0.0401 -0.1609 -0.2802
25659SOL    HW179356   0.095   1.364   4.273  1.3947  2.0102 -0.5721
25659SOL    HW279357   0.173   1.354   4.403 -0.4824 -1.0407  0.4384
25660SOL     OW79358  10.685   7.644   3.578  0.0426 -0.0593  0.3841
25660SOL    HW179359  10.696   7.560   3.534  1.3957 -0.0999  0.7684
25660SOL    HW279360  10.747   7.702   3.535  0.1506  0.3568  1.0858
25661SOL     OW79361   4.103   0.187   0.778 -0.2262 -0.7255 -0.3774
25661SOL    HW179362   4.068   0.229   0.699  1.2625  0.2086 -0.5711
25661SOL    HW279363   4.096   0.253   0.846  0.5230 -0.7555 -0.2620
25662SOL     OW79364   9.660   6.107   6.990 -0.5865 -0.0519  0.6095
25662SOL    HW179365   9.580   6.063   6.960 -1.1743  1.3321  0.0636
25662SOL    HW279366   9.638   6.200   6.988  1.4525  0.4675 -0.8188
25663SOL     OW79367   6.825   2.536   3.692  0.1286  0.0690  0.1916
25663SOL    HW179368   6.834   2.497   3.605  1.6215  1.6558 -0.4257
25663SOL    HW279369   6.900   2.501   3.741  0.1046  0.2981  0.3931
25664SOL     OW79370   5.970   1.970   9.832  0.6959  0.0862  0.0057
25664SOL    HW179371   5.995   2.049   9.879 -0.5888  1.2873 -1.2194
25664SOL    HW279372   5.972   1.996   9.740  0.9280 -1.5255 -0.4741
25665SOL     OW79373   7.885   3.438   1.486 -0.0855  0.1897 -0.8134
25665SOL    HW179374   7.795   3.454   1.515 -0.1837  0.5866 -1.3217
25665SOL    HW279375   7.911   3.520   1.444  1.1898  0.7577  1.0159
25666SOL     OW79376   4.858   3.677   3.980  0.5631 -0.2891 -0.0290
25666SOL    HW179377   4.863   3.678   3.884  1.6488 -1.0459  0.0049
25666SOL    HW279378   4.895   3.760   4.007  0.0028  0.0445 -0.2667
25667SOL     OW79379   5.092   3.416   1.804 -0.2049  0.7138 -0.0046
25667SOL    HW179380   5.171   3.466   1.782  0.6857  0.0007  1.4114
25667SOL    HW279381   5.124   3.337   1.847 -1.7020  0.9031  1.5882
25668SOL     OW79382   6.950   9.452   5.191  0.5747  0.3205 -0.1188
25668SOL    HW179383   6.971   9.534   5.144  0.9778 -1.3718 -3.1906
25668SOL    HW279384   6.877   9.415   5.141  0.7209 -1.4375  0.9204
25669SOL     OW79385   5.905   4.241  10.770 -0.2488 -0.0897  0.2288
25669SOL    HW179386   5.926   4.193  10.851  0.2845  0.2683  0.3000
25669SOL    HW279387   5.972   4.214  10.708 -0.4845 -0.1331 -0.0085
25670SOL     OW79388   1.296   5.708   3.145 -0.5685  0.8335  0.3079
25670SOL    HW179389   1.208   5.688   3.114  0.0633  0.0086 -1.0375
25670SOL    HW279390   1.334   5.623   3.167  0.9689  0.7690 -2.2063
25671SOL     OW79391   9.594   9.305   9.000 -0.6039 -0.1306 -0.4715
25671SOL    HW179392   9.633   9.247   8.936 -0.3643  1.0459 -1.4352
25671SOL    HW279393   9.501   9.311   8.975 -1.0930 -1.6418  0.8357
25672SOL     OW79394   9.869   5.908   9.267 -0.2951  0.3364 -0.3055
25672SOL    HW179395   9.853   5.819   9.298 -0.9780  0.0016 -1.5702
25672SOL    HW279396   9.863   5.903   9.172 -1.1500  1.8799 -0.3746
25673SOL     OW79397   1.380   2.459   6.577 -0.1540 -0.1341  0.3618
25673SOL    HW179398   1.468   2.479   6.544 -0.0212  1.0505  1.3738
25673SOL    HW279399   1.395   2.407   6.656 -0.4817 -3.7385 -1.6935
25674SOL     OW79400   5.974   8.000   9.534 -0.3372  0.7069 -0.1264
25674SOL    HW179401   5.918   7.924   9.518  0.0452  0.4755 -0.3969
25674SOL    HW279402   6.022   8.012   9.452  1.9692 -0.7418  0.9190
25675SOL     OW79403   7.338   3.653   0.969  0.0232  0.6504 -0.4175
25675SOL    HW179404   7.294   3.595   1.032 -1.9707  1.1751 -1.2658
25675SOL    HW279405   7.391   3.711   1.023 -1.6689  1.1158  0.8305
25676SOL     OW79406   7.020   2.171   2.446 -0.1482  0.5332  0.1914
25676SOL    HW179407   6.968   2.233   2.394 -0.0442  0.1104 -0.4251
25676SOL    HW279408   7.074   2.125   2.382  1.1909  1.1379  0.8522
25677SOL     OW79409   0.560   3.836   0.164 -0.5004  0.2008  0.5382
25677SOL    HW179410   0.502   3.843   0.239  0.5424  0.0373  1.3791
25677SOL    HW279411   0.571   3.742   0.150  3.4796 -0.0489  3.6006
25678SOL     OW79412   8.396   4.400   8.044 -0.0521 -0.3323 -0.4979
25678SOL    HW179413   8.306   4.426   8.025 -0.5952 -0.3033  1.7680
25678SOL    HW279414   8.395   4.304   8.043  0.0958 -0.3307 -1.2445
25679SOL     OW79415  10.266   2.308   9.693  0.0260 -0.5125 -0.0001
25679SOL    HW179416  10.335   2.249   9.663  0.6736  0.2557 -0.0622
25679SOL    HW279417  10.189   2.252   9.703 -0.1250 -0.9337 -2.6621
25680SOL     OW79418   9.097   2.078   8.665 -0.0548 -0.0049 -0.2624
25680SOL    HW179419   9.007   2.058   8.640 -0.5768  0.6904  0.9915
25680SOL    HW279420   9.089   2.150   8.727  1.2786 -0.6420  0.6936
25681SOL     OW79421   0.608   0.350   5.818  0.1263  0.6236 -0.2248
25681SOL    HW179422   0.536   0.288   5.822 -1.0553  2.0033  2.7998
25681SOL    HW279423   0.678   0.309   5.870  0.6621  0.3393 -1.1499
25682SOL     OW79424   0.348   6.413   2.176  0.1071 -0.0026 -0.4720
25682SOL    HW179425   0.437   6.445   2.192  0.3047 -0.7991  0.1242
25682SOL    HW279426   0.311   6.401   2.263  0.0501 -1.3495 -0.6581
25683SOL     OW79427   5.924   4.494   8.860 -0.7227 -0.0743 -0.2882
25683SOL    HW179428   6.003   4.545   8.878 -0.0581 -0.7935 -1.1129
25683SOL    HW279429   5.954   4.404   8.853 -1.7633 -0.4856  0.3115
25684SOL     OW79430   8.476   8.327   1.714  0.5894  0.1160  0.1076
25684SOL    HW179431   8.560   8.281   1.717  0.6631  0.2538  0.1382
25684SOL    HW279432   8.445   8.314   1.625 -0.4293 -1.8617  0.6907
25685SOL     OW79433   5.593   7.224   1.569 -0.4418  0.0583 -0.3264
25685SOL    HW179434   5.503   7.230   1.600 -0.9280 -1.4607 -1.3419
25685SOL    HW279435   5.618   7.133   1.586  1.0810  0.5634  0.3507
25686SOL     OW79436   7.144   9.255   9.854 -0.4342  0.4205 -0.2050
25686SOL    HW179437   7.214   9.201   9.815  0.6760  0.4992  1.5836
25686SOL    HW279438   7.064   9.206   9.837  0.4153 -1.2502  0.3492
25687SOL     OW79439   7.982   8.707   6.074 -0.1612 -0.0523 -0.5731
25687SOL    HW179440   7.993   8.785   6.020 -1.0064 -0.5517 -1.4815
25687SOL    HW279441   7.907   8.727   6.130 -1.6955 -0.9887 -2.2462
25688SOL     OW79442   1.876   2.015   4.394 -0.5216 -0.0497 -0.2298
25688SOL    HW179443   1.915   1.939   4.437 -2.2070 -0.5219  0.5767
25688SOL    HW279444   1.822   1.977   4.324 -1.0541  0.4249 -0.0807
25689SOL     OW79445   8.729   1.580   1.743 -1.1411  0.4880  0.5309
25689SOL    HW179446   8.805   1.542   1.699 -1.0205 -0.3553  1.4218
25689SOL    HW279447   8.653   1.538   1.702 -1.0325 -0.2339  1.0537
25690SOL     OW79448   3.563   6.783   8.597  0.4146  0.2061  0.6203
25690SOL    HW179449   3.573   6.710   8.659 -0.5968  0.1839  0.7656
25690SOL    HW279450   3.558   6.861   8.652  2.5489  0.5441  0.4305
25691SOL     OW79451   9.435   1.790   5.119 -0.3773 -0.1023 -0.3650
25691SOL    HW179452   9.383   1.843   5.178 -1.8706 -0.7029 -1.0674
25691SOL    HW279453   9.427   1.834   5.034 -0.4744 -0.6776 -0.6595
25692SOL     OW79454  10.004   0.663   9.388 -0.1943  0.9420  0.8623
25692SOL    HW179455  10.006   0.569   9.373  0.6097  0.7454  2.0944
25692SOL    HW279456  10.062   0.699   9.320  0.8751  0.3773  1.4483
25693SOL     OW79457   6.244   0.502   9.652  0.2223  0.3773 -0.1574
25693SOL    HW179458   6.194   0.436   9.605 -0.8123  0.6067  0.5699
25693SOL    HW279459   6.336   0.484   9.630 -0.1698 -0.0831 -1.4901
25694SOL     OW79460   8.422   0.654   6.119  0.1111  0.6634 -0.5235
25694SOL    HW179461   8.351   0.598   6.087  0.5839 -0.1916 -0.0864
25694SOL    HW279462   8.481   0.663   6.044  0.7519 -0.5930 -0.1904
25695SOL     OW79463   3.862   2.716   5.122  0.4774  0.0797 -0.1679
25695SOL    HW179464   3.785   2.687   5.171  1.4237 -1.1030  0.6715
25695SOL    HW279465   3.881   2.644   5.062  2.0378 -0.5381  0.9816
25696SOL     OW79466   9.950   5.169   3.938 -0.3410  0.6235 -0.6222
25696SOL    HW179467   9.949   5.178   3.843 -0.9614  1.3275 -0.5602
25696SOL    HW279468   9.929   5.257   3.971  0.0281  0.4270  0.1674
25697SOL     OW79469   5.264   1.849   1.586 -0.5120 -0.2796 -0.2714
25697SOL    HW179470   5.192   1.880   1.531 -2.2804 -2.6983  0.5087
25697SOL    HW279471   5.234   1.861   1.676  0.7006  0.0285  0.1202
25698SOL     OW79472  10.637   7.710   7.857 -0.1325 -0.2808  0.2942
25698SOL    HW179473  10.625   7.615   7.859 -0.5815 -0.2193  1.4312
25698SOL    HW279474  10.725   7.723   7.822 -0.4427 -1.0716 -0.8110
25699SOL     OW79475   9.126   9.009   7.027  0.8493 -0.4547 -0.4938
25699SOL    HW179476   9.205   8.996   6.973  0.9878  0.3526 -0.5044
25699SOL    HW279477   9.061   9.042   6.965  1.3810  1.7087  0.0264
25700SOL     OW79478   5.371   0.429   0.849 -0.3692  0.2736  0.0930
25700SOL    HW179479   5.328   0.454   0.767 -0.2856 -1.7513 -0.6388
25700SOL    HW279480   5.326   0.349   0.876 -0.5332  1.0282  2.1772
25701SOL     OW79481   6.889  10.707   1.637 -0.2818  0.1132 -0.5055
25701SOL    HW179482   6.979  10.695   1.607  0.1976  2.2259 -0.0761
25701SOL    HW279483   6.866  10.796   1.610 -2.3864 -0.4859 -0.9093
25702SOL     OW79484   1.556   3.712   2.221 -0.4269  0.4337 -0.3709
25702SOL    HW179485   1.596   3.625   2.224  0.6878  0.9593  0.9312
25702SOL    HW279486   1.479   3.705   2.277 -0.3173  0.3083 -0.2349
25703SOL     OW79487   3.285   1.439   8.463  0.0523  0.7486  0.4909
25703SOL    HW179488   3.342   1.429   8.539  0.3200  0.6296  0.2795
25703SOL    HW279489   3.266   1.349   8.436 -0.6006  0.7797  0.8233
25704SOL     OW79490   2.299  10.698   8.094  0.3320  0.0735  0.7427
25704SOL    HW179491   2.293  10.789   8.065  0.4985 -0.2785 -0.4490
25704SOL    HW279492   2.214  10.680   8.134 -0.1917  0.3712 -0.2014
25705SOL     OW79493   0.077   4.548   6.728  0.9548  0.0924  0.1975
25705SOL    HW179494   0.101   4.625   6.780  3.0199 -0.5594  0.3071
25705SOL    HW279495   0.013   4.581   6.665  1.0493  1.6816  0.8879
25706SOL     OW79496   2.731   0.858   3.644 -0.1729 -0.4301 -0.6462
25706SOL    HW179497   2.794   0.929   3.659 -1.2286  0.3562  0.2944
25706SOL    HW279498   2.706   0.830   3.732 -1.7624 -0.1387 -0.9773
25707SOL     OW79499   3.310   7.655   2.587  0.0231 -0.0752 -0.1206
25707SOL    HW179500   3.258   7.701   2.653 -0.3314  1.4341 -1.3994
25707SOL    HW279501   3.340   7.723   2.528  1.5635 -1.2092 -0.7225
25708SOL     OW79502   3.053   5.283   6.326  0.1603  0.3839  0.0393
25708SOL    HW179503   2.992   5.216   6.355  0.4070  0.5795  1.0537
25708SOL    HW279504   3.132   5.268   6.378  0.3388  1.2469  0.0336
25709SOL     OW79505  10.595   3.005   1.793 -0.3784  0.1985 -0.4471
25709SOL    HW179506  10.516   2.952   1.798 -0.3669  0.2415  0.3609
25709SOL    HW279507  10.597   3.039   1.703 -0.7009 -0.6747 -0.7848
25710SOL     OW79508   7.672   8.301   4.251 -0.1266  0.0895  0.7849
25710SOL    HW179509   7.762   8.280   4.229 -0.0469 -2.0185  2.7337
25710SOL    HW279510   7.678   8.383   4.301  0.4382  0.9605 -0.6411
25711SOL     OW79511   2.329   5.829   6.663  0.0448 -0.8881 -0.0366
25711SOL    HW179512   2.247   5.779   6.668  0.9079 -2.3110  1.0204
25711SOL    HW279513   2.339   5.866   6.751 -0.0991  0.4129 -0.5434
25712SOL     OW79514   1.347  10.609   3.792 -0.6135 -0.2757  0.2442
25712SOL    HW179515   1.401  10.645   3.722  1.1820  0.9491  2.1332
25712SOL    HW279516   1.365  10.515   3.790  0.6637 -0.0424  0.0559
25713SOL     OW79517   3.460   9.959   9.693  0.7776 -0.3011 -0.0370
25713SOL    HW179518   3.401  10.020   9.650  0.2598 -1.8802 -1.7023
25713SOL    HW279519   3.547  10.000   9.686  0.7838 -0.5623 -2.9333
25714SOL     OW79520   5.204   3.750   9.879 -0.6281 -0.2692  0.0613
25714SOL    HW179521   5.157   3.730   9.798 -1.4533 -0.5064  0.5867
25714SOL    HW279522   5.268   3.680   9.887 -2.0071 -1.5007  0.7298
25715SOL     OW79523   5.961   8.341   6.586 -0.5755  0.3478  0.1232
25715SOL    HW179524   5.966   8.318   6.494 -2.3411 -1.1045  0.3516
25715SOL    HW279525   5.910   8.271   6.627 -0.3663  1.2616  2.0979
25716SOL     OW79526   7.735   0.305   9.425 -0.0454  0.4100  0.0858
25716SOL    HW179527   7.783   0.370   9.375  0.4411  1.3141  1.6743
25716SOL    HW279528   7.662   0.353   9.464 -0.0996 -0.1483  0.6973
25717SOL     OW79529   1.055  10.110   9.876 -0.1865 -0.0100  0.0695
25717SOL    HW179530   0.981  10.105   9.936  0.0573 -1.8373  0.2797
25717SOL    HW279531   1.128  10.069   9.924  0.8661  1.3837 -0.2766
25718SOL     OW79532   3.656   3.613   9.286 -0.3250  0.5340 -0.2607
25718SOL    HW179533   3.743   3.636   9.319 -0.0127 -0.8422 -0.0668
25718SOL    HW279534   3.603   3.600   9.365 -0.4730  0.5097 -0.3640
25719SOL     OW79535   1.032   3.662   6.506  0.7321 -0.1174 -0.0057
25719SOL    HW179536   0.998   3.610   6.579  0.5975 -0.2111 -0.1349
25719SOL    HW279537   0.955   3.684   6.455  0.8563 -0.2694 -0.2590
25720SOL     OW79538   3.948   5.577   3.449 -0.2466 -0.6146  0.7267
25720SOL    HW179539   3.883   5.607   3.385 -0.3943 -1.3565  0.5227
25720SOL    HW279540   3.905   5.588   3.534 -0.3794 -0.4571  0.6405
25721SOL     OW79541   7.054   5.484   6.341 -0.0658 -0.1471  0.4761
25721SOL    HW179542   6.990   5.426   6.300 -0.6890  0.5653  0.4399
25721SOL    HW279543   7.049   5.565   6.291  0.3674  0.1521  0.9131
25722SOL     OW79544   6.464   8.640   4.267 -0.0530  0.6366  0.2749
25722SOL    HW179545   6.413   8.688   4.332 -0.8169 -0.1227  0.2661
25722SOL    HW279546   6.399   8.588   4.219  0.6465  0.2002 -0.2272
25723SOL     OW79547   3.142   0.261   1.943 -0.1940  0.3621  0.1588
25723SOL    HW179548   3.055   0.221   1.952 -0.1526  0.0624 -0.7233
25723SOL    HW279549   3.186   0.240   2.026 -0.3248 -1.0929 -0.1105
25724SOL     OW79550  10.648   0.571   8.490 -0.3851  0.7133  0.0655
25724SOL    HW179551  10.727   0.529   8.525 -0.3256 -0.2700 -1.2136
25724SOL    HW279552  10.600   0.599   8.568  0.7028  0.3635  0.8870
25725SOL     OW79553  10.423   2.501   6.582  0.2692  0.1260  0.2449
25725SOL    HW179554  10.509   2.476   6.615 -0.1315 -1.3365  0.2621
25725SOL    HW279555  10.407   2.441   6.509 -0.5549  0.6778 -0.0467
25726SOL     OW79556   4.284   0.937   1.576 -0.5416  0.1648  0.2576
25726SOL    HW179557   4.333   1.019   1.571 -1.9835  1.1178  1.0744
25726SOL    HW279558   4.217   0.953   1.643 -1.6283 -1.2577 -0.4390
25727SOL     OW79559   3.728   7.944   8.018  0.1916 -0.7414 -0.1007
25727SOL    HW179560   3.689   7.908   7.939  0.5024  0.9190 -1.0773
25727SOL    HW279561   3.820   7.955   7.996  0.1879  0.1976  0.2920
25728SOL     OW79562   4.869  10.561   6.436 -0.0824 -0.2355 -0.5939
25728SOL    HW179563   4.824  10.526   6.359 -2.7761 -1.2321  1.2866
25728SOL    HW279564   4.947  10.505   6.445 -0.9232 -1.5919 -1.3331
25729SOL     OW79565   1.694   8.670   1.247 -0.1974 -0.4404  0.1074
25729SOL    HW179566   1.750   8.748   1.254 -0.3211 -0.3425  0.0035
25729SOL    HW279567   1.631   8.679   1.318  0.7766 -1.2486  1.1127
25730SOL     OW79568   3.802   5.525   9.148 -0.0280 -0.1443  0.3404
25730SOL    HW179569   3.798   5.431   9.133 -0.1421 -0.1084  0.1396
25730SOL    HW279570   3.877   5.555   9.097 -0.4730 -0.0080 -0.2434
25731SOL     OW79571   5.660   6.954   1.567 -0.0280  0.4934 -0.2943
25731SOL    HW179572   5.743   6.930   1.526  0.0395  2.2965 -1.3453
25731SOL    HW279573   5.667   6.920   1.656  1.0378 -1.0195 -0.9005
25732SOL     OW79574   7.985  10.602   2.483  0.3124  0.2698 -0.1143
25732SOL    HW179575   8.073  10.615   2.447  1.0204  0.1719  1.5235
25732SOL    HW279576   7.999  10.569   2.572 -1.3847 -1.0829 -0.2739
25733SOL     OW79577   4.398   2.171   4.967  0.1039  0.1854 -0.4414
25733SOL    HW179578   4.455   2.110   4.921  0.3083  0.5807 -0.7205
25733SOL    HW279579   4.434   2.176   5.056  0.1921  0.0378 -0.4699
25734SOL     OW79580   8.119   3.412   2.957 -0.1147 -0.2220 -0.1404
25734SOL    HW179581   8.135   3.477   2.889 -2.1532  2.5001  1.7611
25734SOL    HW279582   8.193   3.421   3.017 -0.6767  0.9099  0.4301
25735SOL     OW79583   2.352   5.752   4.962  0.0355  0.0050  0.3351
25735SOL    HW179584   2.350   5.702   5.044 -1.9069 -0.5706 -0.0085
25735SOL    HW279585   2.350   5.685   4.894 -0.3804  0.5130 -0.1558
25736SOL     OW79586   0.891   9.559   4.225  0.1161  0.2442 -0.4791
25736SOL    HW179587   0.874   9.608   4.144 -0.6465  2.2536  0.8447
25736SOL    HW279588   0.834   9.599   4.290  0.2129 -1.7826  0.9379
25737SOL     OW79589   8.502   9.300   1.478 -0.3051 -0.2661 -0.1095
25737SOL    HW179590   8.557   9.295   1.556  0.5377 -0.6563 -0.7132
25737SOL    HW279591   8.563   9.316   1.406 -1.1913  1.3695 -0.5439
25738SOL     OW79592   9.313   7.437   7.501  0.4680 -0.0669 -0.1506
25738SOL    HW179593   9.243   7.501   7.486 -1.6168 -1.8224  1.4636
25738SOL    HW279594   9.316   7.427   7.596  2.4027 -0.6472 -0.2389
25739SOL     OW79595   2.728   2.526   8.117 -0.0189 -0.2288 -0.0286
25739SOL    HW179596   2.741   2.488   8.029 -1.9354  0.7254 -0.7698
25739SOL    HW279597   2.771   2.612   8.112  0.1705 -0.3134  0.1022
25740SOL     OW79598   2.621   6.536   3.874 -0.1281  0.0609  0.1286
25740SOL    HW179599   2.581   6.610   3.919 -1.5018 -0.5392 -0.0474
25740SOL    HW279600   2.568   6.524   3.795  0.3011 -0.8682 -0.0334
25741SOL     OW79601   9.513   5.124   0.835 -0.2684 -0.7919 -0.4365
25741SOL    HW179602   9.590   5.180   0.836 -0.5775 -0.2412 -2.3793
25741SOL    HW279603   9.537   5.048   0.887  1.2195 -0.1699 -0.1742
25742SOL     OW79604   3.772   4.077   3.129  0.1560  0.5982 -0.4359
25742SOL    HW179605   3.737   3.988   3.123  0.6421  0.3311  0.5687
25742SOL    HW279606   3.756   4.103   3.219 -0.0296  1.5622 -0.7363
25743SOL     OW79607   1.218  10.038  10.100 -0.1987 -0.3105  0.3994
25743SOL    HW179608   1.301  10.075  10.071 -0.5070  0.9692  1.0538
25743SOL    HW279609   1.234   9.944  10.103  1.3808 -0.0660  0.9487
25744SOL     OW79610   5.646   6.694   0.034 -0.1349  0.3493 -0.5923
25744SOL    HW179611   5.614   6.624  -0.024  1.5791  1.7619 -3.4731
25744SOL    HW279612   5.567   6.743   0.057 -0.8806 -0.1674 -1.8994
25745SOL     OW79613   1.088   0.134   6.981  0.0374 -0.0495 -0.5291
25745SOL    HW179614   1.026   0.203   6.960 -0.6248 -0.9094 -1.4621
25745SOL    HW279615   1.152   0.176   7.039  0.1783  1.5806 -1.8161
25746SOL     OW79616   5.434   4.581   7.392  0.3033  0.3050 -0.1910
25746SOL    HW179617   5.394   4.543   7.314  1.1439  0.5279 -0.7488
25746SOL    HW279618   5.441   4.674   7.373 -2.2788  0.9355  1.3976
25747SOL     OW79619   7.325   4.376   0.130  0.1228 -0.3291 -0.8651
25747SOL    HW179620   7.268   4.335   0.195  0.9260 -0.6342 -0.3346
25747SOL    HW279621   7.287   4.351   0.046 -1.3381  0.6538 -0.5266
25748SOL     OW79622   4.772   8.147   5.510  0.2875  0.3290  0.1479
25748SOL    HW179623   4.749   8.147   5.603  0.3941 -0.9290  0.1830
25748SOL    HW279624   4.710   8.086   5.469  1.0049 -0.0456 -0.4059
25749SOL     OW79625   0.660   4.133   0.592 -0.0395 -0.2605 -0.2469
25749SOL    HW179626   0.683   4.159   0.503 -0.1278  0.3458 -0.0954
25749SOL    HW279627   0.650   4.038   0.587 -2.3523 -0.0143 -1.4051
25750SOL     OW79628   1.934   3.464   7.967  0.0593  0.2483  0.3448
25750SOL    HW179629   1.899   3.411   7.896  0.6090 -0.5815  0.6692
25750SOL    HW279630   1.934   3.553   7.933  0.6735 -0.1786 -0.8525
25751SOL     OW79631  10.497   6.629  10.613 -0.3109  0.1945  0.5384
25751SOL    HW179632  10.420   6.659  10.564  0.7118 -1.7270 -2.5222
25751SOL    HW279633  10.569   6.681  10.577  0.3698 -0.7212  0.5630
25752SOL     OW79634   2.244   3.079   4.161 -0.0405  0.0171  0.0581
25752SOL    HW179635   2.214   3.166   4.133 -0.5055 -0.8214 -2.1966
25752SOL    HW279636   2.338   3.081   4.146  0.4961  1.0743  2.8468
25753SOL     OW79637  10.659   6.635   5.874  0.4936  0.5421  0.7778
25753SOL    HW179638  10.643   6.562   5.934 -1.5880  0.3972  0.1279
25753SOL    HW279639  10.599   6.704   5.904  0.3313  0.9087 -0.3533
25754SOL     OW79640   1.627   5.096   7.457 -0.9562 -0.2534 -0.6995
25754SOL    HW179641   1.684   5.067   7.386  1.7120  0.8679  0.7991
25754SOL    HW279642   1.624   5.021   7.517 -0.2541 -0.0245 -0.3614
25755SOL     OW79643   7.872   3.937   7.142 -0.4202  0.2479  0.1789
25755SOL    HW179644   7.777   3.922   7.136 -0.5739  1.4097 -0.7212
25755SOL    HW279645   7.880   4.030   7.165  0.5019 -0.1412  1.5344
25756SOL     OW79646   1.341   0.997   7.534  0.2100  1.0275 -0.3721
25756SOL    HW179647   1.415   0.975   7.478 -1.5333 -2.1951 -1.7087
25756SOL    HW279648   1.331   0.921   7.592 -2.5406  0.8140 -0.9476
25757SOL     OW79649   4.072   2.915   6.052  0.7555  0.0347 -0.1814
25757SOL    HW179650   4.163   2.891   6.033  0.5283  0.0756 -1.4071
25757SOL    HW279651   4.058   2.998   6.005  0.7163  1.2066  1.7754
25758SOL     OW79652   9.626   9.032   9.516  0.5002 -0.2697  0.2623
25758SOL    HW179653   9.550   9.024   9.573 -1.4876 -1.7347 -2.3494
25758SOL    HW279654   9.701   9.019   9.573 -1.1031  1.5986  3.0461
25759SOL     OW79655   7.095   9.875   7.508  0.1577 -0.6353 -0.3648
25759SOL    HW179656   7.106   9.969   7.520  0.3371 -0.5297 -1.3403
25759SOL    HW279657   7.078   9.842   7.597 -0.0558  0.3259 -0.0352
25760SOL     OW79658   4.744   2.707   0.174  0.2034 -0.3544 -0.2804
25760SOL    HW179659   4.735   2.647   0.099  1.1061  0.7344 -1.3038
25760SOL    HW279660   4.700   2.662   0.246 -0.8615 -1.3545 -1.5083
25761SOL     OW79661   5.671   0.091   3.929  0.3332 -0.3861 -0.2163
25761SOL    HW179662   5.677   0.130   3.842  1.6871 -1.4413 -0.6207
25761SOL    HW279663   5.594   0.033   3.924  1.2062 -1.5066 -1.1809
25762SOL     OW79664   2.683   1.512   7.673 -0.1095 -0.1999 -0.2733
25762SOL    HW179665   2.777   1.511   7.660 -0.0719  1.2497 -0.2584
25762SOL    HW279666   2.666   1.438   7.732  0.9284 -0.8116 -0.7086
25763SOL     OW79667   9.480   9.187   5.361  0.1601 -0.3699 -0.4224
25763SOL    HW179668   9.561   9.229   5.332  0.2529  0.3230  0.7723
25763SOL    HW279669   9.429   9.174   5.281  0.7246  0.7537 -0.9817
25764SOL     OW79670   3.695   3.199   0.933  0.2301 -0.4378  0.0924
25764SOL    HW179671   3.742   3.141   0.873  1.2267  0.2793  0.1466
25764SOL    HW279672   3.673   3.145   1.008  1.2621 -0.7277  0.2006
25765SOL     OW79673   0.002   6.283   4.706 -0.3773 -0.3365  0.1754
25765SOL    HW179674  -0.080   6.238   4.727 -1.2420  1.0286 -0.1272
25765SOL    HW279675   0.015   6.267   4.613  0.2780 -1.4425  0.4515
25766SOL     OW79676   8.072   2.571   8.656 -0.2696  0.6340  0.1683
25766SOL    HW179677   8.021   2.558   8.577 -0.0067  1.4051 -0.1443
25766SOL    HW279678   8.162   2.583   8.624  0.3267 -1.7286  0.7667
25767SOL     OW79679  10.405   9.222   0.040 -0.6497  0.3898  0.5467
25767SOL    HW179680  10.380   9.206   0.131  0.9819  0.9038  1.1187
25767SOL    HW279681  10.454   9.305   0.042  0.7044 -0.3417 -0.5411
25768SOL     OW79682   6.943   9.123   1.863 -0.4670 -0.1324  0.2892
25768SOL    HW179683   6.905   9.035   1.858 -0.0364 -0.3703  1.0302
25768SOL    HW279684   6.914   9.157   1.947 -2.0617  1.1311 -0.7184
25769SOL     OW79685   3.260   1.877   4.536  0.0398 -0.2040 -0.0178
25769SOL    HW179686   3.229   1.833   4.615 -0.0797 -0.0296  0.0340
25769SOL    HW279687   3.264   1.970   4.561  0.6292 -0.2292 -0.0142
25770SOL     OW79688   3.024   9.906   6.149  0.6616 -0.4632 -0.4696
25770SOL    HW179689   3.093   9.850   6.111  2.6350  1.6776 -0.3118
25770SOL    HW279690   3.072   9.970   6.202 -1.5678  0.5291  0.4722
25771SOL     OW79691   9.627   3.874   6.009  0.3038  0.3457 -0.0380
25771SOL    HW179692   9.650   3.869   5.916  0.0182 -1.2113 -0.0506
25771SOL    HW279693   9.655   3.961   6.036  1.3173  0.4516 -1.3429
25772SOL     OW79694   5.808   6.037   9.281 -0.1891  0.4881  0.2988
25772SOL    HW179695   5.741   6.065   9.219 -0.4072  0.0283  0.3216
25772SOL    HW279696   5.884   6.092   9.261 -0.2742  0.3762 -0.3469
25773SOL     OW79697   9.269   4.656   7.396 -0.2096  0.1030  1.1062
25773SOL    HW179698   9.272   4.720   7.468  0.4608  1.5254 -0.1159
25773SOL    HW279699   9.221   4.702   7.326 -0.5810 -1.1294  0.5250
25774SOL     OW79700   6.260   5.868   0.064  0.4893  0.0758 -0.1374
25774SOL    HW179701   6.229   5.916   0.141  0.2982 -1.7926  1.0200
25774SOL    HW279702   6.260   5.933  -0.007 -1.9688  1.1968  0.7931
25775SOL     OW79703  10.063   1.102   4.757  0.5418 -0.1194 -0.3585
25775SOL    HW179704  10.053   1.190   4.795  2.5545 -0.3342  0.8114
25775SOL    HW279705  10.010   1.104   4.677  4.3252  3.9481 -3.2922
25776SOL     OW79706  10.702   7.914   5.233 -0.5932  0.1978 -0.4108
25776SOL    HW179707  10.675   7.975   5.302 -1.0664  0.4580 -0.8232
25776SOL    HW279708  10.792   7.891   5.256 -0.8247  0.0923  0.4308
25777SOL     OW79709  10.157   8.422   3.341  0.7763  0.4525 -0.1447
25777SOL    HW179710  10.099   8.490   3.309  1.3240  1.2120  0.4517
25777SOL    HW279711  10.245   8.457   3.329  1.0195  0.6666  1.8970
25778SOL     OW79712   7.555   6.803   6.713 -0.0854 -0.3245 -0.2541
25778SOL    HW179713   7.631   6.795   6.655  0.1323  2.2483 -0.4323
25778SOL    HW279714   7.481   6.772   6.661  0.6913 -2.1024 -0.3534
25779SOL     OW79715   3.359   8.705   0.410 -0.1081  0.0746 -0.0080
25779SOL    HW179716   3.388   8.790   0.445  0.3441 -0.9294  2.2783
25779SOL    HW279717   3.437   8.651   0.411 -0.7336 -0.8513  0.1787
25780SOL     OW79718   4.166   7.040   3.860 -0.1198 -0.4954  0.5995
25780SOL    HW179719   4.122   6.993   3.931 -0.8895  0.5334  0.8299
25780SOL    HW279720   4.175   6.975   3.790 -0.7685 -1.0980  1.0643
25781SOL     OW79721  10.531   9.540   9.031  0.1668 -0.3693 -0.0550
25781SOL    HW179722  10.460   9.491   8.990 -1.3755  1.7428 -0.0982
25781SOL    HW279723  10.571   9.590   8.959  1.0274 -0.7507  0.1442
25782SOL     OW79724   5.119   8.522  10.026  0.4759 -0.5163  0.5420
25782SOL    HW179725   5.090   8.581   9.957  2.9358  1.2433  0.8979
25782SOL    HW279726   5.076   8.554  10.105  1.3164  0.4536  0.6227
25783SOL     OW79727   4.013   5.076   9.156  0.2987  0.1365  0.8959
25783SOL    HW179728   4.053   4.999   9.197 -0.0462  0.5850  2.1043
25783SOL    HW279729   4.004   5.051   9.064  1.5420 -0.7108  0.9771
25784SOL     OW79730   8.425   7.570   2.092  0.0163 -0.5643  0.0947
25784SOL    HW179731   8.419   7.478   2.119 -0.0567 -0.5741  0.0467
25784SOL    HW279732   8.405   7.568   1.998  1.3903 -0.6823 -0.2256
25785SOL     OW79733   8.970   7.457  10.101 -0.2460 -0.2172 -0.0235
25785SOL    HW179734   8.945   7.493  10.016 -0.2281 -1.1936 -0.4540
25785SOL    HW279735   9.039   7.394  10.080 -0.6435 -0.8836  0.6467
25786SOL     OW79736   2.070   9.292   0.434  0.1576 -0.1193  0.5103
25786SOL    HW179737   2.108   9.253   0.355 -2.1863  2.3056 -2.0515
25786SOL    HW279738   2.106   9.381   0.437 -2.4682  1.0683 -0.0591
25787SOL     OW79739   7.707  10.742   2.105  0.2299 -0.3597 -0.0456
25787SOL    HW179740   7.644  10.727   2.176  0.5205  0.2265  0.3443
25787SOL    HW279741   7.715  10.657   2.062 -1.7453 -0.1744 -0.8778
25788SOL     OW79742   9.747   2.339   5.278 -0.2445 -0.1589  0.0610
25788SOL    HW179743   9.728   2.257   5.323  0.2341  0.5243  1.6040
25788SOL    HW279744   9.785   2.313   5.194  0.1761 -1.5036  0.6428
25789SOL     OW79745   0.576   1.569   9.086  0.1119  0.0371  0.0748
25789SOL    HW179746   0.572   1.473   9.079  0.2689  0.1550 -2.1103
25789SOL    HW279747   0.484   1.596   9.096 -0.1082 -0.2454 -1.0871
25790SOL     OW79748   4.413   3.391   8.435  0.3613 -0.1557 -0.1253
25790SOL    HW179749   4.398   3.483   8.414 -1.2985 -0.3557  0.0373
25790SOL    HW279750   4.364   3.376   8.516  1.4102 -0.9485  0.3778
25791SOL     OW79751   4.553   0.770   5.906 -0.4425 -0.6276  0.2706
25791SOL    HW179752   4.481   0.745   5.848 -0.4811 -0.4069  0.2209
25791SOL    HW279753   4.617   0.699   5.896 -1.0014 -1.2389  0.9393
25792SOL     OW79754   1.754   6.496   7.624  0.0542  0.3451  0.1278
25792SOL    HW179755   1.714   6.413   7.598 -0.4509  0.9691 -1.1848
25792SOL    HW279756   1.739   6.555   7.550 -0.8561  2.0425  1.5528
25793SOL     OW79757   8.542  10.172   3.583 -0.3252 -0.4387  0.8534
25793SOL    HW179758   8.450  10.176   3.608 -0.5343 -1.2203  0.2586
25793SOL    HW279759   8.589  10.209   3.658 -1.0544 -0.9054  1.5541
25794SOL     OW79760   1.531   2.323  10.284  0.3215 -0.3161 -0.7773
25794SOL    HW179761   1.498   2.363  10.364  2.8179 -0.4603  0.4320
25794SOL    HW279762   1.612   2.372  10.265  0.1621 -0.7481 -2.8259
25795SOL     OW79763   8.383   7.507   0.284 -0.6676 -0.1893  0.0441
25795SOL    HW179764   8.293   7.509   0.251 -0.5054  1.8934 -0.3798
25795SOL    HW279765   8.380   7.442   0.355 -2.6278  0.1831  0.3690
25796SOL     OW79766   3.689   7.605   4.017 -0.1018 -0.2178  0.0633
25796SOL    HW179767   3.595   7.617   4.006 -0.0104  0.5795  0.0840
25796SOL    HW279768   3.718   7.683   4.065  1.0332  1.0724 -2.4961
25797SOL     OW79769   7.053  10.624   5.799  0.1285 -0.5506 -0.1173
25797SOL    HW179770   7.079  10.714   5.776 -1.1842 -0.2354 -0.4480
25797SOL    HW279771   7.133  10.573   5.789  0.6484  0.3926 -1.0159
25798SOL     OW79772   6.746   7.680   4.205 -0.1162 -0.4263  0.2692
25798SOL    HW179773   6.759   7.751   4.268  0.1348 -1.5770  1.5575
25798SOL    HW279774   6.687   7.717   4.139 -0.6701  0.7091  1.3650
25799SOL     OW79775   2.038  10.063  10.207  0.4210 -0.8772 -0.2733
25799SOL    HW179776   2.026   9.992  10.271 -0.6750 -1.1892 -0.7943
25799SOL    HW279777   1.972  10.046  10.140 -0.2562  0.9393 -0.1338
25800SOL     OW79778   3.392   0.201  10.292  0.2694  0.1495 -0.3058
25800SOL    HW179779   3.328   0.213  10.222  1.2883  2.3561 -0.9813
25800SOL    HW279780   3.459   0.144  10.254 -1.2786 -2.3078  0.4640
25801SOL     OW79781   2.256   0.063   9.383 -0.0838  0.1458 -0.3865
25801SOL    HW179782   2.297   0.083   9.467  0.2539  0.0799 -0.5297
25801SOL    HW279783   2.327   0.024   9.331 -0.4107 -0.2470 -0.5404
25802SOL     OW79784   3.643   5.465   7.211 -0.0702 -0.0551  0.0928
25802SOL    HW179785   3.602   5.551   7.202  1.9735  1.0831  0.9733
25802SOL    HW279786   3.712   5.464   7.144  0.1430 -0.8643  0.3098
25803SOL     OW79787   3.202   9.816   2.550 -0.2070 -0.1277 -0.5259
25803SOL    HW179788   3.236   9.728   2.569  0.8497  0.0660 -1.4054
25803SOL    HW279789   3.239   9.838   2.465 -1.0011  0.9139 -0.6231
25804SOL     OW79790   5.835   9.621   0.321  0.1934  0.2226  0.1840
25804SOL    HW179791   5.757   9.568   0.305  1.2647 -1.1643 -0.6837
25804SOL    HW279792   5.807   9.710   0.303 -1.2427 -0.2234  0.0685
25805SOL     OW79793   2.896   8.496   0.114  0.3283  0.5097  0.1165
25805SOL    HW179794   2.950   8.424   0.147 -1.0355 -1.0885 -1.0030
25805SOL    HW279795   2.814   8.455   0.086 -0.5288  2.5093 -0.5072
25806SOL     OW79796   9.088   4.390   0.681 -0.0698  0.0477 -0.4655
25806SOL    HW179797   9.150   4.400   0.753 -0.8437  0.8301  0.1178
25806SOL    HW279798   9.023   4.328   0.713 -0.4818  0.4890 -0.4299
25807SOL     OW79799   8.544   9.867   9.696  0.2169  0.1490 -0.3934
25807SOL    HW179800   8.525   9.957   9.723  0.5741  0.1861 -0.2685
25807SOL    HW279801   8.472   9.815   9.732 -0.7615  0.5714 -1.6358
25808SOL     OW79802   5.525   2.580   8.714  0.4748 -0.9863  0.3476
25808SOL    HW179803   5.483   2.637   8.649  2.0749 -0.1367  0.0095
25808SOL    HW279804   5.510   2.491   8.680 -0.7343 -0.7070  0.0783
25809SOL     OW79805  10.305   9.948   0.865  0.2733  0.3365 -0.8501
25809SOL    HW179806  10.327   9.856   0.850  2.6092  0.6108  0.3781
25809SOL    HW279807  10.339   9.993   0.787  1.7012  0.4301 -0.2102
25810SOL     OW79808  10.147   7.805   9.228 -0.4729 -0.4567  0.2234
25810SOL    HW179809  10.168   7.734   9.289 -1.6412  0.1179  1.3543
25810SOL    HW279810  10.140   7.883   9.284 -2.1784 -0.0194 -0.5503
25811SOL     OW79811   4.869   9.369  10.591 -0.1729  0.2732  0.3902
25811SOL    HW179812   4.836   9.298  10.536 -1.0295  0.2607  0.8962
25811SOL    HW279813   4.963   9.354  10.597 -0.3485 -0.8506  0.5231
25812SOL     OW79814   9.062   1.805   6.632  0.7745 -0.4398  0.3976
25812SOL    HW179815   8.969   1.822   6.621  0.6890 -0.0937  1.5166
25812SOL    HW279816   9.085   1.746   6.560 -0.1790 -0.0928 -0.2076
25813SOL     OW79817   3.068   1.795   8.901  0.0536  0.3315  0.1177
25813SOL    HW179818   2.985   1.751   8.880  0.8491 -0.8377 -0.7059
25813SOL    HW279819   3.097   1.833   8.819  0.8380 -0.1667  0.1485
25814SOL     OW79820   6.711   7.021   5.303  0.2192 -0.2620 -0.2396
25814SOL    HW179821   6.778   7.089   5.301 -1.1166  1.1757  1.0282
25814SOL    HW279822   6.710   6.992   5.394 -2.4012  1.4393  0.3817
25815SOL     OW79823   7.444   2.254   8.864 -0.5197  0.5723  0.1155
25815SOL    HW179824   7.411   2.171   8.832  1.8887 -0.7799  0.9299
25815SOL    HW279825   7.445   2.244   8.960 -1.0463  1.9223  0.2959
25816SOL     OW79826   7.758   2.975   7.627  0.1912 -0.1917  0.6451
25816SOL    HW179827   7.724   2.900   7.578  1.3756 -0.5041  0.2699
25816SOL    HW279828   7.707   2.975   7.708 -0.1708 -1.1001  0.4309
25817SOL     OW79829   0.875   4.758   8.950  0.0801  0.3541  0.0806
25817SOL    HW179830   0.949   4.778   9.008 -0.3292  2.4368 -0.0321
25817SOL    HW279831   0.812   4.712   9.006  0.3042  1.0320  0.9114
25818SOL     OW79832   0.483   4.592   6.148  0.0141 -0.0261 -0.3765
25818SOL    HW179833   0.400   4.634   6.125  0.3448  1.4174  0.9362
25818SOL    HW279834   0.549   4.661   6.136  1.0813 -1.1799 -1.5124
25819SOL     OW79835   4.070   6.103   0.612  0.1222 -0.3621  0.1645
25819SOL    HW179836   3.987   6.142   0.641  0.6477  1.5123 -0.7128
25819SOL    HW279837   4.130   6.119   0.685  0.2711  0.2659 -0.0917
25820SOL     OW79838   1.049   3.297   5.862  0.6861  0.0447 -0.0856
25820SOL    HW179839   1.070   3.268   5.951 -1.4610 -1.2720  0.0516
25820SOL    HW279840   1.127   3.345   5.834  1.9065 -0.5540  2.0399
25821SOL     OW79841   8.266   0.317   2.096 -0.4912  0.3986 -0.4414
25821SOL    HW179842   8.296   0.406   2.077  0.4045  0.3125  0.4583
25821SOL    HW279843   8.258   0.314   2.192 -1.9237 -0.0639 -0.5389
25822SOL     OW79844   8.515   4.863   4.196 -0.1141 -0.6678  0.3282
25822SOL    HW179845   8.519   4.838   4.104 -0.0713 -0.7242  0.3452
25822SOL    HW279846   8.606   4.871   4.223 -0.1261 -0.1161  0.2236
25823SOL     OW79847   2.338   2.006   5.183 -0.4425 -0.4858  0.5403
25823SOL    HW179848   2.294   1.928   5.216 -0.2709 -0.5114  0.7125
25823SOL    HW279849   2.363   2.055   5.262  3.4490 -2.3984  0.7440
25824SOL     OW79850   1.264   0.809   1.986 -0.0707  0.2753 -0.0191
25824SOL    HW179851   1.323   0.743   1.951 -0.7260 -0.9733  1.1377
25824SOL    HW279852   1.294   0.892   1.948  1.3107 -0.5663 -0.8063
25825SOL     OW79853   6.879   9.438   4.859 -0.2057  0.5388 -0.0104
25825SOL    HW179854   6.820   9.389   4.917 -2.1044  0.8245 -1.5736
25825SOL    HW279855   6.826   9.512   4.829  0.6740  0.3960 -2.0884
25826SOL     OW79856   3.290   0.145  10.713 -0.4657 -0.4551 -0.2220
25826SOL    HW179857   3.376   0.163  10.751 -0.3521 -0.0323 -0.6553
25826SOL    HW279858   3.247   0.089  10.776 -0.4267  0.5248  0.7079
25827SOL     OW79859   3.822   3.531   5.891 -0.6929 -0.1150 -0.2813
25827SOL    HW179860   3.893   3.570   5.839 -0.9765  0.2728 -0.3801
25827SOL    HW279861   3.857   3.446   5.918 -0.2057  0.0524 -0.3656
25828SOL     OW79862   7.265   7.588   5.489  0.0590 -0.5041  0.0154
25828SOL    HW179863   7.277   7.584   5.395  1.5028  0.1065  0.1480
25828SOL    HW279864   7.347   7.555   5.526 -0.9183 -1.8718  1.0817
25829SOL     OW79865   9.594   3.408   7.738 -0.3351  0.0674  0.2540
25829SOL    HW179866   9.556   3.391   7.824  0.1444  0.5500  0.5754
25829SOL    HW279867   9.679   3.364   7.741 -0.8757 -1.0456 -0.4746
25830SOL     OW79868   2.638   9.927   3.770 -0.3122 -0.0411 -0.2498
25830SOL    HW179869   2.680   9.848   3.735 -0.2097  1.4181 -3.7618
25830SOL    HW279870   2.547   9.903   3.782  0.2565 -1.5069  1.7643
25831SOL     OW79871   6.760   2.378   7.497 -0.0722  0.3079  0.0305
25831SOL    HW179872   6.737   2.463   7.460 -0.1598 -0.2291 -1.1757
25831SOL    HW279873   6.829   2.398   7.561 -1.8989  1.6053  1.7523
25832SOL     OW79874   5.460   4.459   2.549 -0.1715 -0.3148  0.0972
25832SOL    HW179875   5.454   4.421   2.637 -0.3793 -0.1865  0.1401
25832SOL    HW279876   5.519   4.533   2.559 -1.7131  0.9175  0.5717
25833SOL     OW79877   7.948   2.251   4.906  0.6126 -0.2680  0.0247
25833SOL    HW179878   7.961   2.345   4.891 -1.4036  0.0299 -0.2134
25833SOL    HW279879   7.910   2.219   4.824 -0.1120 -0.9699  0.6174
25834SOL     OW79880   9.073  10.499   7.341  0.6513  0.4757 -0.9544
25834SOL    HW179881   9.088  10.407   7.319 -0.6844  0.0168 -0.0764
25834SOL    HW279882   9.113  10.510   7.427 -0.7843  0.1878 -0.2150
25835SOL     OW79883   2.231   2.965   3.253 -0.9248 -0.0443  1.0286
25835SOL    HW179884   2.267   2.891   3.204 -0.1612  1.9346 -1.6258
25835SOL    HW279885   2.305   2.997   3.305 -1.5993 -1.8122  3.2881
25836SOL     OW79886   2.511   1.765   1.519  0.3861 -0.7786 -0.0754
25836SOL    HW179887   2.577   1.816   1.567  0.9741 -1.4172 -0.1823
25836SOL    HW279888   2.438   1.757   1.580 -0.1253  1.0089 -0.4061
25837SOL     OW79889   1.204   5.189   1.713 -0.6199  0.1319  0.0453
25837SOL    HW179890   1.177   5.267   1.664 -2.6721  0.4202  1.4854
25837SOL    HW279891   1.125   5.161   1.758  0.5951 -1.5474  1.2509
25838SOL     OW79892   0.999   1.384  10.141 -0.5823  0.1653  0.5682
25838SOL    HW179893   1.088   1.418  10.147 -0.4907  0.3778 -1.4503
25838SOL    HW279894   0.954   1.443  10.081 -1.5196 -1.0750  0.0043
25839SOL     OW79895   9.112   0.104   1.597 -0.4084 -0.2164  0.5380
25839SOL    HW179896   9.104   0.107   1.692  1.2366  1.0264  0.6833
25839SOL    HW279897   9.199   0.066   1.582 -0.3644  0.2516 -0.4358
25840SOL     OW79898   8.955   6.893   0.160  0.0599  0.2791 -0.2977
25840SOL    HW179899   8.930   6.833   0.230 -0.3920 -0.6006 -1.1869
25840SOL    HW279900   8.975   6.975   0.204 -0.7437 -0.1035  0.8069
25841SOL     OW79901   1.604   9.515   2.981  0.4886 -0.3901  0.2367
25841SOL    HW179902   1.513   9.500   3.007  0.5554 -0.0400  0.6804
25841SOL    HW279903   1.616   9.609   2.989  0.4151 -0.2108 -1.4068
25842SOL     OW79904   7.941   4.960   6.645 -0.4580 -0.1454 -0.4806
25842SOL    HW179905   7.985   5.014   6.579  0.9813  0.2805  0.7739
25842SOL    HW279906   7.886   5.021   6.694  0.6097  0.0888  0.4682
25843SOL     OW79907   0.224   8.990   3.072 -0.0410  0.5298 -0.1509
25843SOL    HW179908   0.258   9.077   3.093  0.3552 -0.0122  1.6050
25843SOL    HW279909   0.289   8.929   3.109 -0.7828 -0.5107 -0.5055
25844SOL     OW79910   3.392   9.279   1.030  0.3516  0.0953 -0.3515
25844SOL    HW179911   3.447   9.269   1.108 -0.2407  1.5881  0.3005
25844SOL    HW279912   3.339   9.199   1.027 -0.4709  0.5281  1.4932
25845SOL     OW79913   2.675   2.410   9.124 -0.3918 -0.0932  0.0163
25845SOL    HW179914   2.664   2.498   9.088  1.3196 -0.0660 -0.5514
25845SOL    HW279915   2.735   2.367   9.064 -1.0276 -1.5946  0.4117
25846SOL     OW79916   3.534  10.287   0.917  0.0295 -0.2201 -0.6277
25846SOL    HW179917   3.588  10.225   0.868  0.7690 -1.2990  1.4399
25846SOL    HW279918   3.445  10.257   0.904  0.2557 -0.7606 -0.9625
25847SOL     OW79919   3.259   6.660   0.346 -0.0422  0.2033  0.1644
25847SOL    HW179920   3.265   6.579   0.295 -1.0747  0.4986 -0.4712
25847SOL    HW279921   3.243   6.630   0.435 -0.1358 -0.3068 -0.0161
25848SOL     OW79922   3.480   0.498  10.152 -0.0671 -0.9349 -0.2484
25848SOL    HW179923   3.538   0.531  10.221 -0.9288  0.1593 -0.0160
25848SOL    HW279924   3.539   0.476  10.080  0.5831  1.6630 -0.6275
25849SOL     OW79925   5.296   6.403   4.520  0.1630 -0.1295  0.0918
25849SOL    HW179926   5.288   6.314   4.486 -2.4346 -0.1671  0.5700
25849SOL    HW279927   5.341   6.393   4.604 -1.8841 -1.3223  1.1230
25850SOL     OW79928   2.190   4.898   7.286 -0.5291  0.1525  1.0984
25850SOL    HW179929   2.182   4.993   7.300  0.0455  0.2926  0.5527
25850SOL    HW279930   2.226   4.865   7.368 -0.3257  0.4690  1.1400
25851SOL     OW79931   1.566   2.331   7.583 -0.1575  0.5228  0.3830
25851SOL    HW179932   1.507   2.255   7.587  0.4246  0.0862  0.7441
25851SOL    HW279933   1.649   2.300   7.618  0.3730  1.0740 -0.3468
25852SOL     OW79934   8.501   5.879   6.812 -0.1469 -0.5840 -0.0301
25852SOL    HW179935   8.414   5.919   6.803 -1.3279 -3.0548 -0.6783
25852SOL    HW279936   8.483   5.786   6.826  2.4184 -1.0875  0.4460
25853SOL     OW79937   4.282   4.603   7.180  0.1206  0.3390  0.2278
25853SOL    HW179938   4.247   4.582   7.267  0.5638  0.9487  0.5616
25853SOL    HW279939   4.345   4.535   7.161 -2.8753 -2.2632 -1.4513
25854SOL     OW79940   9.017   7.498   9.158 -0.0618 -0.1608  0.1850
25854SOL    HW179941   8.990   7.563   9.094 -0.3535  0.1548  0.6234
25854SOL    HW279942   9.067   7.434   9.107  0.7021  0.6804 -0.1592
25855SOL     OW79943  10.207   9.391   9.406  0.1450  0.2195  0.2273
25855SOL    HW179944  10.224   9.471   9.355  0.5291 -0.1102 -0.1748
25855SOL    HW279945  10.274   9.329   9.376 -0.6675 -0.5307 -0.0742
25856SOL     OW79946   3.857   7.216  10.216  0.0918 -0.0364  0.0583
25856SOL    HW179947   3.813   7.254  10.139  0.0163 -0.2003  0.0200
25856SOL    HW279948   3.949   7.236  10.203  0.1651 -0.6613 -0.4231
25857SOL     OW79949   3.341   2.843   4.964 -0.1738 -0.4879 -0.3964
25857SOL    HW179950   3.348   2.873   5.054 -0.1583 -0.3672 -0.4383
25857SOL    HW279951   3.429   2.810   4.943  0.2655  0.9329 -0.8917
25858SOL     OW79952   7.165  10.013   0.960  0.4289  0.4695 -0.9877
25858SOL    HW179953   7.110   9.938   0.981  0.1768  0.6780 -0.9013
25858SOL    HW279954   7.104  10.086   0.950  0.5748  0.4677 -2.0382
25859SOL     OW79955   8.909   8.950   1.102  0.2610 -0.5616  0.2475
25859SOL    HW179956   8.850   9.017   1.067  0.9304 -0.2346 -0.2520
25859SOL    HW279957   8.995   8.992   1.104  0.4231 -0.9127  1.3281
25860SOL     OW79958   8.333  10.148   2.787 -0.6557 -0.4786  0.6716
25860SOL    HW179959   8.294  10.166   2.873  0.0663 -0.9483  1.1089
25860SOL    HW279960   8.259  10.119   2.733 -1.2375  0.4633  0.9271
25861SOL     OW79961   8.237   6.869   7.126 -0.2979 -0.1732  0.4944
25861SOL    HW179962   8.276   6.871   7.213  0.2508 -2.1393  0.3332
25861SOL    HW279963   8.268   6.787   7.087 -2.0262 -0.2386 -0.8675
25862SOL     OW79964   4.218   4.936   8.049 -0.0804 -0.6488 -0.2907
25862SOL    HW179965   4.250   4.951   8.138 -1.1130  1.7592 -0.2449
25862SOL    HW279966   4.235   5.018   8.003  0.7686 -1.9687 -2.4630
25863SOL     OW79967  10.311   9.204   0.284 -0.5346  0.1760 -0.2019
25863SOL    HW179968  10.280   9.124   0.327  0.2049 -0.4288 -0.7544
25863SOL    HW279969  10.350   9.256   0.354  0.6979 -0.8143 -0.1026
25864SOL     OW79970   7.987   9.406   2.581 -0.4359 -0.1096 -0.0552
25864SOL    HW179971   7.950   9.336   2.526  1.5724 -0.7752 -0.6624
25864SOL    HW279972   8.025   9.359   2.656  0.5041  0.3455 -0.2292
25865SOL     OW79973  10.349   0.773   9.974 -0.2376  0.3211  0.9754
25865SOL    HW179974  10.272   0.829   9.960  0.7059  1.2250 -0.9884
25865SOL    HW279975  10.401   0.820  10.039 -0.0709  1.0911  0.2989
25866SOL     OW79976   6.988  10.783   9.963  0.0708 -0.2078  0.2879
25866SOL    HW179977   6.953  10.697   9.989  1.7731 -0.6077  1.3938
25866SOL    HW279978   7.078  10.765   9.938  0.0682  1.0895 -0.7135
25867SOL     OW79979   5.416   7.303   5.840  0.1516 -0.8157  0.4304
25867SOL    HW179980   5.383   7.392   5.830  1.1802 -0.1466  2.3400
25867SOL    HW279981   5.382   7.256   5.765 -0.1939  1.2562 -0.7967
25868SOL     OW79982   9.205   6.914   1.356 -0.3938  0.4899  0.4548
25868SOL    HW179983   9.112   6.901   1.335 -0.5850  0.9183  1.0216
25868SOL    HW279984   9.227   6.999   1.319 -0.9099  1.5680  2.4898
25869SOL     OW79985   6.544   2.525   3.376 -0.1937  0.1904 -0.1657
25869SOL    HW179986   6.467   2.531   3.320 -0.2150  1.2522 -0.0472
25869SOL    HW279987   6.601   2.596   3.347  0.3644 -0.0494  0.3161
25870SOL     OW79988   3.714   1.046   0.709 -0.4761  0.3765  0.0042
25870SOL    HW179989   3.630   1.017   0.744 -0.6447  0.1042 -0.6153
25870SOL    HW279990   3.778   0.988   0.749 -0.8721 -1.3919 -1.7705
25871SOL     OW79991   7.011   6.632   7.010  0.0675  0.1817 -0.0048
25871SOL    HW179992   7.009   6.614   6.916 -1.0346 -1.0967  0.2336
25871SOL    HW279993   7.036   6.725   7.016  0.2578  0.2546 -1.5439
25872SOL     OW79994  10.393   1.709   4.984  0.2332 -0.2144  0.2193
25872SOL    HW179995  10.368   1.775   4.920  1.3985 -0.2840 -0.3453
25872SOL    HW279996  10.348   1.629   4.957 -0.9010  0.2451  0.7002
25873SOL     OW79997   1.873   1.586   0.253 -0.0417 -0.2401  0.6004
25873SOL    HW179998   1.938   1.635   0.201  0.0323 -1.6504 -0.6997
25873SOL    HW279999   1.881   1.496   0.222 -1.9624 -0.6265  1.1038
25874SOL     OW80000   2.957   5.578   3.565 -0.3343 -0.4580  0.0973
25874SOL    HW180001   2.880   5.528   3.540 -1.9383  0.3269  3.0178
25874SOL    HW280002   2.931   5.670   3.553  0.2287 -0.1800  0.9310
25875SOL     OW80003   5.096   5.367   4.268 -0.1569  0.2950 -0.6614
25875SOL    HW180004   5.026   5.363   4.202 -0.0228  0.9401 -0.8561
25875SOL    HW280005   5.096   5.281   4.308 -0.8675  0.1870 -0.8689
25876SOL     OW80006   8.450   6.980   1.591 -0.3046  0.5855  0.3405
25876SOL    HW180007   8.472   6.900   1.640  0.5778  0.2776 -0.5080
25876SOL    HW280008   8.481   6.962   1.502  0.7085  2.2010  0.3275
25877SOL     OW80009   2.781   9.539   5.781 -0.4717 -0.0810  0.5232
25877SOL    HW180010   2.726   9.465   5.805  0.6639 -0.0654  3.7579
25877SOL    HW280011   2.851   9.539   5.846  1.9579  1.3868 -1.8867
25878SOL     OW80012   8.138   3.749  10.158  0.3021 -0.9109  0.5865
25878SOL    HW180013   8.052   3.758  10.200  0.8574  0.2531  1.5328
25878SOL    HW280014   8.127   3.791  10.073  0.0910 -0.1759  0.9670
25879SOL     OW80015   0.594   8.836   1.010 -0.4117 -0.0141  0.1525
25879SOL    HW180016   0.658   8.814   1.077  0.3925  0.0728 -0.5672
25879SOL    HW280017   0.521   8.776   1.026 -0.1332 -0.1465  0.9584
25880SOL     OW80018   8.926   0.798   0.833 -0.0816 -0.0843  0.2404
25880SOL    HW180019   8.924   0.790   0.928 -1.2688 -2.2766  0.1134
25880SOL    HW280020   8.944   0.890   0.816  0.9749  0.2081  2.5603
25881SOL     OW80021   7.627   1.726  10.756  0.0712  0.4468 -0.1734
25881SOL    HW180022   7.585   1.660  10.812  1.1164  0.2651  0.4203
25881SOL    HW280023   7.573   1.728  10.677  0.3043 -1.5041 -0.4297
25882SOL     OW80024   1.503   8.540   7.818  0.1348 -0.2848 -0.1832
25882SOL    HW180025   1.413   8.538   7.851 -0.2718 -0.5931 -1.2975
25882SOL    HW280026   1.494   8.558   7.725  1.2528  0.0018 -0.2469
25883SOL     OW80027   5.023   4.899   3.055  0.4855  0.1762 -0.2063
25883SOL    HW180028   5.012   4.984   3.012  1.0673  0.5081  0.2881
25883SOL    HW280029   5.076   4.918   3.132 -0.7193 -0.3692  0.7895
25884SOL     OW80030   0.534   0.871   2.140  0.2574  0.4395  0.2068
25884SOL    HW180031   0.448   0.831   2.155  0.9086 -0.6554  1.2326
25884SOL    HW280032   0.525   0.917   2.057 -1.6548  1.3266  0.8417
25885SOL     OW80033  10.635   4.298   3.997 -0.1906 -0.0836  0.1943
25885SOL    HW180034  10.604   4.316   3.908  0.5952 -1.1097 -0.3204
25885SOL    HW280035  10.648   4.384   4.036  0.0385  0.4093 -0.9112
25886SOL     OW80036   6.400   1.213   8.584  0.5305  0.2580  0.0426
25886SOL    HW180037   6.380   1.256   8.501 -0.7873  0.8501  0.6358
25886SOL    HW280038   6.410   1.284   8.647  2.3286 -0.1421  0.2625
25887SOL     OW80039   8.170   4.385   0.455 -0.3574 -0.0718  0.1793
25887SOL    HW180040   8.230   4.315   0.431 -0.7567 -0.0602 -0.9161
25887SOL    HW280041   8.220   4.466   0.442 -0.1904 -0.1138  0.5530
25888SOL     OW80042   7.834   6.174  10.436 -0.0567  0.0226  0.0426
25888SOL    HW180043   7.740   6.184  10.420 -0.1390  0.3516  0.6834
25888SOL    HW280044   7.843   6.083  10.466  0.0216 -0.4163 -1.2530
25889SOL     OW80045   8.960   9.609   6.492 -0.0910 -1.0712 -0.3926
25889SOL    HW180046   8.994   9.638   6.407  1.0024 -1.0791  0.0233
25889SOL    HW280047   8.868   9.635   6.492 -0.0925 -1.0352 -1.5638
25890SOL     OW80048   5.389   4.521   9.995  0.7886  0.5305  0.2361
25890SOL    HW180049   5.417   4.435  10.027 -1.8295  0.0319  1.4043
25890SOL    HW280050   5.407   4.518   9.901  1.1288 -1.1442  0.3213
25891SOL     OW80051   5.904   7.336   8.946  0.4774  0.1772 -0.7268
25891SOL    HW180052   5.932   7.361   8.858 -0.2943 -0.3714 -1.1418
25891SOL    HW280053   5.808   7.335   8.941  0.4165  0.4380  0.2055
25892SOL     OW80054   3.902   8.385   1.956 -0.6298  0.2001  0.3271
25892SOL    HW180055   3.978   8.327   1.964  0.1125  1.2826  1.5622
25892SOL    HW280056   3.844   8.340   1.895  1.7051  0.0691 -1.9878
25893SOL     OW80057  10.355   9.933   2.219  0.5438 -0.1389 -0.1243
25893SOL    HW180058  10.365   9.985   2.298 -2.8247 -0.7490  0.8332
25893SOL    HW280059  10.341   9.844   2.251 -0.1475 -0.5261 -1.4431
25894SOL     OW80060  10.075  10.108   4.384 -1.0156 -0.6737 -0.1464
25894SOL    HW180061  10.072  10.203   4.393 -1.2803 -0.5863 -1.0832
25894SOL    HW280062   9.984  10.080   4.394 -1.2496 -0.6206 -1.8941
25895SOL     OW80063   4.478   6.529   8.084 -0.3682 -0.0839 -0.0674
25895SOL    HW180064   4.531   6.459   8.123 -0.3945 -0.4481 -0.6735
25895SOL    HW280065   4.535   6.567   8.017 -0.7393 -0.2281 -0.4647
25896SOL     OW80066  10.110   1.900   2.704 -0.7168  0.5230  0.0398
25896SOL    HW180067  10.193   1.911   2.751  0.7205 -0.0156 -2.2426
25896SOL    HW280068  10.083   1.989   2.683  0.2487  0.6608 -0.7233
25897SOL     OW80069   7.551   3.363   6.342 -0.4223  0.2742 -0.4440
25897SOL    HW180070   7.471   3.310   6.332 -1.3113  1.2235  1.2358
25897SOL    HW280071   7.528   3.448   6.305  0.3071  0.1470 -1.2277
25898SOL     OW80072   9.334   9.715   6.715 -0.5801 -0.4015  0.4170
25898SOL    HW180073   9.324   9.741   6.623 -0.8291  0.3177  0.6420
25898SOL    HW280074   9.428   9.703   6.726 -0.4539  0.4033  0.2976
25899SOL     OW80075   2.242   3.884   4.548  0.5725  0.4087 -0.1312
25899SOL    HW180076   2.262   3.941   4.623 -0.2464  1.9278 -1.0153
25899SOL    HW280077   2.256   3.796   4.581  1.7234  1.0945  1.3641
25900SOL     OW80078   0.744   6.333   6.936 -0.0982 -0.0719 -0.1031
25900SOL    HW180079   0.815   6.376   6.984  0.7705 -1.9819  0.4556
25900SOL    HW280080   0.787   6.260   6.891 -1.5576 -0.6683 -0.5845
25901SOL     OW80081   0.498   5.108   2.694 -0.1733  0.4537 -0.4190
25901SOL    HW180082   0.497   5.124   2.600  1.6718 -1.3552 -0.8045
25901SOL    HW280083   0.414   5.143   2.725 -1.5003 -0.2662 -2.9458
25902SOL     OW80084   2.478   0.194   4.029  0.1881 -0.5679  0.1636
25902SOL    HW180085   2.543   0.197   3.959 -0.9868 -1.7420 -1.0400
25902SOL    HW280086   2.520   0.240   4.102  0.9164  2.0154 -1.7233
25903SOL     OW80087   1.266  10.209   7.046 -0.4874 -0.4264 -0.1334
25903SOL    HW180088   1.237  10.286   6.996  0.1151 -0.5950 -0.7587
25903SOL    HW280089   1.194  10.190   7.105 -0.0779  1.5436  1.1107
25904SOL     OW80090   1.257   2.066   2.551  0.1382  0.5205 -0.5404
25904SOL    HW180091   1.201   1.994   2.520 -0.2763 -1.3575  3.9120
25904SOL    HW280092   1.196   2.139   2.562  0.0381  0.7854 -2.4426
25905SOL     OW80093  10.736   1.932   9.580 -0.3214 -0.1638 -0.3835
25905SOL    HW180094  10.684   1.855   9.557  0.4236 -0.6735 -0.3969
25905SOL    HW280095  10.787   1.905   9.656  0.8237 -0.0797 -1.1054
25906SOL     OW80096   1.980   8.588   7.232 -0.0351  0.5824 -0.0268
25906SOL    HW180097   2.063   8.632   7.250 -0.0112 -0.0118  1.5009
25906SOL    HW280098   2.005   8.497   7.213 -0.2908  0.5809 -0.3786
25907SOL     OW80099   7.873   9.423   0.007  0.9341  0.5083  0.3815
25907SOL    HW180100   7.917   9.374  -0.063 -0.8890  1.2489 -1.4066
25907SOL    HW280101   7.816   9.359   0.049  1.0158  0.3559  0.2615
25908SOL     OW80102   5.147   0.812   3.925  0.4715 -0.1304  0.1823
25908SOL    HW180103   5.202   0.733   3.921  1.1467  0.1676  2.3731
25908SOL    HW280104   5.058   0.779   3.932  0.7473 -0.7271  1.0838
25909SOL     OW80105   0.654   6.256   5.125  0.0934 -0.8018 -0.3620
25909SOL    HW180106   0.599   6.334   5.125  0.7660 -0.2875  1.5190
25909SOL    HW280107   0.633   6.211   5.206 -0.2767 -2.6188 -1.4118
25910SOL     OW80108   6.006   2.518   9.464 -0.1931 -0.0282  0.0067
25910SOL    HW180109   6.073   2.461   9.428 -0.4702 -1.1095  1.1308
25910SOL    HW280110   6.042   2.546   9.549 -0.5504  0.5511 -0.0303
25911SOL     OW80111   6.929   1.130   6.212  0.2438 -0.0800  0.2183
25911SOL    HW180112   6.912   1.050   6.163  2.3092 -0.3547 -0.1179
25911SOL    HW280113   6.902   1.201   6.153 -1.4566 -0.4616  0.4653
25912SOL     OW80114   6.159   3.787   8.049  0.3462 -0.2264  0.0299
25912SOL    HW180115   6.083   3.757   7.999  1.3395 -1.4087 -0.8421
25912SOL    HW280116   6.143   3.880   8.065 -0.9416 -0.2999 -0.7301
25913SOL     OW80117   6.752   9.599   9.775 -0.4689  0.6010 -0.2643
25913SOL    HW180118   6.761   9.572   9.866  3.0194  0.8205 -0.4390
25913SOL    HW280119   6.675   9.656   9.776 -2.3282 -1.6902  1.8809
25914SOL     OW80120   7.370   6.400   6.160  0.5487 -0.4324 -0.1316
25914SOL    HW180121   7.308   6.439   6.221  0.4384 -1.7516  0.6471
25914SOL    HW280122   7.435   6.356   6.216  0.9786 -0.8754 -0.9542
25915SOL     OW80123   2.715   7.817   1.901  0.3215  0.5921  0.1994
25915SOL    HW180124   2.792   7.788   1.854  0.3624  0.2923  0.4441
25915SOL    HW280125   2.695   7.745   1.961 -0.9444  0.0790 -0.8022
25916SOL     OW80126   9.617   9.310   8.720  0.2148 -0.2102  0.5458
25916SOL    HW180127   9.529   9.345   8.732  0.3886 -0.1784  1.9300
25916SOL    HW280128   9.675   9.386   8.730  0.5630 -0.7179  3.0421
25917SOL     OW80129   7.247   7.245   6.252  0.4469 -0.5809  0.2159
25917SOL    HW180130   7.249   7.210   6.163  1.5494  1.0216 -0.4382
25917SOL    HW280131   7.158   7.277   6.264  0.4254 -0.3458 -0.5185
25918SOL     OW80132   9.881   5.860   9.003  0.3204  0.4184 -0.1642
25918SOL    HW180133   9.969   5.890   8.978  0.5999  0.0418  0.3509
25918SOL    HW280134   9.843   5.826   8.922  0.5036  0.9261 -0.4713
25919SOL     OW80135   4.605   9.979   9.185  0.5309 -0.6167  0.0814
25919SOL    HW180136   4.561   9.953   9.104  0.7249 -2.4191  0.5058
25919SOL    HW280137   4.581  10.071   9.197 -0.6197 -0.7005 -1.2784
25920SOL     OW80138   0.598   9.254   8.859 -0.2035 -0.4983  0.0711
25920SOL    HW180139   0.679   9.299   8.881 -0.4567  0.4317 -0.8242
25920SOL    HW280140   0.548   9.253   8.940 -0.3679  1.2425  0.0237
25921SOL     OW80141   3.969   7.622   8.592  0.0429  0.4287  0.0068
25921SOL    HW180142   3.891   7.595   8.641  0.5779 -1.4766 -0.1144
25921SOL    HW280143   3.938   7.630   8.501 -0.4048  1.5653  0.2410
25922SOL     OW80144   1.023   7.636   9.280  0.2489  0.2194  0.6268
25922SOL    HW180145   0.958   7.687   9.232 -1.1211 -1.0366  1.0788
25922SOL    HW280146   1.069   7.586   9.212 -0.4540 -0.1967  0.4501
25923SOL     OW80147   8.296   3.285   7.697 -0.0401 -0.0080 -0.0527
25923SOL    HW180148   8.259   3.373   7.697 -0.9403 -0.3580  1.1042
25923SOL    HW280149   8.243   3.237   7.633 -0.6143 -0.1078  0.4831
25924SOL     OW80150   5.053   2.773   4.065  0.1978  0.3901 -0.0749
25924SOL    HW180151   5.087   2.862   4.080  2.1736 -0.4780  1.1181
25924SOL    HW280152   5.064   2.759   3.971 -1.5430  1.8842 -0.5638
25925SOL     OW80153   5.127   1.965   2.840  0.2734  0.7677  0.0410
25925SOL    HW180154   5.117   1.871   2.830  0.9832  0.7176 -0.2711
25925SOL    HW280155   5.208   1.986   2.793 -0.2794  1.6421 -0.5606
25926SOL     OW80156   3.004   4.977   5.071  0.1474  1.0400  0.0948
25926SOL    HW180157   3.088   4.970   5.026 -0.6455 -2.9692 -1.0775
25926SOL    HW280158   3.022   4.948   5.161  0.1940  1.4049  0.2095
25927SOL     OW80159   1.018   9.810   8.537  0.5562 -0.0376  0.2051
25927SOL    HW180160   1.070   9.731   8.525 -0.6203 -0.5857 -1.5872
25927SOL    HW280161   0.936   9.780   8.575 -1.0210 -0.2016 -2.9658
25928SOL     OW80162   6.707   1.487   2.972 -0.1779 -0.2954 -0.9319
25928SOL    HW180163   6.683   1.539   3.049  1.3821  0.4109 -0.8944
25928SOL    HW280164   6.635   1.424   2.963 -0.6211 -0.1011  0.8222
25929SOL     OW80165   5.743   1.011   3.898 -0.0886  0.1283 -0.1980
25929SOL    HW180166   5.687   0.942   3.934 -1.8716  1.8350  0.4994
25929SOL    HW280167   5.710   1.026   3.809 -1.0522  1.3598  0.3259
25930SOL     OW80168   9.716   9.477   9.482 -0.1983 -0.4981 -0.0068
25930SOL    HW180169   9.720   9.452   9.390  1.2038 -1.4078  0.2689
25930SOL    HW280170   9.636   9.530   9.489  0.6741  1.2754 -2.1331
25931SOL     OW80171   8.285   8.578   1.406 -0.0632 -0.2071 -0.3758
25931SOL    HW180172   8.211   8.592   1.465  1.8009  2.0269  1.6315
25931SOL    HW280173   8.278   8.648   1.341 -0.1273 -0.4829 -0.6710
25932SOL     OW80174   9.365   4.990  10.550  0.4158 -0.0085  0.3673
25932SOL    HW180175   9.336   5.069  10.506  0.5024  0.5707  1.3245
25932SOL    HW280176   9.406   4.938  10.481 -0.5003  0.3329 -0.4706
25933SOL     OW80177   8.869   0.684   2.170  0.0658  0.8683 -0.2626
25933SOL    HW180178   8.893   0.611   2.228 -0.2091  1.4289  0.5742
25933SOL    HW280179   8.952   0.726   2.148  0.3510 -0.3520 -1.6689
25934SOL     OW80180   2.040   8.496   8.612 -0.2253 -0.0325  0.4905
25934SOL    HW180181   2.015   8.494   8.704  0.3331 -0.4340  0.6375
25934SOL    HW280182   2.013   8.582   8.581 -0.9557 -0.1186  0.8775
25935SOL     OW80183   1.027   2.801   9.364 -0.1724 -0.0143  0.1007
25935SOL    HW180184   1.111   2.755   9.368 -0.1451 -0.2297 -1.8864
25935SOL    HW280185   0.968   2.749   9.418  0.6014 -0.6854  0.3257
25936SOL     OW80186   0.306  10.126   7.197 -0.6405  0.0151  0.0839
25936SOL    HW180187   0.224  10.128   7.148  0.2733  1.9574 -1.5527
25936SOL    HW280188   0.285  10.169   7.280 -0.7983  3.0206 -1.3668
25937SOL     OW80189   5.900   9.372   5.628 -0.1464 -0.4482  0.1264
25937SOL    HW180190   5.812   9.361   5.590 -0.3385  1.3054 -0.0363
25937SOL    HW280191   5.950   9.416   5.560 -0.4486  2.6275  1.7047
25938SOL     OW80192   0.648   5.766   3.753  0.7250 -0.0301 -0.0146
25938SOL    HW180193   0.720   5.811   3.708 -1.2773  0.3770 -3.0517
25938SOL    HW280194   0.569   5.809   3.722 -0.9929 -1.4967  1.9973
25939SOL     OW80195   6.597   5.091  10.240 -0.0542 -0.3392 -0.7334
25939SOL    HW180196   6.666   5.068  10.302  0.6596  0.0874 -1.3611
25939SOL    HW280197   6.612   5.034  10.165  0.9375  1.2099 -1.7625
25940SOL     OW80198   3.260   3.134   6.576  0.9848  0.2626 -0.2074
25940SOL    HW180199   3.220   3.173   6.498 -2.2428  1.0949  1.6749
25940SOL    HW280200   3.350   3.166   6.576  0.4662  1.9713 -2.4269
25941SOL     OW80201   1.513   4.219   7.652 -0.9012  0.2001  0.6135
25941SOL    HW180202   1.594   4.271   7.654 -1.0017  0.3236  1.9092
25941SOL    HW280203   1.540   4.132   7.682 -1.0578 -0.0466  0.0501
25942SOL     OW80204   0.857   1.085   1.035  0.3585 -0.0968  0.0107
25942SOL    HW180205   0.867   1.002   1.082  0.6004 -1.7285 -2.7391
25942SOL    HW280206   0.922   1.143   1.076  1.4673 -1.8188  0.8322
25943SOL     OW80207   4.968   3.895   8.224 -0.3248  0.4589  0.1469
25943SOL    HW180208   5.057   3.923   8.243 -0.1671 -0.8145  1.4790
25943SOL    HW280209   4.912   3.957   8.271 -0.1891  1.5135 -1.0328
25944SOL     OW80210   8.482   1.556   2.800  0.1256  0.3507 -0.5423
25944SOL    HW180211   8.445   1.607   2.871 -0.4211  1.6041 -1.6764
25944SOL    HW280212   8.572   1.538   2.826 -0.3408 -0.0288  0.8604
25945SOL     OW80213   1.333   5.943  10.066 -0.0191 -0.1324 -0.3223
25945SOL    HW180214   1.418   5.907  10.091  0.5090  1.0494 -0.3422
25945SOL    HW280215   1.354   6.026  10.023 -1.1134 -0.4904 -1.6108
25946SOL     OW80216   7.299   6.027   6.798 -0.2495 -0.1288 -0.2984
25946SOL    HW180217   7.368   6.024   6.865 -1.2836 -1.6009  0.7812
25946SOL    HW280218   7.325   5.960   6.735 -0.0915  0.1506 -0.5325
25947SOL     OW80219   3.178   3.928   6.957 -0.0088 -0.4179 -0.2899
25947SOL    HW180220   3.272   3.918   6.943  0.5100  0.4616  2.0298
25947SOL    HW280221   3.155   4.005   6.905  1.5008  1.8857  2.1717
25948SOL     OW80222   7.031   4.546   1.347  0.0930 -0.0537 -0.2827
25948SOL    HW180223   7.025   4.607   1.274 -0.2562  1.0344  0.6234
25948SOL    HW280224   6.952   4.563   1.398 -0.7404 -2.2669 -0.7350
25949SOL     OW80225   3.966   7.273   1.190 -0.7557  0.3343 -0.1407
25949SOL    HW180226   3.981   7.271   1.095 -0.3271  0.1228 -0.0726
25949SOL    HW280227   3.874   7.248   1.200 -0.5435 -0.6539 -0.4496
25950SOL     OW80228   6.334   0.456   0.617 -0.1705  0.1561  0.2313
25950SOL    HW180229   6.337   0.381   0.677  0.0085  0.1627  0.2313
25950SOL    HW280230   6.384   0.428   0.541 -1.0828 -0.1584 -0.2698
25951SOL     OW80231   9.262   5.752  10.776 -0.1854 -0.0425  0.3922
25951SOL    HW180232   9.347   5.734  10.815 -0.5556  0.2152  1.3294
25951SOL    HW280233   9.211   5.792  10.846 -1.1614 -0.4144 -0.0880
25952SOL     OW80234   3.365   6.993   0.034 -0.1129 -0.2473 -0.5292
25952SOL    HW180235   3.367   7.083   0.067  4.2802  0.0619 -1.0893
25952SOL    HW280236   3.381   6.939   0.111 -1.7891 -0.5351 -0.3529
25953SOL     OW80237   0.926  10.260   4.514 -0.1038  0.2012  0.1872
25953SOL    HW180238   0.946  10.299   4.599  1.1435  1.2365 -0.5486
25953SOL    HW280239   1.012  10.238   4.477 -0.6776 -2.8709  0.3458
25954SOL     OW80240   5.189   6.373   0.948 -1.0849  0.0374  0.1548
25954SOL    HW180241   5.249   6.333   0.885  1.2582  0.3009  2.0634
25954SOL    HW280242   5.151   6.447   0.902 -1.0433 -0.9619 -1.5747
25955SOL     OW80243   5.733   9.746   6.055  0.4113  0.1642 -0.2581
25955SOL    HW180244   5.732   9.733   6.149  3.3882  1.6432  0.1103
25955SOL    HW280245   5.799   9.684   6.022 -0.7111 -0.4633 -1.4223
25956SOL     OW80246   9.487  10.723   1.449 -0.2510  0.0687 -0.3409
25956SOL    HW180247   9.444  10.644   1.415 -2.1590  1.1469 -0.5563
25956SOL    HW280248   9.576  10.718   1.413 -0.0611 -2.3178  0.2348
25957SOL     OW80249   6.507   9.569   6.041  0.3068  0.3487  0.2677
25957SOL    HW180250   6.440   9.552   6.107 -1.2960  0.2026 -1.3088
25957SOL    HW280251   6.477   9.648   5.996  0.6565 -0.2708 -1.1022
25958SOL     OW80252   4.975   6.133   9.918  0.1350 -0.7157 -0.4836
25958SOL    HW180253   5.007   6.216   9.883 -0.8856 -0.2068 -0.2410
25958SOL    HW280254   4.880   6.146   9.926  0.1692 -1.3368  1.0711
25959SOL     OW80255   9.330   1.436   1.493  0.5578  0.1020  0.1812
25959SOL    HW180256   9.310   1.351   1.454 -1.4296  0.3666  0.5157
25959SOL    HW280257   9.384   1.415   1.569 -2.6356 -1.3336  2.3152
25960SOL     OW80258   9.247   6.046  10.311 -0.2125  0.7888 -0.1111
25960SOL    HW180259   9.193   5.967  10.305  0.8839  0.0615 -0.9360
25960SOL    HW280260   9.202   6.110  10.256  0.8187 -0.4835 -2.5652
25961SOL     OW80261   8.520   7.718   9.765  0.5310  0.0631  0.5889
25961SOL    HW180262   8.543   7.777   9.837 -0.3914  0.0018  0.9474
25961SOL    HW280263   8.432   7.687   9.786  0.4953 -0.4478 -0.2484
25962SOL     OW80264   9.290   5.532   1.058 -0.0809 -0.3419  0.3473
25962SOL    HW180265   9.344   5.486   0.994  0.4136 -0.5009  0.8704
25962SOL    HW280266   9.311   5.624   1.045 -0.0099 -0.3706  0.2549
25963SOL     OW80267   2.189   2.818   4.884  0.3620 -0.4232  0.5251
25963SOL    HW180268   2.199   2.813   4.979  1.4051 -0.6260  0.4223
25963SOL    HW280269   2.255   2.757   4.850  1.3626  1.1018 -0.3771
25964SOL     OW80270   3.370   9.077   9.511 -0.1877 -0.5508  0.6079
25964SOL    HW180271   3.416   9.117   9.585 -1.8568 -0.4067  1.6034
25964SOL    HW280272   3.294   9.133   9.496 -0.5526 -1.2817 -0.4210
25965SOL     OW80273   6.751   7.982  10.005 -0.0822 -0.7648 -0.1296
25965SOL    HW180274   6.736   8.046   9.935 -2.7059  0.1597  1.1570
25965SOL    HW280275   6.797   8.032  10.073 -1.8388 -0.2263  0.7367
25966SOL     OW80276   0.337   3.216   0.708  0.2099  0.3732 -0.0120
25966SOL    HW180277   0.298   3.159   0.643  1.3207  0.4090 -0.7465
25966SOL    HW280278   0.288   3.298   0.700 -1.9088 -0.6404  1.5865
25967SOL     OW80279   1.025   8.583   6.064  0.3580  0.3501 -0.3438
25967SOL    HW180280   0.982   8.665   6.089 -1.7675 -0.7546 -0.1640
25967SOL    HW280281   1.117   8.596   6.088 -0.0639  2.3832  0.3843
25968SOL     OW80282   2.305   5.959   8.432  0.0437  0.4243  0.0158
25968SOL    HW180283   2.348   5.922   8.355 -1.5244 -0.7386 -0.3595
25968SOL    HW280284   2.327   5.900   8.504 -1.2452 -0.4773 -0.2813
25969SOL     OW80285   6.748   2.825   8.293  0.4690 -0.3766 -0.8449
25969SOL    HW180286   6.687   2.896   8.312  1.3871  0.8693 -2.2904
25969SOL    HW280287   6.801   2.858   8.220  1.9314 -1.9676 -0.5616
25970SOL     OW80288   4.922   9.282   5.613  0.3922  0.2297 -0.5653
25970SOL    HW180289   4.926   9.373   5.642 -1.5345 -0.2140  1.3271
25970SOL    HW280290   4.864   9.285   5.536 -2.1381  0.3369  1.2154
25971SOL     OW80291   2.763   1.596   8.726  0.5577 -0.1909 -0.0995
25971SOL    HW180292   2.695   1.565   8.665  1.1116  0.8023 -1.2796
25971SOL    HW280293   2.833   1.531   8.719  0.3606 -0.4100 -0.0560
25972SOL     OW80294   4.823   5.940   4.719 -0.1395 -0.0488 -0.7001
25972SOL    HW180295   4.901   5.924   4.771 -0.3472  0.2812 -0.2907
25972SOL    HW280296   4.764   5.988   4.776  0.2831  1.8444 -1.7691
25973SOL     OW80297   3.315   4.813  10.143 -0.1256  0.2042  0.0959
25973SOL    HW180298   3.229   4.850  10.165  0.0490 -0.4293  2.0338
25973SOL    HW280299   3.310   4.793  10.050 -1.5805  1.4804 -0.1337
25974SOL     OW80300  10.457   7.605   3.123  0.4305 -0.1020  0.1230
25974SOL    HW180301  10.470   7.663   3.047 -1.7757 -0.3075 -0.4834
25974SOL    HW280302  10.487   7.520   3.092  1.0594  0.1506  0.0335
25975SOL     OW80303   9.478   4.703   2.409  0.2628  0.5888  0.3236
25975SOL    HW180304   9.520   4.642   2.469  0.0549 -0.1531 -0.2597
25975SOL    HW280305   9.525   4.691   2.326 -0.8870 -0.0708 -0.2703
25976SOL     OW80306   9.025   1.881   1.178 -0.0309  0.3539  0.2228
25976SOL    HW180307   9.110   1.886   1.220  1.3119 -1.2104 -2.0986
25976SOL    HW280308   8.995   1.791   1.193  0.2556 -0.0875 -1.6287
25977SOL     OW80309   1.996   3.254   8.157 -0.3434 -0.3441 -0.4484
25977SOL    HW180310   1.984   3.319   8.087 -1.6086 -0.4321 -0.3470
25977SOL    HW280311   2.064   3.196   8.125 -1.9718 -1.3289 -2.3719
25978SOL     OW80312   3.060   1.051   0.127  0.3417 -0.3163 -0.8669
25978SOL    HW180313   3.077   1.144   0.142 -0.7980 -0.3616  1.0070
25978SOL    HW280314   3.111   1.030   0.048  1.0164  1.7549 -1.0539
25979SOL     OW80315   3.066   6.021   8.372 -0.0365  0.3593  0.2004
25979SOL    HW180316   3.021   5.943   8.404 -0.6038  0.3918 -0.4917
25979SOL    HW280317   3.041   6.090   8.434  1.7164 -0.3026  1.7398
25980SOL     OW80318   5.944   0.514   9.797  0.0820 -0.8228 -0.4389
25980SOL    HW180319   6.036   0.506   9.771  0.8074  1.7775  0.9147
25980SOL    HW280320   5.948   0.543   9.889 -2.1205 -1.0797 -0.2042
25981SOL     OW80321   3.683   6.472   1.259  0.0202  0.0923 -0.3796
25981SOL    HW180322   3.745   6.514   1.200  0.9030 -0.8634 -0.1552
25981SOL    HW280323   3.600   6.475   1.212  0.9991 -2.1845 -2.5152
25982SOL     OW80324   3.002   4.934   3.067  0.0539  0.2364 -0.6797
25982SOL    HW180325   3.032   4.912   2.979  2.6009 -1.3397  0.4586
25982SOL    HW280326   2.911   4.961   3.056  0.5089  0.7568 -3.8437
25983SOL     OW80327   4.828   3.675   5.153  0.2546 -0.0670 -0.3058
25983SOL    HW180328   4.746   3.640   5.187 -0.1814  1.1256 -0.0958
25983SOL    HW280329   4.895   3.613   5.182 -0.4821 -0.6629  0.1368
25984SOL     OW80330   2.712   7.155   4.121  0.2639 -0.1131 -0.0407
25984SOL    HW180331   2.639   7.216   4.131 -1.2535 -1.6891 -0.8611
25984SOL    HW280332   2.765   7.167   4.200 -1.6694  0.0990  1.2976
25985SOL     OW80333   3.513   7.623   8.999 -0.1220 -0.0482 -0.0685
25985SOL    HW180334   3.440   7.659   9.050 -0.6972 -0.8472 -0.3081
25985SOL    HW280335   3.527   7.687   8.929 -2.4658 -1.1249 -1.7003
25986SOL     OW80336   9.467   0.288   6.853 -0.0099  0.0656 -0.0913
25986SOL    HW180337   9.475   0.373   6.810 -0.6745  0.2481  0.1289
25986SOL    HW280338   9.473   0.308   6.947 -2.5287  0.2170  0.1163
25987SOL     OW80339   9.295   2.645   0.456 -0.6954 -0.0335 -0.2647
25987SOL    HW180340   9.210   2.603   0.472  0.3904 -2.9177 -1.4809
25987SOL    HW280341   9.351   2.575   0.424  2.0017  1.9256 -0.1738
25988SOL     OW80342   4.855   1.462   7.745  0.3269  0.1127  0.2203
25988SOL    HW180343   4.826   1.373   7.727 -2.2137  0.9126 -0.1270
25988SOL    HW280344   4.900   1.457   7.829 -0.9107 -1.3173  0.8281
25989SOL     OW80345   3.736   5.279   2.779 -0.0985  0.3577 -0.0763
25989SOL    HW180346   3.791   5.347   2.739 -0.6772  0.6072 -0.4556
25989SOL    HW280347   3.656   5.324   2.803 -0.4484 -0.1666 -0.2432
25990SOL     OW80348  10.023   8.368   7.360 -0.3787  0.3919 -0.1107
25990SOL    HW180349  10.017   8.457   7.327  2.2346  1.0920  1.1027
25990SOL    HW280350   9.941   8.355   7.407  0.1083  3.0295  1.6607
25991SOL     OW80351   3.150   1.937   7.833  0.2150  0.4552 -0.4175
25991SOL    HW180352   3.187   1.850   7.849  0.9410  0.9631  0.8487
25991SOL    HW280353   3.064   1.920   7.796 -0.4547 -0.8876  1.5705
25992SOL     OW80354   3.677   4.921   8.291  0.1354  0.2833  0.0188
25992SOL    HW180355   3.740   4.993   8.286  0.4999 -0.0743 -0.8172
25992SOL    HW280356   3.596   4.958   8.254  0.4967  0.0975 -0.9923
25993SOL     OW80357   0.840   5.462  10.530  0.3131  0.2757  1.0636
25993SOL    HW180358   0.766   5.503  10.484 -0.0911 -1.6535 -0.0955
25993SOL    HW280359   0.812   5.460  10.622 -0.8249  0.1104  0.7350
25994SOL     OW80360   1.340   8.370  10.034 -0.5443  0.7701 -0.0867
25994SOL    HW180361   1.266   8.416   9.995 -0.2174  1.2703 -0.1257
25994SOL    HW280362   1.416   8.396   9.981 -0.4821 -0.4919 -0.6442
25995SOL     OW80363   7.484   1.049   8.554 -0.0290 -0.5733  0.1482
25995SOL    HW180364   7.431   1.016   8.627  1.4011 -0.0535  1.4727
25995SOL    HW280365   7.449   1.137   8.538  0.2820 -0.3059  0.8851
25996SOL     OW80366   2.950   0.826  10.562  0.3671  0.4844  0.3787
25996SOL    HW180367   2.924   0.739  10.591 -2.1395  0.4530 -1.6093
25996SOL    HW280368   2.957   0.818  10.467  1.3498  2.1775  0.2633
25997SOL     OW80369   3.372   4.490   4.735 -0.1428 -0.5445  0.5267
25997SOL    HW180370   3.305   4.533   4.789 -0.6872 -1.3652  0.5371
25997SOL    HW280371   3.322   4.431   4.679  0.6462 -2.0645  1.3663
25998SOL     OW80372   7.180   1.306   2.748  0.0679 -0.5257  0.4008
25998SOL    HW180373   7.127   1.309   2.828 -0.1932 -0.8684  0.2417
25998SOL    HW280374   7.250   1.244   2.768  0.3234 -0.1885  0.5578
25999SOL     OW80375   0.281   3.953   2.143 -0.2753  0.3612  0.0355
25999SOL    HW180376   0.245   3.997   2.066  0.4545 -2.3457 -2.0467
25999SOL    HW280377   0.348   3.894   2.107  1.7218  0.6018  3.0471
26000SOL     OW80378   8.567   8.187   5.726 -0.1054  0.2272  0.7756
26000SOL    HW180379   8.643   8.229   5.766 -0.0202 -0.7859  1.7472
26000SOL    HW280380   8.492   8.230   5.766 -0.0187 -0.1999  1.4283
26001SOL     OW80381  10.608   2.612   6.297  0.4826  0.1455  0.6190
26001SOL    HW180382  10.660   2.671   6.242  1.2226 -1.1279 -0.0895
26001SOL    HW280383  10.658   2.530   6.299 -0.1744 -0.2639  2.1434
26002SOL     OW80384   5.249   1.500   2.882 -0.0974  0.0521 -0.1286
26002SOL    HW180385   5.337   1.491   2.845  1.3765  0.2181  3.0257
26002SOL    HW280386   5.214   1.411   2.881  0.1642 -0.0603 -1.1813
26003SOL     OW80387   8.152   0.856   9.091  0.1476  0.3483  0.2880
26003SOL    HW180388   8.230   0.810   9.062  0.6906  1.0897  0.5535
26003SOL    HW280389   8.109   0.885   9.010  0.0978 -0.1366  0.1401
26004SOL     OW80390   8.557   7.558   5.610 -0.2796 -0.0763 -0.2115
26004SOL    HW180391   8.554   7.468   5.643  0.2653 -0.0798 -0.1496
26004SOL    HW280392   8.572   7.549   5.516 -0.7769 -0.0537 -0.2957
26005SOL     OW80393  10.372   8.764   5.273  0.0123  0.3257 -0.5537
26005SOL    HW180394  10.286   8.798   5.248  0.4506  0.6673 -1.6725
26005SOL    HW280395  10.418   8.754   5.190  1.0004 -0.0002  0.0232
26006SOL     OW80396   2.510   5.525  10.661  0.1159 -0.3785 -0.3399
26006SOL    HW180397   2.460   5.530  10.580 -0.2976 -1.4479 -0.1586
26006SOL    HW280398   2.577   5.459  10.644 -0.9466 -1.7825  0.6861
26007SOL     OW80399   5.606   3.202   7.626  0.3939  0.5263  0.2701
26007SOL    HW180400   5.579   3.278   7.574 -0.1785  0.0938 -0.0818
26007SOL    HW280401   5.529   3.181   7.680 -0.0258 -0.7392 -0.7576
26008SOL     OW80402   2.261   9.685   0.591 -0.9736  0.0282  0.1436
26008SOL    HW180403   2.214   9.705   0.673 -1.0882  3.4950 -0.6183
26008SOL    HW280404   2.197   9.638   0.538 -1.1323 -1.6464  1.6905
26009SOL     OW80405   6.896   1.881  10.582  0.3117  0.6014 -0.5272
26009SOL    HW180406   6.968   1.830  10.546 -0.9383 -1.1482 -0.6803
26009SOL    HW280407   6.881   1.842  10.668  0.3526  1.7880  0.0289
26010SOL     OW80408   7.572   6.244  10.359 -0.2289  0.1370  0.3192
26010SOL    HW180409   7.531   6.258  10.444 -0.5118  1.1123  0.0381
26010SOL    HW280410   7.539   6.316  10.304  0.2497 -0.2506 -0.4977
26011SOL     OW80411   9.866   9.800   9.594  0.1704  0.5377 -0.2424
26011SOL    HW180412   9.873   9.782   9.688  0.6115 -0.1192 -0.3980
26011SOL    HW280413   9.901   9.722   9.552  2.0158  1.6899 -0.9388
26012SOL     OW80414   4.191   2.489   5.626 -0.4403  0.2850  0.7380
26012SOL    HW180415   4.272   2.478   5.577  1.4829  0.5371  3.6474
26012SOL    HW280416   4.172   2.583   5.622 -1.8758 -0.0371 -1.7158
26013SOL     OW80417   3.656   9.170   6.251  0.0708 -1.0289  0.1439
26013SOL    HW180418   3.673   9.258   6.217  0.6464 -1.5271 -0.9110
26013SOL    HW280419   3.732   9.151   6.306  0.4096 -1.2138 -0.3744
26014SOL     OW80420   3.632   2.745   5.909 -0.0465 -0.5050  0.3549
26014SOL    HW180421   3.573   2.670   5.901 -0.5870 -0.1720  1.1455
26014SOL    HW280422   3.613   2.781   5.995  0.2894  0.4847  0.0207
26015SOL     OW80423   5.464   2.792   6.860  0.5236  0.3159  0.5702
26015SOL    HW180424   5.402   2.741   6.913 -0.5383  0.5039 -0.4530
26015SOL    HW280425   5.543   2.796   6.914  0.3870 -1.7422  1.0335
26016SOL     OW80426   3.982   9.946   8.161 -0.3040 -0.2169 -0.0043
26016SOL    HW180427   3.975   9.937   8.256  1.4151 -0.7714  0.1226
26016SOL    HW280428   4.024  10.031   8.148  1.7605 -1.1620 -0.0621
26017SOL     OW80429   3.419   5.782   9.452 -0.2482  0.2504  0.4426
26017SOL    HW180430   3.357   5.712   9.475 -0.7638  0.7363  0.5594
26017SOL    HW280431   3.369   5.863   9.466  0.3910  0.6447  0.4510
26018SOL     OW80432   0.869   0.042   2.186  0.8199  0.5148  0.3807
26018SOL    HW180433   0.839   0.123   2.228  0.1058  0.0418  0.7977
26018SOL    HW280434   0.951   0.021   2.232 -0.1955 -0.2510  1.9076
26019SOL     OW80435   3.562   9.105   7.127 -0.4400  0.4117 -0.0394
26019SOL    HW180436   3.566   9.010   7.134 -0.5565  0.4653  0.7835
26019SOL    HW280437   3.490   9.131   7.184 -1.9183  0.8173 -1.9773
26020SOL     OW80438   5.797   9.402   5.133 -0.0491  0.1295 -0.2233
26020SOL    HW180439   5.853   9.325   5.122 -1.7707 -1.3360  0.6971
26020SOL    HW280440   5.710   9.372   5.107 -0.9366  1.5145  0.9869
26021SOL     OW80441  10.367   4.045   6.005 -0.6868 -0.2669 -0.9743
26021SOL    HW180442  10.400   4.111   6.066  0.2081 -0.3430 -1.3514
26021SOL    HW280443  10.356   3.967   6.058  0.6510 -0.4995 -0.9970
26022SOL     OW80444   0.641   4.963   8.849 -0.5112 -0.5220 -0.1604
26022SOL    HW180445   0.686   4.987   8.930 -2.2059  1.5973  0.2582
26022SOL    HW280446   0.685   5.014   8.781 -0.6009 -0.4635 -0.1750
26023SOL     OW80447   9.085   0.038   3.502  0.1260 -0.3664  0.1660
26023SOL    HW180448   9.124   0.005   3.421  2.2117  0.4620  0.7608
26023SOL    HW280449   9.154   0.025   3.568 -0.9402  0.4125  1.4722
26024SOL     OW80450   4.560   1.362   1.301  0.0873 -0.2061 -0.2471
26024SOL    HW180451   4.625   1.425   1.331 -1.1912  0.8516  0.3562
26024SOL    HW280452   4.548   1.382   1.208 -0.6739  0.7976  0.0530
26025SOL     OW80453   3.980   5.322   8.482 -0.3230  0.3249 -0.6630
26025SOL    HW180454   4.063   5.315   8.530 -0.3872  0.0900 -0.5831
26025SOL    HW280455   3.962   5.233   8.452 -1.0541  0.1636  0.1859
26026SOL     OW80456   5.834   5.727   5.311 -0.1640 -0.1555  0.0004
26026SOL    HW180457   5.782   5.657   5.272  1.2424 -0.4330 -1.4542
26026SOL    HW280458   5.820   5.803   5.254 -1.7480  0.8470  1.6087
26027SOL     OW80459   0.104   9.342   5.649 -0.2366 -0.1438  0.3566
26027SOL    HW180460   0.090   9.263   5.702 -0.9589  0.5716  1.2696
26027SOL    HW280461   0.197   9.341   5.627 -0.8242 -3.2297 -2.8660
26028SOL     OW80462   0.345   7.032   3.343  0.2943 -0.6585  0.6648
26028SOL    HW180463   0.398   7.053   3.420 -0.6589 -0.6020  1.3243
26028SOL    HW280464   0.406   7.037   3.270  1.1039 -0.1891  1.3530
26029SOL     OW80465   6.125   5.620   6.351  0.2209  0.2018  0.2760
26029SOL    HW180466   6.109   5.631   6.444 -1.1058  0.8185  0.0085
26029SOL    HW280467   6.040   5.595   6.315  1.4774 -3.9061 -0.2843
26030SOL     OW80468   9.491  10.577   0.627  0.0721 -0.4760  0.5340
26030SOL    HW180469   9.473  10.522   0.551  0.5047  1.0970 -0.7638
26030SOL    HW280470   9.492  10.516   0.701 -0.4169 -2.0489 -0.6965
26031SOL     OW80471   0.282   3.490   4.382 -0.5584  0.8476  0.5248
26031SOL    HW180472   0.216   3.491   4.312  0.6323  0.1307 -0.6545
26031SOL    HW280473   0.332   3.570   4.369  0.6465 -0.0274 -0.4623
26032SOL     OW80474   4.617   6.801   8.138 -0.0519 -0.6418  0.0704
26032SOL    HW180475   4.604   6.896   8.136 -0.2664 -0.6741 -0.6620
26032SOL    HW280476   4.528   6.765   8.142  0.0024 -0.8170 -0.2585
26033SOL     OW80477   4.884   1.410   1.126 -0.0647 -0.4652 -0.1116
26033SOL    HW180478   4.968   1.454   1.110 -0.5635 -0.0000 -1.6675
26033SOL    HW280479   4.905   1.341   1.189  1.2333  0.4259  0.4817
26034SOL     OW80480   6.900   5.276   7.461 -0.2396 -0.2289  1.1594
26034SOL    HW180481   6.845   5.226   7.521  0.2516 -0.4800  1.4009
26034SOL    HW280482   6.962   5.321   7.518  2.0201 -2.5835  0.7432
26035SOL     OW80483   4.450   6.737   7.729  0.1194 -0.3800  0.3518
26035SOL    HW180484   4.378   6.714   7.788  0.2206  0.7898  0.9496
26035SOL    HW280485   4.529   6.710   7.776  0.2906  1.7522  1.3976
26036SOL     OW80486   9.287   2.822   5.043  0.3499  0.2469  0.0533
26036SOL    HW180487   9.207   2.841   4.994 -0.1884 -1.4697  0.1969
26036SOL    HW280488   9.351   2.798   4.975  0.4278  0.5436  0.0187
26037SOL     OW80489   2.870   4.045   3.643  0.2736 -0.7204 -0.7686
26037SOL    HW180490   2.783   4.080   3.626  0.3007  0.5063  1.2737
26037SOL    HW280491   2.874   4.036   3.738  2.1087 -1.4763 -0.8725
26038SOL     OW80492   1.819  10.119   5.508  0.1252  0.2966 -0.4128
26038SOL    HW180493   1.746  10.115   5.570 -0.0719 -1.1358 -0.6993
26038SOL    HW280494   1.793  10.059   5.438  2.5090 -2.0756  0.5336
26039SOL     OW80495   3.851   4.941   7.034  0.1376 -0.0369 -0.7119
26039SOL    HW180496   3.797   5.014   7.003 -0.3920  0.4439  1.1922
26039SOL    HW280497   3.804   4.907   7.110  1.5061 -0.9123 -0.2200
26040SOL     OW80498   1.556   6.018   0.203 -1.1141 -0.4027 -0.0670
26040SOL    HW180499   1.527   6.080   0.271  2.0116 -0.5825  1.5912
26040SOL    HW280500   1.596   6.073   0.136  0.0971 -0.4628  0.5789
26041SOL     OW80501   0.196   5.982   9.354 -0.1961 -0.3835  0.2785
26041SOL    HW180502   0.280   6.001   9.312  0.5990  0.5409  2.1889
26041SOL    HW280503   0.171   5.896   9.320  0.9912 -0.2197 -1.1143
26042SOL     OW80504   3.584   8.317   3.507  0.3690 -0.3752  0.7616
26042SOL    HW180505   3.536   8.393   3.541 -0.2195 -0.3817 -0.0240
26042SOL    HW280506   3.675   8.345   3.506 -0.0809  1.3570 -2.0335
26043SOL     OW80507   2.288   1.755   8.259 -0.5177  0.0900 -0.4804
26043SOL    HW180508   2.259   1.686   8.200 -0.5351 -0.0631 -0.2952
26043SOL    HW280509   2.236   1.742   8.339 -1.3760  1.0415 -0.8646
26044SOL     OW80510   9.657   6.262  10.452  0.0712 -0.0073 -0.6483
26044SOL    HW180511   9.671   6.194  10.517  0.3327  0.2374 -0.4447
26044SOL    HW280512   9.744   6.275  10.413 -0.0745 -0.1217 -1.0156
26045SOL     OW80513   8.104   0.881   8.774 -0.0324  1.1946  0.3355
26045SOL    HW180514   8.163   0.816   8.737 -0.5384 -0.4462  2.2560
26045SOL    HW280515   8.136   0.965   8.740  0.2605 -0.0206 -2.7359
26046SOL     OW80516   0.738   1.573   8.417 -0.3408 -0.2554  0.7234
26046SOL    HW180517   0.727   1.491   8.465 -0.1194 -0.4314  0.4794
26046SOL    HW280518   0.777   1.546   8.334 -1.4729 -0.0596  0.1022
26047SOL     OW80519   6.681   1.770   8.640 -0.6842 -0.2560  0.0450
26047SOL    HW180520   6.663   1.700   8.577 -2.9925  0.1521  0.1609
26047SOL    HW280521   6.721   1.840   8.588  2.3351 -1.7975  0.0461
26048SOL     OW80522   5.714   8.342   9.518 -0.5955  0.0438  0.3501
26048SOL    HW180523   5.759   8.421   9.488 -2.8190  1.6277  0.8950
26048SOL    HW280524   5.782   8.275   9.523  1.8938  2.5190  2.1995
26049SOL     OW80525   2.446   2.354  10.047  0.3032  0.6319 -0.1280
26049SOL    HW180526   2.520   2.331  10.104 -0.2832  1.3157  0.9432
26049SOL    HW280527   2.451   2.450  10.040 -0.0001  0.6053 -0.7150
26050SOL     OW80528   9.876   2.868   8.426  0.1021  0.2796  0.1769
26050SOL    HW180529   9.874   2.910   8.512  0.4355  2.4078 -0.7847
26050SOL    HW280530   9.968   2.849   8.411  0.1450  0.6390 -0.0282
26051SOL     OW80531   1.260   8.180   7.869 -0.2141  0.0138  0.0813
26051SOL    HW180532   1.233   8.262   7.828 -1.0412 -1.4457 -2.4940
26051SOL    HW280533   1.321   8.141   7.807 -0.2100 -1.5600  1.0238
26052SOL     OW80534   0.817   6.186   8.678 -0.5750 -0.3802  0.2128
26052SOL    HW180535   0.825   6.110   8.620 -0.5235  1.4187 -2.2915
26052SOL    HW280536   0.904   6.196   8.716  0.8614  1.0468 -3.0702
26053SOL     OW80537   2.157   8.224   0.780  0.1755 -0.0529  0.2297
26053SOL    HW180538   2.188   8.262   0.698 -0.9096  0.9524  0.2638
26053SOL    HW280539   2.160   8.129   0.764 -1.2033  0.1380 -1.4339
26054SOL     OW80540   7.920   5.942  10.517 -0.1205 -0.5261 -0.0569
26054SOL    HW180541   7.856   5.887  10.561  1.2207 -1.8842  0.2927
26054SOL    HW280542   7.980   5.969  10.587  0.1243  0.0822 -0.4965
26055SOL     OW80543   6.585   1.453   9.835 -0.2458  0.2776 -0.3572
26055SOL    HW180544   6.491   1.471   9.834 -0.4216 -0.5963 -0.7530
26055SOL    HW280545   6.594   1.373   9.783  0.7481  0.4954 -0.5386
26056SOL     OW80546   6.682   8.844   2.764 -0.2242 -0.2060  0.2226
26056SOL    HW180547   6.746   8.832   2.694  0.2218  1.2431  0.3505
26056SOL    HW280548   6.603   8.875   2.719  0.0946  0.8257  0.3448
26057SOL     OW80549   6.594  10.654   9.555 -0.2841  0.1112 -0.1656
26057SOL    HW180550   6.513  10.629   9.600  0.4902  0.5997  1.6013
26057SOL    HW280551   6.646  10.574   9.554 -0.3080  0.0960 -0.2062
26058SOL     OW80552  10.117   6.891   9.382  0.0188  0.2589 -0.3068
26058SOL    HW180553  10.040   6.942   9.408  1.4266  1.8952  0.9165
26058SOL    HW280554  10.122   6.903   9.287 -0.7109  0.8842 -0.2803
26059SOL     OW80555   7.597   3.435   1.496  0.0231  0.3026 -0.9134
26059SOL    HW180556   7.504   3.430   1.472 -0.4559 -0.3434  0.9076
26059SOL    HW280557   7.607   3.372   1.567  2.3314 -1.0631 -2.3299
26060SOL     OW80558   0.580   4.533   2.210  0.5231 -0.9151 -0.6623
26060SOL    HW180559   0.578   4.584   2.291  1.4066 -1.5026 -0.2514
26060SOL    HW280560   0.581   4.599   2.140  3.0319 -0.2539 -0.1248
26061SOL     OW80561   7.440  10.229   7.232  0.2098 -0.3187 -0.0463
26061SOL    HW180562   7.421  10.145   7.191  0.5848  0.5328 -2.0938
26061SOL    HW280563   7.461  10.207   7.322  0.2537 -2.4186 -0.5096
26062SOL     OW80564   5.638   9.430   2.144 -0.3050 -0.2148 -0.4164
26062SOL    HW180565   5.573   9.394   2.084 -0.9815  0.9774 -0.4185
26062SOL    HW280566   5.720   9.430   2.094 -0.8426  0.6855 -1.3232
26063SOL     OW80567   6.996   5.250   2.595  0.2524  0.2390  0.0939
26063SOL    HW180568   6.949   5.173   2.625 -0.9188  0.2641 -1.5243
26063SOL    HW280569   7.028   5.292   2.675 -1.6732 -0.3039  1.2152
26064SOL     OW80570   9.367   6.535   6.152 -0.0176  0.0437 -0.1381
26064SOL    HW180571   9.305   6.523   6.080  0.0602  1.2061 -0.4281
26064SOL    HW280572   9.417   6.613   6.127 -1.5564  1.9345  2.2091
26065SOL     OW80573   9.857   3.792   7.486  0.0741  0.4054 -0.1534
26065SOL    HW180574   9.844   3.699   7.467  0.5771 -0.4476  3.1220
26065SOL    HW280575   9.932   3.795   7.544 -1.6545  2.5007  2.2094
26066SOL     OW80576   8.312   1.479   1.270  0.3761 -0.3899 -0.0438
26066SOL    HW180577   8.260   1.557   1.254 -0.0906 -0.8358 -0.7576
26066SOL    HW280578   8.387   1.510   1.321  0.0580  0.4697 -0.0843
26067SOL     OW80579   6.402   2.574   7.096  0.1029 -0.2611 -0.0693
26067SOL    HW180580   6.332   2.535   7.149 -0.2223  0.8196  0.3268
26067SOL    HW280581   6.469   2.507   7.091  0.0202 -0.4813  1.5089
26068SOL     OW80582  10.613   5.330  10.263  0.7212  0.0631  0.2231
26068SOL    HW180583  10.622   5.415  10.306  1.7733 -0.0122  0.1790
26068SOL    HW280584  10.641   5.267  10.329 -2.1468 -0.4734  1.0244
26069SOL     OW80585   7.971   7.186  10.182  0.4849 -0.2076  0.4670
26069SOL    HW180586   7.991   7.180  10.089  1.6974 -0.9176  0.7438
26069SOL    HW280587   7.899   7.249  10.188  0.3022 -0.2599 -0.9506
26070SOL     OW80588   4.099   2.558   3.820 -0.0399 -0.1483 -0.4465
26070SOL    HW180589   4.173   2.520   3.867 -0.2291 -0.5264 -0.4476
26070SOL    HW280590   4.133   2.639   3.783  0.5683 -0.6483 -1.0095
26071SOL     OW80591   2.452   5.540   2.384  0.2101  0.1297 -0.3201
26071SOL    HW180592   2.499   5.582   2.312 -1.6208  1.2043 -0.9781
26071SOL    HW280593   2.405   5.467   2.343 -0.5808  0.5447 -0.1876
26072SOL     OW80594   5.738   4.027   1.655 -0.3113 -0.0244  0.1658
26072SOL    HW180595   5.697   3.956   1.704  1.3202 -0.1003  1.5073
26072SOL    HW280596   5.664   4.077   1.619 -1.5263 -1.1342  1.0206
26073SOL     OW80597   0.172   1.692   6.352  0.1523  0.1428  0.4902
26073SOL    HW180598   0.225   1.751   6.299  3.2995 -1.4479  1.5744
26073SOL    HW280599   0.168   1.734   6.438  0.4338 -0.1557  0.6507
26074SOL     OW80600   0.262   8.319   5.381 -0.2409  0.5578 -0.2865
26074SOL    HW180601   0.238   8.352   5.467  0.9548 -0.4100  0.4438
26074SOL    HW280602   0.229   8.385   5.320 -0.9134  1.3619  0.9121
26075SOL     OW80603   5.336   7.641   0.962  0.7194 -0.4425  0.0461
26075SOL    HW180604   5.401   7.664   1.028  0.6054 -1.4506  0.5443
26075SOL    HW280605   5.383   7.643   0.879  0.8071  1.0896  0.1147
26076SOL     OW80606   1.999   5.008   4.611  0.2038 -0.1886  0.4197
26076SOL    HW180607   2.089   4.985   4.587 -0.0681 -1.0017  0.1481
26076SOL    HW280608   1.990   4.978   4.702  0.3355  0.2967  0.6001
26077SOL     OW80609  10.675   1.232   8.466  0.1289 -0.1542 -0.3553
26077SOL    HW180610  10.726   1.151   8.467 -0.7970 -0.8146  2.3045
26077SOL    HW280611  10.732   1.298   8.506  0.6293  0.3670 -1.8804
26078SOL     OW80612   6.562   4.280   4.826  0.6577  0.7453 -0.7497
26078SOL    HW180613   6.476   4.313   4.801  0.9100  1.7276 -0.3598
26078SOL    HW280614   6.545   4.192   4.859 -0.4910  1.6346  1.1834
26079SOL     OW80615   4.326   3.191   7.865 -0.5935  0.2567  0.1422
26079SOL    HW180616   4.239   3.186   7.904  0.3175  0.9633  2.4763
26079SOL    HW280617   4.385   3.200   7.940  1.3032  2.1434 -1.4576
26080SOL     OW80618   1.569   5.882   6.167 -0.3764 -0.1140 -0.9062
26080SOL    HW180619   1.500   5.927   6.216  0.5267 -0.4288  0.7281
26080SOL    HW280620   1.623   5.840   6.234  0.6123 -1.0321 -2.2170
26081SOL     OW80621   7.642   9.573   7.387 -0.5618 -0.1690 -0.3839
26081SOL    HW180622   7.664   9.603   7.475 -1.1971 -0.5518 -0.0808
26081SOL    HW280623   7.657   9.649   7.331  0.4293 -0.1049 -0.0379
26082SOL     OW80624   8.500   9.988  10.548  0.6161 -0.2597  0.5500
26082SOL    HW180625   8.442  10.063  10.533 -0.4291 -1.0598  0.5297
26082SOL    HW280626   8.562   9.991  10.475 -0.9492 -0.8378 -0.8578
26083SOL     OW80627   7.450   1.028   9.939  0.1719  0.4703  0.8303
26083SOL    HW180628   7.368   0.981   9.959  0.5289 -0.0840  1.0132
26083SOL    HW280629   7.518   0.973   9.978  0.6644  0.7356  0.3401
26084SOL     OW80630   8.981   4.925   5.415  0.3353  0.0784 -1.0860
26084SOL    HW180631   9.065   4.885   5.392  0.3998 -0.7630  0.4995
26084SOL    HW280632   8.920   4.851   5.420  0.3793  0.1306  1.5577
26085SOL     OW80633   7.946   7.927   2.696 -0.0708 -0.0072  0.2072
26085SOL    HW180634   7.911   7.896   2.612 -0.4181 -1.0557  0.7218
26085SOL    HW280635   7.992   8.008   2.674 -2.9150  1.5282 -0.4718
26086SOL     OW80636   5.299   6.027   4.016 -0.4813  0.4789 -0.1066
26086SOL    HW180637   5.269   6.110   4.053  2.1699  1.6410 -0.3275
26086SOL    HW280638   5.367   5.998   4.076  0.0619 -0.4491 -1.1531
26087SOL     OW80639   6.075   7.249   7.379  0.2738  0.3582 -0.2775
26087SOL    HW180640   6.103   7.338   7.403 -1.0828  1.0229 -1.0347
26087SOL    HW280641   6.139   7.221   7.313  0.5894  0.8499 -0.1884
26088SOL     OW80642   0.200   4.920   2.649 -0.1663 -0.4514  0.3747
26088SOL    HW180643   0.136   4.898   2.581 -1.1627 -0.6661  1.3623
26088SOL    HW280644   0.147   4.945   2.725  0.9258  0.7358  0.7794
26089SOL     OW80645   4.809  10.432   4.436  0.3283 -0.5728 -0.1349
26089SOL    HW180646   4.726  10.462   4.399  1.8150  0.5321 -2.9109
26089SOL    HW280647   4.789  10.349   4.478 -1.8725 -1.2342 -2.3031
26090SOL     OW80648   9.191   6.051   2.180 -0.5700  0.0958  0.2449
26090SOL    HW180649   9.122   6.112   2.205  0.0060  0.6518  0.4925
26090SOL    HW280650   9.155   5.964   2.203 -1.5724  0.2831 -0.5303
26091SOL     OW80651   0.845   3.896   9.482 -0.0252  0.3796  0.0701
26091SOL    HW180652   0.859   3.985   9.515  1.4350 -0.0908  0.8020
26091SOL    HW280653   0.933   3.858   9.477 -0.4382 -0.4534 -1.9019
26092SOL     OW80654  10.312   3.905   7.626  0.4097 -0.0828  0.2774
26092SOL    HW180655  10.293   3.903   7.720  0.9104  1.4159  0.4459
26092SOL    HW280656  10.407   3.915   7.621  0.3439  0.2836 -0.3688
26093SOL     OW80657   3.799  10.668   9.907 -0.4213  0.1273  0.8941
26093SOL    HW180658   3.879  10.633   9.869 -0.6878  0.1941  0.2659
26093SOL    HW280659   3.784  10.750   9.861 -0.1992  0.7248  1.8493
26094SOL     OW80660   0.908   8.429   2.380  0.2352  0.0953 -0.6312
26094SOL    HW180661   0.819   8.447   2.412  0.2837  0.3861 -0.6568
26094SOL    HW280662   0.938   8.512   2.345  0.5801  0.0360 -0.4812
26095SOL     OW80663   8.724   0.962   7.051  0.0433 -1.2242  0.2542
26095SOL    HW180664   8.717   1.003   7.137  0.1561  0.8460 -0.6524
26095SOL    HW280665   8.650   0.900   7.048  0.6808 -2.1580  2.1967
26096SOL     OW80666   5.578   3.322   0.401  0.2317  0.5497  0.3425
26096SOL    HW180667   5.655   3.369   0.369  1.4373 -0.1996  1.9876
26096SOL    HW280668   5.614   3.252   0.455 -1.6202  0.0160  0.9538
26097SOL     OW80669   8.016   4.203   5.783 -0.4607  0.6107  0.3755
26097SOL    HW180670   7.943   4.247   5.828  1.8616  0.8516  4.3227
26097SOL    HW280671   8.090   4.262   5.794  0.4694  0.5113 -3.7679
26098SOL     OW80672   2.983   7.696   9.318  0.9048  0.0299 -0.1547
26098SOL    HW180673   2.935   7.697   9.400  0.6200 -0.9635 -0.2895
26098SOL    HW280674   3.019   7.607   9.313  0.9088  0.0746 -1.1027
26099SOL     OW80675   7.878   1.597   2.084  0.1552 -0.1518  0.3070
26099SOL    HW180676   7.905   1.535   2.152  3.5455 -1.6974 -2.1292
26099SOL    HW280677   7.862   1.542   2.007 -0.3321  1.7497 -1.0163
26100SOL     OW80678   2.113   3.014   0.842 -0.2072 -0.0785 -0.8150
26100SOL    HW180679   2.066   3.082   0.889  1.5459  0.4683  0.2399
26100SOL    HW280680   2.160   3.061   0.773  0.8052 -0.2122 -0.2432
26101SOL     OW80681   2.295   2.601   4.685  0.0394  0.1285  0.5510
26101SOL    HW180682   2.314   2.514   4.650  0.2291 -0.4785  2.0599
26101SOL    HW280683   2.199   2.606   4.684  0.0417  0.9418 -1.8462
26102SOL     OW80684   1.039   9.419  10.421  0.0285 -0.1828  0.0118
26102SOL    HW180685   1.011   9.417  10.330  0.3606  0.9638 -0.1339
26102SOL    HW280686   0.958   9.421  10.472 -0.1574  0.1719 -0.2978
26103SOL     OW80687   8.260   7.572   3.271 -0.2554  0.2968  0.2398
26103SOL    HW180688   8.198   7.501   3.254  0.1816 -0.3634  1.2573
26103SOL    HW280689   8.250   7.591   3.365  0.1160  1.1092  0.1225
26104SOL     OW80690   3.083   5.115   9.399  0.0211  0.3043  0.2581
26104SOL    HW180691   3.082   5.116   9.495  1.1033 -0.5990  0.3024
26104SOL    HW280692   3.131   5.035   9.377 -1.8531 -0.5096 -1.0750
26105SOL     OW80693   1.266   3.196   6.842  0.2808 -0.3181 -0.2842
26105SOL    HW180694   1.229   3.118   6.802  1.3311 -0.0530 -1.8912
26105SOL    HW280695   1.272   3.259   6.770  0.3182  0.9231  0.7737
26106SOL     OW80696   5.165   3.568   1.202  0.5086 -0.2122  0.1160
26106SOL    HW180697   5.087   3.599   1.248  1.4261  1.5132  0.6011
26106SOL    HW280698   5.191   3.641   1.147  2.1580 -0.5141  0.4515
26107SOL     OW80699  10.324   5.723   9.794 -0.1077  0.7407 -0.3709
26107SOL    HW180700  10.368   5.745   9.713  2.4797  1.0895  1.0287
26107SOL    HW280701  10.259   5.792   9.806  0.9861  1.9206 -1.0455
26108SOL     OW80702   3.646   7.321   0.871 -0.4373  0.2788 -0.3483
26108SOL    HW180703   3.558   7.344   0.841 -0.6791 -0.3785 -0.1769
26108SOL    HW280704   3.699   7.399   0.854 -1.1191  0.7872 -0.1720
26109SOL     OW80705   4.005   4.249   6.846 -0.5529  0.1989  0.2418
26109SOL    HW180706   4.068   4.179   6.857  0.6406  1.0960 -0.6475
26109SOL    HW280707   4.057   4.329   6.845 -1.5629  0.9020 -1.4816
26110SOL     OW80708   5.470   2.553   1.468 -0.3380 -0.1626 -0.6849
26110SOL    HW180709   5.421   2.549   1.550  0.1482  0.1412 -0.3740
26110SOL    HW280710   5.548   2.499   1.483  0.4253  0.9616 -0.4722
26111SOL     OW80711   0.810   5.376   1.490 -0.2597  0.0051 -0.0552
26111SOL    HW180712   0.748   5.429   1.439 -0.4543  0.8724  1.0490
26111SOL    HW280713   0.806   5.289   1.449  1.1599  1.1211 -2.8522
26112SOL     OW80714   9.687   7.770   7.818  0.0281  0.1112  0.5157
26112SOL    HW180715   9.634   7.706   7.770  1.5679 -0.0860 -1.0484
26112SOL    HW280716   9.752   7.717   7.865 -0.8625  0.3677  2.0869
26113SOL     OW80717   0.485   0.688   8.328 -0.1863  0.4683 -0.0107
26113SOL    HW180718   0.485   0.779   8.297  2.0884 -0.0487 -1.8392
26113SOL    HW280719   0.437   0.640   8.261 -2.6888  0.4324  1.6899
26114SOL     OW80720   7.299   3.428   1.398  0.1074 -0.1308  0.0074
26114SOL    HW180721   7.303   3.338   1.365  0.5891 -0.0159 -0.2641
26114SOL    HW280722   7.221   3.430   1.453 -0.6988 -0.3465 -1.0953
26115SOL     OW80723   6.703   2.724   2.444  0.3316  0.0498  0.0044
26115SOL    HW180724   6.772   2.782   2.477  1.3719 -1.3652  0.3948
26115SOL    HW280725   6.713   2.643   2.494 -0.8803 -0.5990 -0.7526
26116SOL     OW80726   7.235   5.000   4.872 -0.3174  0.8590  0.2630
26116SOL    HW180727   7.196   5.066   4.814 -1.1310  0.9323  0.8742
26116SOL    HW280728   7.237   5.043   4.958 -1.1147 -0.0031  0.7294
26117SOL     OW80729   0.834  10.031   0.016  0.1341 -0.5366 -0.4719
26117SOL    HW180730   0.754  10.033  -0.038 -0.2586 -0.0910  0.1148
26117SOL    HW280731   0.891  10.097  -0.023 -0.2810  0.0195 -0.1463
26118SOL     OW80732  10.589   5.296   6.884 -0.1577  0.5345  0.0697
26118SOL    HW180733  10.551   5.383   6.895  1.2841  1.0644  1.2093
26118SOL    HW280734  10.674   5.311   6.844 -0.7000 -0.5506 -1.5819
26119SOL     OW80735   0.724   7.815   1.574 -0.0032 -0.2175 -0.1756
26119SOL    HW180736   0.805   7.773   1.546  0.4747  0.2740  0.4215
26119SOL    HW280737   0.751   7.901   1.605 -0.4925 -0.6714  1.6383
26120SOL     OW80738   3.925   7.617  10.215 -0.1942  0.4727  0.1705
26120SOL    HW180739   3.863   7.558  10.259 -0.8015  0.0715 -1.1820
26120SOL    HW280740   3.900   7.704  10.246  0.0038  0.1309  1.3396
26121SOL     OW80741   5.109  10.678   5.549 -0.0670  0.1391  0.0991
26121SOL    HW180742   5.148  10.700   5.465 -0.7543 -0.3259 -0.3559
26121SOL    HW280743   5.103  10.762   5.595  0.1178  0.4326 -0.4001
26122SOL     OW80744   5.194   6.801   4.078  0.1485 -0.0804  0.4270
26122SOL    HW180745   5.289   6.803   4.067  0.0639 -1.4186 -0.8958
26122SOL    HW280746   5.181   6.775   4.169  0.9959  2.2287  1.2846
26123SOL     OW80747   8.919   7.563  10.354 -0.5747 -0.8599  0.7121
26123SOL    HW180748   8.862   7.520  10.418  0.1937 -1.6627  0.8825
26123SOL    HW280749   8.890   7.530  10.269 -1.5109  0.1066  0.6339
26124SOL     OW80750   3.730   5.900   5.016 -0.7827  0.2639 -0.5598
26124SOL    HW180751   3.644   5.876   5.052 -0.5606  0.1892 -0.0619
26124SOL    HW280752   3.712   5.925   4.926 -1.2250 -0.4803 -0.6911
26125SOL     OW80753   7.985   9.547   6.327 -0.0027 -0.4711  0.1287
26125SOL    HW180754   7.972   9.577   6.417  0.3362  0.3838 -0.0979
26125SOL    HW280755   7.907   9.578   6.281  0.7023  0.7850 -0.2728
26126SOL     OW80756   0.721   3.701   2.781  0.0035  1.0235 -0.1562
26126SOL    HW180757   0.636   3.720   2.820  0.5386  2.2123  0.4596
26126SOL    HW280758   0.716   3.741   2.694 -0.1343  0.8959 -0.2095
26127SOL     OW80759   7.432   4.528   9.638 -0.1640 -0.1215  0.2143
26127SOL    HW180760   7.343   4.527   9.602  0.3592 -0.6024 -1.1073
26127SOL    HW280761   7.482   4.472   9.580  0.6178 -1.4205  2.0382
26128SOL     OW80762   6.384  10.386   6.190  0.2851  0.4177  0.6786
26128SOL    HW180763   6.303  10.343   6.216  0.2054 -0.8843 -1.5294
26128SOL    HW280764   6.435  10.390   6.271 -1.2062 -0.4585  1.7202
26129SOL     OW80765   9.705   0.452   5.454 -0.0757  0.5120  0.1064
26129SOL    HW180766   9.725   0.468   5.362 -1.3028 -0.7826 -0.4196
26129SOL    HW280767   9.789   0.426   5.493 -0.1874 -3.0269 -1.6258
26130SOL     OW80768   5.071   2.629  10.160  0.1012  0.7041  0.1813
26130SOL    HW180769   5.152   2.596  10.121 -0.0035 -0.0359  0.5815
26130SOL    HW280770   5.021   2.664  10.086 -0.8515 -2.1791 -0.6782
26131SOL     OW80771   3.519  10.667   9.494  0.7827 -0.4225 -0.4510
26131SOL    HW180772   3.444  10.633   9.543  0.6934 -0.8670 -0.8907
26131SOL    HW280773   3.575  10.591   9.480  0.7170 -0.3356 -1.1990
26132SOL     OW80774   8.901   9.362   0.537 -0.2736 -0.0426  0.1462
26132SOL    HW180775   8.968   9.295   0.525 -0.3871  0.1270 -1.7755
26132SOL    HW280776   8.940   9.425   0.598  0.3539 -1.1348  0.9120
26133SOL     OW80777   5.917   5.952   4.014  0.3306  0.1103  0.3891
26133SOL    HW180778   5.840   5.903   3.985  0.6503  0.8406 -1.8996
26133SOL    HW280779   5.955   5.899   4.083 -1.0976 -1.2543  0.1828
26134SOL     OW80780   4.036   8.771   3.858 -0.4458  0.6336  0.1656
26134SOL    HW180781   4.072   8.786   3.771 -2.3142 -0.1854 -0.7958
26134SOL    HW280782   4.074   8.688   3.886 -0.6044  0.4042 -0.2974
26135SOL     OW80783   6.521   7.618   7.060  0.1757 -0.1070 -0.2421
26135SOL    HW180784   6.474   7.583   6.984  0.7518  0.6351 -0.9608
26135SOL    HW280785   6.477   7.578   7.136 -1.2827  0.1841 -0.8958
26136SOL     OW80786   3.326  10.465   4.250 -0.5229 -0.2271  0.4973
26136SOL    HW180787   3.309  10.559   4.240 -0.9008 -0.4063 -0.8009
26136SOL    HW280788   3.324  10.450   4.344  0.7249  1.2692  0.7990
26137SOL     OW80789   5.360   5.053   9.521 -0.4343  0.6000  0.5823
26137SOL    HW180790   5.339   5.068   9.429  0.8538 -0.5118  0.0622
26137SOL    HW280791   5.315   4.971   9.543  1.6547 -0.8032 -0.0122
26138SOL     OW80792   2.488   7.807   0.138  0.9160  0.2093  0.0166
26138SOL    HW180793   2.486   7.765   0.051  0.2421 -0.6489  0.4281
26138SOL    HW280794   2.560   7.870   0.132  1.1978 -0.1775 -1.0096
26139SOL     OW80795   4.899   4.449   2.367  0.1732 -0.5784  0.0612
26139SOL    HW180796   4.879   4.543   2.369  0.3146 -0.5364 -0.4554
26139SOL    HW280797   4.906   4.428   2.274 -0.8369 -1.3086  0.1304
26140SOL     OW80798   6.832   7.041   7.147 -0.1311  0.2562  0.0819
26140SOL    HW180799   6.751   7.007   7.184 -0.2658 -0.8577 -1.1574
26140SOL    HW280800   6.804   7.103   7.079  0.0812  0.8295  0.5089
26141SOL     OW80801   0.280   9.541   6.588  0.3678  0.6558  0.6560
26141SOL    HW180802   0.298   9.477   6.520 -0.5180 -1.0661  1.9522
26141SOL    HW280803   0.321   9.622   6.557  1.9858 -0.6545 -0.8048
26142SOL     OW80804   0.063   6.149   1.170 -0.3313 -0.6637  0.2771
26142SOL    HW180805   0.030   6.059   1.166  0.1799 -0.8005 -1.1954
26142SOL    HW280806   0.155   6.143   1.145 -0.2553  0.2556  0.2924
26143SOL     OW80807   7.335   1.919   7.536  0.3855  0.8041  0.1717
26143SOL    HW180808   7.394   1.892   7.606 -0.6127 -0.4183  0.5835
26143SOL    HW280809   7.340   1.849   7.471 -1.3447  0.1308  0.6972
26144SOL     OW80810   3.244   3.843   9.410  0.1246  0.6714  0.2475
26144SOL    HW180811   3.193   3.898   9.351  1.1541  0.7006 -0.6633
26144SOL    HW280812   3.183   3.817   9.478 -0.8037  1.5885 -0.2089
26145SOL     OW80813   9.955  10.167   0.921  0.1018  0.1321  0.5460
26145SOL    HW180814   9.899  10.187   0.996 -0.9195  1.4038 -0.5026
26145SOL    HW280815   9.935  10.236   0.858 -0.7001 -2.0602 -1.7740
26146SOL     OW80816   4.730   3.466  10.761  0.1203  0.0330  0.7250
26146SOL    HW180817   4.636   3.480  10.771 -0.0564 -1.2463  0.9455
26146SOL    HW280818   4.746   3.378  10.794  1.2664 -0.1122 -0.1234
26147SOL     OW80819   3.167   8.779   1.619  0.0816  0.1953 -0.2774
26147SOL    HW180820   3.174   8.688   1.649 -0.3477 -0.7535 -2.8265
26147SOL    HW280821   3.248   8.820   1.651 -0.7572 -0.3424  2.9403
26148SOL     OW80822   5.710  10.192   6.131  0.1810 -0.2412  0.2414
26148SOL    HW180823   5.755  10.157   6.054  1.6822  1.5168  0.2549
26148SOL    HW280824   5.618  10.172   6.116  0.2083  1.3804 -2.8245
26149SOL     OW80825   9.585  10.231  10.785 -0.4256  0.4225 -0.3839
26149SOL    HW180826   9.589  10.158  10.723  1.0545 -0.2371  0.4275
26149SOL    HW280827   9.550  10.304  10.734 -0.7752 -0.5214 -1.5475
26150SOL     OW80828   0.605   8.370   0.519 -0.0490 -0.1172 -0.3368
26150SOL    HW180829   0.663   8.356   0.593 -0.2845  0.2499 -0.0831
26150SOL    HW280830   0.517   8.368   0.556 -0.1093  2.5358 -0.1857
26151SOL     OW80831   4.594   3.384   7.192 -0.0874 -0.5841  0.1009
26151SOL    HW180832   4.648   3.450   7.148  0.4904 -0.4441  0.9863
26151SOL    HW280833   4.638   3.301   7.172  1.7900 -0.2927  2.5820
26152SOL     OW80834   4.323   4.783   3.815 -0.7023 -0.3314  0.1791
26152SOL    HW180835   4.237   4.823   3.811 -0.6738 -0.3047 -0.1824
26152SOL    HW280836   4.309   4.693   3.785 -0.8676 -0.7698  1.4966
26153SOL     OW80837   0.537   9.418   0.181 -0.4383  0.4580 -0.2356
26153SOL    HW180838   0.531   9.510   0.156 -0.5628  0.4382 -0.2824
26153SOL    HW280839   0.614   9.413   0.237 -0.0352  0.4663 -0.7834
26154SOL     OW80840   0.233   1.120   9.678 -0.1491  0.2662  0.0147
26154SOL    HW180841   0.228   1.184   9.607  0.0230  0.5713  0.2755
26154SOL    HW280842   0.224   1.035   9.635 -1.0234  0.4901 -0.2681
26155SOL     OW80843   6.421   2.976   1.085  0.3920  0.6582 -0.0847
26155SOL    HW180844   6.470   2.894   1.084 -0.0998  0.3677 -0.6203
26155SOL    HW280845   6.330   2.950   1.071 -0.2304  0.9991  2.7042
26156SOL     OW80846   5.506   0.436   3.191  0.3744 -0.2712  0.0872
26156SOL    HW180847   5.420   0.462   3.223  0.4756 -0.2774  0.3669
26156SOL    HW280848   5.533   0.508   3.134  0.5200  0.1061  0.6172
26157SOL     OW80849   9.843  10.032   8.481 -0.5277  0.3434 -0.2182
26157SOL    HW180850   9.807  10.114   8.447 -2.2864 -0.9063 -1.6450
26157SOL    HW280851   9.836   9.971   8.407 -0.5771 -1.4471  1.1850
26158SOL     OW80852   8.424   8.492  10.175 -0.4602 -0.9187 -0.7812
26158SOL    HW180853   8.469   8.465  10.255  0.6168  0.4972 -0.8545
26158SOL    HW280854   8.352   8.431  10.166 -1.7484 -0.0642  2.2720
26159SOL     OW80855   4.450   4.781   9.389  0.1561  0.0879 -0.3112
26159SOL    HW180856   4.380   4.846   9.400  0.6274  0.7176 -0.9325
26159SOL    HW280857   4.418   4.722   9.321 -0.5034 -0.6736  0.6286
26160SOL     OW80858   5.717   5.025  10.670 -0.3479  0.5910  0.0619
26160SOL    HW180859   5.643   4.992  10.720  0.2165  1.2754  1.3932
26160SOL    HW280860   5.679   5.090  10.611 -1.0798 -0.5409 -0.7538
26161SOL     OW80861   8.099   8.909   5.601  0.5268 -0.0273 -0.3265
26161SOL    HW180862   8.132   8.924   5.512  1.8773  0.3404  0.2144
26161SOL    HW280863   8.091   8.996   5.639 -2.0853 -0.0121 -0.7408
26162SOL     OW80864   9.177   2.163   9.676  0.1519 -0.0943 -0.0166
26162SOL    HW180865   9.136   2.175   9.762 -1.3488 -4.0988  0.0213
26162SOL    HW280866   9.238   2.090   9.689 -0.6332 -1.2776 -2.4171
26163SOL     OW80867   8.922   0.946   6.675 -0.6366 -0.3077 -0.0336
26163SOL    HW180868   8.945   0.882   6.607 -0.1677 -0.3712  0.1831
26163SOL    HW280869   8.958   1.029   6.644 -2.0809  0.0655 -0.7837
26164SOL     OW80870   2.664   1.301   4.169 -0.2346  0.3300  0.1697
26164SOL    HW180871   2.717   1.360   4.116 -0.2930  0.7493  0.5766
26164SOL    HW280872   2.726   1.257   4.227 -0.3856  1.2704  1.0756
26165SOL     OW80873   8.495   2.254   7.541  0.3348  1.0221 -0.5587
26165SOL    HW180874   8.429   2.194   7.506  0.1215  0.5386  0.6221
26165SOL    HW280875   8.456   2.287   7.623  2.6891 -1.6215  1.8468
26166SOL     OW80876   1.842   8.904   6.115  0.4404  0.4386  0.1051
26166SOL    HW180877   1.841   8.851   6.035  0.6757 -0.8780  0.9374
26166SOL    HW280878   1.857   8.993   6.085  0.4358 -0.0196 -1.3229
26167SOL     OW80879   5.393   1.538   5.823  1.0885 -0.2599 -0.1938
26167SOL    HW180880   5.327   1.468   5.818  0.2133  0.5011  0.2910
26167SOL    HW280881   5.347   1.616   5.791  2.2565 -0.0304 -1.3540
26168SOL     OW80882   8.184   7.013   5.115 -0.1992 -0.0840  0.3914
26168SOL    HW180883   8.180   7.108   5.119 -0.5804 -0.1271  1.1819
26168SOL    HW280884   8.272   6.994   5.081 -0.6578  0.5676 -1.2240
26169SOL     OW80885   6.294   8.493  10.340  0.3881  0.1443  0.2113
26169SOL    HW180886   6.239   8.442  10.399  2.0270 -0.3114  1.4046
26169SOL    HW280887   6.248   8.577  10.330 -1.1703 -0.6832  0.0771
26170SOL     OW80888   7.860   2.141   7.709  0.7571 -0.5151 -0.0380
26170SOL    HW180889   7.884   2.101   7.792 -2.4436 -0.1680  1.1780
26170SOL    HW280890   7.780   2.096   7.682 -0.3449  1.8421 -1.0066
26171SOL     OW80891   9.374   8.695  10.028 -0.0555 -0.2192  0.5839
26171SOL    HW180892   9.392   8.731  10.115 -0.7438 -0.7167  0.9378
26171SOL    HW280893   9.445   8.633  10.012 -0.3711 -0.7348  1.1475
26172SOL     OW80894   5.419   2.577   7.488  0.0916  0.1806 -0.2430
26172SOL    HW180895   5.465   2.541   7.564  0.2103  0.5270 -0.1485
26172SOL    HW280896   5.420   2.672   7.502  0.8309  0.3106 -1.0778
26173SOL     OW80897  10.432   2.216   5.995  0.0218 -0.0021 -0.6928
26173SOL    HW180898  10.519   2.253   5.977 -0.5790  1.9049  0.0178
26173SOL    HW280899  10.372   2.289   5.979 -1.2448 -0.6378  0.9576
26174SOL     OW80900   3.967   8.268   0.835  0.2778  0.2225 -0.6918
26174SOL    HW180901   3.964   8.285   0.929 -1.1960 -0.3032 -0.6142
26174SOL    HW280902   4.014   8.343   0.799  0.6829  0.5343  0.4331
26175SOL     OW80903   3.035  10.044   6.558  0.5806  0.2252  0.0092
26175SOL    HW180904   3.060  10.112   6.621  1.2791  0.5160 -0.5663
26175SOL    HW280905   2.982  10.091   6.493  0.6149  0.1034 -0.1064
26176SOL     OW80906   4.944   2.384   0.206 -0.1550  0.6320  0.2119
26176SOL    HW180907   4.906   2.322   0.268 -0.9576 -0.0989 -0.9662
26176SOL    HW280908   4.881   2.386   0.133  1.0897  0.9311 -0.8898
26177SOL     OW80909   9.519   7.981   4.687 -0.8084  0.7745 -0.1035
26177SOL    HW180910   9.599   8.006   4.640 -1.2303  1.1523 -0.6270
26177SOL    HW280911   9.520   8.035   4.766  0.1219 -0.1676  0.5574
26178SOL     OW80912   2.894   6.642   3.352  0.2362 -0.4037 -0.1739
26178SOL    HW180913   2.835   6.602   3.289  1.7855 -0.9684 -1.3247
26178SOL    HW280914   2.900   6.734   3.324  0.9038 -0.6479 -0.8483
26179SOL     OW80915   0.679   6.208  10.329 -0.2661 -0.1952  0.0655
26179SOL    HW180916   0.700   6.148  10.401 -1.3567  1.4807  1.8648
26179SOL    HW280917   0.752   6.198  10.267  2.9780  1.3044  3.3112
26180SOL     OW80918   4.445   1.337   0.126 -0.0561 -0.8310  0.2792
26180SOL    HW180919   4.382   1.406   0.106 -0.2409 -1.7680 -2.8618
26180SOL    HW280920   4.394   1.269   0.170 -0.4828 -0.1870  0.7991
26181SOL     OW80921   6.501   5.886   9.559 -0.4188 -0.0003 -0.2802
26181SOL    HW180922   6.587   5.859   9.593 -1.0788 -1.8826 -0.0021
26181SOL    HW280923   6.495   5.843   9.473 -1.5644 -0.8724  0.2224
26182SOL     OW80924  10.452   3.051   9.809  0.0865 -0.2616  0.5392
26182SOL    HW180925  10.449   3.045   9.904 -1.1366 -1.7893  0.4516
26182SOL    HW280926  10.444   3.144   9.790 -1.1257 -0.0533  1.9186
26183SOL     OW80927   2.281   5.342   9.543  0.0064  0.3893  0.5220
26183SOL    HW180928   2.329   5.350   9.461  0.1935  0.1653  0.6074
26183SOL    HW280929   2.315   5.413   9.598  1.4918 -0.7643  1.1938
26184SOL     OW80930   1.752   4.688   6.190 -0.1526  0.4781 -0.2445
26184SOL    HW180931   1.733   4.649   6.105  0.2856 -1.8219  0.6279
26184SOL    HW280932   1.690   4.760   6.199 -0.7593  0.2257 -2.1317
26185SOL     OW80933   9.640  10.126   2.173  0.2231  0.0127  0.1598
26185SOL    HW180934   9.592  10.192   2.222  3.3142  1.5463  1.4509
26185SOL    HW280935   9.703  10.090   2.237  0.7815 -1.8616 -1.3474
26186SOL     OW80936   4.635   9.690   8.336 -0.4714  0.3313  0.0102
26186SOL    HW180937   4.725   9.721   8.351 -0.8566  0.2774  3.2150
26186SOL    HW280938   4.637   9.599   8.365 -1.5561  0.3407  0.1513
26187SOL     OW80939   3.860   5.537   4.059  0.2294  0.0156 -0.1645
26187SOL    HW180940   3.858   5.524   4.154 -2.5684  0.4790 -0.0758
26187SOL    HW280941   3.862   5.448   4.023 -1.4328 -0.2816  0.3854
26188SOL     OW80942   7.469   3.131   2.678 -0.2931  0.0532  0.2478
26188SOL    HW180943   7.537   3.063   2.679  0.1734  0.5006 -0.0909
26188SOL    HW280944   7.469   3.167   2.767 -0.2178 -0.0840  0.3036
26189SOL     OW80945   4.478   2.049   3.832 -0.3084  0.6524  0.0683
26189SOL    HW180946   4.570   2.049   3.805 -0.7719 -0.6311 -1.6951
26189SOL    HW280947   4.479   2.007   3.918  0.6918  0.0041 -0.2336
26190SOL     OW80948   5.668   5.311   6.813  0.2548 -0.0829  0.0810
26190SOL    HW180949   5.596   5.293   6.874  0.2704 -0.9086 -0.1247
26190SOL    HW280950   5.685   5.226   6.772  1.6998 -0.0087  0.4972
26191SOL     OW80951   1.915   2.266   2.302  0.1068 -0.8960  0.1392
26191SOL    HW180952   2.004   2.246   2.273  0.8219  1.2546  0.6121
26191SOL    HW280953   1.895   2.350   2.259 -1.0993 -0.6021  1.2272
26192SOL     OW80954   5.283   5.062   9.854 -0.0147  0.1167  0.1716
26192SOL    HW180955   5.318   4.977   9.879  1.2392  0.9639  1.4219
26192SOL    HW280956   5.220   5.083   9.923 -0.2890  0.2251 -0.1101
26193SOL     OW80957   7.128  10.360   6.592 -0.2401 -0.0478 -0.3732
26193SOL    HW180958   7.047  10.340   6.637 -0.4273 -1.6862 -1.3419
26193SOL    HW280959   7.195  10.361   6.661 -0.9826  0.6954  0.3420
26194SOL     OW80960   6.571   2.757   1.103 -0.1792 -0.4730 -0.1407
26194SOL    HW180961   6.662   2.787   1.106 -0.1896 -0.4427 -0.1303
26194SOL    HW280962   6.568   2.698   1.028 -0.1594 -0.4459 -0.1628
26195SOL     OW80963   5.138   8.782   1.607 -0.4782 -0.1090  0.1186
26195SOL    HW180964   5.135   8.837   1.685 -2.1852 -1.1448  0.8198
26195SOL    HW280965   5.228   8.792   1.574  0.0648  0.8735  1.8037
26196SOL     OW80966   5.761   0.371   7.722  0.4116 -0.2367  0.4117
26196SOL    HW180967   5.670   0.381   7.694  0.4361 -0.3168  0.2979
26196SOL    HW280968   5.757   0.372   7.818  0.4994  1.5364  0.4230
26197SOL     OW80969   0.720   1.352   7.371  0.3388  0.1739  0.5354
26197SOL    HW180970   0.688   1.268   7.339  2.0471 -0.3253  0.0282
26197SOL    HW280971   0.642   1.407   7.378 -0.4691 -0.5472 -1.8741
26198SOL     OW80972   5.979   4.512   8.318  0.0191 -0.8945 -0.5652
26198SOL    HW180973   5.887   4.526   8.339  0.6188  0.9557  1.1523
26198SOL    HW280974   6.004   4.589   8.267  0.4521 -1.7597 -1.7024
26199SOL     OW80975   5.704   4.467   9.800 -0.3561 -0.0843  0.0112
26199SOL    HW180976   5.660   4.546   9.831 -1.7961 -0.7112 -0.3269
26199SOL    HW280977   5.768   4.447   9.868 -0.8635  0.6665  0.7307
26200SOL     OW80978   2.118   3.996   1.688 -0.1749  0.5436  0.2282
26200SOL    HW180979   2.148   4.018   1.600  0.7125  0.0370  0.3853
26200SOL    HW280980   2.193   4.016   1.745 -0.2075 -0.4802  0.6698
26201SOL     OW80981   7.322   6.352   1.701  0.2399 -0.8559 -0.3292
26201SOL    HW180982   7.376   6.283   1.741  1.9145  1.1549  1.0586
26201SOL    HW280983   7.254   6.369   1.766 -0.1088 -1.0893 -0.6261
26202SOL     OW80984   5.120   3.635   8.581 -0.3227  0.2892 -0.1279
26202SOL    HW180985   5.091   3.666   8.667  0.3667  0.1578  0.1613
26202SOL    HW280986   5.172   3.708   8.546 -0.6577  0.3676 -0.4625
26203SOL     OW80987   4.991   9.486   3.563 -0.0030  0.2581 -0.2882
26203SOL    HW180988   5.007   9.431   3.486 -1.5398 -0.2082 -0.3232
26203SOL    HW280989   4.913   9.537   3.539  1.7927  3.1293 -0.5884
26204SOL     OW80990   9.318   6.641   9.961  0.2691  0.3205  0.3173
26204SOL    HW180991   9.291   6.579  10.028 -0.0428 -0.9822 -0.9597
26204SOL    HW280992   9.317   6.591   9.879  0.1005  1.9713 -0.7608
26205SOL     OW80993   8.324   0.064   5.836  0.2662 -0.3219  0.5109
26205SOL    HW180994   8.300   0.154   5.815 -0.5199 -0.2713  1.5695
26205SOL    HW280995   8.368   0.069   5.921 -0.5674 -1.0179  1.0062
26206SOL     OW80996   6.897   4.833   9.963  0.0573 -0.3393 -0.1848
26206SOL    HW180997   6.810   4.850  10.000  0.6427  0.4433  0.8856
26206SOL    HW280998   6.909   4.903   9.899 -0.6313 -1.2379 -1.3443
26207SOL     OW80999   7.214   8.045   3.118  0.6826  0.3424 -0.2331
26207SOL    HW181000   7.221   7.981   3.190  1.5235 -0.9941 -1.4554
26207SOL    HW281001   7.284   8.021   3.058 -0.0828  1.3575 -1.5779
26208SOL     OW81002   7.291   6.058   4.036  0.0663  0.5519 -0.4345
26208SOL    HW181003   7.195   6.063   4.032  0.0692  2.6744  0.7876
26208SOL    HW281004   7.311   6.055   4.129  1.2242  1.4550 -0.6321
26209SOL     OW81005   5.277   1.657   5.479 -0.2278 -0.1007 -0.4836
26209SOL    HW181006   5.349   1.596   5.465 -1.8766 -1.9891 -1.3945
26209SOL    HW281007   5.260   1.695   5.393  0.6127  1.5091  0.0272
26210SOL     OW81008   9.998   1.509   4.064  0.8644  0.3993  0.1753
26210SOL    HW181009  10.038   1.472   3.986  0.0832  2.0321 -1.0621
26210SOL    HW281010   9.957   1.435   4.108 -1.4786 -0.1697 -2.6812
26211SOL     OW81011   5.422   8.656   9.103  0.3321  0.4588 -0.8410
26211SOL    HW181012   5.518   8.662   9.102  0.3263  0.8158  0.0110
26211SOL    HW281013   5.404   8.570   9.142  0.3126  1.2519  1.0136
26212SOL     OW81014   9.825   9.360   1.427  0.0740 -0.5909  0.2420
26212SOL    HW181015   9.860   9.282   1.385 -0.6250 -1.0602  0.5131
26212SOL    HW281016   9.734   9.339   1.446 -0.8541  1.1610 -1.8532
26213SOL     OW81017   0.785   4.079   1.695 -0.4001  0.0141  0.1086
26213SOL    HW181018   0.843   4.070   1.620 -0.4857 -1.9944  0.2327
26213SOL    HW281019   0.796   4.170   1.724  0.2371  0.5852 -1.8159
26214SOL     OW81020   3.610   0.676   0.245  0.0999 -0.0703 -0.7641
26214SOL    HW181021   3.543   0.669   0.312  1.0109  1.1883  0.3208
26214SOL    HW281022   3.672   0.605   0.264  0.5095  0.4603 -0.0698
26215SOL     OW81023   3.529   0.395  10.627  0.2765 -0.6111 -0.8359
26215SOL    HW181024   3.454   0.418  10.682  0.6232 -1.1348 -0.1363
26215SOL    HW281025   3.584   0.473  10.627 -0.1500 -0.3069 -1.1586
26216SOL     OW81026   9.461  10.712  10.742 -0.0991 -0.5215  0.2685
26216SOL    HW181027   9.524  10.715  10.670 -1.1915 -0.6133 -0.7271
26216SOL    HW281028   9.414  10.630  10.730 -1.8508  0.5133 -0.3025
26217SOL     OW81029   2.795   5.652   4.049  0.5919 -0.4454 -0.0109
26217SOL    HW181030   2.825   5.590   4.116  1.1548 -0.4812 -0.2882
26217SOL    HW281031   2.710   5.683   4.081  0.4726 -1.0868  0.3124
26218SOL     OW81032   5.929   7.923   4.838 -0.2778 -0.1797 -0.1170
26218SOL    HW181033   6.014   7.964   4.853 -1.8074  3.3482 -0.1725
26218SOL    HW281034   5.929   7.903   4.744 -0.1635  1.5696 -0.5206
26219SOL     OW81035  10.378   6.439   0.594 -0.0911 -0.3895  0.2876
26219SOL    HW181036  10.471   6.423   0.611 -0.1224 -0.2212  0.6193
26219SOL    HW281037  10.376   6.478   0.506  0.1422 -0.4957  0.2353
26220SOL     OW81038   9.616   1.845   1.394  0.2676 -0.0999  0.4765
26220SOL    HW181039   9.618   1.879   1.483  2.1422 -0.8814  0.7725
26220SOL    HW281040   9.602   1.751   1.404 -2.0907  0.1047 -0.2170
26221SOL     OW81041   8.156   4.755   6.052 -0.2153  0.1331  0.5760
26221SOL    HW181042   8.069   4.769   6.092 -0.1253 -1.6459  1.4781
26221SOL    HW281043   8.213   4.818   6.097 -1.1849  2.1821 -0.8536
26222SOL     OW81044   1.974   2.615   5.120 -0.1361  0.0354  0.1420
26222SOL    HW181045   1.959   2.637   5.028  0.4600  1.3025  0.3369
26222SOL    HW281046   2.051   2.665   5.145 -1.0937  0.7918  1.7151
26223SOL     OW81047   3.399   9.198   2.465 -0.1462  0.8337  0.5413
26223SOL    HW181048   3.327   9.144   2.497  0.0937  0.5794  0.6583
26223SOL    HW281049   3.441   9.144   2.397 -1.1221  1.6748 -0.7609
26224SOL     OW81050   2.626   9.967   1.249 -0.6127 -0.5766  0.2887
26224SOL    HW181051   2.636   9.913   1.171 -1.3908 -0.4997  0.1353
26224SOL    HW281052   2.643   9.907   1.322  1.1552 -0.4222  0.0599
26225SOL     OW81053   7.721   2.086   8.207 -0.0793  1.1633  0.3657
26225SOL    HW181054   7.751   2.036   8.131  0.0918  1.3163  0.3308
26225SOL    HW281055   7.718   2.023   8.279  0.3767  1.1552  0.3802
26226SOL     OW81056   6.991  10.549   2.057 -0.0987  0.8623  0.2223
26226SOL    HW181057   6.986  10.469   2.005 -0.5155  1.9578 -1.5132
26226SOL    HW281058   7.066  10.536   2.114 -0.3176 -0.8578  0.1668
26227SOL     OW81059   6.146   2.401   3.110 -0.8044 -0.0264 -0.3192
26227SOL    HW181060   6.151   2.472   3.045 -2.2145 -0.4480 -0.9336
26227SOL    HW281061   6.184   2.439   3.189  0.0513  0.8310 -1.1075
26228SOL     OW81062   7.960   5.018   8.199  0.6046 -0.2194 -0.1288
26228SOL    HW181063   7.937   4.930   8.231 -0.8571  0.7417  1.6955
26228SOL    HW281064   8.017   5.054   8.268  1.0017  0.3483 -0.7497
26229SOL     OW81065   3.331   2.219   9.965  0.1119 -0.1361  0.2561
26229SOL    HW181066   3.304   2.266   9.885 -1.2228 -1.1842  0.0660
26229SOL    HW281067   3.276   2.257  10.034  0.0896 -0.3823  0.3725
26230SOL     OW81068   7.931   4.783   8.369  0.2568 -0.3822  0.3965
26230SOL    HW181069   8.015   4.753   8.335  0.5991  0.8977  0.0472
26230SOL    HW281070   7.951   4.813   8.459 -0.1135 -1.3438  0.8064
26231SOL     OW81071   4.627   3.053  10.040 -0.0694  0.0875  0.2204
26231SOL    HW181072   4.555   3.091   9.990 -1.0049 -1.8699 -0.0103
26231SOL    HW281073   4.659   3.126  10.094  0.7299  2.1866 -2.8419
26232SOL     OW81074   9.832   2.810   2.201 -0.0566  0.5504  0.0768
26232SOL    HW181075   9.827   2.824   2.296 -0.6313 -3.1649  0.7239
26232SOL    HW281076   9.922   2.780   2.186 -0.5518 -0.8585 -0.1868
26233SOL     OW81077   4.727   5.674   4.774 -0.2687 -0.3943  0.1143
26233SOL    HW181078   4.767   5.750   4.733  2.2949 -1.4186  0.5330
26233SOL    HW281079   4.685   5.708   4.853 -1.5010  0.9160 -1.0422
26234SOL     OW81080  10.741   3.284   9.510 -0.4213  0.1135 -0.0367
26234SOL    HW181081  10.682   3.326   9.572 -0.9405 -0.5723 -0.0570
26234SOL    HW281082  10.816   3.343   9.504  0.4455 -0.5849  2.5661
26235SOL     OW81083   4.414   1.941   1.007  0.1286 -0.2606 -0.0262
26235SOL    HW181084   4.362   1.861   1.009 -0.9527  0.3767 -1.1065
26235SOL    HW281085   4.492   1.921   1.058 -0.5000 -1.7299  0.3968
26236SOL     OW81086   7.345   1.946   6.590 -0.3949 -1.1336 -0.0260
26236SOL    HW181087   7.315   1.892   6.517 -0.5764 -1.5370  0.3417
26236SOL    HW281088   7.307   2.032   6.573 -1.4566 -1.5290  0.2237
26237SOL     OW81089   4.112   6.814   4.084  0.5832 -1.0736  0.1192
26237SOL    HW181090   4.173   6.778   4.149  2.5514  0.3836 -0.8257
26237SOL    HW281091   4.109   6.748   4.015  3.1803 -0.1602 -1.0121
26238SOL     OW81092   1.322   4.950   9.180 -0.2410 -0.4296 -0.3059
26238SOL    HW181093   1.360   4.953   9.268  2.9998 -0.6063 -1.5620
26238SOL    HW281094   1.347   4.864   9.146 -0.8036 -0.0805 -1.6931
26239SOL     OW81095   6.917   1.043   8.816 -0.1032 -0.8951 -0.0862
26239SOL    HW181096   6.902   1.076   8.727  0.5763  0.0102  0.1290
26239SOL    HW281097   6.850   0.975   8.827 -1.5628  0.4215 -0.5366
26240SOL     OW81098   7.068   9.995   0.523  0.3685 -0.2733 -0.0422
26240SOL    HW181099   7.123   9.923   0.492 -1.2662 -1.9615  0.7401
26240SOL    HW281100   7.079  10.064   0.457  1.7127 -1.3674 -1.0246
26241SOL     OW81101   0.994   7.310   0.256 -0.2276  0.0020 -0.1478
26241SOL    HW181102   0.922   7.265   0.300  0.0611  0.6173  1.0054
26241SOL    HW281103   1.003   7.393   0.304  3.6801 -1.5470  2.3412
26242SOL     OW81104   4.421   9.643   1.035  0.3155  0.5485  0.0167
26242SOL    HW181105   4.479   9.642   0.959  0.8243 -1.3381  0.3689
26242SOL    HW281106   4.333   9.638   0.999  0.5436 -0.1166 -0.4680
26243SOL     OW81107   3.926   4.338   4.668 -0.1847  0.5274  0.0034
26243SOL    HW181108   3.888   4.411   4.619  0.0972  0.0888 -0.8959
26243SOL    HW281109   3.852   4.301   4.716 -1.1700 -0.9049 -2.4416
26244SOL     OW81110   3.841   0.071   5.142 -0.0918  0.0602 -0.0729
26244SOL    HW181111   3.817  -0.007   5.093  1.8943  0.4771 -1.8604
26244SOL    HW281112   3.824   0.144   5.082  2.8622  0.5474 -0.4597
26245SOL     OW81113   5.642   4.557   6.298 -0.5450 -0.6563  0.0864
26245SOL    HW181114   5.606   4.472   6.273  1.1509 -2.1922  2.4791
26245SOL    HW281115   5.565   4.613   6.310 -1.6834 -1.6707 -1.8982
26246SOL     OW81116   9.669   2.705   8.433 -0.0374  0.0801 -0.2472
26246SOL    HW181117   9.588   2.741   8.469 -1.3174 -1.0987 -1.8161
26246SOL    HW281118   9.734   2.774   8.446 -1.6439  1.6688 -0.2990
26247SOL     OW81119   6.459   5.353   4.245 -0.2793 -0.0763 -0.3800
26247SOL    HW181120   6.402   5.366   4.321  1.6330  1.0530  0.9493
26247SOL    HW281121   6.419   5.404   4.176 -0.2941  1.6867  0.8644
26248SOL     OW81122   2.328  10.529   3.585  0.0497  0.0468  0.7568
26248SOL    HW181123   2.378  10.600   3.545  3.1855 -1.4349  1.6769
26248SOL    HW281124   2.314  10.467   3.514 -0.6766  0.5417  0.4567
26249SOL     OW81125   1.354   5.032   7.698  0.4417 -0.0918  0.1092
26249SOL    HW181126   1.377   5.122   7.724  1.3965 -1.3067  4.2034
26249SOL    HW281127   1.437   4.984   7.702 -0.0017 -1.2057 -2.3020
26250SOL     OW81128   9.900   2.878   7.478 -0.0963 -0.5015 -0.0447
26250SOL    HW181129   9.806   2.871   7.459  0.1092 -2.5575 -0.5355
26250SOL    HW281130   9.906   2.871   7.573 -0.3910 -1.3066 -0.0795
26251SOL     OW81131   0.456   9.346   2.827 -0.0561 -0.4823  0.0103
26251SOL    HW181132   0.483   9.278   2.889  0.4093 -0.1355  0.1874
26251SOL    HW281133   0.474   9.428   2.872 -0.3914 -0.2338 -0.3049
26252SOL     OW81134   3.302   2.788   1.777  0.2586  0.4412  0.2267
26252SOL    HW181135   3.321   2.806   1.685  0.1132  1.1923  0.3342
26252SOL    HW281136   3.244   2.859   1.804  0.5146  0.3822  0.9691
26253SOL     OW81137   6.250   1.830   3.427 -0.4504  0.3334  0.0773
26253SOL    HW181138   6.194   1.785   3.364  2.2276 -0.7635 -1.7294
26253SOL    HW281139   6.317   1.874   3.374  2.7029 -1.6557  2.0119
26254SOL     OW81140   1.273   8.695   2.569 -0.1762  0.1756  0.0084
26254SOL    HW181141   1.289   8.606   2.539 -0.2399  0.0122  0.4589
26254SOL    HW281142   1.351   8.718   2.620  1.4920  1.6423 -2.9417
26255SOL     OW81143   6.056   4.203   5.926 -0.2841 -0.5172  0.4366
26255SOL    HW181144   6.018   4.221   6.012 -0.9544 -2.0890  0.5031
26255SOL    HW281145   5.989   4.153   5.880  0.2927 -0.1862 -0.8009
26256SOL     OW81146   3.796   1.311   7.068  0.3507  0.0075 -0.2345
26256SOL    HW181147   3.780   1.363   7.146  0.2347  1.3385 -1.1126
26256SOL    HW281148   3.713   1.268   7.050  0.5087 -0.6805  0.6250
26257SOL     OW81149   9.853   6.276   3.024 -0.5632  0.6351 -0.2180
26257SOL    HW181150   9.806   6.273   2.941  0.3307  3.2892 -0.9261
26257SOL    HW281151   9.907   6.197   3.024 -1.7646 -0.2253 -1.3833
26258SOL     OW81152   3.752   4.364   9.219 -0.0807 -0.1438 -0.0224
26258SOL    HW181153   3.843   4.344   9.197 -0.2455 -0.5176 -0.3693
26258SOL    HW281154   3.710   4.279   9.229 -0.2676  0.0203  0.6827
26259SOL     OW81155   1.359   6.306   7.907 -0.4582 -0.6806  0.8373
26259SOL    HW181156   1.391   6.243   7.843  0.0575 -1.1096  1.5024
26259SOL    HW281157   1.268   6.280   7.923 -0.5211 -0.7072  0.4595
26260SOL     OW81158   5.131   7.962   7.849 -0.3105 -0.3129  0.0150
26260SOL    HW181159   5.187   8.040   7.843  0.3339 -0.6833  1.0241
26260SOL    HW281160   5.047   7.991   7.813  0.0562  0.7169 -0.0578
26261SOL     OW81161   5.534   6.137   4.669  0.2511  0.1720  0.0292
26261SOL    HW181162   5.550   6.179   4.585  1.5799  0.1650  0.2639
26261SOL    HW281163   5.484   6.058   4.647 -1.6318  1.4233 -0.4808
26262SOL     OW81164   1.972   4.737   7.281  0.4946 -0.3189  0.0974
26262SOL    HW181165   1.993   4.686   7.358  0.0950 -0.5247  0.0725
26262SOL    HW281166   2.042   4.803   7.276  1.2974 -1.1763 -0.1693
26263SOL     OW81167   8.621   8.098   8.109 -0.4357  0.5677 -0.2963
26263SOL    HW181168   8.714   8.077   8.117  0.3636  3.7205  0.1813
26263SOL    HW281169   8.592   8.054   8.029  1.6407  0.0675 -0.8171
26264SOL     OW81170   1.816   5.440   8.116 -0.3309 -0.1887  0.4200
26264SOL    HW181171   1.784   5.368   8.061 -1.1889 -0.2778  1.0166
26264SOL    HW281172   1.833   5.399   8.201  0.6183  0.0273  0.3437
26265SOL     OW81173  10.668   8.743   0.185  0.2957 -0.1526  0.3985
26265SOL    HW181174  10.641   8.828   0.151  1.3119  0.3341  0.7541
26265SOL    HW281175  10.602   8.682   0.153 -0.6689  0.8253  0.4542
26266SOL     OW81176   9.626   5.039   1.448  0.2959  0.4493  0.0313
26266SOL    HW181177   9.630   4.966   1.386 -0.8616  0.3002  0.1037
26266SOL    HW281178   9.617   4.997   1.533  2.0281  0.6518  0.3549
26267SOL     OW81179   7.244   7.240   3.851 -0.0385 -0.2410 -0.0904
26267SOL    HW181180   7.195   7.205   3.777  0.6228 -0.5444 -0.3953
26267SOL    HW281181   7.285   7.319   3.817 -0.3870  0.0622  0.1902
26268SOL     OW81182   8.441   5.333   7.846  0.1052  0.2259  0.5588
26268SOL    HW181183   8.410   5.248   7.877 -1.6106  0.0622 -1.4068
26268SOL    HW281184   8.435   5.390   7.923  2.4641 -1.6102  2.2599
26269SOL     OW81185   5.061   4.803   2.612 -0.6396 -0.3860  0.1200
26269SOL    HW181186   5.043   4.888   2.570  1.3700  0.7476  1.4103
26269SOL    HW281187   5.002   4.802   2.688 -0.6921 -0.1725  0.0844
26270SOL     OW81188   3.749   3.931   9.492 -0.2023  0.0615  0.3804
26270SOL    HW181189   3.665   3.887   9.484 -0.0525 -0.3403  0.9423
26270SOL    HW281190   3.742   3.979   9.575  0.1137  0.0399  0.4185
26271SOL     OW81191   0.210   9.202   0.497  0.3672  0.1150 -0.0907
26271SOL    HW181192   0.264   9.249   0.433 -0.2970  0.0540 -0.7095
26271SOL    HW281193   0.143   9.158   0.445 -0.3964  0.3430  0.6668
26272SOL     OW81194   3.231   6.783   4.081 -0.1861 -0.3308 -0.0295
26272SOL    HW181195   3.312   6.772   4.131 -0.3458 -1.3955  0.0270
26272SOL    HW281196   3.163   6.797   4.147  0.1335  2.2010 -0.1234
26273SOL     OW81197   1.010   0.432   5.017  0.3553  0.4134 -0.3799
26273SOL    HW181198   0.959   0.442   4.938 -1.4155  0.1598  0.6747
26273SOL    HW281199   1.100   0.450   4.991  0.1996 -1.9307 -2.9592
26274SOL     OW81200   7.327  10.584   6.148  0.3382  0.1712  0.0212
26274SOL    HW181201   7.344  10.657   6.089 -0.8513  1.6224  1.4008
26274SOL    HW281202   7.405  10.577   6.202  0.1864  0.8977  0.3423
26275SOL     OW81203   2.214   7.591   4.072  0.4199 -0.3351 -0.0671
26275SOL    HW181204   2.299   7.599   4.116  0.3063 -0.6765  0.2149
26275SOL    HW281205   2.220   7.509   4.024 -0.1372 -0.8964  0.8022
26276SOL     OW81206  10.578   8.663   3.022  0.1855 -0.1078  0.1724
26276SOL    HW181207  10.558   8.756   3.029 -0.7322 -0.3474  1.0884
26276SOL    HW281208  10.674   8.658   3.021  0.3049  0.9933 -2.6670
26277SOL     OW81209   3.850   2.188   3.178  0.3539 -0.5245  0.9218
26277SOL    HW181210   3.800   2.262   3.211 -3.3445 -1.5877 -1.7500
26277SOL    HW281211   3.826   2.115   3.236  0.3677 -0.6164  0.8133
26278SOL     OW81212   5.548   7.672   3.621  0.1153  0.0506 -0.1805
26278SOL    HW181213   5.515   7.753   3.581 -1.4281 -0.8083 -0.7672
26278SOL    HW281214   5.556   7.612   3.547  1.5661 -0.2627  0.2050
26279SOL     OW81215   0.463   7.716   4.219 -0.2550 -0.2864  0.2543
26279SOL    HW181216   0.478   7.741   4.310 -0.1373 -1.1474  0.4791
26279SOL    HW281217   0.548   7.730   4.176 -0.2227 -0.1883  0.3490
26280SOL     OW81218   2.087  10.786  10.426  0.5742  0.1699 -0.0178
26280SOL    HW181219   2.004  10.825  10.399  0.0248 -0.4923  0.6619
26280SOL    HW281220   2.134  10.857  10.469 -0.3594  0.1331  1.1070
26281SOL     OW81221   2.110   9.990   5.072  0.3559  0.0553 -0.2666
26281SOL    HW181222   2.104   9.964   4.980  1.6407  2.9248 -1.2847
26281SOL    HW281223   2.187  10.045   5.076 -1.2677  2.3862  1.9025
26282SOL     OW81224   2.629   4.970  10.377  0.3972 -0.7095  0.8842
26282SOL    HW181225   2.536   4.952  10.367  0.0007  0.8954  1.2880
26282SOL    HW281226   2.632   5.052  10.427  1.8924  1.5740 -2.5721
26283SOL     OW81227   6.452   8.971   9.424  0.0700  0.9097 -0.0667
26283SOL    HW181228   6.407   8.960   9.508  0.6864  0.6239  0.2275
26283SOL    HW281229   6.521   9.035   9.441  1.9198 -1.1060  0.3330
26284SOL     OW81230   1.773   4.593   5.127 -0.3543 -0.2873 -0.1998
26284SOL    HW181231   1.806   4.676   5.161 -0.9177 -0.2889  0.3783
26284SOL    HW281232   1.714   4.562   5.196 -1.4011 -0.3710 -1.1145
26285SOL     OW81233   8.381  10.368  10.693 -0.9745 -0.1771  0.3396
26285SOL    HW181234   8.456  10.334  10.741  0.7474  1.1242 -1.2807
26285SOL    HW281235   8.348  10.441  10.746  1.0153  1.3646 -0.4112
26286SOL     OW81236  10.568   5.535  10.469 -0.0553  0.4199 -0.4656
26286SOL    HW181237  10.625   5.612  10.460  1.0182 -0.3879 -0.8772
26286SOL    HW281238  10.563   5.519  10.563  0.2952  0.5909 -0.4171
26287SOL     OW81239   2.269   2.045   7.263  0.3843 -0.2882  0.1548
26287SOL    HW181240   2.274   2.043   7.167 -0.3971  0.1600  0.0948
26287SOL    HW281241   2.181   2.013   7.282  1.1926 -2.2618  0.8250
26288SOL     OW81242   9.088   2.698   8.063 -0.1875 -0.6755 -0.6401
26288SOL    HW181243   9.075   2.692   8.158 -1.2610  0.4893 -0.6863
26288SOL    HW281244   9.183   2.705   8.053 -0.0021 -1.6037  0.2795
26289SOL     OW81245   8.706   2.676   1.927 -0.0904  0.1238  0.2780
26289SOL    HW181246   8.654   2.630   1.993  1.7552 -0.7696  1.1851
26289SOL    HW281247   8.695   2.769   1.948 -3.2066  0.1956 -1.0691
26290SOL     OW81248  10.304   7.296   8.557  0.0841  0.4156  0.2383
26290SOL    HW181249  10.374   7.297   8.623  0.3959  0.5561 -0.0875
26290SOL    HW281250  10.245   7.227   8.585  0.7134 -0.1670  0.1565
26291SOL     OW81251   7.267   0.693   0.205 -0.1369  0.1394 -0.1274
26291SOL    HW181252   7.321   0.620   0.174  1.3004  0.7689  0.7474
26291SOL    HW281253   7.283   0.763   0.142  0.6842  0.5568  0.5134
26292SOL     OW81254   9.141   7.744  10.421 -0.0131  0.1795  0.5392
26292SOL    HW181255   9.077   7.673  10.409  0.0672  0.0485  0.8748
26292SOL    HW281256   9.197   7.738  10.344  0.2375 -0.3786  0.7548
26293SOL     OW81257   0.717   5.203   7.601 -0.6576 -0.0792  0.8915
26293SOL    HW181258   0.670   5.249   7.531 -1.0602 -0.8120  0.6764
26293SOL    HW281259   0.741   5.272   7.663  0.2671  0.6852 -0.2624
26294SOL     OW81260   7.836   4.662   2.299  0.2862  0.7386 -0.5858
26294SOL    HW181261   7.928   4.680   2.316  0.9840  0.0089 -3.0859
26294SOL    HW281262   7.802   4.743   2.262  1.0569 -0.1149 -3.3984
26295SOL     OW81263   0.150   7.444   9.437  0.2955 -0.0839 -0.3574
26295SOL    HW181264   0.224   7.479   9.486 -0.2394 -0.4450  0.7450
26295SOL    HW281265   0.160   7.349   9.442 -0.9052 -0.1809  0.9184
26296SOL     OW81266   5.847  10.548   3.451 -0.0646 -0.5286  0.0074
26296SOL    HW181267   5.813  10.637   3.436 -2.4950 -0.7279  3.1512
26296SOL    HW281268   5.905  10.558   3.527  1.4647 -1.3795 -0.9880
26297SOL     OW81269   8.250   7.727   4.849  0.0624 -0.4439  0.0863
26297SOL    HW181270   8.321   7.714   4.912 -0.7391 -1.7679  0.7590
26297SOL    HW281271   8.253   7.821   4.829  0.9015 -0.1467  1.4291
26298SOL     OW81272   9.953   6.445   3.188  0.0102 -0.4335 -0.0820
26298SOL    HW181273  10.035   6.474   3.148 -0.0896  0.8523  0.5603
26298SOL    HW281274   9.913   6.388   3.123 -0.5614  2.2177 -2.2516
26299SOL     OW81275   2.315   6.532   2.523  0.4453 -0.0628 -0.2204
26299SOL    HW181276   2.222   6.519   2.504  0.5936 -0.3928 -0.7573
26299SOL    HW281277   2.356   6.545   2.437  0.9345 -0.1734 -0.0119
26300SOL     OW81278   9.423   1.550   4.922  0.4455  0.2976 -0.0395
26300SOL    HW181279   9.379   1.584   5.000 -0.0182 -1.5733  0.5589
26300SOL    HW281280   9.373   1.472   4.899  2.0397 -0.5318 -0.7910
26301SOL     OW81281   2.099   6.958   5.794  0.3732 -0.3168  0.2447
26301SOL    HW181282   2.101   7.038   5.847  0.2273  0.0857 -0.3386
26301SOL    HW281283   2.087   6.990   5.704 -1.5834 -1.0672  0.1930
26302SOL     OW81284   5.743   2.819   4.551 -0.4539  0.0154  0.3338
26302SOL    HW181285   5.677   2.801   4.618  1.4510 -2.8135  1.6527
26302SOL    HW281286   5.705   2.784   4.471 -1.4673  0.5129  0.5811
26303SOL     OW81287   5.767   9.855   8.922  0.1089 -0.0977  0.2807
26303SOL    HW181288   5.768   9.761   8.904 -0.3639 -0.1361  0.4353
26303SOL    HW281289   5.828   9.892   8.858  1.3842 -0.6624  1.1211
26304SOL     OW81290   9.611   3.135   1.923 -0.4627  0.8449  0.5869
26304SOL    HW181291   9.652   3.053   1.950  1.1331  1.8004  1.2234
26304SOL    HW281292   9.658   3.160   1.844 -0.9455  1.1358  0.3913
26305SOL     OW81293   5.906   4.074   9.796  0.1018  0.1081  0.7538
26305SOL    HW181294   5.900   4.104   9.887  0.6462  1.0732  0.4834
26305SOL    HW281295   5.997   4.090   9.772 -0.7936  3.2620 -1.0727
26306SOL     OW81296   8.003   5.087   2.129 -0.1044 -0.3419  0.0622
26306SOL    HW181297   8.092   5.120   2.141  0.4520 -1.9626  0.6786
26306SOL    HW281298   8.014   5.007   2.077 -1.1931 -0.5928  0.1921
26307SOL     OW81299   5.317   2.348   5.772 -0.4438 -0.5635 -0.2257
26307SOL    HW181300   5.232   2.305   5.787 -0.5908 -0.8174 -1.6781
26307SOL    HW281301   5.297   2.424   5.718 -0.0632  0.9266  1.6205
26308SOL     OW81302   2.772   1.566   1.141 -0.0292  0.1299 -0.3646
26308SOL    HW181303   2.744   1.481   1.174  1.2063 -0.5279 -0.9658
26308SOL    HW281304   2.691   1.606   1.108 -0.4547 -1.2742 -1.1010
26309SOL     OW81305   2.071   0.325   1.159 -0.2350  0.2164 -0.4751
26309SOL    HW181306   1.985   0.315   1.198  0.1785  0.8145  0.6184
26309SOL    HW281307   2.109   0.402   1.202  0.3418  0.7461 -1.8646
26310SOL     OW81308   0.903   1.650  10.420 -0.1722  0.2461 -0.0837
26310SOL    HW181309   0.961   1.584  10.457 -0.9283 -0.5344 -0.2491
26310SOL    HW281310   0.956   1.696  10.354  1.0732  1.3789  1.6059
26311SOL     OW81311   7.239   9.135   8.992 -0.1653 -0.6114 -0.5441
26311SOL    HW181312   7.292   9.145   9.071 -1.3504  0.3281  0.1606
26311SOL    HW281313   7.279   9.062   8.945  0.5157 -1.2259  0.9513
26312SOL     OW81314   9.615   5.106   0.083  0.6338  0.1164 -0.1370
26312SOL    HW181315   9.666   5.144   0.012 -1.1765  1.9035 -0.5725
26312SOL    HW281316   9.669   5.034   0.116  2.7933  1.0653 -1.4103
26313SOL     OW81317   8.671   5.260   8.733  0.0115 -0.1165  0.3870
26313SOL    HW181318   8.719   5.306   8.801 -1.8530  2.3155  0.1513
26313SOL    HW281319   8.602   5.213   8.779  0.5848 -0.9657  0.4114
26314SOL     OW81320   8.452  10.200   3.314  0.3116  0.0756  0.0291
26314SOL    HW181321   8.437  10.185   3.407  0.5127 -1.7567 -0.2008
26314SOL    HW281322   8.546  10.188   3.302  0.1256 -0.9115 -0.5819
26315SOL     OW81323   1.920   7.753   2.620 -0.2367  0.5203 -0.2871
26315SOL    HW181324   1.975   7.827   2.595  1.0590 -0.0508  0.7437
26315SOL    HW281325   1.960   7.678   2.576 -0.3906  0.1500  0.1965
26316SOL     OW81326   0.114   3.074   8.120 -0.0752 -0.4060 -0.0596
26316SOL    HW181327   0.118   2.993   8.070 -1.3862  0.6570 -2.0197
26316SOL    HW281328   0.045   3.060   8.185 -1.5847 -0.2906 -1.5793
26317SOL     OW81329   0.356   7.485   2.367  0.3085 -0.5830 -0.2568
26317SOL    HW181330   0.390   7.402   2.402  1.0881 -1.4072 -2.7149
26317SOL    HW281331   0.292   7.458   2.301 -0.9236  0.8605  0.2900
26318SOL     OW81332   3.945   3.734   9.260  0.2334  0.8580  0.2911
26318SOL    HW181333   3.950   3.818   9.306  1.5932  0.7119  0.4527
26318SOL    HW281334   4.003   3.745   9.185  1.7870 -0.4664  1.2318
26319SOL     OW81335   8.754   8.492   9.841  0.2438 -0.0416  0.6020
26319SOL    HW181336   8.715   8.411   9.874  1.0345 -0.2016  1.1787
26319SOL    HW281337   8.823   8.462   9.782  0.2266  0.2173  0.4526
26320SOL     OW81338   2.070   5.700   6.740  0.3330  0.2263  0.2873
26320SOL    HW181339   2.005   5.719   6.808  2.1783  1.0802  1.8988
26320SOL    HW281340   2.074   5.604   6.736  0.5080  0.1655  1.6944
26321SOL     OW81341   2.552   4.005   5.684 -0.8348  0.0281 -0.0435
26321SOL    HW181342   2.488   4.046   5.742 -0.1407  0.5624  0.3519
26321SOL    HW281343   2.606   3.951   5.742 -0.6671 -0.1028 -0.3178
26322SOL     OW81344   6.759   5.128   9.578 -0.4568  0.0105  0.1171
26322SOL    HW181345   6.821   5.199   9.593 -1.1440  0.6744 -0.0792
26322SOL    HW281346   6.807   5.048   9.599  0.7080  0.4464 -0.7997
26323SOL     OW81347   7.837   6.317   7.561 -0.0924  0.0430  0.4727
26323SOL    HW181348   7.769   6.353   7.617 -3.4202 -0.2718 -2.9895
26323SOL    HW281349   7.852   6.384   7.495  2.6026 -0.1764  0.7594
26324SOL     OW81350   9.877   2.995   8.668 -0.0687  0.6012 -0.6361
26324SOL    HW181351   9.849   2.987   8.759 -2.5921 -0.1950 -1.3906
26324SOL    HW281352   9.911   3.084   8.660 -0.2983  0.8473  0.9580
26325SOL     OW81353   3.880   7.651   8.059  0.4302 -0.3818 -0.7969
26325SOL    HW181354   3.873   7.592   7.984 -3.1370  0.8320 -1.6102
26325SOL    HW281355   3.911   7.733   8.022 -0.6697  0.0170 -0.8737
26326SOL     OW81356   7.464   4.503   0.608 -0.3209  0.9195  0.2288
26326SOL    HW181357   7.373   4.482   0.590 -1.5908  4.1996  2.0321
26326SOL    HW281358   7.473   4.596   0.587  2.3178  0.9672  1.0906
26327SOL     OW81359   2.408   6.144   8.868  0.6098  0.3061 -0.4092
26327SOL    HW181360   2.402   6.157   8.963 -0.0349  0.9746 -0.5226
26327SOL    HW281361   2.394   6.051   8.855  0.3775  0.2624  0.1369
26328SOL     OW81362  10.502   4.936   3.407 -0.3129  0.2763  0.5247
26328SOL    HW181363  10.527   4.955   3.498 -0.9893  1.7365  0.4414
26328SOL    HW281364  10.463   5.018   3.376 -1.3278 -0.6210 -0.6613
26329SOL     OW81365   7.397  10.011   3.222 -0.1645  0.2373 -0.2384
26329SOL    HW181366   7.360   9.956   3.291  0.2529  0.8047  0.4420
26329SOL    HW281367   7.460   9.954   3.178  0.4058  0.2132  0.5892
26330SOL     OW81368   0.305   4.601   2.914 -0.2502 -0.2420  0.1366
26330SOL    HW181369   0.210   4.593   2.927 -0.0895  0.1697  1.7393
26330SOL    HW281370   0.341   4.520   2.948 -0.1000 -1.1637 -2.0358
26331SOL     OW81371  10.220   3.062   0.509  0.4076  0.4693  0.3857
26331SOL    HW181372  10.152   3.000   0.535 -0.4110  1.0001 -0.4503
26331SOL    HW281373  10.179   3.148   0.516  1.6186  0.9769  1.8100
26332SOL     OW81374   7.677  10.668   9.646  0.4130  0.3955  0.0987
26332SOL    HW181375   7.684  10.737   9.579  0.8526  0.0970 -0.1727
26332SOL    HW281376   7.583  10.657   9.660  0.3384  0.9213  0.0062
26333SOL     OW81377   1.871   3.366   9.647 -0.0354  0.0513  0.8212
26333SOL    HW181378   1.802   3.425   9.676 -1.5056 -0.6086 -1.1548
26333SOL    HW281379   1.942   3.424   9.620 -0.0633  0.7583  2.1639
26334SOL     OW81380   4.137   6.267   1.496  0.1289  0.0214  0.0216
26334SOL    HW181381   4.090   6.314   1.426 -2.8512 -0.5120  1.4913
26334SOL    HW281382   4.095   6.298   1.577  0.8209 -2.2060  1.3018
26335SOL     OW81383   1.059   0.102   4.090  0.0003 -0.3770  0.0856
26335SOL    HW181384   1.077   0.187   4.050 -1.3817  0.1193  0.4801
26335SOL    HW281385   1.084   0.112   4.182 -0.0064 -0.4582  0.0967
26336SOL     OW81386   9.664   7.096   3.578 -0.2595  0.0171 -0.1577
26336SOL    HW181387   9.676   7.190   3.590 -1.1115 -0.0841  1.6991
26336SOL    HW281388   9.594   7.089   3.514 -1.1331  0.6699  0.7135
26337SOL     OW81389   5.117   6.678   1.563  0.1913  0.8290 -0.6298
26337SOL    HW181390   5.174   6.629   1.504  0.7391  2.0508 -1.1450
26337SOL    HW281391   5.148   6.655   1.651  0.1749 -0.0361 -0.8450
26338SOL     OW81392   5.883   9.701   7.174  0.2433 -0.3416  0.9395
26338SOL    HW181393   5.845   9.692   7.262 -0.5322  1.0329  0.7701
26338SOL    HW281394   5.940   9.777   7.180  0.6249 -0.5803  0.3952
26339SOL     OW81395   3.052   3.055   7.962  0.3233  0.0157  0.5562
26339SOL    HW181396   3.055   2.960   7.953  0.1630  0.0236  0.4266
26339SOL    HW281397   3.101   3.072   8.043  1.9759 -0.0256 -0.3930
26340SOL     OW81398   7.313   1.655   3.261  0.1753 -0.1320 -0.2228
26340SOL    HW181399   7.231   1.664   3.212  1.2895  0.0033 -2.1610
26340SOL    HW281400   7.320   1.737   3.310  0.0337  0.6791 -1.5013
26341SOL     OW81401   3.741   4.610   4.985 -0.2688  0.4216 -0.4378
26341SOL    HW181402   3.686   4.649   4.917 -0.1416 -0.5821 -1.1377
26341SOL    HW281403   3.831   4.622   4.953 -0.2126 -0.1199 -0.4893
26342SOL     OW81404   7.024   6.115   9.307  0.1837  0.2391 -0.0396
26342SOL    HW181405   6.962   6.072   9.367 -0.1274  0.1107 -0.4431
26342SOL    HW281406   6.977   6.117   9.223  0.4439  0.8112 -0.1713
26343SOL     OW81407   5.013   6.379   5.941 -0.0010  0.1747 -0.3553
26343SOL    HW181408   4.981   6.300   5.984  2.3036  0.1445  1.5250
26343SOL    HW281409   4.967   6.451   5.984  0.1248 -0.0079  0.0878
26344SOL     OW81410   4.188  10.404   6.503  0.6516 -0.3563  0.4054
26344SOL    HW181411   4.128  10.457   6.451  0.3444 -0.7579  0.3432
26344SOL    HW281412   4.263  10.389   6.446 -0.0279 -1.4674 -0.2340
26345SOL     OW81413   6.226   6.322   3.831 -0.2953 -0.3584  0.3919
26345SOL    HW181414   6.178   6.241   3.847  0.9007 -0.6947  2.6467
26345SOL    HW281415   6.261   6.312   3.743 -1.9153 -1.3294 -0.1879
26346SOL     OW81416   1.490   4.528   2.510  0.2709  0.1929 -0.6123
26346SOL    HW181417   1.575   4.545   2.469  0.1357 -0.0972 -1.0246
26346SOL    HW281418   1.508   4.457   2.572  0.4201  0.4385 -0.3751
26347SOL     OW81419   2.168   1.481   1.582 -0.0644 -0.2443 -0.1339
26347SOL    HW181420   2.181   1.481   1.677  0.0613  0.7876 -0.1371
26347SOL    HW281421   2.156   1.389   1.560 -0.1574 -0.4989  0.8912
26348SOL     OW81422   3.321   7.059   6.489 -0.1520  0.3198 -0.1454
26348SOL    HW181423   3.414   7.049   6.468  0.0974  3.3914 -0.9347
26348SOL    HW281424   3.276   7.045   6.406 -0.2273  0.6895 -0.1673
26349SOL     OW81425   4.818   1.582   5.758  0.5018  0.4037 -0.4595
26349SOL    HW181426   4.829   1.494   5.721  0.5491  0.7405 -1.2641
26349SOL    HW281427   4.746   1.573   5.820  2.4781 -0.9073  1.8280
26350SOL     OW81428   3.090   8.796   8.636  0.1408 -0.1484 -0.2747
26350SOL    HW181429   3.173   8.772   8.594 -0.3915 -0.0690 -1.4299
26350SOL    HW281430   3.088   8.891   8.632 -0.0615 -0.1563 -0.3620
26351SOL     OW81431   8.216   0.858   4.873  0.0872 -0.6125 -0.3333
26351SOL    HW181432   8.196   0.839   4.964 -1.0859  0.5000 -0.3403
26351SOL    HW281433   8.159   0.931   4.850  2.1661  0.8442 -1.2074
26352SOL     OW81434   4.308   0.317   5.433  0.2090 -0.2578  0.3475
26352SOL    HW181435   4.332   0.241   5.487 -0.3058 -1.1210 -0.6074
26352SOL    HW281436   4.235   0.286   5.380 -0.3493  1.0765  0.3003
26353SOL     OW81437   1.607   2.116   3.704  0.4360 -0.0883  0.0884
26353SOL    HW181438   1.616   2.115   3.800 -1.8313 -0.3634  0.3529
26353SOL    HW281439   1.631   2.028   3.677  1.3925  0.0766  0.3362
26354SOL     OW81440   9.286   9.831  10.332  0.5049  0.3225  0.1048
26354SOL    HW181441   9.308   9.911  10.380  2.2440  0.5860 -1.0320
26354SOL    HW281442   9.352   9.767  10.361 -0.5218 -0.5483  0.5723
26355SOL     OW81443   8.350   8.128   6.797 -0.2594 -0.0283 -0.7885
26355SOL    HW181444   8.398   8.166   6.723  2.7473  0.7141  1.3344
26355SOL    HW281445   8.330   8.203   6.853  0.5631 -0.8981  0.7180
26356SOL     OW81446   7.567   3.728   9.012 -0.0904  0.3169  0.4374
26356SOL    HW181447   7.636   3.767   8.958  0.1075  1.9966  1.8202
26356SOL    HW281448   7.503   3.694   8.949  2.2054 -1.8528 -0.9279
26357SOL     OW81449   2.931   3.928   8.266 -0.5419 -0.0245  0.0442
26357SOL    HW181450   2.936   4.006   8.321  0.8632 -0.5815  0.7519
26357SOL    HW281451   2.837   3.916   8.250 -0.8994  0.8477  1.3370
26358SOL     OW81452   4.992   4.051   1.674 -0.2670 -0.7290  0.2144
26358SOL    HW181453   5.030   4.065   1.587 -0.2259  3.4935  0.7009
26358SOL    HW281454   4.910   4.005   1.657 -0.6791  0.7328 -2.2456
26359SOL     OW81455   8.687   9.679   4.044 -0.4210 -0.0330  0.2060
26359SOL    HW181456   8.611   9.664   3.988  0.4833  0.2354 -1.1566
26359SOL    HW281457   8.702   9.595   4.088 -0.1406 -0.8147 -1.2958
26360SOL     OW81458   3.228   2.376   2.781 -0.5442 -0.1193  0.3105
26360SOL    HW181459   3.298   2.390   2.717 -0.5882 -0.6130  0.1516
26360SOL    HW281460   3.167   2.318   2.736 -0.9899  0.2045  0.4991
26361SOL     OW81461   3.894   5.188   3.098  0.1585  0.0574  0.2652
26361SOL    HW181462   3.807   5.202   3.062  0.9795  2.2834 -1.0172
26361SOL    HW281463   3.908   5.093   3.089 -1.8570 -0.2501 -0.0770
26362SOL     OW81464   0.001   6.589   1.970 -0.4534  0.9523  0.4338
26362SOL    HW181465  -0.047   6.621   1.894 -0.8030 -0.5606 -0.0056
26362SOL    HW281466   0.081   6.550   1.934 -0.4018  0.6356  0.8819
26363SOL     OW81467   6.871   1.778   4.538  0.0499  0.2995  0.4361
26363SOL    HW181468   6.889   1.841   4.468 -0.1826 -0.9403 -0.7940
26363SOL    HW281469   6.957   1.741   4.559 -0.3606 -3.9762 -3.8412
26364SOL     OW81470  10.078   8.195   4.628  0.1595  0.2828 -0.0129
26364SOL    HW181471  10.059   8.115   4.579  0.0890  1.2857 -1.7002
26364SOL    HW281472  10.001   8.209   4.682  0.0821 -0.6707  0.1306
26365SOL     OW81473   9.938   9.963   6.824 -0.2371  0.2608  0.3447
26365SOL    HW181474   9.960   9.988   6.734  2.2249  0.2513  0.8743
26365SOL    HW281475   9.978   9.876   6.835 -2.1213 -0.6041  0.9159
26366SOL     OW81476   3.472   8.366   6.826 -0.8916 -0.1661 -0.1413
26366SOL    HW181477   3.544   8.312   6.857 -1.1433 -0.4064  0.0347
26366SOL    HW281478   3.473   8.443   6.883  1.3362  1.5253 -2.2217
26367SOL     OW81479   1.252   9.772   2.512  0.0083  0.1939  0.2650
26367SOL    HW181480   1.212   9.832   2.576  2.6124  0.3247  1.9271
26367SOL    HW281481   1.278   9.696   2.564 -0.3541 -0.9962 -1.2232
26368SOL     OW81482   5.443   9.903   7.665  0.6291 -0.0639  0.1001
26368SOL    HW181483   5.355   9.900   7.702  0.7794 -0.8111  0.4041
26368SOL    HW281484   5.500   9.870   7.735  1.0318 -0.5647 -0.4562
26369SOL     OW81485   2.775   9.529   7.664 -0.1372  0.0687 -0.1111
26369SOL    HW181486   2.795   9.623   7.664 -0.0431  0.0980  1.8725
26369SOL    HW281487   2.750   9.511   7.755 -1.3984 -1.5757 -0.7436
26370SOL     OW81488   6.908   4.336   0.469 -0.3399 -0.4010  0.5208
26370SOL    HW181489   6.867   4.423   0.466 -3.1077 -1.5954  1.0844
26370SOL    HW281490   6.914   4.315   0.562  1.4558 -0.3855  0.4485
26371SOL     OW81491   7.094   1.044   6.445 -0.8232  0.4253 -0.2512
26371SOL    HW181492   7.059   1.056   6.356 -2.4021  0.0080  0.2662
26371SOL    HW281493   7.165   1.107   6.452 -1.4737  1.3371 -1.4154
26372SOL     OW81494   6.130   2.545   2.867 -0.0267 -0.2522  0.3494
26372SOL    HW181495   6.222   2.565   2.847 -0.3230 -0.4945 -1.4016
26372SOL    HW281496   6.114   2.462   2.823 -1.2958  0.1806 -0.0450
26373SOL     OW81497  10.454   2.057   7.649 -0.8503  0.1917  0.2434
26373SOL    HW181498  10.446   1.975   7.601 -0.0059  0.4413 -0.3525
26373SOL    HW281499  10.452   2.125   7.582  0.8340  0.5175  0.4653
26374SOL     OW81500   0.233   8.096   9.204 -0.6560  0.0716  0.3775
26374SOL    HW181501   0.177   8.018   9.209 -0.1418 -0.3932 -0.8006
26374SOL    HW281502   0.312   8.072   9.252  0.2583 -0.8357 -1.4817
26375SOL     OW81503   9.026   3.653  10.783 -0.0294  0.2989 -0.2134
26375SOL    HW181504   8.963   3.720  10.809  0.2079  0.7325 -0.7240
26375SOL    HW281505   9.101   3.666  10.840 -0.5935 -0.5614  0.7582
26376SOL     OW81506   4.431  10.639   8.061 -0.1509 -0.3028  0.2313
26376SOL    HW181507   4.399  10.556   8.026  0.2918  0.0876 -1.1491
26376SOL    HW281508   4.355  10.678   8.103 -0.3196 -1.4776  1.1045
26377SOL     OW81509   7.905   4.765   5.007 -0.5219  0.6639  0.1409
26377SOL    HW181510   7.835   4.771   4.941  0.2262  0.8715 -0.6443
26377SOL    HW281511   7.866   4.712   5.077 -1.0906 -0.2199 -0.8014
26378SOL     OW81512   2.418   6.348   9.226 -0.4993  0.1788  0.2347
26378SOL    HW181513   2.406   6.253   9.223  0.0675  0.1437 -2.0990
26378SOL    HW281514   2.339   6.383   9.185 -0.0057  0.6532 -0.3110
26379SOL     OW81515   5.691   6.603   1.385  0.1068  0.5330  0.5184
26379SOL    HW181516   5.604   6.625   1.419 -0.4275  0.9324 -1.0324
26379SOL    HW281517   5.740   6.685   1.388 -0.1950  0.7568 -0.3654
26380SOL     OW81518   8.188   1.933   8.351 -0.0725  0.8910 -0.6909
26380SOL    HW181519   8.146   1.988   8.418  0.5553  0.0991  0.3932
26380SOL    HW281520   8.119   1.871   8.325 -0.0066  0.4889  0.0572
26381SOL     OW81521   5.466   6.591   4.601 -0.3351  0.1461 -0.7153
26381SOL    HW181522   5.425   6.543   4.529 -3.5344  1.3255  0.1516
26381SOL    HW281523   5.468   6.682   4.572  1.1129  0.2415 -0.4141
26382SOL     OW81524   5.037   2.906   4.368  0.1402  0.3467 -0.4194
26382SOL    HW181525   4.997   2.912   4.455  3.3033  1.3115  1.1501
26382SOL    HW281526   5.014   2.988   4.325 -2.7287 -0.7801 -1.2100
26383SOL     OW81527   1.383   5.745   4.569 -0.6059 -0.0968 -0.7579
26383SOL    HW181528   1.455   5.682   4.566  0.7047  1.1277  1.8201
26383SOL    HW281529   1.323   5.710   4.635  0.2474  1.3211  0.8761
26384SOL     OW81530   4.266   8.326  10.624 -0.6843  0.3676  0.1056
26384SOL    HW181531   4.239   8.396  10.684 -2.0598 -1.2502  1.4983
26384SOL    HW281532   4.265   8.247  10.679 -1.1472 -1.0499 -1.8530
26385SOL     OW81533   0.654   3.853   2.554 -0.4500 -0.3123 -0.3390
26385SOL    HW181534   0.600   3.783   2.516 -0.2880 -0.5099 -0.2079
26385SOL    HW281535   0.657   3.920   2.485  0.0095 -0.7572 -0.7569
26386SOL     OW81536   0.727   4.006   3.225  0.0776 -0.6521  0.2774
26386SOL    HW181537   0.742   4.069   3.296  0.2155  0.0154 -0.3344
26386SOL    HW281538   0.811   4.002   3.179 -0.8243  1.2775 -1.7130
26387SOL     OW81539   7.344   2.227   4.216  0.5769 -0.3170  0.7595
26387SOL    HW181540   7.397   2.197   4.290  0.1467  1.8910  2.0613
26387SOL    HW281541   7.256   2.239   4.252  0.5984  1.8228  0.2299
26388SOL     OW81542   6.331   3.839   6.288  0.4343  0.2217  0.4887
26388SOL    HW181543   6.265   3.907   6.274  0.0713  0.0718  1.4230
26388SOL    HW281544   6.348   3.804   6.200 -1.1326 -0.1067  0.2918
26389SOL     OW81545   8.201   2.039  10.661  0.7876 -0.2548  0.2031
26389SOL    HW181546   8.171   1.973  10.599  1.3436 -0.8386  0.5400
26389SOL    HW281547   8.274   2.082  10.616 -0.5605  1.2568 -0.6726
26390SOL     OW81548   7.092   3.664   4.583  0.2662 -0.2965  0.0743
26390SOL    HW181549   7.172   3.648   4.532  0.6389  0.6056  0.3607
26390SOL    HW281550   7.022   3.664   4.519  0.8831  2.2807 -0.6959
26391SOL     OW81551   5.876   9.606  10.521 -0.1599  0.1679  0.4474
26391SOL    HW181552   5.841   9.570  10.602 -0.3533 -0.1344  0.2320
26391SOL    HW281553   5.954   9.655  10.548  2.8242 -3.9552  0.3958
26392SOL     OW81554  10.453   9.829   7.987 -0.2799 -0.0482  0.0194
26392SOL    HW181555  10.431   9.737   7.971 -0.2880 -0.1146  0.4008
26392SOL    HW281556  10.547   9.828   8.004  0.2837  0.3700 -2.6514
26393SOL     OW81557   3.051   7.326   5.653 -0.3379 -0.1101  0.3169
26393SOL    HW181558   2.991   7.356   5.585  2.8914  3.8370 -1.2025
26393SOL    HW281559   3.114   7.271   5.607 -0.0544 -0.2328  0.8401
26394SOL     OW81560   4.856   4.262   8.989  0.2666 -1.0104 -0.6410
26394SOL    HW181561   4.861   4.306   9.074  0.9728 -0.1680 -1.1052
26394SOL    HW281562   4.851   4.169   9.011  0.0011 -0.7760  0.3322
26395SOL     OW81563   1.572   3.883   9.312  0.0257  0.8653 -0.2434
26395SOL    HW181564   1.612   3.856   9.229 -0.0297 -0.5266  0.1582
26395SOL    HW281565   1.645   3.905   9.369  0.1697 -0.2472  0.0136
26396SOL     OW81566   4.501   3.254   2.157 -0.1346 -0.2664 -0.3454
26396SOL    HW181567   4.553   3.184   2.197  2.0630  1.8437  0.6797
26396SOL    HW281568   4.413   3.216   2.150  0.6899 -2.7160  1.2237
26397SOL     OW81569   0.304   9.479   1.877  0.4192  0.5737  0.2258
26397SOL    HW181570   0.379   9.419   1.873 -0.8748 -1.0320 -1.0301
26397SOL    HW281571   0.265   9.463   1.962  1.7955  1.8910  1.1768
26398SOL     OW81572  10.169   2.732   5.377  0.3985 -0.4271 -0.1923
26398SOL    HW181573  10.221   2.653   5.370 -0.3596 -1.4966  3.7065
26398SOL    HW281574  10.203   2.777   5.454 -1.0677  1.5612 -0.6119
26399SOL     OW81575   7.411   9.097   7.149  0.8941 -0.2586 -0.4905
26399SOL    HW181576   7.469   9.166   7.116  0.0748  0.7367  0.0766
26399SOL    HW281577   7.349   9.083   7.077  1.3351 -0.7352 -0.7813
26400SOL     OW81578   2.204   8.909   0.718 -0.0257 -0.1047 -0.2825
26400SOL    HW181579   2.191   8.988   0.665  0.7103 -0.0508 -0.3856
26400SOL    HW281580   2.121   8.898   0.765 -1.0056 -0.5855 -2.0175
26401SOL     OW81581   2.316   1.519   2.390  0.2081  0.0697 -0.0121
26401SOL    HW181582   2.367   1.438   2.401 -0.7098 -0.5539 -0.2525
26401SOL    HW281583   2.226   1.489   2.375 -0.0391  1.1184 -0.7331
26402SOL     OW81584   5.132   7.978   5.593  0.2524  0.4150  0.1853
26402SOL    HW181585   5.131   7.893   5.548  0.7517  0.1000  0.7470
26402SOL    HW281586   5.086   7.962   5.675  0.9186  0.5077  0.5881
26403SOL     OW81587   2.944   3.395   3.543  0.2385  0.5351  0.4503
26403SOL    HW181588   2.958   3.383   3.449  0.0872 -0.0100  0.4929
26403SOL    HW281589   2.856   3.360   3.559  0.8531 -0.8186  1.0511
26404SOL     OW81590   5.413   7.416   3.165  0.5948  0.0433  0.3511
26404SOL    HW181591   5.375   7.328   3.168 -1.7475  0.9017 -1.0317
26404SOL    HW281592   5.453   7.421   3.078 -2.4133  1.3753 -1.1304
26405SOL     OW81593   9.451   4.029   2.016  0.1180 -0.1617 -0.1562
26405SOL    HW181594   9.412   4.096   1.960  0.4610 -0.3791 -0.6637
26405SOL    HW281595   9.540   4.061   2.034  0.5505 -0.8471 -1.0413
26406SOL     OW81596   4.355   2.864   8.478  0.9921  0.2479  0.3250
26406SOL    HW181597   4.424   2.878   8.412  1.9347  0.3460  1.3047
26406SOL    HW281598   4.311   2.949   8.484 -0.4249 -0.2660 -1.5745
26407SOL     OW81599   6.152   5.087   9.259 -0.0412  0.4298 -0.0954
26407SOL    HW181600   6.175   4.999   9.229  1.1046  0.3152  1.0464
26407SOL    HW281601   6.067   5.076   9.301 -0.6601  0.1931 -1.3618
26408SOL     OW81602   9.233   8.551   2.481  0.9059  0.1479  0.0198
26408SOL    HW181603   9.227   8.632   2.533 -2.6263  0.6514 -0.8878
26408SOL    HW281604   9.244   8.582   2.391 -0.5596 -0.2889 -0.3425
26409SOL     OW81605   1.634   7.644   2.117 -0.2148  0.4733 -0.7064
26409SOL    HW181606   1.620   7.704   2.190 -0.4381 -1.5592  1.0092
26409SOL    HW281607   1.550   7.642   2.071 -1.1484 -0.6358  0.9298
26410SOL     OW81608  10.031   3.165   9.043  0.0874 -0.1779 -0.4540
26410SOL    HW181609  10.011   3.242   9.096  0.5767 -0.9306  0.8815
26410SOL    HW281610  10.104   3.123   9.089  0.5182 -0.8778 -1.7321
26411SOL     OW81611   6.128   7.046   5.171  0.1746  0.5142 -0.4587
26411SOL    HW181612   6.132   7.127   5.121  0.7554  0.8343  0.0887
26411SOL    HW281613   6.215   7.038   5.212  0.0485 -0.2567 -0.3109
26412SOL     OW81614   4.984   1.352   9.388 -0.2542 -0.2490  0.1056
26412SOL    HW181615   4.927   1.367   9.313  0.2611  0.8948 -0.0720
26412SOL    HW281616   5.050   1.289   9.356 -0.1332  0.1052 -0.3536
26413SOL     OW81617   9.957   6.479   0.876 -0.4051  0.2510  0.1646
26413SOL    HW181618   9.972   6.527   0.795 -0.3146 -0.6461 -0.3655
26413SOL    HW281619  10.036   6.425   0.886 -0.5484  0.1349  0.6896
26414SOL     OW81620   5.775   7.618  10.370 -0.0033 -0.3887 -0.2075
26414SOL    HW181621   5.826   7.698  10.361  1.5247 -1.3134  0.0003
26414SOL    HW281622   5.724   7.613  10.288 -1.9788  1.9784  0.7533
26415SOL     OW81623   9.327   1.823   7.361  0.4213 -0.1606  0.2819
26415SOL    HW181624   9.240   1.825   7.400  2.2435 -1.6523  5.1528
26415SOL    HW281625   9.357   1.914   7.365  0.3619 -0.1916  2.1521
26416SOL     OW81626   0.500   5.872  10.437  0.8262 -0.2529  0.1221
26416SOL    HW181627   0.515   5.892  10.344  1.2471  1.4223  0.5235
26416SOL    HW281628   0.425   5.927  10.461  0.7405 -0.6578  0.7813
26417SOL     OW81629   5.533   9.581   8.134 -0.3204 -0.3301  0.2219
26417SOL    HW181630   5.472   9.594   8.062 -0.0652  1.2036  0.2377
26417SOL    HW281631   5.596   9.517   8.101 -0.9398 -0.6080 -0.4412
26418SOL     OW81632   5.343  10.787   7.310  0.5028 -0.1926  0.0387
26418SOL    HW181633   5.249  10.807   7.316  0.7632  0.7662  1.2372
26418SOL    HW281634   5.351  10.700   7.349  0.4272  0.7810  2.3553
26419SOL     OW81635   9.730   0.856   2.538 -0.3952 -0.6886 -0.0476
26419SOL    HW181636   9.717   0.930   2.478 -0.3442 -1.5207 -1.1187
26419SOL    HW281637   9.644   0.841   2.577 -0.1718  0.6107  1.0178
26420SOL     OW81638   7.367   7.983   5.704 -0.1410  0.0189 -0.3646
26420SOL    HW181639   7.362   7.943   5.617 -0.0591 -2.3386  0.6352
26420SOL    HW281640   7.350   7.911   5.764  2.3107  1.0312  1.6977
26421SOL     OW81641   1.409   8.207   6.555  0.1976  0.2725  0.0604
26421SOL    HW181642   1.318   8.180   6.544  0.6592 -1.5371  0.4544
26421SOL    HW281643   1.409   8.301   6.533 -1.1853 -0.3206 -3.0128
26422SOL     OW81644   0.542   9.802   5.290  0.6463 -0.2803 -0.8892
26422SOL    HW181645   0.532   9.875   5.228  0.5584  0.2218 -0.2932
26422SOL    HW281646   0.536   9.724   5.235  0.3735  0.1492 -1.4919
26423SOL     OW81647   0.849   2.588   5.890  0.0675  0.0064 -0.0992
26423SOL    HW181648   0.787   2.521   5.861 -0.5076  0.9651 -1.1670
26423SOL    HW281649   0.908   2.601   5.816  0.8643 -0.0898  0.4998
26424SOL     OW81650   2.601   1.325   0.969  0.0195 -0.0403 -0.4961
26424SOL    HW181651   2.505   1.332   0.963 -0.2093 -1.4964  0.7618
26424SOL    HW281652   2.620   1.338   1.062  0.9782 -0.4821 -0.6209
26425SOL     OW81653   3.375   7.374   4.042 -0.2468 -0.3949  0.2560
26425SOL    HW181654   3.420   7.425   4.109 -1.2668  0.3271  0.4126
26425SOL    HW281655   3.422   7.394   3.961  0.5268 -0.6900  0.6251
26426SOL     OW81656   9.499   0.077   6.589  0.1479  0.3868 -0.2932
26426SOL    HW181657   9.582   0.078   6.636 -0.1036  1.8601  0.1818
26426SOL    HW281658   9.481  -0.015   6.572  2.2545  0.0810 -1.0940
26427SOL     OW81659   3.090   3.907   8.832 -0.7085  0.0577  0.1053
26427SOL    HW181660   3.100   3.866   8.747  0.9581  0.4648  0.0750
26427SOL    HW281661   3.133   3.847   8.893 -0.0065  0.7788  0.3388
26428SOL     OW81662  10.776   2.195   8.758 -0.4033 -0.2968 -0.2437
26428SOL    HW181663  10.826   2.226   8.834 -0.5985 -0.8521  0.1104
26428SOL    HW281664  10.714   2.266   8.741 -1.6584 -0.9633  1.3036
26429SOL     OW81665   8.645   5.499  10.093  0.4302  0.0119 -0.2995
26429SOL    HW181666   8.630   5.439  10.166  1.3690 -1.4506 -1.2657
26429SOL    HW281667   8.644   5.586  10.133 -0.9749 -0.6146  1.1399
26430SOL     OW81668   0.105   8.593   0.644  0.3030 -0.4587 -0.1328
26430SOL    HW181669   0.051   8.620   0.569  0.3857 -1.1330 -0.4461
26430SOL    HW281670   0.081   8.653   0.714 -1.9393 -1.5999  0.1784
26431SOL     OW81671   2.253   9.230   9.000 -0.4099 -0.3292  0.5661
26431SOL    HW181672   2.159   9.211   9.008 -0.9472  1.0548 -1.5297
26431SOL    HW281673   2.274   9.210   8.908  0.8811  1.1466  0.4902
26432SOL     OW81674   5.956   3.199   5.814 -0.2439 -0.0228  0.2702
26432SOL    HW181675   5.894   3.259   5.772 -1.2349 -0.3030  1.3063
26432SOL    HW281676   5.925   3.112   5.788  0.8315 -0.1370 -0.7260
26433SOL     OW81677   3.924  10.551   1.750 -0.8626 -0.0562  0.0555
26433SOL    HW181678   3.999  10.564   1.808 -1.1105  2.1626 -0.0408
26433SOL    HW281679   3.848  10.573   1.803 -1.1139  1.7504 -0.9504
26434SOL     OW81680  10.375   4.439   8.823  0.1251 -0.1874 -0.0890
26434SOL    HW181681  10.336   4.523   8.844 -0.7463 -1.2207  2.9226
26434SOL    HW281682  10.469   4.450   8.841  0.0645  0.2506 -0.0499
26435SOL     OW81683   7.457   3.122   0.777  0.1108  0.2593  0.0317
26435SOL    HW181684   7.550   3.143   0.762 -0.3384  2.8337  0.4687
26435SOL    HW281685   7.442   3.045   0.722  2.0517  0.8755 -1.5162
26436SOL     OW81686   5.919   7.750   1.088 -0.4322 -0.4313  0.0586
26436SOL    HW181687   5.892   7.721   1.175 -0.7354  1.6310  0.6978
26436SOL    HW281688   6.014   7.740   1.088 -0.3651  0.0965  0.8625
26437SOL     OW81689   1.817   1.641   6.171 -0.3136 -0.4190 -0.2168
26437SOL    HW181690   1.826   1.546   6.185 -0.9519 -0.3452  0.7937
26437SOL    HW281691   1.738   1.650   6.118  0.3133 -0.4956 -1.2000
26438SOL     OW81692  10.658   6.295   6.906  0.2003  0.3181  0.1018
26438SOL    HW181693  10.708   6.323   6.829  0.8509  1.3517  0.8731
26438SOL    HW281694  10.594   6.233   6.872 -0.3793  1.7219 -1.5063
26439SOL     OW81695   1.585   6.455  10.025 -0.4248 -0.1014  0.3448
26439SOL    HW181696   1.635   6.528  10.063 -1.9416  0.3052  1.7138
26439SOL    HW281697   1.650   6.401   9.981  0.8850  1.5634  0.1367
26440SOL     OW81698   2.602   0.957   4.196  0.2399 -0.0499  0.2970
26440SOL    HW181699   2.635   0.972   4.285  0.7611 -1.5578  0.3869
26440SOL    HW281700   2.551   1.036   4.176  1.0035  0.7900  1.5099
26441SOL     OW81701   5.637   8.397   2.587  0.0412 -0.4504 -0.8367
26441SOL    HW181702   5.565   8.365   2.532  0.9043 -2.6641 -0.7755
26441SOL    HW281703   5.714   8.352   2.554  0.8627 -0.5739  1.1346
26442SOL     OW81704  10.798  10.740   8.563  0.3073 -0.2533 -0.5063
26442SOL    HW181705  10.802  10.811   8.627 -0.4039 -2.0774  1.7224
26442SOL    HW281706  10.837  10.776   8.484  3.1260  1.5494  1.5080
26443SOL     OW81707  10.400   6.294   9.262 -0.1082  0.4872  0.2341
26443SOL    HW181708  10.405   6.361   9.329 -2.1730  0.6130  0.3228
26443SOL    HW281709  10.400   6.211   9.310  1.9614  0.3840  0.1476
26444SOL     OW81710   9.073   9.642   2.513 -0.2615 -0.3800 -0.1849
26444SOL    HW181711   9.131   9.624   2.588 -1.1413  0.5774  0.7649
26444SOL    HW281712   8.995   9.590   2.531 -0.5107 -0.0752 -0.3926
26445SOL     OW81713   4.082   2.255   8.784  0.6836 -0.0831  0.1591
26445SOL    HW181714   3.987   2.247   8.780  0.7110 -0.6550  0.5526
26445SOL    HW281715   4.099   2.348   8.770  0.0713  0.0086  0.0200
26446SOL     OW81716   2.945   3.367   1.514 -0.2385  0.4290 -0.1970
26446SOL    HW181717   3.020   3.359   1.455  0.1867  0.0771  0.3747
26446SOL    HW281718   2.929   3.462   1.520  0.8050  0.5851  0.4502
26447SOL     OW81719   7.392   1.166   3.080 -0.1278 -0.3370  0.1174
26447SOL    HW181720   7.322   1.119   3.034 -0.1308 -1.0283  0.7882
26447SOL    HW281721   7.402   1.118   3.162 -0.2913  1.0026  0.9459
26448SOL     OW81722   4.016  10.217   2.959  0.5220 -0.4230 -0.2071
26448SOL    HW181723   4.056  10.130   2.959 -0.9264 -1.1079 -0.2969
26448SOL    HW281724   4.063  10.264   2.889  2.0689 -0.7409  0.5784
26449SOL     OW81725   5.948   4.172   9.439  0.1388  0.2884 -0.4405
26449SOL    HW181726   5.991   4.167   9.524 -1.0040 -2.9221  0.0762
26449SOL    HW281727   6.015   4.142   9.377 -0.3810 -2.0736  0.0291
26450SOL     OW81728   1.364   5.191   7.430 -0.3156 -0.0637 -0.5654
26450SOL    HW181729   1.452   5.162   7.406  0.0363  0.5259 -0.0185
26450SOL    HW281730   1.377   5.252   7.503 -1.1843 -0.0406 -0.4128
26451SOL     OW81731   2.300   8.696   1.003 -0.5574  0.0551  0.4018
26451SOL    HW181732   2.344   8.734   0.927  0.2597 -1.2035  0.2123
26451SOL    HW281733   2.306   8.602   0.989 -0.1128 -0.2156  2.1720
26452SOL     OW81734   8.863  10.163   5.184  0.5365  0.1493  0.0275
26452SOL    HW181735   8.849  10.077   5.146  1.4977 -0.2581  0.5373
26452SOL    HW281736   8.781  10.185   5.227  0.2616 -0.4812 -0.1748
26453SOL     OW81737   9.524   8.997   3.303  0.5946  0.0877  0.1250
26453SOL    HW181738   9.471   9.037   3.372  0.7654  0.3117  0.1289
26453SOL    HW281739   9.492   9.037   3.222  1.6783  1.2525  0.2550
26454SOL     OW81740   3.840   3.303   1.671 -0.1696  0.0219 -0.1297
26454SOL    HW181741   3.792   3.378   1.637  0.5450  1.0880  1.1361
26454SOL    HW281742   3.816   3.298   1.763  3.6680  1.9993  1.1980
26455SOL     OW81743   8.626   2.128   4.168  1.1877 -0.5055 -0.4384
26455SOL    HW181744   8.713   2.092   4.188  1.2819  0.3164  0.7578
26455SOL    HW281745   8.570   2.094   4.238  0.8610  0.1244 -0.3949
26456SOL     OW81746   8.246   3.241   4.196  0.7619 -0.5173  0.0409
26456SOL    HW181747   8.283   3.155   4.178  0.1825 -0.8072  0.2108
26456SOL    HW281748   8.151   3.227   4.196  0.5156  0.5502 -2.2526
26457SOL     OW81749   4.544   4.298   8.619 -0.6362  0.1543  0.1299
26457SOL    HW181750   4.538   4.389   8.649  0.5738  1.0154 -1.9847
26457SOL    HW281751   4.454   4.273   8.601 -1.2031  0.2019  2.5730
26458SOL     OW81752   4.682  10.153   3.220 -0.0047 -0.0610 -0.5246
26458SOL    HW181753   4.750  10.127   3.282 -0.6327 -2.3543 -0.7065
26458SOL    HW281754   4.605  10.166   3.274  0.2344  1.2488 -0.4723
26459SOL     OW81755   9.482  10.249   1.795 -0.1318 -0.3384 -0.1309
26459SOL    HW181756   9.467  10.288   1.881 -0.1559 -1.5106  0.4241
26459SOL    HW281757   9.550  10.183   1.811 -1.4596 -1.8707 -0.6074
26460SOL     OW81758   5.042   1.446   5.077  0.0116 -0.0264 -0.5755
26460SOL    HW181759   5.027   1.523   5.022  1.6381  0.7681  0.0389
26460SOL    HW281760   5.131   1.419   5.056  0.4666 -0.0460  1.2290
26461SOL     OW81761   5.032  10.055   1.579  0.0882 -0.0785 -0.9027
26461SOL    HW181762   4.985   9.988   1.530 -2.2552  2.1198 -1.9054
26461SOL    HW281763   4.990  10.054   1.666 -1.3347  1.3032 -1.5277
26462SOL     OW81764   1.699   5.188   7.072  0.1642 -0.3081  0.1947
26462SOL    HW181765   1.778   5.134   7.078  0.2417 -0.4557 -1.6510
26462SOL    HW281766   1.715   5.246   6.998 -1.1259  0.2489  0.3307
26463SOL     OW81767   4.174   6.637   8.446  0.7758  1.0358  0.0744
26463SOL    HW181768   4.174   6.731   8.465  1.1327  1.3553 -1.3589
26463SOL    HW281769   4.155   6.632   8.352 -1.3080 -0.4353  0.5111
26464SOL     OW81770  10.625   3.732   7.982  0.2183  0.1136  0.5644
26464SOL    HW181771  10.711   3.773   7.968  0.1896  0.0371  0.1602
26464SOL    HW281772  10.616   3.729   8.078  1.7330 -2.0769  0.7034
26465SOL     OW81773   2.890   0.563   5.996 -0.4573 -0.1974 -0.2236
26465SOL    HW181774   2.923   0.619   5.925 -1.0462 -1.4412 -1.5046
26465SOL    HW281775   2.796   0.559   5.982 -0.6588 -0.0437  0.9675
26466SOL     OW81776   8.118  10.281   4.095 -0.5238 -0.1267 -0.1330
26466SOL    HW181777   8.048  10.303   4.156 -0.4715 -1.0630  0.2736
26466SOL    HW281778   8.198  10.291   4.146 -0.5542 -2.4035  0.4482
26467SOL     OW81779   7.696   9.590   1.432 -0.2405  0.2822 -0.3246
26467SOL    HW181780   7.687   9.520   1.498  0.5283  1.6401  1.2951
26467SOL    HW281781   7.761   9.649   1.469 -1.2083  2.1238 -1.4344
26468SOL     OW81782   8.665   4.073   0.323  0.2048 -0.3427 -0.3260
26468SOL    HW181783   8.753   4.104   0.299  0.3857 -1.6777 -1.5182
26468SOL    HW281784   8.607   4.120   0.264  0.0327  0.9531  0.8326
26469SOL     OW81785   3.554   8.314   8.724  0.0150 -0.4426  0.2113
26469SOL    HW181786   3.596   8.233   8.694  0.0712  0.1583 -1.4066
26469SOL    HW281787   3.468   8.286   8.756  0.3879 -1.2550  0.5151
26470SOL     OW81788   8.462   6.848   5.814  0.4417 -0.5106 -0.1703
26470SOL    HW181789   8.446   6.832   5.907  3.1740  0.5576  0.5891
26470SOL    HW281790   8.407   6.923   5.792  0.8744  0.1671  0.9982
26471SOL     OW81791   4.824   6.819   3.894  0.2289  0.6789 -0.6647
26471SOL    HW181792   4.753   6.871   3.931 -1.0311 -1.1073 -0.4138
26471SOL    HW281793   4.800   6.807   3.802 -0.4057 -0.7953 -0.3445
26472SOL     OW81794   5.605   2.184   0.531 -0.4998 -0.6238 -0.1339
26472SOL    HW181795   5.530   2.209   0.584  1.0548 -0.7067  2.2900
26472SOL    HW281796   5.664   2.259   0.536 -0.1601 -0.7683 -1.5355
26473SOL     OW81797   8.574   4.984   8.553  0.0937 -0.0756 -0.0373
26473SOL    HW181798   8.499   4.928   8.572  1.5393 -2.1107 -0.0154
26473SOL    HW281799   8.548   5.035   8.477 -1.0317 -1.2915 -0.4997
26474SOL     OW81800   6.758   6.505   4.668  0.0880 -0.3823  0.1580
26474SOL    HW181801   6.746   6.541   4.580 -1.1365 -0.4380  0.2859
26474SOL    HW281802   6.743   6.411   4.658  2.3087 -0.7817  0.0094
26475SOL     OW81803   0.155   5.539   2.570  0.1930 -0.0030  0.1266
26475SOL    HW181804   0.180   5.631   2.561  2.0838 -0.3849  0.9388
26475SOL    HW281805   0.228   5.491   2.531 -0.7938 -1.1591 -0.3210
26476SOL     OW81806   2.989   3.223   4.903  0.3136 -0.2566 -0.1786
26476SOL    HW181807   2.908   3.235   4.953  0.7405  0.8093  0.2891
26476SOL    HW281808   2.998   3.128   4.895  0.0716 -0.4630  1.5260
26477SOL     OW81809   5.259   0.323   1.335  0.2201  0.4786  0.0119
26477SOL    HW181810   5.339   0.372   1.354  0.9051 -0.8314  0.6402
26477SOL    HW281811   5.253   0.324   1.240  1.3805 -0.0001 -0.0840
26478SOL     OW81812   1.918   5.275   3.636  0.1313 -0.0361 -0.1204
26478SOL    HW181813   1.978   5.309   3.702 -0.3702  0.5554  0.0294
26478SOL    HW281814   1.975   5.228   3.575  0.4807 -1.6550  1.3750
26479SOL     OW81815   2.628   5.332   9.269  0.1671 -0.6895 -0.0553
26479SOL    HW181816   2.715   5.369   9.255  0.4386 -1.1490  0.3866
26479SOL    HW281817   2.634   5.287   9.353  0.0997 -2.4467 -0.9547
26480SOL     OW81818   5.115   2.921   1.390 -0.3527  0.2184 -0.1599
26480SOL    HW181819   5.026   2.900   1.361 -0.4178 -0.5190  0.5491
26480SOL    HW281820   5.118   2.894   1.481  0.0726  1.8516  0.3451
26481SOL     OW81821   6.524   7.049   6.123 -0.1997 -0.5891  0.2416
26481SOL    HW181822   6.471   7.076   6.198 -0.0884  1.3950 -0.3181
26481SOL    HW281823   6.470   6.984   6.077 -1.3016 -0.0706  0.7618
26482SOL     OW81824   3.586   3.475   1.534 -0.0973  0.1974 -0.0595
26482SOL    HW181825   3.513   3.423   1.568  1.0098 -1.7458 -0.5315
26482SOL    HW281826   3.581   3.557   1.582 -1.1408 -0.8244  1.6753
26483SOL     OW81827   1.439   6.154   9.964  0.0023 -0.1118 -0.4054
26483SOL    HW181828   1.391   6.201  10.032 -0.6697  1.3381 -1.8157
26483SOL    HW281829   1.521   6.202   9.955  0.0858 -0.2959 -0.6217
26484SOL     OW81830   6.704   3.121   2.069  0.2836  0.2372  0.3562
26484SOL    HW181831   6.713   3.189   2.135 -0.3093  0.0364  0.6484
26484SOL    HW281832   6.672   3.166   1.991 -1.4556  0.1069  0.9495
26485SOL     OW81833   3.455   0.600   8.817 -0.3958  0.1125 -0.7593
26485SOL    HW181834   3.418   0.570   8.734 -0.3768  0.1377 -0.7769
26485SOL    HW281835   3.379   0.609   8.875 -0.1699 -2.2362 -0.0240
26486SOL     OW81836   8.280   2.037   1.075 -0.0199  0.6137  0.7271
26486SOL    HW181837   8.365   1.994   1.069  0.3339  1.1349  1.7650
26486SOL    HW281838   8.225   1.990   1.013  1.1527  0.5827 -0.3461
26487SOL     OW81839   5.192   7.854   5.229  0.6902  0.4703  0.0452
26487SOL    HW181840   5.256   7.926   5.224  1.9353 -0.6222 -0.2995
26487SOL    HW281841   5.110   7.894   5.200  1.1050  2.0169  0.8583
26488SOL     OW81842   2.008   3.911  10.514  0.1448  0.0400  0.3270
26488SOL    HW181843   1.943   3.884  10.579 -0.9349 -2.0746 -1.5200
26488SOL    HW281844   1.958   3.955  10.446  0.4768 -1.8850 -1.2688
26489SOL     OW81845   7.255   3.658   0.451 -0.1410 -0.0246  0.2769
26489SOL    HW181846   7.231   3.623   0.537 -1.0159 -1.0363 -0.3491
26489SOL    HW281847   7.201   3.736   0.441  0.2332  0.2999  0.7995
26490SOL     OW81848   5.112   4.965   7.601 -0.0584 -0.2654  0.7697
26490SOL    HW181849   5.121   5.059   7.590 -3.4643 -0.0603 -1.5730
26490SOL    HW281850   5.159   4.928   7.526 -0.4586 -0.3351  0.5553
26491SOL     OW81851   4.735   1.092   6.572 -0.6747 -0.1380 -0.0851
26491SOL    HW181852   4.779   1.007   6.581  1.8196  1.1492  0.6533
26491SOL    HW281853   4.765   1.126   6.488 -0.0931  0.8318  0.4987
26492SOL     OW81854   6.993   8.554   1.549  0.2825 -0.3037  0.2852
26492SOL    HW181855   6.943   8.548   1.630  1.8732 -1.4207  1.2454
26492SOL    HW281856   6.927   8.550   1.480 -1.0335 -0.4503  1.5009
26493SOL     OW81857   4.036   3.670   3.926 -0.0210 -0.2166  0.0967
26493SOL    HW181858   4.069   3.675   3.837  0.9300 -1.2682  0.3730
26493SOL    HW281859   4.097   3.611   3.971  0.5090  1.5509  1.8586
26494SOL     OW81860   8.584   5.440   8.550 -0.0863 -0.4328 -0.3602
26494SOL    HW181861   8.489   5.441   8.539 -0.2741 -0.8222  1.0731
26494SOL    HW281862   8.600   5.378   8.621  1.2806 -0.6855 -0.8554
26495SOL     OW81863   2.883   0.027   9.810 -0.1960  0.0072  0.5254
26495SOL    HW181864   2.900   0.103   9.865  0.5186  0.6453 -0.5345
26495SOL    HW281865   2.958   0.023   9.751 -0.6000 -1.0705  0.0564
26496SOL     OW81866   4.851   8.697   6.984  0.9413  0.3786 -0.4957
26496SOL    HW181867   4.786   8.628   6.969  1.3072 -0.5086  1.6787
26496SOL    HW281868   4.914   8.686   6.913  0.0543 -0.3681 -1.1969
26497SOL     OW81869   2.949   0.783   4.734 -0.2477 -0.2546  0.2239
26497SOL    HW181870   2.904   0.844   4.791  1.8769  1.1115  0.5509
26497SOL    HW281871   2.924   0.696   4.767 -3.2252  0.3697 -0.1874
26498SOL     OW81872   5.001   0.682  10.411  0.1532  0.4775 -0.4506
26498SOL    HW181873   5.057   0.700  10.335 -0.6193 -1.2885 -1.5158
26498SOL    HW281874   5.048   0.614  10.459 -0.3858  0.0185 -0.5647
26499SOL     OW81875   3.380   6.428   2.410  0.5839  0.6165 -0.1538
26499SOL    HW181876   3.423   6.513   2.402  0.1362  0.8598  0.0037
26499SOL    HW281877   3.296   6.439   2.366  1.2668 -0.2834 -1.7509
26500SOL     OW81878  10.148   9.910   1.512  0.2941 -0.6073 -0.6826
26500SOL    HW181879  10.237   9.937   1.491  0.0620  0.0505 -0.8270
26500SOL    HW281880  10.098   9.991   1.514  0.1142 -0.7197  1.5980
26501SOL     OW81881  10.528   3.295   5.717 -0.6332 -0.3695 -0.5973
26501SOL    HW181882  10.511   3.381   5.677 -0.0299 -0.3342 -0.7814
26501SOL    HW281883  10.610   3.266   5.677  2.0277  1.2601  3.1249
26502SOL     OW81884   9.339   0.255  10.018 -0.6410 -0.6157  0.3550
26502SOL    HW181885   9.251   0.231   9.990 -1.0057  1.3755 -0.3146
26502SOL    HW281886   9.327   0.289  10.107 -0.6909  0.4680 -0.0606
26503SOL     OW81887   8.111   2.339   7.857 -0.1374  0.5897 -0.1251
26503SOL    HW181888   8.201   2.344   7.889  0.3782 -2.4737 -0.7222
26503SOL    HW281889   8.115   2.272   7.788 -3.0931 -0.7337  0.8431
26504SOL     OW81890   0.296   0.670  10.507  0.3223 -0.5065  0.0571
26504SOL    HW181891   0.234   0.601  10.530  1.2596 -0.9776  1.2992
26504SOL    HW281892   0.287   0.680  10.412 -1.4133 -0.7617  0.1741
26505SOL     OW81893   0.394   9.198   3.226 -0.0416  0.0761  0.4070
26505SOL    HW181894   0.433   9.113   3.206  2.0360  0.6797  1.6040
26505SOL    HW281895   0.469   9.255   3.245 -1.4642  1.5787  1.8385
26506SOL     OW81896   0.536   6.795  10.261  0.1769 -0.1077 -0.8140
26506SOL    HW181897   0.558   6.731  10.328 -0.0631  1.1233  0.5145
26506SOL    HW281898   0.462   6.757  10.214 -0.9072 -0.2292  0.8926
26507SOL     OW81899   7.361   5.673   8.293 -0.0546  0.3697 -0.4578
26507SOL    HW181900   7.353   5.592   8.343 -1.7532 -0.2643 -1.6371
26507SOL    HW281901   7.422   5.652   8.222  0.5731  0.5635  0.0181
26508SOL     OW81902   5.781   4.125   6.446  0.4065  0.0674 -0.2126
26508SOL    HW181903   5.737   4.175   6.515 -1.0703  1.2498 -1.9232
26508SOL    HW281904   5.873   4.150   6.453 -0.0833  2.0068 -0.1304
26509SOL     OW81905   6.786  10.663   5.435 -0.2634 -0.4091  0.4392
26509SOL    HW181906   6.739  10.661   5.352  2.5684  0.8531 -1.3547
26509SOL    HW281907   6.719  10.683   5.501 -2.4525 -0.5231 -1.6479
26510SOL     OW81908   7.406   1.920   3.045  0.0211 -0.4410 -0.5063
26510SOL    HW181909   7.389   1.914   3.139  0.7221  1.6770 -0.1959
26510SOL    HW281910   7.319   1.921   3.005 -0.2786 -1.6222  0.0774
26511SOL     OW81911   0.817   0.303   5.479 -0.1968  0.0513 -0.3603
26511SOL    HW181912   0.848   0.375   5.534  0.6562 -0.9928  0.5769
26511SOL    HW281913   0.807   0.229   5.539 -1.6745 -0.4701 -1.1789
26512SOL     OW81914  10.266   7.257   9.334 -0.2862  0.5033 -0.0342
26512SOL    HW181915  10.333   7.324   9.348 -0.5686  0.6264  0.7536
26512SOL    HW281916  10.278   7.231   9.243  0.1432  1.2821 -0.2140
26513SOL     OW81917   6.384   8.034   0.125  0.6687  0.0189 -0.2418
26513SOL    HW181918   6.464   8.084   0.106  0.3622  0.2607 -0.8880
26513SOL    HW281919   6.313   8.096   0.113  0.3400 -0.3453 -0.1911
26514SOL     OW81920   5.268   8.309   5.356  0.4070  0.2474  0.0715
26514SOL    HW181921   5.251   8.313   5.450 -1.0761  0.1609 -0.1610
26514SOL    HW281922   5.183   8.330   5.316  1.3653  1.7468 -1.2593
26515SOL     OW81923   5.603   2.372   5.385  0.2347 -0.2518  0.1949
26515SOL    HW181924   5.595   2.282   5.417  1.2524 -0.7884 -0.9799
26515SOL    HW281925   5.673   2.410   5.437 -1.3236  0.4518  1.8785
26516SOL     OW81926   5.606   6.237   4.415 -0.2198 -0.1057  0.2220
26516SOL    HW181927   5.683   6.290   4.398 -0.6961  0.7025  0.5241
26516SOL    HW281928   5.543   6.264   4.347 -0.5404 -0.1271  0.5055
26517SOL     OW81929   0.706   5.170   3.384  0.3848  0.2159 -0.0870
26517SOL    HW181930   0.740   5.256   3.407  2.6187 -0.9694  1.5321
26517SOL    HW281931   0.760   5.141   3.311 -1.3611  0.7050 -1.6623
26518SOL     OW81932   6.215   7.109   6.753 -0.1755 -0.4130 -0.1613
26518SOL    HW181933   6.244   7.026   6.791  0.6378 -0.6550 -1.2856
26518SOL    HW281934   6.289   7.140   6.702 -0.2718  1.2976  0.6618
26519SOL     OW81935   6.471   4.621   7.559  0.2178 -0.9237  0.2599
26519SOL    HW181936   6.424   4.567   7.496  1.1872  0.3567 -1.6705
26519SOL    HW281937   6.553   4.574   7.575 -0.5040 -1.8083  1.5007
26520SOL     OW81938   4.521   1.662   4.066 -0.0031  0.0947  0.4060
26520SOL    HW181939   4.550   1.661   4.158  1.3313 -1.2000  0.0115
26520SOL    HW281940   4.539   1.574   4.035  0.9062  0.8989 -1.4887
26521SOL     OW81941   3.368   4.160  10.375 -0.3015 -0.4440 -0.4931
26521SOL    HW181942   3.430   4.109  10.428 -0.7064 -1.2115 -0.7489
26521SOL    HW281943   3.350   4.104  10.299 -2.8378 -1.1251  0.5289
26522SOL     OW81944   1.890   1.388   9.234 -0.1302  0.4319 -0.2309
26522SOL    HW181945   1.815   1.339   9.201  0.3780 -2.3404  2.2132
26522SOL    HW281946   1.961   1.368   9.172 -0.3188 -0.7472 -0.0893
26523SOL     OW81947   3.603   3.694   4.737 -0.4941 -0.0605 -0.5300
26523SOL    HW181948   3.613   3.599   4.729  1.9075  0.1813 -1.0111
26523SOL    HW281949   3.542   3.717   4.666 -0.6878 -1.1577 -0.7514
26524SOL     OW81950   7.581   1.041   7.765  0.5647 -0.6699 -0.4251
26524SOL    HW181951   7.663   0.999   7.740  0.4213 -0.2463 -1.7092
26524SOL    HW281952   7.567   1.108   7.698 -0.6341 -0.4815 -0.0194
26525SOL     OW81953   7.605   9.986   7.004 -0.3653  0.1718 -0.5257
26525SOL    HW181954   7.616   9.925   7.078  0.7702  0.8694 -0.0848
26525SOL    HW281955   7.560   9.935   6.937  0.9924 -1.3426 -0.3529
26526SOL     OW81956   5.433   5.061   8.121 -1.1188 -0.5398  0.0100
26526SOL    HW181957   5.509   5.025   8.074  0.9563  3.8349 -0.5265
26526SOL    HW281958   5.460   5.060   8.213 -0.5145  0.5728 -0.1321
26527SOL     OW81959   3.789   5.812   3.862 -0.2796 -0.0533 -0.1038
26527SOL    HW181960   3.714   5.831   3.919  0.1039  3.9008 -0.6356
26527SOL    HW281961   3.862   5.802   3.922 -0.3238  1.6264  0.2853
26528SOL     OW81962   8.665   5.703   7.029 -0.0048 -0.0931 -0.3066
26528SOL    HW181963   8.606   5.650   6.976 -0.3726  0.8927 -0.9198
26528SOL    HW281964   8.663   5.662   7.116 -1.6136 -0.0710 -0.3023
26529SOL     OW81965   1.058   4.600   9.291  0.9592  0.3092 -0.3942
26529SOL    HW181966   1.102   4.654   9.358  0.1029  0.9452 -0.3294
26529SOL    HW281967   1.113   4.523   9.284  1.0497  0.1931  1.1071
26530SOL     OW81968   7.699   8.287   1.035  0.0354 -0.3099 -0.5438
26530SOL    HW181969   7.782   8.251   1.002  0.4801  0.2627 -0.0934
26530SOL    HW281970   7.685   8.367   0.984  1.1855  1.0636  1.1413
26531SOL     OW81971   7.664   8.005   7.172 -0.0134  0.5707 -0.6778
26531SOL    HW181972   7.607   8.031   7.245  0.9431  0.0269  0.2840
26531SOL    HW281973   7.659   7.910   7.170 -1.8826  0.6209 -2.8772
26532SOL     OW81974   0.808   2.481   3.368  0.0718  0.6080 -0.1613
26532SOL    HW181975   0.721   2.506   3.399 -1.4958 -1.8016 -2.1396
26532SOL    HW281976   0.851   2.443   3.444 -1.2773  0.3865  0.5315
26533SOL     OW81977   1.224   9.223   5.977 -0.5207  0.4047  0.0317
26533SOL    HW181978   1.244   9.304   5.932  1.6745 -0.9457 -1.5874
26533SOL    HW281979   1.145   9.190   5.934 -0.8062  1.1351 -0.0104
26534SOL     OW81980   1.154   6.112   2.941  0.2819  0.1827 -0.2686
26534SOL    HW181981   1.087   6.179   2.955 -1.2415 -1.0558 -1.1732
26534SOL    HW281982   1.166   6.071   3.026  0.2551  0.7643  0.0150
26535SOL     OW81983   9.120   5.685   1.319  0.4453  0.0291  0.0149
26535SOL    HW181984   9.168   5.757   1.278 -0.0506  2.0669  2.8074
26535SOL    HW281985   9.031   5.717   1.327  0.4963 -0.3222  2.5158
26536SOL     OW81986   0.025   4.588   3.664  0.3126 -1.2486 -0.4803
26536SOL    HW181987  -0.015   4.553   3.585  0.2708  0.0237 -1.0382
26536SOL    HW281988   0.095   4.645   3.633  0.1753 -0.5830  0.3891
26537SOL     OW81989  10.108  10.261   8.748  0.3219 -0.1878  0.5154
26537SOL    HW181990  10.154  10.190   8.793  0.1862  0.0225  0.9818
26537SOL    HW281991  10.016  10.249   8.771 -0.1862 -1.7422 -1.8859
26538SOL     OW81992   6.274   7.771  10.590  1.0491 -0.1489  0.4531
26538SOL    HW181993   6.257   7.865  10.596  2.9339  0.1464  2.5775
26538SOL    HW281994   6.188   7.732  10.577  0.0422  1.7835  0.8708
26539SOL     OW81995   8.653   7.658   9.275 -0.5198 -0.1516 -0.3084
26539SOL    HW181996   8.626   7.611   9.197 -0.5351 -0.1911 -0.2793
26539SOL    HW281997   8.571   7.682   9.318 -0.5767  1.3624 -1.1815
26540SOL     OW81998   1.736   0.399   8.982 -0.8750  0.2097  0.0158
26540SOL    HW181999   1.816   0.439   8.950 -2.8121  2.7489 -2.0696
26540SOL    HW282000   1.764   0.316   9.021  2.8466  1.5678  0.5632
26541SOL     OW82001   2.212   4.164  10.362 -0.0565  0.2793  0.3887
26541SOL    HW182002   2.266   4.085  10.366 -0.2334  0.1777  0.7789
26541SOL    HW282003   2.243   4.217  10.435  0.0487  0.5645  0.1386
26542SOL     OW82004   2.642  10.443   8.215  0.1334  0.2997  0.0811
26542SOL    HW182005   2.547  10.433   8.220  0.2062 -1.4451 -1.1704
26542SOL    HW282006   2.661  10.455   8.122  1.2675 -1.3281  0.0684
26543SOL     OW82007   4.466   6.013   7.660 -0.4851  0.0376 -0.0909
26543SOL    HW182008   4.426   6.087   7.613 -0.4922 -0.8381 -1.5162
26543SOL    HW282009   4.396   5.948   7.667  0.5107 -1.3772 -2.3287
26544SOL     OW82010   6.723   8.127   9.375 -0.7263 -0.0604  0.0337
26544SOL    HW182011   6.635   8.145   9.408 -0.6434  0.2612  0.0830
26544SOL    HW282012   6.778   8.124   9.454 -0.6599 -0.0685 -0.0133
26545SOL     OW82013  10.734   6.356   0.916 -0.3200  0.2165 -0.5714
26545SOL    HW182014  10.820   6.397   0.926 -0.6402  1.0037 -1.0143
26545SOL    HW282015  10.713   6.324   1.004  0.0433  0.7815 -0.2722
26546SOL     OW82016   4.929   1.556   1.739 -0.7424  0.3147  0.4804
26546SOL    HW182017   4.845   1.556   1.694 -0.2543  0.5866 -0.4551
26546SOL    HW282018   4.986   1.502   1.684  0.0126  1.0842  0.4817
26547SOL     OW82019   2.519   7.634   9.642 -0.3019  0.3106 -0.2723
26547SOL    HW182020   2.591   7.619   9.703 -0.4376 -0.0640 -0.2000
26547SOL    HW282021   2.560   7.678   9.567  0.0405 -0.0786 -0.3188
26548SOL     OW82022   4.226   7.622   1.198 -0.2862  0.4992 -0.5443
26548SOL    HW182023   4.211   7.688   1.130 -1.1391  1.3052  0.3977
26548SOL    HW282024   4.300   7.571   1.166 -0.5510  0.9813 -1.9887
26549SOL     OW82025  10.799   8.671   2.654  0.5214 -0.4836 -0.1114
26549SOL    HW182026  10.874   8.726   2.677 -1.0604  1.5466  0.4180
26549SOL    HW282027  10.830   8.581   2.668  1.5650  0.3441  4.3298
26550SOL     OW82028   2.323  10.752   7.391  0.3332  0.0867 -0.4020
26550SOL    HW182029   2.342  10.835   7.347 -1.5334  0.8791  0.1809
26550SOL    HW282030   2.254  10.712   7.339 -2.7205  1.5506  2.1568
26551SOL     OW82031   7.850   0.478   3.857 -0.1554 -0.1940  0.1533
26551SOL    HW182032   7.782   0.463   3.791  1.2463 -1.2345 -1.1103
26551SOL    HW282033   7.925   0.509   3.807 -0.0902  2.4564  1.6826
26552SOL     OW82034   5.809   9.465   7.713 -0.2477  0.4548 -0.0728
26552SOL    HW182035   5.861   9.446   7.791  0.1095  1.1860 -0.1151
26552SOL    HW282036   5.868   9.517   7.658 -0.1889 -0.7698 -1.2205
26553SOL     OW82037   9.944   2.533   2.531  0.6737 -0.3040 -0.6094
26553SOL    HW182038   9.889   2.598   2.486  0.2292  1.6732  2.5389
26553SOL    HW282039  10.025   2.531   2.479 -0.4326  0.4740 -2.4941
26554SOL     OW82040   9.158   7.295   7.320  0.6341 -0.0142 -0.2592
26554SOL    HW182041   9.216   7.343   7.378 -0.1179 -0.7073  1.1146
26554SOL    HW282042   9.090   7.261   7.377 -0.3363 -0.4290 -1.6141
26555SOL     OW82043   6.183   0.564   8.798  0.2793  0.0622  0.0527
26555SOL    HW182044   6.118   0.623   8.759  0.9912  1.0366  0.2806
26555SOL    HW282045   6.166   0.479   8.759 -0.6984  0.4530 -0.3912
26556SOL     OW82046   9.166   7.836   8.935  0.2250 -0.1829 -0.3452
26556SOL    HW182047   9.141   7.845   9.027 -0.2102  0.7522 -0.5430
26556SOL    HW282048   9.216   7.754   8.932  2.2821  0.9292  1.1427
26557SOL     OW82049   2.608   3.332   1.242 -0.5557 -0.1916  0.1228
26557SOL    HW182050   2.557   3.314   1.163  0.6716  0.6278 -0.9226
26557SOL    HW282051   2.628   3.246   1.278  0.1281 -0.6922 -1.3495
26558SOL     OW82052   8.960  10.279  10.139  0.5875 -0.4256 -0.2762
26558SOL    HW182053   9.025  10.243  10.080  0.6452 -0.1230 -0.4025
26558SOL    HW282054   8.933  10.206  10.194  2.4253 -0.1666  1.0707
26559SOL     OW82055   5.032   7.073   5.149 -0.2052 -0.0089 -0.1890
26559SOL    HW182056   4.962   7.045   5.209 -0.1355 -2.6047 -1.1729
26559SOL    HW282057   5.068   6.991   5.115  2.2042  1.2999 -1.0226
26560SOL     OW82058   9.377   7.583   5.566 -0.0798  0.4535  0.7847
26560SOL    HW182059   9.427   7.509   5.599 -0.1207  0.0166 -0.1036
26560SOL    HW282060   9.419   7.660   5.606 -0.9332 -0.0990  2.8349
26561SOL     OW82061   2.066   3.233   7.124  0.7741  0.2432  0.5376
26561SOL    HW182062   1.972   3.219   7.123  0.9003 -0.6733  0.0003
26561SOL    HW282063   2.087   3.270   7.039  1.0872 -1.0988 -0.0059
26562SOL     OW82064   3.609   1.344   8.272  0.1529  0.1865 -0.5751
26562SOL    HW182065   3.548   1.289   8.222 -0.8322  1.4564 -0.8154
26562SOL    HW282066   3.586   1.329   8.363  0.9881 -1.0230 -0.5347
26563SOL     OW82067   7.335   3.843   5.953  0.4794  0.5393 -0.0850
26563SOL    HW182068   7.264   3.906   5.961  0.2218  0.5171 -1.7980
26563SOL    HW282069   7.390   3.877   5.882 -0.6033 -1.9074 -2.2949
26564SOL     OW82070   6.795   9.765   3.604 -0.3765 -1.0344  0.0190
26564SOL    HW182071   6.748   9.745   3.523  0.4213 -0.4508 -0.6111
26564SOL    HW282072   6.809   9.860   3.601 -1.6484 -0.7625  1.5853
26565SOL     OW82073   5.365   2.306   0.217 -0.0559 -0.3384 -0.5344
26565SOL    HW182074   5.443   2.250   0.222  0.3798  0.2590 -0.6153
26565SOL    HW282075   5.394   2.384   0.169 -0.9229 -0.4786 -1.3244
26566SOL     OW82076   6.243   3.218   5.414 -0.0436 -0.2167  0.1494
26566SOL    HW182077   6.227   3.312   5.422  0.4458 -0.2023  1.1016
26566SOL    HW282078   6.272   3.191   5.501 -0.2401 -1.2658 -0.0953
26567SOL     OW82079   5.962   9.483   4.504 -0.0383  0.9234 -0.3364
26567SOL    HW182080   6.041   9.446   4.464 -0.3045 -0.2117  0.1495
26567SOL    HW282081   5.925   9.540   4.437  0.9911  1.1685 -0.7028
26568SOL     OW82082   7.322   4.982   2.078  0.1087 -0.2013  0.2983
26568SOL    HW182083   7.365   5.066   2.091 -1.9116  1.1560 -1.1764
26568SOL    HW282084   7.353   4.952   1.992  2.7515 -2.3092  1.8322
26569SOL     OW82085   8.423   7.786   3.185  0.3540  0.3587  0.3902
26569SOL    HW182086   8.377   7.708   3.217 -0.6637  1.2440  1.1952
26569SOL    HW282087   8.365   7.858   3.209  0.0809  1.2170 -2.4793
26570SOL     OW82088   1.135   8.819   1.669 -0.3064  0.3240  0.0130
26570SOL    HW182089   1.191   8.743   1.653 -0.2948  0.7417 -2.3074
26570SOL    HW282090   1.073   8.818   1.596 -1.2690  1.7018  0.7711
26571SOL     OW82091   7.990   5.092   7.725  0.9300 -0.1032  0.0611
26571SOL    HW182092   7.942   5.070   7.645 -1.2091  1.3490  0.8709
26571SOL    HW282093   7.930   5.072   7.796  2.2323  0.0439  1.2492
26572SOL     OW82094   5.508   2.401   2.654  0.0971 -0.6397  0.0274
26572SOL    HW182095   5.565   2.393   2.730  0.8153 -1.9849 -0.5985
26572SOL    HW282096   5.529   2.486   2.616  0.7555 -0.5670  0.5418
26573SOL     OW82097   3.640   1.642   9.672  0.2381  0.2439 -0.3272
26573SOL    HW182098   3.602   1.565   9.630 -0.0807 -0.2916  0.8859
26573SOL    HW282099   3.670   1.610   9.757  0.6164  1.3418 -0.0342
26574SOL     OW82100   4.927   4.507   8.527 -0.4784  0.9485 -0.1201
26574SOL    HW182101   4.899   4.595   8.552 -0.3604  1.0779 -0.4359
26574SOL    HW282102   4.905   4.452   8.602 -0.0035  1.3529  0.3230
26575SOL     OW82103   5.772   1.480   8.382  0.2470 -0.0415 -0.6558
26575SOL    HW182104   5.725   1.540   8.439  1.1640  0.2589 -0.1995
26575SOL    HW282105   5.704   1.440   8.328 -0.7828 -1.0746  1.2895
26576SOL     OW82106  10.209   0.770   4.637 -0.0531 -0.0451 -0.0816
26576SOL    HW182107  10.212   0.711   4.713  0.3846 -0.2116 -0.2267
26576SOL    HW282108  10.207   0.711   4.562 -0.1166  0.1246 -0.2115
26577SOL     OW82109   6.585   2.293   7.694 -0.7402 -0.3017 -0.1805
26577SOL    HW182110   6.635   2.230   7.746  0.3631  0.0490 -0.7696
26577SOL    HW282111   6.652   2.342   7.646 -1.5880  1.1436  0.0672
26578SOL     OW82112   2.250  10.192  10.655  0.3034 -0.6522  0.0412
26578SOL    HW182113   2.205  10.163  10.576 -0.3770  0.6001 -0.0605
26578SOL    HW282114   2.322  10.246  10.624 -0.4534  0.5285  0.2557
26579SOL     OW82115   6.217   9.425   3.958 -0.3110 -0.0638  0.4877
26579SOL    HW182116   6.205   9.369   3.881 -0.6568  2.1735 -1.1967
26579SOL    HW282117   6.288   9.384   4.007 -1.4113 -2.6580  0.0668
26580SOL     OW82118   2.903   0.865   8.827  0.2570 -0.1681  0.2549
26580SOL    HW182119   2.926   0.958   8.832  0.0123 -0.0610 -0.4869
26580SOL    HW282120   2.930   0.839   8.739  1.3683 -1.0908  0.8497
26581SOL     OW82121   7.064   2.481   5.895  0.1634  0.0649 -0.7881
26581SOL    HW182122   7.159   2.470   5.891  0.1228 -1.2383  0.7344
26581SOL    HW282123   7.036   2.477   5.804  1.5389  0.2024 -1.2483
26582SOL     OW82124   0.297   6.760   5.481 -0.3887 -0.0087  0.0450
26582SOL    HW182125   0.227   6.784   5.420 -1.6524  1.1916  1.8682
26582SOL    HW282126   0.370   6.816   5.456 -0.5919 -0.1370 -0.8902
26583SOL     OW82127   8.578   5.188   8.353 -0.0634  0.3373  0.2922
26583SOL    HW182128   8.653   5.205   8.410  0.7194  0.1326 -0.6507
26583SOL    HW282129   8.590   5.248   8.280  0.1733 -0.9328 -0.7514
26584SOL     OW82130   8.042   9.219   5.305  0.4361 -0.2645 -0.0085
26584SOL    HW182131   8.030   9.225   5.400 -0.7915 -0.4679 -0.1410
26584SOL    HW282132   8.111   9.282   5.286  1.4895 -1.0172  1.1577
26585SOL     OW82133   8.404   5.520   6.224  0.4601 -0.0544 -0.2019
26585SOL    HW182134   8.421   5.428   6.241 -1.4844 -0.3857  0.0646
26585SOL    HW282135   8.315   5.536   6.256  0.4761  1.7384 -0.8993
26586SOL     OW82136   2.190   3.250   0.693  0.0352  0.1123  0.1151
26586SOL    HW182137   2.169   3.261   0.600 -1.4604  0.2584  0.4359
26586SOL    HW282138   2.282   3.274   0.700  0.2882 -0.2917 -1.3966
26587SOL     OW82139   4.566   4.514   5.829  0.6983  0.8420  0.3776
26587SOL    HW182140   4.653   4.474   5.834  0.7103  0.9506  1.1951
26587SOL    HW282141   4.539   4.524   5.921 -0.4176  0.3068  0.1179
26588SOL     OW82142   6.736   9.066   5.082 -0.1665 -0.4138  0.2347
26588SOL    HW182143   6.813   9.057   5.138  0.6308  0.0448 -0.7506
26588SOL    HW282144   6.701   8.977   5.075 -0.0851 -0.5315  1.1660
26589SOL     OW82145   0.590   2.559  10.379  0.5039 -0.0298  0.0060
26589SOL    HW182146   0.653   2.590  10.314 -0.0911  2.4246  0.4971
26589SOL    HW282147   0.639   2.559  10.461  1.1937 -2.9258 -0.2857
26590SOL     OW82148   3.824   5.453   8.654  0.1760  0.7714 -0.0604
26590SOL    HW182149   3.881   5.410   8.590  1.4308 -0.4928  1.8021
26590SOL    HW282150   3.808   5.386   8.720 -1.2187  1.9817  0.8860
26591SOL     OW82151   9.921   0.877   8.352  0.1058 -0.6970  0.2357
26591SOL    HW182152   9.890   0.790   8.328  0.8442 -1.6424  2.4389
26591SOL    HW282153   9.975   0.905   8.278 -1.6494 -1.2717 -1.3181
26592SOL     OW82154   0.605   9.663   4.697  0.7181 -0.9529 -0.2744
26592SOL    HW182155   0.534   9.599   4.699  0.8542 -1.1086  1.5009
26592SOL    HW282156   0.605   9.702   4.784  1.8355  0.1514 -0.7262
26593SOL     OW82157   6.821   3.866   9.594  0.0652 -0.0193  0.3597
26593SOL    HW182158   6.910   3.858   9.629 -0.3456  1.1074  1.7890
26593SOL    HW282159   6.831   3.915   9.512  0.7942 -0.1347  0.3764
26594SOL     OW82160   4.722   2.237   3.800  0.1869  0.5445  0.1858
26594SOL    HW182161   4.664   2.309   3.825 -2.9921 -0.8837 -2.2922
26594SOL    HW282162   4.776   2.274   3.730 -2.8327  0.2848 -2.5510
26595SOL     OW82163   5.377   4.623   5.155 -0.9575  0.0305 -0.3865
26595SOL    HW182164   5.360   4.653   5.244 -0.1060 -0.6785  0.0253
26595SOL    HW282165   5.413   4.699   5.110  0.2069 -0.0616  0.3567
26596SOL     OW82166   0.515   0.105   2.960 -0.5772  0.0410 -0.1338
26596SOL    HW182167   0.464   0.125   2.882 -0.5973 -0.6267 -0.2977
26596SOL    HW282168   0.562   0.024   2.939 -1.5861 -0.8883  1.0053
26597SOL     OW82169  10.476   6.083   7.076  0.3284  0.3230 -0.6599
26597SOL    HW182170  10.449   6.077   6.985 -0.4337 -0.3775 -0.3966
26597SOL    HW282171  10.434   6.009   7.119  1.8661 -0.2305 -0.0155
26598SOL     OW82172   5.510   5.695   4.790 -0.7230 -0.3767  0.2945
26598SOL    HW182173   5.600   5.712   4.761 -0.9165 -0.2192 -0.2322
26598SOL    HW282174   5.459   5.766   4.752 -0.7746  0.7251  2.2804
26599SOL     OW82175   0.354   8.965   9.023 -0.1014 -0.6805  0.3012
26599SOL    HW182176   0.270   8.939   8.985 -0.2794  2.8078 -2.2365
26599SOL    HW282177   0.420   8.924   8.968 -0.0439 -2.5534  1.6529
26600SOL     OW82178   6.202   4.269   1.287  0.6002  0.4331 -0.3791
26600SOL    HW182179   6.171   4.278   1.377  0.1115 -1.7247 -0.2837
26600SOL    HW282180   6.127   4.235   1.239  0.2584  3.2552 -2.0835
26601SOL     OW82181   8.558   3.611  10.274  0.1083  0.1676 -0.2889
26601SOL    HW182182   8.610   3.542  10.231  1.0834  0.0314  1.0505
26601SOL    HW282183   8.524   3.570  10.353 -2.4073  0.1484 -1.2749
26602SOL     OW82184   2.236   2.867   7.109  0.4282  0.7862  0.0158
26602SOL    HW182185   2.320   2.896   7.145  0.0227  0.3644  1.3503
26602SOL    HW282186   2.247   2.773   7.094 -0.3270  0.3579  1.8523
26603SOL     OW82187   2.792   3.550   4.964  0.1104 -0.0691 -0.4359
26603SOL    HW182188   2.722   3.493   4.994 -0.0241  0.9402  1.3077
26603SOL    HW282189   2.861   3.540   5.029  0.8908  0.2470 -1.1898
26604SOL     OW82190   6.561   8.932   4.799  0.3727 -0.2120  0.3159
26604SOL    HW182191   6.574   9.018   4.840  1.0035 -0.4054  0.5354
26604SOL    HW282192   6.649   8.895   4.794  0.2181 -0.4731 -0.6207
26605SOL     OW82193   4.434   8.823   0.037  0.0729 -0.1025  0.1656
26605SOL    HW182194   4.470   8.850  -0.048 -0.2300 -0.6068 -0.1269
26605SOL    HW282195   4.342   8.849   0.034 -0.5249 -2.1281 -0.5733
26606SOL     OW82196   5.757   9.800   8.467  0.1912 -0.0409  0.2552
26606SOL    HW182197   5.742   9.714   8.428  1.4142 -1.3026  2.3632
26606SOL    HW282198   5.670   9.831   8.489 -0.6094  0.8790 -3.4971
26607SOL     OW82199   2.891   4.173  10.361  0.1126 -0.1452 -0.0592
26607SOL    HW182200   2.899   4.117  10.439  2.1442 -0.7785 -0.6537
26607SOL    HW282201   2.925   4.120  10.289 -0.9470  0.7298 -1.2553
26608SOL     OW82202   4.903   9.787   8.324 -0.0393  0.2839 -0.0098
26608SOL    HW182203   4.877   9.861   8.378  1.0317  0.6511  0.0267
26608SOL    HW282204   4.944   9.826   8.247 -1.2346 -0.2380 -0.9483
26609SOL     OW82205   7.784   9.601   2.715 -0.3733 -0.4377 -0.6038
26609SOL    HW182206   7.879   9.616   2.721 -0.3128  0.2824 -2.7428
26609SOL    HW282207   7.777   9.514   2.674 -0.6952 -1.3038  1.1769
26610SOL     OW82208   6.695   4.809   9.173 -0.1379 -0.5774 -0.0411
26610SOL    HW182209   6.764   4.875   9.166  1.8240 -2.3717  0.9662
26610SOL    HW282210   6.644   4.835   9.250 -0.7350  0.8736 -0.9022
26611SOL     OW82211   2.518   2.633   9.051  0.3059  0.2998  0.1371
26611SOL    HW182212   2.449   2.688   9.013 -0.9614 -1.3635 -0.1088
26611SOL    HW282213   2.510   2.648   9.145  1.3304  2.0230 -0.0139
26612SOL     OW82214   2.725   9.121   6.368 -0.1350 -0.2346 -0.0024
26612SOL    HW182215   2.667   9.082   6.434 -0.4919  2.2998  1.3011
26612SOL    HW282216   2.797   9.158   6.419 -0.1141  1.2815 -1.0642
26613SOL     OW82217   2.960   3.695   8.400 -0.3091 -0.1422  0.6774
26613SOL    HW182218   2.890   3.633   8.381 -0.3226  0.3318 -1.0085
26613SOL    HW282219   2.934   3.776   8.355  0.5346  0.5489  1.3856
26614SOL     OW82220   7.567   6.206   5.220 -0.1689  0.3088  0.2523
26614SOL    HW182221   7.606   6.168   5.142  3.3419  0.7515  1.6164
26614SOL    HW282222   7.475   6.218   5.197 -0.1270 -2.9581 -2.4579
26615SOL     OW82223   1.736   1.353   4.469  0.7169  0.2934  0.1633
26615SOL    HW182224   1.713   1.264   4.497 -1.9842  1.2435  1.2483
26615SOL    HW282225   1.704   1.359   4.379  1.8646 -0.1120 -0.2971
26616SOL     OW82226   5.906   1.976   8.379  0.2132 -0.2241 -0.1702
26616SOL    HW182227   5.858   1.920   8.319 -1.2583 -2.0208  2.4887
26616SOL    HW282228   5.978   1.921   8.410  1.3761  0.9217 -0.7315
26617SOL     OW82229   1.166   3.051   7.160 -0.8486  0.4549  0.2376
26617SOL    HW182230   1.163   3.001   7.242 -0.0124 -0.7747 -0.4582
26617SOL    HW282231   1.258   3.053   7.136 -1.2851 -1.3053 -1.9034
26618SOL     OW82232   9.804   4.356  10.097  0.5115 -0.0322  0.3626
26618SOL    HW182233   9.801   4.438  10.147 -1.6945  0.8748 -1.1038
26618SOL    HW282234   9.894   4.352  10.065  0.0549  3.5108 -1.9875
26619SOL     OW82235   5.764   4.263   3.771  0.3372  0.2114  0.2190
26619SOL    HW182236   5.682   4.310   3.755  0.0091 -0.4770 -0.1440
26619SOL    HW282237   5.799   4.303   3.851  0.2444  1.3109 -0.2735
26620SOL     OW82238   7.939   8.645   3.410 -0.3759  0.5088  0.4140
26620SOL    HW182239   7.986   8.625   3.491 -0.6285  1.9230  0.9385
26620SOL    HW282240   7.993   8.608   3.340 -0.1524 -0.7162  1.2192
26621SOL     OW82241   2.150  10.545   3.145 -0.4144  0.2344  0.1113
26621SOL    HW182242   2.238  10.532   3.181 -0.4736  0.6990  0.4402
26621SOL    HW282243   2.140  10.476   3.080 -0.3249 -0.6484  1.0259
26622SOL     OW82244   0.137   5.155   9.761  0.3269  0.2485  0.3485
26622SOL    HW182245   0.185   5.186   9.837  0.3126 -0.9235  0.8562
26622SOL    HW282246   0.129   5.061   9.774  0.2316  0.0304 -1.0480
26623SOL     OW82247   3.157   5.625   6.200  0.2538 -0.0684  0.0392
26623SOL    HW182248   3.132   5.542   6.240  0.5378  0.1321  0.6561
26623SOL    HW282249   3.170   5.605   6.108 -0.0146 -0.6334  0.1194
26624SOL     OW82250   7.204  10.224   6.362 -0.0179 -0.2467 -0.4718
26624SOL    HW182251   7.146  10.148   6.371  1.5766 -1.5316 -0.5905
26624SOL    HW282252   7.173  10.286   6.428 -1.8770 -0.6416 -0.9324
26625SOL     OW82253   1.959   9.423  10.475  0.1830  0.7184  0.2864
26625SOL    HW182254   1.937   9.482  10.547  1.1109 -1.6996  2.7554
26625SOL    HW282255   1.888   9.359  10.474  1.0805 -0.3117  0.3023
26626SOL     OW82256  10.139   6.695   2.228  0.2333  0.0001  0.1153
26626SOL    HW182257  10.230   6.695   2.200 -0.1344  1.2850 -1.1721
26626SOL    HW282258  10.090   6.727   2.153 -1.5724 -2.7165 -0.0143
26627SOL     OW82259   0.923   9.869   6.131  0.2396 -0.2874 -0.1449
26627SOL    HW182260   1.010   9.829   6.136  1.4382  1.8693 -2.0531
26627SOL    HW282261   0.899   9.862   6.039  0.4612  3.0654 -0.5830
26628SOL     OW82262  10.592   9.414   3.880  0.1220 -0.2005  0.8639
26628SOL    HW182263  10.674   9.457   3.905  0.2190  1.2269 -1.5893
26628SOL    HW282264  10.594   9.414   3.784 -2.3810 -0.8904  0.7624
26629SOL     OW82265   0.701   8.112   5.243 -0.4164  0.9117 -0.0329
26629SOL    HW182266   0.632   8.052   5.271 -1.3919  0.7965 -2.4701
26629SOL    HW282267   0.773   8.055   5.215  0.0858  1.0101  0.9804
26630SOL     OW82268   4.794   9.179  10.407 -0.7488 -0.2127 -0.1609
26630SOL    HW182269   4.774   9.095  10.448  1.2117 -0.7859 -0.2897
26630SOL    HW282270   4.795   9.161  10.313  0.2192 -0.1794 -0.1616
26631SOL     OW82271   8.857   7.724   6.863  0.0107  0.2437 -0.1110
26631SOL    HW182272   8.801   7.793   6.827 -2.4502 -0.8303  1.4141
26631SOL    HW282273   8.867   7.746   6.955  1.6821  0.0873 -0.2254
26632SOL     OW82274   9.336   9.290   3.744 -0.2357  0.4270  0.9700
26632SOL    HW182275   9.366   9.371   3.703 -0.8848  0.3036  0.2217
26632SOL    HW282276   9.262   9.262   3.690 -0.8889  0.0674  2.0169
26633SOL     OW82277   6.463   2.205   6.368 -0.4053 -0.5339  0.0877
26633SOL    HW182278   6.505   2.249   6.442  0.5242 -1.1538 -0.0509
26633SOL    HW282279   6.487   2.113   6.378 -1.6516 -0.8947 -0.0749
26634SOL     OW82280  10.445   9.837   4.774  0.3364  0.4623  0.1015
26634SOL    HW182281  10.390   9.909   4.804 -0.2893  0.6565 -1.4310
26634SOL    HW282282  10.388   9.785   4.718  0.5708 -1.6309  1.6568
26635SOL     OW82283   9.330   1.244  10.030  0.3443 -0.0955 -0.1908
26635SOL    HW182284   9.304   1.161  10.071  2.6530 -1.5583 -1.4891
26635SOL    HW282285   9.337   1.305  10.103  0.7077 -1.6261  1.1074
26636SOL     OW82286   6.712   9.357  10.181 -0.2299  0.1608  0.2887
26636SOL    HW182287   6.801   9.324  10.165 -0.7102 -1.3751  0.6461
26636SOL    HW282288   6.673   9.361  10.094 -0.1671 -0.2600  0.2346
26637SOL     OW82289   6.200  10.409   1.283 -0.1695 -0.4745  0.5934
26637SOL    HW182290   6.191  10.504   1.287 -0.3720 -0.4907  0.5308
26637SOL    HW282291   6.294  10.394   1.277 -0.1711 -0.2498 -0.1321
26638SOL     OW82292  10.086   4.346   9.661 -0.1631 -0.3900 -1.0453
26638SOL    HW182293   9.999   4.311   9.643 -0.8623  0.8396 -0.2263
26638SOL    HW282294  10.141   4.313   9.589 -0.7717 -2.9515 -0.4232
26639SOL     OW82295   7.202   0.739   9.463  0.2935  0.1652  0.2009
26639SOL    HW182296   7.156   0.731   9.547  1.7402 -1.7846  0.8885
26639SOL    HW282297   7.135   0.719   9.397 -1.0931  2.6303  0.7679
26640SOL     OW82298   8.563   0.630   7.362  0.4587  0.6197 -0.1351
26640SOL    HW182299   8.607   0.645   7.279 -1.0789 -1.7440 -1.4940
26640SOL    HW282300   8.623   0.574   7.411  0.1276 -0.4460 -0.9127
26641SOL     OW82301   8.498   9.166   7.538  0.3088 -0.5490 -0.0056
26641SOL    HW182302   8.573   9.156   7.480  0.0399 -2.4164 -0.0915
26641SOL    HW282303   8.528   9.134   7.623 -0.4282 -1.5325 -0.0951
26642SOL     OW82304   2.932  10.581   0.574 -0.2557 -0.1391  0.3646
26642SOL    HW182305   2.882  10.500   0.561 -0.1033 -0.4563  1.6885
26642SOL    HW282306   2.874  10.650   0.542  0.6033 -0.8870 -3.4033
26643SOL     OW82307   6.039   5.841   1.094  0.0765 -0.2482 -0.0660
26643SOL    HW182308   6.117   5.798   1.060  1.4604  1.6487  0.4984
26643SOL    HW282309   5.976   5.838   1.022  1.5318  0.2513 -1.4228
26644SOL     OW82310   6.293   1.914   8.032 -0.3229 -0.5933  0.1839
26644SOL    HW182311   6.284   1.895   8.126 -0.9893  1.0273  0.4914
26644SOL    HW282312   6.248   1.998   8.021 -1.1569 -1.2437 -1.7899
26645SOL     OW82313   9.360   9.053   1.326 -0.3007 -0.7206  0.1759
26645SOL    HW182314   9.278   9.079   1.368 -0.0675  0.2524  0.0639
26645SOL    HW282315   9.354   8.958   1.317 -2.5128 -0.4699 -2.1028
26646SOL     OW82316   8.846  10.502   3.241 -0.0749 -0.6012  0.0711
26646SOL    HW182317   8.778  10.444   3.274  0.1937 -0.4824  0.8397
26646SOL    HW282318   8.851  10.573   3.305  0.1581 -0.1491 -0.4422
26647SOL     OW82319   6.874   4.769   7.864  0.2653  0.0615 -0.4073
26647SOL    HW182320   6.832   4.785   7.948  1.0263 -1.3447  0.2762
26647SOL    HW282321   6.959   4.813   7.870  1.9657 -3.0373  1.1219
26648SOL     OW82322   8.705  10.555   2.783 -0.3728  0.5665  0.2178
26648SOL    HW182323   8.647  10.485   2.752  1.4106  0.4023 -3.2133
26648SOL    HW282324   8.762  10.513   2.847 -1.9679  0.0042  1.3481
26649SOL     OW82325   6.795   3.709   5.884 -0.0394  0.1894 -1.1361
26649SOL    HW182326   6.775   3.681   5.973  0.3217  1.6369 -0.5765
26649SOL    HW282327   6.823   3.629   5.839  0.8737 -0.3628  0.3655
26650SOL     OW82328   9.905   1.984   7.277  0.4916 -0.3829 -0.0946
26650SOL    HW182329   9.811   1.995   7.293 -0.3417  0.4203 -4.3115
26650SOL    HW282330   9.914   1.894   7.246  1.1322 -0.4643  0.3115
26651SOL     OW82331   6.603   4.538   5.713  0.2735 -0.2237  0.6247
26651SOL    HW182332   6.585   4.479   5.641  1.3894  0.8129 -0.5665
26651SOL    HW282333   6.517   4.561   5.749 -0.4471  0.4519 -1.4001
26652SOL     OW82334   5.509  10.644   1.984  0.2561 -0.1854 -0.0457
26652SOL    HW182335   5.440  10.703   2.016 -0.4913 -0.7293 -0.6149
26652SOL    HW282336   5.489  10.560   2.026 -0.7160 -0.9039 -1.8323
26653SOL     OW82337  10.299   8.758  10.081 -0.5413  0.3695 -0.1827
26653SOL    HW182338  10.373   8.698  10.090 -0.6855  0.1402 -0.5156
26653SOL    HW282339  10.294   8.803  10.165 -0.5837 -0.2578  0.1540
26654SOL     OW82340   0.627   4.549   0.783  0.3823  0.0070  0.3565
26654SOL    HW182341   0.583   4.628   0.752 -0.3706 -0.9565 -1.0958
26654SOL    HW282342   0.671   4.514   0.706  1.6526 -0.4137  1.2365
26655SOL     OW82343   4.013   2.160   3.483  0.0430 -0.3422 -0.3893
26655SOL    HW182344   3.938   2.130   3.431 -0.2228 -0.1923 -0.1004
26655SOL    HW282345   3.973   2.200   3.560  0.4220 -0.0922 -0.3239
26656SOL     OW82346   2.400   2.480   3.936 -0.3022 -0.1783 -0.2205
26656SOL    HW182347   2.355   2.402   3.903  2.5588 -1.4154 -1.6397
26656SOL    HW282348   2.485   2.479   3.891  0.7921  2.4779  1.5102
26657SOL     OW82349   8.682   1.607   7.155  0.1293  1.0716 -0.0454
26657SOL    HW182350   8.693   1.515   7.181  0.5551  1.2035  0.2426
26657SOL    HW282351   8.611   1.605   7.090 -1.7441  0.8698  1.9062
26658SOL     OW82352   3.668   2.259  10.457  0.4806  0.0976 -0.6175
26658SOL    HW182353   3.606   2.314  10.506  0.1632 -1.0267  0.2751
26658SOL    HW282354   3.752   2.274  10.500  0.4970  0.2978 -0.7197
26659SOL     OW82355   3.671   7.911   2.255  0.1623  0.0128 -0.0633
26659SOL    HW182356   3.754   7.864   2.261 -0.1763 -0.6058 -0.2423
26659SOL    HW282357   3.620   7.863   2.190 -0.8877 -0.4557  1.0621
26660SOL     OW82358   6.807   9.347   8.754  0.4567 -0.2311 -0.6140
26660SOL    HW182359   6.731   9.300   8.790 -0.4679 -0.1651 -2.3518
26660SOL    HW282360   6.817   9.312   8.666  1.4682  0.8908 -0.9721
26661SOL     OW82361   6.263   4.211   7.034 -0.1046  0.1125 -0.1211
26661SOL    HW182362   6.168   4.211   7.021 -0.1055 -0.1358 -0.1217
26661SOL    HW282363   6.274   4.211   7.129 -0.1210 -1.6692 -0.0882
26662SOL     OW82364   6.085   9.853   2.129  0.1141  0.1599  0.1339
26662SOL    HW182365   6.081   9.763   2.160 -0.2962 -0.4922 -1.7031
26662SOL    HW282366   6.005   9.894   2.163 -0.9757 -0.8922 -1.0886
26663SOL     OW82367   8.815   7.091   7.301 -0.0671  0.5775 -0.6802
26663SOL    HW182368   8.872   7.138   7.241  0.3906  0.2129 -0.5370
26663SOL    HW282369   8.848   7.113   7.388 -1.3069  1.8566 -0.4987
26664SOL     OW82370   2.703   4.903  10.098 -0.1303 -0.0161  0.2076
26664SOL    HW182371   2.660   4.987  10.086  1.9577  0.9760 -0.7257
26664SOL    HW282372   2.712   4.893  10.193 -3.5745 -0.9729  0.5865
26665SOL     OW82373   2.010   8.042   7.180 -0.1500  0.3074  0.2052
26665SOL    HW182374   2.051   7.974   7.234 -0.8928 -1.1009 -0.9057
26665SOL    HW282375   2.037   8.021   7.090 -0.8038  1.1945 -0.2135
26666SOL     OW82376   9.752   6.644   2.090  0.0545  0.5717  0.6162
26666SOL    HW182377   9.750   6.579   2.021 -0.5710 -0.2203  1.3550
26666SOL    HW282378   9.779   6.725   2.047  0.7742 -0.1516 -0.3290
26667SOL     OW82379   5.700   3.430   3.341 -0.0781  0.3206  0.1557
26667SOL    HW182380   5.665   3.409   3.428 -0.6435  1.3894  0.2099
26667SOL    HW282381   5.645   3.381   3.280 -1.1073  1.2588  0.2953
26668SOL     OW82382   6.035   4.407   1.834  0.4166  0.0904  0.0803
26668SOL    HW182383   5.988   4.408   1.917  0.8796 -1.3100  0.3952
26668SOL    HW282384   6.015   4.321   1.797  1.7890 -0.0778 -0.3180
26669SOL     OW82385   8.581  10.478   7.338 -0.1645 -0.3813  0.5362
26669SOL    HW182386   8.535  10.440   7.263 -0.9865  1.3733  0.1158
26669SOL    HW282387   8.672  10.448   7.328 -0.5081 -1.1476 -0.4774
26670SOL     OW82388   7.935   0.701   4.221  0.3731 -0.5342  0.1002
26670SOL    HW182389   8.004   0.744   4.271  0.9731  1.6606 -2.3802
26670SOL    HW282390   7.856   0.752   4.240  0.5221  0.0605 -0.8185
26671SOL     OW82391   6.518   0.821   4.488  0.0945 -0.6976 -0.4100
26671SOL    HW182392   6.508   0.776   4.571  1.3406 -0.2452  0.0208
26671SOL    HW282393   6.516   0.914   4.511 -0.2434 -0.5578 -0.9831
26672SOL     OW82394   0.080   3.199  10.753  0.1140  0.4038 -0.1846
26672SOL    HW182395   0.034   3.117  10.768  2.6469 -1.5533 -2.0768
26672SOL    HW282396   0.022   3.249  10.696 -1.5108  0.0068  1.0591
26673SOL     OW82397  10.460   0.942   3.131  0.1182 -0.1264 -0.0456
26673SOL    HW182398  10.374   0.949   3.092 -0.1187  0.1372  0.5077
26673SOL    HW282399  10.477   0.848   3.137  1.2261 -0.2150 -3.0458
26674SOL     OW82400   6.943   0.425   6.525  0.1158  0.3296 -0.3233
26674SOL    HW182401   7.022   0.479   6.518 -0.5382  1.2860 -0.5201
26674SOL    HW282402   6.874   0.487   6.548 -0.3272 -0.7065  1.2924
26675SOL     OW82403   3.296  10.105   3.411  0.1337  0.0067  0.4101
26675SOL    HW182404   3.375  10.155   3.390  0.7322 -0.7439  0.8491
26675SOL    HW282405   3.296  10.100   3.507 -2.0541  2.5660  0.6729
26676SOL     OW82406   9.921   7.948   1.560 -0.0217 -0.4912  0.2177
26676SOL    HW182407   9.987   8.011   1.586  0.6708 -1.2658  0.3929
26676SOL    HW282408   9.895   7.904   1.641 -0.4945 -0.4367  0.1013
26677SOL     OW82409   8.356   9.223   6.119 -0.4585 -0.0313 -0.1527
26677SOL    HW182410   8.287   9.289   6.117  0.5412  1.1710  2.0848
26677SOL    HW282411   8.437   9.273   6.103  0.3574 -0.5524  1.9873
26678SOL     OW82412   5.092  10.510   8.936 -0.0314  0.5315 -0.4682
26678SOL    HW182413   5.117  10.547   8.851  0.6890 -0.3301 -0.6425
26678SOL    HW282414   5.024  10.569   8.969  1.4539  2.3084 -0.4735
26679SOL     OW82415  10.493  10.322   8.664  0.3835  0.3175 -0.1353
26679SOL    HW182416  10.522  10.231   8.658 -1.8209 -0.5986  1.3938
26679SOL    HW282417  10.467  10.332   8.756 -2.2199  1.4960 -0.8980
26680SOL     OW82418   6.085   5.564   8.757 -0.5516  0.7098 -0.4009
26680SOL    HW182419   6.030   5.487   8.771  0.2849 -0.2410 -2.0952
26680SOL    HW282420   6.026   5.638   8.770 -1.4336 -0.2003  1.0054
26681SOL     OW82421   4.627  10.664   8.786 -0.2363 -0.7231 -0.5373
26681SOL    HW182422   4.532  10.674   8.798 -0.2222 -0.2852 -0.7411
26681SOL    HW282423   4.655  10.750   8.752  0.2626 -0.7868 -0.2857
26682SOL     OW82424  10.101   6.735   7.939  0.0924  0.2353 -0.2659
26682SOL    HW182425  10.088   6.819   7.983 -0.2894  0.4395 -0.7627
26682SOL    HW282426  10.069   6.669   8.001  0.7080  0.4244  0.2654
26683SOL     OW82427   6.391   6.605   4.116 -0.2701  0.0889 -0.6030
26683SOL    HW182428   6.485   6.621   4.111  0.0689 -1.4411  0.3782
26683SOL    HW282429   6.357   6.640   4.034  0.8715  2.3112 -0.1959
26684SOL     OW82430   4.104   4.089   6.028 -0.4274 -0.2103 -0.1297
26684SOL    HW182431   4.120   4.161   5.966  0.0779 -0.7320 -0.6203
26684SOL    HW282432   4.094   4.011   5.972 -1.6225 -0.4286  0.3523
26685SOL     OW82433  10.276   2.960   3.743 -0.1487  0.2985  0.1802
26685SOL    HW182434  10.205   2.901   3.716 -0.1901  0.4082  0.0501
26685SOL    HW282435  10.246   3.047   3.718 -0.6761  0.5365  1.5830
26686SOL     OW82436   6.234   8.054   4.807  0.1142  0.4738  0.3370
26686SOL    HW182437   6.215   8.068   4.714 -1.6143 -1.6350  0.2956
26686SOL    HW282438   6.288   7.975   4.809  0.3354  0.6328  1.1224
26687SOL     OW82439   1.680   7.239   4.820  0.3775  0.2926 -1.0209
26687SOL    HW182440   1.683   7.271   4.730  0.4543 -2.2578 -1.9782
26687SOL    HW282441   1.602   7.183   4.823  0.4901  0.1828  0.4637
26688SOL     OW82442   6.125   2.243   2.139  0.7002  0.2717 -0.4684
26688SOL    HW182443   6.045   2.290   2.116 -0.6479 -1.5055  0.3014
26688SOL    HW282444   6.149   2.278   2.225 -2.4266 -2.7225  1.9312
26689SOL     OW82445   2.697   5.221   3.251  0.1158 -0.2550 -0.4563
26689SOL    HW182446   2.707   5.182   3.338  0.0124  0.6206 -0.0384
26689SOL    HW282447   2.785   5.254   3.230  0.0378 -0.0677 -0.4864
26690SOL     OW82448   6.235   1.258   9.263  0.0269  0.1562  0.9541
26690SOL    HW182449   6.274   1.200   9.197  1.8295  2.9514 -0.6186
26690SOL    HW282450   6.266   1.224   9.347  1.3181 -0.9508  0.0697
26691SOL     OW82451   1.664   2.170   2.266 -0.0623  0.6982 -0.2405
26691SOL    HW182452   1.755   2.195   2.276  0.0124  0.1016  0.6562
26691SOL    HW282453   1.666   2.094   2.207 -0.0955  1.3611 -1.1259
26692SOL     OW82454   7.743   5.749   6.832 -0.1222 -0.8573  0.3149
26692SOL    HW182455   7.779   5.707   6.910  0.6443 -0.3005  0.2758
26692SOL    HW282456   7.730   5.840   6.858 -0.2216 -0.7516 -0.0971
26693SOL     OW82457   7.056   8.572  10.163  0.1609  0.2324 -0.6037
26693SOL    HW182458   6.981   8.603  10.113 -0.0224 -0.8218 -1.0127
26693SOL    HW282459   7.023   8.564  10.253 -0.4360 -0.8661 -0.8996
26694SOL     OW82460   1.638   3.821   0.289  0.4626 -0.0440  0.2260
26694SOL    HW182461   1.619   3.753   0.355  0.9575 -1.3185 -0.8980
26694SOL    HW282462   1.556   3.829   0.240  0.7284 -0.6420 -0.3319
26695SOL     OW82463   2.883   8.353   6.137  0.0327  0.5289 -0.1448
26695SOL    HW182464   2.866   8.287   6.203 -0.3831 -0.7642 -1.5008
26695SOL    HW282465   2.797   8.373   6.099 -0.2418  3.5367  1.6963
26696SOL     OW82466   4.234   8.624   9.483 -0.0438 -0.2899 -0.1562
26696SOL    HW182467   4.309   8.678   9.507 -0.3374  0.0360  0.0331
26696SOL    HW282468   4.238   8.550   9.545  0.3119 -0.4515 -0.3663
26697SOL     OW82469   7.129  10.404   9.443  0.0085  0.1236  0.4306
26697SOL    HW182470   7.192  10.432   9.510 -0.3755  1.2319  0.3330
26697SOL    HW282471   7.184  10.378   9.369  0.4015 -0.2806  0.8526
26698SOL     OW82472   5.664   7.081   0.130  0.3541 -0.3086 -0.1614
26698SOL    HW182473   5.615   7.155   0.094  1.3376 -0.2604 -1.4549
26698SOL    HW282474   5.636   7.076   0.221  1.4847  2.7466  0.4587
26699SOL     OW82475   0.472   9.546   4.195 -0.3687 -0.4163  1.1344
26699SOL    HW182476   0.399   9.500   4.236 -1.4399  0.9924  0.8562
26699SOL    HW282477   0.488   9.621   4.251  1.2609 -0.9841  1.4901
26700SOL     OW82478   3.057   7.874   6.490 -0.0278  0.1285 -0.1046
26700SOL    HW182479   2.984   7.894   6.549  1.4654 -0.4937  2.0744
26700SOL    HW282480   3.068   7.779   6.495 -0.8215 -0.1828 -2.6844
26701SOL     OW82481   3.475   2.104   6.697 -0.2752  0.1200  1.0192
26701SOL    HW182482   3.412   2.170   6.671  1.6685  1.6942  0.0179
26701SOL    HW282483   3.523   2.143   6.770 -1.0235 -1.4411  2.4304
26702SOL     OW82484   2.365   6.732   9.521  0.0717 -0.8827 -0.4011
26702SOL    HW182485   2.287   6.769   9.562  0.8806 -0.3232  0.6746
26702SOL    HW282486   2.337   6.712   9.432 -0.8435  0.8530 -0.5522
26703SOL     OW82487   4.342   3.054   1.828  0.7917 -0.2381 -0.2862
26703SOL    HW182488   4.267   3.104   1.859  0.6539 -0.3867 -0.3828
26703SOL    HW282489   4.394   3.118   1.779  0.3961 -0.2887 -0.7820
26704SOL     OW82490   0.332  10.486   1.098 -0.2515 -0.3010  0.4944
26704SOL    HW182491   0.241  10.480   1.126  0.2591 -0.5267  2.2228
26704SOL    HW282492   0.338  10.428   1.022 -1.6492  0.1232  0.0355
26705SOL     OW82493   4.825   8.884   0.061 -0.2578 -0.3015 -0.7384
26705SOL    HW182494   4.840   8.796   0.095  1.0187 -0.7852 -2.4061
26705SOL    HW282495   4.744   8.914   0.104 -1.7428 -2.9853 -1.4389
26706SOL     OW82496   5.844   0.467   4.934  0.3327 -0.0163  0.3029
26706SOL    HW182497   5.851   0.544   4.878  1.7323 -0.2850  0.0630
26706SOL    HW282498   5.799   0.402   4.880 -2.6552  1.1776  1.1730
26707SOL     OW82499  10.696   1.723   2.882  0.0438 -0.7080 -0.1916
26707SOL    HW182500  10.669   1.800   2.933  1.5045 -0.5860  0.4724
26707SOL    HW282501  10.635   1.654   2.907 -1.4344  0.2748 -0.9686
26708SOL     OW82502   5.409   7.066   6.804 -0.0148 -0.2663  0.0792
26708SOL    HW182503   5.417   7.038   6.895 -2.1422  1.0308  0.7519
26708SOL    HW282504   5.360   6.995   6.762 -1.4751  0.3485  0.6743
26709SOL     OW82505   9.420   2.655   5.991 -0.5724  0.4214  0.3606
26709SOL    HW182506   9.341   2.632   5.942  0.4897 -1.5203 -0.5861
26709SOL    HW282507   9.401   2.631   6.081 -0.5067 -1.7909 -0.1464
26710SOL     OW82508   6.499   9.845   0.041 -0.2709 -0.6390 -0.2074
26710SOL    HW182509   6.489   9.813   0.131  2.2059 -2.5245 -0.5021
26710SOL    HW282510   6.491   9.940   0.048 -2.8126 -0.8686  1.5251
26711SOL     OW82511   4.135  10.728   8.226 -0.3106  0.5945  0.1990
26711SOL    HW182512   4.042  10.703   8.218 -0.0790 -0.0968 -0.4989
26711SOL    HW282513   4.151  10.787   8.153 -0.3793  1.3410  0.7697
26712SOL     OW82514   5.737   9.782   7.665 -0.2461 -0.1761  0.1994
26712SOL    HW182515   5.677   9.843   7.710  0.4496  0.2785  0.5272
26712SOL    HW282516   5.781   9.735   7.736  1.4379  1.1014  0.0793
26713SOL     OW82517   5.670   7.386   3.791 -0.0500 -0.4843 -0.1452
26713SOL    HW182518   5.719   7.460   3.756  0.6076 -0.5987  0.5033
26713SOL    HW282519   5.696   7.311   3.738 -1.6486 -0.0484 -1.6054
26714SOL     OW82520   4.233   0.540   7.417 -0.7408 -0.5631 -0.3320
26714SOL    HW182521   4.251   0.486   7.494  0.1254  1.0154  0.6240
26714SOL    HW282522   4.264   0.627   7.441 -2.1925  0.4046 -1.7798
26715SOL     OW82523   9.354   9.773   9.757 -0.0884  0.0913 -0.4859
26715SOL    HW182524   9.397   9.846   9.712  0.4020 -0.2613 -0.5981
26715SOL    HW282525   9.366   9.791   9.850 -1.6248  1.1404 -0.4371
26716SOL     OW82526   4.723   8.701   2.839  0.3212  0.4113  0.5419
26716SOL    HW182527   4.815   8.676   2.837  0.0462 -0.5662 -0.7399
26716SOL    HW282528   4.678   8.625   2.877 -0.1721  0.0882 -0.6385
26717SOL     OW82529  10.325   2.084   1.517  0.0451  0.5778  0.1123
26717SOL    HW182530  10.344   1.994   1.541  0.1572  0.0928 -1.6559
26717SOL    HW282531  10.229   2.090   1.519  0.0487  0.5071  0.5150
26718SOL     OW82532   8.291   9.293   8.696  0.4286  0.4573  0.2184
26718SOL    HW182533   8.234   9.345   8.752 -0.1559 -0.8577  0.8874
26718SOL    HW282534   8.341   9.358   8.646 -1.3844  1.6410 -0.1415
26719SOL     OW82535   5.191   8.414   9.270 -0.2572 -0.1966  0.1342
26719SOL    HW182536   5.227   8.379   9.189  0.3396 -0.2732  0.4254
26719SOL    HW282537   5.228   8.358   9.338  0.7631  1.0329  0.6151
26720SOL     OW82538   1.091   9.219   8.445 -0.3636 -0.4881 -0.2642
26720SOL    HW182539   1.182   9.243   8.431 -0.6848  1.5494  0.7442
26720SOL    HW282540   1.049   9.234   8.360 -0.3263  1.6387  0.0513
26721SOL     OW82541   2.753  10.540   1.194  0.4260  0.1603  0.3912
26721SOL    HW182542   2.699  10.612   1.227  1.1913  0.8562  0.1762
26721SOL    HW282543   2.713  10.516   1.111 -1.4670 -1.5476  1.7153
26722SOL     OW82544   2.013   4.418  10.511  0.1454 -0.4036  0.1202
26722SOL    HW182545   2.021   4.389  10.602  1.8638 -0.1755  0.0713
26722SOL    HW282546   2.100   4.448  10.488 -0.3506 -0.1383 -1.5121
26723SOL     OW82547   0.164   5.513   3.362  0.6164  0.5285 -0.1376
26723SOL    HW182548   0.119   5.440   3.319 -0.6358  1.7899 -1.0370
26723SOL    HW282549   0.099   5.548   3.424  1.6873  0.0387  1.3133
26724SOL     OW82550   6.002   1.957   8.867  0.2897  0.1868  0.1865
26724SOL    HW182551   5.925   1.961   8.811 -1.2309 -2.9153  1.7671
26724SOL    HW282552   6.068   1.911   8.814 -0.3885 -0.7964  0.1743
26725SOL     OW82553   3.667   6.224   5.930  0.4197 -0.2542 -0.1910
26725SOL    HW182554   3.727   6.158   5.966  1.0291  1.2326  1.6623
26725SOL    HW282555   3.718   6.305   5.930 -1.0739  0.7103 -0.1752
26726SOL     OW82556   7.566   8.376   6.858  0.5430  0.1393  0.5927
26726SOL    HW182557   7.526   8.321   6.790  0.2485 -0.0082  0.8833
26726SOL    HW282558   7.521   8.351   6.939  1.7295 -0.5768  1.0697
26727SOL     OW82559   2.552   6.469   9.454 -0.6987 -0.3140 -0.9583
26727SOL    HW182560   2.504   6.493   9.533  0.1145  1.7974 -1.0274
26727SOL    HW282561   2.484   6.449   9.390 -1.4397  0.2458 -0.3731
26728SOL     OW82562   7.476   3.100   7.367  0.4400  0.0690 -0.1884
26728SOL    HW182563   7.503   3.102   7.458  0.9123 -0.9933 -0.2970
26728SOL    HW282564   7.428   3.018   7.357 -2.9908  1.8692 -0.0039
26729SOL     OW82565  10.215   5.903   8.626 -0.5318  0.3269  0.1031
26729SOL    HW182566  10.296   5.944   8.598 -0.1865 -0.8130 -0.6155
26729SOL    HW282567  10.146   5.951   8.579 -0.0639 -0.5423 -1.5294
26730SOL     OW82568   3.732   6.096   0.588 -0.2985  0.4581  0.5489
26730SOL    HW182569   3.653   6.146   0.566 -1.0455 -0.6120  0.7060
26730SOL    HW282570   3.785   6.098   0.509 -1.3324 -0.3371 -0.2004
26731SOL     OW82571   5.374   3.491   2.247  0.6407 -0.5922  0.1008
26731SOL    HW182572   5.361   3.505   2.340 -1.4889 -0.3937 -0.1722
26731SOL    HW282573   5.361   3.397   2.234 -0.7194 -0.3894 -0.1821
26732SOL     OW82574   5.994   1.133   1.146 -0.3518  0.0919 -0.2163
26732SOL    HW182575   5.919   1.192   1.145 -0.0018  0.5361 -0.7688
26732SOL    HW282576   5.958   1.050   1.177 -0.6340  0.8649  1.6621
26733SOL     OW82577   7.108   5.817   2.278 -0.6804 -0.0262  0.1850
26733SOL    HW182578   7.103   5.755   2.351  0.6007 -1.4130 -0.8344
26733SOL    HW282579   7.163   5.773   2.214 -0.0082  2.0555 -0.7415
26734SOL     OW82580   1.714  10.457   3.457 -0.5239  0.3898  0.6094
26734SOL    HW182581   1.795  10.438   3.410  0.3606  0.4491  2.0397
26734SOL    HW282582   1.699  10.550   3.440 -1.0388  0.0885 -0.7224
26735SOL     OW82583   3.155   3.924   8.089 -0.0543 -0.3523  0.4161
26735SOL    HW182584   3.068   3.921   8.128 -0.9029 -0.4499 -1.4197
26735SOL    HW282585   3.201   3.993   8.138  0.5694 -3.4597  4.7182
26736SOL     OW82586   5.420   0.157   5.874  0.0145  0.4498  0.1777
26736SOL    HW182587   5.442   0.139   5.782  1.7679  1.4046  0.3679
26736SOL    HW282588   5.422   0.252   5.881  1.3219  0.3666  1.4963
26737SOL     OW82589   0.654   7.694   0.745 -0.8931 -0.4716  0.3011
26737SOL    HW182590   0.589   7.692   0.675  0.6806 -0.1373 -1.2235
26737SOL    HW282591   0.727   7.744   0.709  0.9668 -2.3380  1.2590
26738SOL     OW82592   2.816   1.029   4.570 -0.4081 -0.4230 -0.0044
26738SOL    HW182593   2.871   0.954   4.594 -0.6951 -1.1623 -1.5553
26738SOL    HW282594   2.822   1.088   4.645  2.9257 -0.2281 -0.2694
26739SOL     OW82595   3.974   5.404   7.192  0.3522 -0.1197  0.8445
26739SOL    HW182596   4.001   5.452   7.270  1.2670  0.7045  0.0549
26739SOL    HW282597   4.029   5.439   7.122 -1.1581 -0.0618 -0.3873
26740SOL     OW82598   2.949   8.356   1.667  0.0568 -0.3442  0.2352
26740SOL    HW182599   2.854   8.343   1.662 -0.0775  0.8481 -2.1956
26740SOL    HW282600   2.984   8.293   1.604  0.5887  1.0500 -0.9196
26741SOL     OW82601  10.642   2.743   6.819 -0.0508 -0.1294  0.3397
26741SOL    HW182602  10.649   2.790   6.736 -0.5034 -1.6665 -0.5909
26741SOL    HW282603  10.550   2.755   6.845 -0.0292 -0.0546  0.3819
26742SOL     OW82604   8.945   3.793   5.863 -0.4783 -0.1770 -0.1299
26742SOL    HW182605   8.994   3.719   5.827 -0.8834  0.1307 -1.3585
26742SOL    HW282606   9.005   3.835   5.925  0.4191 -0.4308 -0.8181
26743SOL     OW82607   0.916   0.268   1.374  0.0287 -0.0408  0.2341
26743SOL    HW182608   0.847   0.320   1.333  1.6087 -0.4552 -3.4044
26743SOL    HW282609   0.997   0.316   1.355  1.1024 -1.5377  0.7705
26744SOL     OW82610   2.955   5.271  10.557  0.1326 -0.1867 -0.0636
26744SOL    HW182611   2.910   5.238  10.479  2.3328  0.8454 -1.9116
26744SOL    HW282612   2.887   5.278  10.623 -2.2133  0.3539 -2.3654
26745SOL     OW82613   5.327   1.995   4.286 -0.1085 -0.4646  0.1374
26745SOL    HW182614   5.267   1.920   4.280  1.9456 -2.2188  0.2908
26745SOL    HW282615   5.352   1.998   4.379 -1.5821  1.6722  0.5428
26746SOL     OW82616   1.556   4.890   8.448  0.4028  0.3922 -0.4629
26746SOL    HW182617   1.648   4.917   8.447  0.5985  0.1386  2.5975
26746SOL    HW282618   1.513   4.953   8.506 -0.9780 -0.5590 -0.4168
26747SOL     OW82619   3.238   3.829   0.927 -0.1264  0.3234  0.1463
26747SOL    HW182620   3.186   3.803   0.851  1.9464 -1.4477 -0.7821
26747SOL    HW282621   3.247   3.924   0.919 -1.3836  0.3916 -0.8403
26748SOL     OW82622   8.061   2.780   2.868 -0.4166 -0.1607 -0.0371
26748SOL    HW182623   8.049   2.750   2.778 -0.5183 -0.1324 -0.0333
26748SOL    HW282624   8.105   2.708   2.912 -1.2190 -0.5639  0.1348
26749SOL     OW82625   0.799  10.409   1.038  0.1807 -0.7166 -0.4485
26749SOL    HW182626   0.794  10.496   0.998 -0.7409 -0.6205 -0.1478
26749SOL    HW282627   0.856  10.421   1.114 -0.6907 -0.1478  0.1363
26750SOL     OW82628   7.535   9.940   1.944  0.3239  0.1919 -0.0842
26750SOL    HW182629   7.446   9.971   1.925 -0.1364 -0.9132  0.1808
26750SOL    HW282630   7.569   9.912   1.860  1.5109  3.1591 -0.7236
26751SOL     OW82631   0.388   2.187   0.419  0.4680  0.4678  0.6463
26751SOL    HW182632   0.383   2.107   0.471 -3.7614 -1.3699 -1.9918
26751SOL    HW282633   0.447   2.165   0.347  0.6446  0.3820  0.8152
26752SOL     OW82634   1.303   6.933  10.754  0.4690 -0.0339 -0.2448
26752SOL    HW182635   1.383   6.916  10.804  0.6171  0.4491 -0.3193
26752SOL    HW282636   1.249   6.987  10.812 -0.3394 -1.3779  0.3063
26753SOL     OW82637   4.560   5.294  10.467  1.0387 -0.5651 -0.1037
26753SOL    HW182638   4.636   5.315  10.412  1.1544  0.7373  0.5431
26753SOL    HW282639   4.501   5.368  10.456  0.6476 -0.7329  0.8118
26754SOL     OW82640   5.141   3.906  10.780 -0.1532  0.1357  0.3375
26754SOL    HW182641   5.233   3.883  10.791  0.2179  1.3010 -0.1781
26754SOL    HW282642   5.124   3.970  10.850 -0.9888 -1.1733  1.3697
26755SOL     OW82643   7.196  10.023   8.866  0.2457  1.0985  0.2835
26755SOL    HW182644   7.269   9.984   8.819 -0.4873 -2.4967  1.8361
26755SOL    HW282645   7.126  10.028   8.801  0.8139  1.2787 -0.3305
26756SOL     OW82646   8.165   6.108   2.845 -0.5819  0.9710 -0.0992
26756SOL    HW182647   8.157   6.012   2.841  1.4171  0.7668 -0.0255
26756SOL    HW282648   8.211   6.131   2.765 -0.7246  1.8299  0.0639
26757SOL     OW82649   9.609   0.441   2.811 -0.2780 -0.3161 -0.3244
26757SOL    HW182650   9.538   0.423   2.749 -1.8252  1.5060  0.8137
26757SOL    HW282651   9.579   0.403   2.894  0.2812  0.1042  0.0740
26758SOL     OW82652   4.207   0.648   5.198 -0.4818 -0.5471  0.5846
26758SOL    HW182653   4.269   0.583   5.230 -1.5219 -1.6437  0.4626
26758SOL    HW282654   4.153   0.669   5.274 -0.8207 -0.6331  0.3710
26759SOL     OW82655   4.196   6.488  10.712 -0.0288 -0.0535 -0.4622
26759SOL    HW182656   4.187   6.459  10.803 -0.2450  0.3099 -0.3629
26759SOL    HW282657   4.148   6.571  10.710 -0.9372 -0.5809 -1.1598
26760SOL     OW82658   2.327   6.731   3.042 -0.3164  0.1728 -0.3640
26760SOL    HW182659   2.263   6.668   3.072 -1.2860 -0.8811 -4.1185
26760SOL    HW282660   2.279   6.787   2.981  1.4260  2.0850 -0.1011
26761SOL     OW82661  10.621   8.627   5.324 -0.2356  0.1577  0.6011
26761SOL    HW182662  10.548   8.634   5.385 -0.4161  0.3037  0.3701
26761SOL    HW282663  10.616   8.707   5.271  1.8936  1.7028  2.5729
26762SOL     OW82664   1.800   6.009   5.633 -0.1460  0.8069  0.5028
26762SOL    HW182665   1.833   6.076   5.693  0.6074 -0.6539  1.8195
26762SOL    HW282666   1.800   5.929   5.686 -2.4825  0.0415 -0.5450
26763SOL     OW82667   2.893   8.808   0.832  0.0192  0.1219  0.0304
26763SOL    HW182668   2.905   8.752   0.909 -3.6605 -1.1879 -0.1647
26763SOL    HW282669   2.968   8.788   0.776  1.0803 -1.3541  1.8432
26764SOL     OW82670   6.092   9.191   1.714  0.3040  0.4243  0.1384
26764SOL    HW182671   6.098   9.100   1.685 -1.7221  0.8563 -1.8319
26764SOL    HW282672   6.023   9.191   1.780  0.3728  0.5200  0.2110
26765SOL     OW82673   2.646   0.282   9.187  0.1133 -0.4037  0.1519
26765SOL    HW182674   2.648   0.187   9.196  1.0924 -0.7438 -2.7229
26765SOL    HW282675   2.558   0.302   9.156  0.0106 -0.4011  0.4428
26766SOL     OW82676   0.571  10.680   7.376  0.2869 -0.8796 -0.1520
26766SOL    HW182677   0.545  10.588   7.371  0.3951 -0.8839 -0.6931
26766SOL    HW282678   0.656  10.683   7.332  0.3767 -0.5579  0.0444
26767SOL     OW82679   2.830   4.707   7.476  0.3200 -0.5697 -0.4675
26767SOL    HW182680   2.891   4.775   7.451 -0.6940  0.3821 -0.4404
26767SOL    HW282681   2.757   4.753   7.517 -1.3725 -1.4393 -2.3207
26768SOL     OW82682   3.509   0.152   2.563  0.4255 -0.1322 -0.8846
26768SOL    HW182683   3.555   0.085   2.512  1.7454 -0.3304  0.5202
26768SOL    HW282684   3.579   0.210   2.594 -0.1417 -0.8239  1.8799
26769SOL     OW82685  10.752   2.537   6.932 -0.1186 -0.1468 -0.6934
26769SOL    HW182686  10.699   2.614   6.909 -0.5128  0.1492  1.0630
26769SOL    HW282687  10.840   2.558   6.901  0.2862  2.0140  1.5839
26770SOL     OW82688   0.515   3.255   9.798  0.6865 -0.1605  0.0087
26770SOL    HW182689   0.535   3.180   9.742  1.6940  0.0082  0.1233
26770SOL    HW282690   0.565   3.327   9.760  0.2130  0.3150  0.2646
26771SOL     OW82691   3.698   3.380   7.601  0.1084 -0.3174  0.1280
26771SOL    HW182692   3.699   3.460   7.655 -2.6554 -0.4141  0.4315
26771SOL    HW282693   3.650   3.405   7.522 -1.6637 -1.8946  0.6554
26772SOL     OW82694   9.783   2.419   2.952 -0.6134  0.3967 -0.1568
26772SOL    HW182695   9.867   2.405   2.909 -1.3473 -2.3931 -0.9219
26772SOL    HW282696   9.731   2.466   2.887  0.1686  1.7495  0.1566
26773SOL     OW82697   7.899   8.791   7.156  0.1003 -0.0805  0.0545
26773SOL    HW182698   7.890   8.886   7.169  0.3351 -0.2155  1.2780
26773SOL    HW282699   7.865   8.776   7.068 -0.6347  1.0381  0.1281
26774SOL     OW82700  10.108   0.355   0.246  0.5755  0.1414 -0.5634
26774SOL    HW182701  10.107   0.373   0.340  0.4430  1.1132 -0.7422
26774SOL    HW282702  10.172   0.417   0.210 -0.2279  0.5846 -1.2646
26775SOL     OW82703   2.731   6.911   3.257  0.6186  0.3184 -0.5662
26775SOL    HW182704   2.744   6.878   3.168  1.6297  1.5878 -0.9252
26775SOL    HW282705   2.640   6.889   3.278  0.3539  0.0166 -1.9167
26776SOL     OW82706   8.535   2.620   9.082 -0.7712  0.1711  0.1301
26776SOL    HW182707   8.441   2.603   9.070 -0.6825 -1.3056  1.1365
26776SOL    HW282708   8.577   2.573   9.010 -0.6888 -1.6766  1.3112
26777SOL     OW82709   3.858   4.907  10.451  0.1786  0.4283 -0.1118
26777SOL    HW182710   3.816   4.961  10.384 -0.5762  0.3182  0.2581
26777SOL    HW282711   3.793   4.840  10.472  1.1937 -0.7845 -0.7325
26778SOL     OW82712   2.055   8.613   2.299  0.4712  0.2400 -0.1336
26778SOL    HW182713   2.039   8.606   2.393  1.5648 -2.6431 -0.0628
26778SOL    HW282714   2.137   8.663   2.292  0.4494  0.3605  0.4363
26779SOL     OW82715   2.825   3.878   6.129 -0.2521 -0.0538 -0.2688
26779SOL    HW182716   2.790   3.938   6.195  0.5997  1.4306 -1.0990
26779SOL    HW282717   2.919   3.872   6.149  0.5521  2.3202 -2.5967
26780SOL     OW82718  10.329   7.979   4.965 -0.4439 -0.0413  0.2011
26780SOL    HW182719  10.361   8.042   5.030 -1.6084  1.3751 -0.5176
26780SOL    HW282720  10.237   7.965   4.989 -0.4553 -0.7024 -0.2286
26781SOL     OW82721   7.390   1.109   5.167  0.0032  0.0029 -0.2400
26781SOL    HW182722   7.381   1.038   5.230 -0.0386 -2.5157 -2.8688
26781SOL    HW282723   7.483   1.109   5.144  0.0676  1.0702 -0.0527
26782SOL     OW82724   0.638   1.916  10.379 -0.1258  0.1651  0.5268
26782SOL    HW182725   0.669   1.832  10.343  0.4492  0.3611  0.5486
26782SOL    HW282726   0.589   1.892  10.458  2.0744 -0.0424  1.9287
26783SOL     OW82727   4.346   0.502   6.911 -0.7529 -0.1158 -0.1475
26783SOL    HW182728   4.382   0.549   6.987 -0.5627  0.9863 -0.8979
26783SOL    HW282729   4.336   0.412   6.942 -1.1295  0.4009  1.3395
26784SOL     OW82730   5.757   3.439   9.333  0.1298 -0.3994  0.3167
26784SOL    HW182731   5.773   3.349   9.303  1.0265 -0.4244  0.8356
26784SOL    HW282732   5.707   3.479   9.261 -0.7692 -1.4577  0.3058
26785SOL     OW82733  10.579   5.802   2.581 -0.2455 -0.6301  0.6219
26785SOL    HW182734  10.523   5.879   2.590  0.6804 -0.1381  2.7301
26785SOL    HW282735  10.630   5.800   2.662  1.8761 -1.7838 -0.6582
26786SOL     OW82736   7.628   8.411   9.488 -0.0081  0.3372  0.1234
26786SOL    HW182737   7.664   8.391   9.402  0.2581 -2.2685  0.7538
26786SOL    HW282738   7.535   8.427   9.473 -0.4457 -2.3350 -0.4613
26787SOL     OW82739   7.368   1.498   3.467 -0.2026  0.1642  0.3879
26787SOL    HW182740   7.315   1.418   3.463  1.5255 -0.9968 -0.8851
26787SOL    HW282741   7.347   1.544   3.386 -0.3576  0.4555  0.5921
26788SOL     OW82742   8.972   5.093   9.903  0.2381  0.2081 -0.3194
26788SOL    HW182743   8.885   5.131   9.889 -0.6692 -1.0886  1.3913
26788SOL    HW282744   8.971   5.012   9.852  0.6926  0.5008 -0.8020
26789SOL     OW82745   5.020   2.303   3.006  0.3019 -0.1537  0.1293
26789SOL    HW182746   5.002   2.299   3.100 -1.1146  2.0888  0.0059
26789SOL    HW282747   4.957   2.242   2.968  0.6252 -0.7878  0.5753
26790SOL     OW82748  10.557  10.219   2.533 -0.2369 -0.2509 -0.0815
26790SOL    HW182749  10.542  10.209   2.627  0.6310 -0.2758  0.0587
26790SOL    HW282750  10.480  10.179   2.492 -0.7651  0.0238  0.6149
26791SOL     OW82751   8.943   5.790  10.790 -0.1896 -0.1701 -0.2395
26791SOL    HW182752   8.998   5.774  10.713 -0.3947 -0.8568 -0.2520
26791SOL    HW282753   9.006   5.807  10.860 -0.0175  1.4699 -0.7501
26792SOL     OW82754   1.550   8.925   0.256 -0.8608  0.3738 -0.0751
26792SOL    HW182755   1.523   8.972   0.177 -0.7694 -0.4286 -0.5953
26792SOL    HW282756   1.472   8.876   0.282 -0.8125  0.4326  0.1860
26793SOL     OW82757   8.275   2.384  10.750 -0.1887  0.4694 -0.6479
26793SOL    HW182758   8.361   2.420  10.729  1.6017 -1.5735  2.3953
26793SOL    HW282759   8.248   2.338  10.671  2.2037 -0.0187 -1.2545
26794SOL     OW82760   9.073   7.832   9.224 -0.0242 -0.0568 -0.5586
26794SOL    HW182761   9.011   7.884   9.275 -1.1413 -1.1831 -0.7313
26794SOL    HW282762   9.119   7.779   9.289 -0.1398 -0.1464 -0.5502
26795SOL     OW82763   4.896   5.568   1.091 -0.1053  0.6718  0.0230
26795SOL    HW182764   4.819   5.585   1.145  0.1727 -0.4895  0.8255
26795SOL    HW282765   4.862   5.568   1.001 -1.1770 -0.4135  0.3927
26796SOL     OW82766   3.752   4.593   7.111  0.0392  0.4675  0.0570
26796SOL    HW182767   3.750   4.676   7.158  0.5216  0.7753 -0.4514
26796SOL    HW282768   3.793   4.614   7.027  0.0774 -0.2646 -0.1159
26797SOL     OW82769   7.011   2.066   1.834 -0.5059 -0.6541  0.0728
26797SOL    HW182770   6.931   2.044   1.883  0.0750 -0.4082  1.1575
26797SOL    HW282771   7.056   2.130   1.889  0.0856 -0.2199 -0.8824
26798SOL     OW82772   3.681   2.808   0.084  0.5807  0.1330  0.2425
26798SOL    HW182773   3.604   2.795   0.139 -0.9727  0.8238 -1.6581
26798SOL    HW282774   3.662   2.760   0.004  2.9657 -1.2034  0.3930
26799SOL     OW82775   3.402   1.360   7.982  0.1603  0.3978 -0.1065
26799SOL    HW182776   3.447   1.347   7.898  0.1331 -0.7422  0.0305
26799SOL    HW282777   3.424   1.282   8.033 -1.9360 -0.2260 -0.0370
26800SOL     OW82778   3.581   6.932   0.577 -0.1625  0.2946 -0.4425
26800SOL    HW182779   3.523   6.988   0.526 -0.0647  0.6931 -0.1215
26800SOL    HW282780   3.669   6.953   0.544  0.1286  2.0835  1.2651
26801SOL     OW82781   3.270   6.114   9.832 -0.4244  0.7606  0.2593
26801SOL    HW182782   3.203   6.103   9.764 -1.4862 -1.8199  1.5592
26801SOL    HW282783   3.330   6.041   9.819 -0.2662  0.6064  1.6306
26802SOL     OW82784   6.817   7.965   2.039  0.8291  0.1434 -0.0323
26802SOL    HW182785   6.731   7.949   1.999  0.6234 -2.1916  1.1872
26802SOL    HW282786   6.879   7.962   1.966 -0.1594  3.7258 -1.2400
26803SOL     OW82787   4.266   9.706   7.340 -0.2914 -0.5288  0.4400
26803SOL    HW182788   4.271   9.775   7.274  0.6092 -0.7671  0.2475
26803SOL    HW282789   4.185   9.660   7.320 -0.5669  0.0653  0.1646
26804SOL     OW82790   6.480   9.951   7.775  0.5023 -0.0383  0.1253
26804SOL    HW182791   6.448   9.868   7.739  0.5128 -0.0283  0.0924
26804SOL    HW282792   6.511  10.000   7.698 -0.3117  0.3528  0.0351
26805SOL     OW82793   1.026   0.355   8.560  0.5507  0.3802 -0.8506
26805SOL    HW182794   0.991   0.357   8.471  0.2737 -0.5630 -0.7728
26805SOL    HW282795   1.098   0.293   8.556  1.0029  0.8738 -0.5686
26806SOL     OW82796   7.855   5.413   7.811 -0.7326  0.0392  0.4200
26806SOL    HW182797   7.872   5.507   7.812 -0.3481 -0.0237  1.8167
26806SOL    HW282798   7.799   5.398   7.887  1.5127 -1.2182  1.9543
26807SOL     OW82799   0.234   8.199  10.757  0.5227  0.0745 -0.2460
26807SOL    HW182800   0.315   8.213  10.707  1.4562  0.5281  1.2997
26807SOL    HW282801   0.193   8.285  10.760  1.5791  0.5803  1.5119
26808SOL     OW82802   5.811   3.690   5.467 -0.5994  0.0295  0.1506
26808SOL    HW182803   5.882   3.669   5.527  0.0554  0.7857 -0.3468
26808SOL    HW282804   5.760   3.610   5.462 -0.0887 -0.3575  0.9259
26809SOL     OW82805   2.324  10.113   0.135 -0.1132 -0.0832  0.1434
26809SOL    HW182806   2.241  10.121   0.183 -1.3375 -0.7320 -1.7207
26809SOL    HW282807   2.306  10.153   0.050  1.2353 -0.9732 -0.5927
26810SOL     OW82808   0.419  10.176   5.856 -0.2362 -0.0094 -0.2209
26810SOL    HW182809   0.441  10.254   5.805  0.9701 -0.6790 -0.7654
26810SOL    HW282810   0.478  10.109   5.824 -0.3312 -0.8023  1.1693
26811SOL     OW82811   5.133   9.313  10.659  0.8896 -0.3206  0.7003
26811SOL    HW182812   5.105   9.222  10.651  0.4842 -0.0458 -2.0092
26811SOL    HW282813   5.222   9.308  10.694  1.5326 -1.8991 -0.9928
26812SOL     OW82814   4.317   6.518   7.217  1.0643  0.3122 -0.3012
26812SOL    HW182815   4.406   6.519   7.182  1.2305 -0.5671  0.0900
26812SOL    HW282816   4.327   6.536   7.310  0.7788  0.7713 -0.3548
26813SOL     OW82817   4.884   5.442   9.424  0.0545 -0.1650 -0.0984
26813SOL    HW182818   4.857   5.357   9.460 -0.4270 -0.3427 -0.8533
26813SOL    HW282819   4.968   5.460   9.466  0.0253 -0.8764  0.2867
26814SOL     OW82820   9.502   2.855   3.720  0.3335  0.5841  0.0811
26814SOL    HW182821   9.440   2.789   3.752  0.2264 -0.2356 -1.7009
26814SOL    HW282822   9.579   2.846   3.777 -0.8388  1.0885  1.8231
26815SOL     OW82823   8.829   8.279   9.124  0.1090  0.7022 -0.6519
26815SOL    HW182824   8.751   8.225   9.111 -0.2887  0.9755  0.4374
26815SOL    HW282825   8.817   8.354   9.065  1.3561 -1.0093 -3.2707
26816SOL     OW82826   9.641   8.775   6.968  0.3239 -0.9508 -0.0117
26816SOL    HW182827   9.558   8.760   6.923 -0.3861  0.4645  0.7596
26816SOL    HW282828   9.618   8.775   7.061  1.4974 -2.2420  0.3090
26817SOL     OW82829   4.962   9.355   0.467 -0.0406 -0.3398  0.7407
26817SOL    HW182830   4.909   9.434   0.451  1.2227  0.8243  2.0045
26817SOL    HW282831   4.985   9.324   0.379 -1.0268  0.3657  0.2083
26818SOL     OW82832   7.142   4.484   9.956 -0.1750  0.0028  0.3038
26818SOL    HW182833   7.086   4.496   9.879 -1.5854  0.0529  1.3015
26818SOL    HW282834   7.151   4.572   9.993 -0.8233 -0.2438  1.0729
26819SOL     OW82835   5.568   0.823   6.772  0.4687 -0.1953  0.1908
26819SOL    HW182836   5.602   0.906   6.739 -1.8332  1.1934  1.1035
26819SOL    HW282837   5.524   0.784   6.697  0.2422  0.1680  0.1303
26820SOL     OW82838   4.121   2.039   1.383 -0.9254  0.3688 -0.2332
26820SOL    HW182839   4.098   2.006   1.469  1.2331  3.8396  1.9516
26820SOL    HW282840   4.200   1.990   1.359 -0.9723  0.0524  0.2506
26821SOL     OW82841   8.016   5.296   6.625 -0.3673  0.0793 -0.0747
26821SOL    HW182842   7.935   5.324   6.583  0.6837  0.0629 -2.2281
26821SOL    HW282843   8.082   5.301   6.556  1.1611 -1.4457  1.1934
26822SOL     OW82844   8.317   3.667   8.855 -0.4499 -0.2801  0.1356
26822SOL    HW182845   8.328   3.706   8.768  0.2893  1.7777  1.0847
26822SOL    HW282846   8.222   3.666   8.869 -0.5677 -0.5187 -0.6328
26823SOL     OW82847   8.704   7.466   5.849  0.2309 -0.1075 -0.2371
26823SOL    HW182848   8.652   7.465   5.768  0.2757  2.3404 -0.3596
26823SOL    HW282849   8.638   7.468   5.918  0.1986 -1.4194 -0.2003
26824SOL     OW82850   5.933   5.168   3.814 -0.2190 -0.0161  0.0691
26824SOL    HW182851   6.011   5.200   3.861 -0.5357  0.0080  0.5830
26824SOL    HW282852   5.957   5.175   3.722 -0.0016  1.0020  0.1905
26825SOL     OW82853   9.389   4.208   1.809 -0.4260  0.5627  0.3967
26825SOL    HW182854   9.460   4.182   1.751  0.1878  0.3888  1.1991
26825SOL    HW282855   9.343   4.278   1.762  0.7167  1.1851  0.1678
26826SOL     OW82856  10.012   3.374   3.596  0.0436 -0.3973  0.2168
26826SOL    HW182857   9.967   3.291   3.613  0.5555 -0.9616 -1.0866
26826SOL    HW282858   9.954   3.421   3.537 -0.2225  0.1692  0.9168
26827SOL     OW82859   1.095   6.587   7.850 -0.4624  0.0517  0.2372
26827SOL    HW182860   1.187   6.599   7.828 -1.0198  2.1945 -1.3489
26827SOL    HW282861   1.093   6.586   7.945  1.1527  0.4429  0.3025
26828SOL     OW82862   0.796   5.563   0.293  0.0306  0.6693 -0.1630
26828SOL    HW182863   0.767   5.519   0.213 -0.2892  0.3386  0.1348
26828SOL    HW282864   0.875   5.516   0.318 -0.7618 -0.3018  0.6183
26829SOL     OW82865   1.242   5.473   3.465 -0.1982  0.5891 -0.7076
26829SOL    HW182866   1.298   5.425   3.527 -1.5338  1.1588  1.0370
26829SOL    HW282867   1.291   5.474   3.383  1.0977 -1.3143 -0.0168
26830SOL     OW82868   1.157   2.856   9.740  0.5027  0.3755 -0.4828
26830SOL    HW182869   1.072   2.876   9.700  0.0332  0.2260  0.4114
26830SOL    HW282870   1.135   2.803   9.816  1.5919 -2.3770 -1.9365
26831SOL     OW82871   4.263   0.557   4.090  0.4384 -0.7231 -0.3385
26831SOL    HW182872   4.188   0.510   4.054  0.5740 -1.9695  0.9200
26831SOL    HW282873   4.334   0.539   4.028  0.3949 -1.9194 -0.0702
26832SOL     OW82874   2.081   6.041   3.617 -0.1409 -0.0302  0.2296
26832SOL    HW182875   2.063   5.952   3.647 -1.3786  0.4354  0.9495
26832SOL    HW282876   2.115   6.030   3.528 -0.7116 -1.2018  0.1311
26833SOL     OW82877   4.171   5.685   8.524 -0.1034 -0.0025  0.2861
26833SOL    HW182878   4.197   5.727   8.443 -1.5237  0.5763  0.0949
26833SOL    HW282879   4.075   5.680   8.519 -0.2230 -0.0193  1.8732
26834SOL     OW82880   1.837   7.798   4.281 -0.4230  0.0427 -0.1826
26834SOL    HW182881   1.908   7.743   4.247  1.1486  0.9528  1.4265
26834SOL    HW282882   1.882   7.876   4.315 -2.2181  0.7142  0.7738
26835SOL     OW82883   9.391   1.238   2.145 -0.4857 -0.1879 -0.2747
26835SOL    HW182884   9.382   1.178   2.219 -0.0485 -1.4858 -1.2289
26835SOL    HW282885   9.479   1.221   2.111 -0.8665  0.0138 -1.3914
26836SOL     OW82886   0.978   4.079   3.573 -0.3807  0.3539  0.4316
26836SOL    HW182887   0.973   4.102   3.665  0.5202 -1.1153  0.8717
26836SOL    HW282888   1.071   4.083   3.551 -0.3079 -1.5263  0.2215
26837SOL     OW82889   8.299   6.990   1.903  0.5136  0.4974  0.1777
26837SOL    HW182890   8.369   6.973   1.967 -0.7198 -1.5662  1.1102
26837SOL    HW282891   8.337   7.052   1.841  3.6044 -1.3563 -0.0190
26838SOL     OW82892  10.073   7.549   5.739  0.4346  0.4158 -0.7084
26838SOL    HW182893  10.034   7.629   5.775  1.4841  0.8717 -0.5528
26838SOL    HW282894  10.008   7.517   5.676 -0.8572  0.3302  0.6057
26839SOL     OW82895   4.885   6.375   8.134 -0.2971  0.1661 -0.3696
26839SOL    HW182896   4.803   6.390   8.182  0.7663  1.2828  1.2003
26839SOL    HW282897   4.866   6.403   8.045 -1.6199  0.3980 -0.0449
26840SOL     OW82898   6.381   7.629   9.119  0.0316  0.5275  0.1189
26840SOL    HW182899   6.360   7.568   9.049  0.4743  0.6819 -0.1534
26840SOL    HW282900   6.400   7.574   9.195 -1.0218  0.3742  0.2941
26841SOL     OW82901   8.208   4.583   0.772 -0.8150 -0.1980  0.1070
26841SOL    HW182902   8.172   4.654   0.720  1.2791  0.7988 -0.0772
26841SOL    HW282903   8.272   4.541   0.715  0.5200  0.0306  1.3818
26842SOL     OW82904   8.847   2.487  10.743 -0.2043 -0.9619 -0.3441
26842SOL    HW182905   8.846   2.552  10.813  2.0073 -0.6176 -0.5621
26842SOL    HW282906   8.808   2.409  10.782 -1.4148 -0.0077  0.4249
26843SOL     OW82907   9.603  10.004   1.178 -0.0159  0.3315 -0.2985
26843SOL    HW182908   9.552  10.008   1.259 -0.1603  2.7014 -0.4250
26843SOL    HW282909   9.694   9.992   1.207 -0.1804  0.1318  0.1403
26844SOL     OW82910   4.423   3.759   4.019 -0.6810  0.1423 -0.0244
26844SOL    HW182911   4.378   3.843   4.028 -2.2722 -0.6333 -0.5042
26844SOL    HW282912   4.470   3.766   3.936 -0.8191  0.5562 -0.0704
26845SOL     OW82913   8.800   5.763   1.988 -0.0124  0.1673 -0.0708
26845SOL    HW182914   8.790   5.845   2.036 -2.5017  0.1788 -0.4890
26845SOL    HW282915   8.718   5.716   2.002 -0.1123 -0.6329 -2.7769
26846SOL     OW82916   5.618  10.572   2.744 -0.2407  0.2371  0.0896
26846SOL    HW182917   5.606  10.630   2.669  0.3762  0.0236 -0.1764
26846SOL    HW282918   5.648  10.490   2.706 -1.5442 -0.4199  0.4143
26847SOL     OW82919   7.431   7.341   4.796  0.1210 -0.0619  0.0286
26847SOL    HW182920   7.392   7.328   4.709 -1.4481  0.8344  0.5609
26847SOL    HW282921   7.437   7.253   4.832 -2.5771 -0.2004  0.3596
26848SOL     OW82922   9.957   4.693   5.880 -0.0174  0.4033  0.2996
26848SOL    HW182923  10.049   4.669   5.886 -0.3442 -0.4606  4.0007
26848SOL    HW282924   9.913   4.612   5.853  0.2215  0.8952 -1.7867
26849SOL     OW82925   7.210   8.800   9.086  0.0177 -0.7335 -0.3601
26849SOL    HW182926   7.226   8.875   9.143  0.3479  1.1830 -2.8501
26849SOL    HW282927   7.292   8.750   9.089  0.3151 -0.2321  0.1810
26850SOL     OW82928   0.805   5.872   9.922  0.0127  0.0361  1.1300
26850SOL    HW182929   0.851   5.950   9.890 -2.4584  1.4598  0.8407
26850SOL    HW282930   0.844   5.800   9.872  1.5931  1.1905  0.5861
26851SOL     OW82931  10.420   4.273   0.423 -0.1732 -0.3718  0.6125
26851SOL    HW182932  10.374   4.210   0.480  0.8356 -0.1048  1.7637
26851SOL    HW282933  10.512   4.259   0.442  0.1870 -0.1477 -0.8694
26852SOL     OW82934   4.451   8.878   3.427 -0.2677 -0.0707  0.5573
26852SOL    HW182935   4.470   8.789   3.457  1.6412  0.1404  0.1130
26852SOL    HW282936   4.389   8.867   3.355  3.2742 -1.5758 -2.6311
26853SOL     OW82937   5.822   0.371   2.657 -0.1478  0.2390 -0.3114
26853SOL    HW182938   5.790   0.353   2.746  0.5357  1.0628  0.1108
26853SOL    HW282939   5.897   0.429   2.670 -0.7019  1.2624 -1.4715
26854SOL     OW82940   3.908   0.002   3.969 -0.3200 -0.0206 -0.1837
26854SOL    HW182941   3.992   0.040   3.943  0.8112 -0.9608  1.7582
26854SOL    HW282942   3.863   0.072   4.016 -1.7174  1.2068 -3.1492
26855SOL     OW82943   7.210   4.629   2.812 -0.2200 -0.1240 -0.5141
26855SOL    HW182944   7.183   4.716   2.781  1.5469  1.1448  1.2348
26855SOL    HW282945   7.226   4.580   2.731 -2.8082  0.5782 -1.5764
26856SOL     OW82946   7.785   8.388   3.152  0.3645  0.6712  0.0332
26856SOL    HW182947   7.842   8.457   3.117  0.3761  0.4096 -0.4577
26856SOL    HW282948   7.798   8.314   3.094 -0.0534  0.4234  0.2533
26857SOL     OW82949   1.262   1.619   6.908 -1.0643 -1.1224 -0.7667
26857SOL    HW182950   1.265   1.547   6.845  0.0213 -0.5828 -1.3705
26857SOL    HW282951   1.242   1.696   6.855  2.2951 -0.2240 -0.9853
26858SOL     OW82952   6.525   0.382   0.406 -0.9784 -0.1498  0.3621
26858SOL    HW182953   6.579   0.309   0.376 -1.2910  0.1099 -0.8860
26858SOL    HW282954   6.497   0.426   0.326 -0.6202  1.4915  1.1022
26859SOL     OW82955   6.612   4.529   5.015 -0.1509  0.0015  0.6071
26859SOL    HW182956   6.597   4.454   4.958 -0.5930 -0.5180  1.3854
26859SOL    HW282957   6.694   4.508   5.060 -0.5847 -0.3081  1.2667
26860SOL     OW82958   3.518   8.660   3.334  0.8412 -0.1333 -0.6698
26860SOL    HW182959   3.498   8.679   3.242 -1.1666  0.8696 -0.0808
26860SOL    HW282960   3.449   8.703   3.383  2.5503  0.3923  1.4256
26861SOL     OW82961   8.590   0.769   0.332 -0.0535 -0.6153  0.0976
26861SOL    HW182962   8.638   0.849   0.310  0.3453 -0.6503  0.8008
26861SOL    HW282963   8.657   0.710   0.365 -0.2744 -1.4172 -0.8676
26862SOL     OW82964   7.029   0.176   7.276  0.9137 -0.0519  0.2518
26862SOL    HW182965   7.030   0.260   7.322 -1.3295  0.3022 -0.2452
26862SOL    HW282966   6.945   0.174   7.231  1.2372 -2.2557 -0.3726
26863SOL     OW82967   2.784   9.502   6.606 -0.6015  0.1207  0.4152
26863SOL    HW182968   2.707   9.506   6.551 -0.6092  0.3753  0.4429
26863SOL    HW282969   2.832   9.425   6.575 -0.8489 -0.0182  0.3772
26864SOL     OW82970   7.985   5.762   5.220 -0.0606 -0.4740  0.0810
26864SOL    HW182971   8.015   5.842   5.263 -1.7003  0.1376  0.1669
26864SOL    HW282972   7.940   5.714   5.290 -1.4690 -0.1623 -0.5816
26865SOL     OW82973   6.889   3.952   0.556 -0.6103 -0.1078 -0.2718
26865SOL    HW182974   6.830   4.012   0.511 -1.0832  0.2712  0.8230
26865SOL    HW282975   6.862   3.955   0.648 -0.5940 -1.9215 -0.1552
26866SOL     OW82976   4.801   7.312   2.147 -0.2233 -1.0837 -0.6465
26866SOL    HW182977   4.881   7.328   2.097 -0.4631  1.5126 -0.3421
26866SOL    HW282978   4.741   7.382   2.121 -2.4542 -2.9302 -0.8497
26867SOL     OW82979   1.988   2.148   6.860 -0.8462  0.5818 -0.3870
26867SOL    HW182980   1.958   2.094   6.933  1.1937 -0.5624 -0.3361
26867SOL    HW282981   1.912   2.154   6.802 -1.1867 -2.3738 -0.3758
26868SOL     OW82982   0.704   1.487   9.752  0.4495 -0.1837 -0.4146
26868SOL    HW182983   0.717   1.392   9.750  0.7270 -0.1902  0.9910
26868SOL    HW282984   0.766   1.518   9.818  2.1670  1.2789 -2.5795
26869SOL     OW82985   5.968   0.097   6.912 -0.1014  0.4898  0.6735
26869SOL    HW182986   5.899   0.162   6.924 -0.4406  0.3783 -0.5341
26869SOL    HW282987   6.023   0.105   6.990 -0.6280  1.6183  0.9428
26870SOL     OW82988   2.888   4.838   2.029  0.0869  0.0479 -0.1029
26870SOL    HW182989   2.887   4.887   1.947  1.8564  1.0733  0.4592
26870SOL    HW282990   2.889   4.746   2.001  1.6257  0.3850 -1.2599
26871SOL     OW82991   9.131   9.871   0.159 -0.1503  0.4884 -0.2823
26871SOL    HW182992   9.142   9.937   0.228 -0.2819  0.7751 -0.5336
26871SOL    HW282993   9.047   9.893   0.118 -0.5765 -0.3152  0.1455
26872SOL     OW82994   6.176   7.459   5.937  0.4608 -0.1661 -0.0229
26872SOL    HW182995   6.105   7.417   5.987 -0.5822  0.8915 -0.5677
26872SOL    HW282996   6.132   7.497   5.861  1.7179  0.0197 -0.6800
26873SOL     OW82997   7.293   9.377   4.080  0.1390 -0.1239 -0.5105
26873SOL    HW182998   7.321   9.468   4.083  0.2202 -0.1383 -0.7733
26873SOL    HW282999   7.259   9.359   4.167 -1.3568  0.6334 -0.8885
26874SOL     OW83000   8.945   6.621   9.095  0.5191 -0.6613 -0.1939
26874SOL    HW183001   9.038   6.638   9.079 -0.0454  1.1531 -2.1174
26874SOL    HW283002   8.902   6.703   9.070 -1.7534 -2.0290 -1.0294
26875SOL     OW83003   2.565   1.144   3.491 -0.2100  0.0577 -0.2091
26875SOL    HW183004   2.629   1.102   3.548 -1.4912 -0.2887  1.0528
26875SOL    HW283005   2.589   1.117   3.403  3.1979  2.4290 -0.1788
26876SOL     OW83006   1.563   0.986   9.584  0.4318  0.3809 -0.3408
26876SOL    HW183007   1.544   1.033   9.665  1.1392  1.5471 -0.8354
26876SOL    HW283008   1.610   0.907   9.613  0.2234  0.5240  0.4124
26877SOL     OW83009   0.385   1.345   8.812 -0.1877 -0.1306 -0.0967
26877SOL    HW183010   0.368   1.353   8.718 -0.9926 -2.4683 -0.2045
26877SOL    HW283011   0.302   1.371   8.853 -0.0758  0.1647 -0.0539
26878SOL     OW83012   7.583   8.587  10.331 -0.7849  0.2072  0.2761
26878SOL    HW183013   7.516   8.644  10.369  1.0862  3.3078 -0.6639
26878SOL    HW283014   7.631   8.554  10.407 -1.5324  0.4106  0.8462
26879SOL     OW83015   3.978  10.620   7.492 -0.2688  0.2757 -0.0398
26879SOL    HW183016   3.917  10.692   7.507  0.2564  0.4939  1.0881
26879SOL    HW283017   4.009  10.633   7.402 -1.8985  0.1348 -0.6533
26880SOL     OW83018   8.156   6.937   3.798 -0.2399 -0.6315  0.8206
26880SOL    HW183019   8.229   6.916   3.740  0.0091  2.1898 -0.0536
26880SOL    HW283020   8.152   6.863   3.859  2.9709 -1.1955  0.5371
26881SOL     OW83021   3.980   1.591   9.731  0.2926  0.2553  0.5220
26881SOL    HW183022   4.008   1.637   9.809  0.6121 -0.6372  0.9433
26881SOL    HW283023   3.906   1.536   9.760  0.2890  0.0648  0.1638
26882SOL     OW83024   6.013   4.439   9.595 -0.0562 -0.4338  0.2696
26882SOL    HW183025   5.961   4.358   9.598 -1.3528  0.3762  1.9289
26882SOL    HW283026   5.948   4.509   9.605  1.2680  0.6381  2.1063
26883SOL     OW83027   2.594   1.539   5.413 -0.9524 -0.6023  0.6727
26883SOL    HW183028   2.651   1.525   5.489  2.1855 -3.4452 -1.9013
26883SOL    HW283029   2.631   1.615   5.368 -1.1813 -0.5431  0.5786
26884SOL     OW83030   2.317   0.892   6.598  0.1056  0.8062 -0.2804
26884SOL    HW183031   2.227   0.870   6.575  0.1171 -1.0070  1.2107
26884SOL    HW283032   2.370   0.845   6.534  0.0284  0.4450 -0.0799
26885SOL     OW83033   8.227   5.588   0.391  0.7423 -0.5312 -0.0964
26885SOL    HW183034   8.249   5.649   0.462 -0.3017  0.1355 -0.3224
26885SOL    HW283035   8.226   5.502   0.433  0.1334 -0.1411  0.7165
26886SOL     OW83036   0.206   7.602   4.766  0.5131 -0.1570 -0.5406
26886SOL    HW183037   0.169   7.600   4.854 -0.7290  0.8677 -1.0062
26886SOL    HW283038   0.243   7.690   4.758 -0.0635  0.0287 -1.2852
26887SOL     OW83039   6.029  10.087   7.156 -0.0867  0.6768 -0.0214
26887SOL    HW183040   5.968  10.107   7.227 -1.3766 -0.7869 -0.6477
26887SOL    HW283041   6.065  10.001   7.180 -0.6549  0.0936 -1.1822
26888SOL     OW83042   5.886   1.760   4.185  0.1753 -0.4597 -0.4582
26888SOL    HW183043   5.862   1.682   4.134  0.6021 -0.2142 -1.0506
26888SOL    HW283044   5.981   1.751   4.198  0.0954 -0.4344  0.1534
26889SOL     OW83045   7.116   6.514   4.467 -0.0489  0.0265 -0.5577
26889SOL    HW183046   7.108   6.605   4.439 -0.0170  0.0464 -0.5016
26889SOL    HW283047   7.036   6.472   4.434 -1.3156  0.6269  1.5714
26890SOL     OW83048   3.070   2.287   7.298  0.5294  0.1387  0.1546
26890SOL    HW183049   3.042   2.203   7.335  1.4339 -0.7194 -1.0245
26890SOL    HW283050   3.129   2.324   7.364 -1.1838  0.7021  1.4521
26891SOL     OW83051   1.441   8.587   2.062  0.0707 -0.7356  0.0178
26891SOL    HW183052   1.457   8.676   2.033  0.1631  0.3989  3.1867
26891SOL    HW283053   1.417   8.539   1.982 -0.2997  2.1621 -1.7275
26892SOL     OW83054   1.584   3.218   6.518  0.3252 -0.1167 -0.0924
26892SOL    HW183055   1.611   3.150   6.580 -1.0137  0.0326  0.6912
26892SOL    HW283056   1.601   3.179   6.432 -2.3566 -2.3648  0.2618
26893SOL     OW83057   7.262   2.154   7.615  0.1324 -0.2351  0.0112
26893SOL    HW183058   7.302   2.217   7.556 -0.3248  0.2768  0.2382
26893SOL    HW283059   7.280   2.069   7.575 -0.9943  0.1404 -1.3990
26894SOL     OW83060   6.811   9.037   3.601  0.1190  0.1368 -0.0752
26894SOL    HW183061   6.889   9.023   3.547 -1.5041  0.2682 -2.6625
26894SOL    HW283062   6.790   9.130   3.590 -0.7940 -0.0508 -0.0079
26895SOL     OW83063   7.533   0.055   8.856 -0.1787  0.0826  0.3518
26895SOL    HW183064   7.502   0.031   8.769  1.4175 -2.4942  0.4182
26895SOL    HW283065   7.628   0.056   8.849 -0.0493  1.1935  1.7638
26896SOL     OW83066   3.784   2.844   2.314 -0.1420  0.3083 -0.2256
26896SOL    HW183067   3.699   2.853   2.271 -0.2041 -2.0852 -0.7111
26896SOL    HW283068   3.839   2.797   2.250  0.6714 -0.6759  1.1445
26897SOL     OW83069   1.886   8.907   0.942 -0.5080 -0.1619  0.5696
26897SOL    HW183070   1.791   8.913   0.942 -0.4708  0.6354  1.0822
26897SOL    HW283071   1.908   8.861   0.861 -1.3316 -0.4743  0.5183
26898SOL     OW83072   1.850   7.744   1.754  0.7925 -0.0959  0.7655
26898SOL    HW183073   1.930   7.791   1.777  1.8288 -1.7854  0.8379
26898SOL    HW283074   1.780   7.790   1.800  1.7650  1.1953  1.0091
26899SOL     OW83075   4.072   6.056   7.471 -0.2798  0.3082  1.0076
26899SOL    HW183076   4.001   6.117   7.487 -0.9646 -0.3671  0.6324
26899SOL    HW283077   4.152   6.105   7.491 -0.8928  0.6013  2.9585
26900SOL     OW83078   7.683   5.160   6.571 -0.2659  0.1215  0.4305
26900SOL    HW183079   7.619   5.104   6.526 -0.4318  0.7488 -0.1298
26900SOL    HW283080   7.690   5.237   6.515  1.7375 -0.3664 -0.0650
26901SOL     OW83081   1.980   9.077   0.665 -0.2631  0.4016 -0.6062
26901SOL    HW183082   1.983   9.039   0.577 -1.0975  0.1170 -0.5159
26901SOL    HW283083   1.888   9.071   0.691 -0.1797  1.2972 -0.0649
26902SOL     OW83084   5.485   6.392   4.200 -0.4122  0.0870 -0.6867
26902SOL    HW183085   5.460   6.444   4.124 -1.4502 -0.3524 -0.6696
26902SOL    HW283086   5.504   6.457   4.268  1.1173  0.4934 -1.4684
26903SOL     OW83087   7.415   7.220   8.102 -0.0278 -0.2989  0.0436
26903SOL    HW183088   7.462   7.196   8.181  1.4184 -0.4878 -0.8263
26903SOL    HW283089   7.373   7.303   8.123  0.7052 -0.1227  0.8786
26904SOL     OW83090   0.366   6.642  10.104  0.4862 -0.0430 -0.2780
26904SOL    HW183091   0.339   6.564  10.153  1.1811 -0.1125  0.0074
26904SOL    HW283092   0.410   6.607  10.026  0.4279  0.0711 -0.3631
26905SOL     OW83093   1.108   4.331   1.763 -0.2889 -0.1330  0.0809
26905SOL    HW183094   1.124   4.240   1.787  0.6373  0.6553  2.8063
26905SOL    HW283095   1.054   4.326   1.684 -0.3300 -3.0103  0.1957
26906SOL     OW83096   5.598   1.108   6.709 -0.2875  0.0555 -0.0718
26906SOL    HW183097   5.503   1.123   6.704 -0.4851 -1.2657 -1.1334
26906SOL    HW283098   5.635   1.164   6.641 -0.5772 -1.0531 -1.1885
26907SOL     OW83099   0.579   8.054   1.340  0.2180 -1.1040 -0.3096
26907SOL    HW183100   0.636   7.992   1.384  0.6627 -1.1673 -0.9498
26907SOL    HW283101   0.632   8.134   1.333 -0.2836 -0.7045  0.3465
26908SOL     OW83102   1.170   7.497   7.957  0.1784 -0.0087  0.5452
26908SOL    HW183103   1.208   7.511   7.870  1.7933  1.0053  1.3551
26908SOL    HW283104   1.236   7.533   8.017 -2.5723  2.9437  2.0637
26909SOL     OW83105   9.849   5.204   8.006 -0.1111  0.3128  0.0271
26909SOL    HW183106   9.828   5.123   7.958  0.3650  0.1780  0.0368
26909SOL    HW283107   9.886   5.262   7.939 -0.7599  0.6540 -0.0478
26910SOL     OW83108   5.384   3.603   3.387  0.4005 -0.6192  0.3032
26910SOL    HW183109   5.349   3.668   3.448 -0.3580 -1.4700  0.8029
26910SOL    HW283110   5.421   3.535   3.444  0.9291 -0.7609 -0.2084
26911SOL     OW83111   1.446   7.858   3.295 -0.9369  0.2483 -0.0492
26911SOL    HW183112   1.498   7.796   3.345  0.9974  1.2582 -0.6941
26911SOL    HW283113   1.377   7.887   3.355 -1.7507 -2.2546  0.3463
26912SOL     OW83114   3.845   8.738   7.801 -0.3549 -0.3258 -0.0877
26912SOL    HW183115   3.842   8.831   7.781  0.2874 -0.1205  0.7301
26912SOL    HW283116   3.758   8.705   7.776 -0.5086  0.4410 -0.5915
26913SOL     OW83117   2.320   6.818   3.717 -0.1971 -0.2949 -0.0517
26913SOL    HW183118   2.344   6.725   3.718 -1.3306 -0.6106 -0.2465
26913SOL    HW283119   2.231   6.819   3.681 -0.2765  0.8459  0.1441
26914SOL     OW83120   1.396   7.723  10.586 -0.4065  0.4264 -0.5138
26914SOL    HW183121   1.454   7.776  10.640 -1.3928  1.7896 -0.7508
26914SOL    HW283122   1.423   7.633  10.603  0.1058  0.8931  1.3265
26915SOL     OW83123   9.330   3.125   0.504 -0.2121  0.4520 -0.1963
26915SOL    HW183124   9.310   3.160   0.591  2.2426 -0.5866  0.8786
26915SOL    HW283125   9.351   3.033   0.519 -2.3652 -0.5081 -2.3394
26916SOL     OW83126   9.868   3.679   0.214  0.6235  0.5241  0.2025
26916SOL    HW183127   9.777   3.691   0.189 -0.0006 -2.9799  0.3061
26916SOL    HW283128   9.913   3.656   0.133  1.3080  1.5932  0.2618
26917SOL     OW83129  10.441   9.126   2.797 -0.4113 -0.1069  0.3258
26917SOL    HW183130  10.368   9.162   2.847 -0.4565  1.0731 -0.5274
26917SOL    HW283131  10.470   9.199   2.741 -0.8578 -1.5323 -1.9113
26918SOL     OW83132   1.290  10.758   6.946 -0.9418 -0.3299 -0.5955
26918SOL    HW183133   1.329  10.752   7.033  2.5273  1.4737 -1.8642
26918SOL    HW283134   1.214  10.815   6.958 -0.8202 -0.4942  1.2842
26919SOL     OW83135   1.873   2.803   3.218 -0.1006 -0.1211  0.0565
26919SOL    HW183136   1.784   2.773   3.234 -0.1451  0.2527  0.5608
26919SOL    HW283137   1.919   2.788   3.301  0.1758  0.1206 -0.0490
26920SOL     OW83138   4.584   1.096   1.221 -0.4023 -0.1240 -0.0039
26920SOL    HW183139   4.587   1.187   1.252  2.0671  0.3560 -1.3926
26920SOL    HW283140   4.576   1.104   1.126 -0.1409 -1.3567 -0.1423
26921SOL     OW83141   4.476   0.423   6.267  0.5311 -0.3646 -0.0482
26921SOL    HW183142   4.451   0.513   6.290  2.1334 -0.0058  0.4236
26921SOL    HW283143   4.469   0.374   6.350  1.0018 -0.3361  0.0141
26922SOL     OW83144   4.445   1.059   9.312 -0.0130 -0.3419 -0.1264
26922SOL    HW183145   4.456   1.101   9.227 -1.0210 -1.1510 -0.6795
26922SOL    HW283146   4.502   0.982   9.307 -0.0387 -0.3653 -0.0429
26923SOL     OW83147   9.574   4.444   2.030  0.0183 -0.7428  0.2987
26923SOL    HW183148   9.599   4.378   1.965  1.3229  0.0185  0.0013
26923SOL    HW283149   9.485   4.419   2.056 -1.2440 -0.1855 -2.9675
26924SOL     OW83150   9.817   5.721   4.095  0.1527  0.2761 -0.0103
26924SOL    HW183151   9.815   5.657   4.024  0.4221 -0.7064  0.8270
26924SOL    HW283152   9.880   5.684   4.157 -0.1321  1.0699  0.7679
26925SOL     OW83153   4.253   9.407  10.326 -0.1502  0.4068  0.0558
26925SOL    HW183154   4.270   9.454  10.407  2.2856 -1.3191  0.6624
26925SOL    HW283155   4.310   9.330  10.330 -1.3329 -0.7317 -2.4600
26926SOL     OW83156   9.866   1.273   2.334 -0.0242 -0.5942 -0.3868
26926SOL    HW183157   9.861   1.368   2.325 -0.3580 -0.5523  0.2020
26926SOL    HW283158   9.879   1.241   2.245 -3.0304 -0.2043 -1.0733
26927SOL     OW83159   4.864   6.700   4.766 -0.3039 -0.5102  0.5965
26927SOL    HW183160   4.937   6.671   4.711 -0.1947  0.6255  0.1142
26927SOL    HW283161   4.787   6.660   4.726 -0.0194 -1.3342  0.8332
26928SOL     OW83162   1.159  10.433   6.926 -0.1811  0.4442 -0.4513
26928SOL    HW183163   1.102  10.429   6.850 -0.9332  1.9220 -0.0082
26928SOL    HW283164   1.191  10.524   6.928  0.6876  0.1486  0.3810
26929SOL     OW83165   5.432   3.302  10.057 -0.2084  0.0197  0.0512
26929SOL    HW183166   5.465   3.373  10.002 -1.2028  0.8272  0.4545
26929SOL    HW283167   5.471   3.223  10.021 -0.2928  0.6019 -1.3715
26930SOL     OW83168   2.349   8.412   7.000  0.1061  0.1045 -0.4151
26930SOL    HW183169   2.442   8.435   6.997  0.6534 -1.3916  1.9067
26930SOL    HW283170   2.342   8.333   6.946  0.6614 -0.9586  0.9972
26931SOL     OW83171   2.106   6.763  10.252  0.7110 -0.1458 -0.0637
26931SOL    HW183172   2.104   6.857  10.237  2.0107 -0.1352 -0.2396
26931SOL    HW283173   2.179   6.731  10.200 -0.2431 -1.3956 -0.7214
26932SOL     OW83174   5.849   7.326   3.398 -0.1765 -0.3655  0.2862
26932SOL    HW183175   5.835   7.295   3.488 -0.4043  0.7592  0.6563
26932SOL    HW283176   5.933   7.288   3.373  0.8371  0.8200  1.6865
26933SOL     OW83177   3.871  10.784   8.167 -0.7227 -0.1945 -0.1033
26933SOL    HW183178   3.858  10.850   8.234 -1.9109 -1.2410  0.7493
26933SOL    HW283179   3.850  10.828   8.085  1.2755  1.2561  0.1062
26934SOL     OW83180   8.275   1.350   0.103  0.0296  0.1224 -0.1421
26934SOL    HW183181   8.340   1.381   0.041 -0.3693  0.5140 -0.3664
26934SOL    HW283182   8.286   1.406   0.180 -0.9464  1.0888 -0.6902
26935SOL     OW83183   5.206   5.141   8.052  0.2857 -0.3523 -0.0579
26935SOL    HW183184   5.219   5.175   7.964 -1.2233  1.6357  0.4282
26935SOL    HW283185   5.294   5.118   8.081  1.2104  1.5763 -1.1035
26936SOL     OW83186   1.934   8.455   1.527 -0.1291  0.3653 -0.3467
26936SOL    HW183187   1.871   8.456   1.455 -0.7134  0.9685  0.1513
26936SOL    HW283188   1.940   8.547   1.553  0.5123  0.2268 -0.0008
26937SOL     OW83189   3.819   4.849   9.043 -0.5178 -0.3917 -0.2799
26937SOL    HW183190   3.741   4.881   8.997 -1.1683  0.3637  1.2940
26937SOL    HW283191   3.789   4.771   9.090 -0.2775 -0.2077  0.1823
26938SOL     OW83192   9.838   4.240   2.886 -0.4253 -0.1953  0.4681
26938SOL    HW183193   9.917   4.285   2.918 -1.4075  1.2606  0.9413
26938SOL    HW283194   9.868   4.152   2.865  1.7351  0.8146 -1.0540
26939SOL     OW83195   6.994   3.307   6.563  0.0095  0.4947 -0.1764
26939SOL    HW183196   7.019   3.399   6.565 -0.9406  0.7629  0.3193
26939SOL    HW283197   6.949   3.296   6.480 -1.7589  1.0392  0.6510
26940SOL     OW83198   6.965   1.982   0.762  0.5476 -0.1337  0.3048
26940SOL    HW183199   6.910   2.016   0.832 -0.5876 -0.1513 -0.5605
26940SOL    HW283200   7.055   1.998   0.793  0.0958 -0.7547  2.0480
26941SOL     OW83201   6.759   0.120   3.369 -0.1703  0.3203 -0.6020
26941SOL    HW183202   6.733   0.168   3.447 -0.9046 -0.0264 -0.6310
26941SOL    HW283203   6.696   0.146   3.302  0.6184  0.8282 -1.1677
26942SOL     OW83204   5.351   4.838  10.022 -0.1246 -0.4319  0.6653
26942SOL    HW183205   5.438   4.797  10.030  0.2028  0.4802  2.2780
26942SOL    HW283206   5.290   4.764  10.025  0.5530 -1.0014  0.8624
26943SOL     OW83207   9.170   4.810   1.312  0.0777  0.0696  0.0500
26943SOL    HW183208   9.077   4.831   1.308  0.2470  1.3731  1.7815
26943SOL    HW283209   9.214   4.895   1.307  1.1625 -0.4796 -0.1319
26944SOL     OW83210   4.421   3.167   9.904  0.1763  0.2146 -0.3993
26944SOL    HW183211   4.369   3.163   9.824 -0.8693 -0.2436  0.2664
26944SOL    HW283212   4.356   3.157   9.974  1.0847  0.4483  0.4932
26945SOL     OW83213   9.710   5.178   8.482 -0.0483 -0.9606 -1.0786
26945SOL    HW183214   9.710   5.129   8.564  0.5966  1.5079  0.5268
26945SOL    HW283215   9.790   5.150   8.437 -0.1865 -2.0486 -0.6660
26946SOL     OW83216   1.075   6.897   6.805  0.0537  0.3832  0.3213
26946SOL    HW183217   1.055   6.809   6.839  0.1426  0.6014  0.9493
26946SOL    HW283218   1.170   6.897   6.794 -0.0084  0.1968 -0.2756
26947SOL     OW83219   8.247  10.575   0.006 -0.2555 -0.3288  0.2748
26947SOL    HW183220   8.295  10.655   0.027  0.7383 -0.4186 -1.5056
26947SOL    HW283221   8.196  10.597  -0.072 -0.7901 -1.1186  0.3912
26948SOL     OW83222   4.266  10.475   0.747  0.7583 -0.5863 -0.1064
26948SOL    HW183223   4.327  10.518   0.687 -0.4246  0.2897 -0.7351
26948SOL    HW283224   4.315  10.402   0.784  1.8258 -0.5730 -1.4259
26949SOL     OW83225   9.818   8.290   9.061  0.4140 -0.8130 -0.2270
26949SOL    HW183226   9.897   8.253   9.021  1.8771  1.6632  0.2049
26949SOL    HW283227   9.827   8.384   9.049 -2.2317 -0.4168  0.3645
26950SOL     OW83228   6.147   6.267   0.605 -0.4813  0.1493  0.3117
26950SOL    HW183229   6.178   6.354   0.629  1.0878 -0.5418  0.9711
26950SOL    HW283230   6.188   6.209   0.669  0.6009 -1.3373 -1.6273
26951SOL     OW83231   7.062   3.217   3.152  0.7285 -0.0927  0.2707
26951SOL    HW183232   7.109   3.138   3.127  3.3808  1.0234  1.3800
26951SOL    HW283233   7.078   3.278   3.079 -1.6624 -0.6044 -0.7912
26952SOL     OW83234   2.405   8.193   4.783 -0.0234 -0.6047 -0.2161
26952SOL    HW183235   2.454   8.164   4.860  0.5620  0.3319 -0.2221
26952SOL    HW283236   2.446   8.276   4.759  0.1111 -1.1060 -1.8152
26953SOL     OW83237   2.678   4.948   6.514  0.0417 -0.1554 -0.1873
26953SOL    HW183238   2.768   4.943   6.480  0.4286  1.5169  0.4757
26953SOL    HW283239   2.688   4.943   6.609 -0.8613 -2.7713 -0.1494
26954SOL     OW83240  10.385   6.894   6.637 -0.5692  0.3695 -0.3922
26954SOL    HW183241  10.452   6.945   6.682  0.1848  1.1102 -2.2902
26954SOL    HW283242  10.384   6.810   6.684  0.9850  0.6974  0.2920
26955SOL     OW83243   7.200   7.606   7.741  0.0238 -0.5225 -0.0479
26955SOL    HW183244   7.165   7.563   7.663  2.0589 -1.5957 -0.4649
26955SOL    HW283245   7.161   7.559   7.814  0.6768 -1.7834 -0.4875
26956SOL     OW83246   8.369  10.616   2.715  0.0821  0.3581  0.4663
26956SOL    HW183247   8.400  10.597   2.804 -0.0399 -0.2883  0.3699
26956SOL    HW283248   8.406  10.546   2.661 -2.1348 -0.8788  0.4568
26957SOL     OW83249   8.551   4.226   0.574 -0.1755 -0.4658  0.3833
26957SOL    HW183250   8.469   4.198   0.535  1.1161 -0.1365 -2.9110
26957SOL    HW283251   8.608   4.149   0.570  0.6171  0.1334 -0.3166
26958SOL     OW83252   5.282   7.953   0.890 -0.3768  0.7504 -0.0218
26958SOL    HW183253   5.189   7.969   0.872 -0.5228  0.1368  0.1906
26958SOL    HW283254   5.294   7.860   0.875 -0.0484  0.6018  1.1141
26959SOL     OW83255   5.179   7.493   8.109  0.1957 -0.1100 -0.4948
26959SOL    HW183256   5.163   7.410   8.155 -0.7290  0.1992 -0.2285
26959SOL    HW283257   5.105   7.501   8.049  1.7520 -0.8629 -2.6281
26960SOL     OW83258   2.998   0.254   4.415  0.2044  0.0653 -0.1314
26960SOL    HW183259   2.906   0.231   4.424  0.2410  0.5864  2.3325
26960SOL    HW283260   3.003   0.345   4.445  1.5442 -0.0127 -0.0342
26961SOL     OW83261   8.266  10.190   9.588  0.0564  0.6467 -0.0247
26961SOL    HW183262   8.183  10.199   9.541  0.1111 -2.5907 -0.9772
26961SOL    HW283263   8.320  10.136   9.531  1.3505 -0.7291  2.3490
26962SOL     OW83264   2.547   5.913   5.068  0.3006 -0.5846  0.0410
26962SOL    HW183265   2.479   5.858   5.028 -0.5278  0.6757 -0.3508
26962SOL    HW283266   2.542   5.894   5.161 -2.2495  1.1488  0.3679
26963SOL     OW83267   7.481   8.830   9.136 -0.5647  0.0954  0.4016
26963SOL    HW183268   7.441   8.892   9.075 -1.9437  0.4985  1.6564
26963SOL    HW283269   7.561   8.873   9.166 -1.6323  1.4257  1.4560
26964SOL     OW83270   5.513   3.171   6.823 -0.8583  0.4123  0.6062
26964SOL    HW183271   5.493   3.246   6.878 -0.2502  1.0710 -0.0455
26964SOL    HW283272   5.574   3.119   6.875 -3.0344 -0.8575  2.0022
26965SOL     OW83273   7.131   7.380   2.424 -0.1548  0.0246 -0.1760
26965SOL    HW183274   7.180   7.365   2.344  0.2001 -1.7831  0.3461
26965SOL    HW283275   7.064   7.311   2.425  1.0035 -1.1704  1.9413
26966SOL     OW83276   4.606   7.214   5.114  0.5654 -0.1150 -0.3247
26966SOL    HW183277   4.644   7.298   5.089 -0.6724  0.0621 -1.7754
26966SOL    HW283278   4.563   7.231   5.198  1.2891  0.3873 -0.0482
26967SOL     OW83279   5.000   9.204   2.347 -0.0380  0.2438  0.4193
26967SOL    HW183280   5.063   9.235   2.282 -2.0105  4.3025  0.0934
26967SOL    HW283281   5.045   9.212   2.431  1.3556 -1.5853 -0.1009
26968SOL     OW83282   9.874   0.302   0.553 -0.1818 -0.2596  0.1201
26968SOL    HW183283   9.931   0.248   0.498 -0.2365 -1.5789  1.2902
26968SOL    HW283284   9.786   0.270   0.534 -0.3049  0.1086  0.0761
26969SOL     OW83285  10.754   9.372   8.176 -0.0716  0.4947  0.7664
26969SOL    HW183286  10.693   9.439   8.205  0.2863  0.1838  2.3339
26969SOL    HW283287  10.710   9.289   8.197 -0.5750  0.2000 -1.2764
26970SOL     OW83288   8.826   1.479   4.228 -0.0034  0.0460  0.0266
26970SOL    HW183289   8.876   1.411   4.183  1.6982 -0.2768  2.2145
26970SOL    HW283290   8.891   1.523   4.283 -1.6159  1.5879  0.7897
26971SOL     OW83291   4.801  10.124   3.893 -0.2197 -0.1843  0.9738
26971SOL    HW183292   4.725  10.133   3.950 -0.7866  0.6482  0.1150
26971SOL    HW283293   4.799  10.033   3.865 -1.9463  0.2445 -0.4375
26972SOL     OW83294   8.553   8.571   9.194  0.0532 -0.2101 -0.2853
26972SOL    HW183295   8.567   8.538   9.282  1.4759 -0.0010 -0.4167
26972SOL    HW283296   8.605   8.513   9.138 -0.9247 -0.4223 -1.0254
26973SOL     OW83297   6.961   3.718   2.282  0.1079  0.0749  0.0745
26973SOL    HW183298   6.989   3.683   2.198  1.3890 -0.1170  0.5674
26973SOL    HW283299   6.962   3.642   2.341  0.4436  0.4460  0.5534
26974SOL     OW83300  10.158   4.780   3.058 -0.1175  0.0509 -0.5534
26974SOL    HW183301  10.182   4.781   2.965  0.8068  1.0035 -0.3224
26974SOL    HW283302  10.241   4.767   3.104 -0.6580 -1.1625  0.1377
26975SOL     OW83303   5.832   7.442   8.157 -0.0412  0.3903 -0.8197
26975SOL    HW183304   5.770   7.374   8.134 -0.6194  0.5012  0.3612
26975SOL    HW283305   5.784   7.500   8.216  1.4896 -0.1415  1.0552
26976SOL     OW83306   3.797   1.531   5.167 -0.5202 -0.1687  0.8344
26976SOL    HW183307   3.876   1.583   5.156  0.5600 -1.7144  0.9328
26976SOL    HW283308   3.753   1.570   5.242 -1.3222  2.4254 -0.8411
26977SOL     OW83309   1.685   9.037  10.681 -0.3432 -0.3974  0.6614
26977SOL    HW183310   1.745   9.023  10.754  0.2773  1.8049  0.6379
26977SOL    HW283311   1.603   9.065  10.723  0.5515  2.7128  0.5780
26978SOL     OW83312   8.015   0.841   7.685  0.1222  0.0476  0.1897
26978SOL    HW183313   8.048   0.873   7.601 -2.5858  1.9620 -0.2896
26978SOL    HW283314   8.032   0.912   7.747 -0.6282 -0.0561  0.5288
26979SOL     OW83315   0.251   2.825   7.149  0.1018 -0.3002 -0.1985
26979SOL    HW183316   0.189   2.752   7.147 -1.2441  0.7415  1.8430
26979SOL    HW283317   0.201   2.901   7.121  0.9972  0.2215 -0.4329
26980SOL     OW83318   9.297   2.014   8.425 -0.6034 -0.3271  0.0723
26980SOL    HW183319   9.235   2.051   8.489  0.5815 -1.2350  1.8444
26980SOL    HW283320   9.383   2.046   8.454 -0.1717  0.6884 -2.1703
26981SOL     OW83321   9.179   9.903   1.951 -0.4660  0.0347  0.4670
26981SOL    HW183322   9.159   9.952   1.871 -0.8205  1.0798  1.1638
26981SOL    HW283323   9.198   9.971   2.016 -1.9853 -0.7079  1.7533
26982SOL     OW83324   8.823   2.302   1.033  0.0726 -0.2685  0.1690
26982SOL    HW183325   8.833   2.207   1.029 -1.4373 -0.5153  1.3627
26982SOL    HW283326   8.787   2.319   1.120  0.7704  1.4552  0.1630
26983SOL     OW83327   3.482   1.578   2.202 -0.2047 -0.3333 -0.5083
26983SOL    HW183328   3.458   1.550   2.114 -1.8841 -0.4767 -0.0400
26983SOL    HW283329   3.577   1.569   2.205 -0.1320 -0.5029 -2.2313
26984SOL     OW83330   5.530   2.778   1.775  0.1854 -0.0286 -0.5660
26984SOL    HW183331   5.554   2.722   1.849 -1.2619 -0.2493 -0.2374
26984SOL    HW283332   5.446   2.743   1.744 -0.4719  1.6061 -0.7215
26985SOL     OW83333   3.409   5.037   3.322  0.1110  0.6966 -0.1379
26985SOL    HW183334   3.388   5.126   3.350  1.4724  1.1049 -0.3313
26985SOL    HW283335   3.324   4.996   3.303 -0.6204  1.4486  1.4139
26986SOL     OW83336   9.415   4.718   0.789 -0.1546 -0.2716 -0.4681
26986SOL    HW183337   9.413   4.650   0.721  0.3808  0.1830 -0.9522
26986SOL    HW283338   9.348   4.781   0.761 -0.9074 -0.7738  0.1757
26987SOL     OW83339   3.548   2.032   8.564 -0.1496  0.4055  0.5109
26987SOL    HW183340   3.622   1.985   8.602 -1.4383 -0.7832  1.6779
26987SOL    HW283341   3.565   2.033   8.470 -0.9367 -4.1772  0.1091
26988SOL     OW83342   5.143   2.182   0.163  0.0117 -0.2741  0.4045
26988SOL    HW183343   5.233   2.209   0.179  0.2311 -1.1169  0.6528
26988SOL    HW283344   5.089   2.256   0.192  0.5086 -0.7363  2.6783
26989SOL     OW83345   3.007  10.303   7.958  0.3632  0.0885  0.5926
26989SOL    HW183346   2.985  10.279   7.868  0.3892 -0.5461  0.7491
26989SOL    HW283347   2.927  10.284   8.008  0.3010  0.5770  0.6804
26990SOL     OW83348   3.512   9.048   5.099  0.3507 -0.2639  0.2842
26990SOL    HW183349   3.517   9.030   5.006 -3.1849 -2.4777  0.3295
26990SOL    HW283350   3.523   8.963   5.141 -0.3883  0.3150  1.7265
26991SOL     OW83351   0.199   0.510   5.445  0.3580  0.0366  0.0581
26991SOL    HW183352   0.269   0.549   5.392  0.7786 -0.1094  0.4994
26991SOL    HW283353   0.145   0.585   5.472 -0.4270  0.0167 -1.3674
26992SOL     OW83354  10.181   5.442   6.812 -0.2182  0.2885  0.3014
26992SOL    HW183355  10.094   5.479   6.826  0.0278  0.4400  1.5014
26992SOL    HW283356  10.205   5.471   6.723 -0.8391  1.3617  0.4673
26993SOL     OW83357   5.433   9.273   1.964 -0.2847  0.0568  0.1945
26993SOL    HW183358   5.418   9.367   1.968 -1.0336 -0.0627  0.2829
26993SOL    HW283359   5.346   9.234   1.965 -0.0397 -0.5940 -1.1119
26994SOL     OW83360   6.894   9.494   0.678  0.1011 -0.2312 -0.1776
26994SOL    HW183361   6.841   9.467   0.753  1.6277  1.0125  1.4394
26994SOL    HW283362   6.866   9.583   0.659  0.6847 -0.0384 -0.1642
26995SOL     OW83363   4.335   0.019   2.331 -0.7383  0.3473  0.4313
26995SOL    HW183364   4.427   0.047   2.334 -0.8834  1.2671 -1.7687
26995SOL    HW283365   4.323  -0.030   2.411  1.4437  0.9427  1.2092
26996SOL     OW83366   4.108   8.278   4.481 -0.5692 -0.1353 -0.3468
26996SOL    HW183367   4.038   8.214   4.470 -1.6046  1.0927 -1.1747
26996SOL    HW283368   4.074   8.358   4.441  1.7543  0.2025 -1.8320
26997SOL     OW83369   1.413   0.405   9.774  0.0114 -0.0244  0.1148
26997SOL    HW183370   1.443   0.340   9.711  1.2759 -0.5229  1.1972
26997SOL    HW283371   1.338   0.364   9.818 -1.3474  0.6005 -1.4834
26998SOL     OW83372   5.170   7.105  10.401  0.5554  0.2578 -0.2717
26998SOL    HW183373   5.085   7.065  10.420  0.7450  0.3967  0.9248
26998SOL    HW283374   5.149   7.196  10.379  0.4821  0.6139  1.2065
26999SOL     OW83375   1.995   6.305   9.640  0.3393 -0.1055  0.5383
26999SOL    HW183376   2.084   6.339   9.651  0.7890 -1.1603  0.2745
26999SOL    HW283377   2.006   6.210   9.636 -0.4684 -0.1857 -2.2423
27000SOL     OW83378   0.229   0.914   6.507  0.0355 -0.0396  0.3543
27000SOL    HW183379   0.287   0.859   6.559 -1.4882  0.1195  2.3797
27000SOL    HW283380   0.150   0.862   6.495  0.3459 -0.0885 -1.9613
27001SOL     OW83381   5.534   8.141   6.732 -0.0296  0.8163 -0.1798
27001SOL    HW183382   5.467   8.142   6.800  2.5725 -1.6533  2.7066
27001SOL    HW283383   5.507   8.071   6.672 -0.0170 -0.2624  1.0366
27002SOL     OW83384   7.775   7.676   3.017  0.0859  0.7470 -0.2796
27002SOL    HW183385   7.704   7.701   2.959  0.5198  0.0428 -1.1301
27002SOL    HW283386   7.850   7.661   2.959  1.1273  2.0898  0.6344
27003SOL     OW83387   5.963   4.454   1.115  0.5396 -0.7151  0.1022
27003SOL    HW183388   5.880   4.498   1.095 -0.7819 -1.5875  3.1939
27003SOL    HW283389   5.970   4.385   1.050 -2.0726 -1.6933  0.7652
27004SOL     OW83390  10.009   0.080   8.679  0.3149  0.2072 -0.4135
27004SOL    HW183391  10.000   0.034   8.763 -0.7557 -0.9940 -1.1442
27004SOL    HW283392  10.042   0.167   8.703  0.9335 -0.4173  1.1544
27005SOL     OW83393   3.924   2.963   9.449  1.0093  0.1116  0.5906
27005SOL    HW183394   3.884   3.050   9.440  0.6271  0.0259  1.3620
27005SOL    HW283395   3.912   2.922   9.363  2.2664  1.2519 -0.1664
27006SOL     OW83396   3.045   2.804   0.748  0.1812 -0.6140  0.3493
27006SOL    HW183397   2.959   2.833   0.716  1.8134  2.4928 -1.8320
27006SOL    HW283398   3.076   2.877   0.801  3.1213  0.4750 -2.5220
27007SOL     OW83399   8.506  10.330   5.571  0.3102 -0.2338  0.2746
27007SOL    HW183400   8.465  10.415   5.555  2.9842  1.1720  0.2946
27007SOL    HW283401   8.569  10.321   5.500  0.8003 -1.7221  0.8709
27008SOL     OW83402   7.078   5.452   8.801  0.5376 -0.6292  0.3473
27008SOL    HW183403   7.018   5.488   8.735  0.4348 -0.6244  0.4428
27008SOL    HW283404   7.043   5.484   8.885  0.9690 -0.2028  0.3692
27009SOL     OW83405   5.403  10.344   4.855  0.0213 -0.1486 -0.4304
27009SOL    HW183406   5.462  10.418   4.844 -1.0619  0.8407  0.1684
27009SOL    HW283407   5.404  10.299   4.770  1.3015  0.0631 -0.5476
27010SOL     OW83408   8.481   0.834   4.493  0.1689  0.1642  0.0531
27010SOL    HW183409   8.496   0.859   4.402  0.4046  1.1214  0.3399
27010SOL    HW283410   8.566   0.846   4.536 -0.0028 -0.0169  0.4585
27011SOL     OW83411   5.436   5.085  10.749  0.3958  0.3738 -0.2151
27011SOL    HW183412   5.446   5.176  10.776  2.2098  0.0924  0.1454
27011SOL    HW283413   5.411   5.090  10.657  0.9521  1.2325 -0.3317
27012SOL     OW83414   6.979   9.518   6.313  0.6256  0.3890 -0.2065
27012SOL    HW183415   6.973   9.579   6.387  0.2892  0.9957 -0.7198
27012SOL    HW283416   6.898   9.533   6.264  0.2747 -0.8765 -0.0499
27013SOL     OW83417   5.962   2.715   8.449 -0.2619  0.1490 -0.2086
27013SOL    HW183418   5.989   2.752   8.534  1.0830  1.5983 -1.2067
27013SOL    HW283419   6.001   2.628   8.448 -0.4267  0.0543  0.7233
27014SOL     OW83420   7.651   8.969   1.164  0.0962  0.6036 -0.1270
27014SOL    HW183421   7.599   9.022   1.225 -0.9057  0.1821 -0.5929
27014SOL    HW283422   7.661   8.885   1.208 -0.8037  0.2300 -0.6087
27015SOL     OW83423   1.752   7.256   1.968 -0.1160 -0.2865 -0.4072
27015SOL    HW183424   1.815   7.199   2.013 -0.2879 -1.4463 -1.6001
27015SOL    HW283425   1.789   7.344   1.979 -0.2898 -0.4596  2.2074
27016SOL     OW83426   0.451   3.401   2.261  0.4490  0.1338 -0.6619
27016SOL    HW183427   0.477   3.311   2.283 -0.7057 -0.1043 -0.2374
27016SOL    HW283428   0.399   3.430   2.336 -0.2490  0.7123 -1.3567
27017SOL     OW83429   1.991   9.340   4.097  0.1986 -0.6243  0.2145
27017SOL    HW183430   2.000   9.413   4.159  1.6872  0.2472 -0.9650
27017SOL    HW283431   2.067   9.285   4.115  0.8662 -0.1519 -1.0903
27018SOL     OW83432   9.057   2.421   0.659  0.0717  0.1958  0.3089
27018SOL    HW183433   9.048   2.496   0.601  2.2291 -1.2610 -2.1705
27018SOL    HW283434   9.103   2.455   0.735 -1.2373  1.8282  0.4232
27019SOL     OW83435   0.202   3.170   3.616  0.2326  0.1854  0.6823
27019SOL    HW183436   0.145   3.095   3.601  0.6723  0.1835 -1.2306
27019SOL    HW283437   0.145   3.246   3.610  0.1180  0.0917  0.5682
27020SOL     OW83438   8.303   9.606   7.505  0.0339  0.5089  0.5759
27020SOL    HW183439   8.389   9.569   7.483  0.0528  0.4047  0.8189
27020SOL    HW283440   8.246   9.578   7.434 -0.3822 -1.5212  1.6289
27021SOL     OW83441   8.886   8.736   8.447 -0.2217 -0.0204 -0.1142
27021SOL    HW183442   8.871   8.706   8.358  0.7836 -2.7691  0.5342
27021SOL    HW283443   8.853   8.826   8.449 -1.2249 -0.2521 -2.9311
27022SOL     OW83444   0.848   1.455  10.729  0.0229 -0.0850 -0.3614
27022SOL    HW183445   0.899   1.494  10.658 -1.3364  1.4308 -0.5672
27022SOL    HW283446   0.913   1.410  10.783  1.3978  0.7489 -1.2544
27023SOL     OW83447  10.183   9.304   7.900 -0.0978 -0.0781 -0.1561
27023SOL    HW183448  10.138   9.307   7.985  0.4678 -0.2682  0.1531
27023SOL    HW283449  10.275   9.314   7.922  0.0250  0.1595 -0.7776
27024SOL     OW83450   8.185   6.952   1.506  0.2146  0.3277 -0.2494
27024SOL    HW183451   8.168   6.859   1.517  0.5690  0.4787  2.2329
27024SOL    HW283452   8.271   6.966   1.546  0.2234  1.7042 -0.6763
27025SOL     OW83453   4.657   1.854  10.576 -0.0725 -0.4678 -0.0309
27025SOL    HW183454   4.676   1.808  10.658  0.9428 -0.8148 -0.4404
27025SOL    HW283455   4.600   1.795  10.528 -0.7888 -0.2021  0.4747
27026SOL     OW83456   7.963   6.198   1.982  0.4344 -0.0981  0.2577
27026SOL    HW183457   7.926   6.286   1.982  0.8867  0.0996  0.8091
27026SOL    HW283458   8.057   6.212   1.992  0.9593 -0.4928 -3.0186
27027SOL     OW83459   6.320   5.013   9.630 -0.1255  0.2203 -1.0054
27027SOL    HW183460   6.311   4.921   9.605  1.5866 -0.2122 -0.2093
27027SOL    HW283461   6.336   5.058   9.547  1.0984 -0.5352 -1.2090
27028SOL     OW83462   4.649   0.345   5.649  0.2707 -0.4565 -0.1545
27028SOL    HW183463   4.734   0.374   5.682  0.0660  1.0330 -0.8758
27028SOL    HW283464   4.663   0.331   5.555 -0.3038 -0.0616 -0.3050
27029SOL     OW83465   2.057   0.211   6.833 -0.7768 -0.5011 -0.0774
27029SOL    HW183466   1.979   0.201   6.779 -2.1310  2.4659  1.0652
27029SOL    HW283467   2.040   0.156   6.910  0.1675 -2.9842 -1.5270
27030SOL     OW83468   9.491  10.693   8.182 -0.2363 -0.7281 -0.4562
27030SOL    HW183469   9.401  10.673   8.158 -0.3276  0.6262 -1.3826
27030SOL    HW283470   9.534  10.713   8.098  0.5043  0.1563  0.1165
27031SOL     OW83471   4.976   1.727   2.886 -0.0816  0.1866 -0.7369
27031SOL    HW183472   4.897   1.756   2.932 -0.6083 -0.6665 -1.0771
27031SOL    HW283473   4.974   1.632   2.895  0.7284  0.1410 -1.0539
27032SOL     OW83474   2.267   5.073   5.363  0.2745  0.0480  0.2564
27032SOL    HW183475   2.320   5.117   5.297 -0.1117 -0.2327 -0.2531
27032SOL    HW283476   2.329   5.049   5.432  0.7993 -0.2195 -0.3017
27033SOL     OW83477   6.877   1.462   5.540  0.1047 -0.3174  0.2325
27033SOL    HW183478   6.934   1.533   5.510  1.2626 -1.2747  0.1161
27033SOL    HW283479   6.823   1.503   5.608  0.2440  0.8484 -0.3231
27034SOL     OW83480   7.506   9.553   4.535 -0.1571  0.1598 -0.2191
27034SOL    HW183481   7.493   9.544   4.629  2.8121 -1.8963  0.1309
27034SOL    HW283482   7.483   9.468   4.499  2.2282 -0.3204 -0.7727
27035SOL     OW83483   4.031   4.709   6.680 -0.5720  0.4759  0.0804
27035SOL    HW183484   3.998   4.625   6.712 -1.6825  1.1726  0.8278
27035SOL    HW283485   4.109   4.687   6.630 -0.0445 -0.8672  1.4396
27036SOL     OW83486   2.885   0.227  10.692  0.2819 -0.7515 -0.3429
27036SOL    HW183487   2.965   0.279  10.681  0.6052 -0.7588  1.5658
27036SOL    HW283488   2.854   0.250  10.780 -0.5455 -2.4387 -0.1609
27037SOL     OW83489   8.666  10.789   3.216  0.2324  0.2646  0.0008
27037SOL    HW183490   8.581  10.747   3.233 -0.2481  0.4810 -1.7164
27037SOL    HW283491   8.720  10.764   3.291 -1.5895  0.8314  1.6006
27038SOL     OW83492   8.126   4.788   1.643  0.2521 -0.3061 -0.0925
27038SOL    HW183493   8.040   4.813   1.677  0.6306 -0.5939  1.1014
27038SOL    HW283494   8.186   4.853   1.678  0.4261  0.4423 -1.6700
27039SOL     OW83495   3.606   0.988   7.910  0.1397  0.5880 -0.2691
27039SOL    HW183496   3.594   0.897   7.884  0.2456  0.3894  0.3545
27039SOL    HW283497   3.681   1.018   7.858  0.3951  0.1790 -0.1375
27040SOL     OW83498   8.033   7.733   1.282  0.5152 -0.0387 -0.2499
27040SOL    HW183499   8.113   7.685   1.303  0.5982  0.4035  0.4879
27040SOL    HW283500   8.048   7.767   1.194  0.3968 -1.4623 -0.8381
27041SOL     OW83501   5.742   2.427   4.312  0.1770 -0.2836 -0.1153
27041SOL    HW183502   5.649   2.451   4.317 -0.2167 -1.5627 -0.7530
27041SOL    HW283503   5.756   2.369   4.387  0.2682 -0.6810 -0.4375
27042SOL     OW83504   8.795   2.488   3.000 -0.2038 -0.3539 -0.0255
27042SOL    HW183505   8.796   2.456   3.090  0.7021 -0.0009  0.1059
27042SOL    HW283506   8.830   2.577   3.006 -2.8451  0.7840 -0.3585
27043SOL     OW83507   3.589   1.608   3.524  0.7474  0.1141 -0.1647
27043SOL    HW183508   3.496   1.631   3.523  0.0524 -2.3523  0.0993
27043SOL    HW283509   3.622   1.645   3.605 -0.1148  0.6831 -0.0598
27044SOL     OW83510   7.639   4.386   7.861 -0.5232  0.0891  0.0252
27044SOL    HW183511   7.564   4.359   7.808 -1.1119  0.1351  0.8118
27044SOL    HW283512   7.645   4.481   7.849 -1.0200  0.1828  0.4957
27045SOL     OW83513   3.215   8.772   3.822 -0.0609 -0.3574  0.2793
27045SOL    HW183514   3.164   8.846   3.854 -0.2714 -0.6290  0.5778
27045SOL    HW283515   3.286   8.762   3.885 -0.1047 -0.4856  0.3102
27046SOL     OW83516   9.433   5.035   9.640 -0.1157 -0.1244  0.4776
27046SOL    HW183517   9.433   4.983   9.560 -0.5895 -0.3538  0.6250
27046SOL    HW283518   9.515   5.085   9.635 -1.0770  1.4076 -1.1463
27047SOL     OW83519   1.304   2.957   4.443  0.6985  0.3316  0.2738
27047SOL    HW183520   1.323   2.863   4.445  0.5963  0.1495 -2.8328
27047SOL    HW283521   1.224   2.967   4.494  0.3461 -1.3723  0.1020
27048SOL     OW83522   3.071   4.681  10.048 -0.2185 -0.1916  0.1037
27048SOL    HW183523   3.156   4.696  10.007 -0.0305 -0.0299  0.5498
27048SOL    HW283524   3.091   4.631  10.127 -0.4542  0.4803  0.5993
27049SOL     OW83525  10.074   3.047   2.084  0.4287 -0.1064 -0.4066
27049SOL    HW183526  10.009   3.088   2.142 -0.4510 -0.3173 -1.2055
27049SOL    HW283527  10.093   3.115   2.018  2.0144  0.4142  0.5395
27050SOL     OW83528   1.297   3.266   4.141  1.1088  0.1536 -0.0570
27050SOL    HW183529   1.306   3.355   4.107 -1.0590 -0.0093 -1.2253
27050SOL    HW283530   1.261   3.277   4.229  1.9197  0.4226  0.2578
27051SOL     OW83531   2.224   2.111  10.497  0.0125  0.2490 -0.3061
27051SOL    HW183532   2.253   2.037  10.550  0.6613  1.8407  1.7133
27051SOL    HW283533   2.228   2.080  10.407  0.0567 -2.2038  0.4866
27052SOL     OW83534   4.108   1.841   1.084 -0.3503  0.2255  0.4359
27052SOL    HW183535   4.082   1.874   0.998 -1.0240 -0.5822  0.3238
27052SOL    HW283536   4.033   1.859   1.141 -0.2257  0.0182  0.6682
27053SOL     OW83537   7.563   1.306   0.314 -0.2208  0.0642  0.2793
27053SOL    HW183538   7.620   1.243   0.358 -1.1466 -0.6694  0.4540
27053SOL    HW283539   7.494   1.324   0.377  0.0397  1.2909  0.2366
27054SOL     OW83540   2.920   4.976   6.384  0.0897  0.2822 -0.1626
27054SOL    HW183541   2.966   4.957   6.466  0.8124 -0.2812 -0.6903
27054SOL    HW283542   2.962   4.920   6.319  1.9085  3.1115 -1.6663
27055SOL     OW83543   3.187  10.655   5.715 -0.2851  0.0069 -0.7957
27055SOL    HW183544   3.115  10.697   5.762 -1.5409 -1.0464 -1.7037
27055SOL    HW283545   3.158  10.565   5.702  0.7022 -0.1521 -2.1602
27056SOL     OW83546   5.601   5.865   8.970  0.0753 -0.1467  0.9216
27056SOL    HW183547   5.600   5.958   8.947  0.3620 -0.4841 -0.5395
27056SOL    HW283548   5.515   5.833   8.943  0.4050 -0.5403  0.2980
27057SOL     OW83549   6.928   1.705   7.816  0.4858  0.0864 -0.3184
27057SOL    HW183550   6.932   1.772   7.747  0.6669 -0.2117 -0.6018
27057SOL    HW283551   7.015   1.665   7.815 -0.3647 -1.9217 -1.9322
27058SOL     OW83552   1.901   1.703   4.709 -0.0322 -0.5615 -0.0347
27058SOL    HW183553   1.928   1.743   4.626 -1.9121 -2.8239 -1.8834
27058SOL    HW283554   1.935   1.762   4.776  2.7919  0.6502 -2.3253
27059SOL     OW83555   9.890   9.151   1.918  0.4339 -0.3439  0.6071
27059SOL    HW183556   9.862   9.061   1.932 -0.6502 -0.1325 -0.1351
27059SOL    HW283557   9.817   9.204   1.950  0.5361  0.2486 -0.1240
27060SOL     OW83558   6.439   7.816   8.672 -0.0736 -0.2795  0.0690
27060SOL    HW183559   6.458   7.878   8.742 -1.4511 -0.7044  0.8575
27060SOL    HW283560   6.515   7.758   8.670  0.4172  0.3359  0.5353
27061SOL     OW83561   7.304   7.359   7.468 -0.0991 -0.4129 -0.6390
27061SOL    HW183562   7.216   7.376   7.502 -0.1208 -0.9642 -0.4118
27061SOL    HW283563   7.290   7.307   7.389  0.0454 -1.1461 -0.1937
27062SOL     OW83564   6.911   0.139   6.305 -0.3306  0.0064  0.1152
27062SOL    HW183565   6.936   0.220   6.349 -1.8647  3.4260 -4.4751
27062SOL    HW283566   6.994   0.103   6.272  0.1153  2.5311 -1.8066
27063SOL     OW83567  10.754   7.735   2.918  0.0881  0.6369  0.4695
27063SOL    HW183568  10.697   7.747   2.842  1.2557  0.3072 -0.4812
27063SOL    HW283569  10.729   7.650   2.953  0.3210  0.2791 -0.2246
27064SOL     OW83570   8.637   6.073   1.567  0.0910  0.8655 -0.2142
27064SOL    HW183571   8.718   6.116   1.594 -0.4539 -0.0453  3.3905
27064SOL    HW283572   8.665   6.010   1.500  2.8512 -0.8820  2.3264
27065SOL     OW83573   5.496   8.463   8.318 -0.0133 -0.2969 -0.6845
27065SOL    HW183574   5.583   8.447   8.281 -0.1152  1.3515 -1.7301
27065SOL    HW283575   5.498   8.554   8.347 -0.8174 -0.7775  1.0096
27066SOL     OW83576   7.922   8.911   4.221  0.1358 -0.3919 -0.8585
27066SOL    HW183577   7.939   8.939   4.131 -0.1211  0.6048 -0.6123
27066SOL    HW283578   7.854   8.971   4.253  1.8149  0.8153  0.7221
27067SOL     OW83579   7.489   7.535   9.169 -0.1463  0.0129  0.7141
27067SOL    HW183580   7.464   7.623   9.141  1.1801  0.1711 -0.0351
27067SOL    HW283581   7.508   7.544   9.262  2.9846  1.2630  0.0489
27068SOL     OW83582   4.131   3.292   2.341 -0.2806  0.1702  0.1827
27068SOL    HW183583   4.139   3.334   2.255  1.9577 -0.9902 -0.2457
27068SOL    HW283584   4.068   3.222   2.327 -1.2107  1.0233 -0.0449
27069SOL     OW83585   2.590   3.690   2.514 -0.3468 -0.7635  0.1583
27069SOL    HW183586   2.685   3.687   2.506 -0.2642 -1.2424  1.1884
27069SOL    HW283587   2.559   3.626   2.450  0.0527 -0.9257  0.1206
27070SOL     OW83588   4.312   3.475   7.786  0.3369 -0.6246  0.2066
27070SOL    HW183589   4.267   3.438   7.862  0.6982  0.5066  1.0063
27070SOL    HW283590   4.373   3.407   7.758  0.5446 -0.8855  1.2453
27071SOL     OW83591   2.690   7.367   8.960  0.0090 -0.0601 -0.0511
27071SOL    HW183592   2.708   7.455   8.993 -2.2848  0.6502 -0.5548
27071SOL    HW283593   2.597   7.353   8.978 -0.0913 -1.6822 -1.5688
27072SOL     OW83594   2.142   3.327   1.176  0.4270 -0.1930 -0.1172
27072SOL    HW183595   2.100   3.269   1.112 -0.9449  0.1499  0.4408
27072SOL    HW283596   2.130   3.415   1.140 -1.1113  0.0892  0.9640
27073SOL     OW83597   4.317   2.420   5.267 -0.0068 -0.0952 -0.0219
27073SOL    HW183598   4.289   2.448   5.180 -0.0589 -1.6083 -0.5286
27073SOL    HW283599   4.347   2.500   5.310  0.7338  0.5605 -1.6875
27074SOL     OW83600   5.259  10.334   7.646 -0.2437  0.1553  0.0571
27074SOL    HW183601   5.285  10.285   7.725  0.2890 -0.6643 -0.5981
27074SOL    HW283602   5.224  10.267   7.588  2.3573  0.1391 -1.6701
27075SOL     OW83603   3.113   4.458   8.790 -0.5784  0.2551 -0.4003
27075SOL    HW183604   3.159   4.374   8.783  0.4449  0.6547  0.9135
27075SOL    HW283605   3.021   4.434   8.800 -0.7069 -0.5763 -2.9543
27076SOL     OW83606   5.946   8.217  10.616  0.3944 -0.4079  0.0840
27076SOL    HW183607   5.941   8.224  10.712  1.0341  1.5718  0.0214
27076SOL    HW283608   5.867   8.170  10.592  0.5489 -1.5479  1.6333
27077SOL     OW83609   1.008   9.151   7.749  0.1336 -0.7889  0.1353
27077SOL    HW183610   0.988   9.183   7.837 -1.3432 -3.2186  0.7763
27077SOL    HW283611   1.103   9.134   7.752 -0.1068 -2.2016  1.8221
27078SOL     OW83612   7.407   1.052   7.290  0.4318 -0.7011  0.9763
27078SOL    HW183613   7.377   1.128   7.240 -0.2671 -0.0714  2.3049
27078SOL    HW283614   7.344   0.983   7.268  2.2957 -1.6425 -1.9309
27079SOL     OW83615   7.774   2.554   8.080  0.2172 -0.6744 -0.0722
27079SOL    HW183616   7.761   2.618   8.150 -0.6781 -0.3897 -0.4919
27079SOL    HW283617   7.785   2.471   8.127  1.5082 -0.2174  0.4783
27080SOL     OW83618  10.603  10.050   1.803 -0.7653 -0.4154 -0.2841
27080SOL    HW183619  10.649  10.054   1.887 -0.0950  0.6940 -0.6830
27080SOL    HW283620  10.648   9.980   1.755 -2.1339 -2.1357  0.8032
27081SOL     OW83621   5.882   4.705   2.596  0.6452  0.3800 -0.7833
27081SOL    HW183622   5.835   4.640   2.544  0.8791  1.1020 -1.9265
27081SOL    HW283623   5.813   4.758   2.635  0.2252 -2.5648  3.0777
27082SOL     OW83624   4.080  10.531   2.493  0.4577 -0.4465  0.2344
27082SOL    HW183625   4.112  10.611   2.451  2.1764 -1.1141  0.1851
27082SOL    HW283626   4.059  10.472   2.421 -0.5781 -0.1462  0.2759
27083SOL     OW83627   4.343   3.330   7.039  0.5514  0.5255 -0.1313
27083SOL    HW183628   4.380   3.363   7.120 -0.3361 -0.8982  0.8976
27083SOL    HW283629   4.417   3.324   6.979  1.2471  1.4307  0.6046
27084SOL     OW83630   4.773   3.709   8.620  0.4094  0.5115 -0.1482
27084SOL    HW183631   4.839   3.767   8.659  1.1912  1.4690 -2.6994
27084SOL    HW283632   4.792   3.623   8.656  2.2151  1.0284  0.2229
27085SOL     OW83633  10.261   4.787   7.486 -0.5180  0.3264 -0.0768
27085SOL    HW183634  10.353   4.794   7.458  0.3623  1.4754  2.7147
27085SOL    HW283635  10.211   4.809   7.408  1.6189  0.8092 -1.4196
27086SOL     OW83636   7.004   5.307   5.046  0.3229  0.1326 -0.2030
27086SOL    HW183637   7.094   5.285   5.070  0.6136 -2.7663 -3.1830
27086SOL    HW283638   7.012   5.386   4.992  1.3907 -0.9593 -1.7416
27087SOL     OW83639   5.761   0.838   8.811  0.0570 -0.4940 -0.4277
27087SOL    HW183640   5.713   0.782   8.750  0.3410 -0.5146 -0.6347
27087SOL    HW283641   5.747   0.927   8.778 -1.5081 -0.2884  0.6634
27088SOL     OW83642   2.886  10.765   5.858 -0.1075 -0.5645 -0.9825
27088SOL    HW183643   2.855  10.740   5.771  0.6523  1.0446 -1.7563
27088SOL    HW283644   2.835  10.843   5.881 -1.4811 -1.8866  0.7856
27089SOL     OW83645   8.376   9.482   1.977 -0.7937  0.0368  0.0336
27089SOL    HW183646   8.376   9.411   2.042 -1.6009 -0.1711 -0.1920
27089SOL    HW283647   8.367   9.437   1.893 -0.2503  0.3405 -0.1911
27090SOL     OW83648   9.721   5.701   6.169  0.6933  0.1788 -0.5349
27090SOL    HW183649   9.755   5.727   6.254  2.6852  0.5739 -1.3923
27090SOL    HW283650   9.669   5.776   6.141 -0.1196 -0.0234  0.3902
27091SOL     OW83651   0.652  10.659   3.624  0.7608 -0.0832 -0.2380
27091SOL    HW183652   0.650  10.668   3.720  0.9566 -1.6899 -0.0612
27091SOL    HW283653   0.569  10.618   3.602  1.1377 -0.6504 -0.6356
27092SOL     OW83654   7.683   4.219   4.725  0.7192  0.3538  0.0674
27092SOL    HW183655   7.765   4.219   4.676  0.4205  2.1368 -0.5031
27092SOL    HW283656   7.617   4.247   4.661 -0.5918 -2.1739  0.1765
27093SOL     OW83657   3.357   8.082   2.698 -0.5266 -0.1089 -0.4928
27093SOL    HW183658   3.337   8.026   2.773  0.4812 -0.5808 -0.5655
27093SOL    HW283659   3.396   8.024   2.634 -0.4212  0.4904 -0.9832
27094SOL     OW83660   1.306   6.126   7.650 -0.4301 -0.1911 -0.2366
27094SOL    HW183661   1.256   6.204   7.625 -0.7105 -0.2102  0.2459
27094SOL    HW283662   1.248   6.053   7.629 -0.4878 -0.2273  0.0376
27095SOL     OW83663   5.943   9.659   3.585 -0.3147  1.1228  0.0424
27095SOL    HW183664   5.999   9.655   3.663 -0.8304 -1.7650  0.3661
27095SOL    HW283665   6.002   9.685   3.515  1.6626 -2.1239  0.2960
27096SOL     OW83666   1.770   4.224  10.507  0.4272 -0.4833  0.0687
27096SOL    HW183667   1.755   4.182  10.591  1.3152 -0.1237  0.4273
27096SOL    HW283668   1.866   4.227  10.499  0.3520 -1.0680 -1.2355
27097SOL     OW83669   0.085  10.171   0.622  0.1273 -0.8465 -0.2108
27097SOL    HW183670   0.027  10.099   0.597 -0.8049 -0.5497  1.0134
27097SOL    HW283671   0.159  10.129   0.666 -0.4293 -1.0643  0.5281
27098SOL     OW83672   8.356   2.377   8.524 -0.3253  0.0133  0.7501
27098SOL    HW183673   8.443   2.339   8.515 -0.5996 -0.2627 -0.9008
27098SOL    HW283674   8.365   2.440   8.595  1.0427 -0.4886  1.0541
27099SOL     OW83675   5.997   9.916   6.911  0.3130  0.6436 -0.0829
27099SOL    HW183676   5.999  10.011   6.896  1.6297  0.4782 -1.1991
27099SOL    HW283677   5.922   9.902   6.968  1.4890  2.6385  2.1019
27100SOL     OW83678   9.150   5.251   0.220 -0.3722 -0.0295 -0.5570
27100SOL    HW183679   9.198   5.196   0.158  0.6685 -0.2452  0.4080
27100SOL    HW283680   9.141   5.336   0.176  2.6800  0.6672 -0.0201
27101SOL     OW83681   7.665   5.441   5.313  0.1437  0.0224 -0.8730
27101SOL    HW183682   7.571   5.454   5.323 -0.0371 -2.0614  1.0385
27101SOL    HW283683   7.673   5.382   5.238 -0.2015 -0.7207 -0.3402
27102SOL     OW83684   5.331   6.114   1.737  0.3311  0.1547 -0.2172
27102SOL    HW183685   5.348   6.184   1.800 -0.3507  0.7747 -0.6936
27102SOL    HW283686   5.409   6.111   1.682  1.0141 -0.5285  0.7655
27103SOL     OW83687   4.543   2.893   7.703  0.3710 -0.1219 -0.1569
27103SOL    HW183688   4.510   2.804   7.713 -1.0961  0.4309  0.1366
27103SOL    HW283689   4.504   2.924   7.622 -1.8845  1.3608  1.3828
27104SOL     OW83690   9.799   2.799   9.171 -0.1347  0.0251  0.6719
27104SOL    HW183691   9.712   2.838   9.163 -0.4135 -0.6230  0.5015
27104SOL    HW283692   9.843   2.853   9.237 -0.9400 -0.1258  1.3522
27105SOL     OW83693   2.063   7.364   1.560 -0.3776  0.2374  0.2804
27105SOL    HW183694   1.991   7.302   1.573  0.5530 -0.9962 -0.2812
27105SOL    HW283695   2.133   7.332   1.617  0.7919 -0.3920 -1.4352
27106SOL     OW83696   2.304   6.027   6.936 -0.0132  0.8794  0.1417
27106SOL    HW183697   2.391   6.003   6.968  0.3274  0.2728 -1.1716
27106SOL    HW283698   2.244   5.975   6.990  0.3811  1.6909  1.4126
27107SOL     OW83699   2.367   9.140   2.889 -0.0290 -0.5105 -0.2669
27107SOL    HW183700   2.366   9.195   2.967 -0.1427 -1.7703  0.6520
27107SOL    HW283701   2.388   9.200   2.818 -0.1617  0.7164  0.6859
27108SOL     OW83702   2.455   3.259   9.418 -0.2819 -0.1890  0.3186
27108SOL    HW183703   2.524   3.234   9.357  0.9693  0.8925  1.2248
27108SOL    HW283704   2.440   3.180   9.470 -0.9209 -0.9278 -0.9346
27109SOL     OW83705   9.380   9.105   7.620  0.2544  0.0732 -0.0197
27109SOL    HW183706   9.422   9.122   7.535  0.3733  1.3635  0.2713
27109SOL    HW283707   9.422   9.025   7.651  1.8222  0.7857 -0.1862
27110SOL     OW83708   7.196   8.231   0.373  0.9884 -0.0684 -0.3470
27110SOL    HW183709   7.172   8.324   0.368  2.4283  0.3496  0.0794
27110SOL    HW283710   7.118   8.189   0.409  0.9772  1.2875  1.3555
27111SOL     OW83711  10.577   0.676   3.100  0.1208 -0.5197 -0.0232
27111SOL    HW183712  10.505   0.626   3.060 -0.7533 -0.0178  0.8782
27111SOL    HW283713  10.647   0.673   3.035 -0.9822 -0.3614 -1.2680
27112SOL     OW83714   3.860   4.062   2.701 -0.2227 -0.4045  0.2869
27112SOL    HW183715   3.808   4.103   2.770  0.3282 -1.1434  1.1630
27112SOL    HW283716   3.811   4.079   2.620 -1.0485  0.1833  0.8953
27113SOL     OW83717   1.422   0.178   5.721  0.0175 -0.1093  0.2652
27113SOL    HW183718   1.488   0.142   5.781  1.4156 -2.5269 -2.4837
27113SOL    HW283719   1.465   0.176   5.635 -2.7697  0.7220 -1.2566
27114SOL     OW83720   0.977   7.490   7.423  0.3055  0.2280 -0.4111
27114SOL    HW183721   1.021   7.539   7.492  0.3462  0.5753 -0.6795
27114SOL    HW283722   0.886   7.481   7.453  0.3923  0.1297 -0.1830
27115SOL     OW83723   8.361   0.502  10.358  0.3801 -0.1465 -0.0714
27115SOL    HW183724   8.295   0.566  10.332  1.2056  0.0357 -1.8669
27115SOL    HW283725   8.407   0.544  10.431  0.3257  0.9485 -0.6491
27116SOL     OW83726   8.760   7.435   1.836 -0.8041  0.3849 -0.3887
27116SOL    HW183727   8.715   7.466   1.914  1.1244  2.5526 -0.0232
27116SOL    HW283728   8.697   7.448   1.765 -1.7500  0.6081  0.4680
27117SOL     OW83729   4.072  10.373   0.005  0.1494  0.4483  0.6303
27117SOL    HW183730   4.085  10.372   0.099 -2.5714 -1.1585  1.0883
27117SOL    HW283731   4.055  10.465  -0.015  1.4226  0.9133  1.5556
27118SOL     OW83732   8.555   1.326   6.904  0.3386 -0.0149 -0.3088
27118SOL    HW183733   8.643   1.293   6.891  1.1208  1.7136  0.3018
27118SOL    HW283734   8.526   1.353   6.817 -1.2770 -4.2377 -1.3394
27119SOL     OW83735   0.166   0.829   7.717  0.5830 -0.0848  0.2160
27119SOL    HW183736   0.235   0.868   7.771  0.3955 -0.0368  0.4224
27119SOL    HW283737   0.103   0.900   7.703 -0.2720 -0.5591  1.4400
27120SOL     OW83738   2.315   8.509   4.256 -0.0669 -0.3559 -0.3629
27120SOL    HW183739   2.261   8.436   4.227  0.0970  0.3840 -2.7213
27120SOL    HW283740   2.402   8.489   4.222  0.2823  0.2919  0.1277
27121SOL     OW83741   5.644   5.553   5.550 -0.0705 -0.0696 -0.4387
27121SOL    HW183742   5.578   5.501   5.503 -0.9637  0.7380 -0.1031
27121SOL    HW283743   5.725   5.504   5.538 -0.4213 -0.2893 -2.1877
27122SOL     OW83744   1.714   9.823   0.235  0.0220 -0.4277  0.3287
27122SOL    HW183745   1.803   9.802   0.210 -0.3330 -1.8871  0.2063
27122SOL    HW283746   1.715   9.822   0.331  0.1991 -0.1437  0.3303
27123SOL     OW83747   0.551   8.381   3.075  0.8557 -0.7960 -0.5855
27123SOL    HW183748   0.510   8.330   3.005 -0.8390  2.2775 -1.9907
27123SOL    HW283749   0.525   8.471   3.058  3.2149  0.5373  2.1058
27124SOL     OW83750   6.291   2.332   8.365 -0.0831  0.2611 -0.4290
27124SOL    HW183751   6.378   2.335   8.325  0.2440 -0.9051  0.1252
27124SOL    HW283752   6.242   2.269   8.312 -0.3860  0.4406 -0.3649
27125SOL     OW83753   1.247  10.119   1.376  0.2947  0.2827  0.0960
27125SOL    HW183754   1.163  10.139   1.335 -0.4899  0.6216  1.7941
27125SOL    HW283755   1.245  10.025   1.390  0.6097  0.1488 -0.6976
27126SOL     OW83756   1.599   5.090   8.719  0.4119 -0.0832  0.0383
27126SOL    HW183757   1.624   5.178   8.748  0.1413 -0.4809  1.6105
27126SOL    HW283758   1.667   5.065   8.656 -0.2028  1.7212 -1.4212
27127SOL     OW83759   0.704   1.385   6.158 -0.1163 -0.4498 -0.1849
27127SOL    HW183760   0.780   1.370   6.215 -0.6887  0.8112  0.9642
27127SOL    HW283761   0.657   1.301   6.160  0.5660 -0.8397  0.1356
27128SOL     OW83762   3.432   5.742   2.237  0.1023  0.1197 -0.6675
27128SOL    HW183763   3.378   5.687   2.179 -0.0565  0.3432 -0.7336
27128SOL    HW283764   3.522   5.727   2.207  0.0614 -0.1303 -0.6631
27129SOL     OW83765   9.003   6.988   4.714  0.2090 -0.1938  0.5674
27129SOL    HW183766   8.946   6.914   4.697 -1.0743  0.8303  0.1866
27129SOL    HW283767   8.999   7.040   4.633  1.2553  0.1758  0.7396
27130SOL     OW83768   4.988   6.308   7.391 -0.0641 -0.3189  0.5906
27130SOL    HW183769   5.036   6.371   7.337 -0.0081 -0.5116  0.4098
27130SOL    HW283770   5.008   6.223   7.351 -1.1432 -0.3388  0.0588
27131SOL     OW83771   1.270   1.371   9.570  0.7182 -0.2705 -0.0098
27131SOL    HW183772   1.329   1.306   9.531  1.3106 -0.2632  0.8567
27131SOL    HW283773   1.292   1.453   9.526  2.5314  0.0770  1.4435
27132SOL     OW83774   0.132   8.381   3.352 -0.6594 -0.6830  0.3737
27132SOL    HW183775   0.218   8.372   3.312 -0.4782 -0.6319  0.7507
27132SOL    HW283776   0.088   8.298   3.332 -2.2183  0.8826 -3.7433
27133SOL     OW83777   7.981   9.224   8.210 -0.3834 -0.3243  0.3974
27133SOL    HW183778   8.042   9.270   8.153 -1.6160  1.3735  0.3612
27133SOL    HW283779   7.905   9.206   8.155 -1.3520  0.8067  1.3081
27134SOL     OW83780   5.796   8.034   1.038 -0.1282  0.3082  0.1942
27134SOL    HW183781   5.830   7.945   1.045  1.0052  0.7346  0.3361
27134SOL    HW283782   5.701   8.025   1.047  0.0849 -0.7311  1.7898
27135SOL     OW83783  10.588   4.036   1.560 -0.2470  0.2691  0.1020
27135SOL    HW183784  10.509   4.090   1.564 -1.2268 -1.1950  1.9106
27135SOL    HW283785  10.565   3.965   1.500  0.2921  0.6860 -0.6167
27136SOL     OW83786   9.201   9.125   1.542 -0.2609  0.1137  0.4272
27136SOL    HW183787   9.238   9.213   1.546  0.9733 -0.3867  0.4854
27136SOL    HW283788   9.151   9.117   1.623 -1.3391  1.1451 -0.0978
27137SOL     OW83789   7.298   2.550   3.613 -0.1158  0.3755  0.0351
27137SOL    HW183790   7.384   2.591   3.618 -0.9512  2.1193  1.7993
27137SOL    HW283791   7.275   2.552   3.520  0.3436  3.1195 -0.1142
27138SOL     OW83792   5.060   8.536   6.246  0.3029  0.0395 -0.6637
27138SOL    HW183793   5.090   8.566   6.332 -2.2512 -2.1043  1.1633
27138SOL    HW283794   5.134   8.488   6.209  0.7716 -0.9506  1.4329
27139SOL     OW83795   3.249   0.742   8.080 -0.7301  0.9677 -0.3452
27139SOL    HW183796   3.228   0.784   7.996 -0.1813  0.5918 -0.6784
27139SOL    HW283797   3.301   0.666   8.056 -0.4996  0.8994  0.3480
27140SOL     OW83798   0.773   5.659   5.937  0.3228 -1.0339 -0.2689
27140SOL    HW183799   0.735   5.673   6.023  2.8310  1.5703  0.5837
27140SOL    HW283800   0.717   5.708   5.877  0.0221 -0.6471  0.3210
27141SOL     OW83801   9.573   3.175   7.415 -0.1788 -0.2611  0.2700
27141SOL    HW183802   9.655   3.201   7.456 -1.4573 -1.0713  3.7080
27141SOL    HW283803   9.525   3.257   7.403  0.6509  0.0993 -0.7632
27142SOL     OW83804   2.024   2.144   2.009 -0.0351  1.1760 -0.0719
27142SOL    HW183805   2.036   2.103   2.095  1.3051 -1.3170 -1.3280
27142SOL    HW283806   2.113   2.159   1.978 -0.3907 -0.4046 -2.0560
27143SOL     OW83807   5.057   6.179   6.216  0.1848 -0.0551 -0.0553
27143SOL    HW183808   5.137   6.229   6.199  0.0673 -0.5034 -2.2133
27143SOL    HW283809   5.070   6.096   6.170 -0.7351 -0.9528  1.2195
27144SOL     OW83810  10.169   0.598   3.939 -0.4347  0.0831 -0.0661
27144SOL    HW183811  10.139   0.672   3.885  0.9209  0.0242 -0.9632
27144SOL    HW283812  10.264   0.607   3.941 -0.3787 -0.5232  1.4968
27145SOL     OW83813   5.445   8.871   5.698 -0.0009  0.0450 -0.0483
27145SOL    HW183814   5.405   8.958   5.705  2.7267  1.3438  0.6249
27145SOL    HW283815   5.372   8.813   5.675 -2.5928  1.8677  2.8081
27146SOL     OW83816   4.051  10.767   8.839  0.1284  0.0137 -0.0086
27146SOL    HW183817   4.141  10.784   8.811 -0.1730  0.1922 -0.8965
27146SOL    HW283818   4.000  10.837   8.799 -0.5403 -0.6397 -0.3113
27147SOL     OW83819   0.845   8.220   7.853 -0.5019  0.5381  0.2508
27147SOL    HW183820   0.886   8.266   7.781 -0.6093  0.6295  0.2466
27147SOL    HW283821   0.839   8.285   7.923  2.2442 -0.3019  1.3909
27148SOL     OW83822   3.641   2.045   5.068 -0.0061  0.0073  0.4790
27148SOL    HW183823   3.703   1.973   5.077  1.0211  0.7944 -0.1157
27148SOL    HW283824   3.620   2.048   4.975 -1.0601 -0.3342  0.6908
27149SOL     OW83825   4.799   1.176   7.669 -0.5359 -0.4419 -0.3322
27149SOL    HW183826   4.808   1.145   7.579 -0.5221 -2.1473  0.2166
27149SOL    HW283827   4.879   1.147   7.713 -0.9348 -0.4299  0.4313
27150SOL     OW83828   5.896   9.607   2.713 -0.0742 -0.3585 -0.4436
27150SOL    HW183829   5.860   9.554   2.784  0.1686 -1.4560 -1.1305
27150SOL    HW283830   5.854   9.692   2.724 -0.4429 -0.6598  0.6953
27151SOL     OW83831   2.674   4.028   6.317  0.0299  0.3679  0.5187
27151SOL    HW183832   2.725   4.109   6.318  0.9001 -0.1459  0.0245
27151SOL    HW283833   2.610   4.038   6.387  0.9530  0.9723  1.3118
27152SOL     OW83834   1.481   4.066  10.061 -0.4577  0.3969  0.4387
27152SOL    HW183835   1.477   4.058  10.156  0.5366  1.5319  0.5987
27152SOL    HW283836   1.468   4.159  10.044 -0.7570  0.1864 -0.5453
27153SOL     OW83837   7.194   8.618   5.069  0.0231  0.3508  0.4144
27153SOL    HW183838   7.271   8.589   5.020 -0.1104  1.2869 -0.3717
27153SOL    HW283839   7.228   8.645   5.155  0.8839  2.5075 -0.5433
27154SOL     OW83840   0.173  10.360   9.184 -0.0898  0.8364  0.0861
27154SOL    HW183841   0.194  10.275   9.223 -2.1725  1.1142  2.0389
27154SOL    HW283842   0.117  10.340   9.109  0.4603  0.4603 -0.2292
27155SOL     OW83843   2.689   6.058   8.389 -0.5001  0.2207  0.0587
27155SOL    HW183844   2.666   6.125   8.453 -0.5422  0.4895 -0.2373
27155SOL    HW283845   2.681   6.101   8.304  1.3581  0.4093 -0.0567
27156SOL     OW83846   4.607   1.040   0.144 -0.1368 -0.6814  0.0952
27156SOL    HW183847   4.526   1.022   0.096 -0.3881  1.0971 -0.2306
27156SOL    HW283848   4.583   1.027   0.236 -0.6189 -0.8025 -0.0429
27157SOL     OW83849   0.004   8.309   7.738 -0.0900  0.3925  0.1848
27157SOL    HW183850  -0.050   8.328   7.814 -0.9335  0.0804 -0.3211
27157SOL    HW283851   0.025   8.396   7.702  0.6325  0.5552  0.9757
27158SOL     OW83852   2.649   0.748   9.264 -0.4779 -0.5911  0.4216
27158SOL    HW183853   2.606   0.668   9.296 -0.5385 -0.8549 -0.2948
27158SOL    HW283854   2.739   0.741   9.297 -0.8905 -0.1505  1.7304
27159SOL     OW83855   3.757   6.711   7.285 -0.1006  0.3142  0.5641
27159SOL    HW183856   3.809   6.727   7.364 -0.0574 -1.2566  0.8854
27159SOL    HW283857   3.672   6.751   7.303 -0.2318 -0.3916  1.5982
27160SOL     OW83858   9.156   4.754   0.238  0.2703 -0.9011 -0.1237
27160SOL    HW183859   9.240   4.779   0.199 -0.4540  1.8719 -0.1105
27160SOL    HW283860   9.156   4.796   0.323 -0.4178 -2.4315  0.6797
27161SOL     OW83861   3.133   3.424   1.734 -0.1390 -0.7403 -0.2018
27161SOL    HW183862   3.109   3.368   1.660  0.1894 -0.0294 -0.8614
27161SOL    HW283863   3.176   3.365   1.796 -2.2016 -1.7526  0.3578
27162SOL     OW83864   6.506   8.473   5.051  0.4643 -0.2746 -0.1224
27162SOL    HW183865   6.592   8.431   5.054  1.0086  0.7657 -0.6025
27162SOL    HW283866   6.444   8.400   5.046  1.3358 -1.0292 -0.2447
27163SOL     OW83867   1.065   1.302   2.047 -0.1882 -0.2774  0.0407
27163SOL    HW183868   1.142   1.319   1.993 -0.3403  1.0907  0.2038
27163SOL    HW283869   1.016   1.235   2.000 -0.1881  0.6980 -1.4179
27164SOL     OW83870   7.368   8.727  10.434 -0.3318  0.1681  0.7483
27164SOL    HW183871   7.297   8.785  10.403 -1.8600 -0.3376  3.0396
27164SOL    HW283872   7.323   8.660  10.485  1.4807 -2.6309 -1.0943
27165SOL     OW83873   8.829   7.970   8.450  0.0156  0.4056 -0.3074
27165SOL    HW183874   8.915   7.973   8.491  0.4396  3.2066 -1.1872
27165SOL    HW283875   8.767   7.964   8.523  0.8823 -0.5582  0.3796
27166SOL     OW83876   8.870   0.751   6.418  0.1793 -0.2042 -0.0625
27166SOL    HW183877   8.933   0.730   6.487  2.4743  1.9958 -1.3503
27166SOL    HW283878   8.887   0.687   6.349 -0.8274 -1.2173  0.5923
27167SOL     OW83879   2.351  10.519   5.653  0.2850  0.2506 -0.7929
27167SOL    HW183880   2.305  10.541   5.572 -1.2994 -1.4292 -0.4212
27167SOL    HW283881   2.284  10.530   5.721  1.1900  0.2314  0.1155
27168SOL     OW83882   4.873   8.592   4.346  0.3806 -0.1861 -0.2977
27168SOL    HW183883   4.808   8.618   4.281  0.6430 -0.3188 -0.6182
27168SOL    HW283884   4.881   8.497   4.334  1.3967 -0.0327 -0.9871
27169SOL     OW83885   1.448   7.064   4.745 -0.1508  0.1084 -0.4532
27169SOL    HW183886   1.420   6.973   4.755 -1.1403  0.4141 -0.3542
27169SOL    HW283887   1.443   7.102   4.833 -2.4322  0.9850 -0.8917
27170SOL     OW83888   2.560   7.924   5.735 -0.4957 -0.0739  0.4093
27170SOL    HW183889   2.642   7.876   5.720 -1.0114 -0.7637 -0.2444
27170SOL    HW283890   2.491   7.859   5.724 -1.0710 -0.1334  3.5075
27171SOL     OW83891   1.171   5.576   6.685 -0.0578 -0.1999  0.1040
27171SOL    HW183892   1.198   5.658   6.642 -0.4775  0.5161  1.1710
27171SOL    HW283893   1.077   5.586   6.697 -0.1528 -0.9616  0.0077
27172SOL     OW83894   1.928  10.785   1.790 -0.4206 -0.3316  0.2466
27172SOL    HW183895   1.985  10.861   1.780 -1.1077  0.0660 -0.9268
27172SOL    HW283896   1.888  10.796   1.876  0.4612 -0.0620  0.6319
27173SOL     OW83897   0.259   5.694   8.005  0.0441 -0.4061 -0.0542
27173SOL    HW183898   0.176   5.714   7.960  0.0291  0.7724  0.4601
27173SOL    HW283899   0.233   5.674   8.095  0.4845  3.2143  1.0434
27174SOL     OW83900   7.666   8.691   3.656 -0.4190 -0.2772 -0.0711
27174SOL    HW183901   7.578   8.668   3.625 -0.2622  0.2546 -0.9462
27174SOL    HW283902   7.709   8.607   3.670 -0.6779 -0.5386 -0.7968
27175SOL     OW83903   1.084   9.896   2.711  0.0136  0.6212 -0.3867
27175SOL    HW183904   1.058   9.924   2.799 -2.1387  2.6639 -1.5497
27175SOL    HW283905   1.064   9.803   2.708  1.6098  0.1471  1.7296
27176SOL     OW83906   4.478   7.472   7.097 -0.2675 -0.3490 -0.5934
27176SOL    HW183907   4.449   7.451   7.186  0.7517  1.1703  0.1508
27176SOL    HW283908   4.398   7.478   7.046 -0.9899  0.0435  0.5405
27177SOL     OW83909   9.162   7.471   6.332  0.3543 -0.0156  0.1550
27177SOL    HW183910   9.123   7.504   6.413  0.4821 -1.7317  0.9567
27177SOL    HW283911   9.158   7.545   6.272 -0.0999  1.1845  1.6028
27178SOL     OW83912   0.939   0.273   0.293 -0.4045 -0.1513 -0.1491
27178SOL    HW183913   0.984   0.353   0.265  0.3502 -0.6780 -0.4924
27178SOL    HW283914   0.850   0.282   0.260 -0.3159  0.5339 -0.2134
27179SOL     OW83915   4.565  10.425   1.358 -0.3046  0.4415  0.2234
27179SOL    HW183916   4.519  10.354   1.403  0.3985  1.2364  2.3484
27179SOL    HW283917   4.496  10.486   1.332 -0.6824  0.3518  0.9902
27180SOL     OW83918   5.921   1.415  10.100 -0.2686 -0.3345 -0.6756
27180SOL    HW183919   5.946   1.462  10.180 -3.0631 -1.9867  1.3759
27180SOL    HW283920   6.001   1.372  10.071  0.5397 -1.0946  2.3257
27181SOL     OW83921   4.620   1.619   8.845  0.4476  0.1470  0.6283
27181SOL    HW183922   4.548   1.581   8.895 -0.5356 -0.7634 -1.3872
27181SOL    HW283923   4.584   1.702   8.811  1.1344  0.8040  1.4721
27182SOL     OW83924   1.212   8.493   1.492  0.3892  0.0343  0.7803
27182SOL    HW183925   1.273   8.550   1.445 -1.3790  0.8827 -0.5991
27182SOL    HW283926   1.215   8.525   1.582  2.3236 -0.2935  0.8871
27183SOL     OW83927   9.131   8.430   8.700 -0.3067  0.1475 -0.3257
27183SOL    HW183928   9.145   8.500   8.636 -2.0392  0.7142 -0.1514
27183SOL    HW283929   9.044   8.395   8.678  0.2571 -1.5224 -0.0018
27184SOL     OW83930   2.886   3.909   9.377 -0.3764  0.0753  0.3279
27184SOL    HW183931   2.965   3.963   9.367 -0.2242  0.1774  1.7891
27184SOL    HW283932   2.820   3.951   9.323  0.4817  0.1750 -0.6680
27185SOL     OW83933   1.413   1.245  10.799 -0.0939  0.1077  0.1439
27185SOL    HW183934   1.497   1.289  10.806  0.0679 -0.2828  0.8083
27185SOL    HW283935   1.413   1.182  10.871 -0.6945 -0.3366 -0.2308
27186SOL     OW83936   3.856   9.743   2.578  0.0920 -0.0218  0.2779
27186SOL    HW183937   3.839   9.683   2.505  1.7099 -0.8650  0.5471
27186SOL    HW283938   3.771   9.781   2.598 -0.7408 -1.2358 -0.7831
27187SOL     OW83939  10.105   8.675   5.682 -0.7470  0.2073  0.1084
27187SOL    HW183940  10.173   8.681   5.750  1.7350 -1.0785 -2.0813
27187SOL    HW283941  10.110   8.759   5.636 -0.3575 -0.0194 -0.2714
27188SOL     OW83942   0.132   3.858   7.986 -0.3339  0.4699  0.5029
27188SOL    HW183943   0.203   3.922   7.979 -0.7795  0.7931 -2.0779
27188SOL    HW283944   0.141   3.821   8.074  3.4008  0.0598  0.0927
27189SOL     OW83945   0.376   0.124   3.706 -0.5172 -0.0775 -0.0766
27189SOL    HW183946   0.432   0.188   3.662  0.5963 -0.2016  1.0838
27189SOL    HW283947   0.429   0.044   3.709 -1.0126 -0.3963  0.4438
27190SOL     OW83948   6.039   5.107   1.160  0.3969  0.0550  0.4328
27190SOL    HW183949   6.038   5.033   1.099  0.4220  0.2344  0.2123
27190SOL    HW283950   6.121   5.152   1.141  0.4968  0.0027  0.7341
27191SOL     OW83951   0.821   2.856   3.554 -0.6991 -0.1932  0.2476
27191SOL    HW183952   0.807   2.924   3.620  1.7313 -0.5455  1.2145
27191SOL    HW283953   0.759   2.877   3.484  0.1165  3.1912  0.3922
27192SOL     OW83954   6.297   9.602   0.424 -0.1098  0.3762  0.0704
27192SOL    HW183955   6.323   9.684   0.384  0.9620  0.0279  0.0353
27192SOL    HW283956   6.376   9.568   0.465 -0.7669 -0.1508  0.9555
27193SOL     OW83957   1.676   0.211  10.212 -0.2540  0.7246  0.2884
27193SOL    HW183958   1.674   0.274  10.140  1.0920  1.9967  1.3060
27193SOL    HW283959   1.599   0.232  10.265  0.1952  1.5640  0.6297
27194SOL     OW83960   0.265   3.484   9.090 -0.0041 -0.5990  0.1059
27194SOL    HW183961   0.217   3.412   9.049  0.0266 -1.2065  1.0848
27194SOL    HW283962   0.227   3.491   9.178 -0.2317  0.8107 -0.0754
27195SOL     OW83963   2.589   7.460   2.571 -0.3417  0.3549  0.2348
27195SOL    HW183964   2.643   7.461   2.651  0.4970  0.3180 -0.3168
27195SOL    HW283965   2.541   7.542   2.573 -0.3806  0.3224  0.8174
27196SOL     OW83966   6.101   7.000   9.237 -0.1717  0.3653 -0.7205
27196SOL    HW183967   6.007   7.017   9.237 -0.2202  0.4491 -3.2021
27196SOL    HW283968   6.110   6.917   9.283 -1.4573  0.3225 -0.4988
27197SOL     OW83969   6.344   3.308   2.257  0.2248 -0.2399  1.0353
27197SOL    HW183970   6.309   3.253   2.186 -1.7253 -0.2323  1.9139
27197SOL    HW283971   6.352   3.395   2.218 -1.3716 -0.1079  0.9098
27198SOL     OW83972   7.672   3.530   7.503 -0.0791 -0.7058 -0.0776
27198SOL    HW183973   7.579   3.511   7.495 -0.3377  0.6869 -0.5655
27198SOL    HW283974   7.702   3.473   7.575 -2.0253  1.2839  2.4790
27199SOL     OW83975   7.015   2.653   2.892  0.7953 -0.1244  0.0211
27199SOL    HW183976   7.059   2.611   2.818 -0.5673  1.7011 -1.9169
27199SOL    HW283977   6.978   2.581   2.942  0.7163 -1.3701 -1.7553
27200SOL     OW83978   8.400   0.388   5.613  0.0964  0.3092 -0.0685
27200SOL    HW183979   8.320   0.375   5.561  0.4230 -3.2341  0.0677
27200SOL    HW283980   8.372   0.375   5.703  0.6893 -0.2786  0.0356
27201SOL     OW83981   7.269   3.767   7.538 -0.0742  0.0547  0.2257
27201SOL    HW183982   7.324   3.747   7.462 -0.8450 -0.2294 -0.2674
27201SOL    HW283983   7.183   3.731   7.516 -0.4088  0.3041  1.0755
27202SOL     OW83984   4.824  10.520   1.044  0.7562 -0.2606  0.0145
27202SOL    HW183985   4.748  10.468   1.067  1.0424 -1.4519 -1.5419
27202SOL    HW283986   4.806  10.551   0.956  1.9855 -0.4304 -0.3148
27203SOL     OW83987   9.369   6.831   4.609  0.0473  0.1229  0.0898
27203SOL    HW183988   9.338   6.748   4.645  1.1002 -0.3869 -0.1501
27203SOL    HW283989   9.322   6.840   4.526  0.4411 -0.5833 -0.2147
27204SOL     OW83990   6.265   0.628   5.348  0.0276 -0.2441  0.6634
27204SOL    HW183991   6.251   0.533   5.359 -1.5343 -0.3893 -1.8244
27204SOL    HW283992   6.344   0.634   5.294 -0.6000 -0.2227 -0.2758
27205SOL     OW83993   8.047   6.517   1.440  0.0190  0.3170 -0.0739
27205SOL    HW183994   7.997   6.585   1.486  0.2963  0.7180 -0.3527
27205SOL    HW283995   8.138   6.535   1.465  0.0898  0.0257 -0.1245
27206SOL     OW83996  10.647  10.330  10.583  0.2426  0.1911  0.1544
27206SOL    HW183997  10.632  10.296  10.495  0.6664 -0.4292  0.3123
27206SOL    HW283998  10.687  10.416  10.570  0.6481 -0.0563 -0.2650
27207SOL     OW83999   5.602   9.120   3.385  0.0299  0.4518 -0.2068
27207SOL    HW184000   5.598   9.200   3.437  4.3208  0.7668  0.0190
27207SOL    HW284001   5.673   9.069   3.425 -2.0340 -3.2230 -0.7900
27208SOL     OW84002   2.014   3.347   3.932 -0.1657  0.4473 -0.0395
27208SOL    HW184003   1.962   3.304   4.000  1.3627 -2.1662 -0.3551
27208SOL    HW284004   1.980   3.311   3.850  0.7753  0.2446 -0.3549
27209SOL     OW84005   2.394   4.305   6.846  0.0668 -0.3510 -0.1940
27209SOL    HW184006   2.407   4.368   6.775  3.0302 -0.2691  0.2753
27209SOL    HW284007   2.425   4.350   6.924  1.1315 -1.9206  0.3434
27210SOL     OW84008  10.633   3.554   6.141  0.7357 -0.1835 -0.2710
27210SOL    HW184009  10.674   3.564   6.227 -0.6286 -2.1293  0.6646
27210SOL    HW284010  10.584   3.636   6.128  0.0801 -0.3098  1.2986
27211SOL     OW84011   6.261   5.033  10.522 -0.2523  0.4018 -0.8044
27211SOL    HW184012   6.262   5.119  10.481  1.0342  1.2737  0.9542
27211SOL    HW284013   6.208   5.044  10.601 -0.2006 -0.4631 -0.6352
27212SOL     OW84014   9.155   2.764   6.914  0.1400  0.5184 -0.5309
27212SOL    HW184015   9.163   2.821   6.837 -0.7955  0.9325 -0.3347
27212SOL    HW284016   9.136   2.823   6.986  1.0051  0.1284  0.0381
27213SOL     OW84017   7.107   8.362   7.689 -0.2386 -0.0617  0.0279
27213SOL    HW184018   7.031   8.402   7.648 -0.3686 -0.7676 -0.4521
27213SOL    HW284019   7.175   8.429   7.687 -0.9424  0.6964  0.7806
27214SOL     OW84020   2.228   1.939   5.742  0.2674  0.3710 -0.1070
27214SOL    HW184021   2.229   1.999   5.667  2.1081  0.4766 -0.0541
27214SOL    HW284022   2.227   1.997   5.818  0.1803  0.2984 -0.0533
27215SOL     OW84023  10.535   7.498   1.393 -0.6409  0.5728 -0.2476
27215SOL    HW184024  10.504   7.568   1.451 -1.1831  1.7319 -1.8732
27215SOL    HW284025  10.467   7.431   1.398  0.2283 -0.2587  1.8927
27216SOL     OW84026   0.824   7.736   6.267 -0.4195  0.2331  0.0243
27216SOL    HW184027   0.737   7.704   6.243 -1.0597  1.6122  0.4350
27216SOL    HW284028   0.883   7.690   6.208 -1.4857 -0.1871 -0.7542
27217SOL     OW84029   7.225   6.960   4.890 -0.2291  0.5469  0.2131
27217SOL    HW184030   7.273   6.886   4.926  1.1799  1.1952 -0.2529
27217SOL    HW284031   7.170   6.991   4.962  0.7367  0.3419  1.0490
27218SOL     OW84032   1.062   6.764   1.782  0.3286  1.0654  0.3976
27218SOL    HW184033   1.083   6.732   1.869 -0.9538  1.4964  0.8839
27218SOL    HW284034   1.059   6.686   1.727  2.2244  0.8954  0.4793
27219SOL     OW84035   6.030   5.370   4.938  0.4038 -0.4542 -0.7049
27219SOL    HW184036   5.961   5.304   4.925  0.9037 -1.2891  0.5643
27219SOL    HW284037   6.110   5.326   4.910  0.7368 -0.3862  0.1162
27220SOL     OW84038   4.340   7.365   1.554 -0.2247  0.4880  0.0705
27220SOL    HW184039   4.341   7.270   1.567 -0.3008  0.2782 -1.3133
27220SOL    HW284040   4.258   7.381   1.508  0.3048  1.0795 -0.6835
27221SOL     OW84041   2.947  10.235   9.018  0.5302  0.1096  0.3983
27221SOL    HW184042   2.910  10.296   8.955 -1.7727 -0.4200  1.1620
27221SOL    HW284043   2.997  10.290   9.079 -1.1835  1.2121  0.8615
27222SOL     OW84044   1.803   8.201   1.128  0.3664  0.4949 -0.4834
27222SOL    HW184045   1.800   8.290   1.165  2.3791  0.8483 -1.0894
27222SOL    HW284046   1.788   8.144   1.203 -1.4414  1.3149 -0.1551
27223SOL     OW84047   6.885   3.202   1.490  0.2158 -0.2160 -0.0805
27223SOL    HW184048   6.929   3.140   1.549  0.1096 -0.4484 -0.2412
27223SOL    HW284049   6.801   3.219   1.530  0.2287 -0.2085 -0.0568
27224SOL     OW84050   8.621  10.726  10.783  0.0787 -0.2495  0.0760
27224SOL    HW184051   8.532  10.730  10.818  0.3047 -0.2740  0.6669
27224SOL    HW284052   8.674  10.779  10.843  0.9352 -2.3213  1.2814
27225SOL     OW84053  10.311   0.377   9.670  1.3117 -0.1552  0.2946
27225SOL    HW184054  10.379   0.428   9.713 -0.1601  0.8979  1.4985
27225SOL    HW284055  10.234   0.386   9.727 -0.1276 -0.4511 -1.4836
27226SOL     OW84056   9.195   4.275   7.698 -0.1775  0.1816  0.4166
27226SOL    HW184057   9.188   4.370   7.693  2.0681  0.4325  0.9819
27226SOL    HW284058   9.111   4.246   7.735 -1.2063  1.8346 -0.5251
27227SOL     OW84059   5.798   2.682   0.684  0.6561  0.7372 -0.4344
27227SOL    HW184060   5.750   2.651   0.761  0.6062  0.9500 -0.3803
27227SOL    HW284061   5.795   2.777   0.690 -0.0233  0.7651 -1.1174
27228SOL     OW84062   8.117   1.310   2.130 -0.8861  0.2011  0.5674
27228SOL    HW184063   8.177   1.349   2.066  0.3813 -0.7042  1.1618
27228SOL    HW284064   8.173   1.285   2.203 -1.7845 -1.6850  0.6781
27229SOL     OW84065   8.829   1.248   5.876  0.3507 -0.0329  0.6032
27229SOL    HW184066   8.910   1.287   5.908  0.7302  0.3745 -0.7815
27229SOL    HW284067   8.845   1.154   5.876  0.8778  0.0539  0.2025
27230SOL     OW84068   6.587  10.195   0.033 -0.2582  0.2374 -0.8256
27230SOL    HW184069   6.592  10.233  -0.055 -1.3387  0.7684 -0.6688
27230SOL    HW284070   6.494  10.194   0.054 -0.4658 -3.5982 -1.2374
27231SOL     OW84071   8.339   2.308   3.598 -0.1467 -0.0531  0.1348
27231SOL    HW184072   8.292   2.307   3.515  2.1965 -0.2985 -1.2684
27231SOL    HW284073   8.281   2.262   3.659 -2.2994  0.8765 -1.0954
27232SOL     OW84074   1.897   1.730   9.658 -0.3419  0.3003 -0.7333
27232SOL    HW184075   1.834   1.701   9.591 -1.2242  0.0039  0.1875
27232SOL    HW284076   1.940   1.806   9.620 -0.2419 -0.3365 -1.9558
27233SOL     OW84077   9.736   7.801   0.048  0.4041  0.2141  0.3643
27233SOL    HW184078   9.732   7.717   0.094 -0.9291 -0.3878 -0.7707
27233SOL    HW284079   9.752   7.865   0.117  0.5426 -0.8756  1.3834
27234SOL     OW84080   7.498   9.680   1.180  0.7961  0.3245  0.4080
27234SOL    HW184081   7.569   9.650   1.238 -0.1122 -1.8406  0.5067
27234SOL    HW284082   7.515   9.634   1.097 -0.1288  0.2644  0.2456
27235SOL     OW84083   0.702   2.813   2.842 -0.1232 -0.8744 -1.1609
27235SOL    HW184084   0.695   2.865   2.762  0.9988  0.4411 -0.4338
27235SOL    HW284085   0.795   2.792   2.850  0.5181  2.2187  1.6936
27236SOL     OW84086   4.784   1.909   1.597 -0.0364  0.0505 -0.7534
27236SOL    HW184087   4.697   1.948   1.601 -0.7158 -1.4445 -0.4011
27236SOL    HW284088   4.835   1.958   1.662 -1.0907 -0.1517  0.2665
27237SOL     OW84089  10.138   3.717   5.343  0.3094 -0.0329  0.5452
27237SOL    HW184090  10.155   3.661   5.267 -2.6846 -0.7517  0.2519
27237SOL    HW284091  10.058   3.764   5.319  0.3860  1.1798  2.5142
27238SOL     OW84092   9.803   9.030   2.960  0.3446  0.0365  0.0325
27238SOL    HW184093   9.714   9.033   2.996  0.4791 -0.8343  0.4817
27238SOL    HW284094   9.851   9.096   3.009 -0.2672  1.1641 -0.8518
27239SOL     OW84095   3.449   2.384   9.281 -0.3836 -0.0772 -0.3732
27239SOL    HW184096   3.427   2.451   9.345 -0.9419  0.3169 -0.9610
27239SOL    HW284097   3.414   2.303   9.317 -0.0420  0.0175  0.1658
27240SOL     OW84098   0.219   0.940   5.588 -0.2284 -0.0266  0.1498
27240SOL    HW184099   0.181   0.978   5.509 -0.4367  1.3382  0.8752
27240SOL    HW284100   0.297   0.895   5.558 -0.9464 -0.5514 -0.9891
27241SOL     OW84101   0.455   3.584   9.484 -0.3236  0.0320  0.6156
27241SOL    HW184102   0.452   3.667   9.531 -1.6282  1.0776 -1.2047
27241SOL    HW284103   0.379   3.535   9.517  0.6903 -0.6771  2.0063
27242SOL     OW84104   9.538   1.216   0.350  0.1427 -0.2823  0.8272
27242SOL    HW184105   9.521   1.131   0.309  0.4275  0.9844 -2.1857
27242SOL    HW284106   9.533   1.199   0.444  0.4406 -3.6596  0.3518
27243SOL     OW84107   1.710   7.788   4.591  0.7669 -0.3769 -1.0181
27243SOL    HW184108   1.785   7.735   4.563 -1.3469 -3.2553 -1.6831
27243SOL    HW284109   1.678   7.745   4.670  0.3715  1.4270 -0.1380
27244SOL     OW84110   3.869   9.728   7.395  0.1954  0.1808 -0.5573
27244SOL    HW184111   3.810   9.673   7.447  0.9385 -0.7668 -0.6895
27244SOL    HW284112   3.818   9.752   7.318 -0.2901  0.0700 -0.2772
27245SOL     OW84113   2.360   0.870   6.077  0.4596  0.1998  0.1538
27245SOL    HW184114   2.286   0.927   6.055  0.7885  1.0485  1.1622
27245SOL    HW284115   2.329   0.782   6.058 -0.8999  0.5253  0.7638
27246SOL     OW84116   8.742   3.493   9.834  0.4971 -0.2767  1.0113
27246SOL    HW184117   8.702   3.469   9.750 -0.0550  2.1302  0.5116
27246SOL    HW284118   8.764   3.409   9.875  1.0004 -1.5271 -1.6246
27247SOL     OW84119   3.103   8.804   6.506 -0.1168 -0.0832  0.4544
27247SOL    HW184120   3.145   8.818   6.421 -0.7089 -0.5343  0.0775
27247SOL    HW284121   3.032   8.743   6.487 -1.5159  1.3354  0.9143
27248SOL     OW84122  10.660   6.911   3.347 -0.0956 -0.3452  0.4007
27248SOL    HW184123  10.583   6.856   3.360 -0.4564 -0.4326 -1.7668
27248SOL    HW284124  10.730   6.850   3.325 -0.3402 -0.0582 -1.3374
27249SOL     OW84125   8.827   2.231   6.410 -0.3061  0.2860 -0.4059
27249SOL    HW184126   8.841   2.313   6.458 -2.6708 -0.4844  1.8430
27249SOL    HW284127   8.890   2.170   6.448  0.6584  0.7196 -1.2651
27250SOL     OW84128   7.900   1.216   1.334  0.2611  0.0631  0.6541
27250SOL    HW184129   7.894   1.180   1.422  1.9489  0.3893  0.9319
27250SOL    HW284130   7.863   1.304   1.342  1.6652  0.6276  1.4067
27251SOL     OW84131   6.465   1.488   3.821 -0.0617  0.4015  0.5390
27251SOL    HW184132   6.517   1.504   3.899 -0.5702 -0.3789  1.0512
27251SOL    HW284133   6.375   1.505   3.848 -0.2399  0.1537  0.1155
27252SOL     OW84134   6.372   1.519   4.287 -0.5078  0.4563 -0.0745
27252SOL    HW184135   6.396   1.601   4.329  0.7416 -0.4544  1.0578
27252SOL    HW284136   6.277   1.515   4.294 -0.5036  1.4032  0.6050
27253SOL     OW84137   4.011   3.587   7.614 -0.6218  0.5549 -0.4573
27253SOL    HW184138   3.955   3.579   7.537  0.4523  0.7374 -1.2754
27253SOL    HW284139   4.068   3.510   7.610 -2.7042 -1.3157  2.0090
27254SOL     OW84140  10.065   9.676   2.401  0.2189 -0.1702 -0.2117
27254SOL    HW184141  10.071   9.743   2.468  2.4078 -0.0437 -0.4447
27254SOL    HW284142   9.972   9.660   2.390 -0.2585  1.3408  1.3131
27255SOL     OW84143   6.619   5.367   4.988  0.0992 -0.3347 -0.2373
27255SOL    HW184144   6.668   5.326   5.059 -0.5999 -0.8375 -0.0360
27255SOL    HW284145   6.684   5.417   4.939  0.6610 -0.3300  0.5064
27256SOL     OW84146   4.267   8.307   3.857 -0.0574 -0.6967  0.0907
27256SOL    HW184147   4.270   8.240   3.926  0.3999  0.5332  1.3048
27256SOL    HW284148   4.226   8.382   3.898  1.8012  0.6772 -0.4195
27257SOL     OW84149   4.240   9.449   1.533 -0.4584  0.3169 -0.7135
27257SOL    HW184150   4.273   9.406   1.455 -0.8046  1.1270 -1.3214
27257SOL    HW284151   4.312   9.444   1.596 -0.2265 -0.4573 -1.0336
27258SOL     OW84152   3.833   8.879   7.116 -0.1196  0.0930  0.1895
27258SOL    HW184153   3.849   8.925   7.198  0.9914 -1.9126  1.1644
27258SOL    HW284154   3.740   8.856   7.119 -0.0398 -0.1561  1.0057
27259SOL     OW84155   2.837   6.399   4.416 -0.8871 -0.1757  0.0060
27259SOL    HW184156   2.753   6.413   4.461 -0.2963 -0.2176  1.1718
27259SOL    HW284157   2.844   6.304   4.407 -0.4032 -0.2552  1.0662
27260SOL     OW84158   1.754   6.525   3.807  0.1457  0.1840  0.2077
27260SOL    HW184159   1.717   6.589   3.869 -0.3855 -0.1494  0.2464
27260SOL    HW284160   1.690   6.521   3.737 -0.1612 -0.8004  0.5331
27261SOL     OW84161  10.589   9.204   6.114  0.2199  0.0313 -0.1746
27261SOL    HW184162  10.495   9.189   6.120  0.4615 -1.1855  1.1001
27261SOL    HW284163  10.612   9.174   6.026 -0.3386 -1.3050  0.1077
27262SOL     OW84164   9.582   2.503   7.028  0.4351  0.1448  0.9206
27262SOL    HW184165   9.673   2.497   7.000 -0.0178 -0.2589 -0.5855
27262SOL    HW284166   9.547   2.576   6.977  0.1273  0.8860  2.1585
27263SOL     OW84167   5.193   5.478   5.244 -0.1590  0.2673 -0.0066
27263SOL    HW184168   5.100   5.461   5.249  0.0590 -0.6782  1.8155
27263SOL    HW284169   5.208   5.507   5.154 -1.9290 -1.0841 -0.7931
27264SOL     OW84170  10.713  10.028   8.201 -0.4927  0.4515 -0.2211
27264SOL    HW184171  10.773  10.100   8.216 -1.4392  1.1159  0.4870
27264SOL    HW284172  10.637  10.067   8.157 -1.4867  0.1188  1.1373
27265SOL     OW84173   0.158   9.958   0.998  0.3927 -0.2726  0.2804
27265SOL    HW184174   0.166   9.867   0.970 -0.7728 -0.3845  0.2895
27265SOL    HW284175   0.173  10.009   0.919 -0.7002 -0.5257 -0.1014
27266SOL     OW84176   0.854   0.705   7.817  0.1720 -0.0462  0.0834
27266SOL    HW184177   0.872   0.611   7.822 -0.5178 -0.2293 -0.6033
27266SOL    HW284178   0.927   0.746   7.863 -0.0033 -0.9644  1.2417
27267SOL     OW84179   3.236  10.147   2.520 -0.2613  0.5638  0.1867
27267SOL    HW184180   3.293  10.106   2.584  0.0516 -0.3548 -0.6597
27267SOL    HW284181   3.215  10.233   2.558 -0.0359  0.0714  1.4659
27268SOL     OW84182   6.230   7.596   4.857 -0.2174  0.2423  0.2003
27268SOL    HW184183   6.305   7.543   4.886 -1.4330 -1.6742 -0.0185
27268SOL    HW284184   6.198   7.637   4.937 -0.6672 -1.2418  0.8039
27269SOL     OW84185   9.831   8.842   4.322 -0.0034 -0.0583  0.4019
27269SOL    HW184186   9.879   8.809   4.246  0.5152 -3.3963  1.9829
27269SOL    HW284187   9.739   8.828   4.301  0.1327 -0.7716  0.2376
27270SOL     OW84188  10.395   6.004   9.647 -0.2296 -0.2372 -0.7743
27270SOL    HW184189  10.427   6.079   9.697  0.4585 -1.2615  0.3847
27270SOL    HW284190  10.307   5.988   9.682  0.6672 -1.6401  0.9914
27271SOL     OW84191   6.884  10.773   5.015 -0.3401 -0.2666 -0.1041
27271SOL    HW184192   6.865  10.850   5.068 -0.6103  0.5782 -1.3895
27271SOL    HW284193   6.956  10.799   4.958 -2.4873  0.2298 -2.8369
27272SOL     OW84194   4.904   4.677   4.081  0.7124  0.1349 -0.0163
27272SOL    HW184195   4.906   4.768   4.111  0.8310 -0.3353  1.4826
27272SOL    HW284196   4.811   4.659   4.068  0.5818  0.0781  0.9634
27273SOL     OW84197   7.692   0.992   0.865 -0.2027  0.0229  0.0131
27273SOL    HW184198   7.758   0.945   0.814 -0.4304 -2.1280  1.5461
27273SOL    HW284199   7.743   1.044   0.928  0.0758 -0.9251  0.5931
27274SOL     OW84200   0.621   5.832   7.458  0.1986 -0.0178 -0.1156
27274SOL    HW184201   0.542   5.843   7.405  1.2341  0.5631 -1.6283
27274SOL    HW284202   0.615   5.901   7.524 -0.2812  0.4201 -0.6030
27275SOL     OW84203   2.623   7.180  10.073  0.4528  0.0021 -0.6874
27275SOL    HW184204   2.626   7.129  10.154  0.1492  0.8099 -0.1502
27275SOL    HW284205   2.555   7.245  10.089  1.1635  0.8844 -1.1569
27276SOL     OW84206  10.043   9.257   9.995 -0.2757  0.4645  0.2706
27276SOL    HW184207   9.962   9.216   9.966 -0.1683  0.9209 -0.6991
27276SOL    HW284208  10.098   9.261   9.917  1.2963 -1.2363  1.2209
27277SOL     OW84209   5.123   3.146   5.701 -0.5863 -0.2740 -0.0275
27277SOL    HW184210   5.212   3.140   5.736  0.5464  3.0183 -1.8909
27277SOL    HW284211   5.121   3.079   5.632  0.5105 -0.3509 -0.0163
27278SOL     OW84212   4.748   8.514  10.094  0.3313 -0.6440  0.0797
27278SOL    HW184213   4.716   8.523  10.004 -0.7240 -0.5547  0.4463
27278SOL    HW284214   4.781   8.601  10.116 -0.2317 -0.4154  0.0653
27279SOL     OW84215   5.154   5.248   6.289  0.0354  0.1058  0.0412
27279SOL    HW184216   5.203   5.187   6.345 -0.6894 -0.6283 -0.1011
27279SOL    HW284217   5.177   5.222   6.200  2.1703  2.0652 -0.0786
27280SOL     OW84218  10.649   7.842   9.310  0.5771  0.3986  0.7237
27280SOL    HW184219  10.662   7.866   9.402 -1.8052  0.6325  1.0483
27280SOL    HW284220  10.665   7.748   9.307  0.6674  0.3927  1.3627
27281SOL     OW84221   9.011   1.890   2.032  0.0457 -0.0344  0.6866
27281SOL    HW184222   9.081   1.916   2.092  0.5444 -0.3727  0.2598
27281SOL    HW284223   8.940   1.952   2.049  0.9269  1.1336  0.2116
27282SOL     OW84224   5.913   4.314   2.799  0.0247  0.6128 -0.1792
27282SOL    HW184225   5.926   4.406   2.819  0.2769  0.2319  1.6314
27282SOL    HW284226   5.818   4.303   2.799  0.0026  0.6213  1.0764
27283SOL     OW84227   0.412  10.713   8.189 -0.5052  0.0297  0.2651
27283SOL    HW184228   0.366  10.676   8.114 -0.4818  1.5739 -0.5481
27283SOL    HW284229   0.454  10.792   8.155  1.3709 -0.4433  1.3858
27284SOL     OW84230   6.655   7.788  10.476 -0.1111 -0.1404 -0.0193
27284SOL    HW184231   6.604   7.719  10.519  0.3646 -0.8457 -0.5795
27284SOL    HW284232   6.610   7.869  10.501 -1.0343 -0.6874  0.1490
27285SOL     OW84233   4.044   6.046   1.796  0.1865  0.1117 -0.2331
27285SOL    HW184234   4.065   6.139   1.807  0.5621 -0.0823  0.8308
27285SOL    HW284235   3.962   6.034   1.844 -0.6768  0.1903 -1.6394
27286SOL     OW84236   7.314   7.868   5.465  0.0708  0.1432 -0.1816
27286SOL    HW184237   7.296   7.874   5.371  0.7560 -0.1755 -0.3363
27286SOL    HW284238   7.274   7.785   5.492  0.8142 -0.2940 -0.4134
27287SOL     OW84239   9.968   1.596   2.180  0.3979  0.0923  0.1847
27287SOL    HW184240   9.996   1.524   2.124  2.1201  1.4801 -0.8506
27287SOL    HW284241  10.049   1.627   2.221 -0.4125  0.9748  1.1594
27288SOL     OW84242   9.552   2.833   5.530  0.0566 -0.1951  0.6253
27288SOL    HW184243   9.467   2.878   5.521 -1.0819 -2.4320 -0.8902
27288SOL    HW284244   9.541   2.777   5.607 -0.7466 -2.1265 -0.8141
27289SOL     OW84245   3.066   7.420   9.292  0.0868 -0.0320  0.3317
27289SOL    HW184246   3.157   7.444   9.310 -0.8383  2.3477  2.5851
27289SOL    HW284247   3.065   7.325   9.296  2.2605 -0.0734  1.5080
27290SOL     OW84248   3.554   3.741   4.118 -0.5077 -0.4093 -0.0727
27290SOL    HW184249   3.524   3.822   4.078 -1.9916 -0.9287 -0.0810
27290SOL    HW284250   3.643   3.730   4.086 -0.3694  1.0835 -0.2555
27291SOL     OW84251   0.375   1.922   0.565 -0.2254 -0.9327 -0.7425
27291SOL    HW184252   0.414   1.937   0.651 -1.5502  2.1206 -0.5742
27291SOL    HW284253   0.284   1.900   0.583 -0.2075 -1.5461 -1.3579
27292SOL     OW84254   7.554   5.679   6.654 -0.2122  0.1020 -0.2835
27292SOL    HW184255   7.602   5.631   6.587 -1.2929 -1.6660  0.1396
27292SOL    HW284256   7.621   5.714   6.712  0.6124 -2.5316  0.4502
27293SOL     OW84257   1.436   1.868   3.657 -0.2336  0.5335 -0.0376
27293SOL    HW184258   1.353   1.896   3.694 -0.1941 -0.7197  1.0894
27293SOL    HW284259   1.433   1.773   3.661  0.8128  0.4430 -1.0007
27294SOL     OW84260   7.392   0.262   3.004  0.3491 -0.2069 -0.0758
27294SOL    HW184261   7.324   0.200   3.028  0.3917 -0.3650 -0.3553
27294SOL    HW284262   7.423   0.231   2.918 -0.4235  0.8649 -0.7644
27295SOL     OW84263  10.769   3.192   0.908 -0.0632  0.1954  0.6001
27295SOL    HW184264  10.780   3.279   0.947 -1.4415  0.0611  1.3532
27295SOL    HW284265  10.767   3.133   0.983  0.2378 -0.4275  0.1246
27296SOL     OW84266   5.262  10.265   1.929  0.2160  0.2046 -0.0531
27296SOL    HW184267   5.301  10.316   1.858  0.0667 -0.5465 -0.6987
27296SOL    HW284268   5.177  10.305   1.944  0.2107  0.3128 -0.3638
27297SOL     OW84269   3.052   0.689  10.099  0.4765 -0.3346 -0.3513
27297SOL    HW184270   3.117   0.622  10.079  1.6674 -0.3141  2.8229
27297SOL    HW284271   3.087   0.769  10.062  1.3325 -0.6717 -0.2813
27298SOL     OW84272   1.996   1.063   3.144 -0.8592 -0.1541  0.0247
27298SOL    HW184273   1.957   1.041   3.060 -0.5894  0.6310 -0.3180
27298SOL    HW284274   2.046   1.144   3.127 -1.3803  0.4181  1.0923
27299SOL     OW84275  10.009   4.637   0.427  0.0056  1.0185  0.4684
27299SOL    HW184276   9.986   4.729   0.415  2.9327  1.7697 -0.1959
27299SOL    HW284277  10.029   4.606   0.339 -2.0149 -0.6553  0.5219
27300SOL     OW84278   6.591   2.652   2.858  0.6642  0.3420  0.5428
27300SOL    HW184279   6.532   2.710   2.905 -1.5070  0.4138 -2.0585
27300SOL    HW284280   6.668   2.707   2.839 -1.0159  2.2561 -1.2171
27301SOL     OW84281   1.821   4.883   2.586  0.0642 -0.0054  0.3934
27301SOL    HW184282   1.770   4.858   2.508  2.8179 -0.1563 -1.5141
27301SOL    HW284283   1.837   4.976   2.574  0.6574 -0.0706  0.6886
27302SOL     OW84284   6.361   2.158   2.033  0.4751 -0.3255  0.0085
27302SOL    HW184285   6.404   2.241   2.012 -1.0368  0.2974 -0.8091
27302SOL    HW284286   6.278   2.184   2.074  0.7117 -1.4764  1.2918
27303SOL     OW84287   0.740   5.453   8.723  0.6048 -0.4782 -0.1746
27303SOL    HW184288   0.762   5.457   8.816 -0.0634 -0.4728 -0.0089
27303SOL    HW284289   0.656   5.499   8.716  0.8822 -0.0523 -0.8570
27304SOL     OW84290   7.520   8.006   0.016  0.1627  0.6658  0.3941
27304SOL    HW184291   7.463   7.929   0.017  0.4775  0.3394 -1.5242
27304SOL    HW284292   7.602   7.977   0.056 -0.0840  0.3262  0.6529
27305SOL     OW84293   6.197   5.893   2.253 -0.5127 -0.3314  0.2150
27305SOL    HW184294   6.246   5.902   2.334  0.9699  1.8841 -0.8013
27305SOL    HW284295   6.224   5.809   2.217 -0.5221 -0.9348  1.5642
27306SOL     OW84296   1.763   3.255   7.104  0.7255  0.4483  0.2354
27306SOL    HW184297   1.670   3.245   7.083  0.5536  1.1954  0.6130
27306SOL    HW284298   1.808   3.231   7.023  0.3288 -1.9534  0.6424
27307SOL     OW84299   5.744   5.121   6.060  0.1503  0.2247  0.3776
27307SOL    HW184300   5.667   5.170   6.092 -0.0970  0.0122  0.1113
27307SOL    HW284301   5.717   5.029   6.064  0.0014  0.2113 -0.7313
27308SOL     OW84302   3.027   6.068   1.328 -0.2529  0.0755 -0.0046
27308SOL    HW184303   3.043   5.976   1.307  1.4635  0.4835 -0.6427
27308SOL    HW284304   3.111   6.111   1.311 -0.7740  1.6101  1.1519
27309SOL     OW84305   3.776   8.376   9.740  0.5982 -0.3309 -0.4835
27309SOL    HW184306   3.847   8.315   9.759  0.9097 -0.7161 -2.6016
27309SOL    HW284307   3.791   8.403   9.649 -0.9598  0.9577 -0.4047
27310SOL     OW84308   1.471   6.048   2.113 -0.0645 -0.0022 -0.1484
27310SOL    HW184309   1.493   5.956   2.102 -0.6264 -0.1697  0.1187
27310SOL    HW284310   1.477   6.062   2.208  0.6515  0.3969 -0.2453
27311SOL     OW84311   8.179   4.740   5.208 -0.1478  0.1692  0.1545
27311SOL    HW184312   8.244   4.793   5.255 -0.4122  0.8378 -0.2135
27311SOL    HW284313   8.094   4.774   5.238 -0.4240 -2.0929  2.2602
27312SOL     OW84314   7.016   0.900   8.345  0.6122  0.1060 -0.1238
27312SOL    HW184315   7.094   0.858   8.309  0.4179  0.7072 -1.3119
27312SOL    HW284316   6.958   0.827   8.367  2.2592 -0.4687  2.7542
27313SOL     OW84317   3.669   5.572   1.602 -0.0906  0.7887 -0.7211
27313SOL    HW184318   3.749   5.522   1.618 -0.6030  0.8808  3.0801
27313SOL    HW284319   3.698   5.663   1.595  0.1838  0.8779  1.1281
27314SOL     OW84320   4.508   7.184   7.054  0.2112 -0.2052 -0.1637
27314SOL    HW184321   4.509   7.191   7.150 -0.3846 -0.4257 -0.1409
27314SOL    HW284322   4.566   7.255   7.025  0.7823 -0.4419  0.3735
27315SOL     OW84323   3.925  10.766   3.399 -0.8101  1.1182 -0.1345
27315SOL    HW184324   3.876  10.783   3.479 -2.1433  1.4473 -0.9989
27315SOL    HW284325   3.874  10.808   3.330  0.1096  0.5061 -1.2203
27316SOL     OW84326   8.254   2.583   9.055  0.0922  0.4617  0.6199
27316SOL    HW184327   8.204   2.636   9.117 -1.3374  0.3923 -0.4305
27316SOL    HW284328   8.191   2.522   9.018  1.0818 -0.0341 -0.3296
27317SOL     OW84329   2.717   2.383   0.056  0.0896 -0.1703  0.4395
27317SOL    HW184330   2.745   2.474   0.064  1.7421 -0.5262 -0.7193
27317SOL    HW284331   2.745   2.341   0.138  1.7442 -0.1978 -0.1199
27318SOL     OW84332   8.272   7.999   4.789 -0.3183 -0.2831  0.0232
27318SOL    HW184333   8.356   8.038   4.763 -0.2668  1.0075  1.8892
27318SOL    HW284334   8.211   8.025   4.721  0.4328  0.3082 -0.4383
27319SOL     OW84335  10.574   4.817   7.548  0.2240 -0.4295 -0.0924
27319SOL    HW184336  10.661   4.791   7.518  0.6855 -1.3908  1.9236
27319SOL    HW284337  10.548   4.886   7.487  2.7391  0.4727 -0.2805
27320SOL     OW84338   5.837   2.982   7.183 -0.2611  0.3361 -0.6913
27320SOL    HW184339   5.788   3.013   7.260  0.9536  1.7331 -0.4214
27320SOL    HW284340   5.917   2.945   7.219  0.4313  1.2285 -1.2709
27321SOL     OW84341   0.517   8.437   0.075  0.1628  0.8053  0.1261
27321SOL    HW184342   0.461   8.502   0.116 -0.1570  0.4470  0.2636
27321SOL    HW284343   0.529   8.369   0.141  0.1477  0.5231 -0.1542
27322SOL     OW84344  10.528   9.610   1.744  0.1282  0.2402 -0.2358
27322SOL    HW184345  10.618   9.607   1.711  0.3286 -0.6969  0.3354
27322SOL    HW284346  10.526   9.542   1.812 -0.9556  0.3997 -0.0951
27323SOL     OW84347   6.903   9.139   4.358 -0.6681 -0.1147  0.4262
27323SOL    HW184348   6.883   9.138   4.451 -0.3608  0.3490  0.5019
27323SOL    HW284349   6.885   9.050   4.328 -1.0175 -0.1965  0.8732
27324SOL     OW84350   0.223   1.864   8.991 -0.3131  0.4834 -0.1113
27324SOL    HW184351   0.192   1.947   9.027 -3.7830 -0.4801 -0.4307
27324SOL    HW284352   0.250   1.885   8.902 -1.7713  1.2161 -0.4120
27325SOL     OW84353   3.311   4.312   3.885  0.2108  0.3700 -0.2286
27325SOL    HW184354   3.225   4.301   3.845  0.1033  0.9283 -0.1618
27325SOL    HW284355   3.369   4.331   3.811  0.2937 -0.1012 -0.2836
27326SOL     OW84356   9.055   9.786   5.012  0.2463 -0.2539 -0.5841
27326SOL    HW184357   8.994   9.852   5.044 -0.5968 -1.8674  1.3166
27326SOL    HW284358   9.025   9.768   4.922 -0.7480  0.5090 -0.4292
27327SOL     OW84359   8.635   5.263   1.971  0.0357 -0.0302 -0.4141
27327SOL    HW184360   8.654   5.220   2.055  0.3755  0.7237 -0.0918
27327SOL    HW284361   8.707   5.325   1.960  0.1854 -0.3712 -1.4466
27328SOL     OW84362   7.569   8.909   2.271 -0.7521  0.1910 -0.4977
27328SOL    HW184363   7.594   8.881   2.358  0.8676  0.1752 -0.9223
27328SOL    HW284364   7.554   8.828   2.222  1.4109  0.0509 -1.0343
27329SOL     OW84365   0.318   6.305   2.855  0.1935 -0.5081  0.0538
27329SOL    HW184366   0.292   6.248   2.783 -2.1159  1.2598 -0.6275
27329SOL    HW284367   0.402   6.342   2.828  0.3203 -1.3867 -0.7903
27330SOL     OW84368   2.621   3.692   2.079 -0.5018 -0.5284 -0.4750
27330SOL    HW184369   2.629   3.740   2.162 -1.4217 -1.2264  0.0337
27330SOL    HW284370   2.531   3.707   2.050 -0.1004 -0.0486 -1.5122
27331SOL     OW84371   7.320  10.455   8.798  0.4302  0.0825  0.4671
27331SOL    HW184372   7.234  10.423   8.827  0.0950  0.4712 -0.0841
27331SOL    HW284373   7.372  10.376   8.789 -0.3166 -0.3014 -0.6366
27332SOL     OW84374   7.792   9.333   3.862 -0.1400 -0.4538  0.8218
27332SOL    HW184375   7.800   9.267   3.793 -1.8975 -1.4606  1.5092
27332SOL    HW284376   7.862   9.396   3.844  0.8632 -1.8983 -0.5212
27333SOL     OW84377   6.020   2.394   5.166 -0.0988  0.2662  0.2836
27333SOL    HW184378   6.014   2.341   5.245  1.3906 -2.3743 -1.2308
27333SOL    HW284379   5.980   2.341   5.097 -0.4298  2.0296 -0.9757
27334SOL     OW84380   9.454   6.115   9.669 -0.3544 -0.0435 -0.0168
27334SOL    HW184381   9.544   6.119   9.637 -0.4656 -0.8929 -0.4627
27334SOL    HW284382   9.446   6.028   9.708 -1.0468 -0.0575 -0.1734
27335SOL     OW84383   4.759   1.430   4.677 -0.0224  0.1499 -0.0006
27335SOL    HW184384   4.798   1.397   4.758  1.0686 -1.2690 -1.0555
27335SOL    HW284385   4.755   1.525   4.688  1.6513  0.1184  1.0499
27336SOL     OW84386   7.597  10.193   3.062  0.6794  0.3019  0.8699
27336SOL    HW184387   7.523  10.188   3.123  1.6539 -0.3637  2.0531
27336SOL    HW284388   7.650  10.116   3.083  0.7035 -0.3252 -1.3177
27337SOL     OW84389   0.371   4.696   5.223 -0.1861  0.4642 -0.1865
27337SOL    HW184390   0.277   4.699   5.208 -0.1726  1.2730 -0.1532
27337SOL    HW284391   0.385   4.750   5.301  0.4653  1.7228 -1.1323
27338SOL     OW84392   9.051   2.290   2.394 -0.5068 -0.0861 -0.1853
27338SOL    HW184393   9.137   2.288   2.353 -0.6662 -0.4624 -0.5145
27338SOL    HW284394   8.990   2.278   2.321 -0.9478  2.2396 -0.2589
27339SOL     OW84395   4.717   0.225  10.264 -0.0332  0.0835  0.0611
27339SOL    HW184396   4.657   0.261  10.330  0.2722  1.2030 -0.2383
27339SOL    HW284397   4.739   0.138  10.297 -0.9419  0.0924  0.7460
27340SOL     OW84398   7.411   7.095   7.704 -0.6403  0.4144  0.2767
27340SOL    HW184399   7.489   7.058   7.662 -0.2675 -0.3068  1.5600
27340SOL    HW284400   7.354   7.120   7.631  1.0726  1.6262 -0.7254
27341SOL     OW84401   8.708   5.634   8.002 -0.3367  0.5841 -0.6883
27341SOL    HW184402   8.741   5.555   8.044 -0.0339  1.6322  1.1306
27341SOL    HW284403   8.613   5.620   7.996 -0.0781 -0.8694 -2.5734
27342SOL     OW84404   3.992   2.439   5.197  0.3685 -0.1254 -0.1110
27342SOL    HW184405   3.920   2.387   5.232 -0.6146 -0.2279 -2.1880
27342SOL    HW284406   4.066   2.378   5.194  0.3129 -0.2831  1.1071
27343SOL     OW84407   2.656   3.021   3.173  0.5050  0.2487  0.3785
27343SOL    HW184408   2.628   2.929   3.171 -0.4545  0.5428 -0.0968
27343SOL    HW284409   2.693   3.032   3.261  2.7203 -1.1710 -0.2805
27344SOL     OW84410   5.926   3.104   2.622 -0.0051 -0.1712  0.2265
27344SOL    HW184411   5.879   3.136   2.545 -1.6549 -0.0040  1.2653
27344SOL    HW284412   5.997   3.050   2.586 -1.1463 -0.6542 -1.3955
27345SOL     OW84413   3.854   7.363   9.240  0.2577  0.1635 -0.6896
27345SOL    HW184414   3.892   7.408   9.315 -0.5721  1.2779 -0.9059
27345SOL    HW284415   3.854   7.429   9.170 -3.2926  0.7461 -0.3223
27346SOL     OW84416   2.385   0.312   8.558  0.3828 -0.1303  0.3344
27346SOL    HW184417   2.424   0.247   8.616  2.1487 -0.4441 -1.1144
27346SOL    HW284418   2.345   0.261   8.487 -0.1084  0.3049  0.2900
27347SOL     OW84419   1.856   7.440   9.495 -0.5407 -0.3075  0.3416
27347SOL    HW184420   1.788   7.434   9.561 -0.2161 -1.9509  0.5675
27347SOL    HW284421   1.929   7.484   9.539 -1.3009  1.1573  0.1968
27348SOL     OW84422   6.673   9.774   7.994 -0.0914  0.4037 -0.3516
27348SOL    HW184423   6.729   9.703   7.962 -0.3885 -0.5166  1.0771
27348SOL    HW284424   6.608   9.785   7.925  0.4560 -0.1325 -0.9747
27349SOL     OW84425   6.632   0.772   4.228 -0.0834  0.4741 -0.0388
27349SOL    HW184426   6.622   0.764   4.323 -1.1147 -0.2226 -0.2012
27349SOL    HW284427   6.589   0.854   4.206 -0.7437  0.1324 -0.0329
27350SOL     OW84428   5.811   5.104   7.460 -0.1764 -0.4855  0.5590
27350SOL    HW184429   5.716   5.096   7.469 -0.6862  0.9518 -2.3998
27350SOL    HW284430   5.829   5.198   7.466  0.9350 -0.6477  0.1017
27351SOL     OW84431   3.244   5.386   5.400  0.5334 -0.0288  0.0960
27351SOL    HW184432   3.205   5.327   5.336 -0.2371  1.5420 -0.9549
27351SOL    HW284433   3.188   5.379   5.477 -0.6476  0.6536 -0.6657
27352SOL     OW84434   8.319   3.157   0.794  0.2786  0.2807 -0.7152
27352SOL    HW184435   8.401   3.154   0.843 -0.7467 -0.6986  1.0593
27352SOL    HW284436   8.319   3.243   0.751  1.5013  0.9357  0.5402
27353SOL     OW84437   8.439   0.850  10.377 -0.0222 -0.3000 -0.5746
27353SOL    HW184438   8.356   0.850  10.425 -0.7083 -1.4270 -1.7056
27353SOL    HW284439   8.481   0.768  10.402  1.3702  0.8359  0.9658
27354SOL     OW84440   8.206   1.469   6.897 -0.2227  0.4517  0.0190
27354SOL    HW184441   8.281   1.459   6.839 -0.3101  0.5196 -0.1081
27354SOL    HW284442   8.218   1.402   6.964  0.7167  1.3995  0.8326
27355SOL     OW84443   5.337   2.620   1.071  0.1276 -0.4135 -0.1043
27355SOL    HW184444   5.343   2.525   1.058  1.2998 -1.0315  3.5906
27355SOL    HW284445   5.417   2.642   1.120  0.0727  2.6070 -1.1395
27356SOL     OW84446   3.742   0.640   6.194 -0.0882  0.1276 -0.4987
27356SOL    HW184447   3.682   0.609   6.126  0.8684 -2.7488 -0.1809
27356SOL    HW284448   3.828   0.636   6.153  0.2295  1.1089  0.0464
27357SOL     OW84449   8.288   2.895  10.569  0.0236 -0.8328  0.1772
27357SOL    HW184450   8.216   2.835  10.588 -1.3600  0.7595  0.1854
27357SOL    HW284451   8.263   2.977  10.611  0.5905  0.5063 -1.9407
27358SOL     OW84452  10.555   1.082   6.699 -0.1401  0.3229 -0.4378
27358SOL    HW184453  10.595   1.168   6.715  1.0895 -0.3412  0.1768
27358SOL    HW284454  10.551   1.075   6.603 -2.2326  1.9272 -0.5402
27359SOL     OW84455   8.414  10.699   1.906 -0.0135 -0.6696 -0.8688
27359SOL    HW184456   8.334  10.667   1.863  0.0614 -1.5034 -0.4102
27359SOL    HW284457   8.474  10.624   1.904  0.6517 -0.1416 -0.9384
27360SOL     OW84458   0.077   7.543   7.923 -0.1972  0.4739 -0.4658
27360SOL    HW184459   0.085   7.598   7.845 -0.1097  1.2659  0.0836
27360SOL    HW284460   0.054   7.605   7.993 -1.8952 -0.4269 -0.1741
27361SOL     OW84461   0.367   6.056   2.025  0.3647  0.3249 -0.4243
27361SOL    HW184462   0.294   6.110   2.054  0.5303 -0.7684  2.3591
27361SOL    HW284463   0.445   6.102   2.058  0.5216 -1.3002  1.7338
27362SOL     OW84464   4.066   2.657   0.637  0.5195 -0.2198  0.0903
27362SOL    HW184465   4.085   2.563   0.635  0.6761 -0.2257  1.4927
27362SOL    HW284466   3.999   2.667   0.705  1.1259  0.7874  0.5538
27363SOL     OW84467   5.325   9.907   0.052 -0.4273 -0.6271 -0.4124
27363SOL    HW184468   5.284   9.845   0.112 -1.7899 -1.8154 -2.4600
27363SOL    HW284469   5.255   9.965   0.024  0.4517  0.7067  0.0467
27364SOL     OW84470   8.469   8.139   7.591  0.0105 -0.0372  0.1393
27364SOL    HW184471   8.514   8.209   7.638 -0.1771 -0.5480  1.0960
27364SOL    HW284472   8.490   8.060   7.639 -0.4736 -0.5280 -0.4382
27365SOL     OW84473   5.102   4.460   3.227 -0.7456  0.1845  0.8897
27365SOL    HW184474   5.144   4.540   3.196 -0.2138 -0.5664 -0.4091
27365SOL    HW284475   5.049   4.431   3.153 -2.5541  0.4018  2.0482
27366SOL     OW84476   3.322   8.284   6.621  0.0231 -0.6353  0.0330
27366SOL    HW184477   3.332   8.363   6.568 -0.7172  0.5494  1.5770
27366SOL    HW284478   3.371   8.302   6.701  0.9166 -2.2818 -0.1033
27367SOL     OW84479   4.713   3.589   2.941 -0.5370  0.4801  0.3384
27367SOL    HW184480   4.654   3.554   2.874 -1.4223  1.4825  0.5651
27367SOL    HW284481   4.776   3.518   2.956 -2.7707 -1.4329  1.4332
27368SOL     OW84482   6.179   9.626   3.026 -0.8226  0.0779 -0.4766
27368SOL    HW184483   6.151   9.610   3.116 -0.2855 -0.2873 -0.3655
27368SOL    HW284484   6.227   9.709   3.030 -1.1361  0.2582 -0.4985
27369SOL     OW84485   5.322   7.806   4.051  0.2224  0.0597 -0.0085
27369SOL    HW184486   5.395   7.832   3.995  1.2277 -0.0465  1.1889
27369SOL    HW284487   5.364   7.767   4.128 -1.0754  0.5824  1.0149
27370SOL     OW84488   8.738   5.012   2.097  0.1776 -0.5083  0.4434
27370SOL    HW184489   8.699   5.000   2.011  1.2663  1.1728 -0.3454
27370SOL    HW284490   8.833   5.005   2.081  0.3686 -0.9346  1.6570
27371SOL     OW84491   8.579   1.050   0.098 -0.0609 -0.2852  0.7384
27371SOL    HW184492   8.579   1.067   0.004  2.3827  1.4524  0.9701
27371SOL    HW284493   8.502   1.097   0.131  0.4866  1.2650 -0.0952
27372SOL     OW84494   6.587   6.850   8.546 -0.1697  0.6447 -0.2746
27372SOL    HW184495   6.663   6.908   8.536  0.3936  0.0166  0.3110
27372SOL    HW284496   6.513   6.903   8.516  0.7814  0.4201 -3.3770
27373SOL     OW84497   1.873   3.197  10.272  0.2514 -0.3009 -0.0011
27373SOL    HW184498   1.779   3.182  10.286 -0.1329  1.2039 -0.8065
27373SOL    HW284499   1.887   3.288  10.296  1.5037 -0.4780  0.0089
27374SOL     OW84500   0.726   9.112   9.632  0.4816 -0.1937  0.5306
27374SOL    HW184501   0.657   9.047   9.621 -0.8920  0.7859  2.7363
27374SOL    HW284502   0.739   9.118   9.727  1.1001  2.1593  0.3701
27375SOL     OW84503   4.196   5.697   6.536  0.0017  0.1639  0.1811
27375SOL    HW184504   4.244   5.716   6.617 -0.3433  0.8278  0.2392
27375SOL    HW284505   4.207   5.776   6.483 -0.6424  0.1438  0.0092
27376SOL     OW84506  10.638   4.091   6.534  0.8263 -0.3862  0.4493
27376SOL    HW184507  10.609   4.167   6.484  2.6291  0.2341  0.2644
27376SOL    HW284508  10.576   4.083   6.606  0.1873  0.7972  0.0436
27377SOL     OW84509   7.403   5.970   7.263  0.1072 -0.0449  0.2057
27377SOL    HW184510   7.405   5.877   7.287  4.0358 -0.3121 -0.5011
27377SOL    HW284511   7.445   6.014   7.337 -3.2159  1.5216  1.3130
27378SOL     OW84512   9.569   7.656   9.062 -0.2161  0.0597 -0.8441
27378SOL    HW184513   9.653   7.700   9.047 -0.3883  1.7878  2.4033
27378SOL    HW284514   9.593   7.569   9.094  0.3815  0.5824  0.1716
27379SOL     OW84515   6.134   6.579   0.224  0.4730 -0.4518  0.7114
27379SOL    HW184516   6.047   6.618   0.226  1.1885  1.2314  0.4105
27379SOL    HW284517   6.122   6.495   0.179 -0.9654 -0.1869  0.5769
27380SOL     OW84518   8.842   6.831   8.983 -0.3255  0.0932  0.3200
27380SOL    HW184519   8.753   6.807   8.956 -0.7611  1.6500  0.3062
27380SOL    HW284520   8.830   6.886   9.060  0.7263 -0.9835  1.2883
27381SOL     OW84521   1.582  10.529   0.053  0.2001  0.4007  0.3989
27381SOL    HW184522   1.669  10.562   0.031  0.4345  0.2920  1.1320
27381SOL    HW284523   1.537  10.520  -0.031  0.7181  0.9566  0.0591
27382SOL     OW84524   2.933   2.760   1.893  0.0682  0.4094  0.3559
27382SOL    HW184525   2.941   2.785   1.985  0.3805  0.2224  0.3818
27382SOL    HW284526   2.843   2.730   1.884  0.1921 -0.0880  0.7334
27383SOL     OW84527   9.895   7.450   4.443  0.4314  0.0902 -0.7302
27383SOL    HW184528   9.948   7.529   4.456  0.8644 -0.2469 -0.4187
27383SOL    HW284529   9.887   7.442   4.348  0.1160  0.6835 -0.7606
27384SOL     OW84530   6.262   6.707   9.176  0.0545  0.2280  0.0636
27384SOL    HW184531   6.235   6.725   9.265  1.5181  0.5726  0.4661
27384SOL    HW284532   6.354   6.681   9.183  0.5027  1.2339 -1.4245
27385SOL     OW84533   2.132   9.854   9.450  0.5863  0.2992  0.3681
27385SOL    HW184534   2.134   9.910   9.528 -0.0741  0.9506 -0.0760
27385SOL    HW284535   2.070   9.896   9.391  0.7485 -0.4257 -0.3419
27386SOL     OW84536   6.246   3.285   2.490 -0.5301 -0.0595  0.0721
27386SOL    HW184537   6.218   3.201   2.525 -1.6113 -0.0434 -0.6723
27386SOL    HW284538   6.262   3.268   2.397 -0.9214  0.5806 -0.1216
27387SOL     OW84539   9.614   7.801   2.492 -0.0923 -0.1664  0.3495
27387SOL    HW184540   9.593   7.874   2.435 -0.0855 -0.9716 -0.7093
27387SOL    HW284541   9.677   7.837   2.555 -0.8430  0.9790  0.4734
27388SOL     OW84542   7.750   2.261   3.670  0.2617  0.4044  0.2857
27388SOL    HW184543   7.739   2.234   3.579  0.2453 -1.9168  0.9345
27388SOL    HW284544   7.827   2.318   3.669 -0.6454  1.7226 -1.3744
27389SOL     OW84545   3.526   1.495   9.194  0.4401 -0.2446  0.3933
27389SOL    HW184546   3.581   1.416   9.199  0.0290 -0.5743 -0.1767
27389SOL    HW284547   3.589   1.566   9.182  0.8571 -0.3995  1.5528
27390SOL     OW84548   7.071   0.778   3.987  0.8264  0.3783 -0.8488
27390SOL    HW184549   7.071   0.713   4.057 -2.3892  1.0531 -0.0468
27390SOL    HW284550   7.114   0.855   4.026 -0.3519  0.5257  0.2143
27391SOL     OW84551   8.196   6.369   2.120 -0.1614  0.0175  0.1643
27391SOL    HW184552   8.132   6.438   2.104  0.7123  0.2959 -2.7323
27391SOL    HW284553   8.166   6.326   2.199 -3.0060  1.1487 -0.1851
27392SOL     OW84554   2.798   0.492   4.725  0.4686 -0.0961  0.3837
27392SOL    HW184555   2.834   0.510   4.812  2.3857 -0.9518 -0.1880
27392SOL    HW284556   2.709   0.460   4.743  0.9349 -0.5916  2.0503
27393SOL     OW84557   3.813   1.066   1.981 -0.2132 -0.0041  0.4243
27393SOL    HW184558   3.775   0.978   1.978 -0.7740  0.2826 -1.8441
27393SOL    HW284559   3.865   1.072   1.901 -1.6452  2.3615 -0.4087
27394SOL     OW84560   4.345   5.268   5.470 -0.3417 -0.3614  0.3060
27394SOL    HW184561   4.306   5.190   5.429 -0.5730  0.1910 -0.5506
27394SOL    HW284562   4.439   5.250   5.470 -0.3181 -0.3076 -0.6391
27395SOL     OW84563   7.601   6.958   0.046 -0.2865 -0.0431  0.5163
27395SOL    HW184564   7.565   6.885   0.095  1.8829 -0.9607  0.8445
27395SOL    HW284565   7.630   7.021   0.112  1.0998 -0.5277  0.4094
27396SOL     OW84566   0.667   3.812   9.704 -0.5319  0.1356  0.0418
27396SOL    HW184567   0.581   3.811   9.662 -1.2140  0.2994  1.3655
27396SOL    HW284568   0.727   3.841   9.636 -1.5121 -0.0571 -0.9316
27397SOL     OW84569   7.225   3.407   9.375 -0.0864  0.7094 -0.4677
27397SOL    HW184570   7.255   3.355   9.450  0.3676 -0.4880 -1.4504
27397SOL    HW284571   7.253   3.496   9.395 -0.0481  0.4265  0.8223
27398SOL     OW84572   1.221   4.274   7.478  0.2145 -0.0321 -0.2354
27398SOL    HW184573   1.265   4.224   7.547  1.0948 -1.2278 -1.6073
27398SOL    HW284574   1.266   4.358   7.477  1.3008 -0.6016 -0.4387
27399SOL     OW84575   0.675   9.677   4.394  1.0145  0.1876  0.0846
27399SOL    HW184576   0.730   9.719   4.460  1.3701  0.2363 -0.2391
27399SOL    HW284577   0.617   9.620   4.444 -0.0717  1.6810  0.6159
27400SOL     OW84578   0.234   1.517   0.289 -0.4604  0.1420  0.1661
27400SOL    HW184579   0.250   1.589   0.350  0.1704  1.0052 -0.9813
27400SOL    HW284580   0.308   1.458   0.301 -1.1005 -0.4778  1.2826
27401SOL     OW84581   5.152   7.027   1.121  0.6684 -0.0091 -0.4913
27401SOL    HW184582   5.208   7.065   1.188  1.0410 -0.3585 -0.6049
27401SOL    HW284583   5.100   6.962   1.168 -1.5665  2.1090  0.1818
27402SOL     OW84584   0.354   9.194   0.722 -0.3185  0.4094  0.0997
27402SOL    HW184585   0.297   9.198   0.644  1.0880  1.5758 -0.9257
27402SOL    HW284586   0.354   9.102   0.746  0.2461 -0.2332 -2.1190
27403SOL     OW84587   4.126   6.881   9.239 -0.1877  0.4065  0.3734
27403SOL    HW184588   4.081   6.958   9.204 -0.2714 -0.0438 -0.5516
27403SOL    HW284589   4.205   6.873   9.185  0.0124  0.0623  0.7091
27404SOL     OW84590   5.471   3.847   9.758 -0.0642  0.1290  0.5423
27404SOL    HW184591   5.484   3.881   9.846  0.1588  2.2576 -0.2486
27404SOL    HW284592   5.445   3.924   9.706  1.0597 -0.7762 -1.4973
27405SOL     OW84593   4.130   6.907   3.132 -0.1581  0.1533  0.0687
27405SOL    HW184594   4.128   7.002   3.121  1.6181  0.1370 -0.6452
27405SOL    HW284595   4.046   6.877   3.096 -0.8283  1.4547  0.4935
27406SOL     OW84596   0.074   1.447   3.678 -0.0387  0.3886  1.2704
27406SOL    HW184597   0.113   1.532   3.658  0.5484 -0.2360 -0.4021
27406SOL    HW284598   0.143   1.400   3.725  1.1190 -0.4610 -1.0748
27407SOL     OW84599   1.689   3.826   7.523 -0.1853 -0.3943 -0.2834
27407SOL    HW184600   1.757   3.892   7.510 -1.7729  1.4565  0.2051
27407SOL    HW284601   1.736   3.744   7.533  1.9756  0.8288  0.2712
27408SOL     OW84602   0.809   5.606   2.871 -0.1818 -0.7054  0.4856
27408SOL    HW184603   0.850   5.521   2.886 -0.3505 -0.9357 -0.3075
27408SOL    HW284604   0.868   5.668   2.914 -0.8498 -1.3402  2.4066
27409SOL     OW84605   0.977   1.780   0.043 -0.4668 -0.4262 -0.4621
27409SOL    HW184606   0.916   1.800  -0.029 -0.7018  0.3479 -0.0542
27409SOL    HW284607   0.921   1.767   0.119 -0.0866  1.4389  0.1803
27410SOL     OW84608   8.495   7.114   7.024  0.2300 -0.6687 -0.3431
27410SOL    HW184609   8.587   7.140   7.015  0.7023 -2.2874 -0.5205
27410SOL    HW284610   8.499   7.022   7.053 -1.3183 -1.1861 -1.6426
27411SOL     OW84611   8.959   7.620   4.043  0.3831  0.0045  0.4361
27411SOL    HW184612   8.944   7.526   4.032 -0.3810  0.3272 -1.6396
27411SOL    HW284613   8.872   7.657   4.055  0.5863  0.5625  0.2261
27412SOL     OW84614   0.769   5.445   6.198 -0.0318  0.3160 -0.6658
27412SOL    HW184615   0.807   5.433   6.111  0.4476 -2.0385 -0.2056
27412SOL    HW284616   0.842   5.428   6.258 -0.7149  0.3950  0.1978
27413SOL     OW84617   4.578   5.938   3.276  0.0509 -0.2651 -0.1337
27413SOL    HW184618   4.536   5.910   3.195  0.8116  0.2440 -0.7178
27413SOL    HW284619   4.518   5.910   3.345  0.5180 -2.8858 -0.6739
27414SOL     OW84620   6.025   6.404   4.121 -0.6415 -0.0078 -0.0056
27414SOL    HW184621   5.994   6.493   4.138 -2.2242  0.0795 -2.8201
27414SOL    HW284622   6.035   6.400   4.026  2.1096 -2.0397  0.2361
27415SOL     OW84623   0.743  10.549  10.440  0.1890  0.2732  0.3106
27415SOL    HW184624   0.697  10.574  10.360  0.3866  0.0948  0.1384
27415SOL    HW284625   0.674  10.531  10.504  0.0420  1.1895  0.4211
27416SOL     OW84626   6.962   3.648   9.060  0.0131  0.2825 -0.2273
27416SOL    HW184627   6.892   3.615   9.116  0.2537  1.3529  0.7567
27416SOL    HW284628   7.028   3.578   9.062 -1.0205 -0.7638 -1.2214
27417SOL     OW84629   0.587  10.608   6.194 -0.2842 -0.5307 -0.3975
27417SOL    HW184630   0.596  10.528   6.245 -1.9564 -1.2459 -1.1476
27417SOL    HW284631   0.556  10.579   6.108 -4.1077  1.0385  0.2463
27418SOL     OW84632   3.791   8.416  10.004 -0.2606  0.3412  0.2228
27418SOL    HW184633   3.839   8.498  10.002  1.2955 -0.5355 -2.2051
27418SOL    HW284634   3.755   8.406   9.916 -0.9915 -1.2420  0.6562
27419SOL     OW84635   2.081   4.592   0.453  0.0697 -0.5706  0.4699
27419SOL    HW184636   2.161   4.618   0.499  1.5208 -1.1039 -1.5999
27419SOL    HW284637   2.083   4.641   0.371 -0.2927 -2.5636 -0.8102
27420SOL     OW84638   9.416   4.094   4.489  0.8488 -0.1179 -0.3132
27420SOL    HW184639   9.478   4.053   4.428  1.5110  0.2993  0.0749
27420SOL    HW284640   9.345   4.029   4.497  1.5040 -0.8557 -0.3189
27421SOL     OW84641   2.985   2.333   9.261 -0.7442 -0.2436 -0.1284
27421SOL    HW184642   2.918   2.297   9.318  0.6317  0.0024  1.7309
27421SOL    HW284643   3.067   2.313   9.305  0.4339 -0.5001 -2.3124
27422SOL     OW84644   1.651   0.074   7.336  0.0376  0.0213  0.2816
27422SOL    HW184645   1.653   0.143   7.269 -2.6217  1.8693  1.8893
27422SOL    HW284646   1.742   0.062   7.362  0.7538  1.6773 -1.2883
27423SOL     OW84647   7.464   7.078   8.366  0.3543  0.4167 -0.0792
27423SOL    HW184648   7.543   7.094   8.418 -0.0760  1.5363  0.2669
27423SOL    HW284649   7.394   7.118   8.417 -0.5158 -0.8852 -0.2023
27424SOL     OW84650   9.426   7.242   3.027 -0.2661 -0.2826  0.0188
27424SOL    HW184651   9.420   7.338   3.034 -3.1101 -0.2892 -1.1881
27424SOL    HW284652   9.462   7.227   2.940 -0.0794 -0.3262  0.1027
27425SOL     OW84653   6.542   9.751   9.404 -0.2565 -0.2370 -0.3839
27425SOL    HW184654   6.471   9.755   9.339 -0.1738 -1.4135 -0.5613
27425SOL    HW284655   6.604   9.818   9.375 -0.4506 -0.4147 -1.2591
27426SOL     OW84656   7.133   7.058   3.662 -0.0524  0.4601 -0.3880
27426SOL    HW184657   7.192   6.987   3.689  0.0845  0.8384  0.3521
27426SOL    HW284658   7.089   7.025   3.584  0.4418 -0.2060 -0.3928
27427SOL     OW84659   9.979   4.578   2.141  0.0439  0.0909  0.0481
27427SOL    HW184660   9.927   4.553   2.065 -1.6274 -0.9942  1.4847
27427SOL    HW284661  10.067   4.591   2.105 -0.8781  0.6661 -2.2271
27428SOL     OW84662   4.815  10.457   8.635  0.6677  0.0635  0.2668
27428SOL    HW184663   4.740  10.459   8.575  1.2013 -1.6232 -0.5277
27428SOL    HW284664   4.806  10.536   8.687  0.0737  1.5337 -1.9146
27429SOL     OW84665   0.663   1.176   3.867  0.0771 -0.0668  0.0599
27429SOL    HW184666   0.727   1.247   3.875  0.0441  0.1698 -1.5299
27429SOL    HW284667   0.705   1.102   3.909  0.9098  0.3997  0.0836
27430SOL     OW84668   2.008   6.918   4.405 -1.3652 -0.5325  0.5884
27430SOL    HW184669   2.014   6.881   4.318  0.0622 -0.4149  0.6091
27430SOL    HW284670   1.935   6.872   4.447 -0.8206 -1.9854 -0.0067
27431SOL     OW84671   5.334   2.918   0.314 -0.0176  1.0528  0.2831
27431SOL    HW184672   5.355   2.975   0.388  1.0208  0.7159  0.2515
27431SOL    HW284673   5.384   2.838   0.330 -0.9243  0.4038 -0.0343
27432SOL     OW84674   6.758   0.545   1.678 -0.3987 -0.1716 -0.2196
27432SOL    HW184675   6.757   0.483   1.751 -1.6005  0.7961  0.6364
27432SOL    HW284676   6.666   0.564   1.661 -0.0774  1.8325 -0.0249
27433SOL     OW84677   1.726   0.629   7.532  0.6156 -0.1330 -0.4686
27433SOL    HW184678   1.647   0.577   7.547  0.4445  0.6319  1.7608
27433SOL    HW284679   1.700   0.693   7.466 -0.8034  0.3259  0.4743
27434SOL     OW84680   8.156   4.565   1.910  0.3433  0.6035  0.6817
27434SOL    HW184681   8.155   4.551   2.005  0.2722  0.5664  0.6756
27434SOL    HW284682   8.064   4.578   1.887 -0.0009 -2.2022  0.1915
27435SOL     OW84683   1.344   2.019   9.641  0.5680 -0.1351  0.1898
27435SOL    HW184684   1.295   2.019   9.559 -0.1709 -0.0920  0.6237
27435SOL    HW284685   1.435   2.033   9.614  0.3423 -0.1478 -0.6213
27436SOL     OW84686   6.581   1.827   1.505 -0.0996  0.2977  0.1929
27436SOL    HW184687   6.559   1.751   1.450  2.2681  0.1122 -0.6260
27436SOL    HW284688   6.648   1.794   1.565 -0.5297  1.2513  1.2159
27437SOL     OW84689   3.880   5.284   3.720  0.0967 -0.0842  0.0101
27437SOL    HW184690   3.969   5.250   3.723 -0.0034 -0.3441  0.1238
27437SOL    HW284691   3.850   5.265   3.631 -0.3104 -1.2312  0.3654
27438SOL     OW84692   4.473   3.537   7.404  0.5094  0.1605  0.7422
27438SOL    HW184693   4.423   3.609   7.367  0.6210 -0.0775  0.1127
27438SOL    HW284694   4.502   3.486   7.328  0.6250 -0.4175  1.1641
27439SOL     OW84695  10.744   7.285   1.088  0.3597  0.1327 -0.0624
27439SOL    HW184696  10.739   7.379   1.104  0.9081  0.0199  0.8644
27439SOL    HW284697  10.661   7.262   1.047 -0.1730  0.8581  0.5986
27440SOL     OW84698   2.377   1.374  10.235  0.2837  0.3498 -0.1116
27440SOL    HW184699   2.348   1.291  10.272 -0.7585  1.4114  1.6253
27440SOL    HW284700   2.470   1.361  10.216  0.6542 -0.5928  2.0631
27441SOL     OW84701   1.700   7.088   7.237  0.0287 -0.5543 -0.1500
27441SOL    HW184702   1.752   7.168   7.240  0.2176 -0.6749 -0.2334
27441SOL    HW284703   1.609   7.119   7.232  0.1343 -0.3393 -0.8626
27442SOL     OW84704   6.916   8.911   5.806 -0.1162  0.4596  0.6222
27442SOL    HW184705   6.895   8.997   5.769  0.2908  0.0335 -0.6872
27442SOL    HW284706   7.001   8.890   5.768 -1.0174 -1.2969 -0.5300
27443SOL     OW84707   8.385   0.715   8.083 -0.0918 -0.2061  0.1585
27443SOL    HW184708   8.474   0.684   8.065  1.3829  1.6075  3.4586
27443SOL    HW284709   8.369   0.781   8.016  1.0869 -0.5448 -0.4908
27444SOL     OW84710   0.454   1.262   7.470 -0.2014 -0.2257 -0.5443
27444SOL    HW184711   0.523   1.213   7.514  2.4935  2.2085 -1.6789
27444SOL    HW284712   0.400   1.298   7.542  0.6469 -0.9249  0.4656
27445SOL     OW84713   1.144  10.033   2.470 -0.1276 -0.3128 -0.1970
27445SOL    HW184714   1.125   9.991   2.553 -0.4857  0.4481  0.1128
27445SOL    HW284715   1.091  10.112   2.470  0.7356  0.2865 -0.6474
27446SOL     OW84716   5.028   3.214   3.347 -0.6362  0.4466  0.1149
27446SOL    HW184717   5.020   3.131   3.300 -0.0193  0.1169  0.5766
27446SOL    HW284718   4.938   3.239   3.367 -0.9409  0.7527 -1.4834
27447SOL     OW84719   7.037   6.823   8.712 -0.4805  0.3394 -0.2821
27447SOL    HW184720   7.048   6.889   8.644  0.3134  1.5533  0.9651
27447SOL    HW284721   7.061   6.740   8.670 -0.7355  0.9462 -1.6609
27448SOL     OW84722   5.897   9.139   3.500 -0.2515  0.1430  0.3072
27448SOL    HW184723   5.861   9.198   3.566  1.9666  0.6059  1.1709
27448SOL    HW284724   5.985   9.117   3.531  1.5665  1.6111 -3.1785
27449SOL     OW84725  10.791  10.794   8.958 -0.1384  0.1561  0.2363
27449SOL    HW184726  10.769  10.721   9.016  1.2266 -0.0419  0.5479
27449SOL    HW284727  10.723  10.793   8.890 -1.8302  0.4489  1.8511
27450SOL     OW84728   2.681   1.246   7.122  0.8440 -0.1141 -0.0544
27450SOL    HW184729   2.732   1.169   7.097  0.1299 -0.9739  1.0850
27450SOL    HW284730   2.592   1.226   7.093  0.4927 -0.0769  0.9646
27451SOL     OW84731  10.483   6.280   3.265  0.1316 -0.0997  0.0698
27451SOL    HW184732  10.564   6.307   3.220 -0.3413  0.0213 -0.7367
27451SOL    HW284733  10.509   6.203   3.316  0.8039  0.0565 -0.0201
27452SOL     OW84734   1.568   9.158   9.832 -0.6362 -0.5757  0.4360
27452SOL    HW184735   1.614   9.204   9.761 -2.0424  1.2191  0.6243
27452SOL    HW284736   1.613   9.187   9.912  0.4427 -1.9910  0.3876
27453SOL     OW84737   4.296   2.161   1.076 -0.5584  0.4481  0.5333
27453SOL    HW184738   4.328   2.177   1.165  1.8659  0.4181 -0.2511
27453SOL    HW284739   4.333   2.076   1.052 -0.9670  0.5654 -0.5916
27454SOL     OW84740  10.448   2.044   6.216  0.5127 -0.1208  0.4375
27454SOL    HW184741  10.355   2.064   6.228 -0.0657 -2.5374  0.4425
27454SOL    HW284742  10.470   2.084   6.132 -0.2549  1.2611  0.8510
27455SOL     OW84743   6.308   3.651  10.428  0.0275  0.5997  0.3535
27455SOL    HW184744   6.278   3.693  10.508  2.5183  3.1059  0.1057
27455SOL    HW284745   6.283   3.711  10.358  0.6633 -0.0220 -0.4294
27456SOL     OW84746   0.847  10.323   2.602  0.4838 -0.0192  0.4803
27456SOL    HW184747   0.900  10.330   2.522  0.2953 -1.0875  0.2417
27456SOL    HW284748   0.757  10.333   2.571  0.4438  0.1498  0.6504
27457SOL     OW84749   2.135   3.760   3.375  0.2754 -0.1754 -0.1838
27457SOL    HW184750   2.096   3.680   3.411  1.2808 -1.9541 -2.7867
27457SOL    HW284751   2.068   3.794   3.316 -0.5790  1.6346  1.6720
27458SOL     OW84752   7.757   9.030   6.992 -0.1423  0.2296 -0.5227
27458SOL    HW184753   7.791   9.026   7.081 -0.9402  1.4540 -0.1509
27458SOL    HW284754   7.813   9.094   6.948 -1.0568  1.2157 -0.2911
27459SOL     OW84755   2.708   0.176   0.910  0.3135  0.2007  0.5576
27459SOL    HW184756   2.793   0.181   0.953  0.6217 -0.6281  0.0763
27459SOL    HW284757   2.707   0.089   0.869 -1.0068 -0.0474  1.0691
27460SOL     OW84758   7.796   1.499   0.824  0.1189 -0.6239  0.4818
27460SOL    HW184759   7.794   1.540   0.737 -1.6186  0.7709  1.1231
27460SOL    HW284760   7.710   1.459   0.833 -0.0688  0.0611  1.9300
27461SOL     OW84761   7.939   2.804   8.838 -0.2703  0.2913 -0.2691
27461SOL    HW184762   7.960   2.749   8.762  0.4287  1.3065 -0.8374
27461SOL    HW284763   7.985   2.886   8.821  0.2414  0.3886  1.4746
27462SOL     OW84764   8.400   7.164   4.243 -0.3369 -0.3507 -0.5200
27462SOL    HW184765   8.308   7.182   4.263 -0.2694 -0.9726  0.3692
27462SOL    HW284766   8.401   7.150   4.148 -1.0474  0.3088 -0.6350
27463SOL     OW84767   8.490   3.268   8.728 -0.0567  0.2508 -0.1337
27463SOL    HW184768   8.476   3.203   8.660 -0.1790  1.3108 -1.1586
27463SOL    HW284769   8.541   3.222   8.795 -1.2464 -1.2534 -0.2102
27464SOL     OW84770   9.884   2.218   5.817 -0.0527  0.5604 -0.2302
27464SOL    HW184771   9.797   2.186   5.794  0.9348 -2.0306 -0.7562
27464SOL    HW284772   9.933   2.216   5.735  1.5067 -1.7735  0.6544
27465SOL     OW84773  10.349   8.208   0.446  0.4106  0.2490  0.2278
27465SOL    HW184774  10.413   8.138   0.449  0.1616 -0.0841 -1.4721
27465SOL    HW284775  10.400   8.286   0.424  0.6753  0.6158  2.0373
27466SOL     OW84776   6.134  10.573  10.297  0.0939 -0.4062 -0.2906
27466SOL    HW184777   6.091  10.577  10.383 -0.3438  0.0851 -0.5300
27466SOL    HW284778   6.083  10.632  10.242  2.0465  1.5474 -0.1520
27467SOL     OW84779   2.578   2.005   6.663 -0.5220 -0.2924  1.0996
27467SOL    HW184780   2.523   2.073   6.702  1.7822  2.1367  0.3924
27467SOL    HW284781   2.650   1.993   6.725 -0.2298 -1.1809  0.6094
27468SOL     OW84782   7.950   9.335   8.776 -0.0772  0.5432  0.3002
27468SOL    HW184783   8.008   9.339   8.851 -1.8280 -0.6298  1.8202
27468SOL    HW284784   7.905   9.420   8.775  0.3241  0.7566  0.2398
27469SOL     OW84785   2.580   4.168   3.598  0.4225  0.0817 -0.4804
27469SOL    HW184786   2.556   4.198   3.686  0.5146  1.7616 -0.9971
27469SOL    HW284787   2.502   4.187   3.544  0.3436 -0.9892 -0.7678
27470SOL     OW84788   8.206   9.660   7.258  0.0719  0.0609  0.9232
27470SOL    HW184789   8.119   9.664   7.217  0.6555 -1.2686 -0.5502
27470SOL    HW284790   8.255   9.599   7.203  1.1836 -1.1839  3.1843
27471SOL     OW84791   9.805   9.431   6.179 -0.1749 -0.1169  0.3206
27471SOL    HW184792   9.813   9.524   6.156  0.8911 -0.5544 -1.2869
27471SOL    HW284793   9.711   9.414   6.176 -0.2847  0.5454 -1.1040
27472SOL     OW84794  10.583   0.020   1.613  0.0807 -0.1821 -0.2995
27472SOL    HW184795  10.491   0.017   1.636 -0.5134  3.8370 -1.3011
27472SOL    HW284796  10.603  -0.068   1.581 -3.2012 -1.3398  0.4364
27473SOL     OW84797   2.813  10.112  10.581 -0.3561  0.0849 -0.0709
27473SOL    HW184798   2.782  10.039  10.634 -2.6985  3.0749  3.1791
27473SOL    HW284799   2.734  10.160  10.558  1.1741  3.4227  1.0029
27474SOL     OW84800   4.033   0.831   3.786  0.1750 -0.2767 -0.1966
27474SOL    HW184801   3.965   0.764   3.795  1.3776 -1.4138  0.8926
27474SOL    HW284802   4.086   0.822   3.866  1.7895  0.3270 -1.1572
27475SOL     OW84803   5.587   4.647   5.829 -0.2345 -0.0049 -0.3688
27475SOL    HW184804   5.632   4.709   5.772 -1.4283 -0.2039 -1.5729
27475SOL    HW284805   5.656   4.588   5.859  0.7206  1.2000 -0.1218
27476SOL     OW84806   5.612   7.570  10.174 -0.3377 -0.0180  0.3346
27476SOL    HW184807   5.611   7.516  10.095  1.5633  0.4456 -0.0558
27476SOL    HW284808   5.583   7.657  10.144 -0.3207 -0.0242  0.2993
27477SOL     OW84809   0.331   2.303   4.500  0.2421 -0.4413  0.1018
27477SOL    HW184810   0.323   2.368   4.570 -1.0118  0.2878 -0.6819
27477SOL    HW284811   0.341   2.219   4.546 -0.2171  0.0548  1.1452
27478SOL     OW84812   4.738   4.363   2.687 -0.0135  0.0848  0.3652
27478SOL    HW184813   4.753   4.442   2.634  0.6296 -0.3739 -0.1537
27478SOL    HW284814   4.727   4.397   2.776  0.7476  0.7332  0.2279
27479SOL     OW84815  10.779   9.221   0.955 -0.3688  0.2439  0.0702
27479SOL    HW184816  10.778   9.194   0.863  1.1512  0.5141 -0.0501
27479SOL    HW284817  10.839   9.159   0.997 -0.0891  0.8869  0.6225
27480SOL     OW84818   1.899   1.081   4.233 -0.3169  0.6821 -0.3767
27480SOL    HW184819   1.856   1.155   4.190  1.5657  1.5053 -0.9574
27480SOL    HW284820   1.904   1.107   4.325  1.8135  2.1293 -0.8177
27481SOL     OW84821   8.064   1.486   6.132 -0.0953  0.9649 -0.2413
27481SOL    HW184822   8.002   1.538   6.081 -0.5022  1.2704  0.5609
27481SOL    HW284823   8.041   1.502   6.223 -0.1291 -0.4939  0.0329
27482SOL     OW84824   9.122   5.485   5.119 -0.1906  0.2825  0.3786
27482SOL    HW184825   9.198   5.427   5.125 -0.5107 -0.1387  0.3974
27482SOL    HW284826   9.159   5.574   5.125  0.1285  0.0657  2.1941
27483SOL     OW84827   2.977   3.520   2.608  0.2879 -0.3263  0.1935
27483SOL    HW184828   3.017   3.571   2.678 -2.9695  1.3203  1.0552
27483SOL    HW284829   2.979   3.578   2.532  1.3302 -1.0536 -0.3629
27484SOL     OW84830   0.437   5.490   6.489  0.0342  0.2919  0.0890
27484SOL    HW184831   0.435   5.580   6.456  0.6184  0.2159 -0.1587
27484SOL    HW284832   0.464   5.437   6.414 -0.0290 -0.0549  0.3086
27485SOL     OW84833   0.260   5.240   3.360 -0.7407 -0.5775  0.1682
27485SOL    HW184834   0.299   5.264   3.276  0.8811  1.8559  1.5348
27485SOL    HW284835   0.334   5.221   3.417 -1.8220 -3.7968  0.7571
27486SOL     OW84836   1.786   8.094   0.533 -0.4281  0.3465 -0.0819
27486SOL    HW184837   1.801   8.106   0.439 -0.2739 -0.7302 -0.2020
27486SOL    HW284838   1.832   8.168   0.573  2.5950 -1.0351 -0.6465
27487SOL     OW84839   6.861   3.139   3.727 -0.3735 -0.1486 -0.4473
27487SOL    HW184840   6.916   3.090   3.788 -1.7483 -1.6541 -0.3445
27487SOL    HW284841   6.805   3.192   3.784 -0.2995 -0.0338 -0.4809
27488SOL     OW84842   3.527   7.250   4.449  0.1909 -0.1410 -0.0151
27488SOL    HW184843   3.433   7.238   4.462 -0.5214  2.3853 -2.0107
27488SOL    HW284844   3.545   7.337   4.485  1.3053  0.2920 -1.5289
27489SOL     OW84845  10.645   0.082   6.061 -0.7806 -0.2764 -0.1468
27489SOL    HW184846  10.662   0.135   5.983 -1.2269 -1.6252 -1.2137
27489SOL    HW284847  10.669   0.138   6.134  0.5537  0.7069 -1.2820
27490SOL     OW84848   3.828   6.702   9.630  0.2766 -0.1901 -0.0759
27490SOL    HW184849   3.888   6.631   9.608  0.4853 -0.2689  0.7201
27490SOL    HW284850   3.879   6.759   9.687 -0.4320 -0.3081  0.6920
27491SOL     OW84851   9.473   0.780   2.639  0.3467 -0.0472  0.5264
27491SOL    HW184852   9.422   0.794   2.719  0.5101  0.9520  0.4723
27491SOL    HW284853   9.408   0.784   2.569  0.4915  1.4074  0.4432
27492SOL     OW84854   0.783   0.986   3.658 -0.3803 -0.2424  0.0838
27492SOL    HW184855   0.723   0.916   3.683 -0.2276 -0.4421 -0.1003
27492SOL    HW284856   0.737   1.036   3.591  0.2712 -1.3706 -1.2610
27493SOL     OW84857   2.748   2.091   8.749  0.2792 -0.0935 -0.8279
27493SOL    HW184858   2.824   2.087   8.690  0.7746  1.0547 -0.2981
27493SOL    HW284859   2.702   2.171   8.724 -0.4181 -0.4544 -0.7244
27494SOL     OW84860   4.485   9.294   5.446  0.4133 -0.2077  0.0066
27494SOL    HW184861   4.436   9.373   5.421  0.2088 -0.3336  0.0112
27494SOL    HW284862   4.435   9.258   5.519  1.2643  0.4220  0.9284
27495SOL     OW84863  10.143   1.433   6.301  0.2810  0.2485  0.0188
27495SOL    HW184864  10.154   1.407   6.210 -0.1811  0.4269 -0.0934
27495SOL    HW284865  10.225   1.475   6.325  0.7600 -0.6350 -0.0254
27496SOL     OW84866   2.014   9.991   5.734 -0.0714 -0.0329 -0.0414
27496SOL    HW184867   1.967   9.955   5.658  1.7351 -0.6464 -0.9362
27496SOL    HW284868   2.051  10.073   5.702  1.3416 -0.6651 -0.1187
27497SOL     OW84869   3.601   5.502   3.055  0.1372 -0.0833  0.0277
27497SOL    HW184870   3.580   5.409   3.051 -0.2227 -0.0558  0.9624
27497SOL    HW284871   3.520   5.547   3.032  0.8638  0.0405 -2.6978
27498SOL     OW84872   7.733   2.636   6.942 -0.0001 -0.6395  0.2620
27498SOL    HW184873   7.687   2.712   6.908  1.6645  0.5090  0.4820
27498SOL    HW284874   7.663   2.573   6.961 -1.2301 -0.2328 -2.4016
27499SOL     OW84875   9.342  10.480   1.065 -0.2223 -0.4719 -0.4588
27499SOL    HW184876   9.364  10.389   1.046  0.3458 -0.5732  0.6157
27499SOL    HW284877   9.290  10.476   1.145  1.3230  0.2684  0.6163
27500SOL     OW84878   4.311   4.296   2.044  0.0373  0.3432  0.5053
27500SOL    HW184879   4.347   4.352   1.975 -0.1827 -0.7950 -0.5806
27500SOL    HW284880   4.385   4.279   2.103  0.5460  0.3734 -0.1139
27501SOL     OW84881   6.863   3.576   3.490  0.0983 -0.3124 -0.2995
27501SOL    HW184882   6.852   3.502   3.549 -0.3937  0.6691  0.8810
27501SOL    HW284883   6.952   3.606   3.505  0.6348 -1.2409 -1.4952
27502SOL     OW84884   9.986   6.235   8.679  0.2682 -0.1522  0.4101
27502SOL    HW184885  10.022   6.199   8.598 -0.6256  0.5870 -0.3374
27502SOL    HW284886   9.961   6.324   8.657 -2.2185 -0.6824  0.7838
27503SOL     OW84887   5.210   4.853   9.627 -0.2326  0.2391  0.2169
27503SOL    HW184888   5.172   4.816   9.548 -0.3120 -0.0099  0.3716
27503SOL    HW284889   5.177   4.797   9.698  0.6416 -0.1444  0.3271
27504SOL     OW84890  10.135   7.937   2.516  0.2349  0.6756 -0.0700
27504SOL    HW184891  10.137   7.845   2.542 -1.7304  0.3217 -0.9394
27504SOL    HW284892  10.115   7.984   2.597 -1.7493 -0.0044 -0.1066
27505SOL     OW84893   4.310   6.739   4.337  0.0591 -0.0604 -0.1145
27505SOL    HW184894   4.342   6.745   4.427 -0.4311  0.3982  0.0366
27505SOL    HW284895   4.325   6.827   4.301 -0.6106  0.0267 -0.1814
27506SOL     OW84896   1.854  10.222   8.101 -0.8314 -0.3107  0.0839
27506SOL    HW184897   1.759  10.215   8.101 -0.8113 -0.6017 -0.2219
27506SOL    HW284898   1.875  10.261   8.186 -1.2372  0.0004  0.0430
27507SOL     OW84899   7.802   7.087   9.543 -0.0111  0.3318  0.0563
27507SOL    HW184900   7.735   7.024   9.568 -1.1234  1.5934  0.3000
27507SOL    HW284901   7.843   7.048   9.465  0.0666 -1.1954  0.8284
27508SOL     OW84902   9.589   3.411   8.697 -0.2713 -0.3575 -0.0280
27508SOL    HW184903   9.639   3.463   8.634 -0.9678  1.0524  0.5557
27508SOL    HW284904   9.555   3.474   8.760 -0.7815 -1.5737  0.9711
27509SOL     OW84905  10.790   2.536   4.772 -0.0050  0.2631  0.0206
27509SOL    HW184906  10.738   2.601   4.725 -0.3740 -0.2737 -0.3168
27509SOL    HW284907  10.784   2.564   4.864 -0.5609  0.4342 -0.0604
27510SOL     OW84908   3.870   4.961   1.346 -0.8490 -0.1790  0.3191
27510SOL    HW184909   3.905   4.883   1.302  0.2601  0.4929 -0.0201
27510SOL    HW284910   3.803   4.927   1.405 -0.9060 -1.3173 -0.3719
27511SOL     OW84911   2.835   9.903   9.014 -0.4336  0.6617 -0.1231
27511SOL    HW184912   2.748   9.916   8.977 -0.0533  0.1882 -1.2324
27511SOL    HW284913   2.889   9.878   8.939  0.5547  0.5033  0.6267
27512SOL     OW84914   9.746   3.932   3.803 -0.1671  0.7112  0.1509
27512SOL    HW184915   9.743   3.870   3.875 -0.9382  0.6195  0.0544
27512SOL    HW284916   9.800   4.004   3.835  1.4769 -0.3774 -0.0608
27513SOL     OW84917   3.419   7.552   5.639  0.0342  0.0852 -0.6038
27513SOL    HW184918   3.336   7.579   5.679  0.5318 -0.5346  0.9134
27513SOL    HW284919   3.394   7.515   5.554 -1.6184 -2.7004  0.9613
27514SOL     OW84920   0.312   8.059   6.768 -0.3537 -0.2416  0.1403
27514SOL    HW184921   0.375   8.037   6.699 -0.5687 -2.6649  0.6218
27514SOL    HW284922   0.355   8.033   6.849 -0.8244  0.8818  0.7745
27515SOL     OW84923   6.685   8.042   5.729 -0.3286  0.4576 -0.4546
27515SOL    HW184924   6.671   7.968   5.670 -1.0102 -0.7559  1.1420
27515SOL    HW284925   6.683   8.119   5.672  2.3428 -0.7887 -2.4826
27516SOL     OW84926   7.826   0.332   3.179  0.1037  0.5801 -0.2327
27516SOL    HW184927   7.913   0.323   3.218 -0.2407 -0.3786  0.3562
27516SOL    HW284928   7.780   0.251   3.204 -0.4293  0.3245 -1.8730
27517SOL     OW84929   2.726   3.173   1.426  0.2524 -0.1277 -0.3484
27517SOL    HW184930   2.790   3.112   1.390 -0.4896 -0.1168 -1.7428
27517SOL    HW284931   2.777   3.250   1.451  0.9898 -0.7395  0.0575
27518SOL     OW84932   2.763   8.808   2.005 -0.2176 -0.5968 -0.1551
27518SOL    HW184933   2.828   8.741   1.984  0.5305  0.1548 -0.2775
27518SOL    HW284934   2.785   8.882   1.949 -0.6974 -0.0540  0.3571
27519SOL     OW84935   6.662   9.716   0.609 -0.2459 -0.5159 -0.0460
27519SOL    HW184936   6.603   9.790   0.626 -0.6653 -0.3732 -1.9265
27519SOL    HW284937   6.748   9.756   0.602 -0.5335 -0.1088 -1.5132
27520SOL     OW84938   9.922  10.085   2.353 -0.5327 -0.1458 -0.0781
27520SOL    HW184939   9.999  10.074   2.298 -0.7875  1.5964 -0.8611
27520SOL    HW284940   9.859  10.021   2.320  0.5852 -1.7216  0.7001
27521SOL     OW84941   0.420   5.818   7.791 -0.1131  0.3604  0.1711
27521SOL    HW184942   0.389   5.762   7.862  1.7892  0.0759  0.8357
27521SOL    HW284943   0.468   5.888   7.835 -0.2954  1.1081 -0.7766
27522SOL     OW84944   7.597   3.896   7.737 -0.1944  0.0923 -0.7482
27522SOL    HW184945   7.670   3.852   7.694 -0.6178 -2.0607  0.5857
27522SOL    HW284946   7.585   3.849   7.819 -1.8421  1.6460 -0.0158
27523SOL     OW84947   7.837   5.892   9.309  0.0105 -0.4468  0.2081
27523SOL    HW184948   7.834   5.985   9.289  1.1392 -0.5219 -0.4087
27523SOL    HW284949   7.901   5.884   9.380  3.0227 -1.0916 -2.3541
27524SOL     OW84950   2.666   3.580   3.636  0.8694 -0.2157 -0.5949
27524SOL    HW184951   2.633   3.626   3.559 -0.8277  0.2292  0.3382
27524SOL    HW284952   2.660   3.488   3.613  0.8218 -0.0746 -1.1704
27525SOL     OW84953   7.532   0.277  10.713  0.1824 -0.1484 -0.6441
27525SOL    HW184954   7.560   0.222  10.640 -0.3204  0.9864 -1.7022
27525SOL    HW284955   7.451   0.236  10.745 -0.1595 -0.0540 -1.3858
27526SOL     OW84956   4.065   8.332   9.001 -0.2182 -0.5489 -0.7896
27526SOL    HW184957   4.053   8.361   8.911  1.4172  1.3136 -0.4880
27526SOL    HW284958   4.070   8.237   8.996  0.2623 -0.4497 -2.7178
27527SOL     OW84959  10.321   5.750   1.164 -0.3038 -0.8371  0.0160
27527SOL    HW184960  10.345   5.769   1.255 -0.1967 -0.5662 -0.0651
27527SOL    HW284961  10.388   5.796   1.113  0.0129 -1.5113 -0.1927
27528SOL     OW84962   5.060   2.723   6.669 -0.1907 -0.5408  0.3633
27528SOL    HW184963   4.988   2.701   6.729  0.5954  0.0433  1.5535
27528SOL    HW284964   5.022   2.787   6.609 -0.8312 -0.6901  0.6001
27529SOL     OW84965  10.742   5.290   3.792  0.0090 -0.3400 -0.0259
27529SOL    HW184966  10.718   5.199   3.772  0.7966 -0.4066 -0.6858
27529SOL    HW284967  10.687   5.343   3.735  0.1925 -0.4328 -0.2883
27530SOL     OW84968   8.787   1.978   2.164 -0.0006 -1.1676  0.1661
27530SOL    HW184969   8.734   1.899   2.172 -0.6335 -0.7794 -0.1116
27530SOL    HW284970   8.726   2.045   2.132  0.0775 -0.1086  2.0815
27531SOL     OW84971   7.758  10.416   5.312 -0.2161  0.6308 -0.1270
27531SOL    HW184972   7.675  10.423   5.359 -0.1055  1.6116 -0.0505
27531SOL    HW284973   7.746  10.344   5.250 -1.0728  0.6826 -0.0245
27532SOL     OW84974   8.693   8.775  10.191  0.0385  0.5081  0.5019
27532SOL    HW184975   8.729   8.693  10.224 -3.7632 -1.0721  1.1756
27532SOL    HW284976   8.673   8.759  10.099  1.1977  1.4497  0.0596
27533SOL     OW84977   3.397   0.698   7.109  0.1897  0.1550  0.4653
27533SOL    HW184978   3.321   0.726   7.059 -0.7837  0.8897  2.2805
27533SOL    HW284979   3.448   0.778   7.123  0.6279 -0.1035  0.3710
27534SOL     OW84980   8.674   2.658   3.666  0.1449  0.3654  0.1224
27534SOL    HW184981   8.629   2.696   3.590  0.1928  1.2848  0.5392
27534SOL    HW284982   8.618   2.682   3.740  0.1604 -0.4286  0.3977
27535SOL     OW84983   4.572  10.391   0.744 -0.0139 -0.1017 -0.3358
27535SOL    HW184984   4.553  10.450   0.672  0.7218  0.6254  0.0556
27535SOL    HW284985   4.589  10.448   0.819  1.1013 -0.7861 -0.0398
27536SOL     OW84986   6.702   3.643   7.339 -0.0526  0.5600  0.0833
27536SOL    HW184987   6.638   3.599   7.282  1.8570 -0.2368 -1.5689
27536SOL    HW284988   6.708   3.732   7.303 -0.5993  0.8119  0.5910
27537SOL     OW84989   7.580  10.520  10.336  0.2582 -0.0509  0.3148
27537SOL    HW184990   7.527  10.442  10.319 -2.7774  1.0851  3.3543
27537SOL    HW284991   7.611  10.509  10.425  1.5324  1.3325  0.0739
27538SOL     OW84992   6.280   5.416   6.278  0.0725 -1.0546  0.2950
27538SOL    HW184993   6.215   5.481   6.305 -0.1299 -0.8867 -0.5966
27538SOL    HW284994   6.357   5.437   6.331 -0.1336 -0.3606  0.3309
27539SOL     OW84995   7.510   8.551   2.906  0.1485 -0.2345  0.5693
27539SOL    HW184996   7.593   8.595   2.892 -0.0900  0.6792  1.8479
27539SOL    HW284997   7.531   8.479   2.966  0.7096 -2.5568 -2.2059
27540SOL     OW84998  10.233   6.438   6.580 -0.0638 -0.1117  0.1820
27540SOL    HW184999  10.249   6.504   6.512 -0.5432  0.5213  0.6693
27540SOL    HW285000  10.311   6.383   6.580 -0.1118 -0.2053 -0.9699
27541SOL     OW85001   2.330   8.612   0.143 -0.0363 -0.7469 -0.1887
27541SOL    HW185002   2.405   8.653   0.099  0.0768 -1.1184 -0.3461
27541SOL    HW285003   2.318   8.664   0.223 -1.1132  0.8134 -1.2863
27542SOL     OW85004   6.340   4.078   8.661  0.8881 -0.1654 -0.0367
27542SOL    HW185005   6.425   4.034   8.656  1.5919  1.0610  0.5098
27542SOL    HW285006   6.360   4.171   8.645 -0.3815  0.1203 -0.1231
27543SOL     OW85007  10.615   8.002  10.740  0.4602 -0.2331 -0.3377
27543SOL    HW185008  10.651   7.976  10.655  1.4818 -0.9101  0.2710
27543SOL    HW285009  10.590   7.920  10.782 -0.6413  0.1445 -0.2241
27544SOL     OW85010   4.777   2.196   5.121 -0.7879 -0.4364 -0.0374
27544SOL    HW185011   4.707   2.220   5.060 -2.1913 -2.6886  0.5256
27544SOL    HW285012   4.731   2.180   5.204  0.5339 -1.0930  0.5942
27545SOL     OW85013   3.861   5.738   9.296 -0.2750  0.2528 -0.3341
27545SOL    HW185014   3.954   5.740   9.271 -0.4281 -0.4229 -0.9950
27545SOL    HW285015   3.824   5.666   9.245 -1.1289  0.3968  0.0629
27546SOL     OW85016   2.681   6.156   7.248 -0.6580  0.2744  0.1336
27546SOL    HW185017   2.693   6.229   7.187  0.9695 -0.8801 -1.0270
27546SOL    HW285018   2.769   6.131   7.273 -1.2425 -0.4142  1.6375
27547SOL     OW85019   6.235   6.764  10.097 -0.0031 -0.1066 -0.2397
27547SOL    HW185020   6.307   6.703  10.110 -0.7017 -0.6431  1.4413
27547SOL    HW285021   6.185   6.728  10.024 -0.2722 -1.4386  0.5826
27548SOL     OW85022   7.998   4.693   0.123  0.4840  0.1405  0.3778
27548SOL    HW185023   8.005   4.638   0.045 -1.8668 -0.6302  0.6581
27548SOL    HW285024   7.993   4.782   0.089 -1.0433 -0.2258 -0.4245
27549SOL     OW85025   2.752   8.113   4.077 -0.2103 -0.4957 -0.1266
27549SOL    HW185026   2.788   8.178   4.018 -2.5965  0.0555 -1.1136
27549SOL    HW285027   2.707   8.051   4.020 -1.2571 -0.8245  1.0042
27550SOL     OW85028   4.063   9.408   2.532  0.2078  0.3220  0.2220
27550SOL    HW185029   3.979   9.421   2.487 -0.6647  0.9973  1.9797
27550SOL    HW285030   4.095   9.497   2.549  0.2460  0.0968  1.4099
27551SOL     OW85031   2.699   9.901   4.565  0.0378  0.1071 -0.5458
27551SOL    HW185032   2.753   9.902   4.486  0.2255 -0.5444 -0.4264
27551SOL    HW285033   2.761   9.911   4.637 -0.2218  1.8435 -0.5093
27552SOL     OW85034  10.701   9.712  10.040 -0.3754  0.4933  0.3574
27552SOL    HW185035  10.774   9.774  10.040 -0.6132  0.9184 -2.6701
27552SOL    HW285036  10.624   9.766  10.057 -0.5097  1.0253 -1.6670
27553SOL     OW85037   5.909   7.977   7.187 -0.8628 -0.3446 -0.2374
27553SOL    HW185038   5.888   7.956   7.096 -0.8892 -0.3655 -0.2263
27553SOL    HW285039   5.897   8.071   7.193  0.4516 -0.1244 -0.6151
27554SOL     OW85040  10.563   6.662   9.564 -0.2696 -0.0440 -0.2364
27554SOL    HW185041  10.651   6.693   9.588 -1.9115  2.4394  3.5666
27554SOL    HW285042  10.529   6.623   9.645 -3.6214  1.6283 -0.6733
27555SOL     OW85043   8.091   2.275   9.556  0.0803 -0.1358  0.0566
27555SOL    HW185044   8.027   2.207   9.537  0.4714 -0.1198 -1.4196
27555SOL    HW285045   8.139   2.287   9.474  0.6446  1.2522  0.5563
27556SOL     OW85046   4.276   1.427   6.022  0.4972 -0.0555  0.0799
27556SOL    HW185047   4.327   1.367   6.076  4.0793  2.3098 -0.3576
27556SOL    HW285048   4.241   1.492   6.083 -0.7370 -0.7614  0.1701
27557SOL     OW85049   6.440   2.237   6.081  0.1613  0.6602 -0.3873
27557SOL    HW185050   6.483   2.160   6.044  2.2289  2.0985 -1.1386
27557SOL    HW285051   6.461   2.234   6.175 -1.5345 -0.7394 -0.0039
27558SOL     OW85052   1.188   6.651   1.421  0.5685  0.0462 -0.4382
27558SOL    HW185053   1.172   6.562   1.388 -0.3908  0.6545 -1.6835
27558SOL    HW285054   1.224   6.637   1.509  0.5518 -1.5763 -0.6472
27559SOL     OW85055   5.904  10.626   8.911 -0.2870  0.2378  0.4866
27559SOL    HW185056   5.909  10.537   8.876  1.0020  0.4263  0.1729
27559SOL    HW285057   5.965  10.677   8.858 -0.5618  1.1904  1.0553
27560SOL     OW85058   8.193   2.058   7.700 -0.1334 -0.5148  0.3312
27560SOL    HW185059   8.228   2.003   7.630  0.8952 -0.6296  0.9069
27560SOL    HW285060   8.109   2.018   7.723 -0.2219 -0.7964 -0.4435
27561SOL     OW85061   3.273   5.134  10.118  0.0086 -0.1120 -0.3115
27561SOL    HW185062   3.205   5.093  10.170 -1.0663  1.5591 -0.3201
27561SOL    HW285063   3.351   5.133  10.175 -1.2022  1.9347  1.5451
27562SOL     OW85064   1.328   1.765   4.220 -0.0765 -0.0032 -0.3521
27562SOL    HW185065   1.378   1.688   4.248 -1.7381 -0.9188  0.2541
27562SOL    HW285066   1.372   1.796   4.142  2.7585  0.6106  1.3634
27563SOL     OW85067   9.303   7.805   3.757 -0.0348  0.0220  0.6377
27563SOL    HW185068   9.287   7.716   3.725 -0.4661  0.3959 -0.2370
27563SOL    HW285069   9.397   7.818   3.745 -0.2419  0.3061 -0.9829
27564SOL     OW85070   5.135   9.812   2.296  0.2753 -0.1532  0.6318
27564SOL    HW185071   5.205   9.874   2.317  0.7592 -0.7746  0.9025
27564SOL    HW285072   5.055   9.864   2.297  0.9416  1.1043 -2.1033
27565SOL     OW85073   1.117   6.858   8.793 -0.1831  0.3057  0.2398
27565SOL    HW185074   1.166   6.792   8.843 -0.8115 -1.1265 -0.9452
27565SOL    HW285075   1.034   6.866   8.840 -0.1520  0.1499  0.3245
27566SOL     OW85076   2.720   6.244   7.874 -0.1379 -0.0053  0.4652
27566SOL    HW185077   2.765   6.211   7.796 -0.4659  0.2157  0.1798
27566SOL    HW285078   2.634   6.269   7.842  0.0949  1.1094  0.6833
27567SOL     OW85079   2.672   9.055   3.827  0.5853  0.2751 -0.1877
27567SOL    HW185080   2.626   9.063   3.911 -0.2336  1.5523 -0.7304
27567SOL    HW285081   2.664   9.141   3.786  1.5504 -0.1254 -1.3013
27568SOL     OW85082   0.193   3.607   7.904  0.1023 -0.2823 -0.0353
27568SOL    HW185083   0.141   3.688   7.907  0.4440 -0.0833  0.7533
27568SOL    HW285084   0.165   3.558   7.981  1.2073 -0.0864  0.5118
27569SOL     OW85085   3.858   9.350   8.687  0.4017  0.2276  0.6174
27569SOL    HW185086   3.772   9.370   8.650  1.3882  0.7085 -1.6156
27569SOL    HW285087   3.902   9.435   8.694  0.8340 -0.0497  1.3683
27570SOL     OW85088   2.695   4.806   5.930 -0.0828 -0.0378 -0.5898
27570SOL    HW185089   2.696   4.778   5.839 -1.4235  0.9022 -0.9182
27570SOL    HW285090   2.775   4.857   5.941 -0.6509  1.1153 -1.6730
27571SOL     OW85091   2.348   8.694   5.739 -0.4803  0.7594  0.1030
27571SOL    HW185092   2.385   8.649   5.663 -1.0903  2.0236 -0.9948
27571SOL    HW285093   2.383   8.647   5.814  0.7962 -0.0474 -0.9421
27572SOL     OW85094   5.807   3.248   3.803 -0.4048  0.0871 -0.1572
27572SOL    HW185095   5.765   3.322   3.847 -0.2960 -0.3854  0.7560
27572SOL    HW285096   5.894   3.243   3.843 -0.6198 -0.8979  0.2151
27573SOL     OW85097   4.110  10.120   2.481 -0.6025  0.0190  0.4597
27573SOL    HW185098   4.203  10.138   2.491 -0.7040  0.7842  0.0673
27573SOL    HW285099   4.089  10.061   2.554  0.4017 -1.0275 -0.0638
27574SOL     OW85100  10.518   1.311   4.237 -0.2494 -0.4792 -0.4188
27574SOL    HW185101  10.559   1.240   4.286 -0.8565 -0.5418 -0.0006
27574SOL    HW285102  10.576   1.324   4.162  1.7416  0.9201  1.2660
27575SOL     OW85103   5.386   9.906   7.397  0.2922 -0.0468 -0.2043
27575SOL    HW185104   5.403   9.874   7.486  2.2947 -1.8411 -1.1355
27575SOL    HW285105   5.330   9.839   7.358 -1.5234  1.2993  0.0056
27576SOL     OW85106   6.523   7.091   4.082 -0.3419  0.3910 -0.2133
27576SOL    HW185107   6.618   7.098   4.073 -0.0638 -0.0087  1.9665
27576SOL    HW285108   6.509   7.015   4.139 -1.9347  0.8113  0.0170
27577SOL     OW85109   3.638   3.852   7.957 -0.4607 -0.2114  0.2150
27577SOL    HW185110   3.603   3.895   8.035 -3.1604 -3.4550  1.0536
27577SOL    HW285111   3.716   3.806   7.987 -0.4307  0.0563  0.5470
27578SOL     OW85112   6.725   3.156   0.348  0.0475 -0.2478  0.2405
27578SOL    HW185113   6.740   3.080   0.405  1.7055 -0.9132 -0.9982
27578SOL    HW285114   6.667   3.123   0.280 -1.1983  0.2964  1.0161
27579SOL     OW85115   6.393   3.533   3.129 -0.1713  0.0677  0.1407
27579SOL    HW185116   6.417   3.457   3.183  1.0242  1.2568  1.3557
27579SOL    HW285117   6.477   3.576   3.110 -0.7671  0.7613 -1.0566
27580SOL     OW85118   9.359   3.121   9.181 -0.5833 -0.0968  0.5825
27580SOL    HW185119   9.293   3.184   9.210 -0.0923  0.6805  0.0904
27580SOL    HW285120   9.373   3.143   9.089  0.5188 -0.0914  0.7394
27581SOL     OW85121   1.369   3.962   3.034 -0.3065  0.3392  0.1267
27581SOL    HW185122   1.395   3.908   2.959  0.9271 -0.4121  1.0547
27581SOL    HW285123   1.288   4.004   3.006 -1.0231 -1.5738 -0.8353
27582SOL     OW85124   0.154  10.563   5.731  0.2196  0.1340 -0.2383
27582SOL    HW185125   0.122  10.473   5.731 -1.7852  0.8040 -0.5396
27582SOL    HW285126   0.090  10.612   5.783  0.8931  1.5207 -0.6606
27583SOL     OW85127   5.043   0.907   9.851 -0.1726 -0.0671  0.1863
27583SOL    HW185128   4.992   0.903   9.932 -2.4241 -1.4173 -1.1997
27583SOL    HW285129   5.069   0.999   9.844 -3.0554  0.8882  0.6592
27584SOL     OW85130   4.989   4.509   4.761 -0.8358 -0.3652  0.2745
27584SOL    HW185131   4.975   4.565   4.837  1.2294  0.5066  0.0991
27584SOL    HW285132   5.075   4.536   4.727  0.0239 -3.2479 -0.1617
27585SOL     OW85133   7.873   2.298   9.827  0.2383 -0.8581  0.0885
27585SOL    HW185134   7.940   2.229   9.825  1.1150 -0.0699  1.2311
27585SOL    HW285135   7.918   2.377   9.799 -0.8347 -0.7559 -1.4750
27586SOL     OW85136   2.763   9.740   9.534  0.2038  0.4351 -0.5747
27586SOL    HW185137   2.741   9.706   9.447  1.2755 -0.3671 -0.5614
27586SOL    HW285138   2.771   9.834   9.523  1.9559  0.1933 -1.7516
27587SOL     OW85139   6.069   5.571   1.480 -0.7179  0.1281  0.1963
27587SOL    HW185140   6.155   5.605   1.504 -1.0537  1.0598  0.1032
27587SOL    HW285141   6.057   5.494   1.535 -0.7544  1.2465  1.8070
27588SOL     OW85142   6.711   6.546   2.099 -0.2871 -0.8042  0.3203
27588SOL    HW185143   6.655   6.608   2.146 -0.7190 -1.3125  0.4905
27588SOL    HW285144   6.792   6.594   2.082 -0.1156 -0.6088  1.5916
27589SOL     OW85145   8.598   1.551   5.470 -0.5321  0.6925 -0.5949
27589SOL    HW185146   8.572   1.611   5.540  1.3985 -0.1473  0.9278
27589SOL    HW285147   8.677   1.589   5.434  1.0233 -1.0968  0.7365
27590SOL     OW85148   6.805   7.914   4.521 -0.2982 -0.8337 -0.0486
27590SOL    HW185149   6.864   7.866   4.579  1.2812  0.1986 -0.7383
27590SOL    HW285150   6.731   7.938   4.577 -0.0919 -2.1600  0.8359
27591SOL     OW85151   6.331   2.414   1.690 -0.9652  0.0704  0.6627
27591SOL    HW185152   6.354   2.323   1.672 -2.4451 -0.2481  0.2423
27591SOL    HW285153   6.391   2.441   1.760 -0.3565 -1.1444  0.6345
27592SOL     OW85154   8.919   2.470   2.635 -0.4844 -0.0806 -0.5058
27592SOL    HW185155   8.890   2.559   2.656 -0.6272  0.0817 -1.3642
27592SOL    HW285156   8.998   2.458   2.688 -1.7931 -0.3554  1.5133
27593SOL     OW85157   6.793   5.735   0.191 -0.2132 -0.4218 -0.1780
27593SOL    HW185158   6.863   5.776   0.140  0.0115 -0.9454 -0.2914
27593SOL    HW285159   6.734   5.698   0.125  0.5997 -1.9816 -0.0727
27594SOL     OW85160   0.943   9.163  10.658  0.6110  0.1370  0.2923
27594SOL    HW185161   0.870   9.225  10.661  0.5166  0.0067  0.8090
27594SOL    HW285162   0.928   9.112  10.578  0.5890  0.6584 -0.0345
27595SOL     OW85163   9.138   4.562   7.731  0.2156 -0.1912 -0.0880
27595SOL    HW185164   9.107   4.653   7.729 -1.2644 -0.5564  2.0109
27595SOL    HW285165   9.221   4.567   7.779  1.3124  0.2731 -1.9467
27596SOL     OW85166   8.481   3.061   6.210  0.0409 -0.5438 -0.4364
27596SOL    HW185167   8.402   3.067   6.156  0.1164  2.8883 -0.3704
27596SOL    HW285168   8.549   3.032   6.149 -0.6031 -0.2043 -1.3392
27597SOL     OW85169   0.737   9.766   3.073  0.2163 -0.6158 -0.7179
27597SOL    HW185170   0.708   9.817   2.997 -0.2781  0.8089  0.3700
27597SOL    HW285171   0.827   9.794   3.086  0.5572 -1.4383 -1.2115
27598SOL     OW85172   4.210   5.409   9.220 -0.1207  0.7808 -0.3208
27598SOL    HW185173   4.279   5.393   9.156 -1.3971 -0.3697 -1.4824
27598SOL    HW285174   4.159   5.328   9.221  0.5897  0.2236  3.1556
27599SOL     OW85175   3.304   3.435   9.675 -0.1988  0.1579  0.0524
27599SOL    HW185176   3.217   3.464   9.703 -0.8797 -1.6328 -0.0983
27599SOL    HW285177   3.307   3.342   9.696  1.9307  0.2850  0.6201
27600SOL     OW85178   5.505   9.813   8.596 -0.5785 -0.1003 -0.5057
27600SOL    HW185179   5.490   9.734   8.545  0.2818  0.2235 -1.2975
27600SOL    HW285180   5.475   9.791   8.684  0.6466 -1.6939 -0.4303
27601SOL     OW85181   3.587   3.225  10.270  0.2689  0.2300 -0.0794
27601SOL    HW185182   3.555   3.277  10.344 -1.5575  0.6834 -1.1266
27601SOL    HW285183   3.561   3.275  10.193  0.3126 -1.2121 -1.0660
27602SOL     OW85184   4.435   4.345   2.866 -0.6917  0.0357  0.0894
27602SOL    HW185185   4.357   4.373   2.818  0.3060 -0.3954 -1.8574
27602SOL    HW285186   4.500   4.413   2.849 -0.2020 -0.3032  0.5505
27603SOL     OW85187   0.410   1.565   8.187 -0.0703 -0.3537 -0.1084
27603SOL    HW185188   0.450   1.483   8.214  0.9127  0.0365 -0.3368
27603SOL    HW285189   0.335   1.576   8.246 -1.1219 -2.1388 -1.0185
27604SOL     OW85190   2.727   3.452   5.952 -0.2033 -0.0597 -0.0730
27604SOL    HW185191   2.771   3.533   5.980 -0.4087 -0.5297  1.7662
27604SOL    HW285192   2.797   3.387   5.949  0.3803  0.5330 -3.6306
27605SOL     OW85193   8.779   4.208   5.869 -0.1250 -0.4113 -0.0816
27605SOL    HW185194   8.692   4.177   5.843  0.2013 -0.9514 -0.5782
27605SOL    HW285195   8.810   4.143   5.932 -0.2609  0.0255  0.4382
27606SOL     OW85196   2.825   1.099   8.214 -0.1022  0.3423  0.1305
27606SOL    HW185197   2.899   1.042   8.193  0.3893  1.3440 -0.9917
27606SOL    HW285198   2.754   1.038   8.237  0.8125 -0.6621  0.3885
27607SOL     OW85199   1.549   7.998   1.102 -0.4523 -0.2041 -0.2227
27607SOL    HW185200   1.530   7.907   1.078 -0.0616 -0.8956  1.8622
27607SOL    HW285201   1.617   7.991   1.170 -1.4574  1.5413  1.0386
27608SOL     OW85202   1.402   3.331   5.577  0.0872  0.0396  0.3049
27608SOL    HW185203   1.351   3.299   5.652 -0.2272  1.4086  0.7037
27608SOL    HW285204   1.460   3.398   5.614 -2.3335  3.1492 -1.0900
27609SOL     OW85205   6.703   4.531   9.135  0.1404  0.0900  0.5111
27609SOL    HW185206   6.692   4.606   9.195  0.1009  0.7814 -0.3414
27609SOL    HW285207   6.785   4.490   9.164  0.8322  1.2095  0.2132
27610SOL     OW85208  10.044   4.068   1.789  0.1701 -0.2176 -0.8325
27610SOL    HW185209  10.004   4.073   1.876  0.4864 -2.9049 -0.4522
27610SOL    HW285210   9.970   4.077   1.728 -0.4136 -0.8107 -0.2294
27611SOL     OW85211   3.287  10.191   5.585  0.4364  0.1609  0.4274
27611SOL    HW185212   3.311  10.226   5.499  2.7242  0.7669  1.2575
27611SOL    HW285213   3.266  10.099   5.568  0.0467  0.4671 -0.8814
27612SOL     OW85214   7.565   1.705  10.341 -0.1988  0.3666  0.3075
27612SOL    HW185215   7.521   1.774  10.390  0.9966  0.3343  1.4978
27612SOL    HW285216   7.552   1.728  10.249 -0.5069  1.7340  0.6723
27613SOL     OW85217   1.445   7.811   1.683  0.0876  0.0631  0.0766
27613SOL    HW185218   1.362   7.805   1.635  0.6398 -0.2027 -0.8690
27613SOL    HW285219   1.489   7.728   1.667  1.3600  0.8968 -1.0121
27614SOL     OW85220   0.454   4.667   9.667 -0.4379 -0.4536 -0.1972
27614SOL    HW185221   0.383   4.644   9.727  0.3015 -1.4798  0.3194
27614SOL    HW285222   0.530   4.619   9.700 -0.1113 -1.4645 -2.2097
27615SOL     OW85223   5.600   4.392   1.723 -0.4107  0.2728 -0.0280
27615SOL    HW185224   5.667   4.451   1.689 -0.5826  0.2825 -0.3627
27615SOL    HW285225   5.575   4.339   1.647  2.2016 -2.6752  0.9725
27616SOL     OW85226   2.708   1.818   5.343  0.2366 -0.2876 -1.0592
27616SOL    HW185227   2.674   1.820   5.254 -0.1923  3.4322 -0.9517
27616SOL    HW285228   2.643   1.864   5.395  1.0273 -1.3640  0.9968
27617SOL     OW85229   4.872   5.896   0.123 -0.2452  0.3492  0.2698
27617SOL    HW185230   4.832   5.894   0.037 -0.7306 -0.1317  0.4997
27617SOL    HW285231   4.805   5.934   0.180 -0.4136 -0.5392  0.6727
27618SOL     OW85232   0.093   1.244   2.331 -0.4799  0.5800 -0.5384
27618SOL    HW185233   0.172   1.189   2.330 -1.2000 -0.5006 -1.4631
27618SOL    HW285234   0.119   1.324   2.287 -0.0852 -0.0790 -1.5467
27619SOL     OW85235   5.177   9.946   7.752 -0.0562 -0.1753 -0.2092
27619SOL    HW185236   5.166   9.857   7.719 -1.5852  0.5719 -1.8611
27619SOL    HW285237   5.088   9.976   7.771  0.4718  0.9014  0.6754
27620SOL     OW85238   3.490   9.746   3.201  0.4984  0.0095  0.4605
27620SOL    HW185239   3.494   9.702   3.116 -1.0850 -2.0852  1.3795
27620SOL    HW285240   3.423   9.813   3.191  1.7675  1.2054 -0.4778
27621SOL     OW85241   8.749   8.412   8.335  0.1844 -0.6841 -0.6228
27621SOL    HW185242   8.839   8.402   8.304  1.0650  0.7826  1.2602
27621SOL    HW285243   8.730   8.505   8.324 -0.4846 -0.6652  0.4941
27622SOL     OW85244   0.642   9.493   6.623  0.3958 -0.3044  0.0983
27622SOL    HW185245   0.712   9.450   6.574 -0.7692 -0.4518 -1.5174
27622SOL    HW285246   0.561   9.458   6.585 -0.5692  0.3982  1.4201
27623SOL     OW85247   6.607   7.276   2.497  0.2148  0.3862 -0.7723
27623SOL    HW185248   6.654   7.312   2.572 -0.6361 -0.4197  0.1794
27623SOL    HW285249   6.534   7.336   2.482 -1.7603 -1.2816  1.4099
27624SOL     OW85250   3.890   3.236   6.182 -0.2562 -0.2093  0.1253
27624SOL    HW185251   3.970   3.243   6.131 -0.9229 -2.9320 -1.5532
27624SOL    HW285252   3.854   3.324   6.183  1.6736  0.6525 -0.9488
27625SOL     OW85253   3.684   8.224   1.285 -0.4774  0.0144 -0.0108
27625SOL    HW185254   3.597   8.262   1.296 -1.2231 -1.2096 -1.3460
27625SOL    HW285255   3.744   8.300   1.284 -1.4489  0.8409  1.3227
27626SOL     OW85256   5.521   3.629   6.215  0.0072  0.4982  0.1258
27626SOL    HW185257   5.522   3.535   6.201 -0.9758  0.3793  0.8129
27626SOL    HW285258   5.511   3.666   6.127 -1.5595 -0.1028  0.0258
27627SOL     OW85259   5.929   5.251   4.682 -0.3403  0.3847 -0.4242
27627SOL    HW185260   5.946   5.178   4.622 -1.1170 -1.1417  1.1255
27627SOL    HW285261   5.840   5.236   4.714  0.2837  0.7536  1.6222
27628SOL     OW85262   1.710   3.226   5.410  0.2311  0.4819 -0.3602
27628SOL    HW185263   1.736   3.161   5.344  2.9043 -0.2138  1.2146
27628SOL    HW285264   1.792   3.272   5.431 -1.0999  2.6286  0.4653
27629SOL     OW85265   3.769   3.035  10.417 -0.7684  0.2655 -0.5288
27629SOL    HW185266   3.776   3.080  10.333  2.4597  0.4894 -0.2542
27629SOL    HW285267   3.796   2.945  10.399 -2.9990 -0.5417 -0.2246
27630SOL     OW85268   8.753   6.897  10.741 -0.2466 -0.0154  0.1428
27630SOL    HW185269   8.673   6.940  10.772  0.6281  1.3883  0.5497
27630SOL    HW285270   8.817   6.914  10.810  0.7074 -0.1351 -0.7017
27631SOL     OW85271   7.446   6.503   1.056 -0.4186 -0.3791  0.2637
27631SOL    HW185272   7.450   6.459   1.141  0.3573  0.2551  0.5704
27631SOL    HW285273   7.398   6.584   1.072  0.3555  0.0901  0.2683
27632SOL     OW85274   2.919   6.395   5.054 -0.0193  0.0684 -0.3727
27632SOL    HW185275   2.933   6.302   5.073 -0.3529  0.2569  0.9224
27632SOL    HW285276   2.935   6.404   4.960  0.2567 -1.2495 -0.4627
27633SOL     OW85277   8.371   6.126   1.505 -0.1031 -0.2535 -0.1722
27633SOL    HW185278   8.450   6.106   1.555  0.2735 -0.3095 -0.7758
27633SOL    HW285279   8.303   6.137   1.571 -0.1438 -2.6052  0.2527
27634SOL     OW85280  10.019   6.077   3.036  0.1422  0.6995  0.1524
27634SOL    HW185281  10.096   6.131   3.017  0.9238 -0.8108 -1.2183
27634SOL    HW285282  10.054   5.998   3.076 -0.2277 -1.4046 -3.3028
27635SOL     OW85283   8.672   7.545   2.338  0.1691 -0.1544  0.8728
27635SOL    HW185284   8.619   7.624   2.324 -1.2154 -0.8650  1.8320
27635SOL    HW285285   8.710   7.557   2.424  0.6655 -0.1596  0.6574
27636SOL     OW85286   6.985   4.016   7.495  0.0452 -0.1659  0.4697
27636SOL    HW185287   7.034   4.075   7.552 -0.4246  0.0492  0.6559
27636SOL    HW285288   6.897   4.013   7.532 -0.0126 -0.7769  0.3075
27637SOL     OW85289   1.332   8.027   2.426  0.3830  0.2999 -0.4900
27637SOL    HW185290   1.308   8.102   2.481 -0.5054 -0.9728  0.9318
27637SOL    HW285291   1.293   8.047   2.341 -0.0283  1.3414 -0.0826
27638SOL     OW85292   9.215   8.483   5.106 -0.5828  0.7313 -0.5072
27638SOL    HW185293   9.245   8.419   5.040 -1.5013 -0.9000  0.5856
27638SOL    HW285294   9.267   8.561   5.088 -0.6317  0.2744 -3.0162
27639SOL     OW85295   8.348   4.484   5.445  0.3275  0.8130 -0.1122
27639SOL    HW185296   8.306   4.559   5.488 -0.4107  0.3256  0.0329
27639SOL    HW285297   8.328   4.496   5.352  1.9312  1.8714 -0.3801
27640SOL     OW85298   6.741   9.287   3.528  0.1633  0.0332  0.0500
27640SOL    HW185299   6.752   9.310   3.436  1.6059  0.5927  0.3399
27640SOL    HW285300   6.798   9.348   3.575 -0.7915 -0.0328  1.3454
27641SOL     OW85301   5.513   9.184   8.640 -0.4896  0.5445 -0.1115
27641SOL    HW185302   5.466   9.260   8.605 -0.3070  0.4243 -0.6319
27641SOL    HW285303   5.505   9.192   8.735 -0.7833  1.0157 -0.1739
27642SOL     OW85304   9.040   1.225   6.740 -0.2087 -0.3753  0.3015
27642SOL    HW185305   9.104   1.294   6.726 -0.4558 -0.0190  0.8605
27642SOL    HW285306   8.999   1.211   6.655  0.0558 -0.0432  0.1212
27643SOL     OW85307   1.069   3.370   4.794  0.3739  0.0892  0.2585
27643SOL    HW185308   1.141   3.365   4.731 -0.0208  0.5126 -0.2317
27643SOL    HW285309   1.002   3.311   4.758  0.2943  0.0495  0.4723
27644SOL     OW85310   8.041   5.891   1.432  0.1778 -0.4881 -0.2453
27644SOL    HW185311   8.027   5.968   1.377  0.1775 -0.8458 -0.7505
27644SOL    HW285312   8.057   5.927   1.520  0.6025  0.1036 -0.5594
27645SOL     OW85313   8.302   4.926   6.240  0.2952 -0.1673 -0.1864
27645SOL    HW185314   8.355   5.005   6.248 -1.2960  0.8530  0.9396
27645SOL    HW285315   8.326   4.873   6.316  0.3150 -0.1012 -0.1469
27646SOL     OW85316  10.758   1.536   0.935  0.3991 -0.3719  0.4940
27646SOL    HW185317  10.845   1.560   0.967  0.9604  0.3014 -1.3643
27646SOL    HW285318  10.759   1.441   0.931  1.6129 -0.3569 -0.7896
27647SOL     OW85319   4.861   2.891   6.527  0.2550  0.3806 -0.4484
27647SOL    HW185320   4.914   2.953   6.578 -0.5827 -0.4588  1.5788
27647SOL    HW285321   4.793   2.944   6.487 -0.2593  0.8488  1.0006
27648SOL     OW85322   5.238   0.890   2.681 -0.2539  0.4366 -0.1917
27648SOL    HW185323   5.187   0.888   2.600 -0.0343  3.3053 -0.5429
27648SOL    HW285324   5.315   0.942   2.658  0.2593  0.5604  1.6436
27649SOL     OW85325   5.932   6.775   2.276 -0.0745  0.0098 -0.7113
27649SOL    HW185326   5.885   6.757   2.195  1.0114  4.1472 -2.4880
27649SOL    HW285327   5.868   6.818   2.333 -0.3142 -1.1119 -0.1061
27650SOL     OW85328   0.488   3.065   1.224 -0.2524 -0.1779  0.2369
27650SOL    HW185329   0.470   3.089   1.133 -0.9687  0.2261  0.4715
27650SOL    HW285330   0.501   3.149   1.268 -1.0116 -0.3115  0.7219
27651SOL     OW85331   5.991   0.233   5.514 -0.2878 -0.8542  0.1824
27651SOL    HW185332   5.996   0.209   5.422 -0.1882  1.1612 -0.3719
27651SOL    HW285333   6.077   0.268   5.535 -0.3235 -1.2544  1.0430
27652SOL     OW85334   8.864   1.465   0.569 -0.2362  0.5169  0.0075
27652SOL    HW185335   8.905   1.379   0.578  1.5619  1.3529  0.4293
27652SOL    HW285336   8.852   1.477   0.475  2.0057  0.8283 -0.3046
27653SOL     OW85337   2.492   9.405   1.469  1.0117 -0.2735 -0.1722
27653SOL    HW185338   2.415   9.364   1.507  1.3265  0.4859  1.3592
27653SOL    HW285339   2.558   9.336   1.467  1.0899 -0.2578  1.0221
27654SOL     OW85340   9.521   1.175   3.867  0.2151 -0.0564 -0.2152
27654SOL    HW185341   9.568   1.221   3.798 -1.9605  2.6069 -0.0935
27654SOL    HW285342   9.457   1.121   3.820  0.4179 -0.2098 -0.3159
27655SOL     OW85343   8.429   8.291   0.402 -0.3021  0.3105 -0.9187
27655SOL    HW185344   8.430   8.355   0.474 -1.6085 -0.1003 -0.5104
27655SOL    HW285345   8.518   8.256   0.401  0.0143  1.0322 -0.1483
27656SOL     OW85346   4.779   6.464   0.850 -0.2920 -0.0150 -0.2292
27656SOL    HW185347   4.703   6.494   0.800 -0.6759 -2.1204 -0.9746
27656SOL    HW285348   4.827   6.409   0.790  1.1131  0.1720  0.6861
27657SOL     OW85349  10.420   6.786  10.023 -0.5657 -0.2190  0.3008
27657SOL    HW185350  10.376   6.854   9.972  0.8183 -0.3661 -1.1627
27657SOL    HW285351  10.443   6.719   9.959  1.4681 -0.3037  1.0324
27658SOL     OW85352   0.085   7.768   3.420  0.0853  0.3200 -0.7108
27658SOL    HW185353   0.101   7.698   3.357  0.5442 -0.2954  0.0753
27658SOL    HW285354   0.173   7.795   3.448 -0.0555  1.6851 -1.5076
27659SOL     OW85355   8.585   9.798  10.712 -0.4099  0.1457  0.4766
27659SOL    HW185356   8.544   9.878  10.677 -0.6026  1.5941  3.7047
27659SOL    HW285357   8.674   9.799  10.677 -1.1804  0.2356 -1.6822
27660SOL     OW85358   1.313   1.627   9.419 -0.1980 -0.2976 -0.2194
27660SOL    HW185359   1.240   1.689   9.419  0.1842  0.1903 -1.5694
27660SOL    HW285360   1.391   1.682   9.418  0.1475 -0.7577 -2.2737
27661SOL     OW85361  10.525   7.468   4.608 -0.1233  0.6753  0.2620
27661SOL    HW185362  10.579   7.389   4.620  1.9379  1.7931 -1.0419
27661SOL    HW285363  10.493   7.489   4.696  0.6634 -0.6553  0.9054
27662SOL     OW85364   9.055   3.529   4.676  0.0191  0.4081  0.3200
27662SOL    HW185365   9.128   3.588   4.654 -1.1951  0.7579 -3.4252
27662SOL    HW285366   8.985   3.587   4.705 -0.2908  0.5841 -0.7436
27663SOL     OW85367   1.708  10.039   0.025  0.1780 -0.2192  0.1200
27663SOL    HW185368   1.696   9.974   0.094  1.6139 -0.7603 -0.0908
27663SOL    HW285369   1.638  10.102   0.038 -1.0111 -1.5777  0.5967
27664SOL     OW85370   9.510   2.411   4.621  0.3129 -0.1022 -0.4894
27664SOL    HW185371   9.530   2.394   4.713  2.4690  1.7337 -0.5118
27664SOL    HW285372   9.417   2.433   4.620  0.5359  1.2532  1.5148
27665SOL     OW85373   3.702   7.193   2.158 -0.1795  0.1214  0.1695
27665SOL    HW185374   3.688   7.240   2.241  0.0946  0.8418 -0.1777
27665SOL    HW285375   3.791   7.219   2.131  1.1166 -2.7260  1.2994
27666SOL     OW85376   9.011   4.366   1.495  0.3308 -0.1461 -0.0254
27666SOL    HW185377   9.007   4.279   1.536  1.2395 -0.1869 -0.0008
27666SOL    HW285378   9.077   4.357   1.426  0.9585  0.7045  0.4426
27667SOL     OW85379  10.165   1.407   7.605 -0.1795 -0.0503  0.2062
27667SOL    HW185380  10.244   1.368   7.567 -0.1087  1.1044 -0.8870
27667SOL    HW285381  10.155   1.490   7.560 -1.2472  0.4659  1.3336
27668SOL     OW85382   5.274   0.521   3.338 -0.0705  0.1268  0.2282
27668SOL    HW185383   5.192   0.508   3.291  0.1136  0.8416 -0.3228
27668SOL    HW285384   5.284   0.616   3.344 -0.2924  0.0707  2.1262
27669SOL     OW85385  10.006   1.738   2.499  0.5733 -0.1304 -0.3692
27669SOL    HW185386  10.061   1.750   2.422 -0.6610  1.3579 -1.0732
27669SOL    HW285387  10.030   1.810   2.557  0.0925 -0.0700 -0.2397
27670SOL     OW85388   0.210   2.348   3.736  0.2029 -0.4346  0.5081
27670SOL    HW185389   0.160   2.278   3.696 -0.4373  0.5132 -0.3971
27670SOL    HW285390   0.177   2.354   3.826 -1.7293  0.5027 -0.2008
27671SOL     OW85391   0.493   8.079   6.553  0.5428  0.3831 -0.0309
27671SOL    HW185392   0.461   8.033   6.476  0.8594 -0.3396  0.2627
27671SOL    HW285393   0.588   8.084   6.542  0.6420 -0.1251  0.5178
27672SOL     OW85394   5.290   0.756   4.518 -0.2955  0.1958  0.2686
27672SOL    HW185395   5.230   0.692   4.556 -1.3530  1.4141  0.7338
27672SOL    HW285396   5.258   0.769   4.428  0.5735 -0.6913 -0.1928
27673SOL     OW85397   7.904   3.088   7.419 -0.4590  0.1098 -0.0477
27673SOL    HW185398   7.840   3.088   7.490 -0.1000 -1.4652  0.3015
27673SOL    HW285399   7.865   3.144   7.352  0.3464  3.9041  2.3552
27674SOL     OW85400   7.818   5.325  10.085 -0.3366 -0.1264 -0.4845
27674SOL    HW185401   7.733   5.350  10.120  0.9580  1.1996  1.9677
27674SOL    HW285402   7.844   5.249  10.137  1.2382  1.3368  0.9995
27675SOL     OW85403   0.105  10.245   2.583  0.3444  0.2307  0.1498
27675SOL    HW185404   0.131  10.337   2.580  1.7925 -0.1824 -1.3702
27675SOL    HW285405   0.016  10.244   2.547  0.1065  1.0875  0.6960
27676SOL     OW85406   9.316   2.887   4.581 -0.0921  0.0236  0.2875
27676SOL    HW185407   9.317   2.799   4.542 -0.4932  0.2714 -0.2874
27676SOL    HW285408   9.378   2.937   4.528  1.2961 -0.2843  1.5388
27677SOL     OW85409   8.036   4.389   5.409  0.7712  0.1902 -0.0701
27677SOL    HW185410   8.091   4.456   5.367 -0.9622  0.9822 -1.2290
27677SOL    HW285411   8.003   4.432   5.488  1.9949 -0.3799  0.7676
27678SOL     OW85412   9.340   5.202   8.296  0.0204  0.5186  0.1612
27678SOL    HW185413   9.278   5.160   8.236  0.6217  0.5432 -0.4912
27678SOL    HW285414   9.423   5.199   8.249  0.2421  1.6946  0.4694
27679SOL     OW85415  10.517   7.703   2.704  0.2979  0.2332 -0.2075
27679SOL    HW185416  10.456   7.630   2.715 -0.5244  1.0635  0.9995
27679SOL    HW285417  10.462   7.782   2.713  1.3755  0.9904 -0.0903
27680SOL     OW85418   5.089   9.068   0.241 -0.3898  0.5405  0.2173
27680SOL    HW185419   4.999   9.098   0.245  0.0683  2.0598 -0.2877
27680SOL    HW285420   5.087   8.980   0.279 -2.0970  0.4751  0.0392
27681SOL     OW85421   9.588   3.110   9.676 -0.5567  0.6262  0.2565
27681SOL    HW185422   9.633   3.130   9.594 -0.7018  0.3528  0.1116
27681SOL    HW285423   9.507   3.066   9.650  0.3437 -1.3450  0.5925
27682SOL     OW85424   3.094   2.087   3.045 -0.4619  0.5184  0.0827
27682SOL    HW185425   3.048   2.016   3.091  1.2347 -0.9775 -0.4131
27682SOL    HW285426   3.069   2.166   3.093 -1.4259 -0.5569  1.4584
27683SOL     OW85427   1.458   6.647   1.554 -0.1538 -0.3216  0.0791
27683SOL    HW185428   1.535   6.590   1.544  2.1246  1.9981  2.4825
27683SOL    HW285429   1.398   6.597   1.609  0.0500 -1.8006 -0.9851
27684SOL     OW85430   3.521   5.883   3.991  0.3881 -0.1112  0.2796
27684SOL    HW185431   3.544   5.840   4.073 -1.8679  0.3861  1.2632
27684SOL    HW285432   3.550   5.974   4.002 -1.3699  0.3784  1.2845
27685SOL     OW85433   4.036  10.219   7.211 -0.1767  0.3178 -0.0610
27685SOL    HW185434   4.002  10.309   7.208 -2.1026 -0.3753 -0.6241
27685SOL    HW285435   4.074  10.205   7.125 -0.9045  0.2449 -0.3816
27686SOL     OW85436   9.806   8.144   5.799  0.2733 -0.4610 -0.7052
27686SOL    HW185437   9.896   8.139   5.768 -0.2961 -2.0990 -2.2456
27686SOL    HW285438   9.761   8.199   5.735 -0.0030 -0.3087 -0.3851
27687SOL     OW85439   9.008   4.987   1.943  0.0670 -0.5300 -0.2627
27687SOL    HW185440   9.015   4.929   1.866 -0.3766 -3.7474  1.9075
27687SOL    HW285441   8.999   4.927   2.017 -1.5875  2.4263  2.1497
27688SOL     OW85442   2.611  10.626   4.712 -0.0475  0.0489  0.4682
27688SOL    HW185443   2.519  10.638   4.689  0.1789  2.4714  0.6360
27688SOL    HW285444   2.634  10.541   4.673 -1.6830  0.5156 -1.7328
27689SOL     OW85445   2.338   3.731   3.197  0.3118 -0.3450  0.6734
27689SOL    HW185446   2.306   3.670   3.131 -1.6703  0.5838  0.6945
27689SOL    HW285447   2.277   3.721   3.270  0.5633  0.8782  1.0775
27690SOL     OW85448   2.946   1.177   4.079  0.5728 -0.2459 -0.1057
27690SOL    HW185449   2.921   1.178   4.171 -1.8048 -1.3848 -0.6617
27690SOL    HW285450   2.949   1.269   4.053 -1.7306  0.0367  0.4256
27691SOL     OW85451   3.457   5.547   6.190  0.5619  0.4337  0.1847
27691SOL    HW185452   3.464   5.455   6.216  2.1936  0.3957 -0.3033
27691SOL    HW285453   3.389   5.547   6.123  1.2078 -0.5950 -0.5109
27692SOL     OW85454   0.532   2.887   7.116 -0.0514  0.5102  0.6415
27692SOL    HW185455   0.477   2.857   7.189 -1.1695  2.2700  0.5823
27692SOL    HW285456   0.477   2.950   7.069  1.0870  0.3222 -1.0334
27693SOL     OW85457   8.771   2.422   7.751  0.8513 -0.0411  0.4621
27693SOL    HW185458   8.680   2.424   7.722  1.5905 -0.3240 -2.0990
27693SOL    HW285459   8.775   2.345   7.809 -0.3816 -0.4038  0.1064
27694SOL     OW85460   1.275   8.982   6.931  0.1666 -0.1775 -0.0368
27694SOL    HW185461   1.230   8.966   7.013  1.4218 -2.5621  0.2796
27694SOL    HW285462   1.368   8.988   6.955  0.4974 -0.2585 -1.2104
27695SOL     OW85463   0.354   6.010   7.552  0.2223  0.2073 -0.3416
27695SOL    HW185464   0.405   6.003   7.471 -0.3195 -1.4614 -0.5668
27695SOL    HW285465   0.358   5.924   7.592 -0.6571  0.6312  0.7278
27696SOL     OW85466   4.802   8.577   1.270 -0.5899 -0.1408 -0.1055
27696SOL    HW185467   4.722   8.526   1.285 -0.6807 -0.7228 -2.1482
27696SOL    HW285468   4.771   8.663   1.243 -0.6282 -0.6716 -1.9221
27697SOL     OW85469   1.355   0.592  10.504 -0.3074  0.0500  0.0545
27697SOL    HW185470   1.307   0.628  10.429 -1.1037  1.0361  1.0080
27697SOL    HW285471   1.289   0.547  10.556 -0.1314  0.9931  1.1258
27698SOL     OW85472   0.623   4.998   2.932  0.4140  0.0769  0.0290
27698SOL    HW185473   0.688   4.938   2.896  2.5749  2.2473  0.0465
27698SOL    HW285474   0.581   5.036   2.856  0.4392 -0.0241 -0.0354
27699SOL     OW85475   0.087   2.466   6.590  0.0730 -0.4768 -0.5209
27699SOL    HW185476   0.133   2.528   6.648 -1.4971  0.0907  0.1748
27699SOL    HW285477   0.157   2.424   6.540  1.4024 -0.1373  0.9586
27700SOL     OW85478   2.681   1.324   0.722 -0.5421 -0.2483  0.1652
27700SOL    HW185479   2.674   1.411   0.681 -0.7036 -0.8685 -1.1969
27700SOL    HW285480   2.649   1.337   0.811  0.7427  1.3922  0.4538
27701SOL     OW85481   5.993   9.036   4.360 -0.2501  0.8999 -0.2846
27701SOL    HW185482   6.022   8.956   4.317 -0.6747  0.7346 -0.2611
27701SOL    HW285483   6.012   9.022   4.453 -2.7562 -0.2812  0.1267
27702SOL     OW85484   4.341   7.564   0.870 -0.5296  0.1906  0.7418
27702SOL    HW185485   4.401   7.569   0.796  0.3528  0.4802  1.4651
27702SOL    HW285486   4.331   7.655   0.899 -1.4156  0.1616  0.5655
27703SOL     OW85487   8.230   2.605   4.500 -0.1600  0.3762  0.1414
27703SOL    HW185488   8.210   2.512   4.504  0.6754  0.1646 -0.3696
27703SOL    HW285489   8.150   2.648   4.530 -1.9522 -0.3497 -3.0744
27704SOL     OW85490   4.452   3.636   3.169  0.3539 -0.0120 -0.4266
27704SOL    HW185491   4.429   3.724   3.142  1.8274  0.6514  0.3480
27704SOL    HW285492   4.370   3.597   3.199 -0.9802 -0.1135 -3.7996
27705SOL     OW85493   2.399   0.953   1.754  0.1496  0.3491 -0.2457
27705SOL    HW185494   2.401   0.962   1.850 -1.7343 -1.3806  0.0402
27705SOL    HW285495   2.395   1.043   1.722  1.3822  0.9903  1.2604
27706SOL     OW85496   8.449   7.082   0.982  0.0058 -0.4240 -0.0267
27706SOL    HW185497   8.371   7.131   0.957  0.1926 -0.7360 -1.2971
27706SOL    HW285498   8.415   6.999   1.017 -0.2503 -0.9031 -1.3382
27707SOL     OW85499   1.154   9.665   2.289 -0.2879 -0.1786 -0.2561
27707SOL    HW185500   1.191   9.685   2.375  0.7147 -1.5382 -0.3407
27707SOL    HW285501   1.075   9.616   2.308  0.3318 -1.1413 -0.0874
27708SOL     OW85502   0.227   6.831   0.113  0.3015 -0.2524  0.5965
27708SOL    HW185503   0.183   6.902   0.066 -0.3783 -0.1437  1.3818
27708SOL    HW285504   0.213   6.754   0.057  0.1469  0.0235  0.2500
27709SOL     OW85505   9.982   4.650   0.935  0.5600 -0.5367 -0.3066
27709SOL    HW185506   9.915   4.704   0.977 -0.5068 -2.5248  0.6681
27709SOL    HW285507  10.033   4.614   1.007  2.4714  0.5811 -1.0183
27710SOL     OW85508  10.360  10.223   0.197 -0.1193 -0.0620  0.3525
27710SOL    HW185509  10.355  10.236   0.291 -0.4005 -0.9023  0.4655
27710SOL    HW285510  10.291  10.277   0.161 -0.8214 -0.6861  0.7376
27711SOL     OW85511   6.828   3.934   4.493  0.2137 -0.1179  0.4331
27711SOL    HW185512   6.850   3.974   4.577 -2.9199  0.4520  1.1021
27711SOL    HW285513   6.811   3.842   4.515 -0.2971 -0.0370  0.3906
27712SOL     OW85514   3.069   4.239   3.454  0.1867 -0.1115 -0.2429
27712SOL    HW185515   3.007   4.230   3.382  0.5370  0.8376 -0.6716
27712SOL    HW285516   3.073   4.151   3.493 -2.7759  0.1663  0.9535
27713SOL     OW85517   2.283   4.375   1.418 -0.0825  0.3704 -0.4275
27713SOL    HW185518   2.329   4.388   1.335 -0.8962 -2.7012 -1.5062
27713SOL    HW285519   2.193   4.403   1.400 -0.8287 -2.3467 -1.4441
27714SOL     OW85520   3.439   5.755   3.070  0.6031  0.4219  0.0408
27714SOL    HW185521   3.384   5.713   3.135  0.5978 -1.6488 -1.2211
27714SOL    HW285522   3.517   5.783   3.118 -0.1417  0.5326  1.2250
27715SOL     OW85523   6.459   9.364   7.339  0.2588  0.0476 -0.2519
27715SOL    HW185524   6.475   9.325   7.253  0.0751 -0.1910 -0.1799
27715SOL    HW285525   6.539   9.346   7.389  0.4552  0.3812 -0.4402
27716SOL     OW85526   0.422   0.759   0.440  0.0205  0.0531 -0.0426
27716SOL    HW185527   0.328   0.776   0.428 -0.1526 -1.4393 -1.1999
27716SOL    HW285528   0.461   0.780   0.355  0.1857 -2.3450 -0.6483
27717SOL     OW85529   1.302   5.548   6.125  0.5701  0.0734  0.6489
27717SOL    HW185530   1.397   5.550   6.133  0.4902 -0.0460  1.8859
27717SOL    HW285531   1.281   5.619   6.064  1.5770 -1.3319 -1.4511
27718SOL     OW85532   6.654  10.545   1.098 -0.1715  0.1042 -0.0926
27718SOL    HW185533   6.720  10.514   1.160  0.1444 -1.7314 -1.3023
27718SOL    HW285534   6.692  10.532   1.012 -1.4554  0.5795 -0.7675
27719SOL     OW85535   9.137   4.835  10.690  0.4064 -0.5094 -0.5851
27719SOL    HW185536   9.172   4.912  10.645  0.9695 -1.3315 -1.5995
27719SOL    HW285537   9.210   4.773  10.690 -0.2224 -1.2627 -0.3078
27720SOL     OW85538   7.521   1.759   0.338  0.0707  0.4468  0.2627
27720SOL    HW185539   7.479   1.738   0.422 -2.9973  0.5998 -1.0997
27720SOL    HW285540   7.527   1.675   0.293 -0.3222  0.6572 -0.1918
27721SOL     OW85541   7.881  10.324   3.303 -0.1305  0.2598  0.1083
27721SOL    HW185542   7.867  10.271   3.224  0.2016 -0.0059  0.2260
27721SOL    HW285543   7.956  10.379   3.281 -1.2177  1.5780 -0.4717
27722SOL     OW85544   3.853   1.697   7.155  0.0658 -0.5797  0.3468
27722SOL    HW185545   3.795   1.668   7.085  0.7908 -0.1070 -0.4642
27722SOL    HW285546   3.906   1.766   7.115  1.1147 -0.9271  1.1069
27723SOL     OW85547   9.749   4.283   4.820 -0.0136  0.2599  0.0221
27723SOL    HW185548   9.680   4.224   4.790 -0.5286 -0.3056  2.1462
27723SOL    HW285549   9.830   4.243   4.789 -0.5561  0.4919 -1.7859
27724SOL     OW85550   1.328   6.062   6.579  0.2182  0.2994  0.1725
27724SOL    HW185551   1.315   6.003   6.505 -1.1738  0.7918 -0.0093
27724SOL    HW285552   1.420   6.088   6.573  0.9140 -1.9279  0.3392
27725SOL     OW85553   6.984   4.668   2.580 -0.3158 -0.4972  0.2929
27725SOL    HW185554   6.948   4.753   2.553 -0.6942 -0.7749 -0.0851
27725SOL    HW285555   6.950   4.606   2.516  0.3658 -0.8599  0.2754
27726SOL     OW85556   5.340   4.024   6.396  0.0806  0.6954  0.0841
27726SOL    HW185557   5.304   3.978   6.472  0.1842  0.3784 -0.0582
27726SOL    HW285558   5.263   4.052   6.347  0.0205 -0.5258 -0.5464
27727SOL     OW85559   8.567   5.379  10.334  0.6796 -0.7942 -0.0369
27727SOL    HW185560   8.568   5.298  10.385 -3.2017 -0.7705  0.4480
27727SOL    HW285561   8.482   5.418  10.354  2.0080  3.0063 -0.9455
27728SOL     OW85562   1.976   9.328   3.587 -0.2613 -0.2444 -0.2223
27728SOL    HW185563   1.886   9.311   3.559 -0.8604  0.3104  1.2951
27728SOL    HW285564   1.972   9.411   3.634  0.4256 -1.6476  2.4973
27729SOL     OW85565   4.374   5.437   6.438 -0.5543 -0.1498 -0.5685
27729SOL    HW185566   4.414   5.350   6.434 -0.4990 -0.1666  0.2093
27729SOL    HW285567   4.292   5.429   6.389 -0.5801 -0.6539 -0.4400
27730SOL     OW85568   5.887   4.030   5.002  1.0119  0.4380 -0.2226
27730SOL    HW185569   5.893   4.115   4.959  1.7134 -0.0224 -1.0831
27730SOL    HW285570   5.795   4.004   4.991  1.2358  0.2006 -1.7423
27731SOL     OW85571  10.234   0.439   8.130  0.1164 -0.1656  0.6203
27731SOL    HW185572  10.292   0.374   8.168  0.2334 -0.7895 -0.5696
27731SOL    HW285573  10.273   0.459   8.045 -1.0714 -0.1466  0.0585
27732SOL     OW85574   5.533   0.582   4.125 -0.3821 -0.2787  0.0405
27732SOL    HW185575   5.553   0.606   4.215  0.6661  1.6056 -0.6272
27732SOL    HW285576   5.567   0.493   4.115  1.7950  0.4092  0.8339
27733SOL     OW85577   4.433   4.935   1.157  0.2111  0.3678 -0.0140
27733SOL    HW185578   4.480   4.945   1.074 -0.4957 -0.2387 -0.4975
27733SOL    HW285579   4.345   4.907   1.132  0.1457 -0.3611  0.9680
27734SOL     OW85580   5.246   8.333   0.863  0.4085 -0.2293  0.0338
27734SOL    HW185581   5.161   8.329   0.905  0.6889  0.8717  0.7565
27734SOL    HW285582   5.308   8.304   0.931  0.8100  1.0683  0.2632
27735SOL     OW85583   7.637   6.978   7.564  0.0958  0.6475  0.0457
27735SOL    HW185584   7.612   6.892   7.529  0.5308  1.0782 -1.4102
27735SOL    HW285585   7.667   7.026   7.487 -1.2365  2.5026  0.6355
27736SOL     OW85586  10.059   2.047   1.619  0.0154  0.1059 -0.3627
27736SOL    HW185587   9.992   2.013   1.679  0.5206  0.2168  0.2741
27736SOL    HW285588  10.029   2.021   1.533 -0.7025 -0.1021 -0.0580
27737SOL     OW85589   0.096   6.578   3.082 -0.1032 -0.6246 -0.1823
27737SOL    HW185590   0.168   6.518   3.101  0.4701  0.1347  0.0991
27737SOL    HW285591   0.018   6.523   3.082  0.1431 -1.0715  2.0530
27738SOL     OW85592   9.487   1.020   8.570  0.0282 -0.0508  0.2700
27738SOL    HW185593   9.512   1.094   8.516  0.8730 -1.0088 -0.6891
27738SOL    HW285594   9.510   0.943   8.518  0.9306 -1.0103  1.9999
27739SOL     OW85595   9.803   1.246   3.968 -0.2281  0.5227 -0.2697
27739SOL    HW185596   9.878   1.250   3.909  0.6586  1.0087  0.8426
27739SOL    HW285597   9.752   1.171   3.938  1.2399 -0.4337 -0.4380
27740SOL     OW85598   4.010   0.534   9.753 -0.5106 -0.1850  0.4793
27740SOL    HW185599   4.095   0.550   9.795  0.8320 -1.4455 -1.5884
27740SOL    HW285600   3.999   0.609   9.695 -1.3915  0.5228  1.5081
27741SOL     OW85601   2.502   7.900   4.385 -0.0204  0.2345  0.1979
27741SOL    HW185602   2.500   7.861   4.473 -1.9499 -0.8527 -0.2578
27741SOL    HW285603   2.584   7.949   4.382  0.0104  0.4712  2.6693
27742SOL     OW85604   9.218   7.915   0.479 -0.6159  0.2327  0.1226
27742SOL    HW185605   9.203   7.940   0.388 -0.5202 -0.7648 -0.1746
27742SOL    HW285606   9.186   7.990   0.530 -1.3232  0.4990 -0.6932
27743SOL     OW85607   9.064   6.599   1.176 -0.1250  0.2434  0.0431
27743SOL    HW185608   8.991   6.661   1.185  0.4175  1.2698 -1.8725
27743SOL    HW285609   9.110   6.603   1.259 -3.2311 -1.8617  2.0688
27744SOL     OW85610   4.319   4.822   2.963 -0.1362 -0.3997 -0.1205
27744SOL    HW185611   4.347   4.859   2.879  0.2249 -0.6666 -0.1212
27744SOL    HW285612   4.225   4.838   2.966  0.3476  3.1422  1.1856
27745SOL     OW85613  10.134   1.604   0.033  0.2334 -0.1435 -0.1540
27745SOL    HW185614  10.205   1.590  -0.030  0.7364  1.2030  0.0915
27745SOL    HW285615  10.162   1.558   0.112  1.1726  0.9629  0.1713
27746SOL     OW85616  10.511   2.709   1.383  0.2063 -0.4092  0.0968
27746SOL    HW185617  10.476   2.738   1.299 -0.1472 -2.9852 -0.7374
27746SOL    HW285618  10.585   2.768   1.400 -0.5132  0.9895 -1.3288
27747SOL     OW85619   1.072   2.372   5.971  0.3233 -0.0068 -0.0007
27747SOL    HW185620   1.002   2.317   5.936 -2.0266  1.7603  1.6176
27747SOL    HW285621   1.099   2.426   5.896 -0.2323 -0.5062 -0.5808
27748SOL     OW85622   6.371   4.348   3.970  0.3602  0.3601 -0.1983
27748SOL    HW185623   6.426   4.425   3.983  0.6370  0.3997 -1.4766
27748SOL    HW285624   6.383   4.326   3.877 -0.9423 -0.2704 -0.2318
27749SOL     OW85625   8.168   4.080   5.570  0.0272  0.4929  0.2526
27749SOL    HW185626   8.123   4.122   5.644 -1.1778 -1.1689  0.5225
27749SOL    HW285627   8.100   4.027   5.528  1.2267 -0.3360 -0.7037
27750SOL     OW85628   8.113   3.667   2.063  0.0464 -0.0196 -0.8351
27750SOL    HW185629   8.037   3.641   2.011  1.0445 -2.2918 -1.2459
27750SOL    HW285630   8.161   3.586   2.079  0.8494  0.8773  1.9685
27751SOL     OW85631   7.967   8.192   0.702  0.3925 -0.1373 -0.5071
27751SOL    HW185632   7.996   8.268   0.652 -0.9067  0.7691  0.0687
27751SOL    HW285633   7.940   8.227   0.787  1.5128 -1.5065  0.4511
27752SOL     OW85634   0.025   6.041   3.295  0.4347  0.3434  0.2519
27752SOL    HW185635  -0.059   6.031   3.338  0.8830  0.2810  1.1262
27752SOL    HW285636   0.073   6.104   3.349  0.5709  1.1934 -0.8115
27753SOL     OW85637   8.598   7.426   9.740  0.3712 -0.5418  0.3248
27753SOL    HW185638   8.692   7.417   9.757  0.6635 -0.5515 -1.1601
27753SOL    HW285639   8.586   7.519   9.722  0.2326 -0.6616 -0.2168
27754SOL     OW85640   8.434   9.550  10.016  0.2975 -0.7967 -0.2570
27754SOL    HW185641   8.444   9.460   9.983  1.6785 -0.1224 -1.8557
27754SOL    HW285642   8.362   9.586   9.964  0.6403 -0.5827 -0.5918
27755SOL     OW85643   5.918   2.405   1.984 -0.4753 -0.3130 -0.0641
27755SOL    HW185644   5.833   2.424   1.944 -1.3855  0.3656  2.0414
27755SOL    HW285645   5.977   2.468   1.944 -1.5369  0.9406  0.2529
27756SOL     OW85646   0.959   2.129   4.594 -0.7788  0.2910 -0.5467
27756SOL    HW185647   0.903   2.072   4.647  0.1050  0.1242  0.2244
27756SOL    HW285648   0.990   2.196   4.655  1.0295 -0.4666 -0.5919
27757SOL     OW85649   8.736   8.700   5.104  0.1495  0.0448  0.3801
27757SOL    HW185650   8.819   8.663   5.074  0.4386  0.6735  0.3776
27757SOL    HW285651   8.711   8.761   5.035 -0.5084 -0.4131  0.2095
27758SOL     OW85652   5.272   0.119   3.465 -0.7056 -0.0977  0.6761
27758SOL    HW185653   5.186   0.112   3.505 -0.3925  0.1436  1.4080
27758SOL    HW285654   5.283   0.037   3.417 -1.7377  0.2853 -0.2405
27759SOL     OW85655   5.055   6.840   6.114 -0.1284 -0.2934 -0.0997
27759SOL    HW185656   5.075   6.891   6.193  0.1246 -2.0694  1.0251
27759SOL    HW285657   5.127   6.860   6.054  0.6361 -0.2991  0.7996
27760SOL     OW85658   9.322   7.012   7.954  0.1090 -0.1296  0.6640
27760SOL    HW185659   9.360   7.041   8.037  0.9608 -0.9016  0.5609
27760SOL    HW285660   9.377   7.053   7.887 -0.7755  0.7607  0.4468
27761SOL     OW85661   8.064   2.184   1.324 -1.0168 -0.1181 -0.3553
27761SOL    HW185662   8.037   2.178   1.232  0.4618 -0.6668 -0.7737
27761SOL    HW285663   8.095   2.273   1.335  3.7071 -1.2645 -1.9026
27762SOL     OW85664   6.396   7.274   6.587 -0.3296 -0.3587  0.5542
27762SOL    HW185665   6.483   7.302   6.616 -0.6192  0.6750  0.4571
27762SOL    HW285666   6.368   7.342   6.527 -0.9681 -0.9944  0.1214
27763SOL     OW85667   8.178   0.374   5.400 -0.0053  0.1988 -0.2488
27763SOL    HW185668   8.105   0.383   5.339  0.4438 -0.2013 -0.8567
27763SOL    HW285669   8.225   0.457   5.395 -0.4860  0.5076  0.2439
27764SOL     OW85670   2.080   5.224   1.822 -0.0065  0.3366  0.0669
27764SOL    HW185671   1.987   5.201   1.831 -0.1582  1.0025  0.2513
27764SOL    HW285672   2.096   5.223   1.728 -0.6080  1.7655 -0.0700
27765SOL     OW85673   8.876   0.679   4.353 -0.3135  0.0362  0.1247
27765SOL    HW185674   8.794   0.648   4.314 -0.7093  0.0055  0.9524
27765SOL    HW285675   8.891   0.620   4.426  0.3369  0.1832  0.1103
27766SOL     OW85676   9.392   2.316   6.986  0.3222  0.6255  0.4175
27766SOL    HW185677   9.314   2.361   7.018  0.6072 -0.3348  2.5858
27766SOL    HW285678   9.465   2.370   7.015  0.6217 -0.6574  2.1759
27767SOL     OW85679   1.887   3.710   9.252  0.2040 -0.0716  0.4404
27767SOL    HW185680   1.833   3.675   9.323  1.5150 -0.4657  1.2747
27767SOL    HW285681   1.898   3.637   9.192  0.8365 -0.3623  0.9034
27768SOL     OW85682   7.014   8.322   3.572  0.1964 -0.4704  0.4563
27768SOL    HW185683   7.031   8.230   3.552 -0.2290 -0.0268 -2.3240
27768SOL    HW285684   7.064   8.370   3.506 -2.2390  1.1673 -0.3181
27769SOL     OW85685   9.985   4.640   9.357 -0.5840 -0.1573  0.2256
27769SOL    HW185686   9.914   4.580   9.379  0.0068 -1.4544 -1.2773
27769SOL    HW285687  10.064   4.586   9.358 -0.0497  0.5392 -1.2934
27770SOL     OW85688   5.197   5.393   1.063 -0.0922  0.0058  0.3029
27770SOL    HW185689   5.197   5.454   1.137  0.9570 -0.2858  0.5525
27770SOL    HW285690   5.190   5.450   0.986 -0.4467  0.3531  0.5801
27771SOL     OW85691   5.478   6.169   3.019  0.1327 -0.1510  0.0617
27771SOL    HW185692   5.489   6.264   3.021 -0.3312 -0.1121  1.1484
27771SOL    HW285693   5.429   6.152   2.939 -0.9322  0.6595  0.5328
27772SOL     OW85694   3.732   4.755   8.489 -0.6545  0.0483 -0.5099
27772SOL    HW185695   3.706   4.813   8.417  0.1264  2.0325  0.7182
27772SOL    HW285696   3.673   4.778   8.561  0.1657 -0.1429  0.2380
27773SOL     OW85697   6.006   7.285   0.105 -0.2279 -0.1302  0.1279
27773SOL    HW185698   6.051   7.293   0.021 -0.9705 -1.0053 -0.3761
27773SOL    HW285699   5.913   7.295   0.083 -0.5198 -1.4423  0.6625
27774SOL     OW85700   3.088   6.616   0.002 -0.3793 -1.0445  0.5197
27774SOL    HW185701   2.994   6.604  -0.011 -0.8162  2.1250 -0.1619
27774SOL    HW285702   3.114   6.674  -0.070  1.9202 -1.2018  1.1628
27775SOL     OW85703   8.188   0.212   4.553 -0.2941 -0.1833  0.0676
27775SOL    HW185704   8.110   0.213   4.497 -0.4381 -2.5016  0.1318
27775SOL    HW285705   8.195   0.121   4.583  0.9329  0.5496  2.2153
27776SOL     OW85706   6.359  10.018   3.756 -0.5232  0.4567 -0.0396
27776SOL    HW185707   6.269  10.050   3.757 -1.2532 -1.3798  1.6545
27776SOL    HW285708   6.412  10.095   3.735 -2.3483  2.0552  0.8502
27777SOL     OW85709   9.954   8.662   6.471  0.0688  0.2557  0.6525
27777SOL    HW185710  10.040   8.701   6.459  0.3849 -0.7774 -0.6340
27777SOL    HW285711   9.963   8.609   6.551  0.9470 -0.6304 -0.0106
27778SOL     OW85712   1.954   2.258   4.663  0.8765  0.1221  0.2161
27778SOL    HW185713   1.963   2.294   4.751  1.7195 -0.5145  0.3974
27778SOL    HW285714   2.037   2.213   4.646  0.6480  0.0613 -0.8247
27779SOL     OW85715   0.125   4.219   2.186 -0.7325  0.1178 -0.2878
27779SOL    HW185716   0.136   4.310   2.213  0.1893 -0.4089  1.2460
27779SOL    HW285717   0.111   4.223   2.091 -0.1757  1.8128 -0.3251
27780SOL     OW85718   7.274   5.267   5.063  0.0694  0.0277 -0.1329
27780SOL    HW185719   7.313   5.187   5.099 -0.0598  0.5970  1.3329
27780SOL    HW285720   7.332   5.291   4.990  1.5782 -0.0040  1.0032
27781SOL     OW85721  10.063   7.129   1.229 -0.1081 -0.1883 -0.4571
27781SOL    HW185722  10.141   7.075   1.234  0.0033  0.0533  0.6141
27781SOL    HW285723  10.094   7.213   1.195  0.0660 -0.1490 -0.1997
27782SOL     OW85724   1.089   7.481   4.423 -0.3303  0.4592 -0.5388
27782SOL    HW185725   1.124   7.565   4.452 -0.2479  1.0052 -2.0859
27782SOL    HW285726   1.164   7.434   4.389 -0.4282 -0.1135  0.0387
27783SOL     OW85727   0.985   1.877   2.520 -0.1210 -0.3078  0.2432
27783SOL    HW185728   0.915   1.914   2.467  1.1869  0.3128 -1.1428
27783SOL    HW285729   1.028   1.815   2.462  1.6684  0.7526  0.3614
27784SOL     OW85730   6.240   3.372  10.466 -0.0840 -0.2531  0.1867
27784SOL    HW185731   6.148   3.389  10.483 -0.0501  0.1725 -0.0399
27784SOL    HW285732   6.283   3.457  10.475  0.1893 -0.3291 -0.3206
27785SOL     OW85733   9.738   9.468   5.468  0.0189  0.0890  0.0913
27785SOL    HW185734   9.788   9.512   5.537 -0.2149 -0.3843  0.5757
27785SOL    HW285735   9.793   9.474   5.390  0.4317  0.3549  0.3992
27786SOL     OW85736   1.494   1.982   1.866  0.1918 -0.4647 -0.1340
27786SOL    HW185737   1.439   1.989   1.787 -0.3464  0.6046  0.3105
27786SOL    HW285738   1.582   2.004   1.836 -0.2547  1.4177 -0.1978
27787SOL     OW85739   3.824   0.729   0.480 -0.0344 -0.4164  0.0721
27787SOL    HW185740   3.774   0.666   0.531 -0.5366 -0.6899 -0.7453
27787SOL    HW285741   3.881   0.676   0.425  1.0888 -0.1098  0.8893
27788SOL     OW85742   2.519   9.622   8.662  0.6375 -0.0981 -0.0514
27788SOL    HW185743   2.581   9.588   8.727 -0.3395 -1.5970  0.1500
27788SOL    HW285744   2.573   9.671   8.600  1.9490 -0.9108  0.4139
27789SOL     OW85745   4.145   6.500  10.061  0.8322 -0.2631 -0.6269
27789SOL    HW185746   4.116   6.472   9.974  1.5266 -1.2299 -0.5572
27789SOL    HW285747   4.063   6.514  10.109  0.4455 -0.3799 -1.2348
27790SOL     OW85748   6.082   0.228   7.760 -0.0296 -0.1010 -0.1712
27790SOL    HW185749   6.108   0.306   7.808  0.5360  0.5185 -1.4366
27790SOL    HW285750   6.028   0.260   7.689 -0.3853 -0.9401 -0.2943
27791SOL     OW85751   5.223   4.619   3.897 -0.2240  0.3358 -0.4020
27791SOL    HW185752   5.316   4.619   3.876 -0.3996  0.1654 -1.2358
27791SOL    HW285753   5.211   4.697   3.951  0.6693 -0.5180  1.0795
27792SOL     OW85754   9.768   1.380   8.017  0.0451  0.4525  0.3435
27792SOL    HW185755   9.718   1.430   8.083 -0.6452  1.7536 -1.0905
27792SOL    HW285756   9.833   1.331   8.068 -0.2566  1.6445  1.9621
27793SOL     OW85757  10.415   8.583   6.837  0.1214 -0.7375  0.1258
27793SOL    HW185758  10.479   8.593   6.907  0.1009 -0.9754  0.1784
27793SOL    HW285759  10.330   8.585   6.882  0.1059 -0.8359  0.1002
27794SOL     OW85760   5.703   1.864   5.141  0.1787  0.2418  0.0421
27794SOL    HW185761   5.756   1.912   5.077 -0.8429 -0.0111 -1.0417
27794SOL    HW285762   5.738   1.889   5.226 -0.2087  2.7964 -0.4799
27795SOL     OW85763   2.127   3.139   4.572  0.1980 -0.6143 -0.0538
27795SOL    HW185764   2.212   3.097   4.557 -0.1957 -1.9581  1.2674
27795SOL    HW285765   2.120   3.148   4.667 -0.5964  0.6976 -0.2001
27796SOL     OW85766   2.461   7.162  10.527  0.3790 -0.3108  0.1268
27796SOL    HW185767   2.414   7.245  10.517 -1.7045 -1.5631 -1.2859
27796SOL    HW285768   2.464   7.147  10.622 -0.7645  0.5542  0.3201
27797SOL     OW85769   1.911  10.338   8.392 -0.1405  0.7978 -0.0988
27797SOL    HW185770   1.960  10.341   8.474 -1.3230  1.4268  0.6193
27797SOL    HW285771   1.871  10.251   8.390  0.9566  0.2816 -0.6878
27798SOL     OW85772   6.331   0.024   1.997 -0.5022  0.1090 -0.3255
27798SOL    HW185773   6.379  -0.022   1.928 -0.7537  1.0263 -1.1243
27798SOL    HW285774   6.277   0.087   1.951  0.6493  2.0021  0.7981
27799SOL     OW85775   4.937   0.683   2.970  0.4097 -0.1756  0.3075
27799SOL    HW185776   4.908   0.649   3.055 -0.7554  0.5086  0.2088
27799SOL    HW285777   4.882   0.637   2.907  2.0557 -1.5431 -0.2055
27800SOL     OW85778   5.681   8.460   9.054  0.0231 -0.1114 -0.0477
27800SOL    HW185779   5.752   8.504   9.101 -0.7500 -1.0302  2.1108
27800SOL    HW285780   5.623   8.429   9.122 -1.7068 -0.6951 -1.7014
27801SOL     OW85781  10.136  10.619   3.349 -0.3227 -0.5644 -0.7822
27801SOL    HW185782  10.176  10.705   3.361 -0.0554 -0.8393  0.5693
27801SOL    HW285783  10.044  10.637   3.332 -0.1604  0.0066 -1.0667
27802SOL     OW85784   0.666  10.323   7.986  0.0162 -0.1347  0.4713
27802SOL    HW185785   0.621  10.254   8.034 -0.9587  1.6602  2.2837
27802SOL    HW285786   0.744  10.280   7.950 -0.2806 -2.0421  1.9328
27803SOL     OW85787   6.404   2.278   0.863 -0.0878  0.2325 -0.0239
27803SOL    HW185788   6.421   2.240   0.776 -1.2569 -1.1099  0.3051
27803SOL    HW285789   6.400   2.202   0.921 -0.2994  1.0552  1.0504
27804SOL     OW85790   9.973   8.932   9.382 -0.0685 -0.0176 -0.6310
27804SOL    HW185791  10.043   8.867   9.373  0.3467  0.1946  0.8142
27804SOL    HW285792   9.893   8.883   9.366  0.3622 -0.2856 -2.2222
27805SOL     OW85793   5.337   7.601   6.237  0.2979  0.4245  0.4565
27805SOL    HW185794   5.401   7.672   6.243  1.1285 -0.2720  0.1809
27805SOL    HW285795   5.361   7.554   6.157 -2.9421  2.3638 -1.8914
27806SOL     OW85796   9.572   2.035   1.154 -0.3462 -0.0932 -0.1709
27806SOL    HW185797   9.551   2.014   1.245 -1.7932  0.8781 -0.2521
27806SOL    HW285798   9.500   1.998   1.104  0.3179 -0.4042 -0.9047
27807SOL     OW85799  10.428  10.756   6.701 -0.5315  0.7399 -0.5557
27807SOL    HW185800  10.468  10.760   6.788 -0.6092  0.0219 -0.4795
27807SOL    HW285801  10.364  10.828   6.700 -1.5935 -0.1499  0.5263
27808SOL     OW85802   0.214  10.733   0.846 -0.1769 -0.2917  0.2422
27808SOL    HW185803   0.271  10.798   0.807  1.4281 -1.6737  0.1453
27808SOL    HW285804   0.230  10.653   0.795  0.1803 -1.5175  2.1477
27809SOL     OW85805   8.419   1.035   8.588 -0.4594 -0.0212 -0.8345
27809SOL    HW185806   8.403   0.947   8.553 -0.1561  0.1185 -1.3448
27809SOL    HW285807   8.487   1.022   8.654 -0.0705 -0.1162 -1.2414
27810SOL     OW85808   7.606   7.316   5.641 -0.0446 -0.4257  0.3143
27810SOL    HW185809   7.608   7.277   5.554  1.4175  3.0012 -1.3637
27810SOL    HW285810   7.682   7.280   5.686  0.6513 -0.3432 -0.7725
27811SOL     OW85811   5.270   9.809   3.708 -0.3342  0.4358  0.1719
27811SOL    HW185812   5.249   9.717   3.694  0.2055  0.2963  0.2412
27811SOL    HW285813   5.364   9.815   3.689 -0.3698  0.9723  0.1582
27812SOL     OW85814   7.632   3.522   4.689  0.1158  0.5154 -0.5431
27812SOL    HW185815   7.634   3.464   4.765 -3.0435  1.3985  0.3946
27812SOL    HW285816   7.692   3.482   4.626  1.5118 -1.2050  1.7466
27813SOL     OW85817   3.579   2.599   7.948 -0.2063 -0.4285  0.6960
27813SOL    HW185818   3.646   2.538   7.916  1.4928  1.4961  0.4098
27813SOL    HW285819   3.606   2.619   8.038 -0.7930 -0.1585  0.8150
27814SOL     OW85820   0.814   8.337   5.121  0.4024  0.3288  0.1038
27814SOL    HW185821   0.776   8.273   5.181  0.6496 -0.2063 -0.3030
27814SOL    HW285822   0.908   8.318   5.120  0.4722  0.6535 -0.0734
27815SOL     OW85823   6.811   7.818   9.805 -0.6321 -0.2054 -0.2087
27815SOL    HW185824   6.874   7.749   9.829 -2.1423 -1.2683  0.8719
27815SOL    HW285825   6.804   7.872   9.884 -0.7720  0.1561 -0.4674
27816SOL     OW85826   2.157   3.824   9.290  0.1565  0.1847  0.3420
27816SOL    HW185827   2.072   3.783   9.308  0.3814 -0.5342 -0.1832
27816SOL    HW285828   2.141   3.884   9.218 -0.1890  1.1042  1.1561
27817SOL     OW85829   5.935   5.950   6.643  0.0518 -0.6837  0.2055
27817SOL    HW185830   5.869   6.001   6.689 -1.4487 -1.9309 -0.4829
27817SOL    HW285831   5.917   5.966   6.550 -0.5820 -2.5508 -0.0343
27818SOL     OW85832   5.447   9.584   5.936  0.0828  0.0403 -0.0055
27818SOL    HW185833   5.516   9.540   5.885  0.8798  0.7258  0.4533
27818SOL    HW285834   5.473   9.676   5.937 -1.3759  0.4700 -0.6444
27819SOL     OW85835   9.698   0.220   8.270  0.2552  0.4773 -0.1668
27819SOL    HW185836   9.747   0.174   8.337  0.5873 -0.5470 -1.0777
27819SOL    HW285837   9.673   0.303   8.310 -2.4349 -1.3675  2.4283
27820SOL     OW85838   8.095   3.568   3.414 -0.2129 -0.4159 -0.0477
27820SOL    HW185839   8.077   3.583   3.507  0.8636  1.3709 -0.0930
27820SOL    HW285840   8.124   3.477   3.409  1.0745 -0.1211  1.5813
27821SOL     OW85841   8.619   9.871   8.825 -0.2710 -0.2004  0.3416
27821SOL    HW185842   8.543   9.818   8.803  1.7316 -3.0014 -0.3731
27821SOL    HW285843   8.632   9.856   8.919 -0.9436  0.8149  0.6095
27822SOL     OW85844   4.090   3.011   4.984  0.0155 -0.3539 -0.5586
27822SOL    HW185845   4.071   2.938   4.925  0.7526  1.4529 -3.1944
27822SOL    HW285846   4.006   3.055   4.996 -0.3758 -1.4000  0.8164
27823SOL     OW85847   9.056   0.825   3.605  0.5533 -0.0640  0.3615
27823SOL    HW185848   9.034   0.796   3.517 -0.5991 -1.6332  1.1409
27823SOL    HW285849   8.999   0.901   3.620  1.9335  1.2891 -0.8057
27824SOL     OW85850   1.751   6.895   8.248 -0.2395  0.0360  0.0588
27824SOL    HW185851   1.680   6.833   8.228 -0.6571  0.6486 -0.4161
27824SOL    HW285852   1.827   6.861   8.201  0.1106 -1.2534  1.4827
27825SOL     OW85853  10.532   1.131   0.456  0.6133 -0.2296  0.2587
27825SOL    HW185854  10.581   1.103   0.378  1.1522  1.2581  0.0199
27825SOL    HW285855  10.594   1.184   0.505 -0.2911  0.4025  0.7473
27826SOL     OW85856   0.741   4.945   7.264  0.0155  0.3314  0.0676
27826SOL    HW185857   0.815   4.970   7.319 -0.0489  0.2454  0.1956
27826SOL    HW285858   0.776   4.941   7.176  0.3879 -0.6008  0.2436
27827SOL     OW85859  10.381   0.625   6.685  0.2725  0.3861 -0.0671
27827SOL    HW185860  10.290   0.650   6.667  0.3888  1.4631  0.7675
27827SOL    HW285861  10.406   0.572   6.609 -1.7310 -1.8083  0.7088
27828SOL     OW85862   6.251   0.289   5.141 -0.5424 -0.4101  0.1761
27828SOL    HW185863   6.177   0.231   5.154  0.1470 -1.2826  0.3265
27828SOL    HW285864   6.290   0.298   5.228 -0.7905  0.4935  0.2012
27829SOL     OW85865  10.715   5.588   3.514  0.6204 -0.2504 -0.1213
27829SOL    HW185866  10.653   5.638   3.567  0.8404  1.7411 -1.6082
27829SOL    HW285867  10.683   5.498   3.518 -1.8617  0.5566 -0.1448
27830SOL     OW85868   7.509   2.738   3.558  0.3049  0.1931 -0.3134
27830SOL    HW185869   7.508   2.736   3.463  0.4305  1.0155 -0.3385
27830SOL    HW285870   7.596   2.771   3.581  0.7930 -1.3406  0.1250
27831SOL     OW85871   2.001   8.454   7.781  0.1190 -0.0637 -0.2118
27831SOL    HW185872   1.985   8.374   7.731 -0.0850  0.2657 -0.6850
27831SOL    HW285873   2.089   8.443   7.816 -0.3635 -1.0354  0.7689
27832SOL     OW85874   0.864  10.215   3.859  0.3703  0.1098  0.4127
27832SOL    HW185875   0.810  10.137   3.847  1.2542 -0.5926  0.8636
27832SOL    HW285876   0.895  10.209   3.950  3.2181 -0.8452 -0.5405
27833SOL     OW85877   2.714   3.841  10.248  0.8028  0.0085 -0.0030
27833SOL    HW185878   2.673   3.892  10.178 -1.7673 -0.5022  1.0056
27833SOL    HW285879   2.722   3.904  10.320 -1.7224 -0.6692  1.0046
27834SOL     OW85880  10.381  10.100   2.950  0.4291  0.1545  0.3305
27834SOL    HW185881  10.317  10.034   2.976 -0.5139  0.9087 -0.0172
27834SOL    HW285882  10.458  10.081   3.004  0.0069 -0.9227  0.5766
27835SOL     OW85883   9.904   0.366   0.085  0.3006 -0.1552 -0.6111
27835SOL    HW185884   9.969   0.374   0.155 -0.1979  0.8896 -0.2613
27835SOL    HW285885   9.946   0.307   0.021  1.0202 -0.6050  0.2488
27836SOL     OW85886   3.550   6.221   4.661 -0.7042  0.2549  0.5850
27836SOL    HW185887   3.571   6.268   4.580 -0.9739 -2.2169 -1.0202
27836SOL    HW285888   3.454   6.227   4.667 -0.6131  1.2559  1.2945
27837SOL     OW85889   3.873   0.287   6.467 -0.0317  0.4803  0.2043
27837SOL    HW185890   3.900   0.358   6.525 -0.6328  0.4959  0.4659
27837SOL    HW285891   3.893   0.320   6.379 -2.5161  2.0067  0.1258
27838SOL     OW85892   7.185   0.530  10.118 -0.1162  0.2307 -0.2285
27838SOL    HW185893   7.271   0.520  10.079  0.1491 -0.1394  0.4461
27838SOL    HW285894   7.128   0.554  10.044  0.4304 -0.1526 -0.7835
27839SOL     OW85895   1.067   8.325   2.578  0.0835 -0.1074 -0.1119
27839SOL    HW185896   1.033   8.236   2.589  0.9323 -0.5010 -0.5293
27839SOL    HW285897   1.005   8.366   2.517 -0.2571 -0.4407  0.0004
27840SOL     OW85898   0.622   4.378   7.199  0.1676 -0.2285 -0.2489
27840SOL    HW185899   0.683   4.337   7.261  2.1363  2.2645 -0.3528
27840SOL    HW285900   0.585   4.452   7.247 -3.4086 -1.9911  0.0023
27841SOL     OW85901   8.393   8.589   3.011 -0.2760 -0.5679 -0.4165
27841SOL    HW185902   8.430   8.651   3.073 -0.1018  0.6619 -1.6861
27841SOL    HW285903   8.347   8.644   2.947 -1.8925 -1.8807 -0.4632
27842SOL     OW85904  10.232   6.964   0.928  0.1774 -0.1858 -0.5809
27842SOL    HW185905  10.145   6.995   0.903  0.8805  0.3365 -2.5598
27842SOL    HW285906  10.235   6.874   0.898  0.2052 -0.3168 -0.1909
27843SOL     OW85907   4.510   9.929  10.595 -0.1970 -0.2437  0.5372
27843SOL    HW185908   4.565   9.870  10.646 -1.8846 -2.2294  0.1892
27843SOL    HW285909   4.481   9.877  10.520 -0.2154  1.6571 -0.8564
27844SOL     OW85910   9.397   1.061   2.342 -0.3269  0.0922 -0.4553
27844SOL    HW185911   9.393   1.064   2.437 -1.8802  1.1141 -0.5183
27844SOL    HW285912   9.356   0.977   2.319  0.1122 -0.1853 -0.2277
27845SOL     OW85913   1.300   0.054   4.363 -0.0973  0.3252 -0.4491
27845SOL    HW185914   1.255  -0.006   4.423 -1.5821  2.8919  1.2183
27845SOL    HW285915   1.390   0.058   4.395  0.2364 -1.4626 -1.0394
27846SOL     OW85916   2.511   9.580   1.261 -0.1236  0.1499  0.0228
27846SOL    HW185917   2.475   9.657   1.305  2.6669  1.5225  0.0815
27846SOL    HW285918   2.502   9.510   1.326  0.9521  1.3994  1.5937
27847SOL     OW85919  10.557   7.458   3.876  0.6339  0.7717  0.5254
27847SOL    HW185920  10.630   7.502   3.918  0.4314  1.5035  0.1296
27847SOL    HW285921  10.597   7.404   3.808  0.8836  0.3538  1.0012
27848SOL     OW85922   7.727   0.502   5.440 -0.5978 -0.3882  0.0856
27848SOL    HW185923   7.645   0.454   5.432 -0.7996 -0.1616  0.7377
27848SOL    HW285924   7.790   0.436   5.470 -0.5621 -0.5324 -0.2925
27849SOL     OW85925   8.447   3.345   4.341 -0.2912  0.2619 -0.0547
27849SOL    HW185926   8.405   3.295   4.272 -0.3402 -0.9180  0.8011
27849SOL    HW285927   8.533   3.369   4.304 -0.9568  1.1103 -1.1189
27850SOL     OW85928  10.182   4.161   2.138  0.4182 -0.1651  0.1483
27850SOL    HW185929  10.228   4.243   2.122  0.1100 -0.1729 -0.8542
27850SOL    HW285930  10.251   4.097   2.154  0.6422  0.4778  2.0875
27851SOL     OW85931  10.480   1.002   0.099 -0.4793  0.1259 -0.0564
27851SOL    HW185932  10.515   0.926   0.146 -0.1462 -0.2818 -0.9533
27851SOL    HW285933  10.550   1.029   0.040 -0.7532  0.8737 -0.0600
27852SOL     OW85934  10.505   3.807   0.516 -0.6476 -0.8260 -0.2849
27852SOL    HW185935  10.588   3.852   0.532 -1.6358  1.8028 -1.7922
27852SOL    HW285936  10.460   3.809   0.600 -0.5090  0.8382 -0.2129
27853SOL     OW85937   8.664   2.347   6.855 -0.3945  0.0723 -0.4376
27853SOL    HW185938   8.599   2.277   6.845 -0.7667  0.5325 -1.3964
27853SOL    HW285939   8.626   2.422   6.809  0.2983  0.7030 -0.0058
27854SOL     OW85940   4.418   5.874   9.992  0.5063 -0.1198  0.0546
27854SOL    HW185941   4.484   5.915  10.047  1.1368  1.2580 -1.6470
27854SOL    HW285942   4.450   5.785   9.978  0.4696 -0.4082  1.6396
27855SOL     OW85943   0.561   7.839   3.473  0.2453 -0.3477 -0.4714
27855SOL    HW185944   0.507   7.767   3.504 -0.8988  0.6271 -0.1292
27855SOL    HW285945   0.510   7.879   3.402 -0.4622  1.7707  1.1098
27856SOL     OW85946   8.196   2.216   3.005  0.0484 -0.2202  0.4314
27856SOL    HW185947   8.164   2.128   3.025  0.8075 -0.4204  0.8056
27856SOL    HW285948   8.230   2.210   2.916  0.4493 -0.4104  0.5946
27857SOL     OW85949   4.749   9.873   6.030 -0.6913  0.0169 -0.4258
27857SOL    HW185950   4.761   9.801   6.092  0.4664 -0.0629 -0.7070
27857SOL    HW285951   4.707   9.833   5.954 -2.1131  0.1147  0.2910
27858SOL     OW85952   9.618   6.517   2.612  0.1293 -0.0868 -0.5385
27858SOL    HW185953   9.691   6.489   2.557  0.3416 -2.3606  0.7630
27858SOL    HW285954   9.543   6.518   2.553  0.7048 -0.5920 -1.3008
27859SOL     OW85955   2.812   2.130   6.547 -0.0207 -0.4117 -0.3900
27859SOL    HW185956   2.726   2.090   6.555  0.2679 -1.0845 -0.5859
27859SOL    HW285957   2.796   2.213   6.502 -0.6320 -0.2707  0.0754
27860SOL     OW85958   9.904   1.678   1.813  0.1300  0.0045 -0.4642
27860SOL    HW185959   9.814   1.653   1.835  0.2139 -0.7442 -0.9359
27860SOL    HW285960   9.902   1.774   1.813 -0.2087  0.0366  1.3447
27861SOL     OW85961   1.767   3.125   3.161  0.4797  0.2138  0.0679
27861SOL    HW185962   1.750   3.190   3.093 -1.4843  1.7433  1.8797
27861SOL    HW285963   1.719   3.047   3.132 -0.1797  0.7833 -0.4098
27862SOL     OW85964   6.731   7.974   7.719  0.3871 -0.0791  0.5431
27862SOL    HW185965   6.651   8.020   7.696 -0.7044 -1.3752  1.5705
27862SOL    HW285966   6.801   8.035   7.696 -0.9009  1.3381  0.1905
27863SOL     OW85967   2.901   8.388   7.335  0.1332 -0.1862 -0.0447
27863SOL    HW185968   2.846   8.317   7.368 -1.2360  0.7925 -0.1269
27863SOL    HW285969   2.973   8.394   7.397  0.7846 -2.2078 -0.5180
27864SOL     OW85970   9.721   3.204   1.677 -0.7454 -0.1888  0.2843
27864SOL    HW185971   9.659   3.169   1.614 -0.8693 -0.5328  0.5896
27864SOL    HW285972   9.805   3.168   1.651 -0.6141  0.5246 -0.3145
27865SOL     OW85973   6.807   7.169   1.418  0.0842 -0.1275 -0.2310
27865SOL    HW185974   6.742   7.173   1.348 -0.5112  0.0924  0.3132
27865SOL    HW285975   6.890   7.188   1.376 -0.1190 -0.9890 -1.0487
27866SOL     OW85976   2.847  10.137   1.232  0.0228 -0.2494 -0.8243
27866SOL    HW185977   2.765  10.094   1.254 -0.9139  1.4514 -0.8280
27866SOL    HW285978   2.908  10.110   1.302 -1.0529 -0.0767  0.2081
27867SOL     OW85979   6.467   4.497   6.098  0.3563 -0.0018  0.1712
27867SOL    HW185980   6.474   4.592   6.097  2.7405 -0.0538 -2.5763
27867SOL    HW285981   6.403   4.477   6.029  0.5181 -0.4266  0.1406
27868SOL     OW85982   3.469   5.841   7.532 -0.2907 -0.3398 -0.3777
27868SOL    HW185983   3.429   5.857   7.447 -0.7328  0.3072 -0.0648
27868SOL    HW285984   3.528   5.767   7.519  1.1256  0.9523 -1.7131
27869SOL     OW85985   5.334   1.384   4.212 -0.1633  0.6598  0.0842
27869SOL    HW185986   5.271   1.373   4.141 -0.1104  0.3128  0.0861
27869SOL    HW285987   5.284   1.423   4.283 -0.5518 -0.2627  0.3304
27870SOL     OW85988   4.026   0.510   5.049  0.0993  0.5370 -0.0229
27870SOL    HW185989   4.088   0.552   5.108  0.7404 -0.5595  0.1263
27870SOL    HW285990   4.038   0.416   5.065 -1.6873  0.2866  0.0935
27871SOL     OW85991   5.781   9.594   4.268 -0.2494  0.1522  0.4539
27871SOL    HW185992   5.730   9.655   4.321 -1.0049 -0.8612  0.9219
27871SOL    HW285993   5.726   9.516   4.262  0.9980 -0.7491  0.4586
27872SOL     OW85994   6.163  10.566   4.925  0.1171 -0.0454  0.5216
27872SOL    HW185995   6.092  10.619   4.888  2.0273  2.2253 -0.1184
27872SOL    HW285996   6.223  10.552   4.852  1.0231 -0.6950  1.3697
27873SOL     OW85997   9.427   7.379   8.695  0.9308 -0.2491 -0.6322
27873SOL    HW185998   9.512   7.371   8.740  1.1877  0.5208 -0.9681
27873SOL    HW285999   9.399   7.469   8.713  0.6607 -0.1870 -1.3427
27874SOL     OW86000   3.747   0.247   0.140 -0.3633 -0.4165 -0.0385
27874SOL    HW186001   3.770   0.158   0.169 -0.0333 -0.1148  0.6543
27874SOL    HW286002   3.818   0.272   0.081  1.1674  0.5122  2.0916
27875SOL     OW86003   7.438   0.719   6.871  0.4120 -0.0851  0.1898
27875SOL    HW186004   7.476   0.631   6.863 -0.2271 -0.2148 -1.9042
27875SOL    HW286005   7.513   0.776   6.888  0.7703 -1.0704  2.1794
27876SOL     OW86006   5.023   4.946   0.352 -0.1516  0.1670 -0.1874
27876SOL    HW186007   4.976   5.024   0.382 -0.3313  0.0812 -0.2473
27876SOL    HW286008   5.099   4.981   0.305 -0.6285  0.3211 -0.8661
27877SOL     OW86009   7.525   6.877   3.565  0.3461 -0.2346  0.2385
27877SOL    HW186010   7.575   6.910   3.640 -2.0052  1.2175  1.2462
27877SOL    HW286011   7.441   6.850   3.601 -1.2340  1.3904 -1.9581
27878SOL     OW86012   1.117  10.532   8.538 -0.1914 -0.0738 -0.3686
27878SOL    HW186013   1.081  10.544   8.626  0.8090 -0.5190  0.1226
27878SOL    HW286014   1.194  10.588   8.536  2.3784 -3.2498  0.6575
27879SOL     OW86015  10.724   7.995   9.831 -1.2080  0.3235 -0.4570
27879SOL    HW186016  10.807   8.026   9.797 -0.9561  0.3782  0.1973
27879SOL    HW286017  10.746   7.954   9.915 -1.9936  1.3898  0.2877
27880SOL     OW86018   4.377   5.537   0.296  0.6568 -0.3369 -0.0534
27880SOL    HW186019   4.392   5.459   0.350 -0.0046 -1.3057 -1.2107
27880SOL    HW286020   4.295   5.575   0.330 -0.4205 -1.6283 -1.0893
27881SOL     OW86021   0.664   3.900   6.418  0.3562  0.3841  0.4985
27881SOL    HW186022   0.724   3.825   6.417  1.5444  1.2561  2.1595
27881SOL    HW286023   0.580   3.862   6.446  0.0629 -0.8349 -1.7740
27882SOL     OW86024   9.509  10.265   7.540 -0.2626  0.2982 -0.1804
27882SOL    HW186025   9.423  10.225   7.556 -0.2012 -0.7305 -2.0475
27882SOL    HW286026   9.563  10.238   7.614 -0.6255 -2.0097 -0.6776
27883SOL     OW86027   0.529   1.376   3.411 -0.4707 -0.1327  0.1063
27883SOL    HW186028   0.531   1.470   3.428  2.2007 -0.2396  0.7309
27883SOL    HW286029   0.552   1.336   3.494  0.8674 -1.2032 -0.7414
27884SOL     OW86030   9.861   9.172   8.716  0.1801  0.0023  0.2839
27884SOL    HW186031   9.794   9.193   8.781 -0.1343  0.4870 -0.1929
27884SOL    HW286032   9.817   9.183   8.632  0.6943 -0.2484 -0.0222
27885SOL     OW86033   1.738   7.243   5.389  1.3710 -0.2869  0.5185
27885SOL    HW186034   1.714   7.155   5.359  1.6796 -0.3395  0.4200
27885SOL    HW286035   1.695   7.252   5.473 -0.5188  0.3139 -0.4542
27886SOL     OW86036   6.948  10.036   1.552 -0.5403 -0.5331 -0.4826
27886SOL    HW186037   7.005   9.992   1.614 -0.9285 -1.6338 -0.8694
27886SOL    HW286038   6.867   9.984   1.553 -0.3022 -1.0082 -2.4030
27887SOL     OW86039   4.354   2.867   4.576 -0.0010  0.4274 -0.4274
27887SOL    HW186040   4.411   2.935   4.614  0.8286 -0.9959  0.9806
27887SOL    HW286041   4.404   2.831   4.504  0.5333 -0.2045  0.2437
27888SOL     OW86042   7.483   9.916   6.585  0.3248  0.7831 -0.4755
27888SOL    HW186043   7.497   9.969   6.507 -0.6302  0.6494 -0.7493
27888SOL    HW286044   7.568   9.876   6.602  0.4122  0.3746 -1.7799
27889SOL     OW86045   9.033  10.658   0.976 -0.4337  0.5070 -0.2595
27889SOL    HW186046   9.019  10.708   1.056 -0.9830  0.1517 -0.1263
27889SOL    HW286047   8.975  10.582   0.984  1.9132 -1.3341  0.5262
27890SOL     OW86048   9.116   8.650   6.733  0.2850 -0.3798 -0.2286
27890SOL    HW186049   9.162   8.566   6.726 -0.0729 -0.5191 -1.0198
27890SOL    HW286050   9.062   8.640   6.812  1.2931 -0.3546  0.4861
27891SOL     OW86051   1.980   6.090  10.798 -0.1728 -0.5460 -0.5432
27891SOL    HW186052   1.923   6.090  10.721  0.5452  1.1791 -1.1275
27891SOL    HW286053   1.928   6.049  10.867 -1.2455 -1.1133 -1.6572
27892SOL     OW86054   3.100   7.210   8.611  0.1008  0.4485 -0.4425
27892SOL    HW186055   3.120   7.189   8.702  2.0945  1.3799 -0.6032
27892SOL    HW286056   3.030   7.150   8.587  0.7475 -1.0396  1.1748
27893SOL     OW86057   4.370   8.374   7.508  0.0727 -0.7101 -0.3228
27893SOL    HW186058   4.452   8.382   7.460 -0.9571 -3.4010 -2.8799
27893SOL    HW286059   4.374   8.288   7.550 -0.8958 -0.3028  0.6717
27894SOL     OW86060   7.834   3.288   6.306 -0.1514  0.7942  0.4938
27894SOL    HW186061   7.776   3.355   6.272  0.2555  0.5538 -0.7024
27894SOL    HW286062   7.777   3.215   6.329 -0.3573  0.6444 -0.4646
27895SOL     OW86063   6.835   5.021   7.243 -0.2069  0.3489  0.0540
27895SOL    HW186064   6.877   5.090   7.295  0.7454 -0.0836 -0.1117
27895SOL    HW286065   6.854   5.046   7.152 -0.8776  0.4923 -0.0496
27896SOL     OW86066   2.375   4.315   8.487 -0.4364 -0.3168  0.8952
27896SOL    HW186067   2.364   4.344   8.577 -0.1235 -0.4232  0.9700
27896SOL    HW286068   2.289   4.283   8.461 -0.9842  1.3366  0.5755
27897SOL     OW86069   3.073   9.650   1.578 -0.2971  0.1040 -0.1317
27897SOL    HW186070   3.107   9.650   1.488 -0.4660  2.2361 -0.2454
27897SOL    HW286071   3.138   9.700   1.628 -0.1524 -1.1462  0.9979
27898SOL     OW86072   8.352   5.567   5.658  0.7453  0.3627  0.0614
27898SOL    HW186073   8.275   5.565   5.601  1.6436  1.5439 -1.2693
27898SOL    HW286074   8.388   5.479   5.653  0.4514  0.2840 -0.7072
27899SOL     OW86075   0.702  10.732   2.546  0.3018  0.1047 -0.4557
27899SOL    HW186076   0.614  10.762   2.571  0.1357 -0.3462 -0.4778
27899SOL    HW286077   0.756  10.810   2.548 -0.1222  0.4009 -0.5198
27900SOL     OW86078   0.255   0.299   8.052  0.8959 -0.3372  0.4737
27900SOL    HW186079   0.242   0.213   8.012 -1.4846  0.6196 -0.9994
27900SOL    HW286080   0.245   0.283   8.146  0.7979 -1.7085  0.2559
27901SOL     OW86081   9.139   6.537   6.972  0.2248  0.3404 -0.1055
27901SOL    HW186082   9.110   6.450   6.944  0.2135  0.2396  0.2137
27901SOL    HW286083   9.233   6.527   6.988 -0.1726 -0.2612  2.2795
27902SOL     OW86084   4.426  10.520  10.408  0.4538 -0.3421  0.0334
27902SOL    HW186085   4.375  10.513  10.328 -0.2599  2.1615  0.1684
27902SOL    HW286086   4.515  10.539  10.378  0.1552  0.7681 -0.2317
27903SOL     OW86087   1.006   0.844   9.663  0.5597 -0.0987 -0.1590
27903SOL    HW186088   1.014   0.757   9.624 -1.5695 -0.2186 -0.4371
27903SOL    HW286089   0.921   0.843   9.706 -0.2594  2.3493 -1.5384
27904SOL     OW86090   2.846   3.997   3.886  0.0126  0.2466  0.4471
27904SOL    HW186091   2.753   3.980   3.900 -0.2891 -0.2965 -1.8934
27904SOL    HW286092   2.891   3.924   3.928 -0.8391 -1.5162 -1.5659
27905SOL     OW86093   9.102   5.517   0.199 -0.4582  0.2392  0.5448
27905SOL    HW186094   9.153   5.570   0.138 -0.4286 -1.2524 -0.8005
27905SOL    HW286095   9.123   5.553   0.286  1.3806  0.8861 -0.1125
27906SOL     OW86096   1.491   2.792   0.083  0.5820  0.3440 -0.2996
27906SOL    HW186097   1.575   2.798   0.128 -0.1154  0.0406  1.0966
27906SOL    HW286098   1.447   2.875   0.103 -0.4264 -0.4725  1.0860
27907SOL     OW86099   8.524   3.409   9.391 -0.1686  0.0714 -0.0039
27907SOL    HW186100   8.548   3.475   9.457 -1.5072  0.0540  0.5281
27907SOL    HW286101   8.602   3.402   9.336  0.2769  1.5524  0.3722
27908SOL     OW86102   2.829   3.278   5.326 -0.4248  0.4045 -0.2295
27908SOL    HW186103   2.824   3.373   5.335 -0.7542  0.4129 -0.4792
27908SOL    HW286104   2.875   3.249   5.405 -0.1726  0.7849 -0.2303
27909SOL     OW86105   2.864   8.200  10.449  0.1115 -0.0304  0.2927
27909SOL    HW186106   2.861   8.106  10.434  1.1422  0.1138 -0.9332
27909SOL    HW286107   2.915   8.210  10.530  1.7713 -0.4539 -0.6594
27910SOL     OW86108   8.108  10.618   1.980  0.5455 -0.3241 -0.0437
27910SOL    HW186109   8.126  10.711   1.993 -3.4983  0.6954 -0.3307
27910SOL    HW286110   8.051  10.615   1.903 -1.4038 -2.6858  1.3333
27911SOL     OW86111   5.593   0.017   5.410 -0.3661 -0.4844  0.3082
27911SOL    HW186112   5.597   0.068   5.328  0.4959 -0.1174  0.5701
27911SOL    HW286113   5.614  -0.072   5.383 -1.2621 -0.6065 -0.0508
27912SOL     OW86114   4.233   7.709   6.350  0.6168  0.2944  0.2681
27912SOL    HW186115   4.304   7.685   6.410  2.4816  1.4485 -1.3685
27912SOL    HW286116   4.208   7.626   6.309 -0.0555 -0.3562  1.9236
27913SOL     OW86117   5.243  10.470   6.901 -0.0605 -0.0442  0.3480
27913SOL    HW186118   5.173  10.421   6.858  0.5134  2.2591 -3.8098
27913SOL    HW286119   5.319  10.412   6.896 -0.4628 -0.5433 -0.1466
27914SOL     OW86120   8.103   1.674   0.618 -0.5949  0.1621  0.7196
27914SOL    HW186121   8.122   1.594   0.568 -2.6145  0.3458 -0.4431
27914SOL    HW286122   8.145   1.659   0.703  1.2714 -1.0063 -0.3135
27915SOL     OW86123   9.320   2.392   1.685  0.6035  0.3003  0.0414
27915SOL    HW186124   9.239   2.363   1.642  0.7313 -0.7794  0.4797
27915SOL    HW286125   9.290   2.449   1.756  0.3164  1.0031 -0.6319
27916SOL     OW86126   3.229   3.895   2.727 -0.3142  0.3220 -0.0866
27916SOL    HW186127   3.251   3.836   2.654  1.3867 -1.1391  1.4846
27916SOL    HW286128   3.282   3.973   2.711 -0.7646  0.4638 -0.9557
27917SOL     OW86129   3.258   2.136   3.990 -0.3368 -0.0735 -0.0699
27917SOL    HW186130   3.274   2.115   4.082  1.9800 -2.7855 -0.9413
27917SOL    HW286131   3.311   2.214   3.973 -1.2666  0.8137  0.9761
27918SOL     OW86132   2.264   8.153  10.041 -0.7930  0.2092 -0.4001
27918SOL    HW186133   2.220   8.146  10.126  1.9665  1.5745  1.2987
27918SOL    HW286134   2.306   8.069  10.028  0.9872  0.8278  1.0039
27919SOL     OW86135   3.315   1.086  10.537  0.0600 -0.0173  0.7162
27919SOL    HW186136   3.371   1.025  10.490 -0.0744  0.1236  0.3676
27919SOL    HW286137   3.293   1.041  10.618 -1.0295 -0.9489 -0.0632
27920SOL     OW86138   0.814   9.852   5.896 -0.3015  0.5093  0.4957
27920SOL    HW186139   0.723   9.879   5.885 -0.2392  0.1486 -1.2174
27920SOL    HW286140   0.824   9.777   5.837  0.9438  0.1433  1.1352
27921SOL     OW86141   5.872   1.438   7.639  0.6838 -0.4365 -0.0103
27921SOL    HW186142   5.835   1.508   7.692  0.4705 -0.7531  0.2693
27921SOL    HW286143   5.883   1.476   7.552  1.2162  0.1479  0.3006
27922SOL     OW86144  10.684   9.763   4.072  0.9158 -0.1865  0.0763
27922SOL    HW186145  10.664   9.686   4.126  1.0179  0.4495  1.0375
27922SOL    HW286146  10.598   9.801   4.053  0.8996 -0.2310  0.0604
27923SOL     OW86147   3.292   8.601   0.788 -0.2707  0.2811 -0.0400
27923SOL    HW186148   3.374   8.551   0.791  0.1023  0.8426 -0.5009
27923SOL    HW286149   3.224   8.538   0.810  0.4309  0.1391  1.8320
27924SOL     OW86150  10.299   3.644   5.830  0.1341 -0.2697 -0.5798
27924SOL    HW186151  10.263   3.727   5.798  2.0511  1.0315  0.4928
27924SOL    HW286152  10.256   3.631   5.914  0.9112  0.4539 -0.0489
27925SOL     OW86153   3.197  10.383   8.688  0.4371 -0.6464 -0.2407
27925SOL    HW186154   3.189  10.288   8.681  2.1790 -0.7761 -1.1785
27925SOL    HW286155   3.176  10.415   8.600 -0.9460 -0.0618  0.2742
27926SOL     OW86156   5.680   9.033   4.420 -0.2028  0.0113 -0.1571
27926SOL    HW186157   5.685   8.961   4.356 -0.5869 -1.1527  1.0730
27926SOL    HW286158   5.764   9.077   4.412  0.4959 -1.2609 -0.2011
27927SOL     OW86159   0.981   7.328   3.677  0.8149  0.2350 -0.0237
27927SOL    HW186160   0.965   7.399   3.739 -0.5815 -0.0010 -0.0703
27927SOL    HW286161   1.002   7.252   3.731 -2.1963 -0.4560  0.4007
27928SOL     OW86162   4.712   0.357   1.879 -0.0722  0.4451 -0.0341
27928SOL    HW186163   4.785   0.393   1.930 -0.0918 -1.5781  1.5421
27928SOL    HW286164   4.754   0.319   1.802  0.3375  0.8023  0.0097
27929SOL     OW86165   9.076   8.298   3.913 -0.1777 -0.7257 -0.3861
27929SOL    HW186166   9.152   8.241   3.914 -0.1253 -0.6481  0.0134
27929SOL    HW286167   9.106   8.377   3.867  0.2847 -0.2817  0.6564
27930SOL     OW86168   6.983   6.785   9.407 -0.0122 -0.1133 -0.4942
27930SOL    HW186169   7.032   6.748   9.334 -0.2444  2.5780 -2.1545
27930SOL    HW286170   7.035   6.860   9.435 -0.3913 -0.5510  1.5713
27931SOL     OW86171   1.079   1.762   9.426 -0.2397  0.2874 -0.5630
27931SOL    HW186172   1.058   1.846   9.385 -1.2278  0.3459  0.0376
27931SOL    HW286173   1.023   1.699   9.380  0.0373  0.0484 -0.5791
27932SOL     OW86174   4.467  10.100   9.774  0.5384 -0.5170 -0.3913
27932SOL    HW186175   4.532  10.050   9.725 -0.1194  0.0667 -1.9291
27932SOL    HW286176   4.466  10.186   9.732 -1.8726 -0.7969 -1.0736
27933SOL     OW86177  10.130   0.519   6.493  0.1196 -0.1425 -0.0657
27933SOL    HW186178  10.128   0.614   6.504  0.2707  0.3262 -3.1914
27933SOL    HW286179  10.051   0.499   6.443  0.3462 -1.6123  0.1313
27934SOL     OW86180   1.656   6.647   1.122 -0.0551  0.4160 -0.6059
27934SOL    HW186181   1.730   6.665   1.179 -0.4764  1.0847 -0.2548
27934SOL    HW286182   1.579   6.668   1.175 -0.5489 -1.3556 -0.5755
27935SOL     OW86183   9.253   1.450   7.964  0.5286  0.2766 -0.0731
27935SOL    HW186184   9.162   1.470   7.940  0.2250 -0.9134  0.0557
27935SOL    HW286185   9.271   1.508   8.038 -0.7092 -0.7044  1.0360
27936SOL     OW86186   8.353   4.698   6.758 -0.1546 -0.1301 -0.3820
27936SOL    HW186187   8.272   4.747   6.771  0.3064 -0.0227  3.1139
27936SOL    HW286188   8.422   4.756   6.792  1.0551 -1.2221 -0.8679
27937SOL     OW86189   2.390   6.984   8.297  0.1042  0.4788  0.2146
27937SOL    HW186190   2.431   6.922   8.358  0.5187  1.3586  0.8453
27937SOL    HW286191   2.456   7.001   8.231  0.0137  0.2977  0.0774
27938SOL     OW86192   6.774   4.647   4.346  0.1322 -0.1111  0.2949
27938SOL    HW186193   6.796   4.716   4.409 -2.3477 -0.2944  1.4632
27938SOL    HW286194   6.713   4.689   4.285  0.9635 -0.4822 -0.8249
27939SOL     OW86195   9.177   5.466   7.244 -0.3716  0.0153  0.0492
27939SOL    HW186196   9.237   5.475   7.170 -1.5147 -0.2653 -0.9315
27939SOL    HW286197   9.171   5.371   7.259 -2.1136 -0.1030 -1.1822
27940SOL     OW86198   2.979   4.064   6.531 -0.4606  0.0230 -0.0981
27940SOL    HW186199   2.998   4.151   6.495 -1.1386 -0.0584 -0.6741
27940SOL    HW286200   2.934   4.082   6.614 -0.8070  0.2226 -0.3287
27941SOL     OW86201   2.603   9.519   2.246  0.5720 -0.1433 -0.0849
27941SOL    HW186202   2.613   9.526   2.341  2.4653 -1.9369 -0.0636
27941SOL    HW286203   2.662   9.585   2.211 -0.1014  0.4957 -0.0308
27942SOL     OW86204   1.509   6.671   4.271  0.2826 -0.4252  0.2662
27942SOL    HW186205   1.481   6.723   4.347  1.7553  1.3786 -0.3495
27942SOL    HW286206   1.430   6.659   4.219  0.0270  2.1268 -0.0669
27943SOL     OW86207   7.346   1.597   9.292  0.2525 -0.1341 -0.8119
27943SOL    HW186208   7.281   1.589   9.362  0.8160  0.5597 -0.1921
27943SOL    HW286209   7.430   1.601   9.338  0.5386  1.8507 -1.4087
27944SOL     OW86210   4.703   1.319   9.164 -0.0268 -0.1256  0.6172
27944SOL    HW186211   4.744   1.403   9.145  0.3908 -0.1103  1.5176
27944SOL    HW286212   4.775   1.256   9.160 -0.4222 -0.5417 -0.5624
27945SOL     OW86213   1.140   3.921   4.082  0.1457 -0.0697  0.0474
27945SOL    HW186214   1.053   3.916   4.120  1.3001 -0.5626  2.8485
27945SOL    HW286215   1.170   4.010   4.103  1.0166 -0.5345  0.8397
27946SOL     OW86216   9.360   7.749   8.384 -0.3090 -0.2075 -0.0860
27946SOL    HW186217   9.311   7.786   8.458 -0.0820 -0.0091 -0.0320
27946SOL    HW286218   9.294   7.703   8.332 -0.3496 -1.0426  0.6664
27947SOL     OW86219   7.847   0.673   7.884 -0.5653  0.4216  0.2572
27947SOL    HW186220   7.920   0.690   7.824 -1.2741  1.5562 -0.3173
27947SOL    HW286221   7.810   0.759   7.902 -0.5474  0.0757  2.1263
27948SOL     OW86222   4.649   3.798   0.640  0.1147 -0.1126 -0.6112
27948SOL    HW186223   4.658   3.874   0.583  0.2161  0.2234 -0.1486
27948SOL    HW286224   4.713   3.813   0.710  0.3770 -0.7851 -0.6952
27949SOL     OW86225   5.944   6.952  10.426 -0.0108 -0.5086 -0.7901
27949SOL    HW186226   6.033   6.921  10.408 -0.0185 -0.8139 -0.3040
27949SOL    HW286227   5.956   7.035  10.471  0.0611 -1.2235  0.5531
27950SOL     OW86228  10.369   4.901   4.976  0.5444 -0.2302 -0.2623
27950SOL    HW186229  10.424   4.833   4.937 -0.1777 -1.4412  0.7238
27950SOL    HW286230  10.309   4.852   5.034 -1.2479  1.0606 -0.9386
27951SOL     OW86231   3.032   7.577   5.948  0.0211  0.5565  0.0892
27951SOL    HW186232   3.000   7.505   6.002 -2.3950  1.4081 -0.1103
27951SOL    HW286233   3.104   7.615   5.999 -0.2787 -0.4607  1.3144
27952SOL     OW86234  10.044   7.294   9.477  0.5091 -0.3078 -0.4789
27952SOL    HW186235  10.031   7.387   9.496 -0.5036 -0.4179 -0.5805
27952SOL    HW286236  10.139   7.282   9.479  0.6925  0.8830 -1.2275
27953SOL     OW86237   6.187   8.997  10.477 -0.1674  0.1397 -0.0199
27953SOL    HW186238   6.144   8.911  10.478  0.8522 -0.3986  1.3909
27953SOL    HW286239   6.186   9.025  10.569  0.4845  1.1351 -0.3017
27954SOL     OW86240   8.361   3.332   3.099 -0.2412  0.8679 -0.1660
27954SOL    HW186241   8.449   3.365   3.119  0.1789 -0.6351  0.6108
27954SOL    HW286242   8.310   3.354   3.177 -0.3918  1.1365 -0.3380
27955SOL     OW86243   1.945   3.002   4.890 -0.7724 -0.0541  0.3993
27955SOL    HW186244   1.918   3.008   4.981 -1.5509  0.4458  0.1490
27955SOL    HW286245   2.020   2.942   4.890  0.4035  1.3522  1.5985
27956SOL     OW86246   3.318   9.576   2.663 -0.4750  0.2079  0.3115
27956SOL    HW186247   3.269   9.497   2.642 -1.5921  1.2459 -1.2514
27956SOL    HW286248   3.410   9.551   2.654 -0.7689 -1.1756  0.9818
27957SOL     OW86249   6.208   4.546  10.351  0.3346  0.4774 -0.0156
27957SOL    HW186250   6.232   4.604  10.423 -0.5335 -0.0002  0.6886
27957SOL    HW286251   6.114   4.561  10.338 -0.2296 -1.6235  1.0543
27958SOL     OW86252   4.280   1.926   8.155 -0.3672  0.1224  0.2425
27958SOL    HW186253   4.279   1.904   8.062  1.1285 -2.3805  0.7333
27958SOL    HW286254   4.194   1.898   8.187  0.1188 -1.6198  0.0978
27959SOL     OW86255   1.907   4.242   3.611 -0.2769  0.2995  0.3168
27959SOL    HW186256   1.938   4.204   3.693 -0.9957  0.6908  0.7868
27959SOL    HW286257   1.900   4.336   3.630 -1.3253  0.2737  0.1030
27960SOL     OW86258   6.852   0.243   3.936 -0.4357 -0.0526 -0.7449
27960SOL    HW186259   6.934   0.196   3.953 -2.4124 -3.5374  0.0913
27960SOL    HW286260   6.822   0.271   4.022  0.8985  3.4746 -1.2508
27961SOL     OW86261   8.302   7.819   4.432 -0.2423 -0.4156  0.2356
27961SOL    HW186262   8.275   7.790   4.519 -2.1315 -0.1055 -0.2191
27961SOL    HW286263   8.379   7.874   4.449 -1.4979  0.9521  1.8864
27962SOL     OW86264  10.445   2.950   7.353 -0.2256 -0.1915  0.3511
27962SOL    HW186265  10.530   2.906   7.346 -0.0908  0.0681  0.3045
27962SOL    HW286266  10.461   3.021   7.416 -0.5606 -0.4946  0.7800
27963SOL     OW86267   3.990   2.397   9.917 -0.6533 -0.2447 -0.7290
27963SOL    HW186268   3.947   2.407  10.002 -0.2323 -2.1994 -0.2408
27963SOL    HW286269   4.063   2.458   9.920 -2.2254  1.7569 -0.8387
27964SOL     OW86270   4.701   1.260   8.230 -0.3786  0.1238 -0.3010
27964SOL    HW186271   4.788   1.224   8.248 -0.3602 -0.7999 -2.0156
27964SOL    HW286272   4.714   1.355   8.233  0.2414  0.0340  1.3102
27965SOL     OW86273   5.985   4.955   0.109  0.3809  0.4151 -0.0320
27965SOL    HW186274   6.019   5.019   0.047  0.6760  0.4610  0.1735
27965SOL    HW286275   5.898   4.987   0.132  0.4304  0.6122 -0.1174
27966SOL     OW86276   4.104   2.458   6.359  0.4594 -0.5648 -0.1324
27966SOL    HW186277   4.076   2.546   6.384  2.0064 -0.7924  2.9701
27966SOL    HW286278   4.118   2.462   6.265 -1.0291  2.0275 -0.3228
27967SOL     OW86279   9.553   5.959   4.331 -0.1004 -0.6567 -0.1127
27967SOL    HW186280   9.460   5.977   4.315  0.1598 -0.3604 -1.4755
27967SOL    HW286281   9.554   5.874   4.374 -1.1073  0.3352  2.0499
27968SOL     OW86282   5.506   9.045   0.779  0.0205  0.5945 -0.2814
27968SOL    HW186283   5.420   9.087   0.784  0.0563  0.6017  0.3304
27968SOL    HW286284   5.551   9.073   0.859  1.0334  1.5379 -1.1461
27969SOL     OW86285   8.076   0.759   0.340  0.1109  0.8704 -0.2135
27969SOL    HW186286   7.998   0.763   0.395  1.1384  2.0176  1.2351
27969SOL    HW286287   8.109   0.670   0.351 -1.1492  0.2716 -1.1054
27970SOL     OW86288   3.932   6.456   9.565 -0.2731  0.6313  0.2873
27970SOL    HW186289   4.017   6.438   9.525 -0.7160 -0.3655 -0.2545
27970SOL    HW286290   3.872   6.396   9.521 -0.7488 -0.7312  2.5821
27971SOL     OW86291   9.087   6.024   8.801 -0.2964 -0.0558  0.2185
27971SOL    HW186292   9.103   5.975   8.882  0.1678 -0.7533 -0.2838
27971SOL    HW286293   9.024   6.091   8.826  0.6664  0.4487  1.4172
27972SOL     OW86294   7.822   7.525   7.622 -0.3106  0.0224 -0.1994
27972SOL    HW186295   7.869   7.534   7.539  0.1358 -0.4280 -0.0037
27972SOL    HW286296   7.802   7.431   7.629 -0.5316  0.0884  0.1011
27973SOL     OW86297   2.327   8.001   6.935 -0.0783 -0.1365 -0.1396
27973SOL    HW186298   2.246   7.985   6.983 -0.1369 -0.3246 -0.3027
27973SOL    HW286299   2.363   7.914   6.917 -0.8319 -0.1396 -1.7757
27974SOL     OW86300   0.629  10.065  10.661 -0.7822  0.2325 -0.2630
27974SOL    HW186301   0.602  10.144  10.708  0.3504  0.0565  0.7432
27974SOL    HW286302   0.551  10.038  10.613 -1.5755  1.2230  0.4179
27975SOL     OW86303   1.519   8.965   5.276 -0.1905 -0.8900  0.1508
27975SOL    HW186304   1.443   8.926   5.320 -1.2432  2.1200  1.2717
27975SOL    HW286305   1.594   8.941   5.330 -0.8600 -0.8691  1.1015
27976SOL     OW86306   9.087   0.882   2.501 -0.2277 -0.4008 -0.1104
27976SOL    HW186307   9.140   0.929   2.565  0.8067 -0.1268 -1.1317
27976SOL    HW286308   9.143   0.812   2.469 -0.4992 -0.1794 -1.1327
27977SOL     OW86309   9.546   9.520   2.705 -0.0541 -0.6923 -0.1506
27977SOL    HW186310   9.633   9.480   2.713 -0.8204 -2.6619 -1.1014
27977SOL    HW286311   9.556   9.606   2.746  2.3700 -0.8007 -0.3544
27978SOL     OW86312   2.713   8.869   1.156 -0.3798  0.7864 -0.4698
27978SOL    HW186313   2.628   8.845   1.194 -1.3322  1.3580 -2.1101
27978SOL    HW286314   2.701   8.960   1.127  1.6066  1.7308  1.3927
27979SOL     OW86315   0.544   9.670   5.544 -0.1189 -0.1341  0.2748
27979SOL    HW186316   0.576   9.716   5.466 -0.7463 -0.4371 -0.1659
27979SOL    HW286317   0.622   9.660   5.598 -0.0522  1.9459  0.6537
27980SOL     OW86318  10.781   7.121   1.936 -0.1351 -0.3799 -0.5861
27980SOL    HW186319  10.874   7.115   1.960  0.0262 -0.2770 -1.1637
27980SOL    HW286320  10.736   7.138   2.018  0.4319  0.2843 -0.4040
27981SOL     OW86321   7.995   0.024   5.356 -0.5254  0.2743  0.0962
27981SOL    HW186322   7.913   0.072   5.347 -0.7759 -0.4940 -3.1152
27981SOL    HW286323   7.967  -0.066   5.373 -0.5853 -0.3586 -2.7870
27982SOL     OW86324   8.724   6.414   9.821 -0.6600  0.3752  0.6160
27982SOL    HW186325   8.683   6.393   9.904 -0.8150  0.1543  0.4858
27982SOL    HW286326   8.656   6.399   9.755 -0.1764 -0.7029  0.3319
27983SOL     OW86327   9.430   6.037   5.154  0.0446 -0.4717  0.0752
27983SOL    HW186328   9.489   6.103   5.191 -0.7229  0.7248 -0.7699
27983SOL    HW286329   9.489   5.969   5.119  0.8209 -0.7423  1.7816
27984SOL     OW86330   1.148   8.948   7.178  0.1240 -0.6349  0.1465
27984SOL    HW186331   1.071   8.938   7.234 -0.4402  1.8408 -0.0890
27984SOL    HW286332   1.177   8.858   7.162 -1.5756 -1.5601  1.7787
27985SOL     OW86333   5.350   7.575   5.867  0.4771  0.5720  0.6049
27985SOL    HW186334   5.405   7.605   5.940  0.0857  1.2093  0.6450
27985SOL    HW286335   5.264   7.559   5.907 -0.5912  3.7138 -0.1670
27986SOL     OW86336   7.389   7.302   5.280  0.5880  0.2883  0.6629
27986SOL    HW186337   7.301   7.281   5.312  0.7362 -0.1019  0.8261
27986SOL    HW286338   7.383   7.393   5.253 -0.3000 -0.1508 -0.7810
27987SOL     OW86339   5.734   9.121   2.189  0.4270 -0.3605 -0.1832
27987SOL    HW186340   5.708   9.204   2.228  1.6489  0.1104 -0.3383
27987SOL    HW286341   5.657   9.065   2.198  0.4160 -0.0664  2.3025
27988SOL     OW86342   5.733   0.208   8.359 -0.3644 -0.1156  0.3438
27988SOL    HW186343   5.749   0.244   8.446  0.5462  2.1423 -0.6771
27988SOL    HW286344   5.638   0.206   8.350 -0.4615 -0.3882  1.3948
27989SOL     OW86345   9.851   1.170  10.081 -0.1947 -0.1505 -0.6633
27989SOL    HW186346   9.832   1.180  10.174  0.5076 -0.8241 -0.4392
27989SOL    HW286347   9.766   1.183  10.038 -0.7323 -0.8668  0.1442
27990SOL     OW86348   4.311   2.341  10.012 -0.0341  0.2913 -0.4402
27990SOL    HW186349   4.377   2.358   9.945  0.4109  1.6646  0.3011
27990SOL    HW286350   4.295   2.427  10.052 -1.2035 -0.2772  0.3748
27991SOL     OW86351   4.946   9.760  10.725  0.7430 -0.3633  1.3224
27991SOL    HW186352   4.952   9.700  10.800 -3.4878 -2.1342  0.5749
27991SOL    HW286353   4.920   9.844  10.763  0.2251 -0.8086  1.9781
27992SOL     OW86354   3.058   1.313  10.147  0.4600 -0.0647  0.1045
27992SOL    HW186355   3.121   1.293  10.077 -0.2857 -2.2554 -0.0247
27992SOL    HW286356   3.032   1.227  10.181 -2.4700  0.7150  0.1343
27993SOL     OW86357   2.512   6.614   3.287 -0.0821 -0.0982  0.1426
27993SOL    HW186358   2.504   6.614   3.383  0.0867  0.0966  0.1561
27993SOL    HW286359   2.594   6.568   3.270 -1.0902 -1.9473  0.0073
27994SOL     OW86360   4.782   6.744   4.291 -0.5284  0.1464 -0.1322
27994SOL    HW186361   4.746   6.789   4.367  0.3445  0.2455  0.2262
27994SOL    HW286362   4.785   6.810   4.222 -0.9135  0.1661 -0.1336
27995SOL     OW86363   2.948   4.009  10.615  0.0763  0.3684  0.3158
27995SOL    HW186364   2.902   3.925  10.621  0.3095  0.2801  1.0255
27995SOL    HW286365   2.945   4.044  10.704  0.5362  0.8165  0.1588
27996SOL     OW86366   7.195   9.769   0.722 -0.3617 -0.3380 -0.0998
27996SOL    HW186367   7.183   9.751   0.815 -0.4475 -0.9709 -0.2264
27996SOL    HW286368   7.266   9.711   0.695 -1.0575 -0.9559 -0.6584
27997SOL     OW86369   9.273  10.297   5.765  0.2061 -0.3316  0.3456
27997SOL    HW186370   9.329  10.367   5.797 -1.4649  0.4955  1.6331
27997SOL    HW286371   9.295  10.288   5.672  1.5453  0.8089  0.5357
27998SOL     OW86372   4.717   0.561   2.812  0.6009  0.6484  0.2716
27998SOL    HW186373   4.669   0.606   2.743  1.0690 -0.2630 -0.6679
27998SOL    HW286374   4.673   0.588   2.893  0.3108  2.0625 -0.3264
27999SOL     OW86375  10.538   6.469   7.382 -0.4592  0.4834 -0.0382
27999SOL    HW186376  10.493   6.553   7.377  0.9821  1.2166 -1.4964
27999SOL    HW286377  10.513   6.423   7.302  0.2728  0.3419 -0.1965
28000SOL     OW86378   5.624   5.746   0.483  0.0587  0.1569  0.4257
28000SOL    HW186379   5.694   5.809   0.498 -0.0796  0.2008  0.8999
28000SOL    HW286380   5.668   5.671   0.442  0.2926  0.3883  0.2495
28001SOL     OW86381   7.285   3.698   3.753 -1.1680 -0.1491  0.1530
28001SOL    HW186382   7.265   3.605   3.747 -0.8688 -0.2790  1.0337
28001SOL    HW286383   7.231   3.739   3.685 -2.0273 -0.8492  0.4001
28002SOL     OW86384   2.976   5.002  10.447 -0.6232 -0.8592  0.2068
28002SOL    HW186385   2.975   4.993  10.542 -0.1122 -0.3785  0.2572
28002SOL    HW286386   2.977   4.912  10.415  1.8538 -1.0576  0.6914
28003SOL     OW86387   4.957   8.005   2.841  0.1023  0.0909 -0.0897
28003SOL    HW186388   4.988   7.961   2.762  0.5800 -0.0936  0.1969
28003SOL    HW286389   5.037   8.027   2.889 -0.1419  1.0182 -0.0961
28004SOL     OW86390   6.069   4.206   5.387  0.2393 -0.0029  0.2829
28004SOL    HW186391   6.052   4.130   5.442 -0.1422 -0.3080 -0.2425
28004SOL    HW286392   6.134   4.257   5.434  0.3197 -0.5377  0.7488
28005SOL     OW86393   0.854   9.073   0.103  0.0066  0.3200 -0.2564
28005SOL    HW186394   0.908   9.100   0.028 -0.5707 -0.9860 -1.1816
28005SOL    HW286395   0.771   9.119   0.090  0.0397  0.3942 -0.2056
28006SOL     OW86396   1.532   7.258   4.396 -0.1268 -0.2046  0.7558
28006SOL    HW186397   1.484   7.313   4.334 -0.4291 -0.2241  0.9696
28006SOL    HW286398   1.482   7.177   4.398 -2.1945  0.9809  3.6478
28007SOL     OW86399  10.031   0.981   6.848  0.3622 -0.7620 -0.1360
28007SOL    HW186400  10.122   0.976   6.818  0.5292  1.0286 -0.0321
28007SOL    HW286401   9.989   1.042   6.787 -1.0591 -2.3126 -0.7813
28008SOL     OW86402   7.388   5.076   5.647 -0.5816  0.2116  0.1005
28008SOL    HW186403   7.301   5.081   5.687 -0.9864 -0.7891 -0.6301
28008SOL    HW286404   7.444   5.042   5.716 -0.5382  1.7789  0.8907
28009SOL     OW86405  10.148   7.473  10.532 -0.0575 -0.2307 -0.6324
28009SOL    HW186406  10.191   7.557  10.511 -1.2499  0.1451 -1.7093
28009SOL    HW286407  10.195   7.409  10.479  1.1060 -0.3373  0.4767
28010SOL     OW86408   0.816   9.817   9.710  0.3690  0.1111  0.0325
28010SOL    HW186409   0.900   9.819   9.755  0.4990  0.4231 -0.2199
28010SOL    HW286410   0.795   9.723   9.702 -0.1755  0.0550  1.6779
28011SOL     OW86411   3.879   6.819  10.142  0.1226 -0.2128 -0.6329
28011SOL    HW186412   3.851   6.901  10.184  3.3779  0.1529  1.1548
28011SOL    HW286413   3.937   6.846  10.072  1.6384 -0.9301  0.2956
28012SOL     OW86414   3.547   2.481   6.828 -0.1948  0.2773  0.2698
28012SOL    HW186415   3.461   2.449   6.801  0.6430  0.3028 -2.8324
28012SOL    HW286416   3.563   2.558   6.773  1.8442  0.2252  0.6875
28013SOL     OW86417  10.150   9.249   4.087 -0.3254 -0.5661  0.1216
28013SOL    HW186418  10.133   9.315   4.020  0.4300  0.0427  0.5083
28013SOL    HW286419  10.245   9.251   4.098 -0.3122 -1.5781  0.2916
28014SOL     OW86420   2.249   3.686   9.616  0.6069 -0.3609  0.0360
28014SOL    HW186421   2.309   3.750   9.579  0.8318 -0.9474 -0.6251
28014SOL    HW286422   2.171   3.737   9.638  1.2647  0.3777  0.7568
28015SOL     OW86423   2.483   3.690   5.405  0.0156  0.6428  0.1209
28015SOL    HW186424   2.441   3.673   5.489 -2.2415  1.7202 -0.7099
28015SOL    HW286425   2.487   3.604   5.363 -1.7523  0.5317  0.0990
28016SOL     OW86426   0.211   6.720  10.429 -0.3910 -0.4547 -0.4723
28016SOL    HW186427   0.254   6.776  10.493 -1.1387 -0.1247 -0.2416
28016SOL    HW286428   0.216   6.632  10.466 -2.3882 -0.0374  0.9639
28017SOL     OW86429  10.303   7.314   3.253  0.5362  0.2696  0.1188
28017SOL    HW186430  10.307   7.292   3.160  1.3939  2.3204 -0.3706
28017SOL    HW286431  10.384   7.278   3.290  1.0126  0.9180 -0.2815
28018SOL     OW86432   4.713   4.058   4.219 -0.4972 -0.0514  0.3339
28018SOL    HW186433   4.622   4.068   4.249 -0.4235  1.5363  0.0810
28018SOL    HW286434   4.706   4.019   4.132 -0.8306 -1.7519  1.0718
28019SOL     OW86435   0.697   6.719   6.701  0.1477  0.1221  0.1689
28019SOL    HW186436   0.604   6.725   6.721  0.2272 -0.3542  0.7110
28019SOL    HW286437   0.741   6.739   6.784  0.5005 -0.8006  0.2242
28020SOL     OW86438   1.346   0.151   6.081 -0.5751 -0.3376  0.2193
28020SOL    HW186439   1.403   0.104   6.143 -1.3032 -1.8852 -0.2434
28020SOL    HW286440   1.315   0.227   6.130 -1.5720 -1.8143  1.9673
28021SOL     OW86441   4.637   5.653   5.457  0.4931 -0.1887  0.1834
28021SOL    HW186442   4.592   5.570   5.475  2.4329 -1.3951 -0.2702
28021SOL    HW286443   4.680   5.639   5.372  1.7827  0.8684  0.6300
28022SOL     OW86444   9.916   7.745   5.970 -0.5134 -0.2531 -0.1801
28022SOL    HW186445   9.856   7.699   6.030  0.6070 -0.1826  1.0516
28022SOL    HW286446  10.001   7.705   5.986  0.0016  0.4641 -1.0170
28023SOL     OW86447   7.653   0.701   0.051  0.1597 -0.3874 -0.0929
28023SOL    HW186448   7.747   0.686   0.065  0.3796 -0.1870 -1.2240
28023SOL    HW286449   7.627   0.632  -0.010 -0.2020  0.1503 -0.5551
28024SOL     OW86450   8.101   6.115  10.670  0.2076  0.0257  0.1136
28024SOL    HW186451   8.128   6.122  10.579 -0.8877  0.1654 -0.2190
28024SOL    HW286452   8.177   6.143  10.721  0.6303  0.5104 -0.7740
28025SOL     OW86453   6.654   2.911   7.253 -0.3464  0.0432 -0.0089
28025SOL    HW186454   6.734   2.894   7.202  0.4421  0.6730  0.9657
28025SOL    HW286455   6.583   2.880   7.198  0.5299  0.0596 -1.1825
28026SOL     OW86456  10.380   4.862   0.246  0.5725  0.7704 -0.0372
28026SOL    HW186457  10.329   4.838   0.169  0.8481  0.4661 -0.1229
28026SOL    HW286458  10.399   4.955   0.234  0.0415  0.8862 -0.0068
28027SOL     OW86459   5.141   0.619   9.866  0.6484  0.4703 -0.1135
28027SOL    HW186460   5.095   0.703   9.859  0.3110  0.2384 -0.7888
28027SOL    HW286461   5.224   0.640   9.910  0.3633  1.0740  0.1417
28028SOL     OW86462   9.273   5.118   8.730  0.2645 -0.1700 -0.2318
28028SOL    HW186463   9.226   5.200   8.718 -0.9556 -0.5738  1.4066
28028SOL    HW286464   9.357   5.144   8.768 -0.1422  0.3286  0.3509
28029SOL     OW86465  10.215   8.847   7.891  0.1186 -0.1487 -0.0188
28029SOL    HW186466  10.299   8.815   7.861  0.2472 -1.5291  1.6464
28029SOL    HW286467  10.233   8.887   7.976 -1.2111 -3.0375  1.7931
28030SOL     OW86468   5.003   8.453   6.701 -0.2628 -0.2121 -0.1144
28030SOL    HW186469   4.954   8.394   6.643 -1.4135  1.4012 -0.8754
28030SOL    HW286470   4.974   8.429   6.789  1.3702 -2.5730 -0.1241
28031SOL     OW86471  10.475   1.416   8.883  0.2931  0.1464 -0.1072
28031SOL    HW186472  10.426   1.487   8.842  0.1210  0.7794  1.1346
28031SOL    HW286473  10.564   1.451   8.894  0.3816 -0.0754 -0.1010
28032SOL     OW86474   0.904   7.985   1.180  0.1574  0.4365 -0.2924
28032SOL    HW186475   0.937   7.994   1.269 -0.1830  0.1739 -0.1380
28032SOL    HW286476   0.848   7.908   1.182 -0.3161  0.7627 -0.5954
28033SOL     OW86477   6.998   5.720   2.525 -0.0356 -0.0564 -0.6990
28033SOL    HW186478   7.002   5.803   2.571 -1.0732 -0.3179 -0.0930
28033SOL    HW286479   7.022   5.654   2.590 -0.7839 -0.3613 -0.7110
28034SOL     OW86480  10.023   5.524   8.052  0.1226 -0.0464  0.0175
28034SOL    HW186481  10.005   5.448   7.997  1.8669 -0.7773  0.3641
28034SOL    HW286482   9.979   5.597   8.009 -0.4704 -1.0148 -1.0623
28035SOL     OW86483   6.745   7.411   5.367 -0.2654 -0.2613 -0.2366
28035SOL    HW186484   6.777   7.447   5.450 -0.9166  0.0320 -0.1080
28035SOL    HW286485   6.799   7.333   5.353 -0.5237 -0.6335  0.7466
28036SOL     OW86486   1.037   9.918   4.066 -0.6057  0.3757 -0.0247
28036SOL    HW186487   0.984   9.840   4.051 -1.0906  0.8623 -0.8764
28036SOL    HW286488   1.122   9.884   4.096 -0.8830 -0.4592 -0.1681
28037SOL     OW86489   1.446   7.226   1.891  0.0724  0.3084  0.7608
28037SOL    HW186490   1.529   7.266   1.919 -0.7327  1.7469  1.1487
28037SOL    HW286491   1.412   7.284   1.824  0.4215 -1.4598 -1.0511
28038SOL     OW86492   1.047   4.853   8.217 -0.1151  0.4000 -0.4889
28038SOL    HW186493   1.105   4.778   8.229  0.3041  0.6519 -0.8894
28038SOL    HW286494   0.976   4.840   8.280 -0.5050 -0.7769 -1.1474
28039SOL     OW86495   2.577   0.694   7.292 -0.2817 -0.5320  0.3404
28039SOL    HW186496   2.538   0.611   7.264  1.8820 -0.4804 -3.5228
28039SOL    HW286497   2.643   0.670   7.357 -2.7688 -1.1698  2.8199
28040SOL     OW86498   3.742   7.063   0.805 -0.4139  0.0507  0.0993
28040SOL    HW186499   3.668   7.008   0.779 -0.6781 -0.5780  2.0686
28040SOL    HW286500   3.702   7.138   0.848  0.0721 -0.4998  1.5570
28041SOL     OW86501   4.892   2.322   4.549 -0.0901 -0.4418 -0.6039
28041SOL    HW186502   4.843   2.384   4.494  2.6914  3.8318  1.1670
28041SOL    HW286503   4.970   2.302   4.497  0.3126 -0.1684 -0.1173
28042SOL     OW86504   4.004   1.584   1.962 -0.2303  0.7723  0.4423
28042SOL    HW186505   3.989   1.642   2.037 -0.5543  0.4013  0.6681
28042SOL    HW286506   4.046   1.640   1.897  2.8761  0.4100  1.9452
28043SOL     OW86507   6.643   6.500   1.267  0.4285 -0.5553  0.3377
28043SOL    HW186508   6.593   6.419   1.275  0.5579 -0.5936  0.7615
28043SOL    HW286509   6.628   6.547   1.348  0.7021 -0.3515  0.2756
28044SOL     OW86510   0.379   8.176   5.049 -0.0209 -0.2575 -0.7633
28044SOL    HW186511   0.300   8.143   5.006  0.3673  0.1095 -1.7944
28044SOL    HW286512   0.421   8.097   5.084 -1.1081 -0.4006  0.2960
28045SOL     OW86513   2.931   6.763   6.900 -0.8443 -0.0331 -0.3555
28045SOL    HW186514   3.008   6.814   6.925  0.2590 -0.4045 -2.7291
28045SOL    HW286515   2.901   6.724   6.982  0.7473  1.0964  0.8363
28046SOL     OW86516   7.076   1.764  10.032 -0.1046 -0.4522 -0.3991
28046SOL    HW186517   7.055   1.845   9.986 -0.2243 -0.3004 -0.0737
28046SOL    HW286518   6.992   1.732  10.065  0.2951  0.9321  2.2053
28047SOL     OW86519   1.573   4.613   1.080  0.1125  0.3978  0.0553
28047SOL    HW186520   1.482   4.610   1.110  0.3905 -0.0791  0.9005
28047SOL    HW286521   1.624   4.622   1.160  0.8216  0.3906 -0.3883
28048SOL     OW86522   7.618   4.966   1.039  0.1088 -0.2373  0.5114
28048SOL    HW186523   7.667   4.994   1.116 -0.2609  0.8179  0.3846
28048SOL    HW286524   7.552   5.034   1.027 -0.2544 -0.7282 -0.3518
28049SOL     OW86525   9.175   2.007   4.207  0.1469 -0.0902  0.3767
28049SOL    HW186526   9.257   2.053   4.187 -0.8622  1.9391  0.6329
28049SOL    HW286527   9.138   1.985   4.122  1.4206 -2.0119  0.2549
28050SOL     OW86528   3.722   9.260   2.546 -0.2845  0.1331 -0.8498
28050SOL    HW186529   3.748   9.344   2.508 -0.3483 -0.2604 -1.7815
28050SOL    HW286530   3.627   9.265   2.551 -0.2133  0.6127  0.2971
28051SOL     OW86531   0.741   2.300   0.137  0.1574  0.0158 -0.1871
28051SOL    HW186532   0.731   2.257   0.223  1.1141  1.1184  0.5065
28051SOL    HW286533   0.678   2.372   0.139 -0.0719 -0.1681 -0.5751
28052SOL     OW86534   6.659   0.950   7.006 -0.1192  0.0349  0.2189
28052SOL    HW186535   6.629   0.870   6.963  2.2920 -1.2431  0.7074
28052SOL    HW286536   6.579   0.998   7.026 -1.5524 -1.3679 -1.7439
28053SOL     OW86537   0.882   8.850   2.156  0.2720  0.1650 -0.1408
28053SOL    HW186538   0.852   8.821   2.070  0.0572 -1.6832  0.4993
28053SOL    HW286539   0.948   8.917   2.138 -1.8590  1.9805 -1.6391
28054SOL     OW86540   8.329   5.140   2.258  0.0216  0.1326 -0.0979
28054SOL    HW186541   8.334   5.183   2.172  0.3693 -1.8813 -1.1494
28054SOL    HW286542   8.308   5.211   2.319 -1.7472  1.4094 -2.0350
28055SOL     OW86543   4.999   2.763   6.311 -0.0568 -0.0712 -0.9182
28055SOL    HW186544   4.953   2.819   6.373  1.2127  1.4548 -1.2759
28055SOL    HW286545   5.031   2.823   6.243  2.4228 -1.0013 -0.6850
28056SOL     OW86546   6.759   5.728   2.639  0.4135  0.3938 -0.1563
28056SOL    HW186547   6.765   5.672   2.717 -0.3418  2.6802  1.6354
28056SOL    HW286548   6.850   5.737   2.609  0.9388  0.8319  1.4851
28057SOL     OW86549   3.046   8.001   5.089 -0.5763 -0.6448  0.3225
28057SOL    HW186550   2.998   8.055   5.026  0.8787  0.4976  0.1555
28057SOL    HW286551   3.122   8.053   5.112 -1.1686 -0.9184  3.2366
28058SOL     OW86552   9.164   5.177   6.423 -0.1066  0.2419 -0.0176
28058SOL    HW186553   9.142   5.220   6.505 -2.4918  2.6853 -1.7386
28058SOL    HW286554   9.259   5.164   6.426  0.3686  3.3599  1.7585
28059SOL     OW86555  10.443  10.377   8.952 -0.0398  0.3315 -0.8822
28059SOL    HW186556  10.419  10.346   9.039  0.3814  0.2081 -0.8103
28059SOL    HW286557  10.387  10.454   8.938 -1.5669 -0.8027 -1.3235
28060SOL     OW86558   7.059   5.168   3.352 -0.2682 -0.0181  0.2236
28060SOL    HW186559   7.114   5.115   3.411  1.0475  0.8855 -0.1452
28060SOL    HW286560   7.050   5.252   3.397  0.5666  0.6092 -0.7393
28061SOL     OW86561   2.962   5.310   7.325  0.4582 -0.0829  0.0264
28061SOL    HW186562   3.030   5.378   7.320  0.4268 -0.0716 -0.2453
28061SOL    HW286563   3.003   5.232   7.287 -0.4763  0.5578 -2.5074
28062SOL     OW86564  10.168   2.418  10.179 -0.5679 -0.0419 -0.3438
28062SOL    HW186565  10.252   2.379  10.206 -0.9738  0.4559  1.8288
28062SOL    HW286566  10.193   2.496  10.129  0.2547 -0.2668 -0.2993
28063SOL     OW86567   4.411  10.009   3.251 -0.3886 -0.3897  0.3734
28063SOL    HW186568   4.396  10.103   3.258 -0.8183 -0.4928  0.8301
28063SOL    HW286569   4.325   9.969   3.261 -0.1650 -0.8524  0.5005
28064SOL     OW86570   8.373   3.840   1.387  0.0130 -0.3579  0.1748
28064SOL    HW186571   8.280   3.840   1.410  0.0131 -0.9052  0.1792
28064SOL    HW286572   8.409   3.764   1.433  0.5924  0.2203  0.6949
28065SOL     OW86573   9.749   1.940   9.799 -0.6503  0.0995  0.4989
28065SOL    HW186574   9.732   2.006   9.732 -1.1826  0.5825  1.0984
28065SOL    HW286575   9.677   1.878   9.790  0.3986 -1.0188 -0.7646
28066SOL     OW86576   7.916   0.251   6.754  0.5401  0.4397 -0.4435
28066SOL    HW186577   7.823   0.265   6.740  0.7497  0.8480 -1.4987
28066SOL    HW286578   7.927   0.257   6.849 -0.2354  2.0560 -0.4358
28067SOL     OW86579   5.446   2.172   8.139 -0.1360  0.1806 -0.3325
28067SOL    HW186580   5.504   2.135   8.072 -0.6512 -2.3703  0.4969
28067SOL    HW286581   5.360   2.171   8.099 -0.3129 -0.5603  0.0459
28068SOL     OW86582   5.761   8.427   5.245 -0.2138 -0.6410 -0.4082
28068SOL    HW186583   5.771   8.466   5.159  0.8023 -0.6057 -0.2930
28068SOL    HW286584   5.765   8.332   5.229  0.1831 -0.6309 -0.3875
28069SOL     OW86585   2.188   9.727  10.700  0.1236  0.4275 -0.1510
28069SOL    HW186586   2.205   9.788  10.629  1.7924 -0.5108 -0.6319
28069SOL    HW286587   2.103   9.689  10.680  0.2462  0.7134 -1.2493
28070SOL     OW86588   8.349   4.792   9.970 -0.4502 -0.3633  0.8600
28070SOL    HW186589   8.420   4.782  10.033 -0.0529 -1.0482  0.3216
28070SOL    HW286590   8.308   4.705   9.966 -1.3243  0.0249  1.1681
28071SOL     OW86591   7.268   3.394   8.843  0.4265  0.0039  0.7294
28071SOL    HW186592   7.296   3.317   8.795  1.4972  0.9198 -0.1658
28071SOL    HW286593   7.177   3.376   8.867 -0.2087 -0.4323 -1.7696
28072SOL     OW86594   0.958   3.420   1.927  0.5468 -0.0050  0.6206
28072SOL    HW186595   0.990   3.341   1.971  1.2593  1.0062  2.0223
28072SOL    HW286596   0.963   3.399   1.834  0.0985 -1.8227  0.9653
28073SOL     OW86597   0.454   9.056   1.697 -0.0343  0.2574  0.0408
28073SOL    HW186598   0.395   8.993   1.740 -0.6436  0.9421  0.2197
28073SOL    HW286599   0.482   9.114   1.767  1.7180 -0.6834  0.1750
28074SOL     OW86600   9.663   6.651   4.986 -0.7361  0.1639  0.1117
28074SOL    HW186601   9.664   6.676   4.894  0.9258  1.0785  0.3304
28074SOL    HW286602   9.703   6.726   5.032 -0.7111 -0.6370  1.4608
28075SOL     OW86603   5.550   6.347   8.956 -0.7559 -0.0566  0.1861
28075SOL    HW186604   5.620   6.413   8.957 -0.2027 -0.5997 -0.8731
28075SOL    HW286605   5.471   6.396   8.932 -0.6286  0.4553  0.7726
28076SOL     OW86606   3.145   7.962   0.634  0.1899 -0.2578 -0.5037
28076SOL    HW186607   3.168   8.054   0.621  1.9421 -0.3157  1.4765
28076SOL    HW286608   3.136   7.953   0.729 -0.5401 -2.0193 -0.6938
28077SOL     OW86609   2.845   2.195   1.004  0.3603 -0.0538 -0.2620
28077SOL    HW186610   2.804   2.188   1.090 -2.1902  0.1560 -1.3759
28077SOL    HW286611   2.851   2.105   0.972  0.7279 -0.0753 -0.1423
28078SOL     OW86612   5.821  10.369   5.722 -0.2956  0.4518  0.4474
28078SOL    HW186613   5.818  10.465   5.731  2.0878  0.7725 -1.0878
28078SOL    HW286614   5.745  10.347   5.670  0.7891  2.0053 -1.9755
28079SOL     OW86615   1.995   7.043   8.094  0.1408 -0.2289  0.0480
28079SOL    HW186616   2.052   7.118   8.077  0.3560 -0.1468  1.0588
28079SOL    HW286617   2.032   7.003   8.173 -1.2744 -0.0924  0.8170
28080SOL     OW86618   5.748   2.155   2.737  0.1342 -0.0610 -0.7006
28080SOL    HW186619   5.690   2.124   2.667  2.1074 -1.7806 -1.7117
28080SOL    HW286620   5.720   2.107   2.815 -1.7090  1.4368 -0.3602
28081SOL     OW86621   7.503   8.045   7.395 -0.0807  0.5128  0.3808
28081SOL    HW186622   7.486   8.121   7.451  2.9261  1.7187 -0.1400
28081SOL    HW286623   7.465   7.972   7.443 -1.1264  2.0345  2.0095
28082SOL     OW86624  10.520   9.386   2.760 -0.2537  0.1696 -0.5350
28082SOL    HW186625  10.518   9.399   2.855 -1.7586 -1.5045 -0.2883
28082SOL    HW286626  10.438   9.423   2.728 -0.7242 -1.0955 -0.8728
28083SOL     OW86627   5.006  10.743   2.200  0.1778 -0.1122 -0.3633
28083SOL    HW186628   4.958  10.814   2.158 -2.7253 -0.7721  1.5572
28083SOL    HW286629   4.979  10.664   2.153 -1.1484 -0.5504  1.0462
28084SOL     OW86630   8.798   2.687   9.106 -0.1358  0.2429  0.1435
28084SOL    HW186631   8.717   2.636   9.111  0.1265 -0.1762  0.1224
28084SOL    HW286632   8.780   2.764   9.161 -1.1696  1.0300 -1.2259
28085SOL     OW86633   7.109   2.226   5.771  0.0596  0.0529  0.7466
28085SOL    HW186634   7.201   2.207   5.754 -0.1173 -2.3212  2.0646
28085SOL    HW286635   7.098   2.213   5.865 -1.8005 -0.6635  0.4751
28086SOL     OW86636   4.751   6.847   9.974 -0.0924  0.1384  0.1429
28086SOL    HW186637   4.839   6.879   9.954  0.2706  0.4726  2.0860
28086SOL    HW286638   4.720   6.904  10.044 -1.0451 -1.2494  0.8949
28087SOL     OW86639   0.954   6.640   3.284  0.8336  0.0099  0.3578
28087SOL    HW186640   0.995   6.553   3.280 -1.7734 -1.2844 -1.6862
28087SOL    HW286641   0.957   6.672   3.194 -3.3048 -0.6659 -0.2058
28088SOL     OW86642   2.624   1.918   2.354 -0.1930  0.7089 -0.5191
28088SOL    HW186643   2.646   1.932   2.447 -1.2853  1.4107 -0.3554
28088SOL    HW286644   2.625   1.823   2.344  1.6628  0.6556 -0.2362
28089SOL     OW86645   9.273   4.575   4.364  0.0141  0.7237 -0.1475
28089SOL    HW186646   9.324   4.508   4.410 -0.5911  0.4451  0.1375
28089SOL    HW286647   9.225   4.527   4.297  0.1570  0.9876 -0.4409
28090SOL     OW86648   3.321   0.988   7.417 -0.0423 -0.3217 -0.1345
28090SOL    HW186649   3.404   1.036   7.405  0.1214 -0.6677 -0.3939
28090SOL    HW286650   3.286   0.978   7.329  0.4927 -1.6703 -0.2259
28091SOL     OW86651   1.511   0.060   6.287 -0.3856 -0.0142 -0.3317
28091SOL    HW186652   1.494   0.118   6.362  0.9518 -0.0882  0.0537
28091SOL    HW286653   1.606   0.054   6.283 -0.4761 -2.0971 -0.4264
28092SOL     OW86654   0.450   3.202  10.050  0.7567  0.1889 -0.4691
28092SOL    HW186655   0.398   3.123  10.065  0.2840  0.1136 -2.2167
28092SOL    HW286656   0.472   3.198   9.957 -0.6613  2.8939 -1.0353
28093SOL     OW86657   3.055   5.026   8.778 -0.3343  0.3217  0.2440
28093SOL    HW186658   3.073   4.932   8.781  0.4070  0.4602  0.3699
28093SOL    HW286659   2.966   5.032   8.745  0.1327 -0.3684 -1.2394
28094SOL     OW86660  10.250   4.078  10.719  0.0601  0.5610 -0.1454
28094SOL    HW186661  10.336   4.063  10.681  0.8776  2.0221  0.9999
28094SOL    HW286662  10.268   4.127  10.799 -1.7503 -0.3549  0.8790
28095SOL     OW86663   9.456  10.509   3.179  0.2763  0.2208  0.2595
28095SOL    HW186664   9.501  10.583   3.137 -0.6219  1.5656  1.5333
28095SOL    HW286665   9.384  10.488   3.121  1.3649 -0.6289 -0.8186
28096SOL     OW86666   2.308   1.596   4.549 -0.1620  0.1231 -0.1249
28096SOL    HW186667   2.246   1.570   4.617 -1.0971  3.1773  0.3607
28096SOL    HW286668   2.334   1.514   4.507 -0.1848 -1.8246  3.3130
28097SOL     OW86669   8.419   7.191   9.751 -0.3880 -1.0233 -0.1598
28097SOL    HW186670   8.484   7.141   9.801 -0.5233 -0.8679  0.1757
28097SOL    HW286671   8.453   7.280   9.752 -0.3676 -1.0277 -0.3897
28098SOL     OW86672   4.465   9.370   6.672 -0.2042 -0.7549  0.1847
28098SOL    HW186673   4.420   9.454   6.683  1.9989  0.4264  0.6870
28098SOL    HW286674   4.422   9.330   6.596 -1.6819  0.5552  0.2894
28099SOL     OW86675   0.265   9.201   1.532  0.8214 -0.0099  0.5145
28099SOL    HW186676   0.342   9.189   1.588  1.0735  0.5977  0.2981
28099SOL    HW286677   0.204   9.250   1.586  1.4331  1.4244 -0.0486
28100SOL     OW86678   2.524   3.778   9.532 -0.3010 -0.0896  0.9893
28100SOL    HW186679   2.510   3.752   9.441 -2.0692 -1.8004  1.6920
28100SOL    HW286680   2.619   3.787   9.540 -0.0499 -0.8279 -0.7884
28101SOL     OW86681   7.935   3.752   8.967 -0.2123 -0.0657 -0.7784
28101SOL    HW186682   7.993   3.676   8.972 -0.0275  0.1164 -0.0850
28101SOL    HW286683   7.885   3.739   8.887 -0.5635 -1.1837 -0.3893
28102SOL     OW86684   1.482   9.257   2.466 -0.0493 -0.1003  0.2724
28102SOL    HW186685   1.461   9.255   2.560  1.8131  0.1306  0.7381
28102SOL    HW286686   1.515   9.346   2.451 -3.0337  0.8429 -1.3009
28103SOL     OW86687   2.913   1.400   9.480  0.1544 -0.7865 -0.1300
28103SOL    HW186688   2.958   1.333   9.428 -0.4638  0.0712 -1.8618
28103SOL    HW286689   2.919   1.479   9.426 -0.9422  0.0396  0.9121
28104SOL     OW86690   8.954   8.711   7.983  0.6705  0.2049  0.3985
28104SOL    HW186691   8.933   8.660   7.905 -0.1390 -1.3412  1.5650
28104SOL    HW286692   8.970   8.799   7.951 -3.1308  0.4750 -1.1629
28105SOL     OW86693   2.868   9.645   3.307 -0.1718  0.2202 -0.2065
28105SOL    HW186694   2.855   9.718   3.369 -1.9678  2.6515 -3.1280
28105SOL    HW286695   2.847   9.683   3.221 -2.1267 -3.9814 -1.8732
28106SOL     OW86696   1.611   6.801   2.320  0.4157  0.3479 -0.1734
28106SOL    HW186697   1.572   6.785   2.234 -0.1175  0.7003 -0.0037
28106SOL    HW286698   1.541   6.842   2.370  0.5833 -0.2619  0.5712
28107SOL     OW86699   3.414   7.926   6.170 -0.0451  0.0117  0.1343
28107SOL    HW186700   3.502   7.964   6.176 -0.4104  1.1206 -1.0815
28107SOL    HW286701   3.365   7.969   6.239 -0.1388  0.9087 -0.4699
28108SOL     OW86702   6.642   3.863   0.104  0.0810  1.0216 -0.2097
28108SOL    HW186703   6.629   3.946   0.149 -1.4584  1.1378 -0.7852
28108SOL    HW286704   6.687   3.886   0.022  0.3830  1.1762 -0.0010
28109SOL     OW86705   6.086   8.816   2.111 -0.3720  0.6433 -0.0323
28109SOL    HW186706   6.168   8.854   2.143 -0.3514  1.1953 -0.7216
28109SOL    HW286707   6.018   8.868   2.154 -0.3904  3.6096 -3.2218
28110SOL     OW86708   2.284   6.622   4.316 -0.3610  0.3542 -0.2204
28110SOL    HW186709   2.341   6.551   4.287 -0.7137  0.0886 -0.2806
28110SOL    HW286710   2.342   6.683   4.361 -0.3366 -1.0338  1.8076
28111SOL     OW86711   5.966   0.224  10.440  0.3513 -0.0255 -0.6111
28111SOL    HW186712   5.938   0.180  10.360  1.9985  0.4145 -1.4643
28111SOL    HW286713   6.011   0.303  10.410  0.5052  0.4359  0.7687
28112SOL     OW86714   0.569   6.864   3.770 -0.3152  0.3602  1.4219
28112SOL    HW186715   0.569   6.806   3.694  3.3174  0.2040  1.3466
28112SOL    HW286716   0.520   6.817   3.837 -2.8479  0.1234 -0.4903
28113SOL     OW86717   7.486   0.732   0.430  0.1206  0.1847  0.2307
28113SOL    HW186718   7.486   0.637   0.437 -1.2172  0.2196  0.9883
28113SOL    HW286719   7.423   0.751   0.361  1.9093  0.4787 -1.4137
28114SOL     OW86720   4.212   8.572   3.914  0.3095 -0.1596 -0.1670
28114SOL    HW186721   4.302   8.548   3.891  0.3668 -0.3309  0.2399
28114SOL    HW286722   4.220   8.621   3.996 -0.0193 -0.6313  0.1486
28115SOL     OW86723   7.965   0.177   7.782 -0.0270 -0.0824  0.2163
28115SOL    HW186724   8.020   0.254   7.770 -0.8425  0.6574  1.0758
28115SOL    HW286725   7.886   0.210   7.825  0.0662 -1.5430  1.6031
28116SOL     OW86726   0.122   2.772  10.100 -0.4272  0.1198  0.1952
28116SOL    HW186727   0.082   2.850  10.061 -0.8761  0.9076  2.1146
28116SOL    HW286728   0.048   2.725  10.140 -0.0463 -0.8913 -0.2591
28117SOL     OW86729  10.220   9.409   0.658  0.4054 -0.1032 -0.0176
28117SOL    HW186730  10.170   9.489   0.674 -0.1132 -0.8115  2.2916
28117SOL    HW286731  10.311   9.438   0.648  0.2935  0.7502  1.2792
28118SOL     OW86732   2.577   5.854   2.600  0.3708 -0.3816  0.3159
28118SOL    HW186733   2.615   5.917   2.538 -2.2846  2.0778  0.9741
28118SOL    HW286734   2.647   5.790   2.613  2.2925  0.8729 -2.5148
28119SOL     OW86735   9.239   5.976   3.483 -0.2583  0.3488 -0.3144
28119SOL    HW186736   9.276   6.059   3.513 -0.5780 -0.1476  1.5789
28119SOL    HW286737   9.170   5.956   3.546 -0.2362 -1.3389 -0.7699
28120SOL     OW86738   8.548  10.674  10.526 -0.3424  0.2685  0.1750
28120SOL    HW186739   8.560  10.715  10.612 -0.2283 -0.4583  0.5147
28120SOL    HW286740   8.601  10.595  10.530  0.2338  0.5939 -0.8367
28121SOL     OW86741   0.974   1.494   7.918 -0.5244 -0.1089  0.5142
28121SOL    HW186742   0.888   1.489   7.875 -0.3600 -0.4622  0.2190
28121SOL    HW286743   1.030   1.537   7.854 -0.4207 -0.1096  0.6047
28122SOL     OW86744   9.415   1.984   9.184  0.8969 -0.1852  0.6805
28122SOL    HW186745   9.441   2.039   9.258 -1.9274  1.7500  0.4257
28122SOL    HW286746   9.459   2.022   9.109  1.8451 -0.6165  1.0096
28123SOL     OW86747   9.019   5.672   8.793  0.3180  0.3415  0.5051
28123SOL    HW186748   8.966   5.741   8.833  1.0891  0.9631  0.4773
28123SOL    HW286749   8.974   5.590   8.816 -0.9174  0.8845  0.0591
28124SOL     OW86750   6.418   3.312   8.637 -0.1546  0.3053  0.2373
28124SOL    HW186751   6.335   3.354   8.613 -0.6020 -0.0407  1.1241
28124SOL    HW286752   6.392   3.227   8.672  0.6383 -0.1097 -0.1469
28125SOL     OW86753   7.875   6.333   2.732 -0.4130  0.1030  0.3706
28125SOL    HW186754   7.941   6.338   2.663 -0.3016  0.2067  0.4845
28125SOL    HW286755   7.833   6.247   2.719 -1.5799  0.8299 -0.9077
28126SOL     OW86756  10.207   1.045  10.293  0.5645  0.1753  0.1995
28126SOL    HW186757  10.153   1.092  10.356 -1.0783 -0.4756 -0.6545
28126SOL    HW286758  10.150   0.976  10.259  2.0482 -0.7630 -0.5191
28127SOL     OW86759   4.752   9.654   2.299 -0.1587  0.2880 -0.3419
28127SOL    HW186760   4.772   9.563   2.320 -1.5629  0.4834  2.2557
28127SOL    HW286761   4.659   9.653   2.275 -0.8715  1.2949  2.1234
28128SOL     OW86762   4.897   5.803   4.168  0.1280  0.4086  0.3145
28128SOL    HW186763   4.927   5.889   4.138 -1.7153  0.5936 -1.2210
28128SOL    HW286764   4.901   5.807   4.263 -2.0944  3.1270  0.4343
28129SOL     OW86765   6.838   9.121   7.807 -0.0314 -0.0377  0.2393
28129SOL    HW186766   6.747   9.099   7.829  0.4759 -1.0134  1.5084
28129SOL    HW286767   6.888   9.093   7.884  1.3543  0.4298 -0.4686
28130SOL     OW86768   3.551  10.077   4.850  0.3817  0.0250  0.1094
28130SOL    HW186769   3.496  10.148   4.817 -0.4496 -0.9563 -0.6597
28130SOL    HW286770   3.640  10.104   4.827  0.1313  1.0329  0.2487
28131SOL     OW86771   2.979   1.591   9.289 -0.7227 -0.1133 -0.6888
28131SOL    HW186772   2.962   1.545   9.207 -1.1574  0.7724 -1.1226
28131SOL    HW286773   3.049   1.653   9.268  0.2176 -0.9279  0.0210
28132SOL     OW86774   4.833   6.333  10.162 -0.3459  0.0482 -0.2971
28132SOL    HW186775   4.792   6.414  10.130  0.4233  0.0742 -1.2355
28132SOL    HW286776   4.766   6.266  10.148  0.0105  0.0264 -2.1657
28133SOL     OW86777  10.334  10.217   6.884  0.0434 -0.1570  0.6167
28133SOL    HW186778  10.277  10.288   6.856  0.9528 -0.1468 -1.3625
28133SOL    HW286779  10.340  10.160   6.807  1.8977 -0.6594  1.0936
28134SOL     OW86780   6.331   3.178   0.272 -0.3498  0.5112  0.7407
28134SOL    HW186781   6.416   3.159   0.233  0.1536  2.4489  0.8056
28134SOL    HW286782   6.346   3.173   0.366 -0.6834 -0.5844  0.7473
28135SOL     OW86783   5.001  10.065   3.178 -0.4467  0.4350 -0.0579
28135SOL    HW186784   5.030  10.148   3.140  2.2126  0.7772  2.2797
28135SOL    HW286785   4.990  10.085   3.271  2.2472 -2.1098  0.9851
28136SOL     OW86786   8.001   5.847   7.128  0.1301  0.6432  0.4650
28136SOL    HW186787   7.945   5.830   7.204 -1.3195 -0.3639 -0.7530
28136SOL    HW286788   7.982   5.937   7.105  0.6511  0.9888  1.3260
28137SOL     OW86789   1.283   3.363   3.664  0.0935  0.2825 -0.4177
28137SOL    HW186790   1.323   3.296   3.721  0.0211  0.1644 -0.5057
28137SOL    HW286791   1.201   3.386   3.708  0.5865  1.0340  0.1296
28138SOL     OW86792   5.480   2.763   6.058  0.0660  0.6652 -0.3964
28138SOL    HW186793   5.394   2.724   6.045 -0.1873  0.8139  0.7372
28138SOL    HW286794   5.539   2.688   6.068 -0.5043  0.4502  2.3482
28139SOL     OW86795   3.896   1.069   8.493  0.1527  0.4145 -0.3371
28139SOL    HW186796   3.956   1.025   8.433 -0.7742 -1.8817  0.3115
28139SOL    HW286797   3.852   1.135   8.440  0.8820 -0.1046 -1.6148
28140SOL     OW86798   4.732   0.686   0.246 -0.2920 -0.3063  0.1840
28140SOL    HW186799   4.647   0.642   0.245 -1.4963  1.8775 -0.7564
28140SOL    HW286800   4.765   0.673   0.335 -1.4033 -1.5386  0.4469
28141SOL     OW86801  10.317   5.152   6.371  0.5588 -0.1785  0.4116
28141SOL    HW186802  10.282   5.104   6.296  0.2039 -1.6590  1.4779
28141SOL    HW286803  10.266   5.120   6.446  1.1060  1.0321  1.3438
28142SOL     OW86804   2.091   4.589   2.441 -0.2551  0.1556 -0.2259
28142SOL    HW186805   2.183   4.568   2.422 -1.0596 -3.2415 -1.1498
28142SOL    HW286806   2.081   4.680   2.412  2.4005  0.1119 -1.6484
28143SOL     OW86807   7.684   1.863   9.609 -0.0599  0.0658  0.3786
28143SOL    HW186808   7.640   1.813   9.678  0.2245 -2.6008 -1.2564
28143SOL    HW286809   7.613   1.888   9.550  0.0990 -0.6254 -0.1102
28144SOL     OW86810   1.642   8.507   5.990 -0.4607  0.2566 -0.1646
28144SOL    HW186811   1.616   8.598   6.005  0.2047  0.3188  0.6466
28144SOL    HW286812   1.638   8.466   6.076 -2.3114 -0.9181 -0.7381
28145SOL     OW86813   8.379   1.937   0.721  0.2442  0.2009 -0.1707
28145SOL    HW186814   8.430   2.017   0.727 -0.3103  0.5025  0.7257
28145SOL    HW286815   8.406   1.897   0.638 -0.0610  1.6983 -1.0091
28146SOL     OW86816   8.684   9.574   0.533  0.4670 -0.5904 -0.0210
28146SOL    HW186817   8.733   9.646   0.493 -0.4110  1.3377  2.1095
28146SOL    HW286818   8.752   9.514   0.566  1.3380  0.5669  0.3674
28147SOL     OW86819   4.728   2.973   5.796 -0.6416 -0.1917  0.0979
28147SOL    HW186820   4.672   2.935   5.863 -0.7109 -1.0933 -0.4600
28147SOL    HW286821   4.805   3.004   5.844 -0.6623 -0.8767  0.5858
28148SOL     OW86822   9.395   3.626  10.423  0.0823 -0.1011 -0.3661
28148SOL    HW186823   9.399   3.532  10.440  0.6966 -0.3067 -1.5166
28148SOL    HW286824   9.314   3.655  10.465 -0.6838 -1.3512 -0.9214
28149SOL     OW86825   8.742   1.908   6.575 -0.2086  0.3003  0.2784
28149SOL    HW186826   8.660   1.957   6.570 -0.0225  0.5209 -0.7737
28149SOL    HW286827   8.719   1.820   6.545 -0.3002  0.0413  1.0907
28150SOL     OW86828   1.799  10.132   3.516  0.2808  0.2198 -0.3240
28150SOL    HW186829   1.808  10.210   3.571  0.8061 -0.2008  0.1914
28150SOL    HW286830   1.725  10.085   3.554 -0.5891  0.8790 -1.1542
28151SOL     OW86831   2.011   9.965   3.576 -0.0014 -0.3640  0.4022
28151SOL    HW186832   1.925  10.001   3.554  0.2007 -0.3607 -0.4006
28151SOL    HW286833   2.021   9.891   3.516  0.8782  0.0886 -0.0131
28152SOL     OW86834   0.118   6.157   2.128 -0.4223  0.4701 -0.2658
28152SOL    HW186835   0.122   6.203   2.044  0.7558 -0.4284 -0.7167
28152SOL    HW286836   0.069   6.077   2.110 -3.7682  2.0402  0.8292
28153SOL     OW86837   4.316  10.078   4.917 -0.6814  0.5724  0.2409
28153SOL    HW186838   4.230  10.117   4.936 -0.5799  0.4622  0.9686
28153SOL    HW286839   4.297  10.004   4.859 -1.0729  0.5807  0.3555
28154SOL     OW86840   9.601   2.997   8.012 -0.2225 -0.4394  0.1905
28154SOL    HW186841   9.671   3.049   7.973 -0.9663  0.3085 -0.1932
28154SOL    HW286842   9.592   2.921   7.954  1.0087 -1.1287  0.8678
28155SOL     OW86843   0.495   4.074   8.950 -0.1843  0.4005  0.0877
28155SOL    HW186844   0.586   4.047   8.939  0.1058  1.2473  0.3585
28155SOL    HW286845   0.458   4.011   9.013 -0.3277 -1.0969 -1.4208
28156SOL     OW86846   3.976   4.007   9.371 -0.3696 -0.6711 -0.1669
28156SOL    HW186847   4.035   4.045   9.436 -1.6552  0.9031  0.1634
28156SOL    HW286848   3.907   3.967   9.422 -0.4284 -1.0674 -0.5546
28157SOL     OW86849   1.211   6.746   5.728 -0.5247  0.6885  0.4742
28157SOL    HW186850   1.127   6.791   5.725 -0.9594 -0.0885  0.6842
28157SOL    HW286851   1.275   6.813   5.705 -1.1804  1.3363  0.5018
28158SOL     OW86852   3.963   4.595   0.164  0.4719  0.0257 -0.1815
28158SOL    HW186853   4.030   4.626   0.225  0.0873 -0.3285  0.4260
28158SOL    HW286854   3.977   4.648   0.085  2.0719 -0.6739 -0.4184
28159SOL     OW86855   2.774   4.372   8.168 -0.1422 -0.3303 -0.0103
28159SOL    HW186856   2.846   4.313   8.189  1.7749  1.8892  0.0298
28159SOL    HW286857   2.774   4.375   8.072  0.9502  0.9034  0.0019
28160SOL     OW86858   4.625  10.405   3.437  0.1899 -0.6508 -0.6875
28160SOL    HW186859   4.663  10.357   3.511 -0.5571  2.5218  2.0015
28160SOL    HW286860   4.698  10.456   3.401 -0.0461  0.0636 -0.1659
28161SOL     OW86861   5.107  10.548   1.365  0.1538 -0.1578 -0.3828
28161SOL    HW186862   5.022  10.587   1.347 -0.0966 -0.5077  0.0169
28161SOL    HW286863   5.167  10.622   1.371 -0.2844  0.1617  0.2009
28162SOL     OW86864   0.602   8.088   9.846 -0.2410  0.4805 -0.1327
28162SOL    HW186865   0.565   8.170   9.878 -1.8126 -0.4840  0.6399
28162SOL    HW286866   0.543   8.061   9.776  1.5342  1.0952 -1.9662
28163SOL     OW86867  10.356   4.293  10.112  0.1741 -0.1936 -0.2286
28163SOL    HW186868  10.323   4.266  10.026 -1.6596 -0.3777  0.4957
28163SOL    HW286869  10.433   4.237  10.126  0.8011  0.1728 -1.9300
28164SOL     OW86870   2.738   7.075   0.337  0.2822 -0.1762  0.0446
28164SOL    HW186871   2.740   7.168   0.360 -0.7650 -0.2700  0.5498
28164SOL    HW286872   2.773   7.072   0.248  0.8564  0.6297  0.2268
28165SOL     OW86873   2.325   2.898   1.217  0.4180 -0.5380  0.2981
28165SOL    HW186874   2.231   2.884   1.232  0.2565 -0.0987 -0.2591
28165SOL    HW286875   2.357   2.812   1.188  0.2914 -0.8132  0.9476
28166SOL     OW86876   7.731   2.568   7.690  0.1932  0.0051 -0.7801
28166SOL    HW186877   7.750   2.487   7.738 -0.0734  0.4304  0.0625
28166SOL    HW286878   7.817   2.609   7.680  0.3393 -0.4053 -1.2657
28167SOL     OW86879   0.617   8.278   9.245 -0.7993  0.1388 -0.2491
28167SOL    HW186880   0.606   8.331   9.325 -0.6847 -1.4135  0.8477
28167SOL    HW286881   0.541   8.221   9.244  0.4887 -1.6897  0.2540
28168SOL     OW86882   0.210   1.302   9.900  0.4120  0.4305 -0.2895
28168SOL    HW186883   0.299   1.284   9.930  0.0718 -0.5009  0.1919
28168SOL    HW286884   0.198   1.243   9.825 -1.3088 -2.9030  2.3431
28169SOL     OW86885   9.604   6.147   4.046  0.3304  0.1342  0.9542
28169SOL    HW186886   9.665   6.219   4.065  0.3973 -0.0930  1.6063
28169SOL    HW286887   9.523   6.173   4.088  0.0246  0.3423  0.2529
28170SOL     OW86888   9.961   3.115   1.613 -0.5270  0.0702 -0.6992
28170SOL    HW186889   9.978   3.185   1.676  1.7476 -0.1296 -1.0074
28170SOL    HW286890   9.958   3.035   1.665 -0.3480  0.0905 -0.6585
28171SOL     OW86891  10.783   6.921   3.969  0.0388 -0.2255 -0.0124
28171SOL    HW186892  10.874   6.947   3.952  0.1125 -0.3480  0.1911
28171SOL    HW286893  10.777   6.832   3.934 -0.3831  0.2711 -1.2732
28172SOL     OW86894   9.669   3.175  10.217  0.5120 -0.2574  0.2398
28172SOL    HW186895   9.734   3.125  10.168  1.5387 -0.0293  1.3309
28172SOL    HW286896   9.708   3.262  10.227 -0.0745 -0.0400  0.6856
28173SOL     OW86897  10.155   2.351   5.203  0.4125 -0.0873  0.2072
28173SOL    HW186898  10.124   2.435   5.169 -1.7296 -1.2957 -1.0806
28173SOL    HW286899  10.152   2.362   5.298 -2.4086  0.5428  0.1661
28174SOL     OW86900   0.000   4.049   9.611 -0.6072 -0.3361 -0.0044
28174SOL    HW186901  -0.001   4.132   9.658  1.8199 -0.6407  0.7031
28174SOL    HW286902  -0.027   3.984   9.675 -0.0519 -0.3875  0.1862
28175SOL     OW86903   5.280  10.011   3.124  0.1109 -0.5395  0.0690
28175SOL    HW186904   5.284   9.944   3.193  0.8265  0.3062  0.8824
28175SOL    HW286905   5.188  10.016   3.100  0.0126 -1.6027  0.2117
28176SOL     OW86906   5.366   2.006   3.972  0.0839 -0.6194 -0.0264
28176SOL    HW186907   5.442   2.064   3.976 -1.0384  0.9711 -0.7601
28176SOL    HW286908   5.320   2.021   4.054 -1.1261  0.9041 -0.9344
28177SOL     OW86909   5.642   5.114   9.892 -0.4130  0.0952 -0.3149
28177SOL    HW186910   5.640   5.023   9.921 -0.9052  0.3364  0.4394
28177SOL    HW286911   5.648   5.108   9.797  1.1043 -0.7109 -0.1916
28178SOL     OW86912   8.095   5.027   4.464 -0.0672 -0.4757 -0.3136
28178SOL    HW186913   8.185   4.998   4.475 -0.2603 -2.8519 -3.5218
28178SOL    HW286914   8.099   5.094   4.396 -0.6448  0.2645  0.3594
28179SOL     OW86915   7.634   2.683   2.221  0.0449  0.0679 -0.0335
28179SOL    HW186916   7.601   2.747   2.284  0.9515  0.4706  0.0511
28179SOL    HW286917   7.644   2.733   2.140 -0.1755 -0.2098 -0.2342
28180SOL     OW86918   9.918   5.006   6.503 -0.3657 -0.1222 -0.1046
28180SOL    HW186919   9.941   5.039   6.590 -0.9269 -0.0427  0.0193
28180SOL    HW286920   9.921   4.911   6.512  2.7628 -0.1842 -0.8651
28181SOL     OW86921   4.064   3.371   4.332 -0.1469 -0.0217 -0.4481
28181SOL    HW186922   4.101   3.431   4.396 -1.5211 -0.6984  1.0739
28181SOL    HW286923   3.977   3.406   4.314 -0.1481 -0.3895 -1.1827
28182SOL     OW86924   9.168   4.406  10.203  0.5839 -0.3372  0.6601
28182SOL    HW186925   9.197   4.442  10.119 -1.3425  1.2770  0.6038
28182SOL    HW286926   9.145   4.483  10.255 -0.6268 -1.3913  1.7428
28183SOL     OW86927   6.122   7.412  10.402 -0.0558  0.5490 -0.0427
28183SOL    HW186928   6.212   7.416  10.370  0.4040 -0.6630  1.0118
28183SOL    HW286929   6.071   7.383  10.327  0.4976  0.7942 -0.5252
28184SOL     OW86930   7.178   1.032   2.927 -0.2689  0.2765  0.2531
28184SOL    HW186931   7.178   0.987   2.843  2.7395  2.5441 -1.1439
28184SOL    HW286932   7.085   1.034   2.953 -1.1274 -1.7265 -2.2427
28185SOL     OW86933   9.579   9.513   4.588  0.0381  0.0398  0.1664
28185SOL    HW186934   9.586   9.537   4.680  1.8812  1.2222 -0.2470
28185SOL    HW286935   9.624   9.583   4.541  1.0261 -1.6353 -1.4807
28186SOL     OW86936   6.205   8.517   1.844  0.9849 -0.7508  0.1700
28186SOL    HW186937   6.222   8.589   1.783  1.1473  0.3008  1.4130
28186SOL    HW286938   6.114   8.529   1.870  1.7398  0.6907  2.4368
28187SOL     OW86939   6.727   0.780  10.107 -0.4238 -0.0394  0.1238
28187SOL    HW186940   6.657   0.846  10.105  0.5733  1.0970  0.9803
28187SOL    HW286941   6.682   0.696  10.096 -1.8818  0.6757  0.4121
28188SOL     OW86942   1.752   9.600   1.177  0.0103 -0.0027 -0.2260
28188SOL    HW186943   1.672   9.552   1.155 -0.3223 -1.1971  2.9543
28188SOL    HW286944   1.728   9.651   1.254  1.1292  3.3473 -1.9258
28189SOL     OW86945   1.281   3.939   7.663  0.0833  0.1618  0.0853
28189SOL    HW186946   1.318   3.860   7.702 -0.2191 -0.4283 -0.7902
28189SOL    HW286947   1.225   3.975   7.731 -1.9848 -1.9161 -0.3856
28190SOL     OW86948   1.214   6.577   2.404  0.2568 -0.8967  0.3404
28190SOL    HW186949   1.190   6.540   2.489 -0.5980  0.4993  0.7310
28190SOL    HW286950   1.141   6.634   2.380  2.0654  1.6152  0.4117
28191SOL     OW86951   7.271   8.415   4.376 -0.0632  0.5003 -0.2871
28191SOL    HW186952   7.332   8.487   4.363  0.9639 -0.4285 -0.6967
28191SOL    HW286953   7.231   8.432   4.461  1.2549  0.7728  0.2886
28192SOL     OW86954   6.740   3.748   0.811 -0.2902  0.1759 -0.1421
28192SOL    HW186955   6.677   3.777   0.744 -1.3711  0.5467  0.9852
28192SOL    HW286956   6.788   3.828   0.834 -0.8985  0.3687  0.5086
28193SOL     OW86957   2.825   1.962   8.094  0.4722 -0.0836 -0.4128
28193SOL    HW186958   2.749   2.004   8.133  0.3274 -0.5305 -0.2132
28193SOL    HW286959   2.789   1.904   8.026  0.7424  1.0011 -1.5261
28194SOL     OW86960   5.807   4.295   0.381  0.1648 -0.6262 -0.1145
28194SOL    HW186961   5.802   4.367   0.319 -1.7543 -0.7356 -0.1654
28194SOL    HW286962   5.725   4.246   0.366  0.6533 -1.8493  1.0539
28195SOL     OW86963   6.713   0.675   8.707  0.0944  0.2461  0.1951
28195SOL    HW186964   6.768   0.662   8.629 -2.0735 -0.1211 -1.3630
28195SOL    HW286965   6.653   0.601   8.706 -1.7552  1.6801  0.6449
28196SOL     OW86966   9.775   6.084   8.743  0.1701 -0.0517  0.4058
28196SOL    HW186967   9.851   6.140   8.729 -0.3997  1.2983  2.2942
28196SOL    HW286968   9.718   6.102   8.668  0.9945  0.1591 -0.1824
28197SOL     OW86969   5.468   5.446   9.437 -0.0346 -0.2350  0.0631
28197SOL    HW186970   5.493   5.491   9.357 -0.8632  0.9570  0.4387
28197SOL    HW286971   5.487   5.509   9.507  0.1934 -1.0558  0.7587
28198SOL     OW86972   9.620   8.611   0.857 -0.4112  0.5390  0.3281
28198SOL    HW186973   9.663   8.663   0.925 -0.6988 -1.1831  1.9079
28198SOL    HW286974   9.658   8.642   0.775  0.0548  2.5888  1.2630
28199SOL     OW86975   8.529   4.987   9.313 -0.0450  0.1919 -0.1534
28199SOL    HW186976   8.438   4.998   9.340 -0.1964  0.3788 -0.7245
28199SOL    HW286977   8.578   4.980   9.395 -0.5559  0.2340  0.1581
28200SOL     OW86978   8.433  10.635   4.510 -0.4164 -0.0319  0.2030
28200SOL    HW186979   8.402  10.553   4.547 -1.1200 -1.1324 -2.5785
28200SOL    HW286980   8.356  10.674   4.469 -0.1944  2.3079  1.7721
28201SOL     OW86981   3.400   6.764   9.938  0.5698  0.5956  0.1539
28201SOL    HW186982   3.449   6.762  10.020 -1.4562  0.7926  1.4455
28201SOL    HW286983   3.369   6.855   9.931 -0.8378  0.1367  0.1768
28202SOL     OW86984   6.620   6.196   1.231 -0.4364  0.6106 -0.4896
28202SOL    HW186985   6.681   6.164   1.165 -0.0026 -0.9441  0.5857
28202SOL    HW286986   6.539   6.213   1.183 -0.3924 -1.2841 -1.3180
28203SOL     OW86987   2.343  10.339   9.147 -0.3770  0.0911  0.4241
28203SOL    HW186988   2.308  10.424   9.123 -0.2508  0.9141  2.9027
28203SOL    HW286989   2.435  10.342   9.119 -0.0060  1.3342  1.6568
28204SOL     OW86990   7.415   3.343   2.493 -0.4005 -0.6795 -0.0721
28204SOL    HW186991   7.378   3.262   2.528 -0.7177 -1.4138 -1.9761
28204SOL    HW286992   7.341   3.389   2.455 -0.3049  0.7874  1.3964
28205SOL     OW86993   3.203   8.029   3.337  0.5338 -0.2438  0.3063
28205SOL    HW186994   3.187   7.936   3.352 -0.4831  0.0874  1.4587
28205SOL    HW286995   3.280   8.050   3.390  0.3529 -0.2817  0.5828
28206SOL     OW86996   9.484   2.082   0.714  0.4004 -0.4986 -0.0419
28206SOL    HW186997   9.406   2.130   0.689  1.0508 -0.1102 -1.4357
28206SOL    HW286998   9.463   2.043   0.799 -1.6327 -1.1780 -0.8165
28207SOL     OW86999   8.501   0.630   1.164  0.5828  0.1846 -0.5328
28207SOL    HW187000   8.552   0.698   1.121  2.0235  0.2965  1.1897
28207SOL    HW287001   8.459   0.675   1.238 -0.2725 -0.3567 -0.6777
28208SOL     OW87002   5.772   1.536   9.447 -0.6148 -0.1177 -0.2156
28208SOL    HW187003   5.745   1.449   9.476 -2.9664  0.2208 -1.1964
28208SOL    HW287004   5.817   1.521   9.363 -1.3798 -0.3671 -0.5857
28209SOL     OW87005   7.571   1.260   1.797  0.4099  0.2755 -0.7223
28209SOL    HW187006   7.607   1.239   1.710  1.8137  1.2015 -0.3968
28209SOL    HW287007   7.645   1.294   1.846 -0.1919 -0.8963  1.1112
28210SOL     OW87008   9.919   4.174   7.127  0.2614  0.3708  0.2109
28210SOL    HW187009   9.999   4.139   7.089  0.8365  1.3807  0.4655
28210SOL    HW287010   9.901   4.116   7.202  0.8455  0.2381  0.2516
28211SOL     OW87011  10.570   7.636   4.351  0.1840 -0.0021  0.1089
28211SOL    HW187012  10.530   7.707   4.401 -1.8700 -0.9897 -0.0397
28211SOL    HW287013  10.618   7.585   4.417 -0.1084  0.3130  0.5715
28212SOL     OW87014   9.755   6.454  10.698 -0.1698  0.0941  0.4349
28212SOL    HW187015   9.743   6.435  10.605 -0.6364  1.9450  0.0824
28212SOL    HW287016   9.836   6.408  10.722  1.8775  2.2300 -1.7589
28213SOL     OW87017   1.175   8.680   6.928  0.6210 -0.1812 -0.5745
28213SOL    HW187018   1.145   8.591   6.910 -0.8876  0.2120 -0.1644
28213SOL    HW287019   1.207   8.677   7.018  1.1879 -0.4600 -0.7862
28214SOL     OW87020   0.135   7.226   3.494  0.9736  0.8196  0.3419
28214SOL    HW187021   0.148   7.228   3.588  3.0569  0.9731  0.1073
28214SOL    HW287022   0.223   7.236   3.457  0.2623  0.4522 -1.6170
28215SOL     OW87023   6.137   7.715   6.837 -0.1774 -0.3598  0.1921
28215SOL    HW187024   6.192   7.724   6.915  0.0034  0.0887  0.0149
28215SOL    HW287025   6.063   7.773   6.853 -0.3130 -0.5288  0.1798
28216SOL     OW87026   1.690   2.549   0.338 -0.1605 -0.2201  0.7470
28216SOL    HW187027   1.749   2.602   0.285 -0.0367  1.0935  2.1263
28216SOL    HW287028   1.695   2.462   0.299 -0.0408  0.6609 -1.3252
28217SOL     OW87029   1.554   8.774   6.006  0.0153  0.1010 -0.4937
28217SOL    HW187030   1.479   8.825   5.977 -0.2078 -0.0655 -0.2251
28217SOL    HW287031   1.630   8.825   5.979 -0.1947  0.2788 -0.7547
28218SOL     OW87032   1.027   0.131   1.049  0.0030  0.3913 -0.3543
28218SOL    HW187033   1.033   0.128   0.954 -1.5443  2.4023 -0.5967
28218SOL    HW287034   0.994   0.219   1.068 -1.4062 -0.5254  1.9328
28219SOL     OW87035   7.246   6.188   1.480 -0.1854  0.0265  0.3879
28219SOL    HW187036   7.298   6.223   1.553 -0.0428 -0.3846  0.4821
28219SOL    HW287037   7.282   6.231   1.403  1.2711 -1.3387  0.2771
28220SOL     OW87038   1.615   6.434   6.125  0.5203  0.5267  0.1062
28220SOL    HW187039   1.706   6.421   6.149  0.7788  2.1959  0.1112
28220SOL    HW287040   1.612   6.521   6.087 -0.9747  0.2675 -0.4511
28221SOL     OW87041   7.575   5.517   4.629  0.4493  0.4674 -0.3363
28221SOL    HW187042   7.539   5.503   4.716 -0.6425  0.2941 -0.7972
28221SOL    HW287043   7.567   5.612   4.614 -1.1675  0.2629 -0.9768
28222SOL     OW87044   5.590   8.090   2.526 -0.1077 -0.0683  0.2939
28222SOL    HW187045   5.684   8.106   2.514 -0.2213  2.5747  2.0596
28222SOL    HW287046   5.569   8.021   2.463  2.5031  0.9724 -1.9082
28223SOL     OW87047   5.948   4.015   0.128 -0.5334  0.1772 -0.7137
28223SOL    HW187048   5.956   3.974   0.214 -0.3258 -0.2862 -0.9558
28223SOL    HW287049   6.000   3.960   0.069  0.7260  1.4370 -0.8257
28224SOL     OW87050   2.001   0.885   1.028  0.5662 -0.0968  0.3069
28224SOL    HW187051   1.999   0.942   0.951 -0.0185  1.0294  1.1290
28224SOL    HW287052   1.915   0.842   1.028  0.3513  0.3256  0.6280
28225SOL     OW87053  10.154   1.427   9.741 -0.2359  0.4523 -0.1719
28225SOL    HW187054  10.094   1.413   9.814  0.5328  2.8610  1.0534
28225SOL    HW287055  10.235   1.383   9.768  0.7016  2.9708  1.4942
28226SOL     OW87056   3.788   5.598  10.579  0.2337 -0.6239 -0.0152
28226SOL    HW187057   3.704   5.561  10.608 -0.7923  0.8280 -1.0086
28226SOL    HW287058   3.809   5.550  10.499  0.8235 -1.5821  0.6891
28227SOL     OW87059   2.388   8.800   3.922 -1.2412  0.1383  0.3128
28227SOL    HW187060   2.391   8.847   4.005  0.5759  0.3897  0.1697
28227SOL    HW287061   2.430   8.861   3.860 -0.6264 -0.8760 -0.3003
28228SOL     OW87062   5.078   7.393   3.373 -0.4482 -0.2461 -0.6776
28228SOL    HW187063   5.084   7.317   3.431  0.6275 -0.0019 -0.4394
28228SOL    HW287064   5.123   7.463   3.421 -1.2482  0.4919 -0.9792
28229SOL     OW87065   9.780   8.317   8.376  0.4391  0.0826  0.2517
28229SOL    HW187066   9.730   8.358   8.447 -0.6162  0.5729 -0.7306
28229SOL    HW287067   9.859   8.371   8.368  0.4318  0.1915  0.8566
28230SOL     OW87068   0.750   0.867   4.411 -0.2295  0.1478  0.2476
28230SOL    HW187069   0.774   0.781   4.445 -0.6187  0.2015  0.6726
28230SOL    HW287070   0.822   0.891   4.353  0.6019  0.1635  1.2454
28231SOL     OW87071   9.102   9.598   3.569  0.9917  0.5801 -0.0778
28231SOL    HW187072   9.087   9.559   3.655 -3.2929  0.7355 -0.5378
28231SOL    HW287073   9.166   9.669   3.585  0.7512  0.2448  2.8204
28232SOL     OW87074   3.863   4.043   1.654 -0.1702  0.0663  0.0351
28232SOL    HW187075   3.796   4.111   1.645  1.8282  2.7097  2.9131
28232SOL    HW287076   3.842   3.999   1.736  0.1900 -0.8809 -0.3628
28233SOL     OW87077   7.169   2.875   7.099 -0.0159  0.2894 -0.0386
28233SOL    HW187078   7.256   2.881   7.138  0.3478 -2.2137 -0.2621
28233SOL    HW287079   7.184   2.880   7.005  0.3341 -2.7214 -0.2513
28234SOL     OW87080   4.821   1.318   4.951 -0.4219  0.2522 -0.2411
28234SOL    HW187081   4.894   1.367   4.989  0.4015 -2.4180  1.9127
28234SOL    HW287082   4.863   1.251   4.897 -1.4181  0.3221 -1.1396
28235SOL     OW87083   7.539   7.802   3.195 -0.2380  0.2595 -0.1588
28235SOL    HW187084   7.562   7.784   3.104  0.5199 -0.9496  0.2483
28235SOL    HW287085   7.458   7.754   3.210  0.6262 -1.1013  0.3098
28236SOL     OW87086   3.696   2.567   3.437  0.7036 -0.6824 -0.3848
28236SOL    HW187087   3.695   2.598   3.527 -0.2143  0.8786 -0.8851
28236SOL    HW287088   3.736   2.639   3.387 -0.5241 -0.6996 -1.4571
28237SOL     OW87089   5.169   6.660   1.823  0.2744 -0.2356 -0.8648
28237SOL    HW187090   5.124   6.672   1.906  0.5078  0.9722 -0.9015
28237SOL    HW287091   5.168   6.565   1.809 -0.7196 -0.3668 -0.0268
28238SOL     OW87092  10.447   4.833   0.794 -0.3021  0.2127 -0.1391
28238SOL    HW187093  10.480   4.808   0.708  0.5670 -1.8208  0.7116
28238SOL    HW287094  10.398   4.756   0.824  1.0501  0.0658  1.9525
28239SOL     OW87095   4.719   8.251   2.505  0.0508  0.2978 -0.2797
28239SOL    HW187096   4.811   8.240   2.481 -0.3229 -1.8786 -0.9642
28239SOL    HW287097   4.718   8.244   2.601  0.6688  1.1026 -0.2097
28240SOL     OW87098   0.952   0.026  10.054 -0.0912  0.4751 -0.7779
28240SOL    HW187099   0.930   0.080   9.978  0.5255  2.6808  0.5235
28240SOL    HW287100   0.872  -0.023  10.073 -0.4205  0.2841 -2.4868
28241SOL     OW87101   2.789   2.199   5.137  0.5972  0.1575  0.0001
28241SOL    HW187102   2.743   2.281   5.154  2.4467  0.9336  1.5900
28241SOL    HW287103   2.724   2.131   5.157 -1.2581  1.1373 -2.1661
28242SOL     OW87104   5.727   2.580   6.924 -0.0461  0.2074  0.7041
28242SOL    HW187105   5.791   2.529   6.875 -1.6717 -1.0164 -0.2470
28242SOL    HW287106   5.711   2.529   7.004  1.8597  1.7072  2.1511
28243SOL     OW87107   0.702   5.041   9.227  0.4670 -0.2661  0.2732
28243SOL    HW187108   0.760   5.069   9.298  1.3545  0.1088 -0.5777
28243SOL    HW287109   0.730   5.093   9.152 -0.5540 -0.5555 -0.3212
28244SOL     OW87110   0.596   6.547   5.935  0.6589  0.9500 -0.2530
28244SOL    HW187111   0.584   6.633   5.893 -0.1939  0.5475 -0.8590
28244SOL    HW287112   0.543   6.552   6.014 -1.0055  0.3265 -1.2727
28245SOL     OW87113   0.287   5.802   2.195  0.3921 -0.2867  0.4549
28245SOL    HW187114   0.270   5.869   2.262  1.0019 -1.6089  1.9947
28245SOL    HW287115   0.323   5.851   2.121 -1.5091  1.3877  0.5637
28246SOL     OW87116   7.244   0.792   1.014 -0.2676 -0.6153 -0.6012
28246SOL    HW187117   7.324   0.791   0.962  0.5370  0.0987  0.5739
28246SOL    HW287118   7.272   0.768   1.103 -1.2993 -0.0937 -0.1149
28247SOL     OW87119   3.677   8.099   7.289 -0.0522  0.5663  0.5787
28247SOL    HW187120   3.628   8.054   7.358  1.6248 -2.2856  0.0727
28247SOL    HW287121   3.666   8.044   7.212 -0.4836  2.7930 -1.0573
28248SOL     OW87122   0.713  10.138   6.060 -0.3742  0.2012  0.0315
28248SOL    HW187123   0.635  10.117   6.010 -0.5283  0.7027  0.0548
28248SOL    HW287124   0.726  10.232   6.046 -0.3469  0.3224  0.8212
28249SOL     OW87125   6.420   8.739   9.266  0.2321  0.4338 -0.0157
28249SOL    HW187126   6.459   8.799   9.329  0.5720  0.2644 -0.0642
28249SOL    HW287127   6.403   8.659   9.316 -0.2905  0.5945  0.0678
28250SOL     OW87128  10.281   8.021   6.672  0.6684 -0.6789 -0.3624
28250SOL    HW187129  10.297   8.087   6.740 -0.7130  0.0896 -0.7303
28250SOL    HW287130  10.304   8.065   6.590 -0.4235 -0.5562 -0.6252
28251SOL     OW87131   7.374   6.538   9.337  0.0708 -0.3377  0.0783
28251SOL    HW187132   7.328   6.457   9.358  1.7875 -1.4929 -0.4021
28251SOL    HW287133   7.457   6.532   9.384 -0.3256  1.8320  1.1804
28252SOL     OW87134   5.976   1.976  10.497  0.0058 -0.0441 -0.7400
28252SOL    HW187135   5.981   1.903  10.560  1.1870  1.1224  0.6066
28252SOL    HW287136   6.053   1.964  10.441  0.0088 -0.0361 -0.7376
28253SOL     OW87137   7.165   6.160   9.010  0.5676  0.2608  0.2210
28253SOL    HW187138   7.085   6.200   9.044 -0.3137  0.6694 -2.1798
28253SOL    HW287139   7.229   6.172   9.080 -1.0237  1.3509  1.5728
28254SOL     OW87140   5.992   9.340   7.502  0.8426 -0.5268 -0.0773
28254SOL    HW187141   5.954   9.411   7.554 -0.1202 -1.2939  0.3038
28254SOL    HW287142   6.062   9.304   7.556 -0.4112 -1.5799  0.9258
28255SOL     OW87143   3.841   3.489   7.087  0.2061 -0.1651  0.2315
28255SOL    HW187144   3.774   3.496   7.019  0.1051  0.1009  0.3582
28255SOL    HW287145   3.808   3.422   7.147 -0.8412  1.2635  1.3003
28256SOL     OW87146   8.655   5.683   5.988 -0.1626  0.5772  0.3098
28256SOL    HW187147   8.632   5.597   5.953 -1.7243  0.8994  0.4507
28256SOL    HW287148   8.750   5.681   5.997  0.1793 -0.0535 -2.5242
28257SOL     OW87149   9.064   2.888   4.914  0.8050 -0.0797  0.9262
28257SOL    HW187150   9.084   2.933   4.831  0.6470 -1.9364 -0.1598
28257SOL    HW287151   9.047   2.960   4.976  1.6512  1.3747 -0.4402
28258SOL     OW87152   3.469   4.393   4.988  0.2835  0.1990  0.4207
28258SOL    HW187153   3.458   4.400   4.893 -1.5778  1.4027  0.6729
28258SOL    HW287154   3.454   4.482   5.021 -0.3604 -0.4318  1.9296
28259SOL     OW87155   6.846   0.656   5.233 -0.4624 -0.2110  0.6775
28259SOL    HW187156   6.799   0.679   5.153 -0.1056 -0.2208  0.4607
28259SOL    HW287157   6.822   0.723   5.296  0.3767  0.6308  0.1245
28260SOL     OW87158   8.113   1.390   4.383 -0.0238 -0.5051  0.7269
28260SOL    HW187159   8.188   1.355   4.336  0.2314  1.3530 -0.3310
28260SOL    HW287160   8.045   1.323   4.373  0.9315 -1.4269  0.2204
28261SOL     OW87161   9.057   2.081   1.660  0.4174  0.6045 -0.2657
28261SOL    HW187162   9.024   2.069   1.571 -1.0744 -0.4673  0.3919
28261SOL    HW287163   8.983   2.120   1.708  1.4179  1.8108  0.3713
28262SOL     OW87164   4.587  10.748   4.058  0.0059  0.0564  0.3439
28262SOL    HW187165   4.620  10.836   4.042 -0.0054  0.1394  0.7626
28262SOL    HW287166   4.569  10.713   3.971 -0.0743  0.4993  0.1785
28263SOL     OW87167   1.222   6.440   2.647 -0.0978 -0.0730 -0.5608
28263SOL    HW187168   1.146   6.388   2.675 -1.2413  2.3184  1.1295
28263SOL    HW287169   1.286   6.426   2.716 -0.9678  1.7604  0.7181
28264SOL     OW87170   9.340   8.082   5.173 -0.4540  0.1884  0.1423
28264SOL    HW187171   9.327   7.993   5.139  0.5930  0.8181 -2.0946
28264SOL    HW287172   9.277   8.135   5.124  1.3618  1.1994 -1.1900
28265SOL     OW87173  10.211   3.845   7.877  0.0454  0.0505  0.3896
28265SOL    HW187174  10.116   3.833   7.882 -0.1985  1.1588 -1.0380
28265SOL    HW287175  10.247   3.759   7.899 -1.2937 -0.4576  0.6731
28266SOL     OW87176   3.662   8.997   7.786  0.1722  0.3192  0.4859
28266SOL    HW187177   3.700   9.077   7.821 -1.7624  1.1344  0.8239
28266SOL    HW287178   3.670   9.006   7.691 -1.2766  1.6303  0.4364
28267SOL     OW87179   1.361   5.544   5.125 -0.0253  0.5270 -0.5114
28267SOL    HW187180   1.297   5.588   5.069 -1.0444  0.5561  0.6406
28267SOL    HW287181   1.413   5.615   5.162 -0.2554  0.6094 -0.3433
28268SOL     OW87182   4.941   5.154   8.704  0.5739  0.3914 -0.1140
28268SOL    HW187183   4.865   5.125   8.755  0.3100  1.3069  0.0342
28268SOL    HW287184   5.011   5.093   8.728 -0.1172 -0.4596 -0.2565
28269SOL     OW87185   4.258   5.548   8.138 -0.1717  0.7546  0.9326
28269SOL    HW187186   4.212   5.469   8.108 -0.0483  1.1839 -0.4329
28269SOL    HW287187   4.329   5.514   8.194  0.5147 -0.1933 -0.4511
28270SOL     OW87188   5.602   0.242   6.670  0.0622 -0.0713  0.4028
28270SOL    HW187189   5.591   0.216   6.762 -0.3703  0.0449  0.3867
28270SOL    HW287190   5.619   0.160   6.624  0.1961 -0.1411  0.5749
28271SOL     OW87191   0.525   3.151   6.773  0.7871  0.0152  0.0310
28271SOL    HW187192   0.613   3.112   6.767  0.8689  0.0962  0.6822
28271SOL    HW287193   0.471   3.094   6.718  1.0892 -0.4963  0.2545
28272SOL     OW87194  10.214   4.270   8.636  0.2750  0.0806 -0.1905
28272SOL    HW187195  10.273   4.328   8.684  1.1165  0.4636 -1.6115
28272SOL    HW287196  10.129   4.283   8.676  0.8438  0.7881  0.8193
28273SOL     OW87197   2.703   7.062   4.659  0.1388  0.4023 -0.1899
28273SOL    HW187198   2.682   7.154   4.640 -0.7816  0.7823  2.3023
28273SOL    HW287199   2.619   7.019   4.671  0.5573 -0.8484 -1.4274
28274SOL     OW87200   3.242   3.649   5.525  0.1243  0.0893  0.2402
28274SOL    HW187201   3.208   3.724   5.475 -0.3944 -0.9558 -1.0386
28274SOL    HW287202   3.168   3.589   5.532  0.3631 -0.0421  1.8053
28275SOL     OW87203   3.636   5.752   6.853 -0.1292 -0.8799 -1.0304
28275SOL    HW187204   3.727   5.764   6.826 -0.0640 -0.9587 -0.8492
28275SOL    HW287205   3.585   5.763   6.773  0.1157 -1.7895 -1.3310
28276SOL     OW87206   7.077   0.736   2.244  0.1326  0.0529 -0.5849
28276SOL    HW187207   7.170   0.722   2.260 -0.1433 -0.9002  0.2862
28276SOL    HW287208   7.058   0.820   2.286  0.7104  0.5284 -1.2629
28277SOL     OW87209   4.747   5.398   4.246 -0.7358 -0.5019  0.5440
28277SOL    HW187210   4.806   5.389   4.171 -0.5637 -1.1211  0.7460
28277SOL    HW287211   4.784   5.339   4.312 -1.3018 -0.5151  0.8521
28278SOL     OW87212  10.422   8.255   5.085 -0.2167  0.3848 -0.0323
28278SOL    HW187213  10.371   8.334   5.103  0.1691  0.1201  2.6298
28278SOL    HW287214  10.502   8.267   5.135  2.1048  0.4023 -3.4238
28279SOL     OW87215   1.885   6.427   6.281 -0.4060  0.5079 -0.5135
28279SOL    HW187216   1.919   6.490   6.345  1.4329 -1.2827  0.3688
28279SOL    HW287217   1.891   6.474   6.197  1.7071  1.2602 -0.0052
28280SOL     OW87218  10.182   9.116   8.467 -0.2693 -0.2894  0.4868
28280SOL    HW187219  10.099   9.101   8.422  0.3128 -1.7335 -0.1915
28280SOL    HW287220  10.206   9.030   8.502  1.0357  0.0409  0.4647
28281SOL     OW87221   8.616   3.950   5.446  0.2839 -0.2197  0.2131
28281SOL    HW187222   8.581   3.960   5.535  0.3601  2.8655  0.0268
28281SOL    HW287223   8.579   3.868   5.414 -1.4225 -0.3735  2.3583
28282SOL     OW87224   7.576   5.706   5.311 -0.1376 -0.3739 -0.1975
28282SOL    HW187225   7.621   5.623   5.296  0.3521 -0.4163  1.3002
28282SOL    HW287226   7.501   5.683   5.366  0.2497  0.2078  0.5965
28283SOL     OW87227   0.473   9.381   9.428  0.3379 -0.0753  0.0310
28283SOL    HW187228   0.513   9.456   9.384  2.4918 -1.5620 -0.7314
28283SOL    HW287229   0.534   9.360   9.499 -0.9009 -0.3321  1.0544
28284SOL     OW87230   9.663   0.941   5.698 -0.2404 -0.0904  0.0391
28284SOL    HW187231   9.623   0.882   5.762 -0.5831 -0.9372 -0.9359
28284SOL    HW287232   9.653   1.028   5.737 -2.0578 -0.3901  0.3441
28285SOL     OW87233   7.516   5.224   8.532 -0.3085  0.4171 -0.0420
28285SOL    HW187234   7.579   5.278   8.580  0.3947 -2.0786  2.0746
28285SOL    HW287235   7.431   5.262   8.552  0.2136  1.2368  0.6709
28286SOL     OW87236  10.240   2.039   7.343  0.0008 -0.3975  0.4667
28286SOL    HW187237  10.216   1.946   7.342 -0.6539 -0.2512 -1.5935
28286SOL    HW287238  10.220   2.070   7.255  1.4901  1.3968  0.6950
28287SOL     OW87239   4.585   1.168   3.684 -0.1258  0.2959 -0.1627
28287SOL    HW187240   4.561   1.246   3.634  2.5933 -0.4254 -2.8871
28287SOL    HW287241   4.525   1.100   3.653  0.1015  0.3954 -0.8413
28288SOL     OW87242   2.625   8.900   9.266 -0.3316 -0.1616  0.0145
28288SOL    HW187243   2.577   8.913   9.348 -1.4639 -0.4453 -0.5757
28288SOL    HW287244   2.631   8.987   9.227  0.5890  0.0410  0.5918
28289SOL     OW87245   4.618   7.271   3.828 -0.8365 -0.3597 -0.4350
28289SOL    HW187246   4.578   7.205   3.884 -0.8667 -1.2894 -1.5277
28289SOL    HW287247   4.586   7.251   3.740 -1.0471  1.2640 -0.7638
28290SOL     OW87248   3.139   9.483   9.267 -0.6228  0.0589  0.4129
28290SOL    HW187249   3.138   9.560   9.211  1.7412 -1.0268 -1.3001
28290SOL    HW287250   3.051   9.446   9.260 -0.4736  0.0452 -2.5903
28291SOL     OW87251   2.354   5.275   0.072 -0.0441  1.0155  0.3805
28291SOL    HW187252   2.428   5.215   0.075  0.6490  1.8510  0.5855
28291SOL    HW287253   2.394   5.362   0.074 -1.0237  1.4864  0.2251
28292SOL     OW87254   2.745   8.648   5.228 -0.0962 -0.6062  0.1208
28292SOL    HW187255   2.774   8.569   5.273 -0.1697 -1.7518 -1.7629
28292SOL    HW287256   2.654   8.633   5.206  0.3456 -0.7967 -1.7944
28293SOL     OW87257   6.065   9.546  10.260  0.2383 -0.9546 -0.0923
28293SOL    HW187258   6.111   9.630  10.268 -1.0191 -0.2391 -0.1593
28293SOL    HW287259   6.007   9.544  10.337 -1.0844 -0.8946 -1.0594
28294SOL     OW87260   9.932   0.366   7.624 -0.0559 -0.1390 -0.3874
28294SOL    HW187261   9.929   0.370   7.529 -1.6790 -1.1154 -0.4237
28294SOL    HW287262   9.991   0.437   7.650  0.5821 -0.0043 -2.1155
28295SOL     OW87263  10.383   6.184   6.158  0.1134 -0.1672 -0.5594
28295SOL    HW187264  10.389   6.185   6.063  0.0600  3.7586 -0.6563
28295SOL    HW287265  10.400   6.274   6.185 -1.3115 -0.7994  3.0731
28296SOL     OW87266   4.280   0.567   2.289 -0.4186  0.0519 -0.2284
28296SOL    HW187267   4.347   0.535   2.349 -1.1367 -0.2471  0.4318
28296SOL    HW287268   4.253   0.651   2.327 -0.8229 -0.1045 -0.1703
28297SOL     OW87269   8.141   0.068   2.804  0.2978  0.4101  0.2406
28297SOL    HW187270   8.047   0.088   2.801 -0.0184 -0.9783 -0.7491
28297SOL    HW287271   8.176   0.108   2.725  0.3133  0.0380  0.0528
28298SOL     OW87272   8.690   2.153   3.370  0.1375 -0.0074 -0.6702
28298SOL    HW187273   8.720   2.066   3.345  0.5275  0.0868 -0.5323
28298SOL    HW287274   8.730   2.169   3.456 -0.5178  0.0102 -0.3625
28299SOL     OW87275   8.509   8.308   8.464 -0.6479  0.0664  0.4314
28299SOL    HW187276   8.580   8.328   8.403 -0.3233  1.5658  1.2565
28299SOL    HW287277   8.453   8.247   8.417  0.4787 -0.1006 -0.7340
28300SOL     OW87278   9.905   2.883   2.436  0.1125  0.3985 -0.1425
28300SOL    HW187279   9.891   2.935   2.515  0.7846 -0.2979  0.4507
28300SOL    HW287280   9.996   2.901   2.411  0.2010 -0.1011 -0.2069
28301SOL     OW87281   9.482   3.494   1.132  0.0309  0.2853 -0.8698
28301SOL    HW187282   9.493   3.429   1.063 -1.1345  1.1435 -1.8982
28301SOL    HW287283   9.562   3.547   1.127 -0.4621  0.9331 -2.2283
28302SOL     OW87284   9.233   1.105   6.399  0.0445  0.1220 -0.1313
28302SOL    HW187285   9.323   1.071   6.402 -0.2503 -0.6614  2.6209
28302SOL    HW287286   9.243   1.200   6.403  0.7493  0.0515 -0.1066
28303SOL     OW87287   2.587   9.037   7.840  0.1811 -0.4614  0.1318
28303SOL    HW187288   2.553   9.109   7.788  0.5710 -2.0606 -2.5688
28303SOL    HW287289   2.678   9.061   7.858 -0.2438  0.5613  0.9772
28304SOL     OW87290   7.489   8.910   0.231 -0.2700  0.4029 -0.0152
28304SOL    HW187291   7.493   8.972   0.304  0.2974  0.3711 -0.0105
28304SOL    HW287292   7.452   8.830   0.269 -1.1431  0.7789 -0.0553
28305SOL     OW87293   7.127   8.947   9.681 -0.0884 -0.2808  0.6925
28305SOL    HW187294   7.058   8.976   9.740  1.4317  2.1838  1.3736
28305SOL    HW287295   7.085   8.881   9.626 -2.4759 -0.1449  2.2252
28306SOL     OW87296   7.521   5.632   3.860 -0.0727 -0.2848 -0.4395
28306SOL    HW187297   7.551   5.635   3.769  0.9295 -2.2854 -0.2260
28306SOL    HW287298   7.445   5.575   3.859 -1.2398  1.2195 -0.2787
28307SOL     OW87299   4.451   9.708   8.130 -0.1671  0.0124  0.0801
28307SOL    HW187300   4.499   9.681   8.208 -0.9848 -0.9845  0.2638
28307SOL    HW287301   4.518   9.723   8.064  0.4253 -1.6499  0.2383
28308SOL     OW87302   1.732   3.075   2.469  0.0066  0.4621 -0.4682
28308SOL    HW187303   1.704   3.008   2.532 -2.6087  1.5738 -0.3237
28308SOL    HW287304   1.784   3.136   2.521  1.7186 -0.9331 -0.4267
28309SOL     OW87305   9.612   1.588   7.678  0.0082 -0.1438  0.0458
28309SOL    HW187306   9.560   1.618   7.752  1.0790  0.0956  0.7245
28309SOL    HW287307   9.568   1.509   7.648 -0.3937 -0.2941  1.0005
28310SOL     OW87308   6.341   3.461   0.968 -0.0115  0.6586 -0.1498
28310SOL    HW187309   6.269   3.422   0.918  0.9500  0.4019 -1.3913
28310SOL    HW287310   6.360   3.396   1.037 -0.5169  0.4217 -0.2299
28311SOL     OW87311   2.777  10.731   0.827  0.4101  0.5713  0.0482
28311SOL    HW187312   2.802  10.638   0.828 -1.9540 -0.1529  2.3495
28311SOL    HW287313   2.861  10.778   0.825  1.8214 -1.6458  1.9976
28312SOL     OW87314   7.957   8.007   9.436 -0.3679 -0.2790  0.6899
28312SOL    HW187315   7.881   8.020   9.379 -1.4130 -2.0489  1.6199
28312SOL    HW287316   7.989   8.096   9.453 -1.7352  0.4531 -0.3626
28313SOL     OW87317   2.389   5.308   7.104 -0.5513  0.2036  0.5610
28313SOL    HW187318   2.339   5.293   7.184 -0.5122 -1.3276  0.3422
28313SOL    HW287319   2.475   5.337   7.134  0.0493 -2.0256  1.2146
28314SOL     OW87320   3.761   0.047   3.610 -0.2675  0.9009 -0.4383
28314SOL    HW187321   3.689   0.055   3.547 -0.7510  0.4730  0.0515
28314SOL    HW287322   3.753   0.123   3.666 -0.9846  0.3361  0.2582
28315SOL     OW87323   2.514   5.625   4.463  0.6648  0.0799  0.5529
28315SOL    HW187324   2.430   5.593   4.432  1.7954 -2.2449 -0.3577
28315SOL    HW287325   2.520   5.714   4.429 -0.7851 -0.2410 -0.6394
28316SOL     OW87326   2.415   7.303   4.791  0.1919  0.1906  0.1615
28316SOL    HW187327   2.346   7.241   4.770 -0.1677  0.2517  1.1154
28316SOL    HW287328   2.480   7.291   4.722 -0.9009  0.3533 -0.9095
28317SOL     OW87329   9.807   1.042   7.383 -0.2181 -0.3076 -0.6981
28317SOL    HW187330   9.736   0.979   7.367  1.2420 -1.6094 -2.5056
28317SOL    HW287331   9.871   0.993   7.435  0.7448 -0.2408 -1.7731
28318SOL     OW87332   2.642   6.954   9.071 -0.1405  0.0421 -0.1979
28318SOL    HW187333   2.668   6.868   9.038  0.1336 -0.8455  2.1975
28318SOL    HW287334   2.721   7.008   9.061 -0.1299 -0.1332 -1.1532
28319SOL     OW87335   9.192   1.810   8.679 -0.3371 -0.5264  0.3219
28319SOL    HW187336   9.191   1.763   8.596 -3.2394  0.7277 -0.4795
28319SOL    HW287337   9.152   1.894   8.660  2.3105  1.3698  2.2619
28320SOL     OW87338   2.280   6.335   3.704 -0.0634  0.1600  0.2747
28320SOL    HW187339   2.332   6.410   3.672 -1.9374  1.9944  1.2730
28320SOL    HW287340   2.296   6.266   3.639  2.3849  1.0981 -0.2600
28321SOL     OW87341   2.853   0.529  10.747 -0.0697 -0.6310  0.1614
28321SOL    HW187342   2.771   0.540  10.795  0.4288 -0.6007  1.0198
28321SOL    HW287343   2.826   0.529  10.655 -1.0321 -0.6248  0.4260
28322SOL     OW87344   9.665   8.588   9.702 -0.0689 -0.0690 -0.2932
28322SOL    HW187345   9.701   8.544   9.625 -0.7388 -0.7603 -0.2250
28322SOL    HW287346   9.725   8.660   9.719  0.9938 -0.8802 -0.4857
28323SOL     OW87347   3.190   0.136   9.616 -0.1815  0.0850  0.0686
28323SOL    HW187348   3.171   0.042   9.605  1.1665 -0.5298  2.2762
28323SOL    HW287349   3.111   0.171   9.657 -0.4427 -0.2309 -0.1543
28324SOL     OW87350   8.953   4.635   1.561  0.1587 -0.0232 -0.1492
28324SOL    HW187351   8.919   4.668   1.478  2.6825  0.2185 -1.1712
28324SOL    HW287352   8.968   4.541   1.545 -1.3373 -0.4525  0.7792
28325SOL     OW87353   5.675   5.907   3.874  0.5482  0.0524  0.3831
28325SOL    HW187354   5.615   5.833   3.876  1.4621 -0.7711 -0.9926
28325SOL    HW287355   5.619   5.984   3.887 -0.6830 -0.7517  0.0190
28326SOL     OW87356   5.561   7.017   0.683 -0.2842  0.2433 -0.7036
28326SOL    HW187357   5.497   7.063   0.737 -0.4654 -1.0422  0.2293
28326SOL    HW287358   5.634   7.001   0.742  0.8244  1.4355 -1.6788
28327SOL     OW87359   2.375   5.288   0.906  0.1683  0.0856 -0.2970
28327SOL    HW187360   2.281   5.276   0.904  0.2367 -0.3322 -1.5227
28327SOL    HW287361   2.393   5.323   0.993 -1.1101  0.1664 -0.0552
28328SOL     OW87362  10.393   8.928   5.745  0.3988 -0.2803  0.3704
28328SOL    HW187363  10.299   8.940   5.753  0.5960  0.6397  1.5069
28328SOL    HW287364  10.409   8.925   5.650 -0.8056 -0.9018  0.1663
28329SOL     OW87365   8.502   4.662   7.524 -0.0918  0.3473  0.4334
28329SOL    HW187366   8.483   4.681   7.616 -0.0548 -2.7192  1.1970
28329SOL    HW287367   8.417   4.665   7.480 -0.3464  0.3064  0.9164
28330SOL     OW87368   5.493   8.480   4.595 -0.2367 -0.3484 -0.1024
28330SOL    HW187369   5.539   8.436   4.667  1.7268 -2.6573 -2.5572
28330SOL    HW287370   5.549   8.555   4.574  0.1902 -0.7362 -0.3767
28331SOL     OW87371   7.427   5.740   9.889 -0.1508  0.3640  0.4446
28331SOL    HW187372   7.382   5.662   9.857 -0.7581  0.2784  1.4467
28331SOL    HW287373   7.411   5.740   9.984 -1.5737  2.5800  0.2812
28332SOL     OW87374   2.717   1.153   9.022  0.1928 -0.3526  0.3234
28332SOL    HW187375   2.748   1.188   9.105 -0.7181  0.9516  0.1546
28332SOL    HW287376   2.797   1.135   8.972  0.7542 -1.1947  1.4607
28333SOL     OW87377   3.582   7.503   4.516 -0.3655 -0.0116 -0.1616
28333SOL    HW187378   3.506   7.536   4.566 -1.1281  1.0549 -1.9250
28333SOL    HW287379   3.643   7.576   4.515  0.0440 -0.3483 -0.0337
28334SOL     OW87380   5.285   0.939   5.275 -0.4504 -0.4906 -0.1754
28334SOL    HW187381   5.197   0.921   5.243 -0.5980  2.0682 -1.4440
28334SOL    HW287382   5.321   1.003   5.214  1.8084 -0.4598  1.0596
28335SOL     OW87383   2.183   8.610   3.991 -0.3244  0.2240 -0.3071
28335SOL    HW187384   2.252   8.662   3.949 -0.3442 -0.3270 -1.0439
28335SOL    HW287385   2.203   8.615   4.085 -0.6381  1.9800 -0.3115
28336SOL     OW87386   6.539   3.375   6.138  0.1521 -0.6657 -0.5973
28336SOL    HW187387   6.520   3.400   6.228  1.6570 -0.6796 -0.2502
28336SOL    HW287388   6.468   3.415   6.087  1.6122  3.2606  0.0646
28337SOL     OW87389   6.439   2.608   2.632 -0.0834  0.1828 -0.0371
28337SOL    HW187390   6.492   2.610   2.711 -1.5565  0.0641  1.0053
28337SOL    HW287391   6.403   2.519   2.629 -1.7693  0.8098  0.3992
28338SOL     OW87392   3.672   9.134   7.533  0.0348  0.0520  0.3463
28338SOL    HW187393   3.583   9.167   7.525 -0.1176 -0.1031  1.2760
28338SOL    HW287394   3.728   9.208   7.512 -0.2740 -0.3719 -2.3243
28339SOL     OW87395   7.652   1.455   5.179  0.1313 -0.3003 -0.0653
28339SOL    HW187396   7.718   1.403   5.225 -1.2528 -1.6877  0.4495
28339SOL    HW287397   7.644   1.534   5.231  0.5866 -0.6132  0.4953
28340SOL     OW87398   6.910   2.453   3.062 -0.4484  0.3047  0.0434
28340SOL    HW187399   6.818   2.464   3.037 -0.5507  0.6045  0.5271
28340SOL    HW287400   6.907   2.392   3.137 -0.0746 -1.3407 -1.2166
28341SOL     OW87401   6.140   9.039   3.650 -0.2962 -0.1733 -0.2561
28341SOL    HW187402   6.216   8.982   3.641 -0.0403  0.4732 -3.2104
28341SOL    HW287403   6.176   9.123   3.679  0.2069  0.1913 -1.8482
28342SOL     OW87404   7.609   7.496   3.961 -0.0830  0.7190  0.1540
28342SOL    HW187405   7.665   7.571   3.981  0.2177 -0.1302  2.8992
28342SOL    HW287406   7.521   7.523   3.989 -0.5819  1.0504 -1.5967
28343SOL     OW87407   7.062   8.440   8.639 -0.1037 -0.4180 -0.4374
28343SOL    HW187408   7.099   8.516   8.595 -2.3762  0.7226 -0.5073
28343SOL    HW287409   7.131   8.374   8.634  1.3052  1.0605 -1.8825
28344SOL     OW87410   1.921   9.760   7.178  0.3426 -0.0265 -0.2615
28344SOL    HW187411   1.949   9.670   7.160  0.1273 -0.3518  0.9706
28344SOL    HW287412   1.893   9.759   7.269  1.7766  1.6608  0.2388
28345SOL     OW87413   6.469  10.701   7.397  0.1191  0.2413 -0.2499
28345SOL    HW187414   6.521  10.760   7.451  1.2101 -0.0707 -0.9395
28345SOL    HW287415   6.520  10.620   7.393 -0.5755 -0.1847 -0.6661
28346SOL     OW87416   5.985   0.289   8.196 -0.0807  0.3452 -0.6306
28346SOL    HW187417   5.912   0.284   8.258 -0.5784  0.3274 -1.2014
28346SOL    HW287418   6.049   0.347   8.237  1.0444 -2.1157  1.3394
28347SOL     OW87419   0.939   7.637   5.424  0.2372  0.5544 -0.3361
28347SOL    HW187420   0.924   7.713   5.481  0.4178 -0.4148  1.0652
28347SOL    HW287421   0.851   7.612   5.396  0.2858  2.2302 -2.1618
28348SOL     OW87422   0.039   9.010   2.586 -0.0662  0.3713 -0.0408
28348SOL    HW187423   0.007   8.921   2.573  1.5199 -0.3426  0.6603
28348SOL    HW287424   0.127   9.009   2.548  1.0781  0.8110  2.4328
28349SOL     OW87425   9.732   5.718   4.413  0.0511  0.4453  0.0339
28349SOL    HW187426   9.749   5.741   4.504  0.2690  1.6876 -0.2975
28349SOL    HW287427   9.787   5.778   4.363 -0.3117 -0.0035 -0.9280
28350SOL     OW87428   6.989   8.102   8.962  0.2289  0.7619  0.0161
28350SOL    HW187429   7.064   8.157   8.938  0.4004  0.7286  0.4662
28350SOL    HW287430   6.962   8.134   9.048  0.0345  0.4474  0.0725
28351SOL     OW87431   0.749   0.862   9.738  0.3726  0.3025  0.1523
28351SOL    HW187432   0.681   0.910   9.785 -0.4711 -0.1528 -0.5643
28351SOL    HW287433   0.734   0.770   9.761 -1.0928 -0.1403 -2.1604
28352SOL     OW87434   4.266   0.246   5.968  0.4028 -0.2392  0.4979
28352SOL    HW187435   4.222   0.250   6.053 -0.3895  0.8214  0.0560
28352SOL    HW287436   4.337   0.310   5.975 -0.7426  1.1816 -0.1970
28353SOL     OW87437   8.881   9.709   7.143  0.3599 -0.0845  0.0968
28353SOL    HW187438   8.928   9.791   7.130 -0.2973  0.2765 -0.0823
28353SOL    HW287439   8.789   9.735   7.151  0.0532 -0.8663 -0.6910
28354SOL     OW87440   6.598   4.757   4.695  0.2220 -0.4937 -0.2087
28354SOL    HW187441   6.593   4.824   4.764 -0.3049 -0.5918 -0.1524
28354SOL    HW287442   6.682   4.714   4.710  0.5467  0.1241 -0.2173
28355SOL     OW87443   9.553   8.878   5.018  0.4178  0.2037  1.0704
28355SOL    HW187444   9.567   8.855   5.109  1.6553 -0.2801  0.7756
28355SOL    HW287445   9.625   8.837   4.971 -0.1288  0.5396 -0.1170
28356SOL     OW87446   4.019   4.484   3.016 -0.1399  0.4188 -0.6326
28356SOL    HW187447   3.957   4.536   2.966 -0.5586  0.5554  0.0114
28356SOL    HW287448   4.059   4.545   3.078 -0.5327  0.0219  0.0328
28357SOL     OW87449   7.387   7.803  10.594  0.3264  0.5793  0.1341
28357SOL    HW187450   7.440   7.785  10.672 -0.4397  0.2792  0.5879
28357SOL    HW287451   7.300   7.824  10.628 -0.5844 -1.6018 -0.7056
28358SOL     OW87452   2.156  10.447  10.449 -0.4224 -0.4099  0.1769
28358SOL    HW187453   2.101  10.422  10.375 -0.9824 -0.3037  0.5535
28358SOL    HW287454   2.228  10.496  10.410 -0.9259 -0.0137 -0.2604
28359SOL     OW87455   5.348   6.204   9.253 -0.3492  0.1292 -0.2888
28359SOL    HW187456   5.305   6.155   9.323 -0.6806  0.0130 -0.5712
28359SOL    HW287457   5.393   6.138   9.201 -1.1721  0.0613 -0.9368
28360SOL     OW87458   1.432   3.108   5.886 -0.0512  0.1114  0.6222
28360SOL    HW187459   1.418   3.025   5.841 -1.2651  0.3660  0.5159
28360SOL    HW287460   1.371   3.169   5.844  0.9661  1.1188  0.5598
28361SOL     OW87461   0.539   4.661  10.620 -0.3225  0.5865 -0.5497
28361SOL    HW187462   0.509   4.648  10.710  0.0118 -0.3935 -0.5755
28361SOL    HW287463   0.576   4.749  10.620  2.5814 -0.4999  1.1118
28362SOL     OW87464   2.552   3.011   9.067  0.3141  0.2843  0.1709
28362SOL    HW187465   2.633   2.991   9.021  0.5356  1.4919 -0.0096
28362SOL    HW287466   2.500   3.062   9.005 -0.4041 -0.1019  0.4370
28363SOL     OW87467   2.394   2.572   2.754 -0.3013  0.4115 -0.4643
28363SOL    HW187468   2.304   2.601   2.769 -2.3576 -4.3969 -1.6383
28363SOL    HW287469   2.417   2.523   2.833  1.2232  1.2761 -0.3390
28364SOL     OW87470  10.721   4.077  10.285 -0.5140 -0.1712 -0.3497
28364SOL    HW187471  10.662   4.114  10.351 -0.7635  0.5998 -1.0006
28364SOL    HW287472  10.789   4.034  10.336 -0.4624  0.7949  0.4224
28365SOL     OW87473   4.179   9.719   8.626  0.4212  0.7164  0.1870
28365SOL    HW187474   4.116   9.666   8.675 -1.9451 -0.4307 -3.6949
28365SOL    HW287475   4.146   9.809   8.633 -0.5966  0.3899 -0.2379
28366SOL     OW87476  10.544   9.055   0.996 -0.9474  0.5181 -1.0998
28366SOL    HW187477  10.582   9.142   1.007 -1.0637  0.2711  2.6433
28366SOL    HW287478  10.468   9.054   1.055 -1.0881 -2.0415 -1.1821
28367SOL     OW87479   7.137   0.481   1.048  0.3142 -0.7921 -0.4774
28367SOL    HW187480   7.092   0.565   1.046 -0.4331 -1.1855 -0.4845
28367SOL    HW287481   7.119   0.446   1.135  1.0212 -0.7357 -0.3021
28368SOL     OW87482   4.138   1.530   4.786  0.1190  0.1785 -0.0569
28368SOL    HW187483   4.046   1.557   4.777  0.1455  0.0338 -0.8464
28368SOL    HW287484   4.154   1.475   4.709  1.0672  0.7702 -0.2940
28369SOL     OW87485   6.389  10.388  10.177 -0.2662  0.2591 -0.6600
28369SOL    HW187486   6.385  10.301  10.138  0.6995 -0.0511 -0.0780
28369SOL    HW287487   6.311  10.393  10.232 -0.0193 -0.4737 -0.2245
28370SOL     OW87488   8.214   3.271   5.023  0.2189  0.3322 -0.3042
28370SOL    HW187489   8.257   3.352   4.996 -2.0514  0.8234 -2.9699
28370SOL    HW287490   8.151   3.298   5.089  0.2052  0.5449 -0.4031
28371SOL     OW87491   4.065   6.664   1.226  0.3791 -0.8194  0.2019
28371SOL    HW187492   3.988   6.618   1.194 -0.2857  0.9383 -0.8579
28371SOL    HW287493   4.137   6.602   1.211 -0.4762 -1.5505 -1.1335
28372SOL     OW87494  10.062   7.363   1.067  0.2086 -0.0188 -0.2591
28372SOL    HW187495  10.001   7.336   0.998 -1.0625  1.3037  0.3034
28372SOL    HW287496  10.016   7.431   1.115  1.9801  0.7384  0.4675
28373SOL     OW87497   0.170   7.760   8.117 -0.5572  0.5243 -0.1477
28373SOL    HW187498   0.250   7.709   8.136  0.1321  2.3217  2.2207
28373SOL    HW287499   0.106   7.727   8.180 -1.2673  0.0957 -1.0767
28374SOL     OW87500   5.811   1.841   6.738 -0.2151  0.2198 -0.2642
28374SOL    HW187501   5.886   1.891   6.770 -0.0145 -1.0945  1.4797
28374SOL    HW287502   5.840   1.750   6.742 -0.9163 -0.1506 -2.3851
28375SOL     OW87503   0.212   4.991  10.248  0.3461  0.7092 -0.4316
28375SOL    HW187504   0.304   5.000  10.275  0.2399  0.9087 -0.1288
28375SOL    HW287505   0.181   4.914  10.295  0.1539  1.0715  0.0402
28376SOL     OW87506   0.202   8.453   7.180  0.3748  0.1557 -0.0816
28376SOL    HW187507   0.207   8.452   7.084 -0.3423 -0.0663 -0.1258
28376SOL    HW287508   0.293   8.455   7.209  0.6422 -0.9425 -0.7657
28377SOL     OW87509   1.691   5.634   5.597 -0.2425 -0.5690 -0.1584
28377SOL    HW187510   1.625   5.674   5.540 -0.3495 -0.6563 -0.0985
28377SOL    HW287511   1.643   5.615   5.678  0.1397  0.4407  0.3257
28378SOL     OW87512   8.643   7.852   5.171  0.7090 -0.1403 -0.0366
28378SOL    HW187513   8.666   7.939   5.138  2.1838 -0.8812 -1.0329
28378SOL    HW287514   8.565   7.867   5.224  2.2994  2.1870  1.8440
28379SOL     OW87515  10.364   8.242   2.153  0.8868 -0.1147 -0.2508
28379SOL    HW187516  10.456   8.231   2.128  0.8744  0.1099 -0.4056
28379SOL    HW287517  10.366   8.305   2.225  0.8027  0.4530 -0.7321
28380SOL     OW87518   8.448   8.641   8.286  0.0361 -0.0464  0.2941
28380SOL    HW187519   8.518   8.646   8.351  0.5735 -0.2314 -0.2542
28380SOL    HW287520   8.418   8.732   8.276  3.7221  1.1157 -3.1678
28381SOL     OW87521   4.435   7.459   8.937  0.4336  0.0081  0.7006
28381SOL    HW187522   4.370   7.528   8.948 -0.5207 -1.0975  2.3970
28381SOL    HW287523   4.516   7.505   8.918 -0.2033  1.6029  1.6671
28382SOL     OW87524   3.923   8.254   2.240 -0.0821 -0.4144 -0.0924
28382SOL    HW187525   3.974   8.226   2.164  2.7160 -0.3408  1.6234
28382SOL    HW287526   3.953   8.343   2.258 -1.2155 -0.1701  0.6996
28383SOL     OW87527   7.282  10.229   0.606  0.0263  0.0130  0.4061
28383SOL    HW187528   7.299  10.138   0.630  3.0454  0.2922 -0.2661
28383SOL    HW287529   7.209  10.255   0.662 -0.0258 -2.4064  1.6121
28384SOL     OW87530   7.349   0.234   0.415  0.3079  0.3536 -0.2534
28384SOL    HW187531   7.414   0.264   0.352 -0.2570  0.6602 -0.7028
28384SOL    HW287532   7.372   0.143   0.433  0.7605  0.4133 -0.5340
28385SOL     OW87533   4.022   4.615   1.562  0.6221 -0.2245  0.1915
28385SOL    HW187534   3.992   4.524   1.571 -1.6940  0.3758 -0.7017
28385SOL    HW287535   3.969   4.664   1.626  2.2419  0.4660  1.0632
28386SOL     OW87536   0.036  10.335   6.712  0.2680  0.3490  0.0304
28386SOL    HW187537   0.001  10.339   6.623  1.4272 -0.1960 -0.4750
28386SOL    HW287538   0.125  10.302   6.701  1.2589  2.4577  1.1971
28387SOL     OW87539   4.644   2.718   3.489 -0.1093  0.1536 -0.5840
28387SOL    HW187540   4.580   2.650   3.509 -1.1017  1.4665  1.0382
28387SOL    HW287541   4.727   2.684   3.522 -0.0570 -1.2995 -2.1193
28388SOL     OW87542   6.926   6.700   2.044 -0.2575  0.4105  0.7360
28388SOL    HW187543   6.919   6.741   1.957  1.1621  0.8685  0.8167
28388SOL    HW287544   6.973   6.765   2.097  2.4872 -1.4464  0.7511
28389SOL     OW87545   3.021   2.185   5.299  0.9545 -0.2274 -0.3759
28389SOL    HW187546   2.951   2.180   5.234 -0.5076 -0.2203  1.1333
28389SOL    HW287547   3.017   2.274   5.333 -0.2698 -1.0071  1.7400
28390SOL     OW87548   4.825   1.650   5.369  0.3021  0.5397 -0.1179
28390SOL    HW187549   4.741   1.636   5.413  0.4858  0.9612  0.3836
28390SOL    HW287550   4.860   1.562   5.355 -0.0741  0.3764 -0.0362
28391SOL     OW87551   2.755   0.404   7.847  0.2937 -0.7910  0.7233
28391SOL    HW187552   2.845   0.376   7.835  0.6867  1.0249 -1.0532
28391SOL    HW287553   2.702   0.335   7.807  0.9335 -1.3705  0.8629
28392SOL     OW87554   1.030  10.127   5.181 -0.1650 -0.4411  0.4670
28392SOL    HW187555   1.005  10.219   5.183  0.1225  0.0363 -4.3655
28392SOL    HW287556   1.120  10.127   5.149  0.5012 -2.4232  2.1480
28393SOL     OW87557   8.042   1.343   4.720 -0.3284  0.3281  0.0055
28393SOL    HW187558   8.121   1.389   4.747 -1.9110  1.8641  2.3198
28393SOL    HW287559   7.983   1.411   4.689 -1.0340 -0.6965 -0.9776
28394SOL     OW87560   5.142   6.356   0.523  0.1519 -0.5286  0.9581
28394SOL    HW187561   5.196   6.403   0.459 -0.2321 -3.0284 -1.3947
28394SOL    HW287562   5.205   6.310   0.578  0.5051 -1.2055  0.0216
28395SOL     OW87563   6.471   0.315   4.640 -0.5277  0.0835  0.2296
28395SOL    HW187564   6.553   0.348   4.675 -0.4484  0.5966 -0.4172
28395SOL    HW287565   6.441   0.384   4.580 -1.5866  0.0468  0.6945
28396SOL     OW87566   3.717   4.408   3.040  0.5165  0.8611 -0.7357
28396SOL    HW187567   3.763   4.451   3.112 -1.7895  1.2293  0.6150
28396SOL    HW287568   3.739   4.461   2.963  2.6206  0.7589 -0.2768
28397SOL     OW87569   4.883   7.859   7.582  0.2492  0.1587  0.1149
28397SOL    HW187570   4.929   7.784   7.620  1.5544 -0.6779 -2.8315
28397SOL    HW287571   4.883   7.925   7.652  3.6561 -0.7567  1.1688
28398SOL     OW87572   4.560   2.891   1.940  0.0409 -0.3223  0.8129
28398SOL    HW187573   4.485   2.946   1.920  0.7037  0.5492  0.6621
28398SOL    HW287574   4.607   2.883   1.857  0.3142 -0.5518  0.9889
28399SOL     OW87575   7.770   0.354   2.628 -0.3845  0.0059  0.0481
28399SOL    HW187576   7.864   0.357   2.611 -0.5589 -0.2139 -1.0277
28399SOL    HW287577   7.760   0.400   2.711  0.9100 -1.9315  1.3692
28400SOL     OW87578   2.289   5.177   1.991  0.3297 -0.2948  0.0159
28400SOL    HW187579   2.343   5.160   1.914  0.1279  2.1683 -0.7469
28400SOL    HW287580   2.200   5.185   1.957  0.2413  0.8737  0.4666
28401SOL     OW87581   5.728   2.321   9.700 -0.0137 -0.1645  0.1726
28401SOL    HW187582   5.711   2.342   9.792  0.3600  0.2516  0.1527
28401SOL    HW287583   5.658   2.365   9.652  1.2126  1.7861  0.0672
28402SOL     OW87584   2.224   3.372   4.123 -0.1742  0.2766  0.0859
28402SOL    HW187585   2.295   3.437   4.128  0.2928 -0.2675  0.7815
28402SOL    HW287586   2.167   3.404   4.054 -0.4267  1.9265  0.9944
28403SOL     OW87587   0.288   0.061   1.928 -0.5886  0.3020  0.0026
28403SOL    HW187588   0.231  -0.007   1.963 -1.2783  0.5289 -0.6733
28403SOL    HW287589   0.267   0.067   1.835  0.2853  0.6385 -0.1939
28404SOL     OW87590   9.120   8.285   9.172  0.0610 -0.5999 -0.9928
28404SOL    HW187591   9.031   8.310   9.196  0.7765  1.9968 -0.8107
28404SOL    HW287592   9.162   8.261   9.255  0.4938  1.5766 -0.5258
28405SOL     OW87593   8.015   4.072  10.285  0.2347 -0.0503  0.3647
28405SOL    HW187594   8.047   4.151  10.327  0.4253 -0.8874  1.8672
28405SOL    HW287595   8.027   4.003  10.351 -3.1685 -0.7230  0.4556
28406SOL     OW87596   8.302   9.094   1.614 -0.1829 -1.1484  0.0552
28406SOL    HW187597   8.327   9.075   1.524  1.4372  0.3872  0.1291
28406SOL    HW287598   8.362   9.042   1.667  0.4035 -0.3225  0.2262
28407SOL     OW87599   9.549   4.444   3.793 -0.0814  0.3646  0.2912
28407SOL    HW187600   9.488   4.371   3.795 -0.7424  0.9070  0.0908
28407SOL    HW287601   9.498   4.520   3.821  0.6152  0.7425  0.5804
28408SOL     OW87602   8.731   7.975   6.893 -0.0544  0.0227 -0.2417
28408SOL    HW187603   8.824   7.987   6.873 -0.2835  1.2035 -0.7202
28408SOL    HW287604   8.713   8.040   6.962  0.0249 -1.9104  1.7226
28409SOL     OW87605   8.755   2.975   6.535  0.2108  0.6271 -0.1552
28409SOL    HW187606   8.662   2.961   6.550 -0.1344  2.1587 -0.6485
28409SOL    HW287607   8.787   3.016   6.615  0.9531 -1.7289  0.8312
28410SOL     OW87608   3.196   9.464   8.949 -0.3827 -0.6641  0.0220
28410SOL    HW187609   3.289   9.483   8.961  0.2505 -4.3309  2.5994
28410SOL    HW287610   3.189   9.434   8.859  1.3922 -2.2203  0.3432
28411SOL     OW87611   6.175   2.427   3.930  0.4281  0.0524 -0.2065
28411SOL    HW187612   6.175   2.412   4.024  0.3357 -0.3107 -0.2592
28411SOL    HW287613   6.165   2.339   3.892 -0.9465  0.3183 -0.5280
28412SOL     OW87614   9.408   3.194   6.263 -0.1750 -0.5808  0.2291
28412SOL    HW187615   9.440   3.120   6.313  1.5579 -0.6116 -0.8537
28412SOL    HW287616   9.341   3.234   6.319  0.3162 -1.7409  1.6974
28413SOL     OW87617  10.609   2.735   4.228 -0.8406  0.1814 -0.1940
28413SOL    HW187618  10.577   2.808   4.282 -2.3129 -0.7468  0.2343
28413SOL    HW287619  10.530   2.693   4.194  0.0147 -0.4720 -1.4728
28414SOL     OW87620   2.289   8.707   9.948 -0.3293 -0.0667  0.6448
28414SOL    HW187621   2.350   8.664  10.009  1.2183 -0.0968 -0.8373
28414SOL    HW287622   2.232   8.637   9.917 -0.5067 -0.2348  1.3431
28415SOL     OW87623   2.083   6.907   2.378  0.4235  0.1450  0.0261
28415SOL    HW187624   2.051   6.844   2.442  0.9092  0.2463  0.3748
28415SOL    HW287625   2.012   6.916   2.315  0.0029 -0.0712  0.4670
28416SOL     OW87626  10.242   0.986   6.467  0.6094  0.3599 -0.0891
28416SOL    HW187627  10.275   1.034   6.391 -0.0121  2.0256  0.6366
28416SOL    HW287628  10.160   1.031   6.490  0.1027 -0.9510  0.7527
28417SOL     OW87629   1.405   6.698   2.994 -0.0809  0.1766 -0.3038
28417SOL    HW187630   1.481   6.754   3.001 -0.5197  0.6735  0.7739
28417SOL    HW287631   1.350   6.722   3.069 -0.3211 -1.6153  0.1610
28418SOL     OW87632   6.748   1.925   9.971 -0.4425 -0.0980 -0.0248
28418SOL    HW187633   6.703   1.953  10.051  0.0144 -0.8423  0.5014
28418SOL    HW287634   6.728   1.832   9.963  1.8096 -0.7225  0.8121
28419SOL     OW87635   0.018   2.011   6.074 -0.1715 -0.0203  0.1621
28419SOL    HW187636  -0.045   1.960   6.023 -0.6549  1.2080 -0.5242
28419SOL    HW287637   0.021   2.096   6.030  2.3976 -0.1952 -0.1808
28420SOL     OW87638   5.987  10.668   2.682 -0.2311 -0.1501 -0.2814
28420SOL    HW187639   5.961  10.665   2.774  1.0122 -0.7735  0.0807
28420SOL    HW287640   6.076  10.704   2.684 -0.5201  0.6514 -1.3217
28421SOL     OW87641   5.380   4.303   1.278  0.2626  0.2989 -0.4181
28421SOL    HW187642   5.409   4.388   1.310  2.0508  0.0364 -1.2068
28421SOL    HW287643   5.285   4.312   1.271  0.1113  1.3399  1.9517
28422SOL     OW87644   4.738   2.116   4.069  0.1340 -0.1157 -0.0174
28422SOL    HW187645   4.659   2.063   4.080  0.9636 -1.2030  0.9847
28422SOL    HW287646   4.738   2.139   3.976 -0.8193 -0.9664 -0.2541
28423SOL     OW87647   4.762   2.832   9.937 -0.1375 -0.2724 -0.2221
28423SOL    HW187648   4.752   2.915   9.890 -1.2978 -0.1174  0.2456
28423SOL    HW287649   4.674   2.794   9.937  0.2175 -1.1308  0.2493
28424SOL     OW87650   5.135   0.640   5.064 -0.1194 -0.1851  0.2798
28424SOL    HW187651   5.145   0.716   5.007  1.4623  0.5663  1.4938
28424SOL    HW287652   5.098   0.572   5.007 -0.9195  1.2593 -0.9933
28425SOL     OW87653   7.911   2.191   2.082 -0.4098 -0.0819 -0.3040
28425SOL    HW187654   7.904   2.099   2.054 -0.0016 -0.2474  0.1212
28425SOL    HW287655   8.004   2.211   2.075 -0.6664  0.7005 -1.6053
28426SOL     OW87656   0.965   4.058   0.420 -0.2790  0.4122 -0.0025
28426SOL    HW187657   1.037   4.114   0.392  0.2110  1.3777  2.7865
28426SOL    HW287658   0.939   4.010   0.342  2.3257  1.1952 -1.4585
28427SOL     OW87659   6.153   7.502   2.123  0.2060  0.5728  1.2501
28427SOL    HW187660   6.207   7.430   2.155 -1.2527 -0.6219  1.1515
28427SOL    HW287661   6.144   7.560   2.198  0.0906 -0.1771  1.8364
28428SOL     OW87662   9.666   2.791  10.661  0.2453 -0.1259 -0.0921
28428SOL    HW187663   9.667   2.853  10.734  1.2362 -1.8638  1.4473
28428SOL    HW287664   9.698   2.709  10.698 -2.9423 -2.1902 -1.5253
28429SOL     OW87665   1.817   4.988   7.310  0.0017  1.1411 -0.3496
28429SOL    HW187666   1.825   4.893   7.319 -1.1167  1.0999  0.5114
28429SOL    HW287667   1.859   5.008   7.226 -0.9302 -0.2897 -1.2035
28430SOL     OW87668   8.057   5.099   0.978 -0.1929 -0.1004 -0.0205
28430SOL    HW187669   8.128   5.067   0.922  0.7829 -1.9841  2.1469
28430SOL    HW287670   7.977   5.066   0.937  0.3366  0.1003 -1.2551
28431SOL     OW87671   5.309   9.382   9.670 -0.5092  0.2461 -0.7471
28431SOL    HW187672   5.233   9.367   9.727 -0.1448  1.2293  0.0312
28431SOL    HW287673   5.384   9.349   9.721 -0.5298 -2.0489 -2.0920
28432SOL     OW87674   5.045   7.847   8.469 -0.4846  0.4034 -0.5701
28432SOL    HW187675   4.957   7.832   8.504 -1.0696  0.5354 -1.8962
28432SOL    HW287676   5.090   7.764   8.480 -0.2615  0.7442  1.4529
28433SOL     OW87677   5.526  10.348   3.261 -0.1928 -0.4170  0.7733
28433SOL    HW187678   5.573  10.321   3.340 -0.7897  0.2935  1.3907
28433SOL    HW287679   5.588  10.403   3.213 -0.3468  0.4808  1.5589
28434SOL     OW87680   8.163   6.198   8.063 -0.1858 -0.2913 -0.2634
28434SOL    HW187681   8.233   6.151   8.019 -0.5064 -0.2098 -0.8817
28434SOL    HW287682   8.152   6.278   8.011 -0.1580  0.1064  0.3301
28435SOL     OW87683   9.147   6.613  10.500  0.2077 -0.3084 -0.1599
28435SOL    HW187684   9.242   6.603  10.509  0.3585  0.0762 -1.1750
28435SOL    HW287685   9.123   6.673  10.571  1.0627  1.2040 -1.0803
28436SOL     OW87686   2.331   6.459   5.004  0.3769 -0.9971  0.4001
28436SOL    HW187687   2.280   6.379   5.019  1.8274 -1.7303  1.7185
28436SOL    HW287688   2.412   6.429   4.965 -0.8230  0.3464 -3.5691
28437SOL     OW87689  10.249   9.998   9.449  0.6227 -0.4308 -0.9446
28437SOL    HW187690  10.318   9.981   9.385  0.9660  1.1999 -1.0261
28437SOL    HW287691  10.168   9.973   9.404  1.0043 -0.8789 -1.3960
28438SOL     OW87692   2.591  10.248   1.832  0.2266  0.1012 -0.0538
28438SOL    HW187693   2.514  10.218   1.881  1.2065  1.6681  2.6255
28438SOL    HW287694   2.560  10.258   1.742 -2.2139 -1.0001  0.5928
28439SOL     OW87695   6.177   3.960   3.419 -0.1950 -0.5489  0.7328
28439SOL    HW187696   6.187   3.866   3.407 -1.5154 -0.9502  2.5011
28439SOL    HW287697   6.176   3.973   3.513  0.5170  1.3168  0.5228
28440SOL     OW87698   3.737   9.855   7.757  0.0367 -0.2856 -0.1927
28440SOL    HW187699   3.691   9.933   7.727 -0.5573 -1.0826 -1.4361
28440SOL    HW287700   3.743   9.865   7.852  0.1259  1.3412 -0.3545
28441SOL     OW87701   2.874   2.714   4.224 -0.5192  0.1902  0.0462
28441SOL    HW187702   2.936   2.723   4.296 -1.0498 -1.9097  0.8455
28441SOL    HW287703   2.922   2.667   4.157 -0.4298  0.9996 -0.4734
28442SOL     OW87704   4.420   0.356   2.679  0.0365  0.0452 -0.5471
28442SOL    HW187705   4.412   0.301   2.756 -3.1099  0.3568 -0.5131
28442SOL    HW287706   4.364   0.432   2.697  0.2735  0.7776 -2.5924
28443SOL     OW87707   8.052   2.060   3.247  0.1421  0.3576 -0.0401
28443SOL    HW187708   7.961   2.073   3.219  0.5565 -0.0514 -1.6413
28443SOL    HW287709   8.076   1.975   3.212  0.2041 -0.9952  3.0058
28444SOL     OW87710   6.805   8.266   4.446 -0.1137  0.0732 -0.5936
28444SOL    HW187711   6.793   8.193   4.385 -2.9854 -1.0389  1.1388
28444SOL    HW287712   6.757   8.338   4.406  1.9491  0.8469 -1.8443
28445SOL     OW87713   5.711   7.773   6.812  0.0644 -0.1244 -0.0418
28445SOL    HW187714   5.747   7.744   6.728 -1.0725 -0.8438 -0.2945
28445SOL    HW287715   5.782   7.825   6.851  0.8670 -0.3630 -1.1227
28446SOL     OW87716   3.159   9.812  10.230 -0.0636  0.5425  0.2469
28446SOL    HW187717   3.082   9.818  10.286 -0.1637  1.4614  0.0326
28446SOL    HW287718   3.143   9.736  10.174 -1.6380  1.7179 -1.0017
28447SOL     OW87719   5.330   1.601   0.146 -0.0236 -0.3570 -0.4784
28447SOL    HW187720   5.381   1.586   0.066 -1.4778 -1.5996 -1.2226
28447SOL    HW287721   5.333   1.696   0.158 -0.1419 -0.0921 -2.2826
28448SOL     OW87722   5.612   8.319   7.010 -0.0020  0.1718  0.3106
28448SOL    HW187723   5.677   8.344   6.945 -0.4160  0.5465  0.0353
28448SOL    HW287724   5.606   8.224   7.003  0.5121  0.1367  0.3365
28449SOL     OW87725   7.924   8.624   4.019 -0.6621  0.0613 -0.1268
28449SOL    HW187726   7.927   8.670   4.103  0.8136 -0.6504  0.2601
28449SOL    HW287727   7.833   8.599   4.008 -0.8699  0.0723  1.3335
28450SOL     OW87728   7.915   8.704   1.205  0.2974 -0.0661  0.1128
28450SOL    HW187729   7.967   8.784   1.205  0.1631  0.0234  0.7014
28450SOL    HW287730   7.845   8.721   1.268 -0.0785 -0.4204 -0.2094
28451SOL     OW87731   2.903   8.327   1.959  0.8479 -0.5230 -0.1638
28451SOL    HW187732   2.871   8.237   1.965 -0.9653  0.0807 -0.3964
28451SOL    HW287733   2.913   8.344   1.866 -1.2404  0.2848 -0.2968
28452SOL     OW87734   5.088   6.518   9.421  0.1914 -0.0840  0.5258
28452SOL    HW187735   5.004   6.475   9.438  0.6780 -1.3240 -0.1110
28452SOL    HW287736   5.140   6.500   9.499  0.2510 -0.2793  0.4403
28453SOL     OW87737   7.088   1.288   3.459  0.3432  0.1567 -0.1626
28453SOL    HW187738   7.030   1.282   3.535 -1.1428 -1.7361 -1.3393
28453SOL    HW287739   7.175   1.267   3.492 -0.1913 -0.1375  1.0869
28454SOL     OW87740   5.963   4.866   7.794  0.1580 -0.1149  0.0171
28454SOL    HW187741   6.034   4.878   7.857 -1.5206 -1.5167  2.3564
28454SOL    HW287742   5.940   4.773   7.801 -1.8186  0.2583 -0.7239
28455SOL     OW87743   6.830   0.626  10.489  0.2043  0.0214 -0.5615
28455SOL    HW187744   6.756   0.617  10.549  0.3027 -0.9908 -0.5688
28455SOL    HW287745   6.795   0.596  10.405  0.9723 -1.7918 -0.2758
28456SOL     OW87746   6.474   8.495   8.972  0.0921 -0.3605  0.1354
28456SOL    HW187747   6.546   8.504   8.910  0.7664 -0.4154  0.8917
28456SOL    HW287748   6.439   8.583   8.981 -0.2271 -0.4124 -0.5775
28457SOL     OW87749   7.651   3.276   6.594  0.2633  0.2225 -0.4730
28457SOL    HW187750   7.585   3.296   6.660  1.6755 -1.3769  1.5166
28457SOL    HW287751   7.635   3.341   6.524 -0.6355  2.7045  1.8571
28458SOL     OW87752   1.029   6.733   6.060  0.4538 -0.0561 -0.3292
28458SOL    HW187753   1.062   6.684   5.985 -1.4300 -2.0684  0.0521
28458SOL    HW287754   0.966   6.795   6.022  0.7627  0.1139 -0.5660
28459SOL     OW87755   0.495   6.781   8.265  0.1393 -0.1084  0.2642
28459SOL    HW187756   0.404   6.769   8.238  0.5203 -1.1466 -0.6798
28459SOL    HW287757   0.545   6.774   8.183  1.0722  0.3598  0.7767
28460SOL     OW87758  10.567   3.190   9.244  0.2751 -0.4977  0.1887
28460SOL    HW187759  10.582   3.209   9.336  0.9754  0.1964 -0.0576
28460SOL    HW287760  10.651   3.154   9.213 -0.3828 -2.0895  0.1462
28461SOL     OW87761   3.349   8.846   0.119  0.6292 -0.3746 -0.5707
28461SOL    HW187762   3.262   8.836   0.080 -0.6328  1.5611  1.5099
28461SOL    HW287763   3.348   8.789   0.196  1.2813 -0.4556 -0.6115
28462SOL     OW87764  10.625   9.484   0.303 -0.4651  0.2080  0.9065
28462SOL    HW187765  10.643   9.455   0.393 -2.1621 -0.7271  0.9795
28462SOL    HW287766  10.687   9.556   0.289  0.2960 -0.0591  2.5789
28463SOL     OW87767   2.154   3.684   7.285 -0.2089  0.0805  0.2238
28463SOL    HW187768   2.234   3.669   7.235 -0.0512  0.6636  0.2959
28463SOL    HW287769   2.083   3.658   7.226  0.0192 -0.1315  0.0442
28464SOL     OW87770   4.066   1.761   0.707 -0.5931 -0.0930 -0.1483
28464SOL    HW187771   4.102   1.693   0.764 -0.7169 -0.1970 -0.1955
28464SOL    HW287772   4.113   1.751   0.624  0.7131  1.0441  0.4074
28465SOL     OW87773  10.199   4.965   2.713 -0.3479  0.2667  0.1627
28465SOL    HW187774  10.283   5.007   2.693 -0.6419  1.6925  1.6648
28465SOL    HW287775  10.147   5.035   2.753 -1.9858 -0.7901 -0.0405
28466SOL     OW87776   4.140  10.583   1.901  0.2808 -0.0907 -0.8088
28466SOL    HW187777   4.132  10.629   1.985 -0.8912  3.5421 -2.7170
28466SOL    HW287778   4.182  10.500   1.924 -1.3220  0.0127  3.5641
28467SOL     OW87779   1.631   7.447   4.066 -0.2719 -0.1689 -0.4039
28467SOL    HW187780   1.601   7.512   4.002 -0.4263 -1.0842 -1.2841
28467SOL    HW287781   1.723   7.432   4.044  0.6987  1.9546  1.7176
28468SOL     OW87782   4.482   8.664   7.242  0.1031  0.2493  0.2699
28468SOL    HW187783   4.477   8.645   7.148  0.5513  0.4459  0.2060
28468SOL    HW287784   4.416   8.607   7.281  0.4163 -0.3646 -0.0817
28469SOL     OW87785   8.328   5.225   9.381 -0.4135 -0.4745  0.3809
28469SOL    HW187786   8.267   5.286   9.340  0.7054  0.8624  0.6529
28469SOL    HW287787   8.290   5.208   9.468  0.6898  2.1654  1.4666
28470SOL     OW87788   6.045   7.179   2.230  0.3239  0.1111  0.4304
28470SOL    HW187789   6.068   7.204   2.319 -0.2112  0.6362  0.4275
28470SOL    HW287790   5.965   7.228   2.211 -0.1034 -0.7231  0.0015
28471SOL     OW87791   9.557   3.918   8.381 -0.2241  0.6325 -0.0937
28471SOL    HW187792   9.588   3.852   8.320 -0.0416  0.4938  0.1465
28471SOL    HW287793   9.470   3.888   8.408 -0.5952  1.0419 -0.7976
28472SOL     OW87794   4.349   8.351   9.412 -0.2220 -0.1182 -0.1188
28472SOL    HW187795   4.344   8.273   9.356 -0.6179  0.0193 -0.2782
28472SOL    HW287796   4.271   8.402   9.389 -0.0949  0.2056  0.1639
28473SOL     OW87797   7.726   4.424  10.445  0.2454  0.2671  0.5891
28473SOL    HW187798   7.709   4.342  10.398  3.0326  0.1044 -0.2999
28473SOL    HW287799   7.749   4.397  10.534  1.2988  0.0470  0.2599
28474SOL     OW87800   0.640   6.281   0.426  0.0249  0.0740 -0.5412
28474SOL    HW187801   0.684   6.347   0.371  0.4895  0.7688  0.6262
28474SOL    HW287802   0.712   6.231   0.464 -0.0305  1.8142  2.1300
28475SOL     OW87803   3.355   8.349   9.072 -0.8707  0.0592  0.0542
28475SOL    HW187804   3.405   8.311   9.144 -0.5580  0.5885  0.1298
28475SOL    HW287805   3.278   8.388   9.114 -0.7720  0.2234  0.0872
28476SOL     OW87806   6.107   1.102   4.143  0.0101  0.5680 -0.3975
28476SOL    HW187807   6.108   1.079   4.236 -0.7520  1.1454 -0.2388
28476SOL    HW287808   6.138   1.192   4.141 -0.0175  0.5700 -0.7041
28477SOL     OW87809   3.956   9.284   0.600 -0.1113  0.8148 -0.5681
28477SOL    HW187810   3.902   9.309   0.675  0.1010 -1.0955  0.2830
28477SOL    HW287811   4.046   9.300   0.628 -0.0544  0.5801 -0.6152
28478SOL     OW87812   4.999  10.434   6.760  0.1310  0.3713  0.5516
28478SOL    HW187813   4.982  10.527   6.776 -0.6228  0.0503  1.6823
28478SOL    HW287814   4.937  10.387   6.817  1.0499 -0.8211  0.6174
28479SOL     OW87815   1.295   7.485   6.113 -0.2069 -0.8870  0.1841
28479SOL    HW187816   1.343   7.563   6.083 -2.9530  0.9706  0.3029
28479SOL    HW287817   1.350   7.450   6.184  0.2063  2.1794  1.5787
28480SOL     OW87818   3.895   5.699   8.537  0.0569  0.0043 -0.1475
28480SOL    HW187819   3.874   5.633   8.603  1.5820 -0.8439 -0.4681
28480SOL    HW287820   3.905   5.780   8.587  0.9175 -0.5713  0.6399
28481SOL     OW87821   1.999   2.370   0.953  0.2031 -0.0042  0.1272
28481SOL    HW187822   2.020   2.440   1.014  1.2457  0.0288 -0.2616
28481SOL    HW287823   1.926   2.324   0.994 -1.4640  2.1156 -0.2197
28482SOL     OW87824   8.011   2.810   6.566 -0.1819  0.0123 -0.3369
28482SOL    HW187825   7.965   2.894   6.556 -0.1319 -0.0439 -1.0587
28482SOL    HW287826   7.955   2.759   6.625 -1.4017 -0.3071 -1.7188
28483SOL     OW87827  10.227  10.426   5.249 -0.5647 -0.5895  0.0870
28483SOL    HW187828  10.282  10.370   5.194 -0.6258 -1.2510  0.6794
28483SOL    HW287829  10.235  10.389   5.337  0.0006  0.8125  0.6570
28484SOL     OW87830   8.862   1.305   8.466  0.3066 -0.7475  0.0879
28484SOL    HW187831   8.898   1.217   8.462 -0.1619 -1.0963  2.0798
28484SOL    HW287832   8.767   1.292   8.461  0.2422 -0.3663  0.2760
28485SOL     OW87833   2.220   9.472   5.760  0.0366  0.2829  0.8698
28485SOL    HW187834   2.195   9.394   5.712 -3.2756  1.4711  0.3950
28485SOL    HW287835   2.251   9.533   5.692  0.0431  0.2953  0.8843
28486SOL     OW87836   1.223   9.751   3.624  0.2433 -0.2404  0.4926
28486SOL    HW187837   1.235   9.846   3.625  1.6676 -0.3467 -1.0183
28486SOL    HW287838   1.134   9.737   3.657  0.4914  1.5031  2.0187
28487SOL     OW87839   5.524   2.165   5.692  0.1489 -0.1782  0.5734
28487SOL    HW187840   5.521   2.246   5.743  3.6774  1.8530 -2.0200
28487SOL    HW287841   5.447   2.171   5.635  0.3979  1.4409  0.3535
28488SOL     OW87842   3.311   2.438   4.196  0.2941  0.5292 -0.2102
28488SOL    HW187843   3.334   2.529   4.211  1.6206  0.3938 -1.2369
28488SOL    HW287844   3.320   2.426   4.102 -0.2350 -0.5757 -0.1406
28489SOL     OW87845   7.606   0.817   2.318 -0.6058 -0.6390 -0.0243
28489SOL    HW187846   7.653   0.900   2.321 -0.3195 -0.8130  0.3932
28489SOL    HW287847   7.592   0.794   2.410  0.6281 -1.7891 -0.0933
28490SOL     OW87848   1.280   3.778   4.583 -0.5710  0.1531 -0.2289
28490SOL    HW187849   1.359   3.797   4.633 -0.1356  2.3345 -1.6165
28490SOL    HW287850   1.295   3.690   4.547  0.9632  0.2924  0.0260
28491SOL     OW87851   0.811   4.275   7.384 -0.8729 -0.0984 -0.4855
28491SOL    HW187852   0.868   4.201   7.362  0.5543  1.6249 -3.2097
28491SOL    HW287853   0.823   4.287   7.478  0.7345 -1.8155 -0.3990
28492SOL     OW87854   7.339   6.443   4.599  0.1520  0.4775 -0.6995
28492SOL    HW187855   7.261   6.450   4.544 -0.7287  0.4309  0.5182
28492SOL    HW287856   7.327   6.508   4.667  1.0130  0.2201 -0.2889
28493SOL     OW87857   0.551   6.475   3.015 -0.1382  0.1660 -0.0041
28493SOL    HW187858   0.549   6.531   2.938 -0.3734  1.7756  1.1139
28493SOL    HW287859   0.632   6.425   3.006  1.0663  2.0400 -0.1657
28494SOL     OW87860   5.620   0.490   0.960 -0.1866 -0.0015 -0.0456
28494SOL    HW187861   5.686   0.430   0.925  1.9188  1.1267  1.7745
28494SOL    HW287862   5.536   0.448   0.939  1.1372 -2.7635 -0.2570
28495SOL     OW87863  10.582   9.578   2.558  0.0962  0.5355 -0.0858
28495SOL    HW187864  10.635   9.638   2.609  1.0971 -0.3787 -0.0019
28495SOL    HW287865  10.549   9.515   2.622 -0.4515  0.6473 -0.2557
28496SOL     OW87866   7.457   8.438   6.119 -0.0489  0.6676 -0.6985
28496SOL    HW187867   7.403   8.517   6.119  1.0240  1.4627  1.0262
28496SOL    HW287868   7.527   8.457   6.181  1.0417 -1.1203 -1.3061
28497SOL     OW87869   8.954   1.802   9.719 -0.0294 -0.6229  0.3158
28497SOL    HW187870   8.990   1.823   9.805 -0.7992  0.5814  0.3744
28497SOL    HW287871   8.980   1.712   9.703  0.2542 -0.8184  1.7505
28498SOL     OW87872   3.818   8.771   9.669  0.1982  0.6769  0.2684
28498SOL    HW187873   3.764   8.824   9.611  1.6487 -1.0308 -2.9316
28498SOL    HW287874   3.870   8.717   9.609  2.3676 -0.7549  3.2247
28499SOL     OW87875   9.507   1.825   8.294  0.1843 -0.2328 -0.4200
28499SOL    HW187876   9.534   1.905   8.248  0.8935 -0.8869 -1.1792
28499SOL    HW287877   9.430   1.851   8.344 -0.1346  0.7155 -1.3575
28500SOL     OW87878   3.144   9.542   9.996  0.2988  0.4086  0.6135
28500SOL    HW187879   3.194   9.464  10.020 -3.0786 -2.1478  0.0776
28500SOL    HW287880   3.181   9.568   9.911  0.9064 -1.2111  0.3263
28501SOL     OW87881   5.912   4.407   9.974 -0.1112  0.5272  0.1985
28501SOL    HW187882   5.995   4.431   9.931 -0.9954  0.6173 -1.5617
28501SOL    HW287883   5.931   4.325  10.019  0.7845  0.1772 -0.7657
28502SOL     OW87884   3.943   0.465   5.359  0.2938  0.3033  0.2182
28502SOL    HW187885   3.868   0.484   5.304 -0.3903  1.2122  1.4182
28502SOL    HW287886   3.973   0.550   5.391  0.1106 -0.2321  1.9372
28503SOL     OW87887   1.353   0.872   3.943 -0.0251 -0.0985 -1.0427
28503SOL    HW187888   1.332   0.944   3.884 -0.8820  2.2474  1.8798
28503SOL    HW287889   1.436   0.897   3.984 -2.2504  1.5672  3.0229
28504SOL     OW87890   1.836   3.438   8.325 -0.1000  0.0264  0.1313
28504SOL    HW187891   1.745   3.465   8.323  0.1530  1.0123  0.9451
28504SOL    HW287892   1.860   3.427   8.233 -0.6410  1.1552 -0.1588
28505SOL     OW87893   4.835   5.902   8.411  1.1413  0.5772 -0.3950
28505SOL    HW187894   4.845   5.967   8.342  1.5876  0.4190 -0.4847
28505SOL    HW287895   4.744   5.908   8.438  0.5829 -0.3512 -1.9746
28506SOL     OW87896   3.538   3.087   5.105  0.1717  0.1698 -0.4943
28506SOL    HW187897   3.569   3.003   5.140 -0.4560  1.5056  3.8993
28506SOL    HW287898   3.604   3.151   5.135 -0.8242  1.5799 -1.1862
28507SOL     OW87899   1.936   0.388   9.868 -0.1551  0.3025  0.3788
28507SOL    HW187900   1.953   0.397   9.775 -0.4278  1.5900  0.4252
28507SOL    HW287901   1.882   0.310   9.876  0.4899 -0.2378 -0.4494
28508SOL     OW87902   2.410   1.496   6.711  0.1507 -0.6487 -0.2254
28508SOL    HW187903   2.417   1.445   6.630 -2.0993  0.3520 -1.1483
28508SOL    HW287904   2.373   1.579   6.683  0.7016  0.2968  1.6801
28509SOL     OW87905   4.962   3.256   6.790 -0.0672 -0.3272 -0.1804
28509SOL    HW187906   5.044   3.220   6.758 -0.0998  0.7134 -1.5146
28509SOL    HW287907   4.968   3.350   6.771 -1.3186 -0.1476  0.2266
28510SOL     OW87908   0.332   3.198  10.676 -0.2437 -0.4576  0.2559
28510SOL    HW187909   0.302   3.242  10.596 -0.5878 -1.3643 -0.1229
28510SOL    HW287910   0.253   3.187  10.729 -0.1144 -0.3915  0.4659
28511SOL     OW87911   6.186   1.883   8.687  0.2017  0.1822  0.2663
28511SOL    HW187912   6.259   1.946   8.690  0.1565  0.1943  1.4952
28511SOL    HW287913   6.160   1.882   8.595  1.8301  0.0956 -0.2389
28512SOL     OW87914   2.322   4.725   9.492 -0.4810  0.2554  0.4903
28512SOL    HW187915   2.322   4.678   9.575  0.2280 -0.7648 -0.0705
28512SOL    HW287916   2.413   4.721   9.462 -0.7596  0.4687 -0.4130
28513SOL     OW87917   3.745   6.779   8.395 -0.3118  0.3284  0.8712
28513SOL    HW187918   3.816   6.836   8.426 -1.8019  3.8888 -1.6605
28513SOL    HW287919   3.686   6.773   8.470  0.2305  1.5349  1.4304
28514SOL     OW87920   6.461   5.836   1.022  0.0724 -0.1225  0.1760
28514SOL    HW187921   6.439   5.748   0.994  1.1278 -0.9446  1.7963
28514SOL    HW287922   6.496   5.826   1.110 -0.5706  2.0190  0.7397
28515SOL     OW87923   4.340   2.740   2.729 -0.1073 -0.0807  0.0477
28515SOL    HW187924   4.307   2.777   2.647  2.5669  1.2292 -0.5276
28515SOL    HW287925   4.263   2.699   2.769 -1.6338 -0.2524 -2.7986
28516SOL     OW87926   2.654   5.353   7.199  0.2105  0.3530  0.1129
28516SOL    HW187927   2.743   5.332   7.226  0.5951 -1.9837 -2.5529
28516SOL    HW287928   2.664   5.423   7.136  0.4208 -1.0578 -1.4846
28517SOL     OW87929   4.260   0.138   9.266 -0.0511 -0.4288  0.3905
28517SOL    HW187930   4.275   0.063   9.209  0.7376 -0.0851  0.1273
28517SOL    HW287931   4.232   0.208   9.207 -1.7088 -0.7563  0.7477
28518SOL     OW87932   5.738   4.746   3.881 -0.1192  0.0528 -0.3308
28518SOL    HW187933   5.783   4.740   3.965 -0.5096  0.7713 -0.0609
28518SOL    HW287934   5.805   4.725   3.816  0.0577 -1.0415  0.1744
28519SOL     OW87935   7.118   8.051   2.262  0.3405 -0.4971  0.5125
28519SOL    HW187936   7.093   8.051   2.354  1.9313 -1.6219  0.9814
28519SOL    HW287937   7.106   7.960   2.234  0.5793 -0.3207 -0.1855
28520SOL     OW87938   3.263  10.165   9.559 -0.3860 -0.2751  0.7364
28520SOL    HW187939   3.209  10.242   9.547 -0.1013 -0.1471  0.2567
28520SOL    HW287940   3.206  10.091   9.537 -0.0740 -0.0865 -0.8548
28521SOL     OW87941   6.245   8.541   2.433  0.3812 -0.0323 -0.3309
28521SOL    HW187942   6.295   8.620   2.452 -0.2019 -0.3264  3.0553
28521SOL    HW287943   6.304   8.469   2.453 -0.2733 -0.3984  0.3526
28522SOL     OW87944   6.655   9.147   9.453  0.0340 -0.4664  0.1943
28522SOL    HW187945   6.748   9.154   9.431 -0.0116 -0.1910  0.0938
28522SOL    HW287946   6.610   9.199   9.387 -0.1038  0.3280  0.9047
28523SOL     OW87947  10.332   8.203   6.872  0.2397  0.1054 -0.2121
28523SOL    HW187948  10.339   8.264   6.946  0.8966  1.8870 -1.6654
28523SOL    HW287949  10.346   8.258   6.795 -0.1058 -1.7533 -1.6578
28524SOL     OW87950   3.721   1.805   2.973 -0.1973 -0.0961  0.2974
28524SOL    HW187951   3.648   1.867   2.964 -1.2264 -1.0467  1.7017
28524SOL    HW287952   3.788   1.838   2.913 -0.8315  2.1880  0.7462
28525SOL     OW87953   1.404   0.796   5.814 -0.6877 -0.5738  0.9804
28525SOL    HW187954   1.485   0.749   5.833 -0.7428 -1.1120 -0.0147
28525SOL    HW287955   1.346   0.730   5.777 -1.1671  0.0439  0.6034
28526SOL     OW87956   7.381   0.082   1.434  0.4625 -0.1273  0.2431
28526SOL    HW187957   7.348   0.149   1.495 -0.5411 -0.5260  0.1582
28526SOL    HW287958   7.316   0.012   1.438  1.9898 -1.5342  1.0356
28527SOL     OW87959   4.853   4.601   5.886  0.1566  0.7917 -0.5486
28527SOL    HW187960   4.781   4.615   5.948  0.1326 -0.9203 -0.1403
28527SOL    HW287961   4.835   4.663   5.815 -0.7186  1.6485  0.3782
28528SOL     OW87962   3.372   0.394   4.969 -0.0991 -0.3161 -0.2900
28528SOL    HW187963   3.285   0.424   4.946  0.3030  1.5292  0.4335
28528SOL    HW287964   3.413   0.371   4.885 -0.9861 -0.4141 -0.7024
28529SOL     OW87965   7.485   2.575   4.919  0.0307  0.7158 -0.7684
28529SOL    HW187966   7.497   2.544   5.009  0.0892  1.2072 -0.6046
28529SOL    HW287967   7.493   2.670   4.925 -1.5591  0.8842 -1.0322
28530SOL     OW87968   7.708  10.357   8.102 -0.1878  0.7116 -0.2272
28530SOL    HW187969   7.745  10.269   8.101 -1.3506  0.1803  0.9101
28530SOL    HW287970   7.620  10.346   8.066 -0.6154  1.2672  0.6204
28531SOL     OW87971   8.419   7.700   5.774 -0.1296  0.3966  0.0271
28531SOL    HW187972   8.418   7.794   5.757  0.0338  0.3877 -0.0383
28531SOL    HW287973   8.464   7.663   5.698  1.6641  0.4596  0.9940
28532SOL     OW87974  10.684   1.429   2.813  0.2834 -0.2286  0.4663
28532SOL    HW187975  10.598   1.436   2.773 -0.0696 -0.7171  1.1182
28532SOL    HW287976  10.736   1.380   2.750 -0.2654 -0.9895  0.5944
28533SOL     OW87977   7.970   3.099   3.498 -0.1671 -0.1067  0.0897
28533SOL    HW187978   7.878   3.077   3.513 -0.7390  1.6267 -0.6101
28533SOL    HW287979   7.978   3.190   3.526  1.3001 -0.1549 -0.0661
28534SOL     OW87980   5.223   5.764   4.085  0.0343 -0.1712  0.6381
28534SOL    HW187981   5.166   5.720   4.022 -0.1869  0.1277  0.6283
28534SOL    HW287982   5.213   5.857   4.066 -1.3623  0.0535  2.2165
28535SOL     OW87983   3.253   4.223   7.654  0.6683 -0.4835  0.2028
28535SOL    HW187984   3.177   4.165   7.657  0.7734 -0.5939  0.9480
28535SOL    HW287985   3.275   4.229   7.561  0.1762 -1.0089  0.0456
28536SOL     OW87986  10.693   4.502   1.434  0.1167 -0.2842 -0.0033
28536SOL    HW187987  10.770   4.520   1.380  0.4880 -1.5224  0.0947
28536SOL    HW287988  10.723   4.438   1.498 -0.9885 -0.7864  0.0311
28537SOL     OW87989   9.333  10.573   2.268 -0.2593  0.1918 -0.0651
28537SOL    HW187990   9.377  10.504   2.317  0.0458 -1.0415 -1.9581
28537SOL    HW287991   9.260  10.529   2.225  0.5725  0.7520 -2.1832
28538SOL     OW87992   2.715  10.372   5.063 -0.0348  0.3801  0.5672
28538SOL    HW187993   2.661  10.320   5.003 -1.5844  0.4208  1.8603
28538SOL    HW287994   2.782  10.410   5.007 -1.4038  0.4135 -1.1534
28539SOL     OW87995   4.793   5.746   2.713 -0.1606 -0.0650 -0.2966
28539SOL    HW187996   4.807   5.708   2.626  1.1396  1.7166 -0.9344
28539SOL    HW287997   4.706   5.786   2.707  0.3130  0.8866 -1.1368
28540SOL     OW87998   2.054   3.168   3.190 -0.0426  0.2827  0.0455
28540SOL    HW187999   1.973   3.126   3.162  0.7641 -0.6244 -1.0230
28540SOL    HW288000   2.112   3.096   3.213  0.1826  0.9458  1.7286
28541SOL     OW88001   7.764   0.161   0.041  0.0274  0.0092 -0.0889
28541SOL    HW188002   7.798   0.072   0.042 -0.9050 -0.3710  1.2830
28541SOL    HW288003   7.733   0.174  -0.049  1.5118 -0.4870 -0.7060
28542SOL     OW88004  10.472  10.082   1.066 -0.2511 -0.0447  0.1113
28542SOL    HW188005  10.449  10.174   1.058  0.2431  0.0377 -0.4469
28542SOL    HW288006  10.413  10.037   1.005 -0.5513 -0.1128  0.4466
28543SOL     OW88007   3.845   6.571   1.068  0.0588 -0.1629 -0.0229
28543SOL    HW188008   3.873   6.484   1.039 -2.2344 -1.1312  0.4898
28543SOL    HW288009   3.820   6.616   0.987 -0.5152 -0.6738 -0.1421
28544SOL     OW88010   2.406  10.675   0.147  0.0276  0.1202  0.0379
28544SOL    HW188011   2.428  10.669   0.054  1.1005 -1.2877  0.3469
28544SOL    HW288012   2.480  10.719   0.187  0.8871 -1.7191  0.5959
28545SOL     OW88013   5.613   3.839   5.346  0.0981  0.3642 -0.0499
28545SOL    HW188014   5.663   3.778   5.400  0.5293  0.7367 -0.0279
28545SOL    HW288015   5.678   3.896   5.308 -0.2275  0.2375 -0.8057
28546SOL     OW88016   1.260   1.984   8.341  0.4919  0.5510  0.4826
28546SOL    HW188017   1.216   2.010   8.260 -0.2946 -1.0538  0.3576
28546SOL    HW288018   1.251   2.061   8.399 -0.8866  0.9213 -0.1835
28547SOL     OW88019   4.598   9.296   2.212  0.0592 -0.4413 -0.2015
28547SOL    HW188020   4.573   9.203   2.209 -0.6949 -0.2293 -0.8043
28547SOL    HW288021   4.516   9.342   2.228  0.4162  0.1355 -0.0224
28548SOL     OW88022   1.633   2.450   1.965 -0.1483 -0.0542  0.9611
28548SOL    HW188023   1.629   2.525   1.906 -0.8014 -0.9859 -0.1979
28548SOL    HW288024   1.562   2.393   1.937  1.8291 -2.2982  0.1731
28549SOL     OW88025   2.499   3.235   1.012 -0.4292 -0.0991 -0.4348
28549SOL    HW188026   2.591   3.224   0.986 -0.2968 -0.6564  0.2475
28549SOL    HW288027   2.463   3.147   1.013 -1.0415  0.1368 -0.8930
28550SOL     OW88028   7.241   7.959   2.829 -0.0444  0.2438 -0.0670
28550SOL    HW188029   7.237   8.054   2.837 -1.4195  0.1616  0.4810
28550SOL    HW288030   7.202   7.940   2.744 -0.8555  0.1061  0.3317
28551SOL     OW88031   7.411   9.568   9.429  0.2536  0.4868  0.5019
28551SOL    HW188032   7.415   9.652   9.384 -1.0506  2.1573  3.2229
28551SOL    HW288033   7.490   9.565   9.483  2.1705 -1.8101 -2.1478
28552SOL     OW88034   6.011   3.565   2.198 -0.1120 -0.4328  0.2674
28552SOL    HW188035   6.065   3.525   2.130 -0.3635  4.1332 -3.0941
28552SOL    HW288036   5.921   3.552   2.168 -0.3404  0.1006  0.7002
28553SOL     OW88037   1.022   1.960   6.822 -0.0609  0.0330  0.0856
28553SOL    HW188038   1.077   1.912   6.760 -0.2969 -0.2259  0.0719
28553SOL    HW288039   0.933   1.948   6.789 -0.0523  1.1991 -0.3883
28554SOL     OW88040   7.091  10.309   7.462  0.3688  0.4741  0.1903
28554SOL    HW188041   7.083  10.376   7.393  1.0599  0.4112  0.0443
28554SOL    HW288042   7.009  10.260   7.457  1.1251 -0.6871 -1.8034
28555SOL     OW88043   0.856  10.484   6.963  0.2327 -0.2587  0.3705
28555SOL    HW188044   0.805  10.450   6.889 -0.4457 -1.9817  1.5472
28555SOL    HW288045   0.866  10.577   6.945 -0.9595 -0.4044 -1.2741
28556SOL     OW88046  10.266   7.404   4.513  0.3847  0.2304  0.1689
28556SOL    HW188047  10.259   7.424   4.419  1.3327  0.5064  0.1505
28556SOL    HW288048  10.358   7.419   4.534 -0.5674  5.3865  2.3004
28557SOL     OW88049   4.479   0.450   3.930  0.1860 -0.1150  0.0353
28557SOL    HW188050   4.430   0.462   3.849  0.8910  1.8503 -0.1560
28557SOL    HW288051   4.570   0.441   3.901  0.3422 -0.2840  0.5704
28558SOL     OW88052   0.750   3.251   0.793  0.1228 -0.1079 -0.0244
28558SOL    HW188053   0.819   3.208   0.743 -1.0913 -1.8437 -0.2830
28558SOL    HW288054   0.677   3.189   0.792 -1.0371  1.1647  1.2410
28559SOL     OW88055   5.665   4.182   9.610  0.3342 -0.6136 -0.4622
28559SOL    HW188056   5.728   4.111   9.603  0.7284 -0.3833  0.5174
28559SOL    HW288057   5.714   4.254   9.651 -0.5600 -0.4499  0.3793
28560SOL     OW88058   5.177   3.716   7.342 -0.6070  0.5886  0.2557
28560SOL    HW188059   5.226   3.716   7.424 -1.7397  0.7082  0.9420
28560SOL    HW288060   5.102   3.774   7.358 -1.5116 -0.3533 -0.4432
28561SOL     OW88061   4.332   9.239   7.012 -0.7902 -0.0765 -0.2739
28561SOL    HW188062   4.373   9.318   6.976 -1.2969  0.5452  0.4805
28561SOL    HW288063   4.384   9.219   7.090 -0.9646 -0.2024 -0.1904
28562SOL     OW88064   0.758   1.451   4.709  0.1299  0.3030 -0.1632
28562SOL    HW188065   0.673   1.494   4.722  0.5705  1.5372 -1.1022
28562SOL    HW288066   0.821   1.509   4.752  0.8064  0.9764 -1.9396
28563SOL     OW88067   9.190  10.059   0.381  0.2236  0.3447  0.2558
28563SOL    HW188068   9.203  10.084   0.472 -0.5646 -0.5661  0.6284
28563SOL    HW288069   9.261  10.103   0.334  1.9668 -0.8941  1.5989
28564SOL     OW88070   6.295   8.773   8.143 -0.5352  0.0244  1.0443
28564SOL    HW188071   6.299   8.862   8.107 -0.8346  1.1303  3.5200
28564SOL    HW288072   6.201   8.751   8.141 -0.3782 -0.6539 -0.3717
28565SOL     OW88073   9.538   8.450   4.173  0.0518 -0.0826  0.1827
28565SOL    HW188074   9.585   8.489   4.247  1.6216 -0.7711 -0.4007
28565SOL    HW288075   9.599   8.456   4.100 -0.5995 -1.4042 -0.5144
28566SOL     OW88076   5.659   7.867   3.378 -0.6393 -0.0189  0.1130
28566SOL    HW188077   5.741   7.906   3.408 -1.0741 -0.1670  1.5689
28566SOL    HW288078   5.680   7.775   3.363 -0.3463  0.1197 -0.3609
28567SOL     OW88079   9.450   4.052   6.710 -0.1716 -0.3346  0.1022
28567SOL    HW188080   9.473   4.108   6.636  0.8843 -2.1167 -0.9936
28567SOL    HW288081   9.354   4.055   6.714 -0.1319  1.5404  0.1192
28568SOL     OW88082   2.697   1.047   2.280  0.0904  0.5100  0.1363
28568SOL    HW188083   2.628   1.023   2.218 -0.2979 -0.2818  0.8404
28568SOL    HW288084   2.767   1.083   2.226  0.4422 -1.6619 -0.9761
28569SOL     OW88085   8.706   3.526   0.857 -0.2146  0.5165 -0.2102
28569SOL    HW188086   8.742   3.613   0.874 -0.0229  0.6234 -1.1059
28569SOL    HW288087   8.719   3.513   0.763 -1.7050  0.1709 -0.3851
28570SOL     OW88088   3.593   0.790   5.844 -0.0605 -0.1332 -0.7101
28570SOL    HW188089   3.500   0.812   5.843  0.1968  1.0350 -0.2084
28570SOL    HW288090   3.636   0.867   5.881  0.9036 -1.3848  0.9226
28571SOL     OW88091   5.976   1.947   2.910 -0.6436  0.0594  0.6533
28571SOL    HW188092   6.014   1.895   2.981 -0.5732 -0.3365  0.3353
28571SOL    HW288093   5.903   1.993   2.950  0.8301  1.7179  1.5589
28572SOL     OW88094   8.822   7.066   2.918  0.1608  0.5692  0.4622
28572SOL    HW188095   8.740   7.055   2.966  0.1967 -0.9940  0.2148
28572SOL    HW288096   8.886   7.016   2.968  0.6548  0.6340 -0.0991
28573SOL     OW88097   6.665   9.821   2.503 -0.3637 -0.1356  0.3259
28573SOL    HW188098   6.760   9.829   2.495 -0.3694  2.0432  1.5347
28573SOL    HW288099   6.652   9.766   2.580 -0.0291  0.8540  1.1108
28574SOL     OW88100  10.021  10.249   8.330  0.6169  0.6345 -0.1421
28574SOL    HW188101   9.933  10.286   8.341  0.2511 -0.1553 -0.3286
28574SOL    HW288102  10.022  10.216   8.240  1.2525  1.0097 -0.2756
28575SOL     OW88103   3.808   6.070   1.495  0.0077  0.4929  0.1663
28575SOL    HW188104   3.804   6.152   1.544  0.8713  0.8630 -0.3674
28575SOL    HW288105   3.871   6.086   1.425  0.3626 -0.6982  0.1882
28576SOL     OW88106   3.253   1.521   1.709 -0.9365 -0.5849  0.5463
28576SOL    HW188107   3.304   1.584   1.760 -2.0990  0.9766 -0.1363
28576SOL    HW288108   3.289   1.529   1.620  0.2582 -2.3965  0.8206
28577SOL     OW88109   9.882   2.166   7.018 -0.3433  0.2210 -0.0410
28577SOL    HW188110   9.918   2.099   6.960 -1.1836  0.0114 -0.3378
28577SOL    HW288111   9.867   2.122   7.101  0.8166  0.5100  0.3423
28578SOL     OW88112   6.770   7.164   6.448 -0.5570  0.0373 -0.4265
28578SOL    HW188113   6.713   7.094   6.480 -2.4212  1.5735 -0.2460
28578SOL    HW288114   6.765   7.231   6.516  1.9284  0.0312 -0.1561
28579SOL     OW88115   5.935   3.705   5.832  0.5998 -0.2697  0.1963
28579SOL    HW188116   5.977   3.659   5.759  0.3802 -1.1209  0.5842
28579SOL    HW288117   6.008   3.742   5.882  0.9718 -2.0455  1.0671
28580SOL     OW88118   0.158   7.063  10.486  0.1434  0.0723 -0.2515
28580SOL    HW188119   0.064   7.079  10.478 -0.4185 -3.3081 -2.2447
28580SOL    HW288120   0.200   7.137  10.443 -1.7671  0.2213 -1.9673
28581SOL     OW88121   8.109   9.779   1.109  0.6705 -0.4761  0.1772
28581SOL    HW188122   8.017   9.788   1.084  1.7388  0.7176 -4.0701
28581SOL    HW288123   8.119   9.685   1.125 -1.0150 -0.8474 -0.6183
28582SOL     OW88124   4.041   9.920   0.680 -0.3111 -0.3187  0.0962
28582SOL    HW188125   4.039   9.828   0.707 -2.6302 -0.0577  1.0705
28582SOL    HW288126   4.005   9.968   0.755  1.8657  1.5544  0.0483
28583SOL     OW88127   8.206   8.567   4.046 -0.2146 -0.1730  0.0066
28583SOL    HW188128   8.120   8.534   4.021  0.2160 -0.7806 -0.7199
28583SOL    HW288129   8.242   8.604   3.965  0.9512 -1.5986 -0.1669
28584SOL     OW88130   7.111   3.826   2.646  0.2305  0.0539 -0.2084
28584SOL    HW188131   7.197   3.814   2.607  0.7590 -0.7964  1.1354
28584SOL    HW288132   7.076   3.737   2.655 -0.1583  0.2805  0.6029
28585SOL     OW88133   3.042   6.817   4.272  0.3592 -0.6368  0.0906
28585SOL    HW188134   3.088   6.894   4.305 -0.4181  0.1869 -0.6849
28585SOL    HW288135   2.977   6.797   4.340  0.2444 -0.3178  0.0738
28586SOL     OW88136   6.956   0.533   3.474 -0.0671  0.5063  0.0901
28586SOL    HW188137   6.868   0.562   3.496 -0.3266  0.9953 -1.5125
28586SOL    HW288138   6.959   0.441   3.501 -1.4312  0.1747 -0.8375
28587SOL     OW88139   5.734   5.619   3.662  0.5026 -0.1614 -0.1757
28587SOL    HW188140   5.664   5.559   3.638  1.2406 -0.1498 -2.6677
28587SOL    HW288141   5.793   5.568   3.717 -1.1514 -0.3195  1.5089
28588SOL     OW88142   4.574   3.348   4.832 -0.1354 -0.1551  0.0062
28588SOL    HW188143   4.656   3.397   4.831 -0.8881  1.1631 -0.6631
28588SOL    HW288144   4.547   3.345   4.740 -0.6304 -0.9479  0.1681
28589SOL     OW88145   1.722   1.849   1.540 -0.2290  0.0761 -0.1240
28589SOL    HW188146   1.633   1.851   1.505 -0.2072  1.9353 -0.1860
28589SOL    HW288147   1.778   1.869   1.465  0.1035  0.4430  0.2170
28590SOL     OW88148   3.692   3.952   6.011 -0.0888 -0.5812 -0.3129
28590SOL    HW188149   3.643   3.911   6.082  0.7247  0.2667  0.7652
28590SOL    HW288150   3.751   3.883   5.980  2.0245 -0.0625  2.1825
28591SOL     OW88151  10.757   3.437   8.274 -0.0443 -0.2019  0.3376
28591SOL    HW188152  10.674   3.481   8.260 -0.8317 -0.9484  2.3353
28591SOL    HW288153  10.776   3.395   8.190 -1.3659  0.4569 -0.3226
28592SOL     OW88154   1.833   7.166   3.829  0.5240 -0.1251  0.0544
28592SOL    HW188155   1.906   7.127   3.782  1.4668  2.8861 -1.2670
28592SOL    HW288156   1.763   7.171   3.764  0.0294 -0.5925  0.5396
28593SOL     OW88157   2.353   9.824   3.773  0.5477 -0.4875  0.1200
28593SOL    HW188158   2.299   9.757   3.816 -0.8187  0.4996  0.0243
28593SOL    HW288159   2.327   9.906   3.816  1.2472  0.1445 -0.6374
28594SOL     OW88160   7.235   4.466   8.442 -0.1191 -0.0777  0.0198
28594SOL    HW188161   7.205   4.496   8.356  0.3176 -0.6874 -0.3570
28594SOL    HW288162   7.330   4.480   8.440 -0.3208  1.6354  1.1180
28595SOL     OW88163   5.782   1.225   9.336  0.4353 -0.2552 -0.3442
28595SOL    HW188164   5.739   1.148   9.374  1.0100 -0.5030 -0.1904
28595SOL    HW288165   5.775   1.212   9.242  0.0353 -0.2155 -0.3214
28596SOL     OW88166   8.880   5.566   0.691  0.4498  0.1126  0.4844
28596SOL    HW188167   8.873   5.509   0.614 -0.2081 -0.4154  0.9239
28596SOL    HW288168   8.826   5.523   0.758 -0.3908  1.4363  0.7088
28597SOL     OW88169  10.727   9.388   7.717 -0.2897 -0.0777  0.0391
28597SOL    HW188170  10.632   9.383   7.705 -0.2748 -1.0259  0.3001
28597SOL    HW288171  10.760   9.307   7.680  0.6387  1.1439 -2.0184
28598SOL     OW88172   6.306   5.684   0.606 -0.4926 -0.9387  0.5953
28598SOL    HW188173   6.247   5.750   0.570  1.1486  0.6065  0.6401
28598SOL    HW288174   6.248   5.624   0.653 -1.9753  1.1116  1.5626
28599SOL     OW88175   1.639   3.088   5.648 -0.1862 -0.0653  0.0173
28599SOL    HW188176   1.663   3.129   5.565 -1.0315  1.4801  0.4828
28599SOL    HW288177   1.549   3.117   5.664 -0.0948 -0.4401  1.3924
28600SOL     OW88178   4.712   0.025   7.738 -0.6695 -0.0332 -0.2694
28600SOL    HW188179   4.758   0.049   7.818 -1.8790 -1.9046  1.0629
28600SOL    HW288180   4.781   0.008   7.674  0.3401  0.5627  0.6287
28601SOL     OW88181   3.290  10.543  10.696 -0.3419  0.1245  0.3039
28601SOL    HW188182   3.293  10.574  10.787  1.5772  0.5441  0.1259
28601SOL    HW288183   3.250  10.456  10.702 -1.1626  0.5511  1.4154
28602SOL     OW88184   8.429   7.284  10.053  0.3881 -0.3776 -0.0949
28602SOL    HW188185   8.495   7.328  10.106 -0.5284 -0.9889  1.6256
28602SOL    HW288186   8.398   7.212  10.108 -2.0083  0.1502 -0.6476
28603SOL     OW88187   0.013   4.950   4.287  0.0059  0.2318 -0.2770
28603SOL    HW188188  -0.064   4.930   4.340  0.9264 -1.5851  0.4774
28603SOL    HW288189  -0.006   4.910   4.202 -0.3536  0.8151 -0.4783
28604SOL     OW88190   5.497   0.024  10.067 -0.0168  0.1377 -0.4724
28604SOL    HW188191   5.478   0.053   9.978  0.0179 -2.2578 -1.3267
28604SOL    HW288192   5.590   0.044  10.079 -0.7308  3.6181  0.3947
28605SOL     OW88193   8.641   0.561   2.133 -0.4658  0.0037 -0.3390
28605SOL    HW188194   8.650   0.472   2.098 -1.1326 -0.3714  0.4066
28605SOL    HW288195   8.731   0.587   2.154  0.0582  0.5310 -2.9282
28606SOL     OW88196   7.867   9.881   2.897  0.3174 -0.2945 -0.2253
28606SOL    HW188197   7.877   9.916   2.808  0.5497  0.4313  0.0725
28606SOL    HW288198   7.900   9.792   2.892  0.0116 -0.3713 -0.9453
28607SOL     OW88199   0.836   8.863   4.255  0.4271 -0.4371  0.7729
28607SOL    HW188200   0.747   8.852   4.222  0.2587  0.8600  0.7526
28607SOL    HW288201   0.876   8.776   4.245 -0.6108 -0.8641  0.1461
28608SOL     OW88202   9.645   5.454   7.735  0.0280 -0.0831  0.1813
28608SOL    HW188203   9.657   5.418   7.823 -0.9003 -0.3151  0.2302
28608SOL    HW288204   9.551   5.444   7.719 -0.1956  1.8945  0.0111
28609SOL     OW88205   5.537   5.456   5.794 -0.4338 -0.1402 -0.1492
28609SOL    HW188206   5.585   5.526   5.749 -0.9086  0.9047  0.9047
28609SOL    HW288207   5.445   5.484   5.790 -0.7418 -1.1712 -0.5143
28610SOL     OW88208   5.018   8.981   3.558 -0.1979 -0.0751 -0.8355
28610SOL    HW188209   4.991   9.073   3.557 -0.3047 -0.1039 -0.5051
28610SOL    HW288210   4.946   8.935   3.600  0.5463 -0.0902  0.4799
28611SOL     OW88211   5.249   5.242   3.061 -0.3916  0.2826  0.0291
28611SOL    HW188212   5.314   5.230   2.991  0.6808 -1.9782  1.3148
28611SOL    HW288213   5.179   5.293   3.020  0.7243  0.0474 -2.3390
28612SOL     OW88214   0.243   7.092   5.817  0.1651 -0.1059  0.3019
28612SOL    HW188215   0.172   7.049   5.770  0.4525 -0.2804  0.0233
28612SOL    HW288216   0.257   7.036   5.894 -0.4369  0.2876  0.7108
28613SOL     OW88217   6.117   5.387   9.194 -0.1457  0.6513 -0.0459
28613SOL    HW188218   6.052   5.429   9.250 -0.0338  0.2686  0.3751
28613SOL    HW288219   6.100   5.294   9.203  0.3486  0.5571 -0.0702
28614SOL     OW88220   7.130   6.883   5.501 -0.1715  0.0717  0.5177
28614SOL    HW188221   7.215   6.866   5.541 -0.9479  0.0590  2.2209
28614SOL    HW288222   7.132   6.975   5.477  1.3269 -0.5327 -2.0631
28615SOL     OW88223   9.469   0.563   6.695  0.4864  0.0875  0.6246
28615SOL    HW188224   9.419   0.604   6.766  0.5012 -0.4856  0.9758
28615SOL    HW288225   9.434   0.601   6.615  0.1605  0.4121  0.9192
28616SOL     OW88226   3.542   8.750  10.726 -0.9170 -0.7717 -0.4518
28616SOL    HW188227   3.577   8.672  10.770  3.5931  2.2365  2.1327
28616SOL    HW288228   3.487   8.792  10.792  0.1637  0.2769 -0.1875
28617SOL     OW88229   0.582   0.248   5.172 -0.2479 -0.1398 -0.4832
28617SOL    HW188230   0.620   0.323   5.217  1.5047 -0.9098 -0.5897
28617SOL    HW288231   0.487   0.258   5.183  0.0103  1.3598  0.6274
28618SOL     OW88232   7.173   3.729   5.742  0.5734 -0.2141  0.1499
28618SOL    HW188233   7.239   3.734   5.811  1.6204 -0.7050 -0.7931
28618SOL    HW288234   7.192   3.804   5.685 -0.6694  0.5520  0.6910
28619SOL     OW88235   1.586   9.066   6.190  0.2459 -0.9197  0.1874
28619SOL    HW188236   1.531   9.016   6.130 -0.2316  0.8627 -0.9172
28619SOL    HW288237   1.673   9.064   6.150 -0.1966  0.7744 -0.9542
28620SOL     OW88238  10.147   1.365   3.551 -0.6217  0.1762 -0.1057
28620SOL    HW188239  10.170   1.283   3.594 -2.2946  0.8560  2.2714
28620SOL    HW288240  10.132   1.341   3.460  0.7778 -1.7735  0.1183
28621SOL     OW88241   7.369   5.477   6.687 -0.2303 -0.6366  0.1430
28621SOL    HW188242   7.399   5.562   6.719 -1.4283 -0.1555  0.0296
28621SOL    HW288243   7.407   5.413   6.748 -0.1774  0.0538  0.8478
28622SOL     OW88244   7.098   3.155   9.858  0.0295  0.4962  0.0372
28622SOL    HW188245   7.121   3.109   9.939 -0.4347  0.4140  0.1267
28622SOL    HW288246   7.055   3.235   9.887 -0.7592  0.1442 -0.1224
28623SOL     OW88247   8.927   5.624   9.248 -0.6713  0.1705 -0.0036
28623SOL    HW188248   9.005   5.604   9.195  0.4107  1.7632  0.8772
28623SOL    HW288249   8.870   5.672   9.189  0.0839  1.0622 -0.0321
28624SOL     OW88250  10.705   3.281   8.870 -0.1744  0.0888 -0.3738
28624SOL    HW188251  10.759   3.258   8.946 -0.6817  1.9893  0.6360
28624SOL    HW288252  10.621   3.308   8.908 -0.6858  0.3638 -1.6642
28625SOL     OW88253   1.109   3.032   1.535  0.0548 -0.0072 -0.7830
28625SOL    HW188254   1.029   2.995   1.497 -0.5366  0.6348 -0.1898
28625SOL    HW288255   1.124   2.981   1.614 -1.0486  1.2840  0.3129
28626SOL     OW88256   2.908   6.376   2.771  0.8005 -0.1436 -0.3001
28626SOL    HW188257   2.976   6.316   2.802  1.0334  0.7580  1.0842
28626SOL    HW288258   2.828   6.324   2.769  0.8913 -0.4256  1.3770
28627SOL     OW88259   1.910   0.066   7.410  0.1054 -0.2356  0.2140
28627SOL    HW188260   1.943  -0.018   7.378  1.9748  0.5930 -0.1864
28627SOL    HW288261   1.950   0.076   7.497  3.0843  1.8413 -1.2065
28628SOL     OW88262   0.193  10.042   5.973  0.3701  0.5421 -0.6160
28628SOL    HW188263   0.228  10.021   6.059 -3.6172  1.5902  1.5339
28628SOL    HW288264   0.244  10.117   5.943  0.5009  1.5549  1.9307
28629SOL     OW88265   3.723   9.204   9.380  0.0902  0.3614  0.1470
28629SOL    HW188266   3.702   9.248   9.463  0.5657 -0.0220  0.4800
28629SOL    HW288267   3.679   9.255   9.313  2.5273  2.7595  0.2271
28630SOL     OW88268   9.239   1.371  10.739 -0.6324  0.9471 -0.5262
28630SOL    HW188269   9.225   1.463  10.762 -1.1492  0.5192  1.0272
28630SOL    HW288270   9.332   1.357  10.757 -0.6761  1.0355 -0.2104
28631SOL     OW88271   5.579   1.310   5.962 -0.0563  0.0768  0.6589
28631SOL    HW188272   5.630   1.321   5.882 -0.0744 -3.0437  0.1009
28631SOL    HW288273   5.489   1.328   5.935  0.2504  1.8653  0.7297
28632SOL     OW88274   0.810   2.562   2.598  0.5170 -0.2314  0.7170
28632SOL    HW188275   0.830   2.499   2.668  1.6607 -1.9357 -1.0609
28632SOL    HW288276   0.716   2.576   2.606  0.6574 -0.0812  2.8084
28633SOL     OW88277   1.112   5.780   5.285 -0.3140 -0.3181  0.8101
28633SOL    HW188278   1.145   5.776   5.195  0.2188 -0.8952  1.0254
28633SOL    HW288279   1.047   5.709   5.288  0.1191 -0.7113  1.0521
28634SOL     OW88280   3.488  10.701   6.231 -0.5117 -0.2793 -0.1158
28634SOL    HW188281   3.394  10.692   6.217 -0.5364 -0.1709 -0.0166
28634SOL    HW288282   3.523  10.721   6.144 -0.4829 -1.0926 -0.2993
28635SOL     OW88283   6.509   9.202   3.242  0.0487  0.0167  0.0273
28635SOL    HW188284   6.544   9.113   3.237 -0.5920 -0.2008 -0.8344
28635SOL    HW288285   6.584   9.256   3.267  0.3245 -0.8297  1.0966
28636SOL     OW88286   1.313  10.113   0.787 -0.2023 -0.6126  0.1784
28636SOL    HW188287   1.302  10.101   0.882  0.9854 -3.1551  0.0827
28636SOL    HW288288   1.378  10.183   0.779 -1.0605  0.3409  1.1786
28637SOL     OW88289   6.523   3.519   4.533 -0.5557 -0.3615 -0.3286
28637SOL    HW188290   6.568   3.589   4.581 -1.8869  0.9584 -0.9177
28637SOL    HW288291   6.477   3.470   4.601  0.6044 -0.8579  0.1196
28638SOL     OW88292   0.771   1.150   5.638 -0.2656  0.3135 -0.1539
28638SOL    HW188293   0.826   1.128   5.563  0.9905  0.1472  0.7851
28638SOL    HW288294   0.779   1.075   5.697  0.0156  1.0945  0.8346
28639SOL     OW88295   8.600   5.688   2.299  0.1258 -0.1122 -0.2836
28639SOL    HW188296   8.571   5.716   2.386  0.5050 -0.5434 -0.0163
28639SOL    HW288297   8.549   5.742   2.238  0.9575  1.3259  0.2208
28640SOL     OW88298   7.623   9.956   9.498  0.3758 -0.1701  0.2808
28640SOL    HW188299   7.718   9.945   9.500  0.2569 -1.3787  0.1834
28640SOL    HW288300   7.592   9.916   9.580 -0.3300 -3.2943 -1.3857
28641SOL     OW88301   1.043  10.531   3.913 -0.1720  0.0745  0.3168
28641SOL    HW188302   1.122  10.542   3.860  0.6225 -3.4525  0.5047
28641SOL    HW288303   0.995  10.613   3.901  4.0930  3.1061  1.3798
28642SOL     OW88304   8.780   9.310   9.229  0.1600  0.1934  0.6248
28642SOL    HW188305   8.741   9.236   9.183  0.2475  1.4130 -1.5473
28642SOL    HW288306   8.852   9.338   9.173  1.3305  0.7824  2.3321
28643SOL     OW88307   1.801   8.776   0.292 -0.1365  0.2677  0.0267
28643SOL    HW188308   1.718   8.816   0.266  0.8289  2.3527 -0.0741
28643SOL    HW288309   1.832   8.731   0.214 -0.7673  0.2066 -0.1939
28644SOL     OW88310   9.680   3.891  10.341  0.0731  0.7916  0.4923
28644SOL    HW188311   9.740   3.938  10.283 -0.0858  1.0236  0.5100
28644SOL    HW288312   9.648   3.959  10.401  0.2158  0.5591  0.8340
28645SOL     OW88313   9.913  10.221   3.650  0.5029 -0.0574 -0.2963
28645SOL    HW188314   9.848  10.212   3.581  0.6463  0.2782 -0.4791
28645SOL    HW288315   9.937  10.314   3.647  1.4802 -0.3181 -0.6668
28646SOL     OW88316   1.958   6.977   0.505 -0.0417 -0.3632 -0.0799
28646SOL    HW188317   1.883   7.004   0.557 -0.4784 -1.9185  0.1666
28646SOL    HW288318   1.950   6.881   0.500  1.5730 -0.5001 -0.5888
28647SOL     OW88319  10.329   3.200   1.151 -0.2239 -0.1290 -0.1701
28647SOL    HW188320  10.401   3.140   1.132  1.6774  1.8730  0.2622
28647SOL    HW288321  10.289   3.217   1.066 -0.5295 -1.6504 -0.3539
28648SOL     OW88322   5.034   0.884   3.288 -0.1417  0.4790  0.5041
28648SOL    HW188323   4.961   0.890   3.351  0.5570  2.2016  1.2357
28648SOL    HW288324   5.021   0.959   3.230  0.3479  0.0537 -0.1694
28649SOL     OW88325   0.127   2.131   8.056  0.3859  0.3560 -1.1124
28649SOL    HW188326   0.134   2.062   8.122 -1.0529  0.3725 -0.8968
28649SOL    HW288327   0.191   2.197   8.082  1.0470 -0.4261 -0.7308
28650SOL     OW88328   7.873  10.484   2.027 -0.8112  0.5300 -0.0249
28650SOL    HW188329   7.938  10.552   2.042 -0.4809 -0.0072  1.1336
28650SOL    HW288330   7.838  10.466   2.115 -2.4622  0.7419 -0.5985
28651SOL     OW88331   3.735   4.488   8.476 -0.1379 -0.5645 -0.5721
28651SOL    HW188332   3.745   4.582   8.490 -2.1095 -0.4538  0.4028
28651SOL    HW288333   3.642   4.476   8.455  0.1550 -2.2633 -1.0926
28652SOL     OW88334   8.036  10.552   4.739 -0.6845  0.0009 -0.2465
28652SOL    HW188335   8.022  10.537   4.833 -0.9867 -0.3169 -0.3394
28652SOL    HW288336   8.078  10.472   4.708  0.6761  0.6418 -0.1250
28653SOL     OW88337   9.849   3.724   0.638  0.2947 -0.5269  0.6098
28653SOL    HW188338   9.925   3.708   0.582 -0.2840 -0.9483 -0.0847
28653SOL    HW288339   9.883   3.723   0.727  0.9636 -1.6270  0.3561
28654SOL     OW88340   0.960   8.759   5.143 -0.0895 -0.4067 -0.1052
28654SOL    HW188341   0.885   8.724   5.191  0.1349 -2.0716 -0.8995
28654SOL    HW288342   0.921   8.815   5.076 -0.6473 -1.3323 -0.5716
28655SOL     OW88343   7.879   1.510   8.461  0.4925 -0.4154  0.5541
28655SOL    HW188344   7.944   1.524   8.530  1.6602  1.1655 -0.7924
28655SOL    HW288345   7.795   1.526   8.503  1.2499  1.8100  1.3363
28656SOL     OW88346   0.810   9.182   0.830  0.4255  0.0006 -0.0082
28656SOL    HW188347   0.847   9.152   0.913  2.3850 -0.6753 -1.0460
28656SOL    HW288348   0.763   9.105   0.796 -0.2143  0.2197  0.3519
28657SOL     OW88349   8.096   0.325   3.643  0.3818 -0.0685  0.1307
28657SOL    HW188350   8.120   0.233   3.650  0.3342 -0.1668 -0.8896
28657SOL    HW288351   8.170   0.372   3.682  0.8876 -0.4977 -0.3009
28658SOL     OW88352  10.372   7.966   3.069  0.0197 -0.7435 -0.2520
28658SOL    HW188353  10.316   7.950   3.145  0.6515 -0.6560  0.2404
28658SOL    HW288354  10.460   7.971   3.105  0.3815 -1.1809 -1.0636
28659SOL     OW88355   0.768   2.210   2.614 -0.6905 -0.6758 -0.0662
28659SOL    HW188356   0.787   2.291   2.660 -0.0978 -0.0063 -1.4348
28659SOL    HW288357   0.816   2.143   2.663 -0.3155 -0.0327  0.4608
28660SOL     OW88358   2.098   4.279   7.393 -0.3269  0.0213  0.1824
28660SOL    HW188359   2.138   4.343   7.334 -0.7557  1.2952  1.2141
28660SOL    HW288360   2.171   4.229   7.427  0.2177  1.1247  0.6716
28661SOL     OW88361   3.209   3.297  10.581  0.1725  0.4265 -0.1394
28661SOL    HW188362   3.268   3.370  10.563 -0.2978  0.9167  0.2690
28661SOL    HW288363   3.125   3.338  10.601 -0.2710 -0.2552 -0.5599
28662SOL     OW88364   3.527   9.633   2.396  0.3975 -0.4615 -0.3784
28662SOL    HW188365   3.548   9.692   2.469  0.5597  1.9741 -2.2643
28662SOL    HW288366   3.609   9.588   2.377 -0.0489 -2.4870  1.9583
28663SOL     OW88367   8.726   8.389   5.831 -0.4791  0.4689 -0.4110
28663SOL    HW188368   8.729   8.474   5.786  2.0063  1.1918  0.8902
28663SOL    HW288369   8.762   8.407   5.918  0.6435 -1.9993 -0.2765
28664SOL     OW88370   6.220  10.196   6.296  0.1695 -0.0693  0.1995
28664SOL    HW188371   6.205  10.239   6.380 -0.4076  1.1915 -0.5257
28664SOL    HW288372   6.136  10.156   6.274  0.2830 -0.2866  0.1556
28665SOL     OW88373   5.095   7.354  10.346 -0.2157 -0.2003  0.4206
28665SOL    HW188374   5.112   7.401  10.264  1.0532  2.3406  2.0102
28665SOL    HW288375   5.005   7.375  10.368 -1.0709 -2.1436 -1.0171
28666SOL     OW88376   6.599   2.108   1.178 -0.3424 -0.6290 -0.1127
28666SOL    HW188377   6.554   2.187   1.207  1.1384  0.0110  0.5118
28666SOL    HW288378   6.611   2.056   1.258 -1.1985 -1.4669 -0.4974
28667SOL     OW88379   3.310   1.109   2.008 -0.1148 -0.4464 -0.8813
28667SOL    HW188380   3.267   1.140   2.088  1.3895  1.5766 -0.7765
28667SOL    HW288381   3.403   1.118   2.026  0.3245 -2.2279 -2.0401
28668SOL     OW88382   3.322   4.219   0.346 -0.1764 -0.1268 -1.0537
28668SOL    HW188383   3.271   4.179   0.417 -0.4610  0.9200 -0.6553
28668SOL    HW288384   3.336   4.309   0.374  0.8058 -0.0461 -1.7556
28669SOL     OW88385   5.098   5.932   1.008  0.3679 -0.3986  0.1923
28669SOL    HW188386   5.033   5.893   1.067 -0.9583 -0.1356 -1.0367
28669SOL    HW288387   5.108   6.021   1.041  0.1925 -0.4782  0.4701
28670SOL     OW88388  10.538  10.650   5.069  0.2227 -0.2595  0.1068
28670SOL    HW188389  10.552  10.727   5.125 -0.6725 -0.7280  1.0075
28670SOL    HW288390  10.466  10.676   5.011  0.6794 -0.0219 -0.3557
28671SOL     OW88391   3.729   0.296   8.177 -0.1288  0.0096  0.3747
28671SOL    HW188392   3.728   0.320   8.084  1.9356 -0.6244  0.1545
28671SOL    HW288393   3.727   0.380   8.223 -0.1347  0.3601 -0.2547
28672SOL     OW88394   3.315   9.013   7.453  0.1778 -0.1663 -0.5486
28672SOL    HW188395   3.321   9.016   7.548  3.0755 -1.0111 -0.5994
28672SOL    HW288396   3.349   9.098   7.424 -1.1324  0.2677 -0.8388
28673SOL     OW88397   6.666   7.393   0.732  0.3691 -0.6147 -0.6147
28673SOL    HW188398   6.742   7.403   0.674  1.1321 -1.9401  0.1251
28673SOL    HW288399   6.703   7.366   0.815 -1.0071 -2.6187 -0.5959
28674SOL     OW88400   2.686   3.407   8.816  0.4303  0.6523 -0.6472
28674SOL    HW188401   2.654   3.336   8.760  0.4537  0.1413 -0.0252
28674SOL    HW288402   2.775   3.425   8.785  1.8195 -2.0171  1.3791
28675SOL     OW88403   6.031   7.676  10.508  0.0232 -0.1741 -0.0514
28675SOL    HW188404   5.964   7.646  10.569  0.0011  0.3654  0.1918
28675SOL    HW288405   6.066   7.595  10.469 -0.0423 -0.5109  0.5812
28676SOL     OW88406   5.571   1.836   7.591  0.3491  0.5365  0.0943
28676SOL    HW188407   5.487   1.877   7.570  0.4928  0.9009  0.2269
28676SOL    HW288408   5.585   1.774   7.519 -2.2578 -3.0433  2.3683
28677SOL     OW88409   5.649   1.360   6.936 -0.5539 -0.3290 -0.0779
28677SOL    HW188410   5.670   1.270   6.957 -1.2774 -1.1985 -2.6527
28677SOL    HW288411   5.555   1.360   6.922 -0.3757  0.4727 -1.4741
28678SOL     OW88412   2.536   2.713  10.669 -0.2777 -0.4543  0.8419
28678SOL    HW188413   2.508   2.742  10.582  0.5290 -0.9578  0.4028
28678SOL    HW288414   2.457   2.722  10.723 -1.1891 -1.3985 -0.2492
28679SOL     OW88415   9.542   4.347   2.960 -0.4441 -0.1595 -0.1285
28679SOL    HW188416   9.588   4.327   3.041 -0.7235 -0.4418 -0.0379
28679SOL    HW288417   9.571   4.280   2.898 -1.2031 -0.7200  0.1079
28680SOL     OW88418   9.888   5.961   3.441 -0.0215  0.4961  0.8801
28680SOL    HW188419   9.933   6.045   3.449  1.4705  0.0901 -1.9574
28680SOL    HW288420   9.844   5.965   3.356 -0.6267 -1.2886  1.0637
28681SOL     OW88421   6.684   7.940   8.079 -0.1097  0.4668  1.1555
28681SOL    HW188422   6.638   7.888   8.013  0.6075 -1.6155  2.2098
28681SOL    HW288423   6.764   7.968   8.035 -0.8073  1.3064  0.3655
28682SOL     OW88424   0.655   7.627   9.099 -0.3064  0.6097  0.3611
28682SOL    HW188425   0.608   7.598   9.021 -0.8394 -0.6329  1.1178
28682SOL    HW288426   0.735   7.574   9.101 -1.2921 -0.9156  1.7575
28683SOL     OW88427   7.427   4.940   8.086 -0.0836 -0.6592 -0.0602
28683SOL    HW188428   7.353   4.978   8.133 -0.5952 -0.3618 -1.0793
28683SOL    HW288429   7.434   4.851   8.121 -0.6343 -0.5423  0.3593
28684SOL     OW88430   3.655   8.221   6.947  0.0421 -0.2694  0.2938
28684SOL    HW188431   3.688   8.135   6.921  0.0881 -1.0390  2.6655
28684SOL    HW288432   3.730   8.263   6.989 -0.0270  0.9199 -0.6986
28685SOL     OW88433   2.102   7.128   9.382 -0.1188 -0.3222 -0.0127
28685SOL    HW188434   2.109   7.223   9.379 -0.2823 -0.2265  1.6000
28685SOL    HW288435   2.177   7.100   9.434 -0.4745 -1.0045  0.1507
28686SOL     OW88436   7.267   6.848   4.219 -0.2931 -0.6870 -0.2349
28686SOL    HW188437   7.286   6.886   4.134  1.9898  0.1991  0.5836
28686SOL    HW288438   7.344   6.794   4.239 -0.4901 -0.4003  1.4873
28687SOL     OW88439   1.327   5.838   8.159 -0.3290 -0.5118  0.2771
28687SOL    HW188440   1.423   5.839   8.155 -0.3366  0.1958  0.2557
28687SOL    HW288441   1.307   5.768   8.222  0.1625 -1.4303 -0.5505
28688SOL     OW88442   4.130   4.678  10.339 -0.4304  0.6676  0.0451
28688SOL    HW188443   4.072   4.644  10.407  0.1757 -0.1416  0.1726
28688SOL    HW288444   4.072   4.708  10.270 -1.0001 -0.1539  0.1612
28689SOL     OW88445   4.847   6.733   7.976  0.3766 -0.5530 -0.1268
28689SOL    HW188446   4.885   6.812   7.940  2.2275 -1.3426 -0.0219
28689SOL    HW288447   4.775   6.764   8.032  0.2094  0.9338 -1.1168
28690SOL     OW88448   1.073   8.474   1.935  0.6860  0.7180  0.2488
28690SOL    HW188449   1.089   8.566   1.957 -0.0980  0.5399  1.6765
28690SOL    HW288450   1.066   8.430   2.020 -2.1566 -0.0973 -0.2878
28691SOL     OW88451   6.881  10.098   5.020 -0.8292 -0.4416  0.0502
28691SOL    HW188452   6.852  10.156   4.949  1.1774  0.4183 -0.1420
28691SOL    HW288453   6.854  10.011   4.992 -0.3500 -0.0844 -1.6594
28692SOL     OW88454  10.540   1.699   7.727  0.2132 -0.1808 -0.0009
28692SOL    HW188455  10.501   1.720   7.641  1.0789 -0.3786 -0.4555
28692SOL    HW288456  10.631   1.728   7.719  0.2451 -0.0003  0.9372
28693SOL     OW88457   0.875   6.452   2.398  0.4300 -0.0354 -0.7404
28693SOL    HW188458   0.916   6.518   2.341  2.6823 -0.0864  0.6765
28693SOL    HW288459   0.897   6.368   2.357 -1.9175  0.0017 -2.2147
28694SOL     OW88460   1.548   2.671   6.442  0.1039  0.1935 -0.5140
28694SOL    HW188461   1.632   2.688   6.484  0.6152  0.2349 -1.5311
28694SOL    HW288462   1.484   2.679   6.513  1.1091 -1.8029  0.6901
28695SOL     OW88463   9.358  10.725  10.273 -0.3929 -0.0392  0.1748
28695SOL    HW188464   9.318  10.732  10.186 -0.7266 -0.1636  0.3207
28695SOL    HW288465   9.449  10.702  10.254  0.0466  1.8383 -0.2206
28696SOL     OW88466   7.533  10.738   8.556 -0.0249  0.1365 -0.4898
28696SOL    HW188467   7.478  10.723   8.479 -0.2438  0.8225 -0.4788
28696SOL    HW288468   7.547  10.651   8.594 -1.8148  0.0327 -0.0076
28697SOL     OW88469   3.049  10.453   1.507 -0.1375  0.6602  0.7097
28697SOL    HW188470   3.140  10.477   1.489  0.6728 -1.3362  1.7933
28697SOL    HW288471   3.037  10.476   1.600  0.6963 -2.8076  1.8132
28698SOL     OW88472   5.052   7.520   6.321 -0.5811  0.1090  0.6367
28698SOL    HW188473   5.003   7.534   6.402  0.2107  0.6661  1.0267
28698SOL    HW288474   5.134   7.480   6.349 -0.5400 -0.2238  0.0510
28699SOL     OW88475   1.811   5.988  10.596 -0.0679  0.2589 -0.0085
28699SOL    HW188476   1.721   5.997  10.627 -0.1732  0.3470 -0.3347
28699SOL    HW288477   1.807   6.009  10.503  0.3563  0.6371  0.0535
28700SOL     OW88478   4.032  10.444   4.352 -0.0619  0.4407  0.0325
28700SOL    HW188479   4.033  10.461   4.447 -0.2024  1.5602 -0.1498
28700SOL    HW288480   3.942  10.463   4.326 -0.2417 -0.6955 -0.1970
28701SOL     OW88481   9.895  10.228   4.637 -0.4995 -0.0655 -0.2678
28701SOL    HW188482   9.817  10.180   4.611 -0.5672  0.1241 -0.4189
28701SOL    HW288483   9.928  10.266   4.555  0.6277 -1.4069 -0.4851
28702SOL     OW88484  10.048  10.120   9.069  0.0424  0.2693  0.5826
28702SOL    HW188485  10.110  10.076   9.011  2.2668 -0.7433  3.4802
28702SOL    HW288486  10.084  10.208   9.080 -1.3647  1.0800 -0.8519
28703SOL     OW88487   6.388   8.278   3.094  0.0614 -0.0816  0.2291
28703SOL    HW188488   6.419   8.349   3.038 -0.1105  0.2333  0.5331
28703SOL    HW288489   6.308   8.312   3.134 -0.0104 -0.4397  0.3893
28704SOL     OW88490   0.883   8.656   0.776  0.0726  0.2216 -0.6477
28704SOL    HW188491   0.909   8.746   0.798 -1.0323  0.3111  0.4098
28704SOL    HW288492   0.796   8.665   0.738  0.6303 -0.2668 -2.1043
28705SOL     OW88493   9.205   5.664   6.163  0.4216  0.1751  0.1789
28705SOL    HW188494   9.291   5.622   6.165 -0.2882 -1.4810 -1.5710
28705SOL    HW288495   9.145   5.598   6.196 -0.4747  0.4805 -0.7954
28706SOL     OW88496   1.496   4.510   9.491  0.2790 -0.2772 -0.2270
28706SOL    HW188497   1.477   4.419   9.466 -0.9803  0.0025 -0.3537
28706SOL    HW288498   1.499   4.507   9.587 -0.8191 -0.2809 -0.1767
28707SOL     OW88499   7.836   4.898   6.971 -0.0007 -0.6389 -0.1142
28707SOL    HW188500   7.791   4.947   6.902  0.7220  3.6549  2.1454
28707SOL    HW288501   7.868   4.819   6.926 -2.3578  0.2188 -3.8016
28708SOL     OW88502   1.396   4.247   9.467  0.0247 -0.3584  0.1967
28708SOL    HW188503   1.368   4.184   9.533  2.3189 -1.0697  0.5721
28708SOL    HW288504   1.416   4.194   9.390 -1.4516  0.3369 -0.7146
28709SOL     OW88505   1.864   8.081   2.056  0.3546  0.1643  0.0616
28709SOL    HW188506   1.796   8.024   2.021 -1.6158  1.3366  1.6997
28709SOL    HW288507   1.862   8.065   2.150 -0.1387  2.7145  0.5525
28710SOL     OW88508   3.297   6.659   9.511 -0.0715  0.1508  0.1592
28710SOL    HW188509   3.377   6.611   9.532  0.3145  0.9216  0.4891
28710SOL    HW288510   3.319   6.708   9.432  0.0885  1.0643  0.7580
28711SOL     OW88511   7.247   3.816   5.090  0.3435 -0.1973  0.2872
28711SOL    HW188512   7.226   3.728   5.121  1.4284 -0.6870 -0.3297
28711SOL    HW288513   7.342   3.816   5.078  0.1024  0.1758 -2.2783
28712SOL     OW88514   4.580   4.324   8.982  0.6126 -0.2850 -0.5595
28712SOL    HW188515   4.549   4.265   9.051  1.2442 -0.5751 -0.5121
28712SOL    HW288516   4.674   4.305   8.975  0.9020  0.9956 -0.2805
28713SOL     OW88517   1.998   1.730   7.177 -0.2548  0.3534 -0.4314
28713SOL    HW188518   1.973   1.812   7.220  0.0898  0.9699 -1.3931
28713SOL    HW288519   2.089   1.717   7.202 -0.1869  0.4752 -0.6206
28714SOL     OW88520   8.499   0.448   9.437  0.0249  0.3168  0.3723
28714SOL    HW188521   8.448   0.380   9.480  0.2801 -0.0186  0.1455
28714SOL    HW288522   8.569   0.402   9.392 -0.3448  0.6320 -0.5667
28715SOL     OW88523   5.276   8.909   4.430  0.1578  0.3454 -0.0061
28715SOL    HW188524   5.268   8.838   4.366  2.0021  0.3078 -0.2565
28715SOL    HW288525   5.326   8.977   4.384  0.1179  0.9864  0.8688
28716SOL     OW88526   8.357   4.559   3.107  0.1957 -0.1011 -0.4438
28716SOL    HW188527   8.370   4.580   3.015 -2.8955 -0.5272 -1.0848
28716SOL    HW288528   8.270   4.593   3.128  0.4848 -0.7008  2.1026
28717SOL     OW88529   4.429   1.797   3.129  0.3266 -0.2869 -0.0086
28717SOL    HW188530   4.366   1.741   3.174 -1.2459  0.0241 -1.6673
28717SOL    HW288531   4.427   1.766   3.038  1.7681  0.4503 -0.3181
28718SOL     OW88532   3.376  10.299   5.349  0.1346  0.3852 -0.0377
28718SOL    HW188533   3.354  10.260   5.264 -0.1867 -1.4423  0.8348
28718SOL    HW288534   3.397  10.390   5.329  2.7315 -0.6200 -2.4884
28719SOL     OW88535  10.097   6.615  10.702  0.3121  0.0947  0.8009
28719SOL    HW188536  10.131   6.646  10.618 -2.2888  0.9245 -0.0308
28719SOL    HW288537  10.070   6.524  10.684 -1.9172  0.8235  0.1261
28720SOL     OW88538   5.036   6.268   7.931 -0.1548  0.0488 -0.1769
28720SOL    HW188539   5.042   6.195   7.870  0.5555  0.4458 -0.6038
28720SOL    HW288540   4.963   6.246   7.989 -1.0605 -0.1883 -1.3662
28721SOL     OW88541   4.986   1.305  10.173  0.5172 -0.0664 -0.1758
28721SOL    HW188542   5.056   1.369  10.163 -0.8344  1.4549 -0.2675
28721SOL    HW288543   4.975   1.268  10.085  0.1658  0.8308 -0.5196
28722SOL     OW88544   4.948   3.833   5.912  0.1419 -0.1987 -0.0617
28722SOL    HW188545   5.011   3.880   5.857 -1.8194  2.1920 -0.4677
28722SOL    HW288546   4.928   3.895   5.982 -1.7760 -0.8461  0.0065
28723SOL     OW88547   8.569   8.859   6.237  0.2141  0.1249 -0.1103
28723SOL    HW188548   8.564   8.879   6.143  1.7652 -2.2679 -0.7726
28723SOL    HW288549   8.655   8.821   6.249 -0.9319 -2.1209  1.7605
28724SOL     OW88550   2.997   1.011   5.489  0.8345 -0.0740  0.2347
28724SOL    HW188551   3.010   1.006   5.395 -0.5485 -0.4573  0.0413
28724SOL    HW288552   2.981   1.104   5.507  0.0943 -0.1371 -0.0673
28725SOL     OW88553   2.439   6.079   9.187  0.4232  0.4613  0.1040
28725SOL    HW188554   2.451   5.985   9.176  1.3320  0.3695  1.5866
28725SOL    HW288555   2.524   6.118   9.164  0.3409  0.8210  0.3859
28726SOL     OW88556   9.817   4.421   9.391  0.0272 -0.3131 -0.1942
28726SOL    HW188557   9.821   4.382   9.478  1.1745 -0.8433 -0.4589
28726SOL    HW288558   9.787   4.350   9.334  1.0564 -0.5216 -0.5017
28727SOL     OW88559   3.115   0.761   6.989  0.0314 -0.0523 -0.7745
28727SOL    HW188560   3.150   0.675   6.969 -0.5903 -0.8277  1.2383
28727SOL    HW288561   3.032   0.744   7.032  1.0721  1.3818  2.0257
28728SOL     OW88562   1.058   9.226   1.243  0.2053  0.7406  0.1936
28728SOL    HW188563   1.113   9.203   1.318  0.5212 -0.1370 -0.2935
28728SOL    HW288564   1.117   9.274   1.184  0.4423 -0.0792 -0.2644
28729SOL     OW88565   5.776   8.825   7.069 -0.3176  0.8240 -0.4674
28729SOL    HW188566   5.741   8.893   7.128  0.2639  0.6798  0.0520
28729SOL    HW288567   5.858   8.862   7.036 -0.2894  0.6103 -0.6370
28730SOL     OW88568   6.749   9.327   2.035 -0.1030  0.0138 -0.1555
28730SOL    HW188569   6.839   9.314   2.063  0.0357 -0.7275 -0.8888
28730SOL    HW288570   6.746   9.417   2.003  0.0695  0.4286  0.9465
28731SOL     OW88571   5.032   0.576   0.835  0.0120 -0.7630 -0.5552
28731SOL    HW188572   5.097   0.646   0.844 -1.0806  0.4258 -1.4126
28731SOL    HW288573   5.056   0.532   0.753  0.0682 -0.6772 -0.5858
28732SOL     OW88574  10.370   0.345   1.332 -0.2488  0.6350  0.4681
28732SOL    HW188575  10.317   0.421   1.356  0.1626  0.8947  0.5728
28732SOL    HW288576  10.323   0.270   1.368 -0.5006  0.8683  0.6290
28733SOL     OW88577   4.662   2.654   8.925  0.1606  0.5419 -0.4606
28733SOL    HW188578   4.607   2.629   8.999  2.3063 -1.8703  0.4615
28733SOL    HW288579   4.630   2.602   8.852  1.9643 -2.0212  0.4345
28734SOL     OW88580   7.439   5.411   1.652  0.1012 -0.3338 -0.5848
28734SOL    HW188581   7.358   5.370   1.623 -0.5915 -0.0584  0.8958
28734SOL    HW288582   7.415   5.460   1.731  1.4166  0.9173 -0.9276
28735SOL     OW88583   3.144   4.035   8.497  0.4953 -0.5737  0.5837
28735SOL    HW188584   3.162   3.942   8.506  0.5734 -0.5690  0.4764
28735SOL    HW288585   3.049   4.042   8.506  0.4721 -0.6837  0.4243
28736SOL     OW88586   8.963   7.452   4.377 -0.2126  0.7717 -0.2126
28736SOL    HW188587   8.870   7.446   4.401 -0.4785  1.1123 -1.0966
28736SOL    HW288588   9.003   7.504   4.446 -0.7262  0.8102  0.0632
28737SOL     OW88589   6.422   6.836   3.443  0.2328  0.2647  0.2534
28737SOL    HW188590   6.505   6.791   3.456 -0.2490 -1.8869 -2.9092
28737SOL    HW288591   6.418   6.852   3.348 -3.7735 -1.6038 -0.0828
28738SOL     OW88592   1.411   1.826   1.062  0.7502 -0.3064  0.3059
28738SOL    HW188593   1.318   1.839   1.083  0.9113  0.1608  0.7390
28738SOL    HW288594   1.450   1.913   1.073  1.1919 -0.4490 -0.1230
28739SOL     OW88595   5.358   0.513   3.617 -0.4931  0.8074  0.3147
28739SOL    HW188596   5.323   0.521   3.528  0.2755 -1.7804 -0.3210
28739SOL    HW288597   5.389   0.422   3.622  0.2243  1.1166  2.9747
28740SOL     OW88598   3.950   2.279  10.522  0.3071 -0.0952  0.0105
28740SOL    HW188599   3.998   2.317  10.596  0.4073 -0.4471  0.1245
28740SOL    HW288600   4.004   2.207  10.492 -0.8022 -1.3936  1.0226
28741SOL     OW88601   7.176  10.204   6.906  0.1612 -0.2398  0.7420
28741SOL    HW188602   7.103  10.203   6.967 -1.6136  0.4640 -1.2442
28741SOL    HW288603   7.210  10.293   6.910  0.8858 -0.5374  1.5838
28742SOL     OW88604   1.194   4.873   5.370 -0.4022  0.1193 -0.2064
28742SOL    HW188605   1.220   4.963   5.393 -3.0855  0.8710  0.2393
28742SOL    HW288606   1.263   4.818   5.406 -0.3354  1.8166  2.5387
28743SOL     OW88607   6.709   0.137   1.594  1.0023  0.0203  0.0055
28743SOL    HW188608   6.793   0.184   1.596  0.4928  0.9472  1.7858
28743SOL    HW288609   6.674   0.157   1.507  1.6398  1.4628  0.0397
28744SOL     OW88610   3.570   3.902   2.716 -0.6111 -0.3371 -0.1381
28744SOL    HW188611   3.594   3.956   2.791 -0.4265 -0.8389  0.1728
28744SOL    HW288612   3.604   3.815   2.738 -1.5590 -0.7555 -0.2852
28745SOL     OW88613   8.556   6.952  10.373 -0.0259  0.5509  0.2901
28745SOL    HW188614   8.597   6.866  10.375  0.1670  0.5932 -0.9068
28745SOL    HW288615   8.503   6.952  10.293 -0.8166  1.1957  0.7890
28746SOL     OW88616   1.499   0.544   9.012 -0.2908 -0.0804  0.0426
28746SOL    HW188617   1.568   0.479   9.019 -0.3810 -0.0488  1.7137
28746SOL    HW288618   1.532   0.619   9.063 -0.4760  0.9270 -1.2732
28747SOL     OW88619   8.141   4.445   2.214 -0.6446  0.2351  0.2196
28747SOL    HW188620   8.048   4.443   2.236 -0.8835 -0.1209 -0.7673
28747SOL    HW288621   8.151   4.381   2.144  0.0589  1.3638 -0.7523
28748SOL     OW88622   9.224   5.208   9.822 -0.5604 -0.2975  0.2561
28748SOL    HW188623   9.146   5.190   9.874 -1.8329 -0.5722 -1.6609
28748SOL    HW288624   9.203   5.174   9.735  0.7166  1.8621 -0.9709
28749SOL     OW88625   4.710   4.414   6.449  0.1637  0.6481  0.0656
28749SOL    HW188626   4.656   4.493   6.456 -1.1968 -0.3623  1.5990
28749SOL    HW288627   4.700   4.370   6.534  0.1109 -1.6673 -1.0722
28750SOL     OW88628   1.592   4.287   5.736 -0.2108  0.0491  0.4922
28750SOL    HW188629   1.514   4.321   5.691 -0.1383  0.8878  0.9756
28750SOL    HW288630   1.665   4.331   5.692 -0.0118 -0.6730  0.0962
28751SOL     OW88631   5.845   3.052   0.559 -0.2664  0.3527 -0.2150
28751SOL    HW188632   5.902   3.117   0.519 -0.0539  0.9120  0.9301
28751SOL    HW288633   5.862   3.061   0.653 -0.7592 -0.8750  0.0092
28752SOL     OW88634   6.854   4.500   9.372  0.3404 -0.3683  0.2320
28752SOL    HW188635   6.841   4.406   9.388 -0.0476 -0.2699  0.5044
28752SOL    HW288636   6.775   4.541   9.408  0.1030 -0.0152 -0.6771
28753SOL     OW88637   8.092   0.955   7.465 -0.0640 -0.4073 -0.2811
28753SOL    HW188638   8.166   0.932   7.409  0.3806  0.8102 -0.2252
28753SOL    HW288639   8.025   0.988   7.405 -0.8607 -2.1332 -0.4056
28754SOL     OW88640  10.451   6.432   0.276 -0.2789 -0.1800 -0.0451
28754SOL    HW188641  10.454   6.483   0.195 -0.6020  0.7348  0.5091
28754SOL    HW288642  10.524   6.465   0.327 -0.8701  0.1818  0.5784
28755SOL     OW88643   9.802   1.633   6.578 -0.3158  0.6514 -0.2268
28755SOL    HW188644   9.716   1.593   6.582 -0.5624  1.1866 -0.1402
28755SOL    HW288645   9.839   1.603   6.494 -0.7179  0.6884 -0.4167
28756SOL     OW88646   8.904   4.407   2.455 -0.2185 -0.4583 -0.5821
28756SOL    HW188647   8.816   4.388   2.423 -1.0940  1.3038  0.6293
28756SOL    HW288648   8.927   4.330   2.507 -0.4111 -1.5700 -2.0752
28757SOL     OW88649   7.373   8.595   5.788 -0.3822  0.5898 -0.6096
28757SOL    HW188650   7.395   8.683   5.758 -0.3024  0.2743 -1.5093
28757SOL    HW288651   7.352   8.606   5.881 -1.2665  1.7069 -0.9151
28758SOL     OW88652   9.790   9.522   2.815 -0.6573  0.5619 -0.5819
28758SOL    HW188653   9.838   9.596   2.853 -1.3967  0.4948  0.5186
28758SOL    HW288654   9.858   9.462   2.785  0.0071  2.1703 -2.5655
28759SOL     OW88655   2.861   4.102   1.654  0.2402 -0.6645 -0.0728
28759SOL    HW188656   2.795   4.168   1.632 -0.7639 -1.9182 -1.0693
28759SOL    HW288657   2.880   4.116   1.746 -0.9616  0.1483  0.0752
28760SOL     OW88658   2.570   8.216   6.298 -0.1415 -0.7677  0.0331
28760SOL    HW188659   2.548   8.273   6.372 -2.9643 -0.1599 -1.1138
28760SOL    HW288660   2.585   8.276   6.225 -0.8854 -1.4097 -0.6701
28761SOL     OW88661   9.180   0.477   6.183  0.0903  0.6616 -0.0254
28761SOL    HW188662   9.203   0.465   6.275 -1.4695  1.2159  0.4729
28761SOL    HW288663   9.167   0.389   6.149  1.7832  0.3947 -0.0452
28762SOL     OW88664   5.287   9.437   0.588  0.0856 -0.5418  0.1472
28762SOL    HW188665   5.205   9.390   0.573  0.1511 -1.4010  2.2195
28762SOL    HW288666   5.266   9.502   0.655  0.7998  0.1575 -0.2792
28763SOL     OW88667   2.587   3.979   0.478  0.7283  0.4742 -0.1417
28763SOL    HW188668   2.628   3.918   0.538  2.2426  1.9254  0.3622
28763SOL    HW288669   2.613   4.066   0.509 -0.3942  1.3587 -1.4995
28764SOL     OW88670   0.081  10.783   5.455 -0.6318  0.4609 -0.0776
28764SOL    HW188671   0.044  10.821   5.375 -1.3647 -1.6845 -0.8318
28764SOL    HW288672   0.004  10.760   5.507 -0.2466 -0.3510  0.1458
28765SOL     OW88673   6.091   9.871   3.873 -0.1555  1.1906  0.1015
28765SOL    HW188674   6.082   9.945   3.813 -3.7260  0.9889  0.1390
28765SOL    HW288675   6.018   9.882   3.935  0.6710 -1.0635  1.6163
28766SOL     OW88676   3.276   4.110   8.252  0.6240  0.9296 -0.1872
28766SOL    HW188677   3.211   4.095   8.321 -0.6281 -1.1204 -1.7046
28766SOL    HW288678   3.250   4.193   8.212 -0.5063  0.6046 -0.1554
28767SOL     OW88679   9.226   1.053   4.182  0.3154  0.4342  0.1318
28767SOL    HW188680   9.185   0.968   4.201  0.2788  0.5804  0.7440
28767SOL    HW288681   9.210   1.067   4.089  1.3475 -0.7775 -0.2584
28768SOL     OW88682   7.948   4.024   9.038  0.1757  0.2610 -0.1103
28768SOL    HW188683   7.951   3.942   8.989  1.6322  1.7955 -2.8538
28768SOL    HW288684   7.863   4.062   9.017 -0.4802 -0.4908  1.1247
28769SOL     OW88685   0.313   9.632  10.073  0.5904 -0.1884 -0.2901
28769SOL    HW188686   0.317   9.565  10.142  1.3751  2.1261  2.1255
28769SOL    HW288687   0.242   9.604  10.016 -0.9258 -1.7169  2.1409
28770SOL     OW88688   1.320   2.056   6.537  0.1983  0.7412  0.5888
28770SOL    HW188689   1.405   2.098   6.519 -0.2469  1.3939 -0.0434
28770SOL    HW288690   1.309   1.993   6.466 -1.1698  2.7263 -1.0855
28771SOL     OW88691   0.041   8.453   3.036  0.3798 -0.2339  0.1333
28771SOL    HW188692   0.006   8.414   3.116 -3.0301  1.3197 -0.4198
28771SOL    HW288693   0.069   8.541   3.063  0.4674 -0.1902 -0.1043
28772SOL     OW88694   4.244   3.580   3.730 -0.4225  0.7500  0.6337
28772SOL    HW188695   4.259   3.553   3.820 -0.7852 -1.6557  0.0273
28772SOL    HW288696   4.316   3.540   3.680 -2.2720 -1.1870 -0.6389
28773SOL     OW88697   3.075   5.781   9.264 -0.0927 -0.4427  0.1703
28773SOL    HW188698   2.984   5.803   9.245  0.1469  0.1582 -0.2756
28773SOL    HW288699   3.088   5.696   9.222 -0.3473 -0.3857 -0.0258
28774SOL     OW88700   0.136   5.418   3.965 -0.2243  0.1315 -0.1362
28774SOL    HW188701   0.130   5.343   4.024  1.2995 -0.6909 -0.9538
28774SOL    HW288702   0.095   5.388   3.884  0.0449  0.3266 -0.3448
28775SOL     OW88703   8.801   9.947   5.046  0.2138  0.0792  0.0157
28775SOL    HW188704   8.717   9.932   5.091 -0.5822 -1.1987 -1.7897
28775SOL    HW288705   8.783   9.928   4.954  2.7226 -1.2549 -0.2917
28776SOL     OW88706   3.481   0.462   6.813 -0.2448 -0.0241  0.6609
28776SOL    HW188707   3.545   0.498   6.874  0.1055 -0.6613  0.6773
28776SOL    HW288708   3.509   0.494   6.727 -0.1179 -0.0021  0.7103
28777SOL     OW88709   0.200   4.736  10.388  0.8483  0.1292  0.1533
28777SOL    HW188710   0.291   4.730  10.357  0.9651 -1.6157  0.7016
28777SOL    HW288711   0.153   4.671  10.336  0.2089  0.0553  0.8064
28778SOL     OW88712   9.326   5.549  10.314 -0.5147  0.5464  0.2513
28778SOL    HW188713   9.349   5.571  10.404  1.0809 -1.0682  0.2834
28778SOL    HW288714   9.231   5.535  10.316 -0.2974 -1.0426  2.0562
28779SOL     OW88715   3.284   4.147   4.554  0.2394  0.3465 -0.1836
28779SOL    HW188716   3.270   4.097   4.474 -0.3310  0.5479 -0.2119
28779SOL    HW288717   3.202   4.140   4.602  0.9630 -0.7974  0.9672
28780SOL     OW88718   6.212   5.096   4.323  0.5974  0.1253 -0.0307
28780SOL    HW188719   6.218   5.188   4.351  2.4848  0.2028 -0.5348
28780SOL    HW288720   6.284   5.053   4.369  0.6141 -0.8035 -0.8971
28781SOL     OW88721   8.239   6.890   8.006 -0.5345  0.6364  0.6975
28781SOL    HW188722   8.263   6.946   8.080 -0.2553  0.3847  0.7955
28781SOL    HW288723   8.221   6.805   8.045  0.3263  0.3048  0.3954
28782SOL     OW88724   6.303   9.130   7.348 -0.1842 -0.3322  0.8628
28782SOL    HW188725   6.362   9.071   7.395 -2.1358 -0.4617  3.3885
28782SOL    HW288726   6.351   9.212   7.342  1.3006 -1.2064  0.2442
28783SOL     OW88727  10.041   3.492   8.333  0.4557 -0.3576 -0.2938
28783SOL    HW188728   9.989   3.440   8.394  1.2859 -0.8729 -0.0164
28783SOL    HW288729  10.080   3.561   8.386  0.0927  0.0047 -0.4934
28784SOL     OW88730   0.007   3.729   0.992 -0.2847  0.3758 -0.3768
28784SOL    HW188731  -0.002   3.824   0.997 -0.5119  0.3130  0.7474
28784SOL    HW288732   0.041   3.704   1.078  2.4010 -0.2934 -1.5143
28785SOL     OW88733   7.546   9.818   7.585  0.5567 -0.4528 -0.2954
28785SOL    HW188734   7.597   9.844   7.662 -1.1521  1.0875  0.4211
28785SOL    HW288735   7.524   9.726   7.600  1.2036 -0.4866  0.5036
28786SOL     OW88736   9.907   2.283   8.338  0.1761 -0.5400 -0.5002
28786SOL    HW188737   9.861   2.224   8.278 -1.9445  0.7465 -0.2286
28786SOL    HW288738   9.894   2.370   8.300 -2.3857  0.5149  2.3441
28787SOL     OW88739   2.975   8.374   4.131 -0.0901 -0.5468 -0.0891
28787SOL    HW188740   2.933   8.459   4.124  0.8401 -0.1332 -0.7758
28787SOL    HW288741   2.933   8.320   4.064  0.1995 -0.2520 -0.5086
28788SOL     OW88742   8.713   5.842  10.544 -0.0213  0.2539  0.1659
28788SOL    HW188743   8.644   5.838  10.479  0.7453  0.5268 -0.6813
28788SOL    HW288744   8.692   5.772  10.606 -0.0267 -0.9096 -1.1009
28789SOL     OW88745   8.775   7.168   6.935 -0.2924  0.4341  0.5501
28789SOL    HW188746   8.793   7.216   6.855 -0.4457  2.2237  1.5499
28789SOL    HW288747   8.815   7.220   7.005 -2.5593  0.4336  1.9478
28790SOL     OW88748   1.223  10.340   2.212  0.1779  0.3127  0.2988
28790SOL    HW188749   1.298  10.284   2.191  1.2486  0.6204  2.9038
28790SOL    HW288750   1.262  10.423   2.240 -1.2950  1.5369 -1.1541
28791SOL     OW88751   4.849   9.942   5.276  0.3822 -0.5415  0.4557
28791SOL    HW188752   4.929   9.894   5.298  0.4678 -0.2275  0.8584
28791SOL    HW288753   4.778   9.878   5.287  0.5221 -0.6589  0.6875
28792SOL     OW88754   4.838   0.317   7.319 -0.4728 -0.4329 -0.0453
28792SOL    HW188755   4.926   0.295   7.350 -0.0747  0.7189 -0.3254
28792SOL    HW288756   4.788   0.333   7.399 -0.3844 -0.9185  0.1098
28793SOL     OW88757   2.010   7.537   2.470 -0.2380  0.5381 -0.3549
28793SOL    HW188758   2.055   7.539   2.385  0.6320 -2.7618 -0.1330
28793SOL    HW288759   1.920   7.513   2.449 -0.3189  0.8966 -0.4182
28794SOL     OW88760   6.266   3.690   0.608 -0.2768  0.1230  0.2780
28794SOL    HW188761   6.298   3.738   0.684  0.3416 -0.8569  0.6400
28794SOL    HW288762   6.342   3.681   0.551 -0.7942  1.0980 -0.6131
28795SOL     OW88763   1.835   6.772   9.416 -0.1271 -0.1031 -0.3831
28795SOL    HW188764   1.857   6.854   9.459 -0.7169  0.6344 -1.4345
28795SOL    HW288765   1.854   6.788   9.323  2.7239 -2.2016 -0.2781
28796SOL     OW88766   3.031   2.910   9.450  0.2381  0.6263  0.0054
28796SOL    HW188767   3.106   2.854   9.430 -1.2164 -1.5720  0.3789
28796SOL    HW288768   2.983   2.917   9.367  0.0386  0.7395  0.1274
28797SOL     OW88769  10.520  10.563   5.746 -0.3793 -0.2129  0.1022
28797SOL    HW188770  10.507  10.529   5.657  0.1485 -3.4322  1.1320
28797SOL    HW288771  10.465  10.507   5.801 -0.5018  1.5496  1.8511
28798SOL     OW88772  10.599   3.936   6.895  0.0427 -0.2563  0.6360
28798SOL    HW188773  10.580   3.856   6.847  0.9044 -0.8434  1.2499
28798SOL    HW288774  10.512   3.971   6.918 -0.3491 -1.5751  1.2811
28799SOL     OW88775   8.931   8.473   2.685  0.5928  0.1070  0.1406
28799SOL    HW188776   8.986   8.522   2.624  0.3748 -1.5066 -1.4646
28799SOL    HW288777   8.980   8.471   2.767  2.4223 -0.3243 -0.9062
28800SOL     OW88778   6.062  10.330   3.610  0.3055 -0.0818  0.3318
28800SOL    HW188779   5.992  10.346   3.675  0.7023 -1.6939  1.2088
28800SOL    HW288780   6.133  10.388   3.636  0.0762  0.0208  0.7318
28801SOL     OW88781   7.922   4.983   9.284  0.2632 -0.7175  0.0581
28801SOL    HW188782   8.009   4.959   9.251  0.9150  0.2728  0.9898
28801SOL    HW288783   7.938   5.057   9.342 -1.3547  0.2266 -0.6334
28802SOL     OW88784   5.785   2.715   9.978  0.0969  0.4463 -0.1211
28802SOL    HW188785   5.871   2.683  10.004  0.9871  2.8580  0.1119
28802SOL    HW288786   5.802   2.788   9.919 -1.6969  1.9385  1.0599
28803SOL     OW88787  10.300  10.118   8.930 -0.2552  0.0403  0.2211
28803SOL    HW188788  10.348  10.200   8.918 -0.5832  0.0590 -1.1972
28803SOL    HW288789  10.366  10.050   8.925 -0.0756  0.1809  0.6583
28804SOL     OW88790   6.192   2.330   6.015  0.3258 -0.4786 -0.4375
28804SOL    HW188791   6.193   2.283   5.931 -0.1177  0.9351 -1.2660
28804SOL    HW288792   6.277   2.310   6.054 -0.5782 -3.5733  0.2171
28805SOL     OW88793   2.235   5.168   3.645 -0.7906 -0.6135 -0.1061
28805SOL    HW188794   2.254   5.074   3.648 -0.4292 -0.5424 -0.1583
28805SOL    HW288795   2.310   5.207   3.600 -0.5868 -0.2114  0.5670
28806SOL     OW88796   7.181   0.754   6.938 -0.7019 -0.0955 -0.1139
28806SOL    HW188797   7.171   0.840   6.897  0.6839  0.2475  0.1895
28806SOL    HW288798   7.271   0.728   6.917 -0.3719 -0.4840  1.5913
28807SOL     OW88799   6.761   6.655   9.238 -0.3737 -0.5743 -0.3653
28807SOL    HW188800   6.744   6.563   9.218 -2.5145 -0.2106 -0.3939
28807SOL    HW288801   6.818   6.685   9.167 -0.8576 -1.5082 -1.1595
28808SOL     OW88802   1.347   9.105   2.280  0.1841  0.4406 -0.6810
28808SOL    HW188803   1.389   9.163   2.344  2.0966 -0.4595 -1.0630
28808SOL    HW288804   1.377   9.137   2.195 -1.0485  0.6243 -1.0698
28809SOL     OW88805   3.251   9.977   5.102  0.2905  0.6626 -0.3372
28809SOL    HW188806   3.188   9.946   5.037 -0.8520 -0.9409  1.4234
28809SOL    HW288807   3.242  10.072   5.101 -0.4919  0.5977 -1.7246
28810SOL     OW88808   3.942  10.595   2.750  0.5254  0.1700  0.8274
28810SOL    HW188809   4.006  10.558   2.689 -1.5544  0.8908 -2.0232
28810SOL    HW288810   3.897  10.519   2.787  1.5975 -0.2856  1.2178
28811SOL     OW88811   3.897   1.510   0.484  0.1698  0.4905 -0.2086
28811SOL    HW188812   3.854   1.502   0.399  0.3090 -0.3377 -0.2082
28811SOL    HW288813   3.870   1.432   0.532  0.8345  0.4914  0.1744
28812SOL     OW88814   9.574   0.492   5.010 -0.1234  0.2772 -0.1089
28812SOL    HW188815   9.584   0.426   4.941  0.6313  0.8225 -0.5373
28812SOL    HW288816   9.519   0.559   4.970  1.6968  1.4126 -0.8198
28813SOL     OW88817   1.829   0.623  10.246  0.0467  0.0684 -0.0296
28813SOL    HW188818   1.744   0.628  10.203 -0.0262 -0.5646  0.0366
28813SOL    HW288819   1.891   0.603  10.175 -0.2038 -1.9889  0.2534
28814SOL     OW88820   6.512   3.852   5.168  0.1345  0.3267 -0.3615
28814SOL    HW188821   6.539   3.882   5.255  0.2434 -1.5616  0.2974
28814SOL    HW288822   6.463   3.926   5.132  0.6342  1.3976  1.0223
28815SOL     OW88823   1.584   3.349   4.467 -0.4258  0.2263  0.6834
28815SOL    HW188824   1.666   3.306   4.491  1.1908  3.0603  0.6600
28815SOL    HW288825   1.569   3.323   4.376 -0.0594 -1.0338  0.9627
28816SOL     OW88826   5.562   2.679   4.749  0.0987  0.3029 -0.7664
28816SOL    HW188827   5.543   2.602   4.696  0.1231 -0.4637  0.3125
28816SOL    HW288828   5.478   2.721   4.762 -0.1256 -0.3110 -0.2024
28817SOL     OW88829   4.212   5.159   0.943  0.3268  0.1837  0.3726
28817SOL    HW188830   4.300   5.189   0.967 -0.2451  0.4767  2.2613
28817SOL    HW288831   4.166   5.238   0.915  0.9080 -0.1130 -1.5205
28818SOL     OW88832   9.929   4.752  10.544  0.0413 -0.0692  0.0161
28818SOL    HW188833   9.891   4.834  10.514 -1.6728 -0.3610  1.2309
28818SOL    HW288834   9.976   4.776  10.624  0.5293 -0.0995 -0.2547
28819SOL     OW88835   4.565   0.070   5.805  0.0025  0.4905 -0.6146
28819SOL    HW188836   4.659   0.063   5.788 -0.1993 -0.0290 -1.6117
28819SOL    HW288837   4.559   0.120   5.887  1.1701 -0.1336 -0.1158
28820SOL     OW88838   6.197   1.378   0.680 -0.1937  0.0472  0.3107
28820SOL    HW188839   6.211   1.390   0.774 -0.7324  0.2927  0.3602
28820SOL    HW288840   6.145   1.299   0.673 -1.0935  0.6261  0.2905
28821SOL     OW88841  10.083   4.690   8.434  0.0286 -0.4228 -0.6197
28821SOL    HW188842  10.135   4.759   8.475 -0.3471 -1.0286  0.9056
28821SOL    HW288843  10.121   4.681   8.346  0.3045  1.4662 -0.7244
28822SOL     OW88844   5.618   2.884   0.568  0.0061 -0.1453  0.3474
28822SOL    HW188845   5.569   2.945   0.624  0.7790  1.0336 -0.2120
28822SOL    HW288846   5.704   2.925   0.557  0.7207 -1.5759  0.3192
28823SOL     OW88847   9.491   1.192  10.473 -0.4635 -0.1555 -0.7985
28823SOL    HW188848   9.564   1.254  10.476 -0.9882  0.5118 -1.4959
28823SOL    HW288849   9.533   1.106  10.485  0.1057  0.3925  1.6476
28824SOL     OW88850   5.429   6.455   3.030  0.2951 -0.5582 -0.3662
28824SOL    HW188851   5.441   6.425   3.120 -0.4170 -0.2561 -0.1638
28824SOL    HW288852   5.463   6.545   3.031 -0.3146 -0.3225 -0.2281
28825SOL     OW88853   2.232   9.908  10.509 -0.0693  0.0220  0.1948
28825SOL    HW188854   2.183   9.869  10.436  0.9927  0.0082 -0.5331
28825SOL    HW288855   2.278   9.983  10.471 -0.3464  0.6679  1.0968
28826SOL     OW88856   0.482   9.719   8.570 -0.2398  0.5447 -0.5063
28826SOL    HW188857   0.408   9.769   8.538 -0.5416 -0.0663 -0.7821
28826SOL    HW288858   0.553   9.739   8.509 -0.6664 -0.2099 -1.2752
28827SOL     OW88859   4.403   6.293   9.194 -0.7614 -0.0110 -0.3051
28827SOL    HW188860   4.354   6.222   9.235  0.5963 -1.6350 -1.3650
28827SOL    HW288861   4.337   6.343   9.145 -2.0322  0.6412  1.9560
28828SOL     OW88862   6.911   8.631   6.535 -0.6691 -0.2640 -0.2047
28828SOL    HW188863   6.924   8.723   6.557 -1.4128 -0.8624  3.4489
28828SOL    HW288864   6.983   8.585   6.578 -2.7524 -1.6695  2.1096
28829SOL     OW88865   4.749   5.366   8.978  0.1051 -0.3086  0.0602
28829SOL    HW188866   4.830   5.416   8.988 -0.5599  0.6343  0.8816
28829SOL    HW288867   4.716   5.389   8.892 -1.1626  2.2043  1.1205
28830SOL     OW88868   7.468   3.745   4.089 -0.0394  0.0926  0.0931
28830SOL    HW188869   7.412   3.717   4.161  0.3655 -0.2057  0.2904
28830SOL    HW288870   7.505   3.665   4.054 -1.9916 -0.0069 -1.9274
28831SOL     OW88871   3.540   7.196   5.944  0.1063  0.4032 -0.6377
28831SOL    HW188872   3.481   7.259   5.985 -0.7340  0.0766 -1.3100
28831SOL    HW288873   3.519   7.200   5.851  2.2759  1.4256 -1.1449
28832SOL     OW88874   4.318   8.110   4.449 -0.3005  0.3401 -0.0325
28832SOL    HW188875   4.244   8.170   4.439 -0.4971  0.0977 -0.0465
28832SOL    HW288876   4.320   8.090   4.542 -0.8231 -0.3616 -0.1544
28833SOL     OW88877   6.430   7.112   3.499 -0.3125 -0.2441  0.0593
28833SOL    HW188878   6.376   7.154   3.567  0.8709  1.4703  0.0009
28833SOL    HW288879   6.389   7.027   3.486 -2.1786  0.4442  1.0042
28834SOL     OW88880   0.747   5.987  10.535  0.2426  0.3651 -0.4839
28834SOL    HW188881   0.818   5.968  10.474  0.6404 -1.3820  0.4683
28834SOL    HW288882   0.679   5.923  10.514 -1.2918  2.2596 -1.6548
28835SOL     OW88883   0.758   2.145   6.794  0.6422  0.0260  0.1722
28835SOL    HW188884   0.766   2.167   6.887 -0.1270  0.0938  0.2273
28835SOL    HW288885   0.718   2.222   6.754 -0.1457 -0.4595  0.0012
28836SOL     OW88886   9.842   3.224   7.451 -0.1267  0.2771 -0.5420
28836SOL    HW188887   9.908   3.155   7.457 -0.6140 -0.0665  1.3566
28836SOL    HW288888   9.814   3.239   7.541 -0.7324  2.2972 -1.0121
28837SOL     OW88889   8.838   3.241   8.020 -0.3913  0.1744  0.6513
28837SOL    HW188890   8.777   3.254   8.092 -1.4632  0.4575 -0.2733
28837SOL    HW288891   8.840   3.146   8.007 -1.2600  0.2080  0.1866
28838SOL     OW88892   7.126   4.792   5.113  0.0913  0.3837 -0.1696
28838SOL    HW188893   7.077   4.872   5.100 -1.9716 -0.7908  0.0103
28838SOL    HW288894   7.087   4.751   5.190  0.8604 -0.9553 -0.4492
28839SOL     OW88895   7.941   6.102  10.182 -0.3178 -0.4076 -0.3382
28839SOL    HW188896   8.014   6.043  10.200  0.2802  0.2224 -0.6614
28839SOL    HW288897   7.907   6.124  10.269  0.4419 -0.0123 -0.1250
28840SOL     OW88898   7.919   4.669   5.468 -0.9010 -0.4302  1.0602
28840SOL    HW188899   7.985   4.685   5.536  0.5670 -1.5523 -0.0290
28840SOL    HW288900   7.923   4.747   5.413 -2.5093  0.7488  2.5102
28841SOL     OW88901   2.749   3.486   0.003  0.6113  0.3984 -0.0976
28841SOL    HW188902   2.668   3.491  -0.047  0.6523 -1.1441 -0.3895
28841SOL    HW288903   2.725   3.514   0.091 -0.2430  0.0205 -0.2014
28842SOL     OW88904   2.296   4.104   2.089  0.5005  0.0657  0.1780
28842SOL    HW188905   2.363   4.141   2.147  0.1973 -0.5522  0.9557
28842SOL    HW288906   2.224   4.082   2.148 -0.0242 -0.1030 -0.5200
28843SOL     OW88907   1.627   5.253   7.935 -0.1784  0.3058  0.8715
28843SOL    HW188908   1.709   5.225   7.894 -0.7019 -0.1079  0.0566
28843SOL    HW288909   1.620   5.199   8.014 -2.0055 -3.3743 -1.5266
28844SOL     OW88910   7.868  10.114   2.642 -0.3262  0.8741 -0.0444
28844SOL    HW188911   7.802  10.162   2.692 -1.5546 -0.4853 -0.2637
28844SOL    HW288912   7.835  10.116   2.552 -0.4799 -0.4416 -0.0390
28845SOL     OW88913   6.435   8.084   3.286 -0.0890 -0.0457 -0.3095
28845SOL    HW188914   6.416   8.159   3.230 -0.5698 -0.6912 -1.0380
28845SOL    HW288915   6.353   8.036   3.291  0.2062 -0.5156  0.1644
28846SOL     OW88916   5.059   3.910   5.361 -0.0530 -0.1422 -0.2528
28846SOL    HW188917   5.148   3.881   5.379  0.7509  3.3301  2.3925
28846SOL    HW288918   5.060   3.938   5.270  1.1778 -1.2627 -0.6063
28847SOL     OW88919   7.730   1.407   9.275 -0.0136  0.4216 -0.0731
28847SOL    HW188920   7.810   1.417   9.224 -0.5485 -1.1580 -1.2878
28847SOL    HW288921   7.751   1.445   9.361  2.1054 -0.2200 -0.2630
28848SOL     OW88922   1.658   1.820   5.515  0.3409 -0.5390  0.2465
28848SOL    HW188923   1.664   1.782   5.603  1.5030 -1.0119 -0.0165
28848SOL    HW288924   1.599   1.762   5.468 -0.5180 -0.1186  0.7948
28849SOL     OW88925   9.579   8.653   7.524  0.2295  0.4416 -0.2376
28849SOL    HW188926   9.506   8.596   7.545  0.5309  0.1414  0.0133
28849SOL    HW288927   9.545   8.713   7.458 -0.4105  0.6793  0.3033
28850SOL     OW88928   0.200   0.658   9.715  0.2625 -0.0244 -0.1285
28850SOL    HW188929   0.210   0.647   9.620  0.9042 -0.2595 -0.0375
28850SOL    HW288930   0.122   0.712   9.724 -0.4950 -0.9537 -0.7538
28851SOL     OW88931  10.660   1.781   4.220  0.1251  0.2257 -0.2454
28851SOL    HW188932  10.590   1.722   4.248 -0.1571  0.4740 -0.4206
28851SOL    HW288933  10.729   1.769   4.285  1.1736 -2.2617 -1.6880
28852SOL     OW88934   7.072   2.845   3.771 -0.3286 -0.3483 -0.5278
28852SOL    HW188935   7.054   2.921   3.826  0.6414  0.0923 -0.7866
28852SOL    HW288936   7.002   2.783   3.792  0.3530 -0.4671  1.6718
28853SOL     OW88937   8.221   2.911   4.229 -0.4622  0.2989 -0.5314
28853SOL    HW188938   8.177   2.882   4.149 -0.5243 -0.4363 -0.2354
28853SOL    HW288939   8.311   2.879   4.221 -1.3729 -3.2061  1.3732
28854SOL     OW88940   9.196   4.349   4.674  0.0659  0.8041  0.3935
28854SOL    HW188941   9.141   4.273   4.655  1.4402 -0.5516  1.5775
28854SOL    HW288942   9.257   4.352   4.600  1.5694 -0.8031  1.4858
28855SOL     OW88943   8.421   1.082   5.243 -0.3125 -0.0308 -0.5665
28855SOL    HW188944   8.462   1.142   5.180  0.0200  2.0893  1.5234
28855SOL    HW288945   8.375   1.139   5.304 -0.2684 -1.9413  1.3736
28856SOL     OW88946   8.454   9.594   2.487  0.4259  0.0780 -0.6624
28856SOL    HW188947   8.492   9.626   2.405  1.5564 -1.6863 -0.8645
28856SOL    HW288948   8.374   9.549   2.461 -0.1149  0.9661 -0.5861
28857SOL     OW88949   9.357   5.817   8.331  0.1796 -0.1050  0.0224
28857SOL    HW188950   9.364   5.910   8.312 -1.1378 -0.2192 -1.1975
28857SOL    HW288951   9.270   5.792   8.299 -0.3451 -1.3376  2.1689
28858SOL     OW88952   1.545   3.472   0.612 -0.1446  0.1712  0.0359
28858SOL    HW188953   1.588   3.482   0.697 -1.9268 -1.2354  1.1865
28858SOL    HW288954   1.507   3.384   0.615  0.4393 -0.2581 -2.5760
28859SOL     OW88955   0.747   8.097  10.349  0.0678 -0.0192  0.0545
28859SOL    HW188956   0.792   8.100  10.264  1.3590  1.6960  0.7338
28859SOL    HW288957   0.727   8.188  10.368 -2.2688 -0.5834  0.5931
28860SOL     OW88958   0.612   9.518   2.080  0.1814 -0.2885  0.1999
28860SOL    HW188959   0.569   9.434   2.065 -1.3263  0.3985  0.4646
28860SOL    HW288960   0.701   9.506   2.045  0.1367 -2.0956  0.5849
28861SOL     OW88961   3.267   1.073   8.833  0.0860  0.2931  0.5112
28861SOL    HW188962   3.253   1.003   8.898  1.4239 -1.4050 -0.9283
28861SOL    HW288963   3.316   1.031   8.763 -0.8554  2.1907 -1.4038
28862SOL     OW88964   5.454   9.997   9.964  0.4773  0.1790 -0.2529
28862SOL    HW188965   5.479  10.088   9.977 -1.4689  0.9813 -1.7452
28862SOL    HW288966   5.537   9.951   9.953  1.5960  1.4512  2.0742
28863SOL     OW88967   7.181   6.347   9.412  0.0676 -0.2608 -0.0267
28863SOL    HW188968   7.226   6.286   9.471 -1.6353 -0.0348  1.5938
28863SOL    HW288969   7.115   6.294   9.369  0.0792 -0.0200 -0.3446
28864SOL     OW88970   6.980   8.541   8.889 -0.8514 -0.1577 -0.3956
28864SOL    HW188971   6.898   8.513   8.931 -0.2250 -0.8619  0.3986
28864SOL    HW288972   6.986   8.486   8.810 -2.1608  1.3493 -1.6166
28865SOL     OW88973   3.011   9.419   5.904  0.2631  0.6672  0.1071
28865SOL    HW188974   3.001   9.336   5.859  0.4111 -0.2023  1.6164
28865SOL    HW288975   3.104   9.440   5.895  0.4199  0.1735  0.5508
28866SOL     OW88976   5.157   9.649   5.519  0.1861 -0.4371 -0.3433
28866SOL    HW188977   5.111   9.617   5.597  1.6819 -2.4403 -0.1919
28866SOL    HW288978   5.240   9.683   5.552  0.0087  0.5270 -0.8791
28867SOL     OW88979   7.831   1.030   2.382 -0.0110  0.2156 -0.1629
28867SOL    HW188980   7.905   0.976   2.409 -0.3429 -0.2664 -0.2043
28867SOL    HW288981   7.851   1.054   2.291  0.3619  0.5575  0.0057
28868SOL     OW88982   8.466   7.451   7.745 -0.2445  0.1096 -0.3725
28868SOL    HW188983   8.398   7.383   7.753  0.0332  0.0331  1.9414
28868SOL    HW288984   8.449   7.510   7.819  1.7897  0.4783 -0.1616
28869SOL     OW88985   1.810   6.522   3.111 -0.4214  0.5037 -0.5106
28869SOL    HW188986   1.809   6.514   3.016  0.5999  3.0861 -0.8176
28869SOL    HW288987   1.754   6.598   3.129 -0.4329  0.1781  0.9395
28870SOL     OW88988   0.378  10.299   1.483 -0.1652 -0.7010  0.3263
28870SOL    HW188989   0.386  10.222   1.539 -0.2295 -1.4847 -0.7208
28870SOL    HW288990   0.365  10.372   1.544 -1.8388 -1.7361  1.2622
28871SOL     OW88991  10.695   5.999   2.083  0.2721 -0.6031  0.1988
28871SOL    HW188992  10.628   6.057   2.047  1.4849  0.4829 -0.3532
28871SOL    HW288993  10.685   5.918   2.034  0.3559  0.0749 -0.9690
28872SOL     OW88994   0.393   8.061   4.672 -0.2017  0.0404 -0.3013
28872SOL    HW188995   0.439   8.104   4.600 -0.1535 -0.0642 -0.3331
28872SOL    HW288996   0.304   8.045   4.638 -0.0087 -0.5362 -0.5463
28873SOL     OW88997   8.848   8.483   3.407  0.3404  0.4649 -0.2638
28873SOL    HW188998   8.819   8.442   3.326 -0.9841  2.8527 -1.1180
28873SOL    HW288999   8.768   8.515   3.448  1.1097  0.3783  1.3612
28874SOL     OW89000   2.946   5.473   2.449 -0.3411 -0.3746 -0.0237
28874SOL    HW189001   2.986   5.387   2.463  0.2243 -0.1207 -0.0523
28874SOL    HW289002   2.972   5.498   2.360 -1.0173 -0.4412 -0.2483
28875SOL     OW89003   9.620   4.700   9.717 -0.2331  0.1974  0.3323
28875SOL    HW189004   9.555   4.630   9.724  0.3286 -0.7599 -2.6354
28875SOL    HW289005   9.569   4.781   9.719 -1.3143 -0.4593 -0.1480
28876SOL     OW89006   0.428   9.371   5.960 -0.3293  0.5638 -0.0910
28876SOL    HW189007   0.459   9.399   6.047 -1.1015  1.6256 -0.1377
28876SOL    HW289008   0.380   9.290   5.977  1.8993 -0.8226  0.0602
28877SOL     OW89009   4.101   6.884   7.251 -0.7578 -0.3971  0.2366
28877SOL    HW189010   4.195   6.904   7.251 -0.6375 -0.9326  0.1580
28877SOL    HW289011   4.083   6.854   7.162 -0.9860 -0.3856  0.2792
28878SOL     OW89012   3.344   9.435   1.566  0.5112 -0.3889  0.3717
28878SOL    HW189013   3.428   9.460   1.529  1.7969 -2.3333  1.7303
28878SOL    HW289014   3.310   9.368   1.507 -0.0367  0.2932 -0.0990
28879SOL     OW89015   7.789   9.282   1.347 -0.0003 -0.2778  0.0153
28879SOL    HW189016   7.748   9.198   1.325  0.6169 -0.7689  0.7368
28879SOL    HW289017   7.730   9.321   1.412 -0.3960 -0.0457 -0.4715
28880SOL     OW89018   6.269   6.037  10.662  0.0820  0.2368 -0.0817
28880SOL    HW189019   6.218   6.072  10.589 -1.5633 -0.4719  0.6569
28880SOL    HW289020   6.350   6.087  10.662 -1.4871  2.9331 -0.0155
28881SOL     OW89021   8.327   3.006   3.639  0.4126  0.2160  0.0482
28881SOL    HW189022   8.330   3.073   3.707 -0.3077 -0.0374  0.3361
28881SOL    HW289023   8.386   3.039   3.571 -1.0636  1.9041 -0.4916
28882SOL     OW89024  10.567   1.687   6.818 -0.4330  0.5572  0.2895
28882SOL    HW189025  10.618   1.759   6.782  0.9265 -0.6214 -0.2439
28882SOL    HW289026  10.493   1.677   6.758  0.4601  0.2223 -0.7720
28883SOL     OW89027   1.853   7.604   1.496 -0.1761  0.2771 -0.2898
28883SOL    HW189028   1.843   7.654   1.576 -1.0775  0.9910 -0.8338
28883SOL    HW289029   1.890   7.520   1.524 -0.4164  0.5429  0.8474
28884SOL     OW89030   4.663   7.506  10.503 -0.2865 -0.0330 -0.1202
28884SOL    HW189031   4.654   7.547  10.589 -0.5906 -1.0193  0.3296
28884SOL    HW289032   4.582   7.530  10.457 -0.8506 -0.7903  0.4416
28885SOL     OW89033   7.906   2.988   2.372  0.2991  0.1926  0.2340
28885SOL    HW189034   7.955   3.047   2.315 -1.0757  1.1077 -0.0497
28885SOL    HW289035   7.958   2.982   2.452  1.9461 -0.6080 -0.8455
28886SOL     OW89036   3.481   5.374   1.561  0.1078 -0.0621 -0.1644
28886SOL    HW189037   3.564   5.421   1.561  0.8958 -1.0135  4.2288
28886SOL    HW289038   3.505   5.283   1.544 -0.2547 -0.1550 -0.1835
28887SOL     OW89039   0.159   8.851   6.354 -0.6032  0.3439 -0.0390
28887SOL    HW189040   0.218   8.815   6.288 -0.1688 -0.3986  0.7307
28887SOL    HW289041   0.214   8.860   6.432 -1.0229  1.5222  0.1306
28888SOL     OW89042   5.592   1.570  10.063  0.0850 -0.1945  0.3705
28888SOL    HW189043   5.643   1.512  10.120  1.1310 -0.4844 -0.8176
28888SOL    HW289044   5.518   1.517  10.035  1.4588 -1.2727 -1.3439
28889SOL     OW89045   4.735   5.945   9.270 -0.1311  0.2937  0.3297
28889SOL    HW189046   4.813   6.000   9.272 -0.0895  0.2412  2.5268
28889SOL    HW289047   4.760   5.867   9.320 -1.1614 -0.3764 -0.1660
28890SOL     OW89048   6.027   4.122  10.544  0.1058  0.5266 -0.3082
28890SOL    HW189049   6.032   4.026  10.548  0.3735  0.5722  1.3409
28890SOL    HW289050   6.117   4.150  10.534  0.1899  0.6192  0.5898
28891SOL     OW89051   5.118   4.628   2.245 -0.7737 -0.0167  0.1877
28891SOL    HW189052   5.187   4.673   2.293 -0.3232 -0.8645  0.3353
28891SOL    HW289053   5.037   4.656   2.288 -0.7450  2.6905 -1.3157
28892SOL     OW89054   4.687   6.076   5.971  0.2181 -0.2302  0.1213
28892SOL    HW189055   4.671   6.142   6.039 -1.7854 -1.3986  0.8392
28892SOL    HW289056   4.642   6.110   5.894 -1.1477 -0.8872  0.5987
28893SOL     OW89057  10.501   0.674   1.763  0.0346 -0.1148 -0.2442
28893SOL    HW189058  10.454   0.602   1.721 -0.4234 -0.5778  1.0117
28893SOL    HW289059  10.536   0.725   1.690 -1.6452 -0.2530 -1.2049
28894SOL     OW89060   0.153   2.939   1.832 -0.3551  0.0395  0.0484
28894SOL    HW189061   0.099   2.948   1.911  0.0677  1.8157  0.1604
28894SOL    HW289062   0.093   2.959   1.760 -0.7314 -1.5494 -0.1274
28895SOL     OW89063   0.642   1.638   1.862  0.1691 -0.7837 -0.0263
28895SOL    HW189064   0.589   1.714   1.840 -0.9167 -1.2113  1.0008
28895SOL    HW289065   0.630   1.577   1.790 -1.3395 -1.1645  0.5178
28896SOL     OW89066   0.601   6.509   9.056  0.3809  0.1891  0.4171
28896SOL    HW189067   0.544   6.521   8.980  0.2506  0.7381  0.5968
28896SOL    HW289068   0.672   6.453   9.025  0.0765  0.0222  0.0220
28897SOL     OW89069   6.429   9.035   1.723  0.2883  0.4336  0.7739
28897SOL    HW189070   6.354   9.035   1.783  0.0420 -0.3027  0.4749
28897SOL    HW289071   6.479   9.113   1.748 -0.6808  1.0583  0.8443
28898SOL     OW89072   7.363   6.064   1.159  0.1989  0.0030  0.5520
28898SOL    HW189073   7.375   5.973   1.187  1.4324 -0.3926 -1.1059
28898SOL    HW289074   7.406   6.068   1.074 -3.0213  1.2005 -1.1798
28899SOL     OW89075   1.754   1.501   2.346 -0.1466  0.7665 -0.5531
28899SOL    HW189076   1.697   1.434   2.307  0.2567  0.2258 -0.2325
28899SOL    HW289077   1.783   1.554   2.273  0.4701 -0.1346 -0.9711
28900SOL     OW89078  10.777   4.452   7.554  0.5649 -0.4080 -0.0113
28900SOL    HW189079  10.849   4.394   7.576  0.9449  0.5517  1.3731
28900SOL    HW289080  10.801   4.537   7.591 -0.1687  0.5644 -1.6012
28901SOL     OW89081  10.063   4.393   1.648  0.0763  0.1035  0.1881
28901SOL    HW189082  10.024   4.365   1.731  0.6578  0.6957  0.6779
28901SOL    HW289083  10.133   4.453   1.674  0.8873 -0.4330 -0.6891
28902SOL     OW89084   1.988   0.750   8.816  0.2399  0.4133  0.4054
28902SOL    HW189085   2.030   0.801   8.885  0.2842  0.7385  0.1414
28902SOL    HW289086   1.894   0.761   8.831  0.1817 -1.3881  1.8044
28903SOL     OW89087   9.675   6.473   5.195 -0.4935 -0.7168 -0.3287
28903SOL    HW189088   9.686   6.549   5.139  0.1841 -1.3991 -1.1573
28903SOL    HW289089   9.765   6.448   5.218 -0.7635  0.1497  1.9220
28904SOL     OW89090   0.924   4.553   8.054 -0.0722 -0.1222  0.0240
28904SOL    HW189091   0.913   4.643   8.083 -0.6858  0.1697 -1.0700
28904SOL    HW289092   0.835   4.518   8.051  0.0614 -0.4124 -0.6572
28905SOL     OW89093   8.802   6.321   8.052  0.3497  0.4069 -0.1313
28905SOL    HW189094   8.805   6.226   8.060  0.3700  0.1499 -2.5057
28905SOL    HW289095   8.732   6.348   8.112  0.4986 -1.0562  0.7447
28906SOL     OW89096   9.888   5.010   5.048 -0.1106  0.5591  0.5016
28906SOL    HW189097   9.808   4.958   5.043  0.7969 -0.8036 -0.8916
28906SOL    HW289098   9.859   5.096   5.078 -2.0181 -0.0216  0.4723
28907SOL     OW89099   1.786   3.360   5.069  0.0316 -0.7823  0.4024
28907SOL    HW189100   1.848   3.425   5.035 -0.1282  0.5135  2.4342
28907SOL    HW289101   1.751   3.316   4.991 -0.5644  2.2182 -1.1397
28908SOL     OW89102   9.245   1.147   1.118  0.0573 -0.0265 -1.1934
28908SOL    HW189103   9.287   1.105   1.043  0.2463 -0.3082 -0.9254
28908SOL    HW289104   9.306   1.216   1.144  1.5075 -1.8884  0.6614
28909SOL     OW89105   4.507   9.326   3.455 -0.1827 -0.0535 -0.1570
28909SOL    HW189106   4.509   9.294   3.546  0.2006 -0.3694 -0.2736
28909SOL    HW289107   4.589   9.373   3.444  0.2090 -0.8284 -0.6249
28910SOL     OW89108   6.133   8.195   1.652  0.1141  0.4288  0.1266
28910SOL    HW189109   6.117   8.244   1.572  2.1487 -1.6862 -1.7481
28910SOL    HW289110   6.218   8.227   1.683  0.9387 -1.0614 -0.5077
28911SOL     OW89111   3.680   9.910   4.018 -0.3885 -0.1211  0.2329
28911SOL    HW189112   3.739   9.839   4.046 -0.5529 -0.2698  0.1995
28911SOL    HW289113   3.693   9.916   3.924 -0.5968 -0.3036  0.1946
28912SOL     OW89114   3.600   5.231   8.379  0.1608 -0.0741 -0.0597
28912SOL    HW189115   3.529   5.180   8.340 -0.4847  1.3095 -0.7593
28912SOL    HW289116   3.679   5.204   8.330 -0.5795  1.4156 -2.2162
28913SOL     OW89117   1.813   6.696   2.785 -0.3393  0.8685 -0.0216
28913SOL    HW189118   1.793   6.607   2.813 -1.5360  1.3352  0.6568
28913SOL    HW289119   1.738   6.723   2.732 -0.1242  1.5783  0.0182
28914SOL     OW89120   3.499   3.386   7.390 -0.0778  0.1176  1.0271
28914SOL    HW189121   3.426   3.328   7.366  0.8269 -0.5203 -0.2736
28914SOL    HW289122   3.457   3.470   7.410 -1.1755 -0.2618  0.4167
28915SOL     OW89123   8.455   4.496   1.857  0.1912 -0.0801 -0.0789
28915SOL    HW189124   8.446   4.430   1.926 -1.4545  2.0982  1.9627
28915SOL    HW289125   8.365   4.517   1.832  0.7310  0.2130 -1.9260
28916SOL     OW89126   3.241   5.493   1.450 -0.1024  0.0166  0.6989
28916SOL    HW189127   3.266   5.505   1.358  0.5183 -1.6185  0.6176
28916SOL    HW289128   3.325   5.484   1.496 -0.3047  2.6969  1.7886
28917SOL     OW89129   8.458   2.326   8.910  0.2373  0.0503 -0.4153
28917SOL    HW189130   8.519   2.387   8.867 -0.4214  0.2430 -1.0903
28917SOL    HW289131   8.377   2.334   8.860  0.4399 -2.1515 -1.2138
28918SOL     OW89132  10.713   5.753   9.058  0.0141  0.2674  1.0839
28918SOL    HW189133  10.742   5.728   9.146 -1.2852 -0.0202  1.4638
28918SOL    HW289134  10.694   5.846   9.064 -0.1181  0.2386  1.1363
28919SOL     OW89135   5.971   8.063  10.055  0.3412 -0.4399 -0.5302
28919SOL    HW189136   5.995   8.015   9.976  0.6586 -1.5644  0.2315
28919SOL    HW289137   5.882   8.095  10.038  0.4497 -0.5774 -1.3738
28920SOL     OW89138   1.279   6.140   2.335  0.0990 -0.0253  0.0620
28920SOL    HW189139   1.315   6.226   2.356  2.5426 -1.0607  0.4102
28920SOL    HW289140   1.283   6.092   2.418 -1.1138 -0.5498 -0.1602
28921SOL     OW89141   6.810   2.735  10.060 -0.2957 -0.0302 -0.0421
28921SOL    HW189142   6.904   2.751  10.058 -0.1780 -0.6851 -0.0199
28921SOL    HW289143   6.771   2.821  10.078  0.2345  0.4383 -1.0575
28922SOL     OW89144   5.636   3.906   3.565  0.6705 -0.4837 -0.0384
28922SOL    HW189145   5.645   3.966   3.491  0.0554 -1.8547 -1.2657
28922SOL    HW289146   5.542   3.893   3.574  0.6336  0.6052  1.8226
28923SOL     OW89147  10.229  10.230   1.322 -0.1908 -0.7110  0.2641
28923SOL    HW189148  10.137  10.205   1.310  0.4521 -2.8704 -0.5664
28923SOL    HW289149  10.261  10.172   1.390  0.8302 -0.6941 -0.1843
28924SOL     OW89150   8.769   7.038   9.576 -1.0981  0.1282  0.2147
28924SOL    HW189151   8.748   7.039   9.670 -0.1113 -0.3552  0.4530
28924SOL    HW289152   8.837   7.105   9.566 -1.1487  0.1264 -0.1376
28925SOL     OW89153   6.440   6.574   9.793 -0.5511  0.5147  0.0723
28925SOL    HW189154   6.506   6.506   9.790 -2.6080 -1.5768 -0.7952
28925SOL    HW289155   6.488   6.653   9.819  2.4159 -0.6388 -1.4046
28926SOL     OW89156   3.969   6.900   9.735 -0.1158 -0.0343 -0.2557
28926SOL    HW189157   3.913   6.975   9.712 -0.9965 -0.9104 -1.0433
28926SOL    HW289158   4.022   6.885   9.657 -0.5204 -0.7289 -0.4049
28927SOL     OW89159   5.093  10.445   7.976 -0.0409  0.0001 -0.3073
28927SOL    HW189160   5.092  10.531   8.019 -2.4587  0.6179 -1.3932
28927SOL    HW289161   5.122  10.463   7.886 -0.7737 -0.2253 -0.6061
28928SOL     OW89162   0.620   0.073   3.957 -0.1636  0.4970  0.2359
28928SOL    HW189163   0.551   0.020   3.916  0.0039  1.1050 -0.8848
28928SOL    HW289164   0.586   0.163   3.953  0.4668  0.7355  0.1433
28929SOL     OW89165   6.665   0.411   0.851  0.2620 -0.3255  0.3234
28929SOL    HW189166   6.687   0.491   0.802  0.2780 -0.9030 -0.6373
28929SOL    HW289167   6.726   0.410   0.924 -0.4183  1.0863  0.9463
28930SOL     OW89168   1.453  10.264   4.644 -0.5871 -0.0349  0.3336
28930SOL    HW189169   1.365  10.240   4.672  0.3057 -1.5099  2.0785
28930SOL    HW289170   1.498  10.181   4.629  0.1648  0.6933 -1.8661
28931SOL     OW89171   1.973   3.713   7.838  0.0162  0.4190 -0.2362
28931SOL    HW189172   2.042   3.711   7.772 -0.9186  0.4901 -1.2523
28931SOL    HW289173   1.954   3.807   7.849 -1.4957  0.3331 -1.7128
28932SOL     OW89174   1.388   8.441   7.255 -0.3702 -0.3240 -0.0601
28932SOL    HW189175   1.412   8.402   7.171 -2.9457  0.2891 -1.1747
28932SOL    HW289176   1.365   8.366   7.310 -0.4290 -0.6528 -0.5255
28933SOL     OW89177   6.669   1.526   9.170  0.0315  0.1806 -0.0484
28933SOL    HW189178   6.680   1.513   9.076 -0.6563 -0.2607 -0.0750
28933SOL    HW289179   6.586   1.483   9.191 -0.1298  0.8057  0.6529
28934SOL     OW89180   1.863   9.084   1.988 -0.5537 -0.1013  0.2137
28934SOL    HW189181   1.780   9.047   1.960  0.4927 -1.2743 -1.4991
28934SOL    HW289182   1.895   9.024   2.055 -1.5464  0.9522  1.6988
28935SOL     OW89183   6.821   7.778   3.212 -0.5654  0.2068  0.2310
28935SOL    HW189184   6.794   7.810   3.125 -1.1579  0.6397  0.5669
28935SOL    HW289185   6.910   7.747   3.199 -0.5441  0.5360 -0.4719
28936SOL     OW89186   8.192   6.708   3.972 -0.1444  0.3477 -0.2056
28936SOL    HW189187   8.190   6.627   4.023 -1.6962  0.0169 -0.7204
28936SOL    HW289188   8.213   6.776   4.037 -0.0678 -0.3104  0.4792
28937SOL     OW89189   5.483   7.880   7.038  0.6236 -0.4483 -0.8604
28937SOL    HW189190   5.552   7.926   6.991  0.9392  0.1377  0.1480
28937SOL    HW289191   5.419   7.947   7.060  1.9338 -0.0174  2.1924
28938SOL     OW89192   4.062   0.798   9.062 -0.1480  0.2395  0.1972
28938SOL    HW189193   4.116   0.875   9.082  0.0088  0.0143  0.6481
28938SOL    HW289194   4.070   0.742   9.139 -0.9490  0.1559  0.2260
28939SOL     OW89195   9.849   4.491   8.916 -0.1841 -0.3398 -0.1664
28939SOL    HW189196   9.868   4.581   8.889 -1.1869  0.2850  1.1308
28939SOL    HW289197   9.911   4.474   8.987  1.6604 -1.5746 -1.9598
28940SOL     OW89198   9.113   8.239   1.899  0.8069  0.0423  0.4993
28940SOL    HW189199   9.158   8.268   1.820  2.1530  0.0460  1.2424
28940SOL    HW289200   9.094   8.319   1.947 -0.7933  0.1219 -0.1704
28941SOL     OW89201  10.598   1.947   3.038  0.0328  0.0866 -0.0007
28941SOL    HW189202  10.518   1.999   3.043  0.3236  0.4634  0.8396
28941SOL    HW289203  10.667   2.005   3.069  0.8302  0.1342 -1.7315
28942SOL     OW89204   9.186   1.076   3.676 -0.0673  0.1203 -0.0741
28942SOL    HW189205   9.275   1.042   3.676 -0.0290  0.2075  0.7082
28942SOL    HW289206   9.133   1.006   3.638  0.4786  0.4808 -1.5758
28943SOL     OW89207   9.301   2.355   3.995  0.0609 -0.2159  0.4352
28943SOL    HW189208   9.208   2.378   3.993  0.1778  0.5818  2.2671
28943SOL    HW289209   9.342   2.414   3.932 -0.3298  1.3462  1.5814
28944SOL     OW89210   8.508   3.103   3.005  0.4308 -0.2626 -0.4162
28944SOL    HW189211   8.453   3.025   2.995 -0.9780  0.6282  0.0308
28944SOL    HW289212   8.448   3.170   3.039  1.9769  0.5541  0.8457
28945SOL     OW89213   8.246   9.926   4.428 -0.5039 -0.0452 -0.3326
28945SOL    HW189214   8.249   9.902   4.335 -1.3859  2.4104 -1.0769
28945SOL    HW289215   8.182   9.865   4.466 -1.5322  0.0863 -1.7530
28946SOL     OW89216   7.997   6.295   3.661  0.4713  0.4374 -0.4561
28946SOL    HW189217   8.079   6.246   3.663 -0.1360 -0.7264 -1.9753
28946SOL    HW289218   8.020   6.382   3.694  2.4331  0.2998 -1.3038
28947SOL     OW89219   3.759  10.393   4.540  0.5158  0.4911  0.2144
28947SOL    HW189220   3.833  10.445   4.570  0.6332  0.5687 -0.2130
28947SOL    HW289221   3.710  10.452   4.482  1.3324 -0.2598 -1.2853
28948SOL     OW89222   9.692   6.841   3.733 -0.1270 -0.5536  0.3325
28948SOL    HW189223   9.663   6.898   3.662  0.6505  0.1632  0.5630
28948SOL    HW289224   9.659   6.755   3.711  0.3432 -0.4040 -1.0532
28949SOL     OW89225   1.901   7.300   3.545 -0.1704 -0.2403 -0.0165
28949SOL    HW189226   1.812   7.282   3.576 -0.8978  1.3370 -1.0773
28949SOL    HW289227   1.956   7.238   3.594 -1.9076 -1.7685  0.1103
28950SOL     OW89228   6.882   8.858   4.592  0.1092  0.8200  0.6618
28950SOL    HW189229   6.975   8.844   4.609  0.1908  0.0625 -0.3006
28950SOL    HW289230   6.862   8.942   4.633  1.1221  0.8024  1.2189
28951SOL     OW89231   0.902   6.125  10.718  0.4167  0.6427 -0.3965
28951SOL    HW189232   0.855   6.063  10.663  0.0523  0.3582  0.2266
28951SOL    HW289233   0.837   6.191  10.741  0.9098  1.5060 -1.4104
28952SOL     OW89234   4.928   8.981   5.542 -0.2031  0.6460 -0.0624
28952SOL    HW189235   4.913   9.057   5.485  1.7515 -0.6344 -2.4873
28952SOL    HW289236   5.019   8.990   5.570  0.3681 -1.1882 -1.1419
28953SOL     OW89237   3.259   1.426   4.357  0.3280  0.6674  0.3518
28953SOL    HW189238   3.342   1.380   4.348 -0.0852  0.1737 -1.3581
28953SOL    HW289239   3.265   1.471   4.441  1.4093 -1.1898  1.3413
28954SOL     OW89240   7.471   8.753   7.350  0.1395 -0.6146 -0.1339
28954SOL    HW189241   7.389   8.800   7.362  0.4534 -0.1914  0.4250
28954SOL    HW289242   7.477   8.740   7.255  0.4055  1.1765 -0.4059
28955SOL     OW89243   6.690   7.115  10.042  0.0595 -0.6527  0.2986
28955SOL    HW189244   6.784   7.096  10.036 -0.0914 -1.2017 -0.4523
28955SOL    HW289245   6.659   7.056  10.111  0.0079 -1.5481 -0.4735
28956SOL     OW89246   4.158   0.941   3.059 -0.5651  0.1842 -0.0933
28956SOL    HW189247   4.221   1.014   3.057 -1.3750  0.8866 -0.9639
28956SOL    HW289248   4.174   0.898   3.143  1.0064  0.4014 -0.2440
28957SOL     OW89249   3.807   9.730   6.981  0.6455 -0.1213  0.0517
28957SOL    HW189250   3.851   9.712   6.898  1.5353 -0.2139  0.5280
28957SOL    HW289251   3.797   9.644   7.021 -0.8424 -0.2089 -0.4597
28958SOL     OW89252   2.084   7.029   5.531 -0.1762 -0.3165 -0.4684
28958SOL    HW189253   2.168   7.010   5.490  1.1636  2.7165  0.6001
28958SOL    HW289254   2.064   7.119   5.506 -2.0284 -0.2294  1.0525
28959SOL     OW89255   6.240   7.953   5.231  0.3730  0.1635 -0.1572
28959SOL    HW189256   6.331   7.962   5.205  0.5962 -0.3580  0.4226
28959SOL    HW289257   6.242   7.893   5.305 -0.6596 -1.9465 -1.7197
28960SOL     OW89258   5.875   8.709   6.575 -0.4582 -0.5609  0.3655
28960SOL    HW189259   5.814   8.769   6.617 -1.0008 -1.8720  1.5157
28960SOL    HW289260   5.851   8.711   6.482 -2.0044 -0.7813  0.7397
28961SOL     OW89261   5.551   4.599   3.523  0.1050  0.0823  0.5794
28961SOL    HW189262   5.486   4.665   3.499  1.1394  1.0516  0.3568
28961SOL    HW289263   5.556   4.542   3.446  1.8326  1.9073 -0.7625
28962SOL     OW89264   8.422   9.360   0.083 -0.7427  0.3513  0.5865
28962SOL    HW189265   8.450   9.410   0.159 -0.1287  0.9557 -0.0287
28962SOL    HW289266   8.442   9.416   0.008  0.8576 -1.1705 -0.2098
28963SOL     OW89267   6.088   2.123   1.575 -0.1260 -0.0461  0.3583
28963SOL    HW189268   6.165   2.175   1.595  0.0022 -0.2248  0.3279
28963SOL    HW289269   6.083   2.058   1.645  0.7874 -1.1931 -0.5858
28964SOL     OW89270   3.259   6.217   3.571  0.2288 -0.0607 -0.6349
28964SOL    HW189271   3.337   6.163   3.583  1.4446  1.9175  1.0760
28964SOL    HW289272   3.243   6.255   3.658 -2.3908 -0.0520 -1.0587
28965SOL     OW89273   9.948   7.653   2.619 -0.3932  0.3500  0.1792
28965SOL    HW189274  10.019   7.632   2.559 -0.4410 -1.0265  0.5517
28965SOL    HW289275   9.979   7.624   2.704 -1.3590 -0.2047  0.3608
28966SOL     OW89276  10.799   9.291   1.980  0.3860 -0.4684 -0.1221
28966SOL    HW189277  10.761   9.237   2.049 -1.7516  0.7741 -0.2182
28966SOL    HW289278  10.782   9.381   2.009  1.6258  0.1151 -1.1273
28967SOL     OW89279   3.145   0.987   8.559  0.0524 -0.0861 -0.6544
28967SOL    HW189280   3.086   0.912   8.565 -0.0375  0.0739  1.0181
28967SOL    HW289281   3.231   0.951   8.581  0.1034  0.1827 -0.4094
28968SOL     OW89282   2.633   2.942   2.493  0.3414 -0.0148 -0.0005
28968SOL    HW189283   2.546   2.975   2.476  1.0252  1.8139 -0.1082
28968SOL    HW289284   2.619   2.870   2.556 -1.4650 -1.8153 -2.2875
28969SOL     OW89285   7.706   0.160   5.469 -0.0656  0.1841 -0.3042
28969SOL    HW189286   7.642   0.202   5.411 -0.9643 -3.1300 -1.9716
28969SOL    HW289287   7.669   0.168   5.557 -0.0447  2.9182 -0.4691
28970SOL     OW89288   0.735   0.058  10.587  0.1842  0.1848 -0.5076
28970SOL    HW189289   0.738   0.036  10.680  0.8975  0.6964 -0.4049
28970SOL    HW289290   0.646   0.091  10.573  0.4806  1.3606  0.2854
28971SOL     OW89291   8.127   8.197   0.417 -0.2417 -0.2238  0.3004
28971SOL    HW189292   8.185   8.254   0.466  0.2799 -0.4698 -0.0226
28971SOL    HW289293   8.158   8.108   0.435 -1.0767 -0.4189  0.8409
28972SOL     OW89294   5.204   2.742  10.399 -0.3311 -0.2004 -0.0174
28972SOL    HW189295   5.203   2.720  10.306  1.4457 -0.7378  0.0486
28972SOL    HW289296   5.177   2.662  10.443  0.9910 -0.6415  0.0077
28973SOL     OW89297   6.374   2.211   4.003 -0.1574 -0.2827  0.2171
28973SOL    HW189298   6.410   2.123   4.014 -1.6667 -0.8929  0.5258
28973SOL    HW289299   6.303   2.201   3.940 -0.4417  0.6813  0.3637
28974SOL     OW89300   6.840   5.016  10.358  0.0446  0.0074  0.0608
28974SOL    HW189301   6.900   4.991  10.428  1.6889  1.0272 -0.9144
28974SOL    HW289302   6.891   5.077  10.304 -1.1148 -0.8258 -2.0780
28975SOL     OW89303   7.204   5.777   4.761  0.2415 -0.1118  0.4061
28975SOL    HW189304   7.162   5.737   4.686  1.3892  0.7437 -0.7476
28975SOL    HW289305   7.135   5.827   4.805 -0.2110  0.2871 -0.7412
28976SOL     OW89306   0.561   2.833   3.722  0.1447 -0.2923 -0.0414
28976SOL    HW189307   0.610   2.891   3.781  0.7303 -1.2904  0.4883
28976SOL    HW289308   0.497   2.791   3.779  1.1645 -1.7820  0.0607
28977SOL     OW89309   5.631   2.825   7.072  0.7315  0.5228  0.0598
28977SOL    HW189310   5.676   2.903   7.106  0.3839 -0.4181  2.9308
28977SOL    HW289311   5.657   2.755   7.132 -0.7754 -1.0968 -1.0946
28978SOL     OW89312   3.965   6.105  10.216 -0.1823  0.1755 -0.3110
28978SOL    HW189313   3.994   6.027  10.264  0.9286  0.3466 -0.6797
28978SOL    HW289314   4.028   6.173  10.242  1.6878 -0.1747 -3.4105
28979SOL     OW89315   5.352   4.710   3.376  0.0006  0.9053 -0.2660
28979SOL    HW189316   5.261   4.683   3.368 -0.3355  2.0198 -0.4696
28979SOL    HW289317   5.379   4.729   3.286  1.2361 -1.7641 -0.5413
28980SOL     OW89318  10.293   0.311   5.929  0.0744  0.2612 -0.6301
28980SOL    HW189319  10.385   0.333   5.910 -0.2006  2.3741  0.2121
28980SOL    HW289320  10.245   0.340   5.851 -0.0283  0.4307 -0.5040
28981SOL     OW89321   3.820   8.839   2.526  0.0793  0.5824 -0.3407
28981SOL    HW189322   3.760   8.884   2.585 -0.1829  0.0657 -0.2098
28981SOL    HW289323   3.807   8.746   2.544 -1.4000  0.2795 -2.5196
28982SOL     OW89324   3.895   4.227   7.312 -0.4605 -0.2902 -0.3612
28982SOL    HW189325   3.886   4.211   7.406  0.2898  1.6155  0.0887
28982SOL    HW289326   3.953   4.157   7.281  1.3071  0.4456  1.1038
28983SOL     OW89327   7.714   5.395   3.791 -0.4500 -0.1363 -0.4980
28983SOL    HW189328   7.801   5.406   3.752 -0.3694 -0.0535 -0.2963
28983SOL    HW289329   7.686   5.484   3.811 -1.6218  0.0891 -2.7933
28984SOL     OW89330   3.979   4.335   8.874  0.5686 -0.5296 -0.0990
28984SOL    HW189331   4.073   4.319   8.873  0.8650  1.0020 -0.9158
28984SOL    HW289332   3.971   4.430   8.861 -1.1249 -0.8899 -2.2508
28985SOL     OW89333   5.469   5.471   2.800  0.2014 -0.4608  0.7647
28985SOL    HW189334   5.377   5.481   2.774  0.1777 -1.5800  0.3741
28985SOL    HW289335   5.482   5.377   2.807  1.1159 -0.2901  1.5989
28986SOL     OW89336   7.791   0.377   1.696 -0.4549 -0.3315 -0.0790
28986SOL    HW189337   7.840   0.459   1.701  0.4767 -0.8083 -0.9011
28986SOL    HW289338   7.850   0.311   1.733  0.6501 -1.3476 -3.2716
28987SOL     OW89339   0.553   1.065   6.950 -0.1017 -0.8334 -0.1165
28987SOL    HW189340   0.555   1.157   6.923  2.3158 -1.2449 -1.6763
28987SOL    HW289341   0.461   1.048   6.968 -0.8427  1.5073 -1.1779
28988SOL     OW89342   1.039   4.028   7.056 -0.3158  0.7928 -0.6516
28988SOL    HW189343   1.119   4.079   7.039 -0.6911  1.3976 -0.6323
28988SOL    HW289344   1.033   4.023   7.151  0.8354 -1.0859 -0.6351
28989SOL     OW89345  10.017   8.515   6.025  0.0382 -0.1733 -0.0240
28989SOL    HW189346   9.952   8.472   6.081 -0.3229 -1.4589 -1.3703
28989SOL    HW289347  10.055   8.444   5.973  3.1455  0.4016  1.2462
28990SOL     OW89348  10.083   5.669   9.136  0.2676  0.4335  0.0025
28990SOL    HW189349  10.178   5.677   9.145 -0.0215  2.2597  2.6102
28990SOL    HW289350  10.056   5.752   9.096 -0.2936  0.2755  0.0470
28991SOL     OW89351   3.720  10.191   5.353  0.0505 -0.4847 -0.1132
28991SOL    HW189352   3.729  10.102   5.387  0.9159 -0.5644 -0.5448
28991SOL    HW289353   3.703  10.180   5.259  3.4645 -0.1687 -0.8825
28992SOL     OW89354   9.286   2.252   0.147  0.5850 -0.1409  0.0366
28992SOL    HW189355   9.264   2.247   0.240  1.2237 -1.4232  0.1496
28992SOL    HW289356   9.209   2.219   0.102  1.0505 -1.6438  0.2625
28993SOL     OW89357  10.292   5.891   4.257 -0.3964 -0.3779 -0.1988
28993SOL    HW189358  10.310   5.859   4.345  1.4739  1.1361  0.0407
28993SOL    HW289359  10.227   5.961   4.269 -2.0307 -1.8004 -0.3619
28994SOL     OW89360   0.703   4.881   3.852  0.6565  0.7531  0.7443
28994SOL    HW189361   0.702   4.918   3.764 -2.3866  0.0599  0.3844
28994SOL    HW289362   0.708   4.957   3.910 -1.8158  1.6205 -0.0399
28995SOL     OW89363   5.311   2.782   4.798 -0.2047  0.1903  0.3888
28995SOL    HW189364   5.258   2.751   4.724 -0.1190  1.2848 -0.1502
28995SOL    HW289365   5.262   2.755   4.875 -0.6823 -0.3082 -0.0763
28996SOL     OW89366   0.439   1.955   5.408 -0.0020 -0.1858 -0.1229
28996SOL    HW189367   0.523   1.931   5.371  0.3334  1.0556 -0.2048
28996SOL    HW289368   0.396   1.871   5.427  2.3536 -0.9442  2.5138
28997SOL     OW89369   0.460   7.409   5.193 -0.2070 -0.0232 -0.0899
28997SOL    HW189370   0.367   7.409   5.217  0.0092 -1.4626  0.8456
28997SOL    HW289371   0.462   7.449   5.106 -1.5408  1.2278  0.3962
28998SOL     OW89372   5.727   2.899   2.298 -0.3583 -0.2529 -0.5601
28998SOL    HW189373   5.723   2.875   2.390 -0.3453  0.5181 -0.3511
28998SOL    HW289374   5.654   2.960   2.285  0.9321  1.3851 -0.5064
28999SOL     OW89375   8.126   1.044   2.040  0.3910 -0.0156  0.5795
28999SOL    HW189376   8.142   1.131   2.076 -0.0295 -0.2307  1.3261
28999SOL    HW289377   8.199   1.028   1.981  0.7210  0.6519  0.7997
29000SOL     OW89378   9.126   6.437   5.547  0.0049 -0.2383  0.6026
29000SOL    HW189379   9.130   6.513   5.605  1.3341 -0.5833  1.0023
29000SOL    HW289380   9.110   6.473   5.460  2.4213  0.6789  0.4859
29001SOL     OW89381  10.283   9.722   1.719 -0.1297 -0.2174 -0.4570
29001SOL    HW189382  10.292   9.790   1.652  1.1859  1.6216  1.4256
29001SOL    HW289383  10.367   9.677   1.718 -0.4370 -0.7942 -0.6378
29002SOL     OW89384   4.121   2.811   6.985 -0.5381  0.0204  0.2044
29002SOL    HW189385   4.101   2.785   7.075 -1.9275  1.4253  0.3387
29002SOL    HW289386   4.217   2.811   6.981 -0.4577 -0.9175  1.4099
29003SOL     OW89387   3.907   8.939   3.352  0.3721  0.0872 -0.1759
29003SOL    HW189388   3.897   8.916   3.445 -1.7438 -0.2273 -0.4280
29003SOL    HW289389   3.880   8.860   3.305  0.5505  0.5550 -1.0749
29004SOL     OW89390   7.286   5.829  10.763  0.1666 -0.3036  0.0482
29004SOL    HW189391   7.314   5.880  10.839 -0.9429 -0.0857  0.3361
29004SOL    HW289392   7.322   5.742  10.778  1.1561  0.0995  0.1022
29005SOL     OW89393   4.869   0.405   6.184  0.4141  0.0718 -0.1343
29005SOL    HW189394   4.833   0.380   6.099  1.0932 -0.2599 -0.3328
29005SOL    HW289395   4.871   0.324   6.235  1.6811 -0.0955 -0.4297
29006SOL     OW89396   6.300   0.826   3.177  0.7094  0.2918  0.3791
29006SOL    HW189397   6.353   0.769   3.233  1.1905  0.6690  0.3099
29006SOL    HW289398   6.314   0.914   3.212  0.4402  0.4398  0.1164
29007SOL     OW89399   7.830   4.782   9.831 -0.6135 -0.0431 -0.5930
29007SOL    HW189400   7.907   4.770   9.886 -0.1392 -2.3184 -1.6250
29007SOL    HW289401   7.776   4.706   9.849 -1.1843 -0.0189 -2.0848
29008SOL     OW89402   4.253   5.092   3.104  0.2571 -0.5599 -0.4117
29008SOL    HW189403   4.249   5.156   3.176  0.1728  0.9139 -1.6650
29008SOL    HW289404   4.311   5.023   3.137 -0.3603 -0.3066  1.3386
29009SOL     OW89405   1.612   5.850   1.067  0.1035 -0.0475 -0.2916
29009SOL    HW189406   1.536   5.905   1.088  0.4060  0.2550  0.0164
29009SOL    HW289407   1.600   5.826   0.974 -0.6011 -0.3802 -0.1208
29010SOL     OW89408   4.021   7.833   3.141  0.4624 -0.3194 -0.1002
29010SOL    HW189409   4.112   7.812   3.121  0.7693  0.0430  0.8825
29010SOL    HW289410   4.014   7.927   3.127 -0.2638 -0.6074 -2.0103
29011SOL     OW89411   9.784   4.136   1.685  0.0226  0.1743 -0.5440
29011SOL    HW189412   9.731   4.059   1.704  2.2751 -1.2573  0.2805
29011SOL    HW289413   9.827   4.115   1.602  2.0739 -0.3495  0.5820
29012SOL     OW89414   6.075   4.665   8.067 -0.5751  0.0552 -0.4386
29012SOL    HW189415   6.067   4.640   7.974 -0.1846  1.1100 -0.7669
29012SOL    HW289416   6.106   4.755   8.065 -0.7244  0.1441  0.7319
29013SOL     OW89417   5.491   8.891   8.921  0.2392  0.2731 -0.4437
29013SOL    HW189418   5.507   8.823   8.856  0.1206 -0.8355  0.6501
29013SOL    HW289419   5.449   8.845   8.994 -0.0908  1.5731  0.2179
29014SOL     OW89420   2.752   6.020   2.820 -0.1736 -0.7739  0.1100
29014SOL    HW189421   2.825   6.013   2.759 -0.2749 -0.0172 -0.1121
29014SOL    HW289422   2.743   5.933   2.857  1.4516 -0.6562  0.8558
29015SOL     OW89423   0.624   0.251   9.135 -0.2943  0.1496 -0.3403
29015SOL    HW189424   0.629   0.292   9.221 -1.1964 -0.2877 -0.0644
29015SOL    HW289425   0.700   0.194   9.131 -0.3305  0.0573  0.2307
29016SOL     OW89426   5.187   5.259   2.381 -0.5857 -0.3618  0.5545
29016SOL    HW189427   5.193   5.262   2.477  1.7743  0.5484  0.4470
29016SOL    HW289428   5.209   5.348   2.353  0.6214 -1.0655 -0.8680
29017SOL     OW89429   0.353   5.460   3.567  0.1565  0.0346 -0.3843
29017SOL    HW189430   0.275   5.450   3.514  0.1249 -0.2731 -0.2811
29017SOL    HW289431   0.364   5.554   3.578  0.5958  0.1316 -1.5810
29018SOL     OW89432   3.145   6.040   4.401 -0.2378  0.8528 -0.3696
29018SOL    HW189433   3.224   6.088   4.374 -1.0008  1.8349 -0.9102
29018SOL    HW289434   3.171   5.948   4.397  0.9839  1.1671 -0.2115
29019SOL     OW89435   9.124   5.945   4.594 -0.3970  0.1136 -0.5609
29019SOL    HW189436   9.190   5.976   4.656 -1.5211 -0.1746  0.8260
29019SOL    HW289437   9.090   5.865   4.634  0.1585 -1.1559 -2.4843
29020SOL     OW89438   4.490   0.965   4.426 -0.4570 -0.1106 -0.0099
29020SOL    HW189439   4.575   0.936   4.458 -0.4823 -0.9208 -0.6418
29020SOL    HW289440   4.456   1.020   4.495  0.8100  0.6601  0.0300
29021SOL     OW89441   7.881  10.418   0.601 -0.5556  0.2190 -0.2594
29021SOL    HW189442   7.963  10.371   0.621  0.3834  1.4706 -1.0034
29021SOL    HW289443   7.910  10.503   0.567 -2.1998  1.2171  0.7221
29022SOL     OW89444   5.858   0.872  10.395  0.0108 -0.1476 -0.3688
29022SOL    HW189445   5.913   0.944  10.428  0.4463  0.0576 -1.4905
29022SOL    HW289446   5.781   0.874  10.451 -0.3465  1.6986 -0.8422
29023SOL     OW89447   6.692   7.418  10.139 -0.3679 -0.3353 -0.2561
29023SOL    HW189448   6.628   7.401  10.070  0.8059 -0.6637 -1.3209
29023SOL    HW289449   6.703   7.513  10.138  0.1771 -0.3931 -1.0641
29024SOL     OW89450   3.770   4.467   4.154 -0.7292 -0.1969 -0.4328
29024SOL    HW189451   3.799   4.440   4.067  1.8138 -1.0548  0.5979
29024SOL    HW289452   3.680   4.434   4.160 -0.1533 -2.2348 -1.8977
29025SOL     OW89453   6.146   5.782   9.722  0.1560  0.4886 -0.0676
29025SOL    HW189454   6.084   5.740   9.782 -0.7320  0.8930 -0.6795
29025SOL    HW289455   6.224   5.796   9.775 -0.2849  0.0185  0.7407
29026SOL     OW89456   5.511   4.889   2.109 -0.2417  0.1599  0.3107
29026SOL    HW189457   5.521   4.799   2.078 -1.4791  0.4121 -0.8928
29026SOL    HW289458   5.529   4.884   2.203 -1.1935 -1.5179  0.4351
29027SOL     OW89459   8.400  10.637   4.188 -0.0592 -0.8236 -0.1100
29027SOL    HW189460   8.334  10.689   4.141 -0.7707 -0.1565  1.5311
29027SOL    HW289461   8.349  10.572   4.236  0.8015 -2.8703 -1.8132
29028SOL     OW89462   1.701   2.105   3.074  0.4924  0.6334 -0.0471
29028SOL    HW189463   1.720   2.134   2.985  0.6781  1.1931  0.1694
29028SOL    HW289464   1.777   2.051   3.098  0.2334  0.1084 -0.3818
29029SOL     OW89465   5.167   7.610   8.479  0.2432 -0.0744 -0.0996
29029SOL    HW189466   5.181   7.610   8.574 -0.4485  1.2170  0.0307
29029SOL    HW289467   5.143   7.520   8.458 -1.7822  0.0599  1.3228
29030SOL     OW89468   4.146   2.862   9.542 -0.2239 -0.3360 -0.3741
29030SOL    HW189469   4.076   2.906   9.494 -0.1833 -1.1501 -1.2007
29030SOL    HW289470   4.208   2.835   9.475 -0.2445 -1.6440  0.1161
29031SOL     OW89471   3.195   0.280   5.490  0.1812  0.2570 -0.6183
29031SOL    HW189472   3.176   0.373   5.500  0.3676  0.1581  0.8401
29031SOL    HW289473   3.224   0.271   5.399 -2.4954  1.1341 -1.6712
29032SOL     OW89474   7.484   3.125   7.673  0.3033  0.5181  0.6372
29032SOL    HW189475   7.413   3.180   7.705 -0.1669 -0.0973  0.6679
29032SOL    HW289476   7.543   3.115   7.748  0.1439  0.5903  0.7723
29033SOL     OW89477   2.263   9.477   3.026 -0.3494  0.1355 -0.3395
29033SOL    HW189478   2.350   9.499   2.991 -0.1171  2.1921  1.3381
29033SOL    HW289479   2.277   9.397   3.076  1.0073  1.2638  1.2084
29034SOL     OW89480  10.220   1.642   2.313  0.0613 -0.1877  0.4132
29034SOL    HW189481  10.282   1.656   2.385 -0.7624 -1.6647  1.4597
29034SOL    HW289482  10.247   1.705   2.245  1.9620  0.0023  1.2936
29035SOL     OW89483   3.081   8.167   9.719  0.4075 -0.0060 -0.8028
29035SOL    HW189484   3.087   8.235   9.785  0.3090 -0.8296  0.0700
29035SOL    HW289485   3.130   8.202   9.644  0.3261  1.0252 -0.3841
29036SOL     OW89486   4.551   4.092   9.716  0.3873 -0.2353  0.4685
29036SOL    HW189487   4.512   4.102   9.803 -2.4167 -1.6081 -0.5441
29036SOL    HW289488   4.574   3.999   9.710  0.0895 -0.2623 -0.4153
29037SOL     OW89489   9.694  10.263   9.891 -0.4858 -0.0751 -0.1291
29037SOL    HW189490   9.739  10.347   9.903 -0.4605 -0.2746  1.2477
29037SOL    HW289491   9.732  10.205   9.956  1.8913 -2.2203 -3.1052
29038SOL     OW89492  10.023   1.106   4.211 -0.4082 -0.1636 -0.1429
29038SOL    HW189493   9.955   1.040   4.224  0.8510 -1.4705  0.1981
29038SOL    HW289494  10.076   1.071   4.139 -0.9594  1.5900 -1.4736
29039SOL     OW89495   6.492   5.032   7.257  0.0923  0.2278  0.1917
29039SOL    HW189496   6.549   4.957   7.275  0.1601  0.1080 -0.5174
29039SOL    HW289497   6.407   5.007   7.294 -0.4714 -1.0911 -1.8568
29040SOL     OW89498   6.176  10.704   2.169 -0.1869  0.2342 -0.4289
29040SOL    HW189499   6.209  10.619   2.194 -1.0816  0.2556  0.9256
29040SOL    HW289500   6.242  10.740   2.110  0.6401 -0.9982 -0.2736
29041SOL     OW89501   5.942   4.745   6.606  0.4006 -0.1997  0.1941
29041SOL    HW189502   6.003   4.706   6.668 -1.4886 -1.0337  1.6518
29041SOL    HW289503   5.956   4.697   6.524  1.9662 -0.0582  0.3628
29042SOL     OW89504   9.800   4.060   5.039  0.3373  0.0543  0.5592
29042SOL    HW189505   9.743   4.066   4.963  0.0196  0.8564  0.8452
29042SOL    HW289506   9.876   4.114   5.017  1.4627 -1.7675 -0.2012
29043SOL     OW89507  10.125   5.306  10.006 -0.0174 -0.0431  0.1306
29043SOL    HW189508  10.217   5.283  10.019  0.1431 -0.0755 -0.9778
29043SOL    HW289509  10.099   5.259   9.926 -0.3749  1.6530 -0.7964
29044SOL     OW89510   3.257   4.809   4.385  0.2902  0.0837 -0.2145
29044SOL    HW189511   3.282   4.717   4.379  1.3267  0.4608 -2.4485
29044SOL    HW289512   3.172   4.814   4.340  1.3621  0.5611 -2.2946
29045SOL     OW89513   7.001   0.971   0.054  0.0766 -0.4052 -0.0331
29045SOL    HW189514   7.087   0.930   0.045 -0.3097 -1.3486  0.3469
29045SOL    HW289515   6.997   0.999   0.145  0.9937  2.0970 -0.6830
29046SOL     OW89516   7.887   3.334   0.907 -0.0253  0.4858  0.0005
29046SOL    HW189517   7.841   3.253   0.886  0.0390  0.6839 -0.9433
29046SOL    HW289518   7.919   3.321   0.997 -0.5126 -0.2972  0.0681
29047SOL     OW89519   8.576  10.486   1.911 -0.3260 -0.4160 -0.0228
29047SOL    HW189520   8.552  10.451   1.997  0.6019 -1.3313 -0.1085
29047SOL    HW289521   8.561  10.413   1.851  0.6877 -0.3641 -0.3616
29048SOL     OW89522   2.116  10.491   6.355 -0.0393 -0.1855 -0.5619
29048SOL    HW189523   2.165  10.563   6.316 -0.3861 -0.3365 -1.2831
29048SOL    HW289524   2.039  10.533   6.394  0.2959 -0.0377 -0.0482
29049SOL     OW89525   3.187   9.710   0.325  0.1415 -0.0546 -0.0520
29049SOL    HW189526   3.247   9.782   0.303 -0.2097 -0.4653 -2.7415
29049SOL    HW289527   3.228   9.633   0.284 -1.4003 -0.6354 -0.5510
29050SOL     OW89528   0.619  10.405   8.937 -0.1477 -0.1297 -0.3815
29050SOL    HW189529   0.687  10.350   8.896  0.5777 -0.6928  1.4387
29050SOL    HW289530   0.561  10.342   8.980 -1.8686  0.3520 -1.8788
29051SOL     OW89531   4.726  10.681   4.955  0.0443  0.1093  0.6068
29051SOL    HW189532   4.802  10.640   4.995  0.3343  0.2703  0.2293
29051SOL    HW289533   4.760  10.724   4.877 -0.7792 -1.6562 -0.8002
29052SOL     OW89534   1.617  10.151   0.981 -0.5001  0.6384 -0.1377
29052SOL    HW189535   1.601  10.165   0.888 -0.6227 -2.7904 -0.7677
29052SOL    HW289536   1.530  10.148   1.021 -0.5921 -0.1825 -0.3722
29053SOL     OW89537   5.032   5.869   5.156  0.2092 -0.6497  0.4496
29053SOL    HW189538   4.968   5.802   5.180 -0.5127 -0.5374 -1.0436
29053SOL    HW289539   5.011   5.943   5.214 -1.2018 -0.5279 -0.1795
29054SOL     OW89540   3.478   3.544   2.305  0.1550 -0.1068  0.6159
29054SOL    HW189541   3.559   3.578   2.267  0.3826 -0.7789  0.4912
29054SOL    HW289542   3.496   3.536   2.399  0.2074 -0.1873  0.5985
29055SOL     OW89543   6.227   2.950   4.473 -0.2798  0.2491 -0.0811
29055SOL    HW189544   6.263   3.039   4.472  2.1828 -0.6737 -1.0289
29055SOL    HW289545   6.153   2.954   4.411  0.0926  1.5217 -0.4755
29056SOL     OW89546   7.016  10.767   7.493  0.5702  0.8839 -0.0313
29056SOL    HW189547   7.095  10.766   7.547  0.5677  1.2738 -0.0123
29056SOL    HW289548   7.019  10.852   7.448  1.5114 -0.1595 -2.0526
29057SOL     OW89549   2.006   8.750   9.685 -0.3867 -0.4886 -0.1820
29057SOL    HW189550   1.946   8.776   9.754 -1.5104  0.1155 -1.3441
29057SOL    HW289551   2.081   8.808   9.695 -1.0540  0.3831 -0.1872
29058SOL     OW89552   2.185  10.062   0.766 -0.4364  0.5649  0.5373
29058SOL    HW189553   2.262  10.031   0.719 -1.3999 -1.2805  0.1074
29058SOL    HW289554   2.214  10.145   0.805  2.0813 -0.4995  1.1999
29059SOL     OW89555   8.763   6.749   5.312  0.4532 -0.3159  0.2827
29059SOL    HW189556   8.802   6.669   5.276 -0.5263  0.3019 -2.4048
29059SOL    HW289557   8.671   6.726   5.328  0.3724  0.0326  0.3305
29060SOL     OW89558   4.805   3.461   9.670 -0.4670  0.2877  0.1324
29060SOL    HW189559   4.719   3.435   9.702 -2.1235  4.6906 -0.0344
29060SOL    HW289560   4.848   3.500   9.747 -0.6491  2.4149 -0.7789
29061SOL     OW89561   0.129   5.984   3.696  0.2226  0.5248  0.5082
29061SOL    HW189562   0.155   6.059   3.643  0.4759  1.6125  2.1043
29061SOL    HW289563   0.114   5.914   3.632 -0.4188  2.0146 -1.0667
29062SOL     OW89564   0.519  10.732   0.583  0.6594  0.0525  0.3691
29062SOL    HW189565   0.559  10.684   0.511 -1.1053  1.0636 -1.4031
29062SOL    HW289566   0.459  10.670   0.623  1.7719 -0.5673  1.1091
29063SOL     OW89567   5.447   0.338   8.281 -0.2478  0.5198  0.1100
29063SOL    HW189568   5.410   0.250   8.275  0.7576  0.1758 -1.8189
29063SOL    HW289569   5.410   0.385   8.207 -0.8716  1.8012  1.2024
29064SOL     OW89570   1.080   6.164   0.466 -0.3886  0.3931 -0.7636
29064SOL    HW189571   1.115   6.207   0.544  0.7795 -1.2648 -0.3200
29064SOL    HW289572   1.001   6.119   0.495  1.5977 -2.7252  0.3256
29065SOL     OW89573   7.797   7.226   9.786  0.2925 -0.3380 -0.6862
29065SOL    HW189574   7.821   7.187   9.702 -1.8856 -0.5837 -1.2524
29065SOL    HW289575   7.702   7.220   9.789  0.1769  1.3852  0.9889
29066SOL     OW89576   7.760   0.487   6.134 -0.5561  0.3264 -0.0156
29066SOL    HW189577   7.774   0.574   6.172 -0.4462  0.0085  0.6930
29066SOL    HW289578   7.726   0.504   6.046  3.1549  1.1643 -1.4827
29067SOL     OW89579   0.340   1.100   5.906 -0.2393  0.5650 -0.0276
29067SOL    HW189580   0.400   1.155   5.856  0.1042  0.4603  0.2645
29067SOL    HW289581   0.309   1.034   5.844 -1.0502  1.3865 -0.5171
29068SOL     OW89582  10.175   7.937   4.456 -0.4121  0.6914  0.9869
29068SOL    HW189583  10.087   7.927   4.421  0.0665 -2.4890  0.4015
29068SOL    HW289584  10.231   7.893   4.392  1.5294  1.8552  1.7829
29069SOL     OW89585   1.946   2.651  10.781  0.0851 -0.6215  0.1757
29069SOL    HW189586   1.918   2.563  10.755 -0.5746  0.0304 -1.4150
29069SOL    HW289587   1.866   2.703  10.780  0.3530 -0.1210  1.7749
29070SOL     OW89588   3.199   5.172   2.810  0.0552  0.0961 -0.1910
29070SOL    HW189589   3.255   5.118   2.755 -0.2148 -0.2591 -0.1167
29070SOL    HW289590   3.115   5.126   2.813  0.1786 -0.0828  0.8234
29071SOL     OW89591  10.270   4.785   5.200 -0.0211  0.6464  0.1518
29071SOL    HW189592  10.265   4.689   5.205 -0.8150  0.4551 -2.6529
29071SOL    HW289593  10.194   4.816   5.250  1.4289  0.0139  2.9749
29072SOL     OW89594   4.715   5.462   8.481  0.0831 -0.4436 -0.7063
29072SOL    HW189595   4.720   5.509   8.398 -1.2224  0.8321 -0.0921
29072SOL    HW289596   4.772   5.511   8.540 -1.2957  0.4125 -0.0568
29073SOL     OW89597   6.051   3.879   5.149  0.6412  0.4414  0.0307
29073SOL    HW189598   5.993   3.940   5.104  0.7732 -0.3788 -1.2979
29073SOL    HW289599   6.138   3.896   5.111  0.9698  0.4960  0.7830
29074SOL     OW89600   8.809  10.466   7.193  0.1893 -0.3650  0.3381
29074SOL    HW189601   8.902  10.491   7.196 -0.0749  0.7478 -0.0190
29074SOL    HW289602   8.788  10.467   7.100 -0.7371  1.7177  0.5105
29075SOL     OW89603   2.882   2.940   4.501  0.4380  0.2007 -0.2062
29075SOL    HW189604   2.860   3.031   4.480  0.1905  0.0821 -0.4703
29075SOL    HW289605   2.961   2.946   4.555  0.0552  0.6095  0.3285
29076SOL     OW89606   5.311   8.305   4.491  0.5345 -0.4515  0.0857
29076SOL    HW189607   5.236   8.357   4.520 -0.1474  0.2252 -2.5695
29076SOL    HW289608   5.387   8.359   4.511  0.0593  0.2366  0.0724
29077SOL     OW89609   8.101   8.653   1.580  0.2850 -0.1464 -0.4487
29077SOL    HW189610   8.059   8.670   1.665  0.1560 -0.0072 -0.5382
29077SOL    HW289611   8.065   8.721   1.523 -0.0839 -0.6040 -0.7698
29078SOL     OW89612   3.800   1.160   3.106 -0.0798  0.3730 -0.3366
29078SOL    HW189613   3.895   1.165   3.103 -0.0910  0.2343 -1.3063
29078SOL    HW289614   3.781   1.096   3.174  0.4860  1.0414  0.4683
29079SOL     OW89615   6.221  10.204   9.453 -0.3373 -0.4668  0.0762
29079SOL    HW189616   6.274  10.154   9.391 -1.2284 -0.8374 -0.4084
29079SOL    HW289617   6.158  10.250   9.397 -0.2976  0.2501  0.6124
29080SOL     OW89618   7.189   7.201   9.651 -0.1276  0.2185 -0.4466
29080SOL    HW189619   7.233   7.280   9.684 -0.3823 -0.2010  0.9751
29080SOL    HW289620   7.152   7.160   9.729 -2.4566  0.1839 -1.4562
29081SOL     OW89621   9.326   2.351   6.731 -0.0307  0.4434  0.0641
29081SOL    HW189622   9.354   2.332   6.820  0.3771  0.4008 -0.0743
29081SOL    HW289623   9.285   2.269   6.701  0.4571  0.2331 -0.0327
29082SOL     OW89624   1.857   5.626   3.218 -0.5131  0.2855  0.2150
29082SOL    HW189625   1.896   5.562   3.159  0.1456 -1.2787  2.2339
29082SOL    HW289626   1.916   5.701   3.215  2.2949 -1.6357  2.4390
29083SOL     OW89627   0.118  10.164   1.907 -0.3317 -0.2066 -0.1149
29083SOL    HW189628   0.049  10.107   1.942 -0.8139  0.1966 -0.3834
29083SOL    HW289629   0.188  10.159   1.972 -1.1452  0.4144  0.8422
29084SOL     OW89630   7.982   7.207  10.540  0.2893 -0.2031 -0.2412
29084SOL    HW189631   7.918   7.175  10.476  0.3374 -0.0581 -0.3605
29084SOL    HW289632   7.972   7.302  10.540  0.8796 -0.1343 -0.6586
29085SOL     OW89633   3.540   6.455   7.903  0.5123 -0.8138  0.5678
29085SOL    HW189634   3.612   6.484   7.960  1.8035 -0.8118 -0.9799
29085SOL    HW289635   3.530   6.526   7.840 -0.5424 -1.0312  0.4769
29086SOL     OW89636   6.921   7.443   6.512 -0.7718 -0.1318  0.0246
29086SOL    HW189637   6.843   7.443   6.566 -0.2633  0.3550  0.7741
29086SOL    HW289638   6.990   7.478   6.568 -0.4553  1.4520 -1.2379
29087SOL     OW89639   8.065   5.800   2.277  0.5141 -0.5660 -0.1914
29087SOL    HW189640   8.009   5.865   2.235 -0.4340 -0.8818  0.5546
29087SOL    HW289641   8.114   5.761   2.205 -0.2718 -0.3190 -0.8719
29088SOL     OW89642   2.659   0.759  10.128  0.8270 -0.5425  0.6864
29088SOL    HW189643   2.705   0.805  10.198 -1.5872  2.5995  0.4429
29088SOL    HW289644   2.693   0.798  10.048 -0.2450 -0.1867  0.3925
29089SOL     OW89645   3.826   1.286   6.066 -0.2955 -0.9400 -0.1833
29089SOL    HW189646   3.743   1.322   6.037 -0.2708 -0.9340 -0.2458
29089SOL    HW289647   3.803   1.231   6.142 -0.4120 -1.2621 -0.4472
29090SOL     OW89648   1.778   2.723   6.601 -0.2878 -0.3182 -0.0700
29090SOL    HW189649   1.851   2.693   6.656  0.9452  0.1816 -1.3813
29090SOL    HW289650   1.818   2.744   6.517 -1.9636 -0.0266 -0.8355
29091SOL     OW89651   8.237   3.405   9.376 -0.2460 -0.0632  0.0736
29091SOL    HW189652   8.324   3.368   9.363 -0.4624 -0.6721  0.2810
29091SOL    HW289653   8.249   3.500   9.373  0.5819 -0.1234  1.0426
29092SOL     OW89654   2.181   0.677   1.085 -0.2397 -0.4939 -0.2321
29092SOL    HW189655   2.146   0.638   1.165 -0.4769  2.2049  1.1194
29092SOL    HW289656   2.144   0.765   1.084  0.9477  0.0576 -2.5588
29093SOL     OW89657  10.140  10.452   8.555  0.2868  0.0284 -0.3791
29093SOL    HW189658  10.161  10.388   8.624  1.0043  0.4789 -0.1627
29093SOL    HW289659  10.196  10.427   8.482  1.6223  1.2021  0.1796
29094SOL     OW89660   3.087   4.531   4.204 -0.0827  0.4515 -0.4734
29094SOL    HW189661   3.129   4.490   4.280 -1.3155 -0.8883 -0.4664
29094SOL    HW289662   3.160   4.560   4.149  0.8365  1.3084  1.1186
29095SOL     OW89663   2.465   0.716  10.501 -0.2098 -0.1498 -0.6916
29095SOL    HW189664   2.371   0.715  10.484 -0.4481 -1.1714  0.5652
29095SOL    HW289665   2.485   0.808  10.518 -0.8979  0.1346 -1.3468
29096SOL     OW89666   1.622   1.913   0.068  0.1030  0.7923 -0.3980
29096SOL    HW189667   1.564   1.869   0.006  0.1148  1.2876 -0.7619
29096SOL    HW289668   1.625   1.853   0.143 -0.2296  0.3787 -0.7042
29097SOL     OW89669   8.287   0.228   8.932 -0.1950  0.1197  0.1628
29097SOL    HW189670   8.252   0.316   8.937 -0.2866  0.0629  0.5845
29097SOL    HW289671   8.223   0.178   8.882 -0.0872  0.3162 -0.1756
29098SOL     OW89672   7.494   5.937   6.994  0.2153  0.5838 -0.7420
29098SOL    HW189673   7.436   5.862   6.978  0.3911 -0.0544  1.3461
29098SOL    HW289674   7.492   5.950   7.089  3.1131  0.8593 -0.6243
29099SOL     OW89675   4.029   1.557   8.516  0.1140 -0.2168 -0.0921
29099SOL    HW189676   4.069   1.591   8.436  1.4659 -0.3159  0.5093
29099SOL    HW289677   3.946   1.520   8.488  1.9991 -3.3589 -2.1243
29100SOL     OW89678   0.159   9.311   4.088  0.0919 -0.2164 -0.4098
29100SOL    HW189679   0.243   9.280   4.055 -0.4731 -0.4609 -1.6441
29100SOL    HW289680   0.163   9.406   4.079  0.5928 -0.1386  0.4454
29101SOL     OW89681   9.271   8.941   4.584 -0.1479  0.6097  0.3486
29101SOL    HW189682   9.264   8.850   4.553  1.8937  0.2960  0.6655
29101SOL    HW289683   9.184   8.978   4.568 -1.0200 -1.3702  0.1434
29102SOL     OW89684   3.986   9.633   5.416 -0.1913 -0.0675  0.9921
29102SOL    HW189685   4.059   9.634   5.354  0.1443 -0.1920  1.3803
29102SOL    HW289686   4.017   9.686   5.490  0.7028 -2.5535  2.5044
29103SOL     OW89687   8.822   8.186   1.992 -0.7197  0.3564  0.1492
29103SOL    HW189688   8.903   8.199   1.943  0.2906 -1.1725  1.2955
29103SOL    HW289689   8.767   8.133   1.935  0.4933 -1.5187  0.6313
29104SOL     OW89690  10.682   4.647   6.585 -0.3332 -0.3178 -0.4863
29104SOL    HW189691  10.633   4.676   6.508 -0.6662 -0.2647 -0.2520
29104SOL    HW289692  10.618   4.600   6.638 -0.8367  2.1461  1.1961
29105SOL     OW89693   7.560   3.257   4.315  0.6152 -0.2117 -0.2306
29105SOL    HW189694   7.539   3.214   4.232 -1.9161 -1.7958  1.0979
29105SOL    HW289695   7.617   3.195   4.361  1.3683  0.3133 -0.4309
29106SOL     OW89696   1.527  10.142   7.391 -0.3737  0.1126 -0.4597
29106SOL    HW189697   1.572  10.071   7.436  0.2951  0.5993 -0.3556
29106SOL    HW289698   1.440  10.144   7.431  0.4549  1.0342  1.4014
29107SOL     OW89699   7.235   2.444   8.939  0.0178 -0.7814 -0.4243
29107SOL    HW189700   7.237   2.485   9.025  1.0154 -0.8853 -0.3926
29107SOL    HW289701   7.308   2.382   8.939 -0.6039 -1.5547 -0.9707
29108SOL     OW89702   5.328   4.692   2.825  0.4033 -0.1131 -0.5969
29108SOL    HW189703   5.257   4.717   2.766  0.2668  0.8373 -0.0507
29108SOL    HW289704   5.408   4.712   2.776  0.2952 -0.2036 -0.8119
29109SOL     OW89705   6.262   3.306   9.145  0.3790  0.0590 -0.7914
29109SOL    HW189706   6.213   3.388   9.137  1.5493  0.6911 -1.7835
29109SOL    HW289707   6.196   3.241   9.170 -0.4954  1.3832  0.5302
29110SOL     OW89708   8.351   6.425   8.364 -0.8566 -0.0441 -0.6905
29110SOL    HW189709   8.348   6.467   8.450  1.9390 -0.6594 -0.2178
29110SOL    HW289710   8.274   6.367   8.364 -1.3416  0.5243  1.0789
29111SOL     OW89711   9.579   5.807   5.825 -0.2134 -0.1997 -0.5797
29111SOL    HW189712   9.607   5.803   5.734  0.6809 -0.1587 -0.3164
29111SOL    HW289713   9.486   5.783   5.823 -0.4180  0.6161 -1.5892
29112SOL     OW89714   5.623   2.357   1.849 -0.4621 -0.1602 -0.1384
29112SOL    HW189715   5.545   2.330   1.800 -0.7170 -0.9134  0.6698
29112SOL    HW289716   5.686   2.286   1.835 -0.4398 -0.2479  0.3989
29113SOL     OW89717   3.023   0.575   8.783  0.6039  0.1896  0.1638
29113SOL    HW189718   2.974   0.595   8.863 -0.1263  1.4651 -0.5678
29113SOL    HW289719   3.067   0.492   8.802 -2.5827 -1.5686  0.5420
29114SOL     OW89720   3.109   9.991   9.054 -0.3417 -0.4202  0.1266
29114SOL    HW189721   3.179  10.040   9.098  0.1227 -0.0293 -1.0026
29114SOL    HW289722   3.029  10.038   9.077 -0.0798 -0.0818  0.3576
29115SOL     OW89723   8.084   7.991   4.554 -0.1962 -0.1524 -0.1389
29115SOL    HW189724   8.017   7.948   4.502  0.4461 -2.9719  1.1830
29115SOL    HW289725   8.141   8.034   4.489 -1.4507 -0.4348 -1.4658
29116SOL     OW89726   1.234   7.572   1.154  0.4274  0.4442 -0.0609
29116SOL    HW189727   1.177   7.595   1.227 -0.0182  0.0471 -0.2795
29116SOL    HW289728   1.310   7.530   1.195  0.5047  0.8399  0.2163
29117SOL     OW89729   7.724   1.115   6.168 -0.5179  0.0008  0.5309
29117SOL    HW189730   7.668   1.053   6.214 -1.9923 -1.1540 -2.5497
29117SOL    HW289731   7.782   1.060   6.115 -0.8503  1.2195 -1.1626
29118SOL     OW89732   3.793   6.629   9.291  0.2068  0.0707  0.1706
29118SOL    HW189733   3.888   6.614   9.292  0.3554  0.9507  0.5187
29118SOL    HW289734   3.779   6.689   9.217  0.3968  2.6122  2.0643
29119SOL     OW89735  10.634   7.812   1.136  0.3882 -0.2143  0.1244
29119SOL    HW189736  10.682   7.810   1.219  0.9075  1.5369 -0.0933
29119SOL    HW289737  10.680   7.749   1.081  0.9419 -0.3247  0.6925
29120SOL     OW89738   4.348   5.744   2.768 -0.3271  0.0239  0.7240
29120SOL    HW189739   4.332   5.750   2.674 -0.1464  2.7714  0.7765
29120SOL    HW289740   4.383   5.656   2.781 -0.8568 -0.6216 -1.6780
29121SOL     OW89741   2.482   6.835   4.377 -0.0847  0.5665 -0.1251
29121SOL    HW189742   2.523   6.857   4.294 -0.9869 -1.6157 -1.2466
29121SOL    HW289743   2.418   6.905   4.391  1.5335  2.1114 -0.1219
29122SOL     OW89744   6.491   4.779   7.997  0.1405 -0.0007 -0.5747
29122SOL    HW189745   6.566   4.763   8.055 -0.0794  0.7664 -0.0626
29122SOL    HW289746   6.425   4.717   8.026  0.6291 -0.8167 -1.1550
29123SOL     OW89747   7.671   4.189   0.300  0.3078 -0.4835 -0.1862
29123SOL    HW189748   7.674   4.224   0.389  1.2007  0.4806 -0.5806
29123SOL    HW289749   7.666   4.266   0.244 -0.3434 -1.0837 -0.9862
29124SOL     OW89750   0.801  10.105   9.732  0.6512 -0.1309 -0.4866
29124SOL    HW189751   0.774  10.014   9.745 -0.4135  0.3424  0.8403
29124SOL    HW289752   0.888  10.111   9.772  0.7641 -0.5789 -0.6645
29125SOL     OW89753   4.488   7.580   1.525 -0.1150  0.6814  0.3488
29125SOL    HW189754   4.507   7.606   1.615 -0.8007 -0.0109  0.7064
29125SOL    HW289755   4.436   7.501   1.534  2.1524 -1.0342 -0.7142
29126SOL     OW89756   7.085   8.765   1.219 -0.1569 -0.1387  0.1692
29126SOL    HW189757   7.104   8.674   1.194 -0.9939 -0.2868  0.0401
29126SOL    HW289758   7.000   8.783   1.180  0.0805  0.7615  0.0662
29127SOL     OW89759   3.464   6.795   2.714 -0.2168  0.3561 -0.5079
29127SOL    HW189760   3.479   6.796   2.809 -1.8389  0.8444 -0.2305
29127SOL    HW289761   3.552   6.786   2.677  0.3564 -0.9007  1.0442
29128SOL     OW89762   2.094   2.855   9.599 -0.3473  0.3027  0.1315
29128SOL    HW189763   2.072   2.764   9.578  3.0212 -1.6322  3.6871
29128SOL    HW289764   2.050   2.871   9.683  0.4870  1.3398  0.3874
29129SOL     OW89765   1.021   9.813   8.956 -0.2948 -0.0293 -0.0100
29129SOL    HW189766   1.074   9.756   8.900 -0.6483 -1.6633  1.2480
29129SOL    HW289767   1.068   9.815   9.039 -0.6736  0.9472  0.1888
29130SOL     OW89768   4.424   4.822   4.065 -0.5407 -0.1278  0.2210
29130SOL    HW189769   4.358   4.864   4.120  0.1955  0.8627  0.3768
29130SOL    HW289770   4.373   4.773   3.999 -1.4277  0.7918  0.1965
29131SOL     OW89771   3.821   6.410   2.437 -0.3326 -0.2484 -0.5777
29131SOL    HW189772   3.830   6.316   2.425 -0.1985 -0.2006 -0.8557
29131SOL    HW289773   3.910   6.441   2.455 -0.2017 -0.0224 -1.5749
29132SOL     OW89774   0.142   8.048   5.886 -0.2295 -0.1711 -0.3976
29132SOL    HW189775   0.220   8.078   5.933 -0.4120 -0.7135  0.2674
29132SOL    HW289776   0.079   8.120   5.896 -0.2614 -0.2745  0.1881
29133SOL     OW89777   1.381   3.588   4.900  0.1306  0.5704 -0.5456
29133SOL    HW189778   1.381   3.531   4.977 -1.0176 -0.5550 -1.3303
29133SOL    HW289779   1.470   3.584   4.866  0.5249  0.6998  0.4430
29134SOL     OW89780   8.956   5.781   4.351 -0.7466  0.1412 -0.1128
29134SOL    HW189781   8.961   5.875   4.370 -0.7348 -0.0986  1.1016
29134SOL    HW289782   8.915   5.777   4.264 -1.4093  1.2435  0.1270
29135SOL     OW89783   0.244   6.715   9.277 -0.0126 -0.1769 -0.0927
29135SOL    HW189784   0.241   6.810   9.262 -2.1501 -0.0856  0.5424
29135SOL    HW289785   0.160   6.695   9.318 -0.2508 -2.5700 -1.5366
29136SOL     OW89786   0.950   6.682   2.268 -0.2658  0.2819 -0.2341
29136SOL    HW189787   0.880   6.733   2.308  1.0144  1.4271  0.6227
29136SOL    HW289788   0.971   6.729   2.188 -0.3892 -0.0026 -0.4365
29137SOL     OW89789   2.202   8.105   0.128  0.1724  0.4306  0.5746
29137SOL    HW189790   2.211   8.016   0.095  0.8901  1.2664 -1.6543
29137SOL    HW289791   2.289   8.143   0.121 -0.5779  2.0258 -0.8514
29138SOL     OW89792   9.880   7.237   1.752 -0.1602  0.7535  0.1872
29138SOL    HW189793   9.881   7.227   1.847  2.8511 -0.1658  0.1892
29138SOL    HW289794   9.968   7.270   1.731 -1.4022  2.8602 -2.1495
29139SOL     OW89795  10.400   1.689   4.316  0.5789 -0.2580  0.4540
29139SOL    HW189796  10.386   1.607   4.269  2.4949  0.0531 -0.8070
29139SOL    HW289797  10.360   1.676   4.402 -3.1595 -0.8583 -1.1613
29140SOL     OW89798   0.496   4.016   2.780  0.1186 -0.4043 -0.4808
29140SOL    HW189799   0.555   3.943   2.764  0.4965 -0.3400  0.5214
29140SOL    HW289800   0.488   4.020   2.875 -0.0131  0.7626 -0.5210
29141SOL     OW89801   1.992  10.288   7.149 -0.3002 -0.1163 -0.0968
29141SOL    HW189802   2.045  10.347   7.202 -0.0869 -0.8231  0.4986
29141SOL    HW289803   1.909  10.334   7.138  0.0480  0.5244 -0.1021
29142SOL     OW89804   4.737   4.922   6.655  0.1871 -0.3589 -0.2261
29142SOL    HW189805   4.803   4.982   6.621 -0.1479 -0.6144 -1.3646
29142SOL    HW289806   4.656   4.949   6.613 -0.5682  0.2595  1.5242
29143SOL     OW89807   5.589   0.573   0.553  0.4963 -0.1766  0.1661
29143SOL    HW189808   5.539   0.649   0.525 -0.1270  0.5306  2.8983
29143SOL    HW289809   5.673   0.581   0.508 -0.3467  0.8806 -1.3012
29144SOL     OW89810  10.154  10.659  10.358  0.0605  0.0038  0.1384
29144SOL    HW189811  10.179  10.620  10.441 -0.1797 -0.9586 -0.2278
29144SOL    HW289812  10.232  10.706  10.329  0.4488 -0.4268  0.4672
29145SOL     OW89813   8.700   2.954   8.231 -0.2085 -0.0934 -0.2821
29145SOL    HW189814   8.627   2.981   8.175  0.0887 -1.2903 -1.3098
29145SOL    HW289815   8.769   2.930   8.169  0.1131 -1.5032  0.5813
29146SOL     OW89816  10.368   5.573   9.469  0.2828  0.0373 -0.6289
29146SOL    HW189817  10.278   5.568   9.500  0.6002 -1.2326  0.1472
29146SOL    HW289818  10.418   5.517   9.529  1.6481  0.9662 -0.8492
29147SOL     OW89819   7.398   1.614   2.717  0.4346  0.1381 -0.1306
29147SOL    HW189820   7.431   1.657   2.638 -1.1707  2.9296  0.5532
29147SOL    HW289821   7.461   1.637   2.785  0.8858 -0.7708 -0.2284
29148SOL     OW89822   1.757   1.864   4.174 -0.0242 -0.4726  0.7220
29148SOL    HW189823   1.840   1.841   4.131 -1.3333 -0.8373 -1.7728
29148SOL    HW289824   1.706   1.783   4.173 -1.3092  0.3098 -0.0431
29149SOL     OW89825   0.524   1.591   6.060  0.3789 -0.1444  0.0194
29149SOL    HW189826   0.565   1.526   6.117  2.5039  1.6821  0.7046
29149SOL    HW289827   0.568   1.581   5.976  2.6608  2.0296  0.8430
29150SOL     OW89828   5.349   6.301   8.057 -0.1263  0.0149 -0.4316
29150SOL    HW189829   5.278   6.241   8.034  0.6912 -0.9688 -0.4733
29150SOL    HW289830   5.425   6.268   8.008  0.4622  0.7911 -0.0647
29151SOL     OW89831   1.740   7.156   0.961 -0.0782  0.1916  0.0041
29151SOL    HW189832   1.809   7.114   1.011  0.1167 -0.4626 -0.7904
29151SOL    HW289833   1.659   7.123   0.999  0.0473  0.5894  0.6262
29152SOL     OW89834   3.084   0.857   9.301 -0.3466 -0.2397  0.2617
29152SOL    HW189835   3.017   0.801   9.339 -0.2964  1.0339  2.3374
29152SOL    HW289836   3.166   0.825   9.338 -0.1466  0.1932  0.1992
29153SOL     OW89837   3.579   6.086   6.391 -0.0963 -0.0468  0.9087
29153SOL    HW189838   3.596   6.162   6.447 -0.6739  1.3618 -0.7111
29153SOL    HW289839   3.642   6.095   6.319  0.4030 -1.6052  1.1122
29154SOL     OW89840   0.214   3.105   2.164 -0.8395 -0.1798  0.0074
29154SOL    HW189841   0.211   3.201   2.166 -0.1753 -0.1681  0.5902
29154SOL    HW289842   0.138   3.080   2.111  0.8691  0.7863 -3.1793
29155SOL     OW89843   9.901   3.871   5.204  0.0671  0.4802  0.0098
29155SOL    HW189844   9.842   3.797   5.194  1.1959 -0.3161 -1.0306
29155SOL    HW289845   9.861   3.941   5.153 -0.2216  0.0948 -0.2950
29156SOL     OW89846   5.189   1.074   8.120 -0.1704 -0.5472  0.1592
29156SOL    HW189847   5.196   1.169   8.120 -1.7181 -0.4094 -0.4724
29156SOL    HW289848   5.271   1.044   8.161 -0.1446  1.0690  1.3869
29157SOL     OW89849   1.427   2.264   1.142 -0.0301  0.5585 -0.5056
29157SOL    HW189850   1.343   2.292   1.177 -0.4470  0.0163 -1.0536
29157SOL    HW289851   1.448   2.329   1.075  0.6196  1.4207  0.5017
29158SOL     OW89852   4.246   2.975   0.249  0.1005 -0.3936  0.1400
29158SOL    HW189853   4.170   2.992   0.193  1.0834  0.2281 -1.0367
29158SOL    HW289854   4.211   2.979   0.338 -1.2245 -0.0054 -0.3757
29159SOL     OW89855   3.630   7.570  10.706  0.1881  0.2615  0.2869
29159SOL    HW189856   3.686   7.515  10.651  0.3708 -0.3436  1.0630
29159SOL    HW289857   3.544   7.529  10.702 -0.0337  0.7539 -0.2828
29160SOL     OW89858   2.361   3.998   3.774  0.4719 -0.4596  0.4050
29160SOL    HW189859   2.401   3.938   3.710  1.1490  0.0891  0.3043
29160SOL    HW289860   2.270   4.007   3.745  0.8912  0.1579 -0.7726
29161SOL     OW89861   2.228   5.341   4.140  0.4287  0.1023  0.4487
29161SOL    HW189862   2.167   5.407   4.175  0.6852  0.4363  0.2779
29161SOL    HW289863   2.311   5.361   4.183 -0.3767 -2.8295  3.8353
29162SOL     OW89864   4.696   9.412   8.450 -0.5119  0.0567 -0.3131
29162SOL    HW189865   4.736   9.419   8.537  1.3166 -0.9976 -1.0123
29162SOL    HW289866   4.770   9.404   8.390 -1.7153  1.2873 -2.0538
29163SOL     OW89867   8.770   1.146   9.693  0.7810 -0.2313  1.0313
29163SOL    HW189868   8.835   1.123   9.759 -0.1575 -0.7863  1.7842
29163SOL    HW289869   8.744   1.062   9.654  0.9823  0.0470  0.2855
29164SOL     OW89870   3.767   1.016   3.324 -0.7902 -0.2506 -0.6001
29164SOL    HW189871   3.779   0.922   3.330 -1.3329 -0.2609  0.7840
29164SOL    HW289872   3.683   1.032   3.368  0.1549  1.0529  0.8209
29165SOL     OW89873   1.880   2.968   5.796 -0.0504  0.5456  0.1680
29165SOL    HW189874   1.821   3.025   5.747  0.0012  0.8670  0.4749
29165SOL    HW289875   1.968   2.993   5.766 -0.0613  0.1107 -0.2442
29166SOL     OW89876   1.593   9.610   1.437 -0.1625 -0.5050 -0.1694
29166SOL    HW189877   1.680   9.650   1.434 -0.3013 -0.2513 -1.1658
29166SOL    HW289878   1.609   9.516   1.426  0.0523 -0.5615  0.6156
29167SOL     OW89879   1.300   2.581   5.162  0.5117 -0.4021 -0.0151
29167SOL    HW189880   1.271   2.491   5.149  0.4370 -0.7439  2.1788
29167SOL    HW289881   1.351   2.579   5.243  2.9116  1.0255 -1.3706
29168SOL     OW89882   6.390   0.357   8.236  0.1742  0.2568  0.2453
29168SOL    HW189883   6.326   0.424   8.211  0.5958 -0.4401 -3.0914
29168SOL    HW289884   6.473   0.405   8.240  0.1159  0.3598  0.2509
29169SOL     OW89885   1.147   8.118   0.736 -0.1879 -0.1834  0.0175
29169SOL    HW189886   1.214   8.172   0.693 -0.7076  0.1633 -0.3619
29169SOL    HW289887   1.195   8.072   0.804  0.5483 -0.3230 -0.5740
29170SOL     OW89888   1.303   0.652   3.753 -0.0725  0.1794  0.1362
29170SOL    HW189889   1.208   0.638   3.761 -0.6015  2.3701 -1.3679
29170SOL    HW289890   1.324   0.716   3.822  0.1909  0.2012  0.0370
29171SOL     OW89891   7.134   7.049   7.572  0.2953 -0.6401  0.1105
29171SOL    HW189892   7.178   7.019   7.492 -0.9421  0.3610 -0.9918
29171SOL    HW289893   7.044   7.067   7.545  0.4377  2.0593  1.1370
29172SOL     OW89894   5.521   5.941   4.212 -0.4661 -0.2624  0.1481
29172SOL    HW189895   5.548   6.016   4.158 -0.8586 -0.5185 -0.4172
29172SOL    HW289896   5.601   5.891   4.225 -0.4791 -0.5333 -0.7454
29173SOL     OW89897   2.773   7.138   6.551  0.7960 -0.4712  0.5687
29173SOL    HW189898   2.807   7.118   6.638  0.8466  2.0508  1.2023
29173SOL    HW289899   2.847   7.179   6.506  0.9639 -2.3247 -0.9270
29174SOL     OW89900   2.514   2.135   0.594 -0.6632  0.0563 -0.2723
29174SOL    HW189901   2.443   2.185   0.554 -0.7222 -0.7926 -1.2781
29174SOL    HW289902   2.559   2.094   0.519  2.5377  2.6254 -0.0333
29175SOL     OW89903   5.870   9.904   0.097 -0.0367 -0.0406  0.4446
29175SOL    HW189904   5.826   9.920   0.013  1.0395  1.1637  0.0773
29175SOL    HW289905   5.799   9.893   0.160 -0.8546 -0.0109 -0.4582
29176SOL     OW89906   7.812   1.739   3.188 -0.3467 -0.1055  0.4608
29176SOL    HW189907   7.734   1.685   3.177 -0.2219 -0.0206 -0.9418
29176SOL    HW289908   7.835   1.729   3.281 -3.3594  1.7092  1.5454
29177SOL     OW89909   2.160  10.395   4.821 -0.1845  0.4644  0.6188
29177SOL    HW189910   2.227  10.398   4.890 -0.1088  0.0208  0.5657
29177SOL    HW289911   2.090  10.342   4.858 -0.0501  0.0433  0.2733
29178SOL     OW89912   4.790   2.428   7.250 -0.3956  0.1383  0.3532
29178SOL    HW189913   4.760   2.339   7.268 -0.7028  0.2326  0.3168
29178SOL    HW289914   4.796   2.433   7.154  1.2572 -0.3689  0.3969
29179SOL     OW89915   1.685  10.786   4.992 -0.5118 -0.1177 -0.2341
29179SOL    HW189916   1.712  10.861   5.045 -2.9230  0.7359 -0.0989
29179SOL    HW289917   1.748  10.784   4.920 -0.5804  2.2828 -0.4349
29180SOL     OW89918   4.889   5.804   7.578 -0.5154 -0.4500 -0.5269
29180SOL    HW189919   4.825   5.869   7.547 -0.0680  0.0685 -0.3681
29180SOL    HW289920   4.952   5.855   7.628 -0.0613 -0.9903 -0.5501
29181SOL     OW89921   6.287   6.571   4.373  0.0743 -0.8546  0.2897
29181SOL    HW189922   6.351   6.520   4.422  0.5944 -1.5258 -1.0470
29181SOL    HW289923   6.325   6.581   4.285 -0.5042  0.9112  0.1840
29182SOL     OW89924   5.602   1.693   7.343 -0.0459  0.4125 -0.3129
29182SOL    HW189925   5.600   1.598   7.352  0.5622  0.4500  0.2973
29182SOL    HW289926   5.627   1.708   7.251  0.8989 -0.0316 -0.1394
29183SOL     OW89927   5.614   1.280   6.225 -0.3547 -0.0451 -0.3824
29183SOL    HW189928   5.605   1.303   6.132  0.1456 -2.5652 -1.1320
29183SOL    HW289929   5.528   1.299   6.262 -1.8694 -2.5242 -2.2822
29184SOL     OW89930   2.350   7.742   2.373  0.0850  0.0519 -0.4047
29184SOL    HW189931   2.370   7.775   2.286 -1.4537 -1.8042 -1.5509
29184SOL    HW289932   2.386   7.653   2.374 -0.9792 -0.3906  0.4038
29185SOL     OW89933   7.247   0.176   4.817  0.0108  0.1799  0.1429
29185SOL    HW189934   7.230   0.203   4.907  0.0915  0.1551  0.1651
29185SOL    HW289935   7.201   0.093   4.807  0.3145 -0.0042  0.2737
29186SOL     OW89936  10.689   8.131   1.704 -0.1986  0.5153  0.3398
29186SOL    HW189937  10.642   8.049   1.687  1.9980 -0.4081 -1.9370
29186SOL    HW289938  10.780   8.105   1.713  0.6916  2.7377 -1.2059
29187SOL     OW89939   2.001  10.086   2.345  0.3874 -0.0852 -0.3465
29187SOL    HW189940   1.923  10.095   2.400  0.0436 -1.3687 -0.5926
29187SOL    HW289941   2.071  10.123   2.398  0.1817 -1.8269  1.2821
29188SOL     OW89942   4.227   6.232   3.622  0.0998  0.4088  0.5140
29188SOL    HW189943   4.147   6.255   3.575 -1.8185 -1.8130  2.4035
29188SOL    HW289944   4.209   6.258   3.713  0.9113 -1.3785  1.2328
29189SOL     OW89945  10.263   4.016   6.406  0.2394 -0.2644  0.1243
29189SOL    HW189946  10.273   3.947   6.471 -0.9077 -0.6154 -0.0542
29189SOL    HW289947  10.207   4.081   6.448 -1.2743 -0.9209 -0.8014
29190SOL     OW89948   2.339   5.485   3.892  0.0188  0.3388 -0.8057
29190SOL    HW189949   2.381   5.569   3.874  0.3125  0.6017  0.8571
29190SOL    HW289950   2.365   5.465   3.982 -2.1797 -0.2140 -0.2144
29191SOL     OW89951   1.823   4.854   6.584  0.0820  0.2442  0.2109
29191SOL    HW189952   1.912   4.882   6.562  0.0373 -0.0141 -0.3117
29191SOL    HW289953   1.780   4.934   6.613  0.2099  0.5585 -0.4416
29192SOL     OW89954   1.705   7.158   0.055  0.7170  0.3859  0.3751
29192SOL    HW189955   1.775   7.195   0.002 -0.2021  2.8034  0.7246
29192SOL    HW289956   1.625   7.177   0.006  0.1004 -0.0714  1.1681
29193SOL     OW89957   1.127   8.834   9.358  0.3122 -0.6815 -0.5346
29193SOL    HW189958   1.214   8.873   9.352 -0.5532  1.6661  0.6426
29193SOL    HW289959   1.072   8.889   9.303 -0.8326 -0.6863  0.5482
29194SOL     OW89960  10.335   6.113   4.694  0.0804 -0.1913 -0.7574
29194SOL    HW189961  10.331   6.038   4.635 -0.2677 -0.1318 -0.8111
29194SOL    HW289962  10.244   6.128   4.720 -0.1305  1.3872 -2.2143
29195SOL     OW89963  10.401   1.538   1.886  0.0446  0.3426 -0.7749
29195SOL    HW189964  10.354   1.577   1.813  0.3135  0.3294 -0.9564
29195SOL    HW289965  10.493   1.541   1.860  0.2157  1.0096 -0.1234
29196SOL     OW89966   5.295   9.214   5.423 -1.4087  0.0586 -0.1877
29196SOL    HW189967   5.281   9.119   5.434  1.1502 -0.3822 -0.1486
29196SOL    HW289968   5.319   9.244   5.511  1.3028 -0.0112 -0.8236
29197SOL     OW89969  10.135   6.979   9.110  0.1875  0.3759  0.5339
29197SOL    HW189970  10.196   6.907   9.094 -0.4808 -0.5204  1.7598
29197SOL    HW289971  10.191   7.055   9.123  0.9306  0.0279 -0.4890
29198SOL     OW89972   8.020   1.904   8.635 -0.2413 -0.5990  0.4132
29198SOL    HW189973   7.967   1.891   8.557 -1.3890  0.4094  0.9973
29198SOL    HW289974   7.981   1.846   8.700 -2.4862  2.0822  1.6679
29199SOL     OW89975   8.794   6.430   0.787 -0.0850 -0.5782  0.9705
29199SOL    HW189976   8.828   6.341   0.796 -0.8544 -1.3051 -2.1064
29199SOL    HW289977   8.707   6.427   0.827 -0.0368 -1.1476  1.0335
29200SOL     OW89978  10.305   1.652   6.701  0.0678 -0.1852  0.0662
29200SOL    HW189979  10.221   1.672   6.662 -1.1593 -1.3202  1.9428
29200SOL    HW289980  10.323   1.561   6.676 -0.0884 -0.4844  0.9885
29201SOL     OW89981   7.541   3.145   3.689 -0.2660 -0.1300 -0.1379
29201SOL    HW189982   7.522   3.208   3.759 -0.4502  0.7655 -0.9666
29201SOL    HW289983   7.455   3.119   3.656 -0.2717 -2.0134  1.1756
29202SOL     OW89984   6.245   7.226   5.806  0.6961  0.0306 -0.0943
29202SOL    HW189985   6.221   7.301   5.859 -1.3930 -0.6418  0.0097
29202SOL    HW289986   6.166   7.204   5.758  1.6095 -1.3657 -1.0572
29203SOL     OW89987   9.192   4.677   8.642  0.0117 -0.0972 -0.2635
29203SOL    HW189988   9.214   4.753   8.588 -0.1249 -1.0306 -1.6679
29203SOL    HW289989   9.147   4.715   8.719  0.5069  1.2738 -0.6260
29204SOL     OW89990   7.041   7.019   5.943 -0.3510  0.1790  0.4614
29204SOL    HW189991   6.993   6.948   5.986  0.4374 -0.2093  0.7164
29204SOL    HW289992   6.991   7.036   5.863  0.0792 -1.4718 -0.2031
29205SOL     OW89993   8.210   7.102  10.318 -0.8019  0.2233  0.6815
29205SOL    HW189994   8.125   7.125  10.279 -0.7270  0.8466  0.8806
29205SOL    HW289995   8.253   7.049  10.251 -0.7805  1.0642  0.0094
29206SOL     OW89996   4.147   5.312   6.767  0.1205  0.2114  0.1037
29206SOL    HW189997   4.148   5.321   6.862 -0.2451  1.0892  0.0353
29206SOL    HW289998   4.103   5.391   6.736 -2.5313 -1.4472 -0.6349
29207SOL     OW89999   8.043   8.092  10.420  0.0237 -0.1977 -0.8090
29207SOL    HW190000   8.021   8.109  10.329  0.6955  0.2674 -0.8954
29207SOL    HW290001   7.987   8.151  10.470 -0.3823 -0.4908 -0.9151
29208SOL     OW90002   5.920   9.265   9.106  0.6329 -0.3076  0.0791
29208SOL    HW190003   5.880   9.266   9.193  1.0757  0.5973  0.2871
29208SOL    HW290004   5.973   9.185   9.106 -0.8723 -1.3415 -0.0845
29209SOL     OW90005   8.668  10.370   9.565 -0.0940  0.2396 -0.2146
29209SOL    HW190006   8.603  10.428   9.604  0.3702  0.1372  0.7216
29209SOL    HW290007   8.744  10.426   9.549 -0.0311  0.1270 -0.3133
29210SOL     OW90008   6.672   0.617   7.319 -0.0712  0.3419 -0.4572
29210SOL    HW190009   6.664   0.708   7.290 -1.3590 -0.0653 -1.4415
29210SOL    HW290010   6.585   0.580   7.309  0.3947 -0.9771  0.0750
29211SOL     OW90011  10.399   0.256   3.536 -0.5636  0.2556 -0.2101
29211SOL    HW190012  10.361   0.172   3.508  0.2583  0.2123 -1.2556
29211SOL    HW290013  10.404   0.249   3.631  0.5864 -1.3796 -0.3408
29212SOL     OW90014   2.751   0.945   7.425  0.0365 -0.7242  0.1428
29212SOL    HW190015   2.743   0.859   7.466 -0.1914 -0.3332  0.9312
29212SOL    HW290016   2.725   1.007   7.493 -1.2397 -0.1126 -0.8703
29213SOL     OW90017   0.239   8.074   9.936 -0.1181 -0.2698 -0.6007
29213SOL    HW190018   0.248   8.067   9.841 -0.8902 -0.7201 -0.6580
29213SOL    HW290019   0.244   7.984   9.967  2.7479  0.0334  0.0925
29214SOL     OW90020   4.341   7.533   3.494 -0.2363 -0.6507  0.0440
29214SOL    HW190021   4.414   7.578   3.536 -0.6741  1.1382 -1.0266
29214SOL    HW290022   4.382   7.458   3.450  1.1773  0.8916 -1.4261
29215SOL     OW90023   9.958   6.581   3.570  0.0963 -0.0266  0.5383
29215SOL    HW190024   9.892   6.644   3.539  2.1672  1.6030 -0.8262
29215SOL    HW290025   9.907   6.508   3.604 -2.4310 -0.1530 -3.0563
29216SOL     OW90026   0.894   9.957   6.970  0.6685 -0.3662  0.2921
29216SOL    HW190027   0.843   9.919   7.041 -0.9288 -0.3695 -0.8181
29216SOL    HW290028   0.897  10.051   6.991 -0.5123 -0.2438 -0.0565
29217SOL     OW90029   6.154   5.481   2.346  0.4275  0.0421  0.1868
29217SOL    HW190030   6.105   5.546   2.395  0.2274 -0.5101  0.7294
29217SOL    HW290031   6.209   5.437   2.411  1.9760  0.9269 -0.4761
29218SOL     OW90032   4.073  10.378   3.721  0.0407 -0.0540  0.6618
29218SOL    HW190033   3.981  10.391   3.700  0.6113  3.6888 -0.2231
29218SOL    HW290034   4.075  10.367   3.816 -1.3268 -0.7766  0.6228
29219SOL     OW90035   7.363   8.381  10.773  0.9758 -0.1508  0.4671
29219SOL    HW190036   7.439   8.393  10.830  1.7900  0.3063 -0.6681
29219SOL    HW290037   7.344   8.287  10.778  0.5361  0.0049  2.0698
29220SOL     OW90038   0.141   1.834   2.883  0.4838  0.0879 -0.5042
29220SOL    HW190039   0.068   1.772   2.885  1.8360 -1.5375  0.8701
29220SOL    HW290040   0.134   1.882   2.966  1.3496 -0.5614 -0.0431
29221SOL     OW90041   7.769   3.914   9.370  0.0514 -0.0539  0.4229
29221SOL    HW190042   7.748   3.879   9.457 -3.4762  0.8543  0.1094
29221SOL    HW290043   7.795   4.005   9.386  0.8552 -0.3076  0.6031
29222SOL     OW90044   7.115   2.978   2.021 -0.0108  0.4788 -0.5338
29222SOL    HW190045   7.058   3.024   1.959  1.5368  0.7098 -1.8528
29222SOL    HW290046   7.075   2.892   2.030  0.5275 -0.1273 -3.1368
29223SOL     OW90047   4.651   7.093   9.181  0.7446 -0.3543 -0.6742
29223SOL    HW190048   4.724   7.153   9.165 -0.2422  0.8810 -0.6439
29223SOL    HW290049   4.608   7.128   9.259  0.5845 -1.5471 -0.2113
29224SOL     OW90050   1.596   3.421   4.193  0.0305  0.3329  0.0718
29224SOL    HW190051   1.610   3.499   4.248 -1.2899  0.9772 -0.4699
29224SOL    HW290052   1.527   3.447   4.132  0.8897 -0.6491 -1.3623
29225SOL     OW90053   0.371   7.314   3.386  0.0950 -0.4431  0.1279
29225SOL    HW190054   0.440   7.308   3.452  0.2160 -1.5115 -0.0806
29225SOL    HW290055   0.390   7.243   3.325  0.3214  0.8938 -1.4089
29226SOL     OW90056   1.233   6.273  10.139  0.0156  0.9232 -0.6019
29226SOL    HW190057   1.181   6.352  10.153  0.1796  0.7951  1.0220
29226SOL    HW290058   1.200   6.211  10.205  1.3047  0.3802 -0.4303
29227SOL     OW90059   1.044   4.285  10.718  0.4652  0.6601  0.3181
29227SOL    HW190060   1.030   4.192  10.731  0.0949  0.7103  0.2832
29227SOL    HW290061   0.956   4.322  10.709  0.6206  0.9639  0.0121
29228SOL     OW90062   6.008   4.202   2.144 -0.0908  0.2076  0.5368
29228SOL    HW190063   6.039   4.147   2.216 -1.1307 -0.2959  0.6170
29228SOL    HW290064   5.967   4.140   2.083  0.3346  0.6857 -0.2481
29229SOL     OW90065   2.159   3.214   7.360 -0.1673  0.9239 -0.0955
29229SOL    HW190066   2.148   3.215   7.265  3.4109 -3.6134 -0.8990
29229SOL    HW290067   2.228   3.278   7.377 -0.4266  1.3424 -0.6075
29230SOL     OW90068   6.388   3.135   0.542  0.7502  0.2974  0.5416
29230SOL    HW190069   6.475   3.139   0.582  0.7767  0.2394  0.4904
29230SOL    HW290070   6.327   3.143   0.615  0.7839 -1.0434  0.7462
29231SOL     OW90071   0.332   0.559   8.872 -0.1237 -0.2046  1.1887
29231SOL    HW190072   0.422   0.542   8.901 -0.3693 -0.9228  1.5664
29231SOL    HW290073   0.314   0.648   8.901  0.5258  0.0074  0.9618
29232SOL     OW90074   1.160   1.417   4.740 -0.3071 -0.1091 -0.0803
29232SOL    HW190075   1.200   1.330   4.740 -0.1382 -0.1199 -2.6029
29232SOL    HW290076   1.088   1.410   4.803 -0.2075 -2.0328 -0.0959
29233SOL     OW90077  10.358   7.752   3.342 -0.4180  0.4266 -0.3552
29233SOL    HW190078  10.274   7.712   3.318  0.6418 -1.1014 -1.7727
29233SOL    HW290079  10.419   7.721   3.275  1.2796  1.5583  0.5901
29234SOL     OW90080  10.232   1.382   1.529 -0.5578  0.4577 -0.7442
29234SOL    HW190081  10.159   1.332   1.567  0.4805 -1.2194 -0.8814
29234SOL    HW290082  10.309   1.353   1.577  0.1149  1.9455 -0.8516
29235SOL     OW90083   6.068   8.427   2.637 -0.0950  0.2970  0.4272
29235SOL    HW190084   6.076   8.512   2.592 -2.1807  1.2128  1.6670
29235SOL    HW290085   6.125   8.436   2.714 -2.7323  1.9154  2.3340
29236SOL     OW90086   9.546   3.843   0.161  0.0376 -0.0458 -0.1846
29236SOL    HW190087   9.468   3.897   0.179 -0.3825 -0.7736  0.2004
29236SOL    HW290088   9.531   3.762   0.209 -0.1262 -1.2067 -2.0698
29237SOL     OW90089   2.702   6.989   9.396  0.1275 -0.1355 -0.0726
29237SOL    HW190090   2.688   6.898   9.422 -0.2691  0.0088  0.2246
29237SOL    HW290091   2.780   6.986   9.339 -0.7662 -0.8769 -1.3079
29238SOL     OW90092   4.774   0.927  10.730 -0.3088 -0.0589  0.1202
29238SOL    HW190093   4.769   0.878  10.813 -0.4244  0.4877  0.4394
29238SOL    HW290094   4.760   0.860  10.663 -1.1942 -0.3483  0.5787
29239SOL     OW90095  10.156   7.794   6.540  0.0797 -0.3596 -0.1564
29239SOL    HW190096  10.096   7.760   6.607 -0.9133  1.1178 -0.2570
29239SOL    HW290097  10.193   7.873   6.579  1.5045 -0.8840 -0.3622
29240SOL     OW90098   4.021   3.679   6.633  0.3004 -0.0255  0.3290
29240SOL    HW190099   3.985   3.590   6.635 -2.5108  1.0146  0.3723
29240SOL    HW290100   3.966   3.726   6.572  0.4595  2.1859  1.7692
29241SOL     OW90101  10.156   1.336   6.043  0.2298 -0.1186 -0.3118
29241SOL    HW190102  10.106   1.260   6.013 -1.7503  0.7610  0.5183
29241SOL    HW290103  10.179   1.383   5.964 -0.4511 -0.4663 -0.7263
29242SOL     OW90104   4.744   7.037   1.775 -0.2844 -0.2362  0.4956
29242SOL    HW190105   4.654   7.014   1.751  0.1950 -2.0156  0.2116
29242SOL    HW290106   4.772   6.967   1.835  0.3707  1.2024  1.9439
29243SOL     OW90107   7.554   9.853   8.138  0.5118  0.2397  0.3714
29243SOL    HW190108   7.601   9.887   8.214  1.3727 -0.6288  0.2419
29243SOL    HW290109   7.609   9.781   8.106 -1.3670 -1.4942  0.8152
29244SOL     OW90110   2.854   2.551   5.946  0.1456 -0.1258  0.0138
29244SOL    HW190111   2.945   2.544   5.975 -0.3751 -0.3990  1.7231
29244SOL    HW290112   2.858   2.598   5.864  1.7485  0.8235  0.5949
29245SOL     OW90113   9.798   8.441   7.015 -0.0747  0.0384 -0.2585
29245SOL    HW190114   9.734   8.407   7.079 -1.8455 -0.7453 -2.3319
29245SOL    HW290115   9.868   8.376   7.014  0.4626  0.5265  1.4969
29246SOL     OW90116   6.713   5.639   4.260  0.1169  0.3486  0.1902
29246SOL    HW190117   6.648   5.663   4.194  0.2693 -0.7284 -0.3649
29246SOL    HW290118   6.720   5.544   4.255  0.4461  0.2771  1.4741
29247SOL     OW90119   0.764   7.700   6.576  0.2444 -0.6151  0.2112
29247SOL    HW190120   0.790   7.705   6.484 -0.5590  1.4701  0.0438
29247SOL    HW290121   0.846   7.687   6.623  1.2425  2.0699 -0.5745
29248SOL     OW90122   6.517   5.350   2.258 -0.0178  0.2969 -0.6327
29248SOL    HW190123   6.463   5.429   2.258 -1.2364 -0.5239 -0.2015
29248SOL    HW290124   6.455   5.278   2.264  0.9673 -0.7867 -2.4505
29249SOL     OW90125   8.538   4.508   7.845  0.2030 -0.0869  0.1947
29249SOL    HW190126   8.506   4.501   7.935 -0.4050  1.2508  0.1060
29249SOL    HW290127   8.536   4.602   7.826  1.3974 -0.2398 -0.8375
29250SOL     OW90128  10.058  10.141   7.838 -0.1613 -0.6790  0.1023
29250SOL    HW190129  10.050  10.061   7.890 -0.0127 -0.9503 -0.2872
29250SOL    HW290130  10.110  10.200   7.893  0.2977 -1.0885  0.1168
29251SOL     OW90131   7.341   9.607  10.147  0.6547 -0.0653 -0.2445
29251SOL    HW190132   7.271   9.647  10.097  0.7119  2.0958  1.2912
29251SOL    HW290133   7.297   9.542  10.203  0.1611 -0.0939 -0.6655
29252SOL     OW90134   9.397   7.191   1.124  0.3341  0.3828  0.0985
29252SOL    HW190135   9.454   7.224   1.194  1.5486 -4.0716  1.6007
29252SOL    HW290136   9.310   7.223   1.147  1.2568  2.0150  1.5515
29253SOL     OW90137   3.614  10.066  10.741 -0.3577 -0.0364 -0.2168
29253SOL    HW190138   3.705  10.061  10.771 -0.2546  1.6074 -0.1487
29253SOL    HW290139   3.563  10.028  10.813  0.2577 -0.6903 -0.1237
29254SOL     OW90140   9.512   0.013   4.866 -0.0995  0.4014  0.5840
29254SOL    HW190141   9.418   0.022   4.882 -0.0427  0.7316  0.7429
29254SOL    HW290142   9.546  -0.026   4.946  0.0953  1.5101  1.0604
29255SOL     OW90143   3.383   0.651   3.811  0.8098 -0.0540 -0.3464
29255SOL    HW190144   3.467   0.663   3.768 -0.6627  0.6139 -3.2329
29255SOL    HW290145   3.325   0.715   3.770 -1.7771 -2.2613 -0.4068
29256SOL     OW90146   9.961   3.283   1.829  0.5193  0.3293 -0.5099
29256SOL    HW190147   9.994   3.364   1.868 -0.5721  0.6808 -0.2783
29256SOL    HW290148   9.866   3.292   1.832  0.3946 -0.4158 -1.6361
29257SOL     OW90149   4.374   3.722   1.468  0.0378 -0.1415  0.0414
29257SOL    HW190150   4.286   3.738   1.500  0.7560  0.3886  1.8360
29257SOL    HW290151   4.361   3.670   1.388 -1.8706 -0.1407  0.3074
29258SOL     OW90152   9.970   5.069   6.769 -0.4166 -0.2070 -0.0163
29258SOL    HW190153   9.897   5.122   6.800 -1.3570 -0.9363 -0.9066
29258SOL    HW290154  10.026   5.130   6.721  0.3524  0.6533  1.8421
29259SOL     OW90155   6.533   1.336   9.441  0.5130  0.2295 -0.4326
29259SOL    HW190156   6.514   1.414   9.389  0.5675  1.8847  1.8691
29259SOL    HW290157   6.450   1.288   9.443 -0.3508  1.6803  0.3812
29260SOL     OW90158   3.362   8.093   4.181 -0.4614 -0.0797  0.7782
29260SOL    HW190159   3.385   8.037   4.106  0.7338  1.7035 -0.2382
29260SOL    HW290160   3.268   8.110   4.170  0.0117  1.5214 -1.3342
29261SOL     OW90161   4.049   4.160   2.405  0.3063  0.4465  0.1832
29261SOL    HW190162   3.975   4.148   2.346  1.0865 -0.5587 -0.6327
29261SOL    HW290163   4.011   4.160   2.493 -0.5958 -0.6481 -0.1923
29262SOL     OW90164   4.949  10.300   9.053 -0.0726 -0.3453  0.1813
29262SOL    HW190165   4.997  10.357   8.993  2.7990 -2.8503 -0.1083
29262SOL    HW290166   4.947  10.348   9.135  0.6133  0.9301 -0.5112
29263SOL     OW90167  10.685   8.317   0.596 -0.2064  0.2090  0.1424
29263SOL    HW190168  10.713   8.311   0.505 -0.2040  0.3987  0.1306
29263SOL    HW290169  10.722   8.239   0.638  0.3199  0.4371  0.1184
29264SOL     OW90170   1.415   5.443   0.208  0.2315  0.0824 -0.2106
29264SOL    HW190171   1.345   5.505   0.227 -1.0651 -1.7253  1.3146
29264SOL    HW290172   1.467   5.440   0.289 -0.8927 -2.1763  0.5172
29265SOL     OW90173   1.488   5.507   0.964 -0.3557  0.6922 -0.0601
29265SOL    HW190174   1.417   5.491   1.026 -1.0270  0.4958 -0.8563
29265SOL    HW290175   1.565   5.467   1.004 -0.7556  0.6275  0.6666
29266SOL     OW90176   3.252   0.463   4.282  0.5809  0.0754 -0.1741
29266SOL    HW190177   3.190   0.536   4.278 -0.5017 -0.8557 -1.6196
29266SOL    HW290178   3.255   0.439   4.375 -1.2834  0.1366 -0.0568
29267SOL     OW90179   3.937   5.028   3.441  0.0121  0.3734 -0.1111
29267SOL    HW190180   4.032   5.030   3.434  0.2430  1.2347  2.2915
29267SOL    HW290181   3.908   5.110   3.399  0.3827  0.4789 -0.1620
29268SOL     OW90182   9.058   4.763   0.940 -0.1963 -0.6181  0.5514
29268SOL    HW190183   8.968   4.772   0.973  0.7981 -0.6116  3.5809
29268SOL    HW290184   9.076   4.669   0.947 -0.0637 -0.6700 -0.4008
29269SOL     OW90185   8.279   0.200   1.146  0.1139  0.1409 -0.0965
29269SOL    HW190186   8.291   0.294   1.160  0.2783  0.1585 -0.3468
29269SOL    HW290187   8.284   0.190   1.051  1.7259 -0.3362  0.0127
29270SOL     OW90188   5.373   5.313   1.606 -0.8885 -0.0312 -0.0615
29270SOL    HW190189   5.354   5.223   1.581  0.6706 -0.2138 -0.7144
29270SOL    HW290190   5.439   5.306   1.675  1.9791  0.5370 -2.5036
29271SOL     OW90191   6.003   0.603   1.552  0.6143 -0.6556  0.2431
29271SOL    HW190192   5.982   0.599   1.645  0.3949  0.7984  0.2842
29271SOL    HW290193   5.917   0.605   1.509  0.7092 -1.9074 -0.0492
29272SOL     OW90194   9.929   5.277  10.217  0.4710 -0.2170  0.1516
29272SOL    HW190195  10.016   5.254  10.251  1.4424 -0.7000 -2.4186
29272SOL    HW290196   9.948   5.336  10.144 -1.3333 -0.8209 -0.8454
29273SOL     OW90197   5.640   1.079   1.367 -0.4888  0.6645 -0.4001
29273SOL    HW190198   5.702   1.083   1.295 -0.0773  0.6011 -0.0554
29273SOL    HW290199   5.557   1.053   1.326 -0.4184  1.2756 -0.9357
29274SOL     OW90200   1.518   2.771   8.965  0.2247 -0.0356  0.4866
29274SOL    HW190201   1.506   2.778   9.060 -0.1219 -1.0034  0.5175
29274SOL    HW290202   1.605   2.732   8.955  0.2793  0.1079  0.4027
29275SOL     OW90203   0.559  10.024   2.058  0.1635 -0.1138  0.5503
29275SOL    HW190204   0.529  10.074   2.134 -1.0262 -0.8128  0.5559
29275SOL    HW290205   0.532   9.934   2.076  1.8979 -0.7073  0.3408
29276SOL     OW90206   7.248   4.190   1.894  0.4251  0.2702  0.5429
29276SOL    HW190207   7.208   4.105   1.876  0.8859  0.3503 -1.0078
29276SOL    HW290208   7.329   4.168   1.940  1.8108 -0.3780 -2.0091
29277SOL     OW90209  10.413   9.893   6.396 -0.3583 -0.4341 -0.1084
29277SOL    HW190210  10.396   9.914   6.488 -0.6548  1.8730 -0.6253
29277SOL    HW290211  10.389   9.801   6.388  0.5425 -0.9614  2.3082
29278SOL     OW90212   2.685  10.091   0.258 -0.5871  0.0393  0.2722
29278SOL    HW190213   2.655  10.032   0.190 -0.8692 -1.0680  1.3216
29278SOL    HW290214   2.724  10.165   0.211 -1.7429 -0.1725 -1.0848
29279SOL     OW90215   9.962   9.995   2.616  0.7512  0.9416  0.7154
29279SOL    HW190216   9.913  10.021   2.538 -0.4047 -0.4247  0.9272
29279SOL    HW290217   9.898  10.004   2.687  1.8109  2.2490  1.5305
29280SOL     OW90218   7.023   2.917   9.099  0.6257  0.3652  1.2001
29280SOL    HW190219   7.062   2.993   9.056  0.6048 -0.2293  0.0927
29280SOL    HW290220   7.098   2.872   9.139  0.5274  1.4497  2.6978
29281SOL     OW90221   1.612   4.534   2.806 -0.4084  0.0007 -0.0428
29281SOL    HW190222   1.643   4.505   2.892  1.4512  1.9125  0.0160
29281SOL    HW290223   1.540   4.474   2.785  1.7730 -3.2573  0.9474
29282SOL     OW90224   8.117   1.339   9.504  0.1362 -0.5369  0.1235
29282SOL    HW190225   8.171   1.414   9.528 -0.8037  0.2574 -0.1682
29282SOL    HW290226   8.063   1.321   9.581 -0.4881 -0.1346 -0.2099
29283SOL     OW90227   1.875   3.831   8.808 -0.1864 -0.3922 -0.0723
29283SOL    HW190228   1.848   3.784   8.887 -1.2129 -0.6726 -0.5676
29283SOL    HW290229   1.817   3.796   8.740  0.6278 -0.0932 -0.9246
29284SOL     OW90230   2.867   9.055   0.717 -0.5352  0.1193  0.5600
29284SOL    HW190231   2.955   9.055   0.680 -0.4581  0.0126  0.7438
29284SOL    HW290232   2.862   8.973   0.766 -1.0167 -0.2704 -0.1110
29285SOL     OW90233   9.320   8.137   5.957 -0.5810 -0.2701 -0.1760
29285SOL    HW190234   9.335   8.102   5.869 -0.8320  0.7342 -0.6337
29285SOL    HW290235   9.380   8.211   5.964 -1.7579  0.7212 -0.1634
29286SOL     OW90236   3.452   5.658   7.163  0.1161 -0.3961  0.1755
29286SOL    HW190237   3.403   5.674   7.082 -0.6973  0.2250  0.7862
29286SOL    HW290238   3.441   5.738   7.214  4.9294  1.5066 -1.2049
29287SOL     OW90239   9.714   9.356  10.059  0.3683 -0.4656 -0.1299
29287SOL    HW190240   9.743   9.297   9.989  2.4846 -1.9374  1.8347
29287SOL    HW290241   9.693   9.299  10.132  0.7089  1.0963  1.2728
29288SOL     OW90242   9.809   3.247   7.738 -0.6477 -0.1668  0.1086
29288SOL    HW190243   9.883   3.282   7.787 -0.7392  0.8973 -0.4682
29288SOL    HW290244   9.812   3.153   7.752  1.0399 -0.1922 -0.2144
29289SOL     OW90245   7.709   7.183   3.057 -0.0212 -0.1278 -0.4860
29289SOL    HW190246   7.700   7.243   2.982 -1.9081  0.9745  0.5436
29289SOL    HW290247   7.627   7.134   3.057 -0.3458  0.3719  1.2401
29290SOL     OW90248   5.101   8.418   1.114 -0.0366  0.5190 -0.2922
29290SOL    HW190249   5.175   8.478   1.108 -0.3645  0.8871 -0.6578
29290SOL    HW290250   5.069   8.429   1.204  0.0082  0.7648 -0.3049
29291SOL     OW90251   0.834   6.536   5.702 -0.7559 -0.1372 -0.1377
29291SOL    HW190252   0.903   6.500   5.647  0.2368  0.4264  0.6684
29291SOL    HW290253   0.845   6.491   5.786 -0.2534  1.1426  0.5143
29292SOL     OW90254   3.419   2.672   8.909  0.2026  0.3573  0.1891
29292SOL    HW190255   3.425   2.689   8.815  0.8932 -2.8844 -0.4760
29292SOL    HW290256   3.507   2.644   8.934 -0.3777 -0.5138  1.3697
29293SOL     OW90257   7.951   4.894   5.312 -0.0841 -0.2340  0.1590
29293SOL    HW190258   7.945   4.959   5.382 -0.1703 -0.5955  0.4909
29293SOL    HW290259   7.885   4.920   5.248 -0.2189 -0.0798  0.3615
29294SOL     OW90260   2.460   2.622  10.386 -0.0648  0.1160 -0.4317
29294SOL    HW190261   2.397   2.686  10.353  0.5541  0.6889 -0.5243
29294SOL    HW290262   2.428   2.537  10.353 -0.5240  0.4511 -0.8621
29295SOL     OW90263   0.838   5.093   5.955 -0.1757  0.3474  0.5738
29295SOL    HW190264   0.815   5.106   6.047 -1.2347  0.3227  0.3277
29295SOL    HW290265   0.761   5.124   5.907  0.2158  0.0058 -0.2881
29296SOL     OW90266   0.530   3.673   2.383 -0.0314 -0.0242  0.2683
29296SOL    HW190267   0.572   3.700   2.301 -1.0972 -0.2837 -0.3866
29296SOL    HW290268   0.464   3.610   2.355  0.4517 -1.1081  1.4720
29297SOL     OW90269   7.204  10.248  10.787  0.6838 -0.1105  0.1400
29297SOL    HW190270   7.121  10.200  10.786  1.2149 -1.1210  1.9059
29297SOL    HW290271   7.197  10.306  10.863  0.6932  1.5164 -1.0477
29298SOL     OW90272   0.582   2.541   2.157 -0.3698  0.2216  0.4953
29298SOL    HW190273   0.645   2.477   2.190  1.2975  0.6036 -1.6756
29298SOL    HW290274   0.498   2.497   2.162  0.6179 -1.8725 -0.2070
29299SOL     OW90275  10.245   8.302   6.112  1.0147  0.1650 -0.5448
29299SOL    HW190276  10.240   8.216   6.154  3.5741 -0.0588 -0.5221
29299SOL    HW290277  10.193   8.293   6.032  0.0307 -0.9078  0.1716
29300SOL     OW90278   8.153   5.046   8.426  0.2589 -0.4096  0.1543
29300SOL    HW190279   8.162   5.135   8.459 -1.8617 -0.4569  1.0249
29300SOL    HW290280   8.186   4.990   8.496 -2.5917 -0.4308  1.6248
29301SOL     OW90281   8.184   7.132   8.510  0.3662 -0.5862 -0.4173
29301SOL    HW190282   8.190   7.099   8.599 -0.9376  0.6263  0.1559
29301SOL    HW290283   8.210   7.224   8.516 -0.1550 -0.3760 -1.2010
29302SOL     OW90284   1.176   9.244   6.247 -0.3445 -0.2767  0.0176
29302SOL    HW190285   1.262   9.246   6.288 -0.9537  1.8944  1.3547
29302SOL    HW290286   1.195   9.241   6.153  1.2168  0.4370  0.2710
29303SOL     OW90287   1.628   5.561   6.911  0.2640 -0.3424 -0.1187
29303SOL    HW190288   1.609   5.561   6.817 -0.8793  0.5781  0.0970
29303SOL    HW290289   1.548   5.592   6.952  0.7147 -0.8311  1.1851
29304SOL     OW90290   5.181   8.665   2.489  0.1067  0.1271  0.1279
29304SOL    HW190291   5.246   8.699   2.551  1.9723 -0.7318 -1.2592
29304SOL    HW290292   5.122   8.739   2.472  0.0497  0.6130  2.2400
29305SOL     OW90293   9.058   3.410   0.222  0.2383  0.1994 -0.2089
29305SOL    HW190294   8.967   3.439   0.224  0.1862  0.1983 -1.6183
29305SOL    HW290295   9.104   3.476   0.171  0.6273 -0.8027 -1.1987
29306SOL     OW90296   1.872   3.013   0.704 -0.4967 -0.3186 -0.1572
29306SOL    HW190297   1.891   2.948   0.637  0.0311 -0.5362  0.1986
29306SOL    HW290298   1.957   3.032   0.744 -0.8117 -0.2212  0.4739
29307SOL     OW90299   8.516   1.789   7.689 -0.3424 -0.3378 -0.0643
29307SOL    HW190300   8.446   1.739   7.648  0.8968 -1.1950 -1.2109
29307SOL    HW290301   8.557   1.838   7.617 -0.5809  1.2084  0.7921
29308SOL     OW90302   0.799   5.735   9.493 -0.3403 -0.2438 -0.0093
29308SOL    HW190303   0.770   5.668   9.431 -1.0627 -1.8903  1.9849
29308SOL    HW290304   0.863   5.690   9.548 -2.1724  0.0369  2.5341
29309SOL     OW90305   3.920  10.286   8.640  0.4707 -0.9009 -0.2994
29309SOL    HW190306   3.947  10.345   8.570  0.0013  1.1028  1.1104
29309SOL    HW290307   3.981  10.303   8.711 -1.2494 -0.1221  1.0717
29310SOL     OW90308   9.353   2.120   5.870 -0.2539  0.2201  0.2435
29310SOL    HW190309   9.338   2.185   5.939  1.6608  1.0229 -0.0165
29310SOL    HW290310   9.279   2.128   5.811 -0.5791  1.4157  0.8004
29311SOL     OW90311   3.360   1.530   5.860 -0.2235  0.3793 -0.0467
29311SOL    HW190312   3.339   1.623   5.867 -0.3349  0.3806 -0.4021
29311SOL    HW290313   3.350   1.509   5.767  1.2998  0.3539 -0.2166
29312SOL     OW90314   1.383   8.950   4.671  0.3283  0.2220  0.0130
29312SOL    HW190315   1.308   8.954   4.611  0.8082  1.9222 -0.5401
29312SOL    HW290316   1.415   8.860   4.664 -0.8086 -0.1352 -0.8176
29313SOL     OW90317   1.209   7.405   2.577 -0.1695  0.2936 -0.1763
29313SOL    HW190318   1.125   7.361   2.566  0.0099 -0.3965  1.0398
29313SOL    HW290319   1.188   7.498   2.574 -0.6895  0.1537 -1.8426
29314SOL     OW90320   0.340   9.999   8.851  0.5798 -0.2507  0.1368
29314SOL    HW190321   0.306   9.968   8.767  1.6640 -0.9218 -0.0812
29314SOL    HW290322   0.435   9.987   8.844  0.8713  1.4196  0.7571
29315SOL     OW90323   2.715   6.372   3.244 -0.2493  0.0836 -0.5690
29315SOL    HW190324   2.708   6.325   3.327 -1.3586  0.0716 -0.6559
29315SOL    HW290325   2.682   6.311   3.179 -0.4775  0.5142 -0.8612
29316SOL     OW90326   4.495   2.315   9.784  0.5930 -0.1528  0.4482
29316SOL    HW190327   4.589   2.302   9.797  0.9718 -3.3518 -3.3463
29316SOL    HW290328   4.489   2.382   9.716  0.3043 -1.1846 -0.5739
29317SOL     OW90329   3.932   7.725   4.151 -0.2230 -0.5254  0.5468
29317SOL    HW190330   4.021   7.730   4.186 -0.0854  0.1415  0.1202
29317SOL    HW290331   3.943   7.685   4.065 -0.3774 -0.7508  0.6315
29318SOL     OW90332   8.688  10.001   3.024  0.4741  0.2476  0.2345
29318SOL    HW190333   8.702  10.047   3.107  3.0463  0.4639 -0.2260
29318SOL    HW290334   8.700  10.067   2.957 -0.7514 -0.1100 -0.3709
29319SOL     OW90335   1.049   4.425   4.468 -0.2093  0.3826  0.0463
29319SOL    HW190336   1.065   4.361   4.399  0.3834  0.7384 -0.1610
29319SOL    HW290337   0.973   4.474   4.438  0.8478  1.4288 -1.0485
29320SOL     OW90338   6.895   7.937   4.263  0.4993  0.6805  0.3998
29320SOL    HW190339   6.980   7.980   4.278  0.8045  0.1630  0.1773
29320SOL    HW290340   6.858   7.927   4.351  0.7495  0.7516  0.5156
29321SOL     OW90341   7.315   4.321   1.637 -0.3240 -0.2639 -0.5117
29321SOL    HW190342   7.295   4.277   1.720 -0.0631 -2.5977 -1.5930
29321SOL    HW290343   7.230   4.337   1.597 -0.4654  1.1627  0.3110
29322SOL     OW90344   8.900   3.418   3.457 -0.2078 -0.6724 -0.2146
29322SOL    HW190345   8.972   3.440   3.516  0.4499 -2.1955 -0.4135
29322SOL    HW290346   8.921   3.331   3.425 -0.8239 -0.1037 -2.2931
29323SOL     OW90347   8.280   3.457   2.101 -0.4515  0.1639 -0.1222
29323SOL    HW190348   8.327   3.420   2.026  1.1466 -0.1455  0.9769
29323SOL    HW290349   8.339   3.445   2.175 -1.9932  0.4322  1.2202
29324SOL     OW90350   9.318   6.060   1.106  0.1890  0.4350 -0.2947
29324SOL    HW190351   9.270   6.034   1.028  1.3555 -0.5199 -0.7135
29324SOL    HW290352   9.260   6.123   1.150 -1.1467 -0.1914 -1.1058
29325SOL     OW90353   1.617   7.420   2.806 -0.3414  0.0302 -0.1210
29325SOL    HW190354   1.694   7.423   2.862 -0.8084  2.7330  0.5337
29325SOL    HW290355   1.651   7.416   2.717  0.4417 -2.0175  0.2246
29326SOL     OW90356   3.927   0.758   3.075  0.2401  0.2682  0.1714
29326SOL    HW190357   4.008   0.808   3.083 -1.1880  2.5851  0.8320
29326SOL    HW290358   3.899   0.743   3.166 -0.9530  1.0588 -0.0417
29327SOL     OW90359   9.012   0.384   9.269 -0.0525  0.5421 -0.1733
29327SOL    HW190360   9.023   0.292   9.243 -0.6513  0.4712 -0.1834
29327SOL    HW290361   9.101   0.420   9.265  0.4354 -0.4196  1.3070
29328SOL     OW90362   4.785   8.677   6.468 -0.6138  0.0060 -0.4544
29328SOL    HW190363   4.874   8.660   6.499 -0.8329  1.6328  1.3020
29328SOL    HW290364   4.776   8.624   6.389  0.6960 -2.9208  1.2152
29329SOL     OW90365   3.993   3.875   8.217  0.2878  0.1651 -0.2541
29329SOL    HW190366   3.991   3.830   8.302 -0.0909 -0.5464 -0.6379
29329SOL    HW290367   3.915   3.931   8.217  0.4805  0.4372  0.0101
29330SOL     OW90368  10.481   3.245   8.195  1.0128  0.1591 -0.1059
29330SOL    HW190369  10.435   3.329   8.193 -3.1747 -1.8457  1.0811
29330SOL    HW290370  10.464   3.207   8.109  1.6962 -0.1180 -0.1291
29331SOL     OW90371   1.666   9.891   8.540  0.0104  0.8562  0.3678
29331SOL    HW190372   1.647   9.871   8.631 -0.7191  1.6997  0.4161
29331SOL    HW290373   1.581   9.918   8.503  0.5465  1.8010 -0.2141
29332SOL     OW90374  10.443   9.457   4.212  0.2450 -0.3579  0.3300
29332SOL    HW190375  10.478   9.374   4.242 -0.5257 -0.7019  0.3130
29332SOL    HW290376  10.471   9.465   4.121 -0.3774 -1.0110  0.0684
29333SOL     OW90377   8.755   7.787   3.769 -0.3422 -0.0249 -0.2260
29333SOL    HW190378   8.809   7.842   3.713 -0.9001  0.5407 -0.2241
29333SOL    HW290379   8.796   7.701   3.766  1.5516  0.7580  1.1169
29334SOL     OW90380   9.102   3.651  10.529 -0.8813  0.0511 -0.2279
29334SOL    HW190381   9.095   3.643  10.624 -1.7809 -1.1530 -0.3690
29334SOL    HW290382   9.029   3.708  10.505 -0.4888  0.5829 -0.1856
29335SOL     OW90383   2.470   9.423   8.921 -0.2591 -0.4903  0.2353
29335SOL    HW190384   2.401   9.378   8.969 -0.5709 -0.0118  0.2496
29335SOL    HW290385   2.514   9.476   8.988  0.6567 -1.4162  0.3837
29336SOL     OW90386   3.962   8.909   0.212  0.2682  0.3355 -0.2283
29336SOL    HW190387   3.876   8.876   0.187  0.7823 -1.9052  0.7256
29336SOL    HW290388   3.943   8.988   0.263 -1.3771 -1.0848  1.4937
29337SOL     OW90389   8.632   4.715   9.595  0.0779  0.3883  0.0138
29337SOL    HW190390   8.548   4.755   9.617 -1.7682 -2.4042 -1.3223
29337SOL    HW290391   8.620   4.622   9.615  2.3026 -0.3697 -1.7082
29338SOL     OW90392  10.071   4.444   1.096  0.2505  0.4809  0.2937
29338SOL    HW190393  10.167   4.451   1.104  0.5565  0.2242 -2.2717
29338SOL    HW290394  10.039   4.451   1.185  2.4631  3.6258  1.0153
29339SOL     OW90395   9.213   9.162  10.030 -0.2783  0.4049  0.0651
29339SOL    HW190396   9.205   9.249  10.070 -1.9048 -0.4359  1.7238
29339SOL    HW290397   9.265   9.112  10.093 -1.9604 -0.6434  0.6843
29340SOL     OW90398   3.916   1.187   4.189  0.1379  0.7177 -0.1429
29340SOL    HW190399   4.001   1.150   4.167  0.4003  0.4582  1.2027
29340SOL    HW290400   3.923   1.279   4.163  0.2561  0.3558 -1.4740
29341SOL     OW90401   5.664   3.379   8.328 -0.1923  0.2600  0.2407
29341SOL    HW190402   5.599   3.314   8.302 -1.2515  1.2885  0.2914
29341SOL    HW290403   5.630   3.462   8.296  2.2358  0.5717 -1.8545
29342SOL     OW90404   7.704   8.603   6.947 -0.1712  0.5526 -0.3928
29342SOL    HW190405   7.650   8.647   7.012 -0.0572  1.7880 -1.1100
29342SOL    HW290406   7.642   8.551   6.896 -0.2179 -0.6865  0.8799
29343SOL     OW90407   9.383   6.861   2.551 -0.3193  0.1352 -0.1824
29343SOL    HW190408   9.380   6.867   2.455 -1.6026 -0.8168 -0.2229
29343SOL    HW290409   9.382   6.768   2.569  1.1716  0.2722  0.7604
29344SOL     OW90410   1.567  10.012   2.871 -0.2092  0.1753  0.0377
29344SOL    HW190411   1.492  10.055   2.829  1.0461  0.6618 -1.8650
29344SOL    HW290412   1.641  10.036   2.816  1.1993 -1.0978  1.3027
29345SOL     OW90413   6.357   8.976   4.572 -0.0951 -0.1692 -0.5506
29345SOL    HW190414   6.433   8.951   4.625  0.1325 -0.7844 -1.1593
29345SOL    HW290415   6.284   8.977   4.635  0.3892  0.3472  0.0219
29346SOL     OW90416   7.790   7.685   1.067  0.0324  0.1463  0.2763
29346SOL    HW190417   7.777   7.728   1.151 -1.0136 -1.3011  0.9114
29346SOL    HW290418   7.826   7.599   1.089  0.9277  0.1997 -0.8522
29347SOL     OW90419   9.247   8.787   1.239 -0.0863  0.3647  0.3770
29347SOL    HW190420   9.163   8.813   1.201 -0.6786 -0.2917  1.1764
29347SOL    HW290421   9.308   8.789   1.166 -0.6669  1.4161 -0.1040
29348SOL     OW90422   2.840   8.988   9.591 -0.5297  0.2770  0.0845
29348SOL    HW190423   2.887   9.040   9.526  0.7722 -0.1560  0.6519
29348SOL    HW290424   2.747   9.002   9.570 -0.1649  1.1401 -1.0672
29349SOL     OW90425   7.192   2.991   1.469 -0.8428 -0.2692  0.0227
29349SOL    HW190426   7.103   2.991   1.504 -0.3702 -1.1323  1.2839
29349SOL    HW290427   7.216   2.899   1.462 -0.6608 -0.1121 -1.9994
29350SOL     OW90428   9.878   3.614   6.121 -0.2541  0.0581 -0.5731
29350SOL    HW190429   9.903   3.704   6.143 -1.8783  0.6923 -1.2465
29350SOL    HW290430   9.784   3.617   6.108 -0.2770 -1.6676 -1.0591
29351SOL     OW90431   2.313  10.094   4.216 -0.3439  0.6891  0.3228
29351SOL    HW190432   2.375  10.166   4.225 -0.2452  0.4082  2.1601
29351SOL    HW290433   2.236  10.123   4.265 -0.5930 -0.1569  0.4366
29352SOL     OW90434   2.903   4.427   9.648 -0.2392  0.2007 -0.4734
29352SOL    HW190435   2.937   4.413   9.737  0.0540 -1.0992 -0.7699
29352SOL    HW290436   2.981   4.425   9.592 -0.4256  0.9731 -0.7675
29353SOL     OW90437   2.371   9.034   9.134 -0.4044 -0.0409 -0.3368
29353SOL    HW190438   2.347   9.123   9.108  1.8277  0.0196 -2.5445
29353SOL    HW290439   2.444   9.011   9.077  1.7931 -1.8116  2.8583
29354SOL     OW90440   4.826   0.277   1.609  0.2368 -0.5067  0.0102
29354SOL    HW190441   4.794   0.365   1.590  0.6059 -0.4654 -0.4284
29354SOL    HW290442   4.915   0.275   1.575  1.6453  0.1296  3.2843
29355SOL     OW90443   9.630   0.228   0.438  0.6958  0.3859 -0.4780
29355SOL    HW190444   9.650   0.302   0.380  2.0175  0.5938  0.2114
29355SOL    HW290445   9.670   0.152   0.396 -0.2899  0.1243 -0.9656
29356SOL     OW90446   0.674   4.570   9.778  0.0505 -0.1168 -0.1362
29356SOL    HW190447   0.708   4.504   9.718  1.7496 -0.3225  1.0039
29356SOL    HW290448   0.694   4.537   9.865  1.9370  2.3458  0.4750
29357SOL     OW90449   5.197   4.042   8.339 -0.3206  0.3612 -0.1249
29357SOL    HW190450   5.274   4.085   8.303  0.3586 -0.0877  0.7385
29357SOL    HW290451   5.230   3.991   8.414 -1.5996  1.0027  0.9297
29358SOL     OW90452   9.261   9.837   9.131 -0.7923 -0.2166 -0.4717
29358SOL    HW190453   9.183   9.852   9.185 -1.2763 -0.4979 -1.0701
29358SOL    HW290454   9.247   9.891   9.053  0.3989  1.0186  0.1359
29359SOL     OW90455   7.309   0.210   8.763 -0.0580  0.0761  0.7638
29359SOL    HW190456   7.369   0.263   8.815  0.8050  0.3262 -0.4564
29359SOL    HW290457   7.297   0.130   8.815 -0.0523  0.7435  1.8268
29360SOL     OW90458   6.664  10.487   0.331  0.2784 -0.1175  0.3263
29360SOL    HW190459   6.732  10.550   0.356  0.3281  1.3198 -2.9074
29360SOL    HW290460   6.595  10.541   0.293 -0.6377 -1.8746 -0.6067
29361SOL     OW90461   2.720   7.934   4.913 -0.1888  0.3574 -0.2309
29361SOL    HW190462   2.712   7.842   4.889 -1.8562  0.1038  1.1193
29361SOL    HW290463   2.776   7.972   4.845  0.4546 -1.6130 -0.8610
29362SOL     OW90464   0.793   2.656  10.236  0.4263  0.0934 -0.8846
29362SOL    HW190465   0.783   2.731  10.176  1.2818 -0.1845 -1.3883
29362SOL    HW290466   0.882   2.625  10.221  1.0308  0.6218  1.2626
29363SOL     OW90467   7.224   3.467   5.353 -0.0095 -0.4526  0.3684
29363SOL    HW190468   7.253   3.390   5.305 -0.1179  0.7064 -1.6941
29363SOL    HW290469   7.183   3.522   5.287 -2.4566  0.1794  2.2537
29364SOL     OW90470  10.769   4.409   2.505 -0.7263 -0.0140 -0.2540
29364SOL    HW190471  10.721   4.388   2.585 -1.5533 -0.4965 -0.8581
29364SOL    HW290472  10.703   4.403   2.435  0.4005 -1.7390 -1.2459
29365SOL     OW90473   1.056   9.112   2.462  0.1541 -0.3052  0.1490
29365SOL    HW190474   1.124   9.052   2.431  2.8030  1.5917  1.8680
29365SOL    HW290475   1.035   9.165   2.386  0.7060 -0.8035 -0.3635
29366SOL     OW90476   6.820   5.970   6.172  0.3486  0.3592  0.1469
29366SOL    HW190477   6.824   5.945   6.080 -0.9940  1.9213 -0.4009
29366SOL    HW290478   6.830   6.065   6.171 -0.7831  0.5272  1.4907
29367SOL     OW90479   9.718   4.913   0.873 -0.4901 -0.7059 -0.3517
29367SOL    HW190480   9.809   4.933   0.894 -0.6891  0.9095 -0.9321
29367SOL    HW290481   9.721   4.880   0.784 -0.4748 -0.7417 -0.3384
29368SOL     OW90482   9.250   7.934   1.532  0.6660  0.1925 -0.4204
29368SOL    HW190483   9.180   7.870   1.546  0.5262  0.6152  1.0606
29368SOL    HW290484   9.205   8.015   1.512  0.8113  0.0388 -1.3943
29369SOL     OW90485   1.336   0.892   4.601 -0.8807 -0.6370 -0.3122
29369SOL    HW190486   1.260   0.950   4.604 -1.2478 -1.1556  0.6449
29369SOL    HW290487   1.346   0.872   4.508 -2.8192 -1.7176 -0.3535
29370SOL     OW90488  10.528   7.280   0.887  0.4803  0.1074  0.1380
29370SOL    HW190489  10.440   7.259   0.918  0.3973  0.3489  0.0680
29370SOL    HW290490  10.524   7.372   0.863  0.1983 -0.3625 -1.7584
29371SOL     OW90491   9.766   9.115  10.726 -0.3402  0.3205  0.4970
29371SOL    HW190492   9.723   9.060  10.661 -0.5179  0.6051  0.3702
29371SOL    HW290493   9.833   9.163  10.677 -2.9734  3.4660 -0.3786
29372SOL     OW90494   7.783   7.257   1.469 -0.2815 -0.0405 -0.2336
29372SOL    HW190495   7.766   7.198   1.396  0.1186  0.1902 -0.5190
29372SOL    HW290496   7.847   7.211   1.523 -1.4400 -0.7078  0.5909
29373SOL     OW90497   3.669   3.914  10.270  0.1711  0.5030  0.0717
29373SOL    HW190498   3.643   3.959  10.350 -0.8444  0.6550 -0.3257
29373SOL    HW290499   3.686   3.984  10.207 -1.1167  0.3582 -0.4591
29374SOL     OW90500   6.202   7.793   5.628  0.2397  0.1069  0.4798
29374SOL    HW190501   6.177   7.882   5.604 -0.0229  0.2853  1.3759
29374SOL    HW290502   6.293   7.800   5.655  0.1479  0.1540  0.7830
29375SOL     OW90503   1.806   8.913   4.946 -0.0339  0.1037  0.0309
29375SOL    HW190504   1.863   8.979   4.985 -1.5933  1.1454  0.6489
29375SOL    HW290505   1.718   8.940   4.970 -0.7360 -2.3345  0.5183
29376SOL     OW90506   9.306   0.038   7.793 -1.0135  0.6647 -0.3888
29376SOL    HW190507   9.252   0.113   7.817 -0.4584  1.2267 -0.8704
29376SOL    HW290508   9.392   0.058   7.830 -1.4640 -0.9176  1.6981
29377SOL     OW90509   8.050   3.888   0.982  0.5742 -0.8188  0.3122
29377SOL    HW190510   8.022   3.920   1.068 -0.9804  0.2197 -0.5190
29377SOL    HW290511   8.095   3.806   1.000 -0.0707 -0.8234  2.0817
29378SOL     OW90512   4.937   8.917   9.499 -0.3876  0.4882  0.0475
29378SOL    HW190513   4.875   8.913   9.572 -0.8811  2.1048 -0.2317
29378SOL    HW290514   4.884   8.950   9.425  0.7729  1.9524 -0.1833
29379SOL     OW90515   5.606  10.641   6.525  0.2291 -0.2431 -0.3582
29379SOL    HW190516   5.670  10.651   6.454 -0.2952  1.7320 -0.6194
29379SOL    HW290517   5.535  10.590   6.487 -0.3358  1.3314 -1.5209
29380SOL     OW90518   1.988   2.564   1.359  0.6092 -0.0796  0.1087
29380SOL    HW190519   1.900   2.561   1.321  0.2235 -0.5318  0.9926
29380SOL    HW290520   2.037   2.496   1.312 -0.1486 -1.3428  1.0457
29381SOL     OW90521   3.516   8.505   3.713 -0.0427  0.1220  0.2284
29381SOL    HW190522   3.551   8.512   3.802 -0.8852 -1.2184  0.7006
29381SOL    HW290523   3.428   8.469   3.724 -0.3922  0.4909 -1.1181
29382SOL     OW90524   1.826   5.082  10.708  0.2463  0.8436  0.1529
29382SOL    HW190525   1.768   5.062  10.635  0.2932 -1.4455  0.6700
29382SOL    HW290526   1.770   5.082  10.785  0.6506  0.3604  0.4520
29383SOL     OW90527   8.913   5.514   4.415  0.0759 -0.0303 -0.1808
29383SOL    HW190528   8.861   5.504   4.495  1.9396  0.0320  1.1014
29383SOL    HW290529   8.951   5.602   4.422  1.2512 -0.4962 -0.5132
29384SOL     OW90530   3.362   9.896  10.358 -0.3349  0.1704 -0.0169
29384SOL    HW190531   3.318   9.906  10.442  1.7383 -0.4509  1.2219
29384SOL    HW290532   3.294   9.866  10.298 -1.8120  0.3550  1.4915
29385SOL     OW90533   4.838   9.073   8.504  0.1365  0.3706 -0.4443
29385SOL    HW190534   4.875   9.052   8.590 -2.4139 -4.0137 -0.1570
29385SOL    HW290535   4.763   9.129   8.525  0.5077  0.7174 -0.0032
29386SOL     OW90536   5.011   5.413   7.546 -0.1469 -0.1246 -0.7583
29386SOL    HW190537   4.968   5.454   7.471 -0.4486 -0.9875 -1.0703
29386SOL    HW290538   4.944   5.355   7.584  0.2543 -0.3055 -0.3057
29387SOL     OW90539   4.292   7.899   9.035  1.0172 -0.3660  0.0129
29387SOL    HW190540   4.336   7.919   8.952 -0.2957 -1.3425 -0.9831
29387SOL    HW290541   4.230   7.971   9.047  0.5065 -0.7193 -0.4128
29388SOL     OW90542   9.435   6.525   3.001 -0.0148 -0.3506 -0.1135
29388SOL    HW190543   9.350   6.567   2.987 -1.1050 -2.1570  0.7464
29388SOL    HW290544   9.496   6.597   3.009 -1.5610  1.0212 -0.1495
29389SOL     OW90545   7.025   9.389   6.715 -0.0074 -0.4100  0.2903
29389SOL    HW190546   7.009   9.465   6.659 -0.1814 -0.3872  0.3714
29389SOL    HW290547   7.119   9.391   6.732  0.1907 -0.8684 -0.6625
29390SOL     OW90548   9.596  10.385   9.349 -0.9195  0.2564  0.2719
29390SOL    HW190549   9.523  10.324   9.361 -1.3737  0.7863  0.2499
29390SOL    HW290550   9.563  10.451   9.288 -0.0047 -0.1685 -0.6951
29391SOL     OW90551   0.404   8.951   3.521 -0.4323  0.1086  0.4813
29391SOL    HW190552   0.329   8.993   3.562  0.5911  1.0797  1.4118
29391SOL    HW290553   0.479   9.001   3.551  0.5810 -0.6921 -0.6229
29392SOL     OW90554   1.111   8.956   8.908  0.0725 -0.3013 -0.3291
29392SOL    HW190555   1.112   9.051   8.921  1.1184 -0.4108  0.6004
29392SOL    HW290556   1.191   8.939   8.858 -0.5884 -0.6125 -1.3090
29393SOL     OW90557  10.702   8.363   6.183 -0.1787 -0.1733 -0.5929
29393SOL    HW190558  10.678   8.366   6.090  1.1967  1.2789 -0.9519
29393SOL    HW290559  10.795   8.338   6.182  0.1924  1.0896  0.3018
29394SOL     OW90560  10.639   0.639   5.434 -0.0949 -0.1191 -0.1277
29394SOL    HW190561  10.598   0.719   5.466  0.4042 -0.6585  1.9977
29394SOL    HW290562  10.719   0.670   5.391 -0.3912  0.5905 -0.1937
29395SOL     OW90563   0.740   2.514   3.861  0.0614 -0.4477 -0.7196
29395SOL    HW190564   0.779   2.439   3.817 -1.4812 -2.3479  0.9366
29395SOL    HW290565   0.647   2.512   3.836 -0.1457  0.4992 -0.1229
29396SOL     OW90566   5.507   6.587   7.199 -0.5028 -0.1978 -0.2402
29396SOL    HW190567   5.540   6.676   7.210 -0.0531 -0.4066  0.1372
29396SOL    HW290568   5.584   6.536   7.174 -0.6271 -0.5975  0.1714
29397SOL     OW90569   0.342   9.809   9.359 -0.1945 -0.3828 -0.1186
29397SOL    HW190570   0.412   9.771   9.307 -1.0455 -0.7508 -1.0153
29397SOL    HW290571   0.349   9.766   9.444  1.0130  0.0015  0.0031
29398SOL     OW90572  10.390   0.424   6.445  0.3650 -0.1213 -0.0286
29398SOL    HW190573  10.426   0.478   6.375  0.2775  0.2012  0.1745
29398SOL    HW290574  10.300   0.455   6.457  0.9577  1.1275  1.5138
29399SOL     OW90575   4.336   4.479   4.129 -0.0120 -0.1813  0.8261
29399SOL    HW190576   4.409   4.417   4.140  0.4128  0.4407  1.5880
29399SOL    HW290577   4.326   4.520   4.215 -1.9102 -0.9437  1.0295
29400SOL     OW90578   9.387   0.200   2.411  0.1035 -0.0769  0.1540
29400SOL    HW190579   9.328   0.159   2.347 -0.6677 -0.9509  1.3622
29400SOL    HW290580   9.369   0.153   2.492  0.8124  1.2241  1.0970
29401SOL     OW90581   6.320   8.242   8.109  0.2519  0.3615  0.4085
29401SOL    HW190582   6.371   8.210   8.184  1.3058  0.8175 -0.0849
29401SOL    HW290583   6.385   8.255   8.040 -0.5710  0.8060 -0.3000
29402SOL     OW90584   9.782  10.124   4.370  0.4036 -0.0273  0.4460
29402SOL    HW190585   9.704  10.114   4.425 -0.1508  1.8649  0.0855
29402SOL    HW290586   9.754  10.095   4.283  0.1723  0.4100  0.3723
29403SOL     OW90587   7.103   1.261   8.930 -0.0983  0.2472  0.1397
29403SOL    HW190588   7.040   1.190   8.939 -0.7086  0.3819 -2.3106
29403SOL    HW290589   7.056   1.338   8.964 -0.1723 -0.1473  0.9560
29404SOL     OW90590   1.694   0.185   7.735 -0.1555  0.3169 -0.4104
29404SOL    HW190591   1.712   0.277   7.716  3.1400 -0.3037 -0.8989
29404SOL    HW290592   1.647   0.187   7.818  0.6024  2.4494  0.0465
29405SOL     OW90593   9.863   6.806  10.386  0.2308 -0.1080 -0.4777
29405SOL    HW190594   9.901   6.867  10.323 -0.2356 -1.2243 -1.8838
29405SOL    HW290595   9.858   6.856  10.467  1.5037  1.1451 -1.1299
29406SOL     OW90596   8.758   1.296   0.892  0.2941 -0.6954 -0.1749
29406SOL    HW190597   8.691   1.315   0.957 -0.2873 -1.4868 -0.5280
29406SOL    HW290598   8.840   1.300   0.940 -0.0204  0.0367  0.3137
29407SOL     OW90599   0.855  10.747   3.466 -0.3150  0.8398  0.3344
29407SOL    HW190600   0.784  10.726   3.527  0.0218 -0.8164  0.2016
29407SOL    HW290601   0.928  10.773   3.523 -0.4733  0.7705  0.5709
29408SOL     OW90602   3.901   3.099   4.354  0.2315  0.0172  0.4106
29408SOL    HW190603   3.963   3.169   4.376 -2.6027  3.0988 -0.4247
29408SOL    HW290604   3.842   3.095   4.430 -0.0671 -0.9597  0.1371
29409SOL     OW90605   8.333   6.109   2.634  0.1965  0.0407  0.4088
29409SOL    HW190606   8.390   6.160   2.576  1.9469 -1.4318  0.7233
29409SOL    HW290607   8.276   6.061   2.574 -0.3674  1.1213  0.0587
29410SOL     OW90608   9.784  10.341   1.582 -0.1663  0.5997  0.6283
29410SOL    HW190609   9.859  10.308   1.633 -0.2727 -1.4679 -0.4314
29410SOL    HW290610   9.781  10.435   1.602  1.3403  0.3385  2.4107
29411SOL     OW90611   9.816   3.436   8.093  0.4514  0.2341  0.5562
29411SOL    HW190612   9.828   3.353   8.047  1.3875  0.6257  0.0639
29411SOL    HW290613   9.904   3.474   8.097 -0.1466  1.8587 -0.5205
29412SOL     OW90614   2.973   6.289   2.364 -0.9126  0.0700 -0.8281
29412SOL    HW190615   2.994   6.379   2.387  2.1534 -1.0622  1.5023
29412SOL    HW290616   3.019   6.274   2.281 -1.1579  0.5653 -1.0535
29413SOL     OW90617   0.078   4.295   7.238  0.0267 -0.7747 -0.3766
29413SOL    HW190618   0.035   4.379   7.253  1.5169 -0.4285  2.7999
29413SOL    HW290619   0.166   4.319   7.207 -0.2728 -1.2648 -1.6307
29414SOL     OW90620   6.068   4.398   4.533  0.4647  0.0312  0.0674
29414SOL    HW190621   5.980   4.368   4.509  0.6495 -0.8062  0.3951
29414SOL    HW290622   6.064   4.493   4.526 -0.7891  0.0779  1.1164
29415SOL     OW90623   5.646   6.404   9.763 -0.1349 -0.2113 -0.5056
29415SOL    HW190624   5.672   6.331   9.706 -0.4987 -0.2230 -0.6574
29415SOL    HW290625   5.569   6.372   9.810  0.6194 -0.4930  0.5841
29416SOL     OW90626   0.572   0.198   0.609  0.2625 -0.4695  0.0345
29416SOL    HW190627   0.581   0.214   0.703 -0.4331  0.0215  0.0271
29416SOL    HW290628   0.515   0.122   0.604  1.6258 -1.5266  0.0254
29417SOL     OW90629   8.389   1.272   7.940  0.0279 -0.6901  0.2517
29417SOL    HW190630   8.436   1.302   7.861  0.7435  0.1471  0.9757
29417SOL    HW290631   8.459   1.256   8.004 -0.6227 -0.2570  1.0783
29418SOL     OW90632   7.391   9.612   1.577  0.0004  0.0987  0.1189
29418SOL    HW190633   7.470   9.667   1.582  0.1012 -0.0636  0.3157
29418SOL    HW290634   7.337   9.654   1.509  0.5694 -0.1983 -0.5274
29419SOL     OW90635   3.881   9.903   0.463 -0.7918 -0.0672 -0.4789
29419SOL    HW190636   3.902   9.953   0.384 -1.1459 -0.2513 -0.6917
29419SOL    HW290637   3.914   9.956   0.535 -0.7287  0.2394 -0.7350
29420SOL     OW90638   7.951   6.475  10.646 -0.1753 -0.4195 -0.4184
29420SOL    HW190639   8.037   6.468  10.688 -1.0157  0.1753  1.5448
29420SOL    HW290640   7.952   6.560  10.602  0.0850 -0.2178 -0.0244
29421SOL     OW90641   0.999   5.241   7.456  0.6956  0.2921 -0.0729
29421SOL    HW190642   0.953   5.280   7.531 -0.9811  1.0562 -1.4213
29421SOL    HW290643   0.978   5.299   7.383  0.3274 -1.7128 -1.6318
29422SOL     OW90644   8.381   4.050   9.157  0.4879 -0.0249  0.1553
29422SOL    HW190645   8.453   4.111   9.139  1.4496 -0.0518  3.2266
29422SOL    HW290646   8.409   3.967   9.119  0.6912  0.6561 -1.2196
29423SOL     OW90647   9.407   5.748  10.072  0.0592 -0.4938 -0.1009
29423SOL    HW190648   9.334   5.726  10.130 -0.7086 -0.0163 -0.8556
29423SOL    HW290649   9.471   5.789  10.130  0.3911 -2.2305  0.8391
29424SOL     OW90650   0.582   2.452   8.693 -0.2319  0.6198 -0.1704
29424SOL    HW190651   0.594   2.545   8.713  0.7072  0.3106  0.7859
29424SOL    HW290652   0.630   2.438   8.612  0.2274  0.8331  0.0596
29425SOL     OW90653  10.057   9.028   6.128  0.0619  0.3722 -0.0654
29425SOL    HW190654  10.011   9.086   6.067 -0.7172  1.4980  1.5011
29425SOL    HW290655   9.988   8.971   6.163  0.1924  0.7071  0.7853
29426SOL     OW90656   7.487  10.679   4.811 -0.4563 -0.2793 -0.1040
29426SOL    HW190657   7.432  10.659   4.887  1.2077 -2.0532  0.7390
29426SOL    HW290658   7.441  10.639   4.737 -0.3518 -1.7843  0.5893
29427SOL     OW90659   6.721  10.124   4.046  0.2841 -0.2102 -0.0323
29427SOL    HW190660   6.794  10.082   4.092  0.0522  0.0302  0.5565
29427SOL    HW290661   6.683  10.054   3.992  0.7609 -0.4104 -0.1173
29428SOL     OW90662   6.537  10.793   2.913  0.1094 -0.1223  0.4891
29428SOL    HW190663   6.566  10.858   2.849 -0.4955  0.4832  0.8252
29428SOL    HW290664   6.614  10.737   2.926  1.0675  1.2753  1.1387
29429SOL     OW90665   5.025   8.014   4.779  0.3617  0.0387 -0.2471
29429SOL    HW190666   5.097   8.065   4.743 -0.1117  1.2214  0.4149
29429SOL    HW290667   4.978   7.980   4.703  2.6085 -2.2876 -0.7198
29430SOL     OW90668   8.031   6.407   9.426  0.4570  0.4533 -0.2709
29430SOL    HW190669   7.938   6.411   9.403  0.1997  0.5831  0.7540
29430SOL    HW290670   8.055   6.497   9.447  0.9176  0.4803 -0.8610
29431SOL     OW90671   3.606   9.910   0.896  0.3579  0.2113 -0.1895
29431SOL    HW190672   3.511   9.911   0.905  0.3660  0.1624 -0.0985
29431SOL    HW290673   3.625   9.980   0.834  0.3947  1.3534  1.0568
29432SOL     OW90674   7.257   5.626   7.964 -0.1474  0.0802  0.5483
29432SOL    HW190675   7.226   5.535   7.962  0.3399 -0.0679 -0.9781
29432SOL    HW290676   7.336   5.623   8.019  2.1079 -1.2009 -2.5110
29433SOL     OW90677   6.624   1.071   1.193  0.3255  0.4847  0.3700
29433SOL    HW190678   6.586   0.984   1.177 -0.7847  1.0661 -0.2424
29433SOL    HW290679   6.630   1.077   1.289  3.1262 -1.3775  0.4386
29434SOL     OW90680   0.693   2.719   9.327 -0.4244  0.1235  0.6832
29434SOL    HW190681   0.606   2.712   9.287  0.0988 -3.3057 -0.1477
29434SOL    HW290682   0.689   2.662   9.404  0.7509  0.8931  1.3420
29435SOL     OW90683   7.105   4.938   7.891 -0.1374  0.3279 -0.4861
29435SOL    HW190684   7.150   4.853   7.888 -0.9986 -0.1279 -1.1503
29435SOL    HW290685   7.172   5.001   7.864  0.1777 -0.3091 -1.2440
29436SOL     OW90686   6.102   6.049   8.971 -0.0878  0.1944 -0.1165
29436SOL    HW190687   6.083   6.141   8.951  0.7191  0.6229  1.0027
29436SOL    HW290688   6.192   6.037   8.941 -0.7089 -0.7057 -1.7390
29437SOL     OW90689   4.044   5.016   4.471 -0.4218  0.0365  0.5573
29437SOL    HW190690   3.989   4.979   4.403 -2.2065  0.8530  1.4842
29437SOL    HW290691   4.132   4.983   4.453 -1.4007 -2.2066 -0.3341
29438SOL     OW90692   8.955   5.946   1.516 -0.2581 -0.0482  0.5299
29438SOL    HW190693   8.967   5.863   1.562  0.6920  0.1813  0.7208
29438SOL    HW290694   8.951   5.922   1.423  3.1653 -0.1037  0.2718
29439SOL     OW90695   3.984  10.404   5.605 -0.1125 -0.8107 -0.4781
29439SOL    HW190696   3.899  10.431   5.570 -0.5041 -0.3956  0.7521
29439SOL    HW290697   4.018  10.342   5.540 -1.5279 -1.2907 -0.7924
29440SOL     OW90698   7.327   6.800   4.604  0.1173  0.4889 -0.1246
29440SOL    HW190699   7.293   6.819   4.692 -0.7442  2.1033 -0.7736
29440SOL    HW290700   7.396   6.735   4.619 -0.9060 -0.2690  1.5988
29441SOL     OW90701   6.924   0.731   1.043 -0.1733 -1.0333  0.2176
29441SOL    HW190702   6.880   0.754   1.125 -0.7170 -0.1455 -0.3052
29441SOL    HW290703   6.979   0.807   1.024 -0.7264 -0.8475 -0.6933
29442SOL     OW90704   1.462   6.102   5.468 -0.2822 -0.8966 -0.5319
29442SOL    HW190705   1.407   6.027   5.491  0.1169 -1.0665 -0.1271
29442SOL    HW290706   1.471   6.150   5.550  1.5443 -1.7564 -0.1862
29443SOL     OW90707   1.856   2.713   7.204 -0.3803 -0.1779 -0.4286
29443SOL    HW190708   1.794   2.709   7.276 -1.0927  1.1942 -0.9391
29443SOL    HW290709   1.925   2.772   7.235 -0.7468  0.5059 -0.9038
29444SOL     OW90710   5.874   7.707   0.408 -0.5118  0.3627 -0.4330
29444SOL    HW190711   5.787   7.673   0.386 -1.1118  2.6017 -1.9429
29444SOL    HW290712   5.920   7.708   0.324  0.6839  0.0419  0.2023
29445SOL     OW90713   1.591   9.694   2.051 -0.4211  0.1805 -0.2483
29445SOL    HW190714   1.644   9.767   2.083  1.6208 -1.5962  0.7385
29445SOL    HW290715   1.530   9.676   2.123 -0.6402  0.6296 -0.3177
29446SOL     OW90716   5.068   6.176   6.507  0.3281  0.7295  0.4931
29446SOL    HW190717   5.160   6.148   6.510 -0.6439 -2.9472  0.4444
29446SOL    HW290718   5.048   6.183   6.414 -0.0460 -1.0002  0.4144
29447SOL     OW90719   4.680   7.283   3.140 -0.0524 -0.3585 -0.5686
29447SOL    HW190720   4.695   7.343   3.066 -0.6220  1.0472  0.3988
29447SOL    HW290721   4.640   7.206   3.100 -0.2189  0.3105 -1.7529
29448SOL     OW90722   1.992   6.868   9.917  0.1196  0.2939 -0.1290
29448SOL    HW190723   2.069   6.916   9.886 -0.6327  0.5750 -1.6669
29448SOL    HW290724   2.024   6.817   9.992  1.5714  1.1089 -0.1549
29449SOL     OW90725   5.852   5.378   8.676 -0.3233  0.2893  0.3955
29449SOL    HW190726   5.780   5.316   8.687  0.9225 -0.7961  3.5440
29449SOL    HW290727   5.931   5.325   8.687  0.9073  1.8795 -0.4198
29450SOL     OW90728   2.278   4.860   6.989  0.1782 -0.3962  0.1741
29450SOL    HW190729   2.204   4.861   7.050  0.9312 -0.2110  1.1023
29450SOL    HW290730   2.295   4.952   6.970  0.7528 -0.3951  0.6843
29451SOL     OW90731   4.500   5.124   1.355  0.1034 -0.1383 -0.4811
29451SOL    HW190732   4.472   5.058   1.291  0.9420 -0.0472 -0.9644
29451SOL    HW290733   4.507   5.077   1.437  0.1274 -0.5202 -0.6989
29452SOL     OW90734   1.437   9.507   9.820  0.2422  0.3403 -0.1285
29452SOL    HW190735   1.483   9.423   9.819  0.0747  0.2446  0.2054
29452SOL    HW290736   1.433   9.532   9.728  1.1457  0.4477 -0.1473
29453SOL     OW90737   5.232   8.326   0.395  0.0829 -0.2725 -0.2279
29453SOL    HW190738   5.172   8.309   0.468  0.1583 -0.0260 -0.1075
29453SOL    HW290739   5.314   8.353   0.437  0.6221 -1.6104 -0.3515
29454SOL     OW90740   1.242   6.073   4.131  0.1661  0.1532 -0.1727
29454SOL    HW190741   1.238   6.125   4.051  0.6477  1.0068  0.3573
29454SOL    HW290742   1.262   5.984   4.100 -1.6615  0.0236 -1.1623
29455SOL     OW90743   4.794   6.242   4.082 -0.6353  0.2333  0.3193
29455SOL    HW190744   4.763   6.242   4.172  1.3506 -0.3528  1.0651
29455SOL    HW290745   4.733   6.184   4.036 -0.7615 -0.7423  1.6503
29456SOL     OW90746   1.334   9.604   1.491  0.4981 -0.2530  0.1227
29456SOL    HW190747   1.427   9.614   1.473  0.5718  0.2342  0.7661
29456SOL    HW290748   1.320   9.509   1.488  1.1672 -0.3810  0.7649
29457SOL     OW90749   9.657   3.285   0.683 -0.3700 -0.4697  0.0328
29457SOL    HW190750   9.696   3.351   0.626 -1.3961  0.7893  0.7412
29457SOL    HW290751   9.692   3.202   0.651 -0.3743  0.2534 -1.9909
29458SOL     OW90752   6.354   0.873   7.838 -0.0686 -0.0037 -0.0772
29458SOL    HW190753   6.352   0.968   7.827  0.5773 -0.0692 -0.8517
29458SOL    HW290754   6.274   0.843   7.794 -0.3306  0.1840  0.2651
29459SOL     OW90755   2.889   4.644   6.375 -0.2246  0.8465  0.1939
29459SOL    HW190756   2.912   4.704   6.447  1.1997  1.6177 -0.8506
29459SOL    HW290757   2.942   4.675   6.301 -0.5280 -0.8523 -0.7689
29460SOL     OW90758   6.197   1.480   3.427  0.2294  0.2805 -0.3014
29460SOL    HW190759   6.175   1.543   3.358  1.4858 -1.0097 -1.9448
29460SOL    HW290760   6.113   1.440   3.449 -0.2471  0.9582 -0.8219
29461SOL     OW90761   2.190   6.632   0.487 -0.3774 -0.5470  0.8534
29461SOL    HW190762   2.094   6.629   0.492 -0.3366 -2.0352  1.0661
29461SOL    HW290763   2.214   6.710   0.538 -1.5227  0.7356 -0.4564
29462SOL     OW90764   2.245   9.952   1.742  0.1020  0.4941  0.3927
29462SOL    HW190765   2.306   9.955   1.816 -0.1188  2.9412  0.5565
29462SOL    HW290766   2.301   9.938   1.666  0.6178  0.4105  0.7815
29463SOL     OW90767   7.063   0.887   1.348  0.8738 -0.6280 -0.5312
29463SOL    HW190768   7.015   0.869   1.429  2.2798  1.7645  0.9674
29463SOL    HW290769   7.013   0.958   1.306  1.2618 -0.4458 -0.6882
29464SOL     OW90770   1.934   0.692   9.255  0.3080  0.6357 -0.2210
29464SOL    HW190771   2.006   0.659   9.202  0.8965  0.0153  0.9328
29464SOL    HW290772   1.973   0.708   9.341 -1.0703 -0.3841  0.6337
29465SOL     OW90773   2.239   0.886   2.220 -0.1938  0.5306  0.0787
29465SOL    HW190774   2.156   0.933   2.227 -0.3511  0.3710 -0.7186
29465SOL    HW290775   2.302   0.953   2.193 -0.4400  0.2847 -1.1688
29466SOL     OW90776   7.832   1.434   7.467 -0.0176 -0.0246 -0.0348
29466SOL    HW190777   7.846   1.527   7.487  0.3752  0.1778 -1.1695
29466SOL    HW290778   7.872   1.388   7.540  1.9082  0.6674 -0.6043
29467SOL     OW90779   3.298   5.576   2.063 -0.2582  1.0786 -0.0022
29467SOL    HW190780   3.333   5.550   1.978  0.9543 -0.7310  0.9773
29467SOL    HW290781   3.203   5.567   2.054 -0.1246  0.6538 -1.0918
29468SOL     OW90782   5.128   0.629  10.154 -0.3217  0.3453  0.1737
29468SOL    HW190783   5.200   0.566  10.148  0.5210  1.3385 -0.3024
29468SOL    HW290784   5.051   0.579  10.124 -0.0136 -0.9473  1.4218
29469SOL     OW90785   6.868   3.704  10.573  0.2900  0.2071  0.3938
29469SOL    HW190786   6.788   3.686  10.623  0.6720 -1.1639  0.5499
29469SOL    HW290787   6.924   3.753  10.634  0.4762 -0.8534  1.0923
29470SOL     OW90788   4.933   0.525   1.398  1.0259  0.0138 -0.0530
29470SOL    HW190789   5.022   0.501   1.371  1.3203  0.0453  0.8524
29470SOL    HW290790   4.945   0.574   1.478  0.1488 -0.5475  0.4399
29471SOL     OW90791   5.200   0.535   7.719 -0.3289  0.6730  0.0179
29471SOL    HW190792   5.184   0.445   7.750 -0.7163  0.7390  0.0199
29471SOL    HW290793   5.235   0.524   7.631  0.5646  0.4907  0.3853
29472SOL     OW90794   6.380   2.414   6.857 -0.1006  0.1742 -0.6804
29472SOL    HW190795   6.382   2.477   6.929  0.1078  1.0396 -1.4205
29472SOL    HW290796   6.306   2.356   6.876  1.6565 -1.4585  1.7370
29473SOL     OW90797   9.081   0.179   8.624  0.3752 -0.2335 -0.2011
29473SOL    HW190798   9.102   0.184   8.718  2.5044 -1.4787 -0.5426
29473SOL    HW290799   9.163   0.202   8.580 -0.6046  0.3547 -1.7692
29474SOL     OW90800   4.118  10.309   4.958 -0.2112  0.0819 -0.4119
29474SOL    HW190801   4.065  10.386   4.982  1.1021  0.3931  1.8155
29474SOL    HW290802   4.189  10.345   4.905  0.2214  0.3896  0.3565
29475SOL     OW90803   7.611   4.215   8.159  0.2195 -0.2436 -0.4315
29475SOL    HW190804   7.618   4.182   8.069  1.5988 -0.0766 -0.4022
29475SOL    HW290805   7.679   4.168   8.207  0.2143  0.4615  0.2800
29476SOL     OW90806   0.133   1.564   1.318  0.3576 -0.0454  0.2334
29476SOL    HW190807   0.046   1.529   1.338  1.0813 -0.9486  2.0939
29476SOL    HW290808   0.187   1.539   1.394  1.8146  2.0465 -0.0115
29477SOL     OW90809   3.590   6.281   9.904 -0.1088  0.4607 -0.1492
29477SOL    HW190810   3.500   6.305   9.881 -0.0985 -1.1571 -2.2909
29477SOL    HW290811   3.624   6.240   9.824  1.4206 -2.0058  1.6186
29478SOL     OW90812   4.735   2.946  10.621  0.1158  0.4292  0.1214
29478SOL    HW190813   4.694   2.867  10.656 -0.1880  0.6502  0.2598
29478SOL    HW290814   4.829   2.931  10.634  0.0646  0.0626  0.0890
29479SOL     OW90815   1.922   7.351   9.256 -0.3193  0.4758 -0.8923
29479SOL    HW190816   1.911   7.427   9.199 -1.3713  1.9867  1.1860
29479SOL    HW290817   1.893   7.381   9.342 -0.8535 -2.3296  0.0162
29480SOL     OW90818   3.268   4.895   1.597  0.4545  0.1819 -1.0318
29480SOL    HW190819   3.188   4.844   1.590  0.9261 -0.6588 -0.4854
29480SOL    HW290820   3.338   4.830   1.597  1.0158  0.6934  1.2623
29481SOL     OW90821   5.921   9.982   7.540  0.0176  0.0417  0.7300
29481SOL    HW190822   6.003   9.935   7.521 -0.9359 -0.7537 -1.8002
29481SOL    HW290823   5.863   9.916   7.577 -0.1034  0.1441  0.7241
29482SOL     OW90824   1.102   6.952   7.123  0.2096 -0.1255 -0.3819
29482SOL    HW190825   1.131   6.944   7.032 -1.4406  0.2987 -0.9897
29482SOL    HW290826   1.182   6.965   7.173  1.0409  1.1923 -1.9627
29483SOL     OW90827   3.840  10.044   8.846  0.4290  0.3837 -0.3823
29483SOL    HW190828   3.787  10.102   8.792 -0.3964 -0.4868 -0.5331
29483SOL    HW290829   3.853  10.092   8.928  0.3712  1.0648 -0.7662
29484SOL     OW90830   6.690   4.262   4.195  0.0490 -0.4771 -0.0497
29484SOL    HW190831   6.634   4.310   4.256 -0.6254 -0.7293 -0.4619
29484SOL    HW290832   6.779   4.290   4.217 -0.3819  3.3589 -2.2727
29485SOL     OW90833   5.608   0.342   0.666 -0.1605 -0.0995 -0.1293
29485SOL    HW190834   5.604   0.432   0.633  1.2853 -0.6528 -1.9735
29485SOL    HW290835   5.532   0.335   0.725 -1.9703  1.4922 -2.1006
29486SOL     OW90836   1.706   6.977   6.278 -0.1915  0.0447  0.0930
29486SOL    HW190837   1.736   7.036   6.209  1.4399 -1.2844 -0.4057
29486SOL    HW290838   1.611   6.987   6.279 -0.2315  0.3746 -2.1250
29487SOL     OW90839   2.201   0.751   3.963  0.1208 -0.4624 -0.3922
29487SOL    HW190840   2.259   0.764   4.037  2.0087 -1.2448 -1.6608
29487SOL    HW290841   2.151   0.832   3.956  1.1026  0.2502  0.7066
29488SOL     OW90842   3.150   0.379   1.192 -0.1607 -0.1793  0.0103
29488SOL    HW190843   3.228   0.325   1.181 -0.2767 -0.2011 -0.7698
29488SOL    HW290844   3.169   0.460   1.145 -0.1037  0.3506  0.9288
29489SOL     OW90845   6.281   1.215   9.782 -0.6949  0.5613  0.3321
29489SOL    HW190846   6.236   1.130   9.783 -1.2831  0.6821 -3.2066
29489SOL    HW290847   6.374   1.192   9.780 -0.8568 -0.1192 -1.4063
29490SOL     OW90848   9.734   0.318   4.216 -0.0738 -0.1867 -0.2209
29490SOL    HW190849   9.829   0.329   4.222 -0.3020  1.4759  0.8924
29490SOL    HW290850   9.722   0.239   4.162  1.8729  1.4006 -3.2675
29491SOL     OW90851   4.767   8.200   2.798  0.1200  0.2641  0.6380
29491SOL    HW190852   4.823   8.125   2.819 -0.2134 -0.4029 -0.7613
29491SOL    HW290853   4.696   8.195   2.863  0.9722  0.3607  1.6036
29492SOL     OW90854   1.655   1.977   2.625  0.3790  0.3480 -0.4209
29492SOL    HW190855   1.610   1.892   2.627 -0.7267  0.8414 -2.1216
29492SOL    HW290856   1.738   1.960   2.582 -0.6598  0.4099 -2.5842
29493SOL     OW90857   1.744   3.385   9.185 -0.0632 -0.2230 -0.1316
29493SOL    HW190858   1.782   3.314   9.237  0.1250 -1.1636 -1.5000
29493SOL    HW290859   1.761   3.360   9.094  1.7002  2.4656 -0.6785
29494SOL     OW90860   9.173   8.195   4.970  0.0112  0.2506  0.7708
29494SOL    HW190861   9.161   8.114   4.920  2.0760  0.3815 -0.0278
29494SOL    HW290862   9.128   8.262   4.918 -2.4820 -0.4495  1.8807
29495SOL     OW90863   0.080   8.826   4.115  0.0870  0.2550  0.1097
29495SOL    HW190864   0.084   8.788   4.027 -0.6176 -0.7590  0.5014
29495SOL    HW290865   0.029   8.907   4.104 -0.3102 -0.0523 -0.3574
29496SOL     OW90866   1.153   5.460   9.286 -0.0188 -0.2502  0.7384
29496SOL    HW190867   1.144   5.409   9.366 -0.2168 -1.3271  0.0425
29496SOL    HW290868   1.206   5.536   9.312 -2.2014  0.7964  2.5102
29497SOL     OW90869   2.269   4.335   9.533 -0.2245 -0.2793 -0.3181
29497SOL    HW190870   2.317   4.389   9.596  0.0597 -0.0274 -0.7469
29497SOL    HW290871   2.182   4.324   9.573 -0.1778  0.2217 -0.0719
29498SOL     OW90872   9.213   9.395   7.565  0.6603  0.1218  0.0397
29498SOL    HW190873   9.282   9.329   7.567  1.6453  0.9900 -2.1307
29498SOL    HW290874   9.153   9.369   7.636  2.2775 -1.6431  0.8569
29499SOL     OW90875   3.296   6.857   7.829  0.3057  0.1748 -0.1603
29499SOL    HW190876   3.309   6.820   7.916 -1.6523  0.3974  0.2604
29499SOL    HW290877   3.255   6.787   7.779  1.0458  0.1870 -0.7946
29500SOL     OW90878   7.830   9.891   6.786 -0.0887 -0.0943 -0.1392
29500SOL    HW190879   7.804   9.982   6.775 -0.0247 -0.0937 -0.2967
29500SOL    HW290880   7.830   9.855   6.697  0.9995  0.0530 -0.2109
29501SOL     OW90881   6.095   8.511   4.413  0.3815 -0.1423 -0.1062
29501SOL    HW190882   6.004   8.482   4.423  0.3738 -0.0025  0.2253
29501SOL    HW290883   6.099   8.595   4.458  0.1816  0.8305 -1.8125
29502SOL     OW90884   7.696   9.641   9.050 -0.1891 -0.4982  0.8952
29502SOL    HW190885   7.623   9.702   9.056  1.6893  1.9181  0.4391
29502SOL    HW290886   7.654   9.554   9.052 -3.0414  0.7491  0.5953
29503SOL     OW90887  10.008   0.425   1.186 -0.2827  0.1507 -0.1903
29503SOL    HW190888  10.018   0.334   1.212  0.3129  0.1567 -0.3948
29503SOL    HW290889  10.036   0.428   1.095 -0.8000  0.4434 -0.3471
29504SOL     OW90890   5.022   0.867   9.313 -0.0891 -0.0730 -0.0043
29504SOL    HW190891   5.049   0.776   9.323 -0.6578 -0.1949  0.4958
29504SOL    HW290892   5.027   0.903   9.401 -1.2552 -0.0239  0.0584
29505SOL     OW90893   5.972   6.924   3.001 -0.0175  0.0920 -0.3598
29505SOL    HW190894   6.005   6.931   3.091  1.8345 -0.3463 -0.9625
29505SOL    HW290895   5.960   7.015   2.973  2.7384  0.4089 -0.7771
29506SOL     OW90896   6.347   4.423   2.899 -0.0036 -0.3698 -0.3440
29506SOL    HW190897   6.283   4.410   2.829 -0.6755 -1.1566  0.3966
29506SOL    HW290898   6.432   4.423   2.854 -0.3790 -1.4373 -1.1035
29507SOL     OW90899   5.658   7.645   7.862  0.6457 -0.3547  0.1978
29507SOL    HW190900   5.659   7.693   7.779  0.8030  0.5174  0.6857
29507SOL    HW290901   5.728   7.580   7.852  2.1936  1.1741  0.4257
29508SOL     OW90902   6.232   5.270  10.325 -0.2872  0.6383  0.7009
29508SOL    HW190903   6.156   5.289  10.270 -1.1662  4.4224  2.8768
29508SOL    HW290904   6.306   5.271  10.264 -1.5993  0.1508 -0.9903
29509SOL     OW90905   8.065   6.923  10.112 -0.1280  0.3311 -0.1211
29509SOL    HW190906   8.023   6.971  10.184  0.2552  1.3286 -0.5451
29509SOL    HW290907   8.050   6.977  10.035  1.1534  0.2565 -0.4371
29510SOL     OW90908   4.374   3.765   1.017 -0.1047 -0.5719  0.3538
29510SOL    HW190909   4.405   3.720   0.939 -0.4445  2.2206 -1.5166
29510SOL    HW290910   4.436   3.837   1.030 -1.5747  0.6195  1.0405
29511SOL     OW90911   9.018   5.172   7.483 -0.5510 -0.0854 -0.0845
29511SOL    HW190912   9.005   5.125   7.565 -0.2902 -0.0312 -0.0101
29511SOL    HW290913   8.979   5.258   7.498 -0.2155  0.0378  0.0975
29512SOL     OW90914   1.845   3.309   0.102  0.0460 -0.2878 -0.3708
29512SOL    HW190915   1.936   3.339   0.103  0.3757 -1.2525  0.3914
29512SOL    HW290916   1.847   3.226   0.054  0.0862 -1.7352  1.9731
29513SOL     OW90917   8.744   9.288   7.093 -0.2818  0.1298  0.4368
29513SOL    HW190918   8.653   9.318   7.104 -0.0931  1.5728 -1.4395
29513SOL    HW290919   8.792   9.365   7.064  1.2986 -0.8992  0.1632
29514SOL     OW90920  10.132   2.160   3.364 -0.1088 -0.2849 -0.7908
29514SOL    HW190921  10.145   2.225   3.295 -1.3811 -0.1564 -0.9472
29514SOL    HW290922  10.136   2.076   3.318  0.3955 -0.2614 -0.7879
29515SOL     OW90923   1.808   7.280   6.286  0.1717  0.5132 -0.0125
29515SOL    HW190924   1.759   7.258   6.365  0.4628  0.5673  0.1880
29515SOL    HW290925   1.889   7.319   6.319  0.4250  0.2642 -0.3326
29516SOL     OW90926   9.852   6.247   3.825 -0.2405  0.9020  0.0675
29516SOL    HW190927   9.864   6.303   3.901 -1.2471  1.3678 -0.1087
29516SOL    HW290928   9.818   6.306   3.757 -0.6818  0.2163 -0.3156
29517SOL     OW90929   5.474   6.717   3.020 -0.1504  0.3545 -0.4584
29517SOL    HW190930   5.547   6.727   2.958 -0.5312 -0.0182 -0.9722
29517SOL    HW290931   5.454   6.806   3.048  1.5801  0.3585  0.9628
29518SOL     OW90932   7.440   0.419  10.357  0.6941  0.4100 -0.4086
29518SOL    HW190933   7.363   0.405  10.411 -1.3195  2.7161 -2.4123
29518SOL    HW290934   7.495   0.479  10.408  1.4059 -1.4798  1.1550
29519SOL     OW90935   5.577  10.206   1.641  0.6138  0.2116 -0.2545
29519SOL    HW190936   5.598  10.136   1.579  0.2681 -0.7470  0.6922
29519SOL    HW290937   5.493  10.240   1.610  0.8284  0.2858 -0.7737
29520SOL     OW90938   4.346   0.712   5.749  0.5053 -0.6895  0.1691
29520SOL    HW190939   4.252   0.732   5.751  0.3930 -1.1776 -0.1189
29520SOL    HW290940   4.352   0.631   5.698  1.1094 -0.5152 -0.0455
29521SOL     OW90941   0.789   3.238   3.162 -0.0393  0.4882  0.4271
29521SOL    HW190942   0.779   3.143   3.161  1.5733  0.2505  2.0563
29521SOL    HW290943   0.880   3.253   3.136 -0.9835  1.8322 -2.6731
29522SOL     OW90944  10.216   1.353   4.593  0.2256 -0.7484 -0.1645
29522SOL    HW190945  10.176   1.341   4.506 -0.3043 -1.7141  0.1911
29522SOL    HW290946  10.256   1.268   4.611  0.8983 -0.3403  0.2588
29523SOL     OW90947  10.293   3.908   9.851 -0.1900  0.0952  0.2608
29523SOL    HW190948  10.375   3.901   9.901  0.2805 -0.4357 -0.5613
29523SOL    HW290949  10.231   3.853   9.899  0.3140 -0.5873  0.1416
29524SOL     OW90950   7.544   6.672   5.868 -0.0771 -0.0509 -0.7357
29524SOL    HW190951   7.522   6.765   5.863  1.7356  0.4321 -0.4631
29524SOL    HW290952   7.585   6.653   5.783 -0.0484 -0.4980 -0.6243
29525SOL     OW90953   4.126   1.583   0.916 -0.5309 -0.1876 -0.0179
29525SOL    HW190954   4.057   1.517   0.920 -1.6025  0.9316  1.0900
29525SOL    HW290955   4.156   1.592   1.006  0.0570  0.3748 -0.2608
29526SOL     OW90956   4.026   5.562   7.408  0.5743  0.3090 -0.3727
29526SOL    HW190957   4.000   5.576   7.499 -0.7389 -0.2308 -0.6428
29526SOL    HW290958   4.121   5.563   7.410  0.5634  0.4795  0.9794
29527SOL     OW90959   7.503   4.517   5.117  0.0497 -0.2628  0.3270
29527SOL    HW190960   7.545   4.579   5.177 -0.5012 -0.3798  0.8465
29527SOL    HW290961   7.572   4.492   5.055  0.7132 -0.3857  1.1032
29528SOL     OW90962   2.388   1.576  10.021  0.0133 -0.6903 -0.6879
29528SOL    HW190963   2.442   1.521  10.078 -0.2549  0.6159  0.9127
29528SOL    HW290964   2.301   1.536  10.023 -0.2105 -0.1919  0.5633
29529SOL     OW90965   4.232   3.006   3.368 -0.0584 -0.2870 -0.7169
29529SOL    HW190966   4.219   2.936   3.305  0.8805 -1.0145 -0.1274
29529SOL    HW290967   4.163   3.070   3.347  0.3838 -0.3727 -2.6233
29530SOL     OW90968   9.067   2.231   2.924 -0.2428  0.1384  0.0520
29530SOL    HW190969   8.996   2.231   2.988 -0.5204 -1.7957 -0.2051
29530SOL    HW290970   9.132   2.171   2.960  0.4337  0.4448 -0.6283
29531SOL     OW90971   4.248   7.789   6.730  0.2109  0.1737  0.1789
29531SOL    HW190972   4.247   7.717   6.667 -0.1994 -0.6145  1.0605
29531SOL    HW290973   4.311   7.851   6.695 -0.6513  0.1728 -1.4668
29532SOL     OW90974   9.640   0.920   4.508 -0.0124  0.2846  0.3015
29532SOL    HW190975   9.727   0.881   4.511  0.1121  0.6016  1.2275
29532SOL    HW290976   9.580   0.846   4.502  0.1690 -0.1911  3.0287
29533SOL     OW90977   4.338   5.030   0.166 -0.3708 -0.0460 -0.6465
29533SOL    HW190978   4.386   5.016   0.084 -2.2121  1.2928 -2.0257
29533SOL    HW290979   4.317   5.123   0.165 -0.7043 -0.0763  1.2226
29534SOL     OW90980   6.352   5.061   3.751 -0.2747  0.6002  0.0304
29534SOL    HW190981   6.287   4.992   3.740 -1.7013  1.5212  2.0602
29534SOL    HW290982   6.419   5.022   3.808  0.8488 -0.2232 -1.7581
29535SOL     OW90983   9.965   6.636   5.658 -0.5026 -0.6343  0.7877
29535SOL    HW190984  10.060   6.643   5.648 -0.6118  0.3738  0.2375
29535SOL    HW290985   9.946   6.674   5.744 -0.1935 -3.2102  2.0903
29536SOL     OW90986   1.749   2.329   1.519  0.6731 -0.5245  0.2647
29536SOL    HW190987   1.673   2.272   1.506 -0.1993  0.6186  0.1377
29536SOL    HW290988   1.812   2.301   1.453  1.2193 -2.8197  1.6421
29537SOL     OW90989   3.380   7.254   0.140 -0.3610  0.0161 -0.3469
29537SOL    HW190990   3.289   7.283   0.142 -0.5630 -0.5838 -0.6471
29537SOL    HW290991   3.431   7.333   0.158 -0.9907  0.1050  1.1673
29538SOL     OW90992   4.087   5.187   1.679 -0.1485 -0.3008  0.5588
29538SOL    HW190993   4.117   5.142   1.600 -2.3329 -0.2079 -0.3917
29538SOL    HW290994   4.058   5.117   1.737 -1.0732 -0.2655  0.1539
29539SOL     OW90995  10.553   2.029   0.606 -0.9532 -0.1140  0.3610
29539SOL    HW190996  10.574   2.121   0.621 -1.5988  0.0489  0.2764
29539SOL    HW290997  10.587   1.983   0.683  0.3589  0.0425 -0.0944
29540SOL     OW90998   8.877   4.159   6.945  0.1737  0.3693 -0.2153
29540SOL    HW190999   8.955   4.158   6.890 -0.0187  0.4906 -0.4963
29540SOL    HW291000   8.806   4.182   6.885  0.0250  0.9350  0.1707
29541SOL     OW91001   7.803   2.016   3.180  0.1481 -0.2100  0.1687
29541SOL    HW191002   7.803   1.920   3.171  0.1325 -0.0393 -2.6544
29541SOL    HW291003   7.822   2.048   3.091 -2.1098  2.4353  0.5062
29542SOL     OW91004  10.006   7.361   5.226 -0.8776  0.5121 -0.1558
29542SOL    HW191005  10.039   7.424   5.162 -2.9599  2.1702  0.2999
29542SOL    HW291006  10.076   7.296   5.233  0.3960  1.5172 -2.3516
29543SOL     OW91007   3.385   0.069   1.677 -0.7284 -0.1461  0.1413
29543SOL    HW191008   3.389   0.161   1.700 -0.4408 -0.2161  0.3748
29543SOL    HW291009   3.460   0.055   1.619 -1.2533 -0.0475 -0.5674
29544SOL     OW91010   3.598   7.795   4.418 -0.3671 -0.4796  0.2404
29544SOL    HW191011   3.616   7.822   4.328 -0.4685  0.5054  0.4958
29544SOL    HW291012   3.511   7.832   4.437  0.0106  0.0560  1.0054
29545SOL     OW91013   2.517   8.194   3.270  0.3292  0.2030 -0.6821
29545SOL    HW191014   2.471   8.277   3.265  1.6729  1.0298  0.0814
29545SOL    HW291015   2.607   8.217   3.293  0.7093 -1.4644 -0.3216
29546SOL     OW91016   9.451   9.178   3.974 -0.7157  0.0661  0.1068
29546SOL    HW191017   9.385   9.223   4.026 -0.2293  0.4715  0.3790
29546SOL    HW291018   9.424   9.193   3.883 -1.5746 -0.6602  0.2240
29547SOL     OW91019   7.946   4.806  10.564  0.6382  0.8074 -0.2209
29547SOL    HW191020   7.981   4.785  10.478  1.5780  0.3765  0.2494
29547SOL    HW291021   8.023   4.809  10.621 -0.0415  0.2704  0.7528
29548SOL     OW91022   3.386   2.146   7.698 -0.0231  0.2145 -0.1146
29548SOL    HW191023   3.384   2.232   7.741  0.3987 -0.5752  1.5854
29548SOL    HW291024   3.459   2.101   7.740 -0.2795 -1.0052 -0.9422
29549SOL     OW91025   1.095   8.656   9.150 -0.0177 -0.4049 -0.2909
29549SOL    HW191026   1.170   8.715   9.161 -0.8017  0.5795 -0.0958
29549SOL    HW291027   1.051   8.656   9.235 -1.5371  0.8648 -1.0246
29550SOL     OW91028   6.558   1.251   0.975 -0.5108  0.4941 -0.1813
29550SOL    HW191029   6.649   1.274   0.952 -0.3962 -0.0040 -0.2350
29550SOL    HW291030   6.566   1.192   1.049 -0.8495  1.3651  0.5626
29551SOL     OW91031   9.134   6.882   0.875 -0.3310 -0.0113  0.1057
29551SOL    HW191032   9.167   6.802   0.915  0.8074  0.7187  0.6933
29551SOL    HW291033   9.212   6.924   0.838 -0.6333  1.5613  1.1532
29552SOL     OW91034   1.219   1.627   8.078  0.5173 -0.4743 -0.1023
29552SOL    HW191035   1.256   1.622   7.990  2.3211  0.1543  0.5591
29552SOL    HW291036   1.244   1.544   8.119  0.7420 -0.2703  0.1796
29553SOL     OW91037   2.577   1.072   1.301  0.3641  0.0265 -0.2887
29553SOL    HW191038   2.503   1.026   1.342  0.1764 -0.0425 -0.7069
29553SOL    HW291039   2.610   1.011   1.235  0.6085  0.1783 -0.3082
29554SOL     OW91040   6.953   7.221   0.096 -0.1314 -0.2582  0.3531
29554SOL    HW191041   6.989   7.309   0.084  1.9431 -1.0657  0.1786
29554SOL    HW291042   6.945   7.211   0.190  1.6239 -0.5797  0.5026
29555SOL     OW91043  10.071  10.202   0.082 -0.6312 -0.3036 -0.0047
29555SOL    HW191044  10.081  10.123   0.136 -0.2434 -0.6214 -0.5318
29555SOL    HW291045  10.041  10.169  -0.003 -1.1728  0.1876 -0.0149
29556SOL     OW91046   9.693   3.276   1.211  0.0487 -0.0473 -0.0743
29556SOL    HW191047   9.785   3.276   1.186 -0.0110 -0.8511 -0.2983
29556SOL    HW291048   9.646   3.269   1.128 -0.2000 -0.3726  0.0935
29557SOL     OW91049   9.411   4.933   6.732 -0.6894  0.2556  0.0451
29557SOL    HW191050   9.388   4.911   6.822 -2.2434 -0.0075 -0.3752
29557SOL    HW291051   9.501   4.904   6.722  0.2048  2.0936  2.0761
29558SOL     OW91052   4.546   8.461   3.288  0.2152 -0.0334  0.1337
29558SOL    HW191053   4.490   8.384   3.287 -2.0217  1.4500  1.4445
29558SOL    HW291054   4.565   8.479   3.196 -0.1922 -1.4333 -0.2440
29559SOL     OW91055   4.915   5.359   6.358  0.0018  0.5882  0.3325
29559SOL    HW191056   4.994   5.315   6.326 -0.6150 -1.5174  1.5329
29559SOL    HW291057   4.940   5.394   6.443 -0.0621  0.8948  0.2271
29560SOL     OW91058   1.834   8.042   1.665  0.5377 -0.0984  0.6232
29560SOL    HW191059   1.823   8.095   1.586  0.1734  2.7653  2.4290
29560SOL    HW291060   1.745   8.014   1.687  0.5214 -0.1583  0.4830
29561SOL     OW91061   2.262   4.602  10.453  0.0474  0.3919  0.3190
29561SOL    HW191062   2.292   4.591  10.543 -1.4805 -2.1275  0.6475
29561SOL    HW291063   2.228   4.691  10.449 -1.6891 -0.0206  2.9171
29562SOL     OW91064   2.114   2.186   3.281 -0.1268 -0.3203 -0.0399
29562SOL    HW191065   2.127   2.241   3.358  0.1508  0.9311 -0.9384
29562SOL    HW291066   2.203   2.166   3.251 -0.1951  0.9827 -1.2229
29563SOL     OW91067   8.773  10.779   6.159 -0.6200 -0.1705  0.7717
29563SOL    HW191068   8.818  10.844   6.214 -0.1958  0.3505 -0.1729
29563SOL    HW291069   8.843  10.730   6.117 -0.9264  0.3292 -0.3486
29564SOL     OW91070   5.303   5.398  10.587  0.2707  0.3380 -0.2575
29564SOL    HW191071   5.287   5.438  10.673 -1.4082  0.8127 -0.7419
29564SOL    HW291072   5.252   5.452  10.526  0.5933 -0.6049 -1.3987
29565SOL     OW91073   1.899   7.349   8.727  0.8694 -0.1072  0.1000
29565SOL    HW191074   1.888   7.284   8.657  1.0451  0.7994 -0.8078
29565SOL    HW291075   1.959   7.308   8.789  2.8213  0.0076 -1.5920
29566SOL     OW91076   4.174   0.890   0.009  0.6572 -0.2987 -0.0165
29566SOL    HW191077   4.170   0.867   0.101  1.7639  0.2802  0.2005
29566SOL    HW291078   4.252   0.846  -0.024  0.4502 -0.2468 -0.5988
29567SOL     OW91079   6.551   4.150   4.495 -0.0084 -0.0341  0.2034
29567SOL    HW191080   6.468   4.161   4.448  2.2376  0.2097 -4.2304
29567SOL    HW291081   6.589   4.237   4.496  0.8365 -0.4050  0.8262
29568SOL     OW91082   8.666   3.851   1.562 -0.0069  1.0771  0.1842
29568SOL    HW191083   8.607   3.780   1.536 -0.4133  0.8365  1.6757
29568SOL    HW291084   8.627   3.888   1.641  0.6296  2.4517 -0.1122
29569SOL     OW91085   5.353   9.601   9.911 -0.2401  0.0298  0.1469
29569SOL    HW191086   5.413   9.630   9.980 -0.6030  1.1904 -0.0024
29569SOL    HW291087   5.379   9.650   9.833 -0.4564 -0.5454 -0.2958
29570SOL     OW91088   4.171   9.632   4.162 -0.2266  0.0417 -0.0590
29570SOL    HW191089   4.100   9.632   4.225 -1.0661 -0.8878 -0.9738
29570SOL    HW291090   4.186   9.725   4.143 -1.2857  0.2483  0.0466
29571SOL     OW91091   5.637   3.872   1.921  0.5887  0.0368  0.0968
29571SOL    HW191092   5.606   3.800   1.976 -1.8414  0.7923 -0.1290
29571SOL    HW291093   5.583   3.947   1.948  0.8522  0.9745 -1.8180
29572SOL     OW91094   9.534   7.570   7.584  0.0948 -0.2658 -0.0134
29572SOL    HW191095   9.509   7.660   7.607  0.9997 -0.0841  0.2792
29572SOL    HW291096   9.458   7.536   7.536 -0.8223  0.1935  1.0528
29573SOL     OW91097   9.585   1.074   4.719  0.2311 -0.3137  0.3025
29573SOL    HW191098   9.606   1.030   4.636 -0.4495  0.6918 -0.4311
29573SOL    HW291099   9.490   1.063   4.728  0.5088 -1.8207  1.8052
29574SOL     OW91100   4.840   8.092   1.722  0.0596 -0.1664 -0.0835
29574SOL    HW191101   4.901   8.166   1.724 -1.3152  1.4323 -4.5706
29574SOL    HW291102   4.757   8.129   1.752 -0.1249 -0.5401 -0.1334
29575SOL     OW91103   5.850   1.350   0.223 -0.1490 -0.7233  0.0721
29575SOL    HW191104   5.779   1.382   0.168  0.3180  0.9167  0.3910
29575SOL    HW291105   5.846   1.254   0.213 -1.8764 -0.6196 -0.5310
29576SOL     OW91106   6.967   2.759   1.888 -0.1670  0.1307 -0.3550
29576SOL    HW191107   6.885   2.760   1.937 -0.5469  1.6126 -0.9906
29576SOL    HW291108   7.021   2.694   1.934 -0.3897  1.6325  2.2247
29577SOL     OW91109   3.510   8.156   4.994  0.2066  0.0049  0.1722
29577SOL    HW191110   3.571   8.120   5.058  1.6607  0.5847 -0.8251
29577SOL    HW291111   3.425   8.154   5.037  1.0327 -0.2329  1.8551
29578SOL     OW91112   6.517  10.117   3.492  0.5894 -0.0536  0.5658
29578SOL    HW191113   6.581  10.075   3.434 -2.7368 -1.2749 -2.6367
29578SOL    HW291114   6.456  10.046   3.515 -0.7543  1.4211  1.7808
29579SOL     OW91115   4.325   9.228   3.276  0.4039  0.8061  0.7766
29579SOL    HW191116   4.347   9.238   3.368 -0.5195  1.5192  0.9248
29579SOL    HW291117   4.237   9.190   3.275  1.2703 -1.3441  0.1812
29580SOL     OW91118   6.589  10.703   3.464 -0.6446  0.1559  0.5118
29580SOL    HW191119   6.629  10.632   3.514 -0.2586  0.9170  1.3061
29580SOL    HW291120   6.662  10.761   3.444 -0.9932  0.4353  0.0293
29581SOL     OW91121   6.447  10.377   7.369 -0.0799 -1.2489  0.1909
29581SOL    HW191122   6.354  10.388   7.350  0.2420 -1.0876 -1.4415
29581SOL    HW291123   6.457  10.283   7.384 -0.2237 -1.5537 -1.4585
29582SOL     OW91124   1.653   4.504   7.503  0.1221  0.1446  0.1108
29582SOL    HW191125   1.706   4.429   7.477  0.7689  0.9190 -0.8647
29582SOL    HW291126   1.678   4.520   7.594  0.0488 -0.7492  0.2972
29583SOL     OW91127   7.546   6.641   8.406 -0.2467 -0.3205 -0.0792
29583SOL    HW191128   7.596   6.671   8.330  0.3423 -1.5235 -0.1857
29583SOL    HW291129   7.592   6.563   8.436 -1.5750 -0.9677  0.3471
29584SOL     OW91130   5.974   7.321   4.615 -0.1044 -0.4649  0.7956
29584SOL    HW191131   5.937   7.329   4.703 -0.9743  0.6378  0.3495
29584SOL    HW291132   6.014   7.406   4.598  1.6209 -1.2301  0.7789
29585SOL     OW91133   8.512   6.587   7.521  0.7590  0.1288  0.3208
29585SOL    HW191134   8.600   6.570   7.487  0.8171  0.2768  0.3932
29585SOL    HW291135   8.528   6.638   7.601  0.5926  0.5319  0.1018
29586SOL     OW91136   3.482   0.753   0.008  0.6008 -0.4159  0.2520
29586SOL    HW191137   3.521   0.725   0.091  1.0412  0.9886  0.5480
29586SOL    HW291138   3.448   0.841   0.026  0.1649 -0.3340 -0.8903
29587SOL     OW91139   9.004   5.286   8.114  0.0718 -0.5244 -0.1559
29587SOL    HW191140   8.916   5.297   8.076 -0.0589 -1.3222 -0.0957
29587SOL    HW291141   8.998   5.327   8.201  0.7432  2.5296 -1.4080
29588SOL     OW91142   4.236  10.470   7.057  0.2547 -0.6130 -0.4393
29588SOL    HW191143   4.148  10.469   7.018  0.3982  1.4093 -0.8837
29588SOL    HW291144   4.295  10.469   6.982  0.6278 -1.5870 -0.1452
29589SOL     OW91145   0.134   0.627   5.860  0.2101  0.4177 -0.2953
29589SOL    HW191146   0.123   0.536   5.889 -0.8550  0.4548 -0.5390
29589SOL    HW291147   0.170   0.672   5.937  0.5284 -0.1551 -0.0999
29590SOL     OW91148   8.757   0.331   9.385  0.0078 -0.0082 -0.6660
29590SOL    HW191149   8.784   0.363   9.471 -0.4609 -1.4097  0.0416
29590SOL    HW291150   8.816   0.375   9.323  0.2732  1.1122  0.3447
29591SOL     OW91151   2.289  10.037   3.942  0.3397  0.2813 -0.5170
29591SOL    HW191152   2.310  10.020   4.034 -1.0973  0.3826 -0.1380
29591SOL    HW291153   2.281  10.133   3.937 -0.8141  0.2064 -0.4273
29592SOL     OW91154   8.018   9.797   8.768 -0.0976 -0.5493 -0.3796
29592SOL    HW191155   8.061   9.738   8.706 -0.2908 -0.0447 -1.0149
29592SOL    HW291156   8.088   9.848   8.807  0.1157 -1.4837  0.4963
29593SOL     OW91157   2.952   9.363   0.761  0.0071  0.0590 -0.2885
29593SOL    HW191158   2.919   9.406   0.682  1.0475  1.1564 -0.1652
29593SOL    HW291159   2.895   9.287   0.773  0.2741 -0.5581 -2.5105
29594SOL     OW91160   9.015   0.592   7.841 -0.0146 -0.2152 -0.3940
29594SOL    HW191161   9.037   0.564   7.752  0.0182 -0.8414 -0.1931
29594SOL    HW291162   8.965   0.518   7.877 -0.7472  0.3759 -0.1803
29595SOL     OW91163   6.683   1.645   3.194 -0.2040  0.0462 -0.1712
29595SOL    HW191164   6.678   1.740   3.186 -0.7234  0.2622  1.9976
29595SOL    HW291165   6.712   1.630   3.284  1.4011 -1.8552 -0.9235
29596SOL     OW91166   5.169   0.413   1.736 -0.0900 -0.4719 -0.3134
29596SOL    HW191167   5.191   0.322   1.757  2.1221  0.3914  1.6106
29596SOL    HW291168   5.254   0.454   1.716 -1.0121  1.2224 -1.0065
29597SOL     OW91169   1.739   5.274   6.794 -0.1505 -0.0282  0.1188
29597SOL    HW191170   1.654   5.317   6.784 -0.7534 -1.1905 -0.0335
29597SOL    HW291171   1.732   5.196   6.739  1.3308  0.2888 -0.5520
29598SOL     OW91172   8.902   3.538   6.865  0.1543  0.1348 -0.5702
29598SOL    HW191173   8.844   3.472   6.903 -0.8078  0.9964 -0.4696
29598SOL    HW291174   8.948   3.575   6.941  0.1264  0.0974 -0.5346
29599SOL     OW91175   5.567   9.538  10.786 -0.3097 -0.6224 -0.4912
29599SOL    HW191176   5.573   9.630  10.759  1.4511 -1.1944 -2.2768
29599SOL    HW291177   5.658   9.508  10.789 -0.6210 -1.6214  2.8684
29600SOL     OW91178   9.343   1.616   8.150 -0.4128 -0.0278  0.1352
29600SOL    HW191179   9.412   1.679   8.130  1.1084 -2.1050 -1.6289
29600SOL    HW291180   9.335   1.617   8.245  0.5513  1.7804  0.2265
29601SOL     OW91181   4.724   3.584   5.558  0.5714  0.5275 -0.0659
29601SOL    HW191182   4.741   3.604   5.650 -0.9872 -1.9511  0.8765
29601SOL    HW291183   4.665   3.653   5.529  0.3953  0.8702  1.0719
29602SOL     OW91184   3.872   1.186   3.547 -0.1550 -0.2576 -0.5059
29602SOL    HW191185   3.873   1.135   3.466  1.8051 -2.0168  0.5246
29602SOL    HW291186   3.930   1.260   3.530  0.9558 -1.0927 -0.4890
29603SOL     OW91187   7.829  10.181   2.364  0.1459  0.1558 -0.3314
29603SOL    HW191188   7.917  10.146   2.350 -0.1534 -1.4239  1.2943
29603SOL    HW291189   7.772  10.124   2.312 -0.1874 -0.9672  1.1566
29604SOL     OW91190   4.174  10.330   2.729 -0.2133 -0.4641  0.6096
29604SOL    HW191191   4.238  10.259   2.736 -1.1427 -1.3475  0.3303
29604SOL    HW291192   4.209  10.386   2.660  2.0998  1.0592  2.8495
29605SOL     OW91193   2.324   3.532   6.381 -0.0417 -0.2893 -0.2667
29605SOL    HW191194   2.393   3.497   6.437 -0.6301 -0.3917  0.4124
29605SOL    HW291195   2.365   3.604   6.333  1.2865 -2.0094 -1.8838
29606SOL     OW91196   5.462   3.040   1.940  0.4775 -0.2362 -0.1971
29606SOL    HW191197   5.456   3.006   2.029 -0.6551 -0.2797 -0.2707
29606SOL    HW291198   5.469   2.963   1.885 -1.4321 -0.3672 -0.3158
29607SOL     OW91199   9.475   9.834   1.023  0.0752  0.6199 -0.0399
29607SOL    HW191200   9.476   9.751   1.072 -1.5438  1.0030  0.6839
29607SOL    HW291201   9.525   9.894   1.079 -2.4450  1.2785  1.6676
29608SOL     OW91202   5.141   4.628   9.746  0.0132  0.0283  0.3647
29608SOL    HW191203   5.084   4.560   9.709  0.2467 -0.2011  0.4247
29608SOL    HW291204   5.229   4.605   9.716  0.1851 -0.0711  0.9287
29609SOL     OW91205   8.289   8.880   4.487 -0.0484 -0.9245  0.0569
29609SOL    HW191206   8.250   8.938   4.552  1.7644  0.2359  0.1868
29609SOL    HW291207   8.217   8.858   4.428 -1.1769  0.0176  1.0251
29610SOL     OW91208   7.554   9.053   5.342 -0.3640 -0.8892 -0.3026
29610SOL    HW191209   7.615   9.091   5.279 -0.7040 -1.4393 -0.9722
29610SOL    HW291210   7.489   9.122   5.358 -1.3920 -1.3753 -2.0630
29611SOL     OW91211   2.515   5.757   1.324  0.1895 -0.1565  0.1602
29611SOL    HW191212   2.565   5.787   1.248  1.5196 -2.5291  0.0069
29611SOL    HW291213   2.432   5.725   1.287  1.1928 -2.1709 -0.5362
29612SOL     OW91214  10.202   5.051   4.228  0.4261 -0.5073 -0.0068
29612SOL    HW191215  10.159   5.009   4.154 -0.0273  1.3012 -0.8145
29612SOL    HW291216  10.271   5.105   4.189 -0.9277  1.8438  0.6536
29613SOL     OW91217   7.764   4.175  10.349  0.4462  0.0014 -0.2643
29613SOL    HW191218   7.836   4.155  10.289 -0.6606 -0.4953 -1.4715
29613SOL    HW291219   7.747   4.093  10.395 -0.0326 -0.1678 -0.7390
29614SOL     OW91220   8.900   6.759   9.650  0.5059 -0.2250  0.3177
29614SOL    HW191221   8.937   6.815   9.582 -2.3497  0.4079 -0.9082
29614SOL    HW291222   8.907   6.671   9.614  0.5012 -0.0671 -0.0862
29615SOL     OW91223   9.980   9.192   4.757  0.6737  0.4645  0.9466
29615SOL    HW191224  10.015   9.253   4.822  0.1696  1.7789  0.0170
29615SOL    HW291225   9.973   9.243   4.677 -1.3606 -0.3517  0.5553
29616SOL     OW91226   3.343   7.564   6.824  0.2019  0.0723  0.3119
29616SOL    HW191227   3.396   7.598   6.752 -1.1883 -0.3928 -0.9942
29616SOL    HW291228   3.258   7.545   6.784  0.1131 -2.5016  1.5185
29617SOL     OW91229   0.639   9.020   3.211 -0.5431 -0.3496  0.2004
29617SOL    HW191230   0.665   9.079   3.282 -1.8888  0.9145 -0.3021
29617SOL    HW291231   0.722   8.994   3.170  0.1073  1.0690  0.5468
29618SOL     OW91232   7.083   4.890   4.384 -0.3167 -0.0149  0.5419
29618SOL    HW191233   7.004   4.842   4.409  0.1256 -1.0090  0.0640
29618SOL    HW291234   7.142   4.882   4.459 -0.1967 -0.3164  0.4143
29619SOL     OW91235   5.671   2.326   2.273  0.3035  0.3036  0.1770
29619SOL    HW191236   5.761   2.356   2.282  0.1663  0.7809  0.0068
29619SOL    HW291237   5.653   2.278   2.354  0.2619  1.3989  0.8441
29620SOL     OW91238   1.886   7.174   7.464 -0.2292 -0.6638  0.1034
29620SOL    HW191239   1.954   7.181   7.531  1.3780 -0.8505 -1.4260
29620SOL    HW291240   1.932   7.188   7.382 -2.1536 -0.3420 -0.9874
29621SOL     OW91241   7.589   4.205   7.084  0.0467  0.3494 -0.7004
29621SOL    HW191242   7.596   4.145   7.010  0.3350  0.3340 -0.6640
29621SOL    HW291243   7.679   4.217   7.114  0.0287  1.0395 -0.8981
29622SOL     OW91244  10.592   8.137   4.521 -0.0877  0.1346 -0.2155
29622SOL    HW191245  10.595   8.139   4.616  1.4512 -1.9058 -0.1436
29622SOL    HW291246  10.679   8.167   4.494 -1.3231  3.2654 -1.1666
29623SOL     OW91247   3.964   1.842   2.836  0.3823  0.2150  0.1496
29623SOL    HW191248   4.027   1.818   2.769  0.1039 -0.4658  0.1249
29623SOL    HW291249   3.937   1.759   2.875 -0.3606  0.5107  0.2882
29624SOL     OW91250   1.023   3.962   0.657  0.0496  0.0333  0.0676
29624SOL    HW191251   0.989   4.006   0.579 -2.1892  1.1216  1.5535
29624SOL    HW291252   0.999   3.870   0.645 -3.2958  0.6662  0.8099
29625SOL     OW91253   3.349   3.854   1.393 -0.2871 -0.2103  0.3344
29625SOL    HW191254   3.259   3.876   1.418  0.3062  1.4886  1.2043
29625SOL    HW291255   3.347   3.849   1.298 -1.2467  0.1286  0.3182
29626SOL     OW91256   4.913  10.163   5.399  0.0690  0.4480  0.3853
29626SOL    HW191257   4.957  10.117   5.470 -1.3725 -0.7181  0.5707
29626SOL    HW291258   4.870  10.094   5.348  0.7563  1.2978 -1.4117
29627SOL     OW91259   3.302   5.969   0.186 -0.2156 -1.0633  0.3510
29627SOL    HW191260   3.296   5.876   0.206  0.7808 -1.2843 -0.2643
29627SOL    HW291261   3.396   5.989   0.195 -0.4425 -0.0794  0.6505
29628SOL     OW91262   8.780   9.105   3.918  0.4999  0.0705 -0.3567
29628SOL    HW191263   8.748   9.015   3.920  1.4347 -0.2949 -1.0000
29628SOL    HW291264   8.728   9.148   3.850 -1.8260  0.8019  1.7566
29629SOL     OW91265   4.867   6.903   1.168 -0.3035  0.6692  0.5536
29629SOL    HW191266   4.923   6.870   1.098 -1.2761  1.3326 -0.5775
29629SOL    HW291267   4.799   6.836   1.178  1.8527 -1.3672  3.6020
29630SOL     OW91268   9.887  10.029   3.230  0.0494 -0.3394 -0.1781
29630SOL    HW191269   9.956   9.965   3.210  0.9121  0.3915  0.3721
29630SOL    HW291270   9.822  10.017   3.161 -1.2041 -3.6892  1.3590
29631SOL     OW91271   5.507   4.899   3.494  0.7376  0.4033  0.3588
29631SOL    HW191272   5.443   4.838   3.457  1.2668  0.3184 -0.4507
29631SOL    HW291273   5.462   4.939   3.568 -0.1603  0.1423 -0.0277
29632SOL     OW91274   0.292   6.307   4.871 -0.3343 -0.3875 -0.4123
29632SOL    HW191275   0.208   6.306   4.826 -0.5561  0.4302 -0.0327
29632SOL    HW291276   0.355   6.336   4.804 -0.5940  0.4065 -0.3246
29633SOL     OW91277   2.708   2.397   2.515 -0.5004  0.1259  0.0957
29633SOL    HW191278   2.751   2.312   2.502 -0.3968 -0.2017  2.2468
29633SOL    HW291279   2.623   2.388   2.472  0.5541 -0.0710 -2.0859
29634SOL     OW91280   6.413   9.285   9.660 -0.0764  0.2420 -0.3387
29634SOL    HW191281   6.452   9.347   9.598  0.5977  0.3094  0.1433
29634SOL    HW291282   6.346   9.240   9.609 -2.3332  3.0401 -0.1260
29635SOL     OW91283   6.970   2.777   4.645 -0.2640 -0.3166 -0.5077
29635SOL    HW191284   6.896   2.738   4.599 -0.3574  0.9038 -1.4583
29635SOL    HW291285   6.942   2.867   4.665  0.8411  0.0796 -0.6286
29636SOL     OW91286   3.618   4.360   5.290 -0.6377 -0.2407  0.0453
29636SOL    HW191287   3.575   4.446   5.284  0.5948  0.3871  0.0649
29636SOL    HW291288   3.704   4.374   5.251 -0.5322 -1.5504 -0.2093
29637SOL     OW91289  10.151   2.053   9.555  0.0226  0.1175 -0.3125
29637SOL    HW191290  10.106   2.138   9.558  2.5104  1.4984  0.4296
29637SOL    HW291291  10.131   2.013   9.639 -2.1100 -0.6367 -1.1026
29638SOL     OW91292   7.257   8.784  10.739 -0.1997  0.1303 -0.1948
29638SOL    HW191293   7.168   8.810  10.715  0.2255  1.1458 -0.7222
29638SOL    HW291294   7.276   8.708  10.683 -1.1641 -0.8876  0.7995
29639SOL     OW91295   0.496   2.919   1.681 -0.0891 -0.6289  0.3790
29639SOL    HW191296   0.468   3.010   1.671  0.3099 -0.5843 -0.5348
29639SOL    HW291297   0.474   2.879   1.597  0.8554 -1.0495  0.3182
29640SOL     OW91298   1.282   1.042   1.161 -0.0484  0.1276 -0.1243
29640SOL    HW191299   1.351   1.076   1.106 -1.4148  2.4312 -0.5248
29640SOL    HW291300   1.294   1.086   1.246  1.3340 -2.5068  1.1827
29641SOL     OW91301   5.464   4.331   2.303 -0.0650  0.2769  0.5168
29641SOL    HW191302   5.454   4.363   2.393 -0.2208 -1.4119  1.1317
29641SOL    HW291303   5.558   4.340   2.285 -0.2046  1.7114  0.3933
29642SOL     OW91304   9.452   3.281   2.157 -0.2591 -0.0123  0.1968
29642SOL    HW191305   9.517   3.214   2.176 -0.7661 -0.4591  0.3618
29642SOL    HW291306   9.410   3.299   2.241 -1.4710 -0.9115 -0.1885
29643SOL     OW91307   4.134   4.721   0.321  0.6572  0.0525  0.3734
29643SOL    HW191308   4.110   4.814   0.326 -0.0887 -0.1314  0.2946
29643SOL    HW291309   4.225   4.719   0.352 -0.3827  0.3746  3.9677
29644SOL     OW91310   1.456   9.300  10.616  0.0743  0.1150  0.2583
29644SOL    HW191311   1.479   9.295  10.523  0.5957  0.0528  0.3890
29644SOL    HW291312   1.515   9.366  10.652  0.2411 -0.2508  0.6600
29645SOL     OW91313   7.452   3.088   8.236 -0.0930 -0.5554  0.5256
29645SOL    HW191314   7.468   3.039   8.155 -1.8198  0.5550 -0.5550
29645SOL    HW291315   7.518   3.056   8.296  1.6021 -1.0532 -1.4817
29646SOL     OW91316   8.897   5.777   3.430 -0.5314 -0.0044  0.3419
29646SOL    HW191317   8.897   5.829   3.350 -0.9118  0.5109  0.6740
29646SOL    HW291318   8.869   5.690   3.401  0.9650 -0.2717 -0.3619
29647SOL     OW91319   3.335   4.466   2.591  0.6471 -0.1872  0.8312
29647SOL    HW191320   3.378   4.386   2.560 -2.1190 -1.2247 -0.6810
29647SOL    HW291321   3.307   4.446   2.680 -0.5132 -1.1575  0.2687
29648SOL     OW91322   5.999   1.096   7.471  0.3569  0.2902 -0.4351
29648SOL    HW191323   6.007   1.099   7.566  0.6628  1.8592 -0.4858
29648SOL    HW291324   5.984   1.003   7.451  0.4711 -0.0877  1.1123
29649SOL     OW91325   5.994   1.220   5.129  0.1123  0.5748  0.4699
29649SOL    HW191326   5.937   1.143   5.129 -0.1689  0.7384 -1.3904
29649SOL    HW291327   6.039   1.217   5.045  2.6228  0.6609  1.7094
29650SOL     OW91328   2.018   4.138   2.240 -0.0556 -0.5139 -0.4038
29650SOL    HW191329   2.003   4.221   2.285 -0.5898 -1.3568  1.0680
29650SOL    HW291330   2.003   4.157   2.147  0.8487  1.2443 -0.2336
29651SOL     OW91331   9.226   1.427   0.765  0.3547 -0.2121  0.8820
29651SOL    HW191332   9.286   1.367   0.809  1.2361  0.4042  0.5461
29651SOL    HW291333   9.282   1.476   0.704 -0.6341 -0.2206 -0.0579
29652SOL     OW91334   5.558   3.751   3.234 -0.5564 -0.0145  0.3702
29652SOL    HW191335   5.514   3.681   3.282 -2.2067  2.1656  2.2553
29652SOL    HW291336   5.491   3.818   3.222  1.4472  2.1364  0.5115
29653SOL     OW91337   6.918   6.816   4.614 -0.0909  0.4966  0.3251
29653SOL    HW191338   6.840   6.772   4.579  0.1842 -0.1975  0.5704
29653SOL    HW291339   6.986   6.802   4.548 -0.4294  2.0128 -0.4000
29654SOL     OW91340   9.788   3.246  10.494 -0.3300 -0.3206  0.5542
29654SOL    HW191341   9.765   3.252  10.401 -1.2202 -0.1677  0.7796
29654SOL    HW291342   9.749   3.163  10.523  0.5824 -0.7351  0.6218
29655SOL     OW91343   0.106   6.150  10.729  0.1892  0.1294 -0.3559
29655SOL    HW191344   0.039   6.138  10.796 -0.5460  0.2259 -1.0628
29655SOL    HW291345   0.186   6.114  10.769 -0.6378 -1.5967 -0.1331
29656SOL     OW91346   9.708   3.415   2.990  0.6869  0.3533 -0.5545
29656SOL    HW191347   9.638   3.479   3.002  1.3398  0.6556  2.3715
29656SOL    HW291348   9.788   3.467   2.997  1.2124 -0.5063 -0.0773
29657SOL     OW91349   7.415   3.607   8.805 -0.3182  0.9230 -0.0719
29657SOL    HW191350   7.363   3.528   8.795 -0.5869  1.0601  0.2197
29657SOL    HW291351   7.356   3.679   8.782 -0.5881  1.1548  1.2298
29658SOL     OW91352   2.580   3.712   2.847  0.4384 -0.2053  0.2582
29658SOL    HW191353   2.657   3.760   2.816  1.5005 -0.5278  2.1974
29658SOL    HW291354   2.614   3.624   2.868 -0.8883 -0.9633 -0.6430
29659SOL     OW91355  10.225   4.536   1.833  0.5045  0.4093  0.4211
29659SOL    HW191356  10.239   4.523   1.926  1.6777 -1.2267  0.0641
29659SOL    HW291357  10.313   4.548   1.797  0.2006 -0.3837 -0.6479
29660SOL     OW91358   7.213   6.090   2.045 -0.5188 -0.5442 -0.5428
29660SOL    HW191359   7.220   6.132   2.131  0.6528  0.3731 -1.0459
29660SOL    HW291360   7.279   6.021   2.047  1.1125  0.9233 -1.4477
29661SOL     OW91361   2.944   4.745  10.372  0.3357  0.0606  0.0526
29661SOL    HW191362   2.974   4.699  10.293  1.2805  1.3142 -0.3558
29661SOL    HW291363   2.850   4.727  10.376  0.4292 -0.7156 -0.8904
29662SOL     OW91364   0.810   5.722   0.944  0.0862 -0.1940  0.2960
29662SOL    HW191365   0.849   5.706   0.859  0.3014 -1.4951  0.6162
29662SOL    HW291366   0.884   5.735   1.003 -0.0671  1.3297  0.2055
29663SOL     OW91367   8.995   8.144   5.231  0.1732  0.2535  0.3423
29663SOL    HW191368   8.935   8.127   5.304 -0.7995  1.2857 -0.1758
29663SOL    HW291369   8.938   8.169   5.159  1.1553 -0.2290 -0.6284
29664SOL     OW91370   7.929   6.372   6.639  0.0879 -0.4448 -0.5368
29664SOL    HW191371   7.970   6.298   6.595  0.5944 -0.2221 -0.4435
29664SOL    HW291372   7.999   6.411   6.691 -0.0141  0.5035 -1.1013
29665SOL     OW91373   0.207   7.278   8.782  0.3055  0.0954 -0.3602
29665SOL    HW191374   0.182   7.328   8.859  0.2241 -0.6454  0.1122
29665SOL    HW291375   0.302   7.273   8.785  0.4962  2.0573 -1.6072
29666SOL     OW91376   7.891   8.512   5.176 -0.0325 -0.1933  0.7993
29666SOL    HW191377   7.963   8.452   5.194  0.8959  0.8489  0.7093
29666SOL    HW291378   7.923   8.566   5.104 -1.6837 -0.9620 -0.5700
29667SOL     OW91379   0.714   1.219   9.674 -0.5423 -0.2565 -0.3980
29667SOL    HW191380   0.626   1.190   9.698  0.0834 -0.1215  2.3451
29667SOL    HW291381   0.772   1.172   9.733  1.0038  1.7398 -0.2166
29668SOL     OW91382   7.579   7.829   5.497  0.1801  0.5586  0.2031
29668SOL    HW191383   7.486   7.838   5.478  0.4643 -0.3324 -1.9415
29668SOL    HW291384   7.587   7.743   5.539  0.1678 -0.1488 -1.1560
29669SOL     OW91385   2.335   0.050   2.288 -0.9901  0.4509 -0.0578
29669SOL    HW191386   2.379   0.034   2.371 -1.1255 -1.1088 -0.2494
29669SOL    HW291387   2.332   0.145   2.280  0.0901  0.6170  1.1483
29670SOL     OW91388   3.619   0.077   1.536 -0.5724  0.2881  0.3289
29670SOL    HW191389   3.681   0.007   1.512  0.2752  0.8109  0.9157
29670SOL    HW291390   3.621   0.137   1.462  0.0052  0.5497  0.5508
29671SOL     OW91391   8.657   6.230   6.057 -0.2709  0.0590 -0.0551
29671SOL    HW191392   8.639   6.137   6.046 -0.7278 -0.0877  1.7016
29671SOL    HW291393   8.574   6.267   6.088 -0.4487  1.3028 -1.8404
29672SOL     OW91394   1.212   9.962   4.814  0.2587 -0.4517 -0.3129
29672SOL    HW191395   1.122   9.947   4.843  0.2141  0.6857  0.1802
29672SOL    HW291396   1.250   9.874   4.808 -1.1890 -1.0477 -1.6030
29673SOL     OW91397   0.374   0.769   4.883 -0.3527  0.1280  0.8225
29673SOL    HW191398   0.404   0.756   4.973  2.3620 -2.2063 -0.2691
29673SOL    HW291399   0.340   0.683   4.856 -2.7156  1.2136  0.0737
29674SOL     OW91400   8.638   7.766   1.782 -0.0094  0.5548  1.3817
29674SOL    HW191401   8.664   7.720   1.863  1.4114 -0.3049  0.4895
29674SOL    HW291402   8.714   7.756   1.724  0.4212  4.1478  1.1249
29675SOL     OW91403   0.327   4.556   7.546 -0.2778  0.0198  0.2827
29675SOL    HW191404   0.272   4.629   7.575 -0.3343  0.8397 -1.7341
29675SOL    HW291405   0.268   4.481   7.547 -0.5511  0.2286  1.2173
29676SOL     OW91406   6.526   3.379   0.168 -0.2749  0.1909 -0.1324
29676SOL    HW191407   6.587   3.436   0.120 -1.1834 -0.4190 -2.1232
29676SOL    HW291408   6.582   3.330   0.228  0.9255  0.9777 -0.5651
29677SOL     OW91409  10.461   8.656   1.043 -0.0179  0.0220  0.2082
29677SOL    HW191410  10.463   8.579   0.986 -0.6962  0.3700 -0.3102
29677SOL    HW291411  10.368   8.669   1.062  0.2487 -0.8264  2.4422
29678SOL     OW91412   2.992   6.883   0.169 -0.7483  0.7686  0.5938
29678SOL    HW191413   2.976   6.857   0.260 -0.6976 -0.0022  0.3911
29678SOL    HW291414   3.005   6.801   0.123  1.1845  1.2371  0.2366
29679SOL     OW91415   1.701   4.244   8.697 -0.3551  0.1352 -0.0012
29679SOL    HW191416   1.631   4.304   8.669  0.3107  0.3404 -1.3256
29679SOL    HW291417   1.754   4.296   8.757  0.1468  0.8799 -1.0441
29680SOL     OW91418   4.337   2.106   7.729  0.1486  0.0114  0.6617
29680SOL    HW191419   4.326   2.083   7.637  1.0713  1.4274  0.1669
29680SOL    HW291420   4.399   2.179   7.729 -0.7931  0.8856  2.3059
29681SOL     OW91421   5.280   3.777   2.411  0.2007 -0.8806 -0.2848
29681SOL    HW191422   5.192   3.803   2.439  0.5346 -1.0224  0.9465
29681SOL    HW291423   5.339   3.835   2.460  0.8124 -1.2384 -0.5867
29682SOL     OW91424   5.764   8.013   0.114  0.2454  0.2331  0.4707
29682SOL    HW191425   5.848   7.969   0.126  0.6951  1.2130  0.9347
29682SOL    HW291426   5.728   7.974   0.034  0.4609 -1.2326  1.0436
29683SOL     OW91427   0.825   0.716   7.287  0.1235  0.6190  0.3206
29683SOL    HW191428   0.888   0.649   7.259 -0.3906  0.2861 -0.0635
29683SOL    HW291429   0.865   0.755   7.365  0.8023  0.4133  0.0880
29684SOL     OW91430   3.303   0.229   2.177 -0.5960  0.5172 -0.7370
29684SOL    HW191431   3.373   0.271   2.127  0.6986 -0.1749  0.4046
29684SOL    HW291432   3.303   0.274   2.261 -0.1657 -0.7574 -0.0221
29685SOL     OW91433   5.253   2.440   4.808 -0.3522 -0.4111 -0.2182
29685SOL    HW191434   5.266   2.388   4.887 -0.9775  1.7022  1.3553
29685SOL    HW291435   5.158   2.449   4.800 -0.2614  2.1641  0.7850
29686SOL     OW91436   8.530   7.533   7.069 -0.0842 -0.5112  0.5623
29686SOL    HW191437   8.543   7.627   7.082 -1.2329 -0.2553 -0.0257
29686SOL    HW291438   8.541   7.495   7.156  1.3009  0.0439  0.6520
29687SOL     OW91439   1.094   4.251   0.292  0.7682 -0.2599  0.2043
29687SOL    HW191440   1.178   4.282   0.327  1.1758 -0.6309 -0.4185
29687SOL    HW291441   1.063   4.322   0.236  1.7338 -0.9589 -1.2754
29688SOL     OW91442   8.367   4.899   2.157  0.7889 -0.3468  0.1230
29688SOL    HW191443   8.370   4.976   2.213 -1.5683  0.6452 -0.9929
29688SOL    HW291444   8.459   4.875   2.144  1.4927  0.3139  3.0299
29689SOL     OW91445   7.703   0.387  10.426 -0.5515 -0.1897 -0.1118
29689SOL    HW191446   7.638   0.362  10.361 -1.1001  0.8100  0.0308
29689SOL    HW291447   7.776   0.424  10.375  0.2129 -1.8832 -0.3147
29690SOL     OW91448   7.487   3.284   3.929  0.5817 -0.5648 -0.2340
29690SOL    HW191449   7.399   3.287   3.965 -0.5144 -1.8792 -2.6024
29690SOL    HW291450   7.539   3.240   3.996 -0.2520  1.1766  1.6637
29691SOL     OW91451   1.719   1.361   3.034  0.1778  0.1988 -0.0675
29691SOL    HW191452   1.673   1.359   3.118 -0.1742  0.7463 -0.2434
29691SOL    HW291453   1.655   1.327   2.971 -0.1341  1.3411 -0.3785
29692SOL     OW91454   6.658   3.522   3.306  0.0349  0.0318 -0.3592
29692SOL    HW191455   6.598   3.464   3.353 -0.4946  0.4738 -0.4775
29692SOL    HW291456   6.744   3.501   3.342 -0.3527  0.3324  0.7785
29693SOL     OW91457   3.384   7.056   5.574 -0.0713  0.4363 -0.6090
29693SOL    HW191458   3.473   7.081   5.601  0.1503  0.4073 -1.3080
29693SOL    HW291459   3.342   7.029   5.656  0.1746  1.6071 -0.0705
29694SOL     OW91460   5.994   0.606   2.988 -0.2439  0.4079  0.1381
29694SOL    HW191461   5.947   0.689   2.974 -0.6102  0.6002  2.1065
29694SOL    HW291462   6.004   0.568   2.901 -2.0561  1.4588 -0.5737
29695SOL     OW91463   9.564   6.745   2.774 -0.0022  0.4800 -0.4104
29695SOL    HW191464   9.521   6.794   2.704  0.1973  0.7390 -0.3495
29695SOL    HW291465   9.563   6.654   2.744 -3.2928 -0.0544  0.8437
29696SOL     OW91466   0.356   0.641   5.253  0.6357 -0.0410 -0.0298
29696SOL    HW191467   0.333   0.589   5.176 -1.3277  0.5930  0.0814
29696SOL    HW291468   0.440   0.682   5.230  0.1603  0.0207 -1.7741
29697SOL     OW91469   1.209   2.339   5.096 -0.0911 -0.0392 -0.9566
29697SOL    HW191470   1.249   2.271   5.149 -0.3195 -0.0020 -0.7331
29697SOL    HW291471   1.118   2.343   5.126  0.5626  2.3265  1.1141
29698SOL     OW91472   5.699   9.763   3.014  0.1275 -0.3863 -0.1469
29698SOL    HW191473   5.784   9.792   2.980 -0.0284  0.4866  0.1740
29698SOL    HW291474   5.638   9.832   2.988 -0.1879 -0.2049  1.0095
29699SOL     OW91475   7.300   0.442   2.336  0.2662 -0.0022 -0.5122
29699SOL    HW191476   7.318   0.533   2.359  0.1975 -0.0705 -0.1856
29699SOL    HW291477   7.243   0.448   2.259 -1.2091  0.2644  0.5486
29700SOL     OW91478  10.182   0.647   2.469  0.3194 -0.1604 -0.4218
29700SOL    HW191479  10.261   0.633   2.521 -0.5639  0.3021  1.0958
29700SOL    HW291480  10.157   0.560   2.440  2.0451 -0.2047 -1.9870
29701SOL     OW91481   7.726   4.473   9.472 -0.3248  0.4365 -0.5585
29701SOL    HW191482   7.742   4.506   9.560 -0.1135  0.4264 -0.5919
29701SOL    HW291483   7.783   4.396   9.464 -1.9606 -0.9158  0.0841
29702SOL     OW91484   9.232   7.198   1.447 -0.0119  0.5417 -0.1112
29702SOL    HW191485   9.317   7.218   1.409 -0.6499  2.9468 -0.4638
29702SOL    HW291486   9.239   7.225   1.538 -0.1183 -0.1497  0.1049
29703SOL     OW91487   0.855   6.211  10.114  0.0922 -0.2088  0.2148
29703SOL    HW191488   0.888   6.169  10.034 -0.7219 -0.9600  0.2556
29703SOL    HW291489   0.868   6.304  10.098  0.3637 -0.3694 -0.6078
29704SOL     OW91490   9.726   6.115   9.372  0.6101  0.3394 -0.3241
29704SOL    HW191491   9.719   6.096   9.465  0.8679 -0.4725 -0.4597
29704SOL    HW291492   9.773   6.040   9.335  1.2299  1.0246 -0.9802
29705SOL     OW91493   3.684   6.509   0.472  0.2093  0.6428 -0.0148
29705SOL    HW191494   3.738   6.534   0.547 -0.6942 -3.1207  2.1892
29705SOL    HW291495   3.594   6.512   0.506 -0.3069 -0.3029 -1.2315
29706SOL     OW91496   5.351   8.219   3.932  0.2149  0.0330  0.2640
29706SOL    HW191497   5.444   8.220   3.953  0.0561 -1.0005  1.0549
29706SOL    HW291498   5.314   8.289   3.987  0.8022  1.9139 -1.5991
29707SOL     OW91499   5.420   1.829   9.912  0.1653  0.1399  0.3062
29707SOL    HW191500   5.414   1.734   9.917  0.9916  0.1050  3.7118
29707SOL    HW291501   5.511   1.848   9.935  0.4942  1.7542 -2.0262
29708SOL     OW91502   4.708   3.283  10.174 -0.2517 -0.0871  0.2938
29708SOL    HW191503   4.616   3.273  10.198 -0.5020  0.3608 -0.4602
29708SOL    HW291504   4.722   3.377  10.169  0.3215 -0.1443  0.6524
29709SOL     OW91505   1.855   0.658   9.672 -0.0268  0.6185  0.0557
29709SOL    HW191506   1.936   0.653   9.722  0.5356  0.1757 -0.8586
29709SOL    HW291507   1.875   0.612   9.590 -0.5044  2.3939 -1.1122
29710SOL     OW91508  10.625  10.067   8.631  0.0123  0.6054  0.3891
29710SOL    HW191509  10.717  10.091   8.623  0.2704  0.1254  1.7418
29710SOL    HW291510  10.609  10.060   8.725 -0.6576 -2.1273  0.1499
29711SOL     OW91511   8.594   2.123   4.608 -0.7074 -0.5532  0.2591
29711SOL    HW191512   8.618   2.102   4.518 -0.6742 -1.6869  0.5289
29711SOL    HW291513   8.592   2.219   4.610 -1.5672 -0.5186 -1.1775
29712SOL     OW91514   7.251   2.077   1.650 -0.0803 -0.1205  0.0771
29712SOL    HW191515   7.325   2.043   1.701  0.1974  1.5151  0.8469
29712SOL    HW291516   7.180   2.086   1.714  0.4303  2.4455  0.3849
29713SOL     OW91517   4.801   3.539  10.265 -1.0089 -0.3415 -0.2574
29713SOL    HW191518   4.879   3.487  10.283 -0.1979  1.4180  1.8712
29713SOL    HW291519   4.770   3.566  10.352 -3.2290  0.1139 -1.1203
29714SOL     OW91520   3.025   9.337   1.678 -0.2978 -0.6394  0.4719
29714SOL    HW191521   3.090   9.342   1.607 -1.3166 -1.3730 -0.5467
29714SOL    HW291522   3.057   9.267   1.735 -0.2760 -1.1272 -0.1242
29715SOL     OW91523   1.535   6.271   2.773 -0.5410  0.0597 -0.2975
29715SOL    HW191524   1.542   6.184   2.812  1.7195  0.2259 -0.2059
29715SOL    HW291525   1.466   6.315   2.822 -0.4041 -1.0493  0.9181
29716SOL     OW91526   8.327  10.135   5.723 -0.3679 -0.3508 -0.3712
29716SOL    HW191527   8.398  10.172   5.671  0.7613 -1.0627  0.6067
29716SOL    HW291528   8.252  10.191   5.705  0.3526  0.2499 -1.6589
29717SOL     OW91529   3.235   7.972   0.367 -0.1629  0.0525  0.6929
29717SOL    HW191530   3.207   7.964   0.458 -0.7689 -1.4226  0.4127
29717SOL    HW291531   3.283   7.891   0.350  0.6108  0.6633 -0.0740
29718SOL     OW91532   3.005   4.485   3.518 -0.4321 -0.3066 -0.2196
29718SOL    HW191533   3.040   4.400   3.493 -0.5877 -0.1692 -0.9258
29718SOL    HW291534   2.910   4.476   3.509 -0.4192  0.0934 -0.8111
29719SOL     OW91535   3.876   6.555   4.787 -0.0340 -0.4686  0.2309
29719SOL    HW191536   3.963   6.570   4.750 -0.5113  1.3020 -0.2685
29719SOL    HW291537   3.859   6.633   4.841 -2.1471  0.2935 -1.3839
29720SOL     OW91538   8.583   2.177   8.499  0.3186  0.8446  0.0597
29720SOL    HW191539   8.604   2.146   8.411  0.8170 -1.3276  0.8930
29720SOL    HW291540   8.494   2.146   8.516  0.5970  0.3717  0.6939
29721SOL     OW91541   2.317   3.139   9.181  0.3266 -0.2722  0.7303
29721SOL    HW191542   2.329   3.176   9.269 -2.2159  0.8751  0.6680
29721SOL    HW291543   2.233   3.094   9.185 -0.9374  1.6959 -1.6645
29722SOL     OW91544   6.798   4.731  10.258 -0.1279  0.5451 -0.8675
29722SOL    HW191545   6.713   4.686  10.259 -0.3848  1.0218 -0.8036
29722SOL    HW291546   6.775   4.824  10.257  0.3966  0.6730 -1.0091
29723SOL     OW91547   6.503   0.805   9.064 -0.3275  0.2450  0.1347
29723SOL    HW191548   6.436   0.739   9.045  0.8519 -0.9800  0.0656
29723SOL    HW291549   6.523   0.794   9.157 -0.9147  1.3012  0.4083
29724SOL     OW91550   1.684   4.298   5.294 -0.5214 -0.0511 -0.2417
29724SOL    HW191551   1.674   4.280   5.200  1.1013 -1.0077 -0.2773
29724SOL    HW291552   1.779   4.310   5.305  0.1400 -4.9612  2.0411
29725SOL     OW91553   1.054   4.111   6.663 -0.2708 -0.7120  0.5378
29725SOL    HW191554   0.998   4.175   6.619  0.0551  0.4859  1.8128
29725SOL    HW291555   0.993   4.054   6.710 -0.4902 -0.0896  1.0234
29726SOL     OW91556   1.103   3.434   2.431 -0.1882  0.3303  0.2043
29726SOL    HW191557   1.141   3.448   2.344  2.1283 -0.1236  1.0685
29726SOL    HW291558   1.179   3.421   2.488 -1.6972 -2.1774  1.8217
29727SOL     OW91559  10.279   3.478   8.185 -0.1824  0.0837  0.3882
29727SOL    HW191560  10.193   3.475   8.227  0.5099 -0.6308  1.8417
29727SOL    HW291561  10.271   3.546   8.119 -2.1094 -0.5348 -0.0829
29728SOL     OW91562   0.580   3.555   0.165  0.0300 -0.0703  0.7427
29728SOL    HW191563   0.588   3.555   0.260  2.3538 -0.9373  0.6210
29728SOL    HW291564   0.520   3.483   0.146  0.3187 -0.5356  1.5275
29729SOL     OW91565  10.358   4.901   4.399  0.0925  0.5555  0.2338
29729SOL    HW191566  10.304   4.868   4.471  1.3991 -0.5385  0.7738
29729SOL    HW291567  10.296   4.938   4.337 -1.3334 -1.2093  0.5144
29730SOL     OW91568   2.104   6.947   8.316  0.1654 -0.1954  0.3168
29730SOL    HW191569   2.137   6.881   8.377  0.4492 -0.3370  0.0112
29730SOL    HW291570   2.082   7.022   8.371 -2.4179 -1.3375  1.0306
29731SOL     OW91571   9.696   2.693   6.319 -0.0861  0.1439  0.3788
29731SOL    HW191572   9.776   2.688   6.371 -0.0502 -0.2646  0.2950
29731SOL    HW291573   9.637   2.631   6.361  0.8476 -2.2769 -1.5757
29732SOL     OW91574   2.562   2.802   5.627  0.1327 -0.4250  0.5152
29732SOL    HW191575   2.484   2.748   5.640 -1.6488  1.9322  0.1559
29732SOL    HW291576   2.541   2.859   5.553  2.7116 -0.5329 -0.4099
29733SOL     OW91577   6.456   5.476   9.957 -0.5577 -0.5816 -0.0968
29733SOL    HW191578   6.398   5.474   9.881 -0.9389 -2.8052  0.1655
29733SOL    HW291579   6.522   5.541   9.936 -3.3002  2.4395 -0.2362
29734SOL     OW91580   9.454   9.542   8.400 -0.0555 -0.5768  0.0808
29734SOL    HW191581   9.495   9.510   8.480 -0.8085  1.5822  1.4055
29734SOL    HW291582   9.486   9.482   8.332  1.4787 -1.8249  1.7810
29735SOL     OW91583   7.998   1.837   9.159 -0.3456  0.7338 -0.1526
29735SOL    HW191584   8.041   1.853   9.243  0.9585 -0.1887 -0.6160
29735SOL    HW291585   8.035   1.902   9.100 -0.9315  1.0936 -0.1313
29736SOL     OW91586  10.771   0.559   3.696 -0.4864  0.2464 -0.8137
29736SOL    HW191587  10.822   0.571   3.616 -0.8694 -0.1793 -1.1304
29736SOL    HW291588  10.687   0.600   3.678 -0.0105  1.6725  0.0020
29737SOL     OW91589   7.824   2.536   0.033  0.0266 -0.1452 -0.1041
29737SOL    HW191590   7.826   2.465  -0.032  0.2873 -0.4494  0.2314
29737SOL    HW291591   7.883   2.602  -0.001  1.8372 -1.1980  0.8172
29738SOL     OW91592   8.011   5.945   5.410 -0.2970  0.7402 -0.1901
29738SOL    HW191593   7.919   5.939   5.434 -0.1745 -1.1105 -0.0559
29738SOL    HW291594   8.057   5.960   5.492 -0.1996 -2.0482  0.3665
29739SOL     OW91595   4.390   8.343   6.584 -0.1407 -0.3001  0.1539
29739SOL    HW191596   4.388   8.258   6.627  0.3302 -0.0464  0.6879
29739SOL    HW291597   4.299   8.372   6.584 -0.1812 -0.4064  0.7739
29740SOL     OW91598   0.860   9.092   7.514 -0.2172 -0.0683 -0.0720
29740SOL    HW191599   0.764   9.092   7.518 -0.2773  0.4328 -1.1046
29740SOL    HW291600   0.888   9.121   7.601 -1.0040 -0.3259  0.2694
29741SOL     OW91601   2.925   7.748   8.815  0.0155  0.1837  0.1115
29741SOL    HW191602   2.960   7.803   8.746  1.4933  0.0275  0.7013
29741SOL    HW291603   2.889   7.810   8.879 -1.5574  0.3219 -0.8542
29742SOL     OW91604   1.644   8.046   6.566  0.3824  0.5799 -0.0409
29742SOL    HW191605   1.692   8.129   6.561 -0.8309  1.4544  1.7829
29742SOL    HW291606   1.553   8.071   6.575 -0.3600 -1.0404 -2.2173
29743SOL     OW91607   9.724   8.384   7.878 -0.0971 -0.3802 -0.3265
29743SOL    HW191608   9.688   8.305   7.920  0.3354 -0.2711  0.2728
29743SOL    HW291609   9.760   8.353   7.795 -0.3661 -0.7321 -0.3132
29744SOL     OW91610   3.751   6.975   2.566  0.3612  0.1983  0.1236
29744SOL    HW191611   3.811   6.900   2.566  0.0923 -0.0645 -1.4910
29744SOL    HW291612   3.807   7.051   2.552  0.6468  0.3512  1.8661
29745SOL     OW91613   0.026  10.280   8.315 -0.3151 -1.0025 -0.3665
29745SOL    HW191614  -0.018  10.336   8.379 -2.1917 -2.0343 -0.6952
29745SOL    HW291615   0.119  10.289   8.336 -0.8013 -0.5848  1.9013
29746SOL     OW91616   1.367   5.149  10.366  0.2744 -0.3740  0.2016
29746SOL    HW191617   1.367   5.163  10.272 -0.4715  1.4668  0.4424
29746SOL    HW291618   1.334   5.059  10.377  0.2888 -0.5797 -1.2602
29747SOL     OW91619  10.624   8.402   4.215 -0.3425 -0.2935  0.0605
29747SOL    HW191620  10.684   8.476   4.219 -0.2159 -0.4302  1.9161
29747SOL    HW291621  10.653   8.351   4.140  0.1782  1.0197 -0.6678
29748SOL     OW91622   0.755   9.230   6.230 -0.1510 -0.3257 -0.1144
29748SOL    HW191623   0.775   9.188   6.314  2.6940 -0.9977 -1.0160
29748SOL    HW291624   0.731   9.319   6.252  0.7917 -0.4249  1.4388
29749SOL     OW91625   1.924   1.858   4.915 -0.0327 -0.6137  0.4186
29749SOL    HW191626   1.964   1.888   4.996 -0.9106 -1.0880  1.0429
29749SOL    HW291627   1.879   1.936   4.880  1.0232 -0.1948 -0.0609
29750SOL     OW91628   3.901   8.063   5.972 -0.0863 -0.6397  0.2092
29750SOL    HW191629   3.976   8.058   6.031  0.0555  1.3661  0.2783
29750SOL    HW291630   3.825   8.075   6.029  0.0113  0.9784  0.0484
29751SOL     OW91631   5.996   5.189  10.733 -0.1643 -0.1524  0.4015
29751SOL    HW191632   6.064   5.209  10.797 -2.4458 -0.8593  3.2034
29751SOL    HW291633   5.996   5.265  10.674 -1.0995  2.9827  4.0794
29752SOL     OW91634   4.183   1.072  10.347 -0.0095  0.2390  0.0349
29752SOL    HW191635   4.203   1.045  10.258 -0.5918  0.1700 -0.0829
29752SOL    HW291636   4.258   1.044  10.399  0.4927  0.5998 -0.4890
29753SOL     OW91637   5.819   4.665   0.970 -0.1841  0.0869 -0.4008
29753SOL    HW191638   5.869   4.667   0.888 -1.0911  2.3324 -0.9760
29753SOL    HW291639   5.737   4.622   0.947  0.1674 -0.6583 -0.2766
29754SOL     OW91640   9.160   8.460   0.212  0.3358 -0.2238  0.1653
29754SOL    HW191641   9.128   8.548   0.231 -0.5999 -0.9130  1.9511
29754SOL    HW291642   9.086   8.417   0.168  0.3850 -0.4599  0.3108
29755SOL     OW91643   2.226   5.239   6.702 -0.4689 -0.2667 -0.0766
29755SOL    HW191644   2.178   5.314   6.738  1.8215  1.2331  0.0518
29755SOL    HW291645   2.316   5.270   6.696  0.3441 -2.6774 -1.0954
29756SOL     OW91646   2.534   0.759   3.476 -0.0970  0.4230 -0.1348
29756SOL    HW191647   2.592   0.808   3.534  1.1350  0.4511 -1.3436
29756SOL    HW291648   2.593   0.708   3.420 -1.2949 -0.9139 -0.2275
29757SOL     OW91649   7.825   1.000   3.831 -0.0896  0.2974 -0.5761
29757SOL    HW191650   7.855   1.005   3.921 -0.5087 -1.4281 -0.3069
29757SOL    HW291651   7.860   0.916   3.799 -1.6729 -0.1008 -1.3517
29758SOL     OW91652   0.083   4.756   0.096 -0.4664  0.7697 -0.6580
29758SOL    HW191653   0.004   4.757   0.150  0.6773  1.4636  1.0911
29758SOL    HW291654   0.089   4.844   0.060 -0.4035  0.7601 -0.6707
29759SOL     OW91655   8.863   2.803  10.310  0.1648  0.1646  0.0348
29759SOL    HW191656   8.924   2.731  10.293  1.1936  1.3020 -1.3438
29759SOL    HW291657   8.919   2.873  10.344 -0.1306  1.5951 -2.2655
29760SOL     OW91658   8.127   9.256   2.276 -0.4632 -0.0722 -0.2038
29760SOL    HW191659   8.194   9.277   2.211 -1.7249  0.7887 -1.2589
29760SOL    HW291660   8.177   9.239   2.357  1.0745 -0.3487 -1.1661
29761SOL     OW91661   4.737   6.311   7.877 -0.2972 -0.0915  0.2421
29761SOL    HW191662   4.697   6.224   7.873 -0.2056 -0.1605  0.8225
29761SOL    HW291663   4.785   6.319   7.794 -0.5183 -0.4866  0.0733
29762SOL     OW91664   8.956   8.476   8.929  0.5870 -0.0225  0.0866
29762SOL    HW191665   9.013   8.429   8.869  0.0564 -0.1471 -0.3226
29762SOL    HW291666   8.972   8.569   8.910  0.0418 -0.0648 -0.6116
29763SOL     OW91667   2.426   8.155   7.853  0.2045  0.3524 -0.6558
29763SOL    HW191668   2.405   8.085   7.914 -0.3076 -0.1090 -1.3447
29763SOL    HW291669   2.519   8.142   7.832 -0.1014 -0.6730 -1.4523
29764SOL     OW91670   3.509   4.344   3.460 -0.6326 -0.3062 -0.5723
29764SOL    HW191671   3.464   4.269   3.498  1.4298 -1.4959 -0.2980
29764SOL    HW291672   3.514   4.408   3.531 -0.9217 -0.5944 -0.2898
29765SOL     OW91673   1.910   5.825   1.792 -0.2402  0.2421  0.1237
29765SOL    HW191674   1.935   5.915   1.770 -0.7532  0.2450 -0.4711
29765SOL    HW291675   1.923   5.776   1.711 -2.4061  0.3034 -0.3158
29766SOL     OW91676   0.751   7.068   1.118 -0.4720 -0.3658 -0.1469
29766SOL    HW191677   0.765   7.162   1.108  2.6494 -0.8301 -1.1273
29766SOL    HW291678   0.712   7.041   1.035 -2.1268  0.1035  0.4298
29767SOL     OW91679   6.359   3.134   1.682  0.3375 -0.2873 -0.2826
29767SOL    HW191680   6.369   3.041   1.700  1.3584 -0.7156 -2.6890
29767SOL    HW291681   6.272   3.156   1.716  1.7383 -0.9605  4.3971
29768SOL     OW91682   6.802   5.899   4.309 -0.2196 -0.4926 -0.2570
29768SOL    HW191683   6.804   5.926   4.401  1.7127 -1.1620 -0.0636
29768SOL    HW291684   6.778   5.807   4.312  1.4947 -0.9698 -0.2577
29769SOL     OW91685   8.087   5.445   9.511  0.7170 -0.4749 -0.1366
29769SOL    HW191686   8.025   5.372   9.513 -0.4553  0.4708 -0.7160
29769SOL    HW291687   8.100   5.468   9.603 -1.3094  0.5267 -0.0498
29770SOL     OW91688  10.063   8.109   5.718  0.1921 -0.1454  0.2787
29770SOL    HW191689  10.086   8.027   5.763  1.4112  0.4805  0.8286
29770SOL    HW291690  10.127   8.116   5.647 -0.6667 -0.2633 -0.5355
29771SOL     OW91691   1.890   6.202   2.671  0.0963  0.1206 -0.1846
29771SOL    HW191692   1.874   6.202   2.577  0.0257  1.0040 -0.1778
29771SOL    HW291693   1.877   6.111   2.697 -0.7034  0.0208 -0.8892
29772SOL     OW91694   9.557   7.923   7.164  0.1260 -0.2744  0.0260
29772SOL    HW191695   9.652   7.927   7.152 -0.0030 -1.0131 -1.4287
29772SOL    HW291696   9.534   8.007   7.203  0.9018  1.5482 -3.1265
29773SOL     OW91697   2.708   6.013   6.825 -0.1033  0.3312 -0.6172
29773SOL    HW191698   2.702   5.998   6.730  0.8938  2.7708 -1.1344
29773SOL    HW291699   2.787   5.966   6.852  0.3554  0.7234 -1.2614
29774SOL     OW91700   9.189   9.499  10.704 -0.0675 -0.9832  0.5530
29774SOL    HW191701   9.201   9.594  10.705 -1.3511 -0.7244 -1.6730
29774SOL    HW291702   9.107   9.484  10.752 -0.4574 -0.8402 -0.0633
29775SOL     OW91703   0.555   5.232   4.076 -0.4133  0.6723 -0.0455
29775SOL    HW191704   0.645   5.199   4.084 -0.8203 -0.3587  0.4472
29775SOL    HW291705   0.541   5.240   3.981  0.0299  0.3502 -0.1438
29776SOL     OW91706   5.277   1.967   0.000 -0.3185 -0.2485 -0.5629
29776SOL    HW191707   5.211   2.031   0.028  0.5172 -0.2592  1.7007
29776SOL    HW291708   5.350   2.020  -0.033  0.1801  0.0356  0.8728
29777SOL     OW91709   4.958   5.205   2.205 -0.6393  0.1090 -0.4733
29777SOL    HW191710   4.996   5.268   2.267 -0.1724  0.5341 -1.1740
29777SOL    HW291711   4.993   5.232   2.120 -1.6357 -0.1903 -0.9844
29778SOL     OW91712   2.172   7.892   9.596  0.4782  0.2419 -0.2028
29778SOL    HW191713   2.186   7.986   9.583 -0.1383  0.2068 -1.2473
29778SOL    HW291714   2.078   7.885   9.613  0.4786 -0.2027 -0.3790
29779SOL     OW91715   7.268   7.404   8.826  0.3249 -0.7066  0.0873
29779SOL    HW191716   7.189   7.373   8.781 -1.5836  0.3246  2.4843
29779SOL    HW291717   7.255   7.498   8.835  2.5941 -0.2518 -0.7252
29780SOL     OW91718   5.310   8.583   1.134 -0.4523 -0.0600  0.2591
29780SOL    HW191719   5.353   8.586   1.048 -0.4043 -0.5282  0.2624
29780SOL    HW291720   5.372   8.627   1.192  0.7190 -1.9438  0.5407
29781SOL     OW91721   3.783   1.342   4.521 -0.0970  0.0015 -0.1117
29781SOL    HW191722   3.720   1.397   4.567 -0.8715 -0.4263 -0.6475
29781SOL    HW291723   3.836   1.403   4.470 -0.4770  0.3122 -0.1371
29782SOL     OW91724   1.600   0.493   5.051 -0.3462 -0.0341 -0.7712
29782SOL    HW191725   1.545   0.472   5.127  1.3992  3.9377  1.9300
29782SOL    HW291726   1.661   0.420   5.045 -1.8035 -1.4349  0.2530
29783SOL     OW91727   3.247  10.788   1.951  0.7135 -0.3127 -0.0907
29783SOL    HW191728   3.268  10.852   1.883  0.8387  0.4760  0.6720
29783SOL    HW291729   3.332  10.759   1.984  0.7911 -3.2921 -2.5728
29784SOL     OW91730   4.568   2.465   9.451 -0.3671  0.0701  0.4380
29784SOL    HW191731   4.494   2.408   9.432 -0.5871 -0.3402  2.2552
29784SOL    HW291732   4.645   2.415   9.422 -0.7645  0.6242 -1.7353
29785SOL     OW91733   3.439   4.004   4.959  0.3148 -0.0135 -0.0059
29785SOL    HW191734   3.350   3.984   4.928  0.1149  0.7009  0.0882
29785SOL    HW291735   3.425   4.042   5.046  0.6611  0.7087 -0.2572
29786SOL     OW91736   6.762   7.107   8.516 -0.1320  0.1987 -0.3504
29786SOL    HW191737   6.741   7.131   8.606  1.3934 -2.2107  0.7497
29786SOL    HW291738   6.851   7.072   8.521 -0.5832 -1.4422 -2.4863
29787SOL     OW91739   5.770   9.314   1.552  0.1125 -0.5023 -0.4285
29787SOL    HW191740   5.714   9.237   1.569  0.0783 -0.4451 -0.2762
29787SOL    HW291741   5.837   9.282   1.492  1.1510 -1.1290  0.9999
29788SOL     OW91742   2.763   5.866   0.642 -0.2900  0.4567 -0.1232
29788SOL    HW191743   2.774   5.863   0.547 -0.5294  1.7564 -0.2049
29788SOL    HW291744   2.826   5.802   0.675 -1.1140 -0.9861 -1.2058
29789SOL     OW91745   8.725  10.340   3.416 -0.2780 -0.0207  0.5602
29789SOL    HW191746   8.776  10.394   3.477  0.9054 -0.3458 -0.1191
29789SOL    HW291747   8.644  10.321   3.464 -0.8350  2.4858  0.7442
29790SOL     OW91748   2.325   0.810   5.429  0.0824 -0.0204  0.2251
29790SOL    HW191749   2.247   0.756   5.440  0.6869 -0.4692  3.0319
29790SOL    HW291750   2.377   0.764   5.362 -1.5748 -0.2017 -0.9875
29791SOL     OW91751   7.603   1.424   7.847  0.1785  0.8605 -0.2399
29791SOL    HW191752   7.658   1.348   7.826  0.3163  0.6871  0.6611
29791SOL    HW291753   7.664   1.498   7.846  0.5509  0.6191  1.1141
29792SOL     OW91754   4.257   5.071  10.244 -0.4512  0.1186  0.5075
29792SOL    HW191755   4.336   5.068  10.190 -0.3977  2.6726  0.3095
29792SOL    HW291756   4.186   5.044  10.186  0.0129 -0.1551  0.0666
29793SOL     OW91757   4.417   4.143   2.619 -0.3694 -0.0619 -0.5686
29793SOL    HW191758   4.430   4.217   2.679 -0.0102 -0.6034  0.0265
29793SOL    HW291759   4.327   4.116   2.634  0.4631 -1.8683  1.6801
29794SOL     OW91760   6.703   1.169   5.253  0.5209 -0.0788 -0.0458
29794SOL    HW191761   6.774   1.232   5.241  2.5191 -2.0538  0.6738
29794SOL    HW291762   6.720   1.100   5.188 -1.1121 -0.2966 -0.2740
29795SOL     OW91763   3.738   7.569   0.784  0.4526 -0.0358  0.0552
29795SOL    HW191764   3.824   7.579   0.824 -0.0122 -1.2560  1.4342
29795SOL    HW291765   3.715   7.657   0.754  2.9639  0.0095 -2.1128
29796SOL     OW91766   6.559   7.648  10.681  0.0849 -0.5670 -0.1327
29796SOL    HW191767   6.550   7.691  10.766  1.4299  0.0171 -0.2611
29796SOL    HW291768   6.644   7.605  10.685  0.0989 -0.6513 -1.1411
29797SOL     OW91769   4.045   8.803   6.967  0.6645 -0.0516  0.1025
29797SOL    HW191770   4.083   8.889   6.949 -0.1396  0.5100  1.0012
29797SOL    HW291771   3.975   8.820   7.030  0.3589 -1.3422  0.1442
29798SOL     OW91772   5.686   3.762   1.134 -0.1377 -0.0258  0.0393
29798SOL    HW191773   5.708   3.849   1.099 -2.3380  0.8755  0.7261
29798SOL    HW291774   5.762   3.738   1.187  1.4355  0.4692 -1.8559
29799SOL     OW91775   2.031   3.444   3.211 -0.3201  0.0493 -0.1785
29799SOL    HW191776   2.041   3.467   3.304  0.6121 -0.3300 -0.1702
29799SOL    HW291777   2.052   3.351   3.207 -2.2669 -0.4101 -0.4922
29800SOL     OW91778   2.154   4.814   2.844  0.1401 -0.0755  0.3456
29800SOL    HW191779   2.189   4.855   2.765  0.1274 -1.3335 -0.3367
29800SOL    HW291780   2.195   4.862   2.916  0.5582  0.7479 -0.4210
29801SOL     OW91781   3.891   9.942   2.995  0.4389 -0.7905  0.3314
29801SOL    HW191782   3.840   9.943   2.914  0.0880 -1.5439  0.5330
29801SOL    HW291783   3.854   9.870   3.045  1.1133 -0.7689  0.8703
29802SOL     OW91784   2.204   9.169   0.204  0.0858 -0.2745  0.2601
29802SOL    HW191785   2.217   9.074   0.203  1.0192 -0.1551 -0.7465
29802SOL    HW291786   2.281   9.204   0.248 -0.2583  0.0254  0.6344
29803SOL     OW91787   2.240   5.603   6.159 -0.2152 -0.1583 -0.1897
29803SOL    HW191788   2.179   5.551   6.107 -2.1218  0.4558  1.2864
29803SOL    HW291789   2.213   5.588   6.250  0.7493  1.4836  0.4172
29804SOL     OW91790  10.745  10.574   7.270  0.0688  0.2800  0.2454
29804SOL    HW191791  10.709  10.560   7.182  0.6543 -0.3304  0.0905
29804SOL    HW291792  10.840  10.572   7.258  0.1562  1.1791  0.7496
29805SOL     OW91793   2.219   7.723   9.828  0.0326  0.3336 -0.0181
29805SOL    HW191794   2.172   7.738   9.910  3.5404  0.6008  2.1963
29805SOL    HW291795   2.193   7.796   9.772 -1.8065  0.6668  1.1699
29806SOL     OW91796   7.444   2.266   2.319  0.1655 -0.4231  0.1020
29806SOL    HW191797   7.432   2.183   2.365  0.1108 -0.6101 -0.2484
29806SOL    HW291798   7.477   2.326   2.386  2.2757 -1.2846 -0.1032
29807SOL     OW91799   2.351   3.362   5.788  0.7344  0.3616 -0.1838
29807SOL    HW191800   2.395   3.277   5.792  1.7727  0.9410  1.5442
29807SOL    HW291801   2.413   3.419   5.742 -0.8063 -0.2138 -3.2663
29808SOL     OW91802   7.283   1.399   5.095 -0.3871  0.3309 -0.3064
29808SOL    HW191803   7.321   1.316   5.124  0.3711  0.4461 -0.9383
29808SOL    HW291804   7.257   1.443   5.176 -0.8514 -0.5382  0.0381
29809SOL     OW91805   9.167   0.689   5.839 -0.0441  0.0087  0.1456
29809SOL    HW191806   9.124   0.653   5.916 -0.9536  0.9885  0.1237
29809SOL    HW291807   9.102   0.747   5.800  1.2294  1.4765  0.0494
29810SOL     OW91808   7.948   5.678   2.496  0.1116  0.3540 -0.3354
29810SOL    HW191809   7.980   5.702   2.409 -0.2951  1.1582 -0.2704
29810SOL    HW291810   8.024   5.642   2.540  1.0652  2.5462 -0.0625
29811SOL     OW91811   6.022   1.037   0.864 -1.0541  0.2367  0.2054
29811SOL    HW191812   6.038   1.082   0.947  1.2796 -1.1666  0.6262
29811SOL    HW291813   6.089   1.070   0.805 -0.8744 -0.8535 -0.2280
29812SOL     OW91814   5.455   3.175   4.709 -0.3840 -0.0292  0.1765
29812SOL    HW191815   5.366   3.140   4.712 -0.0889 -0.7445  1.3050
29812SOL    HW291816   5.454   3.250   4.769 -0.3629  0.3124 -0.2458
29813SOL     OW91817   6.443   6.504   5.991  0.4927  0.4236  0.2079
29813SOL    HW191818   6.417   6.595   6.005 -0.0683  0.3537 -0.3035
29813SOL    HW291819   6.536   6.509   5.968  0.6304  0.8030  0.8297
29814SOL     OW91820   3.050   2.896   3.532 -0.6250  0.2215  0.3804
29814SOL    HW191821   3.125   2.955   3.522 -0.0261 -0.6717 -0.5495
29814SOL    HW291822   2.976   2.954   3.550  0.0371  1.2177 -0.0437
29815SOL     OW91823   1.225   7.919   4.665 -0.3181 -0.4240  0.6809
29815SOL    HW191824   1.187   7.941   4.750 -0.1713  0.1698  0.6034
29815SOL    HW291825   1.317   7.945   4.673  0.3620 -2.7431  1.1998
29816SOL     OW91826   1.402   2.380   6.836  0.8483 -0.2194 -0.2547
29816SOL    HW191827   1.486   2.335   6.846 -0.0602 -2.1721 -0.8564
29816SOL    HW291828   1.339   2.325   6.883 -0.3050  0.4849 -0.9093
29817SOL     OW91829   1.539   6.767   7.290 -0.2710 -0.4800  0.1059
29817SOL    HW191830   1.618   6.789   7.339 -0.1239  1.7658 -0.9898
29817SOL    HW291831   1.570   6.711   7.219  0.0784 -0.7954  0.4975
29818SOL     OW91832   2.502   0.547   2.781  0.8959  0.0942 -0.3505
29818SOL    HW191833   2.582   0.523   2.829  0.8063  0.5059  0.0071
29818SOL    HW291834   2.439   0.570   2.849 -0.0032 -1.6139 -0.5516
29819SOL     OW91835   9.795   2.042   7.629  0.4311  0.1290 -0.1469
29819SOL    HW191836   9.882   2.031   7.669  1.0955  1.6108 -1.0985
29819SOL    HW291837   9.777   1.957   7.589  1.4917 -0.1822 -0.0122
29820SOL     OW91838   4.827   7.899   6.289  0.0714  0.2774 -0.3676
29820SOL    HW191839   4.874   7.850   6.221  0.5287 -0.3403  0.3783
29820SOL    HW291840   4.874   7.879   6.370 -0.1730  1.3904  0.0670
29821SOL     OW91841  10.709   1.380   5.317  0.0902 -0.2125 -0.1945
29821SOL    HW191842  10.717   1.288   5.342 -0.0668  0.1066  1.1610
29821SOL    HW291843  10.739   1.384   5.227 -1.7874 -1.9218 -0.9649
29822SOL     OW91844   1.028   1.343   2.532 -0.6727 -0.4689  0.2275
29822SOL    HW191845   1.009   1.330   2.439  0.0249 -1.2222  0.1703
29822SOL    HW291846   1.106   1.399   2.533  0.1307 -1.5538  0.3044
29823SOL     OW91847   7.240   9.739   1.356 -0.4488  0.2866  0.0008
29823SOL    HW191848   7.305   9.715   1.290  0.3101  2.3368 -0.0867
29823SOL    HW291849   7.173   9.787   1.307 -0.6852  0.4420  0.4715
29824SOL     OW91850   5.722   9.173   7.787  0.4024 -0.0229  0.3331
29824SOL    HW191851   5.714   9.268   7.778  0.6557 -0.1343 -1.3948
29824SOL    HW291852   5.647   9.148   7.840  0.2094  1.1056  0.6342
29825SOL     OW91853   6.913   3.840   8.325  0.0616  0.2452 -0.0839
29825SOL    HW191854   6.906   3.749   8.352  0.1464 -0.2791 -1.6912
29825SOL    HW291855   6.967   3.881   8.392  1.4732 -1.2945 -0.2165
29826SOL     OW91856   0.216   7.525   0.492  0.5745 -0.7343 -0.1330
29826SOL    HW191857   0.167   7.571   0.561  2.3211 -0.2467  0.8381
29826SOL    HW291858   0.167   7.544   0.412 -1.5536 -1.3635  0.9440
29827SOL     OW91859   2.698   2.567   1.659 -0.2149 -0.2327  0.3842
29827SOL    HW191860   2.670   2.613   1.580 -0.6977 -1.5227 -0.2367
29827SOL    HW291861   2.685   2.474   1.638  1.4093 -0.7103  1.2945
29828SOL     OW91862   4.911   3.880   7.765 -0.2387 -0.3927  0.4441
29828SOL    HW191863   4.841   3.935   7.729  0.1371  0.2980  0.7376
29828SOL    HW291864   4.881   3.791   7.753 -0.6656 -0.1352 -0.4715
29829SOL     OW91865   9.727   4.216   3.810  0.4279 -0.4210  0.0832
29829SOL    HW191866   9.751   4.202   3.718  1.1172  0.8934  0.0434
29829SOL    HW291867   9.712   4.311   3.816  1.9496 -0.2572  1.6913
29830SOL     OW91868   4.500  10.707   3.767  0.1658 -0.5999  0.3048
29830SOL    HW191869   4.444  10.771   3.722 -0.1681 -0.7215  0.5404
29830SOL    HW291870   4.439  10.644   3.804  0.4946 -1.0407  0.0990
29831SOL     OW91871   0.528   2.720   1.420  0.0836 -0.1380 -0.3256
29831SOL    HW191872   0.584   2.781   1.371  2.0530 -1.5743 -0.0014
29831SOL    HW291873   0.589   2.673   1.477 -1.8589 -0.0425  1.9401
29832SOL     OW91874   4.638   4.392   9.382 -0.4320  1.0854 -0.5090
29832SOL    HW191875   4.694   4.352   9.448 -2.2744 -1.2803 -0.2545
29832SOL    HW291876   4.570   4.438   9.433 -1.4033 -0.0844 -0.6957
29833SOL     OW91877   3.820   0.884   6.837  0.0419  0.1226  0.0239
29833SOL    HW191878   3.726   0.902   6.844  0.1842  1.3243 -0.8950
29833SOL    HW291879   3.862   0.965   6.865  0.8082 -0.2580 -0.0048
29834SOL     OW91880   1.078   4.124   9.250  0.0070 -0.2772  0.1784
29834SOL    HW191881   1.028   4.142   9.330 -1.8681  0.0550 -1.0126
29834SOL    HW291882   1.055   4.035   9.227 -0.2465 -0.0368 -0.5230
29835SOL     OW91883   1.109   9.030  10.171 -0.0857 -0.2320 -0.0811
29835SOL    HW191884   1.120   8.976  10.092  0.4369  1.3169 -1.1114
29835SOL    HW291885   1.029   9.080  10.155  0.8563  1.2483 -0.3754
29836SOL     OW91886   0.316   1.359   1.768 -0.2081  0.2041  0.3986
29836SOL    HW191887   0.306   1.413   1.846 -0.3738 -0.1582  0.6323
29836SOL    HW291888   0.381   1.404   1.716 -0.3688  0.6486  0.5746
29837SOL     OW91889   0.318   7.817   1.116  0.3940 -0.6657  0.2481
29837SOL    HW191890   0.285   7.883   1.176  1.0693 -0.2959  0.2125
29837SOL    HW291891   0.405   7.848   1.090  0.8262 -1.6847  0.4223
29838SOL     OW91892   7.969   8.296   6.130 -0.5044  0.4790  0.0010
29838SOL    HW191893   7.963   8.302   6.035 -1.1136  0.5753  0.0399
29838SOL    HW291894   8.028   8.368   6.155 -0.1553  0.3077 -0.3172
29839SOL     OW91895   3.998  10.080   5.036  0.1970  0.1975 -0.0105
29839SOL    HW191896   4.025  10.169   5.015 -0.8563  0.8980  1.4319
29839SOL    HW291897   4.045  10.058   5.116 -0.8357  0.1410  0.6052
29840SOL     OW91898  10.472  10.379   0.003 -0.2242 -0.2153 -0.3950
29840SOL    HW191899  10.463  10.335  -0.081 -1.9135  0.3308 -0.5350
29840SOL    HW291900  10.455  10.312   0.068 -1.0113 -0.1751 -0.5556
29841SOL     OW91901   4.561   1.021  10.262  0.1510 -0.0471  0.2384
29841SOL    HW191902   4.595   1.036  10.174 -0.5066 -0.9011 -0.1833
29841SOL    HW291903   4.592   1.096  10.313  1.2055  0.0643 -0.5237
29842SOL     OW91904   6.490  10.718  10.612  0.4305  0.1922  0.2960
29842SOL    HW191905   6.511  10.789  10.672  1.7837  0.6886 -0.7186
29842SOL    HW291906   6.402  10.737  10.581  0.6095  1.1767  0.3792
29843SOL     OW91907   0.278   3.491   8.725  0.0855  0.2072  0.1510
29843SOL    HW191908   0.194   3.517   8.686  0.7245  0.6752 -0.9470
29843SOL    HW291909   0.255   3.420   8.786 -1.0792  0.1907 -0.2859
29844SOL     OW91910   0.438  10.060   3.096 -0.0579  0.3069 -0.0133
29844SOL    HW191911   0.442  10.144   3.050 -0.2496  0.4609  0.2436
29844SOL    HW291912   0.432   9.994   3.026 -0.8744  0.5715 -0.1985
29845SOL     OW91913   2.074   9.337   5.947 -0.2170  0.5645  0.0524
29845SOL    HW191914   2.120   9.391   5.882 -0.1388  1.3827  0.7715
29845SOL    HW291915   2.073   9.249   5.909 -0.3733  1.0725 -1.1646
29846SOL     OW91916   4.901   0.767   2.196  0.1745 -0.2197  0.1958
29846SOL    HW191917   4.949   0.810   2.267 -1.5606 -0.4406  1.5631
29846SOL    HW291918   4.852   0.696   2.240 -0.1646 -1.0042 -1.3847
29847SOL     OW91919   9.367   3.922   4.758 -0.0826 -0.4388  0.3452
29847SOL    HW191920   9.327   3.957   4.679  1.6131 -0.9048 -0.7782
29847SOL    HW291921   9.332   3.833   4.766  0.1530 -0.5859 -0.2058
29848SOL     OW91922   7.554   8.833   6.527  0.2634  0.2746 -0.1663
29848SOL    HW191923   7.597   8.917   6.540  1.6354 -0.1881 -1.4371
29848SOL    HW291924   7.470   8.841   6.573  2.0431  0.8791  3.3452
29849SOL     OW91925   7.697   4.659   7.799 -0.1918  0.6551  0.2410
29849SOL    HW191926   7.752   4.701   7.865  0.7066  0.7737 -0.5509
29849SOL    HW291927   7.703   4.716   7.722 -1.3281  0.5959  0.0893
29850SOL     OW91928   8.084   1.598   2.623 -0.6050  0.4589 -0.2025
29850SOL    HW191929   8.116   1.514   2.656 -2.1106 -0.0477  0.0745
29850SOL    HW291930   8.058   1.580   2.533 -1.3521  0.4913 -0.0012
29851SOL     OW91931   5.405   3.625   6.476  0.0210 -0.0172 -0.7440
29851SOL    HW191932   5.461   3.643   6.400 -0.2094 -0.4625 -1.0254
29851SOL    HW291933   5.331   3.684   6.466  0.0051 -0.0552 -0.8491
29852SOL     OW91934   4.066   9.193  10.578 -0.2056 -0.1170  0.0785
29852SOL    HW191935   4.064   9.168  10.486  2.7148  0.8584 -0.3769
29852SOL    HW291936   4.006   9.267  10.585 -1.1851 -0.8157 -0.8136
29853SOL     OW91937   4.394   2.416   0.876 -0.4304 -0.2063 -0.4365
29853SOL    HW191938   4.402   2.385   0.966 -1.1036 -1.6025 -0.8298
29853SOL    HW291939   4.413   2.339   0.822 -1.8084  0.1290 -1.4644
29854SOL     OW91940   6.294   5.473   1.252 -0.2902 -0.3181 -0.0486
29854SOL    HW191941   6.278   5.450   1.343 -0.1255  0.8235  0.2781
29854SOL    HW291942   6.356   5.545   1.255  0.5813 -0.9894 -1.1154
29855SOL     OW91943   7.058   2.495   2.677  0.1232  0.1602  0.6111
29855SOL    HW191944   7.136   2.485   2.622  1.9619  0.7393  2.9632
29855SOL    HW291945   7.029   2.405   2.693 -0.6116 -0.0137 -1.4440
29856SOL     OW91946   9.023   9.563   4.123  0.1244 -0.2469 -0.2839
29856SOL    HW191947   9.052   9.560   4.032 -0.5687  0.3601 -0.5358
29856SOL    HW291948   8.928   9.550   4.118  0.1578 -0.8297  0.4070
29857SOL     OW91949   5.429   0.738   0.414  0.1507 -0.2795 -0.2408
29857SOL    HW191950   5.386   0.801   0.471 -1.4092 -0.3651 -1.2648
29857SOL    HW291951   5.444   0.787   0.333 -2.0440 -1.4312 -1.4333
29858SOL     OW91952   3.286   3.110   7.016 -0.2178 -0.1222  0.2210
29858SOL    HW191953   3.317   3.195   7.045  0.2839  0.5449 -2.0413
29858SOL    HW291954   3.359   3.074   6.965 -0.7479 -1.5219  0.4042
29859SOL     OW91955   6.253   2.923   9.353 -0.7446  0.0718 -0.2250
29859SOL    HW191956   6.191   2.864   9.311  0.3340 -1.4571  0.2263
29859SOL    HW291957   6.217   3.011   9.339 -2.8923 -0.7364 -0.0907
29860SOL     OW91958   0.136   4.087   9.914  0.2621 -0.1793  0.2821
29860SOL    HW191959   0.207   4.055   9.859 -0.2603  0.1558 -0.5998
29860SOL    HW291960   0.109   4.011   9.965  0.9523 -0.4175  0.2938
29861SOL     OW91961   6.555  10.419   2.036  0.1507  0.2579 -0.1953
29861SOL    HW191962   6.513  10.437   1.952  1.4504 -1.4639 -1.2974
29861SOL    HW291963   6.550  10.324   2.045 -0.1652  0.4296  1.8087
29862SOL     OW91964   9.321   7.305   9.793  0.4379 -0.0927 -0.2857
29862SOL    HW191965   9.283   7.358   9.723  0.3855  0.2107 -0.0293
29862SOL    HW291966   9.378   7.243   9.747  1.0171  0.6195 -0.5454
29863SOL     OW91967   6.821   1.097   6.841  0.2775 -0.5294 -0.4676
29863SOL    HW191968   6.770   1.048   6.905  1.1726 -0.7821  0.0684
29863SOL    HW291969   6.838   1.034   6.771 -0.5867 -0.2902 -0.9153
29864SOL     OW91970   9.254   6.456   1.805  0.1794  0.3261  0.0278
29864SOL    HW191971   9.203   6.537   1.798 -0.9031 -0.1957  1.2604
29864SOL    HW291972   9.276   6.450   1.898  2.4754  0.4770 -0.4532
29865SOL     OW91973   9.538   1.365   6.727  0.4301  0.4533  0.1091
29865SOL    HW191974   9.532   1.273   6.704  0.1940  0.9700 -2.1147
29865SOL    HW291975   9.592   1.367   6.806  1.1787 -1.5110 -0.3100
29866SOL     OW91976   1.625   1.325   5.314  0.4309  0.0407  0.0298
29866SOL    HW191977   1.696   1.267   5.341  0.4102 -1.0545 -2.0761
29866SOL    HW291978   1.617   1.311   5.220 -0.6338  2.3250 -0.2941
29867SOL     OW91979   0.956   1.368   2.803  0.8006 -0.0027 -0.1613
29867SOL    HW191980   0.982   1.398   2.715  4.4040  0.7646  0.9914
29867SOL    HW291981   0.966   1.273   2.800 -0.4994 -0.1404 -0.9209
29868SOL     OW91982   4.507   2.282   6.679  0.1953 -0.2898  0.0053
29868SOL    HW191983   4.601   2.266   6.684  0.5065  1.2216 -0.4862
29868SOL    HW291984   4.469   2.196   6.667  1.3964 -1.1003  1.5700
29869SOL     OW91985  10.358   8.419  10.786 -0.2835  0.2288 -0.1133
29869SOL    HW191986  10.430   8.461  10.834 -1.0764  0.9482  0.4915
29869SOL    HW291987  10.332   8.346  10.842  1.0537 -1.1120 -1.1360
29870SOL     OW91988  10.011   8.036   0.228 -0.3467  0.5384  0.6948
29870SOL    HW191989  10.038   8.010   0.140  1.3051  0.6538  1.1362
29870SOL    HW291990   9.936   7.980   0.248  1.0187 -1.5192  0.3200
29871SOL     OW91991   0.387   8.628   0.240  0.7720 -0.0215  0.3734
29871SOL    HW191992   0.360   8.602   0.328 -2.3866  0.8526 -0.2055
29871SOL    HW291993   0.447   8.702   0.254  1.3684 -0.7347  1.7795
29872SOL     OW91994   4.777   6.293   2.803 -0.4379  0.0605 -0.4055
29872SOL    HW191995   4.829   6.230   2.854  1.1994  1.7820  0.1855
29872SOL    HW291996   4.819   6.293   2.717 -0.7388 -0.0125 -0.5514
29873SOL     OW91997   7.748   2.793   5.339  0.5376  0.2660  0.3745
29873SOL    HW191998   7.761   2.873   5.391 -0.7438 -0.2527  1.5622
29873SOL    HW291999   7.741   2.824   5.249  1.7576  1.3057  0.6073
29874SOL     OW92000   1.828   9.439   8.595 -0.4861 -0.0509  0.6726
29874SOL    HW192001   1.905   9.491   8.619 -0.7705  0.6046  0.1937
29874SOL    HW292002   1.816   9.456   8.502 -0.5300 -1.0634  0.4797
29875SOL     OW92003   3.366   4.966   1.841  0.4042 -0.4078  0.1682
29875SOL    HW192004   3.332   4.970   1.752  1.2241 -0.7076 -0.1574
29875SOL    HW292005   3.290   4.940   1.894  0.0831 -0.9168 -0.5271
29876SOL     OW92006   9.672   6.180   5.240  0.3671  0.4678 -0.6624
29876SOL    HW192007   9.725   6.163   5.318 -0.3401  0.0478 -0.2627
29876SOL    HW292008   9.669   6.276   5.234 -0.2553  0.5327  0.3248
29877SOL     OW92009   2.736   3.777   6.945 -0.4609  0.0714  0.2011
29877SOL    HW192010   2.644   3.759   6.925 -0.0031 -0.8168 -1.2584
29877SOL    HW292011   2.765   3.837   6.877 -0.0490  0.6743  0.8867
29878SOL     OW92012  10.734   7.200   2.203  0.6700  0.1369  0.0863
29878SOL    HW192013  10.742   7.130   2.267  1.0111 -1.6893 -1.8635
29878SOL    HW292014  10.640   7.222   2.204 -0.4711 -3.5673 -2.3339
29879SOL     OW92015   9.682   1.794  10.142 -0.1211  0.0462  0.3625
29879SOL    HW192016   9.645   1.757  10.062 -0.1171 -0.5321  0.6228
29879SOL    HW292017   9.751   1.853  10.112  0.3199 -0.6659 -0.0255
29880SOL     OW92018   0.679   1.226  10.727  0.0764  0.6531 -0.3225
29880SOL    HW192019   0.750   1.161  10.733  0.2210  0.4708 -2.9928
29880SOL    HW292020   0.724   1.311  10.729  0.1424  0.6087  0.2735
29881SOL     OW92021   8.423   1.723   6.696 -0.4400  0.0692 -0.1119
29881SOL    HW192022   8.414   1.814   6.668 -2.1311 -0.3549 -1.0670
29881SOL    HW292023   8.396   1.672   6.620 -1.7513 -1.1852  1.1487
29882SOL     OW92024   5.876   8.625   2.769 -0.0569  0.0764 -0.4950
29882SOL    HW192025   5.960   8.659   2.799 -0.0351  0.9127 -1.4407
29882SOL    HW292026   5.862   8.546   2.821  0.9121  0.3795  0.2599
29883SOL     OW92027   2.948   2.691   5.500  0.0730 -0.1948 -0.3474
29883SOL    HW192028   2.959   2.612   5.447 -0.8996 -1.5029  1.3018
29883SOL    HW292029   2.920   2.758   5.437 -0.5370 -1.5390 -1.5720
29884SOL     OW92030   0.054   3.449   8.524  0.1740 -1.0456 -0.1734
29884SOL    HW192031   0.121   3.380   8.518  1.2870  0.0024 -0.2471
29884SOL    HW292032   0.013   3.450   8.437  0.9760 -0.8323 -0.5603
29885SOL     OW92033   8.935   8.602   9.262 -0.9417  0.2395  0.2702
29885SOL    HW192034   8.892   8.545   9.198  0.4862 -0.5282 -0.0465
29885SOL    HW292035   8.940   8.688   9.218  0.2978 -0.3489 -0.8229
29886SOL     OW92036   3.270   6.054   3.988  0.0701 -0.3609  0.1123
29886SOL    HW192037   3.355   6.010   3.991  0.7502  0.9126  0.5922
29886SOL    HW292038   3.288   6.140   3.949 -0.3166  1.2097  3.0552
29887SOL     OW92039   7.901   2.105   2.924 -0.2459  0.6013  0.4891
29887SOL    HW192040   7.971   2.040   2.914 -0.6843  0.0296  0.9910
29887SOL    HW292041   7.933   2.183   2.879  0.9567  0.5386  1.2024
29888SOL     OW92042   2.234   2.241   2.456 -0.4794  0.3146  0.1023
29888SOL    HW192043   2.238   2.185   2.534 -0.1984 -0.4513 -0.4396
29888SOL    HW292044   2.184   2.318   2.483 -2.5625 -1.0418  0.3637
29889SOL     OW92045   7.503   2.486   7.034  0.3676 -0.0567  0.2548
29889SOL    HW192046   7.512   2.432   7.113 -0.9978  1.9563  1.8975
29889SOL    HW292047   7.466   2.426   6.969 -0.7105 -1.2410  1.8670
29890SOL     OW92048   9.915   7.820   0.681 -0.1906  0.1714 -0.2247
29890SOL    HW192049   9.844   7.818   0.746  0.5455  0.0322  0.6019
29890SOL    HW292050   9.924   7.913   0.659  1.4095  0.6472  2.0375
29891SOL     OW92051   3.585  10.544   0.966  0.1785  0.2984  0.2192
29891SOL    HW192052   3.555  10.562   1.055 -3.6753 -0.4396 -0.7784
29891SOL    HW292053   3.575  10.449   0.955  1.6401  0.2042 -0.7298
29892SOL     OW92054   8.896   2.039  10.108 -0.2799  0.0920 -0.2138
29892SOL    HW192055   8.849   1.982  10.169 -2.0709  2.1606  0.4752
29892SOL    HW292056   8.964   2.080  10.160  0.0212 -0.2603 -0.3277
29893SOL     OW92057   3.529   8.120   3.251  0.4719 -0.0931 -0.0332
29893SOL    HW192058   3.508   8.029   3.229 -1.9941  0.3144  0.3116
29893SOL    HW292059   3.491   8.133   3.338  0.7002  1.3045 -0.1192
29894SOL     OW92060   2.786   2.453   1.356 -0.2991  0.0147 -0.5095
29894SOL    HW192061   2.765   2.373   1.404 -0.7082 -1.1448 -2.5174
29894SOL    HW292062   2.715   2.514   1.378 -0.7912 -0.6896 -0.1350
29895SOL     OW92063   8.565   7.610   9.013 -0.3611 -0.1776 -0.1828
29895SOL    HW192064   8.515   7.614   8.932 -0.7356 -1.9217 -0.0666
29895SOL    HW292065   8.624   7.686   9.009 -2.2475  1.3320 -0.8143
29896SOL     OW92066   9.312   2.861   7.793  0.0802 -0.1792  0.2739
29896SOL    HW192067   9.267   2.785   7.756 -3.0345 -0.5575  4.1232
29896SOL    HW292068   9.398   2.827   7.819 -0.6812 -2.0546  0.5268
29897SOL     OW92069   4.735   8.599   2.024  0.0476  0.2431  0.1285
29897SOL    HW192070   4.697   8.678   2.063  0.1901 -0.1229  1.0490
29897SOL    HW292071   4.829   8.605   2.044  0.0289 -0.2519  0.3985
29898SOL     OW92072   9.195   3.182   3.318 -0.6964  0.0557  0.0675
29898SOL    HW192073   9.235   3.194   3.232  1.9745 -2.8756  0.6913
29898SOL    HW292074   9.224   3.258   3.369 -0.2095  0.5668 -0.9470
29899SOL     OW92075   0.501   2.552   4.506  0.1243  0.1998 -0.7166
29899SOL    HW192076   0.500   2.612   4.431 -1.1579 -1.7486 -2.3799
29899SOL    HW292077   0.492   2.465   4.467  1.8879 -1.1432  1.5802
29900SOL     OW92078   8.654   0.003   2.946  0.2522 -0.1835  0.6827
29900SOL    HW192079   8.634  -0.007   3.039 -0.4322 -2.5063  0.3430
29900SOL    HW292080   8.679  -0.085   2.917  4.0893  1.1171 -0.5664
29901SOL     OW92081   3.213   7.154   2.016  0.2714 -0.5039  0.0179
29901SOL    HW192082   3.294   7.202   2.033 -0.6677  0.6224  1.5919
29901SOL    HW292083   3.225   7.070   2.060  0.3174 -0.0532  0.8856
29902SOL     OW92084   4.542   7.560   4.017  0.2629  0.6086  0.3978
29902SOL    HW192085   4.470   7.540   3.957  0.3084  1.6929 -0.0330
29902SOL    HW292086   4.618   7.516   3.980 -0.1618 -0.5070  0.8295
29903SOL     OW92087   4.965   6.106   5.317 -0.3834  0.5238  0.0223
29903SOL    HW192088   4.910   6.142   5.387 -2.1888  0.8409 -1.5026
29903SOL    HW292089   4.953   6.166   5.243 -1.9955 -2.0900 -1.9860
29904SOL     OW92090   1.506   7.996   5.582 -0.1497  0.1190 -0.0921
29904SOL    HW192091   1.529   8.013   5.490 -0.1410  1.8600  0.1990
29904SOL    HW292092   1.587   8.010   5.630 -0.7093  1.8446  0.4405
29905SOL     OW92093   9.882   4.946   2.341  0.4595  0.2588 -0.0612
29905SOL    HW192094   9.977   4.953   2.336  0.3387  1.5603 -1.0639
29905SOL    HW292095   9.858   4.889   2.268  0.4005  0.8332 -0.4987
29906SOL     OW92096  10.644   5.673   6.642 -0.3038 -0.4540 -0.0285
29906SOL    HW192097  10.660   5.580   6.623  0.7294 -0.1000 -0.9556
29906SOL    HW292098  10.555   5.674   6.677 -0.9944 -1.5987 -1.6068
29907SOL     OW92099   6.912   8.143   1.000  0.1025 -0.2777  0.1200
29907SOL    HW192100   6.851   8.089   0.950  1.1190 -2.5650  1.1801
29907SOL    HW292101   6.956   8.197   0.934 -2.2589  0.6890 -0.7685
29908SOL     OW92102   0.415   7.167   0.576 -0.0948 -0.2935  0.3349
29908SOL    HW192103   0.321   7.152   0.567 -0.0521  0.1010 -0.9515
29908SOL    HW292104   0.423   7.262   0.585  0.2645 -0.1876 -0.9792
29909SOL     OW92105   0.637   7.072   8.068  0.0704  0.4769 -0.2546
29909SOL    HW192106   0.563   7.132   8.072  0.0079  0.4509 -0.9153
29909SOL    HW292107   0.708   7.118   8.113  0.0146  1.0333 -0.7243
29910SOL     OW92108   8.994   6.112   9.958  0.4834  0.3585 -0.0657
29910SOL    HW192109   9.057   6.141  10.024 -0.0512  0.8373  0.2374
29910SOL    HW292110   9.045   6.103   9.878  1.5426 -1.9345  0.7596
29911SOL     OW92111   0.798   1.384   0.674 -0.0462  0.3842 -0.0348
29911SOL    HW192112   0.877   1.387   0.621 -0.4757  1.0684 -0.6599
29911SOL    HW292113   0.742   1.454   0.638 -1.4231 -0.8462 -0.3868
29912SOL     OW92114   7.151   2.860   1.134 -0.1112 -0.3166 -1.0580
29912SOL    HW192115   7.167   2.773   1.097 -1.6201 -0.6811 -0.9066
29912SOL    HW292116   7.196   2.920   1.075  1.7807 -1.2303 -0.6471
29913SOL     OW92117   3.470   9.537   9.507 -0.0388 -0.3349 -0.0851
29913SOL    HW192118   3.487   9.630   9.495  2.9071 -0.1878  3.5263
29913SOL    HW292119   3.385   9.535   9.553 -0.5228  0.4644 -0.9023
29914SOL     OW92120   0.506   3.631   8.740  0.2546 -0.6049  0.9794
29914SOL    HW192121   0.564   3.567   8.779 -0.3769 -0.9568  1.3645
29914SOL    HW292122   0.427   3.582   8.718  0.3892 -0.3038 -0.2637
29915SOL     OW92123   4.661   5.485   0.239 -0.4729  0.0831 -0.2759
29915SOL    HW192124   4.590   5.545   0.265 -0.2465  0.3734 -0.3190
29915SOL    HW292125   4.735   5.543   0.222 -0.3351 -0.1917 -0.6009
29916SOL     OW92126   3.183   5.217   7.851 -0.4218  0.2847 -0.3136
29916SOL    HW192127   3.260   5.160   7.848 -0.4091  0.3428 -1.6631
29916SOL    HW292128   3.186   5.257   7.938  0.8242 -0.0479 -0.1859
29917SOL     OW92129   5.982   0.311   2.224  0.0324  0.1014 -0.2003
29917SOL    HW192130   6.030   0.384   2.262  0.7328  0.0829 -1.0243
29917SOL    HW292131   6.012   0.234   2.273 -0.7660  0.3604  0.7191
29918SOL     OW92132   7.202  10.471   6.958 -0.2118  0.2847 -0.7585
29918SOL    HW192133   7.253  10.527   6.900 -1.4751  1.1596 -1.0541
29918SOL    HW292134   7.247  10.478   7.043  0.1798  1.0161 -1.0159
29919SOL     OW92135   1.800   4.241   7.670  0.2020 -0.2185  0.4799
29919SOL    HW192136   1.888   4.220   7.700  0.6866  0.4888 -0.3803
29919SOL    HW292137   1.808   4.243   7.574 -0.7433 -0.1287  0.3968
29920SOL     OW92138   6.397   3.410   2.709 -0.4563  0.7205 -0.1214
29920SOL    HW192139   6.334   3.370   2.649 -0.5852  0.2818  0.3046
29920SOL    HW292140   6.345   3.467   2.765 -0.4799  0.3273  0.2571
29921SOL     OW92141   3.404   2.229   3.067  0.3020 -0.4060 -0.3548
29921SOL    HW192142   3.492   2.202   3.040 -0.0266 -1.0952 -0.7633
29921SOL    HW292143   3.350   2.218   2.988 -0.2542 -0.4814  0.0304
29922SOL     OW92144   2.433   4.467   4.510 -0.2616 -0.5217  0.0254
29922SOL    HW192145   2.522   4.475   4.476 -0.0230 -1.5871  0.3613
29922SOL    HW292146   2.440   4.496   4.601  0.0753 -1.9726  0.4930
29923SOL     OW92147   7.489   0.691   3.515  0.2667  0.1275  0.0334
29923SOL    HW192148   7.498   0.705   3.609  0.1872 -2.3480  0.4611
29923SOL    HW292149   7.576   0.709   3.480  1.2864 -2.3607  1.1158
29924SOL     OW92150   3.510   6.742   7.210 -0.4387  0.4440  0.2225
29924SOL    HW192151   3.555   6.738   7.126  0.2322 -0.0099  0.5938
29924SOL    HW292152   3.431   6.689   7.198  0.0808 -0.3255  0.1264
29925SOL     OW92153   0.962  10.189   4.107 -0.6887 -0.0004 -0.5365
29925SOL    HW192154   0.900  10.172   4.177 -0.0107 -1.0865 -0.1752
29925SOL    HW292155   1.020  10.113   4.107  0.4677  0.8510 -1.0428
29926SOL     OW92156   5.432   9.409  10.362 -0.3781  0.1008 -0.6442
29926SOL    HW192157   5.378   9.482  10.391  2.1095  1.9147 -0.2787
29926SOL    HW292158   5.475   9.378  10.442  1.7074  0.9953 -1.3610
29927SOL     OW92159   0.286   3.724   7.452 -0.4503  0.4614  0.7023
29927SOL    HW192160   0.294   3.664   7.378 -0.1340  0.9083  0.3648
29927SOL    HW292161   0.357   3.787   7.439 -1.9505  2.0607 -0.0222
29928SOL     OW92162   6.477   8.319   2.330 -0.4770  0.3680  0.4173
29928SOL    HW192163   6.568   8.309   2.359 -0.2582 -0.0141 -0.3960
29928SOL    HW292164   6.484   8.358   2.243 -1.1697  3.7359  1.6857
29929SOL     OW92165   3.280   5.955   9.222 -0.3330 -0.1778  0.4765
29929SOL    HW192166   3.197   5.911   9.240 -0.0345 -0.7427  0.4707
29929SOL    HW292167   3.288   6.020   9.292 -0.7069 -0.2164  0.5601
29930SOL     OW92168   0.820   6.837   0.335  0.2045 -0.0958  0.2812
29930SOL    HW192169   0.789   6.920   0.370 -0.2133  0.4965 -1.3733
29930SOL    HW292170   0.751   6.775   0.354 -0.2344  0.3250  0.0821
29931SOL     OW92171  10.447   4.594   1.365 -0.4221 -0.6158 -0.6783
29931SOL    HW192172  10.526   4.559   1.408 -1.5358 -1.1838  1.0282
29931SOL    HW292173  10.388   4.615   1.438 -1.5348  0.5932 -1.8819
29932SOL     OW92174   7.485   6.004  10.245  0.1625 -0.0164 -0.1455
29932SOL    HW192175   7.526   6.083  10.278  0.9241 -1.3116  2.2095
29932SOL    HW292176   7.422   5.979  10.313  1.3634 -2.4756  0.1601
29933SOL     OW92177   9.892   8.196   5.429 -0.3597  0.3137  0.1052
29933SOL    HW192178   9.916   8.272   5.482  1.6322  0.3995 -0.8182
29933SOL    HW292179   9.796   8.199   5.425 -0.4474  1.5040  1.8875
29934SOL     OW92180   7.696   7.186   7.383 -0.5081  0.3825  0.3511
29934SOL    HW192181   7.648   7.246   7.440 -0.5870  0.6477  0.0092
29934SOL    HW292182   7.658   7.199   7.296 -1.3493 -1.0309  0.4757
29935SOL     OW92183   7.365   1.289   9.957 -0.0715  0.1333 -0.7027
29935SOL    HW192184   7.426   1.219   9.936 -1.1090 -0.3669 -2.2192
29935SOL    HW292185   7.283   1.245   9.981 -0.6022  0.7853 -1.2294
29936SOL     OW92186   7.749   5.945   0.278 -0.0460  0.2620  0.4037
29936SOL    HW192187   7.838   5.929   0.246  0.3004 -0.7361  1.7582
29936SOL    HW292188   7.701   5.977   0.201  0.3666 -3.3071 -1.5513
29937SOL     OW92189   3.352   1.408   3.634 -0.5164 -0.3773 -0.4946
29937SOL    HW192190   3.432   1.364   3.664 -1.0339 -2.6634 -2.1269
29937SOL    HW292191   3.383   1.484   3.585  0.4946  0.4423  1.3390
29938SOL     OW92192   0.957   4.520   1.189 -0.0236 -0.1118 -0.3757
29938SOL    HW192193   0.969   4.444   1.246 -1.6501  0.9118  1.4185
29938SOL    HW292194   0.878   4.499   1.138 -0.4230  0.3150  0.0583
29939SOL     OW92195   3.398   6.400   6.119 -0.7669 -0.5629  0.3224
29939SOL    HW192196   3.462   6.330   6.136  1.5134  1.6738  1.7641
29939SOL    HW292197   3.432   6.445   6.043 -0.6250  0.6219  1.0679
29940SOL     OW92198   4.778   7.831   8.566 -0.0811 -0.1906 -0.0054
29940SOL    HW192199   4.713   7.842   8.635 -0.5424 -1.1959 -0.2638
29940SOL    HW292200   4.785   7.736   8.554 -0.4449 -0.0383 -1.7303
29941SOL     OW92201  10.593   7.325   8.154  0.1679 -0.0937  0.0578
29941SOL    HW192202  10.538   7.251   8.182 -0.0977  0.6671  1.6244
29941SOL    HW292203  10.660   7.333   8.222  0.9088  0.3910 -0.7040
29942SOL     OW92204   6.726   5.314   2.554 -0.0603 -0.2092 -0.1453
29942SOL    HW192205   6.817   5.296   2.577 -0.1516 -0.5995 -0.0796
29942SOL    HW292206   6.731   5.375   2.481  0.3025 -1.9906 -1.6686
29943SOL     OW92207   8.526   4.057   1.410  0.2848 -0.0418 -0.0742
29943SOL    HW192208   8.456   3.993   1.398 -0.0833  0.6107 -1.6366
29943SOL    HW292209   8.604   4.005   1.427 -0.3048 -0.8336  0.2803
29944SOL     OW92210   5.092   5.807   9.128 -0.0199 -0.5429 -0.1769
29944SOL    HW192211   5.051   5.884   9.168 -0.3866 -0.9701  0.2924
29944SOL    HW292212   5.112   5.750   9.202 -2.2522 -2.0895 -0.6691
29945SOL     OW92213   0.050   6.291   2.358 -0.1429 -0.3453 -0.1266
29945SOL    HW192214   0.089   6.238   2.288  2.9419 -0.8062  1.6988
29945SOL    HW292215  -0.029   6.243   2.383 -1.1587 -0.3438 -2.9378
29946SOL     OW92216   8.508   7.749   7.371  0.5091  0.1574 -0.1611
29946SOL    HW192217   8.452   7.690   7.421 -0.0570 -0.6396 -1.6783
29946SOL    HW292218   8.500   7.834   7.415 -1.1880 -0.1536  0.1737
29947SOL     OW92219   8.864   8.264   2.389  0.2760  0.5664 -0.3614
29947SOL    HW192220   8.801   8.199   2.420  0.5306  1.1810  1.5527
29947SOL    HW292221   8.817   8.312   2.321 -0.2852 -0.8624 -1.0426
29948SOL     OW92222   3.016   0.275  10.314  0.8303 -0.1598 -0.5346
29948SOL    HW192223   3.061   0.229  10.385 -2.5340  0.6907  2.4299
29948SOL    HW292224   3.016   0.367  10.342  1.5633  0.6491 -2.9673
29949SOL     OW92225   2.219   1.803   6.883  0.6106  0.1159 -0.7679
29949SOL    HW192226   2.256   1.751   6.954  0.4428  1.3330  0.2518
29949SOL    HW292227   2.126   1.783   6.885  0.5500  0.4139 -0.3944
29950SOL     OW92228   5.169  10.694   3.359 -0.4525  0.2298  0.3346
29950SOL    HW192229   5.079  10.666   3.378 -0.6327  0.6489  0.1085
29950SOL    HW292230   5.174  10.694   3.263 -0.1417 -0.0051  0.3495
29951SOL     OW92231   8.105   1.536   1.523  0.2082 -0.1153  0.4186
29951SOL    HW192232   8.133   1.626   1.511 -1.9927  0.8854  2.0587
29951SOL    HW292233   8.048   1.518   1.447  0.8728 -0.2668 -0.0577
29952SOL     OW92234   4.464   7.594   4.878  0.4267 -0.3440 -0.5235
29952SOL    HW192235   4.436   7.579   4.788 -0.8016  2.5464 -0.7460
29952SOL    HW292236   4.543   7.647   4.869  1.3394 -1.5418  0.1490
29953SOL     OW92237   3.429   4.078   1.586 -0.0928 -0.1970  0.8351
29953SOL    HW192238   3.383   4.017   1.644 -0.5569  0.1277  0.8142
29953SOL    HW292239   3.371   4.089   1.511 -0.5306  1.0976  1.3274
29954SOL     OW92240   8.664   9.572   3.728 -0.0689 -0.0723 -0.0773
29954SOL    HW192241   8.663   9.668   3.733 -0.0566 -0.0551 -0.3480
29954SOL    HW292242   8.571   9.548   3.720  0.0279  0.1381 -3.3402
29955SOL     OW92243   9.935   7.777   3.128 -0.8623 -0.1986 -0.7541
29955SOL    HW192244   9.901   7.817   3.208 -0.8872 -0.1928 -0.7676
29955SOL    HW292245   9.996   7.710   3.159  0.5180  1.0333 -0.7626
29956SOL     OW92246   9.820   8.149  10.519 -0.9773 -0.2877  0.2422
29956SOL    HW192247   9.894   8.176  10.463 -1.8569  0.5750 -0.5474
29956SOL    HW292248   9.744   8.152  10.461 -1.5506 -1.8806  0.8513
29957SOL     OW92249   1.620   3.221   8.753  0.3538 -0.3447 -0.1067
29957SOL    HW192250   1.640   3.242   8.662 -1.4080  0.3941 -0.3620
29957SOL    HW292251   1.577   3.135   8.749  0.7779 -0.5683  0.0955
29958SOL     OW92252   0.904   1.203   6.789  0.0956 -0.1905  0.2613
29958SOL    HW192253   0.867   1.285   6.757  1.6675 -0.1721 -1.6538
29958SOL    HW292254   0.955   1.229   6.866  0.9426  0.7418 -0.5776
29959SOL     OW92255   4.000   4.969   1.860 -0.1317  0.8487 -0.0565
29959SOL    HW192256   4.049   4.890   1.881 -2.4701 -0.6083  0.3203
29959SOL    HW292257   4.017   5.029   1.932  0.8802  0.3010  0.1688
29960SOL     OW92258   1.629   7.649   5.546 -0.2153 -0.1366 -0.2319
29960SOL    HW192259   1.703   7.707   5.562 -0.9261  0.7058  0.0450
29960SOL    HW292260   1.621   7.646   5.451  0.5390 -0.7211 -0.2915
29961SOL     OW92261   4.159  10.735   6.247  0.6659  0.6118  0.1253
29961SOL    HW192262   4.226  10.728   6.315  0.5865  0.6694  0.2106
29961SOL    HW292263   4.186  10.811   6.195  1.7769 -0.5451 -1.0771
29962SOL     OW92264   3.108   7.489   0.393 -0.0078  0.8592 -0.0421
29962SOL    HW192265   3.110   7.435   0.314  1.5420 -0.1711  0.6330
29962SOL    HW292266   3.088   7.428   0.463  0.1191  1.4687  0.5380
29963SOL     OW92267   0.203   2.220   8.582  0.6891 -0.8147 -0.5203
29963SOL    HW192268   0.167   2.307   8.600 -0.3303 -1.1290 -1.0087
29963SOL    HW292269   0.161   2.163   8.646  3.1697 -0.6101  1.4741
29964SOL     OW92270   2.157   1.449  10.114 -0.5872 -0.2508 -0.2520
29964SOL    HW192271   2.091   1.444  10.184  0.4936  3.3285  1.2719
29964SOL    HW292272   2.239   1.429  10.158 -0.0759  0.5653 -0.8124
29965SOL     OW92273   6.995   9.225   2.124 -0.2572 -0.2491 -1.0926
29965SOL    HW192274   7.078   9.272   2.125  0.8617 -1.9836 -3.4116
29965SOL    HW292275   7.018   9.133   2.130 -2.2238 -0.7016  0.7521
29966SOL     OW92276   4.657   7.682   7.124 -0.0717 -0.2109 -0.3197
29966SOL    HW192277   4.593   7.612   7.132  0.0088 -0.1583  1.0718
29966SOL    HW292278   4.625   7.736   7.052 -3.1692  1.3437  1.9715
29967SOL     OW92279   8.305  10.215   3.736 -0.0702 -0.5688 -0.0331
29967SOL    HW192280   8.222  10.235   3.691  0.7213 -1.6333 -2.1198
29967SOL    HW292281   8.304  10.270   3.814 -1.7663  1.0746 -1.1271
29968SOL     OW92282   2.156   1.448   3.572  0.3453  0.0964 -0.5894
29968SOL    HW192283   2.223   1.386   3.601 -0.1843 -0.7485 -1.1142
29968SOL    HW292284   2.077   1.421   3.619 -0.0123  0.0383 -1.2116
29969SOL     OW92285   5.984  10.531  10.794  0.7319 -0.0745 -0.2977
29969SOL    HW192286   5.945  10.498  10.875  0.6032  0.7085 -0.0284
29969SOL    HW292287   6.078  10.527  10.808  0.7532 -1.4042 -0.7170
29970SOL     OW92288   3.191  10.493   0.467 -0.1352  0.0104  0.3388
29970SOL    HW192289   3.179  10.401   0.491  0.7021 -0.5742 -1.3260
29970SOL    HW292290   3.114  10.537   0.502 -0.1042 -1.1394  1.9783
29971SOL     OW92291   1.389   0.589   8.396  0.9619  0.8526 -0.2627
29971SOL    HW192292   1.380   0.635   8.312  0.1824  1.2833  0.0501
29971SOL    HW292293   1.360   0.499   8.377  0.5663  1.0076 -0.3985
29972SOL     OW92294   7.095   4.261   0.230 -0.2826 -0.0498  0.3205
29972SOL    HW192295   7.113   4.170   0.251  0.2590  0.4149  1.9931
29972SOL    HW292296   7.018   4.283   0.282 -0.0071  0.6250  0.4566
29973SOL     OW92297   8.338   5.979   3.512 -0.0387  0.0076 -0.6156
29973SOL    HW192298   8.416   5.989   3.457  0.9102  0.0829  0.6995
29973SOL    HW292299   8.348   5.893   3.553 -1.0111 -0.2854 -0.9531
29974SOL     OW92300   2.232   3.942   1.302 -0.0024 -0.3687  0.6291
29974SOL    HW192301   2.152   3.981   1.336 -0.7790 -1.0288 -0.3725
29974SOL    HW292302   2.222   3.848   1.317 -0.3688 -0.6890 -1.3055
29975SOL     OW92303   5.283   3.016   5.143  0.2886 -0.6193 -0.4792
29975SOL    HW192304   5.375   2.993   5.131  0.5543  0.0286  0.2447
29975SOL    HW292305   5.282   3.112   5.145 -0.5952 -0.5701 -1.9201
29976SOL     OW92306   7.549   2.696   3.258 -0.2941  0.9551  0.1854
29976SOL    HW192307   7.561   2.728   3.168 -1.7716  0.2402 -0.2920
29976SOL    HW292308   7.466   2.649   3.256  1.4501 -2.5387  0.9403
29977SOL     OW92309   2.283   5.793   2.582  0.8375 -0.0579  0.2913
29977SOL    HW192310   2.361   5.738   2.592  1.2485  0.4459 -0.1015
29977SOL    HW292311   2.311   5.863   2.524 -0.3607 -0.7541 -1.1958
29978SOL     OW92312   2.816  10.577   7.370 -0.0601  0.1555  0.0791
29978SOL    HW192313   2.899  10.610   7.336 -0.4541  0.3376 -0.7238
29978SOL    HW292314   2.760  10.654   7.375  0.5952  0.5694  3.1761
29979SOL     OW92315   1.956   5.521   0.203  0.1404 -0.3328  0.1469
29979SOL    HW192316   1.969   5.517   0.108  0.5289  0.7012  0.1457
29979SOL    HW292317   2.036   5.562   0.236  0.8250 -2.3467  1.1265
29980SOL     OW92318  10.390   1.499   6.352 -0.1163  0.1496  0.3542
29980SOL    HW192319  10.401   1.588   6.319  1.5406 -0.1130  0.1311
29980SOL    HW292320  10.453   1.447   6.302  1.2068 -0.5795  2.6696
29981SOL     OW92321   3.026   2.262   3.907 -0.6982  0.2008  0.2398
29981SOL    HW192322   3.079   2.209   3.967  1.5517  1.0730 -0.8706
29981SOL    HW292323   3.006   2.341   3.955 -1.6851 -0.4417  0.9254
29982SOL     OW92324   1.003   9.380   2.018  0.5139 -0.2648  0.1299
29982SOL    HW192325   0.941   9.450   1.997 -0.1074 -0.8983 -0.1737
29982SOL    HW292326   1.089   9.419   2.000  0.1894  0.4731  0.1227
29983SOL     OW92327   0.665   1.129   7.597  0.1203 -0.5890  0.2348
29983SOL    HW192328   0.668   1.080   7.679 -0.4163  2.0494  1.9643
29983SOL    HW292329   0.752   1.117   7.558  0.0227 -2.7822  0.5615
29984SOL     OW92330   1.866   5.533   9.813 -0.7938 -0.0730 -0.0866
29984SOL    HW192331   1.866   5.628   9.830  1.1641 -0.2550  1.1679
29984SOL    HW292332   1.774   5.513   9.796 -1.4327  1.8698  0.7277
29985SOL     OW92333   2.498   9.070  10.676  0.2505  0.0502  1.0953
29985SOL    HW192334   2.409   9.047  10.649  0.4172  1.8629 -1.3111
29985SOL    HW292335   2.486   9.146  10.734  0.2197  0.1720  0.9297
29986SOL     OW92336   0.531   2.383   7.562 -0.3151  0.2833 -0.0530
29986SOL    HW192337   0.514   2.328   7.486  0.0388  0.6199 -0.3844
29986SOL    HW292338   0.457   2.444   7.565 -0.0112  0.6821 -0.5109
29987SOL     OW92339  10.621   7.859   8.554  0.4543  0.3287  0.5075
29987SOL    HW192340  10.570   7.813   8.488  0.1929  0.6254  0.4949
29987SOL    HW292341  10.600   7.815   8.636 -1.2998  1.5849  0.8051
29988SOL     OW92342   2.395   5.985   4.809 -0.6765 -0.5634  0.2203
29988SOL    HW192343   2.490   5.976   4.807 -0.6836 -0.7083 -1.5555
29988SOL    HW292344   2.368   5.940   4.888  0.8401  0.8628  1.6369
29989SOL     OW92345   2.832   9.852   6.939 -0.7259  0.3852  0.4279
29989SOL    HW192346   2.781   9.933   6.944  0.3699  1.1651 -0.5261
29989SOL    HW292347   2.882   9.850   7.021 -0.3133  1.0042  0.2043
29990SOL     OW92348   7.648   1.713   1.312  0.0779  0.2539  0.1463
29990SOL    HW192349   7.712   1.777   1.280 -0.7380  1.1982  0.3500
29990SOL    HW292350   7.619   1.748   1.397 -1.1062  0.1492 -0.1925
29991SOL     OW92351   8.125   7.637   7.582 -0.0445 -0.2203 -0.0463
29991SOL    HW192352   8.056   7.703   7.577 -0.8499 -1.1392 -2.3184
29991SOL    HW292353   8.102   7.573   7.515  2.0736 -1.5079  0.3629
29992SOL     OW92354   0.111   0.466   1.451 -0.1246 -1.1923  0.0045
29992SOL    HW192355   0.018   0.462   1.471 -0.0339 -3.8598  0.2475
29992SOL    HW292356   0.135   0.557   1.467 -2.4987 -0.6183  0.7186
29993SOL     OW92357   4.857   3.607   7.284 -0.2568 -0.4010  0.1938
29993SOL    HW192358   4.897   3.685   7.323  0.3164 -0.5559 -0.0781
29993SOL    HW292359   4.819   3.639   7.202 -1.1479 -0.1490  0.6945
29994SOL     OW92360   0.577   8.384   7.117 -0.2982 -0.4961  0.3377
29994SOL    HW192361   0.582   8.456   7.054 -0.6758  0.5550  1.4697
29994SOL    HW292362   0.503   8.406   7.173 -1.2141 -2.4242 -0.0339
29995SOL     OW92363   3.803   1.664   0.776  0.0055  0.2940 -0.1683
29995SOL    HW192364   3.788   1.583   0.727  0.7107 -0.0935  0.2375
29995SOL    HW292365   3.892   1.690   0.753 -0.3570  1.1784 -0.6047
29996SOL     OW92366   3.630  10.437   2.664 -0.1043  0.1955 -0.4006
29996SOL    HW192367   3.675  10.381   2.601  0.2541 -0.9202  0.8255
29996SOL    HW292368   3.678  10.427   2.745 -0.1630  2.1423 -0.0826
29997SOL     OW92369   6.714   8.764   9.201 -0.2363  0.1173  0.0019
29997SOL    HW192370   6.625   8.731   9.197  0.0359 -0.9549  1.7572
29997SOL    HW292371   6.767   8.688   9.225  1.2879  0.5581 -1.7188
29998SOL     OW92372   4.425   4.097   4.276  0.3105  0.3314 -0.6681
29998SOL    HW192373   4.423   4.140   4.362 -2.4741  0.7317 -0.8356
29998SOL    HW292374   4.369   4.152   4.221 -0.1418 -1.3738 -1.9928
29999SOL     OW92375   2.082   8.951   1.397 -0.6474 -0.3882 -0.2823
29999SOL    HW192376   2.151   9.004   1.356 -3.0308  2.2669 -1.2059
29999SOL    HW292377   2.058   9.000   1.476 -0.2995 -2.2469  1.0364
30000SOL     OW92378  10.665   1.119   5.503 -0.0637 -0.4895 -0.0742
30000SOL    HW192379  10.610   1.116   5.425  0.5616  0.0201 -0.5486
30000SOL    HW292380  10.629   1.051   5.560  0.0679 -1.5588 -1.2110
30001SOL     OW92381   3.498   1.149   8.134  0.5599 -0.0182 -0.2975
30001SOL    HW192382   3.541   1.109   8.058 -2.2524  0.5161 -2.3297
30001SOL    HW292383   3.494   1.079   8.199  1.0315 -1.2022 -1.5021
30002SOL     OW92384   5.660  10.490   8.826 -0.1059  0.2245 -0.3521
30002SOL    HW192385   5.675  10.581   8.852  1.6594 -0.0130 -0.4133
30002SOL    HW292386   5.647  10.444   8.909 -1.3453  0.5606 -0.3385
30003SOL     OW92387   7.614   8.411   3.630 -0.3694 -0.6230  0.5024
30003SOL    HW192388   7.600   8.373   3.543 -0.0304 -1.7908  0.9409
30003SOL    HW292389   7.542   8.377   3.683 -0.1922 -0.4694  0.8458
30004SOL     OW92390  10.675   0.339   0.758 -0.1463 -0.2293 -0.6767
30004SOL    HW192391  10.725   0.273   0.806 -1.6794 -1.6003 -0.8765
30004SOL    HW292392  10.664   0.411   0.821  1.6756 -0.0671 -0.5036
30005SOL     OW92393   0.383   2.276   6.917 -0.1961 -0.1076 -0.0204
30005SOL    HW192394   0.413   2.226   6.841  1.5060 -1.3615  1.3691
30005SOL    HW292395   0.456   2.333   6.939 -0.9436  0.7634  0.2764
30006SOL     OW92396  10.704   9.941  10.271 -1.0643  0.2735 -0.1759
30006SOL    HW192397  10.773   9.947  10.206 -0.6088  0.2087  0.2921
30006SOL    HW292398  10.694   9.847  10.286 -0.3772  0.3211  0.6624
30007SOL     OW92399   3.057   1.060  10.268 -0.0398 -1.0012 -0.0317
30007SOL    HW192400   3.138   1.012  10.247  0.2402 -0.6394  0.2073
30007SOL    HW292401   3.078   1.108  10.348 -1.1078 -2.3824  1.1123
30008SOL     OW92402   7.978   3.577   3.661  0.0721 -0.4375  0.3520
30008SOL    HW192403   7.898   3.610   3.701 -0.0834  0.1719 -0.4323
30008SOL    HW292404   8.022   3.529   3.731 -1.5083 -1.7549  0.4943
30009SOL     OW92405  10.050   8.542   1.449 -0.6252  0.5505 -0.0944
30009SOL    HW192406  10.078   8.634   1.451 -1.3295  0.7742 -0.2431
30009SOL    HW292407  10.018   8.529   1.360 -1.8457  0.5669  0.3334
30010SOL     OW92408   3.319  10.558   3.200 -0.1420  0.6537 -0.1037
30010SOL    HW192409   3.254  10.534   3.134 -0.3374 -0.5099  0.4828
30010SOL    HW292410   3.281  10.528   3.283  0.6968  0.8656  0.3684
30011SOL     OW92411  10.754   8.659   1.177 -0.3414  0.2175 -0.2799
30011SOL    HW192412  10.829   8.601   1.193 -0.1160  0.9476  1.5188
30011SOL    HW292413  10.689   8.603   1.134  1.3254 -0.3445 -2.2308
30012SOL     OW92414  10.618   0.168   3.192  0.1638 -0.1084 -0.2202
30012SOL    HW192415  10.601   0.205   3.279  0.4067 -0.2313 -0.1204
30012SOL    HW292416  10.702   0.207   3.166 -0.1928  0.3831 -0.6493
30013SOL     OW92417   4.683   1.144   7.082  0.4788  0.7139 -0.3880
30013SOL    HW192418   4.635   1.061   7.086 -0.1650  0.7238 -4.2850
30013SOL    HW292419   4.620   1.210   7.111 -0.3391  0.2423 -1.0637
30014SOL     OW92420   6.451   1.156   3.146  0.1396  0.1916 -0.0555
30014SOL    HW192421   6.537   1.125   3.173  0.5647  0.9505 -0.5126
30014SOL    HW292422   6.435   1.233   3.200  0.2212  0.6730 -0.6985
30015SOL     OW92423   2.934   6.521   8.721  0.0291  0.3449 -0.0909
30015SOL    HW192424   2.962   6.611   8.740  0.6251  0.5345 -1.6690
30015SOL    HW292425   2.896   6.490   8.803  2.6427  0.9371  1.4513
30016SOL     OW92426   5.994   0.655   3.852  0.3340 -0.7609  0.0016
30016SOL    HW192427   6.003   0.733   3.907  0.1804 -0.0693 -0.9160
30016SOL    HW292428   6.083   0.635   3.823  0.3081 -0.5626 -0.2260
30017SOL     OW92429   0.082   2.101   9.342 -0.1778 -0.3503  0.2921
30017SOL    HW192430   0.154   2.164   9.346 -0.9303  0.6575 -1.1475
30017SOL    HW292431   0.118   2.020   9.378  0.9395  0.7745  1.8412
30018SOL     OW92432   0.425   4.384   9.051 -0.0182  0.2213  0.0562
30018SOL    HW192433   0.355   4.430   9.097 -0.8593  1.4818 -2.3061
30018SOL    HW292434   0.446   4.310   9.108 -1.1417  1.5032  2.2743
30019SOL     OW92435   0.646   0.573   3.214  0.3104  0.1204  0.2781
30019SOL    HW192436   0.702   0.543   3.142 -0.1592  0.2201 -0.1360
30019SOL    HW292437   0.563   0.526   3.201  1.0573 -1.9582  2.3089
30020SOL     OW92438   0.575   3.244   1.862  0.4486 -0.0365 -0.2488
30020SOL    HW192439   0.636   3.172   1.878 -1.0578 -1.1405  0.7971
30020SOL    HW292440   0.489   3.203   1.864 -0.5410  1.9271  1.4011
30021SOL     OW92441   6.490   9.064   5.379 -0.0264  0.0868  0.2461
30021SOL    HW192442   6.442   8.983   5.368  0.6096 -0.3727  0.7768
30021SOL    HW292443   6.426   9.133   5.360 -0.5188 -0.5350 -0.3809
30022SOL     OW92444   4.917   4.923   2.155  0.7846 -0.5518  0.0795
30022SOL    HW192445   4.940   5.006   2.196  0.4895 -0.1979 -0.4717
30022SOL    HW292446   4.958   4.927   2.069 -0.7071 -0.2274 -0.6335
30023SOL     OW92447   1.070   2.370   3.238 -0.2482 -0.6521  0.3332
30023SOL    HW192448   1.090   2.277   3.251  0.5525 -0.3183  1.7100
30023SOL    HW292449   0.980   2.380   3.268 -0.5668 -1.1106 -0.4648
30024SOL     OW92450   2.671   5.165   3.737 -0.2139 -0.5726  0.2443
30024SOL    HW192451   2.730   5.112   3.791 -2.0993 -1.4770  1.5148
30024SOL    HW292452   2.635   5.229   3.797  0.3644  0.7824 -0.8025
30025SOL     OW92453   3.364   4.131   2.063 -0.7409 -0.1717  0.0908
30025SOL    HW192454   3.354   4.197   2.131 -0.3698  1.5365 -1.4577
30025SOL    HW292455   3.298   4.065   2.084 -0.8625  0.4544  1.8847
30026SOL     OW92456   2.166   0.476   8.456  0.0481  0.0391 -0.0576
30026SOL    HW192457   2.178   0.563   8.493 -0.5046  0.5932 -1.1531
30026SOL    HW292458   2.229   0.421   8.504  0.2340  0.9746  0.8076
30027SOL     OW92459   0.798   3.873   4.705  0.0763 -0.0535 -0.6619
30027SOL    HW192460   0.826   3.782   4.695  1.7742  0.1483  1.4124
30027SOL    HW292461   0.756   3.876   4.791 -1.1587  0.8907 -1.2620
30028SOL     OW92462  10.393   5.985   3.757 -0.2160  0.4525 -0.6496
30028SOL    HW192463  10.306   5.957   3.729 -0.4808  0.1680  0.4057
30028SOL    HW292464  10.440   6.001   3.676 -0.5790 -1.4586 -1.2922
30029SOL     OW92465   1.458   5.153   3.334  0.2261 -0.0927 -0.3665
30029SOL    HW192466   1.536   5.195   3.298 -0.9675  3.0095  0.3885
30029SOL    HW292467   1.400   5.141   3.258  0.4383 -0.0390 -0.5360
30030SOL     OW92468   2.860   0.803   6.832  0.5321  0.3513  0.0773
30030SOL    HW192469   2.807   0.723   6.824  2.5698 -1.0507 -0.1931
30030SOL    HW292470   2.839   0.854   6.754 -0.4477 -0.1313  0.0103
30031SOL     OW92471   5.068   2.305   9.526 -0.2758  0.1968 -0.5535
30031SOL    HW192472   5.129   2.232   9.520 -1.3017 -0.7830  0.3074
30031SOL    HW292473   5.121   2.380   9.553  0.4441 -0.7802  0.8087
30032SOL     OW92474   3.059   5.897   2.576  0.5618 -0.1635 -0.1188
30032SOL    HW192475   2.994   5.848   2.525  0.9308 -0.6141 -0.1624
30032SOL    HW292476   3.142   5.853   2.558  0.8895  0.4424 -0.1046
30033SOL     OW92477   2.455   8.998   1.802  0.4659 -0.0994 -0.3536
30033SOL    HW192478   2.450   8.906   1.830  0.0659  0.3608  1.2209
30033SOL    HW292479   2.366   9.031   1.813  0.7478  0.6454 -0.2577
30034SOL     OW92480   6.755   4.398   9.816  0.2228 -0.5859  0.0004
30034SOL    HW192481   6.757   4.302   9.825 -0.0482 -0.6295 -0.3823
30034SOL    HW292482   6.662   4.418   9.804  0.4810 -0.4706 -1.9943
30035SOL     OW92483   1.731   9.503   0.319  0.1547 -0.2846  0.1451
30035SOL    HW192484   1.684   9.566   0.374 -2.1341 -2.7338  1.2427
30035SOL    HW292485   1.760   9.435   0.380 -1.7018 -2.6457 -1.4084
30036SOL     OW92486   6.713   6.597   7.124 -0.5579 -0.2032 -0.1037
30036SOL    HW192487   6.805   6.602   7.098 -0.5082 -3.6524 -1.1095
30036SOL    HW292488   6.715   6.608   7.219  0.6960  1.1374 -0.2553
30037SOL     OW92489   6.532   2.011   5.966 -0.2620 -0.4764  0.0036
30037SOL    HW192490   6.464   1.943   5.962 -1.9836  0.9409  2.5427
30037SOL    HW292491   6.595   1.978   6.031 -0.9451  0.1779  1.0196
30038SOL     OW92492   6.877   5.028   5.427  0.6648 -0.2570  0.0436
30038SOL    HW192493   6.813   4.982   5.372  0.0378  0.6330 -0.0063
30038SOL    HW292494   6.912   4.961   5.485 -0.5253 -0.7222  0.2507
30039SOL     OW92495   2.217   9.070   8.475  0.1271 -0.1172 -0.1323
30039SOL    HW192496   2.287   9.129   8.449  1.0139 -0.2785  1.7381
30039SOL    HW292497   2.250   8.983   8.454 -1.3467 -0.0777 -3.2810
30040SOL     OW92498   6.139   9.224   5.725  0.2000  0.0067 -0.0710
30040SOL    HW192499   6.067   9.278   5.693  0.2032  0.1634  0.1841
30040SOL    HW292500   6.097   9.150   5.768  0.1286  1.1843  2.0142
30041SOL     OW92501   7.199   3.116   2.851  0.2876 -0.0661 -0.5297
30041SOL    HW192502   7.283   3.149   2.818  0.1664  0.7292 -0.0732
30041SOL    HW292503   7.195   3.025   2.821  0.3848  0.4842 -2.3474
30042SOL     OW92504  10.142   7.543   1.744 -0.4133  0.3470  0.6670
30042SOL    HW192505  10.201   7.594   1.800  0.6868 -1.1458  0.9167
30042SOL    HW292506  10.071   7.604   1.723  0.4638  1.7394  1.5624
30043SOL     OW92507   0.640   4.961   5.104 -0.4641 -0.3404 -0.2982
30043SOL    HW192508   0.705   4.958   5.034  1.5541 -0.6082  1.4866
30043SOL    HW292509   0.647   5.049   5.140 -0.4371 -0.6515  0.4752
30044SOL     OW92510   3.876   4.883   5.739  0.0088  0.4096  0.0593
30044SOL    HW192511   3.850   4.975   5.734  0.2015  0.5827  1.5752
30044SOL    HW292512   3.967   4.885   5.768  0.1189 -0.2519 -0.2309
30045SOL     OW92513   7.140   1.712  10.453 -0.0991  0.2099  0.5121
30045SOL    HW192514   7.188   1.699  10.536  1.1880  0.5229 -0.1542
30045SOL    HW292515   7.185   1.785  10.411 -0.1326 -0.5333 -0.8819
30046SOL     OW92516   0.166   1.267   7.337 -0.2328 -0.2101 -0.6817
30046SOL    HW192517   0.173   1.172   7.345  1.6385  0.0024  1.1327
30046SOL    HW292518   0.257   1.298   7.341 -0.8787  1.9195  4.0278
30047SOL     OW92519   5.731   0.101   2.965 -0.1094 -0.2124  0.1470
30047SOL    HW192520   5.766   0.035   2.904 -1.1444  0.8844 -1.7218
30047SOL    HW292521   5.636   0.097   2.952 -0.2581  0.8803  0.8070
30048SOL     OW92522   4.940   5.284   7.994  0.3380 -0.5310 -0.5894
30048SOL    HW192523   4.930   5.203   7.943  1.2135 -0.9642 -0.0982
30048SOL    HW292524   5.035   5.294   8.004  0.2074  0.1087  0.0735
30049SOL     OW92525  10.743   5.563   9.776  0.1909  0.0797  0.2167
30049SOL    HW192526  10.668   5.535   9.722 -0.0495 -0.3973  0.7907
30049SOL    HW292527  10.818   5.522   9.734 -0.2289 -2.1489  1.4622
30050SOL     OW92528   7.855   4.222   7.152 -0.6006 -0.4316  0.5007
30050SOL    HW192529   7.935   4.252   7.194 -1.4060  0.2194  1.6066
30050SOL    HW292530   7.881   4.207   7.061  0.6132  0.4118  0.6761
30051SOL     OW92531   4.825  10.213   6.852 -0.1433 -0.0933  0.2118
30051SOL    HW192532   4.779  10.159   6.916 -0.8593 -0.7061 -0.7933
30051SOL    HW292533   4.757  10.242   6.791  0.5785  0.1744 -0.4862
30052SOL     OW92534   2.460   7.397   2.041 -0.1687  0.1592 -0.6475
30052SOL    HW192535   2.454   7.464   1.972  2.6194  1.0751 -0.1626
30052SOL    HW292536   2.506   7.324   1.999  0.3435  0.1815 -0.1326
30053SOL     OW92537   7.403   6.642   0.227 -0.8001  0.1721  0.0565
30053SOL    HW192538   7.314   6.648   0.261 -1.5233  1.3063 -1.8929
30053SOL    HW292539   7.402   6.562   0.174 -1.0092  0.7847 -0.8770
30054SOL     OW92540   4.842  10.702   1.513 -0.6383 -0.2854  0.8125
30054SOL    HW192541   4.836  10.705   1.417  1.5944  0.1495  0.6172
30054SOL    HW292542   4.753  10.719   1.543 -1.2469  0.4220 -1.1922
30055SOL     OW92543   5.964   3.048   1.567 -0.0414  0.1668 -0.3784
30055SOL    HW192544   6.023   2.994   1.619 -0.3663  1.4773  1.4511
30055SOL    HW292545   5.878   3.008   1.580 -0.2889  1.0823  1.0110
30056SOL     OW92546   7.875   9.564   4.900  0.2437  0.0800  0.7370
30056SOL    HW192547   7.917   9.506   4.964  0.8418 -0.7494 -0.3764
30056SOL    HW292548   7.895   9.652   4.932  2.1978 -0.2959  0.6956
30057SOL     OW92549   1.346   6.007   1.153 -0.8604 -0.3042 -0.0875
30057SOL    HW192550   1.385   6.088   1.185 -0.7522 -0.7144  0.8484
30057SOL    HW292551   1.346   5.949   1.229 -2.5110 -0.6008 -0.2900
30058SOL     OW92552   0.132   3.638   6.055 -0.8761  0.7644 -0.4531
30058SOL    HW192553   0.103   3.572   5.992 -2.4906  0.8248  0.1796
30058SOL    HW292554   0.071   3.630   6.128 -0.7730  2.5796 -0.1142
30059SOL     OW92555   1.743   9.585   7.757  0.5671 -0.3317 -1.0129
30059SOL    HW192556   1.679   9.623   7.697 -0.9237  0.3880  0.9227
30059SOL    HW292557   1.768   9.657   7.815  0.8650 -1.2974  0.1118
30060SOL     OW92558   9.139   1.523   3.075  0.2460 -0.0269  0.2906
30060SOL    HW192559   9.230   1.496   3.063 -0.4087 -2.1259 -0.3426
30060SOL    HW292560   9.127   1.521   3.170  0.6323 -0.5675  0.3359
30061SOL     OW92561   4.741   9.999   8.774 -0.9581  0.0879 -0.1997
30061SOL    HW192562   4.731  10.072   8.835 -0.0995 -0.5686  0.7664
30061SOL    HW292563   4.663   9.945   8.788  0.1930 -1.1822  1.9579
30062SOL     OW92564   5.799  10.046   3.806 -0.0969 -0.4524  0.1568
30062SOL    HW192565   5.820   9.968   3.857  1.0767 -0.3555 -0.1502
30062SOL    HW292566   5.722  10.022   3.756  1.2468 -2.0571 -1.2813
30063SOL     OW92567   9.909   6.020   1.624  0.6086  0.5927 -0.3900
30063SOL    HW192568   9.910   6.096   1.566 -1.9179  1.4706  0.5472
30063SOL    HW292569   9.911   6.058   1.712  1.2683 -0.5519  0.1045
30064SOL     OW92570   3.021   1.540   1.047 -0.0807 -0.5172  0.3519
30064SOL    HW192571   3.062   1.619   1.083  0.9563 -1.3758  1.0870
30064SOL    HW292572   2.927   1.560   1.048  0.2371  1.4848 -1.3753
30065SOL     OW92573   5.752   9.621   1.538  0.0536  0.3926 -0.4972
30065SOL    HW192574   5.748   9.656   1.627 -0.9448  2.2660 -1.2143
30065SOL    HW292575   5.754   9.526   1.549  2.1659  0.6088  1.5561
30066SOL     OW92576   5.150   3.136   5.341  0.0563 -0.1887 -0.5289
30066SOL    HW192577   5.166   3.095   5.256 -1.9241  2.3397 -2.2716
30066SOL    HW292578   5.063   3.105   5.367  0.6576 -0.9628  0.6387
30067SOL     OW92579  10.432   4.073   5.081  1.0330 -0.3422 -0.1821
30067SOL    HW192580  10.348   4.089   5.124  0.3605 -0.3721 -1.4316
30067SOL    HW292581  10.419   4.102   4.991  2.7262  0.7004 -0.1297
30068SOL     OW92582   0.251   7.688  10.557  0.3517 -1.1427  0.9519
30068SOL    HW192583   0.226   7.766  10.605 -1.4250 -2.1652  1.7810
30068SOL    HW292584   0.295   7.721  10.478 -0.8729  0.6965  0.9894
30069SOL     OW92585  10.461   3.128   0.208 -0.0645 -0.5510  0.8816
30069SOL    HW192586  10.430   3.169   0.289 -0.7488  0.1338  0.2941
30069SOL    HW292587  10.383   3.122   0.153  0.2398 -1.6866  0.5423
30070SOL     OW92588   3.520   2.484   5.908  0.6437  0.4799  0.0841
30070SOL    HW192589   3.502   2.463   6.000 -1.8019 -1.1961 -0.6662
30070SOL    HW292590   3.490   2.406   5.860 -2.6855  3.0625 -2.4850
30071SOL     OW92591   9.419   9.826   0.247 -0.1645  0.0120 -0.0838
30071SOL    HW192592   9.341   9.837   0.191  0.5833  1.7265 -0.8769
30071SOL    HW292593   9.407   9.890   0.317  0.6163  0.4612 -0.3443
30072SOL     OW92594  10.651   1.998   2.527  0.2317 -0.4734  0.8739
30072SOL    HW192595  10.617   2.087   2.521  1.2981 -0.0750  0.5610
30072SOL    HW292596  10.593   1.955   2.590  0.2227  0.6857  1.6998
30073SOL     OW92597   0.019   9.157   3.179 -0.5233 -0.4041 -0.1793
30073SOL    HW192598   0.081   9.106   3.127 -1.1057 -1.1243 -0.1920
30073SOL    HW292599  -0.041   9.092   3.216  0.1482  0.0194  1.8007
30074SOL     OW92600   2.542   2.999   4.999 -0.9778  0.0038 -0.5445
30074SOL    HW192601   2.578   2.910   5.001  0.5639  0.5771 -0.8294
30074SOL    HW292602   2.545   3.023   4.906 -2.2713  0.0264 -0.5895
30075SOL     OW92603   5.281  10.166   6.438 -0.1360 -0.3396  0.2071
30075SOL    HW192604   5.271  10.077   6.405 -1.8537 -0.0576 -0.1006
30075SOL    HW292605   5.274  10.158   6.533  0.9837 -0.6655  0.2810
30076SOL     OW92606   6.276  10.418   4.142  0.3288  0.4190 -0.0891
30076SOL    HW192607   6.332  10.487   4.177  0.4720  0.7867 -1.0013
30076SOL    HW292608   6.193  10.430   4.187  0.8353  0.1430  0.9600
30077SOL     OW92609   7.653   2.219   8.520  0.3408 -0.4399  0.2249
30077SOL    HW192610   7.595   2.161   8.470  1.1428 -1.7057  0.7310
30077SOL    HW292611   7.670   2.172   8.602  0.6304  0.7277  0.8532
30078SOL     OW92612   2.125   1.986   8.387  0.5756 -0.0508  0.1111
30078SOL    HW192613   2.145   2.071   8.427  0.3167  0.4685 -0.8199
30078SOL    HW292614   2.057   2.006   8.323  1.6630 -0.6531 -1.2918
30079SOL     OW92615   8.864   5.508   2.421  0.3647  0.0772 -0.2097
30079SOL    HW192616   8.938   5.446   2.416  1.7557  1.5912  0.6876
30079SOL    HW292617   8.790   5.459   2.384  1.5597 -1.8607 -0.2102
30080SOL     OW92618   6.196   7.796   9.405 -0.5368  0.1966  0.5235
30080SOL    HW192619   6.203   7.701   9.393 -0.5232  0.3187 -0.5193
30080SOL    HW292620   6.252   7.815   9.480 -0.5479 -0.6173  0.7483
30081SOL     OW92621   5.680   4.577   4.567 -0.1924  0.5013 -0.0387
30081SOL    HW192622   5.705   4.489   4.540  0.1096  0.3649  0.6745
30081SOL    HW292623   5.590   4.587   4.534 -0.9715 -0.8149  1.5219
30082SOL     OW92624  10.294   5.079   4.744  0.4646 -0.6930 -0.8332
30082SOL    HW192625  10.226   5.117   4.800  0.9715  0.3128 -0.8797
30082SOL    HW292626  10.254   5.000   4.709 -0.2339 -0.7819  0.1230
30083SOL     OW92627   4.645   9.386   0.374 -0.1153 -0.1151 -0.4547
30083SOL    HW192628   4.565   9.404   0.324 -0.3129  1.4857  0.3902
30083SOL    HW292629   4.651   9.290   0.376 -1.3374 -0.2346 -1.5783
30084SOL     OW92630   0.243   1.526   4.832  0.1351 -0.5668 -0.1188
30084SOL    HW192631   0.154   1.555   4.851  1.0348  1.6253  1.0841
30084SOL    HW292632   0.298   1.601   4.854  2.3226 -1.9458 -0.5857
30085SOL     OW92633   9.724   1.875   5.953 -0.0614 -0.0027 -0.3234
30085SOL    HW192634   9.784   1.802   5.965  0.0414  0.1154 -0.1189
30085SOL    HW292635   9.641   1.834   5.926 -0.3533 -0.2939  0.9422
30086SOL     OW92636   1.706   3.949   2.209 -0.3340 -0.8447 -0.4244
30086SOL    HW192637   1.643   3.878   2.220  0.2718 -1.2192  0.9260
30086SOL    HW292638   1.702   3.997   2.292 -2.4018  2.1612 -2.0681
30087SOL     OW92639   2.279   7.015   9.540  0.3859 -0.2596  0.4829
30087SOL    HW192640   2.257   6.954   9.609  0.2929  0.5922  1.2286
30087SOL    HW292641   2.374   7.020   9.541  0.3483  0.4193  1.1535
30088SOL     OW92642   1.231   6.337   7.496  0.1446  0.3569  0.1075
30088SOL    HW192643   1.258   6.407   7.437 -0.4231  0.0614 -0.5208
30088SOL    HW292644   1.139   6.354   7.514  0.1995  0.1944  0.5644
30089SOL     OW92645  10.740   9.750   5.717  0.1999 -0.0073  0.1917
30089SOL    HW192646  10.712   9.713   5.801  1.0543  1.2644  1.0722
30089SOL    HW292647  10.771   9.675   5.667  0.1569 -0.7325  1.2210
30090SOL     OW92648   4.358   7.107   5.546 -0.2603 -0.4107 -0.3779
30090SOL    HW192649   4.338   7.157   5.467  1.6723  0.5728 -0.2946
30090SOL    HW292650   4.321   7.159   5.617 -1.3742 -0.9328 -0.5656
30091SOL     OW92651   1.109   6.220   7.976 -0.2376 -0.3394  0.8432
30091SOL    HW192652   1.065   6.136   7.965 -0.5616 -0.0295 -0.3559
30091SOL    HW292653   1.068   6.259   8.053 -0.2476 -1.1718  1.2675
30092SOL     OW92654   8.694   0.822   6.711  0.2809 -0.6351  0.7314
30092SOL    HW192655   8.785   0.852   6.714 -0.2588  1.1030  1.6198
30092SOL    HW292656   8.686   0.763   6.785  0.8611 -1.4453  0.1724
30093SOL     OW92657   5.731   1.406   5.732 -0.7809 -0.1264 -0.3260
30093SOL    HW192658   5.699   1.488   5.696 -0.5371 -0.1007 -0.4863
30093SOL    HW292659   5.797   1.433   5.797 -1.0375 -0.1802 -0.0387
30094SOL     OW92660   2.232   6.669   5.126  0.3252  0.1402 -0.7600
30094SOL    HW192661   2.151   6.659   5.076 -1.1330 -0.4644  1.5837
30094SOL    HW292662   2.273   6.583   5.125 -0.6983 -0.3951  0.6277
30095SOL     OW92663   2.275   1.514   9.243 -0.2002  0.6699  0.2358
30095SOL    HW192664   2.367   1.514   9.269 -0.2009  0.1398  0.2354
30095SOL    HW292665   2.227   1.524   9.326 -0.2168 -1.4528  0.5428
30096SOL     OW92666   7.741   3.044   5.426 -0.4315  0.3244 -0.2509
30096SOL    HW192667   7.682   3.065   5.498 -0.7894  0.0292 -0.4528
30096SOL    HW292668   7.717   3.104   5.356 -1.1052 -0.3774 -0.6449
30097SOL     OW92669   1.696   9.123   3.186 -0.4684 -0.3192  0.2830
30097SOL    HW192670   1.720   9.192   3.123 -1.5693  0.1461  0.3448
30097SOL    HW292671   1.614   9.154   3.225 -0.1509 -0.9183  1.4740
30098SOL     OW92672   3.725   4.754   5.512  0.0466 -0.4049 -0.4143
30098SOL    HW192673   3.766   4.755   5.598  0.4202  1.7698 -0.5672
30098SOL    HW292674   3.761   4.676   5.469  0.3820 -1.1391  1.1167
30099SOL     OW92675  10.611   1.511   3.118  0.2997  0.0966  0.3042
30099SOL    HW192676  10.656   1.528   3.036  0.6872  0.1687  0.5307
30099SOL    HW292677  10.628   1.588   3.172 -1.3515  0.8133 -0.1381
30100SOL     OW92678   8.274  10.656   9.617  0.1551  0.0380  0.2554
30100SOL    HW192679   8.203  10.638   9.555  1.0105 -0.2069 -0.6670
30100SOL    HW292680   8.317  10.733   9.582  0.7047 -0.1573  0.4990
30101SOL     OW92681   4.749   9.573   5.013  0.1045 -0.1280 -0.3336
30101SOL    HW192682   4.819   9.512   5.034 -1.2244 -1.5893 -0.0145
30101SOL    HW292683   4.702   9.532   4.940 -1.8862 -0.4220  1.0366
30102SOL     OW92684   4.158   6.896   8.535  1.0535 -0.0627  0.6409
30102SOL    HW192685   4.099   6.940   8.473  1.7508 -0.5765 -0.4225
30102SOL    HW292686   4.214   6.966   8.569  2.4649 -0.0908 -1.3832
30103SOL     OW92687   4.048   6.786   0.830 -0.0291  0.9906 -0.3163
30103SOL    HW192688   3.961   6.763   0.797 -0.3447  0.6660  0.7144
30103SOL    HW292689   4.097   6.703   0.827 -0.0972  0.9317  0.1282
30104SOL     OW92690   2.116   4.664   1.206  0.0292  0.0444 -0.2627
30104SOL    HW192691   2.210   4.654   1.196  0.1318 -0.1890  0.7906
30104SOL    HW292692   2.099   4.755   1.182  0.6073  0.2489  0.0746
30105SOL     OW92693   9.196   3.073   3.932 -0.2015 -0.1206 -0.2661
30105SOL    HW192694   9.160   2.986   3.915 -1.5034  0.1010  1.1254
30105SOL    HW292695   9.160   3.097   4.018 -0.5776  2.1458 -0.9982
30106SOL     OW92696   4.841   0.925   8.663 -0.0029 -1.0128  0.4339
30106SOL    HW192697   4.917   0.971   8.699  0.3896 -1.8780  0.7560
30106SOL    HW292698   4.770   0.941   8.725 -0.2376  0.2401 -0.1422
30107SOL     OW92699   5.725   0.818   4.842  0.1707 -0.6795 -0.0716
30107SOL    HW192700   5.694   0.816   4.933  0.8317  0.6556  0.2056
30107SOL    HW292701   5.656   0.774   4.793  0.4003 -2.6027  1.2266
30108SOL     OW92702   7.921   3.148   7.817 -0.5573 -0.7781  0.0060
30108SOL    HW192703   7.881   3.111   7.739 -1.0008  1.3584 -0.8439
30108SOL    HW292704   7.850   3.151   7.882 -1.5804  1.8987 -1.1151
30109SOL     OW92705   1.714   6.234   9.899  0.4092  0.1303 -0.1843
30109SOL    HW192706   1.680   6.179   9.828 -0.3226 -0.3009  0.4824
30109SOL    HW292707   1.786   6.184   9.936 -1.7714 -1.6232  2.0160
30110SOL     OW92708   3.687   7.651   6.839  0.4881 -0.2130  0.0445
30110SOL    HW192709   3.637   7.582   6.882  0.9995  0.0378  1.0785
30110SOL    HW292710   3.747   7.683   6.907 -0.2187  1.7160 -0.1922
30111SOL     OW92711   7.918   0.202   4.813 -0.2040  0.1020 -0.0867
30111SOL    HW192712   8.013   0.185   4.813 -0.3978 -1.1359  0.5974
30111SOL    HW292713   7.880   0.121   4.849 -1.5511  0.4282 -0.7355
30112SOL     OW92714   8.952   7.437   5.942 -0.2963  0.2412  0.0117
30112SOL    HW192715   8.937   7.369   6.008  0.3044 -0.0229 -0.1197
30112SOL    HW292716   8.864   7.466   5.918 -0.6638 -1.5331 -1.0082
30113SOL     OW92717   7.721   9.224   0.114 -0.2895  0.4304  0.4254
30113SOL    HW192718   7.685   9.219   0.203 -2.1828  1.9315 -0.1849
30113SOL    HW292719   7.644   9.221   0.057  0.8359  0.2674 -1.1501
30114SOL     OW92720   7.215   6.437   2.997  0.6292 -0.3127  0.7676
30114SOL    HW192721   7.141   6.497   2.987  1.7235  0.7789 -1.7733
30114SOL    HW292722   7.176   6.349   2.994 -0.5419  0.2114 -1.5346
30115SOL     OW92723   8.863   7.947   0.587 -0.5169 -0.5715  0.0821
30115SOL    HW192724   8.880   7.988   0.672 -3.1482 -1.9000  1.3896
30115SOL    HW292725   8.898   7.859   0.596  0.4692 -0.2897 -0.7923
30116SOL     OW92726   2.586   9.749   4.083 -0.5478 -0.2518  0.4005
30116SOL    HW192727   2.588   9.844   4.098  0.6698 -0.2559  0.3803
30116SOL    HW292728   2.666   9.731   4.033 -1.1763 -1.1846 -0.3033
30117SOL     OW92729   7.222   9.195   2.351  0.1251 -0.1309 -0.2707
30117SOL    HW192730   7.222   9.187   2.255  1.2519  2.3984 -0.5659
30117SOL    HW292731   7.269   9.118   2.381 -2.0735 -2.1016 -1.5444
30118SOL     OW92732   7.477   7.759   3.812 -0.7982  0.0878 -0.4613
30118SOL    HW192733   7.414   7.829   3.830  0.1520  1.3047 -1.6546
30118SOL    HW292734   7.560   7.790   3.847 -0.4399 -0.6287 -0.6418
30119SOL     OW92735   4.161   6.930   0.433  0.1242  0.1050 -0.1805
30119SOL    HW192736   4.085   6.874   0.421  0.1868  0.3190 -1.9064
30119SOL    HW292737   4.133   7.016   0.400  1.0549  0.2086 -0.7601
30120SOL     OW92738   5.462   3.312   0.882  0.2626 -0.2386  0.0147
30120SOL    HW192739   5.522   3.344   0.950  0.9684  1.5517 -1.3740
30120SOL    HW292740   5.378   3.302   0.927  0.6124  1.2933  1.0691
30121SOL     OW92741   2.585   4.458   8.365 -0.2911  0.2770 -0.2758
30121SOL    HW192742   2.617   4.409   8.290  1.3229  0.2744  0.3887
30121SOL    HW292743   2.512   4.405   8.398  0.0569 -0.5800 -0.8374
30122SOL     OW92744   2.516   6.458   7.443  0.0542  0.5274  0.4268
30122SOL    HW192745   2.456   6.387   7.465 -0.1321  0.3943 -0.4735
30122SOL    HW292746   2.564   6.475   7.524 -0.8412  0.2910  1.0123
30123SOL     OW92747   8.062   7.581   8.571  0.2252  0.4732  0.3014
30123SOL    HW192748   7.993   7.543   8.626  0.4602 -1.4592 -0.6525
30123SOL    HW292749   8.018   7.601   8.488  1.0206 -2.3568 -0.9390
30124SOL     OW92750   5.480   0.035   0.768 -0.2334  0.3358 -0.1413
30124SOL    HW192751   5.415   0.067   0.706 -1.0260 -3.3488 -1.4505
30124SOL    HW292752   5.561   0.029   0.718 -0.5665 -1.3988 -0.5448
30125SOL     OW92753   2.380   2.479   1.503  0.1075  0.1352  0.1267
30125SOL    HW192754   2.400   2.464   1.410  0.3700  0.1740  0.1748
30125SOL    HW292755   2.388   2.574   1.514  4.1499 -0.1082  1.0607
30126SOL     OW92756   8.990   9.647   6.777 -0.2624 -0.2905  0.1623
30126SOL    HW192757   9.085   9.648   6.770 -0.2788 -0.5208 -0.0997
30126SOL    HW292758   8.959   9.655   6.686 -0.4933 -0.0229  0.2620
30127SOL     OW92759   9.721   9.369   3.674  0.0088  0.2932  0.1007
30127SOL    HW192760   9.687   9.455   3.648  1.0362  0.7571  0.2352
30127SOL    HW292761   9.665   9.306   3.629 -0.8070  1.0279  0.0569
30128SOL     OW92762   2.407   4.681  10.175  0.0395 -0.2665 -0.2715
30128SOL    HW192763   2.478   4.686  10.111 -0.5540  1.7266 -0.8478
30128SOL    HW292764   2.392   4.587  10.187 -0.0039 -0.7473 -3.2864
30129SOL     OW92765   6.806   2.183   6.463 -0.5615  0.0030  0.2968
30129SOL    HW192766   6.723   2.208   6.502 -0.2248  0.3538  0.8037
30129SOL    HW292767   6.850   2.266   6.445  0.6113 -0.1624  2.0747
30130SOL     OW92768  10.094   3.306   0.537 -0.0877  0.1245 -0.2260
30130SOL    HW192769  10.062   3.368   0.472 -1.8356  0.2782  0.7224
30130SOL    HW292770  10.136   3.361   0.604 -0.9829  0.2645  0.2458
30131SOL     OW92771   6.362  10.471   1.583 -0.5448  0.3315 -0.2963
30131SOL    HW192772   6.278  10.499   1.547  0.7109  1.1910 -2.7871
30131SOL    HW292773   6.427  10.519   1.533  1.4827 -0.8472  1.0619
30132SOL     OW92774   6.833   4.319   5.368 -0.0408 -0.3296 -0.2809
30132SOL    HW192775   6.925   4.344   5.377 -0.1210 -0.0395 -0.2697
30132SOL    HW292776   6.831   4.227   5.394  0.1896 -0.2473  0.0368
30133SOL     OW92777   9.944   0.854   7.715  0.3697 -0.2121 -0.1682
30133SOL    HW192778  10.019   0.809   7.676 -1.2706 -0.8746 -2.8316
30133SOL    HW292779   9.876   0.788   7.719 -0.8204  0.9741 -0.1866
30134SOL     OW92780  10.397   5.397   0.039 -0.4235 -0.2263  0.2836
30134SOL    HW192781  10.355   5.476   0.073 -1.0375 -0.5063  0.1994
30134SOL    HW292782  10.478   5.427  -0.001  0.0132  0.1823  1.4583
30135SOL     OW92783   9.023   1.419   9.388 -0.7384  0.1475 -0.2036
30135SOL    HW192784   8.943   1.429   9.439  0.6355 -0.1179  2.1506
30135SOL    HW292785   9.050   1.328   9.402  0.9046  0.7149  0.5876
30136SOL     OW92786   2.005   7.611   5.381  0.1621 -0.4943  0.1801
30136SOL    HW192787   1.992   7.594   5.288  1.1135  1.5984 -0.4063
30136SOL    HW292788   2.100   7.622   5.391 -0.0046  0.2661  1.1880
30137SOL     OW92789   7.826   3.030   9.469  0.1102 -0.0901 -0.6210
30137SOL    HW192790   7.874   3.102   9.428  0.2766 -0.4663 -1.1096
30137SOL    HW292791   7.736   3.061   9.475  0.4813  0.7795  0.6801
30138SOL     OW92792   9.142   6.000   3.893  0.2904 -0.5449 -0.1949
30138SOL    HW192793   9.111   5.955   3.814 -0.1103 -0.4251 -0.1087
30138SOL    HW292794   9.191   5.933   3.941  3.0061  0.0811 -1.8876
30139SOL     OW92795   0.433   2.802   1.131 -0.0187 -0.1558  0.2516
30139SOL    HW192796   0.436   2.883   1.182  1.2453 -0.9879  1.5868
30139SOL    HW292797   0.346   2.765   1.149 -1.2098  1.5458 -1.5409
30140SOL     OW92798   9.406   7.796   7.373  0.1791  0.1823 -0.6299
30140SOL    HW192799   9.383   7.722   7.317 -1.7944  1.0853 -1.0864
30140SOL    HW292800   9.453   7.856   7.315 -1.1268  0.7408 -1.1325
30141SOL     OW92801   2.457   1.096   8.318  0.2449 -0.7318  0.1901
30141SOL    HW192802   2.420   1.018   8.360 -0.6472 -1.2043 -1.4027
30141SOL    HW292803   2.381   1.153   8.303  0.5034 -0.6510 -0.8991
30142SOL     OW92804   9.778   2.360   6.487 -0.5797  0.6507  0.3941
30142SOL    HW192805   9.791   2.289   6.549 -2.4088 -1.4921 -1.5193
30142SOL    HW292806   9.692   2.396   6.509 -0.6545  0.7570 -0.0608
30143SOL     OW92807   7.953   2.216   1.068  0.1759  0.4394  0.3494
30143SOL    HW192808   7.912   2.279   1.009 -0.2160  0.3121  0.4837
30143SOL    HW292809   7.903   2.136   1.057  0.5037  0.2265  0.3828
30144SOL     OW92810   2.388   1.879   3.935 -0.1544  0.1386 -0.2541
30144SOL    HW192811   2.384   1.927   4.018  1.8195 -0.6789  0.3963
30144SOL    HW292812   2.443   1.803   3.954 -1.4243 -1.2475 -1.7946
30145SOL     OW92813   2.932   8.098   2.540  0.5851 -0.7102 -0.0139
30145SOL    HW192814   2.843   8.093   2.575  0.9271 -0.9364  0.8408
30145SOL    HW292815   2.921   8.089   2.445 -0.5180  1.6168 -0.1577
30146SOL     OW92816   8.588   5.959   5.967 -0.3517 -0.4679 -0.7150
30146SOL    HW192817   8.629   5.987   5.886  1.1126  0.5538  0.3299
30146SOL    HW292818   8.637   5.881   5.993  0.6669  0.4725  0.2847
30147SOL     OW92819   7.918   7.861   2.416  0.6329  0.6266  0.1609
30147SOL    HW192820   7.986   7.819   2.363 -0.8443 -1.2899 -0.3287
30147SOL    HW292821   7.884   7.931   2.361  0.4687 -0.0793 -0.6595
30148SOL     OW92822   1.057   0.538   7.416  0.2838 -1.1082  0.7735
30148SOL    HW192823   1.037   0.502   7.503  0.9117 -0.5909  1.1365
30148SOL    HW292824   1.094   0.625   7.433 -0.3604 -0.6439 -0.0501
30149SOL     OW92825   4.591   2.472   1.578 -0.1772 -0.0855 -0.1713
30149SOL    HW192826   4.548   2.386   1.578 -3.8950  1.5550  1.0344
30149SOL    HW292827   4.542   2.523   1.642  2.9995  2.5006  0.4319
30150SOL     OW92828   1.674   1.543   1.507  0.2113 -0.1853  0.0145
30150SOL    HW192829   1.708   1.603   1.440 -1.5681  1.9335  0.8958
30150SOL    HW292830   1.730   1.558   1.583  1.0485 -1.2281 -0.3554
30151SOL     OW92831   7.559   0.656   2.951  0.2476  0.1340  0.1235
30151SOL    HW192832   7.519   0.671   2.865 -0.0181  0.4160  0.2966
30151SOL    HW292833   7.494   0.685   3.014  0.0641 -0.9644  0.4557
30152SOL     OW92834   8.037   3.500   4.751 -0.4390  0.6627  0.3356
30152SOL    HW192835   8.132   3.508   4.761 -0.4661 -1.3947  3.4348
30152SOL    HW292836   8.000   3.563   4.812 -1.0032 -0.4139  1.1311
30153SOL     OW92837   3.944   4.277   8.598 -0.0465  0.1494 -0.1376
30153SOL    HW192838   4.001   4.309   8.668 -0.9003 -0.5395  0.9064
30153SOL    HW292839   3.899   4.354   8.566  0.0157  0.4039  0.3840
30154SOL     OW92840   6.433  10.281   3.833  0.2920 -0.6361  0.0176
30154SOL    HW192841   6.343  10.251   3.841 -0.1886  0.9119  0.6758
30154SOL    HW292842   6.446  10.340   3.907  1.0894  1.0007 -1.3412
30155SOL     OW92843   0.539   8.864   8.539  0.2517  0.3407 -0.4165
30155SOL    HW192844   0.445   8.857   8.555  0.4989  0.1494  1.1917
30155SOL    HW292845   0.574   8.899   8.621  1.6600 -0.1870 -0.7612
30156SOL     OW92846   0.689   3.348   7.336 -0.2516 -0.2367 -0.7437
30156SOL    HW192847   0.725   3.270   7.376 -1.3332 -2.0647 -3.0857
30156SOL    HW292848   0.742   3.420   7.370  2.0540 -2.1808  0.0082
30157SOL     OW92849   7.390  10.371   6.691  0.0280 -0.0300 -0.7142
30157SOL    HW192850   7.460  10.375   6.625  0.2367  0.7432 -0.4593
30157SOL    HW292851   7.425  10.314   6.759  0.3425  0.2117 -0.6708
30158SOL     OW92852   4.606   6.065   6.396  0.2151 -0.4409 -0.1759
30158SOL    HW192853   4.633   6.148   6.357 -0.6332 -1.1690 -2.5122
30158SOL    HW292854   4.608   6.080   6.490  1.1870  1.8543 -0.5018
30159SOL     OW92855   7.930  10.582   5.458 -0.0789  0.1003 -0.0932
30159SOL    HW192856   8.018  10.557   5.427  0.4597  0.2378  1.2674
30159SOL    HW292857   7.871  10.529   5.404  0.8743 -0.7262 -0.3710
30160SOL     OW92858   6.627   2.333   8.448  0.0740  0.6426  0.5219
30160SOL    HW192859   6.694   2.350   8.513  1.4760  0.6832 -0.8648
30160SOL    HW292860   6.588   2.419   8.430 -0.7214  0.5434  1.6793
30161SOL     OW92861   8.765   5.883   3.201  0.1843  0.4995  0.1987
30161SOL    HW192862   8.764   5.960   3.144  0.9567 -0.1242 -0.6695
30161SOL    HW292863   8.716   5.817   3.153  1.3391 -0.2147 -0.0242
30162SOL     OW92864   6.994   7.480   9.935  0.3247 -0.2220  0.2139
30162SOL    HW192865   6.984   7.554   9.994 -0.0796 -0.5786  0.6063
30162SOL    HW292866   6.914   7.480   9.882 -0.4525 -1.3246  1.3267
30163SOL     OW92867  10.174   4.669  10.035  0.1310  0.1301 -0.0365
30163SOL    HW192868  10.229   4.711   9.969  0.5851  0.2386  0.4036
30163SOL    HW292869  10.136   4.594   9.990 -1.5856  1.5963 -1.1885
30164SOL     OW92870   9.221   6.774   8.104 -0.0556 -0.1851  0.2181
30164SOL    HW192871   9.286   6.733   8.160  0.5463 -0.1167 -0.4050
30164SOL    HW292872   9.266   6.851   8.069 -0.6738  0.1881  0.2345
30165SOL     OW92873   2.291   7.760   1.444 -0.2291 -0.2224 -0.0182
30165SOL    HW192874   2.275   7.837   1.499 -1.2473 -1.1395  1.0124
30165SOL    HW292875   2.302   7.796   1.356 -0.7190  1.0960  0.4276
30166SOL     OW92876   4.239   1.816   3.998 -0.0322  0.0923 -0.3103
30166SOL    HW192877   4.232   1.859   3.913 -1.0686  0.1849 -0.1898
30166SOL    HW292878   4.306   1.749   3.986  1.1494  1.3102 -0.6768
30167SOL     OW92879   2.755   5.275   6.609  0.5627 -0.2109 -0.3242
30167SOL    HW192880   2.694   5.279   6.535  0.8372  0.4555 -0.5176
30167SOL    HW292881   2.789   5.364   6.617 -0.4472  0.0700  1.4522
30168SOL     OW92882   9.869   3.492   5.092  0.0650  0.1613 -0.3909
30168SOL    HW192883   9.901   3.420   5.147  2.8782  0.0718 -1.9250
30168SOL    HW292884   9.823   3.550   5.153 -0.7606 -2.0268  1.1988
30169SOL     OW92885   2.766  10.392   0.416  0.5572  0.2327  0.0194
30169SOL    HW192886   2.695  10.352   0.466  0.9644  1.3472  1.5611
30169SOL    HW292887   2.751  10.363   0.326 -0.4296 -1.5272  0.7006
30170SOL     OW92888   3.003   0.281   9.759 -0.0601  0.0662 -0.4702
30170SOL    HW192889   3.044   0.368   9.758 -1.1077  0.5765 -0.5850
30170SOL    HW292890   2.920   0.293   9.712 -1.1485 -0.5116  1.1924
30171SOL     OW92891   2.697   5.807   7.341 -0.4516 -0.2542 -0.0635
30171SOL    HW192892   2.674   5.729   7.392  0.3179  0.2416  1.1032
30171SOL    HW292893   2.664   5.880   7.393  0.7221  0.2895 -0.0345
30172SOL     OW92894   3.223   6.914   7.224 -0.4817 -0.3113 -0.6540
30172SOL    HW192895   3.248   6.846   7.162 -0.1752  0.6541 -1.6137
30172SOL    HW292896   3.298   6.975   7.225 -0.4789 -0.3058  0.6587
30173SOL     OW92897   9.504   7.958  10.037  0.3776  0.3844  0.2794
30173SOL    HW192898   9.520   7.883   9.979 -0.7017  1.4991 -1.5831
30173SOL    HW292899   9.536   7.930  10.122  0.1060 -2.1546 -0.3694
30174SOL     OW92900   8.800   8.612   4.609 -0.2047 -0.2217  0.1210
30174SOL    HW192901   8.830   8.572   4.527  0.0393 -2.0038  1.0285
30174SOL    HW292902   8.877   8.656   4.644 -0.2573  0.3772 -0.4810
30175SOL     OW92903   9.680   5.072   3.951 -0.1178  0.4919  0.2826
30175SOL    HW192904   9.765   5.090   3.992  0.2423  2.6390 -1.2459
30175SOL    HW292905   9.620   5.059   4.025  0.6618  3.4116  1.5736
30176SOL     OW92906   2.379   1.263   3.666  0.5997 -0.8307 -0.5527
30176SOL    HW192907   2.454   1.286   3.720  1.0531 -2.6517 -0.3154
30176SOL    HW292908   2.415   1.206   3.598 -0.1865  0.2781 -1.9609
30177SOL     OW92909   2.477   8.784  10.263  0.1199 -0.0329 -0.3623
30177SOL    HW192910   2.399   8.839  10.266  0.4318  0.4262 -0.6107
30177SOL    HW292911   2.550   8.845  10.248  0.7521 -0.2399  1.5907
30178SOL     OW92912  10.007   1.978  10.762 -0.2081  0.1543  0.1016
30178SOL    HW192913  10.051   1.978  10.677 -0.5109 -0.4478 -0.0686
30178SOL    HW292914  10.070   2.014  10.823  1.4976 -2.8925  0.3464
30179SOL     OW92915   2.013   2.862   3.012  0.2398  0.3977  0.8694
30179SOL    HW192916   1.954   2.925   2.971 -0.0136 -1.4428 -1.9613
30179SOL    HW292917   1.981   2.853   3.102 -2.5742  0.9537  0.0274
30180SOL     OW92918   4.636   1.923   1.162 -0.1886 -0.7515  0.0356
30180SOL    HW192919   4.656   1.865   1.235 -0.7412  1.7089  2.3041
30180SOL    HW292920   4.689   1.890   1.089  1.7527 -2.2928  2.0120
30181SOL     OW92921   1.530   1.672   0.680  0.1725 -0.2201  0.2272
30181SOL    HW192922   1.602   1.643   0.625  1.7568  0.9173  1.6099
30181SOL    HW292923   1.572   1.713   0.755 -1.9254 -0.0961  1.4061
30182SOL     OW92924   1.341   0.119   1.404 -0.3875 -0.3779 -0.7058
30182SOL    HW192925   1.424   0.131   1.356 -0.5600  1.3423 -0.6236
30182SOL    HW292926   1.287   0.066   1.345  0.5910 -1.1347 -0.9542
30183SOL     OW92927   2.473   9.964   8.114 -0.1586  0.0297 -0.5038
30183SOL    HW192928   2.510  10.050   8.095  0.6835  0.1528  1.4496
30183SOL    HW292929   2.408   9.949   8.045  1.7819  0.8957 -2.6109
30184SOL     OW92930   2.714   7.549   6.209  0.2241 -0.1616  0.2259
30184SOL    HW192931   2.758   7.464   6.203 -0.8369 -0.7373  0.2386
30184SOL    HW292932   2.659   7.542   6.287  0.8548  0.9027  0.7821
30185SOL     OW92933   0.892   9.646   5.332 -0.1302  0.4420 -0.1553
30185SOL    HW192934   0.827   9.578   5.317 -0.4800  0.5642  0.7212
30185SOL    HW292935   0.964   9.601   5.377 -1.1837  0.9544  2.2332
30186SOL     OW92936   5.437   1.507  10.363 -0.0328 -0.0250 -0.0545
30186SOL    HW192937   5.367   1.485  10.425 -0.2823  0.5796 -0.1160
30186SOL    HW292938   5.465   1.595  10.388  0.8148 -0.3206  0.0601
30187SOL     OW92939   4.793   0.134   9.560 -0.0536  0.1005  0.2639
30187SOL    HW192940   4.704   0.104   9.538 -0.4707  0.5478  1.2625
30187SOL    HW292941   4.796   0.225   9.530  0.5861 -0.3587 -1.1084
30188SOL     OW92942   6.402   8.664   4.555 -0.0277  0.6329  0.2583
30188SOL    HW192943   6.369   8.681   4.643 -0.9381 -1.3232  0.3536
30188SOL    HW292944   6.473   8.727   4.543  0.4951  0.5746  2.5895
30189SOL     OW92945   5.154  10.351   0.178 -0.3355 -0.0419 -0.0498
30189SOL    HW192946   5.070  10.386   0.149  0.1395  0.4669 -0.8385
30189SOL    HW292947   5.167  10.389   0.265 -1.2639 -0.7225  0.3980
30190SOL     OW92948   9.516   3.331   9.252  0.4657  0.0523  0.7684
30190SOL    HW192949   9.594   3.333   9.196 -1.1971  1.4279 -1.6438
30190SOL    HW292950   9.477   3.245   9.237 -0.3467  0.6684 -0.7943
30191SOL     OW92951   5.566   0.577   2.966 -0.2990 -0.1054 -0.1616
30191SOL    HW192952   5.584   0.659   2.920 -0.1016  0.0583  0.2055
30191SOL    HW292953   5.639   0.519   2.943 -0.0941  0.0454  0.1095
30192SOL     OW92954   4.775   1.210  10.329  0.4124 -0.4381  0.5419
30192SOL    HW192955   4.760   1.266  10.405  1.3273 -0.1641  0.5242
30192SOL    HW292956   4.844   1.253  10.280 -0.2798 -0.5354 -0.5448
30193SOL     OW92957   2.262   6.939  10.789 -0.1350 -0.1982 -0.1814
30193SOL    HW192958   2.220   6.858  10.817 -2.6027  0.8243 -0.7254
30193SOL    HW292959   2.239   7.003  10.856  2.3252 -0.0194  0.5898
30194SOL     OW92960  10.556   4.482   5.109  0.0032  0.5654 -0.5043
30194SOL    HW192961  10.466   4.475   5.140 -0.4040  4.2485 -0.3944
30194SOL    HW292962  10.552   4.543   5.036  2.3452  0.4255 -0.8254
30195SOL     OW92963   4.738   2.552   3.866  0.0170  0.7165  0.5414
30195SOL    HW192964   4.792   2.516   3.796  2.3731  2.8650  1.1304
30195SOL    HW292965   4.701   2.632   3.829 -0.4663  0.7538  1.0931
30196SOL     OW92966   1.403   5.275   7.802  0.2939 -0.0122 -0.4720
30196SOL    HW192967   1.488   5.265   7.846 -0.1285 -1.9858  0.0275
30196SOL    HW292968   1.377   5.365   7.820  4.7625  2.7922 -5.3802
30197SOL     OW92969   9.729   7.758   8.731  0.3184  0.4912  0.2689
30197SOL    HW192970   9.683   7.756   8.647  1.3129  1.6185 -0.3308
30197SOL    HW292971   9.820   7.774   8.709  0.6095  0.7791  1.5624
30198SOL     OW92972   9.855   8.833  10.572 -0.2233  0.0734 -0.2671
30198SOL    HW192973   9.934   8.821  10.520  1.2414  0.2069  1.8161
30198SOL    HW292974   9.816   8.746  10.577  0.8303 -0.3974  0.2007
30199SOL     OW92975   7.189   3.150  10.504  0.0453  0.8071 -0.4710
30199SOL    HW192976   7.257   3.097  10.461  1.1717  1.8593 -0.0337
30199SOL    HW292977   7.110   3.095  10.500  0.8531 -0.3499 -1.1970
30200SOL     OW92978  10.245   9.455   1.654  0.5269  0.3741 -0.4875
30200SOL    HW192979  10.230   9.532   1.709  0.6378 -1.3333  2.1161
30200SOL    HW292980  10.321   9.479   1.601 -0.6260  2.7310 -1.2084
30201SOL     OW92981   0.104  10.477   3.551 -0.3309 -0.3621 -0.2120
30201SOL    HW192982   0.093  10.400   3.495 -1.4789 -0.5802  0.2770
30201SOL    HW292983   0.142  10.543   3.493 -1.3545 -0.6253 -1.2398
30202SOL     OW92984   4.582   4.226   5.287  0.4257 -0.3920 -0.6595
30202SOL    HW192985   4.666   4.180   5.286  0.1653 -0.9198  0.4014
30202SOL    HW292986   4.603   4.314   5.256  1.8570  0.2517  1.8617
30203SOL     OW92987   2.423   1.438   0.170  0.3559  0.2796  0.2544
30203SOL    HW192988   2.433   1.451   0.075 -0.0896 -2.9349 -0.3766
30203SOL    HW292989   2.343   1.484   0.192 -1.2271 -1.3441 -1.6585
30204SOL     OW92990   2.567   6.290   0.073  0.3576 -0.2055 -0.2330
30204SOL    HW192991   2.648   6.249   0.042  0.2763 -0.2598 -0.3747
30204SOL    HW292992   2.559   6.261   0.163 -0.0402 -1.0334 -0.5261
30205SOL     OW92993   1.122   5.358   2.269  0.8334 -0.1361 -0.3875
30205SOL    HW192994   1.125   5.270   2.307 -1.7147 -0.1030  0.0973
30205SOL    HW292995   1.207   5.397   2.290  1.0438 -1.5743  1.6751
30206SOL     OW92996   8.277   7.278   0.788  0.0093  0.2309 -0.4860
30206SOL    HW192997   8.190   7.317   0.783 -0.2091  0.1325  1.4680
30206SOL    HW292998   8.331   7.345   0.830  0.0922 -0.7775  1.1337
30207SOL     OW92999   8.635   3.238  10.219 -0.4866 -0.4335  0.1352
30207SOL    HW193000   8.646   3.145  10.242  0.1346 -0.6102 -0.8456
30207SOL    HW293001   8.565   3.238  10.154 -1.9416  0.0272  1.6226
30208SOL     OW93002   1.750  10.344   4.715 -0.1698  0.1012  0.2957
30208SOL    HW193003   1.670  10.391   4.739 -0.5241  0.0598 -0.7777
30208SOL    HW293004   1.728  10.252   4.724  1.0205  0.0352  4.0488
30209SOL     OW93005   4.405   0.525  10.172  0.0782  0.6785  0.3322
30209SOL    HW193006   4.470   0.596  10.176  0.6252  0.2484 -0.5992
30209SOL    HW293007   4.395   0.508  10.078 -0.7913  0.1871  0.5072
30210SOL     OW93008   1.676   6.598   2.102  0.2550  0.1828  0.6908
30210SOL    HW193009   1.692   6.522   2.158  0.3116  0.1883  0.6819
30210SOL    HW293010   1.662   6.561   2.015 -2.0496 -0.0272  1.0861
30211SOL     OW93011   0.963   6.193   5.160  0.5879  0.0412 -0.2195
30211SOL    HW193012   0.995   6.108   5.129  2.4159  0.9610 -1.0276
30211SOL    HW293013   0.910   6.173   5.237 -1.9275 -2.1340 -2.2968
30212SOL     OW93014   3.605   3.058   1.154  0.5740 -0.3237  0.0476
30212SOL    HW193015   3.681   3.012   1.189 -0.2005 -1.7389 -0.0686
30212SOL    HW293016   3.557   3.087   1.231  0.2573 -1.1030  0.1545
30213SOL     OW93017   1.176  10.223   1.791 -0.0560 -0.1320  0.6756
30213SOL    HW193018   1.122  10.286   1.840 -1.0122 -1.3080  1.1998
30213SOL    HW293019   1.213  10.167   1.859 -0.7917 -1.3214  0.1184
30214SOL     OW93020   0.195   6.075   6.653  0.4775  0.9508  0.0936
30214SOL    HW193021   0.174   6.129   6.577  1.6389 -1.5537 -2.1880
30214SOL    HW293022   0.136   6.000   6.645  2.6860 -0.8773 -0.2459
30215SOL     OW93023   8.624   6.095   0.601  0.3381 -0.2676 -0.1203
30215SOL    HW193024   8.552   6.155   0.620  1.3513  1.0377 -0.1798
30215SOL    HW293025   8.614   6.074   0.509 -0.8189 -1.3256  0.2246
30216SOL     OW93026   6.247   4.391   9.448  0.5238 -0.5984  0.2091
30216SOL    HW193027   6.279   4.324   9.508 -0.6088  0.3080  1.8683
30216SOL    HW293028   6.170   4.428   9.490 -0.3418  0.0743 -1.8173
30217SOL     OW93029   3.618   4.708   4.761 -0.1463  0.4645 -0.0527
30217SOL    HW193030   3.541   4.651   4.758 -0.4821  0.8025  1.4491
30217SOL    HW293031   3.613   4.759   4.680 -0.9033 -0.2772 -0.4845
30218SOL     OW93032   1.842   3.247   4.114 -0.1389  0.6479 -0.5727
30218SOL    HW193033   1.874   3.175   4.168 -1.7450 -0.2288 -0.7513
30218SOL    HW293034   1.747   3.248   4.127 -0.4080  1.3269 -2.2622
30219SOL     OW93035   9.343   0.390   2.682 -0.5828  0.2382 -0.1071
30219SOL    HW193036   9.273   0.412   2.743 -0.8956 -1.7410  0.3426
30219SOL    HW293037   9.305   0.323   2.625  0.5401  0.0683 -0.6989
30220SOL     OW93038   4.027   7.226   1.574  0.5561  0.0083  0.0660
30220SOL    HW193039   3.992   7.139   1.558  0.5520  0.1133 -0.4945
30220SOL    HW293040   4.071   7.250   1.493  0.5592  0.5303  0.2180
30221SOL     OW93041   3.200   2.271   9.420 -0.4403 -0.5969  0.1042
30221SOL    HW193042   3.145   2.281   9.498 -1.5852  0.4799 -0.7891
30221SOL    HW293043   3.207   2.176   9.408  0.4474 -0.8233  1.9373
30222SOL     OW93044   8.764   6.037   2.071 -0.0782  0.2498  0.1081
30222SOL    HW193045   8.818   6.076   2.140  1.5554  0.7680 -1.3857
30222SOL    HW293046   8.757   6.106   2.004 -2.3919  0.0986  0.1017
30223SOL     OW93047   2.279   8.671   6.152  0.2771 -0.3283 -0.3406
30223SOL    HW193048   2.374   8.681   6.143  0.2477  0.5749  0.1573
30223SOL    HW293049   2.267   8.616   6.229  0.4056 -1.0652 -0.8448
30224SOL     OW93050   8.691   3.991   0.584 -0.2224 -0.0237 -0.3239
30224SOL    HW193051   8.729   3.913   0.624 -1.2957  0.6694  2.2062
30224SOL    HW293052   8.701   3.977   0.490  1.9660 -1.9847  0.1246
30225SOL     OW93053   8.096   1.237   3.109  0.1473  0.7243 -0.0200
30225SOL    HW193054   8.001   1.228   3.115  0.1856 -0.3127 -0.5976
30225SOL    HW293055   8.110   1.296   3.035 -0.0488  0.4428 -0.2860
30226SOL     OW93056   2.141   1.853   1.486  0.0757  0.3210 -0.3520
30226SOL    HW193057   2.175   1.802   1.559  1.5383  1.7601  0.0422
30226SOL    HW293058   2.157   1.799   1.409  0.3987 -0.3688  0.1920
30227SOL     OW93059   2.681   7.890   9.789 -0.2985  0.0562 -0.0877
30227SOL    HW193060   2.721   7.932   9.865  1.3261 -0.3722 -0.6684
30227SOL    HW293061   2.640   7.811   9.824  0.1211  0.0485  0.3940
30228SOL     OW93062   0.165   5.830   1.521 -0.0384 -0.4062 -0.1488
30228SOL    HW193063   0.101   5.896   1.492  0.2409 -1.0098 -2.3200
30228SOL    HW293064   0.111   5.758   1.554 -0.3937  0.0670  0.3292
30229SOL     OW93065   5.498   1.490   5.449 -0.1920  0.0437 -0.3376
30229SOL    HW193066   5.504   1.413   5.392  1.5423 -0.7139  0.7631
30229SOL    HW293067   5.582   1.535   5.436 -0.2026  0.4166  0.8244
30230SOL     OW93068   1.627   2.981   4.504 -0.0540  0.2140 -0.4740
30230SOL    HW193069   1.533   2.994   4.497  0.1799  2.5114 -0.1819
30230SOL    HW293070   1.642   2.969   4.598 -0.0139  0.4479 -0.4483
30231SOL     OW93071   1.087   8.602   1.039  0.4498 -0.6849  0.5800
30231SOL    HW193072   1.048   8.539   0.980  1.6574 -0.4181 -0.5534
30231SOL    HW293073   1.160   8.639   0.990  0.6864  0.5080  1.7617
30232SOL     OW93074   6.524   1.555   0.738 -0.4313 -0.1061 -0.1458
30232SOL    HW193075   6.576   1.483   0.701 -0.4423 -0.5104  0.6031
30232SOL    HW293076   6.530   1.625   0.673 -0.5642 -0.8454 -0.9784
30233SOL     OW93077   8.536   5.574   0.120 -0.2820  0.3395 -0.0136
30233SOL    HW193078   8.526   5.550   0.028  0.1317  2.0153 -0.5343
30233SOL    HW293079   8.628   5.601   0.127 -0.6025  1.2919  0.6221
30234SOL     OW93080   8.512  10.021   7.875 -0.2046 -0.0213 -1.0348
30234SOL    HW193081   8.450   9.949   7.886 -1.4567  1.1574  0.0325
30234SOL    HW293082   8.596   9.985   7.902 -0.8499 -1.0118 -0.2751
30235SOL     OW93083   8.541   1.547   9.077  0.3121 -0.0599  0.3101
30235SOL    HW193084   8.557   1.480   9.010 -0.4334 -0.6804  0.7307
30235SOL    HW293085   8.512   1.497   9.153 -1.0811  0.8089  0.3746
30236SOL     OW93086   9.884   6.444   7.784  0.0846  0.3840 -0.2367
30236SOL    HW193087   9.866   6.538   7.794 -1.4437  0.0305  0.6210
30236SOL    HW293088   9.798   6.402   7.788  0.7276 -1.0562 -0.7509
30237SOL     OW93089   8.677   3.322   3.967  0.5140 -0.5973  0.1237
30237SOL    HW193090   8.728   3.242   3.976  0.1191 -1.0187 -1.1417
30237SOL    HW293091   8.703   3.358   3.882  0.3824  0.4047  0.4908
30238SOL     OW93092   9.938   9.830   7.457 -0.0596  0.3875 -1.0115
30238SOL    HW193093  10.007   9.813   7.392 -1.2359 -1.6514 -1.8109
30238SOL    HW293094   9.893   9.908   7.424 -0.8506 -0.7980 -2.9153
30239SOL     OW93095   8.281   0.397   7.023 -0.2627 -0.1626  0.2705
30239SOL    HW193096   8.221   0.322   7.025  3.0281 -3.0896 -0.8807
30239SOL    HW293097   8.288   0.420   6.930  0.4188  0.1354  0.3901
30240SOL     OW93098   3.597   9.017   2.338  0.4804  0.0486 -0.0728
30240SOL    HW193099   3.658   8.968   2.284 -1.1402 -2.5570  0.2357
30240SOL    HW293100   3.652   9.077   2.389  2.8193 -2.2896  0.3690
30241SOL     OW93101   1.153   3.962   6.217  0.4877  0.0305  0.2797
30241SOL    HW193102   1.081   3.908   6.184  1.3851 -1.3331  0.4572
30241SOL    HW293103   1.223   3.951   6.153  1.3328 -0.5502  1.2541
30242SOL     OW93104   7.320   4.110   9.937  0.6628  0.0352  0.4064
30242SOL    HW193105   7.367   4.166   9.999 -0.8829  2.9038 -0.8342
30242SOL    HW293106   7.375   4.109   9.859 -0.1883  1.4662 -0.2352
30243SOL     OW93107   7.304   4.457   8.041 -0.3088 -0.2481 -0.1694
30243SOL    HW193108   7.283   4.493   7.955 -1.3002  0.6432  0.4278
30243SOL    HW293109   7.233   4.486   8.098  0.7615 -0.1094  1.1488
30244SOL     OW93110   1.531   8.866   7.203 -0.3676 -0.2449 -0.0486
30244SOL    HW193111   1.581   8.944   7.178  0.0138 -0.9926 -1.8037
30244SOL    HW293112   1.505   8.882   7.293  1.2161  1.1268  0.2250
30245SOL     OW93113   8.567  10.487   5.897  0.2296 -0.2785  0.1329
30245SOL    HW193114   8.595  10.562   5.844  0.2274 -0.5350 -0.2336
30245SOL    HW293115   8.649  10.446   5.924  0.2252 -0.5832 -0.3008
30246SOL     OW93116   0.214   4.586   1.645 -0.2506  0.4153  0.5842
30246SOL    HW193117   0.264   4.596   1.564  0.3092 -1.4067  0.6501
30246SOL    HW293118   0.131   4.629   1.628 -1.1282 -1.9789 -1.9133
30247SOL     OW93119   4.303   5.176   4.361 -0.1630 -0.0852 -0.2038
30247SOL    HW193120   4.297   5.082   4.373 -1.1588 -0.2424 -1.7050
30247SOL    HW293121   4.231   5.198   4.302  0.5138  1.5117 -0.5009
30248SOL     OW93122   6.079   4.256   8.943  0.0965 -0.0695 -0.1618
30248SOL    HW193123   6.149   4.211   8.991 -0.7895 -0.7223  0.5790
30248SOL    HW293124   6.013   4.188   8.928 -0.8710  0.7701  0.1474
30249SOL     OW93125   0.615   7.700  10.468  0.1966 -0.1366 -0.2236
30249SOL    HW193126   0.550   7.750  10.418  0.2781 -0.5965 -0.7935
30249SOL    HW293127   0.695   7.753  10.463  0.1279 -0.0427 -0.3366
30250SOL     OW93128   8.867   5.202   0.176  0.2609 -0.2564 -0.6074
30250SOL    HW193129   8.958   5.227   0.190 -0.5395  2.3605  0.5637
30250SOL    HW293130   8.853   5.128   0.234  0.9785  1.0829  1.4023
30251SOL     OW93131   2.380  10.423   8.148 -0.4479  0.1419  0.1235
30251SOL    HW193132   2.366  10.516   8.164 -1.7389  0.0139 -0.1871
30251SOL    HW293133   2.322  10.402   8.074  0.9706 -0.5774 -0.8388
30252SOL     OW93134   1.754   4.604   9.053 -0.3373 -0.2267  0.4624
30252SOL    HW193135   1.798   4.603   9.138  0.4372 -1.6454  0.0857
30252SOL    HW293136   1.818   4.645   8.994 -0.7748  0.5295  0.5053
30253SOL     OW93137   8.240   9.622   9.316 -0.5074  0.3805  0.0412
30253SOL    HW193138   8.330   9.613   9.346 -0.9315 -0.0467  1.3007
30253SOL    HW293139   8.232   9.714   9.291  0.3712  0.3361 -0.4279
30254SOL     OW93140   8.923   0.597   8.853  0.4916  0.0002 -0.1863
30254SOL    HW193141   8.919   0.537   8.778  0.4341  0.0608 -0.2312
30254SOL    HW293142   9.009   0.640   8.845  1.4206 -1.5224  0.9565
30255SOL     OW93143   1.987   3.266   5.945 -0.4587 -0.2062 -0.2513
30255SOL    HW193144   2.050   3.224   6.003 -0.4614 -1.1987 -0.9348
30255SOL    HW293145   2.029   3.349   5.920  1.8871 -1.9590 -2.7987
30256SOL     OW93146   2.168   8.712  10.725 -0.1481 -0.2275  0.2014
30256SOL    HW193147   2.202   8.658  10.797 -0.4954 -0.6605  0.0436
30256SOL    HW293148   2.169   8.654  10.649 -1.0828 -0.1988  0.1597
30257SOL     OW93149  10.263   5.976   7.484  0.2032 -0.4515 -0.1532
30257SOL    HW193150  10.286   6.060   7.523  1.1331 -0.4669 -0.6636
30257SOL    HW293151  10.281   5.911   7.553 -3.2845 -0.0700  1.3816
30258SOL     OW93152   9.321   6.439   1.113  0.0264  0.5670 -0.0533
30258SOL    HW193153   9.227   6.451   1.102 -0.1089 -1.2900 -1.5687
30258SOL    HW293154   9.329   6.382   1.190 -0.2190 -0.3604 -0.6915
30259SOL     OW93155   2.661   7.999   2.638 -0.3251 -0.6745 -0.1572
30259SOL    HW193156   2.577   7.997   2.684  0.3134  0.0903  1.0909
30259SOL    HW293157   2.719   7.946   2.692  0.4687  0.3370  0.0206
30260SOL     OW93158   8.478   3.133   8.454  0.1445  0.6180  0.0755
30260SOL    HW193159   8.492   3.054   8.506 -0.9705  0.2400 -0.1777
30260SOL    HW293160   8.389   3.124   8.420  1.2066  0.1997 -2.9517
30261SOL     OW93161   3.541   3.004  10.078 -0.1821  0.5434  0.0875
30261SOL    HW193162   3.546   3.052  10.162 -0.3915  1.2080 -0.2684
30261SOL    HW293163   3.447   2.992  10.064 -0.2124  1.4319 -0.5900
30262SOL     OW93164   9.144   1.097   1.765  0.4125 -0.4568 -0.1538
30262SOL    HW193165   9.148   1.086   1.860  0.2899 -0.9822 -0.2102
30262SOL    HW293166   9.129   1.009   1.730 -2.1215  0.0360 -0.5052
30263SOL     OW93167   3.803   3.144   9.043 -0.3772  0.0893 -0.5683
30263SOL    HW193168   3.734   3.200   9.078 -0.6214  0.1152 -1.0895
30263SOL    HW293169   3.875   3.204   9.022  0.2503 -0.0489  0.9885
30264SOL     OW93170   1.058   2.041   4.228  0.0951 -0.0351 -0.2120
30264SOL    HW193171   0.969   2.006   4.223  0.3027 -0.8208  1.1913
30264SOL    HW293172   1.102   1.986   4.293  1.3966  0.7914 -0.3644
30265SOL     OW93173   2.051   6.892   8.725  0.0676  0.2640  0.0736
30265SOL    HW193174   2.141   6.919   8.703  0.9817 -0.2605  2.7540
30265SOL    HW293175   2.026   6.833   8.654  1.4287  1.2327 -1.2816
30266SOL     OW93176   2.235   7.766   9.115  0.2561 -0.3638  0.4366
30266SOL    HW193177   2.296   7.729   9.178  0.1566  0.0837  0.8034
30266SOL    HW293178   2.179   7.693   9.089 -0.1859 -0.3884  1.4377
30267SOL     OW93179   4.037  10.246   8.072  0.2225 -0.1748  0.1664
30267SOL    HW193180   4.006  10.336   8.063  0.2000  0.2607  3.2189
30267SOL    HW293181   4.108  10.253   8.136  1.8363 -2.0658 -1.3314
30268SOL     OW93182   2.556   4.810   5.022 -0.0906 -0.4995  0.7214
30268SOL    HW193183   2.525   4.801   5.112  1.0989 -1.7867  1.0396
30268SOL    HW293184   2.651   4.795   5.027 -0.0509 -0.9573 -0.7934
30269SOL     OW93185   2.418   0.339   9.028 -0.5805 -0.2142 -0.3490
30269SOL    HW193186   2.356   0.411   9.043 -0.2434 -0.4004  2.2734
30269SOL    HW293187   2.365   0.270   8.988 -1.4151  0.6455 -0.7758
30270SOL     OW93188  10.540   4.501   0.603 -0.3049 -0.8105  0.2321
30270SOL    HW193189  10.471   4.457   0.653 -0.8842  0.2158  0.3509
30270SOL    HW293190  10.500   4.517   0.517 -1.0720  1.8701  1.0173
30271SOL     OW93191   6.780   0.892   5.369 -0.4494 -0.8744 -0.1743
30271SOL    HW193192   6.769   0.984   5.343 -0.4911 -1.1207 -1.0259
30271SOL    HW293193   6.848   0.896   5.437  1.5178 -0.4713 -2.0573
30272SOL     OW93194   1.922   4.169   5.885 -0.0577 -0.5234 -0.1013
30272SOL    HW193195   1.913   4.131   5.972  3.1144 -2.3793 -0.4699
30272SOL    HW293196   1.907   4.096   5.825  1.6473 -0.2038 -0.9670
30273SOL     OW93197   9.006   8.402   8.276  0.7440  0.2799  0.0148
30273SOL    HW193198   9.040   8.326   8.323  0.0721 -0.3816 -0.5390
30273SOL    HW293199   9.080   8.461   8.268  1.3291 -0.4067  0.2845
30274SOL     OW93200   5.985   9.600   4.769 -0.1137 -0.9744 -0.2247
30274SOL    HW193201   5.990   9.587   4.674  1.8793 -3.5462  0.1447
30274SOL    HW293202   6.040   9.677   4.785 -1.0407 -0.0694 -1.1709
30275SOL     OW93203  10.498   4.882   7.980 -0.5926 -0.2567 -0.1152
30275SOL    HW193204  10.496   4.807   8.039 -0.6769 -0.7817 -0.7783
30275SOL    HW293205  10.583   4.876   7.935 -0.7002 -0.0924 -0.3450
30276SOL     OW93206   6.625   2.864   1.885 -0.0739  0.0527 -0.3219
30276SOL    HW193207   6.709   2.903   1.910 -0.6752  0.7144  0.7076
30276SOL    HW293208   6.648   2.778   1.850  1.3020  1.2951 -2.7156
30277SOL     OW93209   8.194   1.619   4.494 -0.4298  0.1303 -0.3108
30277SOL    HW193210   8.112   1.626   4.543  0.6938 -2.3720  2.2226
30277SOL    HW293211   8.193   1.530   4.459  1.8135 -0.5203  1.1017
30278SOL     OW93212   2.650   9.863   7.613  0.1150 -0.5156  0.0279
30278SOL    HW193213   2.578   9.918   7.583 -0.3065 -0.8784  0.3602
30278SOL    HW293214   2.630   9.776   7.576  1.0364 -0.3491 -0.9258
30279SOL     OW93215   2.309   2.079   7.949  0.1601 -0.2898 -0.3519
30279SOL    HW193216   2.381   2.128   7.909 -0.5980  0.8966 -0.3101
30279SOL    HW293217   2.335   2.069   8.041 -0.3345  1.3757 -0.0040
30280SOL     OW93218   6.597   2.759   6.018 -0.2068  0.1026  0.0724
30280SOL    HW193219   6.590   2.790   5.928 -0.9008 -2.1622 -0.7304
30280SOL    HW293220   6.570   2.667   6.014 -0.2815 -0.0624  2.6079
30281SOL     OW93221   1.291   8.696   3.344 -0.0510 -0.1959  0.0418
30281SOL    HW193222   1.277   8.621   3.402  1.7057 -1.2457 -0.8056
30281SOL    HW293223   1.333   8.659   3.267  0.6509  1.6362 -0.5151
30282SOL     OW93224   1.313   7.836   1.296 -0.1589 -0.4653 -0.1598
30282SOL    HW193225   1.399   7.851   1.335  0.0287 -1.7415 -0.0164
30282SOL    HW293226   1.332   7.800   1.209 -0.5717  1.6937 -1.2043
30283SOL     OW93227   2.967   6.192   3.030  0.3118  0.5299 -0.3826
30283SOL    HW193228   2.876   6.219   3.018 -0.2643 -1.7061 -1.4465
30283SOL    HW293229   2.993   6.233   3.112 -2.2091 -0.1578  0.8566
30284SOL     OW93230   1.672   1.301   0.282 -0.4972  0.1311 -0.4204
30284SOL    HW193231   1.759   1.308   0.322 -0.7288  1.5116 -0.1348
30284SOL    HW293232   1.669   1.210   0.250  1.0496  0.0479 -0.4483
30285SOL     OW93233   7.545   1.578   5.729 -0.4580 -0.1608  0.4408
30285SOL    HW193234   7.484   1.513   5.762  0.2496  0.0169  2.2269
30285SOL    HW293235   7.625   1.564   5.780 -0.0162  1.5543  0.2778
30286SOL     OW93236   2.280   7.935  10.460  0.0261  0.4694 -0.0640
30286SOL    HW193237   2.317   8.016  10.426 -0.1498 -0.1718 -1.8646
30286SOL    HW293238   2.274   7.877  10.384  0.2159 -1.2726  1.1824
30287SOL     OW93239   4.173   0.516   3.784 -0.0953 -0.0565  0.6168
30287SOL    HW193240   4.117   0.469   3.845 -0.7945 -1.9689 -1.3451
30287SOL    HW293241   4.132   0.502   3.698  2.0926  0.5110 -0.6040
30288SOL     OW93242   6.517   4.519   0.450  0.3941  0.2448 -0.3951
30288SOL    HW193243   6.519   4.615   0.445 -1.4212  0.3495  0.1939
30288SOL    HW293244   6.539   4.499   0.541  0.4204  0.1212 -0.4289
30289SOL     OW93245   8.010  10.693   6.185  0.3284 -0.2443  0.5199
30289SOL    HW193246   7.930  10.738   6.214  0.4899  2.3560 -2.4803
30289SOL    HW293247   7.979  10.632   6.118  0.7434  0.5671 -0.4449
30290SOL     OW93248   6.587   9.170   8.813  0.7073 -0.3208 -0.1761
30290SOL    HW193249   6.521   9.231   8.846  1.3287  0.0090  0.4879
30290SOL    HW293250   6.539   9.114   8.752  0.3732  1.5617 -1.7365
30291SOL     OW93251   3.549  10.562   4.440  0.1530 -0.1449  0.2130
30291SOL    HW193252   3.498  10.638   4.467  0.2961 -0.3915  1.2417
30291SOL    HW293253   3.492  10.487   4.458  0.4262 -0.3480  0.2472
30292SOL     OW93254   9.733   3.603   1.111 -0.0782 -0.5802  0.6502
30292SOL    HW193255   9.804   3.541   1.089  0.7386  0.9297 -1.2751
30292SOL    HW293256   9.768   3.655   1.183  1.2324  0.7305 -0.8440
30293SOL     OW93257   6.334   8.876   2.215 -0.2455 -0.0850  0.2934
30293SOL    HW193258   6.376   8.823   2.284 -1.2643 -0.6371  0.5146
30293SOL    HW293259   6.305   8.955   2.260  2.3359  1.2880 -0.2734
30294SOL     OW93260   9.808   8.814   9.821  0.7581 -0.1072  0.0258
30294SOL    HW193261   9.884   8.819   9.879 -0.4727 -0.4130  1.7315
30294SOL    HW293262   9.737   8.852   9.872 -0.6768 -1.6070 -0.7862
30295SOL     OW93263   3.982   3.066   4.701 -0.0191 -0.2025 -0.7640
30295SOL    HW193264   3.943   2.991   4.746  2.3217 -0.2419  1.3969
30295SOL    HW293265   3.933   3.141   4.735  0.6402 -0.3879  0.6936
30296SOL     OW93266   0.186   7.382   5.252 -0.1724 -0.1059  0.1945
30296SOL    HW193267   0.115   7.374   5.189 -0.5163  1.1755  0.3853
30296SOL    HW293268   0.171   7.311   5.314 -0.8937 -0.2611 -0.1474
30297SOL     OW93269   0.465   9.118   2.442  0.1213 -0.5191  0.1871
30297SOL    HW193270   0.546   9.136   2.490 -0.5893 -0.3764  1.3761
30297SOL    HW293271   0.446   9.200   2.396  1.8261 -1.2351 -1.9819
30298SOL     OW93272   4.750   4.258   4.828 -0.2204 -0.7994 -0.1156
30298SOL    HW193273   4.803   4.286   4.903  2.1941 -0.2300 -1.9305
30298SOL    HW293274   4.672   4.220   4.868  1.4385 -1.5537  2.7380
30299SOL     OW93275   7.540  10.438   4.366 -0.1292 -0.8730 -0.1901
30299SOL    HW193276   7.473  10.505   4.371 -0.7001 -1.5326  2.1624
30299SOL    HW293277   7.623  10.486   4.374 -0.4043 -0.2655 -0.8879
30300SOL     OW93278   4.313   6.102   3.992  0.3620 -0.0842  0.5094
30300SOL    HW193279   4.264   6.040   3.937  1.9807 -0.7943 -0.2394
30300SOL    HW293280   4.316   6.183   3.940 -0.0153 -0.0392  0.5583
30301SOL     OW93281  10.343   3.307   9.812  0.0157 -0.0147 -0.1999
30301SOL    HW193282  10.251   3.282   9.805 -0.6789  2.3383 -0.4823
30301SOL    HW293283  10.361   3.306   9.906  0.4789 -2.7833 -0.2358
30302SOL     OW93284   2.629   8.865   5.522 -0.2680  0.3391  0.2443
30302SOL    HW193285   2.578   8.920   5.581  1.1126  1.9676 -0.0252
30302SOL    HW293286   2.698   8.922   5.489  0.4041 -1.1870 -1.1266
30303SOL     OW93287   1.138   3.364   7.029  0.3737 -0.0099  0.2297
30303SOL    HW193288   1.193   3.297   6.988  0.4760  0.1891  0.0385
30303SOL    HW293289   1.049   3.342   7.003  0.2487 -0.9129  1.3468
30304SOL     OW93290   1.755   7.415   7.047 -0.2388 -0.4932 -0.7471
30304SOL    HW193291   1.794   7.345   7.100 -2.5733 -1.7886 -0.5913
30304SOL    HW293292   1.817   7.427   6.975  1.2600 -1.2173  0.3676
30305SOL     OW93293   4.197   7.631   2.439  0.2907  0.2748  0.8772
30305SOL    HW193294   4.256   7.689   2.488  1.4906  0.0534 -0.2499
30305SOL    HW293295   4.142   7.590   2.506 -0.5766  2.6494  1.7249
30306SOL     OW93296   5.248   3.219   8.797  0.1744  0.1554  0.2951
30306SOL    HW193297   5.301   3.285   8.752  1.1235 -0.3943  0.5800
30306SOL    HW293298   5.161   3.259   8.803  0.8870  1.6811  1.0923
30307SOL     OW93299   6.142   5.333   9.863 -0.1978 -0.9805 -0.4066
30307SOL    HW193300   6.061   5.377   9.837 -0.0119 -1.6654 -2.3346
30307SOL    HW293301   6.209   5.371   9.806  0.6505 -1.1664  0.4472
30308SOL     OW93302   1.757   9.107   1.108 -0.6263  0.0277 -0.0565
30308SOL    HW193303   1.783   9.036   1.167  0.1950 -0.2217 -0.6993
30308SOL    HW293304   1.840   9.138   1.071 -1.1533 -0.0655 -1.3481
30309SOL     OW93305  10.208   0.361   1.866 -0.1845  0.0157  0.4259
30309SOL    HW193306  10.137   0.419   1.893  2.0744  2.0251  2.5438
30309SOL    HW293307  10.164   0.282   1.836 -3.3135  1.5090  0.6601
30310SOL     OW93308   9.511   2.458   5.589  0.3274  0.2875 -0.3177
30310SOL    HW193309   9.599   2.458   5.551 -0.3274 -1.6907 -2.0228
30310SOL    HW293310   9.508   2.538   5.641  3.3636  0.0511  0.4066
30311SOL     OW93311   5.152  10.369   5.424 -0.4444 -0.0220 -0.0776
30311SOL    HW193312   5.194  10.402   5.503  0.2664 -0.8600 -0.0911
30311SOL    HW293313   5.062  10.349   5.451 -0.2375 -0.2049  0.4912
30312SOL     OW93314   2.990   5.571  10.656 -0.3482 -0.0052 -0.2874
30312SOL    HW193315   2.972   5.646  10.600  0.1955 -0.2108 -0.7464
30312SOL    HW293316   2.951   5.497  10.609  1.4952 -0.4339 -1.2178
30313SOL     OW93317   8.637   2.688  10.261  0.1963 -0.0042  0.2860
30313SOL    HW193318   8.598   2.672  10.346  1.5344 -1.5244  0.6471
30313SOL    HW293319   8.714   2.742  10.279 -0.5652  1.3061 -0.2086
30314SOL     OW93320   5.096   6.956   1.909 -0.1342  0.6901 -0.7112
30314SOL    HW193321   5.152   6.879   1.915 -1.0466  0.0755  0.1265
30314SOL    HW293322   5.088   6.973   1.815 -0.9459 -1.0146 -0.9898
30315SOL     OW93323   3.301   2.075   7.461  0.0044 -0.2681  0.0567
30315SOL    HW193324   3.338   2.126   7.534  0.6355  0.4214 -0.7288
30315SOL    HW293325   3.349   1.993   7.462  0.9827  0.2873 -0.4266
30316SOL     OW93326   7.443   1.926   0.730  0.6657 -0.3898 -0.3799
30316SOL    HW193327   7.396   1.969   0.659  1.7365 -1.0439 -1.5283
30316SOL    HW293328   7.431   1.983   0.806 -1.2749 -0.1366 -0.8324
30317SOL     OW93329   3.412   4.776   3.669  0.3680  0.3417  0.9112
30317SOL    HW193330   3.431   4.758   3.577  0.2415  1.5197  0.6456
30317SOL    HW293331   3.318   4.764   3.678  0.2690  0.9726  0.7122
30318SOL     OW93332   1.287   7.160   7.883  0.2292  0.3242  0.2839
30318SOL    HW193333   1.228   7.097   7.923 -1.6647  0.6474 -1.7840
30318SOL    HW293334   1.346   7.187   7.953 -0.0563 -2.3617  1.6561
30319SOL     OW93335   6.343   5.629   4.342 -0.2385 -0.5750  0.1055
30319SOL    HW193336   6.416   5.665   4.393 -0.8760  0.5152  0.2706
30319SOL    HW293337   6.331   5.692   4.271 -1.3844 -0.4451  0.3986
30320SOL     OW93338   9.808   2.286   4.462  0.2736 -0.2598 -0.0991
30320SOL    HW193339   9.796   2.381   4.461  0.8649 -0.1613  0.8986
30320SOL    HW293340   9.866   2.268   4.388 -1.3053 -0.0827 -1.4418
30321SOL     OW93341   8.631   6.683   6.041  0.3331 -0.4358 -0.2631
30321SOL    HW193342   8.656   6.767   6.080  0.2345 -1.1572  1.4415
30321SOL    HW293343   8.715   6.640   6.021  0.4088 -0.6791  0.5604
30322SOL     OW93344   6.265   1.036   0.716  0.3585 -0.1675  0.0564
30322SOL    HW193345   6.295   0.996   0.797  0.2892 -1.5345 -0.5778
30322SOL    HW293346   6.342   1.081   0.681  0.3838  0.4388  0.8663
30323SOL     OW93347   5.052   9.355  10.254 -0.2037 -0.4698  0.0103
30323SOL    HW193348   5.000   9.390  10.327  0.5909 -1.6436  1.1766
30323SOL    HW293349   5.066   9.263  10.277  0.7139 -0.6637 -1.2636
30324SOL     OW93350   0.327   1.201   5.449  0.4741  0.3102  0.0918
30324SOL    HW193351   0.407   1.148   5.453 -0.3408 -0.9113  1.1138
30324SOL    HW293352   0.312   1.227   5.540 -1.7063 -1.7450  0.4284
30325SOL     OW93353   6.662   8.144   2.946 -0.4078  0.0809 -0.2338
30325SOL    HW193354   6.732   8.166   3.008 -0.0356 -0.8749 -0.2867
30325SOL    HW293355   6.582   8.147   2.998  0.0702 -2.5437  0.8528
30326SOL     OW93356   0.752   4.768   3.440 -0.1113  0.5291 -0.3202
30326SOL    HW193357   0.843   4.774   3.412  0.2544 -2.8076 -0.2668
30326SOL    HW293358   0.711   4.709   3.376 -1.2727 -0.9033  1.6011
30327SOL     OW93359   6.904   5.815   8.212 -0.2670 -0.5884  0.0357
30327SOL    HW193360   6.955   5.823   8.292  0.7620  0.1386 -0.6548
30327SOL    HW293361   6.828   5.762   8.236 -0.9990  1.2032  1.9665
30328SOL     OW93362   2.802   5.173   6.213 -0.1782  0.4162 -0.3200
30328SOL    HW193363   2.795   5.110   6.285  0.6867  0.5012 -0.1406
30328SOL    HW293364   2.734   5.238   6.231  1.0231  1.3111  1.3423
30329SOL     OW93365   1.672   7.004   1.345  0.5857 -0.3287  0.6271
30329SOL    HW193366   1.608   7.057   1.298 -0.7868 -2.4436 -0.0516
30329SOL    HW293367   1.621   6.956   1.410  1.8097 -0.5904  1.4271
30330SOL     OW93368   8.995   1.461   1.891  0.2900 -0.2901 -0.0016
30330SOL    HW193369   8.997   1.450   1.986  0.8804  0.5257  0.0951
30330SOL    HW293370   8.925   1.403   1.862 -0.3307 -0.0763  0.9970
30331SOL     OW93371   1.832   1.525   5.878  0.4733 -0.2134  0.1196
30331SOL    HW193372   1.927   1.533   5.866  0.3318  1.9613 -0.0173
30331SOL    HW293373   1.822   1.481   5.962  1.6502  0.9447  0.9121
30332SOL     OW93374   6.437   3.088   6.964  0.3324  0.6743  0.4465
30332SOL    HW193375   6.450   3.032   7.041  2.8255  1.7624  0.9392
30332SOL    HW293376   6.451   3.029   6.890 -1.1231 -0.1739  0.7923
30333SOL     OW93377   1.367   2.336   9.628 -0.1222  0.0531  0.4130
30333SOL    HW193378   1.336   2.355   9.540  0.7340 -0.5060 -0.0191
30333SOL    HW293379   1.297   2.283   9.666  0.6576 -2.0522 -0.9041
30334SOL     OW93380   5.051  10.295   3.022 -0.3575 -0.1990 -0.5779
30334SOL    HW193381   5.146  10.308   3.029 -0.3100 -0.6726 -0.2711
30334SOL    HW293382   5.015  10.383   3.018  0.0487  0.0078  0.0585
30335SOL     OW93383   9.784  10.525  10.488  0.4030 -0.4921  0.2869
30335SOL    HW193384   9.875  10.507  10.514 -0.2356 -0.8015  2.5031
30335SOL    HW293385   9.745  10.439  10.476  0.3365 -0.3600 -0.5127
30336SOL     OW93386   1.666   3.175   1.961 -0.2023  0.3013 -0.2535
30336SOL    HW193387   1.692   3.111   1.895 -0.5095  0.2660 -0.3402
30336SOL    HW293388   1.662   3.125   2.043 -0.4477  0.2056 -0.3219
30337SOL     OW93389   1.775  10.591   7.378  0.0974  0.1909 -0.2702
30337SOL    HW193390   1.768  10.499   7.403  0.4609  0.6648  1.8481
30337SOL    HW293391   1.720  10.600   7.300 -0.9950 -1.5482  0.2417
30338SOL     OW93392   9.929   2.353   8.056 -1.1053 -0.2057  0.5236
30338SOL    HW193393  10.014   2.376   8.094 -0.2207 -2.0660 -0.1823
30338SOL    HW293394   9.909   2.426   7.998  0.4398 -0.0764  0.0882
30339SOL     OW93395   8.409   9.091   8.839  0.3821 -0.1699 -0.0964
30339SOL    HW193396   8.367   9.156   8.783  2.9623  0.6845 -1.1891
30339SOL    HW293397   8.414   9.133   8.925  1.2551  0.7989 -0.5904
30340SOL     OW93398   2.036   1.947   9.584 -0.3445  0.0686  0.0168
30340SOL    HW193399   2.108   1.996   9.623  0.7169  0.2611 -2.0846
30340SOL    HW293400   1.979   2.014   9.547 -0.8450 -0.1527  0.3685
30341SOL     OW93401   7.441   8.761   2.032 -0.2593 -0.4047 -0.0338
30341SOL    HW193402   7.363   8.797   1.989  0.2850  1.4541  0.4558
30341SOL    HW293403   7.406   8.700   2.096 -1.3135  0.2227  0.0182
30342SOL     OW93404   3.701  10.162   5.743  0.0147 -0.1864  0.0927
30342SOL    HW193405   3.751  10.221   5.687 -0.5554  1.4295  1.2110
30342SOL    HW293406   3.766  10.118   5.797  0.3965 -0.0694 -0.2707
30343SOL     OW93407   0.295   8.348   7.846 -0.3258 -0.4289 -0.5406
30343SOL    HW193408   0.222   8.304   7.802 -0.8141  0.2438 -0.4266
30343SOL    HW293409   0.363   8.281   7.852 -0.7227 -0.9083 -1.1556
30344SOL     OW93410   1.638   4.365   1.946 -0.1740 -0.5895 -0.4934
30344SOL    HW193411   1.629   4.366   2.041 -0.9904  0.2395 -0.5609
30344SOL    HW293412   1.558   4.321   1.916 -0.1731 -0.3696 -0.8181
30345SOL     OW93413   9.979   1.749   9.852 -0.6170 -0.1911  0.3506
30345SOL    HW193414   9.904   1.799   9.823 -1.0007 -1.6606 -1.4003
30345SOL    HW293415   9.949   1.658   9.853  0.1799 -0.5142  2.9288
30346SOL     OW93416   5.309   0.286  10.439  0.0995  0.4912  0.4462
30346SOL    HW193417   5.220   0.276  10.405 -0.0228  1.7088  0.3600
30346SOL    HW293418   5.302   0.354  10.506  0.7157 -0.4424  1.4849
30347SOL     OW93419   1.264   5.366   8.613  0.6316  0.0288  0.0550
30347SOL    HW193420   1.268   5.271   8.609  1.0336 -0.0030  0.9771
30347SOL    HW293421   1.301   5.396   8.530  0.6287 -0.6127 -0.1778
30348SOL     OW93422   7.011   1.972   4.861 -0.7952  0.4096 -0.0972
30348SOL    HW193423   6.948   1.984   4.790 -2.2976 -2.0897  0.6595
30348SOL    HW293424   6.979   1.894   4.908  3.0945 -1.3119  0.0822
30349SOL     OW93425   7.249   7.694   6.334 -0.4044 -0.2775 -0.4010
30349SOL    HW193426   7.258   7.703   6.240 -1.0517 -1.3504 -0.5862
30349SOL    HW293427   7.214   7.778   6.363 -1.3280 -0.3368 -1.2856
30350SOL     OW93428   5.376   5.885   6.568  0.5100  0.6793 -0.2675
30350SOL    HW193429   5.363   5.974   6.534 -2.0321  0.7147  0.6100
30350SOL    HW293430   5.340   5.828   6.500 -0.4032  0.5069  0.3430
30351SOL     OW93431   3.611   4.973  10.018  0.2962  0.2434  0.5619
30351SOL    HW193432   3.576   4.988  10.106  0.6257 -0.2075  0.7687
30351SOL    HW293433   3.667   5.049  10.001 -0.0679  0.5203  0.5858
30352SOL     OW93434   6.086   7.337   1.874  0.1420 -0.5531 -0.3869
30352SOL    HW193435   6.139   7.371   1.802  0.4596 -1.8390 -0.7700
30352SOL    HW293436   6.120   7.382   1.952 -1.2135  2.0063 -1.1643
30353SOL     OW93437   2.877   9.860  10.358  0.3254 -0.6697  0.6679
30353SOL    HW193438   2.848   9.769  10.364 -0.5411 -0.3460  1.7910
30353SOL    HW293439   2.843   9.901  10.438  0.2728  0.7585 -0.0571
30354SOL     OW93440   3.466   7.067   2.548  0.4810 -0.3681 -0.4012
30354SOL    HW193441   3.428   7.120   2.618  0.9293  1.4767 -1.4842
30354SOL    HW293442   3.536   7.016   2.590  0.9643  0.9476  0.4287
30355SOL     OW93443   9.166   2.939   6.719  0.5062  0.0454 -0.0067
30355SOL    HW193444   9.136   3.023   6.754 -3.0652 -1.5314  1.1929
30355SOL    HW293445   9.132   2.938   6.629  0.5659 -0.0938 -0.0272
30356SOL     OW93446   2.784   8.979   2.297  0.0490 -0.5321 -0.0249
30356SOL    HW193447   2.780   8.899   2.243  1.2300 -1.2726  0.9277
30356SOL    HW293448   2.801   9.049   2.234 -0.3241 -1.1215 -0.8045
30357SOL     OW93449   1.945   0.228   3.871 -0.6212  0.2118 -0.7643
30357SOL    HW193450   1.894   0.292   3.822 -0.4653  0.3898 -0.6995
30357SOL    HW293451   2.033   0.232   3.832 -1.2568 -1.9276 -2.5953
30358SOL     OW93452  10.649   3.932   0.212  0.5225  0.7131 -0.1233
30358SOL    HW193453  10.730   3.902   0.170  0.9807  0.6882  0.7424
30358SOL    HW293454  10.644   3.881   0.293 -0.6110  0.3871 -0.3811
30359SOL     OW93455   8.101   9.944   9.563  0.3470  0.2227 -1.2383
30359SOL    HW193456   8.195   9.935   9.574 -0.0174 -0.5777  2.7547
30359SOL    HW293457   8.074  10.003   9.634 -2.3088 -0.7202 -1.3536
30360SOL     OW93458   3.048   4.014   2.447  0.7284 -0.1209 -0.5304
30360SOL    HW193459   3.083   3.927   2.465  0.7708  0.3077  1.8183
30360SOL    HW293460   3.125   4.068   2.431  0.9230  0.0544  0.9043
30361SOL     OW93461   1.833   8.288   5.574  0.1960  0.5287 -0.4137
30361SOL    HW193462   1.810   8.327   5.489 -0.4262 -0.2913 -0.6453
30361SOL    HW293463   1.841   8.194   5.555 -1.1979  0.1632  0.6699
30362SOL     OW93464  10.358   1.631  10.655 -0.6569  0.1103 -0.1628
30362SOL    HW193465  10.385   1.599  10.741 -1.8015 -0.9169 -0.1753
30362SOL    HW293466  10.441   1.648  10.610 -0.0341 -0.7066  0.6299
30363SOL     OW93467   1.564   1.568   7.228 -0.2307 -0.2856 -0.1238
30363SOL    HW193468   1.476   1.599   7.208 -0.4072 -0.6099  0.1234
30363SOL    HW293469   1.610   1.645   7.261 -0.3451 -0.0587 -0.4955
30364SOL     OW93470   4.329   1.840   7.897  0.3839  0.1547 -0.1781
30364SOL    HW193471   4.366   1.753   7.912 -1.6617 -0.5671  1.1644
30364SOL    HW293472   4.274   1.829   7.819  0.4854  0.3670 -0.2794
30365SOL     OW93473   1.783   2.646   9.599 -0.3110 -0.3606  0.0353
30365SOL    HW193474   1.713   2.615   9.658 -0.1358  0.9955  1.0095
30365SOL    HW293475   1.784   2.741   9.612  0.4744 -0.1578 -1.3784
30366SOL     OW93476  10.692   3.747   2.916 -0.5459  0.0939 -0.5916
30366SOL    HW193477  10.785   3.748   2.938 -1.1946  1.7041  2.6717
30366SOL    HW293478  10.673   3.654   2.902  1.3646 -0.3655 -0.5061
30367SOL     OW93479   7.652   6.597   1.426  0.3314 -0.2757  0.2151
30367SOL    HW193480   7.629   6.514   1.467  0.6350  0.1089  1.1923
30367SOL    HW293481   7.669   6.574   1.335  0.2745 -1.2612  0.4352
30368SOL     OW93482   6.070   5.139   0.337  0.1920  0.1495 -0.4239
30368SOL    HW193483   6.034   5.060   0.298  2.0572 -1.8010  1.5312
30368SOL    HW293484   5.994   5.192   0.361 -1.0870 -0.8422 -2.0874
30369SOL     OW93485   2.445   3.746   8.897  0.3836  0.2242  0.2913
30369SOL    HW193486   2.357   3.726   8.864  1.2041 -2.0891 -0.7783
30369SOL    HW293487   2.432   3.770   8.988 -1.3584 -0.0663  0.1572
30370SOL     OW93488   4.415   8.571   3.508 -0.0435  0.1516 -0.4583
30370SOL    HW193489   4.402   8.477   3.514  1.9101 -0.1837 -0.9990
30370SOL    HW293490   4.463   8.584   3.427  1.4868  1.4042  0.5864
30371SOL     OW93491   2.435   0.611   1.806  0.0364 -0.4141  0.5408
30371SOL    HW193492   2.427   0.621   1.901  1.4064  0.6540  0.5787
30371SOL    HW293493   2.357   0.654   1.770  0.6644  1.2882  1.1227
30372SOL     OW93494   0.994   2.998   8.874  0.1695 -0.0570  0.2464
30372SOL    HW193495   1.003   2.903   8.873 -0.3668 -0.2239  2.9829
30372SOL    HW293496   1.021   3.024   8.963  2.1590  2.5919 -0.9961
30373SOL     OW93497   5.185   0.851   0.881 -0.6261  0.4941  0.4732
30373SOL    HW193498   5.125   0.894   0.942 -1.0608  0.0228  0.3851
30373SOL    HW293499   5.158   0.883   0.794 -0.3847  0.7170  0.4804
30374SOL     OW93500   3.184   4.926   8.126 -0.1464  0.4748  0.2320
30374SOL    HW193501   3.133   4.850   8.099  0.6711 -0.2919  0.7950
30374SOL    HW293502   3.191   4.979   8.046  2.9580 -2.1499 -1.5319
30375SOL     OW93503   4.610   8.634   7.481  0.0152  0.4825  0.1560
30375SOL    HW193504   4.578   8.652   7.392  0.1209 -0.2072 -0.0305
30375SOL    HW293505   4.549   8.679   7.539  0.2572  1.3923 -0.2857
30376SOL     OW93506   9.754   8.418   7.462  0.1247  0.3379 -0.2873
30376SOL    HW193507   9.715   8.499   7.495 -0.0471  0.1135  0.0643
30376SOL    HW293508   9.787   8.374   7.540 -2.2271 -1.2575 -0.0940
30377SOL     OW93509   4.224   3.202   0.707 -0.3365  0.0773  0.5088
30377SOL    HW193510   4.237   3.139   0.777 -0.9028 -1.9102 -1.1008
30377SOL    HW293511   4.146   3.251   0.733 -0.9625 -1.1077  0.9461
30378SOL     OW93512   3.532   9.658   8.300 -0.2398  0.1114  0.2106
30378SOL    HW193513   3.443   9.636   8.328 -0.5281 -0.0487 -0.7890
30378SOL    HW293514   3.529   9.750   8.277 -0.2424  0.0180 -0.1712
30379SOL     OW93515   1.318   7.791   2.561 -0.5148 -0.3735  0.2814
30379SOL    HW193516   1.302   7.873   2.515 -2.1729 -1.2250 -0.7845
30379SOL    HW293517   1.410   7.772   2.547 -0.3759  0.7311 -0.4098
30380SOL     OW93518   4.325   7.165   3.085  0.8258  0.0275 -0.3653
30380SOL    HW193519   4.378   7.122   3.018  1.3904 -1.0804  0.7500
30380SOL    HW293520   4.283   7.238   3.039  1.0676 -0.7859 -1.9548
30381SOL     OW93521   6.324   3.243   1.437 -0.2292 -0.2840 -0.1055
30381SOL    HW193522   6.374   3.323   1.455  0.6375 -0.8174 -0.1079
30381SOL    HW293523   6.324   3.195   1.519 -2.9128  0.8310  0.6581
30382SOL     OW93524   4.668  10.142   2.406 -0.4508 -0.2953  0.2350
30382SOL    HW193525   4.714  10.058   2.400  0.1523 -0.0146  0.8786
30382SOL    HW293526   4.703  10.193   2.333  1.1052  0.3119  1.3525
30383SOL     OW93527   4.493   4.137   3.961 -0.1239 -1.0546  0.3966
30383SOL    HW193528   4.409   4.119   3.917 -1.4115  2.7305  0.9481
30383SOL    HW293529   4.532   4.208   3.910  1.9464 -1.5604  1.1823
30384SOL     OW93530   8.817   3.647   7.673 -0.3960  0.1692  0.0096
30384SOL    HW193531   8.884   3.615   7.733  0.8119  3.8232  0.8522
30384SOL    HW293532   8.735   3.616   7.710  0.5942 -2.1104  0.4834
30385SOL     OW93533   4.042   0.499   3.544 -0.2192 -1.0406 -0.4766
30385SOL    HW193534   4.074   0.469   3.459 -0.8420 -0.0765 -1.0783
30385SOL    HW293535   3.959   0.453   3.556 -1.3836  0.6414 -1.5938
30386SOL     OW93536   2.976   0.578   6.526 -0.1644 -0.1721 -0.2419
30386SOL    HW193537   2.985   0.526   6.446 -1.4265 -1.3181  0.3117
30386SOL    HW293538   3.062   0.575   6.567  0.2679 -0.2829 -1.1442
30387SOL     OW93539   0.196   5.543   0.843  0.0189 -0.1076 -0.3891
30387SOL    HW193540   0.272   5.509   0.890 -1.0200 -2.0039  0.0180
30387SOL    HW293541   0.226   5.550   0.752  1.8907  3.1300  0.3080
30388SOL     OW93542   2.231  10.236   3.212  0.8639 -0.8506  0.3830
30388SOL    HW193543   2.284  10.220   3.290  1.1146 -0.4455  0.2996
30388SOL    HW293544   2.291  10.281   3.151  0.4427 -0.4381  0.2658
30389SOL     OW93545   9.497   3.759   1.899  0.4596  0.9869  0.8537
30389SOL    HW193546   9.407   3.759   1.866  1.1180  2.5455 -1.1306
30389SOL    HW293547   9.500   3.831   1.961  0.3246  0.9011  0.9597
30390SOL     OW93548   4.793   0.127   6.977 -0.6019 -0.2725 -0.2608
30390SOL    HW193549   4.769   0.213   6.943  0.9416  1.1571  1.9635
30390SOL    HW293550   4.716   0.097   7.024 -1.1519 -0.1292 -1.0503
30391SOL     OW93551   1.628   1.625   4.171  0.6457  1.0321  0.4086
30391SOL    HW193552   1.550   1.599   4.121 -0.0883  0.5895  1.7065
30391SOL    HW293553   1.677   1.544   4.181  1.1297  1.2524 -0.1496
30392SOL     OW93554   2.214   9.521   2.689  0.5865 -0.4733  0.3946
30392SOL    HW193555   2.161   9.523   2.609  0.8734  1.2368  0.1969
30392SOL    HW293556   2.159   9.478   2.754 -0.2343 -0.5685 -0.3483
30393SOL     OW93557   4.063  10.204   4.640  0.1923  0.0005 -0.0668
30393SOL    HW193558   4.151  10.230   4.616 -0.5013  1.4709 -1.1883
30393SOL    HW293559   4.041  10.135   4.577  0.5440 -0.4042  0.2479
30394SOL     OW93560   5.200   0.603   6.090 -0.0824  0.1979 -0.8659
30394SOL    HW193561   5.122   0.638   6.046 -0.3078  0.7119 -0.0810
30394SOL    HW293562   5.253   0.680   6.110 -0.0135 -0.0179 -0.1920
30395SOL     OW93563   0.139   9.337   1.715  0.2695 -0.4874 -0.4375
30395SOL    HW193564   0.180   9.410   1.762 -0.3344 -0.0483 -0.5744
30395SOL    HW293565   0.083   9.295   1.781 -0.5967  0.1431 -0.7445
30396SOL     OW93566   5.178   5.383   3.880  0.2090 -0.5920  0.2932
30396SOL    HW193567   5.164   5.449   3.812 -0.7882  0.5159  1.5365
30396SOL    HW293568   5.234   5.426   3.945 -1.1159 -0.6607  1.5156
30397SOL     OW93569   4.153   5.917   2.842 -0.0543 -0.0838  0.2660
30397SOL    HW193570   4.193   5.973   2.909  2.1057 -2.2282  0.8933
30397SOL    HW293571   4.221   5.853   2.820 -2.3710 -2.5044 -0.3674
30398SOL     OW93572   9.876   1.496   6.311 -0.2368 -0.0730 -0.2120
30398SOL    HW193573   9.967   1.475   6.289 -0.0029  0.8553 -0.1522
30398SOL    HW293574   9.861   1.582   6.273 -1.2613 -0.4406 -0.6704
30399SOL     OW93575   7.177   5.463   5.625 -0.2106  0.6164  0.1476
30399SOL    HW193576   7.134   5.380   5.647  1.0589 -0.3185 -0.7425
30399SOL    HW293577   7.112   5.510   5.573 -0.9532  0.1944  0.6665
30400SOL     OW93578   0.674   1.315   8.526  0.1641  0.2177  0.2925
30400SOL    HW193579   0.657   1.271   8.609  2.0096  1.9309  1.6915
30400SOL    HW293580   0.634   1.259   8.460 -1.9007 -0.9189  2.3554
30401SOL     OW93581  10.395   4.873  10.471  0.5335  0.0888 -0.4244
30401SOL    HW193582  10.309   4.845  10.442  0.6940 -1.1380  0.1999
30401SOL    HW293583  10.454   4.848  10.400  0.3761  1.0685 -0.9194
30402SOL     OW93584  10.666   8.487   2.004 -0.7485  0.0702 -0.0338
30402SOL    HW193585  10.617   8.566   1.981  0.3810  0.8503  0.1672
30402SOL    HW293586  10.751   8.520   2.034 -0.0443 -1.2578 -0.5190
30403SOL     OW93587   6.774   3.476   3.717  0.4274 -0.3902 -0.1830
30403SOL    HW193588   6.757   3.403   3.777 -2.1134 -0.9761 -1.4633
30403SOL    HW293589   6.688   3.517   3.705  1.1786  0.7158 -2.1279
30404SOL     OW93590   7.090   1.823   0.580 -0.6190  0.1083 -0.6563
30404SOL    HW193591   7.151   1.884   0.539 -0.2005 -0.7923 -1.4269
30404SOL    HW293592   7.056   1.870   0.656  1.1756  0.5918 -0.0877
30405SOL     OW93593   3.466   3.318   1.305  0.2131  0.4029 -0.3468
30405SOL    HW193594   3.485   3.410   1.324  1.5286 -0.0937  0.9472
30405SOL    HW293595   3.477   3.310   1.210  1.2277  1.3414 -0.3284
30406SOL     OW93596   2.436   9.211   6.662  0.1210 -0.4455 -0.2637
30406SOL    HW193597   2.363   9.266   6.689 -0.6612 -0.4379 -2.2391
30406SOL    HW293598   2.514   9.265   6.680 -0.2308 -0.6929  2.4278
30407SOL     OW93599   9.936   7.920   4.341  0.3567 -0.6856 -0.0432
30407SOL    HW193600   9.853   7.872   4.345  0.5752 -1.0145  1.5561
30407SOL    HW293601   9.912   8.012   4.346  0.0513 -0.7599 -0.1777
30408SOL     OW93602   5.860   3.078   9.560 -0.0896 -0.6356 -0.1674
30408SOL    HW193603   5.878   3.018   9.488 -0.1693 -2.0118  0.9319
30408SOL    HW293604   5.947   3.109   9.588  0.1402 -1.9508  0.6641
30409SOL     OW93605   9.208   8.081   4.614  0.3509 -0.6881  0.2690
30409SOL    HW193606   9.291   8.123   4.635  0.4696 -0.9823  0.3949
30409SOL    HW293607   9.147   8.153   4.600  0.6511 -0.4706  0.0793
30410SOL     OW93608   5.187   4.379   6.003  0.0701 -0.6095 -0.0893
30410SOL    HW193609   5.162   4.368   5.912  1.4586  0.8657 -0.6898
30410SOL    HW293610   5.281   4.397   6.001  0.3384 -1.5552  1.7201
30411SOL     OW93611   9.817   2.212   2.358  0.2603  0.6703 -0.5348
30411SOL    HW193612   9.847   2.275   2.292  0.3809  0.7326 -0.4217
30411SOL    HW293613   9.816   2.262   2.440 -0.1893  0.6792 -0.5439
30412SOL     OW93614   5.950   9.939   1.680 -0.2590 -0.0790 -0.0565
30412SOL    HW193615   6.010   9.906   1.747  0.9932 -0.6743 -1.4105
30412SOL    HW293616   5.863   9.930   1.719  0.5407  2.9637  2.8992
30413SOL     OW93617  10.244   5.483   7.806 -0.4827 -0.2228 -0.1257
30413SOL    HW193618  10.283   5.567   7.831 -0.2935 -0.5342  0.6683
30413SOL    HW293619  10.304   5.447   7.740  0.2026 -0.3637  0.5537
30414SOL     OW93620   1.829   0.801   5.531 -0.1909 -0.2933  0.0435
30414SOL    HW193621   1.768   0.866   5.565  0.6390  0.6071 -0.1431
30414SOL    HW293622   1.785   0.766   5.454 -1.0027 -0.5590  0.6087
30415SOL     OW93623   5.216   5.131  10.547 -0.9155 -0.2647  0.1187
30415SOL    HW193624   5.228   5.225  10.558  0.3017 -0.5777  1.7689
30415SOL    HW293625   5.148   5.124  10.480 -1.0069  1.7763 -0.0734
30416SOL     OW93626   3.451   2.450   8.562  0.1908 -0.1724  0.6209
30416SOL    HW193627   3.368   2.414   8.595 -0.8995 -0.0628 -1.7707
30416SOL    HW293628   3.448   2.542   8.585 -0.2741 -0.2121  0.7414
30417SOL     OW93629   7.360   8.440   9.425 -0.0757 -0.0956  0.0272
30417SOL    HW193630   7.269   8.408   9.427 -0.9354  1.6081 -3.1881
30417SOL    HW293631   7.403   8.387   9.358  1.8748 -1.9039  2.5551
30418SOL     OW93632   5.071   6.731   6.807  0.5947  0.2283  0.3189
30418SOL    HW193633   5.153   6.757   6.765 -0.4194  1.8059 -0.7996
30418SOL    HW293634   5.003   6.759   6.746 -0.8291 -0.2951  1.5997
30419SOL     OW93635   2.666   9.330   4.189 -0.2246 -0.2164  0.2455
30419SOL    HW193636   2.727   9.271   4.233 -1.4068 -1.1527  0.6867
30419SOL    HW293637   2.665   9.408   4.244  0.0790 -0.4541  0.6015
30420SOL     OW93638  10.020   0.624   9.665  0.2396  0.1590  0.0430
30420SOL    HW193639  10.032   0.638   9.571  0.9816  2.0483  0.3781
30420SOL    HW293640   9.933   0.657   9.684  0.3043  0.2942  0.1060
30421SOL     OW93641   4.847   3.113   4.827  0.3657  0.7073 -0.0302
30421SOL    HW193642   4.849   3.204   4.797 -0.5381  0.9589  0.6360
30421SOL    HW293643   4.763   3.104   4.873  0.0083 -0.7135 -0.8765
30422SOL     OW93644  10.030   6.986   6.913  0.1937  0.2120  0.1533
30422SOL    HW193645  10.043   6.977   6.819 -1.2498 -0.9139  0.0255
30422SOL    HW293646  10.118   6.996   6.949  0.7222  1.2650 -1.3552
30423SOL     OW93647   3.343   9.647   7.467 -0.2492 -0.2941  0.1314
30423SOL    HW193648   3.275   9.661   7.402 -0.5468  0.9621  0.6803
30423SOL    HW293649   3.299   9.601   7.538 -0.5169  0.4341  0.4458
30424SOL     OW93650   2.589   2.773   3.208 -0.0290 -0.3042 -0.0247
30424SOL    HW193651   2.602   2.708   3.277  0.6738  0.4110  0.5195
30424SOL    HW293652   2.497   2.763   3.184  0.2109 -1.9663 -0.4330
30425SOL     OW93653   7.482   1.483   6.454 -0.1712  0.0534  0.2689
30425SOL    HW193654   7.479   1.578   6.444 -0.6411 -0.0442 -0.6367
30425SOL    HW293655   7.475   1.449   6.364 -0.9898 -0.8438  0.6550
30426SOL     OW93656   4.085   8.066   0.224  0.7288 -0.1844 -0.0440
30426SOL    HW193657   4.018   8.050   0.290  0.0044  0.5254 -0.5899
30426SOL    HW293658   4.037   8.076   0.142  1.4831  0.4626 -0.4282
30427SOL     OW93659   5.005   8.738   8.243  0.0968  0.8935 -0.6494
30427SOL    HW193660   4.943   8.811   8.252 -0.6523  0.2902 -0.7662
30427SOL    HW293661   4.969   8.686   8.171 -0.4836 -0.6680  0.7170
30428SOL     OW93662   3.173   8.249   1.493 -0.0119  0.1168  0.5065
30428SOL    HW193663   3.253   8.198   1.488  0.3070  0.5783  0.8723
30428SOL    HW293664   3.199   8.338   1.468 -1.0364 -0.3475 -2.7175
30429SOL     OW93665   1.468   5.615   8.692 -0.4006 -0.6140 -0.1893
30429SOL    HW193666   1.404   5.680   8.665 -2.0407 -0.9562  2.5017
30429SOL    HW293667   1.422   5.561   8.756  2.6925 -0.4978  2.3782
30430SOL     OW93668   4.768   7.014   5.020  0.5976  0.1711 -0.0269
30430SOL    HW193669   4.707   7.068   5.071 -0.6318  0.0325 -1.2793
30430SOL    HW293670   4.787   7.067   4.943  0.6716 -0.5252 -0.4924
30431SOL     OW93671   3.890   8.677   3.522 -0.1983  0.4092 -0.5218
30431SOL    HW193672   3.971   8.699   3.568 -0.8006  0.9658  0.3113
30431SOL    HW293673   3.903   8.710   3.433 -0.2497  2.3333  0.1262
30432SOL     OW93674   6.300   1.666   0.878 -0.3687 -0.2263 -0.2397
30432SOL    HW193675   6.319   1.573   0.886 -3.1009 -0.9876 -1.4521
30432SOL    HW293676   6.363   1.698   0.813  0.3839 -1.3009 -0.0652
30433SOL     OW93677   5.415   1.939   7.108 -0.0847  0.0637 -0.2622
30433SOL    HW193678   5.324   1.937   7.139  1.0126 -1.2329  3.4062
30433SOL    HW293679   5.452   2.018   7.146  0.8435 -0.5387  0.1263
30434SOL     OW93680   0.930   7.878   4.214  0.1397  0.8665 -0.2136
30434SOL    HW193681   0.926   7.923   4.130 -1.5329  0.5686 -0.3298
30434SOL    HW293682   0.985   7.934   4.269  1.2348  1.0785 -1.4766
30435SOL     OW93683   3.461   6.252   9.397  0.8358 -0.3404  0.8245
30435SOL    HW193684   3.438   6.261   9.305  0.4688  0.7158  1.0151
30435SOL    HW293685   3.486   6.340   9.425 -1.5607 -0.0794  2.4032
30436SOL     OW93686   5.867   8.682   4.063  0.3240  0.0591 -0.1671
30436SOL    HW193687   5.780   8.655   4.033  0.3017  0.7860 -0.7655
30436SOL    HW293688   5.918   8.601   4.065 -0.0784 -0.2175 -0.7917
30437SOL     OW93689   2.886   6.407   3.883  0.4712 -0.3546 -0.0360
30437SOL    HW193690   2.796   6.436   3.869  0.3159  0.1060  1.6413
30437SOL    HW293691   2.880   6.311   3.885  0.2504 -0.3732 -1.2494
30438SOL     OW93692   6.137   9.172   4.049 -0.3730  0.2507 -0.3331
30438SOL    HW193693   6.222   9.198   4.013 -1.1782  1.6920 -1.3016
30438SOL    HW293694   6.158   9.121   4.127  1.3701  0.5762 -0.5548
30439SOL     OW93695   0.320   5.199   3.736 -0.1374  0.5274 -0.1333
30439SOL    HW193696   0.407   5.159   3.734  0.4099  1.6753 -0.3681
30439SOL    HW293697   0.310   5.239   3.649 -1.0439  0.1247 -0.2285
30440SOL     OW93698   7.631   1.731   7.186  0.2458 -0.1640 -0.4787
30440SOL    HW193699   7.627   1.638   7.209 -2.8361 -0.0409 -0.0255
30440SOL    HW293700   7.604   1.734   7.094  0.6825  0.2567 -0.5937
30441SOL     OW93701   3.360   5.643   0.926  0.2312  0.3582  0.4882
30441SOL    HW193702   3.439   5.658   0.977  0.4008 -0.5161  0.5092
30441SOL    HW293703   3.326   5.730   0.906  1.5330  0.7645 -0.0372
30442SOL     OW93704   7.016   6.855   2.548 -0.4653 -0.2703  0.1394
30442SOL    HW193705   7.016   6.857   2.453  0.2262  2.3166  0.1276
30442SOL    HW293706   7.105   6.828   2.571  0.5484  2.6076 -0.0421
30443SOL     OW93707   2.747   5.584   6.539 -0.8330 -0.2610 -0.2090
30443SOL    HW193708   2.828   5.633   6.557  0.1925 -1.0758 -2.3490
30443SOL    HW293709   2.678   5.651   6.538  0.2582  0.8936 -1.1791
30444SOL     OW93710   4.431   3.196  10.797 -0.8271 -0.0897  0.1703
30444SOL    HW193711   4.364   3.265  10.798  0.0424  0.7719  0.0338
30444SOL    HW293712   4.510   3.238  10.829 -0.4702 -1.2534  0.8848
30445SOL     OW93713   4.070   9.788   9.582 -0.1643 -0.0132 -0.4183
30445SOL    HW193714   4.000   9.725   9.595  0.2965 -0.3276  0.6847
30445SOL    HW293715   4.086   9.824   9.670  0.5277  0.6116 -0.7896
30446SOL     OW93716   2.396   2.114   8.580 -0.0768 -0.8211  0.1213
30446SOL    HW193717   2.453   2.064   8.522  2.2189  1.5202  0.1976
30446SOL    HW293718   2.426   2.092   8.668  2.6791  2.2936  0.1416
30447SOL     OW93719   6.181   8.022   1.280  0.2675 -0.5805  0.1891
30447SOL    HW193720   6.089   8.048   1.288  0.5352  0.5044 -0.1279
30447SOL    HW293721   6.219   8.085   1.219  1.8487  0.6616  2.3249
30448SOL     OW93722   5.110   7.179   5.786  0.3955  0.4996 -0.1163
30448SOL    HW193723   5.122   7.215   5.698 -0.8507 -0.1140 -0.5648
30448SOL    HW293724   5.017   7.156   5.790  0.1461  1.6708  1.8221
30449SOL     OW93725   9.261   3.921  10.112 -0.1191 -0.4503 -0.4620
30449SOL    HW193726   9.275   4.015  10.124 -1.6685 -0.4561  1.8983
30449SOL    HW293727   9.346   3.882  10.131  0.3443  0.4077 -0.6987
30450SOL     OW93728  10.641   7.929   2.020 -0.3875 -0.1405  0.0396
30450SOL    HW193729  10.583   7.950   2.094 -2.2173 -0.0635 -1.3502
30450SOL    HW293730  10.721   7.979   2.037 -0.5257 -0.5405  2.2165
30451SOL     OW93731   6.530   2.711   1.538  0.0182 -0.2494  0.3191
30451SOL    HW193732   6.575   2.686   1.619 -0.6955 -0.5742  0.6235
30451SOL    HW293733   6.593   2.766   1.492  0.6358 -0.4956  0.8486
30452SOL     OW93734   5.505   7.369   0.218 -0.0730 -0.4999  0.8475
30452SOL    HW193735   5.425   7.367   0.166  0.2257 -2.0864  0.4035
30452SOL    HW293736   5.526   7.463   0.225 -2.1180 -0.0242  1.2608
30453SOL     OW93737   5.092   4.119   1.424  0.4321  0.4156  0.3544
30453SOL    HW193738   5.151   4.068   1.368  1.9481  3.3235 -0.9073
30453SOL    HW293739   5.142   4.197   1.446 -0.5659  0.0131  4.9437
30454SOL     OW93740   5.811   5.701   3.003  0.0347  0.1728 -0.6187
30454SOL    HW193741   5.805   5.795   3.021  0.3530  0.2734 -1.0145
30454SOL    HW293742   5.733   5.682   2.950 -1.5778 -0.3724  1.8007
30455SOL     OW93743   6.850   4.755   5.516 -0.1116 -0.0303 -0.3712
30455SOL    HW193744   6.760   4.725   5.511  0.3425 -1.7147  0.5842
30455SOL    HW293745   6.869   4.759   5.610  1.2819 -1.2955 -0.5607
30456SOL     OW93746  10.219   8.899   1.958 -0.0776 -0.2858 -0.1478
30456SOL    HW193747  10.238   8.828   2.020  0.3554  0.2758  0.3721
30456SOL    HW293748  10.209   8.977   2.013  2.4890  0.6803 -0.9001
30457SOL     OW93749   6.580   8.204   6.593 -0.2701 -0.2630 -0.2876
30457SOL    HW193750   6.578   8.112   6.568  1.3155 -0.3086 -0.3245
30457SOL    HW293751   6.671   8.231   6.582 -0.2217  0.7054  1.9252
30458SOL     OW93752   7.166   4.922   3.919 -0.1256  0.1255 -0.7988
30458SOL    HW193753   7.169   4.861   3.993  0.9858  0.4511 -0.5506
30458SOL    HW293754   7.074   4.926   3.894 -0.3379 -0.9632 -0.2413
30459SOL     OW93755   1.980   6.229   5.443  0.2966 -0.3787  0.2591
30459SOL    HW193756   1.899   6.197   5.404 -0.7398 -0.3510  2.2880
30459SOL    HW293757   2.040   6.240   5.369 -1.0120 -1.9517 -1.0845
30460SOL     OW93758   6.163   8.038   9.310 -0.1096 -0.3061  0.3311
30460SOL    HW193759   6.163   7.949   9.345  0.1265 -0.6407 -0.4933
30460SOL    HW293760   6.256   8.057   9.294 -0.2494 -0.4298 -0.7366
30461SOL     OW93761   5.846   5.504   7.204 -0.0893  0.3124 -0.0013
30461SOL    HW193762   5.773   5.562   7.226  0.5190  1.0390  0.1122
30461SOL    HW293763   5.827   5.475   7.115 -1.7908 -1.4595  0.8486
30462SOL     OW93764   3.939   8.425  10.258 -0.7913 -0.1467  0.4528
30462SOL    HW193765   3.881   8.411  10.183 -0.8167  1.2348  0.1837
30462SOL    HW293766   4.003   8.489  10.227 -0.2907 -0.1981  1.3526
30463SOL     OW93767   9.708   6.608   8.711 -0.1211 -0.6121  0.2926
30463SOL    HW193768   9.738   6.691   8.745  0.9139 -1.3770  1.3018
30463SOL    HW293769   9.614   6.620   8.697  0.1219  0.9058 -0.1838
30464SOL     OW93770   3.038   2.058   7.427  0.5828 -0.2667  0.0300
30464SOL    HW193771   3.031   1.964   7.414  1.1008 -0.4716  1.0572
30464SOL    HW293772   3.133   2.074   7.434  0.4996  0.3252 -0.1338
30465SOL     OW93773   9.619   9.544   6.583  0.6735  0.3039  0.6874
30465SOL    HW193774   9.550   9.584   6.530  1.5752  1.9727  0.6944
30465SOL    HW293775   9.630   9.456   6.546 -1.1858  0.1218  0.4650
30466SOL     OW93776   9.213   7.547   3.640  0.1826  0.1501  0.1769
30466SOL    HW193777   9.149   7.477   3.626  0.3557  0.6300 -4.2808
30466SOL    HW293778   9.294   7.500   3.660 -0.2346 -0.8270 -0.3385
30467SOL     OW93779   9.700   5.208  10.039 -0.0782 -0.2484  0.4619
30467SOL    HW193780   9.627   5.249  10.084 -0.9685 -2.0016  0.6888
30467SOL    HW293781   9.761   5.184  10.109  0.3616  0.4848  0.3447
30468SOL     OW93782   3.475   8.413   1.253 -0.6325  0.2104 -0.0742
30468SOL    HW193783   3.381   8.402   1.238 -0.1578 -2.9081 -1.7582
30468SOL    HW293784   3.507   8.455   1.174  0.0792 -4.6286 -2.7674
30469SOL     OW93785   5.309   8.099   5.831 -0.1518 -0.5352 -0.1021
30469SOL    HW193786   5.404   8.107   5.843 -0.0907  0.3282 -1.0081
30469SOL    HW293787   5.272   8.127   5.915  0.4094 -1.8846  0.6077
30470SOL     OW93788   2.575  10.663   3.744  0.1616  0.1189  0.0591
30470SOL    HW193789   2.658  10.657   3.791  0.8131  2.9419 -0.5557
30470SOL    HW293790   2.538  10.575   3.749  2.5356 -0.8831  1.5157
30471SOL     OW93791   7.620  10.138   4.792 -0.2656 -0.1513  0.2709
30471SOL    HW193792   7.539  10.189   4.794  0.7248  1.8305 -2.9470
30471SOL    HW293793   7.683  10.191   4.840 -0.1222 -0.1608  0.0943
30472SOL     OW93794   1.718   8.745   4.458 -0.1342  0.2061  0.1103
30472SOL    HW193795   1.696   8.811   4.393  2.2747 -0.4866 -1.5472
30472SOL    HW293796   1.757   8.795   4.530  0.7958  0.7283 -0.7185
30473SOL     OW93797   5.595   1.272   3.760  0.4110 -0.1085  0.1315
30473SOL    HW193798   5.582   1.317   3.843 -0.7772  0.0288 -0.1184
30473SOL    HW293799   5.513   1.283   3.713  0.9888 -0.3668 -0.9849
30474SOL     OW93800   7.966   1.791  10.047  0.1233 -0.5765  0.3373
30474SOL    HW193801   7.878   1.821  10.026  0.1810  0.3631  1.3985
30474SOL    HW293802   7.955   1.699  10.071 -0.3934 -0.7753 -0.6043
30475SOL     OW93803   0.116   0.828   1.395  0.0796 -0.8879  0.2640
30475SOL    HW193804   0.140   0.791   1.310 -0.4219  1.0904 -0.7852
30475SOL    HW293805   0.195   0.874   1.425 -0.8398  1.7574 -1.0570
30476SOL     OW93806   2.979   5.730   0.715  0.1391 -0.3062 -0.1227
30476SOL    HW193807   2.954   5.637   0.721  0.2770 -0.3252  0.1809
30476SOL    HW293808   3.062   5.729   0.668  1.2560 -0.5356  1.7525
30477SOL     OW93809   6.460   4.182   0.882 -0.0854  0.2281 -0.2012
30477SOL    HW193810   6.364   4.179   0.890 -0.3065  4.1201  0.7539
30477SOL    HW293811   6.477   4.168   0.789 -1.3573 -2.0852 -0.1762
30478SOL     OW93812   1.995  10.035   8.973 -0.0553 -0.4103  0.6012
30478SOL    HW193813   1.919  10.055   9.028  0.3034 -1.4183  1.5123
30478SOL    HW293814   1.994   9.940   8.964  0.1915 -0.3105 -0.7420
30479SOL     OW93815   2.911   1.201   9.660  0.4899  0.1680 -0.7235
30479SOL    HW193816   2.892   1.287   9.622  1.2449  1.0529  0.8150
30479SOL    HW293817   2.846   1.191   9.730  0.4648 -0.4836 -0.8312
30480SOL     OW93818   5.099   7.087   7.182  0.6873 -0.2323 -0.1038
30480SOL    HW193819   5.107   6.997   7.151 -0.6731 -1.1094  1.9206
30480SOL    HW293820   5.055   7.133   7.111  1.4093 -1.1180 -1.1730
30481SOL     OW93821  10.524   0.082   0.911  0.3447 -0.2045  0.0486
30481SOL    HW193822  10.617   0.086   0.886  0.4304 -0.5459  0.3128
30481SOL    HW293823  10.502   0.172   0.934  0.8608 -0.2743  0.8725
30482SOL     OW93824   8.989   5.806   0.680 -0.5537  0.6442 -0.0932
30482SOL    HW193825   8.956   5.850   0.758 -0.0943 -0.4285  0.7240
30482SOL    HW293826   8.952   5.718   0.685  1.2245 -0.1258  0.0774
30483SOL     OW93827   3.197   4.458   5.379 -0.2295  0.0085  0.2401
30483SOL    HW193828   3.187   4.370   5.417  0.4371 -0.7096 -1.1772
30483SOL    HW293829   3.287   4.460   5.347 -0.2400  1.2227  0.2599
30484SOL     OW93830   1.623   3.053   7.876  0.3392  0.0791 -0.2848
30484SOL    HW193831   1.669   2.988   7.824 -0.3303 -0.8664  0.2562
30484SOL    HW293832   1.555   3.088   7.818 -0.3402 -0.8980 -0.1146
30485SOL     OW93833  10.137   0.407   2.896  0.2226  0.0378  0.5512
30485SOL    HW193834  10.131   0.422   2.801  3.5874 -2.1474 -0.1909
30485SOL    HW293835  10.054   0.439   2.931 -1.6901 -0.1694 -3.2771
30486SOL     OW93836   9.962   5.864   4.409 -0.2648 -0.2090  0.1716
30486SOL    HW193837  10.001   5.867   4.322  1.4277 -1.8261  0.8039
30486SOL    HW293838  10.012   5.927   4.460 -0.4860 -0.0940  0.2455
30487SOL     OW93839  10.017   1.852   8.688 -0.2051  0.3228  1.1387
30487SOL    HW193840   9.955   1.914   8.726 -2.4044 -0.9847 -0.1146
30487SOL    HW293841  10.039   1.792   8.760  1.4252  2.0492  2.1784
30488SOL     OW93842   1.866   3.315   3.679 -0.0152  0.3757 -0.2316
30488SOL    HW193843   1.822   3.399   3.694  0.3812  1.0501 -2.5152
30488SOL    HW293844   1.836   3.287   3.593  1.6178 -0.6963 -0.4941
30489SOL     OW93845   1.127   9.780   5.739  0.0138  0.0323 -0.0424
30489SOL    HW193846   1.176   9.857   5.710 -1.8483  1.2472 -0.1344
30489SOL    HW293847   1.036   9.800   5.717 -0.9158 -0.9115  2.5828
30490SOL     OW93848   5.491   4.198   5.059 -0.4902  0.2973 -0.2452
30490SOL    HW193849   5.434   4.174   5.132  0.4101  1.7512  1.0056
30490SOL    HW293850   5.436   4.251   5.001 -0.7256  0.7093  0.3479
30491SOL     OW93851   8.592   4.785   6.216 -0.0802  0.3363  0.2634
30491SOL    HW193852   8.620   4.872   6.187 -2.2024  0.4620 -1.6833
30491SOL    HW293853   8.547   4.801   6.299 -0.3928  1.0999 -0.0416
30492SOL     OW93854   7.263   3.222   6.623  0.2086 -0.4662  0.1740
30492SOL    HW193855   7.176   3.243   6.589  0.2173 -1.5457 -0.5655
30492SOL    HW293856   7.261   3.127   6.637  0.9271 -0.3558  1.1623
30493SOL     OW93857   5.572  10.538   0.198  0.5339 -0.3258  0.1686
30493SOL    HW193858   5.646  10.593   0.171  0.6576 -0.5470  0.0485
30493SOL    HW293859   5.527  10.589   0.265  0.9966 -0.3285  0.4879
30494SOL     OW93860   0.183  10.192  10.781 -0.2942 -0.2614  0.5324
30494SOL    HW193861   0.161  10.282  10.804  0.2617 -0.3792  1.5431
30494SOL    HW293862   0.108  10.141  10.810  0.1840 -0.3457  1.6475
30495SOL     OW93863   2.666   6.456   9.024  0.3266 -0.1047  0.2496
30495SOL    HW193864   2.712   6.379   8.989 -0.4324  0.2186 -1.5916
30495SOL    HW293865   2.609   6.421   9.092 -0.4927 -1.3287 -1.0068
30496SOL     OW93866   6.716   8.622   3.437 -0.0252  0.3173 -0.0423
30496SOL    HW193867   6.799   8.617   3.389 -0.3174 -0.3205 -0.4967
30496SOL    HW293868   6.710   8.540   3.484 -1.7946 -1.0346 -2.3850
30497SOL     OW93869   4.153   5.870  10.052  0.1870  0.9385  0.5305
30497SOL    HW193870   4.126   5.822   9.974 -0.6304  1.5807  0.3900
30497SOL    HW293871   4.245   5.893  10.036  0.4112 -0.0693  0.3549
30498SOL     OW93872   5.225   7.859   9.189 -0.4061 -0.9195  0.7617
30498SOL    HW193873   5.304   7.910   9.171 -1.3275 -0.6067 -3.3944
30498SOL    HW293874   5.258   7.773   9.214  1.2031 -0.1766  1.3697
30499SOL     OW93875   7.055   6.876   8.236 -0.0721 -0.3126 -0.4255
30499SOL    HW193876   7.148   6.898   8.244 -0.3969  0.7790  0.6863
30499SOL    HW293877   7.021   6.936   8.169 -0.2896  0.4064  0.3114
30500SOL     OW93878   0.512   7.900   5.324  0.3069 -0.1476 -0.1126
30500SOL    HW193879   0.450   7.855   5.266 -0.3016 -1.3875  1.4563
30500SOL    HW293880   0.457   7.937   5.393  1.1202  0.4996  0.1999
30501SOL     OW93881   5.030   7.482   6.602 -0.1300  0.2865 -0.0805
30501SOL    HW193882   5.000   7.423   6.672  0.2770  2.7245  2.3228
30501SOL    HW293883   5.125   7.485   6.613 -0.0938  0.9112 -0.5263
30502SOL     OW93884   6.937   8.881   6.637 -0.1492  0.0923  0.4604
30502SOL    HW193885   6.880   8.851   6.708  0.0164 -1.3992 -0.0004
30502SOL    HW293886   6.965   8.969   6.664 -1.1374  0.0792  1.5977
30503SOL     OW93887   5.465   3.451   4.338  0.2009  0.5627  0.0308
30503SOL    HW193888   5.389   3.508   4.345 -0.1116  0.1366  0.1712
30503SOL    HW293889   5.505   3.454   4.425  0.9522  1.6048 -0.3309
30504SOL     OW93890   0.282   2.347   0.648  0.0076 -0.2135  0.3836
30504SOL    HW193891   0.320   2.327   0.563 -0.4489  0.4138  0.0221
30504SOL    HW293892   0.337   2.418   0.683  0.0173 -0.2682  0.4802
30505SOL     OW93893   9.363   1.185   8.360 -0.1816  0.2966 -0.1464
30505SOL    HW193894   9.296   1.218   8.300 -0.6244  1.2726  0.8343
30505SOL    HW293895   9.385   1.098   8.327 -1.3252  0.2994 -0.9736
30506SOL     OW93896   5.622   8.387  10.408  0.4082 -0.1397 -0.7754
30506SOL    HW193897   5.556   8.368  10.341 -1.1484  1.5272  0.1853
30506SOL    HW293898   5.598   8.332  10.482 -0.8716  1.4798  0.0917
30507SOL     OW93899  10.420   8.660   6.592 -1.0385 -0.5314 -0.4705
30507SOL    HW193900  10.418   8.622   6.680  0.4340  0.5146  0.0468
30507SOL    HW293901  10.513   8.669   6.571 -1.3463 -0.9786 -2.2597
30508SOL     OW93902   0.696   6.868   8.604 -0.2945  0.0877 -0.6462
30508SOL    HW193903   0.612   6.876   8.560 -0.1309 -0.6400 -1.1069
30508SOL    HW293904   0.688   6.925   8.681 -1.2437 -0.0555 -0.6248
30509SOL     OW93905   3.426   2.108   1.258 -0.5749  0.0695 -0.0937
30509SOL    HW193906   3.514   2.086   1.289 -1.0821  0.1686  1.4552
30509SOL    HW293907   3.427   2.203   1.247 -0.4107  0.0394 -0.3586
30510SOL     OW93908   6.977   0.231   4.374  0.4442 -0.1884 -0.1213
30510SOL    HW193909   7.022   0.312   4.398 -2.2185  2.0407 -2.0624
30510SOL    HW293910   7.048   0.171   4.350  2.6126  0.9445  2.7670
30511SOL     OW93911   1.671   3.553   9.375  0.2911  0.1513 -0.7537
30511SOL    HW193912   1.577   3.559   9.362  0.2626  2.6318 -0.0398
30511SOL    HW293913   1.701   3.491   9.308 -1.7898 -0.5300 -1.1270
30512SOL     OW93914   6.620   0.305   0.060  0.0032 -0.4638  0.3297
30512SOL    HW193915   6.590   0.381   0.010 -0.3565 -1.0590 -0.3861
30512SOL    HW293916   6.701   0.278   0.017 -0.0690 -0.7105  0.3434
30513SOL     OW93917   3.042   6.962   9.793  0.2142  0.0534 -0.3693
30513SOL    HW193918   3.022   6.919   9.876 -1.7205 -2.0027 -1.8043
30513SOL    HW293919   3.130   6.932   9.771  1.0938  1.2632  1.2428
30514SOL     OW93920   2.430   0.096   9.618 -0.6993 -0.0153  0.2530
30514SOL    HW193921   2.382   0.068   9.696 -1.6493 -0.4660 -0.4758
30514SOL    HW293922   2.514   0.051   9.624 -0.6487  0.1754  1.1513
30515SOL     OW93923   2.184  10.412   7.856  0.3224  0.1126  0.2779
30515SOL    HW193924   2.103  10.418   7.805  1.4018 -1.1110 -1.7006
30515SOL    HW293925   2.178  10.328   7.901  1.0422 -0.6321 -0.9625
30516SOL     OW93926  10.461  10.072  10.088  0.0684 -0.5807 -0.1587
30516SOL    HW193927  10.425  10.005  10.030  0.2777 -0.7653 -0.0789
30516SOL    HW293928  10.555  10.072  10.070  0.1409 -0.6614  0.1983
30517SOL     OW93929   7.857   7.646   4.089  0.0829 -0.1967 -0.1903
30517SOL    HW193930   7.859   7.604   4.175  2.0631 -1.2469 -0.6762
30517SOL    HW293931   7.949   7.652   4.063 -0.4882 -1.4022 -2.8931
30518SOL     OW93932   2.684   7.473   5.237  0.8751 -0.3499  0.3958
30518SOL    HW193933   2.664   7.458   5.144 -1.4078  0.6762  0.6654
30518SOL    HW293934   2.611   7.433   5.284  2.2906 -1.3730  1.8410
30519SOL     OW93935   4.056   1.897   5.814 -0.1050 -0.2808 -0.2823
30519SOL    HW193936   4.110   1.974   5.795  3.1178 -2.1367  0.5392
30519SOL    HW293937   4.051   1.851   5.731  1.2148 -0.9949  0.0061
30520SOL     OW93938   3.122   2.462   6.008 -0.5253 -0.3218  0.2144
30520SOL    HW193939   3.161   2.489   6.091  0.4859 -0.0980 -0.3040
30520SOL    HW293940   3.114   2.367   6.015  0.1971 -0.3841  0.3225
30521SOL     OW93941   3.056   9.085  10.464  0.2541  0.6384 -0.3117
30521SOL    HW193942   2.962   9.097  10.463  0.3240  1.1809 -0.5160
30521SOL    HW293943   3.073   9.029  10.540 -0.2314  0.5160 -0.2965
30522SOL     OW93944   5.857   2.408   4.051 -0.0193 -0.5159  0.5285
30522SOL    HW193945   5.947   2.382   4.068 -0.0239 -0.9762 -0.1177
30522SOL    HW293946   5.815   2.405   4.137  0.0315 -2.4893  0.5458
30523SOL     OW93947   4.140   4.486   6.851  0.0625 -0.2136 -0.0434
30523SOL    HW193948   4.226   4.447   6.870  0.2111  0.7578  1.4756
30523SOL    HW293949   4.144   4.573   6.892 -1.8452 -0.3681  0.5465
30524SOL     OW93950   5.011   9.408   4.488  0.5939 -0.3709  0.5619
30524SOL    HW193951   4.932   9.354   4.481  0.2519  0.0489  1.0743
30524SOL    HW293952   5.079   9.357   4.445 -0.4656  0.3489 -2.1804
30525SOL     OW93953   4.534  10.268   6.151 -0.5411  0.1439  0.4658
30525SOL    HW193954   4.497  10.183   6.171 -0.0465 -0.2231 -0.1468
30525SOL    HW293955   4.459  10.327   6.146 -1.0123 -0.5012 -0.3112
30526SOL     OW93956   8.750   7.784   9.969  0.7984 -0.3021  0.0118
30526SOL    HW193957   8.820   7.802  10.031 -0.1600  0.5902  0.8661
30526SOL    HW293958   8.691   7.859   9.976 -0.4075 -1.1722 -0.4496
30527SOL     OW93959   4.515   6.084   5.173 -0.3703 -0.7050 -0.3633
30527SOL    HW193960   4.423   6.057   5.174 -0.4684 -0.3919 -0.5766
30527SOL    HW293961   4.563   6.009   5.207 -0.2511 -2.5600 -4.1206
30528SOL     OW93962   1.983   4.640   5.669  0.4580 -0.0169  0.3568
30528SOL    HW193963   1.935   4.692   5.734 -0.0506 -0.0411  0.0075
30528SOL    HW293964   1.983   4.696   5.591  1.6233  0.2853  0.5647
30529SOL     OW93965   2.262   9.052   9.369 -0.5760  0.8575 -0.6353
30529SOL    HW193966   2.312   9.123   9.409 -1.3361  0.3080  1.4075
30529SOL    HW293967   2.317   9.021   9.297  1.1884  1.4579  0.3980
30530SOL     OW93968   1.600   9.649   6.197  0.3355 -0.0060  0.1381
30530SOL    HW193969   1.670   9.620   6.139 -0.0611  0.9191 -0.8219
30530SOL    HW293970   1.644   9.697   6.267  0.6790  0.3756 -0.3412
30531SOL     OW93971   4.893   6.794   5.728  0.1699  0.2783  0.2711
30531SOL    HW193972   4.983   6.775   5.700  0.7214  0.0477  2.0365
30531SOL    HW293973   4.873   6.879   5.690  0.4866 -0.4051 -1.5330
30532SOL     OW93974   8.281   3.411   3.667 -0.2358 -0.2555 -0.3225
30532SOL    HW193975   8.299   3.388   3.576 -2.4333  1.6081 -1.3459
30532SOL    HW293976   8.216   3.347   3.695 -0.3513 -0.1865 -0.4320
30533SOL     OW93977  10.713   4.180   0.353 -0.2408  0.7713  0.1625
30533SOL    HW193978  10.807   4.198   0.357 -0.2786  1.0810 -0.3833
30533SOL    HW293979  10.707   4.091   0.317 -0.1629  0.8041  0.0697
30534SOL     OW93980   0.718   7.748   4.119 -0.2961  0.3611 -0.6647
30534SOL    HW193981   0.790   7.795   4.161 -0.3525 -1.0306  1.1182
30534SOL    HW293982   0.757   7.710   4.040  1.4924 -1.7463  1.0768
30535SOL     OW93983   0.644  10.201   0.980 -0.5112 -0.0921  0.8959
30535SOL    HW193984   0.693  10.148   0.917 -1.5686 -0.8917  0.7220
30535SOL    HW293985   0.705  10.269   1.006 -0.1763  0.5137 -1.3029
30536SOL     OW93986   9.692   4.178   8.704  0.7625 -1.1151  0.0241
30536SOL    HW193987   9.659   4.262   8.736  0.7764 -0.2370 -2.0935
30536SOL    HW293988   9.634   4.155   8.632  2.4491 -1.4414 -1.3152
30537SOL     OW93989   5.793   4.870   8.877 -0.1251  0.1056  0.6044
30537SOL    HW193990   5.860   4.855   8.944 -0.7282  0.4601  1.2975
30537SOL    HW293991   5.712   4.883   8.926 -0.5952  0.2951 -0.2019
30538SOL     OW93992   1.592   5.174   0.108 -0.5802  0.2348  0.7070
30538SOL    HW193993   1.634   5.179   0.194 -0.7637  0.3573  0.7915
30538SOL    HW293994   1.562   5.084   0.100 -1.4528  0.4613  1.2038
30539SOL     OW93995   2.079   1.126   6.857  0.1742  0.0042  0.2665
30539SOL    HW193996   2.086   1.212   6.898 -0.3716 -0.1283  0.6435
30539SOL    HW293997   2.158   1.119   6.803  0.7933  0.2719  1.1144
30540SOL     OW93998   5.075   8.726   7.270  0.0297  0.1803  0.1798
30540SOL    HW193999   5.168   8.745   7.282  0.2234 -0.7898  0.3477
30540SOL    HW294000   5.073   8.641   7.226 -0.7406  1.6796 -2.9186
30541SOL     OW94001   3.076   7.648   2.795 -0.4679 -0.5235  0.0854
30541SOL    HW194002   3.098   7.697   2.875  0.0645 -0.3083 -0.1880
30541SOL    HW294003   3.081   7.556   2.821  1.9568 -0.5466 -0.2265
30542SOL     OW94004   6.087   8.457  10.016 -0.1771  0.4778 -0.0901
30542SOL    HW194005   6.144   8.517   9.968 -0.2010  0.1379 -0.5482
30542SOL    HW294006   6.083   8.494  10.104  1.0610  0.2923  0.0582
30543SOL     OW94007   3.241   1.814  10.592  0.7801 -0.3887 -0.3437
30543SOL    HW194008   3.272   1.900  10.564  1.1523  0.2060  1.7488
30543SOL    HW294009   3.224   1.767  10.510  1.0726  1.4767 -1.5307
30544SOL     OW94010   6.233   7.350   8.247 -0.0804 -0.3196 -0.0107
30544SOL    HW194011   6.284   7.286   8.196 -0.9131  0.2219 -1.5755
30544SOL    HW294012   6.243   7.432   8.199 -1.9720 -0.0853 -0.0939
30545SOL     OW94013   3.623   0.786   1.631 -0.1874 -0.0837  0.0982
30545SOL    HW194014   3.568   0.804   1.554  2.0614  0.3939 -1.4978
30545SOL    HW294015   3.566   0.806   1.706 -2.2218  0.1930 -1.4296
30546SOL     OW94016   1.123   9.931   2.214  0.5008 -0.0423  0.0787
30546SOL    HW194017   1.114   9.969   2.302 -1.1280 -0.7713  0.2635
30546SOL    HW294018   1.138   9.838   2.230  1.6913  0.0614 -0.4070
30547SOL     OW94019   3.687   6.949   3.263 -0.1883 -0.0020 -0.3520
30547SOL    HW194020   3.712   6.930   3.354 -2.0075 -0.4255  0.1043
30547SOL    HW294021   3.605   6.902   3.251 -1.3478  2.1638 -1.3880
30548SOL     OW94022   9.239   8.633   0.872 -0.1605  0.0350 -0.4811
30548SOL    HW194023   9.166   8.575   0.849  2.0684 -2.6416 -1.2998
30548SOL    HW294024   9.202   8.721   0.864 -3.6706 -1.1578  0.5653
30549SOL     OW94025   8.536   0.144   3.545 -0.2797 -0.2162 -0.4051
30549SOL    HW194026   8.597   0.089   3.594 -2.0743 -1.6733  0.2928
30549SOL    HW294027   8.497   0.201   3.611 -1.0639 -0.6291 -0.5008
30550SOL     OW94028   4.542   4.712   8.157 -0.4328  0.4166 -0.4491
30550SOL    HW194029   4.589   4.633   8.129  0.8040  0.8507  0.3251
30550SOL    HW294030   4.558   4.776   8.088 -0.9313  0.1912 -0.7809
30551SOL     OW94031   3.888   8.167   5.699  0.5321 -0.5878  0.3054
30551SOL    HW194032   3.802   8.141   5.667 -0.8057  2.0231  1.4493
30551SOL    HW294033   3.879   8.168   5.794  1.3413  1.0342  0.4074
30552SOL     OW94034   8.133   8.337   9.882 -0.2857  0.2206 -0.1140
30552SOL    HW194035   8.185   8.359   9.960  0.9920 -0.8549 -0.6264
30552SOL    HW294036   8.043   8.356   9.908  0.1652  0.4232  1.4371
30553SOL     OW94037   4.429   6.339   6.510 -0.4115  0.7317  0.0738
30553SOL    HW194038   4.467   6.423   6.536  0.4253  0.1810  0.6825
30553SOL    HW294039   4.456   6.327   6.419 -0.6833  1.2056 -0.0676
30554SOL     OW94040   5.973   2.947   9.044 -0.0031  0.4678  0.3994
30554SOL    HW194041   5.924   2.894   8.982 -1.6953  0.8636  1.3421
30554SOL    HW294042   5.979   3.033   9.004  0.6517  0.2065 -0.0757
30555SOL     OW94043   0.525   6.399   5.722 -0.2139  0.0562 -0.1861
30555SOL    HW194044   0.549   6.452   5.798  0.3272  0.4540 -0.6248
30555SOL    HW294045   0.605   6.396   5.669 -0.4221 -0.6936 -0.4634
30556SOL     OW94046   4.089   8.758   5.930  0.4432 -0.2187 -0.4913
30556SOL    HW194047   4.059   8.821   5.995  1.1841  0.6632 -0.9973
30556SOL    HW294048   4.148   8.807   5.874  0.3289 -1.1358 -1.4405
30557SOL     OW94049   7.993   2.507   4.790 -0.3522 -0.3847 -0.5551
30557SOL    HW194050   8.047   2.550   4.723 -0.4049 -0.4352 -0.6297
30557SOL    HW294051   7.911   2.557   4.791  0.5412  1.1863  1.1948
30558SOL     OW94052  10.503   4.100   2.534  0.6015  0.5334  0.0950
30558SOL    HW194053  10.536   4.140   2.614 -0.2851  1.8666 -0.1685
30558SOL    HW294054  10.408   4.098   2.546  0.5899 -1.1339 -0.0845
30559SOL     OW94055   5.040   9.446   3.240  0.1495  0.4517  0.7568
30559SOL    HW194056   4.949   9.434   3.213  0.4109 -0.0274  0.0777
30559SOL    HW294057   5.044   9.537   3.268 -0.1961  0.9090 -0.5975
30560SOL     OW94058   7.964   8.576   9.647 -0.5334  0.5236 -0.4351
30560SOL    HW194059   7.943   8.582   9.554 -0.1053  2.3961 -0.4516
30560SOL    HW294060   7.887   8.537   9.687 -0.7624 -0.2172 -1.5624
30561SOL     OW94061   0.461   2.982   4.936 -0.4994  0.6747 -0.6228
30561SOL    HW194062   0.446   2.986   4.842  0.5426  2.6021 -0.7632
30561SOL    HW294063   0.556   2.970   4.944 -0.5118  1.0426  0.1601
30562SOL     OW94064   3.570  10.049   7.681 -0.2574  0.1157  0.3172
30562SOL    HW194065   3.567  10.055   7.585 -2.4887  0.9293  0.3676
30562SOL    HW294066   3.607  10.133   7.708 -0.3137  0.1833  0.1891
30563SOL     OW94067   9.577   0.775   6.175 -0.6011  0.1125 -0.6213
30563SOL    HW194068   9.527   0.694   6.167 -0.7146  0.0808  0.3335
30563SOL    HW294069   9.551   0.827   6.098 -1.3890 -0.2851 -0.6316
30564SOL     OW94070   1.968   7.799   1.326  0.1649  0.0372  0.2248
30564SOL    HW194071   1.996   7.728   1.269  0.5089  0.0447  0.3789
30564SOL    HW294072   1.963   7.760   1.413  0.8684  0.3211  0.4009
30565SOL     OW94073  10.403   7.968   7.441 -0.1441 -0.1712  0.0726
30565SOL    HW194074  10.384   7.902   7.508 -0.6555 -2.0251 -1.7733
30565SOL    HW294075  10.317   7.989   7.404  0.1222  0.8813  0.0181
30566SOL     OW94076   4.487   0.672   5.127  0.3404  0.1333 -0.1698
30566SOL    HW194077   4.483   0.738   5.197  0.7379  0.6195 -0.5943
30566SOL    HW294078   4.479   0.588   5.173  0.0256  0.4659  0.4003
30567SOL     OW94079   9.414   8.119   5.694 -0.0747  0.0989 -0.1748
30567SOL    HW194080   9.359   8.102   5.617  0.4540  0.7840 -0.7228
30567SOL    HW294081   9.471   8.191   5.667 -0.2957  0.7844  1.0629
30568SOL     OW94082   3.905  10.066   0.002  0.3733 -0.1551 -0.0350
30568SOL    HW194083   3.996  10.080  -0.022 -0.2241  0.2275 -2.3185
30568SOL    HW294084   3.897  10.100   0.090  2.4897 -0.4661  0.3171
30569SOL     OW94085   3.977   5.906   4.381  0.7668 -0.7894  0.3828
30569SOL    HW194086   3.997   5.876   4.292 -0.8406 -0.2953 -0.1993
30569SOL    HW294087   4.024   5.847   4.439  1.3711 -1.4917 -0.8000
30570SOL     OW94088   7.042   2.825   7.978  0.2363 -0.0944 -0.1352
30570SOL    HW194089   6.973   2.793   7.921  0.4397  0.3330 -0.6336
30570SOL    HW294090   6.997   2.879   8.043  0.0709 -0.0442 -0.2917
30571SOL     OW94091   7.903   1.011   4.560  0.1564  0.0214  0.1984
30571SOL    HW194092   7.944   1.031   4.644  1.1325 -1.7143  0.1812
30571SOL    HW294093   7.866   0.924   4.572 -0.0375 -0.0822 -1.0629
30572SOL     OW94094  10.211   8.393   1.102  0.0086 -0.4391 -0.7786
30572SOL    HW194095  10.276   8.392   1.032 -0.6571  0.9007 -1.4780
30572SOL    HW294096  10.189   8.301   1.117  2.7207 -1.0172  0.1738
30573SOL     OW94097   0.512   6.737   4.771  0.4270 -0.0119 -0.5925
30573SOL    HW194098   0.570   6.754   4.845 -0.2350  0.7193 -0.2280
30573SOL    HW294099   0.571   6.734   4.695  0.9056  1.2624 -0.3042
30574SOL     OW94100   0.574   5.520   5.226  0.4499 -0.0718 -0.4910
30574SOL    HW194101   0.495   5.575   5.222 -0.4668 -1.4152 -1.5347
30574SOL    HW294102   0.604   5.529   5.316 -2.3414 -1.4602  0.6945
30575SOL     OW94103   2.723   3.654   6.256 -0.8649  0.0520  0.1460
30575SOL    HW194104   2.738   3.739   6.213 -0.0501 -0.1969 -0.0907
30575SOL    HW294105   2.809   3.631   6.291 -1.3167 -0.1930  1.1033
30576SOL     OW94106  10.150   2.701   9.768 -0.3319  0.2056  0.4446
30576SOL    HW194107  10.130   2.636   9.701 -2.0377  0.2148  0.8934
30576SOL    HW294108  10.129   2.785   9.727  0.7594  0.4074  0.2620
30577SOL     OW94109   8.582   5.294   1.511 -0.7479  0.2156 -0.1881
30577SOL    HW194110   8.562   5.224   1.573  0.7015 -0.1133 -0.0490
30577SOL    HW294111   8.677   5.293   1.504 -0.4185  3.6932  1.5901
30578SOL     OW94112   1.902   3.589   8.547 -0.7174  0.2647 -0.2815
30578SOL    HW194113   1.855   3.556   8.471 -1.0160 -0.7451  0.3187
30578SOL    HW294114   1.855   3.668   8.573 -0.1622  1.0590 -1.5781
30579SOL     OW94115   2.728   0.609   2.544  0.3995  0.0539 -0.1517
30579SOL    HW194116   2.779   0.546   2.595  0.7414  0.3641 -0.1064
30579SOL    HW294117   2.701   0.560   2.466  0.8522 -0.0856 -0.2235
30580SOL     OW94118   8.076   3.578   9.797 -0.2625 -0.6160 -0.2483
30580SOL    HW194119   8.094   3.528   9.877  0.5563  0.3889  0.2185
30580SOL    HW294120   8.145   3.644   9.795 -1.4829  0.6723 -0.6934
30581SOL     OW94121   8.373  10.617   5.669  0.1920 -0.0339 -0.1369
30581SOL    HW194122   8.465  10.640   5.680  0.1591  0.6898 -1.2701
30581SOL    HW294123   8.326  10.684   5.718  0.2884 -2.0599  3.0285
30582SOL     OW94124   0.786   3.242   3.803  0.0909  0.6876  0.3600
30582SOL    HW194125   0.793   3.148   3.820 -0.5995  0.9762  2.5351
30582SOL    HW294126   0.696   3.253   3.770  0.1336  0.5936  0.2119
30583SOL     OW94127   6.360   8.343   5.835  0.5796 -0.3870 -0.1535
30583SOL    HW194128   6.288   8.402   5.852  1.6753  1.3089 -1.1010
30583SOL    HW294129   6.359   8.329   5.740  0.4166 -1.8087  0.0368
30584SOL     OW94130   0.304   7.808  10.000  0.2235 -0.3538  0.3529
30584SOL    HW194131   0.326   7.723  10.038 -1.0805 -0.4996  0.8360
30584SOL    HW294132   0.355   7.812   9.918 -0.2742 -1.9283 -0.0654
30585SOL     OW94133   9.638   2.392   8.205 -0.4064  0.4636  0.0552
30585SOL    HW194134   9.705   2.413   8.270 -0.9225 -0.5120  0.9460
30585SOL    HW294135   9.555   2.410   8.250 -0.7856  2.8171 -1.4305
30586SOL     OW94136   0.787   0.249   9.723  0.3230  0.1014 -0.0643
30586SOL    HW194137   0.783   0.302   9.803 -0.0526 -0.5995  0.3920
30586SOL    HW294138   0.717   0.184   9.733  2.2778 -2.0594  0.5592
30587SOL     OW94139   8.622   8.826   0.231  0.2910 -0.2205  0.3794
30587SOL    HW194140   8.670   8.889   0.284 -1.2298  1.2848  0.0430
30587SOL    HW294141   8.533   8.827   0.267  0.0943 -1.8003  0.0212
30588SOL     OW94142   5.217   1.803   8.138  0.0523  0.0234  0.5224
30588SOL    HW194143   5.246   1.876   8.083  0.1192  0.7941  1.5416
30588SOL    HW294144   5.299   1.764   8.170  0.0432  1.1183  2.0084
30589SOL     OW94145   8.232   9.874   2.897  0.6029 -0.2157 -0.1514
30589SOL    HW194146   8.196   9.915   2.818  0.4775  1.2484  0.6293
30589SOL    HW294147   8.160   9.873   2.959  0.7520 -1.1854  0.0261
30590SOL     OW94148   9.840   0.617  10.653  0.1128 -0.4278  0.1140
30590SOL    HW194149   9.774   0.552  10.678 -0.6132  0.0041 -0.6022
30590SOL    HW294150   9.790   0.684  10.605  1.1616 -0.3911 -0.9809
30591SOL     OW94151   3.693   7.462   2.967  0.9054 -0.2976  0.2675
30591SOL    HW194152   3.647   7.408   3.031  1.7103 -1.7965 -0.3779
30591SOL    HW294153   3.631   7.471   2.894 -0.3278  2.0756  1.4829
30592SOL     OW94154   7.261   9.472   8.359  0.5168  0.0668  0.1879
30592SOL    HW194155   7.271   9.549   8.414  2.2020 -0.0479  0.1036
30592SOL    HW294156   7.331   9.480   8.293  0.4580 -1.3017 -0.0759
30593SOL     OW94157   5.815   1.028   5.051  0.0882  0.0852  0.4033
30593SOL    HW194158   5.841   1.006   4.962  0.1633  1.5007  0.0511
30593SOL    HW294159   5.738   0.974   5.068  0.5094 -0.7359 -0.2344
30594SOL     OW94160   4.376   5.070   0.640 -0.5184  0.1297  0.1391
30594SOL    HW194161   4.330   5.033   0.715 -1.8167  0.7527 -0.3010
30594SOL    HW294162   4.382   4.998   0.577 -1.1305  0.0903  0.1148
30595SOL     OW94163   5.291   3.285   5.119  0.2421  0.0930 -0.0466
30595SOL    HW194164   5.233   3.355   5.150 -1.1814 -1.2209  0.3975
30595SOL    HW294165   5.310   3.308   5.028 -2.4575 -0.3029 -0.7978
30596SOL     OW94166   6.959   1.959   9.058  0.1617  0.3016  0.3918
30596SOL    HW194167   7.009   1.916   9.128 -0.4366  0.3439  0.8619
30596SOL    HW294168   7.024   1.987   8.995  0.6615 -0.3081  0.6292
30597SOL     OW94169   8.847   9.417   1.302  0.2634  0.3638  0.0770
30597SOL    HW194170   8.847   9.506   1.337  0.4932 -0.0029  1.0338
30597SOL    HW294171   8.881   9.363   1.373  1.0941 -0.3609 -0.8423
30598SOL     OW94172  10.683   3.237   1.552 -0.3799 -0.2965 -0.2681
30598SOL    HW194173  10.666   3.284   1.470 -0.9375 -0.6526 -0.3603
30598SOL    HW294174  10.650   3.149   1.536  1.5184 -1.0211 -0.4348
30599SOL     OW94175   3.442   3.446   4.145 -0.3047  0.3269  0.3626
30599SOL    HW194176   3.376   3.476   4.207  0.0137  1.4418  0.1913
30599SOL    HW294177   3.496   3.524   4.128  1.8270 -0.8151  1.4591
30600SOL     OW94178   9.760   9.859   2.274 -0.6249 -0.0323 -0.2867
30600SOL    HW194179   9.696   9.839   2.206 -0.4538  1.1514 -0.8155
30600SOL    HW294180   9.773   9.776   2.319 -2.8313 -0.2160  0.1052
30601SOL     OW94181   5.760   3.057   6.915  0.1804  0.4198  0.1614
30601SOL    HW194182   5.800   3.049   7.002 -0.8408 -1.4103  0.5165
30601SOL    HW294183   5.780   2.974   6.872  0.2253  1.1001 -1.1851
30602SOL     OW94184  10.492   8.573   4.767 -0.4371 -0.9179 -0.5107
30602SOL    HW194185  10.584   8.557   4.746 -1.1155 -3.0741 -2.1800
30602SOL    HW294186  10.477   8.664   4.741  1.2383 -0.4540  0.0051
30603SOL     OW94187   4.585   3.549   9.303  0.2134  0.2866  0.1057
30603SOL    HW194188   4.657   3.508   9.352 -0.9111 -1.1453  0.6464
30603SOL    HW294189   4.609   3.538   9.211  1.7628  1.9075  0.2716
30604SOL     OW94190   9.559   8.958   6.575  0.2054  0.3152  0.5428
30604SOL    HW194191   9.479   8.909   6.594 -0.4689  0.8670 -0.7142
30604SOL    HW294192   9.536   9.049   6.590  0.6539  0.4642  0.3550
30605SOL     OW94193   1.059  10.606   9.887 -0.1856 -0.0700 -0.2960
30605SOL    HW194194   1.063  10.687   9.937  2.2769 -0.0105 -0.4562
30605SOL    HW294195   0.994  10.553   9.932  0.6380  0.6796  1.9247
30606SOL     OW94196   2.986   7.195   3.069  0.0704 -0.3524  0.3776
30606SOL    HW194197   2.896   7.222   3.090  0.3362  0.3176  0.6871
30606SOL    HW294198   3.010   7.248   2.993  0.3649 -0.2078  0.5724
30607SOL     OW94199   7.869   8.457   5.890 -0.0167  0.4610 -0.4828
30607SOL    HW194200   7.780   8.422   5.898  0.5387 -0.7988  0.6777
30607SOL    HW294201   7.862   8.548   5.919 -1.1399  0.7630 -1.6278
30608SOL     OW94202   5.924   3.608   2.991 -0.1407  0.0534  0.4324
30608SOL    HW194203   5.931   3.538   3.056  1.3367  0.8913  1.2538
30608SOL    HW294204   6.015   3.630   2.970 -0.5678 -0.3362 -2.1422
30609SOL     OW94205   8.240   1.121   2.753  0.3387 -0.1770 -0.3253
30609SOL    HW194206   8.146   1.115   2.772  0.4370  0.8743  0.5744
30609SOL    HW294207   8.254   1.060   2.680 -0.5477 -2.3959  1.2723
30610SOL     OW94208   4.246   7.467   4.228  0.0815 -0.0866  0.0957
30610SOL    HW194209   4.283   7.502   4.309 -1.6553  0.8058  0.5677
30610SOL    HW294210   4.218   7.544   4.179  0.3346 -0.6565 -0.9658
30611SOL     OW94211   5.641   2.403   9.965  0.5836 -0.3515 -0.0386
30611SOL    HW194212   5.711   2.435  10.022  1.6860 -0.7000 -1.1459
30611SOL    HW294213   5.602   2.329  10.013  0.5340  0.2486  0.8656
30612SOL     OW94214   3.414   8.717   3.100 -0.8669 -0.4768 -0.2391
30612SOL    HW194215   3.319   8.715   3.097 -0.8665  0.0188 -2.7042
30612SOL    HW294216   3.441   8.631   3.069 -0.5438 -0.1701 -0.8396
30613SOL     OW94217   8.211  10.014   0.404 -0.3420 -0.0661 -0.5614
30613SOL    HW194218   8.168  10.076   0.346  1.7604 -0.5679 -2.8871
30613SOL    HW294219   8.165   9.931   0.390  1.3341 -0.6887 -3.3064
30614SOL     OW94220   2.344   7.679  10.723  0.3106 -0.0480  0.5988
30614SOL    HW194221   2.277   7.651  10.784 -0.8496  0.3931 -0.4350
30614SOL    HW294222   2.363   7.601  10.670 -1.3785  0.4649 -0.8720
30615SOL     OW94223   3.926   4.438   8.272  0.3238  0.0597 -0.1647
30615SOL    HW194224   3.939   4.532   8.286 -0.2026  0.1813 -0.4535
30615SOL    HW294225   3.844   4.419   8.317 -0.3697  0.0573 -1.3783
30616SOL     OW94226   3.334  10.435   4.543 -0.3756 -0.3199  0.1004
30616SOL    HW194227   3.262  10.490   4.575  0.8361  0.9382  0.7782
30616SOL    HW294228   3.321  10.351   4.588 -0.0851  0.6456  2.1176
30617SOL     OW94229   0.908   5.862   7.347 -0.2198 -0.1547  0.3643
30617SOL    HW194230   0.950   5.841   7.264  0.8942 -0.9686  1.1097
30617SOL    HW294231   0.852   5.787   7.366 -2.8118  1.2777 -1.0426
30618SOL     OW94232   0.341   1.392  10.776  0.2160  0.1611 -0.0625
30618SOL    HW194233   0.246   1.393  10.788  0.1190 -1.0053 -0.6276
30618SOL    HW294234   0.357   1.450  10.701  0.1403  1.7073  1.0608
30619SOL     OW94235   0.613   8.674   7.425 -0.7391  0.3520 -0.0047
30619SOL    HW194236   0.593   8.718   7.508 -0.8695 -0.1286  0.2233
30619SOL    HW294237   0.695   8.627   7.441 -1.0779 -0.2394  0.0528
30620SOL     OW94238   0.115   4.382   9.949 -0.6062 -0.4048  0.4116
30620SOL    HW194239   0.142   4.296   9.980 -0.9261 -0.0443  1.7690
30620SOL    HW294240   0.051   4.364   9.880 -1.1092 -1.2628  1.0842
30621SOL     OW94241   3.935   0.946  10.677  0.1563 -0.7812 -0.0034
30621SOL    HW194242   4.016   0.942  10.728 -0.2267 -0.8229  0.6189
30621SOL    HW294243   3.953   1.008  10.607  0.1231  0.6827  1.2474
30622SOL     OW94244   2.925  10.514   3.206 -0.5284  0.2199  0.4076
30622SOL    HW194245   2.907  10.608   3.205  2.8685  1.0069  0.9653
30622SOL    HW294246   2.948  10.493   3.116  2.8227  0.9935  0.9617
30623SOL     OW94247   9.973   1.889   8.332  0.4462 -0.2532  1.0769
30623SOL    HW194248  10.049   1.904   8.388 -0.4413 -0.1356  2.2843
30623SOL    HW294249   9.898   1.901   8.389 -0.4703 -1.8312  0.2836
30624SOL     OW94250   7.658   0.999   2.983  0.1843  0.2524 -0.3601
30624SOL    HW194251   7.673   0.944   2.906  1.5508  0.2221 -0.0812
30624SOL    HW294252   7.563   1.016   2.981 -0.0910 -1.1853 -1.0661
30625SOL     OW94253  10.550   3.824   3.181 -0.1619 -0.0246 -0.0550
30625SOL    HW194254  10.578   3.787   3.098  0.1480 -1.4657  0.6539
30625SOL    HW294255  10.588   3.766   3.247 -0.2605  1.1791  1.1049
30626SOL     OW94256   5.136   6.664   2.088  0.0918  0.4598  0.0419
30626SOL    HW194257   5.118   6.744   2.138 -0.4894 -0.1791  0.8837
30626SOL    HW294258   5.097   6.594   2.141  0.1431 -0.3228 -0.9385
30627SOL     OW94259  10.678   2.642   9.344  0.3619  0.1611  1.0208
30627SOL    HW194260  10.688   2.598   9.259 -0.1949  2.9694 -0.6448
30627SOL    HW294261  10.760   2.624   9.390  0.2180 -2.3835  0.4299
30628SOL     OW94262   5.294   2.370   6.458  0.1541  0.0068 -0.5583
30628SOL    HW194263   5.322   2.445   6.510 -1.6986  1.4007 -1.4309
30628SOL    HW294264   5.285   2.404   6.369 -2.9339 -0.5238 -0.5862
30629SOL     OW94265   7.611   5.352   8.947  0.4062  0.2959  0.3476
30629SOL    HW194266   7.550   5.396   9.005 -2.3955 -3.5010  0.6433
30629SOL    HW294267   7.690   5.338   9.000 -0.8758 -0.2382  2.2029
30630SOL     OW94268   1.469   4.556   6.230 -0.3005  0.3670  0.3462
30630SOL    HW194269   1.542   4.617   6.231 -0.7123  0.8661  0.7918
30630SOL    HW294270   1.395   4.607   6.263 -1.5085  0.6831 -2.5782
30631SOL     OW94271   7.354   1.989   6.134  0.5186 -0.0292  0.0948
30631SOL    HW194272   7.342   1.921   6.200 -1.1424  0.3892  0.2652
30631SOL    HW294273   7.373   2.068   6.184 -0.8234  0.3061  0.1209
30632SOL     OW94274   4.069   0.361   1.753 -0.3230  0.1259  0.2014
30632SOL    HW194275   4.144   0.323   1.799  0.5041  1.0859 -0.3025
30632SOL    HW294276   4.010   0.287   1.739  0.5683 -0.6799  0.5302
30633SOL     OW94277   9.866   6.345   4.645  0.1095 -0.6780  0.0031
30633SOL    HW194278   9.817   6.325   4.725  0.1035 -3.5068 -0.6142
30633SOL    HW294279   9.800   6.381   4.586 -0.8974 -2.7012 -0.1834
30634SOL     OW94280   3.701   8.459   5.219 -0.3585  0.5575  0.4480
30634SOL    HW194281   3.614   8.469   5.180 -0.0364 -0.7524 -0.6944
30634SOL    HW294282   3.705   8.367   5.246  0.8476  0.4628  0.0213
30635SOL     OW94283   3.308   2.346   6.788 -0.0277 -0.0092 -0.0975
30635SOL    HW194284   3.253   2.303   6.853  0.6272 -4.2560 -2.0005
30635SOL    HW294285   3.248   2.399   6.736 -1.2043  0.2311  1.4396
30636SOL     OW94286  10.454   3.653   9.655  0.1289 -0.1009 -0.1384
30636SOL    HW194287  10.515   3.599   9.605  2.0156  1.0206  0.8140
30636SOL    HW294288  10.477   3.636   9.746 -0.4782  0.9135  0.2183
30637SOL     OW94289   5.782   0.095   3.673  0.5532 -0.2873  0.1352
30637SOL    HW194290   5.809   0.047   3.594 -0.9764 -1.1032  0.0584
30637SOL    HW294291   5.839   0.171   3.676  1.1888 -0.6762 -1.3146
30638SOL     OW94292   7.773   2.712   8.295 -0.7291  0.6583  0.1595
30638SOL    HW194293   7.678   2.707   8.298 -0.6420 -1.1279  0.4984
30638SOL    HW294294   7.796   2.775   8.363 -1.6428  0.8825  0.2676
30639SOL     OW94295   7.781   3.604   5.440  0.2685 -0.0398  0.0250
30639SOL    HW194296   7.865   3.648   5.451  0.7135 -0.8915  0.1035
30639SOL    HW294297   7.784   3.531   5.501  0.0672 -0.9289 -1.0084
30640SOL     OW94298   2.499   5.460   4.977 -0.2846  0.6893  0.1519
30640SOL    HW194299   2.458   5.480   5.061  0.7405 -1.8237  1.3437
30640SOL    HW294300   2.586   5.499   4.983 -0.3901  0.9463  0.0337
30641SOL     OW94301   0.749   0.106   3.288 -0.3314  0.3926  0.1291
30641SOL    HW194302   0.789   0.031   3.331  1.6521  1.4464  0.2727
30641SOL    HW294303   0.744   0.173   3.356  0.6605  1.3067 -0.6460
30642SOL     OW94304   2.588   9.310  10.143 -0.2019 -0.1331 -0.6940
30642SOL    HW194305   2.552   9.350  10.222  2.6451 -0.6531  1.0075
30642SOL    HW294306   2.549   9.360  10.071 -0.8305  2.2051  1.1399
30643SOL     OW94307   2.259   1.270   8.337  0.1084 -0.5037  0.2640
30643SOL    HW194308   2.184   1.219   8.308  0.0460 -0.4025  0.2450
30643SOL    HW294309   2.221   1.341   8.390  0.2669 -1.0556  1.1338
30644SOL     OW94310   2.372   4.227   7.720  0.1848 -0.2787  0.3795
30644SOL    HW194311   2.315   4.265   7.787 -0.3614 -0.4898  0.0334
30644SOL    HW294312   2.321   4.232   7.639 -0.4070 -2.8617  0.5231
30645SOL     OW94313   6.428   7.851   2.893 -0.2651 -0.1405  0.3991
30645SOL    HW194314   6.467   7.842   2.980  2.0226 -0.5083 -0.5849
30645SOL    HW294315   6.389   7.938   2.893 -1.5892 -0.6632  2.2150
30646SOL     OW94316   8.957   2.753   2.043  0.6328  0.2321 -0.4998
30646SOL    HW194317   8.946   2.837   1.998  0.6541 -0.0097 -0.9602
30646SOL    HW294318   8.945   2.774   2.136 -1.2101  0.4281 -0.7555
30647SOL     OW94319   8.356   0.685   6.557  0.0319  0.2085 -0.1736
30647SOL    HW194320   8.419   0.692   6.485 -1.2340  4.0351 -1.1732
30647SOL    HW294321   8.272   0.673   6.513 -0.5457  0.8161  0.7283
30648SOL     OW94322   6.887   4.327   8.296 -0.0359 -0.3195 -0.8549
30648SOL    HW194323   6.840   4.368   8.369  0.0671 -1.4789 -0.1027
30648SOL    HW294324   6.867   4.382   8.220 -0.0146  1.0039  0.0728
30649SOL     OW94325   4.984   6.012  10.651  0.0739  0.8656  0.3267
30649SOL    HW194326   4.979   5.981  10.560  0.0879 -1.3694  1.0172
30649SOL    HW294327   4.911   5.969  10.695  0.3961  1.4686  1.4966
30650SOL     OW94328   3.094   0.238   9.071  0.9313  0.0583  0.4251
30650SOL    HW194329   3.041   0.170   9.030  2.2103 -0.6481 -0.1404
30650SOL    HW294330   3.164   0.254   9.007  1.4329  0.8971  1.1736
30651SOL     OW94331   1.190  10.211   4.677  0.0624  0.0311 -0.3765
30651SOL    HW194332   1.140  10.264   4.738 -1.4250 -1.8196  0.1018
30651SOL    HW294333   1.198  10.126   4.720  0.6264 -0.7518 -1.9468
30652SOL     OW94334   0.596   7.456   1.673  0.4023 -0.2000 -0.3418
30652SOL    HW194335   0.601   7.412   1.588 -0.5596  1.4255 -1.2904
30652SOL    HW294336   0.544   7.397   1.728 -1.4646 -0.0026 -1.7857
30653SOL     OW94337   6.981   7.695   1.690  0.1102 -0.5454  0.6419
30653SOL    HW194338   6.938   7.613   1.715  0.2426 -0.7248  0.2911
30653SOL    HW294339   6.935   7.723   1.611  1.7550 -1.6784 -0.8058
30654SOL     OW94340   9.051   2.169   3.728 -0.1796 -0.1051 -0.5636
30654SOL    HW194341   9.141   2.135   3.725 -0.0433  0.2639 -0.7474
30654SOL    HW294342   9.061   2.264   3.717 -0.4863  0.1047  0.8017
30655SOL     OW94343   8.806   6.388   5.442 -0.3894 -0.8271  0.0049
30655SOL    HW194344   8.724   6.354   5.406  0.6352 -2.7076 -0.7004
30655SOL    HW294345   8.846   6.437   5.370  0.0166 -1.6037 -0.3085
30656SOL     OW94346   0.993   1.679   1.543  0.1641  0.4930 -0.0829
30656SOL    HW194347   0.917   1.646   1.496 -1.1350  3.9580 -0.6531
30656SOL    HW294348   0.999   1.622   1.620 -1.9961 -0.8697 -0.8183
30657SOL     OW94349   2.065   5.338   0.476  0.7354  0.1228  0.3279
30657SOL    HW194350   1.983   5.387   0.484 -0.3444 -1.2560 -1.4820
30657SOL    HW294351   2.041   5.247   0.495  1.8864 -0.2836 -0.0466
30658SOL     OW94352   6.858   0.920   9.667 -0.5388 -0.5600  0.0182
30658SOL    HW194353   6.845   1.014   9.654 -1.7151 -0.5587  1.0218
30658SOL    HW294354   6.950   0.906   9.648 -0.9017  0.3152 -2.8111
30659SOL     OW94355   9.936   2.932   6.626 -0.6405  0.0249 -0.2165
30659SOL    HW194356   9.928   2.894   6.713  0.8754  0.3777  0.1003
30659SOL    HW294357   9.900   3.020   6.635  0.1397  0.3047  0.2435
30660SOL     OW94358   4.151   4.874   7.768  0.1798 -0.2463 -0.2412
30660SOL    HW194359   4.160   4.881   7.863 -0.4040 -2.7864  0.0694
30660SOL    HW294360   4.239   4.854   7.737  0.3026  0.2422 -0.2274
30661SOL     OW94361   3.624   3.326   3.222 -0.0969  0.5991  0.0344
30661SOL    HW194362   3.651   3.329   3.130 -1.3710  1.6580 -0.3235
30661SOL    HW294363   3.564   3.252   3.227  1.4753 -0.7185  0.4831
30662SOL     OW94364   3.398  10.352   0.647 -0.6775  0.3332  0.3625
30662SOL    HW194365   3.385  10.266   0.686 -1.3782  0.9539  1.5690
30662SOL    HW294366   3.317  10.370   0.599 -0.0918 -0.1319 -0.8334
30663SOL     OW94367   9.902   7.113   8.295 -0.2897 -0.1949  0.3413
30663SOL    HW194368   9.990   7.128   8.262 -0.6322 -1.2316 -1.1483
30663SOL    HW294369   9.878   7.196   8.337  0.6113  0.8334 -1.0747
30664SOL     OW94370   1.564   0.390   2.850  1.3462 -0.3064 -0.5845
30664SOL    HW194371   1.614   0.468   2.824  2.9289 -0.7696  0.8533
30664SOL    HW294372   1.601   0.366   2.935 -1.2010 -0.8722  0.4368
30665SOL     OW94373   1.773   0.255   5.484 -0.2280 -0.3489 -0.4665
30665SOL    HW194374   1.747   0.163   5.489  0.0656 -0.4146  4.2931
30665SOL    HW294375   1.868   0.253   5.494 -0.3926  0.4022  1.9167
30666SOL     OW94376   8.155   0.502   4.885  0.1008  0.3210 -0.6938
30666SOL    HW194377   8.212   0.458   4.949  0.8484  2.3066  0.0666
30666SOL    HW294378   8.191   0.475   4.800  0.7980 -0.1971 -0.2521
30667SOL     OW94379   5.527   8.014   7.376  0.6696  0.5107 -0.1318
30667SOL    HW194380   5.499   8.020   7.285  0.6178  0.5259 -0.1150
30667SOL    HW294381   5.450   7.985   7.423  0.2953  1.8286  0.1104
30668SOL     OW94382  10.702   0.078   2.366  0.1502  0.2658  0.0462
30668SOL    HW194383  10.703   0.114   2.455 -1.6668 -0.3605  0.3659
30668SOL    HW294384  10.658   0.144   2.313 -0.0350  0.0474 -0.0798
30669SOL     OW94385   1.049   5.310   5.012 -0.5894  0.3549 -0.0202
30669SOL    HW194386   1.123   5.341   5.063 -0.3193  2.1568 -1.4135
30669SOL    HW294387   0.983   5.380   5.020 -0.6116  0.6160 -1.8981
30670SOL     OW94388   0.310   0.529   4.744  0.1168 -0.2253  0.4071
30670SOL    HW194389   0.314   0.446   4.696 -1.1641 -1.3150  2.0462
30670SOL    HW294390   0.216   0.547   4.752  0.3639  1.8584 -0.5976
30671SOL     OW94391   6.813  10.697   1.911 -0.2911 -0.6504 -0.0422
30671SOL    HW194392   6.852  10.645   1.841  0.3822 -1.4131  0.8652
30671SOL    HW294393   6.854  10.663   1.991 -1.7628 -0.4850  0.8145
30672SOL     OW94394   7.509   0.789   0.904  0.0163  1.0372 -0.1874
30672SOL    HW194395   7.589   0.837   0.886 -0.0520  1.4221  0.4878
30672SOL    HW294396   7.532   0.730   0.976  0.7969 -1.7957 -2.5941
30673SOL     OW94397   2.201   0.525   3.508 -0.2259 -0.4029  0.2981
30673SOL    HW194398   2.266   0.591   3.532  1.4252 -0.9331 -2.2494
30673SOL    HW294399   2.140   0.522   3.582  0.7015  2.5781  1.3091
30674SOL     OW94400   5.183   6.168   5.627 -0.3458  0.0192 -0.2328
30674SOL    HW194401   5.259   6.193   5.680 -0.6105 -1.9320  1.2051
30674SOL    HW294402   5.219   6.146   5.541  0.5120  0.5171 -0.0069
30675SOL     OW94403   5.854   6.031   4.412  0.0772  0.3875  0.1635
30675SOL    HW194404   5.769   6.022   4.369 -0.0522  0.7742  0.3341
30675SOL    HW294405   5.879   6.122   4.397 -0.0436  0.5740  1.0282
30676SOL     OW94406   6.389   1.369   7.230  0.3391 -0.3241  0.1462
30676SOL    HW194407   6.349   1.331   7.308 -1.1135 -0.8587 -0.8277
30676SOL    HW294408   6.321   1.424   7.191  1.0492 -0.0311 -0.7370
30677SOL     OW94409   7.880   8.878   3.564  0.4498 -0.4170 -0.1825
30677SOL    HW194410   7.814   8.823   3.607 -0.0302  0.9137  0.8515
30677SOL    HW294411   7.925   8.818   3.504 -0.9743 -1.6132 -0.1369
30678SOL     OW94412   5.827   0.673   6.862  0.3064  0.0953 -0.1142
30678SOL    HW194413   5.779   0.615   6.802 -0.2995 -0.0931  0.5381
30678SOL    HW294414   5.758   0.717   6.912  0.7990  0.4769  0.2290
30679SOL     OW94415   1.320   4.566   3.716 -0.3115 -0.0669  0.4418
30679SOL    HW194416   1.259   4.530   3.652  0.2713  1.4712 -1.0873
30679SOL    HW294417   1.407   4.546   3.679  0.0249  1.4023  0.3787
30680SOL     OW94418   6.558   8.325   1.392  0.2021 -0.2766  0.5275
30680SOL    HW194419   6.535   8.399   1.336 -0.8899 -2.1448 -1.6389
30680SOL    HW294420   6.536   8.355   1.481  0.1256  2.0831 -0.2172
30681SOL     OW94421   1.481   1.811   8.094  0.3430  0.1311  0.1753
30681SOL    HW194422   1.542   1.753   8.140  0.4397 -1.0988 -1.4501
30681SOL    HW294423   1.399   1.762   8.090 -0.3757  1.1960  1.0706
30682SOL     OW94424  10.799   6.954   5.697 -0.4021  0.0617 -0.1834
30682SOL    HW194425  10.764   6.958   5.608  1.6962 -3.7859 -1.4282
30682SOL    HW294426  10.725   6.924   5.750 -1.1325  0.3346 -1.0228
30683SOL     OW94427   0.793   3.836  10.201 -0.3630  0.0188 -0.1886
30683SOL    HW194428   0.715   3.875  10.242  0.6846  0.7494  1.1851
30683SOL    HW294429   0.844   3.911  10.171 -0.4048 -0.4723 -1.5674
30684SOL     OW94430   6.369   4.539   8.385 -0.0137 -0.1368 -0.5521
30684SOL    HW194431   6.425   4.617   8.389  2.3734 -1.8066  1.0295
30684SOL    HW294432   6.361   4.511   8.476 -3.7696  0.1022 -0.6356
30685SOL     OW94433   3.793   0.463   0.313 -0.1355  0.2259 -0.4317
30685SOL    HW194434   3.770   0.402   0.243  0.9210  0.7376 -1.2452
30685SOL    HW294435   3.854   0.415   0.368  0.4080  0.4112 -0.8643
30686SOL     OW94436   5.977   4.926   7.187 -0.0246  0.4105 -0.0751
30686SOL    HW194437   6.057   4.946   7.236  0.4700 -0.9879 -0.2699
30686SOL    HW294438   5.917   4.890   7.252  0.4061 -0.8491 -0.3421
30687SOL     OW94439   4.557   3.303   9.713  0.1308 -0.1160  0.4371
30687SOL    HW194440   4.492   3.331   9.649  0.3918  0.2227  0.3167
30687SOL    HW294441   4.505   3.259   9.781 -0.0632 -1.1341 -0.3563
30688SOL     OW94442  10.424   3.508   2.072  0.4510  0.6026 -0.1407
30688SOL    HW194443  10.518   3.497   2.084  0.1803 -1.8426  0.2667
30688SOL    HW294444  10.397   3.565   2.145  1.5832  1.3507 -0.2813
30689SOL     OW94445  10.018   1.150   2.528 -0.9982 -0.8853  0.0044
30689SOL    HW194446  10.033   1.066   2.484 -2.4119 -0.4109 -1.4713
30689SOL    HW294447   9.975   1.205   2.462  0.4893  1.2547  0.7150
30690SOL     OW94448   2.084   7.497  10.612 -0.0001 -0.0787  0.4425
30690SOL    HW194449   2.045   7.501  10.700  0.4581  1.1567  0.6160
30690SOL    HW294450   2.025   7.548  10.558  1.4080  2.0103  0.7525
30691SOL     OW94451   4.240   9.611   0.584 -0.3843  1.0727  0.1340
30691SOL    HW194452   4.300   9.684   0.599  0.1970  0.6220  0.0600
30691SOL    HW294453   4.238   9.602   0.489  0.9339 -0.1081  0.1777
30692SOL     OW94454   7.338   3.942   0.231  0.0524  0.0959  0.2304
30692SOL    HW194455   7.257   3.917   0.187  0.1203  0.2368  0.0235
30692SOL    HW294456   7.406   3.888   0.189  0.2064  0.6596 -0.2540
30693SOL     OW94457   6.735   8.222   9.803 -0.0418  0.0115 -0.3578
30693SOL    HW194458   6.725   8.316   9.818  0.8441 -0.0534  0.7303
30693SOL    HW294459   6.829   8.208   9.796 -0.0677 -1.0104  1.0245
30694SOL     OW94460   4.790   8.020   9.675 -0.1112  0.3341  0.6698
30694SOL    HW194461   4.778   7.941   9.624  1.1414  0.3914  0.2594
30694SOL    HW294462   4.842   7.993   9.751  0.8898  0.8658  0.1933
30695SOL     OW94463   4.695   4.747   7.687  0.5312  0.6762 -0.4714
30695SOL    HW194464   4.750   4.813   7.645  0.6359  1.2833  0.5818
30695SOL    HW294465   4.756   4.697   7.741  0.1164  1.1695  0.4749
30696SOL     OW94466   4.783   2.984   0.236  0.5930 -0.5351  0.1036
30696SOL    HW194467   4.819   3.072   0.249 -1.9343  0.8406 -1.4222
30696SOL    HW294468   4.695   2.989   0.272  0.3772 -2.4904 -0.0463
30697SOL     OW94469   7.499   6.122   0.922 -0.4064  0.2944 -0.0233
30697SOL    HW194470   7.586   6.133   0.958 -0.3974  2.6162 -0.5784
30697SOL    HW294471   7.512   6.123   0.827 -1.0027  0.3830 -0.1079
30698SOL     OW94472   7.859   8.388   8.159  0.2932  0.1623 -0.3062
30698SOL    HW194473   7.857   8.299   8.195 -2.2335  0.2516 -0.0734
30698SOL    HW294474   7.883   8.443   8.233 -1.1216 -0.0540  0.3491
30699SOL     OW94475   9.597   9.251   4.609  0.0685 -0.4411  0.1883
30699SOL    HW194476   9.612   9.234   4.702  3.0946  0.1590 -0.0884
30699SOL    HW294477   9.586   9.346   4.603  0.6564 -0.3880 -0.1334
30700SOL     OW94478   4.328   3.317   3.809  0.7013 -0.3069  0.5681
30700SOL    HW194479   4.267   3.275   3.870 -0.9136  0.7563 -0.2286
30700SOL    HW294480   4.393   3.359   3.866 -1.4260  1.6757  1.7440
30701SOL     OW94481   5.044   6.657   4.305 -0.0562  0.2642 -0.4218
30701SOL    HW194482   5.042   6.609   4.222 -1.1951 -0.4803  0.0166
30701SOL    HW294483   4.961   6.704   4.308 -0.3761 -0.3537  0.6606
30702SOL     OW94484   5.369   3.060   5.804  0.6275 -0.4796  0.3823
30702SOL    HW194485   5.363   2.970   5.769 -0.8771 -0.0948 -0.4543
30702SOL    HW294486   5.461   3.070   5.829  1.0289 -1.9479 -0.3706
30703SOL     OW94487   4.470   8.613   3.780 -0.3029 -0.3994  0.1443
30703SOL    HW194488   4.463   8.591   3.687 -0.9360 -0.7310  0.2697
30703SOL    HW294489   4.542   8.559   3.813 -1.1859 -1.5531  0.2250
30704SOL     OW94490   0.522   8.876   9.260 -0.3481 -0.1824 -0.4336
30704SOL    HW194491   0.611   8.888   9.290 -0.7975  0.9252  0.5010
30704SOL    HW294492   0.531   8.844   9.170  0.9702  0.1236 -0.4200
30705SOL     OW94493   1.818   4.752   4.768  0.1523  0.0375 -0.3273
30705SOL    HW194494   1.803   4.660   4.788  2.5020 -0.6250 -1.2481
30705SOL    HW294495   1.880   4.782   4.836 -0.6854  0.9987  0.0412
30706SOL     OW94496   8.702   2.947   9.265  0.0868 -0.0263  0.8416
30706SOL    HW194497   8.611   2.918   9.267 -0.4411  1.4619  0.3561
30706SOL    HW294498   8.717   2.984   9.352  0.3248 -0.5269  1.0158
30707SOL     OW94499   4.491   2.334   7.164  0.1256 -0.1146  0.8316
30707SOL    HW194500   4.424   2.277   7.126  1.4527 -1.5748  0.5905
30707SOL    HW294501   4.462   2.422   7.143 -0.8652 -0.7727 -0.7115
30708SOL     OW94502   5.281   7.933   8.297 -0.5334 -0.0393  0.1561
30708SOL    HW194503   5.327   7.967   8.374 -0.4263  0.5646 -0.1701
30708SOL    HW294504   5.197   7.902   8.331  0.1921 -1.3719  0.7972
30709SOL     OW94505   0.916   3.747   9.815 -0.5738 -0.1756 -0.2652
30709SOL    HW194506   0.976   3.702   9.755 -1.3470 -1.7725  0.1112
30709SOL    HW294507   0.832   3.745   9.769 -0.0623  3.9005 -1.7495
30710SOL     OW94508   8.968   1.512   5.677  0.1091  0.8155  0.2511
30710SOL    HW194509   9.061   1.507   5.701  0.3650 -0.3388 -0.9114
30710SOL    HW294510   8.945   1.423   5.650 -0.5709  1.6617 -2.1984
30711SOL     OW94511   5.663   0.724   3.307  0.2318  0.0339 -0.1833
30711SOL    HW194512   5.684   0.725   3.400  0.5065  1.5567 -0.2362
30711SOL    HW294513   5.675   0.815   3.279  0.1866 -0.4081 -1.7111
30712SOL     OW94514   9.722   1.263   0.032  0.0866  0.1907  0.5590
30712SOL    HW194515   9.807   1.273   0.076 -0.8337 -0.1961  2.5459
30712SOL    HW294516   9.686   1.182   0.069 -0.8851 -0.0013 -0.7517
30713SOL     OW94517   5.430   9.496   5.627 -0.5066 -0.4843  0.2206
30713SOL    HW194518   5.381   9.427   5.672 -0.6382 -1.0589 -0.7767
30713SOL    HW294519   5.427   9.571   5.687  0.5604 -1.6551  1.8258
30714SOL     OW94520   2.672   6.185   4.300 -0.6050 -0.7742  0.2017
30714SOL    HW194521   2.687   6.225   4.214 -2.3917 -0.9119 -0.1995
30714SOL    HW294522   2.753   6.136   4.317 -0.3975 -1.1812 -1.6539
30715SOL     OW94523  10.327   9.161  10.598 -0.0483  0.0912 -0.8719
30715SOL    HW194524  10.342   9.250  10.566  0.7752  0.2481 -0.0708
30715SOL    HW294525  10.341   9.166  10.692 -1.0548 -0.6715 -0.6555
30716SOL     OW94526   4.738  10.146   0.728 -0.2000 -0.0179 -0.1931
30716SOL    HW194527   4.678  10.220   0.725 -0.2497 -0.1056 -2.3834
30716SOL    HW294528   4.684  10.072   0.755 -1.0243 -0.0256 -1.7891
30717SOL     OW94529   2.121   9.450   1.172 -0.1174 -0.1257 -0.1520
30717SOL    HW194530   2.203   9.470   1.128  1.0659  1.2533  2.4440
30717SOL    HW294531   2.093   9.533   1.210 -1.7213 -0.9647  0.6053
30718SOL     OW94532   9.929   7.769   6.730 -0.1247  0.6131  0.5659
30718SOL    HW194533   9.899   7.681   6.708  0.9552  0.3879 -0.0713
30718SOL    HW294534   9.851   7.824   6.721 -1.3529 -0.5640  3.0712
30719SOL     OW94535   2.334   1.817   4.410  0.0723  0.2534 -0.1488
30719SOL    HW194536   2.336   1.750   4.479  0.9968  0.5534  0.1280
30719SOL    HW294537   2.369   1.896   4.452  0.6530  0.4388 -0.9587
30720SOL     OW94538   7.982   4.028   3.341  0.4326 -0.2349 -0.4823
30720SOL    HW194539   7.905   4.085   3.340  0.1489 -0.6162 -1.2070
30720SOL    HW294540   7.998   4.008   3.249  1.6230  0.1236 -0.3693
30721SOL     OW94541   7.548   2.335   7.935  0.2751 -0.1599 -0.2505
30721SOL    HW194542   7.629   2.372   7.899 -0.5356  0.4864 -1.5088
30721SOL    HW294543   7.551   2.243   7.910  1.1764 -0.4237  0.7719
30722SOL     OW94544  10.471   8.319  10.246 -0.0900  0.0771  0.5479
30722SOL    HW194545  10.421   8.261  10.189 -1.7852  1.8610  0.1209
30722SOL    HW294546  10.425   8.316  10.330  0.1479  0.3519  0.6907
30723SOL     OW94547   3.976   0.331   7.049 -0.2384 -0.3361  0.2227
30723SOL    HW194548   3.914   0.293   6.987 -1.2049  0.7653  0.4904
30723SOL    HW294549   4.029   0.257   7.077 -1.2964 -1.2741 -0.1650
30724SOL     OW94550   8.865   2.956   8.006 -0.4811 -0.2838  0.0149
30724SOL    HW194551   8.848   2.862   8.013 -2.7939 -0.0919 -1.6806
30724SOL    HW294552   8.918   2.964   7.926 -0.6416 -0.1248 -0.0760
30725SOL     OW94553   1.415   7.701  10.162  0.1125  0.2800 -0.2884
30725SOL    HW194554   1.405   7.676  10.254  0.0962 -1.5826 -0.7495
30725SOL    HW294555   1.332   7.678  10.122  0.4603  0.1474 -0.9493
30726SOL     OW94556   4.149   5.728   4.509 -0.0883 -0.1768  0.2339
30726SOL    HW194557   4.244   5.739   4.516 -0.0469 -0.0424 -0.4668
30726SOL    HW294558   4.138   5.638   4.479 -0.1287  0.1511 -0.7655
30727SOL     OW94559   3.056   8.994   7.783 -0.1901 -0.0317 -0.1936
30727SOL    HW194560   3.150   8.981   7.767 -0.3536 -1.1671 -0.3220
30727SOL    HW294561   3.053   9.063   7.849  0.7545 -0.2342  0.0879
30728SOL     OW94562   8.355  10.406   4.637 -0.2971  0.1173  0.0916
30728SOL    HW194563   8.264  10.378   4.626 -0.5608  0.8933  0.2825
30728SOL    HW294564   8.401  10.326   4.664 -1.1446 -0.0260  1.1911
30729SOL     OW94565   2.400  10.341   8.616  0.0862  0.1223  0.0843
30729SOL    HW194566   2.456  10.400   8.566 -0.2354  1.0726  0.8171
30729SOL    HW294567   2.458  10.304   8.683 -0.0189  0.6719  0.4870
30730SOL     OW94568   0.404   4.805   5.485  0.3536 -0.1098 -0.1200
30730SOL    HW194569   0.364   4.861   5.552 -0.7692 -0.7142 -0.2605
30730SOL    HW294570   0.486   4.849   5.463  0.1844  0.7083  0.8143
30731SOL     OW94571   2.022   2.015   0.764 -0.1796  0.1328  0.0047
30731SOL    HW194572   1.934   2.009   0.729  0.6918  1.5020 -2.7156
30731SOL    HW294573   2.039   2.109   0.771  0.8826 -0.1046  1.0369
30732SOL     OW94574   7.097   1.613   3.134  0.1920 -0.2822  0.3174
30732SOL    HW194575   7.052   1.624   3.050 -0.9332 -2.1428  0.6192
30732SOL    HW294576   7.086   1.520   3.155  1.1581 -0.0295  2.1286
30733SOL     OW94577   4.546   4.920   0.914 -0.0945  0.2122  0.1508
30733SOL    HW194578   4.622   4.961   0.872  0.0910  0.0463  0.3252
30733SOL    HW294579   4.561   4.826   0.904 -1.0252  0.1740 -1.1745
30734SOL     OW94580   8.105   4.534   1.525  0.0902  0.1441  0.3596
30734SOL    HW194581   8.096   4.626   1.550 -0.0744 -0.2660  1.9695
30734SOL    HW294582   8.192   4.510   1.555 -0.4803 -0.6335  1.4825
30735SOL     OW94583   8.832   9.790   0.428 -0.1447  0.3527 -0.4638
30735SOL    HW194584   8.922   9.806   0.456 -0.2122  1.6065 -0.8807
30735SOL    HW294585   8.796   9.878   0.414 -2.1334  0.0181  1.8418
30736SOL     OW94586   0.957   8.001   6.328 -0.0069  0.0170 -0.2058
30736SOL    HW194587   0.973   7.909   6.309 -0.4184 -0.3299  1.0458
30736SOL    HW294588   0.961   8.044   6.243  3.3647 -0.6422 -0.5263
30737SOL     OW94589  10.648   2.502   9.638  0.8120 -0.6507  0.6685
30737SOL    HW194590  10.640   2.465   9.550 -0.6192  0.1175  0.4557
30737SOL    HW294591  10.591   2.447   9.693 -0.9187  0.8213  0.4485
30738SOL     OW94592   0.620   8.638   0.724 -0.0558  0.3879  0.1140
30738SOL    HW194593   0.588   8.653   0.635 -1.2998 -1.1087  0.2589
30738SOL    HW294594   0.592   8.549   0.744 -0.1692  0.8484  2.1614
30739SOL     OW94595   7.814   9.669   6.071  0.2560  0.0777  0.2239
30739SOL    HW194596   7.884   9.680   6.006  1.2388  1.5916  1.4718
30739SOL    HW294597   7.750   9.738   6.049  0.5775  0.5753  0.8244
30740SOL     OW94598   4.365   5.692   1.105 -0.0078 -0.2716 -0.3467
30740SOL    HW194599   4.439   5.750   1.121 -0.4050 -0.1034  0.9561
30740SOL    HW294600   4.351   5.647   1.189 -1.8069  0.2030 -0.3626
30741SOL     OW94601   2.810   6.782  10.276 -0.0761  0.2533 -0.0422
30741SOL    HW194602   2.852   6.738  10.350 -1.2270 -0.6107  0.1215
30741SOL    HW294603   2.806   6.716  10.207 -1.1168  0.3393 -0.0689
30742SOL     OW94604   6.501  10.369   2.883 -0.1322  0.5188  0.5346
30742SOL    HW194605   6.561  10.295   2.888  1.5000  1.7994  0.7250
30742SOL    HW294606   6.438  10.353   2.954 -0.7811 -1.4492 -0.4211
30743SOL     OW94607   0.518   7.916   2.243 -0.0944  0.1289  0.0758
30743SOL    HW194608   0.499   8.010   2.249 -2.1117 -0.2222 -0.2156
30743SOL    HW294609   0.505   7.895   2.151 -0.8639 -0.6524  0.3494
30744SOL     OW94610   6.403   8.472   3.627  0.4781 -0.0320 -0.2826
30744SOL    HW194611   6.356   8.403   3.581 -0.8204 -0.2599  1.2671
30744SOL    HW294612   6.338   8.542   3.636  1.0470  0.4356  0.2129
30745SOL     OW94613   3.584   1.185   9.586 -0.5300 -0.8143  0.5527
30745SOL    HW194614   3.576   1.146   9.673  2.5522 -0.2064  1.2564
30745SOL    HW294615   3.585   1.110   9.527 -0.1310 -1.4444  1.3301
30746SOL     OW94616   6.582   5.940   7.284 -0.8231 -0.4642 -0.1053
30746SOL    HW194617   6.544   5.865   7.239 -0.4135 -0.7334 -0.0080
30746SOL    HW294618   6.552   5.932   7.374  0.3266 -1.2808  0.2248
30747SOL     OW94619   2.183   7.093   0.717  0.4528  0.2038  0.4985
30747SOL    HW194620   2.225   7.166   0.763 -0.0070  0.7831  0.0297
30747SOL    HW294621   2.122   7.056   0.781  1.5522 -0.5471  1.1310
30748SOL     OW94622   8.036   3.288   5.756  0.1152  0.5498  0.1422
30748SOL    HW194623   8.024   3.370   5.803  0.5747  1.5000 -1.3390
30748SOL    HW294624   8.128   3.287   5.730 -0.2770  0.4619 -1.3943
30749SOL     OW94625   6.979   9.111   9.084  0.2828  0.4100  0.2068
30749SOL    HW194626   7.066   9.120   9.044  0.4788  1.0727  0.7607
30749SOL    HW294627   6.969   9.190   9.138  0.5184 -1.0137  2.4356
30750SOL     OW94628   4.351   1.976   0.577 -0.1789  0.1425  0.1496
30750SOL    HW194629   4.419   1.913   0.603  1.0602  0.4962 -1.9802
30750SOL    HW294630   4.283   1.922   0.536 -1.0052 -0.1581  1.8315
30751SOL     OW94631   5.316   4.802   1.616 -0.3105  0.3614 -0.0187
30751SOL    HW194632   5.395   4.843   1.652  0.8713 -1.1946 -0.7121
30751SOL    HW294633   5.347   4.755   1.539 -1.8009 -0.8340  0.0693
30752SOL     OW94634   6.684   6.855   2.839 -0.2563  0.0255 -0.1429
30752SOL    HW194635   6.608   6.878   2.892 -1.3013  1.0037 -1.9766
30752SOL    HW294636   6.703   6.933   2.788 -0.3935 -1.3271 -2.4406
30753SOL     OW94637   5.705   0.275   0.246 -0.3068  0.1837  0.0896
30753SOL    HW194638   5.701   0.192   0.198 -1.3395 -1.3874  2.6734
30753SOL    HW294639   5.757   0.255   0.324 -0.0908  2.1515  0.5024
30754SOL     OW94640  10.357   7.482   9.596 -0.2010 -0.0156  0.5212
30754SOL    HW194641  10.307   7.406   9.627 -1.4497  0.7253  0.3797
30754SOL    HW294642  10.380   7.530   9.675 -1.3735  0.6455  0.4704
30755SOL     OW94643   1.076   1.858   1.943  0.2572 -0.2656  0.4261
30755SOL    HW194644   1.049   1.866   2.035 -0.6464  1.2496  0.0683
30755SOL    HW294645   1.033   1.779   1.912  0.2949 -0.6031  1.2204
30756SOL     OW94646   0.856   6.354   4.776  0.9486 -0.4039 -0.1961
30756SOL    HW194647   0.899   6.396   4.851  2.3621 -0.7257 -0.7790
30756SOL    HW294648   0.843   6.263   4.804  0.3328 -0.2203  0.1096
30757SOL     OW94649   4.339   5.430  10.757  0.3373  0.2069  0.2984
30757SOL    HW194650   4.283   5.368  10.710  2.7222 -0.8292 -1.3783
30757SOL    HW294651   4.420   5.433  10.706  1.0546  3.3026  1.3624
30758SOL     OW94652   6.224   0.253   4.311  0.5833 -0.0030 -0.3267
30758SOL    HW194653   6.161   0.186   4.285  1.9522 -0.7115 -1.9493
30758SOL    HW294654   6.188   0.289   4.392 -0.0533 -2.8568  0.7452
30759SOL     OW94655   1.642   6.733   3.150 -0.4721 -0.2469 -0.1289
30759SOL    HW194656   1.682   6.784   3.220  0.8872  1.1423 -1.8415
30759SOL    HW294657   1.551   6.722   3.177  0.1410 -0.2819  2.1073
30760SOL     OW94658   8.221   0.696   4.616 -0.0217  0.5687 -0.0206
30760SOL    HW194659   8.218   0.773   4.673  2.0970 -0.2267  1.3163
30760SOL    HW294660   8.286   0.718   4.550  0.4589  0.0318  0.2594
30761SOL     OW94661   5.816   5.662   4.510  0.5103 -0.4845  0.2910
30761SOL    HW194662   5.751   5.611   4.461  1.1693 -1.4405  0.3703
30761SOL    HW294663   5.901   5.628   4.479  0.9935  1.0630 -0.1651
30762SOL     OW94664   6.469   0.953   4.119  0.5799 -0.2226  0.7912
30762SOL    HW194665   6.513   0.971   4.036 -0.2411  1.4524  0.6783
30762SOL    HW294666   6.451   1.039   4.156  1.2419 -0.9209  2.9088
30763SOL     OW94667   1.667   1.799   3.025 -0.5028 -0.3810  0.1753
30763SOL    HW194668   1.669   1.749   3.107 -0.5741  0.0423  0.4353
30763SOL    HW294669   1.646   1.888   3.052  1.4292  0.1947 -0.0964
30764SOL     OW94670   7.405   1.013   9.664 -0.5260 -0.2960  0.3078
30764SOL    HW194671   7.419   1.102   9.630  2.0539 -0.7636 -0.0830
30764SOL    HW294672   7.429   1.019   9.756  0.3296 -0.7073  0.1201
30765SOL     OW94673   6.533   0.343   7.821  0.4851 -0.2340 -0.4177
30765SOL    HW194674   6.456   0.285   7.813 -1.3513  1.9456  0.3944
30765SOL    HW294675   6.579   0.310   7.898 -0.7878 -0.3594  0.3233
30766SOL     OW94676   1.920   4.929   8.086 -0.2317  0.6074 -0.5248
30766SOL    HW194677   2.001   4.882   8.104 -1.0614 -0.6496  0.0519
30766SOL    HW294678   1.927   5.010   8.136  0.5181  0.3485 -0.2005
30767SOL     OW94679   4.333   6.777   5.463 -0.0423 -0.0425  0.4858
30767SOL    HW194680   4.413   6.820   5.432 -0.8975  1.5522  0.3891
30767SOL    HW294681   4.263   6.817   5.413 -1.1402  0.2169  2.1370
30768SOL     OW94682   7.294   5.918   9.318  0.6449  0.0105  0.3241
30768SOL    HW194683   7.199   5.925   9.309  0.6050  0.2507  0.8810
30768SOL    HW294684   7.307   5.856   9.390  0.9379 -1.4589 -0.9196
30769SOL     OW94685   1.941   7.383   6.841  0.3903  0.3779 -0.7349
30769SOL    HW194686   2.030   7.400   6.873  0.7385 -1.8742 -0.3349
30769SOL    HW294687   1.947   7.297   6.799 -1.8827 -0.4456  0.4518
30770SOL     OW94688   5.253   9.300   5.755 -0.2420 -0.5035 -0.4106
30770SOL    HW194689   5.314   9.254   5.813  1.5688  1.5670 -0.5276
30770SOL    HW294690   5.204   9.358   5.813  0.5180  0.4895 -0.7444
30771SOL     OW94691   7.884   0.073   2.700  0.6081  0.5741  0.4037
30771SOL    HW194692   7.830   0.116   2.766 -0.5367 -0.5687  0.2486
30771SOL    HW294693   7.827   0.007   2.662  1.6001  0.4612 -0.9630
30772SOL     OW94694   5.850  10.367   9.571 -0.1306  0.6383 -0.4380
30772SOL    HW194695   5.788  10.337   9.636 -0.5795  0.2060 -1.0548
30772SOL    HW294696   5.936  10.339   9.604 -0.2645  1.2010  0.3896
30773SOL     OW94697   4.680   3.146   0.654 -0.3555 -0.8611 -0.4168
30773SOL    HW194698   4.739   3.212   0.617 -0.6540 -0.6473 -0.5151
30773SOL    HW294699   4.719   3.123   0.738 -0.5273 -0.1738 -0.1395
30774SOL     OW94700   2.979   1.220   8.610  0.2743 -0.8618  0.3205
30774SOL    HW194701   3.026   1.139   8.591  0.1281 -0.6316 -1.0970
30774SOL    HW294702   2.922   1.234   8.534  0.5411  0.7410  0.3773
30775SOL     OW94703   7.594   1.247   4.943 -0.1126  0.6784 -0.6087
30775SOL    HW194704   7.577   1.315   5.008  0.5979  1.8154 -1.5799
30775SOL    HW294705   7.636   1.176   4.993  0.1293  1.3978  0.2341
30776SOL     OW94706   2.484   5.726   1.935 -0.2772  0.2809 -0.2051
30776SOL    HW194707   2.439   5.661   1.880  0.7398 -0.4474 -0.2224
30776SOL    HW294708   2.570   5.687   1.950 -0.3542  0.6988  1.4928
30777SOL     OW94709   6.046   0.390   6.987 -0.3222 -0.7049 -0.1816
30777SOL    HW194710   5.957   0.380   6.954 -0.1711 -2.3584 -0.2141
30777SOL    HW294711   6.100   0.401   6.908 -0.6748  2.6684 -0.0758
30778SOL     OW94712   3.114   6.689   3.127  0.1286  0.2052  0.1065
30778SOL    HW194713   3.153   6.642   3.053 -0.6903  0.9135 -0.8011
30778SOL    HW294714   3.020   6.670   3.119 -0.1031  1.2750  0.2472
30779SOL     OW94715   3.938   6.087  10.648  0.3197 -0.1520  0.3593
30779SOL    HW194716   3.871   6.156  10.656 -0.1657 -0.6347  0.5028
30779SOL    HW294717   3.888   6.006  10.638  0.8901 -0.3943 -0.6426
30780SOL     OW94718   6.005  10.356  10.192  0.2783 -0.0707 -0.4318
30780SOL    HW194719   5.974  10.338  10.281 -1.3092 -1.0146 -1.1429
30780SOL    HW294720   6.064  10.431  10.202  0.4798 -0.4308  1.4646
30781SOL     OW94721   9.936   6.230   0.499  0.1834 -0.1585 -0.0984
30781SOL    HW194722   9.871   6.247   0.430  0.2555  1.1124  0.1293
30781SOL    HW294723  10.003   6.176   0.456 -1.0722 -1.6526 -0.2910
30782SOL     OW94724   9.412   9.059   2.215 -0.3501 -0.6344 -0.7386
30782SOL    HW194725   9.427   9.152   2.233  0.3421 -0.7492 -0.7033
30782SOL    HW294726   9.333   9.058   2.161 -0.8617 -0.0914 -0.0191
30783SOL     OW94727   0.483   1.445   3.139  0.1022  0.2250  0.1779
30783SOL    HW194728   0.509   1.538   3.139 -0.1690  0.3020  0.0081
30783SOL    HW294729   0.473   1.424   3.232 -0.8353  0.6526  0.1807
30784SOL     OW94730   9.718   6.439   7.183 -0.8743  0.1600  0.3491
30784SOL    HW194731   9.800   6.489   7.179  1.3065 -3.2004 -0.7010
30784SOL    HW294732   9.711   6.412   7.274 -0.9369  0.5737  0.4708
30785SOL     OW94733   6.922   6.097  10.083 -0.8785  0.5832  0.2058
30785SOL    HW194734   6.865   6.161  10.042 -0.8791  0.0185 -0.7072
30785SOL    HW294735   6.868   6.056  10.151 -0.9824  1.2970  0.5565
30786SOL     OW94736   7.976   1.113   2.769  0.2117 -0.1958  0.0309
30786SOL    HW194737   7.937   1.039   2.723  0.0711  0.0678 -0.2762
30786SOL    HW294738   7.906   1.178   2.774 -0.1971 -0.7184  1.7985
30787SOL     OW94739   1.770   5.658  10.269 -0.4200 -0.2005 -0.2979
30787SOL    HW194740   1.795   5.571  10.301 -0.1608 -1.3484 -3.3152
30787SOL    HW294741   1.847   5.713  10.286  0.0110 -0.9582  0.2621
30788SOL     OW94742   3.407   5.107   7.638  0.5733  0.3196  0.5290
30788SOL    HW194743   3.485   5.152   7.669  1.6323  0.1849 -1.7154
30788SOL    HW294744   3.409   5.022   7.683  1.6482  0.3701  0.6046
30789SOL     OW94745   7.858   7.357   8.271 -0.1260 -0.1335  0.7291
30789SOL    HW194746   7.873   7.263   8.261 -0.7327 -0.1938  0.3417
30789SOL    HW294747   7.858   7.391   8.182  1.8236  0.5302  0.9277
30790SOL     OW94748   3.669   5.574   0.910 -0.0845  0.7608 -0.3044
30790SOL    HW194749   3.660   5.501   0.971  1.0993  1.0044  0.1965
30790SOL    HW294750   3.662   5.534   0.824 -3.0764  0.5822 -0.0816
30791SOL     OW94751   8.887   5.772   6.726 -0.3943 -0.2039  0.3026
30791SOL    HW194752   8.893   5.769   6.822  1.9015  1.0092  0.2439
30791SOL    HW294753   8.921   5.858   6.702  3.8419 -2.1707 -1.8105
30792SOL     OW94754  10.335   0.029   9.066  0.1344  0.1813 -0.5108
30792SOL    HW194755  10.311   0.076   8.985  1.1343  1.6164 -0.0068
30792SOL    HW294756  10.279   0.068   9.133 -0.2974 -0.6253 -0.3867
30793SOL     OW94757   9.924   3.229   8.806 -0.2595  0.4787 -0.3274
30793SOL    HW194758   9.972   3.180   8.873 -0.5592 -0.9661 -1.1072
30793SOL    HW294759   9.864   3.285   8.854  0.4488  0.4533  0.6160
30794SOL     OW94760   6.057   8.603   6.813 -0.4687  0.1818  0.6800
30794SOL    HW194761   6.006   8.522   6.820  0.7607 -1.5586 -4.8514
30794SOL    HW294762   6.006   8.659   6.755  0.8012  1.3758  0.6437
30795SOL     OW94763   2.799   4.133   1.076 -1.0085  0.3508 -0.0637
30795SOL    HW194764   2.873   4.192   1.091 -0.7241 -0.1214  0.4302
30795SOL    HW294765   2.797   4.120   0.982 -0.0042 -0.2210 -0.0103
30796SOL     OW94766   9.581   3.935   4.345 -0.4249 -0.1547 -0.4426
30796SOL    HW194767   9.646   3.911   4.279 -1.3060 -2.1074 -0.6892
30796SOL    HW294768   9.612   3.894   4.426  1.0993  2.9286  0.7077
30797SOL     OW94769   8.061   0.982   5.908 -0.2372  1.3487  0.1430
30797SOL    HW194770   8.035   0.931   5.985  0.0683  0.2906 -0.4332
30797SOL    HW294771   7.995   1.051   5.902 -0.0613  1.6808  1.5611
30798SOL     OW94772   2.184   9.703   1.894  0.1577  0.6794 -0.2301
30798SOL    HW194773   2.112   9.746   1.941  0.2875 -0.3259  0.9559
30798SOL    HW294774   2.216   9.769   1.833 -1.6014  1.2239 -0.5980
30799SOL     OW94775   5.585   7.790   6.290 -0.2983 -0.5607 -0.8617
30799SOL    HW194776   5.671   7.811   6.253  0.4311 -1.0156  0.4686
30799SOL    HW294777   5.602   7.713   6.345 -1.0859  0.6423  1.1685
30800SOL     OW94778   5.653   3.565   5.024  0.2045 -0.3563 -0.1459
30800SOL    HW194779   5.737   3.521   5.026 -0.7192 -2.2241 -0.0392
30800SOL    HW294780   5.636   3.590   5.115  0.6230 -0.0063 -0.1647
30801SOL     OW94781   4.023   8.501   5.481 -0.0462 -0.0080  0.1723
30801SOL    HW194782   3.932   8.510   5.509  1.2104  0.7979  4.6900
30801SOL    HW294783   4.034   8.407   5.465 -1.2469 -0.4050  1.4741
30802SOL     OW94784   4.893   1.814   6.323  0.0368  0.1605 -0.2934
30802SOL    HW194785   4.869   1.883   6.384 -2.8166 -0.3346 -0.6851
30802SOL    HW294786   4.967   1.849   6.274  0.3021  1.8660  1.2429
30803SOL     OW94787   8.199   6.510   0.465  0.2228  0.2724  1.1832
30803SOL    HW194788   8.146   6.577   0.509  0.4337 -0.9852  3.4913
30803SOL    HW294789   8.156   6.427   0.486  0.0111 -0.4076 -1.5662
30804SOL     OW94790   9.957   4.170   5.704 -0.3903  0.2876 -0.1574
30804SOL    HW194791   9.942   4.246   5.759  0.3521  0.1443  0.2526
30804SOL    HW294792  10.046   4.141   5.725 -0.3996 -0.2708 -0.8172
30805SOL     OW94793   5.818   3.852   3.281 -0.3807 -0.4840 -1.0237
30805SOL    HW194794   5.726   3.828   3.271  0.0801 -2.4117 -1.1265
30805SOL    HW294795   5.861   3.770   3.308  1.3298  0.3180 -1.1893
30806SOL     OW94796   6.972   2.565   1.141 -0.6766 -0.4388 -0.0999
30806SOL    HW194797   6.915   2.627   1.094 -2.6629 -2.0345  0.0460
30806SOL    HW294798   6.975   2.488   1.084  0.5188 -0.7723  0.3995
30807SOL     OW94799   1.238   6.641   0.980 -0.4780  0.4919  0.3739
30807SOL    HW194800   1.232   6.548   1.001 -0.1459  0.8109  1.9979
30807SOL    HW294801   1.148   6.666   0.958 -0.6036 -0.1538  0.1232
30808SOL     OW94802   1.760   4.740   3.325  0.1431 -0.0616  0.8278
30808SOL    HW194803   1.804   4.748   3.409 -0.0159  1.3752  0.7855
30808SOL    HW294804   1.685   4.798   3.331  0.0990  0.0240 -0.2921
30809SOL     OW94805   1.314   0.820   9.075  0.0312  0.3709 -0.2742
30809SOL    HW194806   1.262   0.748   9.037  0.2031 -0.2249  0.5900
30809SOL    HW294807   1.315   0.802   9.169  0.5930  1.1807 -0.1137
30810SOL     OW94808   2.805   3.261   9.017  0.4782  0.0187 -0.1471
30810SOL    HW194809   2.754   3.312   8.954  0.5828  0.5440  0.1914
30810SOL    HW294810   2.892   3.301   9.016  0.2806  0.4990  0.8661
30811SOL     OW94811   9.497   5.871   4.054  0.2970 -0.3617  0.2240
30811SOL    HW194812   9.547   5.819   3.991  1.1932 -0.9856  1.3993
30811SOL    HW294813   9.563   5.923   4.100 -0.1180 -1.0974  1.7101
30812SOL     OW94814   2.538   3.537  10.348  0.3567  0.1288  0.2322
30812SOL    HW194815   2.579   3.454  10.370  0.0639  0.1475  0.8537
30812SOL    HW294816   2.608   3.589  10.309  0.7546 -0.0857  0.6603
30813SOL     OW94817   1.658   4.693   5.731 -0.1424 -0.3192  0.1236
30813SOL    HW194818   1.690   4.782   5.750  0.5480 -0.8984  1.8391
30813SOL    HW294819   1.571   4.691   5.771 -0.1354 -0.4369  0.1310
30814SOL     OW94820   6.378   7.715   8.342 -0.3016  0.5642 -0.4011
30814SOL    HW194821   6.330   7.677   8.269  0.0512 -0.6888 -0.0112
30814SOL    HW294822   6.327   7.792   8.368 -0.8270  0.5896 -1.4698
30815SOL     OW94823   9.744  10.542   0.447  0.2530 -0.3940  0.0857
30815SOL    HW194824   9.791  10.601   0.387 -0.5887 -0.3271 -0.5215
30815SOL    HW294825   9.742  10.590   0.530  2.2907 -0.8998  0.4906
30816SOL     OW94826   2.346   3.457   3.357 -0.2278  0.3322  0.3312
30816SOL    HW194827   2.299   3.403   3.421  0.1842 -0.1823  0.1985
30816SOL    HW294828   2.323   3.420   3.272  2.7739 -1.9214  0.3465
30817SOL     OW94829   5.995   6.548   8.115  0.2382  0.2516 -0.0280
30817SOL    HW194830   5.918   6.492   8.124  0.0363  0.6404  0.8252
30817SOL    HW294831   6.054   6.518   8.185  0.1945  0.9774  0.3351
30818SOL     OW94832   1.982   2.930   7.989 -0.2010 -0.1935  0.5536
30818SOL    HW194833   2.014   2.884   7.911 -0.2561  0.4969  0.1221
30818SOL    HW294834   1.947   3.012   7.956  2.4777  1.5003  1.5912
30819SOL     OW94835   3.147   6.817   4.836 -0.1665  0.1426  0.2422
30819SOL    HW194836   3.057   6.841   4.855  0.4056  1.1905  1.8222
30819SOL    HW294837   3.190   6.899   4.813  0.2258 -0.4626 -1.2631
30820SOL     OW94838   9.659   1.564   4.547 -0.3853 -0.2647  0.2174
30820SOL    HW194839   9.595   1.517   4.600 -1.7827  0.5868 -0.6688
30820SOL    HW294840   9.682   1.504   4.477 -1.9566  0.2244 -0.7560
30821SOL     OW94841   5.925   4.069   1.454 -0.0566  1.0060  0.4282
30821SOL    HW194842   5.887   4.090   1.539 -2.0463  2.1627 -0.6555
30821SOL    HW294843   5.889   4.135   1.395  2.2269  0.9756 -1.1130
30822SOL     OW94844   8.055   4.310   6.743  0.3625  0.6245 -0.0193
30822SOL    HW194845   8.135   4.362   6.756 -0.5780  1.9086  0.8615
30822SOL    HW294846   8.033   4.277   6.830  1.0532 -1.5248 -0.5874
30823SOL     OW94847   1.730   1.575   6.486 -0.2099  0.2892  0.4361
30823SOL    HW194848   1.695   1.492   6.519 -1.6915  1.1003  0.9934
30823SOL    HW294849   1.823   1.573   6.508 -0.1525 -1.3470  0.1518
30824SOL     OW94850   9.017   8.033   6.952  0.0204 -0.6953 -0.0574
30824SOL    HW194851   9.015   8.086   6.872  1.0363 -0.4040  0.0965
30824SOL    HW294852   9.109   8.032   6.978 -0.5071  0.7454  2.1340
30825SOL     OW94853   5.401   7.861   8.030 -0.6606  0.3669  0.4215
30825SOL    HW194854   5.361   7.860   8.117  0.4148 -1.7510  0.9665
30825SOL    HW294855   5.353   7.793   7.982  0.1968 -0.0028  0.0779
30826SOL     OW94856   5.503   2.096   5.349 -0.1628 -0.1100 -0.4609
30826SOL    HW194857   5.516   2.003   5.368 -0.0761  0.4735  3.0099
30826SOL    HW294858   5.420   2.118   5.391  0.3186  1.5888 -0.3124
30827SOL     OW94859   9.610   7.746   8.496  0.2665 -0.5557  0.4700
30827SOL    HW194860   9.689   7.727   8.445  0.1540  1.0267 -0.3676
30827SOL    HW294861   9.548   7.780   8.432 -0.3531  0.2039  1.4427
30828SOL     OW94862   7.273   0.378   4.640  0.4609 -0.0422 -0.5320
30828SOL    HW194863   7.245   0.293   4.673 -1.4625 -0.0159 -1.9258
30828SOL    HW294864   7.366   0.367   4.622  0.5267 -1.4412  0.4848
30829SOL     OW94865   5.851   8.281   5.945  0.3528 -0.4505 -0.4041
30829SOL    HW194866   5.789   8.310   5.878  0.2168  0.7379  0.2049
30829SOL    HW294867   5.797   8.272   6.024  0.4958 -1.8998 -0.4570
30830SOL     OW94868   8.920   1.204   1.620  0.6694 -1.0274 -0.1789
30830SOL    HW194869   8.943   1.287   1.578  1.2082 -0.4704  1.1569
30830SOL    HW294870   9.003   1.169   1.651  0.2334 -1.0985  0.9611
30831SOL     OW94871   7.699   0.109   1.849 -0.4532  0.0659 -0.2136
30831SOL    HW194872   7.625   0.167   1.832  0.2028  1.2096  0.6369
30831SOL    HW294873   7.672   0.057   1.924 -1.1448 -0.9484 -1.1367
30832SOL     OW94874   8.970   4.809   2.141  0.2952 -0.0763 -0.0591
30832SOL    HW194875   8.917   4.779   2.214  0.2757 -1.1322 -0.4889
30832SOL    HW294876   9.044   4.748   2.138 -0.2335 -0.7056 -1.5357
30833SOL     OW94877   8.738   9.814  10.452  0.1459 -0.7057 -0.0061
30833SOL    HW194878   8.688   9.736  10.428  0.2474 -0.6785 -0.2984
30833SOL    HW294879   8.774   9.847  10.370 -3.5908  2.3246 -0.7086
30834SOL     OW94880   6.045   8.417   7.617 -0.3543  0.7419 -0.0658
30834SOL    HW194881   6.030   8.511   7.618 -0.2142  0.7670 -0.3307
30834SOL    HW294882   5.965   8.380   7.580 -0.1506  0.8044 -0.5726
30835SOL     OW94883   3.208   5.643   4.177  0.6127 -0.1150 -0.3474
30835SOL    HW194884   3.266   5.648   4.101 -1.8920 -2.6734 -2.6655
30835SOL    HW294885   3.147   5.572   4.156 -1.9754  0.8980  2.8754
30836SOL     OW94886   0.871   9.499   4.648 -0.9169 -0.1236 -0.0118
30836SOL    HW194887   0.830   9.584   4.659 -1.6843 -0.5329  0.3379
30836SOL    HW294888   0.821   9.457   4.577 -0.3799 -0.1831 -0.3606
30837SOL     OW94889   9.591   6.831   7.136 -0.5382  0.1638  0.6396
30837SOL    HW194890   9.656   6.876   7.082  0.0086  0.7770  1.7716
30837SOL    HW294891   9.617   6.850   7.227 -0.6068 -1.9868  1.1693
30838SOL     OW94892   3.794   2.518   2.356 -0.2776  0.1215  0.2160
30838SOL    HW194893   3.889   2.518   2.361 -0.3102  1.1286  1.1159
30838SOL    HW294894   3.774   2.459   2.283  1.0794  1.1309 -1.0360
30839SOL     OW94895   2.403   5.262   2.526  0.4360  0.2098  0.0082
30839SOL    HW194896   2.482   5.302   2.489  0.1050  0.9226  0.0425
30839SOL    HW294897   2.363   5.215   2.453  0.7047  0.1528 -0.1012
30840SOL     OW94898   8.166   7.931   5.258  0.3572 -0.1588  0.4648
30840SOL    HW194899   8.112   7.888   5.325  0.9311  0.4979  1.3773
30840SOL    HW294900   8.171   8.022   5.287  1.7408 -0.1540  0.2605
30841SOL     OW94901   3.584  10.368   6.222  0.6830  0.0005  0.2927
30841SOL    HW194902   3.521  10.390   6.153  1.3653 -0.1219 -0.3882
30841SOL    HW294903   3.665  10.411   6.194  0.4920  1.6158  2.0210
30842SOL     OW94904   8.714   1.348   7.535 -0.4142  0.6660  0.0636
30842SOL    HW194905   8.807   1.348   7.559 -0.5163 -0.7399  0.5028
30842SOL    HW294906   8.714   1.376   7.443  0.5057  0.0461 -0.1403
30843SOL     OW94907   3.809   3.439   2.241 -0.4919  0.0003  0.5164
30843SOL    HW194908   3.896   3.461   2.207 -0.2902  3.4478  2.7632
30843SOL    HW294909   3.749   3.492   2.188 -1.1740 -1.5602 -0.3233
30844SOL     OW94910   7.946   7.566   7.382  0.5098 -0.3352  0.2907
30844SOL    HW194911   8.023   7.592   7.331  0.3031 -0.4905 -0.1020
30844SOL    HW294912   7.880   7.545   7.317 -0.0219  0.2378  0.6337
30845SOL     OW94913   8.088   1.989   5.584  0.3243  0.1646 -0.4097
30845SOL    HW194914   8.181   1.989   5.560 -0.0651  0.2776 -1.9721
30845SOL    HW294915   8.086   2.038   5.667  1.6355  0.2560 -0.3951
30846SOL     OW94916   5.286   1.893   7.859  0.0309  0.1948  0.4864
30846SOL    HW194917   5.272   1.937   7.775 -0.2718  0.1457  0.5109
30846SOL    HW294918   5.323   1.808   7.836  0.0687  0.2306  0.4122
30847SOL     OW94919   8.405   6.742  10.735 -0.4119  0.2167 -0.0857
30847SOL    HW194920   8.448   6.674  10.684 -0.8682 -0.2525  0.1442
30847SOL    HW294921   8.428   6.723  10.826 -0.3256  0.5284 -0.0392
30848SOL     OW94922   5.056   4.166   7.562 -0.4795  0.4619  0.1273
30848SOL    HW194923   5.054   4.081   7.605 -0.8392 -0.7969 -2.2013
30848SOL    HW294924   5.070   4.229   7.633 -0.0865 -1.5236  1.9058
30849SOL     OW94925   2.867   3.516   7.355  0.0938 -0.1868  0.3333
30849SOL    HW194926   2.874   3.494   7.262  0.6908  0.0212  0.3258
30849SOL    HW294927   2.812   3.594   7.357 -2.1641 -1.6899  0.3730
30850SOL     OW94928   4.808   2.112   8.316  1.0569  0.0590 -0.3697
30850SOL    HW194929   4.822   2.207   8.312  2.2802 -0.1540 -2.3116
30850SOL    HW294930   4.896   2.075   8.319  0.6015 -1.0590 -0.3361
30851SOL     OW94931   6.773   6.797   9.642  0.3605 -0.1237  0.0125
30851SOL    HW194932   6.850   6.829   9.690 -0.3769  2.9380 -0.6578
30851SOL    HW294933   6.701   6.804   9.706 -0.0899  1.1553 -0.6048
30852SOL     OW94934   4.727   4.639   3.521  0.0365  0.2420 -0.1197
30852SOL    HW194935   4.720   4.614   3.613 -1.1453  0.1235 -0.2319
30852SOL    HW294936   4.814   4.608   3.495  0.5758  0.6841  1.0654
30853SOL     OW94937   9.891   4.840   1.564  0.5285 -0.3263  0.2416
30853SOL    HW194938   9.929   4.760   1.527  1.0838  0.6514 -1.4177
30853SOL    HW294939   9.928   4.910   1.511 -0.7709  0.9630  0.9798
30854SOL     OW94940   6.216   3.243   4.527 -0.0100 -0.5961  0.2825
30854SOL    HW194941   6.289   3.242   4.465 -0.1034  0.1839  0.1497
30854SOL    HW294942   6.243   3.306   4.594  0.5583 -2.2067  1.6324
30855SOL     OW94943   7.364   3.347   0.323 -0.2625  0.0486 -0.1991
30855SOL    HW194944   7.294   3.299   0.369  1.8607 -0.8011  2.4005
30855SOL    HW294945   7.388   3.289   0.250 -0.2712 -1.0828  0.6701
30856SOL     OW94946   4.631   7.296   1.576 -0.1888 -0.4071 -0.1952
30856SOL    HW194947   4.657   7.278   1.667 -1.2654 -0.3196  0.1502
30856SOL    HW294948   4.535   7.289   1.578 -0.1320 -4.0075 -2.0530
30857SOL     OW94949   2.101  10.676   0.805 -0.1146 -0.0424 -0.0244
30857SOL    HW194950   2.114  10.605   0.742  1.5378  0.0114  0.2022
30857SOL    HW294951   2.021  10.652   0.852  0.2108 -1.5896 -0.1948
30858SOL     OW94952   7.263   9.621   3.442  0.6527 -0.4775  0.2002
30858SOL    HW194953   7.228   9.607   3.530 -1.3582  0.1101 -0.4474
30858SOL    HW294954   7.255   9.715   3.428  0.6872 -0.5981 -0.7024
30859SOL     OW94955   6.975   2.357   8.180 -0.2439  0.5228  0.5455
30859SOL    HW194956   7.070   2.353   8.169 -0.2592  0.3946  0.4700
30859SOL    HW294957   6.962   2.424   8.248  0.0094 -0.7601  1.9161
30860SOL     OW94958   3.731   6.312  10.694  0.2485  0.2833 -0.6487
30860SOL    HW194959   3.740   6.385  10.755 -0.9630  1.6642 -2.0286
30860SOL    HW294960   3.665   6.342  10.631 -2.0255 -2.8622  0.0068
30861SOL     OW94961   4.094   0.212   8.670 -0.3305 -0.3025 -0.0040
30861SOL    HW194962   4.185   0.184   8.682 -0.6446 -1.2834  0.1886
30861SOL    HW294963   4.092   0.245   8.580  0.8089  2.2235  0.8199
30862SOL     OW94964   2.503   2.107   9.303 -0.1664 -0.2151  0.0644
30862SOL    HW194965   2.524   2.149   9.220 -0.4542  1.6321  0.8889
30862SOL    HW294966   2.440   2.039   9.280 -1.0097  0.9226 -1.1183
30863SOL     OW94967   2.579   0.857   3.865 -0.0869 -0.1513 -0.0651
30863SOL    HW194968   2.509   0.794   3.847  1.5502 -2.0682 -0.1056
30863SOL    HW294969   2.552   0.900   3.946 -0.0683 -2.8720  1.5114
30864SOL     OW94970   6.304   1.964   9.790  0.2499  0.1038  0.1953
30864SOL    HW194971   6.392   1.972   9.751  0.1490  0.1637 -0.0219
30864SOL    HW294972   6.248   1.942   9.716 -0.0158  0.6317  0.2408
30865SOL     OW94973   0.624   5.768   5.738 -0.7077 -0.1645 -0.8655
30865SOL    HW194974   0.598   5.840   5.681  2.5975  1.6495 -0.3814
30865SOL    HW294975   0.661   5.703   5.679  1.5567  1.1628 -1.0344
30866SOL     OW94976   0.291   9.673   1.679 -0.7328 -0.0140  0.0859
30866SOL    HW194977   0.225   9.647   1.615  1.2275 -2.9452 -0.9049
30866SOL    HW294978   0.293   9.601   1.743  0.0367  1.0353  1.3128
30867SOL     OW94979   2.369   5.384   3.345 -0.1743  0.1027 -0.1788
30867SOL    HW194980   2.412   5.340   3.418 -2.0610  0.4045  1.1898
30867SOL    HW294981   2.431   5.452   3.319  1.1814 -0.9704  0.1086
30868SOL     OW94982   8.654   8.229   1.511  0.1141  0.2301  0.1706
30868SOL    HW194983   8.735   8.205   1.557 -0.1542  0.0219  0.5439
30868SOL    HW294984   8.680   8.297   1.450  1.1116 -1.6322 -1.6029
30869SOL     OW94985   6.672   4.113   8.936 -0.5103 -0.0228 -0.6446
30869SOL    HW194986   6.624   4.072   9.008  0.3716  0.1112  0.0301
30869SOL    HW294987   6.762   4.119   8.967  0.0455 -0.6068 -2.0239
30870SOL     OW94988  10.695   0.501   5.669 -0.6987 -0.2599  0.3350
30870SOL    HW194989  10.679   0.531   5.579  0.0914  0.4766  0.4291
30870SOL    HW294990  10.782   0.462   5.666 -0.1213  0.9217  1.0458
30871SOL     OW94991   6.866   1.603   4.308 -0.0552  0.2955 -0.5750
30871SOL    HW194992   6.901   1.636   4.391  0.5215 -0.0497 -0.6768
30871SOL    HW294993   6.860   1.508   4.321 -0.3326  0.2820 -0.7970
30872SOL     OW94994   0.635   4.088   6.813 -0.2189  0.7627 -0.3322
30872SOL    HW194995   0.641   4.123   6.724 -0.4973 -1.0750 -1.1100
30872SOL    HW294996   0.590   4.004   6.804  0.8100 -0.0453  1.3672
30873SOL     OW94997   5.181  10.500  10.320 -0.1615 -0.0213 -0.2024
30873SOL    HW194998   5.224  10.560  10.259  0.9476 -1.5576 -0.9870
30873SOL    HW294999   5.198  10.537  10.406  0.2594  0.9401 -0.6833
30874SOL     OW95000   2.043   7.487   0.323 -0.1519  0.0775  0.0391
30874SOL    HW195001   2.007   7.574   0.342 -1.0122 -0.2650  0.0294
30874SOL    HW295002   1.966   7.432   0.308  0.2959 -1.0241  1.4678
30875SOL     OW95003   1.912   9.856   3.826 -0.6314  0.2369 -0.1545
30875SOL    HW195004   1.872   9.837   3.741 -0.9148 -1.7388  0.3743
30875SOL    HW295005   1.942   9.947   3.819 -1.6055  0.4557 -1.9748
30876SOL     OW95006  10.121   1.392   5.324  0.3954 -0.0610 -0.1987
30876SOL    HW195007  10.050   1.329   5.313  0.5431  0.0837 -2.3327
30876SOL    HW295008  10.201   1.344   5.300  1.1229 -0.2965  2.4073
30877SOL     OW95009   8.504   2.034   2.345  0.5382 -0.1186  0.4383
30877SOL    HW195010   8.510   1.941   2.325 -0.7725 -0.4627  1.5293
30877SOL    HW295011   8.526   2.040   2.438 -0.7992  0.4472  0.7426
30878SOL     OW95012   2.414   2.165   5.410  0.1592 -0.1681  0.0825
30878SOL    HW195013   2.506   2.149   5.388  0.8475  0.9696  1.8746
30878SOL    HW295014   2.413   2.255   5.441 -1.0234 -1.0013  2.6966
30879SOL     OW95015  10.731   3.307  10.511  0.2293  0.1284  0.0649
30879SOL    HW195016  10.639   3.330  10.528  0.4283  0.9995  0.0440
30879SOL    HW295017  10.728   3.219  10.475 -0.3098 -1.5015  3.6306
30880SOL     OW95018   0.480   3.734   5.503  0.0283 -0.3338  0.0263
30880SOL    HW195019   0.420   3.662   5.488  1.2513 -1.2571 -0.6689
30880SOL    HW295020   0.497   3.770   5.415  0.0730  0.2582  0.2723
30881SOL     OW95021   0.040   0.068   7.610 -0.1891 -0.2079  0.0771
30881SOL    HW195022   0.085   0.107   7.535 -0.5502 -1.8966 -1.0897
30881SOL    HW295023  -0.016   0.138   7.643 -0.1836  0.5234 -1.3742
30882SOL     OW95024   5.983   7.177   8.121  0.4822 -0.2547 -0.2859
30882SOL    HW195025   5.904   7.125   8.137  0.4196  0.0828  0.5384
30882SOL    HW295026   5.970   7.257   8.171  1.4654 -0.3068  0.0805
30883SOL     OW95027   4.086   6.910  10.492 -0.1418 -0.2155 -0.6071
30883SOL    HW195028   4.080   6.947  10.404  0.3889  0.9585 -0.1764
30883SOL    HW295029   4.026   6.963  10.545 -1.8726 -2.0905 -0.5985
30884SOL     OW95030   9.797   1.485   9.763 -0.3230 -0.2226  0.2002
30884SOL    HW195031   9.787   1.390   9.770 -0.1373 -0.1872  1.0433
30884SOL    HW295032   9.800   1.502   9.669  0.9328 -1.1842  0.0420
30885SOL     OW95033   5.520   6.955   9.668  0.1419  0.1811 -0.6081
30885SOL    HW195034   5.469   6.883   9.705 -0.7589  1.4197  0.7061
30885SOL    HW295035   5.528   6.934   9.575 -2.8535 -0.0675 -0.9141
30886SOL     OW95036   2.042   6.579   2.082 -0.4240  0.6681  0.6757
30886SOL    HW195037   2.024   6.494   2.041 -0.7576  1.6032 -1.2214
30886SOL    HW295038   2.029   6.563   2.175 -1.9140 -1.0258  0.2504
30887SOL     OW95039   1.180   8.383   7.731  0.3582  0.1579  0.1239
30887SOL    HW195040   1.203   8.468   7.769  0.4434  0.4303 -0.5310
30887SOL    HW295041   1.097   8.398   7.686  0.4503 -0.0685 -0.1235
30888SOL     OW95042   8.899   1.812   0.131 -0.2929 -0.2506  0.2982
30888SOL    HW195043   8.927   1.810   0.223 -1.4308 -1.0707  0.6539
30888SOL    HW295044   8.902   1.720   0.104  3.2891  0.2612 -1.5674
30889SOL     OW95045   6.307   1.905   6.881  0.6072  0.1690 -0.2711
30889SOL    HW195046   6.369   1.846   6.923  0.1451  0.5990  1.0778
30889SOL    HW295047   6.348   1.992   6.885  0.6920  0.1741 -1.0173
30890SOL     OW95048   8.175   7.924   7.113  0.2369 -0.0085  0.7911
30890SOL    HW195049   8.221   7.883   7.040 -0.3218 -0.0862  0.4735
30890SOL    HW295050   8.234   7.993   7.143  0.2106  0.4312 -0.1425
30891SOL     OW95051   2.732  10.010   2.592 -0.2698 -0.5928 -0.4905
30891SOL    HW195052   2.828  10.009   2.601 -0.0152 -2.3265 -2.6375
30891SOL    HW295053   2.717  10.046   2.505 -1.5437 -1.1088 -0.4974
30892SOL     OW95054  10.566   5.981   8.366 -0.2952  0.4241  0.8489
30892SOL    HW195055  10.503   6.026   8.422 -2.5809 -0.1265 -1.0838
30892SOL    HW295056  10.524   5.897   8.346  0.4440  0.5316 -1.4946
30893SOL     OW95057   6.881   2.430   6.384 -0.4555 -0.3281 -0.4140
30893SOL    HW195058   6.974   2.411   6.393  0.0659  1.4679 -1.5807
30893SOL    HW295059   6.862   2.414   6.291 -1.5233 -1.4214 -0.0392
30894SOL     OW95060  10.652   8.452   9.109  0.0639 -0.0717  0.5336
30894SOL    HW195061  10.711   8.462   9.035 -0.6859  1.4999  0.0942
30894SOL    HW295062  10.657   8.537   9.154 -2.6660  0.5616 -0.1753
30895SOL     OW95063   0.962   5.599   8.224  0.5359  0.2789 -0.0602
30895SOL    HW195064   0.920   5.678   8.192 -0.4169 -0.1681  0.0632
30895SOL    HW295065   0.914   5.577   8.304  1.9474  0.5778  0.9301
30896SOL     OW95066   2.223   6.088   7.423 -0.1226  0.4296 -0.6327
30896SOL    HW195067   2.130   6.105   7.410  0.1597  1.7526 -1.1373
30896SOL    HW295068   2.264   6.117   7.341  0.9860  2.3678  0.5167
30897SOL     OW95069   5.273   6.355   6.323  0.8042 -0.3092 -0.2017
30897SOL    HW195070   5.318   6.383   6.243  1.3261  0.1714  0.2520
30897SOL    HW295071   5.190   6.403   6.322  0.8956 -0.1546 -0.3530
30898SOL     OW95072   9.429   0.013   9.683 -0.2544 -0.0834 -0.6019
30898SOL    HW195073   9.358  -0.050   9.694 -2.6700  2.7301  1.5604
30898SOL    HW295074   9.489  -0.003   9.756 -0.5157 -0.2774 -0.4300
30899SOL     OW95075   6.117   8.200   0.134  1.2947 -0.0235  0.0157
30899SOL    HW195076   6.080   8.113   0.143 -1.5402  0.9675 -0.9460
30899SOL    HW295077   6.089   8.246   0.214 -0.9073  1.1164 -1.3000
30900SOL     OW95078   0.007   9.337   6.694 -0.0188 -0.1737  0.3517
30900SOL    HW195079   0.050   9.261   6.734  0.6485  0.2076  0.3883
30900SOL    HW295080  -0.080   9.306   6.671 -0.1174 -0.6534  1.3090
30901SOL     OW95081   3.873   0.412   2.473  0.1944 -0.4041  0.8508
30901SOL    HW195082   3.809   0.384   2.408 -0.6353  1.8053  0.6569
30901SOL    HW295083   3.950   0.358   2.455 -0.0239  0.0867 -1.9492
30902SOL     OW95084   2.102   5.344   3.799  0.3357  0.4209 -0.1433
30902SOL    HW195085   2.154   5.289   3.741 -0.3304  0.4218 -0.7628
30902SOL    HW295086   2.164   5.405   3.838  1.0880 -0.7405  0.5484
30903SOL     OW95087   3.073   0.676   7.376  0.4074  0.0846  0.3825
30903SOL    HW195088   3.089   0.590   7.337  1.1523  0.7866 -0.9509
30903SOL    HW295089   3.072   0.660   7.470  0.3567 -1.4067  0.1593
30904SOL     OW95090   7.590   5.511   3.199  0.1868 -0.3514 -0.0562
30904SOL    HW195091   7.528   5.456   3.150  1.1146 -1.5608  0.0693
30904SOL    HW295092   7.676   5.481   3.170  0.7583  1.8244 -0.8123
30905SOL     OW95093   3.090   8.701   6.838  0.5556  0.3744 -0.1887
30905SOL    HW195094   3.005   8.683   6.797  0.0273  1.8153  0.2426
30905SOL    HW295095   3.154   8.676   6.772 -0.2713  2.8252 -2.0518
30906SOL     OW95096   5.393  10.482   4.259  0.7161 -0.2472  0.2415
30906SOL    HW195097   5.446  10.408   4.228  0.1123 -0.4972 -0.2285
30906SOL    HW295098   5.356  10.453   4.342  0.9541 -0.2486  0.3457
30907SOL     OW95099   4.207   7.482   3.276 -0.1838  0.6789 -0.3433
30907SOL    HW195100   4.269   7.528   3.332 -0.0880  1.4570 -1.0714
30907SOL    HW295101   4.256   7.407   3.242 -0.3702 -0.0518  0.9202
30908SOL     OW95102   8.442   2.441   5.598 -0.3583  0.4894  0.2180
30908SOL    HW195103   8.454   2.373   5.533 -0.6892  2.2539 -1.8075
30908SOL    HW295104   8.348   2.444   5.613 -0.3058  0.2458  0.6014
30909SOL     OW95105   3.022   3.647  10.183  0.3058 -0.3657  0.2828
30909SOL    HW195106   2.939   3.647  10.231  0.9338 -1.9409  1.4633
30909SOL    HW295107   3.005   3.701  10.106 -1.9666 -1.0474  0.2295
30910SOL     OW95108   1.494   4.217  10.468  0.5931 -0.7267  0.7412
30910SOL    HW195109   1.464   4.139  10.420 -0.6569  0.3784 -0.3516
30910SOL    HW295110   1.588   4.220  10.452  0.4705 -1.3616 -0.1876
30911SOL     OW95111   6.659   6.410   7.561  0.1615 -0.1188  0.3133
30911SOL    HW195112   6.720   6.354   7.609 -0.5686 -0.4232  0.9090
30911SOL    HW295113   6.581   6.413   7.616  0.0870  1.2874  0.1811
30912SOL     OW95114   7.444   9.440   2.900  0.0756 -0.0675  0.4724
30912SOL    HW195115   7.424   9.509   2.836  0.1124  0.7671  1.3333
30912SOL    HW295116   7.472   9.365   2.848 -0.5975  0.3568 -0.5217
30913SOL     OW95117   0.940  10.488   4.183  0.4051 -0.1351  0.0991
30913SOL    HW195118   1.000  10.441   4.241  1.3996 -0.3494 -1.0569
30913SOL    HW295119   0.976  10.475   4.095 -0.1334  1.5441 -0.4088
30914SOL     OW95120  10.378   8.468   2.817  0.1469  0.1967  0.2306
30914SOL    HW195121  10.461   8.432   2.848 -1.0313 -2.1548  0.8733
30914SOL    HW295122  10.317   8.454   2.889 -1.1624  0.5176 -0.7738
30915SOL     OW95123   7.705   8.257   9.877  0.0420 -0.4509  0.5535
30915SOL    HW195124   7.695   8.192   9.807 -1.0386  0.6684 -0.3788
30915SOL    HW295125   7.616   8.287   9.895  0.6189  2.1787 -0.4564
30916SOL     OW95126   3.990   2.555   1.561  0.2331 -0.5120  0.2542
30916SOL    HW195127   4.068   2.507   1.590  0.8335 -0.2425 -0.8769
30916SOL    HW295128   4.020   2.645   1.546  0.3183 -0.9182 -2.5344
30917SOL     OW95129   8.321   0.829   9.491 -0.3970  0.7500  0.2898
30917SOL    HW195130   8.345   0.901   9.432 -1.2895  1.2563  0.5411
30917SOL    HW295131   8.243   0.859   9.536 -0.0924  0.1045  1.2867
30918SOL     OW95132   1.149   5.256  10.479  0.4576 -0.1985 -0.4560
30918SOL    HW195133   1.136   5.193  10.549 -0.4892  0.9474  0.4433
30918SOL    HW295134   1.222   5.222  10.428  0.3682 -1.6710  0.3745
30919SOL     OW95135   8.824   9.635   9.731  0.1180 -0.2174  0.1651
30919SOL    HW195136   8.915   9.645   9.703  0.1698  0.0290  0.4232
30919SOL    HW295137   8.795   9.724   9.749 -0.6753 -0.0956 -1.4702
30920SOL     OW95138   9.892   0.754   5.097  0.3038  0.1447  0.0032
30920SOL    HW195139   9.859   0.837   5.063  0.7168  0.6564  0.8250
30920SOL    HW295140   9.938   0.778   5.178  0.0625 -0.9377  0.4687
30921SOL     OW95141   8.262   3.570   2.456  0.1831  0.0517  0.4998
30921SOL    HW195142   8.253   3.639   2.390 -1.0828  1.2451  1.8456
30921SOL    HW295143   8.356   3.566   2.474  0.4141  0.4985 -0.5488
30922SOL     OW95144   1.784   7.637   9.816 -0.1936 -0.6632 -0.3583
30922SOL    HW195145   1.726   7.566   9.786 -0.9148  0.9188 -3.0169
30922SOL    HW295146   1.725   7.702   9.852  0.0754  0.0658 -1.1861
30923SOL     OW95147   2.707   1.128   1.851 -0.4264 -0.0069  0.1981
30923SOL    HW195148   2.693   1.071   1.776 -1.7698 -0.3961  0.7173
30923SOL    HW295149   2.795   1.106   1.882 -0.9964 -2.0192  0.5520
30924SOL     OW95150   9.543   6.782   4.348  0.0519  0.5388  0.2821
30924SOL    HW195151   9.457   6.812   4.320 -0.7037 -1.3343  0.4700
30924SOL    HW295152   9.544   6.798   4.442  0.2409  1.3007  0.1575
30925SOL     OW95153   9.670   7.447   8.138  0.4140  0.0736  0.2917
30925SOL    HW195154   9.742   7.495   8.179  0.7731  0.1257 -0.3881
30925SOL    HW295155   9.598   7.455   8.201  0.6646  0.9538  0.4931
30926SOL     OW95156   0.095   3.948   6.209  0.2905 -0.0836  0.2346
30926SOL    HW195157   0.087   3.889   6.134  0.9723 -0.8644  0.7557
30926SOL    HW295158   0.046   4.026   6.184  1.0196 -0.0754 -1.2816
30927SOL     OW95159   7.345   0.730   2.353 -0.7316 -0.2857 -0.4915
30927SOL    HW195160   7.437   0.750   2.335 -0.9271  0.1997 -0.9474
30927SOL    HW295161   7.324   0.780   2.432 -0.6944 -0.1574 -0.5638
30928SOL     OW95162   8.379   2.277   1.160 -0.2589 -0.3198 -0.6472
30928SOL    HW195163   8.393   2.343   1.093 -0.9968  2.1052  1.4002
30928SOL    HW295164   8.347   2.201   1.113  1.2664  0.5070 -3.2169
30929SOL     OW95165   7.841   1.138   0.197 -0.1875  0.0649 -0.0340
30929SOL    HW195166   7.919   1.177   0.157 -0.3252 -0.6409 -1.0342
30929SOL    HW295167   7.769   1.167   0.142 -0.4016 -0.8000 -0.2361
30930SOL     OW95168   1.340   2.562   2.030  0.1691  0.0966 -0.2085
30930SOL    HW195169   1.382   2.509   2.098  1.1090 -0.5612 -1.2676
30930SOL    HW295170   1.326   2.647   2.071  2.2206  0.2177  0.3266
30931SOL     OW95171   6.066   1.820   0.501 -0.3632 -0.3218  0.4254
30931SOL    HW195172   6.024   1.744   0.542  0.3029 -0.4558  0.8736
30931SOL    HW295173   5.993   1.879   0.480 -0.6884  0.2884  2.8815
30932SOL     OW95174  10.693   2.276   8.406  0.2216 -0.2578  0.2447
30932SOL    HW195175  10.696   2.202   8.345  0.9223  0.8142 -1.0708
30932SOL    HW295176  10.705   2.353   8.350  2.7226  0.6779  1.9040
30933SOL     OW95177   7.823   8.519   1.638  0.4022 -0.5341  0.1979
30933SOL    HW195178   7.773   8.441   1.660  1.9151 -1.2288  1.3052
30933SOL    HW295179   7.914   8.491   1.640  0.9105  0.8988 -0.9405
30934SOL     OW95180   1.101   3.276   6.133 -0.2119  0.2090  0.5481
30934SOL    HW195181   1.120   3.358   6.177  1.1088  0.1275  0.1798
30934SOL    HW295182   1.175   3.219   6.154 -0.9273 -0.7672  0.5034
30935SOL     OW95183   7.999   3.421   7.700  1.1458 -0.1193  0.2225
30935SOL    HW195184   7.913   3.405   7.661  1.1752  1.0784 -0.3653
30935SOL    HW295185   7.984   3.413   7.794  0.5671 -0.6972  0.0859
30936SOL     OW95186   2.739   5.837  10.129  0.3384 -0.7561 -0.1068
30936SOL    HW195187   2.718   5.797  10.214  0.1554  1.1760  0.8184
30936SOL    HW295188   2.808   5.900  10.149  0.4731 -0.4614 -1.4489
30937SOL     OW95189   2.572   7.785   8.778  0.1266  0.2740  0.1207
30937SOL    HW195190   2.623   7.706   8.790 -0.5382 -0.0691  0.8169
30937SOL    HW295191   2.633   7.857   8.797  1.0415  0.0007 -1.6241
30938SOL     OW95192   4.697   5.907   5.546  0.3586 -0.1998  0.1957
30938SOL    HW195193   4.678   5.819   5.515  1.9966  0.0170 -1.6253
30938SOL    HW295194   4.613   5.952   5.543 -0.0884 -1.0556 -1.1532
30939SOL     OW95195   2.961   6.324   6.101 -0.4497  0.6773  0.0846
30939SOL    HW195196   3.026   6.254   6.111 -1.0357  0.0688 -0.3464
30939SOL    HW295197   2.919   6.330   6.187 -0.7093  0.1931 -0.0071
30940SOL     OW95198   6.129   9.816   4.817  0.2482 -0.5384 -0.0417
30940SOL    HW195199   6.080   9.887   4.858 -1.2209 -0.6658 -1.4798
30940SOL    HW295200   6.175   9.858   4.744 -1.7018 -1.2063 -1.7465
30941SOL     OW95201   0.738   6.840   1.472  0.9337  0.4741  0.2155
30941SOL    HW195202   0.660   6.808   1.426 -0.2868  2.7227  0.5570
30941SOL    HW295203   0.810   6.825   1.411 -0.2961  1.2716 -1.5355
30942SOL     OW95204   1.981   5.861   9.679  0.6637 -0.0990  0.3205
30942SOL    HW195205   1.909   5.825   9.732  0.4083 -0.5147 -0.3015
30942SOL    HW295206   1.938   5.908   9.608  0.9914 -1.2027 -0.6370
30943SOL     OW95207   7.732   1.947  10.275  0.0989  0.0065 -0.0603
30943SOL    HW195208   7.652   2.000  10.276 -0.3373 -0.6399  0.1364
30943SOL    HW295209   7.731   1.904  10.190  0.9580  1.0497 -0.6168
30944SOL     OW95210   7.188   6.378  10.782  0.5962  0.1998  0.0958
30944SOL    HW195211   7.139   6.389  10.863  1.1840 -0.3723  0.5399
30944SOL    HW295212   7.134   6.421  10.715 -0.3539 -0.1486  0.6177
30945SOL     OW95213   0.965   2.617   9.965  0.0076 -0.0217 -0.2198
30945SOL    HW195214   1.026   2.576   9.904 -0.1454  1.2151 -1.2494
30945SOL    HW295215   0.999   2.596  10.052  1.1950 -0.3867 -0.7551
30946SOL     OW95216   2.681   4.292   0.106 -0.2936 -0.7912 -0.2790
30946SOL    HW195217   2.760   4.288   0.161  0.7501 -0.9284 -1.7372
30946SOL    HW295218   2.609   4.270   0.166  0.7867 -0.8592  1.0388
30947SOL     OW95219  10.009   0.398   8.270  0.2707 -0.5768  0.4392
30947SOL    HW195220  10.004   0.303   8.273 -0.1535 -0.5884 -0.3838
30947SOL    HW295221  10.096   0.417   8.235  1.1328 -0.6103  2.4625
30948SOL     OW95222   8.726   9.610   5.469 -0.0432  0.1560  0.0977
30948SOL    HW195223   8.733   9.675   5.540 -0.6833 -1.2124  1.4769
30948SOL    HW295224   8.791   9.544   5.490  0.8717  0.4985 -1.5091
30949SOL     OW95225   7.350   5.049   8.737 -0.1258 -0.0081  0.1187
30949SOL    HW195226   7.442   5.037   8.762 -0.2807  0.5674  1.0388
30949SOL    HW295227   7.336   5.144   8.742 -0.9369 -0.1408  0.6385
30950SOL     OW95228   4.941   5.548   6.159 -0.3355 -0.0700  0.5148
30950SOL    HW195229   4.931   5.507   6.073  0.2028 -0.7482  0.7581
30950SOL    HW295230   4.904   5.484   6.220  2.9834 -1.5917  1.2028
30951SOL     OW95231   6.361   6.912   0.074  0.6171 -1.0601 -0.8039
30951SOL    HW195232   6.375   6.819   0.062 -1.2352 -1.5981  0.6415
30951SOL    HW295233   6.267   6.920   0.090  0.9786  0.8148  0.8236
30952SOL     OW95234   9.725   0.166   2.616 -0.1770 -0.4451 -0.3651
30952SOL    HW195235   9.643   0.119   2.604 -0.4970 -0.4157  1.4649
30952SOL    HW295236   9.708   0.226   2.688  0.4269  2.0479 -2.1713
30953SOL     OW95237   1.761   2.103   6.683  0.3669 -0.1965 -0.1536
30953SOL    HW195238   1.790   2.194   6.687 -0.9362  0.2768 -0.6625
30953SOL    HW295239   1.674   2.108   6.642  0.6609 -1.7582 -1.0397
30954SOL     OW95240   0.423   1.147  10.723  0.4222  0.0939 -0.3947
30954SOL    HW195241   0.384   1.229  10.751 -0.3947 -0.8820  1.5302
30954SOL    HW295242   0.517   1.164  10.721  0.2221  1.2370 -0.6814
30955SOL     OW95243   2.804   5.885   3.875 -0.3070  0.1024  0.2792
30955SOL    HW195244   2.899   5.892   3.880  0.0680  0.3386 -3.7508
30955SOL    HW295245   2.783   5.806   3.926  2.0865 -0.1937  0.9159
30956SOL     OW95246   8.189   4.050   1.457  0.0151  0.3164 -0.0590
30956SOL    HW195247   8.102   4.082   1.481  0.6280  0.8345  1.6201
30956SOL    HW295248   8.192   4.059   1.362 -1.5879  0.7218 -0.1100
30957SOL     OW95249   2.164   4.444   9.861  0.0272 -0.1636 -0.1867
30957SOL    HW195250   2.216   4.503   9.916  1.1850 -0.8287 -0.5361
30957SOL    HW295251   2.095   4.499   9.824  1.0899  0.9730 -0.5230
30958SOL     OW95252   2.864   4.901   0.523  0.7741  0.3332  0.2666
30958SOL    HW195253   2.857   4.827   0.462 -1.8554  0.8692 -0.2248
30958SOL    HW295254   2.931   4.874   0.586 -0.0976 -2.4832  0.1293
30959SOL     OW95255   8.641   1.424   5.953 -0.5232 -0.2630 -0.1240
30959SOL    HW195256   8.709   1.365   5.922  1.8757  0.6567  2.8818
30959SOL    HW295257   8.564   1.368   5.963 -0.1804 -1.4580 -3.1058
30960SOL     OW95258   2.519   7.404   5.016 -0.0857 -0.5046  0.4440
30960SOL    HW195259   2.508   7.492   4.980  0.4474 -0.5462  0.1622
30960SOL    HW295260   2.484   7.346   4.948 -0.6638 -0.4971  0.7361
30961SOL     OW95261   2.026   0.540   3.097 -0.2289  0.0987  0.0771
30961SOL    HW195262   2.016   0.635   3.090 -1.7373  0.0589  1.1102
30961SOL    HW295263   1.960   0.514   3.161  1.4528 -1.4291  1.2854
30962SOL     OW95264   8.292   2.911   0.686  0.5736 -0.1663  0.2880
30962SOL    HW195265   8.304   2.997   0.724 -0.2400 -0.0246  0.2456
30962SOL    HW295266   8.379   2.871   0.687  1.1696  1.0576 -0.6969
30963SOL     OW95267   7.443   5.915   2.041  0.6394 -0.5985 -0.4427
30963SOL    HW195268   7.533   5.887   2.026  0.9591  0.5207 -0.7271
30963SOL    HW295269   7.427   5.898   2.134  2.8846  3.7063  0.9667
30964SOL     OW95270   8.616   9.492   6.912  0.1657 -0.0314 -0.1072
30964SOL    HW195271   8.701   9.464   6.877  0.0544 -0.0700 -0.3444
30964SOL    HW295272   8.554   9.428   6.879  0.2143 -0.6975  1.0432
30965SOL     OW95273   7.582   5.749   3.333  0.0549 -0.4708  0.2622
30965SOL    HW195274   7.600   5.672   3.280 -2.5462  1.2318 -3.5570
30965SOL    HW295275   7.622   5.822   3.284 -0.9835  1.0579  1.5767
30966SOL     OW95276   6.936   9.847   2.504  0.5930 -0.0396  0.1300
30966SOL    HW195277   6.950   9.766   2.552 -0.5380 -0.2577  0.1330
30966SOL    HW295278   7.023   9.886   2.496  0.9711 -0.5915  1.2948
30967SOL     OW95279   4.558   6.410   2.065  0.1221 -0.0291  0.9817
30967SOL    HW195280   4.468   6.435   2.044  0.6821  0.4044 -1.0667
30967SOL    HW295281   4.586   6.474   2.130  0.0543  2.0744 -0.9385
30968SOL     OW95282   3.633   1.298   3.698 -0.0472  0.8654 -0.6490
30968SOL    HW195283   3.727   1.314   3.703 -0.3035  2.2511  0.2590
30968SOL    HW295284   3.625   1.203   3.688  1.3945  0.4762  1.3323
30969SOL     OW95285   5.403   2.213   3.351  0.3276 -0.2697  0.4229
30969SOL    HW195286   5.425   2.283   3.411  0.3372  1.5345 -1.5454
30969SOL    HW295287   5.313   2.188   3.375  0.5713 -0.0812  1.5761
30970SOL     OW95288   5.128   3.068  10.139  0.5180 -0.4011  0.6060
30970SOL    HW195289   5.183   3.094  10.213  0.1945  1.9547  0.0935
30970SOL    HW295290   5.110   3.150  10.092 -1.0244 -1.5267 -0.8945
30971SOL     OW95291   8.210   6.814   4.365 -0.2025  0.5004  0.3221
30971SOL    HW195292   8.136   6.811   4.425 -0.3265  0.9965  0.1972
30971SOL    HW295293   8.286   6.792   4.418 -0.1094  2.2938  0.9752
30972SOL     OW95294  10.072   3.804   0.358  0.5627  0.1390  0.5344
30972SOL    HW195295   9.991   3.789   0.308  0.9445 -1.1869  0.2704
30972SOL    HW295296  10.046   3.860   0.430 -0.3854  0.5786 -0.1352
30973SOL     OW95297   8.577   1.737   0.137  0.4568 -0.7318  0.3190
30973SOL    HW195298   8.487   1.769   0.127  1.2757  1.5217 -0.1937
30973SOL    HW295299   8.612   1.787   0.210  1.9241 -0.0676 -0.8003
30974SOL     OW95300   8.493   5.992   0.390 -0.0667 -0.3363 -0.0435
30974SOL    HW195301   8.400   6.015   0.388  0.1278  0.4309 -0.7235
30974SOL    HW295302   8.533   6.050   0.326  0.9333 -0.4544  0.4606
30975SOL     OW95303   2.819  10.158   9.739  0.4836  0.8295 -0.0623
30975SOL    HW195304   2.837  10.120   9.825  1.5957 -1.3636 -1.1667
30975SOL    HW295305   2.877  10.234   9.734  1.1034  0.4285  0.7740
30976SOL     OW95306   1.266   1.318   2.256 -0.1229  0.1662 -0.5287
30976SOL    HW195307   1.227   1.240   2.217 -1.4370 -0.2750  1.5604
30976SOL    HW295308   1.226   1.391   2.208 -1.8383 -0.3477  0.0719
30977SOL     OW95309   6.782   0.453   3.786 -0.6138 -0.2813  0.2655
30977SOL    HW195310   6.806   0.370   3.829 -1.7622 -0.1712  1.1695
30977SOL    HW295311   6.713   0.490   3.841  0.3400  1.6327  0.2618
30978SOL     OW95312   5.869   0.308   3.479  0.1427 -0.0333 -0.1591
30978SOL    HW195313   5.853   0.383   3.538  0.0694  0.4170 -0.7459
30978SOL    HW295314   5.849   0.341   3.392 -1.8814 -1.3310 -0.2365
30979SOL     OW95315   3.683   3.702   7.614 -0.7224  0.0262  0.0829
30979SOL    HW195316   3.671   3.796   7.628  0.3950  0.0976  0.5900
30979SOL    HW295317   3.623   3.661   7.676 -2.2977  0.3802 -1.1284
30980SOL     OW95318   8.753   3.219   9.158 -0.3023  0.2307  0.0971
30980SOL    HW195319   8.775   3.134   9.196  0.1016 -1.5793 -3.7118
30980SOL    HW295320   8.834   3.270   9.166  0.0783 -0.4398  0.7052
30981SOL     OW95321   0.674   4.702   8.736 -0.3129 -0.1949 -0.1913
30981SOL    HW195322   0.746   4.728   8.793  0.5438 -1.2138 -0.7760
30981SOL    HW295323   0.642   4.620   8.773 -0.6111 -0.1846 -0.4213
30982SOL     OW95324   9.617   3.997   3.558  0.6924 -0.6213 -0.3812
30982SOL    HW195325   9.545   4.057   3.539  1.1414  0.0252 -0.0775
30982SOL    HW295326   9.614   3.986   3.653  2.2125  1.0135 -0.0931
30983SOL     OW95327   6.193   9.300   4.462 -0.5766  0.0958  0.4336
30983SOL    HW195328   6.146   9.217   4.456  1.1315 -1.0013  1.4928
30983SOL    HW295329   6.189   9.324   4.554  2.2172 -0.8683  0.8880
30984SOL     OW95330   9.529   1.490   2.133  0.3235  0.1326 -0.0672
30984SOL    HW195331   9.603   1.446   2.175  0.2421  1.8773  2.1083
30984SOL    HW295332   9.506   1.562   2.193 -1.9722  0.7757 -1.5567
30985SOL     OW95333   2.655   4.542   4.309  0.0243  0.6792  0.2017
30985SOL    HW195334   2.581   4.568   4.255  0.9317  2.6553 -0.1882
30985SOL    HW295335   2.726   4.528   4.247  0.3091  0.0056  0.6669
30986SOL     OW95336   8.194   6.242  10.002  0.2868  0.0492 -0.0725
30986SOL    HW195337   8.277   6.195  10.006 -0.4315 -1.1918  2.8093
30986SOL    HW295338   8.130   6.182  10.040 -1.3308  2.1302  0.7309
30987SOL     OW95339   9.012   2.213   4.618 -0.2729 -0.3159  0.8090
30987SOL    HW195340   9.083   2.189   4.558 -1.0231  0.2136 -0.3338
30987SOL    HW295341   9.005   2.138   4.677 -0.2295 -1.3710 -0.4629
30988SOL     OW95342   2.321   2.590   7.106  0.0111 -0.1820  0.0265
30988SOL    HW195343   2.325   2.499   7.135  0.7498 -0.5465 -1.1361
30988SOL    HW295344   2.412   2.612   7.084 -0.3433  0.4019 -0.9199
30989SOL     OW95345   3.576  10.403   6.681  0.0770 -0.2518  0.4953
30989SOL    HW195346   3.511  10.434   6.618  0.7428  1.8436  0.7823
30989SOL    HW295347   3.544  10.316   6.707 -2.1267  0.3433 -0.0264
30990SOL     OW95348   3.776   4.784   3.415 -0.0195 -0.3989  0.0605
30990SOL    HW195349   3.811   4.724   3.480 -0.6442 -0.4606  0.3525
30990SOL    HW295350   3.851   4.835   3.386 -0.1555  2.0050  3.2829
30991SOL     OW95351   9.262   3.350   8.977  0.3167  0.0706  0.3025
30991SOL    HW195352   9.195   3.331   9.044  0.9219 -0.7668  0.6879
30991SOL    HW295353   9.239   3.437   8.945 -0.6309  0.0327  0.8284
30992SOL     OW95354   3.959   0.474   6.647 -0.4218 -0.7154 -0.1445
30992SOL    HW195355   4.029   0.522   6.604  1.0979 -0.7662  2.1142
30992SOL    HW295356   3.934   0.529   6.721 -1.5306 -1.5272  0.1144
30993SOL     OW95357   9.048   4.014   8.496  0.2057  0.1314  0.1586
30993SOL    HW195358   9.054   3.995   8.590 -0.0795 -0.1248  0.1284
30993SOL    HW295359   8.990   3.945   8.462  0.5716  0.0271 -0.2585
30994SOL     OW95360  10.664   1.093   9.733  0.1096  0.2546  0.0633
30994SOL    HW195361  10.644   1.039   9.809  1.0287  2.0942  1.7001
30994SOL    HW295362  10.669   1.182   9.767  0.4920  1.1627 -2.1760
30995SOL     OW95363   9.108   9.718   3.214  0.3506  0.1371  0.5343
30995SOL    HW195364   9.023   9.706   3.172  1.0461 -0.4972 -0.7502
30995SOL    HW295365   9.101   9.802   3.258 -0.8633  0.1942  0.2830
30996SOL     OW95366   3.400   3.035   6.371 -0.1160  0.5732 -0.0373
30996SOL    HW195367   3.452   2.996   6.442 -1.2013  1.5514  1.3576
30996SOL    HW295368   3.309   3.018   6.396 -0.5216 -0.1023 -1.8448
30997SOL     OW95369   3.421   1.145   5.470  0.0497  0.3021 -0.0421
30997SOL    HW195370   3.441   1.094   5.549  1.7152  0.0257 -0.5958
30997SOL    HW295371   3.351   1.204   5.497  0.3523 -0.0076  1.5576
30998SOL     OW95372  10.197   3.907   1.453 -0.4152 -0.0825 -0.0640
30998SOL    HW195373  10.282   3.874   1.426  0.7930 -0.0866  3.2250
30998SOL    HW295374  10.144   3.828   1.466 -0.5310 -0.1504 -0.9012
30999SOL     OW95375   5.807   1.693   8.854 -0.1693  0.0029  0.3241
30999SOL    HW195376   5.776   1.763   8.796  1.6142  0.4234 -0.2027
30999SOL    HW295377   5.769   1.714   8.939 -1.4459  0.3485 -0.2955
31000SOL     OW95378   9.578   2.489   0.971 -0.3812 -0.3977 -0.2402
31000SOL    HW195379   9.667   2.475   1.004 -0.9388 -2.6444  0.5166
31000SOL    HW295380   9.546   2.564   1.021  1.3619  1.0991 -1.2297
31001SOL     OW95381   8.668   7.792   7.764  0.1826  0.2926 -0.5057
31001SOL    HW195382   8.671   7.732   7.838 -1.3894  1.9816  1.0335
31001SOL    HW295383   8.621   7.744   7.696 -1.1399 -0.2305  0.7245
31002SOL     OW95384   3.950   8.707   1.821  0.5446 -0.5492  0.0231
31002SOL    HW195385   3.988   8.716   1.734 -0.4836 -2.4371 -0.6720
31002SOL    HW295386   3.862   8.744   1.813  0.0760 -1.6459 -0.0424
31003SOL     OW95387   9.608   5.640   9.221  0.3180  0.1785  0.1425
31003SOL    HW195388   9.620   5.642   9.316 -3.3920 -0.0759  0.7486
31003SOL    HW295389   9.687   5.596   9.188  1.6027  0.0399  3.0954
31004SOL     OW95390   1.262   9.182   7.269  0.1283  0.3814  0.5501
31004SOL    HW195391   1.314   9.126   7.327 -0.1186  1.5313  1.9209
31004SOL    HW295392   1.192   9.124   7.238  2.3900 -1.3686 -1.7741
31005SOL     OW95393   7.263   4.881   0.973  0.0496 -0.0397 -0.1159
31005SOL    HW195394   7.288   4.957   0.920  1.1372 -0.4272 -0.2006
31005SOL    HW295395   7.301   4.899   1.059 -0.6359  0.0090  0.1818
31006SOL     OW95396   6.450   3.818   7.170 -0.1118  0.2759 -0.0613
31006SOL    HW195397   6.436   3.855   7.083 -0.5785  0.7202  0.1961
31006SOL    HW295398   6.542   3.835   7.189 -0.0113  0.1874 -0.4630
31007SOL     OW95399   8.162   9.304   3.961  0.0844 -0.2622  0.3258
31007SOL    HW195400   8.210   9.241   3.907  0.7285  0.2178  0.3210
31007SOL    HW295401   8.108   9.352   3.898 -2.2115 -2.3399  0.6008
31008SOL     OW95402   6.960  10.004   7.846  0.3091  0.2099  0.1496
31008SOL    HW195403   6.948   9.912   7.823  0.0815  0.2674  0.0273
31008SOL    HW295404   7.002  10.043   7.769 -1.9254  0.7515 -0.9191
31009SOL     OW95405   1.115   9.669   2.944 -0.2260 -0.3435  0.2143
31009SOL    HW195406   1.061   9.720   3.004 -0.6614 -1.2229  0.5811
31009SOL    HW295407   1.052   9.624   2.888  0.1327 -1.0512  0.3685
31010SOL     OW95408  10.634   1.971   6.799 -0.1823  0.0033 -0.1747
31010SOL    HW195409  10.636   2.012   6.885  1.3726  0.4643 -0.3944
31010SOL    HW295410  10.724   1.943   6.783 -0.6628 -1.1066 -1.1817
31011SOL     OW95411   2.148   4.666   3.580  0.0651 -0.3866  0.5885
31011SOL    HW195412   2.162   4.603   3.509  1.0480  0.0488  0.3740
31011SOL    HW295413   2.170   4.617   3.660  0.1184 -0.5252  0.4893
31012SOL     OW95414   8.498   0.192   2.335 -0.0117  0.3832  0.1325
31012SOL    HW195415   8.552   0.150   2.268 -0.8939 -0.4907 -0.0702
31012SOL    HW295416   8.476   0.121   2.395  1.4371  1.3117  1.8411
31013SOL     OW95417  10.309   1.352  10.135 -0.3149 -0.2793  0.4962
31013SOL    HW195418  10.248   1.342  10.063  0.5191  0.0346 -0.2766
31013SOL    HW295419  10.312   1.446  10.152 -0.1978 -0.3122  0.6600
31014SOL     OW95420   9.078   9.928   9.863 -0.2897  0.2206  0.4265
31014SOL    HW195421   9.100  10.019   9.882 -0.1994  0.4487 -0.6991
31014SOL    HW295422   9.124   9.878   9.930  2.9305  0.7606 -1.1740
31015SOL     OW95423   2.907   3.691   4.632  0.1328 -0.6498  0.4820
31015SOL    HW195424   2.990   3.705   4.586 -0.1952 -1.3001 -0.3206
31015SOL    HW295425   2.870   3.613   4.592  0.0321 -1.4971  2.1562
31016SOL     OW95426   3.469   4.703   1.593  0.4931  0.0878  0.2992
31016SOL    HW195427   3.457   4.609   1.610  1.5241  0.1438  1.5445
31016SOL    HW295428   3.509   4.736   1.674  1.4133  1.3298 -0.6262
31017SOL     OW95429   8.660   7.250   1.016 -0.4865 -0.0659  0.1513
31017SOL    HW195430   8.623   7.337   1.030  0.8796  0.3651  1.4227
31017SOL    HW295431   8.584   7.191   1.014 -1.3326  0.9650  0.9982
31018SOL     OW95432   3.645   6.689   3.819  0.3073 -0.3179  0.4572
31018SOL    HW195433   3.576   6.684   3.753  0.1171 -3.0077  0.7478
31018SOL    HW295434   3.599   6.711   3.900  0.3000  1.2767  0.0363
31019SOL     OW95435   7.503  10.069   7.474  0.1307 -0.0834  0.6257
31019SOL    HW195436   7.456  10.116   7.543 -1.4329 -0.5342 -0.0860
31019SOL    HW295437   7.510   9.979   7.506 -3.5520 -1.1629 -1.0238
31020SOL     OW95438   0.812   9.004   9.382 -0.4803  0.0949  0.3518
31020SOL    HW195439   0.877   9.061   9.342 -1.4707  0.3818 -0.9314
31020SOL    HW295440   0.803   9.035   9.472 -1.8580  2.7995 -0.6242
31021SOL     OW95441   0.950   6.102   7.687 -0.3279  0.0631 -0.4326
31021SOL    HW195442   0.904   6.102   7.603  1.1545 -1.4044 -1.3204
31021SOL    HW295443   1.020   6.038   7.675  0.7045  0.7547  1.5133
31022SOL     OW95444   4.992  10.099   9.347  0.2134 -0.3247 -0.2407
31022SOL    HW195445   5.008  10.192   9.366  1.0931 -0.3487 -0.7969
31022SOL    HW295446   5.016  10.089   9.255  1.0017 -1.2817  0.0430
31023SOL     OW95447   2.193   3.653   5.684  0.3750  0.3676 -0.5751
31023SOL    HW195448   2.175   3.652   5.778 -0.0901  0.0934 -0.6674
31023SOL    HW295449   2.178   3.744   5.658  0.3716  0.4145 -0.4153
31024SOL     OW95450   2.678   3.857   5.888 -0.0828  0.3690  0.2741
31024SOL    HW195451   2.749   3.861   5.952  0.1423 -0.3572  0.0772
31024SOL    HW295452   2.600   3.840   5.940 -0.0498  0.7575  0.4518
31025SOL     OW95453  10.237   7.612   9.392  0.0365  0.4048 -0.2753
31025SOL    HW195454  10.261   7.572   9.476 -0.4412  1.8624  0.5930
31025SOL    HW295455  10.312   7.595   9.335  0.5243 -0.2999  0.5480
31026SOL     OW95456   8.356   1.982   5.509 -0.0326 -0.3882  0.6378
31026SOL    HW195457   8.428   1.994   5.446  0.1628  0.3159  0.9841
31026SOL    HW295458   8.380   1.903   5.557  0.3346 -0.3642  0.5020
31027SOL     OW95459   3.032   5.748   4.658 -0.1942  0.1726  0.2922
31027SOL    HW195460   3.092   5.682   4.693  1.5690  1.3279 -0.4136
31027SOL    HW295461   3.048   5.748   4.564 -0.2482  1.4732  0.2589
31028SOL     OW95462   5.257   0.439   0.494  0.5747 -0.4282  0.2876
31028SOL    HW195463   5.295   0.440   0.406 -0.4229 -0.6729 -0.1604
31028SOL    HW295464   5.249   0.532   0.518 -1.6611 -0.1783 -1.0362
31029SOL     OW95465  10.506   3.080   2.436 -0.2550  0.3137  0.3143
31029SOL    HW195466  10.579   3.019   2.447  0.4707  0.4520 -2.7351
31029SOL    HW295467  10.518   3.145   2.505  1.2602 -0.8237  1.1832
31030SOL     OW95468   6.591   1.645   2.740 -0.4401  0.3500 -0.3502
31030SOL    HW195469   6.637   1.591   2.805 -0.6435 -0.0033 -0.4954
31030SOL    HW295470   6.617   1.735   2.761 -0.5571  0.2459  0.2621
31031SOL     OW95471   1.992   1.154   1.493  0.4338 -0.6829  0.3187
31031SOL    HW195472   1.965   1.101   1.417  2.0066 -0.6247 -0.3109
31031SOL    HW295473   2.067   1.204   1.462  2.1311 -1.8133  2.3533
31032SOL     OW95474   1.432   3.260  10.677  0.2769  0.0704 -0.2158
31032SOL    HW195475   1.492   3.335  10.685 -1.4917  1.9009 -2.6328
31032SOL    HW295476   1.449   3.225  10.590 -2.1739  0.7506 -1.0501
31033SOL     OW95477   6.898   6.897  10.373 -0.0180 -0.1771 -0.3928
31033SOL    HW195478   6.901   6.806  10.404 -1.5912  0.2695  1.1900
31033SOL    HW295479   6.969   6.941  10.420  0.0384 -0.3403 -0.3246
31034SOL     OW95480   8.783   3.623   6.055 -0.0562  0.2082  0.3084
31034SOL    HW195481   8.837   3.556   6.014 -0.6340 -0.1924  0.1835
31034SOL    HW295482   8.800   3.702   6.003 -0.0912 -0.0739 -0.1432
31035SOL     OW95483   0.539   9.001   2.151 -0.4743 -0.2396 -0.0284
31035SOL    HW195484   0.519   9.059   2.078 -0.9206 -1.1271 -0.6386
31035SOL    HW295485   0.456   8.958   2.172 -0.1915 -0.5352  0.5127
31036SOL     OW95486   4.926  10.463   0.639 -0.7084 -0.0008  0.9758
31036SOL    HW195487   4.863  10.505   0.580 -1.3831 -0.3049  1.4628
31036SOL    HW295488   4.944  10.529   0.706  1.1022  0.8511 -0.2627
31037SOL     OW95489   3.305   1.421   6.113  0.2219  0.3715  0.4629
31037SOL    HW195490   3.317   1.503   6.161  2.2451  0.2037  0.3178
31037SOL    HW295491   3.357   1.431   6.034 -1.9431  0.0798 -1.1041
31038SOL     OW95492  10.457   8.336   3.138  0.8724  0.1232  0.0121
31038SOL    HW195493  10.364   8.342   3.113  0.3370  0.6681  1.9637
31038SOL    HW295494  10.504   8.350   3.056 -0.7564 -0.0893 -1.0265
31039SOL     OW95495   6.543  10.389   6.429 -0.3133  0.9286  0.0032
31039SOL    HW195496   6.496  10.368   6.510 -0.8932  0.1100 -0.5306
31039SOL    HW295497   6.631  10.353   6.443 -0.4600  0.6408  0.2029
31040SOL     OW95498   1.634   2.123   1.300 -0.3817 -0.6595 -0.0877
31040SOL    HW195499   1.590   2.048   1.341 -0.9288 -0.2864  0.0083
31040SOL    HW295500   1.563   2.180   1.271  0.0137 -0.6465 -1.0520
31041SOL     OW95501  10.463   5.908   8.835 -0.1127  0.0185  0.3353
31041SOL    HW195502  10.492   5.863   8.755 -2.1125  0.5646 -0.7618
31041SOL    HW295503  10.500   5.996   8.827 -0.0159 -0.0349  0.1835
31042SOL     OW95504   4.799   0.418   8.868  0.2526  0.3115  0.5390
31042SOL    HW195505   4.740   0.416   8.943  0.0198  0.0348  0.3501
31042SOL    HW295506   4.883   0.388   8.903 -0.2996 -1.6390  0.3061
31043SOL     OW95507   2.536   8.133  10.400  0.1947  0.1537  0.6750
31043SOL    HW195508   2.595   8.194  10.355  1.2885  0.6102  2.6288
31043SOL    HW295509   2.468   8.189  10.437 -0.4627 -0.1711 -0.0274
31044SOL     OW95510   2.782   6.568  10.083 -0.2107  0.4739  0.3693
31044SOL    HW195511   2.706   6.544  10.030  0.1187  0.3347 -0.0459
31044SOL    HW295512   2.795   6.492  10.140  0.3612 -0.0186 -0.4115
31045SOL     OW95513   0.530   7.427  10.505  0.6210  0.0524  0.0776
31045SOL    HW195514   0.594   7.365  10.471 -0.8438 -0.6793 -1.4709
31045SOL    HW295515   0.568   7.513  10.486  1.4098 -0.3660 -0.2900
31046SOL     OW95516   0.225   2.067   1.144 -0.6777  0.1178  0.2700
31046SOL    HW195517   0.244   1.977   1.169 -0.0356 -0.0924 -0.8870
31046SOL    HW295518   0.220   2.065   1.049 -0.9720  1.2453  0.2443
31047SOL     OW95519   6.620   2.332  10.508 -0.0185  0.5892  0.6081
31047SOL    HW195520   6.662   2.368  10.586 -0.0606  1.9138  0.0465
31047SOL    HW295521   6.530   2.315  10.535  0.0409  0.7708  0.9260
31048SOL     OW95522   4.405   7.908   6.426  0.1045 -0.3761 -0.0732
31048SOL    HW195523   4.367   7.836   6.375  1.0139 -0.8980 -0.0262
31048SOL    HW295524   4.337   7.975   6.426 -1.4019 -1.7908  1.1236
31049SOL     OW95525   9.033   5.337   1.734 -0.1217 -0.3758 -0.5137
31049SOL    HW195526   9.028   5.387   1.652 -0.5807  0.3289 -0.0709
31049SOL    HW295527   9.119   5.296   1.732  0.8838  1.5776 -0.2649
31050SOL     OW95528   7.359   0.161   9.600 -0.1791 -0.0795 -0.1411
31050SOL    HW195529   7.400   0.092   9.549  0.7875 -0.1944  0.7596
31050SOL    HW295530   7.407   0.163   9.682 -0.6963  1.1406  0.1670
31051SOL     OW95531   8.596   7.166   8.381 -0.0836 -0.3791 -0.3726
31051SOL    HW195532   8.603   7.260   8.363 -1.6300 -0.0140  0.6470
31051SOL    HW295533   8.685   7.138   8.400  0.3788  0.9362 -0.4947
31052SOL     OW95534   3.480   6.145   1.520 -0.3271  0.1253 -0.4888
31052SOL    HW195535   3.477   6.130   1.615  1.8432 -3.0243 -0.7539
31052SOL    HW295536   3.442   6.065   1.483  2.3862 -0.4938 -2.2137
31053SOL     OW95537   4.983   8.625   2.822  0.6817 -0.1422 -0.0608
31053SOL    HW195538   4.964   8.537   2.789  1.8563 -1.0965  1.6141
31053SOL    HW295539   5.078   8.632   2.818  0.5766  1.2729 -0.6357
31054SOL     OW95540   3.006  10.426  10.022 -0.1152 -0.5928 -0.4454
31054SOL    HW195541   3.077  10.364  10.007  2.0631  1.4563  0.6997
31054SOL    HW295542   2.954  10.386  10.092  1.8733 -0.7435  1.0507
31055SOL     OW95543   6.497   5.394   6.008 -0.1913 -0.1739  0.1855
31055SOL    HW195544   6.540   5.428   6.087 -1.5019  0.3797  0.7078
31055SOL    HW295545   6.568   5.363   5.953  0.8317  0.3190  1.1770
31056SOL     OW95546   4.259   4.608   9.161  0.4711  0.1207  0.3540
31056SOL    HW195547   4.279   4.551   9.087 -1.4642 -0.4437  0.2182
31056SOL    HW295548   4.205   4.554   9.219  0.4307  1.1333  1.2997
31057SOL     OW95549   9.118   0.069   0.531 -0.1033  0.0338  0.6316
31057SOL    HW195550   9.192   0.098   0.585 -0.4350  0.5723  0.8026
31057SOL    HW295551   9.052   0.040   0.593  0.7975 -2.6408  0.4544
31058SOL     OW95552   4.500   0.995   0.397  0.4450 -0.5653  0.2237
31058SOL    HW195553   4.577   0.989   0.454 -1.1552 -0.8557  2.4922
31058SOL    HW295554   4.438   1.050   0.445 -1.4821 -1.8554 -0.6481
31059SOL     OW95555   7.963   0.972   6.537 -0.3178 -0.1795  0.1719
31059SOL    HW195556   7.903   1.047   6.536  1.4002  1.2655 -0.1025
31059SOL    HW295557   7.959   0.938   6.447 -0.0499  0.4900 -0.1009
31060SOL     OW95558   6.466  10.761   5.232 -0.5090  0.1008  0.1145
31060SOL    HW195559   6.531  10.716   5.178 -0.7886  1.4206 -1.4084
31060SOL    HW295560   6.383  10.721   5.208 -0.3801 -1.0976  1.5406
31061SOL     OW95561   5.737   3.392   6.450  0.4723 -0.0021 -0.5952
31061SOL    HW195562   5.804   3.395   6.382  1.8202  0.8810  0.6997
31061SOL    HW295563   5.738   3.302   6.481 -0.0497 -0.3749 -1.6057
31062SOL     OW95564   9.105   5.314   2.333 -1.1338  0.2149 -0.7080
31062SOL    HW195565   9.076   5.287   2.246  1.0727 -0.0070 -1.4334
31062SOL    HW295566   9.146   5.236   2.370  1.7213  1.3481 -1.2265
31063SOL     OW95567   0.030   3.342   7.716 -0.4792  0.0104  0.3915
31063SOL    HW195568   0.027   3.437   7.704 -0.2366  0.0002  0.2444
31063SOL    HW295569   0.124   3.321   7.716 -0.5329 -0.2288  0.4291
31064SOL     OW95570   5.209   3.725   2.133 -0.2372  0.0131  0.4680
31064SOL    HW195571   5.283   3.718   2.073 -0.4613  2.8423 -0.2972
31064SOL    HW295572   5.249   3.730   2.220  0.1911 -2.2284  0.4503
31065SOL     OW95573   1.944   6.437  10.189  0.2066  0.0696 -0.3934
31065SOL    HW195574   1.892   6.499  10.240  1.2075  0.4138  0.2383
31065SOL    HW295575   1.932   6.464  10.098 -0.9650 -0.0687 -0.3008
31066SOL     OW95576   1.917   7.747   7.463  0.4130 -0.3004 -0.6495
31066SOL    HW195577   1.839   7.745   7.408  0.5841  1.9352 -1.0931
31066SOL    HW295578   1.888   7.793   7.543  0.8619 -0.9822 -0.0872
31067SOL     OW95579   1.178   2.436   6.407  0.5697 -0.6026 -0.0657
31067SOL    HW195580   1.251   2.421   6.466 -0.5230 -0.3256  1.3997
31067SOL    HW295581   1.107   2.382   6.442 -0.5186  0.6351 -0.2868
31068SOL     OW95582   5.777   5.110   7.823 -0.4891  0.5418 -0.1853
31068SOL    HW195583   5.831   5.054   7.767 -0.8525  0.9523 -0.9493
31068SOL    HW295584   5.806   5.199   7.805 -0.9715  0.7169 -0.1180
31069SOL     OW95585   6.013   0.540   2.716 -0.1653  0.2449 -0.7061
31069SOL    HW195586   5.970   0.598   2.653 -1.3866  0.6932  0.4985
31069SOL    HW295587   6.106   0.560   2.707 -0.4537  1.4754 -1.2133
31070SOL     OW95588   6.109   8.707   8.721  0.2170 -0.4528  0.9066
31070SOL    HW195589   6.137   8.687   8.631  0.1664  0.0190  0.7834
31070SOL    HW295590   6.032   8.653   8.735  1.5710 -2.3235  1.4961
31071SOL     OW95591   7.800  10.672  10.051  0.1105  0.2529  0.0202
31071SOL    HW195592   7.804  10.768  10.049 -0.6464  0.2845 -0.1665
31071SOL    HW295593   7.756  10.648   9.970 -0.2340 -0.2274  0.3434
31072SOL     OW95594   6.413   4.443   6.529 -0.2267  0.7002  0.1146
31072SOL    HW195595   6.354   4.428   6.455 -0.9222  2.4783  0.2728
31072SOL    HW295596   6.493   4.477   6.489  0.4563 -0.9553 -0.0240
31073SOL     OW95597   7.944   0.732  10.780 -0.1021 -0.0831  0.4341
31073SOL    HW195598   7.894   0.728  10.699 -2.5776  0.4459  1.8476
31073SOL    HW295599   7.969   0.825  10.788 -0.3405 -0.0301  0.5576
31074SOL     OW95600   0.795  10.398   3.095  0.0828  1.3956  0.4429
31074SOL    HW195601   0.872  10.366   3.142  0.0359  0.1747 -0.2712
31074SOL    HW295602   0.798  10.493   3.105  1.6745  1.3621  0.4452
31075SOL     OW95603   1.956   4.218   1.196 -0.2541 -0.0295 -0.4954
31075SOL    HW195604   1.912   4.299   1.168 -0.6640  0.2193  0.8142
31075SOL    HW295605   1.892   4.149   1.180 -0.5153  0.1216 -0.1230
31076SOL     OW95606   5.552   8.214   1.842 -0.0441  0.3756  0.3064
31076SOL    HW195607   5.554   8.119   1.841  0.1049  0.3756 -0.6286
31076SOL    HW295608   5.528   8.237   1.932 -2.4341 -0.5755 -0.0125
31077SOL     OW95609   5.686   1.692   3.981  0.4388  0.4232  0.0822
31077SOL    HW195610   5.673   1.782   3.950  0.7758  0.7107  0.7554
31077SOL    HW295611   5.620   1.641   3.934 -0.5631  1.2200  0.5806
31078SOL     OW95612   8.036   3.944   5.298 -0.5253  0.0980  0.2131
31078SOL    HW195613   7.961   3.962   5.242  0.8450 -0.8735 -2.0556
31078SOL    HW295614   8.105   3.916   5.238  1.1865 -0.5751  2.3627
31079SOL     OW95615   3.844   7.819   2.817 -0.3482  0.1015 -0.4458
31079SOL    HW195616   3.778   7.844   2.882 -0.5724  2.5422 -1.5241
31079SOL    HW295617   3.795   7.767   2.753  0.0150 -2.9617  1.5355
31080SOL     OW95618   4.699   7.175   3.550  0.4983 -0.4880 -0.3220
31080SOL    HW195619   4.784   7.175   3.595  0.9505 -2.1706 -1.0962
31080SOL    HW295620   4.685   7.084   3.525 -2.8191 -0.8148  2.0919
31081SOL     OW95621   7.788   7.013   8.007 -0.0218 -0.5044  0.6386
31081SOL    HW195622   7.827   7.093   8.042 -0.9506  0.1035  0.2987
31081SOL    HW295623   7.850   6.984   7.939 -0.1483  0.4480  0.1026
31082SOL     OW95624   6.969   1.483   5.822  0.3623  0.1824  0.1827
31082SOL    HW195625   7.049   1.504   5.871  1.0122 -0.7115 -0.4686
31082SOL    HW295626   6.949   1.393   5.847 -0.4378  0.4011  0.3305
31083SOL     OW95627   0.454   7.766   9.787 -0.4712  0.8011 -0.4369
31083SOL    HW195628   0.540   7.768   9.828 -1.1496 -0.6689  1.1828
31083SOL    HW295629   0.467   7.807   9.701  2.0129 -0.1644 -0.5997
31084SOL     OW95630   0.239   3.640   2.057 -0.2264  0.0882  0.3645
31084SOL    HW195631   0.328   3.672   2.046 -0.6173  1.3025  0.5586
31084SOL    HW295632   0.198   3.703   2.116 -0.9126 -1.0418  1.1457
31085SOL     OW95633   3.046   6.059   6.639  0.3005  0.1624 -0.4442
31085SOL    HW195634   3.084   6.046   6.726 -1.7069 -0.3237  0.4020
31085SOL    HW295635   3.116   6.032   6.578  1.3554 -0.5458  1.0176
31086SOL     OW95636   8.207   2.297   3.368 -0.3492  0.5818  0.5425
31086SOL    HW195637   8.255   2.344   3.299 -1.5231  0.9941 -0.0186
31086SOL    HW295638   8.164   2.225   3.322 -0.7860  0.5969  0.9263
31087SOL     OW95639   5.102   4.479   5.162  0.0331 -0.3950 -0.7555
31087SOL    HW195640   5.118   4.438   5.247  0.4140  1.4861  0.1303
31087SOL    HW295641   5.187   4.514   5.136 -0.4329  0.5148 -1.0895
31088SOL     OW95642   2.886   7.095   5.350  0.7122  0.5143  0.2602
31088SOL    HW195643   2.807   7.044   5.369  0.3234  1.6627  1.9134
31088SOL    HW295644   2.953   7.029   5.332 -0.3517 -0.5036 -0.1302
31089SOL     OW95645   0.029   8.103   7.136 -0.3579  0.5657  0.9769
31089SOL    HW195646   0.121   8.096   7.164  0.0788 -0.9964 -0.7069
31089SOL    HW295647  -0.020   8.062   7.207  0.7194 -3.1992 -0.2435
31090SOL     OW95648   8.974   2.935   0.793  0.6729 -0.0508 -0.3628
31090SOL    HW195649   8.974   2.969   0.703 -0.9396  2.6203  0.5412
31090SOL    HW295650   8.992   3.011   0.848 -3.6544 -0.3318  1.8538
31091SOL     OW95651   3.457   6.831   2.976  0.3825  0.4730 -0.0691
31091SOL    HW195652   3.462   6.831   3.071  0.7837  2.0558 -0.0523
31091SOL    HW295653   3.481   6.921   2.951  0.9017 -0.0760 -1.6878
31092SOL     OW95654   5.175   1.455   4.799  0.1652  0.2552  0.1274
31092SOL    HW195655   5.265   1.423   4.804  0.6218  1.4791  0.0443
31092SOL    HW295656   5.139   1.415   4.720  0.1242 -1.4306  0.9455
31093SOL     OW95657   6.459   1.665   5.794  0.0525  0.4915 -0.0938
31093SOL    HW195658   6.512   1.673   5.715  1.7993 -0.6662  0.9109
31093SOL    HW295659   6.521   1.670   5.866 -1.5359  1.8987  1.2742
31094SOL     OW95660   4.228   5.568   4.259  0.0862 -0.4029  0.5241
31094SOL    HW195661   4.201   5.493   4.205 -1.4332 -0.9419  1.9658
31094SOL    HW295662   4.306   5.538   4.305  1.6337  0.1842 -1.5289
31095SOL     OW95663   6.457   7.784   7.555  0.2965 -0.0388 -0.2186
31095SOL    HW195664   6.377   7.830   7.530 -0.2051 -1.3646 -1.1768
31095SOL    HW295665   6.431   7.728   7.628  0.7281  0.6139  0.4534
31096SOL     OW95666   1.188  10.313  10.535 -0.0470  0.5073  0.2167
31096SOL    HW195667   1.197  10.236  10.479  2.0022  0.0238  1.1206
31096SOL    HW295668   1.121  10.367  10.492  1.0181 -0.1121 -2.3469
31097SOL     OW95669   2.944   0.426   2.702 -0.0422 -0.5934 -0.1697
31097SOL    HW195670   3.028   0.467   2.719 -0.1642 -0.6803  0.6784
31097SOL    HW295671   2.886   0.459   2.771 -1.3176  1.1848 -1.9563
31098SOL     OW95672   3.768   2.113   4.309 -0.3713 -0.5523  0.9403
31098SOL    HW195673   3.711   2.143   4.380  0.7419  1.2372  1.1557
31098SOL    HW295674   3.833   2.057   4.353 -0.7912 -0.9847  1.0148
31099SOL     OW95675   4.709   6.567   2.367  0.0358  0.0144 -0.6858
31099SOL    HW195676   4.621   6.604   2.380  0.1600 -0.1956  0.8561
31099SOL    HW295677   4.748   6.623   2.300 -1.6061 -0.4724 -2.1401
31100SOL     OW95678   7.617   6.155   2.228  0.2344  0.1223  0.2369
31100SOL    HW195679   7.646   6.209   2.155  0.0109  0.5194  0.4352
31100SOL    HW295680   7.522   6.157   2.223  0.1986  0.8862  1.0605
31101SOL     OW95681   9.623   9.734   4.923 -0.3784  0.5432  0.5112
31101SOL    HW195682   9.548   9.674   4.927  0.6175 -0.7248  0.7588
31101SOL    HW295683   9.694   9.681   4.887  0.2289  1.9258 -0.3807
31102SOL     OW95684   0.709   8.598   9.049 -0.4906  0.1194  0.0869
31102SOL    HW195685   0.789   8.596   8.996 -0.6453 -1.6506 -0.1118
31102SOL    HW295686   0.741   8.592   9.139 -0.3343  1.2598  0.1318
31103SOL     OW95687   7.027   5.250   5.682  0.4579  0.0825  0.1394
31103SOL    HW195688   7.038   5.156   5.697  2.1659 -0.0736 -1.6888
31103SOL    HW295689   6.978   5.256   5.599 -1.1711  0.8545  1.1028
31104SOL     OW95690   3.764   9.814   5.623  0.1829 -0.0134 -0.2240
31104SOL    HW195691   3.833   9.848   5.680  1.7983 -1.1907 -1.3622
31104SOL    HW295692   3.687   9.865   5.645  1.6495  2.0296  0.4531
31105SOL     OW95693   1.062   1.630   5.965  0.3942 -0.1609  0.4471
31105SOL    HW195694   1.064   1.547   5.918  0.4867 -1.2047  2.2275
31105SOL    HW295695   1.008   1.687   5.910 -1.6948 -2.1194  0.3400
31106SOL     OW95696   6.473   1.016   5.361  0.0849  0.1029  0.1442
31106SOL    HW195697   6.451   0.945   5.300 -1.4957 -0.7412  1.5977
31106SOL    HW295698   6.556   1.050   5.329  0.4156 -1.7748 -1.1829
31107SOL     OW95699   9.804   5.633   3.330 -0.2716 -0.0161  0.2242
31107SOL    HW195700   9.879   5.670   3.376  0.7395 -0.7766 -0.7678
31107SOL    HW295701   9.805   5.540   3.352 -0.7267 -0.0910 -0.0483
31108SOL     OW95702  10.186   7.271   6.755  0.3702  0.3333 -0.0703
31108SOL    HW195703  10.261   7.274   6.696  1.5576 -0.0948  1.3618
31108SOL    HW295704  10.154   7.180   6.750 -0.8415  0.8014 -1.5720
31109SOL     OW95705   7.619   9.616   5.036 -0.1764  0.2355 -0.2984
31109SOL    HW195706   7.690   9.589   4.978 -0.7061  0.3884 -1.0252
31109SOL    HW295707   7.583   9.695   4.996 -0.6367  0.2664  0.1615
31110SOL     OW95708   7.521   4.823   8.378  0.0094 -0.0368 -0.4100
31110SOL    HW195709   7.551   4.740   8.342  1.0336  1.0266 -2.1669
31110SOL    HW295710   7.427   4.825   8.360  0.1032 -0.5162 -0.9950
31111SOL     OW95711   7.298   3.187   1.293  0.4625  0.0310  0.1805
31111SOL    HW195712   7.277   3.119   1.357  1.5143  0.0251  0.5305
31111SOL    HW295713   7.245   3.165   1.216  0.5166 -0.9737  0.4245
31112SOL     OW95714   5.010   7.004   1.652 -0.1303 -0.3728 -0.4699
31112SOL    HW195715   4.994   7.010   1.558 -2.8977 -1.6886 -0.1833
31112SOL    HW295716   4.940   7.056   1.692  1.7856  1.3007  0.8983
31113SOL     OW95717   7.986   4.211   7.804  0.2917  0.3380  0.4602
31113SOL    HW195718   7.944   4.257   7.732  0.3840 -0.6724 -0.2608
31113SOL    HW295719   7.915   4.165   7.848  0.4215 -0.1301  0.1849
31114SOL     OW95720   8.546   5.104   0.837  0.4289 -0.6735 -0.4312
31114SOL    HW195721   8.467   5.141   0.797 -0.0991  1.3244  2.1883
31114SOL    HW295722   8.518   5.021   0.874 -0.1377 -0.5211 -0.5142
31115SOL     OW95723   0.923   8.816  10.606  0.2735 -0.4787 -0.7200
31115SOL    HW195724   0.840   8.780  10.577 -0.1229  0.9530 -1.4472
31115SOL    HW295725   0.975   8.825  10.526  0.7745 -0.4886 -0.4022
31116SOL     OW95726   2.309   7.266   9.743  0.4312  0.5617 -0.0690
31116SOL    HW195727   2.394   7.224   9.756 -0.6734 -1.4165  1.0558
31116SOL    HW295728   2.310   7.292   9.651  1.3705 -1.5136 -0.7037
31117SOL     OW95729   4.362   5.106   4.765  0.4978 -0.1326  0.4950
31117SOL    HW195730   4.345   5.176   4.703 -0.2827 -0.5008  0.2886
31117SOL    HW295731   4.456   5.088   4.756  0.1869 -0.9794 -1.4354
31118SOL     OW95732   1.265   4.714   5.134 -0.0673  0.5427 -0.1905
31118SOL    HW195733   1.347   4.750   5.099  1.0629 -0.4096  1.3721
31118SOL    HW295734   1.256   4.755   5.220  0.3210 -1.4924  0.8806
31119SOL     OW95735  10.246   4.887   6.604 -0.1698 -0.4538 -0.4565
31119SOL    HW195736  10.196   4.808   6.582 -0.4495  0.1712 -2.2825
31119SOL    HW295737  10.326   4.880   6.552  0.9409 -0.6510  1.2038
31120SOL     OW95738   0.418   8.363   6.699  0.1582 -0.2564  0.0870
31120SOL    HW195739   0.501   8.392   6.660  0.1543 -0.2201  0.1059
31120SOL    HW295740   0.430   8.269   6.712  0.4883 -0.1206  0.8033
31121SOL     OW95741   4.188   4.074   6.961  0.1262 -0.0698  0.2293
31121SOL    HW195742   4.207   4.039   6.874 -0.8621 -0.8563  0.3143
31121SOL    HW295743   4.271   4.064   7.009  0.5661  0.0092 -0.4945
31122SOL     OW95744   5.688   5.287   9.141  0.0549  0.2568  0.2359
31122SOL    HW195745   5.631   5.364   9.140 -0.8134 -0.3691 -0.0495
31122SOL    HW295746   5.747   5.301   9.067 -1.5223 -0.3457 -1.2289
31123SOL     OW95747   5.266   9.981   2.613 -0.0652  0.5013 -0.2601
31123SOL    HW195748   5.347   9.938   2.587 -0.4043  0.8231 -1.9690
31123SOL    HW295749   5.273   9.990   2.708  1.2669 -0.7249 -0.2114
31124SOL     OW95750   9.971   4.855   8.188 -0.0836  0.1012 -0.3406
31124SOL    HW195751   9.932   4.916   8.125 -1.4268 -1.8527 -1.5390
31124SOL    HW295752   9.999   4.780   8.135  0.0278 -1.0203  1.2154
31125SOL     OW95753   5.292   7.931  10.600 -0.2560  0.3873 -0.5689
31125SOL    HW195754   5.315   8.024  10.601 -2.7945  1.0851  0.1512
31125SOL    HW295755   5.210   7.927  10.552 -1.8869 -0.9820  2.0767
31126SOL     OW95756  10.174   2.284   4.035  0.2387  0.2013  0.7660
31126SOL    HW195757  10.261   2.306   4.004  0.2739  0.9649  1.3987
31126SOL    HW295758  10.173   2.188   4.037 -0.0048  0.0516 -2.2617
31127SOL     OW95759   7.411   0.741  10.607  0.5251 -0.8257 -0.6218
31127SOL    HW195760   7.368   0.656  10.618  1.5660 -1.0799  2.5601
31127SOL    HW295761   7.503   0.723  10.627  0.5893  1.1905  1.2334
31128SOL     OW95762   3.321   7.727   5.225 -0.4589  0.1009 -0.3540
31128SOL    HW195763   3.260   7.793   5.258 -0.9199 -0.5934  0.2498
31128SOL    HW295764   3.408   7.764   5.239 -0.6710  0.1206  1.0632
31129SOL     OW95765   8.885   7.450   0.746 -0.4241  0.2603  0.3576
31129SOL    HW195766   8.895   7.545   0.733 -0.9789  0.3229  0.3820
31129SOL    HW295767   8.913   7.412   0.663  2.6603  0.2593  1.2879
31130SOL     OW95768   2.029   5.144  10.026 -0.1945 -0.2332 -1.2573
31130SOL    HW195769   2.054   5.205   9.957 -2.4053  0.4297 -1.5537
31130SOL    HW295770   1.939   5.167  10.047  0.5544  0.0216  2.3188
31131SOL     OW95771   1.456   2.467   4.023 -0.0412 -0.4188  0.0018
31131SOL    HW195772   1.427   2.556   4.005  1.2669 -0.0438 -0.3457
31131SOL    HW295773   1.401   2.438   4.095  0.5428  1.2328  1.1664
31132SOL     OW95774   9.339   6.289   3.532  0.1623 -0.2156 -0.2293
31132SOL    HW195775   9.337   6.384   3.529  0.5491 -0.2318 -1.2634
31132SOL    HW295776   9.323   6.268   3.624 -0.5582  0.8225 -0.0984
31133SOL     OW95777   6.124   1.613   9.722 -0.2766 -0.0903  0.1397
31133SOL    HW195778   6.051   1.615   9.783 -2.1154  1.8391 -1.9615
31133SOL    HW295779   6.092   1.563   9.647  1.5250 -1.4474  0.1981
31134SOL     OW95780   8.063   2.617   7.909 -0.1489  0.4552 -0.3727
31134SOL    HW195781   8.005   2.639   7.836 -2.6856 -0.6043  1.2053
31134SOL    HW295782   8.060   2.522   7.914  2.7726  0.2488 -0.9561
31135SOL     OW95783   2.542   7.628   6.457 -0.2007  0.1967  0.0634
31135SOL    HW195784   2.525   7.710   6.504  1.7224 -0.4749  2.1134
31135SOL    HW295785   2.499   7.561   6.510  1.3804 -0.4965  0.5156
31136SOL     OW95786   0.552   2.484   7.824 -0.5865  0.2761 -0.0437
31136SOL    HW195787   0.616   2.552   7.805 -0.0195 -0.2379  0.0121
31136SOL    HW295788   0.545   2.434   7.742  1.3512 -1.5223  0.7952
31137SOL     OW95789   0.897   0.815   6.299  1.2978  0.0342 -0.1749
31137SOL    HW195790   0.807   0.809   6.267  1.5558 -1.0059 -0.7355
31137SOL    HW295791   0.942   0.869   6.234  1.0519  0.7145  0.2032
31138SOL     OW95792   5.680  10.062   4.438  0.1725 -0.1883 -0.4756
31138SOL    HW195793   5.651   9.980   4.398  0.2240 -0.3939 -0.0984
31138SOL    HW295794   5.764  10.080   4.396 -0.1447  0.0219 -1.0380
31139SOL     OW95795   0.008   3.875  10.084  0.4535  0.7162  0.2592
31139SOL    HW195796  -0.031   3.909  10.164  1.3472 -0.1829  1.1233
31139SOL    HW295797   0.049   3.792  10.111 -0.6387 -0.4593 -1.4845
31140SOL     OW95798   8.152   8.753   9.032 -0.3580  0.5993 -0.0001
31140SOL    HW195799   8.098   8.757   8.953 -0.3190  0.6329 -0.0257
31140SOL    HW295800   8.091   8.769   9.104 -0.1737  1.7920 -0.1052
31141SOL     OW95801   4.563   3.073   0.408  0.6621 -0.2692 -0.1355
31141SOL    HW195802   4.602   3.053   0.493  0.5003 -2.0291 -0.4417
31141SOL    HW295803   4.469   3.079   0.425  0.5602 -1.2934 -0.2869
31142SOL     OW95804   7.920   6.894   0.484  0.2442 -0.0021  0.7440
31142SOL    HW195805   7.844   6.948   0.504 -0.1766 -0.0142 -0.6600
31142SOL    HW295806   7.905   6.865   0.393  1.1515 -1.3020  0.9806
31143SOL     OW95807   1.204   9.417   1.118 -0.2570 -0.4649  0.2201
31143SOL    HW195808   1.184   9.371   1.036  3.2775  0.5724 -1.4144
31143SOL    HW295809   1.157   9.500   1.111  0.3838 -0.1849 -1.0256
31144SOL     OW95810   0.618   2.782   3.354 -0.1511  0.1478  0.5198
31144SOL    HW195811   0.523   2.790   3.345  0.1199  2.5601 -1.0146
31144SOL    HW295812   0.647   2.750   3.269  0.4689 -0.0364  0.7973
31145SOL     OW95813   5.597   9.137   1.619  0.2211  0.5387  0.0254
31145SOL    HW195814   5.593   9.106   1.709 -1.7480  2.3267  0.6344
31145SOL    HW295815   5.528   9.087   1.574 -0.1438  1.0507  0.0106
31146SOL     OW95816   8.194   8.834   1.268  0.1823 -0.3979  0.4032
31146SOL    HW195817   8.235   8.920   1.271  0.6286 -0.5806 -0.2361
31146SOL    HW295818   8.113   8.844   1.318 -1.1208  1.1419 -1.8250
31147SOL     OW95819   0.436   9.950  10.381  0.7099 -0.3378  0.6151
31147SOL    HW195820   0.356   9.928  10.429  0.4370  1.0304  0.8131
31147SOL    HW295821   0.411   9.943  10.289  0.3900 -0.0195  0.6754
31148SOL     OW95822   3.329   8.395   9.639  0.5330 -0.2610  0.1865
31148SOL    HW195823   3.297   8.459   9.575  1.0930 -0.2753 -0.1138
31148SOL    HW295824   3.267   8.400   9.712 -0.7283 -1.0034 -0.7951
31149SOL     OW95825   7.463   8.374   9.778  0.5610 -0.2232 -0.4255
31149SOL    HW195826   7.482   8.346   9.688  0.3436  0.0332 -0.5503
31149SOL    HW295827   7.409   8.304   9.814  1.8268 -1.0263 -0.0241
31150SOL     OW95828   9.534   9.677   2.097 -0.2122 -0.0059  0.1409
31150SOL    HW195829   9.513   9.648   2.186  1.1201  1.2801  0.9181
31150SOL    HW295830   9.611   9.627   2.073 -0.9314 -0.8063 -0.5682
31151SOL     OW95831   3.798   3.190   9.401  0.1924 -0.0105  0.0818
31151SOL    HW195832   3.733   3.156   9.340  0.4313 -0.9871  0.3430
31151SOL    HW295833   3.807   3.282   9.378 -0.1020 -0.2384 -1.0077
31152SOL     OW95834   2.996   4.401   2.541 -0.4118 -0.1869  0.3772
31152SOL    HW195835   2.928   4.382   2.605  0.0921 -1.5713  0.5239
31152SOL    HW295836   3.078   4.391   2.588 -0.0391 -1.0254 -0.4205
31153SOL     OW95837   3.172   3.369   1.341  0.3487 -0.1084 -1.1106
31153SOL    HW195838   3.228   3.436   1.379  1.5193 -0.6836 -1.7805
31153SOL    HW295839   3.232   3.304   1.306 -0.7551 -1.5596 -0.4224
31154SOL     OW95840   0.047   5.409   5.434  0.0107 -0.1567  0.1263
31154SOL    HW195841   0.082   5.471   5.498 -1.7741  1.2415 -0.1763
31154SOL    HW295842   0.096   5.427   5.354 -0.0280  0.3980  0.2254
31155SOL     OW95843   0.300   2.568  10.012  0.3670 -0.2050  0.0922
31155SOL    HW195844   0.341   2.521  10.084 -1.1663 -1.1239  0.4234
31155SOL    HW295845   0.248   2.637  10.053  0.3294 -0.0525 -0.2028
31156SOL     OW95846   8.144   0.065   6.405  0.0409 -0.2327  0.1774
31156SOL    HW195847   8.078   0.124   6.441  0.0634 -1.0414  1.6335
31156SOL    HW295848   8.100   0.023   6.331 -1.5732 -1.5864  1.7791
31157SOL     OW95849   6.247   4.694   6.473 -0.4820  0.1722 -0.1668
31157SOL    HW195850   6.268   4.662   6.561  1.0777  0.4149 -0.4257
31157SOL    HW295851   6.175   4.638   6.444 -1.1764  0.2324  1.3418
31158SOL     OW95852   4.877   3.851   0.464  0.2556  0.1610  0.3494
31158SOL    HW195853   4.816   3.896   0.406 -0.4850 -1.4587 -0.1883
31158SOL    HW295854   4.930   3.797   0.406  0.2957 -0.5882  1.0625
31159SOL     OW95855   2.009   6.924   5.267  0.1234 -0.2324 -0.0776
31159SOL    HW195856   2.061   7.001   5.245  0.6133 -0.5029  0.1303
31159SOL    HW295857   1.918   6.954   5.261  0.3196  0.6771  1.1546
31160SOL     OW95858   5.723   6.049   7.057 -0.4398  0.5417 -0.1261
31160SOL    HW195859   5.662   6.112   7.096 -0.0538 -0.5894  2.4877
31160SOL    HW295860   5.671   5.970   7.046  0.3747 -0.2655  1.6150
31161SOL     OW95861   7.085   7.589   7.363 -0.0855  0.3308 -0.1829
31161SOL    HW195862   7.160   7.646   7.347 -0.2299  0.4883 -0.3047
31161SOL    HW295863   7.123   7.502   7.374  0.2247  0.6015  0.9716
31162SOL     OW95864   2.043   2.408   9.968  0.1930  0.1114  0.5009
31162SOL    HW195865   2.056   2.376  10.058  2.9228  0.4708  0.3152
31162SOL    HW295866   1.971   2.471   9.976 -1.0207 -1.3667  2.0211
31163SOL     OW95867   2.279   9.157   0.567  0.1055  0.4520  0.3947
31163SOL    HW195868   2.213   9.205   0.519 -0.5625 -1.5848 -0.8685
31163SOL    HW295869   2.259   9.174   0.659 -1.5223  0.7217  0.0251
31164SOL     OW95870   1.935   9.784   8.921  0.0280 -0.4874  0.0183
31164SOL    HW195871   1.860   9.726   8.911 -0.8512  0.7946 -1.2602
31164SOL    HW295872   2.011   9.727   8.912 -0.7896 -1.5401 -0.4457
31165SOL     OW95873   4.686   1.469   6.759 -0.7516  0.0194 -0.1345
31165SOL    HW195874   4.751   1.506   6.699 -2.5161  0.5900 -1.7959
31165SOL    HW295875   4.725   1.386   6.787  1.4607  1.1607  0.3806
31166SOL     OW95876   5.297   2.976   2.978 -0.0112  0.1383  0.1940
31166SOL    HW195877   5.278   3.041   2.910  1.0960 -1.5254 -1.8349
31166SOL    HW295878   5.217   2.924   2.985 -0.0811  0.2288  0.0605
31167SOL     OW95879   4.091   1.262   7.256  0.5062 -0.1276 -0.1144
31167SOL    HW195880   4.122   1.256   7.347  1.3721  1.7538 -0.2322
31167SOL    HW295881   4.158   1.217   7.205  0.8327  0.1552  0.0545
31168SOL     OW95882   6.989   4.324  10.107 -0.1201 -0.5400 -0.4077
31168SOL    HW195883   6.959   4.400  10.156  2.2639 -0.0636  0.4393
31168SOL    HW295884   7.049   4.359  10.042  0.4470 -1.6370 -0.4944
31169SOL     OW95885   4.793   6.805  10.637 -0.0683  0.1744  0.6531
31169SOL    HW195886   4.809   6.719  10.599  1.7899  0.4573  0.6998
31169SOL    HW295887   4.857   6.862  10.594 -0.5342  1.3080  1.4150
31170SOL     OW95888   2.200   1.538   0.572  0.1169 -0.3433 -0.2704
31170SOL    HW195889   2.163   1.595   0.640 -2.0588  0.7440 -2.1970
31170SOL    HW295890   2.175   1.449   0.599 -0.8105  0.0763  0.3071
31171SOL     OW95891   3.840   1.935   7.664  0.4211 -0.3411 -0.4277
31171SOL    HW195892   3.907   1.996   7.694  0.4826 -1.4939  2.0205
31171SOL    HW295893   3.842   1.943   7.569  1.4524  2.3175 -0.2771
31172SOL     OW95894   4.924   3.770  10.166 -0.0512 -0.1619 -0.4942
31172SOL    HW195895   4.895   3.692  10.212  2.7480 -0.9567  0.1410
31172SOL    HW295896   4.923   3.744  10.073 -0.6019 -0.4076 -0.4247
31173SOL     OW95897   3.550   8.660  10.376  0.5601  0.2505  0.4216
31173SOL    HW195898   3.479   8.606  10.410  1.3771 -0.3866  1.1567
31173SOL    HW295899   3.626   8.636  10.429  1.3695  0.7819 -0.4673
31174SOL     OW95900   8.529   4.377   5.614 -0.0073 -0.2340  0.3212
31174SOL    HW195901   8.592   4.339   5.552 -0.5353 -1.8021  0.6958
31174SOL    HW295902   8.453   4.399   5.560  0.4560  0.7164  0.0340
31175SOL     OW95903   3.757   3.911   8.639 -0.2096  0.2827 -0.2126
31175SOL    HW195904   3.802   3.960   8.570 -0.8307  0.9778 -0.1396
31175SOL    HW295905   3.750   3.972   8.712 -2.7185  0.8173 -0.7881
31176SOL     OW95906   8.600   1.467   6.245 -0.1470  0.7740  0.1142
31176SOL    HW195907   8.638   1.429   6.166  0.4110  2.8654 -0.6886
31176SOL    HW295908   8.507   1.471   6.227 -0.0747  0.8330 -0.2573
31177SOL     OW95909   8.713   8.623   2.017 -0.1762  0.4018  0.0907
31177SOL    HW195910   8.808   8.622   2.029  0.0670  2.3077 -1.2510
31177SOL    HW295911   8.702   8.634   1.923 -1.7862 -1.8081 -0.0387
31178SOL     OW95912   9.674   5.065   1.951 -0.2702 -0.5402 -0.1000
31178SOL    HW195913   9.723   5.047   1.871 -2.6580 -1.9631 -1.3614
31178SOL    HW295914   9.623   5.143   1.931 -1.2298 -1.1696 -0.1669
31179SOL     OW95915   9.390   7.653   8.658 -1.4151 -0.8074  0.1638
31179SOL    HW195916   9.305   7.674   8.619 -0.7201 -1.3452 -1.7448
31179SOL    HW295917   9.454   7.689   8.597 -0.1802  1.4130  2.5774
31180SOL     OW95918  10.451   8.069   1.256  0.0184 -0.3409  0.8940
31180SOL    HW195919  10.477   8.125   1.329  0.5527  1.6925 -0.7763
31180SOL    HW295920  10.526   8.071   1.197 -0.9362 -0.7816 -0.3681
31181SOL     OW95921   8.517   4.862   3.918  0.4656  1.0735  0.3779
31181SOL    HW195922   8.493   4.938   3.866  2.4250  1.2947 -0.2661
31181SOL    HW295923   8.492   4.787   3.864  0.5776  1.2845  0.0302
31182SOL     OW95924  10.518   7.226   3.377  0.3664  0.3383  0.2406
31182SOL    HW195925  10.445   7.188   3.427  0.9253  0.6833  1.3654
31182SOL    HW295926  10.596   7.204   3.428  0.9522  0.7945 -0.4377
31183SOL     OW95927   8.425   1.097   0.574 -0.0977 -0.5694  0.3248
31183SOL    HW195928   8.451   1.116   0.484 -0.8835  0.0958  0.2257
31183SOL    HW295929   8.374   1.174   0.601  0.6980 -0.4387  1.5804
31184SOL     OW95930   4.408   2.463   6.478  0.2663 -0.6434 -0.0783
31184SOL    HW195931   4.449   2.380   6.452  0.1949 -0.6012 -0.3340
31184SOL    HW295932   4.314   2.442   6.482  0.0216 -0.1414 -1.9554
31185SOL     OW95933   7.896   0.732   0.550  0.1070  0.1564 -0.6751
31185SOL    HW195934   7.822   0.792   0.541  0.0268 -0.0282 -1.2619
31185SOL    HW295935   7.856   0.645   0.555  0.2520  0.1062 -0.3511
31186SOL     OW95936   0.160   0.297   1.082  0.1521 -0.5816 -0.4188
31186SOL    HW195937   0.220   0.370   1.069 -0.6974  0.2681  0.3116
31186SOL    HW295938   0.189   0.255   1.163  1.1369 -1.5717 -1.2624
31187SOL     OW95939   4.595   1.743   5.972 -0.0140 -0.4485 -0.8372
31187SOL    HW195940   4.635   1.657   5.978  0.0315 -0.3438  1.1922
31187SOL    HW295941   4.558   1.758   6.059  0.1042  1.6293 -1.0950
31188SOL     OW95942   6.439   6.456   9.342 -0.3979 -0.0980 -0.2111
31188SOL    HW195943   6.490   6.480   9.264 -3.1968  1.4983 -1.7469
31188SOL    HW295944   6.391   6.377   9.316 -0.4870 -0.2195  0.3115
31189SOL     OW95945   8.017   0.031   9.604 -0.0110 -0.7553 -0.3240
31189SOL    HW195946   7.926   0.056   9.619 -0.3775 -1.3365 -1.4295
31189SOL    HW295947   8.011  -0.050   9.554  1.1115 -0.5829 -0.7594
31190SOL     OW95948   0.151  10.404   2.887  0.1112  0.1852  0.5405
31190SOL    HW195949   0.152  10.482   2.831 -0.3456 -1.1370 -1.4131
31190SOL    HW295950   0.159  10.331   2.826 -0.2839 -1.3511  2.2449
31191SOL     OW95951   5.565   2.819   4.017  0.2116 -0.5947 -0.1306
31191SOL    HW195952   5.492   2.873   3.987  0.7242 -0.0198 -0.3748
31191SOL    HW295953   5.538   2.729   3.999 -0.4301 -0.3889 -0.2242
31192SOL     OW95954   9.002   2.349   4.011  0.1578 -0.5588 -0.2633
31192SOL    HW195955   8.994   2.253   4.012  2.0829 -0.7706 -0.7507
31192SOL    HW295956   8.983   2.374   3.921  0.3816 -0.5727 -0.3156
31193SOL     OW95957   7.569   0.664   8.050  0.5123 -0.0043 -0.2308
31193SOL    HW195958   7.558   0.596   8.116 -1.6448 -0.6150 -1.1650
31193SOL    HW295959   7.605   0.619   7.974 -0.3287 -0.0069 -0.6389
31194SOL     OW95960   1.286   1.883   7.302 -0.3123  0.0494  0.5246
31194SOL    HW195961   1.200   1.915   7.275 -1.6038 -1.4033  2.6517
31194SOL    HW295962   1.297   1.800   7.255  0.4306  0.7142 -0.5230
31195SOL     OW95963   3.373   5.148  10.425 -0.0129 -0.0777 -0.2023
31195SOL    HW195964   3.323   5.224  10.396 -0.7109 -0.6526 -0.5420
31195SOL    HW295965   3.356   5.143  10.519 -0.5066 -0.1891 -0.2915
31196SOL     OW95966   2.113   7.235   0.162  0.1514 -0.2466  0.3125
31196SOL    HW195967   2.074   7.313   0.203  0.8890  0.6180 -0.5937
31196SOL    HW295968   2.195   7.266   0.123  0.0987 -1.3173 -0.7113
31197SOL     OW95969   9.784   1.404   5.983  0.0979  0.9518  0.2199
31197SOL    HW195970   9.695   1.437   5.971  0.3632  1.7153  0.2659
31197SOL    HW295971   9.776   1.335   6.048 -0.2777  1.9651  1.2815
31198SOL     OW95972   9.358   4.295   4.151  0.0990  0.2853  0.5481
31198SOL    HW195973   9.361   4.200   4.141 -0.6259  0.4197 -1.3553
31198SOL    HW295974   9.446   4.319   4.181  0.4525 -0.9307  0.5202
31199SOL     OW95975   1.370   9.220   3.766 -0.1555 -0.0079 -0.0207
31199SOL    HW195976   1.304   9.283   3.737  0.1032  1.0247  1.4811
31199SOL    HW295977   1.410   9.188   3.686 -2.4510 -0.6803 -0.9942
31200SOL     OW95978   8.472  10.506   6.290 -0.4290 -0.6600 -0.3841
31200SOL    HW195979   8.400  10.536   6.344 -0.7902 -1.7174 -0.2589
31200SOL    HW295980   8.455  10.413   6.275 -0.3277 -0.4298 -2.2728
31201SOL     OW95981   7.084   7.540   7.982  0.3764  0.1904  0.2308
31201SOL    HW195982   6.989   7.537   7.971  0.4388  0.8281 -0.6098
31201SOL    HW295983   7.097   7.584   8.066 -0.0678  0.0868  0.3581
31202SOL     OW95984   9.775   2.391   7.668  0.3917  0.0247 -0.7512
31202SOL    HW195985   9.804   2.304   7.642 -0.6421 -0.3066 -0.8308
31202SOL    HW295986   9.691   2.377   7.712  1.1800  0.7556  1.1411
31203SOL     OW95987   8.540   2.458   3.424  0.3714  0.1058  0.2903
31203SOL    HW195988   8.512   2.540   3.465 -1.7439 -0.1414 -0.5488
31203SOL    HW295989   8.499   2.390   3.477 -1.9613 -0.2307 -1.7772
31204SOL     OW95990   9.736   4.677   6.061  0.0150  0.2285  0.3016
31204SOL    HW195991   9.734   4.594   6.014 -0.6719 -0.0304  0.7852
31204SOL    HW295992   9.823   4.713   6.042  0.3353 -0.6195  0.1407
31205SOL     OW95993   6.964   0.150   3.688 -0.7407 -0.4105  0.0121
31205SOL    HW195994   6.928   0.200   3.762  0.1166  0.7843 -0.3551
31205SOL    HW295995   6.970   0.060   3.721  1.1771  0.3512  2.0192
31206SOL     OW95996   8.298  10.544   5.001 -0.1822 -0.5373 -0.1430
31206SOL    HW195997   8.385  10.525   5.035 -0.4247 -2.1273 -0.3632
31206SOL    HW295998   8.310  10.622   4.946  0.8081  0.1293  0.9623
31207SOL     OW95999   4.452   3.817   9.956  0.1276 -0.3416 -0.3012
31207SOL    HW196000   4.447   3.757  10.031 -1.2062 -1.5760 -1.3271
31207SOL    HW296001   4.444   3.904   9.995 -0.3741 -0.9448  1.0151
31208SOL     OW96002   6.220   9.362   5.151 -0.3065  0.1468  0.3754
31208SOL    HW196003   6.168   9.365   5.070 -0.7879 -0.2382  0.6645
31208SOL    HW296004   6.163   9.318   5.214 -0.3152  1.2954  1.1957
31209SOL     OW96005   1.155   0.489   5.535 -0.1251 -0.2259  0.3213
31209SOL    HW196006   1.062   0.496   5.556 -0.1398 -2.0078  0.9559
31209SOL    HW296007   1.174   0.396   5.534  1.4168  0.0367 -0.9873
31210SOL     OW96008   5.474   9.200   2.327  0.1901 -0.1062  0.2693
31210SOL    HW196009   5.446   9.149   2.403 -0.3752 -0.3800 -0.1107
31210SOL    HW296010   5.394   9.245   2.297  0.2720 -0.4493 -0.5000
31211SOL     OW96011   4.536   2.310   2.221  0.1585 -0.1118 -0.3782
31211SOL    HW196012   4.479   2.267   2.285 -0.0055 -0.6687 -0.8981
31211SOL    HW296013   4.617   2.327   2.269 -0.1933  0.0574  0.1645
31212SOL     OW96014   1.090   8.483   4.683  0.4955  0.1441  0.6002
31212SOL    HW196015   1.044   8.399   4.686  0.0910 -0.0242 -3.7449
31212SOL    HW296016   1.085   8.517   4.772 -2.4940 -2.7652  1.7194
31213SOL     OW96017   7.556   1.028   4.789 -1.0731 -0.3204 -0.1913
31213SOL    HW196018   7.508   0.965   4.843 -1.0576 -0.6122 -0.5140
31213SOL    HW296019   7.523   1.114   4.817  1.3176 -0.2001  2.6688
31214SOL     OW96020   2.639   8.187   7.011 -0.5646  0.0875  0.4388
31214SOL    HW196021   2.678   8.105   7.041  0.3668 -0.1487 -1.2697
31214SOL    HW296022   2.555   8.161   6.973  0.0728 -0.2218 -0.8060
31215SOL     OW96023   8.664   9.841   4.805  0.0601  0.2290  0.2542
31215SOL    HW196024   8.668   9.852   4.710 -1.3978  0.8027  0.2269
31215SOL    HW296025   8.571   9.845   4.825  0.3819  0.5929  1.7681
31216SOL     OW96026   5.422   8.951   7.248  0.0135 -0.0153 -0.0361
31216SOL    HW196027   5.514   8.976   7.234  0.2029 -0.4310  0.4076
31216SOL    HW296028   5.384   9.026   7.294 -0.3394  0.8967 -1.7344
31217SOL     OW96029   7.337   4.779   9.739 -0.1055  0.0774 -0.1681
31217SOL    HW196030   7.388   4.774   9.658 -0.0056  2.5702 -0.3615
31217SOL    HW296031   7.401   4.794   9.808 -0.3072 -0.4984  0.1489
31218SOL     OW96032   8.952   5.425   6.576  0.2982 -0.5071 -0.3375
31218SOL    HW196033   8.981   5.505   6.531  0.1017 -0.0909  0.2684
31218SOL    HW296034   9.029   5.396   6.626  0.3806 -0.7244 -0.5842
31219SOL     OW96035   9.034   1.546   7.243  0.7549  0.4667  0.3384
31219SOL    HW196036   9.126   1.540   7.218  1.1526 -3.2164  1.9587
31219SOL    HW296037   8.986   1.524   7.163  1.3187  1.2183 -0.2210
31220SOL     OW96038   3.189  10.286   0.216 -0.0259  0.3964 -0.1532
31220SOL    HW196039   3.141  10.358   0.257  0.4439  1.1145 -0.8248
31220SOL    HW296040   3.275  10.323   0.196  0.8774 -0.9238  1.1760
31221SOL     OW96041   5.543   2.048   7.896  0.1372 -0.2004  0.3020
31221SOL    HW196042   5.449   2.036   7.882  0.4492 -0.7410 -1.5100
31221SOL    HW296043   5.571   2.108   7.827  1.0247  0.5248  1.2453
31222SOL     OW96044   0.012   0.327   3.103  0.3321  0.5531 -0.3597
31222SOL    HW196045   0.040   0.412   3.136 -1.4262  1.3774 -0.8634
31222SOL    HW296046   0.012   0.337   3.007 -1.4791  0.5856 -0.3958
31223SOL     OW96047   3.247   8.217   0.639 -0.5198  0.1022  0.1761
31223SOL    HW196048   3.185   8.241   0.709 -1.2226 -0.9703 -0.0468
31223SOL    HW296049   3.270   8.300   0.598 -0.9808  0.6338  0.9614
31224SOL     OW96050   9.543   2.670   9.557  0.9331 -0.8039 -0.6362
31224SOL    HW196051   9.620   2.726   9.548  0.9819 -0.9094 -0.8771
31224SOL    HW296052   9.479   2.706   9.496  1.7020 -2.2661 -2.3941
31225SOL     OW96053   0.228   5.132   1.300 -0.0362 -0.2796  0.0208
31225SOL    HW196054   0.132   5.133   1.293  0.0608 -1.8223 -2.9410
31225SOL    HW296055   0.250   5.221   1.328 -2.2258  0.9717 -1.8413
31226SOL     OW96056  10.356   3.336   1.717  0.0818  0.3976  0.9523
31226SOL    HW196057  10.339   3.243   1.735  0.8391  0.3900  1.6679
31226SOL    HW296058  10.451   3.343   1.717  0.0218  1.3221  1.6873
31227SOL     OW96059   1.459   7.736   5.040 -0.7373 -0.1972  0.3942
31227SOL    HW196060   1.501   7.821   5.030 -1.3390  0.2355  1.3647
31227SOL    HW296061   1.492   7.703   5.124 -0.3821 -0.9929 -0.0549
31228SOL     OW96062   7.638   4.606   0.198  0.0891  0.2607 -0.0963
31228SOL    HW196063   7.727   4.575   0.212 -0.8122 -2.1118  0.7984
31228SOL    HW296064   7.613   4.647   0.281 -0.3606 -1.0091  0.4138
31229SOL     OW96065   7.855  10.298   5.079  0.3271  0.0867 -0.6895
31229SOL    HW196066   7.803  10.287   4.999 -0.7456  0.3852 -0.0620
31229SOL    HW296067   7.884  10.389   5.076  0.0729  0.1725 -0.6264
31230SOL     OW96068   4.391   7.406   6.346  0.7724  0.1772  0.0037
31230SOL    HW196069   4.360   7.332   6.399 -0.8388  0.1387 -0.9276
31230SOL    HW296070   4.354   7.391   6.260 -0.3255  2.5152 -0.0063
31231SOL     OW96071   4.477   2.693   6.641  0.2246 -0.6782 -0.5015
31231SOL    HW196072   4.513   2.690   6.553  2.9374  2.5334  0.3164
31231SOL    HW296073   4.444   2.782   6.652  0.9470 -0.6192  2.0203
31232SOL     OW96074   5.580   0.393   5.197  0.2296  0.0642 -0.3674
31232SOL    HW196075   5.544   0.467   5.148  1.4678  0.3343 -0.9231
31232SOL    HW296076   5.675   0.400   5.183  0.5504 -0.3213  1.4299
31233SOL     OW96077   6.248   9.221   2.639  0.3708 -0.4354 -0.0806
31233SOL    HW196078   6.158   9.192   2.650  0.3761 -0.0131  1.3139
31233SOL    HW296079   6.242   9.296   2.579 -0.1659 -0.5744 -0.2037
31234SOL     OW96080   3.542   4.213  10.701 -0.4063  0.0130  0.1186
31234SOL    HW196081   3.469   4.253  10.655 -1.4433 -1.4004  0.4523
31234SOL    HW296082   3.531   4.242  10.792 -0.8167 -0.5391  0.2500
31235SOL     OW96083   0.349  10.154   2.460  0.1112  0.1249  0.3089
31235SOL    HW196084   0.271  10.195   2.497  0.2829  0.2063  0.5912
31235SOL    HW296085   0.316  10.083   2.405 -0.1480 -0.0608  0.6980
31236SOL     OW96086   4.030   3.764   6.064  0.1846 -0.2117 -0.4929
31236SOL    HW196087   4.070   3.772   5.977  0.1134 -0.3396 -0.5383
31236SOL    HW296088   4.094   3.716   6.116  1.4125  2.1247  0.3007
31237SOL     OW96089   1.935   7.590   9.126  0.1706 -0.1140 -0.3536
31237SOL    HW196090   1.935   7.657   9.195  1.2757 -0.5276  0.0676
31237SOL    HW296091   1.929   7.639   9.044  0.7021  0.4852 -0.0360
31238SOL     OW96092   1.307   9.764   0.763 -0.2010  0.1343 -0.1697
31238SOL    HW196093   1.340   9.780   0.675  2.6035  1.1473  0.9739
31238SOL    HW296094   1.221   9.806   0.765 -0.7408 -0.6867 -2.6290
31239SOL     OW96095   8.222   5.754   1.658 -0.3879  0.0754  0.5000
31239SOL    HW196096   8.279   5.820   1.698  0.7861 -0.8360  0.3970
31239SOL    HW296097   8.213   5.783   1.567 -1.1072  0.8702  0.8059
31240SOL     OW96098   3.320   7.720   0.331 -0.0712 -0.3322  0.1136
31240SOL    HW196099   3.394   7.752   0.383  0.0720  0.1003 -0.3382
31240SOL    HW296100   3.283   7.649   0.382 -0.3054  0.4648  1.0906
31241SOL     OW96101   4.402  10.463   2.709  0.2023 -0.3699 -0.2201
31241SOL    HW196102   4.380  10.451   2.801 -1.1613 -1.2465 -0.6319
31241SOL    HW296103   4.467  10.395   2.690 -0.8475 -1.3665 -0.3308
31242SOL     OW96104   6.837  10.195   7.531  0.6807  0.3045  0.0473
31242SOL    HW196105   6.817  10.209   7.624  1.4824  2.0949  0.0092
31242SOL    HW296106   6.841  10.100   7.521 -1.5840 -0.0021  1.3431
31243SOL     OW96107   7.628   0.920   7.369 -0.2180 -0.2947 -0.1630
31243SOL    HW196108   7.592   0.834   7.349  0.1018 -1.0629  2.2040
31243SOL    HW296109   7.557   0.981   7.350 -0.5402 -1.0873 -1.6297
31244SOL     OW96110   0.766   6.801   8.304 -0.2571 -0.1298  0.3008
31244SOL    HW196111   0.673   6.790   8.286 -0.2968  1.3679 -0.5130
31244SOL    HW296112   0.771   6.878   8.361  0.5766  0.8035 -0.9724
31245SOL     OW96113   7.231   4.172   7.342 -0.2201 -0.2478 -0.4377
31245SOL    HW196114   7.242   4.206   7.431 -2.2271 -1.8001  0.4654
31245SOL    HW296115   7.221   4.250   7.288  0.7233  0.7197  0.7024
31246SOL     OW96116   9.398   8.975   1.696 -0.2218  0.4610 -0.3031
31246SOL    HW196117   9.349   9.024   1.630  0.2762 -0.9390 -1.7831
31246SOL    HW296118   9.488   9.003   1.685 -0.3684  1.5246  1.0272
31247SOL     OW96119   3.288   1.029   6.569 -0.1107  0.0538  0.2255
31247SOL    HW196120   3.236   1.005   6.646 -0.1516 -1.4774 -0.2584
31247SOL    HW296121   3.229   1.084   6.517 -0.7184 -0.3931  0.4227
31248SOL     OW96122   3.768   6.032   3.115  0.5650  0.1131  0.5859
31248SOL    HW196123   3.827   6.099   3.149  0.6460  0.3751 -0.0403
31248SOL    HW296124   3.684   6.077   3.104 -0.1547 -0.6071  2.7683
31249SOL     OW96125   6.519   7.198   7.815  0.2246  0.0879 -0.4839
31249SOL    HW196126   6.426   7.207   7.795 -0.4381 -0.7332  1.8411
31249SOL    HW296127   6.533   7.258   7.888  2.3320  2.5564 -2.7009
31250SOL     OW96128   5.318   5.638   1.422 -0.3900  0.1626 -0.6188
31250SOL    HW196129   5.270   5.629   1.504 -0.0291  0.8975 -0.3206
31250SOL    HW296130   5.299   5.557   1.373 -1.4847  0.2147 -0.2809
31251SOL     OW96131   5.238   5.193   6.039  0.6070 -0.3075  0.1612
31251SOL    HW196132   5.183   5.125   6.001 -0.3301 -0.0949  1.1050
31251SOL    HW296133   5.231   5.267   5.978  0.3890 -0.5165 -0.0691
31252SOL     OW96134   5.555   6.706  10.236 -0.7716 -0.0859 -0.1566
31252SOL    HW196135   5.608   6.780  10.268 -0.2240 -1.1501  1.4990
31252SOL    HW296136   5.513   6.670  10.314 -1.0703 -1.5031 -0.9334
31253SOL     OW96137   5.737   0.420   2.301 -0.1647 -0.2100  0.3828
31253SOL    HW196138   5.714   0.505   2.263 -0.4758 -0.1330  0.7316
31253SOL    HW296139   5.805   0.385   2.244 -1.3498 -0.5822 -0.8442
31254SOL     OW96140   1.322   9.599   4.687 -0.2005 -0.0456  0.1067
31254SOL    HW196141   1.335   9.564   4.775  1.1025 -0.5574 -0.2634
31254SOL    HW296142   1.371   9.539   4.630 -2.7895 -1.0644 -1.2608
31255SOL     OW96143   8.621   2.616   9.624 -0.2593 -0.5518 -0.0051
31255SOL    HW196144   8.590   2.707   9.626  2.5468  0.4764  2.4261
31255SOL    HW296145   8.707   2.621   9.581 -0.5454 -2.2985 -0.8726
31256SOL     OW96146  10.054   6.096   3.733  0.2413  0.6167 -0.0359
31256SOL    HW196147  10.024   6.081   3.643 -0.2954  0.0332  0.2371
31256SOL    HW296148   9.983   6.144   3.774  0.3658  0.6320  0.1622
31257SOL     OW96149   2.960   6.568   1.849  0.1026 -0.4173  0.4293
31257SOL    HW196150   3.027   6.595   1.911  0.4801  0.8111 -0.4967
31257SOL    HW296151   2.898   6.518   1.902  0.9517 -0.2821  1.5859
31258SOL     OW96152  10.020   7.737   8.727  0.3712  0.4779  0.1251
31258SOL    HW196153  10.039   7.738   8.821  0.9347  2.2412  0.0217
31258SOL    HW296154  10.056   7.819   8.695 -2.2412  1.1991 -1.1755
31259SOL     OW96155   0.219   2.245   1.337 -0.3645 -0.2019 -0.0065
31259SOL    HW196156   0.221   2.177   1.270  1.7159  0.2508 -0.4926
31259SOL    HW296157   0.271   2.209   1.409  0.3017  0.6303 -0.0519
31260SOL     OW96158   8.013   2.958   5.480  0.1541 -0.1885  0.1306
31260SOL    HW196159   7.926   2.935   5.512  1.0995 -1.3358  2.0581
31260SOL    HW296160   8.007   3.051   5.460 -0.9384  0.3433  2.4987
31261SOL     OW96161   7.158   6.733   2.277  0.2839 -0.4776  0.1246
31261SOL    HW196162   7.198   6.732   2.363 -1.3795 -0.3697  0.9428
31261SOL    HW296163   7.165   6.642   2.246  2.2061 -0.2227 -0.3194
31262SOL     OW96164   5.490   3.172   8.238  0.1872 -0.2867  0.0868
31262SOL    HW196165   5.477   3.079   8.256 -0.8450 -0.2923 -0.6084
31262SOL    HW296166   5.433   3.217   8.301  0.5267 -0.1344  0.2854
31263SOL     OW96167   4.475   6.691   4.083  0.5814  0.2108  0.3196
31263SOL    HW196168   4.403   6.682   4.146  1.3142  0.3115  1.1881
31263SOL    HW296169   4.532   6.616   4.101  1.5505  1.0412  0.7769
31264SOL     OW96170   0.181   6.548   8.659  0.3977  0.0890 -0.2913
31264SOL    HW196171   0.141   6.635   8.645 -0.2421 -0.4264 -1.9026
31264SOL    HW296172   0.257   6.547   8.601  0.8383 -0.1709  0.2830
31265SOL     OW96173   4.281   1.965   2.216 -0.3110 -0.6275 -0.6318
31265SOL    HW196174   4.314   1.894   2.271  1.0785 -1.2544 -2.1714
31265SOL    HW296175   4.191   1.978   2.244  0.2459 -1.1346  1.5265
31266SOL     OW96176   1.989   0.032   7.031 -0.1372 -0.2780 -0.2332
31266SOL    HW196177   1.938  -0.020   6.969 -0.5025  0.2395 -0.3705
31266SOL    HW296178   1.980  -0.014   7.114 -1.7182  0.3764 -0.0205
31267SOL     OW96179   7.691   7.317   6.420  0.1966  0.0945  0.0072
31267SOL    HW196180   7.670   7.248   6.357 -1.4695 -0.5401  1.1809
31267SOL    HW296181   7.786   7.312   6.431  0.3295 -0.7387 -1.3398
31268SOL     OW96182   5.946  10.589   8.515  0.3414  0.1074  0.0336
31268SOL    HW196183   5.881  10.648   8.554 -0.0193 -1.1446  1.4059
31268SOL    HW296184   5.894  10.518   8.477  0.8415 -0.0653 -0.3294
31269SOL     OW96185  10.147   5.065   5.421  0.4771 -0.5752  1.0948
31269SOL    HW196186  10.204   5.059   5.344  0.0510  0.3118  0.6967
31269SOL    HW296187  10.101   4.981   5.422 -1.1491  0.2131 -0.9478
31270SOL     OW96188   0.462   0.479   1.769 -0.3970  0.5846  0.3592
31270SOL    HW196189   0.498   0.497   1.855 -0.8186 -1.4997  1.0293
31270SOL    HW296190   0.391   0.543   1.759  0.2771  1.4797  1.1065
31271SOL     OW96191   9.120   3.977  10.541  0.8900 -0.5017 -0.1397
31271SOL    HW196192   9.201   4.000  10.587 -0.9546  0.6610  2.8812
31271SOL    HW296193   9.073   3.921  10.603 -1.2544  0.1313 -1.1007
31272SOL     OW96194   4.592   5.867   9.527 -0.2730 -0.2049  0.2234
31272SOL    HW196195   4.595   5.914   9.610  1.2958  0.3577 -0.1209
31272SOL    HW296196   4.621   5.931   9.462 -1.3474 -0.6761 -0.7564
31273SOL     OW96197   8.430   2.995   0.108 -0.1481 -0.1901 -0.0454
31273SOL    HW196198   8.375   2.925   0.073 -0.8776  0.7413 -0.8183
31273SOL    HW296199   8.371   3.047   0.163 -0.7469  2.1813 -2.6950
31274SOL     OW96200   0.390   2.619   7.572 -0.2095 -0.1547  0.1342
31274SOL    HW196201   0.433   2.638   7.488  0.2886  1.1514  0.6588
31274SOL    HW296202   0.308   2.668   7.567 -0.5809 -0.7740  0.0744
31275SOL     OW96203  10.653   8.374   5.273  0.0003  0.4903 -0.1303
31275SOL    HW196204  10.746   8.383   5.255  0.0579  0.1417 -0.0148
31275SOL    HW296205  10.624   8.462   5.296  0.6165  0.3631  1.2745
31276SOL     OW96206   9.644   6.985   9.404  0.1609  0.3990  0.0269
31276SOL    HW196207   9.733   7.010   9.429 -0.1328  0.7508  0.7552
31276SOL    HW296208   9.653   6.950   9.315  0.8754  1.3508 -0.2979
31277SOL     OW96209   6.086   0.030   3.915 -0.8234 -0.1941 -0.0907
31277SOL    HW196210   5.998  -0.006   3.927 -0.2614 -1.6466 -0.1891
31277SOL    HW296211   6.113  -0.001   3.829  0.0872 -0.4176  0.2661
31278SOL     OW96212   4.763   9.247   3.219  0.2550  0.4265 -0.1893
31278SOL    HW196213   4.768   9.155   3.244 -0.2811  0.8967  1.9301
31278SOL    HW296214   4.695   9.250   3.152  0.8804 -0.8212 -0.8958
31279SOL     OW96215   2.395   8.371   0.276  0.2110 -0.1165 -0.4903
31279SOL    HW196216   2.346   8.448   0.245 -0.4805  0.2693  1.4021
31279SOL    HW296217   2.440   8.339   0.199 -0.8611  1.1748 -1.7195
31280SOL     OW96218   9.789   4.042   3.172 -0.7957 -0.0633  0.3742
31280SOL    HW196219   9.833   3.985   3.235 -0.7178 -0.9383 -0.4639
31280SOL    HW296220   9.860   4.089   3.128 -0.8569  0.6747  1.0226
31281SOL     OW96221   2.473   8.979   5.991 -0.3594  0.5276 -0.0756
31281SOL    HW196222   2.465   8.971   5.896 -1.0240 -0.0338  0.0171
31281SOL    HW296223   2.388   8.951   6.024  0.2782 -0.5487  0.7462
31282SOL     OW96224   2.753   2.986   4.220 -0.0656  0.4842 -0.2106
31282SOL    HW196225   2.808   3.042   4.275  0.7424 -0.7521  0.2782
31282SOL    HW296226   2.800   2.903   4.216 -1.1083 -0.0822 -1.1388
31283SOL     OW96227   4.861   8.219   4.892  0.4221 -0.8713  0.3292
31283SOL    HW196228   4.912   8.148   4.852 -0.2304 -2.5003  2.2041
31283SOL    HW296229   4.867   8.203   4.986 -1.2747  0.5059  0.7217
31284SOL     OW96230   7.802   4.467   9.729  0.1324 -0.1078 -0.4226
31284SOL    HW196231   7.766   4.520   9.800  1.1393 -0.5477  0.4277
31284SOL    HW296232   7.794   4.377   9.760  0.3154 -0.3238 -0.9910
31285SOL     OW96233  10.768   6.618   9.329 -0.2036  0.5282  0.3842
31285SOL    HW196234  10.749   6.638   9.420  2.2168  0.0051  1.0718
31285SOL    HW296235  10.772   6.522   9.325  3.9450  0.4820  0.8668
31286SOL     OW96236   2.259  10.655   6.143  0.7139 -0.6061  0.1228
31286SOL    HW196237   2.221  10.739   6.171 -0.3899 -0.2826 -2.1702
31286SOL    HW296238   2.351  10.676   6.124  0.6871 -0.1501  0.4722
31287SOL     OW96239   0.770   6.439   7.387  0.3464  0.0965 -0.2057
31287SOL    HW196240   0.834   6.381   7.427  1.6442  0.9827 -0.9429
31287SOL    HW296241   0.763   6.512   7.448  1.7830  1.0977 -1.1925
31288SOL     OW96242   0.300   0.081   9.632  0.1688  0.2038 -0.2390
31288SOL    HW196243   0.239   0.141   9.676  1.0108 -0.1611  1.5296
31288SOL    HW296244   0.262   0.068   9.545 -0.3219  2.8978 -0.5373
31289SOL     OW96245   1.460   7.423   0.593 -0.4836 -0.9262 -0.6244
31289SOL    HW196246   1.366   7.420   0.609 -0.2235  0.8709  1.8054
31289SOL    HW296247   1.499   7.386   0.673  0.8585  1.0781 -0.2763
31290SOL     OW96248   6.140   1.844   8.398  0.0219  0.1971  0.4956
31290SOL    HW196249   6.227   1.854   8.360 -0.3551  2.5515  0.0544
31290SOL    HW296250   6.100   1.773   8.347  1.5003 -0.6188  0.4140
31291SOL     OW96251   2.380  10.562   1.377  0.8918 -0.1106  0.5750
31291SOL    HW196252   2.341  10.505   1.443  1.3083 -0.9992  0.0681
31291SOL    HW296253   2.305  10.605   1.335  0.4602 -1.4132 -0.0417
31292SOL     OW96254   2.994   3.916   0.305  0.4030 -0.2963  0.5925
31292SOL    HW196255   3.034   3.889   0.387  1.5372  0.4290  0.3051
31292SOL    HW296256   2.997   3.838   0.250 -1.0452 -1.0028  1.4599
31293SOL     OW96257   3.706   0.716   5.579 -0.0523 -0.2324  0.1797
31293SOL    HW196258   3.759   0.785   5.541 -0.4250  0.7961  1.4526
31293SOL    HW296259   3.650   0.761   5.643 -1.2195 -1.5247  0.1168
31294SOL     OW96260   2.657   4.435   5.405  0.0969 -0.0384 -0.5239
31294SOL    HW196261   2.589   4.455   5.342  0.2506  3.0303  0.1060
31294SOL    HW296262   2.739   4.442   5.356  0.0818 -1.1463 -0.7199
31295SOL     OW96263   9.705   5.461   1.796  0.2130  0.0532 -0.0215
31295SOL    HW196264   9.789   5.446   1.753 -0.2706 -0.5013 -0.7981
31295SOL    HW296265   9.644   5.478   1.724 -0.5899 -0.7911  0.4283
31296SOL     OW96266   1.804   8.275   8.817  0.9432  0.7155  0.8581
31296SOL    HW196267   1.797   8.201   8.757  0.6086  1.1492  0.3437
31296SOL    HW296268   1.898   8.286   8.830  1.0450  0.8369  0.1104
31297SOL     OW96269   7.241   5.237  10.003  0.3816 -0.7068 -0.2366
31297SOL    HW196270   7.199   5.257   9.919 -1.2666 -1.3924  0.3732
31297SOL    HW296271   7.321   5.191   9.980 -0.1158 -1.0172 -1.4384
31298SOL     OW96272  10.109  10.635   5.121  0.3105 -0.3978 -0.2567
31298SOL    HW196273  10.146  10.564   5.173  0.6499 -1.0156 -1.3000
31298SOL    HW296274  10.160  10.713   5.146 -2.0708  0.2544  3.1894
31299SOL     OW96275   6.695  10.456   6.854  0.2037  0.2363  0.5394
31299SOL    HW196276   6.767  10.512   6.881 -0.8801  1.5522  0.8234
31299SOL    HW296277   6.631  10.463   6.925 -0.4845 -0.3735 -0.0029
31300SOL     OW96278   1.366   1.172   5.600  0.0113 -0.3313  0.2765
31300SOL    HW196279   1.407   1.249   5.639 -0.0686  0.9939 -2.0606
31300SOL    HW296280   1.284   1.204   5.563 -0.1145 -1.5640 -0.5955
31301SOL     OW96281   1.484   7.374   6.996 -0.0406  0.5726 -0.5260
31301SOL    HW196282   1.574   7.404   7.011 -0.1489  1.6673 -1.8464
31301SOL    HW296283   1.435   7.455   6.981 -1.4543  0.0698  1.0405
31302SOL     OW96284   2.328   1.211   9.162  0.9723 -0.3749  0.3588
31302SOL    HW196285   2.371   1.208   9.248 -0.4547  0.4525  1.1396
31302SOL    HW296286   2.246   1.256   9.178 -0.2377 -1.9422 -1.0826
31303SOL     OW96287   5.695  10.540   8.273 -0.1655 -0.5476 -0.1031
31303SOL    HW196288   5.735  10.625   8.254 -2.4296  0.5793 -0.0905
31303SOL    HW296289   5.642  10.555   8.351 -1.1867 -1.7577 -0.5250
31304SOL     OW96290   2.271   5.108   8.631 -0.2425 -0.2046 -0.4350
31304SOL    HW196291   2.246   5.037   8.690 -0.1203 -0.0644 -0.2122
31304SOL    HW296292   2.360   5.086   8.604 -1.2110 -1.6778 -2.6779
31305SOL     OW96293   8.432   4.747  10.440  0.8601 -0.5154  0.2446
31305SOL    HW196294   8.394   4.698  10.513 -1.1554 -1.4934 -1.3502
31305SOL    HW296295   8.378   4.826  10.433  1.3063 -0.2221  0.0573
31306SOL     OW96296   4.188   2.098   0.398  0.1221  0.1754  0.0449
31306SOL    HW196297   4.217   2.186   0.375  0.0188  0.2395  0.1567
31306SOL    HW296298   4.258   2.063   0.453  0.1719  0.1807 -0.0154
31307SOL     OW96299   3.903   5.530   8.316 -0.0012 -0.2300  0.0261
31307SOL    HW196300   3.952   5.602   8.357 -0.2505 -0.6971  1.1878
31307SOL    HW296301   3.928   5.453   8.367  0.3642 -1.0093 -1.2927
31308SOL     OW96302  10.107   9.807   1.922 -0.3261 -0.1485 -0.2017
31308SOL    HW196303  10.073   9.720   1.945 -1.2944 -0.0173 -1.0733
31308SOL    HW296304  10.162   9.792   1.846  1.2895 -0.2930  0.9450
31309SOL     OW96305   7.272   7.148   5.991  0.2100  0.5187 -0.1872
31309SOL    HW196306   7.280   7.188   5.904 -1.1211 -0.3732 -0.7558
31309SOL    HW296307   7.207   7.079   5.979  1.8406 -1.2977  0.9461
31310SOL     OW96308   9.226   3.667   1.681 -0.3099  0.2643  0.2676
31310SOL    HW196309   9.176   3.642   1.603 -1.8998  0.7292  1.1201
31310SOL    HW296310   9.268   3.750   1.657 -0.9884  0.5308 -0.0122
31311SOL     OW96311   8.292   6.648   1.456  0.1501  0.0724  0.2080
31311SOL    HW196312   8.386   6.643   1.475  0.1387  0.0979  0.2742
31311SOL    HW296313   8.285   6.622   1.364  0.0084 -1.8665  0.7170
31312SOL     OW96314   2.435   3.061   0.613  0.4391 -0.4673 -0.4576
31312SOL    HW196315   2.456   3.155   0.608  1.0909 -0.6532 -1.6070
31312SOL    HW296316   2.500   3.026   0.674 -0.7282  0.0415  1.1590
31313SOL     OW96317   6.566   0.117   9.685 -0.0944  0.0830  0.3576
31313SOL    HW196318   6.620   0.047   9.650  0.1632  0.6074 -0.3261
31313SOL    HW296319   6.476   0.086   9.673 -0.0320  0.3262 -1.0094
31314SOL     OW96320   6.217   8.418   0.013 -0.2678  0.1407 -0.6836
31314SOL    HW196321   6.234   8.469   0.092  1.7666 -0.0891 -0.9007
31314SOL    HW296322   6.219   8.327   0.042  1.7385 -0.0066 -1.1282
31315SOL     OW96323   0.932   5.053   1.523 -0.0114 -0.1575  0.3313
31315SOL    HW196324   0.923   5.092   1.610 -0.2550  1.6613 -0.4658
31315SOL    HW296325   1.026   5.055   1.505  0.0511 -0.6450  0.5909
31316SOL     OW96326   3.831  10.704   5.663 -0.2470  0.1341  0.2289
31316SOL    HW196327   3.754  10.758   5.645 -1.3905 -1.7541 -0.8868
31316SOL    HW296328   3.905  10.764   5.653 -1.4581  1.5356 -0.7357
31317SOL     OW96329  10.659   5.343   1.779  0.2080 -0.0770  0.0990
31317SOL    HW196330  10.635   5.252   1.763 -2.4817  0.9456 -2.7433
31317SOL    HW296331  10.688   5.345   1.870  1.0991 -3.8460  0.0578
31318SOL     OW96332   1.856   7.536   1.947 -0.3675  0.3441 -0.1319
31318SOL    HW196333   1.855   7.598   1.874 -0.2053  1.2454  0.6144
31318SOL    HW296334   1.806   7.579   2.016  2.5401  1.1707  1.6015
31319SOL     OW96335   3.072   8.282   0.151 -0.0834 -0.8972 -0.1408
31319SOL    HW196336   3.073   8.235   0.234  1.2352 -0.2600  0.2273
31319SOL    HW296337   3.163   8.279   0.120 -0.8598 -2.9528 -2.6477
31320SOL     OW96338   4.534   3.664   3.525  0.7106  0.2639  0.0607
31320SOL    HW196339   4.487   3.580   3.520  0.8990  0.1347  0.4233
31320SOL    HW296340   4.469   3.729   3.497  0.5600 -0.0004 -0.2158
31321SOL     OW96341   8.880   6.526   5.238  0.1041 -0.2925 -0.8901
31321SOL    HW196342   8.883   6.468   5.162  0.4511 -1.4264 -0.0399
31321SOL    HW296343   8.970   6.555   5.250  0.3271 -1.3141 -0.0256
31322SOL     OW96344   5.289   5.173   0.713  0.1754  0.7278  0.0284
31322SOL    HW196345   5.314   5.260   0.683 -0.0474  0.2335 -1.7017
31322SOL    HW296346   5.212   5.151   0.660 -0.8541  0.1873  1.7007
31323SOL     OW96347   4.512   9.446   4.387 -0.1411 -0.2947 -0.2509
31323SOL    HW196348   4.531   9.440   4.294 -0.2044  2.8251 -0.5712
31323SOL    HW296349   4.577   9.509   4.420 -0.6142 -0.7560  1.6710
31324SOL     OW96350   6.723   7.699  10.205 -0.6477  0.2804 -0.0605
31324SOL    HW196351   6.720   7.732  10.295 -0.2130 -1.5263  0.6610
31324SOL    HW296352   6.632   7.697  10.177 -0.6658  2.3742 -0.2829
31325SOL     OW96353   5.392   2.861   7.447 -0.2459 -0.0146 -0.1771
31325SOL    HW196354   5.374   2.876   7.354  0.5766  2.8016  0.0250
31325SOL    HW296355   5.315   2.895   7.492 -0.3150 -0.6794  0.2205
31326SOL     OW96356   3.897   1.800   6.664  0.2646 -0.0586 -0.2618
31326SOL    HW196357   3.818   1.838   6.702  0.1604  0.3252 -0.8420
31326SOL    HW296358   3.873   1.710   6.642 -0.4528  0.4488 -1.6828
31327SOL     OW96359   5.729   9.865   2.206 -0.5283  0.2074 -0.2729
31327SOL    HW196360   5.764   9.810   2.276 -1.7779 -0.6016 -0.2575
31327SOL    HW296361   5.687   9.938   2.251  0.5800  0.8696 -0.2743
31328SOL     OW96362  10.528   4.597   0.057 -0.3775 -0.1001  0.6623
31328SOL    HW196363  10.507   4.601   0.150  1.3355  2.0668  1.0511
31328SOL    HW296364  10.554   4.687   0.035  1.3249 -1.0167 -1.3810
31329SOL     OW96365   5.498   9.861   5.911 -0.3312 -0.5010  0.5797
31329SOL    HW196366   5.589   9.882   5.932 -0.4234 -1.1303  1.6998
31329SOL    HW296367   5.448   9.935   5.944 -0.1318  0.5847 -1.4154
31330SOL     OW96368   8.772   8.424   4.836 -0.0461 -0.1632  0.2908
31330SOL    HW196369   8.742   8.372   4.762  2.7547 -0.3053 -0.8638
31330SOL    HW296370   8.790   8.510   4.799  3.1763 -0.7406  0.2484
31331SOL     OW96371   5.937   2.226   9.593 -0.1633 -0.0676 -0.1413
31331SOL    HW196372   5.895   2.140   9.584 -1.0372  0.4193 -0.8788
31331SOL    HW296373   5.873   2.280   9.638  0.2916  0.2773  0.1072
31332SOL     OW96374   8.074   5.679   6.372 -0.1331 -0.4408  0.3346
31332SOL    HW196375   8.046   5.653   6.459  1.8354 -0.0589  1.1403
31332SOL    HW296376   8.092   5.597   6.326  0.6185 -0.6293  0.9469
31333SOL     OW96377   2.109   7.869   1.840 -0.1899  0.5855  0.2187
31333SOL    HW196378   2.168   7.810   1.886 -2.0151 -0.2129  1.6892
31333SOL    HW296379   2.099   7.944   1.899 -0.7644  0.6215  0.0849
31334SOL     OW96380   6.411  10.795   0.779 -0.0020  0.0192  0.0648
31334SOL    HW196381   6.428  10.786   0.873 -2.2807 -0.7619  0.4467
31334SOL    HW296382   6.380  10.885   0.769 -0.9045 -0.2644  0.2665
31335SOL     OW96383   8.895   9.090   0.771 -0.1266 -0.1428  0.2137
31335SOL    HW196384   8.948   9.164   0.743 -0.7352  0.6095  1.0232
31335SOL    HW296385   8.955   9.015   0.766 -0.2207 -0.1775 -3.3410
31336SOL     OW96386   5.190   7.249   3.175 -0.6595  0.5786  0.3997
31336SOL    HW196387   5.140   7.168   3.188 -0.6347  0.6877  1.2338
31336SOL    HW296388   5.160   7.307   3.245  0.9170  0.5013  1.1896
31337SOL     OW96389   8.195   0.723   9.878  0.4660  0.3375  0.3689
31337SOL    HW196390   8.253   0.799   9.886  1.5743 -0.5507  1.0382
31337SOL    HW296391   8.151   0.736   9.794 -0.0877  2.1934  0.8933
31338SOL     OW96392   7.086   6.653   5.385  0.0533  0.1925 -0.0644
31338SOL    HW196393   6.991   6.641   5.391  0.1235 -0.1858  0.3142
31338SOL    HW296394   7.101   6.740   5.423 -0.1311  0.2323 -0.0774
31339SOL     OW96395   2.894   9.660   9.920 -0.1368  0.3581  0.0539
31339SOL    HW196396   2.948   9.712   9.860  0.6030 -0.4973 -0.0569
31339SOL    HW296397   2.955   9.632   9.988 -0.0635 -1.7739 -0.8025
31340SOL     OW96398  10.486   4.334   2.945  0.1949 -0.4544 -0.1750
31340SOL    HW196399  10.552   4.360   3.009 -0.3005 -0.1344  0.2042
31340SOL    HW296400  10.408   4.315   2.996 -0.5461  0.8760 -0.7522
31341SOL     OW96401  10.157   8.300   4.023  0.2546  0.5582  0.6294
31341SOL    HW196402  10.185   8.258   4.104  2.2294  0.1385 -0.2075
31341SOL    HW296403  10.157   8.230   3.958 -3.6560  0.3314  0.6348
31342SOL     OW96404   8.405  10.256   7.828 -0.3069 -0.1364 -0.2333
31342SOL    HW196405   8.450  10.186   7.875  0.9855  1.3242  0.7986
31342SOL    HW296406   8.446  10.257   7.742  0.6836  0.2473  0.2271
31343SOL     OW96407  10.270   4.284   4.048  0.1712 -0.1719 -0.5229
31343SOL    HW196408  10.246   4.373   4.076  3.0982  1.0057 -1.3403
31343SOL    HW296409  10.313   4.297   3.963  2.6221 -2.0580  0.3279
31344SOL     OW96410   9.473   4.293   3.510  0.0464 -0.2070  0.0647
31344SOL    HW196411   9.442   4.237   3.438  0.7250 -1.0821  0.4328
31344SOL    HW296412   9.455   4.242   3.589  1.2352 -0.1785  0.3635
31345SOL     OW96413   2.281   7.023   7.600  0.0311 -0.0254 -0.3735
31345SOL    HW196414   2.344   7.036   7.671 -1.6035  0.7341  1.0062
31345SOL    HW296415   2.216   6.963   7.635 -1.8087  1.7696 -0.4833
31346SOL     OW96416   4.635   4.940   4.463 -0.0173 -0.0029 -0.2631
31346SOL    HW196417   4.642   4.846   4.446 -0.7784  0.0434 -0.9228
31346SOL    HW296418   4.548   4.964   4.429 -0.3235  0.7114  0.9708
31347SOL     OW96419   6.503   2.474   5.924  0.5635  0.0855  0.6670
31347SOL    HW196420   6.553   2.423   5.859  0.7261  0.0170  0.8444
31347SOL    HW296421   6.491   2.414   5.997 -1.7321 -0.6560 -0.2489
31348SOL     OW96422   9.881   0.894   9.460 -0.2829 -0.7644 -0.3016
31348SOL    HW196423   9.908   0.811   9.421  0.0908 -0.5159 -0.5789
31348SOL    HW296424   9.903   0.960   9.394 -2.7368 -0.6524 -1.1033
31349SOL     OW96425   6.514   9.330   9.316 -0.7244 -0.1111 -0.2630
31349SOL    HW196426   6.529   9.386   9.392  2.2021 -1.5330  0.3544
31349SOL    HW296427   6.538   9.384   9.241 -0.3579  0.2488  0.1107
31350SOL     OW96428   5.215   0.730   7.206  0.3819  0.6436 -0.0086
31350SOL    HW196429   5.258   0.798   7.258  1.5003 -0.0518 -0.0085
31350SOL    HW296430   5.230   0.756   7.115  1.0146  0.2883 -0.0123
31351SOL     OW96431   9.575   1.553   0.949 -0.2562 -0.2753 -0.2103
31351SOL    HW196432   9.615   1.567   1.035 -0.6774 -0.2452 -0.0166
31351SOL    HW296433   9.640   1.502   0.901  0.7265  1.1517 -0.4591
31352SOL     OW96434   5.471   6.983   3.119 -0.1541 -0.9123 -0.0110
31352SOL    HW196435   5.413   7.004   3.192 -2.3869  1.4137 -2.2284
31352SOL    HW296436   5.555   7.023   3.143 -0.7228 -0.5316  1.4159
31353SOL     OW96437   5.681   5.241   5.125 -0.2399 -0.2021  0.5941
31353SOL    HW196438   5.621   5.221   5.054 -1.3739 -1.5736  1.8927
31353SOL    HW296439   5.752   5.177   5.117 -0.1198 -0.0505  0.4318
31354SOL     OW96440   4.573   1.597   6.974 -0.3511 -0.0986 -0.5584
31354SOL    HW196441   4.542   1.513   7.009 -0.8830 -0.2233 -1.3115
31354SOL    HW296442   4.607   1.577   6.887  1.7416  0.0701  0.1639
31355SOL     OW96443   4.446   3.980   5.387  0.5255 -0.1962 -0.0668
31355SOL    HW196444   4.432   4.064   5.345  0.0916  0.0299  0.5311
31355SOL    HW296445   4.539   3.960   5.370  0.4670  0.0821 -0.7619
31356SOL     OW96446   0.445   3.693   9.009 -0.4385  0.1329 -0.4600
31356SOL    HW196447   0.409   3.605   9.017  0.4448 -0.4097 -1.9337
31356SOL    HW296448   0.408   3.727   8.928 -0.0473  0.7602 -0.3866
31357SOL     OW96449   3.780   6.663   1.482  0.6182  0.1529 -0.1914
31357SOL    HW196450   3.699   6.616   1.500 -0.4406  2.0128  0.1715
31357SOL    HW296451   3.769   6.698   1.394  2.9095 -3.1392 -2.0057
31358SOL     OW96452   8.826   8.487   5.255 -0.0167  0.6368 -0.3592
31358SOL    HW196453   8.732   8.501   5.271 -0.1246  0.0470 -0.4412
31358SOL    HW296454   8.869   8.564   5.291 -0.4847  0.6264  0.2324
31359SOL     OW96455   7.117   6.783   4.437  0.4248 -0.3277  0.0493
31359SOL    HW196456   7.180   6.797   4.509  0.8877 -0.0969 -0.3935
31359SOL    HW296457   7.166   6.805   4.358 -0.3636  0.3106 -0.2731
31360SOL     OW96458   1.006   3.126   5.045 -0.5036  0.4165 -0.1534
31360SOL    HW196459   0.981   3.139   5.137 -0.1137  1.7534 -0.2149
31360SOL    HW296460   0.930   3.084   5.005 -1.3806  1.4377  0.3934
31361SOL     OW96461  10.502   0.330   2.375 -0.3255  0.2044 -0.3285
31361SOL    HW196462  10.509   0.425   2.384  2.3408  0.1883 -1.4493
31361SOL    HW296463  10.514   0.297   2.464 -1.1928  0.8793  0.0576
31362SOL     OW96464   8.235   4.078   0.878 -0.3680  0.3796 -0.1450
31362SOL    HW196465   8.191   4.106   0.798  0.1499  0.0091 -0.5711
31362SOL    HW296466   8.168   4.030   0.927 -0.9999  1.5325  0.1639
31363SOL     OW96467   6.077   1.505  10.323  0.6835 -0.2108 -0.2409
31363SOL    HW196468   6.103   1.596  10.311  0.2997  0.3407  2.3691
31363SOL    HW296469   6.158   1.459  10.344  0.7094 -0.2124 -0.3452
31364SOL     OW96470  10.780   3.508   9.887  0.6596  0.6182  0.9974
31364SOL    HW196471  10.825   3.433   9.848 -2.3687 -1.1429  0.5883
31364SOL    HW296472  10.798   3.580   9.827 -0.5517 -1.0696 -1.5577
31365SOL     OW96473   6.280   7.136   3.074 -0.7589 -0.0043 -0.2927
31365SOL    HW196474   6.357   7.154   3.128 -0.0826 -1.5734 -0.6934
31365SOL    HW296475   6.299   7.178   2.990 -0.9286  0.6971  0.0068
31366SOL     OW96476   8.564   7.018   0.055  0.1696 -0.6754  0.7468
31366SOL    HW196477   8.513   7.060  -0.014  1.6327  0.3805  0.2829
31366SOL    HW296478   8.510   7.029   0.134 -0.3606  0.3506  0.2644
31367SOL     OW96479   4.782   3.260   3.800  0.0188 -1.0541  0.1235
31367SOL    HW196480   4.818   3.312   3.728 -0.7921 -2.2067 -1.1757
31367SOL    HW296481   4.852   3.201   3.825  0.5290 -0.1978  0.7602
31368SOL     OW96482  10.546   7.688  10.373 -0.4584  0.2967  0.0558
31368SOL    HW196483  10.519   7.658  10.286 -0.4923  0.2809  0.0718
31368SOL    HW296484  10.566   7.781  10.360 -0.4047  0.2806  0.0180
31369SOL     OW96485   7.415   2.906   8.829  0.1047 -0.0605  0.3872
31369SOL    HW196486   7.366   2.853   8.892 -1.6844  1.2512  0.1868
31369SOL    HW296487   7.506   2.879   8.840  0.1191  1.0198  4.5538
31370SOL     OW96488   5.799   9.631   9.597 -0.0983 -0.1288  0.4033
31370SOL    HW196489   5.832   9.651   9.509 -2.1591  1.3645 -0.0992
31370SOL    HW296490   5.874   9.649   9.655  0.3896  2.0474 -0.7697
31371SOL     OW96491   0.685   6.337   4.549  0.2204  0.4015 -0.2570
31371SOL    HW196492   0.772   6.352   4.585 -0.6899  1.9217  1.4408
31371SOL    HW296493   0.684   6.389   4.468  0.6899  0.8287  0.0055
31372SOL     OW96494   2.364   5.614   5.209 -0.3627  0.3068  0.2658
31372SOL    HW196495   2.298   5.573   5.266 -0.4659 -0.2644 -0.2528
31372SOL    HW296496   2.425   5.656   5.269 -0.8177  0.2508  0.7782
31373SOL     OW96497   8.445   0.521   2.942  0.3536  0.4071 -0.2618
31373SOL    HW196498   8.453   0.425   2.944  0.0327  0.3862  0.1189
31373SOL    HW296499   8.398   0.543   3.022  0.8184  0.9245 -0.1282
31374SOL     OW96500   1.111   4.998   8.013 -0.1725  1.0560 -0.0072
31374SOL    HW196501   1.182   5.048   8.051  0.8463 -0.4994  0.2084
31374SOL    HW296502   1.078   4.944   8.084  1.0982 -1.1483 -0.9823
31375SOL     OW96503   3.219   6.581   8.883  0.5466 -0.4014  0.3488
31375SOL    HW196504   3.282   6.625   8.939  1.0705 -0.3450 -0.2709
31375SOL    HW296505   3.156   6.541   8.943  0.2807  0.8573  0.9365
31376SOL     OW96506   0.330   5.093   4.635  0.1711 -0.3804  0.1018
31376SOL    HW196507   0.407   5.055   4.677 -0.7482 -1.1983  1.1247
31376SOL    HW296508   0.268   5.106   4.707 -0.5685  0.4478 -0.6693
31377SOL     OW96509  10.236   6.005   2.077  0.4305  0.0965  0.5429
31377SOL    HW196510  10.194   6.069   2.135 -1.8676  0.2230 -1.1254
31377SOL    HW296511  10.174   5.993   2.006  3.1706  0.0266 -2.0007
31378SOL     OW96512   7.186   0.473   8.321 -0.1943  0.3209 -0.8223
31378SOL    HW196513   7.230   0.424   8.252 -0.3962 -0.2340 -0.5628
31378SOL    HW296514   7.205   0.424   8.401 -1.9280 -0.3899 -0.8049
31379SOL     OW96515   5.920   5.933   2.303  0.0095  0.0314 -0.1598
31379SOL    HW196516   5.907   5.838   2.314 -2.9783  0.5529  2.3847
31379SOL    HW296517   6.014   5.945   2.306  0.4194 -2.7077  1.7009
31380SOL     OW96518  10.381   1.252   5.257  0.5179  0.3113 -0.4031
31380SOL    HW196519  10.457   1.195   5.267  1.3487  1.0516 -2.2180
31380SOL    HW296520  10.375   1.270   5.163 -0.8936  1.6241 -0.1140
31381SOL     OW96521   1.240   8.324   3.009 -0.0044  0.6485  0.6398
31381SOL    HW196522   1.325   8.354   3.041  0.0554  2.2912 -0.8972
31381SOL    HW296523   1.213   8.391   2.946 -1.9053 -0.4329  0.2189
31382SOL     OW96524  10.613   7.864   1.696  0.2773  0.4104 -0.2197
31382SOL    HW196525  10.670   7.791   1.670 -0.0453 -0.3777  1.2205
31382SOL    HW296526  10.624   7.871   1.790 -2.5290 -0.2404  0.2360
31383SOL     OW96527   1.493   5.282   4.571 -0.0585 -0.3442 -0.0393
31383SOL    HW196528   1.585   5.254   4.575  0.1569 -0.0347 -1.9155
31383SOL    HW296529   1.490   5.363   4.622  0.4570 -0.9563  0.9804
31384SOL     OW96530   5.615   9.763   4.439  0.0794  0.0414  0.3700
31384SOL    HW196531   5.586   9.702   4.507 -0.3582 -2.0328 -1.5658
31384SOL    HW296532   5.535   9.783   4.390  0.5929  0.5728 -0.2587
31385SOL     OW96533   6.769   9.920   8.207  0.1288 -0.3557  0.4507
31385SOL    HW196534   6.821   9.849   8.245  0.2543 -0.5507 -0.0736
31385SOL    HW296535   6.697   9.877   8.162 -1.0804 -0.0474  1.9940
31386SOL     OW96536   9.119   9.134   6.216  0.3724 -0.4931 -0.2799
31386SOL    HW196537   9.048   9.152   6.154 -0.7323  1.3957  1.4296
31386SOL    HW296538   9.094   9.051   6.257 -0.7661  0.0586  0.1658
31387SOL     OW96539  10.571   2.991   5.919  0.1617  0.2696  0.3871
31387SOL    HW196540  10.477   3.005   5.912  0.2352  1.1033  0.8465
31387SOL    HW296541  10.599   3.053   5.986  1.5005  2.1549 -1.7843
31388SOL     OW96542   1.995   8.919   5.454 -0.1308  0.1731  0.4807
31388SOL    HW196543   1.986   8.825   5.467 -0.3105  0.4288  2.3761
31388SOL    HW296544   1.905   8.949   5.439  0.0528 -0.0889 -1.5380
31389SOL     OW96545   3.423   8.748   7.421 -0.3435 -0.6394  0.4177
31389SOL    HW196546   3.398   8.832   7.460 -1.0587 -0.4105 -0.5127
31389SOL    HW296547   3.519   8.748   7.425 -0.3724 -0.3470  1.5811
31390SOL     OW96548   7.478   9.153   4.822 -0.1804  0.6242 -0.2448
31390SOL    HW196549   7.418   9.108   4.881  0.2453  0.9201  0.4255
31390SOL    HW296550   7.435   9.237   4.804  0.1856  0.9856  0.5214
31391SOL     OW96551   5.083   1.358   0.487  0.3912 -0.5468 -0.1799
31391SOL    HW196552   5.160   1.413   0.475  1.3675 -1.9087 -0.4432
31391SOL    HW296553   5.015   1.398   0.433  1.7581 -0.9017 -2.2700
31392SOL     OW96554   0.428   6.076   6.797 -0.8881  0.5845 -0.0785
31392SOL    HW196555   0.358   6.082   6.732 -0.0484 -1.0727 -1.2313
31392SOL    HW296556   0.508   6.090   6.746 -0.3166  1.9485  1.1279
31393SOL     OW96557   6.589   1.279   2.216  0.0668  0.3248  0.0196
31393SOL    HW196558   6.495   1.274   2.202 -0.0717  0.9691  0.6457
31393SOL    HW296559   6.612   1.197   2.259 -0.4218  0.6856  0.9846
31394SOL     OW96560   2.102   7.029   2.643 -0.3985  0.0845  0.1266
31394SOL    HW196561   2.103   6.996   2.553  0.3081 -1.0099  0.5141
31394SOL    HW296562   2.172   6.981   2.687 -0.4439  0.9237  1.1576
31395SOL     OW96563   5.941   6.771   8.464 -0.2019  0.0428 -0.1381
31395SOL    HW196564   6.032   6.762   8.493  0.5399  1.2528 -1.8833
31395SOL    HW296565   5.902   6.832   8.526  1.0363  1.7705 -0.9595
31396SOL     OW96566   8.720   4.729   0.132  0.7129  0.5151 -0.3615
31396SOL    HW196567   8.804   4.746   0.089 -0.1717 -0.0206 -2.4309
31396SOL    HW296568   8.682   4.656   0.083 -0.6012  0.1848  1.0645
31397SOL     OW96569  10.168  10.283   8.063  0.1135  0.4024 -0.5268
31397SOL    HW196570  10.256  10.245   8.065  0.4766  1.2255 -0.1580
31397SOL    HW296571  10.180  10.372   8.098 -0.9055  0.4421 -0.2544
31398SOL     OW96572   9.949   9.328   9.522 -0.1802  0.1773  0.8242
31398SOL    HW196573  10.013   9.366   9.461 -0.6879 -0.3455 -0.0550
31398SOL    HW296574   9.868   9.374   9.502 -0.9445 -1.6917 -0.6437
31399SOL     OW96575   7.664  10.081   3.806  0.0445  0.1996 -0.3350
31399SOL    HW196576   7.592  10.041   3.854 -0.6969  1.8328 -0.0321
31399SOL    HW296577   7.679  10.164   3.850  2.2461 -0.1604 -0.2890
31400SOL     OW96578   9.680   7.135   7.349  0.1268 -0.3142 -0.6203
31400SOL    HW196579   9.632   7.053   7.357 -0.2051 -0.1668 -1.0268
31400SOL    HW296580   9.771   7.109   7.341  0.2373 -0.5664  1.0544
31401SOL     OW96581   0.446   9.373   3.972 -0.4736  0.5070  0.3977
31401SOL    HW196582   0.479   9.458   3.944  0.4133 -0.2894 -1.0612
31401SOL    HW296583   0.502   9.348   4.045  0.9680  0.0349 -0.8290
31402SOL     OW96584   2.821   8.113   6.619  0.2085  0.8651 -0.0797
31402SOL    HW196585   2.811   8.022   6.647  1.6841  0.1964 -1.5329
31402SOL    HW296586   2.731   8.143   6.605 -0.3003 -0.5641 -0.0886
31403SOL     OW96587   7.127   4.373  10.388  0.5180  0.2325  0.2606
31403SOL    HW196588   7.102   4.456  10.348  1.4322  1.2295  1.6945
31403SOL    HW296589   7.099   4.307  10.324 -0.8005  1.5741 -0.6176
31404SOL     OW96590   1.527   8.157   8.551 -0.1992  0.6415  0.5564
31404SOL    HW196591   1.554   8.068   8.576 -0.3993  0.1112 -1.0047
31404SOL    HW296592   1.435   8.147   8.526  0.0822  1.0484 -0.7005
31405SOL     OW96593  10.785   6.742   6.209 -0.3308 -0.0950 -0.0271
31405SOL    HW196594  10.817   6.694   6.285  0.2375 -0.9244 -0.7786
31405SOL    HW296595  10.855   6.734   6.144 -0.7265  0.7656 -0.5747
31406SOL     OW96596   6.307   6.508   1.421 -0.1032  0.0035 -0.3520
31406SOL    HW196597   6.228   6.536   1.466  0.9324  0.0007  1.5920
31406SOL    HW296598   6.374   6.570   1.450  1.2157 -1.6741  0.3588
31407SOL     OW96599   2.095   6.530   5.794 -0.2787  0.1595 -0.1517
31407SOL    HW196600   2.085   6.515   5.700  0.6283 -0.6945 -0.1276
31407SOL    HW296601   2.176   6.581   5.802  0.5537 -1.1914  0.2629
31408SOL     OW96602   4.758   4.780  10.170 -0.0850 -0.3076  0.7472
31408SOL    HW196603   4.736   4.836  10.244  0.5833  0.5876  0.2849
31408SOL    HW296604   4.849   4.754  10.187 -0.6002 -1.8907  1.3361
31409SOL     OW96605   3.156   9.804   2.268 -0.1601 -0.3767 -0.3353
31409SOL    HW196606   3.168   9.883   2.214  1.5714 -0.6625 -0.4291
31409SOL    HW296607   3.189   9.733   2.213 -2.4857 -1.3590 -0.5944
31410SOL     OW96608   9.852   1.344   0.558  0.3547  0.0656 -0.0881
31410SOL    HW196609   9.788   1.375   0.494  1.6349  1.3840 -0.8025
31410SOL    HW296610   9.805   1.347   0.642 -0.5326  0.9748 -0.5840
31411SOL     OW96611  10.511   7.478   7.926  0.0524 -0.7518  0.1315
31411SOL    HW196612  10.507   7.410   7.858 -1.5140  0.2555 -0.8422
31411SOL    HW296613  10.519   7.430   8.008 -2.2052 -2.1993 -0.4245
31412SOL     OW96614   1.475   5.230   6.342  0.2408 -0.1214  0.0227
31412SOL    HW196615   1.490   5.162   6.409 -1.2490  0.1856  0.7115
31412SOL    HW296616   1.423   5.297   6.387  0.9715  1.0910 -0.8850
31413SOL     OW96617   7.877   2.538   1.313 -0.1656  0.1654 -0.0041
31413SOL    HW196618   7.836   2.488   1.243 -0.3798  0.0086  0.2288
31413SOL    HW296619   7.854   2.490   1.393  0.4113  0.1135  0.1355
31414SOL     OW96620   1.225   2.010   9.397 -0.4301 -0.1841 -0.3614
31414SOL    HW196621   1.155   2.035   9.337  1.1025  2.8983 -1.0878
31414SOL    HW296622   1.293   1.973   9.340  0.3651  1.2237 -0.3706
31415SOL     OW96623  10.627  10.523   0.665  0.2723  0.1140 -0.2436
31415SOL    HW196624  10.532  10.523   0.666  0.2694  0.4372 -0.5036
31415SOL    HW296625  10.651  10.441   0.708 -0.1039  0.8103  1.3956
31416SOL     OW96626   5.744   9.989  10.687  0.4569  0.0725 -0.3609
31416SOL    HW196627   5.682  10.006  10.615  0.0030  0.7324  0.1694
31416SOL    HW296628   5.787  10.074  10.701  0.5493 -0.0590  0.1344
31417SOL     OW96629   1.147   3.099   9.457 -0.2336 -0.2227  0.2952
31417SOL    HW196630   1.121   3.008   9.445  0.9231 -0.4443 -0.7539
31417SOL    HW296631   1.089   3.133   9.525 -2.5908 -0.9230 -1.2738
31418SOL     OW96632   6.160   1.745   4.256  0.0847 -0.8412  0.2348
31418SOL    HW196633   6.242   1.736   4.207 -0.0436 -1.3840  0.1126
31418SOL    HW296634   6.187   1.756   4.347  0.2887 -1.2489  0.2241
31419SOL     OW96635   7.712   4.968   1.487 -0.3993 -0.4379  0.1819
31419SOL    HW196636   7.700   5.050   1.534 -2.5247  0.8980 -2.4263
31419SOL    HW296637   7.628   4.923   1.495 -0.4405 -0.6703 -1.3625
31420SOL     OW96638  10.452   0.873  10.228  0.2840  0.3909  0.1035
31420SOL    HW196639  10.402   0.918  10.297  1.2300  2.6602 -0.5700
31420SOL    HW296640  10.538   0.858  10.268  0.6686  1.2360 -0.3854
31421SOL     OW96641   9.510   9.874   1.882 -0.4250 -0.4776  0.5657
31421SOL    HW196642   9.438   9.911   1.933 -0.6628  0.6870 -0.5728
31421SOL    HW296643   9.559   9.821   1.945 -1.3109  0.0566  1.7450
31422SOL     OW96644   8.108   7.242   3.867 -0.1837 -0.1022 -0.0114
31422SOL    HW196645   8.142   7.154   3.886 -0.6283 -0.4839 -0.9516
31422SOL    HW296646   8.179   7.301   3.895  0.2658 -0.7679  0.2828
31423SOL     OW96647   3.822   5.543   8.038 -0.1103  0.1260  0.0068
31423SOL    HW196648   3.787   5.632   8.052  0.1450  0.2749 -0.2930
31423SOL    HW296649   3.841   5.511   8.127  1.5600  1.0933  0.0430
31424SOL     OW96650   3.620   4.207   3.750 -0.5553 -0.0727  0.5148
31424SOL    HW196651   3.685   4.145   3.717 -0.2466  0.4853  0.0696
31424SOL    HW296652   3.536   4.168   3.726 -0.3844 -0.6454  0.8216
31425SOL     OW96653   3.357   7.792   8.835 -0.2294 -0.9856  0.0105
31425SOL    HW196654   3.353   7.836   8.750  0.6132 -0.9048  0.0029
31425SOL    HW296655   3.300   7.716   8.826  0.4785 -1.4290 -0.9034
31426SOL     OW96656   8.628   1.105   6.148  0.1474  0.6463 -0.2805
31426SOL    HW196657   8.537   1.106   6.117 -0.3655 -1.8906  0.8765
31426SOL    HW296658   8.679   1.083   6.070 -0.3093  1.2352 -0.7573
31427SOL     OW96659  10.796   8.660   7.271 -0.5113  0.3003 -0.0461
31427SOL    HW196660  10.882   8.680   7.306 -0.7520 -0.7547  1.2007
31427SOL    HW296661  10.812   8.592   7.205 -0.3266  0.6069 -0.3235
31428SOL     OW96662   5.058   2.382   7.316 -0.0492 -0.1616 -0.0124
31428SOL    HW196663   5.033   2.363   7.225  1.9749 -0.1836 -0.6175
31428SOL    HW296664   4.979   2.422   7.354 -0.8297  0.2438 -1.8932
31429SOL     OW96665   0.794   0.562   2.930 -0.2228  0.1854 -0.0286
31429SOL    HW196666   0.822   0.513   2.853  0.2479  0.7208 -0.1994
31429SOL    HW296667   0.698   0.565   2.923 -0.4351 -2.1637  0.8735
31430SOL     OW96668   0.524   9.511   9.934 -0.1487  0.5331 -0.3541
31430SOL    HW196669   0.536   9.421   9.963  0.3476  0.8189  0.3453
31430SOL    HW296670   0.498   9.559  10.013 -1.6886  0.7753 -0.9649
31431SOL     OW96671   2.296   0.346   5.370 -0.4990 -0.7103  0.4113
31431SOL    HW196672   2.259   0.330   5.457 -1.7210 -0.8953 -0.1266
31431SOL    HW296673   2.264   0.433   5.347 -2.0461 -1.5597 -0.7712
31432SOL     OW96674   3.015   7.596   5.413  0.0445  0.0000  0.0972
31432SOL    HW196675   2.954   7.523   5.423  0.7959 -0.4001  2.6919
31432SOL    HW296676   3.099   7.555   5.394  0.3667  0.1826  1.0527
31433SOL     OW96677   1.531   7.180   2.336 -0.0137 -0.0530 -0.4489
31433SOL    HW196678   1.509   7.112   2.273 -0.6849  0.4123 -0.7292
31433SOL    HW296679   1.460   7.244   2.329 -0.0964  0.0142  0.7686
31434SOL     OW96680   2.930   2.584   9.350  0.2860  0.5094  0.2528
31434SOL    HW196681   2.943   2.510   9.291  0.2705  0.5629  0.1825
31434SOL    HW296682   2.906   2.657   9.293 -1.7171  0.0824  0.4818
31435SOL     OW96683   2.587   3.819   4.383 -0.3950 -0.1302  0.1783
31435SOL    HW196684   2.555   3.739   4.340 -0.0945  0.3091 -0.8968
31435SOL    HW296685   2.620   3.873   4.311 -0.5039  0.9241  0.9009
31436SOL     OW96686   1.902   2.028   3.775  0.0250 -0.0132  0.6667
31436SOL    HW196687   1.848   1.957   3.741  0.0732 -0.5832  1.7189
31436SOL    HW296688   1.962   1.985   3.837  0.5778  0.8362  0.7476
31437SOL     OW96689   9.763   6.401   3.624  0.2996  0.8251 -0.5128
31437SOL    HW196690   9.710   6.353   3.560  1.5424 -0.9194 -0.3357
31437SOL    HW296691   9.709   6.475   3.650 -1.2420  0.1976 -1.7361
31438SOL     OW96692   7.771   4.363   4.988  0.1582  0.2738 -0.2606
31438SOL    HW196693   7.734   4.309   4.919  0.5542  1.3454 -1.3463
31438SOL    HW296694   7.856   4.392   4.954  0.1178  1.2808  0.4335
31439SOL     OW96695   2.670   5.330   5.293 -0.2264  0.0691  0.4942
31439SOL    HW196696   2.736   5.263   5.310  0.4756  0.4985 -0.4512
31439SOL    HW296697   2.718   5.413   5.301 -0.8198  0.4221  0.4895
31440SOL     OW96698  10.196   0.314   4.508  0.0790  0.2963  0.0874
31440SOL    HW196699  10.261   0.303   4.578 -0.2707 -0.6985  0.2724
31440SOL    HW296700  10.232   0.263   4.435  0.4770  1.3814 -0.5027
31441SOL     OW96701   5.458   5.321   0.094 -0.0002 -0.0604 -0.3685
31441SOL    HW196702   5.525   5.382   0.124 -0.5712  0.1188  0.5904
31441SOL    HW296703   5.474   5.241   0.144 -2.2686  0.9218  2.1699
31442SOL     OW96704   4.673   9.387   4.132  0.2372  0.7572 -0.0103
31442SOL    HW196705   4.712   9.308   4.170 -0.8129  0.1995 -0.0777
31442SOL    HW296706   4.701   9.386   4.040 -0.9941 -0.3464 -0.3957
31443SOL     OW96707   8.904   9.011   5.117  0.0719 -0.4529 -0.2061
31443SOL    HW196708   8.939   8.942   5.174  1.2772  1.2409  1.1942
31443SOL    HW296709   8.968   9.017   5.046 -0.5900 -1.4658 -0.9104
31444SOL     OW96710   3.801   7.287   6.895  0.2002 -0.1203  0.2664
31444SOL    HW196711   3.871   7.318   6.953  0.8263 -0.7861 -0.1210
31444SOL    HW296712   3.843   7.223   6.838 -0.3980  0.5086 -0.9302
31445SOL     OW96713  10.113   2.285   6.742 -0.3788 -0.2288  0.0395
31445SOL    HW196714  10.150   2.254   6.660 -1.7571  0.2950 -0.8183
31445SOL    HW296715  10.036   2.230   6.757 -0.9976  0.6400  0.1739
31446SOL     OW96716   3.221  10.415   6.721 -0.1672  0.2645  0.3689
31446SOL    HW196717   3.290  10.475   6.694  0.9410 -0.7456  0.8282
31446SOL    HW296718   3.153  10.424   6.655  0.8455  0.5712 -0.6598
31447SOL     OW96719   6.251   3.918   9.870  0.4058 -0.1266  0.0399
31447SOL    HW196720   6.304   3.852   9.912 -0.0744 -0.4617  0.1283
31447SOL    HW296721   6.273   4.000   9.915 -0.7162 -0.6038  1.5390
31448SOL     OW96722   8.973   8.928   0.461 -0.1927 -0.2382  0.3671
31448SOL    HW196723   9.012   8.848   0.428  1.7346  0.4140  0.9557
31448SOL    HW296724   8.979   8.920   0.557 -0.4836  0.3791  0.4448
31449SOL     OW96725   7.767  10.117   7.187  0.3552 -0.0206 -0.0244
31449SOL    HW196726   7.695  10.110   7.123 -1.0287  1.1165  1.3201
31449SOL    HW296727   7.784  10.027   7.212 -0.1922 -0.3658 -0.8086
31450SOL     OW96728   9.304   3.903   8.469 -0.0528 -0.2788  0.4136
31450SOL    HW196729   9.222   3.951   8.467  1.2133  2.1320 -2.9361
31450SOL    HW296730   9.283   3.819   8.428 -1.1439 -0.3350  1.0528
31451SOL     OW96731   3.575   8.387  10.182  0.3094  0.2175  0.1907
31451SOL    HW196732   3.492   8.434  10.176  0.7830  1.4776  2.3287
31451SOL    HW296733   3.625   8.417  10.106  0.4329  2.9898  1.2452
31452SOL     OW96734   7.861   9.828   7.542 -0.2618 -0.3353 -0.0085
31452SOL    HW196735   7.937   9.886   7.531 -0.4682  0.0836  0.6996
31452SOL    HW296736   7.857   9.813   7.636 -1.5871  0.3843  0.0701
31453SOL     OW96737   5.681   1.517   4.888 -0.1531 -0.1770  0.5419
31453SOL    HW196738   5.731   1.562   4.821 -1.8870  0.7526 -0.1747
31453SOL    HW296739   5.744   1.501   4.958  0.8179  2.3340  0.3397
31454SOL     OW96740   5.544   7.584   1.751  0.0851  0.0017 -0.0749
31454SOL    HW196741   5.450   7.587   1.730  0.3035  2.3869 -1.0313
31454SOL    HW296742   5.588   7.592   1.666  1.2391 -2.5288  0.2052
31455SOL     OW96743   1.027   7.624   5.846  0.3238 -0.1286  0.5927
31455SOL    HW196744   0.969   7.566   5.797 -1.0494 -0.5126  2.5625
31455SOL    HW296745   0.983   7.637   5.930  0.7044  3.5524  0.3915
31456SOL     OW96746   4.928   8.994   3.242  1.0854 -0.1902  0.5992
31456SOL    HW196747   4.938   8.962   3.153 -1.6742  0.9068 -0.2187
31456SOL    HW296748   4.864   8.934   3.282  0.3786  0.7746  0.9699
31457SOL     OW96749   7.483   9.549  10.540  0.5758  0.3157  0.2516
31457SOL    HW196750   7.529   9.577  10.620 -0.5589 -1.2411  1.5059
31457SOL    HW296751   7.483   9.627  10.484  4.0559  0.6524  0.4413
31458SOL     OW96752   9.440   7.510   1.693 -0.3252 -0.1990 -0.4613
31458SOL    HW196753   9.532   7.498   1.716 -0.4687  0.7615  0.7166
31458SOL    HW296754   9.440   7.582   1.630 -0.1363 -1.3305 -1.7881
31459SOL     OW96755   0.660   6.212   3.472 -0.8358 -0.1697  0.3179
31459SOL    HW196756   0.639   6.256   3.555  0.4427 -0.5840  0.8989
31459SOL    HW296757   0.591   6.239   3.412 -1.3959  0.7223  1.3234
31460SOL     OW96758   2.576   3.157   8.405 -0.0668  0.1904  0.3122
31460SOL    HW196759   2.493   3.113   8.425 -1.3984  1.7754 -1.4788
31460SOL    HW296760   2.603   3.121   8.320 -0.0658  1.2821 -0.1557
31461SOL     OW96761   7.528   9.710  10.311 -0.4427  0.4190  0.1491
31461SOL    HW196762   7.573   9.626  10.313 -0.0611  0.5996  2.6970
31461SOL    HW296763   7.457   9.698  10.248  0.8778 -1.0966 -1.1193
31462SOL     OW96764   3.100   4.339   0.627  0.0920 -0.1237  0.5840
31462SOL    HW196765   3.120   4.254   0.588  0.8075 -0.2651  1.2358
31462SOL    HW296766   3.080   4.396   0.552 -1.3269 -1.0762  0.1887
31463SOL     OW96767   3.747   0.444   1.591  0.4079 -0.1496 -0.2285
31463SOL    HW196768   3.773   0.535   1.602  1.8325 -0.4707 -0.7487
31463SOL    HW296769   3.695   0.443   1.511  0.9513  0.1067 -0.5875
31464SOL     OW96770   1.644   6.332   2.531  0.1321 -0.5802 -0.3883
31464SOL    HW196771   1.554   6.345   2.501 -0.4743 -1.1001  1.1084
31464SOL    HW296772   1.635   6.303   2.622  1.8418  0.1719  0.0605
31465SOL     OW96773   2.329   0.399   0.409 -0.5296 -0.8843  0.3031
31465SOL    HW196774   2.314   0.435   0.496  0.2611  1.5799 -0.4867
31465SOL    HW296775   2.424   0.392   0.402 -0.3024  2.2202 -1.4547
31466SOL     OW96776   1.143   3.017   3.777  0.2446 -0.0825 -0.3551
31466SOL    HW196777   1.120   3.014   3.684  0.3371 -2.9764 -0.3536
31466SOL    HW296778   1.171   2.928   3.798  1.5118  0.8173  2.1510
31467SOL     OW96779  10.458   5.909   5.752 -0.4682  0.9805 -0.6071
31467SOL    HW196780  10.551   5.895   5.774 -0.4184  1.4126 -0.5191
31467SOL    HW296781  10.418   5.823   5.760 -0.0598  0.7765 -0.7050
31468SOL     OW96782   6.710   0.710   2.506 -0.3793 -0.0979  0.3581
31468SOL    HW196783   6.748   0.623   2.490  1.2754  0.4036  1.3494
31468SOL    HW296784   6.688   0.742   2.418  0.8548 -0.7304 -0.2190
31469SOL     OW96785   3.620   4.256   7.726 -0.5724 -0.1683 -0.0383
31469SOL    HW196786   3.617   4.249   7.630 -0.0800 -2.0038  0.0497
31469SOL    HW296787   3.647   4.347   7.742  0.1207 -0.0472 -1.6698
31470SOL     OW96788   7.933   7.896   6.901 -0.2604  0.4651 -0.2473
31470SOL    HW196789   8.006   7.918   6.843  1.6661 -1.4400  1.2828
31470SOL    HW296790   7.859   7.881   6.843  0.6524  2.0258 -1.8977
31471SOL     OW96791   8.964   1.539   6.798  0.1656  0.0044  0.0933
31471SOL    HW196792   8.906   1.514   6.727  0.7631  0.7087 -0.6681
31471SOL    HW296793   8.927   1.621   6.832  1.0190  0.7987 -0.8097
31472SOL     OW96794   5.826   6.559   7.723  0.0903 -0.0537 -0.1200
31472SOL    HW196795   5.790   6.636   7.678 -1.8442  1.2659  3.3170
31472SOL    HW296796   5.892   6.594   7.782  0.1045 -1.2241  0.5949
31473SOL     OW96797   9.549   0.866   8.361 -0.2836 -0.2192 -0.0775
31473SOL    HW196798   9.620   0.915   8.320  1.0485 -0.7953  1.4190
31473SOL    HW296799   9.469   0.900   8.321  0.7857  0.9972 -1.2564
31474SOL     OW96800   3.213  10.092   6.231 -0.5703 -0.4947  0.1058
31474SOL    HW196801   3.293  10.101   6.180  0.7121 -1.7293  1.7825
31474SOL    HW296802   3.168  10.176   6.220  0.3638 -0.1911 -1.7795
31475SOL     OW96803   8.775   9.044   0.327  0.1901  0.3585 -0.5040
31475SOL    HW196804   8.857   9.025   0.372 -1.1341 -2.1569  1.0695
31475SOL    HW296805   8.741   9.122   0.370  0.7176  0.1079  0.3894
31476SOL     OW96806   0.928   2.191  10.232 -0.5502 -0.1474  0.2990
31476SOL    HW196807   0.943   2.100  10.208 -2.1263 -0.4705  0.4330
31476SOL    HW296808   0.858   2.220  10.173  0.1401  1.0717  0.0545
31477SOL     OW96809   8.046   7.137   8.984  0.3794  0.1174  0.3913
31477SOL    HW196810   8.076   7.185   9.061 -0.1677  1.0120  0.0559
31477SOL    HW296811   7.959   7.172   8.966  0.7240  0.3305 -0.9724
31478SOL     OW96812   9.755   2.832   3.828 -0.3191 -0.1231  0.3895
31478SOL    HW196813   9.786   2.771   3.762 -1.4056 -0.3678  0.0926
31478SOL    HW296814   9.835   2.862   3.872  0.4900  0.5811 -1.4699
31479SOL     OW96815   9.244   8.024  10.350  0.9468  0.3601  0.1818
31479SOL    HW196816   9.199   7.943  10.373  1.0912 -0.4642 -2.2622
31479SOL    HW296817   9.314   8.032  10.416  1.8633 -2.2870 -0.3499
31480SOL     OW96818   1.769   5.809   7.222 -0.1765 -0.4128 -0.8023
31480SOL    HW196819   1.840   5.787   7.161 -0.1285  0.8444 -1.2271
31480SOL    HW296820   1.710   5.864   7.171 -1.2497 -1.0760 -0.3157
31481SOL     OW96821   1.409   4.515   8.190  0.1696  0.2568 -0.1939
31481SOL    HW196822   1.466   4.490   8.262  1.1626  1.4430 -0.5257
31481SOL    HW296823   1.409   4.611   8.191  0.9893  0.3396 -2.3199
31482SOL     OW96824   4.562   0.670   8.263  0.1510 -0.4095  0.2177
31482SOL    HW196825   4.505   0.746   8.249  1.2570  0.2936 -0.6129
31482SOL    HW296826   4.626   0.699   8.327  0.5002 -0.6890  0.0008
31483SOL     OW96827   7.570   1.909   6.735 -0.7675 -0.1553  0.6181
31483SOL    HW196828   7.496   1.925   6.676 -1.1866 -1.9280  0.5872
31483SOL    HW296829   7.561   1.816   6.758 -0.3164  0.3573  3.0666
31484SOL     OW96830   9.926   7.458   8.670  0.0541 -0.1027  0.3200
31484SOL    HW196831   9.962   7.404   8.740  1.2533 -0.2621 -0.3766
31484SOL    HW296832   9.976   7.539   8.674  1.6274 -0.8782 -1.5774
31485SOL     OW96833   3.947   0.080  10.328 -0.0491 -0.2340  0.8950
31485SOL    HW196834   3.856   0.089  10.357 -0.0695  2.7011  0.2020
31485SOL    HW296835   3.941   0.071  10.233  0.4108  0.1058  0.8333
31486SOL     OW96836   2.029   4.991   5.568  0.2738 -0.1659  0.4826
31486SOL    HW196837   2.033   4.917   5.507  0.2416 -0.4599  0.8384
31486SOL    HW296838   2.118   5.000   5.600  0.9179  1.6236 -1.5323
31487SOL     OW96839   7.618   3.081   9.155 -0.3591 -0.3086  0.1260
31487SOL    HW196840   7.556   3.014   9.183 -0.2537  0.0880  1.3676
31487SOL    HW296841   7.563   3.155   9.128 -0.4489 -0.4218 -0.0011
31488SOL     OW96842   0.429   4.393   1.337  0.1493  0.1763  0.1358
31488SOL    HW196843   0.473   4.321   1.292 -1.8114 -1.4594  0.6803
31488SOL    HW296844   0.366   4.427   1.273  0.6521  1.0324  0.0821
31489SOL     OW96845   5.212   1.484  10.152  0.3866  0.0836  0.5380
31489SOL    HW196846   5.237   1.398  10.121 -1.7229 -0.5930  0.5029
31489SOL    HW296847   5.273   1.504  10.223  1.2787 -1.1631  0.1327
31490SOL     OW96848   0.015   3.366   2.472 -0.1486  0.3624  0.5868
31490SOL    HW196849  -0.080   3.369   2.474 -0.1552  0.0408  1.4861
31490SOL    HW296850   0.040   3.337   2.561  0.7773  0.4303  0.3630
31491SOL     OW96851  10.570   3.245   1.275 -0.3943 -0.0438  0.7272
31491SOL    HW196852  10.478   3.223   1.288  0.0545 -1.8638  1.0860
31491SOL    HW296853  10.611   3.162   1.249  1.6408 -0.0005  3.3699
31492SOL     OW96854   1.240   0.854   3.364 -0.7456  0.1569 -0.4147
31492SOL    HW196855   1.147   0.869   3.349 -0.6168  1.0374 -0.3819
31492SOL    HW296856   1.283   0.935   3.336  0.2155 -0.9257 -2.2443
31493SOL     OW96857  10.033   7.119   6.348  0.4681 -0.2889 -0.0153
31493SOL    HW196858  10.068   7.128   6.259  1.5115 -0.4592  0.3626
31493SOL    HW296859   9.964   7.054   6.340  0.0642  0.2279 -0.8334
31494SOL     OW96860   4.650   4.643   1.540 -0.1562  0.0640 -0.1888
31494SOL    HW196861   4.568   4.666   1.583 -0.1489  2.4589 -1.2753
31494SOL    HW296862   4.700   4.725   1.537  0.4419 -0.2711 -3.3609
31495SOL     OW96863   5.046   7.947  10.458 -0.5365  0.0435  0.1404
31495SOL    HW196864   4.991   7.871  10.476 -1.3320  0.5278 -0.1919
31495SOL    HW296865   5.000   8.020  10.497  0.7973  0.2228  1.4741
31496SOL     OW96866   8.776   1.628   3.439 -0.3417 -0.5155 -0.5878
31496SOL    HW196867   8.724   1.690   3.489  0.9422  1.3059 -1.4319
31496SOL    HW296868   8.816   1.571   3.505 -0.9209  0.0280  0.2484
31497SOL     OW96869   1.395   0.837   8.734  0.7501 -0.0578 -0.2310
31497SOL    HW196870   1.461   0.860   8.800  2.4386  0.6286 -2.0649
31497SOL    HW296871   1.402   0.742   8.725 -0.1250 -0.2834  1.1654
31498SOL     OW96872   5.443   7.928   6.560  0.2381  0.0524  0.0929
31498SOL    HW196873   5.508   7.986   6.519  0.3249  0.0853  0.2740
31498SOL    HW296874   5.403   7.882   6.487  1.8660 -1.4575  0.0803
31499SOL     OW96875   1.152   5.644   7.562  0.1865 -0.4186 -0.1503
31499SOL    HW196876   1.148   5.596   7.644  1.5358  0.4197  0.4380
31499SOL    HW296877   1.238   5.623   7.525  1.0555  1.8477  0.3819
31500SOL     OW96878   6.744   5.833   9.669 -0.0194  0.3741 -0.1026
31500SOL    HW196879   6.812   5.771   9.697  0.1050  0.9384  0.8789
31500SOL    HW296880   6.719   5.878   9.750 -0.7707  0.9506 -0.6557
31501SOL     OW96881   4.522  10.724   5.150 -0.1348 -0.5089 -0.0512
31501SOL    HW196882   4.558  10.680   5.227  0.5714  0.7630  0.3647
31501SOL    HW296883   4.593  10.720   5.086  0.1675  0.5694  0.2086
31502SOL     OW96884   9.754   3.433   0.457 -0.2816  0.1329 -0.4507
31502SOL    HW196885   9.843   3.468   0.449  0.0036 -0.1318  1.1706
31502SOL    HW296886   9.746   3.371   0.385  1.3241 -0.7876  0.1075
31503SOL     OW96887  10.358   4.835   9.337  0.1237  0.2805  0.0828
31503SOL    HW196888  10.432   4.880   9.296  0.2727  0.1465  0.2006
31503SOL    HW296889  10.324   4.778   9.268 -1.0655  1.7292 -0.5754
31504SOL     OW96890   6.890   8.294   0.209 -0.5075 -0.3415 -0.4273
31504SOL    HW196891   6.918   8.308   0.119 -1.7875  0.1593 -0.7744
31504SOL    HW296892   6.889   8.381   0.248  0.3566 -0.5915  0.1876
31505SOL     OW96893   6.519   3.627   6.919  0.3535  0.0861 -0.2919
31505SOL    HW196894   6.597   3.675   6.891  0.8208  0.2344  1.2255
31505SOL    HW296895   6.499   3.569   6.845  3.2960 -1.6958  0.1745
31506SOL     OW96896   4.863   4.589   0.013  0.1978  0.3398  0.1338
31506SOL    HW196897   4.883   4.511   0.065  0.1775  0.5435  0.4564
31506SOL    HW296898   4.942   4.643   0.020  0.1777  0.3878 -0.0127
31507SOL     OW96899   2.679   9.186   3.161  0.6656 -0.3975  1.0010
31507SOL    HW196900   2.761   9.157   3.200  1.2799  0.6276  0.5026
31507SOL    HW296901   2.681   9.281   3.169 -0.8438 -0.3901  1.6991
31508SOL     OW96902   3.482   0.349   1.673 -0.1547 -0.3834 -0.0415
31508SOL    HW196903   3.548   0.388   1.616 -0.4089 -1.0084 -0.7937
31508SOL    HW296904   3.411   0.413   1.676 -0.2482 -0.4523 -0.6472
31509SOL     OW96905   5.426  10.798   6.653 -0.2584 -0.5682  0.0950
31509SOL    HW196906   5.493  10.746   6.610  1.0606  1.4665 -0.4294
31509SOL    HW296907   5.368  10.826   6.582 -1.2258 -1.6291  0.4352
31510SOL     OW96908   1.836   8.087   9.842 -0.0019 -0.2034  0.1615
31510SOL    HW196909   1.759   8.097   9.785 -0.1360 -0.5540  0.2787
31510SOL    HW296910   1.904   8.139   9.799 -1.2827  3.3283  1.9417
31511SOL     OW96911   0.342   2.010   6.479 -0.8293 -0.4723  0.2002
31511SOL    HW196912   0.259   1.997   6.433 -0.6877  0.1290 -0.2416
31511SOL    HW296913   0.404   2.035   6.410 -0.4792 -0.1204  0.6368
31512SOL     OW96914   1.856   6.393   0.137  0.7445 -0.1329 -0.0403
31512SOL    HW196915   1.875   6.485   0.117 -1.0717  0.5765  1.1935
31512SOL    HW296916   1.905   6.375   0.217 -0.3365  0.3899  0.7742
31513SOL     OW96917   2.236   0.349   3.069  0.3837  0.3674  0.1658
31513SOL    HW196918   2.245   0.311   3.156  2.2594  2.3664  0.9577
31513SOL    HW296919   2.165   0.412   3.077 -0.1762 -0.2297 -0.0698
31514SOL     OW96920   1.475   6.673  10.504 -0.2482  0.0630  0.4783
31514SOL    HW196921   1.452   6.641  10.417  2.7491  1.6839 -1.1039
31514SOL    HW296922   1.418   6.625  10.564  0.4420 -4.3815 -1.9897
31515SOL     OW96923   8.620   6.891   7.570 -0.3946  0.5627 -0.0487
31515SOL    HW196924   8.616   6.839   7.650  0.8054  0.0948 -0.2730
31515SOL    HW296925   8.559   6.963   7.585  0.3019  0.8481  1.5517
31516SOL     OW96926   5.085   1.088   5.055 -0.2387 -0.3255  0.3068
31516SOL    HW196927   5.016   1.058   5.114 -0.6595  1.3825  0.7419
31516SOL    HW296928   5.060   1.054   4.969 -1.0232 -0.6486  0.6552
31517SOL     OW96929   4.045   2.809   5.332 -0.4422  0.8574 -0.0686
31517SOL    HW196930   3.989   2.782   5.260 -0.8347  0.5751  0.3399
31517SOL    HW296931   4.003   2.887   5.368 -0.5661  0.6612  0.2205
31518SOL     OW96932   8.174   1.947   1.386 -0.4178 -0.4279  0.3058
31518SOL    HW196933   8.108   1.949   1.456  1.3332  1.2047  2.0252
31518SOL    HW296934   8.165   2.031   1.342 -0.8996 -1.0909 -0.9249
31519SOL     OW96935   0.299   1.928  10.229  0.4095  0.2379 -0.3647
31519SOL    HW196936   0.280   1.898  10.140  0.4474 -2.1168  0.3778
31519SOL    HW296937   0.213   1.949  10.265  0.1635 -0.9907 -0.2207
31520SOL     OW96938   5.322   0.591   3.882  0.1176 -0.0086 -0.0336
31520SOL    HW196939   5.410   0.620   3.907  0.8235 -1.8423 -0.1949
31520SOL    HW296940   5.333   0.558   3.793 -0.7808 -0.1018 -0.1115
31521SOL     OW96941   7.441  10.209   3.492 -0.2656 -0.0890  0.0406
31521SOL    HW196942   7.357  10.185   3.453 -0.3552 -1.4062  0.9593
31521SOL    HW296943   7.420  10.231   3.583  0.4101 -0.8389  0.3967
31522SOL     OW96944  10.776   4.530   8.237 -0.7560 -0.0651 -0.0488
31522SOL    HW196945  10.759   4.538   8.143 -0.5896  2.7489  0.0610
31522SOL    HW296946  10.864   4.567   8.249 -0.1147 -1.8298  1.0542
31523SOL     OW96947   1.371   0.703   7.620  0.5835  0.4578  0.2548
31523SOL    HW196948   1.401   0.618   7.589  0.0920 -0.5665  2.3726
31523SOL    HW296949   1.437   0.729   7.685 -0.2667  0.7453  1.0234
31524SOL     OW96950  10.727   1.299   9.453 -0.1040  0.1475  0.4143
31524SOL    HW196951  10.655   1.359   9.472  0.0739  0.7400 -0.7112
31524SOL    HW296952  10.687   1.212   9.459 -1.0666  0.4828 -0.7265
31525SOL     OW96953   4.799   2.771   8.105 -0.3924 -0.4918 -0.3991
31525SOL    HW196954   4.737   2.814   8.046  1.7211  1.0938 -1.6122
31525SOL    HW296955   4.791   2.818   8.188 -0.4644  0.0488 -0.7069
31526SOL     OW96956   7.799   7.454   3.187  0.2676 -0.2312  0.0378
31526SOL    HW196957   7.774   7.541   3.154 -0.7554 -0.3371  0.5176
31526SOL    HW296958   7.787   7.396   3.112 -1.8862 -0.4420  0.4777
31527SOL     OW96959   4.172   8.219   6.901 -0.1363 -0.5447 -0.0448
31527SOL    HW196960   4.116   8.288   6.863  2.1239  1.1653 -0.5025
31527SOL    HW296961   4.250   8.266   6.931  0.5118 -2.6456  1.7810
31528SOL     OW96962   4.663   7.920   4.328  0.2963  0.7601  0.4453
31528SOL    HW196963   4.695   7.835   4.297  0.5018 -0.0044  2.5599
31528SOL    HW296964   4.575   7.928   4.289 -0.4284 -1.2511  1.5152
31529SOL     OW96965   5.211   9.665   7.445  0.4806  0.4808  0.6268
31529SOL    HW196966   5.179   9.647   7.534  0.2183  0.8733  0.6190
31529SOL    HW296967   5.131   9.671   7.393  0.6150  0.5864  0.4329
31530SOL     OW96968  10.594   4.184   8.997  0.0457  0.3875 -0.1383
31530SOL    HW196969  10.677   4.138   9.004 -1.3337 -2.1147  0.6996
31530SOL    HW296970  10.564   4.166   8.908 -0.2610  0.0875  0.0247
31531SOL     OW96971   9.360   3.823   6.087 -0.2640 -0.2774 -0.5031
31531SOL    HW196972   9.348   3.730   6.065  0.4084 -0.8757  1.4674
31531SOL    HW296973   9.451   3.842   6.063 -0.4242 -0.0934 -0.9763
31532SOL     OW96974   3.276   2.390   9.753  0.3412 -0.4260 -0.3025
31532SOL    HW196975   3.317   2.429   9.675  1.4403  0.6208  0.7543
31532SOL    HW296976   3.230   2.463   9.794  0.4364 -0.7810  0.4428
31533SOL     OW96977   5.792   7.938   6.060  0.1235 -0.2450 -0.0389
31533SOL    HW196978   5.835   7.931   6.145  1.1536 -2.3559 -0.6579
31533SOL    HW296979   5.862   7.927   5.996 -0.9158 -0.8500 -1.1229
31534SOL     OW96980   0.154   2.635   4.462  0.1726  0.3379 -0.4983
31534SOL    HW196981   0.244   2.634   4.430  0.6531  0.2213  0.8127
31534SOL    HW296982   0.145   2.719   4.507 -0.8126  0.9469 -1.7637
31535SOL     OW96983   3.375   9.548   1.073 -0.0462 -0.4806  0.8784
31535SOL    HW196984   3.382   9.453   1.064 -0.6721 -0.6727  2.1589
31535SOL    HW296985   3.293   9.570   1.029 -0.4747 -0.7049  1.5448
31536SOL     OW96986   8.912   4.287   9.724  0.1349  0.4678  0.1904
31536SOL    HW196987   8.821   4.267   9.745  0.4572 -0.8986  0.3830
31536SOL    HW296988   8.952   4.308   9.808  0.6522 -1.7707  0.5454
31537SOL     OW96989   4.765   7.115   2.917  0.0915  0.1020  0.1423
31537SOL    HW196990   4.821   7.054   2.870  0.4310  0.8944 -0.5016
31537SOL    HW296991   4.676   7.093   2.889  0.3975  1.9779 -2.6627
31538SOL     OW96992   8.971   9.914   0.898  0.1346  0.2573 -0.2417
31538SOL    HW196993   9.057   9.881   0.872  0.2171  0.8792 -0.7938
31538SOL    HW296994   8.964   9.893   0.991 -0.1806 -2.0814 -0.7276
31539SOL     OW96995   3.726   2.510   4.496  0.3423  0.1089 -0.0140
31539SOL    HW196996   3.763   2.457   4.425 -0.7392 -0.1440 -0.4026
31539SOL    HW296997   3.790   2.581   4.509  0.3889  0.3655 -1.4830
31540SOL     OW96998   9.351   1.867   2.970  0.1227 -0.0936  0.3531
31540SOL    HW196999   9.372   1.878   3.062  1.3466  1.3713 -0.0554
31540SOL    HW297000   9.437   1.864   2.926 -0.4164 -1.3843 -0.6893
31541SOL     OW97001   0.843   8.459   4.454  0.3102 -0.6112  0.1125
31541SOL    HW197002   0.860   8.552   4.472  2.6729 -0.7603 -0.9763
31541SOL    HW297003   0.827   8.420   4.540 -0.5774  0.7645  0.5981
31542SOL     OW97004   1.834   2.768   2.620  0.4810 -0.4535 -0.1679
31542SOL    HW197005   1.850   2.675   2.633  0.9847 -0.5064 -1.1018
31542SOL    HW297006   1.832   2.780   2.525  2.5477  0.8003 -0.1203
31543SOL     OW97007   4.473   4.910   3.627  0.3335  0.2814  0.6470
31543SOL    HW197008   4.441   4.841   3.685 -2.1368  0.4631 -0.3708
31543SOL    HW297009   4.518   4.862   3.556 -1.2556 -0.3214  0.0104
31544SOL     OW97010   7.156   1.488   6.023  0.1645 -0.2118  0.0296
31544SOL    HW197011   7.182   1.426   6.090 -0.8783 -0.2899  0.3919
31544SOL    HW297012   7.138   1.569   6.071 -0.2946 -0.1843 -0.1764
31545SOL     OW97013   6.904   4.097   1.221  0.1363 -0.2036 -0.1070
31545SOL    HW197014   6.812   4.082   1.203  0.2065 -0.4778 -0.2437
31545SOL    HW297015   6.950   4.036   1.164  0.4400  0.5726 -0.7113
31546SOL     OW97016   9.136   6.481   2.792 -0.0170  0.6164  0.3809
31546SOL    HW197017   9.097   6.536   2.725 -1.2249  0.0461  0.5941
31546SOL    HW297018   9.125   6.391   2.760  0.4528  0.4043  0.7950
31547SOL     OW97019  10.305   6.943   9.781  0.4826  0.1726  0.2383
31547SOL    HW197020  10.257   6.877   9.730 -0.6683  0.5692  0.7506
31547SOL    HW297021  10.347   6.998   9.716  0.2842 -0.2284 -0.2403
31548SOL     OW97022   7.144   4.279   4.538 -0.2100 -0.5086  0.5646
31548SOL    HW197023   7.189   4.202   4.502  0.3844  0.2177 -0.3096
31548SOL    HW297024   7.051   4.258   4.531 -0.1639 -0.2040 -2.0041
31549SOL     OW97025   6.376   0.012   3.135  0.6365 -0.0571  0.3172
31549SOL    HW197026   6.450  -0.010   3.078  0.5817 -0.6068  0.4529
31549SOL    HW297027   6.324   0.074   3.083  0.4173 -0.8000 -0.3725
31550SOL     OW97028   3.690   8.775   1.675  0.5763 -0.0969  0.3005
31550SOL    HW197029   3.719   8.731   1.595  1.0610  1.6831 -0.5576
31550SOL    HW297030   3.599   8.749   1.686 -0.1637  1.2586 -2.0525
31551SOL     OW97031   1.818   0.477   3.258 -0.0028 -0.0761  0.6443
31551SOL    HW197032   1.746   0.426   3.295  0.7638 -0.0832  2.2385
31551SOL    HW297033   1.791   0.568   3.269  0.3950 -0.0678  1.6496
31552SOL     OW97034   7.206   6.174   2.673 -0.8759  0.4858  0.4841
31552SOL    HW197035   7.180   6.262   2.702 -0.9646  0.8622 -0.6791
31552SOL    HW297036   7.235   6.186   2.583  0.4165 -0.4625  0.7453
31553SOL     OW97037   4.005   1.408   3.212 -0.4809  0.3400 -0.6543
31553SOL    HW197038   3.922   1.398   3.165 -0.6250  1.8801 -0.7888
31553SOL    HW297039   3.979   1.430   3.302 -0.2465  1.6314 -0.8851
31554SOL     OW97040   9.730   4.471   4.027 -0.2628 -0.1654  0.0387
31554SOL    HW197041   9.812   4.460   3.980 -1.2108 -1.4169 -1.4249
31554SOL    HW297042   9.682   4.537   3.977 -0.2164  0.5015  0.8379
31555SOL     OW97043   8.284   0.208   2.626 -0.9629 -0.2644 -0.1544
31555SOL    HW197044   8.273   0.286   2.572  0.7488 -0.0707 -0.2967
31555SOL    HW297045   8.336   0.148   2.571  0.2857 -0.2985  1.0100
31556SOL     OW97046   9.006   3.943  10.278  0.9082 -0.2004 -0.3018
31556SOL    HW197047   9.046   3.953  10.364  0.3281  0.8173 -0.1308
31556SOL    HW297048   9.079   3.936  10.217  1.3199 -0.6146  0.2313
31557SOL     OW97049   2.009   3.691   8.162 -0.6069  0.6876  0.1069
31557SOL    HW197050   1.960   3.773   8.158  1.0473  1.6856 -0.5182
31557SOL    HW297051   2.006   3.657   8.073  0.1556  0.9627 -0.0299
31558SOL     OW97052   2.735   4.485   9.997 -0.9528  0.0014  0.4251
31558SOL    HW197053   2.712   4.420   9.931  1.4834  0.0192 -0.5487
31558SOL    HW297054   2.750   4.435  10.077  0.2229 -0.5831 -0.1420
31559SOL     OW97055  10.012   0.397   2.663 -0.0744 -0.1288  0.2528
31559SOL    HW197056   9.966   0.313   2.660 -0.3093 -0.0324  0.9296
31559SOL    HW297057   9.943   0.463   2.656 -0.2687  0.0457  2.7196
31560SOL     OW97058   2.007   5.710   0.861 -0.5669 -0.5044 -0.1692
31560SOL    HW197059   1.994   5.774   0.791 -0.0928 -1.3238 -1.0362
31560SOL    HW297060   2.096   5.677   0.847 -0.2690 -0.3158  1.1416
31561SOL     OW97061   9.463   2.704   1.864  0.1128  0.0148 -0.2123
31561SOL    HW197062   9.395   2.636   1.865 -1.4266  1.4757 -0.1235
31561SOL    HW297063   9.513   2.687   1.784 -0.0083 -1.3952 -0.0217
31562SOL     OW97064  10.476   9.592   5.034 -0.2172 -0.3815 -0.1494
31562SOL    HW197065  10.530   9.647   4.977 -0.8062  3.5113  2.6512
31562SOL    HW297066  10.399   9.570   4.981  1.2325 -0.7428 -2.1975
31563SOL     OW97067   6.440   8.002  10.036  0.5009  0.2064 -0.5187
31563SOL    HW197068   6.360   7.986   9.985 -0.9847  0.8016  1.4966
31563SOL    HW297069   6.442   8.097  10.049  1.2914  0.1505 -0.1698
31564SOL     OW97070  10.307   1.948   0.822 -0.2094  0.7023  0.0899
31564SOL    HW197071  10.272   2.020   0.769 -0.6520  0.6955  0.3645
31564SOL    HW297072  10.400   1.967   0.830  0.3342 -0.4324 -2.5011
31565SOL     OW97073   0.389   9.883  10.107  0.0317 -0.0615 -0.5979
31565SOL    HW197074   0.366   9.791  10.101  0.0213 -0.0340 -1.0221
31565SOL    HW297075   0.309   9.930  10.082  0.2990  0.0459 -1.2796
31566SOL     OW97076   5.495   1.557   9.673  0.1039  0.4926 -0.3897
31566SOL    HW197077   5.584   1.560   9.709  0.1081  1.5327 -0.4617
31566SOL    HW297078   5.500   1.607   9.592  0.2274 -2.3437 -2.2577
31567SOL     OW97079   6.938   5.521   2.006 -0.0548 -0.2146  0.7747
31567SOL    HW197080   6.855   5.519   2.054 -0.7925 -0.7220 -0.4687
31567SOL    HW297081   6.958   5.429   1.988  0.7741 -0.0972  1.0341
31568SOL     OW97082   6.658   2.592   1.756 -0.4937  0.7310  0.0024
31568SOL    HW197083   6.598   2.575   1.828  0.1877  2.6902  1.1134
31568SOL    HW297084   6.726   2.525   1.765 -1.6524 -0.5383 -0.3378
31569SOL     OW97085   4.494   4.340   3.537  0.3903  0.6735 -0.1718
31569SOL    HW197086   4.429   4.355   3.468 -1.4092  0.8995  1.4984
31569SOL    HW297087   4.578   4.352   3.493 -0.6837  3.9218 -1.6661
31570SOL     OW97088   8.294   7.613  10.029  0.3156  0.0803  0.1076
31570SOL    HW197089   8.338   7.529  10.040  2.2503  0.7286 -1.9011
31570SOL    HW297090   8.202   7.595  10.046  1.1401 -1.4810  4.0844
31571SOL     OW97091   6.027   3.597   9.355  0.2089 -0.3620  0.1522
31571SOL    HW197092   6.052   3.683   9.390  0.1500 -0.5600  0.6954
31571SOL    HW297093   5.976   3.557   9.425  2.0439 -1.7037  0.8171
31572SOL     OW97094   8.596   0.937   2.585 -0.5891 -0.1267 -0.2796
31572SOL    HW197095   8.676   0.947   2.533  0.7718  0.3246  1.8035
31572SOL    HW297096   8.582   0.843   2.587  0.4064 -0.2850  0.0479
31573SOL     OW97097   4.826   7.511   2.420  0.2121  0.1562 -0.1640
31573SOL    HW197098   4.749   7.565   2.432 -0.4576 -0.8717  0.3508
31573SOL    HW297099   4.804   7.453   2.347  0.4060 -0.2823  0.1166
31574SOL     OW97100   2.138   0.218  10.230 -0.4851 -0.4752 -0.5766
31574SOL    HW197101   2.085   0.282  10.278  2.0047  1.6911 -0.4696
31574SOL    HW297102   2.204   0.189  10.293  0.2446 -0.8494 -1.4829
31575SOL     OW97103   5.918  10.056   4.294  0.5000 -0.1021  0.1655
31575SOL    HW197104   5.953  10.016   4.374 -0.8658 -0.1442  0.7705
31575SOL    HW297105   5.989  10.049   4.231  1.3320 -0.7898  1.1418
31576SOL     OW97106  10.198   2.150   6.249  0.2507 -0.0937  0.1887
31576SOL    HW197107  10.124   2.177   6.302  0.0617 -1.0773  0.4452
31576SOL    HW297108  10.173   2.173   6.159 -0.1330  0.0570  0.3337
31577SOL     OW97109   3.132   4.759   0.383 -0.2055  0.4525  0.0158
31577SOL    HW197110   3.221   4.790   0.365 -0.6847  0.6953 -2.1925
31577SOL    HW297111   3.107   4.803   0.464  0.7204  2.4938 -0.7599
31578SOL     OW97112   3.697   1.703   1.101 -1.0051  0.0290  0.2845
31578SOL    HW197113   3.769   1.763   1.121 -0.0570 -1.0952  0.3783
31578SOL    HW297114   3.728   1.652   1.027 -1.1345 -1.3818  1.1635
31579SOL     OW97115   9.382   7.936   6.697 -0.0148  0.3270 -0.1754
31579SOL    HW197116   9.374   7.909   6.788 -1.0265 -1.5035 -0.7450
31579SOL    HW297117   9.358   8.028   6.696  0.9699  0.6347  1.5231
31580SOL     OW97118   1.133   8.793   8.419 -0.9270 -0.5811  0.0501
31580SOL    HW197119   1.072   8.720   8.432  0.0685 -1.5295 -0.3339
31580SOL    HW297120   1.214   8.764   8.461 -0.8076  0.7655  0.7871
31581SOL     OW97121   7.148  10.727   0.400  0.1858  0.0746  0.0475
31581SOL    HW197122   7.165  10.645   0.354 -1.0943 -0.6060  0.7328
31581SOL    HW297123   7.207  10.725   0.475 -1.0879 -1.0992  1.0598
31582SOL     OW97124   1.865   9.821   4.245 -0.1150 -1.1894 -0.4420
31582SOL    HW197125   1.889   9.909   4.216  0.9624 -1.2591  0.1827
31582SOL    HW297126   1.862   9.769   4.165 -0.3681 -0.6794 -0.7694
31583SOL     OW97127   9.782   5.440   4.905 -0.0777  0.3097  0.3798
31583SOL    HW197128   9.732   5.460   4.984 -1.0049  0.1350 -0.1528
31583SOL    HW297129   9.870   5.421   4.937 -0.1168  1.4496  1.2634
31584SOL     OW97130   4.005   4.332   1.632  0.0332  0.2489  0.5473
31584SOL    HW197131   3.943   4.260   1.643  0.7342 -0.6279 -0.8847
31584SOL    HW297132   4.091   4.292   1.644  0.7605 -0.2972 -4.3325
31585SOL     OW97133   5.485   0.020   8.257 -0.4918  0.1210  0.1954
31585SOL    HW197134   5.550   0.042   8.189 -0.4246  1.2547  0.6009
31585SOL    HW297135   5.467  -0.073   8.244 -0.7452  0.3871 -1.6082
31586SOL     OW97136   2.268   6.494   3.179  0.1223  0.0138 -0.1930
31586SOL    HW197137   2.235   6.507   3.268  0.0682  0.3755 -0.2673
31586SOL    HW297138   2.363   6.501   3.188  0.1238 -0.0614 -0.1446
31587SOL     OW97139   4.845   0.444   4.210  0.0668 -0.3733  0.1662
31587SOL    HW197140   4.800   0.521   4.175 -0.2140  0.7316  2.7034
31587SOL    HW297141   4.827   0.375   4.147 -0.8011  1.3096 -1.5327
31588SOL     OW97142   7.298   0.122   0.662 -0.7239 -0.0909 -0.4037
31588SOL    HW197143   7.326   0.186   0.727  4.2662 -1.2678 -0.9992
31588SOL    HW297144   7.314   0.165   0.578 -0.3559 -1.0121 -0.8093
31589SOL     OW97145   6.904   8.670   6.946 -0.2200  0.3324  0.0223
31589SOL    HW197146   6.993   8.704   6.953 -0.4969  1.2489 -0.6829
31589SOL    HW297147   6.850   8.738   6.987 -0.8114  0.9273 -1.6487
31590SOL     OW97148   4.888   1.003   1.044  0.3717  0.5259  0.6135
31590SOL    HW197149   4.919   1.061   1.113  0.2294  1.5264 -0.1425
31590SOL    HW297150   4.865   1.061   0.971 -0.1449 -0.4426 -0.0312
31591SOL     OW97151  10.621   1.211   0.716  0.1459  0.2099 -0.0880
31591SOL    HW197152  10.586   1.123   0.726 -1.3024  0.7725 -0.0842
31591SOL    HW297153  10.563   1.267   0.768  0.7400  1.2520 -0.5033
31592SOL     OW97154   8.023   1.632   7.646 -0.4025  0.0622 -0.2535
31592SOL    HW197155   7.985   1.652   7.560 -0.4804  0.5619 -0.1040
31592SOL    HW297156   8.115   1.613   7.627 -0.5692 -0.5276 -0.5338
31593SOL     OW97157   0.491   4.696   2.419  0.1498  0.5768 -0.3372
31593SOL    HW197158   0.454   4.718   2.505 -1.0076  1.6156 -1.0712
31593SOL    HW297159   0.441   4.749   2.357  0.3407 -0.8465 -1.7605
31594SOL     OW97160   3.130   2.345   8.239 -0.6570  0.3466  0.5465
31594SOL    HW197161   3.104   2.434   8.215  0.9118  1.3541  2.3472
31594SOL    HW297162   3.088   2.289   8.173 -2.1415  2.3492 -0.2948
31595SOL     OW97163   7.325   6.484   3.602  0.3689  0.1059 -0.1658
31595SOL    HW197164   7.341   6.532   3.683  0.5089  0.6235 -0.4930
31595SOL    HW297165   7.292   6.551   3.541  2.1340  0.1449 -1.1455
31596SOL     OW97166   3.635   2.494   1.992  0.3365  0.3074  0.2463
31596SOL    HW197167   3.615   2.483   1.899  2.6377  1.6395 -0.4914
31596SOL    HW297168   3.554   2.529   2.030 -0.4153  0.4542 -1.3890
31597SOL     OW97169   1.083  10.416   1.982  0.1413 -0.0782 -0.1110
31597SOL    HW197170   1.124  10.407   2.068 -1.7265 -0.1165  0.8522
31597SOL    HW297171   1.122  10.494   1.944 -0.8039  1.4925  1.9389
31598SOL     OW97172   4.332   4.377   1.176 -0.1104 -0.0924  0.1604
31598SOL    HW197173   4.367   4.377   1.087  1.4603  0.8497  0.7398
31598SOL    HW297174   4.237   4.375   1.165  0.0029  1.4950 -1.5780
31599SOL     OW97175   9.551   2.089   8.188 -0.7692  0.3748  0.0358
31599SOL    HW197176   9.623   2.109   8.127 -0.3568 -0.6869  0.1515
31599SOL    HW297177   9.478   2.143   8.157 -0.3304  0.4430 -0.9248
31600SOL     OW97178   7.578   0.136   7.449  0.1976 -0.1711 -0.5754
31600SOL    HW197179   7.504   0.105   7.397 -0.3795  0.4257 -0.1292
31600SOL    HW297180   7.544   0.143   7.538  0.0515  2.4552 -0.7568
31601SOL     OW97181   4.515   4.875   6.302 -0.2409 -0.1735 -0.0051
31601SOL    HW197182   4.492   4.920   6.384 -1.3421 -0.1039 -0.3426
31601SOL    HW297183   4.524   4.945   6.238  1.7307 -0.1121  0.2556
31602SOL     OW97184  10.728   7.169   8.897  0.4431 -0.5474 -0.0119
31602SOL    HW197185  10.655   7.147   8.954  0.0378 -0.5046 -0.5106
31602SOL    HW297186  10.797   7.198   8.956  0.5619 -1.9596  0.5817
31603SOL     OW97187   1.753   2.197   5.371 -0.3321  0.1609  0.2805
31603SOL    HW197188   1.789   2.267   5.427 -1.4609  0.3511  0.7961
31603SOL    HW297189   1.664   2.225   5.353  0.1079  0.2919 -1.9706
31604SOL     OW97190   9.498   6.555  10.306 -0.3812  0.0648  0.6220
31604SOL    HW197191   9.556   6.546  10.230  0.0218 -0.0331  0.9369
31604SOL    HW297192   9.466   6.466  10.322 -1.3868  0.2702 -0.1411
31605SOL     OW97193   0.891   1.894   8.117 -0.1427 -0.1783 -0.4856
31605SOL    HW197194   0.975   1.937   8.135 -0.6761  0.9990 -0.6931
31605SOL    HW297195   0.907   1.802   8.134  0.8944  0.1698  0.5582
31606SOL     OW97196   8.844  10.444   5.814  0.1628  0.2763 -0.1185
31606SOL    HW197197   8.852  10.539   5.818  2.2488  0.1428 -0.4094
31606SOL    HW297198   8.846  10.424   5.720 -0.3526 -0.0612 -0.0620
31607SOL     OW97199   2.072   8.469   1.844  0.2373  0.2722 -0.6616
31607SOL    HW197200   2.010   8.507   1.906  0.4032  0.6120 -0.7015
31607SOL    HW297201   2.047   8.377   1.838  0.2213  0.2401 -0.0934
31608SOL     OW97202   4.450  10.106   1.709  0.4571 -0.2896  0.4615
31608SOL    HW197203   4.370  10.060   1.735  0.7292 -1.0064  0.0366
31608SOL    HW297204   4.498  10.118   1.791 -0.8463  1.7124  1.0277
31609SOL     OW97205   1.798  10.595   4.021 -0.2487 -0.3587 -0.4590
31609SOL    HW197206   1.740  10.520   4.006  1.1102 -1.5184 -0.1255
31609SOL    HW297207   1.740  10.664   4.054 -1.3458 -1.6474  0.4042
31610SOL     OW97208   5.404   9.851   5.062 -0.3477  0.2293  0.7629
31610SOL    HW197209   5.496   9.873   5.045 -0.2021 -1.1974 -0.5216
31610SOL    HW297210   5.399   9.756   5.047 -2.1018  0.3326  0.4870
31611SOL     OW97211   4.464   8.185   8.740 -0.0269 -0.0513  0.3470
31611SOL    HW197212   4.547   8.183   8.692  0.1216 -0.6260  0.6229
31611SOL    HW297213   4.472   8.260   8.799  0.4061 -0.2727  0.5720
31612SOL     OW97214   9.630   9.366   4.300 -0.4573 -0.0019  0.7987
31612SOL    HW197215   9.589   9.439   4.347 -0.8438  0.5478 -0.3629
31612SOL    HW297216   9.696   9.407   4.244 -0.9653 -0.4855 -0.1787
31613SOL     OW97217   1.044  10.728   4.785  0.2048 -0.1202 -0.1687
31613SOL    HW197218   0.973  10.767   4.734  0.7706 -0.9314 -1.6328
31613SOL    HW297219   1.058  10.789   4.857  0.1754  1.7098 -1.6415
31614SOL     OW97220   5.018   2.641   4.325 -0.4842 -0.0967  0.3130
31614SOL    HW197221   4.924   2.636   4.310 -0.4958  1.0431 -0.0693
31614SOL    HW297222   5.038   2.734   4.324  0.5668 -0.2956  0.9556
31615SOL     OW97223   4.342   8.785   6.710 -0.3060  0.3041  0.5013
31615SOL    HW197224   4.427   8.781   6.667  0.3995 -2.4352  1.8633
31615SOL    HW297225   4.345   8.864   6.763  1.2674  0.4337  0.2613
31616SOL     OW97226   0.514   7.134   6.927 -0.5114  0.3825  0.1587
31616SOL    HW197227   0.448   7.136   6.996  0.7540  0.2097  1.4199
31616SOL    HW297228   0.475   7.081   6.858 -0.5218 -2.4224  2.1521
31617SOL     OW97229   0.430   7.595  10.096 -0.1001  0.1127 -0.2965
31617SOL    HW197230   0.410   7.512  10.139  0.5119 -0.3363 -0.8419
31617SOL    HW297231   0.521   7.612  10.118 -0.1387  0.4880 -0.4238
31618SOL     OW97232   7.331   6.816   3.751  0.0562  1.0065  0.1446
31618SOL    HW197233   7.358   6.730   3.785 -0.7645  0.3126 -0.8647
31618SOL    HW297234   7.340   6.875   3.825  1.5362  0.2489  0.6181
31619SOL     OW97235   9.035   6.239   8.275  0.0883 -0.2788  0.3299
31619SOL    HW197236   8.957   6.191   8.247 -0.4042  0.2407  0.8188
31619SOL    HW297237   9.065   6.192   8.353  1.2651 -1.5147 -0.7910
31620SOL     OW97238  10.389  10.346   8.415 -0.3687  0.4151  0.1206
31620SOL    HW197239  10.422  10.352   8.505 -1.7227  0.7977  0.6110
31620SOL    HW297240  10.381  10.252   8.399  0.8915  0.3069 -0.0082
31621SOL     OW97241   0.995   0.621   5.320 -0.7549  0.3367 -0.0364
31621SOL    HW197242   1.031   0.573   5.246 -0.4905  0.3356  0.0919
31621SOL    HW297243   1.070   0.636   5.378 -0.9484  0.3848  0.2042
31622SOL     OW97244   3.193   3.090   1.564  0.1846  0.5296 -0.0301
31622SOL    HW197245   3.150   3.039   1.633  0.4497  0.5540  0.1565
31622SOL    HW297246   3.128   3.097   1.495  0.4084 -0.7320 -0.3922
31623SOL     OW97247   8.903   0.810   2.916  0.2392 -0.2306 -0.0412
31623SOL    HW197248   8.824   0.756   2.914 -0.0254  0.1429 -2.6276
31623SOL    HW297249   8.871   0.900   2.916  0.6929 -0.0467  1.1448
31624SOL     OW97250   3.986   5.415   5.211  0.1659  0.4477 -0.3588
31624SOL    HW197251   4.038   5.397   5.289 -0.5537  2.9696  0.8071
31624SOL    HW297252   3.897   5.429   5.244 -0.3189  0.7668 -1.7244
31625SOL     OW97253   0.728   4.684   0.251 -0.1410  0.1082  0.2297
31625SOL    HW197254   0.645   4.702   0.207 -0.3327 -0.4842  0.3352
31625SOL    HW297255   0.780   4.763   0.238 -0.8811  0.6673  0.5446
31626SOL     OW97256   2.423   3.741   9.226  0.2538  0.3958 -0.3250
31626SOL    HW197257   2.419   3.648   9.205  0.7876  0.0931  0.8707
31626SOL    HW297258   2.336   3.761   9.261  0.8379 -0.2395  1.6443
31627SOL     OW97259   8.516   9.478   0.325  0.0068 -0.4807  0.0551
31627SOL    HW197260   8.523   9.558   0.274 -0.8682  0.2047  0.9685
31627SOL    HW297261   8.535   9.505   0.415  0.2877 -1.4121  0.2900
31628SOL     OW97262   4.726   3.113   3.570 -0.3113  0.1052 -0.0778
31628SOL    HW197263   4.733   3.178   3.640  0.5207  0.3633 -0.3783
31628SOL    HW297264   4.634   3.089   3.568 -0.8290  1.9505 -0.5455
31629SOL     OW97265  10.461   0.421   4.357  0.2780  0.0781 -0.1892
31629SOL    HW197266  10.501   0.423   4.270  0.7162  0.3255  0.0130
31629SOL    HW297267  10.386   0.362   4.348 -0.1707  0.7446 -0.9390
31630SOL     OW97268   4.890   0.951  10.322  0.2859  0.0532 -0.6384
31630SOL    HW197269   4.941   0.947  10.403 -0.4213 -2.2862 -0.2313
31630SOL    HW297270   4.830   1.024  10.334  0.0454 -0.3976  1.0763
31631SOL     OW97271   0.212   6.038   4.160  0.2304  0.0348 -0.1315
31631SOL    HW197272   0.182   6.115   4.112 -0.8568 -0.1411  0.2140
31631SOL    HW297273   0.223   6.069   4.250  3.8241  0.7658 -0.6760
31632SOL     OW97274   4.565  10.231   2.637 -0.4032 -0.1423  0.5149
31632SOL    HW197275   4.486  10.178   2.645 -0.8647  0.7065  1.9289
31632SOL    HW297276   4.587  10.227   2.544 -2.7885  0.5033 -0.1564
31633SOL     OW97277   8.253   1.361  10.091 -0.4729 -0.2774  0.3804
31633SOL    HW197278   8.330   1.307  10.071  1.3143  2.0682  0.4673
31633SOL    HW297279   8.214   1.381  10.006  0.2216  0.1699  0.1608
31634SOL     OW97280   0.006   0.154   0.886 -0.3565 -0.1130  0.7527
31634SOL    HW197281   0.068   0.083   0.869 -1.1088 -0.8168  0.8902
31634SOL    HW297282   0.054   0.214   0.943  0.2110 -0.6235  0.8250
31635SOL     OW97283   3.685   9.019   5.781  0.4269  0.1200  0.0660
31635SOL    HW197284   3.718   9.028   5.692 -2.0734 -1.4797 -1.1355
31635SOL    HW297285   3.637   9.100   5.797  0.7768  0.3575 -0.0687
31636SOL     OW97286   8.696   7.061   2.019 -0.3754 -0.6126 -0.1162
31636SOL    HW197287   8.651   7.089   1.940 -0.1457 -2.2287 -0.8710
31636SOL    HW297288   8.771   7.120   2.026 -1.5895  0.9295  0.1386
31637SOL     OW97289   2.301   3.513   2.128 -0.1880  0.5227  0.0953
31637SOL    HW197290   2.318   3.580   2.062 -0.2529 -0.2354 -0.7149
31637SOL    HW297291   2.248   3.448   2.082  0.3008 -0.3286  0.7121
31638SOL     OW97292   3.255   5.886   0.943  0.1444 -0.9582  0.0190
31638SOL    HW197293   3.306   5.963   0.969 -0.7505 -0.9578  1.9980
31638SOL    HW297294   3.179   5.922   0.897  1.1897 -0.8860 -1.7485
31639SOL     OW97295   0.699   7.534   6.877  0.3369 -0.2959 -0.1751
31639SOL    HW197296   0.739   7.604   6.826 -0.5348 -0.3097 -0.9189
31639SOL    HW297297   0.674   7.468   6.811 -2.2291  0.3607  0.0203
31640SOL     OW97298   3.923   1.186   7.999 -0.4174 -0.4691 -0.2113
31640SOL    HW197299   3.958   1.222   7.918 -0.7503  0.6236  0.1216
31640SOL    HW297300   3.979   1.110   8.017  1.2495  0.7181 -0.1546
31641SOL     OW97301   4.816   3.338   3.039 -0.5474  0.5932  0.1882
31641SOL    HW197302   4.759   3.357   3.113  0.9587 -0.4126  1.6949
31641SOL    HW297303   4.815   3.243   3.031  0.8610  0.5466  0.2390
31642SOL     OW97304   6.640   6.819   5.580 -0.3579  0.1585 -0.4999
31642SOL    HW197305   6.645   6.915   5.579  0.6131  0.1389  0.4909
31642SOL    HW297306   6.625   6.798   5.672 -2.1127 -0.5986 -0.9206
31643SOL     OW97307   1.152   3.369   9.196  0.0936  0.3820 -0.6585
31643SOL    HW197308   1.171   3.418   9.116 -1.3104  1.5003 -0.3499
31643SOL    HW297309   1.090   3.424   9.244 -0.8685 -1.3058  0.1323
31644SOL     OW97310   0.933   4.031  10.743  0.5432  0.4075 -0.0631
31644SOL    HW197311   0.926   3.988  10.828  1.0136  1.5486  0.5815
31644SOL    HW297312   0.932   3.959  10.679  0.8588 -0.5110  0.9361
31645SOL     OW97313   1.865   2.458   7.104  0.2500 -0.4804  0.1366
31645SOL    HW197314   1.860   2.544   7.146 -1.8036 -1.1639  1.4600
31645SOL    HW297315   1.930   2.410   7.155  0.0599 -0.2744  0.5864
31646SOL     OW97316   4.400   7.331   5.305  0.1799  0.0407 -0.4386
31646SOL    HW197317   4.476   7.383   5.278 -0.3768 -0.0167 -2.3203
31646SOL    HW297318   4.355   7.311   5.222 -0.0234 -2.8190  0.2574
31647SOL     OW97319   2.238   1.648   8.996  0.1096  0.0048 -0.0648
31647SOL    HW197320   2.320   1.622   8.955  0.5818  1.0100  0.2100
31647SOL    HW297321   2.242   1.611   9.084  0.2696  0.0577 -0.0501
31648SOL     OW97322   2.296   6.230   3.959 -0.1136 -0.4993  0.2576
31648SOL    HW197323   2.204   6.206   3.946  0.0266 -0.6834 -0.4024
31648SOL    HW297324   2.324   6.265   3.874  0.7382 -1.4527  0.1332
31649SOL     OW97325   0.840   2.986   3.076 -0.3010  0.1863  0.4863
31649SOL    HW197326   0.926   2.956   3.106  0.1952  1.2402  0.1876
31649SOL    HW297327   0.789   2.906   3.064  0.9268 -0.5254 -0.2291
31650SOL     OW97328   0.704   6.701   7.490 -0.1532  0.1943 -0.3752
31650SOL    HW197329   0.734   6.717   7.400 -2.5730 -0.0912 -1.2908
31650SOL    HW297330   0.699   6.789   7.529 -0.6747  0.4740 -1.0614
31651SOL     OW97331   9.287   7.458   0.850 -0.5294  0.2563  0.2678
31651SOL    HW197332   9.219   7.477   0.914 -0.2537 -0.4564  0.7871
31651SOL    HW297333   9.257   7.377   0.807  1.3177 -1.7288  2.4858
31652SOL     OW97334   9.626   4.051  10.072 -0.0848  0.1934 -0.3628
31652SOL    HW197335   9.697   4.002  10.115  0.8812  2.9292  1.3789
31652SOL    HW297336   9.646   4.143  10.089 -4.8723  1.1679  1.7231
31653SOL     OW97337   5.982  10.730   2.951 -0.0758 -0.1079  0.2482
31653SOL    HW197338   6.032  10.681   3.017 -1.2298  1.5757  2.5145
31653SOL    HW297339   6.003  10.821   2.969  0.1912  0.4162 -2.3266
31654SOL     OW97340   1.193   1.080   9.953  0.3048  0.3416 -0.9769
31654SOL    HW197341   1.275   1.030   9.954  0.5029  0.6699 -0.8005
31654SOL    HW297342   1.149   1.056  10.034  1.1496  1.6841 -0.0839
31655SOL     OW97343   0.678   4.714   8.023  0.0010  0.2510 -0.1159
31655SOL    HW197344   0.607   4.650   8.011 -0.1903  0.5530 -0.6707
31655SOL    HW297345   0.643   4.795   7.986  0.4443  0.5407  0.0890
31656SOL     OW97346   3.495   9.734   1.507 -0.0165 -0.4988  0.0929
31656SOL    HW197347   3.573   9.762   1.555  0.1883 -0.8862 -0.0107
31656SOL    HW297348   3.527   9.670   1.444 -0.2555  0.1285 -0.6822
31657SOL     OW97349   3.534   0.818   0.664 -0.4728  0.7780  0.4846
31657SOL    HW197350   3.615   0.813   0.612 -0.9558 -0.0744 -0.2164
31657SOL    HW297351   3.534   0.738   0.716 -1.2889  0.3143 -0.1917
31658SOL     OW97352   8.584   2.673   2.753  0.5806  0.4382 -0.2914
31658SOL    HW197353   8.593   2.752   2.806  0.5873 -0.2680  0.8029
31658SOL    HW297354   8.564   2.604   2.817 -0.8691 -0.1886 -1.3701
31659SOL     OW97355   8.713   8.804   9.366 -0.3281  0.2870  0.1071
31659SOL    HW197356   8.668   8.846   9.292 -1.1635 -1.4699 -0.4375
31659SOL    HW297357   8.797   8.777   9.329 -0.1490  0.7044  0.2092
31660SOL     OW97358   4.010   2.467   4.926 -0.3508  0.9385 -0.1247
31660SOL    HW197359   4.013   2.432   5.015  0.9558 -1.3788 -1.0048
31660SOL    HW297360   4.081   2.422   4.880 -0.2213  2.9484 -2.0647
31661SOL     OW97361   0.294   9.462   5.298 -0.1673  0.2198  0.0111
31661SOL    HW197362   0.254   9.534   5.346 -1.5228 -1.5890  1.7636
31661SOL    HW297363   0.221   9.404   5.275  0.5936  0.3710 -3.2374
31662SOL     OW97364   6.602   5.432   6.900 -0.3986  0.4968 -0.2539
31662SOL    HW197365   6.582   5.345   6.933  0.9487  0.0735 -0.5033
31662SOL    HW297366   6.622   5.419   6.807 -1.4053  1.2616 -0.5921
31663SOL     OW97367   6.084   4.501   6.372  0.3436 -0.6724 -0.5626
31663SOL    HW197368   6.143   4.432   6.343  0.1239 -0.6284 -1.1145
31663SOL    HW297369   6.003   4.455   6.395  0.0777 -0.5657 -1.2651
31664SOL     OW97370   7.537   0.565   0.712 -0.3733  0.2957  0.0174
31664SOL    HW197371   7.514   0.627   0.781 -0.3813  0.4504 -0.1239
31664SOL    HW297372   7.611   0.606   0.667  0.2846 -0.2644  0.5659
31665SOL     OW97373   4.270   6.274   4.913 -0.6612 -0.1062 -0.3137
31665SOL    HW197374   4.225   6.266   4.997 -1.4559  2.8404 -0.3376
31665SOL    HW297375   4.283   6.184   4.884 -0.4524 -1.2184  2.8806
31666SOL     OW97376   7.210   2.859   2.769 -0.0259  0.4201  0.0099
31666SOL    HW197377   7.153   2.792   2.807  0.9562 -0.0117  0.7485
31666SOL    HW297378   7.222   2.831   2.678 -0.3167  0.0643  0.0773
31667SOL     OW97379  10.321   7.239   2.942  0.8384 -0.6923 -1.1201
31667SOL    HW197380  10.229   7.218   2.958  1.3591 -1.2514  1.5053
31667SOL    HW297381  10.352   7.167   2.887  0.1805 -1.6117 -0.3302
31668SOL     OW97382   4.382   8.054   1.955  0.3735  0.9216 -0.3875
31668SOL    HW197383   4.293   8.087   1.968  0.4165  0.7229  0.4821
31668SOL    HW297384   4.433   8.132   1.933  0.5771  1.6034  2.1515
31669SOL     OW97385   8.248   7.603   1.374  0.0284 -0.6338  0.1996
31669SOL    HW197386   8.220   7.513   1.388  0.7524 -0.9545 -0.3491
31669SOL    HW297387   8.333   7.595   1.330  0.2739  0.3114  0.4796
31670SOL     OW97388   8.934   1.616   2.186  0.0916  0.0736 -0.1272
31670SOL    HW197389   8.849   1.619   2.140  0.5214 -1.3059 -1.0888
31670SOL    HW297390   8.970   1.703   2.174 -1.8138  1.1711  1.5866
31671SOL     OW97391   6.680   6.610   8.501  0.2804  0.1522  0.3060
31671SOL    HW197392   6.725   6.645   8.424  0.8684  0.9364  0.9933
31671SOL    HW297393   6.634   6.686   8.537 -0.8230 -0.4309  0.1649
31672SOL     OW97394   8.938   1.794   2.630 -0.1045 -0.0176  0.0478
31672SOL    HW197395   8.966   1.764   2.716  4.2971 -2.4893 -1.8675
31672SOL    HW297396   8.930   1.714   2.578  2.0416  1.4578 -2.8870
31673SOL     OW97397   4.083   8.483   6.949 -0.3631  0.0778  0.1952
31673SOL    HW197398   4.123   8.569   6.962  0.2452 -0.1678 -0.0374
31673SOL    HW297399   4.028   8.494   6.872  0.0668  0.1379 -0.1044
31674SOL     OW97400   7.679   7.116   5.111  0.2664  0.2315  0.3124
31674SOL    HW197401   7.671   7.139   5.204 -1.1282 -0.2062  0.3201
31674SOL    HW297402   7.684   7.200   5.066 -2.9641  0.6528  0.4960
31675SOL     OW97403   2.669   4.873   0.129  0.3104 -0.4977 -0.1951
31675SOL    HW197404   2.755   4.833   0.116  0.8854  0.2901  1.0229
31675SOL    HW297405   2.607   4.800   0.122  1.1768 -1.2823  0.1381
31676SOL     OW97406   4.403   4.572   0.629 -0.8006 -0.0404  0.0844
31676SOL    HW197407   4.373   4.581   0.720  0.7631 -1.4958  0.7899
31676SOL    HW297408   4.498   4.583   0.633 -0.4088 -2.4375 -0.9731
31677SOL     OW97409   3.046   1.248   1.206 -0.4568  0.4946 -0.1039
31677SOL    HW197410   3.045   1.340   1.179  0.9152  0.0782 -1.8050
31677SOL    HW297411   3.135   1.219   1.186 -1.5142 -1.8019 -1.9073
31678SOL     OW97412   4.382   3.338   9.529  0.2793 -0.1914 -0.1351
31678SOL    HW197413   4.340   3.253   9.541  0.7828 -0.7578 -1.9381
31678SOL    HW297414   4.314   3.395   9.494  0.1155 -0.0369  0.4236
31679SOL     OW97415   3.645   8.155   4.604 -0.3792  0.0352  0.1349
31679SOL    HW197416   3.633   8.178   4.512  1.0174  1.3139  0.2247
31679SOL    HW297417   3.740   8.141   4.612 -0.4350  0.3404  1.4473
31680SOL     OW97418  10.524   5.614   4.463 -0.1699  0.1321 -0.0248
31680SOL    HW197419  10.475   5.551   4.516  0.9451  0.0942  1.0140
31680SOL    HW297420  10.509   5.698   4.506  0.4166  0.1627  0.1333
31681SOL     OW97421   2.047   9.911   5.323 -0.5755  0.6258  0.5351
31681SOL    HW197422   2.122   9.937   5.376 -0.6666  0.3664  0.7934
31681SOL    HW297423   2.066   9.947   5.236 -0.6725  1.4901  0.8652
31682SOL     OW97424   0.622   1.496   1.632 -0.3764 -0.3779  0.1861
31682SOL    HW197425   0.606   1.404   1.611  1.4599 -0.8260  0.6250
31682SOL    HW297426   0.689   1.524   1.570 -1.2842  0.8397 -0.2841
31683SOL     OW97427   4.952   7.605   5.778 -0.0204  0.1855 -0.2104
31683SOL    HW197428   4.975   7.694   5.804  0.3650 -0.1672  0.6819
31683SOL    HW297429   4.877   7.616   5.720  0.7530  1.1663 -1.0556
31684SOL     OW97430   5.678   6.719   5.756 -0.1321  0.2813 -0.2882
31684SOL    HW197431   5.660   6.758   5.842 -0.0429  0.6277 -0.4253
31684SOL    HW297432   5.593   6.718   5.712 -0.3290 -0.5929  0.0795
31685SOL     OW97433   2.447   0.468   7.185  0.1007 -0.5966 -0.8655
31685SOL    HW197434   2.505   0.438   7.115  1.0398 -1.6284  0.3117
31685SOL    HW297435   2.376   0.513   7.139  1.1707 -0.4025 -2.4180
31686SOL     OW97436   7.523   4.960   4.775 -0.2595 -0.2662  0.6341
31686SOL    HW197437   7.595   4.910   4.812 -0.9426 -0.4431  1.7637
31686SOL    HW297438   7.477   4.898   4.718  0.6037 -0.0825 -0.2893
31687SOL     OW97439   9.469   1.549   8.665  0.2373 -0.5209 -0.0014
31687SOL    HW197440   9.509   1.627   8.703 -0.4650 -1.6641  3.3790
31687SOL    HW297441   9.538   1.511   8.611  1.5200  0.9369  0.5175
31688SOL     OW97442   1.772   0.705   2.395 -0.3129 -0.2272 -0.3971
31688SOL    HW197443   1.862   0.736   2.398 -0.3508  0.0588 -1.6858
31688SOL    HW297444   1.780   0.611   2.379 -0.2252 -0.0387 -1.5874
31689SOL     OW97445  10.192   6.427   5.946  0.6636  0.0711 -0.2184
31689SOL    HW197446  10.237   6.459   6.024 -0.8426  0.4774  0.5196
31689SOL    HW297447  10.249   6.451   5.873  0.8140  2.1808  0.5316
31690SOL     OW97448   1.063   3.862   2.893  0.1598  0.5831  0.2254
31690SOL    HW197449   0.996   3.929   2.907  0.6991  1.0744  0.5232
31690SOL    HW297450   1.084   3.867   2.800 -1.3648 -0.6951 -0.2279
31691SOL     OW97451   0.668   1.284   7.930  0.3073  0.2839  0.3161
31691SOL    HW197452   0.733   1.221   7.960 -0.5125 -0.1386  1.2487
31691SOL    HW297453   0.711   1.330   7.857  1.5400 -0.1567  0.7405
31692SOL     OW97454   6.037   0.181   3.000 -0.1351 -0.4814  0.2322
31692SOL    HW197455   6.094   0.252   2.971  0.0199 -0.7114 -0.0389
31692SOL    HW297456   6.036   0.188   3.095 -1.8060  1.1830  0.1659
31693SOL     OW97457   1.124   4.793   3.052  0.2617  0.8265  0.1181
31693SOL    HW197458   1.122   4.705   3.014  1.4365 -0.1179  2.0630
31693SOL    HW297459   1.214   4.823   3.037  0.5207  0.7451  1.3786
31694SOL     OW97460   9.153   8.720   1.488  0.0635  0.4407  0.0624
31694SOL    HW197461   9.199   8.723   1.404 -0.2588 -0.5240 -0.1583
31694SOL    HW297462   9.103   8.801   1.490  0.7624  0.8919 -0.2766
31695SOL     OW97463   2.523   9.555   2.519 -0.3747 -0.3142 -0.2768
31695SOL    HW197464   2.456   9.597   2.465 -0.2696 -1.4229 -1.3110
31695SOL    HW297465   2.581   9.627   2.544 -1.5265  0.5427  0.0425
31696SOL     OW97466   8.688  10.771   3.706  0.4349 -0.2619 -0.1232
31696SOL    HW197467   8.729  10.685   3.696  0.3383 -0.2912 -0.2589
31696SOL    HW297468   8.762  10.832   3.710  0.4777 -0.2559 -0.9143
31697SOL     OW97469   8.478   7.999   9.352  0.6149  0.0029  0.1614
31697SOL    HW197470   8.498   8.006   9.445 -1.4379 -2.4675  0.9077
31697SOL    HW297471   8.556   8.032   9.308  2.1590  0.0768  2.7524
31698SOL     OW97472   8.630   2.616   6.754  0.0513 -0.1397 -0.4447
31698SOL    HW197473   8.701   2.669   6.790  0.5658 -0.8264 -0.4453
31698SOL    HW297474   8.649   2.609   6.661 -0.1373 -0.1355 -0.4839
31699SOL     OW97475   1.494   9.784   8.232 -0.2729  0.4882  0.2323
31699SOL    HW197476   1.501   9.746   8.319 -0.6140  0.2003  0.1370
31699SOL    HW297477   1.584   9.785   8.199 -0.2071  0.1401  0.3969
31700SOL     OW97478   3.398   7.001   7.585  0.1314  0.0820 -0.2807
31700SOL    HW197479   3.378   6.963   7.670 -0.3731  1.0644  0.0593
31700SOL    HW297480   3.313   7.010   7.542  0.0146  2.3204  0.3149
31701SOL     OW97481   5.031  10.548   1.691 -0.2848 -0.1615  0.5661
31701SOL    HW197482   4.982  10.593   1.621 -1.0615  0.2042  1.3234
31701SOL    HW297483   5.041  10.458   1.660 -0.4661  0.0386 -0.0893
31702SOL     OW97484   0.027   0.712   0.837  0.1697 -0.5274  0.0268
31702SOL    HW197485   0.037   0.689   0.745 -1.4932 -0.6975 -0.1354
31702SOL    HW297486  -0.001   0.631   0.879 -1.1476  0.0242  0.2780
31703SOL     OW97487   2.373   9.077   4.416 -0.0838  0.7127  0.1892
31703SOL    HW197488   2.463   9.100   4.437  0.3180 -0.4717 -0.2003
31703SOL    HW297489   2.356   8.996   4.463 -0.7438  0.5961 -0.2269
31704SOL     OW97490   1.458   9.352   7.284  0.0829 -0.0674  0.0577
31704SOL    HW197491   1.473   9.401   7.203  0.7905  0.8218  0.7006
31704SOL    HW297492   1.386   9.293   7.264  0.2598  0.1269 -1.2261
31705SOL     OW97493   2.051   9.576   8.617  0.2695 -0.4395  0.5947
31705SOL    HW197494   1.997   9.623   8.553  1.1721 -0.6599 -0.3657
31705SOL    HW297495   2.119   9.639   8.642 -0.0742 -0.3592  1.3367
31706SOL     OW97496   9.611   1.150   1.980 -0.1690  0.2429  0.1846
31706SOL    HW197497   9.586   1.058   1.991  1.0372 -0.2607 -0.9706
31706SOL    HW297498   9.699   1.155   2.016 -0.5398  1.1566  0.9852
31707SOL     OW97499   2.103   6.598   6.355 -0.4403 -0.2448  0.1105
31707SOL    HW197500   2.134   6.679   6.313  0.3621  1.5738  3.8357
31707SOL    HW297501   2.180   6.542   6.358 -0.2867 -0.0478 -0.0727
31708SOL     OW97502   4.140   4.440   9.325  0.2227 -0.1851  0.4707
31708SOL    HW197503   4.074   4.385   9.282  0.6868 -0.6798  0.3912
31708SOL    HW297504   4.094   4.479   9.399 -0.2197 -0.3659  0.2928
31709SOL     OW97505   5.973   7.332  10.182 -0.5614  0.2260 -0.1040
31709SOL    HW197506   5.977   7.397  10.112  0.7606  0.7632  0.4359
31709SOL    HW297507   6.025   7.259  10.151 -1.1574 -0.1326 -0.2655
31710SOL     OW97508   0.414   9.224   7.700 -0.0642 -0.2838 -0.8433
31710SOL    HW197509   0.349   9.176   7.752 -0.1642  1.2364  0.5211
31710SOL    HW297510   0.365   9.255   7.624 -1.0808  1.0599  0.2936
31711SOL     OW97511   7.071   8.998   2.664 -0.2194  0.0419 -0.2490
31711SOL    HW197512   7.047   8.956   2.747  2.0326  2.6348  1.9472
31711SOL    HW297513   7.024   9.081   2.665  2.0199  1.3950 -0.0156
31712SOL     OW97514   0.852   6.727   9.616  0.3115  0.4397 -0.1654
31712SOL    HW197515   0.879   6.647   9.661 -1.9171 -0.7177 -0.7261
31712SOL    HW297516   0.763   6.742   9.646  0.0550  1.6875 -1.4506
31713SOL     OW97517   0.379   4.094   9.715 -0.3792 -0.1673  0.9705
31713SOL    HW197518   0.356   4.009   9.678  1.8646  0.3868 -2.0335
31713SOL    HW297519   0.357   4.157   9.647  0.2329  1.4185  2.1847
31714SOL     OW97520   1.739   7.109   3.309  0.0490  0.3661 -0.4111
31714SOL    HW197521   1.731   7.198   3.276  0.1878  0.9751  1.1211
31714SOL    HW297522   1.830   7.085   3.291  0.9366  1.7155  1.8782
31715SOL     OW97523   1.164  10.091  10.367  0.5435  0.2035 -0.1770
31715SOL    HW197524   1.093  10.030  10.350  2.0207 -1.4569 -0.7401
31715SOL    HW297525   1.201  10.110  10.280  1.2029  0.4894  0.1531
31716SOL     OW97526   6.561   2.933   4.726 -0.2994 -0.5620 -0.0722
31716SOL    HW197527   6.506   2.988   4.781  0.4712  0.4729 -0.2941
31716SOL    HW297528   6.619   2.888   4.787 -0.5562 -0.7031  0.0697
31717SOL     OW97529   0.066   0.854   0.080  0.6438  0.3846 -0.2168
31717SOL    HW197530   0.132   0.922   0.063  0.9354  0.2509  0.3447
31717SOL    HW297531  -0.003   0.899   0.129  1.4207  0.0198  1.2672
31718SOL     OW97532   1.425   0.670   9.737 -0.9383  0.2636  0.1405
31718SOL    HW197533   1.415   0.645   9.645  2.0671  0.2838 -0.3098
31718SOL    HW297534   1.428   0.587   9.785 -0.6692  0.1719 -0.0345
31719SOL     OW97535   6.034   7.232   5.619  0.1845 -0.1464 -0.0678
31719SOL    HW197536   6.108   7.208   5.563  1.7188  2.3528  0.7053
31719SOL    HW297537   6.019   7.325   5.599 -1.7923 -0.2156  0.8892
31720SOL     OW97538   9.780   6.894   1.030  0.0842  0.1655 -0.4173
31720SOL    HW197539   9.703   6.907   1.085  0.0233  1.8073 -0.8274
31720SOL    HW297540   9.842   6.846   1.085 -0.4381  0.6891  0.6646
31721SOL     OW97541   7.646   3.109   4.074 -0.1740  0.1979  0.0853
31721SOL    HW197542   7.635   3.063   3.991 -0.5334  0.0731  0.2012
31721SOL    HW297543   7.717   3.062   4.119  1.4251  1.4605 -0.9854
31722SOL     OW97544   4.620   9.715   2.903  0.1366 -0.2702 -0.0670
31722SOL    HW197545   4.705   9.714   2.859 -0.6424 -1.3606 -1.6449
31722SOL    HW297546   4.576   9.636   2.873 -1.1036 -0.2088  1.4344
31723SOL     OW97547   3.587   9.348   9.061 -0.0828  0.1632 -0.5737
31723SOL    HW197548   3.648   9.418   9.038 -0.3306 -0.2372 -2.5830
31723SOL    HW297549   3.527   9.388   9.125  0.7444  1.2864 -0.4802
31724SOL     OW97550   3.736   7.365  10.025 -0.0960 -0.0028 -0.4023
31724SOL    HW197551   3.678   7.431  10.063 -0.4076 -1.0997  1.1264
31724SOL    HW297552   3.799   7.416   9.973 -0.0426  1.5503  1.0762
31725SOL     OW97553   8.042   4.377   9.113  0.1746 -0.2278 -0.0447
31725SOL    HW197554   8.036   4.347   9.022  1.5256 -1.0216  0.0940
31725SOL    HW297555   8.117   4.328   9.149  1.0644  1.6833  0.8468
31726SOL     OW97556   5.435   6.950   2.813  0.0107 -0.1489 -0.0456
31726SOL    HW197557   5.422   6.986   2.900  1.2033 -0.3112  0.2167
31726SOL    HW297558   5.357   6.897   2.797 -0.5798  0.4942  0.5894
31727SOL     OW97559  10.210   6.393   2.253 -0.3115  0.0670 -0.5645
31727SOL    HW197560  10.298   6.411   2.219 -0.0572 -0.2627 -0.0873
31727SOL    HW297561  10.168   6.479   2.255  0.9014  0.6725  1.6967
31728SOL     OW97562   3.964   3.283   8.533 -0.6034  0.4191  0.0771
31728SOL    HW197563   3.991   3.315   8.619  2.1964 -0.8911 -0.2210
31728SOL    HW297564   4.040   3.296   8.477 -0.5265 -3.3100 -0.9390
31729SOL     OW97565   6.873   7.872   2.819 -0.3266 -0.4594  0.1782
31729SOL    HW197566   6.946   7.841   2.766  0.4125 -1.5387  1.7399
31729SOL    HW297567   6.795   7.836   2.777  0.2394 -1.2850 -0.1832
31730SOL     OW97568   7.014   5.750   3.805 -0.1053 -0.2190  0.4698
31730SOL    HW197569   6.961   5.674   3.783  2.3595 -1.6234 -1.1550
31730SOL    HW297570   7.017   5.751   3.900 -0.6210 -1.8610  0.5309
31731SOL     OW97571   6.980   5.262   9.306 -0.0593 -0.2693  0.3616
31731SOL    HW197572   7.050   5.213   9.350  1.1964  0.2372 -1.0003
31731SOL    HW297573   6.913   5.196   9.286  0.0621 -0.7840  1.5663
31732SOL     OW97574   7.877  10.240   9.128 -0.1726 -0.4030  0.4199
31732SOL    HW197575   7.818  10.173   9.161  1.0688 -0.7040  2.1761
31732SOL    HW297576   7.935  10.192   9.068 -2.6256  0.2037 -2.7224
31733SOL     OW97577   4.390   9.270   7.900 -0.5723  0.1249  0.1232
31733SOL    HW197578   4.295   9.280   7.903 -0.5449  0.2880  0.6045
31733SOL    HW297579   4.405   9.181   7.870 -0.8899 -0.2073  0.9288
31734SOL     OW97580   7.217   6.432   7.732 -0.5132  0.0965  0.0303
31734SOL    HW197581   7.181   6.444   7.819  0.3311  0.8799  0.2936
31734SOL    HW297582   7.238   6.520   7.702 -0.3418 -0.2029 -0.7635
31735SOL     OW97583   6.003   2.222   0.511  0.7771 -0.1795 -0.3088
31735SOL    HW197584   6.087   2.240   0.470  0.5668 -0.4889 -0.8801
31735SOL    HW297585   6.019   2.232   0.605  0.8656  2.2414 -0.5244
31736SOL     OW97586   1.925   1.838   2.244 -1.1974  0.3263 -0.0933
31736SOL    HW197587   1.898   1.897   2.174 -3.1934  0.9949  1.1511
31736SOL    HW297588   1.919   1.750   2.206 -2.3261  0.6700 -0.7266
31737SOL     OW97589   0.784   3.034   8.677  0.3404  0.4174  0.0008
31737SOL    HW197590   0.872   3.033   8.716  1.0112  0.9855 -1.4326
31737SOL    HW297591   0.727   3.005   8.748  1.5898  0.7320  1.1982
31738SOL     OW97592   4.884   8.390  10.463  0.3044  0.2642 -0.1356
31738SOL    HW197593   4.848   8.462  10.516  0.9016 -1.4900  2.8841
31738SOL    HW297594   4.818   8.375  10.395 -1.8415  0.9645  1.6786
31739SOL     OW97595   8.290   1.367   0.952 -0.1936 -0.0129 -0.1354
31739SOL    HW197596   8.201   1.332   0.964 -1.0108  2.4231  1.8275
31739SOL    HW297597   8.338   1.335   1.028  0.1910 -0.0762 -0.4018
31740SOL     OW97598   1.454   0.625   6.718 -0.2342  0.2801  0.3725
31740SOL    HW197599   1.381   0.623   6.780  0.4460  0.4509  1.2134
31740SOL    HW297600   1.489   0.536   6.720  0.4358  0.5408  1.0631
31741SOL     OW97601   5.041   5.400   3.012 -0.0614 -0.7763 -0.1494
31741SOL    HW197602   4.956   5.378   2.973  0.7246  0.6499 -2.9165
31741SOL    HW297603   5.022   5.475   3.068 -0.7853 -1.0267 -0.0516
31742SOL     OW97604   9.319   9.849   6.472 -0.3935  0.1123 -0.8109
31742SOL    HW197605   9.273   9.851   6.388 -0.7256  0.4790 -0.6265
31742SOL    HW297606   9.377   9.925   6.468 -0.4041  0.1248 -0.7135
31743SOL     OW97607   7.224   8.162   7.907 -0.0721 -0.0311  0.0978
31743SOL    HW197608   7.267   8.214   7.839 -0.6723 -0.5841 -0.7311
31743SOL    HW297609   7.216   8.221   7.982 -0.7671  1.0909 -0.8279
31744SOL     OW97610   8.555   6.542   3.089  0.2679 -0.6336  0.0264
31744SOL    HW197611   8.566   6.499   3.174  0.0638 -0.3934  0.1724
31744SOL    HW297612   8.508   6.477   3.036 -1.0317 -0.1671  0.5881
31745SOL     OW97613   3.127   0.901   9.949  0.0565 -0.1074  0.9027
31745SOL    HW197614   3.158   0.879   9.861 -1.9294  1.4999 -0.2900
31745SOL    HW297615   3.205   0.933   9.994  0.8401  0.5266 -0.8138
31746SOL     OW97616   3.837   9.963   7.142  0.9185  0.1716 -0.2983
31746SOL    HW197617   3.929   9.984   7.156  1.1009 -0.8302  0.0546
31746SOL    HW297618   3.837   9.892   7.078  0.3725  0.3255 -0.4837
31747SOL     OW97619   7.408   1.316   3.944  0.3878  0.1148 -0.8897
31747SOL    HW197620   7.404   1.412   3.947 -0.9766  0.0604  0.1709
31747SOL    HW297621   7.317   1.289   3.959  1.0734 -1.3741  0.9056
31748SOL     OW97622   3.188   6.058   6.086 -0.1349 -0.5412  0.4470
31748SOL    HW197623   3.135   5.979   6.073 -1.3719  0.2577  0.4603
31748SOL    HW297624   3.207   6.059   6.180 -1.0990 -0.2296  0.6468
31749SOL     OW97625   0.917   2.375  10.753 -0.4250 -0.1258  0.0773
31749SOL    HW197626   0.881   2.325  10.679 -1.9324  1.6148 -0.4354
31749SOL    HW297627   0.853   2.363  10.823 -0.4127  0.4338  0.1900
31750SOL     OW97628   8.025   2.171   8.719 -0.1985  0.1053 -0.6521
31750SOL    HW197629   8.001   2.084   8.686  1.5233 -0.4183 -0.6384
31750SOL    HW297630   8.101   2.196   8.666  0.8388  0.5069  0.9474
31751SOL     OW97631   5.149   2.608   7.729  0.0297 -0.1836 -0.2118
31751SOL    HW197632   5.078   2.584   7.788  0.8228 -2.2143 -0.0263
31751SOL    HW297633   5.106   2.660   7.660 -0.9270  2.1133  1.9673
31752SOL     OW97634   7.337   9.012   5.079  0.0021  0.7316  0.4640
31752SOL    HW197635   7.380   9.060   5.149  2.8679  0.3277 -0.8306
31752SOL    HW297636   7.396   8.937   5.062 -2.0478 -0.7639 -0.4756
31753SOL     OW97637   8.777   2.029   2.789 -0.0687 -0.0257  0.5814
31753SOL    HW197638   8.807   1.944   2.822  0.2584  0.4093  1.4394
31753SOL    HW297639   8.825   2.042   2.707 -1.7236 -1.6402 -0.7306
31754SOL     OW97640   6.981   6.458   3.218  0.0202 -0.1291  0.3632
31754SOL    HW197641   7.051   6.402   3.252  0.9092  0.9408  0.3565
31754SOL    HW297642   6.913   6.456   3.286 -0.0813 -1.3975  0.2454
31755SOL     OW97643   8.438   2.224   5.434 -0.3970  0.0342 -0.2428
31755SOL    HW197644   8.392   2.218   5.350 -0.6760 -0.5713 -0.0515
31755SOL    HW297645   8.413   2.144   5.481  1.5321 -0.7399 -0.4597
31756SOL     OW97646   0.446   6.010   0.924  0.2874  0.0806  0.5464
31756SOL    HW197647   0.482   6.098   0.939 -0.6066  0.7168 -0.8895
31756SOL    HW297648   0.367   6.007   0.978 -1.7435  1.5832 -2.1150
31757SOL     OW97649   1.627   5.554  10.070 -0.0540 -0.4931 -0.2582
31757SOL    HW197650   1.674   5.606  10.135  0.2453  0.7723 -1.4589
31757SOL    HW297651   1.552   5.518  10.119  0.1984  0.3726  0.8077
31758SOL     OW97652   8.726   9.531   8.051  0.1912  0.0253  0.0168
31758SOL    HW197653   8.788   9.462   8.076  0.9668  0.8649  0.4855
31758SOL    HW297654   8.729   9.593   8.124 -0.7678  0.3823 -0.2363
31759SOL     OW97655   9.558   2.686   5.741 -0.0911  0.3291  0.2568
31759SOL    HW197656   9.637   2.697   5.794  0.7071 -0.2345 -0.7863
31759SOL    HW297657   9.486   2.684   5.805  0.7918  0.2402  1.2651
31760SOL     OW97658   2.093   1.711   3.838 -0.0848  0.3446  0.1134
31760SOL    HW197659   2.096   1.679   3.748  0.6291  1.2309 -0.1930
31760SOL    HW297660   2.185   1.712   3.866 -0.0865  1.9074  0.1704
31761SOL     OW97661   3.326   4.401   5.859 -1.1154  0.1186 -0.2431
31761SOL    HW197662   3.368   4.418   5.775 -1.7291 -0.1105 -0.6076
31761SOL    HW297663   3.395   4.412   5.924 -0.4030 -0.6273 -0.8573
31762SOL     OW97664   6.237   4.888   2.751 -0.2990 -0.2984  0.1471
31762SOL    HW197665   6.181   4.915   2.678 -0.2648 -1.1677 -0.2208
31762SOL    HW297666   6.292   4.819   2.714  1.9621  1.4000  0.1326
31763SOL     OW97667   7.421   4.734   5.932 -0.5033 -0.5188 -0.0938
31763SOL    HW197668   7.479   4.678   5.984  0.5974  0.9036  0.2815
31763SOL    HW297669   7.341   4.741   5.984 -0.3841 -1.1787  0.1821
31764SOL     OW97670   3.987  10.163   3.314  0.2973  0.4802 -0.2548
31764SOL    HW197671   3.957  10.142   3.225 -0.1113  1.6017 -0.4102
31764SOL    HW297672   3.950  10.095   3.369  0.1347  0.0481 -0.8821
31765SOL     OW97673   9.273   6.243   3.281  0.0264 -0.4514  0.5371
31765SOL    HW197674   9.300   6.256   3.371  0.0963  0.0269  0.4525
31765SOL    HW297675   9.178   6.259   3.282 -0.9402 -4.8875  1.3824
31766SOL     OW97676   0.455   3.335   7.877  0.4255  0.0887 -0.2431
31766SOL    HW197677   0.399   3.402   7.917 -2.6433 -0.1725 -3.5414
31766SOL    HW297678   0.540   3.377   7.866 -0.2120  1.9544  1.4241
31767SOL     OW97679   3.420   0.420   4.023 -0.1280 -0.0700  0.4377
31767SOL    HW197680   3.348   0.465   3.979 -0.7060 -1.4165 -0.0478
31767SOL    HW297681   3.397   0.424   4.116 -0.6758 -0.2323  0.3128
31768SOL     OW97682   5.114   7.592   9.855 -0.1948  0.0249  0.2454
31768SOL    HW197683   5.117   7.642   9.774 -0.2373  0.5576  0.5659
31768SOL    HW297684   5.182   7.631   9.910 -1.2981  0.8117  1.1014
31769SOL     OW97685   4.566   4.714   1.943  0.5603 -0.0608  0.0566
31769SOL    HW197686   4.626   4.640   1.943  2.2999  1.1805 -2.5393
31769SOL    HW297687   4.512   4.701   1.865 -1.1963 -0.0865  1.2304
31770SOL     OW97688   4.443  10.141   8.959 -0.6530  0.0207 -0.2479
31770SOL    HW197689   4.536  10.161   8.955 -0.6873  0.6119  1.0759
31770SOL    HW297690   4.416  10.132   8.868  0.4912  0.8547 -0.6983
31771SOL     OW97691   4.981   1.394   3.812 -0.1101  0.0883  0.4779
31771SOL    HW197692   4.960   1.476   3.769  0.1310 -1.0849 -2.0959
31771SOL    HW297693   5.010   1.337   3.740 -0.9982 -2.4739  2.0364
31772SOL     OW97694   0.339   3.767   0.309  0.0602  0.0287  0.6192
31772SOL    HW197695   0.331   3.675   0.332 -0.6374 -0.6095 -1.8354
31772SOL    HW297696   0.276   3.812   0.366  0.7107 -0.9227  2.1256
31773SOL     OW97697   3.679   9.088   4.409  0.3032 -0.5466 -0.1626
31773SOL    HW197698   3.669   9.183   4.402  0.2508 -0.5141  0.2918
31773SOL    HW297699   3.606   9.060   4.465  1.0305 -0.6846  0.7537
31774SOL     OW97700   9.474   5.751   8.994 -0.4775  0.1132 -0.1010
31774SOL    HW197701   9.524   5.709   9.064 -0.7099 -0.9703 -0.5750
31774SOL    HW297702   9.459   5.840   9.026 -0.0447 -0.1777  0.9517
31775SOL     OW97703   6.873   6.790   1.765  0.8963  0.1205  0.4694
31775SOL    HW197704   6.916   6.727   1.707  0.4000  0.1420  0.0702
31775SOL    HW297705   6.907   6.875   1.737 -0.7117  0.3125 -1.0439
31776SOL     OW97706   4.206   0.826   4.000 -0.3578  0.2178 -0.4417
31776SOL    HW197707   4.207   0.735   4.029 -0.0752  0.0534 -0.9570
31776SOL    HW297708   4.206   0.877   4.082 -1.8181 -0.2426 -0.1350
31777SOL     OW97709   8.277   7.497   3.887  0.1045 -0.0049 -0.6500
31777SOL    HW197710   8.231   7.581   3.887  2.0056  1.0952  0.0692
31777SOL    HW297711   8.284   7.474   3.980  1.2856  0.0414 -0.7190
31778SOL     OW97712   1.414   6.765   5.471 -0.1559  0.2098 -0.1531
31778SOL    HW197713   1.382   6.853   5.492 -0.1607  0.3470 -0.7333
31778SOL    HW297714   1.335   6.715   5.452 -0.1701  0.0178  0.3956
31779SOL     OW97715   2.393   2.833   1.759  0.0697  0.0094  0.1092
31779SOL    HW197716   2.413   2.819   1.851 -1.0483 -0.9397  0.2384
31779SOL    HW297717   2.302   2.864   1.759 -1.3836 -3.6813 -0.7881
31780SOL     OW97718   7.204   1.425   4.766  0.7296 -0.2904  0.4186
31780SOL    HW197719   7.110   1.414   4.761  0.5200  1.2317  0.6245
31780SOL    HW297720   7.229   1.384   4.849  0.2097 -0.4297  0.5060
31781SOL     OW97721   4.819   3.304   4.306  0.1931 -0.1444 -0.4018
31781SOL    HW197722   4.802   3.221   4.350  1.3350  0.4754  1.3237
31781SOL    HW297723   4.733   3.339   4.285 -0.5541  0.2201  2.7603
31782SOL     OW97724   5.604   7.935   8.774  0.5507 -0.1730 -0.1740
31782SOL    HW197725   5.625   7.865   8.712 -1.5844 -1.3526  0.3435
31782SOL    HW297726   5.510   7.949   8.763  0.3659  0.4982  1.8466
31783SOL     OW97727   3.368   7.578   6.384  0.7480  0.4784  0.2339
31783SOL    HW197728   3.379   7.485   6.363 -0.9211  0.2218  0.3503
31783SOL    HW297729   3.402   7.587   6.473 -0.9482 -0.5005  1.0348
31784SOL     OW97730   8.844   6.048   8.058 -0.0027  0.2849 -0.1346
31784SOL    HW197731   8.823   6.045   8.151 -3.5849  1.7521 -0.7234
31784SOL    HW297732   8.836   5.958   8.028 -0.2385  0.0145  0.7157
31785SOL     OW97733   6.254   5.624   3.269 -0.1480  0.4900 -0.1518
31785SOL    HW197734   6.291   5.552   3.218 -0.6317  0.3106 -0.2611
31785SOL    HW297735   6.321   5.645   3.333 -0.6767 -1.2744  1.0615
31786SOL     OW97736  10.322   8.057   8.939 -0.5401  0.0238  0.4183
31786SOL    HW197737  10.340   8.133   8.995 -1.0411 -0.5601  1.3879
31786SOL    HW297738  10.232   8.034   8.958 -0.5751 -0.4696 -0.3089
31787SOL     OW97739   5.666   6.094   6.217 -0.3598 -0.0641 -0.1456
31787SOL    HW197740   5.589   6.037   6.209 -0.6404  0.1593  0.8631
31787SOL    HW297741   5.709   6.066   6.298  0.1879  0.3383 -0.2864
31788SOL     OW97742   1.686   5.156   8.183  0.2965  0.3374 -0.5527
31788SOL    HW197743   1.777   5.129   8.197  0.3227  0.5520 -0.2881
31788SOL    HW297744   1.647   5.153   8.271  0.2624  1.0148 -0.5408
31789SOL     OW97745   9.065   1.274   0.607 -0.4203 -0.3899 -0.0124
31789SOL    HW197746   9.134   1.258   0.543 -0.9468 -0.1102 -0.6620
31789SOL    HW297747   9.108   1.321   0.678  0.2368 -0.9796 -0.0076
31790SOL     OW97748   9.285   0.142   6.297  0.3711 -0.2560  0.3617
31790SOL    HW197749   9.245   0.140   6.210  0.8014  1.1720  0.1087
31790SOL    HW297750   9.215   0.111   6.356 -0.6000  0.7190 -0.2502
31791SOL     OW97751   5.014   3.544   4.369  0.0944 -0.0569  0.2448
31791SOL    HW197752   4.985   3.459   4.336 -0.3479  0.2078 -0.0573
31791SOL    HW297753   4.940   3.602   4.355  0.5310  0.4735  0.0826
31792SOL     OW97754   2.548   4.573   6.765 -0.1399  0.0516 -0.4204
31792SOL    HW197755   2.636   4.610   6.776  0.2461 -0.2654 -2.1532
31792SOL    HW297756   2.527   4.587   6.673 -1.7881 -0.1779 -0.1148
31793SOL     OW97757   4.364   1.881   9.691  0.0259  0.0561 -0.6068
31793SOL    HW197758   4.384   1.974   9.700  1.9037 -0.2868 -0.7630
31793SOL    HW297759   4.321   1.857   9.773  1.3949  0.6407  0.3271
31794SOL     OW97760   4.022   3.856   4.142  0.3214  0.4812  0.3047
31794SOL    HW197761   4.116   3.873   4.137  0.4827 -0.5623 -0.6925
31794SOL    HW297762   4.005   3.797   4.069 -1.0231  0.2377  0.7945
31795SOL     OW97763   9.859  10.484   9.969 -0.7553  0.6756  0.2910
31795SOL    HW197764   9.875  10.553   9.904  0.0960  0.1817 -0.0281
31795SOL    HW297765   9.883  10.524  10.053  0.5042  0.5213  0.0167
31796SOL     OW97766  10.107   6.888   8.312 -0.0471  0.0487 -0.1807
31796SOL    HW197767  10.129   6.941   8.235  0.2003  1.0619  0.5780
31796SOL    HW297768  10.013   6.900   8.323 -0.1537 -0.4052 -0.5350
31797SOL     OW97769   1.167   6.436   1.268  0.4218  0.1528  0.4414
31797SOL    HW197770   1.124   6.369   1.321 -0.6339  0.8732  0.5304
31797SOL    HW297771   1.232   6.388   1.216  0.6703 -0.7203  1.5375
31798SOL     OW97772  10.456   1.767  10.311  0.1262 -0.4736  0.2673
31798SOL    HW197773  10.515   1.842  10.312  2.3062 -2.0542  2.7928
31798SOL    HW297774  10.492   1.707  10.376 -3.1242 -2.5025  0.4169
31799SOL     OW97775   5.302   5.864   5.192 -0.3801 -0.0257  0.1568
31799SOL    HW197776   5.210   5.885   5.172 -0.1679 -0.0364 -0.9064
31799SOL    HW297777   5.351   5.938   5.155  0.0531 -0.1149  0.5497
31800SOL     OW97778   9.071   9.665   0.498 -0.0538 -0.1473 -0.3937
31800SOL    HW197779   9.155   9.687   0.538 -0.4121 -1.3412  1.1037
31800SOL    HW297780   9.093   9.604   0.427  0.4888  1.1510 -1.3915
31801SOL     OW97781   5.189   7.812   6.424 -0.3205 -0.1596 -0.0692
31801SOL    HW197782   5.206   7.749   6.494 -0.2478 -0.1650 -0.0914
31801SOL    HW297783   5.109   7.779   6.381 -1.1664  0.6072  0.8760
31802SOL     OW97784   3.161   0.539   0.537  0.3322 -0.4098 -0.4295
31802SOL    HW197785   3.152   0.455   0.582 -0.5869 -0.0755  0.0414
31802SOL    HW297786   3.146   0.605   0.605 -1.6256  0.0974 -1.2727
31803SOL     OW97787   2.255   6.859   2.793 -0.2606 -0.4478  0.2629
31803SOL    HW197788   2.348   6.860   2.813 -0.3707  0.2763  0.8032
31803SOL    HW297789   2.234   6.767   2.779  0.3300 -0.7341  1.1469
31804SOL     OW97790   9.210   7.296   5.851  0.0446  0.2545 -0.4102
31804SOL    HW197791   9.156   7.364   5.890  1.5177  2.0934 -1.3945
31804SOL    HW297792   9.153   7.219   5.847 -2.7509  2.2287 -2.0567
31805SOL     OW97793   2.127   2.739   8.297  0.1384  0.5345  0.1709
31805SOL    HW197794   2.148   2.809   8.235  0.3184 -0.3371 -0.7826
31805SOL    HW297795   2.066   2.683   8.249  0.2343 -0.1316  0.8128
31806SOL     OW97796   2.476   5.764   0.249  0.5469  0.1115 -0.1254
31806SOL    HW197797   2.427   5.840   0.281 -1.0294 -1.2966  1.0346
31806SOL    HW297798   2.544   5.750   0.315  1.5221  1.1066 -0.8912
31807SOL     OW97799   1.422   1.885   3.997  0.8140 -0.6107 -0.0585
31807SOL    HW197800   1.354   1.920   3.939  0.5846  0.4625  0.8174
31807SOL    HW297801   1.486   1.955   4.004  2.6812 -2.0461 -1.8145
31808SOL     OW97802   0.312   1.440   8.576  0.1401  0.1550 -0.2619
31808SOL    HW197803   0.298   1.393   8.493  0.5933 -0.4829  0.0154
31808SOL    HW297804   0.230   1.487   8.590  0.1494  0.4855 -1.2051
31809SOL     OW97805   5.553   7.861   4.858 -0.4400  0.6149 -0.4366
31809SOL    HW197806   5.473   7.904   4.889  0.0106  1.1119  0.0508
31809SOL    HW297807   5.542   7.856   4.763 -1.9358 -1.1131 -0.2319
31810SOL     OW97808   7.052   2.214   3.710 -0.3031 -0.1726 -0.3033
31810SOL    HW197809   7.109   2.253   3.776  1.9950 -0.4977 -1.9662
31810SOL    HW297810   6.981   2.173   3.760  1.0045  0.0930  1.8994
31811SOL     OW97811   3.538   3.238   7.831 -0.5139 -1.3215 -0.3411
31811SOL    HW197812   3.570   3.294   7.759 -2.1446 -2.1087 -1.7435
31811SOL    HW297813   3.493   3.299   7.890  0.2039 -0.7672 -0.3466
31812SOL     OW97814   3.034   0.847   9.646  0.4199  0.1286 -0.1536
31812SOL    HW197815   2.964   0.895   9.601  1.4415  1.2999 -0.5865
31812SOL    HW297816   2.997   0.761   9.664 -0.8709  0.4624 -1.0321
31813SOL     OW97817   3.757   7.522   9.048 -0.7847 -0.2032 -0.3390
31813SOL    HW197818   3.826   7.564   8.996  0.9430 -1.5083  0.8049
31813SOL    HW297819   3.676   7.557   9.011  0.4414  3.8077  0.1990
31814SOL     OW97820   6.333   4.075   7.695  0.5642  0.3265 -0.3446
31814SOL    HW197821   6.344   3.980   7.706 -1.4984 -0.0421 -1.0336
31814SOL    HW297822   6.409   4.102   7.644  1.2904 -0.9198  0.0251
31815SOL     OW97823   0.454   2.588   0.616 -0.0057 -0.2704  0.6572
31815SOL    HW197824   0.405   2.664   0.586 -0.5081 -1.2890 -1.2386
31815SOL    HW297825   0.424   2.574   0.706  0.2078  1.8100  1.0991
31816SOL     OW97826   7.076  10.033   4.404  0.1664 -0.1095  0.4707
31816SOL    HW197827   7.130  10.063   4.331 -0.2606  1.4659  0.7576
31816SOL    HW297828   7.055   9.943   4.383  2.8332 -0.7853  0.3052
31817SOL     OW97829  10.468   8.441   5.996 -0.1414  0.2524 -0.0313
31817SOL    HW197830  10.487   8.417   5.905  1.3248 -0.7133  0.4977
31817SOL    HW297831  10.415   8.368   6.029  1.3578 -0.5978  0.5625
31818SOL     OW97832   9.592  10.394   2.888  0.0718 -0.0347 -0.6720
31818SOL    HW197833   9.646  10.422   2.963  1.6789  0.6479 -2.0275
31818SOL    HW297834   9.622  10.306   2.868  0.7663  0.3646 -1.4604
31819SOL     OW97835   2.715   8.190   5.477  0.3091 -0.1772 -0.3977
31819SOL    HW197836   2.672   8.197   5.563  0.2396 -0.0304 -0.4449
31819SOL    HW297837   2.692   8.102   5.446  2.4775 -1.2954  0.8874
31820SOL     OW97838   9.658   0.778   3.879  1.1260 -0.4574 -0.1787
31820SOL    HW197839   9.747   0.749   3.859  0.8928 -0.4375 -1.3235
31820SOL    HW297840   9.635   0.732   3.959  1.5535 -1.8024 -0.7998
31821SOL     OW97841   6.124  10.759   5.990 -0.0873  0.3119 -0.7642
31821SOL    HW197842   6.143  10.776   5.897  1.0035  1.3264 -0.3857
31821SOL    HW297843   6.206  10.724   6.024 -0.5181 -0.1469 -0.2034
31822SOL     OW97844   4.014   9.486   9.985  0.2161  0.3267 -1.0962
31822SOL    HW197845   4.035   9.550  10.052  0.6442 -0.3623 -0.5555
31822SOL    HW297846   4.080   9.499   9.917  1.1355 -0.4014 -0.3801
31823SOL     OW97847   7.063   6.998   8.489  0.5027  0.6528 -0.5165
31823SOL    HW197848   7.135   7.061   8.482  1.2197 -0.1759 -0.7593
31823SOL    HW297849   7.094   6.921   8.441 -0.0340 -0.1764  0.4361
31824SOL     OW97850   4.285   3.093   8.644  0.5998  0.1136  0.2297
31824SOL    HW197851   4.258   3.151   8.572  0.8148  0.1471  0.1745
31824SOL    HW297852   4.203   3.070   8.688  0.5084  0.4330  0.2322
31825SOL     OW97853   9.776   0.265   9.449  0.7172  0.5046 -0.0621
31825SOL    HW197854   9.817   0.304   9.372  0.5913 -0.5479 -0.6838
31825SOL    HW297855   9.685   0.294   9.446  1.0742  1.7678  0.5932
31826SOL     OW97856   6.809   0.026   4.501  0.0994  0.1681 -0.2236
31826SOL    HW197857   6.758  -0.001   4.425  0.0484  0.2930 -0.2342
31826SOL    HW297858   6.853   0.106   4.474 -1.3579  1.2647  0.4440
31827SOL     OW97859   2.470   4.583   5.591 -0.6485 -0.7164  0.0476
31827SOL    HW197860   2.514   4.648   5.646 -0.7863 -0.7472  0.1966
31827SOL    HW297861   2.534   4.560   5.524  0.1108 -1.8644  1.1277
31828SOL     OW97862   8.643   3.467   7.043 -0.1459  0.5419  0.7024
31828SOL    HW197863   8.562   3.416   7.055  0.6546 -1.0791 -0.4206
31828SOL    HW297864   8.713   3.407   7.066  0.9233  0.5249 -2.1712
31829SOL     OW97865   5.817   4.456   6.460 -0.2593  0.2370 -0.2545
31829SOL    HW197866   5.752   4.486   6.396 -2.6034 -0.3806  1.6880
31829SOL    HW297867   5.766   4.437   6.539  1.9152 -2.7185  0.6282
31830SOL     OW97868   0.043   8.264   3.765  0.1631 -0.2204  0.0836
31830SOL    HW197869   0.130   8.227   3.751  1.3539  1.6151  2.0546
31830SOL    HW297870   0.041   8.287   3.858 -2.3604  0.0226  0.0435
31831SOL     OW97871   8.927   1.043   8.467  0.1908  0.3949  0.3510
31831SOL    HW197872   8.988   1.030   8.539  0.1811 -1.6915  0.0567
31831SOL    HW297873   8.865   0.970   8.474 -1.7137  1.8927  0.0528
31832SOL     OW97874  10.589   5.986   9.131 -0.5820 -0.6818  0.0605
31832SOL    HW197875  10.644   5.995   9.209 -0.5827 -2.1570  0.2681
31832SOL    HW297876  10.534   5.910   9.150 -0.4823 -1.1541 -1.4250
31833SOL     OW97877   1.019   7.538  10.315  0.2948  0.3836 -0.1213
31833SOL    HW197878   1.113   7.536  10.336  1.0499 -2.9677 -2.8389
31833SOL    HW297879   0.978   7.486  10.383  0.8959 -0.6003 -0.4918
31834SOL     OW97880   4.506   0.895   5.306 -0.0729  0.6509 -0.1888
31834SOL    HW197881   4.516   0.941   5.389  0.3293  0.9556 -0.3996
31834SOL    HW297882   4.431   0.936   5.264 -2.1253 -1.3995  1.2471
31835SOL     OW97883   0.451   7.140   7.485  0.2884  0.0044  0.3506
31835SOL    HW197884   0.374   7.195   7.485  1.5789  1.9146  1.3599
31835SOL    HW297885   0.483   7.144   7.395 -0.4126 -0.2810  0.0826
31836SOL     OW97886   4.461  10.195   4.376 -0.4392 -0.3411  0.2135
31836SOL    HW197887   4.453  10.117   4.321  0.8147 -1.1674  1.1793
31836SOL    HW297888   4.534  10.243   4.338 -0.5359 -0.1541  0.2625
31837SOL     OW97889   9.865   6.858   0.186  0.4001  0.1499 -0.0495
31837SOL    HW197890   9.809   6.824   0.116  0.6943 -0.3734 -0.0351
31837SOL    HW297891   9.950   6.817   0.171  0.5642  0.3174  0.4001
31838SOL     OW97892   7.471   1.096   6.971 -0.2443 -0.1671 -0.3301
31838SOL    HW197893   7.562   1.067   6.960  0.4459  1.0939  1.5251
31838SOL    HW297894   7.421   1.015   6.983  0.9462 -0.8115  0.4978
31839SOL     OW97895   5.562   4.337   9.427  0.3408 -0.5274 -0.7940
31839SOL    HW197896   5.608   4.271   9.478  1.6409  0.4957 -0.6115
31839SOL    HW297897   5.475   4.343   9.467  0.9596 -0.5502  0.5824
31840SOL     OW97898   0.960  10.656   2.689  0.1285 -0.0025  0.0781
31840SOL    HW197899   0.868  10.650   2.663  0.5220 -0.3969 -1.3015
31840SOL    HW297900   0.998  10.718   2.627  0.9899 -0.5695  0.0242
31841SOL     OW97901   7.567   2.214   9.326  0.2922 -0.5696  0.0331
31841SOL    HW197902   7.530   2.235   9.240 -0.0794  0.6174  0.4728
31841SOL    HW297903   7.548   2.121   9.337 -1.0726 -0.3795 -0.4913
31842SOL     OW97904   8.030   6.543   5.659 -0.1481  0.1836  0.0720
31842SOL    HW197905   8.099   6.507   5.716 -0.0535  1.0784  0.5331
31842SOL    HW297906   8.075   6.610   5.608 -0.9346  1.7412  1.3322
31843SOL     OW97907   9.587   4.247   3.232 -0.2449 -0.3311  0.2348
31843SOL    HW197908   9.632   4.300   3.298 -0.1255 -0.2145  0.0615
31843SOL    HW297909   9.642   4.170   3.220 -0.0424 -0.1482 -0.0387
31844SOL     OW97910   0.222   2.305   8.995 -0.7733 -0.0856 -0.4219
31844SOL    HW197911   0.282   2.298   8.921 -0.8001  0.9915 -0.5560
31844SOL    HW297912   0.250   2.384   9.042 -1.0876 -0.4561  0.4202
31845SOL     OW97913   8.940  10.316   6.429 -0.1678  0.0320  0.0618
31845SOL    HW197914   9.001  10.277   6.491  1.4110  0.7048 -1.0044
31845SOL    HW297915   8.893  10.382   6.480  0.0500 -0.4403  0.8892
31846SOL     OW97916  10.667   0.963   2.908 -0.2310 -0.0234 -0.4587
31846SOL    HW197917  10.644   1.051   2.878 -0.9020  0.0432  0.2308
31846SOL    HW297918  10.604   0.944   2.977  1.9028  0.2638  1.6973
31847SOL     OW97919   5.644   5.643   5.007  0.3035  0.4423  0.0043
31847SOL    HW197920   5.662   5.734   5.027  0.4425  1.1344 -2.8703
31847SOL    HW297921   5.589   5.645   4.929 -0.4670 -1.9388  0.3903
31848SOL     OW97922   4.095   3.275   9.544  0.0849  0.2508 -0.4094
31848SOL    HW197923   4.099   3.360   9.501 -1.7707 -0.9686 -3.2713
31848SOL    HW297924   4.005   3.246   9.532  1.0586 -2.8338 -1.1201
31849SOL     OW97925  10.351   2.192   3.499  0.3188 -0.2885  0.1065
31849SOL    HW197926  10.265   2.190   3.456 -0.7877  1.3084  2.0660
31849SOL    HW297927  10.400   2.258   3.451 -0.5917  0.8641  0.7243
31850SOL     OW97928   1.103   7.366   9.386  0.5288  0.4090  0.7586
31850SOL    HW197929   1.071   7.454   9.366  0.5116  0.7129  2.0479
31850SOL    HW297930   1.137   7.372   9.475  2.5771 -0.3433  0.0862
31851SOL     OW97931   1.757   4.943   0.404 -0.0761 -0.0574 -0.3171
31851SOL    HW197932   1.819   5.010   0.433 -0.5012 -0.2841  1.1897
31851SOL    HW297933   1.742   4.963   0.311  0.5895  1.3016 -0.1569
31852SOL     OW97934   9.154  10.174   9.894 -0.5911  0.0202  0.7717
31852SOL    HW197935   9.111  10.241   9.841 -0.3655 -2.4891 -2.9458
31852SOL    HW297936   9.244  10.205   9.904 -0.7161  0.6899 -0.1276
31853SOL     OW97937   1.452   3.882   6.020  0.1168 -0.3189 -0.4431
31853SOL    HW197938   1.449   3.833   5.938  0.3254  0.4994 -0.9508
31853SOL    HW297939   1.508   3.957   6.001 -0.3228  0.1986  0.2740
31854SOL     OW97940   0.664   9.777   7.728  0.1023  0.4365  0.2904
31854SOL    HW197941   0.707   9.694   7.747 -0.0286  1.0029  3.5354
31854SOL    HW297942   0.614   9.760   7.648  0.4476 -2.4404  0.5837
31855SOL     OW97943   7.999   6.752  10.559  0.2752 -0.1862  0.3349
31855SOL    HW197944   7.917   6.801  10.562  1.3707  1.9631 -1.2439
31855SOL    HW297945   8.005   6.722  10.468  1.6477  0.5939  0.1300
31856SOL     OW97946   9.783   0.004   8.096 -0.4220  0.2168 -0.3633
31856SOL    HW197947   9.744   0.070   8.153 -0.3693 -0.8864  0.9947
31856SOL    HW297948   9.871   0.037   8.078  0.1282 -0.1217  1.4801
31857SOL     OW97949   0.348   3.955  10.175  0.1725 -0.2580 -0.1364
31857SOL    HW197950   0.398   3.957  10.093  0.1225 -0.5199 -0.1747
31857SOL    HW297951   0.388   3.885  10.226  1.6455  1.3333  0.9981
31858SOL     OW97952   9.153   0.111   0.129  0.1743  0.2410 -0.0478
31858SOL    HW197953   9.233   0.118   0.180 -0.0889  2.0281  0.1837
31858SOL    HW297954   9.084   0.143   0.187 -0.4623  0.1812 -0.7486
31859SOL     OW97955   5.129   1.233   9.795  0.4483  0.4620 -0.2828
31859SOL    HW197956   5.169   1.279   9.868 -2.8230  0.6258  1.6265
31859SOL    HW297957   5.043   1.274   9.786 -0.9544 -2.4475 -1.3234
31860SOL     OW97958   4.066   3.369   9.170 -0.6922 -0.2649  0.5782
31860SOL    HW197959   4.117   3.442   9.135 -0.6694 -0.4327  0.2624
31860SOL    HW297960   4.069   3.302   9.102 -1.7522 -0.0954  0.3413
31861SOL     OW97961   2.355   1.640  10.720  0.1701  0.0599  0.4986
31861SOL    HW197962   2.300   1.571  10.682 -0.7179  0.9149  0.1669
31861SOL    HW297963   2.443   1.604  10.721 -0.5995 -2.0449  2.6287
31862SOL     OW97964   8.616   9.025   8.627 -0.3024 -0.1211  0.0435
31862SOL    HW197965   8.660   8.955   8.676 -2.2967 -2.1190 -0.8762
31862SOL    HW297966   8.538   9.046   8.679 -0.1974  0.8295 -0.1559
31863SOL     OW97967   7.720   8.649   2.739  0.3782 -0.5931  0.3619
31863SOL    HW197968   7.693   8.610   2.656  0.1098 -0.6768  0.4870
31863SOL    HW297969   7.689   8.740   2.735  1.2120 -0.3216 -0.0275
31864SOL     OW97970   7.591   8.655   7.559 -0.1108 -0.1865  0.0166
31864SOL    HW197971   7.559   8.699   7.480  2.1609  3.5450  0.9320
31864SOL    HW297972   7.586   8.722   7.628 -0.4597 -2.7650  2.7301
31865SOL     OW97973   0.892   8.859   5.559  0.3705 -0.0726  0.4416
31865SOL    HW197974   0.810   8.907   5.568  0.1093 -0.2716 -0.7549
31865SOL    HW297975   0.945   8.913   5.501  1.9562  1.1334  2.8187
31866SOL     OW97976   6.811   2.671   5.441  0.0508  0.1375  0.1048
31866SOL    HW197977   6.862   2.751   5.443  0.3329 -0.0196 -0.6740
31866SOL    HW297978   6.800   2.651   5.348 -0.0025 -0.7299  0.2885
31867SOL     OW97979   1.103   7.765   5.228  1.0125  0.4460  0.5453
31867SOL    HW197980   1.076   7.713   5.303 -0.8025  0.7430  0.1477
31867SOL    HW297981   1.187   7.803   5.253  1.0335 -0.4549  1.9156
31868SOL     OW97982   4.237   5.997   5.239 -0.0749  0.0299  0.2163
31868SOL    HW197983   4.301   5.937   5.279 -0.6886 -0.1014  1.0494
31868SOL    HW297984   4.158   5.985   5.292 -0.8667  0.0162 -0.9267
31869SOL     OW97985   1.178   2.540   9.776 -0.1150 -0.1850  0.4088
31869SOL    HW197986   1.243   2.579   9.717  0.6665 -1.1524  0.6035
31869SOL    HW297987   1.137   2.471   9.724 -2.1154  1.3840 -0.2278
31870SOL     OW97988   0.807   7.029   3.615 -0.7602 -0.7293 -0.2126
31870SOL    HW197989   0.895   7.061   3.637 -1.1898  0.2132  0.1686
31870SOL    HW297990   0.822   6.966   3.544  0.4816 -2.5981  1.6029
31871SOL     OW97991   8.702  10.031   0.393  0.0206  0.4425  0.0727
31871SOL    HW197992   8.629  10.011   0.334  0.6449  0.3272 -0.6853
31871SOL    HW297993   8.722  10.123   0.376  0.6877  0.2081 -0.4576
31872SOL     OW97994   3.573   1.921   6.893 -0.0744  0.3413  1.0862
31872SOL    HW197995   3.565   1.998   6.836  1.6699  0.0226  0.3221
31872SOL    HW297996   3.563   1.847   6.833 -2.3090 -0.0919  1.9089
31873SOL     OW97997   4.149   9.279   4.646 -0.0835 -0.0842  0.2415
31873SOL    HW197998   4.188   9.199   4.681  1.0714 -0.1419 -1.0861
31873SOL    HW297999   4.096   9.313   4.718  2.6917  0.1930  2.3777
31874SOL     OW98000   7.640   6.649  10.548 -0.0934  0.3598 -0.0452
31874SOL    HW198001   7.669   6.738  10.568 -0.1185  0.4335 -0.3357
31874SOL    HW298002   7.715   6.594  10.573  0.9798  0.6757 -2.2457
31875SOL     OW98003   2.701   3.635   0.280  0.1138  0.3633  0.1165
31875SOL    HW198004   2.740   3.613   0.365  0.3599 -1.0103 -0.3162
31875SOL    HW298005   2.615   3.593   0.281 -0.4450  1.4679  0.1819
31876SOL     OW98006   3.332   5.308   3.418 -0.0578  0.2663  0.0916
31876SOL    HW198007   3.275   5.260   3.478  0.1605 -1.0757 -0.7372
31876SOL    HW298008   3.273   5.367   3.371 -0.6347 -0.4375 -0.0928
31877SOL     OW98009   2.027   9.938   1.193 -0.2934 -0.0050 -0.0091
31877SOL    HW198010   1.964   9.950   1.122 -0.3968  2.0845  0.3626
31877SOL    HW298011   2.111   9.966   1.156 -0.3056  0.8713  0.5968
31878SOL     OW98012   4.770  10.602   9.605 -0.8657 -0.4781  0.1614
31878SOL    HW198013   4.721  10.605   9.687 -0.5634 -0.3257  0.3411
31878SOL    HW298014   4.710  10.638   9.540 -0.0259  2.6584  0.8964
31879SOL     OW98015   9.352   6.791   3.991 -0.5332  0.2105 -0.1851
31879SOL    HW198016   9.269   6.749   4.014 -0.7809  1.7278  1.9861
31879SOL    HW298017   9.419   6.735   4.031 -0.6352  0.0642 -0.2180
31880SOL     OW98018  10.788   8.951   7.189 -0.8547  0.0127 -0.0605
31880SOL    HW198019  10.880   8.927   7.181 -0.7299  0.5418 -0.2399
31880SOL    HW298020  10.743   8.868   7.205 -0.4394 -0.3541 -0.7435
31881SOL     OW98021   9.930   2.409   7.057 -0.1543 -0.3106  0.3498
31881SOL    HW198022   9.908   2.413   7.150  0.1261  0.4418  0.3912
31881SOL    HW298023   9.925   2.316   7.035  3.2460 -1.0555  1.9725
31882SOL     OW98024  10.393   3.545   0.120  0.3914  0.5163 -0.4503
31882SOL    HW198025  10.390   3.542   0.216 -1.1884 -1.0814 -0.4997
31882SOL    HW298026  10.389   3.638   0.099 -0.8083  0.8325  1.0119
31883SOL     OW98027   8.945   0.801   6.034  0.4971  0.0958  0.4276
31883SOL    HW198028   8.917   0.746   6.106 -2.0812  2.0330  1.0331
31883SOL    HW298029   8.984   0.877   6.076 -1.7805  1.6357 -0.0633
31884SOL     OW98030   8.781   7.192   3.717 -0.0847 -0.3711 -0.2965
31884SOL    HW198031   8.852   7.237   3.672  0.3790 -0.8862 -0.0862
31884SOL    HW298032   8.750   7.254   3.783  0.3674 -0.2616 -0.1873
31885SOL     OW98033   7.950   4.212   2.938 -0.5962 -0.2037 -0.2689
31885SOL    HW198034   7.949   4.254   2.852  0.4169 -0.0964 -0.2326
31885SOL    HW298035   8.039   4.180   2.949 -1.0853 -1.4975  0.1352
31886SOL     OW98036   1.596   8.507   3.097 -0.1085 -0.1454  0.0775
31886SOL    HW198037   1.577   8.429   3.045  0.2385 -0.3223  0.2106
31886SOL    HW298038   1.627   8.472   3.181  0.0789  0.1349  0.1250
31887SOL     OW98039   4.760   3.396   0.324 -0.5553 -0.2864 -0.3911
31887SOL    HW198040   4.791   3.416   0.236 -0.1396 -0.4848 -0.2956
31887SOL    HW298041   4.665   3.401   0.318 -0.5376 -0.4847 -0.8971
31888SOL     OW98042   5.083   4.284   7.823  0.1994 -0.0618 -0.6688
31888SOL    HW198043   5.070   4.205   7.875  1.3155 -0.9639 -1.6869
31888SOL    HW298044   5.111   4.351   7.885  2.7767 -1.4386 -0.2011
31889SOL     OW98045   4.620   1.549   4.961 -0.3268  0.3614  0.5730
31889SOL    HW198046   4.688   1.484   4.980  0.7856  1.3957  0.3021
31889SOL    HW298047   4.656   1.631   4.996 -1.3737  0.9650  0.2656
31890SOL     OW98048   1.915   8.658   5.514  0.3983  0.4441 -1.2429
31890SOL    HW198049   1.876   8.608   5.586  1.4483  0.7938 -0.4039
31890SOL    HW298050   1.893   8.608   5.436 -0.8253  0.0886 -0.6914
31891SOL     OW98051   7.885   8.566   9.399 -0.5982  0.2155 -0.6190
31891SOL    HW198052   7.959   8.523   9.357 -0.4337  0.1580 -0.2793
31891SOL    HW298053   7.813   8.504   9.390 -0.4713  0.0495 -0.5059
31892SOL     OW98054   5.578   0.834   3.975  0.6545 -0.0026 -0.3226
31892SOL    HW198055   5.490   0.871   3.971  0.7717  0.2015 -1.1057
31892SOL    HW298056   5.568   0.755   4.029 -0.1487 -0.3663 -0.9843
31893SOL     OW98057   7.562   5.972   0.084 -0.4565  0.1174  0.3889
31893SOL    HW198058   7.490   5.985   0.146 -1.3810  0.3273 -0.6828
31893SOL    HW298059   7.560   6.051   0.030  1.7200  0.9523  1.4025
31894SOL     OW98060   0.917   3.689   6.884  0.1198  0.5450 -0.7724
31894SOL    HW198061   0.870   3.692   6.967  1.0533  1.4177 -0.2547
31894SOL    HW298062   0.910   3.778   6.849 -0.6989  0.0654 -1.8919
31895SOL     OW98063   8.371   8.146   8.062 -0.0312  0.6476  0.8503
31895SOL    HW198064   8.349   8.228   8.019  0.8756 -0.1778 -1.3500
31895SOL    HW298065   8.457   8.160   8.101  0.6489  0.4304 -0.5259
31896SOL     OW98066   3.503   4.810   3.941  0.1809  0.5353 -0.3518
31896SOL    HW198067   3.548   4.894   3.937  2.8026 -0.7831 -2.9545
31896SOL    HW298068   3.454   4.805   3.858 -0.4549 -0.2579  0.0561
31897SOL     OW98069   1.280   7.148   0.920  0.2430  0.3033 -0.2125
31897SOL    HW198070   1.241   7.189   0.997  0.3763 -0.1416  0.0980
31897SOL    HW298071   1.211   7.091   0.886  0.8880 -1.1670  0.8557
31898SOL     OW98072   4.802   4.759   8.556 -0.4064 -0.2073  0.2711
31898SOL    HW198073   4.786   4.784   8.465 -0.0005 -1.1857 -0.0807
31898SOL    HW298074   4.745   4.816   8.606 -0.4744  0.5024 -0.5829
31899SOL     OW98075   5.349   2.027   2.494 -0.0476  0.2573  0.0801
31899SOL    HW198076   5.308   1.944   2.471 -1.5743  0.6816  1.0942
31899SOL    HW298077   5.400   2.007   2.573  0.0161  0.1681  0.0163
31900SOL     OW98078   4.910   2.214   5.492  0.4108  0.2912  0.5207
31900SOL    HW198079   4.947   2.127   5.504 -2.2282 -1.0223 -0.1921
31900SOL    HW298080   4.985   2.273   5.499  2.4584 -2.0853 -0.0392
31901SOL     OW98081   6.757   9.654   1.379 -0.0020  0.1482 -0.2061
31901SOL    HW198082   6.840   9.649   1.331 -0.9964 -1.8676 -1.9095
31901SOL    HW298083   6.779   9.632   1.469  1.3278 -0.1984 -0.6002
31902SOL     OW98084   1.059   1.744   3.838 -0.2705  0.4113  0.8103
31902SOL    HW198085   1.009   1.752   3.919 -1.3705  2.6607 -0.0095
31902SOL    HW298086   1.084   1.651   3.835 -2.1331 -0.2385  2.5747
31903SOL     OW98087   7.807   1.354   2.777 -0.0069  0.4421 -0.2356
31903SOL    HW198088   7.722   1.358   2.820  0.7079  1.7493  1.1603
31903SOL    HW298089   7.819   1.442   2.740  0.6585  0.2139 -0.5844
31904SOL     OW98090   6.618  10.251   0.807  0.1700  0.3365  0.0342
31904SOL    HW198091   6.698  10.238   0.756  0.9815 -0.7144  1.5100
31904SOL    HW298092   6.636  10.210   0.891 -2.2425 -0.7105  0.1173
31905SOL     OW98093   1.569   1.933   4.648  0.4270  0.2824  0.1437
31905SOL    HW198094   1.655   1.936   4.691  0.8546 -1.1755 -0.5539
31905SOL    HW298095   1.587   1.951   4.556  0.2024 -1.1978 -0.2311
31906SOL     OW98096   5.743   3.188   4.754  0.1611  0.2526  0.0230
31906SOL    HW198097   5.655   3.165   4.723  0.2792 -0.8379  0.4420
31906SOL    HW298098   5.754   3.137   4.834  1.2676  0.1887 -0.1515
31907SOL     OW98099   3.065   4.870   0.941 -0.3767  0.1226  0.1941
31907SOL    HW198100   3.115   4.951   0.950 -0.6287  0.2261  0.7058
31907SOL    HW298101   2.981   4.889   0.982  0.7501 -1.4688  3.6350
31908SOL     OW98102   4.203   7.731   4.834 -0.2564  0.3162  0.0176
31908SOL    HW198103   4.144   7.658   4.817 -0.1844  0.4355 -0.7997
31908SOL    HW298104   4.276   7.693   4.883  0.1883 -0.3277 -1.1242
31909SOL     OW98105   4.910   1.187   8.378  0.3206  0.4323 -0.4096
31909SOL    HW198106   4.935   1.256   8.440 -1.1142 -1.1183  2.0648
31909SOL    HW298107   4.965   1.113   8.401  0.8397  0.2370 -2.0994
31910SOL     OW98108   3.417   4.717   8.879  0.4714 -0.1108  0.8513
31910SOL    HW198109   3.470   4.657   8.933 -2.2915 -2.2696  1.3728
31910SOL    HW298110   3.362   4.764   8.941 -0.0898  0.1554  0.1684
31911SOL     OW98111   4.988   9.873   8.784  0.1390  0.5799 -0.2741
31911SOL    HW198112   4.900   9.910   8.776 -0.2720 -0.2583  0.1491
31911SOL    HW298113   4.997   9.815   8.708  0.9447  1.8333 -1.1732
31912SOL     OW98114   0.783   9.658   5.717  0.1818  0.3031  0.3898
31912SOL    HW198115   0.712   9.618   5.768 -0.1087  0.0821 -0.1783
31912SOL    HW298116   0.859   9.602   5.734 -0.2586 -0.5997 -0.5126
31913SOL     OW98117   7.044   3.224   8.309 -0.1891 -0.0264  0.1168
31913SOL    HW198118   7.052   3.133   8.336 -2.0580 -0.4528 -0.6198
31913SOL    HW298119   6.965   3.256   8.352 -0.0780  0.9686 -0.3748
31914SOL     OW98120   9.694  10.754   3.894 -0.1089  0.7221 -0.0172
31914SOL    HW198121   9.716  10.834   3.846  0.1955  0.8835  0.3837
31914SOL    HW298122   9.772  10.736   3.947 -1.0719  1.5870  1.8147
31915SOL     OW98123  10.224   9.896   9.709 -0.0664  0.3746  0.0899
31915SOL    HW198124  10.202   9.809   9.676  3.3513 -0.4677 -0.3769
31915SOL    HW298125  10.205   9.956   9.637 -0.1573 -0.3532 -0.4905
31916SOL     OW98126   9.773   7.625   9.617  0.1130  0.0395  0.0340
31916SOL    HW198127   9.846   7.609   9.558  1.5493 -1.8943  2.1440
31916SOL    HW298128   9.807   7.689   9.680  0.3703 -1.4682  1.5069
31917SOL     OW98129   6.056   0.478   1.246 -0.0573  0.0702 -0.0368
31917SOL    HW198130   6.053   0.384   1.263  0.7965  0.0805  0.2366
31917SOL    HW298131   6.104   0.514   1.321  1.4388  0.4417 -1.1155
31918SOL     OW98132  10.405   1.334   0.904 -0.3040  0.0316 -0.2541
31918SOL    HW198133  10.327   1.387   0.917 -1.0164 -0.6288 -1.5990
31918SOL    HW298134  10.406   1.273   0.978 -1.4886 -0.4373 -0.6041
31919SOL     OW98135   6.921   4.648   0.408  0.1598  0.1168  0.4025
31919SOL    HW198136   7.012   4.652   0.439  0.0556 -1.9554  1.1580
31919SOL    HW298137   6.874   4.710   0.464  0.7794 -0.2954  1.4111
31920SOL     OW98138  10.080   9.616   3.608  0.0208 -0.0102  0.5615
31920SOL    HW198139  10.155   9.652   3.655 -0.1715  2.3738 -0.7544
31920SOL    HW298140  10.109   9.609   3.517 -0.8098 -0.6886  0.3313
31921SOL     OW98141   6.757   8.588   6.267 -0.5491  0.2496  0.5806
31921SOL    HW198142   6.763   8.683   6.274  0.0067  0.3505 -1.0108
31921SOL    HW298143   6.842   8.556   6.299 -0.5828  0.2984  0.7219
31922SOL     OW98144   7.290   1.816   3.808 -0.1217  0.0958 -0.7105
31922SOL    HW198145   7.365   1.851   3.760 -1.0372  0.6958 -1.7391
31922SOL    HW298146   7.249   1.755   3.747 -1.5648  1.2008 -0.8705
31923SOL     OW98147  10.718   4.757   2.041  0.5026 -0.4930 -0.0048
31923SOL    HW198148  10.673   4.841   2.036 -1.5800 -1.4584  1.1530
31923SOL    HW298149  10.791   4.765   1.979  0.9115  2.4372  0.6895
31924SOL     OW98150   9.776   1.027   3.736  0.4946 -0.2127 -0.1118
31924SOL    HW198151   9.702   0.965   3.736  0.6676 -0.4658 -2.0526
31924SOL    HW298152   9.853   0.972   3.727  0.7573  0.1990 -0.4042
31925SOL     OW98153   3.037   6.844  10.640 -0.3569 -0.2543  0.1288
31925SOL    HW198154   3.106   6.910  10.631 -0.8089 -0.0582 -3.3843
31925SOL    HW298155   2.957   6.895  10.653 -0.2214 -0.3732  1.6096
31926SOL     OW98156   6.907   2.250   6.781 -0.3558 -0.8176 -0.0227
31926SOL    HW198157   6.827   2.294   6.810 -0.7494 -1.5923  0.0725
31926SOL    HW298158   6.891   2.227   6.690  0.8988  1.6571 -0.9756
31927SOL     OW98159   3.793   7.794   7.619 -0.4605  0.2875  0.1315
31927SOL    HW198160   3.772   7.768   7.529  0.5017  1.0989 -0.3427
31927SOL    HW298161   3.804   7.711   7.665  1.2279 -0.1863 -1.0312
31928SOL     OW98162   6.260   1.595  10.778  0.1829 -0.1146 -0.3896
31928SOL    HW198163   6.336   1.653  10.772  1.2986 -1.2342  1.7494
31928SOL    HW298164   6.193   1.648  10.820  0.4996  0.2446 -0.3279
31929SOL     OW98165   4.725   2.234   1.824 -0.2195  0.3867  0.4252
31929SOL    HW198166   4.691   2.209   1.737  0.4219  1.3695 -0.1209
31929SOL    HW298167   4.699   2.161   1.881 -1.0772 -0.0476 -0.4854
31930SOL     OW98168   1.659   1.479   0.876 -0.1706  0.1396 -0.4677
31930SOL    HW198169   1.599   1.530   0.820 -0.7802 -0.9688 -0.8548
31930SOL    HW298170   1.744   1.489   0.834 -0.1625  1.2994 -0.2156
31931SOL     OW98171   9.143   3.818   2.916  0.2532 -0.3918  0.1532
31931SOL    HW198172   9.203   3.886   2.944 -0.7044  0.6377 -0.1865
31931SOL    HW298173   9.143   3.754   2.987  3.4977 -1.6629 -0.8322
31932SOL     OW98174  10.783   5.083   1.767  0.1415  0.3396 -0.1053
31932SOL    HW198175  10.867   5.039   1.753 -0.1155 -0.3681  0.5316
31932SOL    HW298176  10.731   5.059   1.690  0.8212  1.5469 -0.9712
31933SOL     OW98177   5.209   4.869   4.047 -0.7128  0.4254  0.4705
31933SOL    HW198178   5.128   4.906   4.082 -0.2857  1.3034  0.5846
31933SOL    HW298179   5.278   4.909   4.101 -0.0233  1.8866 -1.3765
31934SOL     OW98180   6.408   3.622   9.243  0.2825 -0.0766  0.2484
31934SOL    HW198181   6.333   3.673   9.211  0.9970  1.4006  0.8283
31934SOL    HW298182   6.372   3.567   9.312 -0.4999 -0.3516 -0.3523
31935SOL     OW98183   0.342   1.453   6.392 -0.3083 -0.1783  0.0791
31935SOL    HW198184   0.286   1.518   6.349 -0.1470 -0.0472  0.0634
31935SOL    HW298185   0.431   1.482   6.371 -0.1938  0.5877  1.5293
31936SOL     OW98186   5.534   4.157   5.440  0.1148  0.2552 -0.2547
31936SOL    HW198187   5.587   4.103   5.381 -1.7417  0.1530 -1.9249
31936SOL    HW298188   5.484   4.093   5.492  0.0385  0.3548 -0.2049
31937SOL     OW98189   2.500   4.626   2.852 -0.6698 -0.6137  0.3285
31937SOL    HW198190   2.560   4.695   2.825 -3.7277  1.7354 -1.0412
31937SOL    HW298191   2.512   4.620   2.947  1.4994 -0.1282  0.1426
31938SOL     OW98192   8.774   6.371   8.722  0.4647  0.1584  0.3920
31938SOL    HW198193   8.690   6.386   8.764  0.2019 -0.8440  0.2611
31938SOL    HW298194   8.817   6.457   8.721 -0.9679  0.9077 -0.4392
31939SOL     OW98195   9.481   4.618   8.275 -0.8250 -0.1699  0.2309
31939SOL    HW198196   9.556   4.629   8.217 -0.2309 -1.0625  0.8039
31939SOL    HW298197   9.429   4.696   8.261  0.2415  0.5031 -0.1448
31940SOL     OW98198   5.482   5.554   8.440 -0.5227 -0.1664  0.4171
31940SOL    HW198199   5.507   5.592   8.524  3.0226  1.7426 -1.2836
31940SOL    HW298200   5.534   5.475   8.433  0.4129  0.5008 -0.5464
31941SOL     OW98201   7.586   7.804   5.218  0.0110 -0.8069 -0.5679
31941SOL    HW198202   7.604   7.822   5.311  0.9828 -1.0223 -0.7043
31941SOL    HW298203   7.670   7.776   5.182 -0.2808 -0.3901 -1.6037
31942SOL     OW98204   8.559   4.959   0.178  0.0213  0.3124 -0.3038
31942SOL    HW198205   8.590   5.025   0.116  0.8369  0.5110  0.2970
31942SOL    HW298206   8.592   4.876   0.143 -0.6727  0.2603 -0.8511
31943SOL     OW98207   8.402   6.273   4.890 -0.4549 -0.0216  0.5710
31943SOL    HW198208   8.350   6.300   4.965  0.6448  1.4240  0.8402
31943SOL    HW298209   8.493   6.283   4.917 -0.0257 -0.0060 -0.7649
31944SOL     OW98210   2.297   6.470   8.305 -0.0580  0.0518  0.2969
31944SOL    HW198211   2.320   6.559   8.333 -1.4633  0.2516  0.9317
31944SOL    HW298212   2.260   6.482   8.218  1.2689 -0.1498 -0.3226
31945SOL     OW98213   3.811   7.266   5.604  0.0027  0.7359  0.0803
31945SOL    HW198214   3.880   7.263   5.537  0.5366  0.8460  0.6146
31945SOL    HW298215   3.847   7.323   5.672 -1.0851  1.7197 -0.1436
31946SOL     OW98216   0.458   7.476   4.859 -0.0691  0.2573 -0.0636
31946SOL    HW198217   0.364   7.464   4.844 -0.6078  2.1558  1.4748
31946SOL    HW298218   0.500   7.424   4.790 -2.1723 -2.7385  0.7294
31947SOL     OW98219  10.379   1.218   0.226  0.4281 -0.0781 -0.3008
31947SOL    HW198220  10.408   1.203   0.316 -0.6146  0.9864  0.2447
31947SOL    HW298221  10.422   1.150   0.175  1.3790 -0.4372  0.9376
31948SOL     OW98222   3.457   3.061   0.232  0.4559  0.1363  0.0290
31948SOL    HW198223   3.467   2.966   0.244 -0.0714  0.0793  0.0369
31948SOL    HW298224   3.546   3.095   0.238  0.7790 -0.4732 -1.0364
31949SOL     OW98225   5.934   2.798   7.675 -0.1991 -0.1565  0.4417
31949SOL    HW198226   5.970   2.867   7.730 -0.3818 -0.4291  0.9046
31949SOL    HW298227   5.995   2.726   7.683  0.1477  0.0439 -0.2744
31950SOL     OW98228   0.903   4.124   2.875 -0.0165 -0.1286 -0.2910
31950SOL    HW198229   0.818   4.146   2.912  0.2411 -0.0765  0.2899
31950SOL    HW298230   0.884   4.092   2.787 -0.6200  0.0105 -0.2151
31951SOL     OW98231   7.361   3.337  10.284 -0.4400 -0.3376  0.6217
31951SOL    HW198232   7.326   3.307  10.368 -2.0750 -1.6532 -0.4705
31951SOL    HW298233   7.327   3.426  10.275  0.3249  0.0800  1.6328
31952SOL     OW98234   2.800   4.901   1.001 -0.5986  0.6683  0.5434
31952SOL    HW198235   2.726   4.961   0.987 -1.7643 -0.6811  0.7225
31952SOL    HW298236   2.778   4.855   1.082 -1.2923 -2.2062 -1.1550
31953SOL     OW98237   4.756   6.238   0.424  0.1581 -0.5397  0.2545
31953SOL    HW198238   4.721   6.197   0.503  0.8095 -1.7109 -0.0344
31953SOL    HW298239   4.714   6.324   0.420 -0.1539 -0.6049  1.6748
31954SOL     OW98240   1.250   0.622   4.600  0.1660 -0.0360  0.2704
31954SOL    HW198241   1.279   0.586   4.516  0.2156 -1.6402  0.9443
31954SOL    HW298242   1.291   0.708   4.604 -0.0038  0.1524 -1.4354
31955SOL     OW98243   6.068   5.193   2.090 -0.1708 -0.3353  0.4741
31955SOL    HW198244   5.999   5.192   2.023 -0.6229 -0.6794  0.9371
31955SOL    HW298245   6.075   5.102   2.117  0.3601 -0.2730  0.5430
31956SOL     OW98246   9.778  10.552   9.073 -0.2185 -0.5361  0.0845
31956SOL    HW198247   9.828  10.615   9.126  0.3632  0.9604 -2.0915
31956SOL    HW298248   9.804  10.466   9.107  2.0072  0.2832  0.6468
31957SOL     OW98249   0.736   6.665   8.793  0.3998 -0.0223 -0.3654
31957SOL    HW198250   0.658   6.697   8.839 -0.0496 -1.1962 -0.2674
31957SOL    HW298251   0.738   6.715   8.712  1.0483  1.8782  0.7612
31958SOL     OW98252   4.236   3.799   9.543  0.5088 -0.6140 -0.2405
31958SOL    HW198253   4.274   3.732   9.600  4.2510  1.1373 -0.3859
31958SOL    HW298254   4.271   3.777   9.456  0.4062  0.5543 -0.5856
31959SOL     OW98255   9.030   1.001   7.323 -0.2412 -0.1136  0.1314
31959SOL    HW198256   9.016   1.094   7.340 -0.5334 -0.2033  0.3904
31959SOL    HW298257   8.962   0.957   7.373 -0.0902 -0.4699  0.0273
31960SOL     OW98258   0.919   6.600   6.282 -0.4115 -1.0091  0.2783
31960SOL    HW198259   0.970   6.628   6.358  0.8219 -1.0039 -0.5234
31960SOL    HW298260   0.952   6.654   6.210 -1.2981 -1.2775 -0.3467
31961SOL     OW98261   9.284   7.154   1.959 -0.5932 -0.5787  0.4211
31961SOL    HW198262   9.267   7.067   1.994  1.4193 -0.4326  1.9413
31961SOL    HW298263   9.247   7.214   2.024  1.6288 -0.3197  1.5333
31962SOL     OW98264   5.002   3.958   2.048  0.4676 -0.8294 -0.2984
31962SOL    HW198265   5.035   3.868   2.052  1.3637 -0.4786  0.8858
31962SOL    HW298266   4.911   3.949   2.021  0.1073 -2.2109  1.1972
31963SOL     OW98267   8.668  10.092  10.311 -0.3002  0.5251  0.2864
31963SOL    HW198268   8.622  10.034  10.250  1.1232  1.3957 -1.7152
31963SOL    HW298269   8.667  10.178  10.268  0.1593  1.3381  1.8248
31964SOL     OW98270   4.064   5.411   0.887  0.5716 -0.2518 -0.2429
31964SOL    HW198271   3.995   5.466   0.921 -0.2899 -0.1941 -1.9566
31964SOL    HW298272   4.092   5.454   0.806  0.9320 -1.5265 -0.8257
31965SOL     OW98273   6.737   1.708   9.395 -0.1861 -0.2478  0.2691
31965SOL    HW198274   6.655   1.747   9.425 -0.7155 -2.2966  1.7176
31965SOL    HW298275   6.711   1.633   9.342  0.7299 -0.9166  0.7354
31966SOL     OW98276   8.228   5.044   5.847  0.5064 -0.2303  0.0788
31966SOL    HW198277   8.290   4.972   5.857  0.2888 -0.2285  1.8008
31966SOL    HW298278   8.155   5.006   5.798  0.4318 -1.1851  0.8896
31967SOL     OW98279   9.977   7.390   3.211  0.2056  0.7972 -0.2251
31967SOL    HW198280   9.979   7.338   3.131  0.3112 -2.3621  1.6725
31967SOL    HW298281   9.884   7.402   3.229  0.1430 -0.4075  0.3029
31968SOL     OW98282   2.956   6.374   1.409  0.3973 -0.8168  0.2609
31968SOL    HW198283   2.894   6.414   1.469 -0.4107  2.0507 -2.2313
31968SOL    HW298284   3.025   6.339   1.466 -1.3423 -0.2538  2.8974
31969SOL     OW98285   8.148   2.922   4.526 -0.1890 -0.3166  0.1539
31969SOL    HW198286   8.168   2.907   4.434  1.6570 -0.5516  0.5435
31969SOL    HW298287   8.132   3.017   4.532  2.1070  0.1553 -0.0715
31970SOL     OW98288   7.008   7.873   1.090 -0.4862  0.1119 -0.1490
31970SOL    HW198289   6.940   7.941   1.096 -0.7528 -0.0815 -0.9355
31970SOL    HW298290   7.080   7.915   1.044  0.0981  0.4329  1.0057
31971SOL     OW98291   2.451   4.666   8.226  0.3641 -0.4675  0.2883
31971SOL    HW198292   2.502   4.592   8.259  1.2010  0.3650  0.9428
31971SOL    HW298293   2.513   4.715   8.171 -0.4298 -0.7177 -0.8485
31972SOL     OW98294   0.424   5.313   4.316  0.2626 -0.0982 -0.7724
31972SOL    HW198295   0.344   5.266   4.336 -1.5772  2.6148 -1.2032
31972SOL    HW298296   0.445   5.287   4.226  0.0670 -1.0471 -0.5583
31973SOL     OW98297   0.740   7.355   9.409 -0.0984  0.4900 -0.3335
31973SOL    HW198298   0.737   7.261   9.429  0.9068  0.3724 -0.6563
31973SOL    HW298299   0.805   7.362   9.339 -2.1833  1.1091 -2.3099
31974SOL     OW98300   4.692   0.868   3.029 -0.5771 -0.0283 -0.4768
31974SOL    HW198301   4.669   0.781   3.061 -0.1235  0.2343  0.5867
31974SOL    HW298302   4.744   0.907   3.099  2.1339 -0.1454 -2.2648
31975SOL     OW98303   7.957   9.662   0.166  0.2042  0.0795  0.1682
31975SOL    HW198304   7.877   9.712   0.182 -0.3059 -0.8951  0.7518
31975SOL    HW298305   7.927   9.582   0.124  0.5848 -1.2907  2.3401
31976SOL     OW98306   9.380   4.991   0.602 -0.0713 -0.0972 -0.5227
31976SOL    HW198307   9.294   4.951   0.614 -0.5088  0.3746 -1.9175
31976SOL    HW298308   9.404   5.022   0.690 -1.3217 -0.2155 -0.1180
31977SOL     OW98309   8.135   3.320   1.423  0.4516 -0.8910 -0.6304
31977SOL    HW198310   8.106   3.231   1.442 -2.2459  0.0686  0.1730
31977SOL    HW298311   8.058   3.374   1.439  2.2674  1.7249 -0.1762
31978SOL     OW98312   6.870   9.921  10.051 -0.1172  0.6615  0.1392
31978SOL    HW198313   6.784   9.907  10.010  0.0469  1.8186 -0.6378
31978SOL    HW298314   6.866  10.010  10.085  0.6949  0.6327  0.3121
31979SOL     OW98315   4.921   2.884   2.601 -0.2484  0.3325  0.2327
31979SOL    HW198316   4.975   2.836   2.538  0.8156 -0.6451  1.7920
31979SOL    HW298317   4.832   2.877   2.567  0.4172  0.7769 -1.6896
31980SOL     OW98318   4.552   5.136   7.034 -0.4622 -0.0749 -0.3424
31980SOL    HW198319   4.495   5.195   6.985  0.8838  1.0875 -0.5884
31980SOL    HW298320   4.512   5.130   7.121 -1.1653  0.4054 -0.6247
31981SOL     OW98321   0.809   2.402   2.808 -1.3025  0.0976  0.7091
31981SOL    HW198322   0.740   2.399   2.874 -0.1533 -1.0780  1.9248
31981SOL    HW298323   0.891   2.403   2.858 -0.3180 -2.5467 -0.6289
31982SOL     OW98324   6.503   1.582   6.939 -0.6493 -0.1117  0.6656
31982SOL    HW198325   6.544   1.654   6.987 -1.4874 -0.8610  2.6019
31982SOL    HW298326   6.569   1.513   6.939  0.6694  0.9630 -2.3188
31983SOL     OW98327   8.970   9.355   9.032  0.4053  0.1965  0.0452
31983SOL    HW198328   9.019   9.431   9.064  0.3944  0.1704  0.1266
31983SOL    HW298329   8.953   9.374   8.940  0.5678  0.2065  0.0171
31984SOL     OW98330   9.996   3.772   6.838 -0.2045 -0.4619  0.0257
31984SOL    HW198331   9.974   3.853   6.792  0.5047  0.0980  0.6587
31984SOL    HW298332  10.002   3.796   6.930  0.1741 -1.1972  0.2061
31985SOL     OW98333   9.265   8.446   1.116 -0.4684 -0.1394 -0.3992
31985SOL    HW198334   9.284   8.530   1.074 -1.5392  0.8056  0.8898
31985SOL    HW298335   9.201   8.404   1.058 -1.5148  0.8973 -0.0385
31986SOL     OW98336   8.066   6.167   8.814 -0.5536  0.4540  0.3131
31986SOL    HW198337   8.047   6.231   8.746 -2.2321  1.2535  1.4839
31986SOL    HW298338   8.147   6.198   8.854  0.3817  0.0488 -1.1676
31987SOL     OW98339   9.960   2.565   4.709  0.1795 -0.4488  0.3321
31987SOL    HW198340  10.050   2.560   4.677  1.1458  1.5203  2.5081
31987SOL    HW298341   9.935   2.474   4.725  0.7418 -1.2867 -2.7465
31988SOL     OW98342   7.103   9.372  10.660  0.2661  0.2028  0.0537
31988SOL    HW198343   7.145   9.377  10.573  1.1872 -0.1566  0.4640
31988SOL    HW298344   7.169   9.331  10.716 -0.4476  0.1270  0.8553
31989SOL     OW98345   5.685   2.368   6.288 -0.0865 -0.6257 -0.0653
31989SOL    HW198346   5.627   2.311   6.338  0.9490 -1.4387  0.2528
31989SOL    HW298347   5.720   2.312   6.218  2.7781 -1.2014  1.6330
31990SOL     OW98348   1.475   1.922   1.443  0.2573  0.1651  0.1149
31990SOL    HW198349   1.417   1.957   1.512 -0.7696  1.2074 -1.2231
31990SOL    HW298350   1.418   1.865   1.391  0.9181 -0.2576 -0.1564
31991SOL     OW98351   2.279   9.775   8.898  0.1889  0.8304  0.2411
31991SOL    HW198352   2.270   9.761   8.804  0.4633 -0.6722  0.4098
31991SOL    HW298353   2.235   9.700   8.938  1.6304  0.4855  1.2678
31992SOL     OW98354   1.769   9.977  10.096  0.1572  0.5565  0.2128
31992SOL    HW198355   1.714  10.047  10.131 -1.9701 -0.5233 -0.7344
31992SOL    HW298356   1.758   9.905  10.158 -0.2216  0.0462 -0.4350
31993SOL     OW98357   8.232   5.399   8.231  0.4997 -0.2909  0.0300
31993SOL    HW198358   8.200   5.377   8.318  0.6035  0.8899  0.3832
31993SOL    HW298359   8.166   5.364   8.171 -0.6779  0.7905  0.6756
31994SOL     OW98360   7.089   3.892   8.130  0.4439  0.0071  0.3263
31994SOL    HW198361   7.026   3.897   8.202  0.5682 -2.5147  0.7301
31994SOL    HW298362   7.058   3.818   8.077  1.5406  0.4646 -1.0039
31995SOL     OW98363   1.927   6.182   7.324 -0.0120  0.0289 -0.4695
31995SOL    HW198364   1.949   6.092   7.348 -0.8699 -0.2405 -0.6767
31995SOL    HW298365   1.855   6.174   7.261 -1.2293  0.8944  0.7410
31996SOL     OW98366   5.102  10.707   8.108 -0.1820 -0.2161 -0.0406
31996SOL    HW198367   5.164  10.652   8.157  1.4209  0.4762 -1.1751
31996SOL    HW298368   5.143  10.794   8.108 -0.5152 -0.0109 -1.8528
31997SOL     OW98369  10.799   6.596   5.010 -0.5968 -0.5090 -0.4231
31997SOL    HW198370  10.816   6.570   4.920 -1.3501 -2.1233 -0.1261
31997SOL    HW298371  10.885   6.595   5.052 -0.3152 -0.2813 -0.9750
31998SOL     OW98372   4.678   1.887   7.793 -0.3341 -0.0236  0.1732
31998SOL    HW198373   4.618   1.812   7.794 -0.7188  0.2199  2.8675
31998SOL    HW298374   4.677   1.920   7.883 -0.0231  3.1400 -0.8706
31999SOL     OW98375   0.875   3.984   2.651  0.0231  0.0920 -0.1496
31999SOL    HW198376   0.950   3.926   2.649  0.4246  0.5532  0.7622
31999SOL    HW298377   0.803   3.932   2.616  0.6537 -0.5225 -0.5521
32000SOL     OW98378  10.509   2.477   5.771 -0.4325  0.2546 -0.1091
32000SOL    HW198379  10.542   2.492   5.682  0.5362  0.5254  0.2842
32000SOL    HW298380  10.419   2.445   5.758  0.0890 -0.8284 -1.2202
32001SOL     OW98381   6.675   0.341   5.763 -0.0819  0.5289 -0.6720
32001SOL    HW198382   6.705   0.354   5.673  2.9413  0.7416  0.2383
32001SOL    HW298383   6.649   0.428   5.792 -1.1140  0.4526 -1.3299
32002SOL     OW98384   6.131   3.107   4.789  0.1910  0.3495  0.2745
32002SOL    HW198385   6.079   3.027   4.796 -0.5962  0.6961 -1.2152
32002SOL    HW298386   6.119   3.135   4.699  2.6733  0.6602 -0.0140
32003SOL     OW98387  10.792   8.477  10.006 -0.4338 -0.0251  0.0221
32003SOL    HW198388  10.724   8.467   9.940 -0.2472 -0.8012 -0.0658
32003SOL    HW298389  10.795   8.393  10.052  1.5098 -0.5885 -1.0039
32004SOL     OW98390  10.548   0.115  10.073  0.4054 -0.1180 -0.2769
32004SOL    HW198391  10.501   0.076   9.998  1.2855 -0.7526 -0.5171
32004SOL    HW298392  10.640   0.098  10.054  0.6280 -0.5885  1.1151
32005SOL     OW98393   9.545   5.367   9.102 -0.1391 -0.5153  0.4757
32005SOL    HW198394   9.606   5.436   9.078  0.6431 -1.5438 -0.6221
32005SOL    HW298395   9.503   5.398   9.182 -0.8619  1.8641 -0.7424
32006SOL     OW98396   9.097   6.493   0.461  0.5142 -0.3786  0.5082
32006SOL    HW198397   9.138   6.462   0.380 -1.6214  0.6086 -1.0353
32006SOL    HW298398   9.160   6.555   0.498 -0.2815  2.8879 -2.9912
32007SOL     OW98399   2.365   4.262   0.053 -0.1131 -0.2675  0.2229
32007SOL    HW198400   2.380   4.267   0.147 -0.6860 -2.0939  0.4453
32007SOL    HW298401   2.278   4.300   0.040  0.1546  0.4071  0.3504
32008SOL     OW98402   9.847   5.736   5.916 -0.0582 -0.0244  0.4946
32008SOL    HW198403   9.849   5.706   6.007 -1.3001  0.0677  0.5731
32008SOL    HW298404   9.756   5.725   5.889  0.2553  0.0925 -0.6990
32009SOL     OW98405   6.093   3.272   8.014 -1.3255  0.4538  0.5141
32009SOL    HW198406   6.049   3.210   7.956  0.8260 -0.1246 -0.5666
32009SOL    HW298407   6.172   3.227   8.044 -0.2049  2.2953  0.4907
32010SOL     OW98408   9.357  10.090   0.876 -0.1710 -0.0622  0.0723
32010SOL    HW198409   9.401  10.010   0.907  0.2009 -0.6447 -1.8244
32010SOL    HW298410   9.335  10.138   0.956  4.2296  0.4661  1.2088
32011SOL     OW98411   9.353   9.904   4.008 -0.0979 -0.4661  0.2626
32011SOL    HW198412   9.415   9.932   4.076  0.3865  1.1090 -0.7691
32011SOL    HW298413   9.291   9.977   4.002 -0.8370 -1.1213 -0.1635
32012SOL     OW98414   8.465   2.365   0.485 -0.0499  0.1661 -0.4004
32012SOL    HW198415   8.557   2.380   0.463 -0.3343  0.5989 -1.3404
32012SOL    HW298416   8.418   2.435   0.440 -0.7828  0.3649  0.6505
32013SOL     OW98417   8.579   4.418   0.252 -0.3086  0.0480  0.3158
32013SOL    HW198418   8.534   4.338   0.223 -0.0353 -0.1746  0.4960
32013SOL    HW298419   8.510   4.471   0.292 -0.7788  0.5626 -1.1135
32014SOL     OW98420   1.042   2.295   2.550  0.2861 -0.6265 -0.7852
32014SOL    HW198421   1.052   2.389   2.534  0.7817 -0.6806 -0.8219
32014SOL    HW298422   1.013   2.288   2.641  2.7561 -0.5279  0.0801
32015SOL     OW98423   9.599   6.949   8.180  0.2764  0.5615  0.2713
32015SOL    HW198424   9.611   7.041   8.155  0.2343  0.3925 -0.3799
32015SOL    HW298425   9.521   6.949   8.236  0.3348  0.9345  0.3534
32016SOL     OW98426   4.694   4.340   1.952 -0.3458 -0.0853 -1.0693
32016SOL    HW198427   4.683   4.289   2.032 -1.8946  0.1273 -1.1131
32016SOL    HW298428   4.762   4.404   1.973 -1.0780  0.2892  0.2639
32017SOL     OW98429   7.506   2.068   2.593 -0.4813  0.8000  0.2393
32017SOL    HW198430   7.544   1.987   2.561 -1.3683  0.4768 -0.0106
32017SOL    HW298431   7.576   2.109   2.644 -0.2949 -0.5224  1.0801
32018SOL     OW98432   5.094   4.525   1.357  0.3204 -0.3260 -0.4124
32018SOL    HW198433   5.047   4.455   1.312 -0.9380  0.0873  0.2100
32018SOL    HW298434   5.062   4.521   1.447  1.6468 -0.1534  0.0941
32019SOL     OW98435   5.690   6.367   6.149  0.0617 -0.1095  0.1479
32019SOL    HW198436   5.708   6.274   6.161  1.3012 -0.0661 -1.0532
32019SOL    HW298437   5.684   6.402   6.238 -1.1482 -1.4400  0.6196
32020SOL     OW98438   9.121   6.510   7.823  0.2624  0.2764  0.4896
32020SOL    HW198439   9.158   6.595   7.799 -0.3069  0.6118  0.7814
32020SOL    HW298440   9.028   6.518   7.803  0.1889 -0.2515  0.5988
32021SOL     OW98441   9.599   1.413   8.233  0.0805 -0.2164  0.2196
32021SOL    HW198442   9.615   1.405   8.327 -0.0260  0.0968  0.2645
32021SOL    HW298443   9.514   1.457   8.226  0.4798  0.5270 -0.0219
32022SOL     OW98444   3.648   2.275   9.443  0.5263 -0.1558 -0.1132
32022SOL    HW198445   3.654   2.297   9.536  0.6316 -0.9992  0.0791
32022SOL    HW298446   3.630   2.359   9.400  0.2024  0.1954  0.6951
32023SOL     OW98447   7.216   2.077   0.825  0.5672 -0.2048  0.2361
32023SOL    HW198448   7.205   2.156   0.771 -2.4416  0.0158  1.0054
32023SOL    HW298449   7.240   2.110   0.911  1.5848 -0.3251  0.0156
32024SOL     OW98450  10.550   0.314   9.315 -0.0379  0.8879 -0.0410
32024SOL    HW198451  10.582   0.241   9.263 -0.3248  0.5527  0.2524
32024SOL    HW298452  10.628   0.346   9.362  0.0641  0.6955 -0.0772
32025SOL     OW98453   5.789   1.298   4.372 -0.0648 -0.1176  0.4290
32025SOL    HW198454   5.755   1.238   4.306  0.4271 -0.7607  0.7595
32025SOL    HW298455   5.727   1.372   4.370  0.2521  0.1395 -1.1250
32026SOL     OW98456   6.764   8.228   8.868  0.2848 -0.1049 -0.1441
32026SOL    HW198457   6.840   8.172   8.887 -0.1461 -1.4254 -2.1018
32026SOL    HW298458   6.747   8.215   8.775 -1.6985  0.9963  0.0182
32027SOL     OW98459   0.978   1.037   2.871  0.1847 -0.0710 -0.3865
32027SOL    HW198460   0.972   0.951   2.913  0.4731 -1.0475 -2.2232
32027SOL    HW298461   0.891   1.075   2.883  0.3426 -0.1446  1.3203
32028SOL     OW98462   2.140   2.687   2.803 -0.3991  0.1126 -0.1001
32028SOL    HW198463   2.101   2.635   2.873 -0.0140  0.1176  0.1192
32028SOL    HW298464   2.137   2.777   2.837  2.3399 -0.1757  1.1363
32029SOL     OW98465   7.966   4.110   6.130 -0.6274 -0.2298 -0.1170
32029SOL    HW198466   7.963   4.205   6.132 -1.6070 -0.2300 -0.7439
32029SOL    HW298467   7.941   4.087   6.040  0.4075 -1.0617 -0.2161
32030SOL     OW98468   7.166   4.851   5.528 -0.4040  1.0402 -0.5235
32030SOL    HW198469   7.118   4.768   5.533  1.3380  0.0390  0.4800
32030SOL    HW298470   7.163   4.886   5.617 -0.9394  1.9633 -0.8944
32031SOL     OW98471   0.576   5.212   5.930  0.2069 -0.1577 -0.0765
32031SOL    HW198472   0.562   5.237   5.839 -0.0198 -0.7336 -0.2052
32031SOL    HW298473   0.502   5.250   5.977  0.5544  0.5055 -0.0608
32032SOL     OW98474   8.648   4.102   8.867 -0.4054  0.1948 -0.0160
32032SOL    HW198475   8.680   4.030   8.920 -0.5784  1.1052  1.3633
32032SOL    HW298476   8.571   4.135   8.913 -1.5384  0.0172 -1.6625
32033SOL     OW98477   1.369   1.776   8.457  0.4436 -0.1395  0.3123
32033SOL    HW198478   1.461   1.756   8.441  0.6838  0.5389  0.8193
32033SOL    HW298479   1.350   1.848   8.397 -0.9035 -2.8381 -2.8452
32034SOL     OW98480   8.910   0.911   3.312  0.2938  0.5748  0.0594
32034SOL    HW198481   8.983   0.861   3.275  0.7575  1.5057 -0.3234
32034SOL    HW298482   8.832   0.866   3.280  0.6857 -0.8126  1.0013
32035SOL     OW98483   6.221   0.773   4.467 -0.3134  0.8055 -0.2721
32035SOL    HW198484   6.315   0.791   4.459  0.3508  0.5486  4.3987
32035SOL    HW298485   6.214   0.679   4.455  0.2918  0.6079  0.8520
32036SOL     OW98486   0.234   4.641   9.421  0.1392  0.9948  0.5386
32036SOL    HW198487   0.195   4.703   9.359  1.0713  0.6053 -0.4727
32036SOL    HW298488   0.208   4.555   9.389 -1.9069  0.8349  2.4545
32037SOL     OW98489   0.125   0.455   4.437 -0.3870 -0.1149  0.0262
32037SOL    HW198490   0.087   0.427   4.354 -2.6164  1.2399  0.5126
32037SOL    HW298491   0.060   0.429   4.503  1.4101 -1.3288  1.4188
32038SOL     OW98492   7.267   8.814   7.672  0.6030  0.5244 -0.1826
32038SOL    HW198493   7.317   8.801   7.592 -0.3309  0.7202 -0.8198
32038SOL    HW298494   7.188   8.761   7.660  0.3205  0.7785  0.4869
32039SOL     OW98495  10.481   8.771   4.310  0.0513  0.2076  0.2585
32039SOL    HW198496  10.437   8.686   4.300 -0.1764  0.2806  0.6132
32039SOL    HW298497  10.474   8.791   4.403 -2.2419  1.8426 -0.1700
32040SOL     OW98498   2.647   4.260   5.072  0.3665 -0.7292 -0.2033
32040SOL    HW198499   2.572   4.302   5.113  0.6572  0.6811 -1.0625
32040SOL    HW298500   2.714   4.328   5.069  0.4753 -0.8474 -2.6674
32041SOL     OW98501   6.127   7.305   2.481  0.1361  0.1362 -0.7715
32041SOL    HW198502   6.033   7.298   2.494  0.1638 -0.1345 -0.6923
32041SOL    HW298503   6.144   7.399   2.475  0.1868  0.3587  1.7321
32042SOL     OW98504   9.109   9.864   2.335  0.6757 -0.3251 -0.0035
32042SOL    HW198505   9.037   9.901   2.284  1.0050 -0.6238 -0.6977
32042SOL    HW298506   9.067   9.796   2.389  0.3772 -0.2400 -0.1250
32043SOL     OW98507   6.834   1.147   5.669  0.0344 -0.2490  0.2926
32043SOL    HW198508   6.862   1.135   5.759 -1.4900  0.0178  0.8317
32043SOL    HW298509   6.867   1.234   5.645 -0.1365 -0.0280  0.8347
32044SOL     OW98510   6.933   2.949   1.630 -0.0213  0.4489 -0.0544
32044SOL    HW198511   6.936   2.902   1.714 -1.1456 -1.7876 -1.1927
32044SOL    HW298512   6.859   2.911   1.583  0.2275  2.0424 -1.8861
32045SOL     OW98513   1.376   6.393   8.168 -0.1095 -0.6267  0.2484
32045SOL    HW198514   1.320   6.470   8.162  1.4288  0.6031  0.8533
32045SOL    HW298515   1.376   6.356   8.080 -0.8006  0.1362 -0.0845
32046SOL     OW98516   3.995   3.039   9.737  0.1461 -0.3563 -0.7671
32046SOL    HW198517   3.941   2.999   9.806  0.9849 -0.6563 -0.2800
32046SOL    HW298518   3.972   2.989   9.658 -0.1281 -0.6253 -0.5220
32047SOL     OW98519   0.642   4.233   9.236  0.0720  0.0438 -0.0602
32047SOL    HW198520   0.560   4.250   9.283  1.2292  0.0502  2.0331
32047SOL    HW298521   0.657   4.313   9.185 -1.4098 -0.1231 -0.8249
32048SOL     OW98522  10.653   2.413   6.689 -0.4628 -0.1536  0.2555
32048SOL    HW198523  10.726   2.434   6.630 -0.8440 -0.9857 -0.5394
32048SOL    HW298524  10.680   2.449   6.773 -0.0550  1.3560 -0.4916
32049SOL     OW98525  10.625   5.770   6.362  0.5413 -0.2094 -0.1670
32049SOL    HW198526  10.626   5.733   6.450 -0.6937  1.1259  0.4492
32049SOL    HW298527  10.714   5.799   6.346  0.3419  1.4682  1.5256
32050SOL     OW98528   9.011   3.213   9.721  0.0929 -0.8035  0.4630
32050SOL    HW198529   9.061   3.148   9.672  0.2336 -0.3548  0.0022
32050SOL    HW298530   8.939   3.163   9.760 -0.4386 -1.0663 -0.7949
32051SOL     OW98531   0.250   4.043   9.465 -0.4174  0.2458  0.2445
32051SOL    HW198532   0.237   3.973   9.401  1.6133 -0.6606  0.7540
32051SOL    HW298533   0.167   4.048   9.513 -1.2742 -0.4293 -1.1120
32052SOL     OW98534   7.987   5.067   9.751 -0.2191 -0.4081 -0.3199
32052SOL    HW198535   7.946   5.150   9.777 -0.2791 -1.1169  2.0874
32052SOL    HW298536   8.008   5.024   9.834 -0.0125 -2.7347 -1.5048
32053SOL     OW98537   6.346   0.828   3.617  0.0897 -0.0894 -0.3004
32053SOL    HW198538   6.412   0.896   3.626 -0.2600  0.3151 -0.7686
32053SOL    HW298539   6.383   0.753   3.663 -0.0484  0.7726  1.2887
32054SOL     OW98540   6.841   1.689   4.032  0.5230  0.4581  0.0750
32054SOL    HW198541   6.883   1.679   4.117  1.0532 -0.2841 -0.2638
32054SOL    HW298542   6.910   1.718   3.973 -0.2520  2.8851  0.2781
32055SOL     OW98543   6.835   8.708   2.570 -0.2456 -0.1742  0.3105
32055SOL    HW198544   6.884   8.642   2.619  0.3989  0.2530  0.2578
32055SOL    HW298545   6.895   8.737   2.502  0.0623  1.5308  1.2435
32056SOL     OW98546   8.892   4.458   5.549  0.3713  0.3940  0.5365
32056SOL    HW198547   8.969   4.406   5.571  0.5257 -0.1354 -1.1130
32056SOL    HW298548   8.851   4.478   5.633  0.5909 -2.0037  1.2865
32057SOL     OW98549   7.182   7.280  10.305  0.8167  0.6746  0.0888
32057SOL    HW198550   7.095   7.302  10.339  0.7109 -1.1756  1.1248
32057SOL    HW298551   7.191   7.334  10.226 -0.1027  2.9957  1.4737
32058SOL     OW98552  10.638   4.166   4.240 -0.3092  0.0181 -0.0848
32058SOL    HW198553  10.729   4.138   4.246 -0.1249  0.7136  0.4316
32058SOL    HW298554  10.636   4.226   4.166 -0.6231 -0.9932 -0.9294
32059SOL     OW98555   9.193  10.644   3.322  0.5197 -0.0812  0.9366
32059SOL    HW198556   9.200  10.663   3.228 -0.2627 -1.4012  0.5901
32059SOL    HW298557   9.282  10.620   3.348  0.6634 -0.0964  0.4376
32060SOL     OW98558   1.071   4.579   1.582 -0.5434 -0.0689  0.0892
32060SOL    HW198559   0.982   4.566   1.616  0.0691 -1.9522  1.1045
32060SOL    HW298560   1.115   4.629   1.651 -0.7309  0.6639 -0.3119
32061SOL     OW98561   2.603   1.314   3.802  0.5970 -0.0756 -0.0600
32061SOL    HW198562   2.683   1.283   3.843  0.4966 -0.1619  0.0703
32061SOL    HW298563   2.607   1.410   3.811 -0.8752 -0.1633  2.9631
32062SOL     OW98564   8.652   8.046   6.470 -0.2160  0.3113 -0.0025
32062SOL    HW198565   8.738   8.089   6.472  0.2336 -0.5083  2.2691
32062SOL    HW298566   8.656   7.989   6.394  1.1611  0.5157 -0.1198
32063SOL     OW98567   5.141  10.414   0.440 -0.4264  0.1372  0.1563
32063SOL    HW198568   5.199  10.359   0.492 -1.6328 -0.7116  0.6684
32063SOL    HW298569   5.067  10.432   0.499 -1.3128  0.0604 -0.8995
32064SOL     OW98570   1.898  10.603   7.620  0.4009  0.0049  0.3220
32064SOL    HW198571   1.935  10.689   7.640 -0.5500  0.3959  0.4456
32064SOL    HW298572   1.846  10.617   7.541 -1.3663  0.0224  1.4263
32065SOL     OW98573   7.650   9.592   2.982  0.0373  0.2547  0.1926
32065SOL    HW198574   7.569   9.545   2.964 -0.2004  0.8954 -0.4776
32065SOL    HW298575   7.693   9.600   2.897 -0.2351  1.7630  0.1556
32066SOL     OW98576   8.644   9.222   8.231 -0.0321  0.2959 -0.1244
32066SOL    HW198577   8.658   9.146   8.286 -1.7899  0.6362  0.8608
32066SOL    HW298578   8.708   9.213   8.161  2.0207 -0.3535  1.7382
32067SOL     OW98579   0.667  10.599   4.755  0.1486 -0.0347  0.6685
32067SOL    HW198580   0.659  10.563   4.667 -0.4040 -0.3344  0.8356
32067SOL    HW298581   0.719  10.679   4.744 -0.3895  0.2342 -0.0136
32068SOL     OW98582   7.381   3.711   6.920 -0.2895 -0.8110 -0.4095
32068SOL    HW198583   7.298   3.683   6.958 -0.7329  0.3028 -0.5284
32068SOL    HW298584   7.371   3.805   6.908  1.3188 -0.5085  0.3787
32069SOL     OW98585   5.664   6.179   1.870 -0.1523  0.2156 -0.5894
32069SOL    HW198586   5.738   6.169   1.930 -0.8692 -0.4104  0.2214
32069SOL    HW298587   5.631   6.267   1.887  0.9924  0.8813 -1.6688
32070SOL     OW98588   4.677   7.952   6.906 -0.1231  0.0618  0.1568
32070SOL    HW198589   4.709   8.017   6.844 -0.6463 -0.4086 -0.6242
32070SOL    HW298590   4.638   7.884   6.851 -3.2336  0.9638  1.0496
32071SOL     OW98591   6.330   6.331   0.851  0.3674  0.8022 -0.1835
32071SOL    HW198592   6.299   6.278   0.924 -0.7504 -1.3663 -2.0788
32071SOL    HW298593   6.424   6.314   0.847 -0.1352 -2.3291 -1.5584
32072SOL     OW98594   9.823   5.155   0.505  0.2406  0.2022  0.0646
32072SOL    HW198595   9.839   5.226   0.567 -0.7330 -1.0650  1.8447
32072SOL    HW298596   9.742   5.180   0.461 -0.5170 -0.1219  1.2260
32073SOL     OW98597  10.321   8.983   1.217  0.4910 -0.6729 -0.0219
32073SOL    HW198598  10.314   8.910   1.279 -0.0022 -0.6159 -0.0102
32073SOL    HW298599  10.238   9.030   1.225  0.1349 -1.0556 -1.2156
32074SOL     OW98600   6.705   0.926   6.417  0.2705  0.2203  0.4875
32074SOL    HW198601   6.715   1.021   6.417 -1.1483  0.3862  0.9050
32074SOL    HW298602   6.727   0.899   6.506 -2.8777  0.6131  1.4811
32075SOL     OW98603   4.271   3.343   7.467  0.5513 -0.6040  0.6336
32075SOL    HW198604   4.343   3.393   7.428  0.7750 -1.9258 -0.7727
32075SOL    HW298605   4.192   3.383   7.432  0.7101 -0.8836 -0.0658
32076SOL     OW98606   1.904   7.867   9.660  0.2483  0.0434  0.1319
32076SOL    HW198607   1.886   7.945   9.713  0.8650  0.5211 -0.3417
32076SOL    HW298608   1.837   7.804   9.686  0.1835  0.4734  1.0533
32077SOL     OW98609   4.571   4.439   2.423  0.0756 -0.2310  0.3585
32077SOL    HW198610   4.626   4.515   2.408 -0.4558  0.1150  0.1152
32077SOL    HW298611   4.514   4.465   2.496 -0.8512  0.0172 -0.4427
32078SOL     OW98612  10.073   2.350   9.003  0.0335  0.6269 -0.3321
32078SOL    HW198613  10.125   2.294   8.946  3.6825  2.5730  0.7440
32078SOL    HW298614  10.123   2.354   9.084 -2.3471  1.9874  1.1950
32079SOL     OW98615   3.983   1.048   2.812 -0.1429 -0.5683 -0.3204
32079SOL    HW198616   3.900   1.003   2.822 -0.3220  0.0580  1.3259
32079SOL    HW298617   3.985   1.112   2.883  0.9987  0.6089 -1.3390
32080SOL     OW98618   7.077   2.958   7.698  0.1914 -0.3918  0.3386
32080SOL    HW198619   7.154   2.902   7.707  0.3142 -0.4117 -0.7314
32080SOL    HW298620   7.068   2.999   7.784  1.0249 -0.8611  0.6663
32081SOL     OW98621   6.818   2.704   6.291  0.2642 -0.1902 -0.1178
32081SOL    HW198622   6.769   2.623   6.277 -0.1714  0.1417 -0.5860
32081SOL    HW298623   6.803   2.754   6.211  0.2529  0.4929  0.3073
32082SOL     OW98624   6.785  10.580   7.258 -0.1592 -0.0514  0.2552
32082SOL    HW198625   6.764  10.656   7.203 -0.1071 -0.7898 -0.8296
32082SOL    HW298626   6.765  10.608   7.347 -1.9474  0.6022 -0.3095
32083SOL     OW98627   5.868   0.847   2.980  0.0088  0.0193 -0.2177
32083SOL    HW198628   5.778   0.839   2.948 -0.0100  0.3174 -0.2428
32083SOL    HW298629   5.904   0.921   2.932  0.4209 -0.3941 -0.5565
32084SOL     OW98630  10.663   6.740   1.194 -0.0628 -0.4627  0.4245
32084SOL    HW198631  10.624   6.826   1.177  0.2829 -0.2299  0.8046
32084SOL    HW298632  10.631   6.685   1.122  0.7052  0.2888 -0.5066
32085SOL     OW98633   7.075   5.950   2.664  0.2329 -0.0540  0.5146
32085SOL    HW198634   7.122   6.034   2.668 -1.1311  0.7687  0.0070
32085SOL    HW298635   7.032   5.944   2.749 -1.1765  0.7081 -0.1102
32086SOL     OW98636   6.873   7.577   2.543 -0.0464  0.5107  1.0187
32086SOL    HW198637   6.850   7.545   2.456  0.8004 -0.8236  1.2499
32086SOL    HW298638   6.848   7.669   2.543  0.1587  0.5959 -0.7188
32087SOL     OW98639   1.067   9.545   9.995  0.3485 -0.0789 -0.4950
32087SOL    HW198640   1.143   9.487   9.998 -0.8506 -1.6948  0.2190
32087SOL    HW298641   1.007   9.502   9.934 -0.4394  0.5766 -0.1953
32088SOL     OW98642  10.335   9.699   0.492 -0.2575 -0.4887  0.2099
32088SOL    HW198643  10.355   9.698   0.585 -0.3647  0.6415  0.2557
32088SOL    HW298644  10.277   9.774   0.480 -0.4141 -0.7442 -0.7297
32089SOL     OW98645   1.688   1.093   4.588 -0.0384  0.1339  0.0164
32089SOL    HW198646   1.651   1.050   4.665 -1.6302  0.0643 -0.7495
32089SOL    HW298647   1.699   1.022   4.525  1.1469  0.2132  0.1126
32090SOL     OW98648   4.696  10.342   7.253  0.0361 -0.3818  0.1639
32090SOL    HW198649   4.718  10.423   7.300  0.6721  0.6541 -1.8032
32090SOL    HW298650   4.605  10.355   7.226 -0.1232 -0.6880  0.5523
32091SOL     OW98651   0.954   6.414   0.128  0.4095 -0.4915  0.3590
32091SOL    HW198652   0.875   6.408   0.076  0.4092  3.0004 -0.2316
32091SOL    HW298653   0.928   6.460   0.208  1.5958 -0.3624  0.7007
32092SOL     OW98654   9.981   6.524   8.106 -0.1299  0.0794 -0.4298
32092SOL    HW198655   9.896   6.519   8.062  0.9730 -0.2886 -2.6023
32092SOL    HW298656  10.010   6.433   8.114  0.1924  0.2195  0.0442
32093SOL     OW98657   6.751  10.318   5.181  0.0615  0.2473  0.2306
32093SOL    HW198658   6.827  10.265   5.157 -0.8268 -0.7571 -0.4305
32093SOL    HW298659   6.742  10.306   5.275  0.3530 -0.1325  0.2134
32094SOL     OW98660   0.701   3.215   4.846 -0.2164  0.0417  0.3284
32094SOL    HW198661   0.762   3.217   4.772  1.5284 -0.6618  1.6618
32094SOL    HW298662   0.715   3.129   4.885 -2.4289 -0.3168  0.4590
32095SOL     OW98663   3.279   1.612   8.255  0.8124  0.0294 -0.2666
32095SOL    HW198664   3.238   1.695   8.281  1.1797 -0.3257  1.6006
32095SOL    HW298665   3.251   1.550   8.322  0.6353 -1.3525 -1.5809
32096SOL     OW98666   0.472   4.552   4.647  0.0785  0.5933  0.0002
32096SOL    HW198667   0.509   4.582   4.731 -0.3909  0.7577  0.1533
32096SOL    HW298668   0.548   4.535   4.592  0.3929  3.0178 -0.4386
32097SOL     OW98669   0.748   1.469   3.000  0.0702 -0.1945 -0.4325
32097SOL    HW198670   0.784   1.424   2.924  1.0227 -0.7913  0.3470
32097SOL    HW298671   0.741   1.402   3.067 -1.1039  0.2462 -0.0850
32098SOL     OW98672   9.467   3.466   0.125  0.0920  0.2060  0.1822
32098SOL    HW198673   9.518   3.453   0.205  0.3874 -0.0131 -0.0427
32098SOL    HW298674   9.525   3.517   0.068 -0.0035  0.1037 -0.0070
32099SOL     OW98675   5.725   1.116   6.404 -0.1969  0.0747 -0.3198
32099SOL    HW198676   5.768   1.178   6.462  0.5592  0.4941 -1.2791
32099SOL    HW298677   5.687   1.170   6.334 -0.4723 -0.4555 -0.5902
32100SOL     OW98678   8.187   5.516  10.652 -0.1670  0.0986 -0.1576
32100SOL    HW198679   8.207   5.429  10.687  0.1124  0.4794  0.6638
32100SOL    HW298680   8.094   5.528  10.668 -0.1628  0.0337 -0.0841
32101SOL     OW98681   1.827   3.993   2.659 -0.0772  0.1319 -0.3200
32101SOL    HW198682   1.838   3.898   2.654 -0.7995  0.0964 -1.2996
32101SOL    HW298683   1.733   4.007   2.655 -0.0198  0.8658  0.5114
32102SOL     OW98684   3.249   6.503   3.516  0.1542 -0.3474  0.2290
32102SOL    HW198685   3.160   6.534   3.531  0.7092  0.6765  1.5769
32102SOL    HW298686   3.247   6.411   3.541 -0.7289 -0.5861 -0.6503
32103SOL     OW98687  10.100   7.092   3.098  0.0895 -0.2992 -0.0899
32103SOL    HW198688  10.144   7.023   3.147 -0.3654 -0.0205  0.7304
32103SOL    HW298689  10.015   7.102   3.141 -1.0961 -1.3013 -2.0298
32104SOL     OW98690   0.997   6.814  10.233  0.1196 -0.1647 -0.0760
32104SOL    HW198691   1.024   6.724  10.251  0.6383 -0.3350 -1.5492
32104SOL    HW298692   1.046   6.867  10.296  1.5263 -0.7514 -0.6207
32105SOL     OW98693   0.190   8.427   1.614  0.2301 -0.5602 -0.0856
32105SOL    HW198694   0.135   8.489   1.662 -2.4699 -2.6524 -0.2306
32105SOL    HW298695   0.234   8.376   1.682  2.3033  1.2355  0.0322
32106SOL     OW98696   8.909   9.926   3.392 -0.2918  0.1583  0.3680
32106SOL    HW198697   8.849   9.852   3.390 -0.7574  0.4720  1.9134
32106SOL    HW298698   8.920   9.947   3.484  1.6817  0.5532  0.1003
32107SOL     OW98699   4.363   4.982   7.470  0.4224 -0.1506 -0.3414
32107SOL    HW198700   4.355   5.058   7.528  1.6369  0.8961 -1.4663
32107SOL    HW298701   4.274   4.966   7.440  0.2493  1.3976 -0.7537
32108SOL     OW98702   5.541   1.718  10.630 -0.0119  0.3866  0.0809
32108SOL    HW198703   5.447   1.707  10.648  0.3050  1.8565  3.2451
32108SOL    HW298704   5.545   1.741  10.537 -3.0768  2.8761  0.3985
32109SOL     OW98705   3.926   0.342   6.214 -0.1474  0.8069  0.3631
32109SOL    HW198706   3.870   0.273   6.178  1.5990  0.2755 -1.5531
32109SOL    HW298707   3.887   0.424   6.183 -0.1739  0.4732 -0.5202
32110SOL     OW98708   0.274   8.442   1.319  0.1134  0.3293  0.3376
32110SOL    HW198709   0.246   8.531   1.339  1.2879  0.9097 -0.4395
32110SOL    HW298710   0.240   8.389   1.391 -1.1248  1.3020  0.4941
32111SOL     OW98711   4.717   8.769   0.434 -0.4798  0.6223  0.3201
32111SOL    HW198712   4.720   8.686   0.387 -0.4390  0.0183  1.3407
32111SOL    HW298713   4.740   8.746   0.524  0.4475  1.8949  0.4333
32112SOL     OW98714   5.860   3.427   2.664  0.8458 -0.4477  0.0724
32112SOL    HW198715   5.939   3.452   2.615  1.7094 -2.1131  0.5520
32112SOL    HW298716   5.822   3.356   2.613 -1.1329  1.1740 -0.8580
32113SOL     OW98717   2.052  10.775   2.306 -0.0040 -0.2481  0.2767
32113SOL    HW198718   2.136  10.787   2.349  0.8500 -0.4795 -1.2418
32113SOL    HW298719   2.016  10.863   2.298  0.4734 -0.0535  0.2286
32114SOL     OW98720   7.597   3.265  10.160  0.1856  0.4428  0.0534
32114SOL    HW198721   7.662   3.334  10.173  0.6199  0.5217 -2.1169
32114SOL    HW298722   7.524   3.289  10.217  0.9071  1.9165  0.3926
32115SOL     OW98723   9.557   9.352   7.760 -0.4793  0.3048 -0.2034
32115SOL    HW198724   9.536   9.279   7.702 -1.1428  0.6352 -0.3808
32115SOL    HW298725   9.502   9.337   7.837 -0.2469  0.3482 -0.0280
32116SOL     OW98726   6.709   8.917   3.812 -0.4410  0.4382  0.8552
32116SOL    HW198727   6.751   8.954   3.734  0.0970 -0.8012  0.5416
32116SOL    HW298728   6.665   8.992   3.852 -0.4780  1.1638 -0.4656
32117SOL     OW98729   8.497   6.673   9.150  0.2341 -0.1260 -0.1087
32117SOL    HW198730   8.403   6.663   9.164  0.4653 -1.3420  0.6709
32117SOL    HW298731   8.536   6.593   9.185  1.4474 -0.3431 -1.8049
32118SOL     OW98732   0.786   0.276   2.295  1.0555  0.8040 -0.5762
32118SOL    HW198733   0.811   0.368   2.288 -0.2911  1.3324  0.7907
32118SOL    HW298734   0.694   0.274   2.267  1.2344 -0.2289 -1.1203
32119SOL     OW98735   8.571   2.039   5.778  0.1138  0.3479 -0.4594
32119SOL    HW198736   8.620   1.974   5.727 -1.5933 -0.1303 -1.5651
32119SOL    HW298737   8.619   2.121   5.765  2.3888 -0.6385  1.0754
32120SOL     OW98738   0.513   8.345  10.003  0.4483  0.1306  0.3728
32120SOL    HW198739   0.426   8.370   9.972 -0.4938 -2.2617  0.8519
32120SOL    HW298740   0.502   8.330  10.096  0.8236 -2.1106  0.1161
32121SOL     OW98741   3.460   4.699   6.682  0.1267 -0.3899 -0.4137
32121SOL    HW198742   3.550   4.670   6.698  0.1757  0.5243  1.2770
32121SOL    HW298743   3.453   4.782   6.730 -0.9124  0.7988 -2.4919
32122SOL     OW98744   6.537   3.093   2.362  0.8255  0.2034  0.2380
32122SOL    HW198745   6.485   3.015   2.381  2.4437 -1.1465 -0.5695
32122SOL    HW298746   6.473   3.157   2.330 -0.4715 -0.9909  0.3336
32123SOL     OW98747   6.629   0.168   2.724  0.7452 -0.0231 -0.3259
32123SOL    HW198748   6.605   0.259   2.710 -0.0339 -0.1594  0.0768
32123SOL    HW298749   6.676   0.143   2.644 -0.3237  0.2994 -1.0807
32124SOL     OW98750   3.331   4.251   1.807  1.0087  0.0341 -0.1398
32124SOL    HW198751   3.287   4.175   1.769 -1.6357  0.7293  1.2492
32124SOL    HW298752   3.381   4.215   1.881 -1.2836 -0.3327  1.3473
32125SOL     OW98753  10.624   9.493   8.608  0.2226  0.2512  0.1935
32125SOL    HW198754  10.565   9.447   8.668  1.6042  0.2338  1.6185
32125SOL    HW298755  10.684   9.426   8.577 -0.0718  0.3946 -0.7212
32126SOL     OW98756   0.404   9.073  10.795 -0.0305 -0.7146  0.1624
32126SOL    HW198757   0.453   8.994  10.773  0.0428 -0.6620  0.1376
32126SOL    HW298758   0.469   9.132  10.832 -0.1424 -0.7832  0.4717
32127SOL     OW98759   5.356   7.223   4.255 -0.6045 -0.4270 -0.1219
32127SOL    HW198760   5.428   7.171   4.290  1.0970  1.6460 -0.3382
32127SOL    HW298761   5.322   7.271   4.331 -0.7210 -0.2390 -0.2902
32128SOL     OW98762   4.317   3.625   6.085 -0.3481  0.4108 -0.2116
32128SOL    HW198763   4.383   3.556   6.093 -0.9903 -0.2036 -0.0747
32128SOL    HW298764   4.349   3.681   6.014  0.4195  0.2437 -0.0012
32129SOL     OW98765   0.659   0.738   6.190 -0.0204  0.1775  0.0666
32129SOL    HW198766   0.646   0.644   6.174  1.3269 -0.2779  1.4114
32129SOL    HW298767   0.578   0.767   6.232  0.0780 -0.7081  0.8945
32130SOL     OW98768   2.132   7.996   9.270 -0.3867 -0.2778  0.5923
32130SOL    HW198769   2.153   8.085   9.244 -1.9856 -0.0715 -0.0878
32130SOL    HW298770   2.134   7.946   9.188 -3.2709 -0.0549  0.2639
32131SOL     OW98771   7.275   2.540   9.457  0.1829 -0.1621 -0.2186
32131SOL    HW198772   7.319   2.465   9.496 -0.8242 -1.2711 -1.1420
32131SOL    HW298773   7.183   2.528   9.479 -0.2558 -0.2247 -1.9217
32132SOL     OW98774   4.949   7.244   3.684  0.0568  0.3636  0.6182
32132SOL    HW198775   5.005   7.293   3.743 -0.2568  2.4431 -0.7272
32132SOL    HW298776   5.008   7.182   3.641  0.6962  0.3819  1.4551
32133SOL     OW98777   7.638   6.638   5.623  0.3852 -0.0869 -0.5472
32133SOL    HW198778   7.702   6.568   5.611  1.0694 -0.0578  2.1927
32133SOL    HW298779   7.602   6.653   5.536  0.4840 -3.5385 -1.3212
32134SOL     OW98780   0.640   6.558  10.534  0.0999  0.2421 -0.2384
32134SOL    HW198781   0.671   6.503  10.606 -2.2198  0.7691  1.2789
32134SOL    HW298782   0.580   6.502  10.485  0.5922  0.3141 -0.9364
32135SOL     OW98783   6.341   9.199   3.768 -0.3408 -0.6808  0.0823
32135SOL    HW198784   6.398   9.158   3.833 -2.1502  0.3615  2.4267
32135SOL    HW298785   6.397   9.262   3.724  1.1183 -1.9384  0.0305
32136SOL     OW98786   1.780   1.272   8.028 -0.6035  0.4045  0.2052
32136SOL    HW198787   1.703   1.326   8.010 -0.7596 -0.3203 -1.4650
32136SOL    HW298788   1.840   1.290   7.956 -0.1726 -0.7787  0.2441
32137SOL     OW98789   3.443   9.086  10.653  0.4525 -1.6390  0.0120
32137SOL    HW198790   3.382   9.021  10.618 -0.1334 -0.4902 -1.1377
32137SOL    HW298791   3.456   9.149  10.583  0.8927 -0.4061  1.1474
32138SOL     OW98792   3.024   1.155   3.309  0.0110  0.6297  0.0032
32138SOL    HW198793   3.078   1.234   3.313  2.7185 -1.0199 -1.1174
32138SOL    HW298794   3.079   1.087   3.348 -1.7801 -0.9452 -0.0724
32139SOL     OW98795   1.467   6.252   5.044 -0.4854  0.2541  0.5058
32139SOL    HW198796   1.429   6.164   5.045  0.4400 -0.1477  1.4682
32139SOL    HW298797   1.464   6.280   5.136  0.1461  0.8271  0.3532
32140SOL     OW98798  10.316   4.976   1.361  0.1409 -0.3165  0.0476
32140SOL    HW198799  10.331   5.064   1.328 -0.8645 -0.3692 -0.6089
32140SOL    HW298800  10.403   4.936   1.364  0.3522 -0.0902 -1.9549
32141SOL     OW98801   5.166  10.425   8.638 -0.4197 -0.6181 -0.1123
32141SOL    HW198802   5.103  10.423   8.565 -1.1473 -1.9168  0.5156
32141SOL    HW298803   5.125  10.371   8.706  0.9462 -0.6854  0.6864
32142SOL     OW98804   2.805   0.093  10.386  0.0550 -0.1111 -0.1091
32142SOL    HW198805   2.795   0.026  10.318  1.2342  2.1086 -2.6373
32142SOL    HW298806   2.860   0.160  10.346 -1.5160  2.6859  2.0410
32143SOL     OW98807   7.768  10.518   1.114 -0.1603 -0.2769 -0.2705
32143SOL    HW198808   7.748  10.430   1.146 -0.6628 -0.3953 -0.8761
32143SOL    HW298809   7.819  10.503   1.034  0.3989 -0.0034  0.0314
32144SOL     OW98810   5.376   0.846   9.402  0.0531  0.2157 -0.3764
32144SOL    HW198811   5.407   0.769   9.450 -0.9498  0.3428  0.5035
32144SOL    HW298812   5.356   0.910   9.469  1.1659  1.3969 -1.1171
32145SOL     OW98813   4.828   4.762  10.607 -0.0861  0.0161 -0.4704
32145SOL    HW198814   4.820   4.707  10.686  1.2459 -2.6133 -2.0182
32145SOL    HW298815   4.738   4.782  10.583 -0.5495  0.0133  1.1295
32146SOL     OW98816   8.787   8.842   9.610 -0.2385 -0.8127  0.3947
32146SOL    HW198817   8.748   8.828   9.523  2.3573  0.2783 -1.0842
32146SOL    HW298818   8.811   8.754   9.640  0.3667 -1.0906 -0.8244
32147SOL     OW98819  10.320   9.369   5.590  0.0394  0.2694  0.6143
32147SOL    HW198820  10.232   9.402   5.571 -0.3338 -1.2241 -0.4816
32147SOL    HW298821  10.348   9.417   5.667 -1.7411  0.7936  0.9768
32148SOL     OW98822   9.205   7.594   1.182 -0.5899  0.2018  0.3299
32148SOL    HW198823   9.276   7.657   1.174 -1.2687  0.8300 -1.2651
32148SOL    HW298824   9.145   7.616   1.110 -2.2668 -0.4592  1.4605
32149SOL     OW98825   1.136   4.658   1.325  0.2171  0.1918  0.8052
32149SOL    HW198826   1.063   4.609   1.287  1.3348 -0.8820 -0.0494
32149SOL    HW298827   1.123   4.650   1.419 -1.5387  1.2446  0.6906
32150SOL     OW98828   9.064   8.217  10.331 -0.2585 -0.5033  0.1115
32150SOL    HW198829   9.143   8.168  10.355 -0.6634  0.2993  3.6978
32150SOL    HW298830   9.097   8.290  10.278  1.2153 -1.0212  0.2518
32151SOL     OW98831   5.155   8.069   7.203  0.6227 -0.5853 -0.0734
32151SOL    HW198832   5.079   8.113   7.165  0.6233 -0.8825 -0.4184
32151SOL    HW298833   5.199   8.137   7.253  0.5417 -0.2282 -0.4843
32152SOL     OW98834  10.060   1.964   6.898 -0.2218 -0.9783 -0.5352
32152SOL    HW198835   9.979   1.925   6.865 -0.6365 -0.1542 -0.5254
32152SOL    HW298836  10.128   1.928   6.842 -0.6555 -1.3182 -0.8573
32153SOL     OW98837   8.114   3.194   0.516  0.2312 -0.2690  0.1108
32153SOL    HW198838   8.172   3.123   0.487 -1.0766 -1.8515  1.2047
32153SOL    HW298839   8.153   3.226   0.597 -0.4078 -1.3734  0.8780
32154SOL     OW98840   3.881   3.216   0.480  0.0684  0.1290  0.7381
32154SOL    HW198841   3.889   3.121   0.493  1.3187  0.1665  0.4418
32154SOL    HW298842   3.821   3.245   0.548 -1.2379 -1.0314  0.1293
32155SOL     OW98843   8.583   9.944   4.478  0.1325 -0.7936  0.3379
32155SOL    HW198844   8.489   9.934   4.490  0.4371 -1.2576  2.7914
32155SOL    HW298845   8.608   9.869   4.423 -1.1831  0.6864 -2.5295
32156SOL     OW98846   8.996   2.453   7.598  0.1238 -0.7576 -0.3034
32156SOL    HW198847   8.915   2.436   7.646 -0.6482 -0.4305 -1.4590
32156SOL    HW298848   9.015   2.371   7.553 -0.3312 -0.4278 -1.1211
32157SOL     OW98849   1.899   2.684   5.407  0.8783 -0.4816  0.2428
32157SOL    HW198850   1.930   2.714   5.322  0.6153  1.9845  0.9516
32157SOL    HW298851   1.807   2.661   5.392  0.8904 -0.2702 -0.1731
32158SOL     OW98852   4.108   8.091   7.451  0.1838 -0.3868  0.1780
32158SOL    HW198853   4.195   8.091   7.492  0.0266 -0.9891  0.5293
32158SOL    HW298854   4.093   8.182   7.425  1.1196 -0.3568 -0.3168
32159SOL     OW98855   5.730   4.284   4.033  0.4117 -0.5931  0.4572
32159SOL    HW198856   5.641   4.317   4.019  0.0156 -1.7753  0.0685
32159SOL    HW298857   5.773   4.353   4.082 -0.1833  0.7775 -0.8723
32160SOL     OW98858   2.805   9.507   0.295 -0.8226  0.2336  0.1493
32160SOL    HW198859   2.845   9.511   0.208  0.9854 -2.3832  0.7317
32160SOL    HW298860   2.742   9.435   0.289 -0.5660 -0.0734  1.0228
32161SOL     OW98861   5.325   1.323   5.585 -0.0124  0.0796 -0.4398
32161SOL    HW198862   5.238   1.351   5.556  0.2372 -0.8019 -2.1795
32161SOL    HW298863   5.384   1.391   5.552 -0.0302  0.7614  0.8789
32162SOL     OW98864   7.421   7.295   7.008  0.4739  0.1272  0.1463
32162SOL    HW198865   7.362   7.220   7.011  1.1243 -0.3709  2.1059
32162SOL    HW298866   7.366   7.370   7.029  0.4475 -0.3302  1.9364
32163SOL     OW98867   3.715   9.340   1.913  0.5568  0.1029 -0.3363
32163SOL    HW198868   3.729   9.249   1.937  1.3055  0.2413 -0.2434
32163SOL    HW298869   3.676   9.380   1.991  0.2037 -0.1334 -0.3860
32164SOL     OW98870   3.458   3.160   0.731 -0.2869 -0.0987  0.4102
32164SOL    HW198871   3.483   3.180   0.821 -1.7349 -1.3071  1.1318
32164SOL    HW298872   3.366   3.183   0.726 -0.4956 -1.0555 -0.4360
32165SOL     OW98873   3.125   4.847   0.010 -0.1116  0.2902 -0.2592
32165SOL    HW198874   3.215   4.879   0.012  0.4150 -1.0998 -0.7032
32165SOL    HW298875   3.073   4.923  -0.016  1.2239  0.5251 -2.5062
32166SOL     OW98876  10.167   0.953   4.022  0.0410 -0.1235 -0.3856
32166SOL    HW198877  10.250   0.992   3.995  0.7221 -2.4354 -2.0272
32166SOL    HW298878  10.122   0.934   3.939 -1.2426 -0.6773  0.4107
32167SOL     OW98879   7.555   8.673  10.055  0.0575 -0.6660 -0.0335
32167SOL    HW198880   7.461   8.665  10.040 -0.0377  0.0180  0.1914
32167SOL    HW298881   7.574   8.607  10.122  0.1292 -2.3045 -1.6068
32168SOL     OW98882   5.628  10.000   9.699  0.0055  0.5694 -0.1025
32168SOL    HW198883   5.571   9.923   9.701 -0.5175  0.9618  0.6599
32168SOL    HW298884   5.576  10.067   9.656 -0.7066  1.3551  1.8623
32169SOL     OW98885   2.910   4.558   1.141  0.0679  0.1476 -0.3281
32169SOL    HW198886   2.851   4.616   1.189 -0.1340  0.9518 -1.5133
32169SOL    HW298887   2.988   4.611   1.124  0.0462 -0.0390 -1.0704
32170SOL     OW98888   8.974   7.960   7.199 -0.1215  0.0901  0.5549
32170SOL    HW198889   8.962   7.998   7.112  1.4869 -1.8048 -0.5826
32170SOL    HW298890   9.052   8.003   7.234  1.6816 -1.9341 -0.7207
32171SOL     OW98891  10.478   1.638   2.481 -0.1741  0.0923 -0.0967
32171SOL    HW198892  10.506   1.650   2.390  2.0776  2.4460  0.7623
32171SOL    HW298893  10.478   1.727   2.517 -2.2272 -0.6502  1.9171
32172SOL     OW98894   1.271   7.606   7.689 -0.6468  0.5646  0.3615
32172SOL    HW198895   1.267   7.695   7.722 -1.2804  0.7570 -0.2120
32172SOL    HW298896   1.290   7.616   7.596 -2.4986  0.1978 -0.0969
32173SOL     OW98897   2.634   6.480   7.693  0.0920 -0.1160 -0.3758
32173SOL    HW198898   2.601   6.521   7.773  0.3132  0.3977 -0.5439
32173SOL    HW298899   2.708   6.535   7.666  0.9668 -1.1311 -0.1127
32174SOL     OW98900   7.109   9.768   5.309  0.2588 -0.1607 -0.5346
32174SOL    HW198901   7.131   9.778   5.216  1.0907 -1.2984 -0.4805
32174SOL    HW298902   7.025   9.721   5.308  0.2366 -0.1205 -0.7164
32175SOL     OW98903   0.370   3.274   3.008 -0.1164  0.0431  0.3002
32175SOL    HW198904   0.437   3.269   2.941 -0.8711 -0.1176 -0.4601
32175SOL    HW298905   0.405   3.336   3.073  0.8058 -0.1355 -0.0110
32176SOL     OW98906   7.713   8.793   3.302 -0.0159 -0.0526 -0.0132
32176SOL    HW198907   7.792   8.756   3.342  0.6074  0.2013 -0.9693
32176SOL    HW298908   7.725   8.888   3.310  0.6604  0.0369 -1.7614
32177SOL     OW98909   2.798   0.206   0.567 -0.2391 -0.1855 -0.3882
32177SOL    HW198910   2.889   0.181   0.582 -0.6700 -0.9699  1.1307
32177SOL    HW298911   2.784   0.281   0.624 -0.2832  0.6083 -1.4029
32178SOL     OW98912   7.726   7.745   9.181  0.7998  0.4612 -0.5667
32178SOL    HW198913   7.645   7.787   9.153  1.4864  1.2998 -1.3295
32178SOL    HW298914   7.784   7.817   9.205  1.3130 -0.1327  0.0053
32179SOL     OW98915   9.629   2.403   9.479 -0.0876 -0.0224  0.5757
32179SOL    HW198916   9.597   2.491   9.500  0.2555 -0.1774  1.8545
32179SOL    HW298917   9.724   2.414   9.469  0.0062 -0.3053  1.1258
32180SOL     OW98918   6.595   6.883   7.478  0.1782 -0.1211  0.3409
32180SOL    HW198919   6.546   6.896   7.560  0.5049 -0.4066  0.5865
32180SOL    HW298920   6.652   6.808   7.497  0.1945 -0.2401 -0.1792
32181SOL     OW98921   3.779   3.029   3.667 -0.1024 -0.2197  0.0514
32181SOL    HW198922   3.761   3.050   3.758 -1.5447  0.8836 -0.4461
32181SOL    HW298923   3.870   3.055   3.653 -0.5723  1.8528  0.5777
32182SOL     OW98924   3.169   2.649   7.146 -0.2944  0.1560  0.1113
32182SOL    HW198925   3.209   2.727   7.183  1.9461 -1.1262  0.5447
32182SOL    HW298926   3.176   2.661   7.051 -1.3884  1.1360  0.1303
32183SOL     OW98927   8.418   9.993   9.452 -0.1310 -0.1571 -0.0978
32183SOL    HW198928   8.421   9.909   9.407  1.2615  0.4158 -1.1218
32183SOL    HW298929   8.504  10.001   9.494  0.2156  1.2974 -1.0429
32184SOL     OW98930   2.170   0.677  10.514 -0.0613  0.3657  0.9680
32184SOL    HW198931   2.130   0.677  10.601 -1.5800 -0.8490  0.3154
32184SOL    HW298932   2.150   0.590  10.479  1.9040  0.2513 -0.0027
32185SOL     OW98933   5.164   8.737   1.960  0.3751 -0.3326 -0.1953
32185SOL    HW198934   5.237   8.691   1.918 -0.4826 -1.0184 -0.9565
32185SOL    HW298935   5.115   8.669   2.006 -0.2592 -0.0122 -0.3793
32186SOL     OW98936   8.695   7.213   0.414  0.9138  0.3520 -0.0554
32186SOL    HW198937   8.656   7.139   0.367  0.9316  1.4413 -1.8826
32186SOL    HW298938   8.636   7.227   0.488  0.0659 -0.5357 -0.5288
32187SOL     OW98939   6.883   2.129   4.639  0.1112 -0.2764 -0.2533
32187SOL    HW198940   6.825   2.173   4.702 -0.7084 -0.7598 -0.6507
32187SOL    HW298941   6.828   2.115   4.562  0.0444 -2.7491  0.1438
32188SOL     OW98942   8.160   5.507   1.779 -0.4208 -0.7460  0.0688
32188SOL    HW198943   8.218   5.461   1.718  1.6472 -0.5977  1.8219
32188SOL    HW298944   8.172   5.599   1.757 -1.8532 -0.8074 -1.1064
32189SOL     OW98945   9.473   4.619   3.034  0.2402  0.1396 -0.1639
32189SOL    HW198946   9.489   4.550   2.970  0.4887  0.2673 -0.2395
32189SOL    HW298947   9.560   4.650   3.059  0.1620 -0.1354  0.4826
32190SOL     OW98948   4.037   0.125   3.723 -0.1830 -0.3083  0.2393
32190SOL    HW198949   4.100   0.148   3.655 -0.2903 -3.3016 -1.0622
32190SOL    HW298950   3.961   0.090   3.674 -1.0258 -0.8418  1.8435
32191SOL     OW98951   7.895   3.343   8.246 -0.0392  0.5070  0.0078
32191SOL    HW198952   7.804   3.314   8.249  0.0575  0.2073  0.1298
32191SOL    HW298953   7.930   3.321   8.332  0.5937 -0.9118 -0.5808
32192SOL     OW98954   6.713  10.224   3.757 -0.5028  0.2933 -0.1159
32192SOL    HW198955   6.715  10.219   3.852  0.5450 -0.6208 -0.1714
32192SOL    HW298956   6.628  10.264   3.737  0.2495  2.7890  1.2627
32193SOL     OW98957   2.066   9.342   2.861 -0.0434  0.4981  0.3828
32193SOL    HW198958   1.983   9.320   2.904  0.4898  1.0726  1.7762
32193SOL    HW298959   2.113   9.394   2.926  1.0350  0.9545 -0.7301
32194SOL     OW98960   3.052   8.530   4.727  0.8019  0.5898  0.1018
32194SOL    HW198961   2.988   8.473   4.769  1.2138  0.7167  0.9097
32194SOL    HW298962   3.052   8.610   4.779  0.5175  1.1997 -0.7919
32195SOL     OW98963   1.631   6.709   6.363  0.3747 -0.2071  0.4381
32195SOL    HW198964   1.688   6.785   6.370 -1.5842  1.4351 -0.4919
32195SOL    HW298965   1.648   6.674   6.276  0.3096 -0.0342  0.3567
32196SOL     OW98966   0.061  10.429   1.991 -0.0202 -0.5447  0.5313
32196SOL    HW198967   0.072  10.338   1.966 -1.3264 -0.5103 -0.2050
32196SOL    HW298968   0.113  10.478   1.927 -0.7858 -0.6567 -0.1746
32197SOL     OW98969   5.371   8.966   7.682  0.1797 -0.3119 -0.8885
32197SOL    HW198970   5.339   9.055   7.665  2.1741  0.3957 -1.2418
32197SOL    HW298971   5.293   8.917   7.709 -0.7545  1.8958  0.7727
32198SOL     OW98972   3.091   3.930   6.216 -1.1159 -0.1792  0.3826
32198SOL    HW198973   3.120   4.014   6.181  1.1602 -1.1858 -0.3298
32198SOL    HW298974   3.123   3.865   6.153 -0.4429 -1.7611  2.2310
32199SOL     OW98975   5.968   7.939   6.889 -0.2422  1.1476  0.0460
32199SOL    HW198976   5.985   7.937   6.795 -0.5825  2.1252 -0.0511
32199SOL    HW298977   6.054   7.959   6.928 -0.3092  1.8502 -0.1463
32200SOL     OW98978   5.100   1.945   5.881 -0.1111 -0.5416  0.2231
32200SOL    HW198979   5.173   1.919   5.937 -0.4668 -0.2560  0.8346
32200SOL    HW298980   5.027   1.888   5.908 -0.2600 -0.4641 -0.0118
32201SOL     OW98981   7.290   0.159   0.043  0.1298  0.6497  0.3923
32201SOL    HW198982   7.236   0.095  -0.003 -2.0239  1.9773  0.9442
32201SOL    HW298983   7.327   0.110   0.117 -0.1602 -0.3423 -0.0988
32202SOL     OW98984   4.317   9.947   2.212 -0.1467 -0.0896  0.3122
32202SOL    HW198985   4.392   9.917   2.160 -0.3853  0.5246 -0.4074
32202SOL    HW298986   4.240   9.919   2.163 -0.3899 -0.2967  0.8032
32203SOL     OW98987   1.386   5.864   3.435 -0.0959  0.7408  0.1379
32203SOL    HW198988   1.417   5.844   3.347 -0.3366  0.0653  0.1993
32203SOL    HW298989   1.367   5.958   3.433  1.1706  1.0117 -0.1237
32204SOL     OW98990   9.964   7.031   0.848  0.1480 -0.2844 -0.0641
32204SOL    HW198991   9.942   6.973   0.775  1.1792 -0.9546  0.1365
32204SOL    HW298992   9.920   6.991   0.923 -1.6514  0.8890 -0.4241
32205SOL     OW98993   8.871   7.476   0.230  0.3260 -0.6610 -0.0847
32205SOL    HW198994   8.792   7.528   0.243  0.7528  0.0774 -0.4111
32205SOL    HW298995   8.841   7.400   0.180 -0.0001  0.1233 -1.1002
32206SOL     OW98996   6.229   3.204   5.700 -0.0584 -0.1882 -0.4571
32206SOL    HW198997   6.265   3.119   5.725 -0.1233 -0.1865 -0.3551
32206SOL    HW298998   6.150   3.213   5.753 -0.3271 -0.2887 -0.8465
32207SOL     OW98999   5.900   5.670   9.267 -0.3338  0.3977 -0.3878
32207SOL    HW199000   5.968   5.720   9.222  0.0243  0.1962 -0.0747
32207SOL    HW299001   5.834   5.652   9.200  0.3147 -0.1185 -0.8964
32208SOL     OW99002   0.648   7.864   7.503 -0.0613  0.0695  0.2934
32208SOL    HW199003   0.559   7.897   7.505  0.0821  0.4239  0.9546
32208SOL    HW299004   0.644   7.787   7.447 -0.4632  1.0023 -1.0039
32209SOL     OW99005   3.589   9.887   2.259 -0.0463 -0.0067 -0.0889
32209SOL    HW199006   3.570   9.794   2.270  1.8281 -0.2956  1.2907
32209SOL    HW299007   3.547   9.929   2.334  0.4878  0.0041  0.2146
32210SOL     OW99008   6.792   5.174   4.498  0.1002  0.2240 -0.5956
32210SOL    HW199009   6.888   5.170   4.494  0.2915  2.3597  0.1832
32210SOL    HW299010   6.774   5.207   4.586 -1.5272 -2.5343  0.2084
32211SOL     OW99011   4.788   6.634   7.341  0.4973 -0.1199 -0.3255
32211SOL    HW199012   4.721   6.565   7.346  0.2251  0.1207 -0.5597
32211SOL    HW299013   4.767   6.693   7.414  0.6697 -0.2323 -0.1850
32212SOL     OW99014   9.744  10.157   3.448  0.0101  0.3536 -0.5460
32212SOL    HW199015   9.656  10.186   3.424 -0.3001  1.0458  1.2431
32212SOL    HW299016   9.789  10.145   3.365 -0.2841  4.6114 -1.5477
32213SOL     OW99017   7.502  10.190   4.494  0.5210  0.5004  0.1045
32213SOL    HW199018   7.511  10.280   4.465  0.0267  0.3620 -0.4875
32213SOL    HW299019   7.527  10.192   4.586  3.8252  0.6507 -0.6686
32214SOL     OW99020   1.179  10.290   3.513 -0.2945  0.1723  0.2194
32214SOL    HW199021   1.195  10.381   3.490  0.3903  0.4016  1.4905
32214SOL    HW299022   1.121  10.294   3.589 -1.4885 -0.5110 -0.6280
32215SOL     OW99023   3.571   4.211   8.759 -0.1129  0.5164  0.0638
32215SOL    HW199024   3.583   4.305   8.748 -0.5343  0.7888  1.7363
32215SOL    HW299025   3.496   4.190   8.703 -0.0403  1.1766 -0.2888
32216SOL     OW99026   3.391   8.077   2.125 -0.0471  0.2203  0.1667
32216SOL    HW199027   3.446   8.142   2.170 -0.5834  0.4631  0.4778
32216SOL    HW299028   3.304   8.118   2.121 -0.1457 -0.0430 -0.5677
32217SOL     OW99029   4.411   8.728   6.391 -0.4871  0.0471 -0.3643
32217SOL    HW199030   4.460   8.779   6.455 -1.4505 -0.1123  0.5293
32217SOL    HW299031   4.463   8.650   6.377  0.5362  0.8272 -1.0257
32218SOL     OW99032   3.793   4.554   7.567  0.2951 -0.4012  0.4237
32218SOL    HW199033   3.836   4.544   7.481 -0.0256 -0.3557  0.2555
32218SOL    HW299034   3.861   4.591   7.623  0.1875  0.6088 -0.0923
32219SOL     OW99035  10.470   0.968   8.489 -0.7588 -0.0850 -0.2600
32219SOL    HW199036  10.440   1.056   8.466  0.5294 -0.0799 -2.0711
32219SOL    HW299037  10.389   0.918   8.499 -1.4994  1.2132  0.4917
32220SOL     OW99038   1.823   5.778   9.896  0.2487 -0.3581  0.0129
32220SOL    HW199039   1.757   5.836   9.933 -0.0827 -0.8567  0.2272
32220SOL    HW299040   1.884   5.760   9.968 -0.4152 -1.3555  0.3573
32221SOL     OW99041   0.765   0.316   3.440 -0.3043 -0.0537 -0.7160
32221SOL    HW199042   0.810   0.293   3.521  0.6648 -0.2014 -1.2761
32221SOL    HW299043   0.725   0.401   3.457 -0.6481 -0.3717  0.1159
32222SOL     OW99044   7.549   2.596   6.584  0.1580 -0.1108 -0.0730
32222SOL    HW199045   7.527   2.522   6.641 -0.5498  0.6371  0.6662
32222SOL    HW299046   7.538   2.673   6.640 -0.7430  0.6698 -1.2633
32223SOL     OW99047   7.001   3.856  10.749  0.3317 -0.0187 -0.1606
32223SOL    HW199048   7.043   3.883  10.830  0.6004  0.8441 -0.5730
32223SOL    HW299049   6.930   3.919  10.736  0.3587 -0.0817 -0.6519
32224SOL     OW99050   8.425   7.976  10.320 -0.1216 -0.4870 -0.4208
32224SOL    HW199051   8.507   8.007  10.280 -0.5969  2.3075  0.5570
32224SOL    HW299052   8.357   8.003  10.258 -0.6374  1.5123  0.9370
32225SOL     OW99053   6.498   7.755   2.285 -0.7231 -0.0010 -0.4646
32225SOL    HW199054   6.445   7.786   2.212 -1.2874  0.5072  0.1523
32225SOL    HW299055   6.487   7.822   2.353  0.1440 -0.2419 -0.0682
32226SOL     OW99056   6.864   7.027   2.702  0.7986  0.2825  0.3006
32226SOL    HW199057   6.919   7.099   2.732  0.6243  0.9472 -0.9142
32226SOL    HW299058   6.924   6.970   2.653  0.6353  0.4420 -0.0923
32227SOL     OW99059   0.905   6.260   2.758 -0.3413 -0.0575  0.2676
32227SOL    HW199060   0.908   6.259   2.853  0.6837 -0.4502  0.2421
32227SOL    HW299061   0.870   6.346   2.736  0.5738  0.5176  0.9867
32228SOL     OW99062   3.520   3.064   1.783  0.5231  0.1642  0.1739
32228SOL    HW199063   3.519   3.151   1.743  0.2494  0.5541  1.0133
32228SOL    HW299064   3.469   3.009   1.724  2.0678  0.1621 -1.2415
32229SOL     OW99065   6.836   4.004   9.339 -0.7389 -0.4431  0.1207
32229SOL    HW199066   6.771   3.989   9.271 -1.5113 -3.7946  1.3875
32229SOL    HW299067   6.920   3.986   9.297 -1.1360 -1.6027 -0.2085
32230SOL     OW99068   5.408   1.034   8.284 -0.2411 -0.5032 -0.6349
32230SOL    HW199069   5.390   1.107   8.343 -1.0620 -1.7107  0.6743
32230SOL    HW299070   5.444   1.075   8.205  0.1044  1.2237  0.3772
32231SOL     OW99071   6.438  10.415   5.375  0.0984  0.0795 -0.0471
32231SOL    HW199072   6.370  10.414   5.308  0.9788 -1.0547 -0.9580
32231SOL    HW299073   6.508  10.468   5.337  0.2087  0.2482  0.3879
32232SOL     OW99074   7.490   9.416   3.399  0.5743 -0.2280  0.3090
32232SOL    HW199075   7.467   9.509   3.391 -2.2630 -0.7584  0.9187
32232SOL    HW299076   7.585   9.415   3.412  0.9627  2.4307 -1.6148
32233SOL     OW99077   9.216   8.943   8.196 -0.2997 -0.0111 -0.8143
32233SOL    HW199078   9.215   8.847   8.197 -0.4547 -0.0398  1.2531
32233SOL    HW299079   9.124   8.968   8.188 -0.2556 -0.0220 -1.4039
32234SOL     OW99080   8.235   3.783   5.200  0.0532 -0.0852  0.3213
32234SOL    HW199081   8.256   3.752   5.288  0.1358 -0.4252  0.1852
32234SOL    HW299082   8.262   3.711   5.142 -1.1449 -0.3937  0.1071
32235SOL     OW99083   0.904   3.466   3.483  0.1059  0.2671  0.2893
32235SOL    HW199084   0.814   3.484   3.458  0.4964  0.6575 -0.9158
32235SOL    HW299085   0.956   3.529   3.432  1.2055 -1.3873 -0.7477
32236SOL     OW99086   0.619   5.716   2.133 -0.3305 -0.0936  0.2535
32236SOL    HW199087   0.588   5.741   2.220  0.2604  1.5074  0.0480
32236SOL    HW299088   0.707   5.755   2.128  0.6253 -2.1774 -0.1842
32237SOL     OW99089   6.330   3.585   2.144  0.1198  0.1852 -0.1778
32237SOL    HW199090   6.349   3.591   2.050  0.0772 -0.0913 -0.2043
32237SOL    HW299091   6.280   3.664   2.164  0.1727  0.2688 -0.3772
32238SOL     OW99092   3.993   6.651   5.515 -0.1601 -0.2596 -0.0701
32238SOL    HW199093   4.077   6.672   5.555 -0.0902 -0.7043  0.0123
32238SOL    HW299094   4.001   6.560   5.486 -0.8866 -0.5601  0.6447
32239SOL     OW99095   5.462   0.461   9.264 -0.0633 -0.0644 -0.2210
32239SOL    HW199096   5.490   0.451   9.355 -1.7563 -1.0062  0.2443
32239SOL    HW299097   5.480   0.552   9.243  3.2794 -0.5763 -0.0172
32240SOL     OW99098   7.422   3.148   4.692 -0.6422  0.0219  0.0478
32240SOL    HW199099   7.477   3.175   4.765 -0.6545  1.9202 -0.5856
32240SOL    HW299100   7.379   3.229   4.663 -1.0405 -0.7681 -1.7092
32241SOL     OW99101   2.933   5.457   6.021 -0.3050  0.0197 -0.0569
32241SOL    HW199102   2.884   5.477   6.101 -0.4397 -0.2811 -0.0646
32241SOL    HW299103   2.966   5.368   6.034 -1.3707 -0.5032 -0.8605
32242SOL     OW99104   9.351   9.615   7.444  0.1250 -0.7167  0.2645
32242SOL    HW199105   9.406   9.567   7.381  0.7278 -0.4432  0.5730
32242SOL    HW299106   9.300   9.547   7.488 -2.7360 -0.7153 -2.7182
32243SOL     OW99107   7.876   5.670   7.829  0.1360  0.1309 -0.3456
32243SOL    HW199108   7.842   5.717   7.905  1.0513  0.5510 -0.1872
32243SOL    HW299109   7.919   5.737   7.776  1.1431 -0.4517 -0.2934
32244SOL     OW99110   2.680   7.029  10.353  0.3369 -0.0576 -0.0028
32244SOL    HW199111   2.732   6.950  10.337  1.1319  0.3030  0.6939
32244SOL    HW299112   2.744   7.094  10.381 -0.5708  0.2035  1.5624
32245SOL     OW99113   8.478   1.753   5.661 -0.0346  0.1816 -0.0925
32245SOL    HW199114   8.440   1.670   5.689  1.8543 -1.2431 -1.4704
32245SOL    HW299115   8.572   1.744   5.677  0.2336  2.0340 -0.3463
32246SOL     OW99116   8.985  10.711   0.053 -0.0983  0.4904 -0.2041
32246SOL    HW199117   9.045  10.713   0.127 -1.5987 -0.3414  1.1100
32246SOL    HW299118   8.945  10.625   0.057 -2.3963  1.4826 -0.1221
32247SOL     OW99119   4.420   7.722   9.512 -0.4027 -0.5206  0.1131
32247SOL    HW199120   4.381   7.709   9.426  0.5514  1.6687 -0.7449
32247SOL    HW299121   4.374   7.799   9.547  1.9549  1.1810 -0.2916
32248SOL     OW99122   9.283   1.195   7.223 -0.6989  0.0717 -0.5467
32248SOL    HW199123   9.236   1.253   7.282 -2.0433 -0.8699 -0.6336
32248SOL    HW299124   9.227   1.190   7.145 -0.0281 -0.4105 -1.0100
32249SOL     OW99125   4.661   6.538   5.333 -0.6615  0.1213 -0.2271
32249SOL    HW199126   4.634   6.564   5.421  0.4483 -0.3257  0.2703
32249SOL    HW299127   4.756   6.550   5.333 -0.7021  0.6019 -1.5389
32250SOL     OW99128   4.068   8.185   2.779  0.4269 -0.2517 -0.1085
32250SOL    HW199129   4.061   8.221   2.691 -2.2672  3.1316  1.2318
32250SOL    HW299130   4.134   8.239   2.822 -1.0644  0.8545  0.9238
32251SOL     OW99131   5.205   0.471   1.107 -0.6552  0.6742 -0.9727
32251SOL    HW199132   5.150   0.432   1.039  0.6059 -1.9252 -0.6132
32251SOL    HW299133   5.275   0.516   1.059 -0.7481  0.3552 -1.4094
32252SOL     OW99134   7.257   3.382   4.089  0.9423  0.2937  0.2346
32252SOL    HW199135   7.281   3.448   4.154 -0.1384  0.7880  0.1565
32252SOL    HW299136   7.257   3.299   4.137  2.4989  0.3008  0.2873
32253SOL     OW99137   8.133   4.078   2.582 -0.0016 -0.3643 -0.0393
32253SOL    HW199138   8.092   4.129   2.652 -0.0967  0.9592 -1.0132
32253SOL    HW299139   8.221   4.059   2.615 -0.1061  0.0789  0.5179
32254SOL     OW99140   2.189   2.980   1.532  0.0417  0.4088 -0.0506
32254SOL    HW199141   2.129   2.932   1.475  0.8553 -0.9019  0.1600
32254SOL    HW299142   2.140   2.995   1.613 -0.1049 -0.3974  0.0121
32255SOL     OW99143   4.569   0.344   3.586  0.1831  0.0443 -0.0776
32255SOL    HW199144   4.590   0.436   3.604 -0.0689  0.1143 -0.1328
32255SOL    HW299145   4.506   0.348   3.514  1.1538 -0.2299 -0.9554
32256SOL     OW99146   4.319   7.369   2.707 -0.0488 -0.4228  0.6173
32256SOL    HW199147   4.408   7.402   2.715 -0.3436  1.5578 -2.4997
32256SOL    HW299148   4.326   7.296   2.645 -0.9198  2.7865 -3.7284
32257SOL     OW99149   0.258   5.222   5.646 -0.1562  0.2534  0.3077
32257SOL    HW199150   0.343   5.264   5.663  1.0163 -1.3523 -1.2659
32257SOL    HW299151   0.229   5.260   5.563  0.5797 -1.4429 -0.7674
32258SOL     OW99152   4.849   6.841   7.518  0.1387 -0.7331 -0.2754
32258SOL    HW199153   4.891   6.922   7.490  1.0828 -0.6442  1.2585
32258SOL    HW299154   4.922   6.781   7.534 -0.4475 -1.3414  0.1973
32259SOL     OW99155   5.540   5.536   1.165 -0.3506 -0.5069  0.6735
32259SOL    HW199156   5.558   5.595   1.238  0.0745 -0.4799  0.5486
32259SOL    HW299157   5.544   5.448   1.203 -1.6019 -0.4553  0.9973
32260SOL     OW99158   2.976  10.295   2.404 -0.3361 -0.1708  0.0772
32260SOL    HW199159   3.025  10.369   2.367 -1.6212  0.1317 -1.1027
32260SOL    HW299160   2.996  10.297   2.497  2.4248 -0.4891 -0.4208
32261SOL     OW99161   1.958   6.872   2.940  0.5190 -0.1797  0.5517
32261SOL    HW199162   1.934   6.812   2.869  1.0263  0.4729 -0.1869
32261SOL    HW299163   1.997   6.815   3.007  1.7664 -0.6069 -0.4900
32262SOL     OW99164   4.243   9.962   8.438 -1.0369  0.6315 -0.3294
32262SOL    HW199165   4.244   9.866   8.447  0.2209  0.4237 -2.1106
32262SOL    HW299166   4.303   9.993   8.506  0.9591 -0.1226 -1.6541
32263SOL     OW99167   8.553   7.291   3.281  0.6140  0.0067  0.4529
32263SOL    HW199168   8.587   7.337   3.204 -0.8354  0.9604  0.3432
32263SOL    HW299169   8.609   7.320   3.353  0.9481  0.4111  0.0408
32264SOL     OW99170   9.235   7.720   0.661 -0.5563  0.6743 -0.0427
32264SOL    HW199171   9.265   7.772   0.586  0.1789  2.4252  1.3842
32264SOL    HW299172   9.309   7.662   0.680 -0.1037  1.3636  0.3123
32265SOL     OW99173   6.381   2.279   7.501  0.5380 -0.1020 -0.3136
32265SOL    HW199174   6.342   2.199   7.537  0.4489  0.7237  1.5537
32265SOL    HW299175   6.454   2.298   7.561  0.2921  1.4271 -0.4747
32266SOL     OW99176   6.096  10.682   6.462 -0.1179  0.1822  0.2011
32266SOL    HW199177   6.087  10.633   6.381 -0.4962 -0.9731  0.9205
32266SOL    HW299178   6.059  10.625   6.529  2.3228  0.0638  1.5742
32267SOL     OW99179   2.130   1.476   8.795 -0.1340 -0.2327  0.2926
32267SOL    HW199180   2.165   1.557   8.757 -0.3624 -0.4032 -0.2978
32267SOL    HW299181   2.194   1.409   8.770 -1.1199 -0.6509 -1.2883
32268SOL     OW99182   2.768   7.852   0.674  0.1481 -0.7212  0.1793
32268SOL    HW199183   2.672   7.845   0.667  0.2645 -1.4852 -0.9903
32268SOL    HW299184   2.782   7.936   0.718 -1.0482  0.2037 -1.0719
32269SOL     OW99185   2.100   7.801  10.058 -0.8710  0.1301  0.1020
32269SOL    HW199186   2.175   7.765  10.106 -0.6964  1.1785  0.6417
32269SOL    HW299187   2.048   7.846  10.125 -1.7373 -0.1785 -0.3507
32270SOL     OW99188   6.737   3.307  10.245 -0.0060  0.3465  0.1571
32270SOL    HW199189   6.666   3.367  10.223 -1.4822 -0.3182  2.7135
32270SOL    HW299190   6.813   3.363  10.257  0.5757  0.9198 -4.4242
32271SOL     OW99191   5.696   5.019   3.845 -0.1436  0.1276 -0.3343
32271SOL    HW199192   5.784   5.056   3.845 -0.0480 -0.0409  0.8529
32271SOL    HW299193   5.709   4.924   3.840 -0.0142 -0.1847  3.2257
32272SOL     OW99194  10.309   1.067   4.587 -0.0810 -0.0457  0.8802
32272SOL    HW199195  10.289   1.110   4.504  1.4222 -1.7952 -0.4704
32272SOL    HW299196  10.251   0.990   4.588 -0.2901  0.1145  1.6013
32273SOL     OW99197   1.641   8.048   4.254  0.3736 -0.1411  0.1919
32273SOL    HW199198   1.601   8.125   4.214  2.3361  0.3848 -0.8653
32273SOL    HW299199   1.731   8.074   4.273 -0.0351 -0.8419  3.7567
32274SOL     OW99200   2.634   9.241   0.275  0.7278 -0.0467  0.4220
32274SOL    HW199201   2.653   9.150   0.253  0.2067 -0.0696  0.0346
32274SOL    HW299202   2.590   9.237   0.359  1.3855 -0.0871  0.7698
32275SOL     OW99203   2.543   3.674   1.500  0.3399  0.0280  0.3027
32275SOL    HW199204   2.547   3.738   1.571  1.5272 -0.8743  1.0984
32275SOL    HW299205   2.626   3.686   1.454  0.3022 -0.5282  0.0900
32276SOL     OW99206   2.458   3.443   8.975 -0.6988  0.0361 -0.0285
32276SOL    HW199207   2.428   3.356   8.953 -0.6999  0.2550 -0.9015
32276SOL    HW299208   2.429   3.456   9.066  2.3233 -2.2202  1.4648
32277SOL     OW99209   4.378   7.320   0.956  0.0237 -0.0932  0.2342
32277SOL    HW199210   4.386   7.255   0.887  0.2151 -1.2417  1.3044
32277SOL    HW299211   4.362   7.402   0.910  1.3332 -0.6070 -1.2346
32278SOL     OW99212   1.001   4.427   5.396 -0.2144 -0.4204 -0.9894
32278SOL    HW199213   0.994   4.520   5.374 -2.8500 -0.5014 -0.8296
32278SOL    HW299214   0.984   4.381   5.313  0.0557 -0.7652 -0.8595
32279SOL     OW99215   0.921   4.334  10.034  1.6123  0.3867 -0.1328
32279SOL    HW199216   0.915   4.403  10.101 -0.7749  1.5606 -1.4326
32279SOL    HW299217   0.869   4.367   9.961  0.2526 -2.8642 -0.7705
32280SOL     OW99218   3.385   6.586   4.628  0.3183 -0.0001 -0.4693
32280SOL    HW199219   3.468   6.538   4.632  1.3547  1.6895  3.3458
32280SOL    HW299220   3.326   6.527   4.581  1.9564 -4.3187  2.1980
32281SOL     OW99221   0.248   6.778   4.786 -0.5726 -0.5559 -0.0888
32281SOL    HW199222   0.336   6.740   4.787  0.4333  1.5905 -1.1685
32281SOL    HW299223   0.202   6.734   4.857  1.2631 -1.9574  0.3047
32282SOL     OW99224   7.373  10.546   0.064  0.0919  0.5264  0.2021
32282SOL    HW199225   7.423  10.586  -0.007 -0.6168  1.3580  0.1417
32282SOL    HW299226   7.429  10.477   0.099  0.7754  0.6515 -0.6342
32283SOL     OW99227   1.355   0.854   0.538 -0.1830 -0.1833 -0.1742
32283SOL    HW199228   1.266   0.829   0.513 -0.3618  0.2241  0.0234
32283SOL    HW299229   1.351   0.859   0.634 -0.9181  3.1368 -0.2486
32284SOL     OW99230   9.025   7.228   9.036 -0.4430  0.3629 -0.0235
32284SOL    HW199231   8.937   7.230   9.074 -0.2039 -1.2809  0.7151
32284SOL    HW299232   9.083   7.215   9.111  0.3435  0.4556 -0.6036
32285SOL     OW99233   6.878   8.444   0.638  0.8969 -0.7440 -0.3288
32285SOL    HW199234   6.867   8.371   0.576  0.1474  0.1037 -1.2275
32285SOL    HW299235   6.797   8.444   0.688  0.0822  0.5711 -1.5698
32286SOL     OW99236   2.951   4.933   7.385 -0.4904  0.6403 -0.2096
32286SOL    HW199237   3.022   4.964   7.440 -0.1773  0.5946 -0.5875
32286SOL    HW299238   2.959   4.983   7.304 -1.9894  1.9561  0.3957
32287SOL     OW99239  10.558   5.369   8.737  0.0954 -0.1527 -0.1312
32287SOL    HW199240  10.485   5.326   8.782  1.9523 -0.2769  3.0885
32287SOL    HW299241  10.579   5.444   8.792  1.8140  0.4113 -1.4749
32288SOL     OW99242   0.439   1.276   6.564 -0.9149 -0.0275  0.5800
32288SOL    HW199243   0.477   1.229   6.489 -2.5832  0.0345 -0.3582
32288SOL    HW299244   0.406   1.358   6.527 -1.7091  0.0325  1.3947
32289SOL     OW99245   5.986   3.283   2.148  0.3689  0.2720 -0.8130
32289SOL    HW199246   6.049   3.232   2.098 -1.2712 -0.1967 -2.5520
32289SOL    HW299247   5.918   3.306   2.084 -0.6129  1.7912  0.6760
32290SOL     OW99248   4.161   4.114   2.702 -0.0195  0.0258 -0.7580
32290SOL    HW199249   4.093   4.104   2.769 -1.3533  0.6655 -1.9869
32290SOL    HW299250   4.179   4.208   2.699  1.2082 -0.1598 -0.2156
32291SOL     OW99251   5.006   3.693   0.251  0.2012  0.2293 -0.1458
32291SOL    HW199252   5.085   3.747   0.258 -0.2741  0.7673  1.5791
32291SOL    HW299253   5.036   3.605   0.274  0.3983  0.3333  0.0002
32292SOL     OW99254   3.004   7.558   3.281  0.3815 -0.2921  0.3486
32292SOL    HW199255   3.063   7.483   3.292  2.0938  0.8653 -0.5228
32292SOL    HW299256   2.934   7.543   3.345  2.3596 -1.0130  2.4530
32293SOL     OW99257   3.013  10.719  10.099  0.0413  0.0909  0.0013
32293SOL    HW199258   2.956  10.786  10.063 -0.5881  0.0609  0.9160
32293SOL    HW299259   2.994  10.640  10.047 -0.5232  0.1619  0.0973
32294SOL     OW99260   2.846   1.635   3.519 -0.0709  0.1054  0.6114
32294SOL    HW199261   2.815   1.615   3.430  0.2183 -2.1667  0.9581
32294SOL    HW299262   2.784   1.700   3.552 -0.3602  0.7699 -1.1327
32295SOL     OW99263  10.509   6.544   2.688 -0.0879  0.4755  0.1748
32295SOL    HW199264  10.536   6.503   2.606  1.1538 -0.3739  0.9775
32295SOL    HW299265  10.426   6.587   2.667 -0.7287 -1.2540 -1.0794
32296SOL     OW99266   6.554   3.888   0.646  0.7581 -0.0703  0.2803
32296SOL    HW199267   6.567   3.982   0.634 -0.6351  0.0575 -0.3910
32296SOL    HW299268   6.529   3.856   0.559 -0.9020 -0.6746  0.9547
32297SOL     OW99269   4.192  10.576   5.982 -0.1931 -0.6095 -0.1844
32297SOL    HW199270   4.159  10.542   5.898 -0.2485  1.0729 -0.8853
32297SOL    HW299271   4.216  10.667   5.963  0.8282 -0.5202  1.3756
32298SOL     OW99272   3.559   3.767  10.610 -0.0223 -0.3997  0.6971
32298SOL    HW199273   3.524   3.726  10.531  1.0094  0.2986 -0.1586
32298SOL    HW299274   3.653   3.777  10.592 -0.0309  1.1503  1.3873
32299SOL     OW99275   4.976   3.515   6.572  0.0862  0.1150 -0.3205
32299SOL    HW199276   4.892   3.513   6.525 -0.0604  1.5805 -0.1534
32299SOL    HW299277   5.029   3.449   6.528 -0.8392 -0.1807 -1.0303
32300SOL     OW99278   9.252   4.184   0.136 -0.0261  0.3130  0.1618
32300SOL    HW199279   9.173   4.189   0.082 -0.5035 -1.1012  0.6957
32300SOL    HW299280   9.250   4.263   0.189 -0.9977  0.3671  0.0626
32301SOL     OW99281  10.648   4.895   9.109 -0.1356  0.5424 -0.9811
32301SOL    HW199282  10.637   4.984   9.074  0.2387  1.5882  1.3826
32301SOL    HW299283  10.665   4.908   9.202  0.1205 -2.0311 -0.6083
32302SOL     OW99284   5.289   2.877   0.022 -0.1742 -0.5236  0.0365
32302SOL    HW199285   5.377   2.898  -0.008 -0.6456  0.2998 -0.7979
32302SOL    HW299286   5.287   2.907   0.114  0.0921  0.4438 -0.2604
32303SOL     OW99287   9.916   9.319   7.326  0.2292  0.4778 -0.3093
32303SOL    HW199288   9.917   9.339   7.232 -1.3521  1.5760 -0.1270
32303SOL    HW299289   9.875   9.232   7.331  0.4849  0.3332 -0.6315
32304SOL     OW99290   7.273   1.146   0.984 -0.5239 -0.3886  0.3157
32304SOL    HW199291   7.281   1.097   1.066 -2.4036  0.4784  1.0855
32304SOL    HW299292   7.277   1.238   1.010 -0.5351 -0.0952 -0.6594
32305SOL     OW99293   8.412   4.330   3.465 -0.2118  0.7272  0.1533
32305SOL    HW199294   8.410   4.348   3.371  1.4388  0.8849  0.1104
32305SOL    HW299295   8.322   4.344   3.495 -0.5333  1.7562 -1.2009
32306SOL     OW99296   2.266   7.710   6.266  0.4038  0.0661  0.2167
32306SOL    HW199297   2.343   7.684   6.317  0.1358  0.2007  0.6945
32306SOL    HW299298   2.286   7.683   6.176  0.2290 -1.5792  0.6544
32307SOL     OW99299   5.356   7.665   9.958  0.0240  0.2201 -0.2361
32307SOL    HW199300   5.442   7.706   9.953 -0.3373  0.9494 -0.5809
32307SOL    HW299301   5.329   7.678  10.049  1.3817 -2.3397  0.6357
32308SOL     OW99302   0.304   3.592  10.718  0.0076 -0.2077  0.3711
32308SOL    HW199303   0.355   3.518  10.749 -0.5451 -0.1964  1.3343
32308SOL    HW299304   0.245   3.555  10.653 -0.3873 -0.6434  0.9746
32309SOL     OW99305   7.818   6.061   8.744  0.1595 -0.8719  0.3182
32309SOL    HW199306   7.774   6.113   8.811 -0.9072 -0.6252 -0.5389
32309SOL    HW299307   7.911   6.082   8.753  0.1725 -1.5907  2.3429
32310SOL     OW99308   9.410   8.872   9.335  0.0959 -0.0041 -0.0060
32310SOL    HW199309   9.465   8.810   9.287  0.1684 -0.3375  0.5016
32310SOL    HW299310   9.471   8.918   9.392 -0.1775 -0.5817  0.7775
32311SOL     OW99311   6.154   6.706   6.749 -0.1239  0.5893 -0.1436
32311SOL    HW199312   6.158   6.624   6.798 -0.0041  0.8383  0.2714
32311SOL    HW299313   6.065   6.710   6.716 -0.1844  0.3814 -0.0052
32312SOL     OW99314   9.704   8.181   6.833  0.1928  0.0859  0.2385
32312SOL    HW199315   9.735   8.272   6.829 -0.6939  0.4740  1.7633
32312SOL    HW299316   9.614   8.187   6.866  0.0385 -1.3359  0.1430
32313SOL     OW99317   6.738   5.498   3.985 -0.3133 -0.1406  0.6358
32313SOL    HW199318   6.681   5.423   3.969  0.6464 -0.9557  0.9353
32313SOL    HW299319   6.683   5.574   3.966 -0.6607 -0.9132 -1.9974
32314SOL     OW99320   3.484   7.309   3.117  0.2189  0.2965  0.5170
32314SOL    HW199321   3.444   7.223   3.105 -0.6052  0.8116 -0.6760
32314SOL    HW299322   3.412   7.367   3.141  0.6432  0.7959  0.6203
32315SOL     OW99323   3.464   2.068   9.347  0.0830  0.3285  0.2703
32315SOL    HW199324   3.492   1.997   9.405  1.0025 -1.3209 -2.0724
32315SOL    HW299325   3.524   2.140   9.367  0.9336 -0.4917  0.7685
32316SOL     OW99326   8.850   8.440   1.642  0.0303 -0.1736  0.0911
32316SOL    HW199327   8.847   8.353   1.683  0.6166 -0.2824 -0.0810
32316SOL    HW299328   8.944   8.460   1.635 -0.0052 -0.4306 -1.7317
32317SOL     OW99329   8.541   3.530   8.807  0.3041 -0.0483  0.2009
32317SOL    HW199330   8.514   3.438   8.796  1.2966 -0.2396 -0.8181
32317SOL    HW299331   8.459   3.576   8.825 -0.2181 -1.1315  0.7403
32318SOL     OW99332  10.185   1.692   4.772 -0.4035 -0.2090  0.1121
32318SOL    HW199333  10.117   1.736   4.721  0.3974 -1.7972 -2.5220
32318SOL    HW299334  10.149   1.688   4.861 -2.0033  2.4616 -0.2829
32319SOL     OW99335   0.321   9.155   8.789  0.1754  0.3462  0.6581
32319SOL    HW199336   0.344   9.100   8.864 -1.3652  0.1636  1.0203
32319SOL    HW299337   0.324   9.244   8.823 -0.1983  0.2843  0.8598
32320SOL     OW99338   1.877   7.710   6.204 -0.2800 -0.0455  0.0642
32320SOL    HW199339   1.842   7.669   6.283 -0.6347 -2.3149 -1.1681
32320SOL    HW299340   1.801   7.720   6.146  0.4047 -1.3432 -1.1351
32321SOL     OW99341   6.533   1.432   7.634  0.8982  0.3930  0.6032
32321SOL    HW199342   6.616   1.463   7.597  1.0232  0.2703  0.7795
32321SOL    HW299343   6.526   1.341   7.603  0.2789  0.7522 -0.3481
32322SOL     OW99344  10.252   4.906   6.219 -0.2249 -0.3621  0.1774
32322SOL    HW199345  10.293   4.914   6.133  0.9288  0.3982  0.7696
32322SOL    HW299346  10.186   4.837   6.208  1.1157 -1.5584 -0.8675
32323SOL     OW99347   7.724   0.950   8.494 -0.0239 -0.0077 -0.1101
32323SOL    HW199348   7.641   0.996   8.506  0.4578  0.6192  0.9502
32323SOL    HW299349   7.751   0.926   8.583 -0.4586 -2.7454 -0.6117
32324SOL     OW99350  10.187   8.217   5.306 -0.6684 -0.3593  0.4288
32324SOL    HW199351  10.100   8.178   5.317 -0.7715  0.1507  1.4895
32324SOL    HW299352  10.230   8.161   5.241 -0.6215 -2.5317  2.2401
32325SOL     OW99353   4.844  10.496   2.480 -0.4946 -0.8573  0.1155
32325SOL    HW199354   4.817  10.452   2.561 -0.4701  0.1460  0.6875
32325SOL    HW299355   4.785  10.571   2.472  2.0074  1.4312  1.4434
32326SOL     OW99356   5.372   6.107   5.964 -0.7793 -0.5710  0.3239
32326SOL    HW199357   5.403   6.197   5.968 -0.4273 -0.7226  1.4715
32326SOL    HW299358   5.372   6.085   5.871 -1.1787  0.7097  0.0035
32327SOL     OW99359   5.039   2.689   2.384  0.0954 -0.2499  0.1250
32327SOL    HW199360   4.953   2.686   2.342  0.5127  0.8748 -0.8849
32327SOL    HW299361   5.089   2.619   2.342  0.6945  1.2357 -1.7819
32328SOL     OW99362   2.221   6.033  10.041 -0.0267  0.0274 -0.0281
32328SOL    HW199363   2.239   5.948  10.002  2.8033 -0.3035  1.7783
32328SOL    HW299364   2.277   6.038  10.118 -1.6412  2.7016  1.1553
32329SOL     OW99365   4.641   8.765   5.198 -0.3408 -0.0706 -0.6312
32329SOL    HW199366   4.592   8.789   5.119 -1.1423 -1.8592 -0.7453
32329SOL    HW299367   4.599   8.813   5.269  0.3524  1.5159 -1.2652
32330SOL     OW99368   0.808   2.423   9.806  0.2950  0.0340  0.1328
32330SOL    HW199369   0.770   2.372   9.877  1.3443 -0.0350  0.6592
32330SOL    HW299370   0.849   2.498   9.849  1.8812 -0.5635 -0.2765
32331SOL     OW99371   3.304   7.267   7.733  0.0814  0.1036 -0.7815
32331SOL    HW199372   3.388   7.233   7.764 -0.6787 -0.8696  0.3146
32331SOL    HW299373   3.324   7.305   7.647  1.4763 -0.9054 -0.9504
32332SOL     OW99374   6.669   2.486   0.596  0.0189  0.4039  0.0137
32332SOL    HW199375   6.714   2.426   0.536  0.9632 -0.2084  1.2781
32332SOL    HW299376   6.582   2.497   0.558  0.8354  0.7001 -1.8904
32333SOL     OW99377   4.685   5.696   6.231 -0.3474  0.2652  0.1553
32333SOL    HW199378   4.728   5.718   6.314 -2.1838  0.1091  1.1906
32333SOL    HW299379   4.748   5.723   6.164  0.4991  1.9325  1.5480
32334SOL     OW99380   8.738   1.816   3.646 -0.5141 -0.2288 -0.4424
32334SOL    HW199381   8.644   1.797   3.640 -0.2482 -1.3983 -1.4733
32334SOL    HW299382   8.749   1.858   3.731 -1.6448 -2.2419  0.7713
32335SOL     OW99383   2.478   6.888  10.042  0.2649 -0.3607 -0.2057
32335SOL    HW199384   2.405   6.829  10.018 -1.1282  1.6838 -1.3230
32335SOL    HW299385   2.553   6.852   9.995  0.0260 -2.4491  0.8518
32336SOL     OW99386   2.525   6.910   1.208  0.1047  0.0382 -0.1696
32336SOL    HW199387   2.512   6.979   1.143 -1.2473 -0.8269 -0.8631
32336SOL    HW299388   2.466   6.933   1.280  0.2367  0.0227 -0.0559
32337SOL     OW99389   5.451   1.383   7.643 -0.1372 -0.3033  0.9078
32337SOL    HW199390   5.484   1.402   7.556  0.7408 -1.0060  1.0747
32337SOL    HW299391   5.409   1.465   7.671  1.0263  0.4555  0.4935
32338SOL     OW99392   5.193   8.689   8.866  0.3567  0.0795  0.3552
32338SOL    HW199393   5.267   8.654   8.916 -1.0475 -1.9567  1.0947
32338SOL    HW299394   5.193   8.783   8.888  2.3571  0.0421  0.7534
32339SOL     OW99395   9.642   0.855   8.823  0.4679  0.4136  0.5406
32339SOL    HW199396   9.578   0.907   8.775 -0.2005  0.2830  1.2702
32339SOL    HW299397   9.691   0.919   8.875  2.3607  0.7878 -1.5135
32340SOL     OW99398  10.465   4.431   1.719  0.1030 -0.0926  0.3151
32340SOL    HW199399  10.549   4.477   1.716 -0.4588  1.1247  1.7903
32340SOL    HW299400  10.473   4.373   1.795 -0.6773  0.7093  1.0418
32341SOL     OW99401   7.727   6.284   9.662  0.2243 -0.1026 -0.2849
32341SOL    HW199402   7.787   6.328   9.722 -0.8392  0.0854  0.6711
32341SOL    HW299403   7.692   6.210   9.712 -2.2103  1.2060  0.1202
32342SOL     OW99404   3.523   7.857   3.224  0.6201  0.0382 -0.1458
32342SOL    HW199405   3.537   7.822   3.312  1.5619  2.8532  0.9189
32342SOL    HW299406   3.595   7.821   3.172  0.8210 -0.5766  0.5389
32343SOL     OW99407   0.844   7.503   0.847  0.4352 -0.6661 -0.1927
32343SOL    HW199408   0.776   7.568   0.826  1.3709  0.2863 -0.3608
32343SOL    HW299409   0.899   7.547   0.912  0.3526 -1.7901  0.6764
32344SOL     OW99410   1.141   6.061   9.287 -0.1305 -0.0104 -0.2703
32344SOL    HW199411   1.203   5.989   9.295 -2.3144 -1.9162  0.7774
32344SOL    HW299412   1.177   6.132   9.340  2.0451 -0.3010 -1.2790
32345SOL     OW99413   4.930   5.641   9.010 -0.0699  0.3770 -0.0033
32345SOL    HW199414   4.966   5.721   9.048  0.3232  0.1245  0.1612
32345SOL    HW299415   4.868   5.610   9.075 -0.8115  0.9697 -0.4155
32346SOL     OW99416   8.540   5.716   3.051 -0.5748  0.0414 -0.7758
32346SOL    HW199417   8.567   5.697   2.961 -0.6952 -1.4651 -0.5187
32346SOL    HW299418   8.487   5.795   3.043 -0.3325  0.1137 -1.9841
32347SOL     OW99419   9.770   2.448   5.523 -0.2449  0.0438 -0.5854
32347SOL    HW199420   9.771   2.439   5.428 -1.5069 -1.0079 -0.5153
32347SOL    HW299421   9.825   2.376   5.555 -0.8200 -0.3463 -0.4725
32348SOL     OW99422   6.467   5.102   8.387  0.1676 -0.5636  0.3514
32348SOL    HW199423   6.461   5.194   8.412  0.3319 -0.2200 -0.7943
32348SOL    HW299424   6.558   5.078   8.404  0.0911 -0.5555  0.7755
32349SOL     OW99425   0.142   4.475   2.087 -0.2676  0.1255  0.7145
32349SOL    HW199426   0.161   4.563   2.057  0.5814  0.0239  0.9418
32349SOL    HW299427   0.115   4.428   2.008 -0.3804  0.4931  0.5330
32350SOL     OW99428   9.059   5.768   7.042  0.4196 -0.0708 -0.7717
32350SOL    HW199429   9.004   5.818   7.102  2.5138  0.4481  0.8490
32350SOL    HW299430   9.067   5.823   6.964 -0.2403  0.4443 -0.4800
32351SOL     OW99431   0.827   8.114  10.084 -0.3171 -0.0490  0.5539
32351SOL    HW199432   0.830   8.119   9.989 -1.0836  0.9537  0.5573
32351SOL    HW299433   0.870   8.194  10.114  0.8829 -0.8635  1.0896
32352SOL     OW99434   9.817   2.440   2.187 -0.5200 -0.0505 -0.5966
32352SOL    HW199435   9.782   2.411   2.102  1.7955 -2.0484 -0.9852
32352SOL    HW299436   9.890   2.497   2.164 -0.6500  0.3996  0.0957
32353SOL     OW99437   4.452  10.071   9.469  0.4900  0.1359 -0.1660
32353SOL    HW199438   4.361  10.094   9.483  0.9559  1.6953  0.5284
32353SOL    HW299439   4.474  10.108   9.384  1.0443  1.7381  0.6362
32354SOL     OW99440   4.056  10.644   0.601  0.7639  0.1220  0.0422
32354SOL    HW199441   4.139  10.599   0.615  1.0317  0.2382 -1.0443
32354SOL    HW299442   4.020  10.658   0.689  2.2902  0.8173  0.5898
32355SOL     OW99443   0.370   9.948   5.097 -0.3257 -0.0088  0.2305
32355SOL    HW199444   0.316  10.021   5.128  0.2954  0.4289  0.2982
32355SOL    HW299445   0.323   9.914   5.021 -0.9135  0.0937  0.5406
32356SOL     OW99446   0.200   8.330   9.272 -0.6258 -0.5385 -1.0392
32356SOL    HW199447   0.204   8.243   9.233  0.4716  0.1194 -2.5187
32356SOL    HW299448   0.267   8.380   9.225  0.5066  0.4644  1.4409
32357SOL     OW99449   5.640   1.493   8.714  0.0602 -0.5179  0.3047
32357SOL    HW199450   5.660   1.420   8.772  1.0511  0.1032  0.7716
32357SOL    HW299451   5.709   1.557   8.732 -1.9332  1.4267  1.4366
32358SOL     OW99452   2.917   0.502   4.479  0.0823  0.0210  0.2061
32358SOL    HW199453   2.890   0.506   4.571 -1.5652 -0.3849 -0.2382
32358SOL    HW299454   2.888   0.586   4.442  1.7503  0.6813  0.2715
32359SOL     OW99455   1.557   1.883   7.729 -0.6526  0.7338 -0.0921
32359SOL    HW199456   1.639   1.835   7.720 -1.2546 -0.5449  0.8596
32359SOL    HW299457   1.571   1.942   7.804 -0.1361  1.5875 -0.8437
32360SOL     OW99458   1.540   9.868   1.259  0.5227  0.7199 -0.3394
32360SOL    HW199459   1.507   9.852   1.171 -1.8381  0.4817  0.5191
32360SOL    HW299460   1.603   9.939   1.249 -0.9613  1.8819 -2.0120
32361SOL     OW99461   4.256   4.229   3.030  0.5871 -0.2262 -0.2284
32361SOL    HW199462   4.166   4.261   3.023  0.5424 -0.5447 -1.4031
32361SOL    HW299463   4.310   4.298   2.990  0.4100 -1.8155 -3.5867
32362SOL     OW99464   9.587  10.068   9.159  0.4578 -0.6499 -0.4169
32362SOL    HW199465   9.656  10.133   9.168 -1.0114  0.8681  0.4414
32362SOL    HW299466   9.566  10.067   9.066  1.0760 -0.5444 -0.5604
32363SOL     OW99467   4.917   2.936   4.624  0.9168 -0.3842 -0.6203
32363SOL    HW199468   4.861   2.872   4.669  0.2014  0.1714 -0.7074
32363SOL    HW299469   4.930   3.005   4.688 -0.5889  0.6983 -1.4087
32364SOL     OW99470   4.802   5.430   1.807 -0.2156 -0.0098 -0.1673
32364SOL    HW199471   4.855   5.467   1.878 -0.6839 -1.0932  0.7745
32364SOL    HW299472   4.765   5.506   1.763 -0.5655  0.6801  1.2616
32365SOL     OW99473   8.620   5.798   1.375 -0.0641  0.2337  0.0459
32365SOL    HW199474   8.649   5.758   1.457  0.8459 -0.3811 -0.5531
32365SOL    HW299475   8.553   5.738   1.342 -0.0658  0.2057  0.1000
32366SOL     OW99476   9.680   8.574   3.973 -0.1850 -0.1806  0.2962
32366SOL    HW199477   9.761   8.560   3.925 -0.0898  0.9786  0.0849
32366SOL    HW299478   9.616   8.597   3.906 -0.8089 -1.4807  0.4159
32367SOL     OW99479   2.573   9.740   5.516 -0.2118 -0.1078 -0.0094
32367SOL    HW199480   2.591   9.825   5.477 -1.9076  1.5409  2.4840
32367SOL    HW299481   2.548   9.684   5.443 -0.2488  1.8739 -1.5857
32368SOL     OW99482   4.593   6.077   3.955 -0.4259  0.1962  0.2447
32368SOL    HW199483   4.564   5.990   3.927  1.1085 -0.5814  0.9729
32368SOL    HW299484   4.512   6.124   3.975 -1.4444 -0.1963 -2.4871
32369SOL     OW99485   0.511   5.260   8.979  0.0244  0.5584  0.3185
32369SOL    HW199486   0.604   5.277   8.969 -0.0080  0.3869 -0.3556
32369SOL    HW299487   0.490   5.290   9.067  0.8188  0.1106  0.6660
32370SOL     OW99488   2.980   2.536  10.776 -0.0044  0.0174 -0.0052
32370SOL    HW199489   2.982   2.480  10.699 -1.4721 -0.3513  0.1861
32370SOL    HW299490   3.029   2.614  10.751 -0.1898 -0.2296 -1.2090
32371SOL     OW99491   9.705   1.495   1.638  0.2556 -0.5542  0.5447
32371SOL    HW199492   9.714   1.538   1.723 -1.9216  2.4463 -0.5436
32371SOL    HW299493   9.768   1.540   1.582 -0.1098 -0.7115 -0.0003
32372SOL     OW99494   2.304   7.759  10.232 -0.0678 -0.2604 -0.7143
32372SOL    HW199495   2.339   7.720  10.312 -0.5962  1.6711  0.5223
32372SOL    HW299496   2.379   7.804  10.193 -0.6960  2.9065  1.3370
32373SOL     OW99497   8.745   9.002   4.324  0.2752  0.3332  0.2397
32373SOL    HW199498   8.682   9.039   4.262  0.4532  1.0116  0.4556
32373SOL    HW299499   8.695   8.992   4.405 -0.1229 -1.1125 -0.1505
32374SOL     OW99500   5.902   1.977   0.076  0.0465  0.4910  0.2006
32374SOL    HW199501   5.866   1.981   0.164 -0.8616 -3.1108  0.1669
32374SOL    HW299502   5.825   1.975   0.019  0.4523 -1.1787 -0.3303
32375SOL     OW99503   3.340   9.920   2.762 -0.0502  0.1888 -0.1462
32375SOL    HW199504   3.351   9.838   2.809  2.2344 -0.9441 -2.4081
32375SOL    HW299505   3.252   9.915   2.724  0.4217 -1.7608 -1.0962
32376SOL     OW99506   6.606   8.406   7.677  0.3638  0.2743  0.2381
32376SOL    HW199507   6.554   8.474   7.719  1.2435  0.9900  0.2077
32376SOL    HW299508   6.672   8.454   7.626  1.3790 -0.5801  0.6926
32377SOL     OW99509   8.971   5.106   5.621 -0.0136 -0.3172 -0.2357
32377SOL    HW199510   8.979   5.048   5.546  0.8294 -1.5547  0.7930
32377SOL    HW299511   9.060   5.135   5.640 -0.4980  2.3138 -1.4302
32378SOL     OW99512   3.013   4.398   9.369  0.6531 -0.7547  0.8076
32378SOL    HW199513   3.100   4.388   9.332  0.7811 -0.1201  0.9121
32378SOL    HW299514   2.979   4.309   9.379  1.3819 -1.0146  0.9915
32379SOL     OW99515   4.496   3.913   9.221  0.2513  0.2572  0.2815
32379SOL    HW199516   4.587   3.882   9.224 -0.2359 -1.1444  1.8785
32379SOL    HW299517   4.504   4.008   9.230  1.5653  0.1647  0.3724
32380SOL     OW99518   9.510   6.156   7.315  0.0731 -0.3772 -0.1103
32380SOL    HW199519   9.571   6.230   7.312 -0.7090  0.2565 -1.1454
32380SOL    HW299520   9.566   6.079   7.330  0.8910  0.4157  0.9983
32381SOL     OW99521   4.998   4.706   0.240  0.0134  0.4341 -0.0627
32381SOL    HW199522   4.994   4.795   0.276  1.2271  0.3077  0.4104
32381SOL    HW299523   5.089   4.695   0.213  0.2708 -1.2327  1.3390
32382SOL     OW99524   7.952   1.103   5.305  0.4786 -0.2568 -0.4169
32382SOL    HW199525   7.987   1.106   5.216  2.0195  0.0740  0.1618
32382SOL    HW299526   7.963   1.192   5.338  2.9902 -1.0442  1.1577
32383SOL     OW99527   2.067   2.982   2.054 -0.0009 -0.5280  0.0973
32383SOL    HW199528   2.132   2.947   2.115  0.4511  0.6019  0.3093
32383SOL    HW299529   1.998   3.018   2.109 -0.8431 -1.7313 -0.1295
32384SOL     OW99530   8.470   2.902   5.781  0.3028 -0.1825 -0.5513
32384SOL    HW199531   8.383   2.924   5.812  0.9480  1.3059  0.3132
32384SOL    HW299532   8.472   2.806   5.778 -0.9039 -0.2650  0.6910
32385SOL     OW99533   0.961   8.887   4.872 -0.3693 -0.3028 -0.2486
32385SOL    HW199534   0.890   8.823   4.874  0.9709 -1.8778 -0.3026
32385SOL    HW299535   0.984   8.894   4.780  0.2752 -0.6984 -0.1287
32386SOL     OW99536   8.269   5.162   5.036  0.1599  0.2419  0.4806
32386SOL    HW199537   8.188   5.112   5.045  0.5317 -0.6917 -0.8967
32386SOL    HW299538   8.317   5.145   5.117  0.7928 -2.6908 -0.3859
32387SOL     OW99539   3.023   4.515   6.925  0.2286 -0.0923  0.6889
32387SOL    HW199540   2.967   4.575   6.974 -1.7913 -0.5617 -0.8990
32387SOL    HW299541   3.053   4.566   6.849 -0.6476 -0.7144 -0.1109
32388SOL     OW99542   5.792   4.124   8.003  0.1093 -0.4875  0.1720
32388SOL    HW199543   5.745   4.129   8.086  0.6501 -1.0183  0.5159
32388SOL    HW299544   5.872   4.076   8.023  0.0827 -0.9309 -0.7291
32389SOL     OW99545   2.771   9.623   4.679  0.1286  0.7325 -0.5594
32389SOL    HW199546   2.745   9.715   4.688 -0.3885  0.5429 -0.0531
32389SOL    HW299547   2.710   9.575   4.736  0.6165  0.1149 -0.5483
32390SOL     OW99548   6.016   4.371   4.890 -0.0286 -0.6726 -0.0312
32390SOL    HW199549   5.975   4.357   4.975 -0.7475 -0.6639 -0.3653
32390SOL    HW299550   5.960   4.436   4.847  1.6170  1.1243  0.3736
32391SOL     OW99551   4.774   5.826   6.451  0.6358 -0.3766 -0.2715
32391SOL    HW199552   4.750   5.917   6.430  0.2873 -0.5883 -0.8326
32391SOL    HW299553   4.824   5.832   6.532  0.0730  0.2574  0.0369
32392SOL     OW99554   9.114   2.418   8.057 -0.6296 -0.0812 -0.3152
32392SOL    HW199555   9.126   2.501   8.102 -2.1085  0.2503 -0.4723
32392SOL    HW299556   9.051   2.371   8.112 -1.0388 -0.4253 -1.0745
32393SOL     OW99557   8.741   7.656   7.281  0.1080 -0.0399 -0.2639
32393SOL    HW199558   8.680   7.701   7.339 -0.2221  2.2635 -2.2261
32393SOL    HW299559   8.704   7.568   7.270 -0.9957  0.2101  1.2175
32394SOL     OW99560   9.711  10.127   2.981  0.0708 -0.1814 -1.2858
32394SOL    HW199561   9.637  10.099   3.035  0.7713  0.0221 -0.1885
32394SOL    HW299562   9.705  10.073   2.902 -0.2061 -1.4433 -0.4248
32395SOL     OW99563   8.041   5.295   6.035 -0.1968  0.1987  0.1054
32395SOL    HW199564   8.087   5.214   6.012  1.3201  1.1389 -0.3665
32395SOL    HW299565   7.979   5.308   5.963  1.0212  0.5027 -0.9471
32396SOL     OW99566   1.607   2.296   7.152 -0.4082 -1.0351 -0.1087
32396SOL    HW199567   1.630   2.261   7.066 -0.8061  0.2824 -0.7688
32396SOL    HW299568   1.673   2.363   7.169  0.2503 -1.9582  1.0665
32397SOL     OW99569   4.571   8.031   2.565 -0.1769  0.4193  0.0611
32397SOL    HW199570   4.628   8.098   2.526 -1.0265  1.1452  0.0489
32397SOL    HW299571   4.498   8.080   2.602 -0.4117 -0.4442  0.7620
32398SOL     OW99572   5.353   8.138   6.945 -0.5453  0.0695  0.0439
32398SOL    HW199573   5.298   8.189   6.885 -0.1797  0.4003 -0.0076
32398SOL    HW299574   5.297   8.122   7.021 -0.3091  1.5082  0.5568
32399SOL     OW99575   4.674   0.832   3.785  0.4713  0.4224  0.1837
32399SOL    HW199576   4.741   0.895   3.759  0.0827  0.0453 -1.9258
32399SOL    HW299577   4.616   0.880   3.844  0.8171  1.7125 -0.5037
32400SOL     OW99578   7.815   8.100   7.946 -0.1338 -0.0625  0.1033
32400SOL    HW199579   7.850   8.119   8.033 -0.0072  1.1316 -0.2007
32400SOL    HW299580   7.855   8.165   7.888 -0.8022 -0.3600 -0.7275
32401SOL     OW99581   7.099   2.258   3.311  0.0113 -0.3363 -0.7251
32401SOL    HW199582   7.134   2.191   3.370 -1.0520 -0.3744 -0.1096
32401SOL    HW299583   7.073   2.209   3.233  2.0933 -0.1889 -1.5793
32402SOL     OW99584   6.366   5.135   4.049 -0.1294  0.1595  0.1349
32402SOL    HW199585   6.387   5.183   3.969 -1.1589  1.7403  0.7659
32402SOL    HW299586   6.448   5.135   4.100  0.0634  0.6408 -0.1747
32403SOL     OW99587   1.133   6.348   9.086 -0.0246  0.3501 -0.6646
32403SOL    HW199588   1.108   6.399   9.163 -1.5389  1.0323 -1.5789
32403SOL    HW299589   1.064   6.364   9.022  0.7699 -0.8610 -1.8901
32404SOL     OW99590   3.929  10.522   8.116  0.0760  0.1756 -0.0688
32404SOL    HW199591   3.952  10.505   8.207  1.6446  2.0557 -0.0436
32404SOL    HW299592   3.872  10.599   8.120  0.4335  0.4825 -0.6909
32405SOL     OW99593  10.204   0.180   0.989 -0.4785 -0.1833 -0.1621
32405SOL    HW199594  10.159   0.258   0.955 -0.3202  0.1359  0.3398
32405SOL    HW299595  10.291   0.211   1.012 -0.2449 -0.6309 -0.4352
32406SOL     OW99596   6.150   9.099   6.265 -0.1365 -0.6420 -0.6376
32406SOL    HW199597   6.057   9.108   6.245 -0.3491  0.1055  0.5888
32406SOL    HW299598   6.155   9.018   6.317 -0.7354  1.1835  2.5422
32407SOL     OW99599   5.606   6.180   5.669 -0.0172 -0.4519 -0.2523
32407SOL    HW199600   5.697   6.154   5.657 -0.0066 -0.8158  0.5670
32407SOL    HW299601   5.568   6.176   5.581  0.8787  0.1906 -0.6850
32408SOL     OW99602   5.436   4.024   2.013 -0.3785 -0.0064  0.1794
32408SOL    HW199603   5.466   4.111   1.984  1.2710 -0.7975 -0.6207
32408SOL    HW299604   5.345   4.038   2.039  0.0249  2.1088  0.7190
32409SOL     OW99605   0.725   4.895   4.416  0.9469 -0.3741 -0.2920
32409SOL    HW199606   0.727   4.800   4.429 -0.4296 -0.5567 -1.1078
32409SOL    HW299607   0.815   4.919   4.394  0.8530 -1.9798 -2.9182
32410SOL     OW99608   7.127   0.904  10.544 -0.1399  0.0281  0.5047
32410SOL    HW199609   7.187   0.877  10.614 -0.9351  0.6380  1.4615
32410SOL    HW299610   7.182   0.952  10.482  1.2879 -3.4659 -1.1801
32411SOL     OW99611   7.882   8.114   8.240  0.3073 -0.1142  0.3693
32411SOL    HW199612   7.942   8.126   8.313 -1.5850 -0.2798  2.0315
32411SOL    HW299613   7.818   8.049   8.271 -0.8762  0.2102 -1.2287
32412SOL     OW99614   1.251   4.130   6.951 -0.1233  0.4229  0.3683
32412SOL    HW199615   1.226   4.207   6.899  0.9207 -0.3785 -1.4513
32412SOL    HW299616   1.290   4.070   6.887 -0.2488 -1.3337  1.8478
32413SOL     OW99617   9.414   4.386   4.488 -0.1566 -0.3348  0.2641
32413SOL    HW199618   9.418   4.290   4.484 -0.6556 -0.3085 -1.8936
32413SOL    HW299619   9.496   4.416   4.450  0.0357  0.1256  1.0091
32414SOL     OW99620   7.478   4.894   6.503 -0.1475 -0.1541  0.1266
32414SOL    HW199621   7.497   4.857   6.589 -0.6999 -2.1304 -0.5400
32414SOL    HW299622   7.382   4.900   6.500 -0.0741  2.6900  0.6855
32415SOL     OW99623   3.891  10.045   5.866  0.7029 -0.0112 -0.1663
32415SOL    HW199624   3.978  10.083   5.854  0.2829  2.1322  2.4777
32415SOL    HW299625   3.879  10.043   5.961 -3.0374  2.1177 -0.4115
32416SOL     OW99626   4.914   2.248  10.307  0.5367  0.4488  0.2042
32416SOL    HW199627   5.010   2.241  10.307  0.5805  0.7343 -1.5303
32416SOL    HW299628   4.884   2.157  10.306  0.8359  0.3487 -1.5421
32417SOL     OW99629   6.869   0.188   5.189 -0.0052  0.5107 -0.4391
32417SOL    HW199630   6.922   0.204   5.267 -0.2245  0.5847 -0.3044
32417SOL    HW299631   6.786   0.233   5.206  0.5132  1.9102 -1.3866
32418SOL     OW99632   4.600   4.767   7.180 -0.8610  0.5048  0.0355
32418SOL    HW199633   4.511   4.781   7.148 -0.9334 -0.2661 -0.1160
32418SOL    HW299634   4.644   4.851   7.165 -1.6427  0.9957  0.4117
32419SOL     OW99635   9.088   9.977   4.257  0.1081  0.3774  0.4113
32419SOL    HW199636   9.036   9.978   4.337  0.7406  0.1527  0.8367
32419SOL    HW299637   9.056  10.051   4.206  0.7426  1.4695  1.5498
32420SOL     OW99638   5.709   6.230   2.797  0.5634  0.4037 -0.1608
32420SOL    HW199639   5.618   6.240   2.770  0.6163 -0.4645 -0.7027
32420SOL    HW299640   5.724   6.135   2.795  1.6459  0.5710 -0.6285
32421SOL     OW99641   8.759   9.685   0.211 -0.6729  0.8352  0.0925
32421SOL    HW199642   8.669   9.715   0.197 -0.7769  0.3681 -0.2616
32421SOL    HW299643   8.782   9.719   0.298 -1.0070  1.3938 -0.0272
32422SOL     OW99644   9.867   5.942   2.811  0.4429  0.4201  0.9227
32422SOL    HW199645   9.848   5.850   2.831 -1.2561  0.7413  0.9005
32422SOL    HW299646   9.959   5.953   2.836  0.1602 -0.8028  2.6863
32423SOL     OW99647   7.619   9.206   0.371  0.3005  0.1698 -0.5329
32423SOL    HW199648   7.666   9.287   0.390  0.6430 -0.5225  2.0068
32423SOL    HW299649   7.576   9.183   0.454 -0.8458 -1.5812 -1.5364
32424SOL     OW99650   7.361   2.161   9.102 -0.2588  0.3778  0.0516
32424SOL    HW199651   7.315   2.150   9.186 -0.3253  1.7429  0.2248
32424SOL    HW299652   7.299   2.128   9.037 -0.8233  0.6466  0.4309
32425SOL     OW99653   3.149   6.462  10.153 -0.0463  0.1932  0.6853
32425SOL    HW199654   3.191   6.545  10.173 -0.4864  0.0052  2.6315
32425SOL    HW299655   3.084   6.451  10.223 -1.3122 -0.8893 -0.6048
32426SOL     OW99656  10.562  10.748   8.090 -0.0625 -0.4238  0.0146
32426SOL    HW199657  10.548  10.732   8.183  0.7159  1.0222  0.4038
32426SOL    HW299658  10.627  10.683   8.064 -0.4860 -1.0119  0.4082
32427SOL     OW99659   4.282   7.731   9.258  0.2623 -0.0187  0.0723
32427SOL    HW199660   4.305   7.798   9.192 -2.8499  0.0649 -1.1027
32427SOL    HW299661   4.324   7.651   9.226  2.1854  0.8213  0.2974
32428SOL     OW99662   4.386   4.069   7.141 -0.2023  0.0068 -0.4630
32428SOL    HW199663   4.474   4.053   7.107 -0.5029 -0.8167 -0.8717
32428SOL    HW299664   4.389   4.036   7.231  0.8667  3.0271  0.7410
32429SOL     OW99665   4.815   3.352   1.992 -0.2077  0.1373  0.3948
32429SOL    HW199666   4.880   3.422   1.998  0.1881 -0.3147  1.6199
32429SOL    HW299667   4.825   3.303   2.073  0.6936 -2.3773 -1.1060
32430SOL     OW99668   5.090   8.996   8.638  0.1485  0.0760  0.0808
32430SOL    HW199669   5.055   9.031   8.720  0.2907  1.5158 -0.4452
32430SOL    HW299670   5.043   8.914   8.625  1.2415 -0.9973  2.3863
32431SOL     OW99671   5.228   3.212   0.070 -0.1218 -0.3784 -0.9868
32431SOL    HW199672   5.193   3.123   0.076  1.8867 -1.1724 -0.0867
32431SOL    HW299673   5.280   3.222   0.149 -0.2889  1.6120 -1.0969
32432SOL     OW99674   3.975   1.030   9.380  0.4674  0.0144  0.2766
32432SOL    HW199675   3.949   1.050   9.290 -1.5777 -1.2730  0.5270
32432SOL    HW299676   3.945   1.106   9.431 -0.5346 -0.3080  0.1879
32433SOL     OW99677   1.451  10.497   3.096  0.0444  0.0688  0.1906
32433SOL    HW199678   1.359  10.522   3.101  0.6179  2.2899  1.1533
32433SOL    HW299679   1.497  10.580   3.085  1.9192 -1.0475 -0.8945
32434SOL     OW99680   5.732   5.995   3.014 -0.2177  0.0564 -0.1203
32434SOL    HW199681   5.680   6.068   2.980  0.9692  0.4249 -1.2067
32434SOL    HW299682   5.760   6.024   3.101 -0.6439  0.4449 -0.1091
32435SOL     OW99683   7.033   0.961   2.429  0.1021  0.8102  0.1801
32435SOL    HW199684   6.954   1.002   2.464  1.4345  0.8305  3.5892
32435SOL    HW299685   7.097   1.033   2.425  0.7381  0.2633  0.2794
32436SOL     OW99686   1.728   1.475  10.235  0.1144 -0.2152  0.2977
32436SOL    HW199687   1.688   1.390  10.216 -0.7919  0.4507 -0.9076
32436SOL    HW299688   1.819   1.455  10.256 -0.2312 -1.5326  0.6037
32437SOL     OW99689  10.339  10.603   6.999  0.2663  0.2185  0.1016
32437SOL    HW199690  10.308  10.525   7.045 -1.3439  0.8029  0.0560
32437SOL    HW299691  10.299  10.597   6.912 -1.2728  1.8901  0.6275
32438SOL     OW99692   7.688   1.580   3.592  0.2832 -0.3596 -0.1396
32438SOL    HW199693   7.655   1.534   3.515 -0.2070  0.5897 -0.5112
32438SOL    HW299694   7.618   1.569   3.658 -0.5091  1.0527 -0.6994
32439SOL     OW99695   0.001   6.466   9.651 -0.0032  0.3737  0.0969
32439SOL    HW199696   0.092   6.457   9.623 -0.1943 -0.8091 -0.1976
32439SOL    HW299697   0.006   6.469   9.747  0.4950  2.5748  0.0628
32440SOL     OW99698   4.325  10.720   6.439 -0.5644 -0.6995 -0.0364
32440SOL    HW199699   4.395  10.782   6.460 -0.8053 -0.5642  0.3713
32440SOL    HW299700   4.349  10.639   6.483  0.4190 -1.3142 -1.6186
32441SOL     OW99701   3.318   5.710   5.365 -0.1153  0.1643  0.4550
32441SOL    HW199702   3.306   5.642   5.299  1.9904  0.4607 -0.3155
32441SOL    HW299703   3.383   5.674   5.425  0.6828  1.2673  0.2927
32442SOL     OW99704   6.992   1.054   0.364  0.7932  0.1898  0.0494
32442SOL    HW199705   7.051   1.001   0.417  1.9504  1.2074 -0.1583
32442SOL    HW299706   7.018   1.144   0.383 -0.0508  0.6262 -0.7966
32443SOL     OW99707   8.775   6.496   2.207 -0.6929  0.5080  0.6275
32443SOL    HW199708   8.857   6.483   2.159  0.6448  1.3339  2.5518
32443SOL    HW299709   8.719   6.545   2.147  0.5896  0.7700 -0.3846
32444SOL     OW99710   5.720   6.384   2.155  0.0115  0.2640  0.5102
32444SOL    HW199711   5.773   6.304   2.163  1.0264  1.0048  1.5648
32444SOL    HW299712   5.630   6.352   2.148  0.4183 -0.9797  0.6934
32445SOL     OW99713   5.034   9.128   5.054  0.1236  0.0324  0.0721
32445SOL    HW199714   5.080   9.099   5.133  0.0795  1.8282  0.8142
32445SOL    HW299715   5.104   9.153   4.994  0.1530  0.5281  0.3060
32446SOL     OW99716   2.398   1.522   1.444  0.1670  0.5234  0.0134
32446SOL    HW199717   2.441   1.608   1.439 -0.2275  0.6661 -1.2677
32446SOL    HW299718   2.321   1.537   1.499  0.7687  0.6859  0.8344
32447SOL     OW99719   9.961  10.445   2.742  0.4166  0.4610  0.0983
32447SOL    HW199720   9.960  10.383   2.816  0.7541  0.3524  0.0124
32447SOL    HW299721   9.977  10.390   2.665  0.2507  0.5976 -0.0336
32448SOL     OW99722   7.068   9.388   8.191  0.2679  0.2760  0.0112
32448SOL    HW199723   7.118   9.378   8.271  0.5033 -0.5484 -0.2326
32448SOL    HW299724   7.132   9.381   8.121 -0.2697 -1.6233 -0.3393
32449SOL     OW99725   2.723   7.308   7.041  0.4561  0.4128  0.0608
32449SOL    HW199726   2.703   7.223   7.002 -0.0349  0.6741 -0.2710
32449SOL    HW299727   2.761   7.358   6.968  0.2109  0.6643  0.1048
32450SOL     OW99728   0.167   1.682   3.585 -0.0786  0.1330  0.5383
32450SOL    HW199729   0.260   1.668   3.566 -0.4097  0.0923 -1.1679
32450SOL    HW299730   0.166   1.764   3.635  0.7287  1.4646 -1.4807
32451SOL     OW99731   5.503   4.605   3.872 -0.0011 -0.1289  0.0837
32451SOL    HW199732   5.537   4.552   3.800  0.0934  1.0422 -0.7682
32451SOL    HW299733   5.573   4.667   3.891 -0.5376  0.4295  0.2793
32452SOL     OW99734   8.949   5.045   7.806 -0.3241 -0.4728  0.1009
32452SOL    HW199735   8.854   5.031   7.800 -0.0530 -2.1450 -1.0324
32452SOL    HW299736   8.959   5.140   7.810 -2.0446 -0.2616  0.3493
32453SOL     OW99737   2.689   7.341   1.205 -0.2175 -0.3343  0.1409
32453SOL    HW199738   2.606   7.320   1.247 -0.8903  0.0001 -0.9844
32453SOL    HW299739   2.704   7.433   1.227 -0.8406 -0.0053 -0.7747
32454SOL     OW99740   3.853   9.364  10.182  0.2483 -0.3439  0.1280
32454SOL    HW199741   3.869   9.442  10.235 -0.1373 -0.7786  0.9131
32454SOL    HW299742   3.918   9.368  10.112 -0.8021  1.5280 -0.8238
32455SOL     OW99743   5.669   4.450   4.276 -0.0764  0.0580  0.3098
32455SOL    HW199744   5.695   4.400   4.354  0.5855 -1.2927 -0.7199
32455SOL    HW299745   5.601   4.396   4.235  1.6168 -0.7940 -1.5654
32456SOL     OW99746   4.339   0.986   6.818 -0.6481  0.1138  0.1350
32456SOL    HW199747   4.376   0.944   6.740 -0.0641 -1.1302  1.0230
32456SOL    HW299748   4.283   0.919   6.857 -0.3718  0.4382  1.1469
32457SOL     OW99749   6.123   3.944   1.611 -0.3543  0.2362  0.5571
32457SOL    HW199750   6.053   4.001   1.579  0.2460  1.3198  1.1371
32457SOL    HW299751   6.196   3.959   1.551 -0.3762 -0.3629  0.3737
32458SOL     OW99752   9.687   7.490   8.802  0.1379 -1.1593  0.1235
32458SOL    HW199753   9.769   7.494   8.753  0.6868 -1.8608  0.9501
32458SOL    HW299754   9.653   7.579   8.800  0.2835 -1.1101 -1.2727
32459SOL     OW99755   2.794   8.738   2.644  0.1254  0.4962  0.2720
32459SOL    HW199756   2.710   8.694   2.632 -0.1145  1.3971 -1.6461
32459SOL    HW299757   2.858   8.668   2.639 -0.4340 -0.0490  0.5768
32460SOL     OW99758   6.592   8.016   2.554  0.0889 -0.1058 -0.1655
32460SOL    HW199759   6.540   8.074   2.610 -0.0888  0.0124 -0.4523
32460SOL    HW299760   6.563   8.036   2.465  0.8535  0.2030 -0.3584
32461SOL     OW99761   7.014   3.410   8.932 -0.0329 -0.1068  0.2135
32461SOL    HW199762   6.925   3.433   8.903 -0.0246  0.2888  0.4867
32461SOL    HW299763   7.001   3.337   8.993 -0.0881 -0.6422 -0.4281
32462SOL     OW99764   7.297   1.642   7.031 -0.5454  0.0538 -0.5665
32462SOL    HW199765   7.333   1.642   6.942  1.4587 -0.3034  0.1869
32462SOL    HW299766   7.305   1.551   7.059  0.5107  0.4820  0.5872
32463SOL     OW99767   6.570   8.257   0.120 -0.3879  0.1438 -0.2045
32463SOL    HW199768   6.614   8.295   0.044 -1.7756 -0.8002 -1.5407
32463SOL    HW299769   6.621   8.287   0.195  1.0920  1.0248 -1.5066
32464SOL     OW99770   9.313   0.685   5.596 -0.1247 -0.1436 -0.2026
32464SOL    HW199771   9.408   0.689   5.610  0.0106  2.8548 -1.2143
32464SOL    HW299772   9.276   0.735   5.668 -0.5735  1.7108 -1.6236
32465SOL     OW99773   9.049   6.911   2.880  0.1757  0.4456  0.5891
32465SOL    HW199774   9.039   6.938   2.789  0.3290 -2.4111 -0.3843
32465SOL    HW299775   9.139   6.933   2.902  0.7153 -0.4448 -0.6010
32466SOL     OW99776   9.495   7.847   5.674  0.3962 -0.3395  0.1086
32466SOL    HW199777   9.581   7.843   5.716  1.6499  1.3826 -2.0787
32466SOL    HW299778   9.471   7.939   5.675 -0.8878 -0.6415 -0.3926
32467SOL     OW99779   0.772   2.105   7.377 -0.1528  0.2197 -0.3317
32467SOL    HW199780   0.781   2.012   7.357 -1.9434  0.0623 -0.6171
32467SOL    HW299781   0.782   2.111   7.472  0.8318 -0.1184 -0.4045
32468SOL     OW99782   8.056   9.760   3.931  0.1271 -0.0655  0.1074
32468SOL    HW199783   8.100   9.840   3.958  1.6799 -0.5847 -0.7856
32468SOL    HW299784   8.020   9.780   3.845 -1.2434  0.2761  0.7255
32469SOL     OW99785   4.120   2.155   2.705 -0.0420 -0.3720 -0.2935
32469SOL    HW199786   4.193   2.124   2.758  0.2566  0.5904 -0.1221
32469SOL    HW299787   4.055   2.186   2.768 -0.3114 -0.6040 -0.4569
32470SOL     OW99788   1.628   4.083   9.827 -0.5501  0.4974 -0.0155
32470SOL    HW199789   1.574   4.040   9.761 -0.0888 -1.2444  0.6857
32470SOL    HW299790   1.587   4.059   9.911 -0.1306  1.2261  0.4089
32471SOL     OW99791   7.402   8.820   9.444 -0.3093  0.6114 -0.2579
32471SOL    HW199792   7.475   8.778   9.397 -0.9403  1.0111 -1.6526
32471SOL    HW299793   7.403   8.780   9.531  1.9714  1.0644 -0.0116
32472SOL     OW99794   6.482  10.367   6.687  0.2784  0.2453  0.4794
32472SOL    HW199795   6.562  10.403   6.725 -0.2173  0.3819  1.4161
32472SOL    HW299796   6.460  10.293   6.744 -0.1766  0.1147  0.1376
32473SOL     OW99797   7.451   6.463   8.162 -0.2332 -0.4536 -0.2280
32473SOL    HW199798   7.470   6.556   8.174  2.8547 -1.1500  1.2831
32473SOL    HW299799   7.401   6.438   8.239  1.1679 -0.5392  0.6757
32474SOL     OW99800   1.219   0.970  10.517 -0.3743  0.7979 -0.6587
32474SOL    HW199801   1.187   1.058  10.537  0.3141  0.8816  0.1134
32474SOL    HW299802   1.315   0.978  10.519 -0.3042  0.0493 -0.6726
32475SOL     OW99803   3.897   3.321   2.548  0.5932 -0.2928  0.5047
32475SOL    HW199804   3.895   3.246   2.489  0.5836  0.4094 -0.4259
32475SOL    HW299805   3.884   3.397   2.490  1.7233  0.5076  1.2601
32476SOL     OW99806   5.524   6.845   7.313 -0.0162 -0.3640 -0.2931
32476SOL    HW199807   5.497   6.849   7.405 -1.7414  0.1720 -0.7875
32476SOL    HW299808   5.619   6.848   7.316 -0.0555  1.4489  1.4216
32477SOL     OW99809   7.920   9.284   1.011  0.0972 -0.4733  0.3189
32477SOL    HW199810   7.938   9.299   0.918 -0.1192 -2.1042 -0.0001
32477SOL    HW299811   7.934   9.370   1.051 -0.0898  0.3347 -1.2502
32478SOL     OW99812   1.146   3.876   9.567 -0.2186 -0.3447 -0.0378
32478SOL    HW199813   1.215   3.860   9.502 -1.2184  0.6935 -1.4090
32478SOL    HW299814   1.134   3.791   9.609  0.3476 -1.1170 -1.3480
32479SOL     OW99815   7.918   5.306   9.838  0.8220 -0.2878 -0.2641
32479SOL    HW199816   7.837   5.347   9.808  1.4242 -0.7087 -2.6779
32479SOL    HW299817   7.912   5.308   9.933 -1.2713  1.1544 -0.3572
32480SOL     OW99818   8.037   2.519   1.582 -0.3255  0.3945 -0.2830
32480SOL    HW199819   8.062   2.602   1.542  1.0746 -0.0723 -0.4272
32480SOL    HW299820   7.955   2.495   1.538 -0.3158  1.3011 -0.8140
32481SOL     OW99821   7.328   7.550   7.062 -0.2833  0.3969  0.3280
32481SOL    HW199822   7.307   7.601   6.984  1.3682  0.5809 -0.0335
32481SOL    HW299823   7.334   7.614   7.133 -0.3758  0.4148  0.3199
32482SOL     OW99824   3.122   6.445   9.596  0.3075 -0.0849  0.0776
32482SOL    HW199825   3.126   6.477   9.686 -3.0274  2.5320 -0.5155
32482SOL    HW299826   3.181   6.503   9.547  1.4348 -0.9423  0.3802
32483SOL     OW99827  10.785   7.638   4.955  0.2478  0.2850 -0.5131
32483SOL    HW199828  10.794   7.708   5.020 -1.6923 -0.3393  0.4947
32483SOL    HW299829  10.694   7.644   4.926  0.0361 -1.8198 -0.3966
32484SOL     OW99830   5.350   2.939   3.918  0.4224 -0.9290  0.4345
32484SOL    HW199831   5.367   3.028   3.889 -0.2721 -1.2637 -1.0774
32484SOL    HW299832   5.299   2.949   3.998 -0.5977  0.0443 -0.3174
32485SOL     OW99833   3.804   2.894   1.274 -0.4781 -0.2654  0.2325
32485SOL    HW199834   3.774   2.806   1.252  0.8791 -0.5141 -0.7150
32485SOL    HW299835   3.899   2.890   1.266 -0.3661  1.1927  0.5521
32486SOL     OW99836   1.594   1.705   9.425  0.3719  0.0466 -0.4374
32486SOL    HW199837   1.602   1.796   9.454 -0.9163  0.6936 -1.9718
32486SOL    HW299838   1.572   1.657   9.504  1.7277  0.9342  0.5314
32487SOL     OW99839   5.635   7.764   5.624 -0.7387 -0.0434  0.6336
32487SOL    HW199840   5.571   7.829   5.653  0.1353  0.9212  0.4242
32487SOL    HW299841   5.671   7.800   5.543 -0.1220 -0.7150  0.6045
32488SOL     OW99842   0.408   1.586  10.584 -0.3636  0.4108 -0.2615
32488SOL    HW199843   0.372   1.665  10.624 -1.9412  0.6291 -1.9742
32488SOL    HW299844   0.478   1.618  10.526  0.6409  0.2744  0.8357
32489SOL     OW99845   4.092   1.982   3.057 -0.7211  0.4694  0.3932
32489SOL    HW199846   4.092   1.960   3.150 -0.4514 -0.4821  0.1772
32489SOL    HW299847   4.041   1.913   3.015 -0.7584  0.8361 -0.1861
32490SOL     OW99848   8.769   0.261  10.792 -0.3031  0.0885  0.5129
32490SOL    HW199849   8.802   0.202  10.725  0.5752  0.6118  0.4723
32490SOL    HW299850   8.774   0.348  10.753  0.7273  0.4633  1.4344
32491SOL     OW99851   9.733   9.743   3.813  0.2751 -0.0816  0.0316
32491SOL    HW199852   9.752   9.704   3.727  2.1289 -0.2264  0.4568
32491SOL    HW299853   9.726   9.837   3.796  2.2476  0.0832 -0.0899
32492SOL     OW99854   7.729   2.823   5.884 -0.9268 -0.7117  0.0906
32492SOL    HW199855   7.735   2.744   5.830 -0.3983 -0.0831 -0.7993
32492SOL    HW299856   7.771   2.891   5.831  0.7728 -0.3378  1.7996
32493SOL     OW99857   6.771   9.812   7.013 -0.3866  0.3571 -0.4009
32493SOL    HW199858   6.683   9.779   6.993 -0.4048  1.0452 -1.5632
32493SOL    HW299859   6.813   9.822   6.927  1.4835 -1.6640  0.1929
32494SOL     OW99860   8.513   9.006   7.022  0.0552  0.4811 -0.0792
32494SOL    HW199861   8.497   9.071   7.090  0.9195 -0.9424  1.5555
32494SOL    HW299862   8.431   8.958   7.014 -0.0546  0.6646 -0.0475
32495SOL     OW99863   2.239   2.278  10.212 -0.2072 -0.2661  0.5847
32495SOL    HW199864   2.308   2.314  10.156 -0.6297 -0.4901 -0.0905
32495SOL    HW299865   2.247   2.183  10.203 -0.0574 -0.3077  1.1730
32496SOL     OW99866   6.434  10.678   4.215 -0.4092 -0.6118 -0.6277
32496SOL    HW199867   6.413  10.752   4.272  0.8130 -1.3023  0.8027
32496SOL    HW299868   6.440  10.715   4.127  1.4898  1.2653  0.2164
32497SOL     OW99869   8.817   6.757   8.459 -0.2980  0.3238 -0.0338
32497SOL    HW199870   8.857   6.710   8.533 -1.5575 -1.0135 -0.1732
32497SOL    HW299871   8.813   6.692   8.389 -0.3288  1.2049 -0.8637
32498SOL     OW99872   2.300   8.388   1.627  0.9423 -0.3457  1.0328
32498SOL    HW199873   2.366   8.427   1.684  0.6954 -0.3839  1.3431
32498SOL    HW299874   2.218   8.398   1.674  0.6922 -0.1147  0.5568
32499SOL     OW99875   6.971   1.652   6.200  0.4434  0.4790  0.4859
32499SOL    HW199876   6.996   1.641   6.292 -1.4570  1.0654  1.1310
32499SOL    HW299877   6.940   1.565   6.173  0.1114  0.5206  0.7178
32500SOL     OW99878   4.454   7.990   3.798  0.3301  0.0961 -0.1910
32500SOL    HW199879   4.376   8.045   3.807  0.1496  0.1402 -1.6848
32500SOL    HW299880   4.430   7.907   3.840 -0.4607  0.1814 -0.4584
32501SOL     OW99881   6.107   6.373   0.079  0.4891  0.6680  0.4904
32501SOL    HW199882   6.071   6.414   0.001 -0.5184  1.5987  1.4029
32501SOL    HW299883   6.094   6.279   0.066 -2.0856  0.9354  0.6512
32502SOL     OW99884   1.071  10.490   6.308  0.1065 -0.0167 -0.1191
32502SOL    HW199885   1.012  10.508   6.381 -0.1165 -1.3253  0.0539
32502SOL    HW299886   1.148  10.544   6.325 -0.0020 -0.2030  1.0096
32503SOL     OW99887   2.820   4.781   4.985 -0.0591  0.3503 -0.7248
32503SOL    HW199888   2.851   4.852   5.042  0.3679 -0.1469 -0.3386
32503SOL    HW299889   2.858   4.801   4.899 -0.8812  1.2237 -0.9073
32504SOL     OW99890   5.379   7.647   9.514  0.2475  0.7367 -0.3639
32504SOL    HW199891   5.430   7.722   9.484 -0.8369  2.4351  1.7337
32504SOL    HW299892   5.433   7.608   9.583  0.1356  0.5443 -0.3855
32505SOL     OW99893   5.331   3.453   8.664 -0.3167  0.0147 -0.1983
32505SOL    HW199894   5.395   3.490   8.725 -0.5543  1.6256 -0.8694
32505SOL    HW299895   5.250   3.501   8.682 -1.7063 -2.6101  1.2818
32506SOL     OW99896   1.492   4.290   3.292 -0.1274  0.0401 -0.0764
32506SOL    HW199897   1.487   4.195   3.303 -3.2013 -0.0210 -0.9153
32506SOL    HW299898   1.572   4.316   3.336 -0.0992 -2.7323  1.7277
32507SOL     OW99899   7.979   3.333   1.729  0.4513 -1.0529  0.0459
32507SOL    HW199900   7.974   3.417   1.774 -1.7773 -1.5919  0.9339
32507SOL    HW299901   7.948   3.352   1.640  0.0917 -0.9044  0.2007
32508SOL     OW99902   9.688   5.614   0.997  0.3614  0.2015  0.1383
32508SOL    HW199903   9.635   5.657   0.930 -0.0732 -0.5269  0.0069
32508SOL    HW299904   9.743   5.683   1.032 -1.0684  1.0990  0.6822
32509SOL     OW99905  10.694   7.588   9.654 -0.3448  0.3173 -0.2003
32509SOL    HW199906  10.789   7.574   9.655  0.0653  2.6423 -0.5459
32509SOL    HW299907  10.667   7.579   9.745  0.3373  0.4042  0.0164
32510SOL     OW99908   8.840   6.549   5.961  0.2371  0.1846  0.2227
32510SOL    HW199909   8.906   6.619   5.961  2.2797 -1.6467  0.3117
32510SOL    HW299910   8.844   6.513   5.872  0.5437 -0.9767  0.6938
32511SOL     OW99911   2.035   6.189   3.851  0.0367  0.3199  0.3534
32511SOL    HW199912   1.942   6.214   3.857 -0.0823 -0.3310  1.4339
32511SOL    HW299913   2.038   6.127   3.779 -0.4822 -0.1189  0.7028
32512SOL     OW99914   8.363   3.220   0.328 -0.5471  0.0364  0.4355
32512SOL    HW199915   8.295   3.286   0.308  0.3190  0.6750 -0.5346
32512SOL    HW299916   8.317   3.136   0.323 -0.8148  0.2322 -2.8449
32513SOL     OW99917   5.955   3.518   4.457 -0.5822  0.3292 -1.0168
32513SOL    HW199918   5.931   3.599   4.503 -0.2088 -0.0145 -0.1955
32513SOL    HW299919   5.878   3.497   4.404 -1.7745 -0.2596  0.8557
32514SOL     OW99920   7.078   8.772   6.029 -0.7873  0.1459  0.1809
32514SOL    HW199921   7.025   8.813   5.962  0.2418  1.3127  0.0395
32514SOL    HW299922   7.114   8.845   6.080  0.0180 -0.6241  0.7643
32515SOL     OW99923   7.168   5.411  10.498  0.1206 -0.2723  0.1629
32515SOL    HW199924   7.209   5.337  10.453 -1.1307 -0.9705  0.1239
32515SOL    HW299925   7.076   5.404  10.475 -0.2777  0.3337  1.4923
32516SOL     OW99926   6.430   0.582   3.361 -0.8777  0.0176 -0.1273
32516SOL    HW199927   6.376   0.569   3.438  1.0247 -1.5972  1.0241
32516SOL    HW299928   6.451   0.494   3.330  2.8634  0.3776  0.8542
32517SOL     OW99929   6.922   3.962   6.006 -0.2764  0.1146  0.3928
32517SOL    HW199930   6.880   3.878   5.990 -0.8248  0.1413  1.5744
32517SOL    HW299931   6.869   4.004   6.074 -0.8939  2.0953 -1.2167
32518SOL     OW99932   0.380   7.831   4.819  0.2652  0.2267  0.0013
32518SOL    HW199933   0.380   7.911   4.767  0.5899 -0.7326 -1.5219
32518SOL    HW299934   0.455   7.781   4.788  0.2492 -0.5589  1.1346
32519SOL     OW99935   9.485   1.011   6.311  0.0899  0.1890  0.0533
32519SOL    HW199936   9.485   0.939   6.248  0.9611  0.4791 -0.2844
32519SOL    HW299937   9.526   1.084   6.265  0.2049  0.5803  0.7612
32520SOL     OW99938   1.528   8.764   3.581  0.1879 -0.0783 -0.3571
32520SOL    HW199939   1.537   8.723   3.495  1.8473  0.3609 -0.4319
32520SOL    HW299940   1.616   8.798   3.600 -0.7148  1.8841  0.4869
32521SOL     OW99941   6.094   1.635   1.302 -0.0539 -0.3829 -0.0857
32521SOL    HW199942   6.061   1.631   1.212 -2.0463  0.6276  0.5477
32521SOL    HW299943   6.027   1.591   1.354  1.0246 -0.8623  0.9565
32522SOL     OW99944   8.037   5.840   9.499  0.5671  0.1131  0.7628
32522SOL    HW199945   7.961   5.854   9.555 -0.2022 -0.7345 -0.0386
32522SOL    HW299946   8.107   5.815   9.560  1.1456  3.8814  1.8896
32523SOL     OW99947   6.185   6.463   3.514 -0.0367  0.0441  0.9274
32523SOL    HW199948   6.208   6.373   3.535 -0.6754 -0.4890 -0.5410
32523SOL    HW299949   6.259   6.515   3.545  0.2994 -0.9566  1.8656
32524SOL     OW99950   4.235   8.519   5.186  0.6480 -0.1638  0.2286
32524SOL    HW199951   4.142   8.500   5.196  0.6330  0.7952  2.4573
32524SOL    HW299952   4.277   8.432   5.186  0.0131 -0.5723  3.1016
32525SOL     OW99953   4.626   1.692   2.837  0.3939 -0.2325  0.5082
32525SOL    HW199954   4.600   1.606   2.805 -1.7106  0.2182  0.8120
32525SOL    HW299955   4.657   1.739   2.760  0.7504 -0.9935  0.1903
32526SOL     OW99956   8.495  10.362   2.142  0.5571  0.0853  0.0343
32526SOL    HW199957   8.497  10.294   2.209 -0.8004 -0.1414 -0.1142
32526SOL    HW299958   8.402  10.382   2.132  0.6335 -0.4983 -2.3880
32527SOL     OW99959   5.364   4.406   4.940 -0.1702 -0.1964  0.0987
32527SOL    HW199960   5.376   4.479   5.000 -1.5507 -0.9168  1.3060
32527SOL    HW299961   5.373   4.445   4.853 -1.2601  1.4992  0.6994
32528SOL     OW99962   4.986   7.721   4.636 -0.1486 -0.7026  0.2029
32528SOL    HW199963   4.921   7.699   4.702 -0.3255 -0.6835  0.0351
32528SOL    HW299964   5.069   7.727   4.684 -0.5706  1.2321  0.7778
32529SOL     OW99965   5.930   8.938   2.281  0.0691  0.3059  0.0267
32529SOL    HW199966   5.891   8.895   2.357  1.5411  0.3789  0.8723
32529SOL    HW299967   5.862   8.997   2.249 -0.4264  0.6510  1.6183
32530SOL     OW99968   9.622   0.919   5.189 -0.1104 -0.2020 -0.6704
32530SOL    HW199969   9.712   0.951   5.199  0.0798 -0.8175 -0.3314
32530SOL    HW299970   9.614   0.851   5.256 -0.6004 -0.6459 -1.1729
32531SOL     OW99971   3.290   7.455   5.409  0.0795 -0.0809 -0.1499
32531SOL    HW199972   3.257   7.370   5.437 -2.9213  1.1806  0.6743
32531SOL    HW299973   3.297   7.449   5.314 -1.4162 -0.8856 -0.2337
32532SOL     OW99974   8.971   2.203   7.490 -0.0609 -0.0242 -0.0290
32532SOL    HW199975   8.884   2.202   7.530 -0.0907  0.9157 -0.0536
32532SOL    HW299976   8.962   2.148   7.413 -0.7837  0.4909 -0.3215
32533SOL     OW99977   3.517   3.345  10.046  0.2079  0.3107  0.5284
32533SOL    HW199978   3.428   3.369  10.073 -0.1880 -1.4514  0.9274
32533SOL    HW299979   3.541   3.411   9.981 -1.5677  0.5700  0.0796
32534SOL     OW99980  10.151   9.713   6.114  0.2481 -0.3142 -0.6331
32534SOL    HW199981  10.108   9.708   6.199  1.6476  0.3860  0.1519
32534SOL    HW299982  10.122   9.635   6.067 -2.1428  0.3131 -0.3094
32535SOL     OW99983   2.601  10.374   3.329 -0.1415  0.3017 -0.6888
32535SOL    HW199984   2.535  10.437   3.298 -0.2366  0.5029 -0.1045
32535SOL    HW299985   2.549  10.302   3.366 -0.0314 -0.0299 -1.1770
32536SOL     OW99986   0.617   8.255   7.385  0.1754 -0.8554 -0.8241
32536SOL    HW199987   0.636   8.240   7.292  0.3736 -1.8288 -0.6313
32536SOL    HW299988   0.663   8.336   7.406  1.9972 -1.7943 -1.0185
32537SOL     OW99989   3.100   2.785   9.734  0.1867  0.1076  0.8487
32537SOL    HW199990   3.048   2.828   9.666  0.2087 -1.8185 -0.4691
32537SOL    HW299991   3.157   2.853   9.767 -0.4975  1.3476 -0.4117
32538SOL     OW99992   0.906   6.992   5.934  0.1168  0.3556  0.2865
32538SOL    HW199993   0.938   6.997   5.844  2.7897 -0.0400  1.1316
32538SOL    HW299994   0.934   7.075   5.974 -1.8885  0.9564  0.5589
32539SOL     OW99995   0.519   5.609   8.334  0.2902  0.3637  0.1393
32539SOL    HW199996   0.546   5.527   8.376  1.5920  1.3662  1.3408
32539SOL    HW299997   0.528   5.592   8.240  1.2944 -0.6364  0.3991
32540SOL     OW99998   7.928   0.255   7.056 -0.4069  0.5385 -0.2336
32540SOL    HW199999   7.972   0.269   7.140 -0.4607 -1.8816  0.2591
32540SOL    HW2    0   7.868   0.183   7.073 -2.3266  1.6808 -1.7152
32541SOL     OW    1   6.579   7.514   3.871 -0.4326  0.2854  0.8685
32541SOL    HW1    2   6.568   7.598   3.917  0.5454  0.6122  0.5404
32541SOL    HW2    3   6.520   7.454   3.916 -1.1422  1.1497  1.1172
32542SOL     OW    4   1.547   5.606   4.188  0.2927 -0.5491  0.3982
32542SOL    HW1    5   1.483   5.545   4.151  0.1915 -1.1078  1.4627
32542SOL    HW2    6   1.615   5.550   4.226  0.4175  0.0050  1.0097
32543SOL     OW    7   4.534   5.953   8.365 -0.2727  0.3225  0.5621
32543SOL    HW1    8   4.576   5.965   8.280 -2.9877  0.7827 -0.8315
32543SOL    HW2    9   4.441   5.940   8.344 -0.5767 -3.2692  3.2332
32544SOL     OW   10   4.700   7.183   7.766 -0.4982 -0.3802  0.4074
32544SOL    HW1   11   4.662   7.119   7.706 -0.5160  0.5580 -0.6032
32544SOL    HW2   12   4.665   7.267   7.737  0.6351  0.2599  0.8361
32545SOL     OW   13   9.751   2.099   5.403 -0.0734  0.0377  0.0873
32545SOL    HW1   14   9.738   2.009   5.373 -2.2038 -0.2058  1.5275
32545SOL    HW2   15   9.806   2.091   5.481  1.2501  0.1946 -0.8013
32546SOL     OW   16   5.997   0.852   4.843 -0.0194  0.0278 -0.3143
32546SOL    HW1   17   5.902   0.839   4.842 -0.0635  0.2841  0.3178
32546SOL    HW2   18   6.026   0.810   4.924  0.0757  2.1449  0.8096
32547SOL     OW   19   1.753   6.818   0.920 -0.3656 -0.1803 -0.0313
32547SOL    HW1   20   1.747   6.746   0.984 -0.9347  0.3332  0.5069
32547SOL    HW2   21   1.667   6.860   0.925 -0.4031 -0.1088 -1.1176
32548SOL     OW   22  10.060   0.200   3.088  0.3343  0.1568  0.2508
32548SOL    HW1   23  10.148   0.219   3.055 -0.6830  1.6526 -1.7655
32548SOL    HW2   24  10.046   0.107   3.067  0.6294  0.4680 -1.4132
32549SOL     OW   25  10.273   7.801   9.723 -0.1258  0.1231  0.1517
32549SOL    HW1   26  10.209   7.810   9.652 -1.1451 -0.0058  1.0273
32549SOL    HW2   27  10.352   7.844   9.689 -0.1594 -1.0500 -1.5559
32550SOL     OW   28   2.265   8.377   8.776  0.0256 -0.1678 -0.5152
32550SOL    HW1   29   2.337   8.328   8.736 -0.9132 -0.7948 -1.4847
32550SOL    HW2   30   2.218   8.416   8.703 -1.0612 -0.3922  0.0314
32551SOL     OW   31   1.799  10.304   1.243 -0.7535 -0.4096  0.0122
32551SOL    HW1   32   1.855  10.293   1.319 -0.6941 -0.5736 -0.0531
32551SOL    HW2   33   1.860  10.317   1.170 -0.8117 -0.1948  0.0033
32552SOL     OW   34  10.130   3.703   7.555  0.1723  0.4351  0.4367
32552SOL    HW1   35  10.156   3.730   7.467  0.3491  2.0897  0.9604
32552SOL    HW2   36  10.195   3.743   7.613 -1.1299  1.1859  1.4484
32553SOL     OW   37   6.407   9.020   3.983  0.3742 -0.3166 -0.4092
32553SOL    HW1   38   6.419   9.105   4.026 -0.6444  0.0069 -0.7357
32553SOL    HW2   39   6.461   8.960   4.035 -0.6982  0.0810  1.2464
32554SOL     OW   40   7.112   6.130   3.350 -0.0363  0.1915  0.2621
32554SOL    HW1   41   7.104   6.035   3.360  1.0424 -0.0840 -1.1718
32554SOL    HW2   42   7.131   6.162   3.438 -1.6546 -0.7426  1.0127
32555SOL     OW   43   9.933   7.159   7.321  0.0255 -0.2058 -0.5495
32555SOL    HW1   44   9.974   7.093   7.377 -0.8382 -0.9949 -0.8158
32555SOL    HW2   45  10.002   7.224   7.305  1.3986 -1.8243 -1.5502
32556SOL     OW   46   1.868   2.364   6.649 -0.7579 -0.8853  0.7944
32556SOL    HW1   47   1.849   2.425   6.720 -1.9701 -0.2548 -0.0321
32556SOL    HW2   48   1.912   2.418   6.583 -0.4287 -1.2690  0.6934
32557SOL     OW   49   8.863   4.843   2.899 -0.1542  0.6385  0.5644
32557SOL    HW1   50   8.911   4.808   2.975  0.1677 -0.7856 -0.2673
32557SOL    HW2   51   8.931   4.871   2.839 -0.3646 -0.4354 -0.1893
32558SOL     OW   52   0.971   5.207   9.801 -0.0126  0.2357  0.3336
32558SOL    HW1   53   0.957   5.278   9.738  1.4239  1.5109  1.3851
32558SOL    HW2   54   0.937   5.129   9.757  1.1577  1.0302 -2.1379
32559SOL     OW   55   1.209  10.641   1.837  0.4810  0.4124 -0.1163
32559SOL    HW1   56   1.246  10.724   1.865  1.1228 -0.0972  0.5642
32559SOL    HW2   57   1.198  10.651   1.742  0.4854  1.2938 -0.0308
32560SOL     OW   58   8.372   6.972   2.182 -0.0217 -0.3767  0.9179
32560SOL    HW1   59   8.452   6.920   2.192  1.3496  1.8083  2.0554
32560SOL    HW2   60   8.383   7.045   2.243 -1.1298  2.1013 -1.6297
32561SOL     OW   61   3.360   1.101   9.267 -0.3735  0.5192  0.4340
32561SOL    HW1   62   3.421   1.037   9.305  0.2149 -0.3052 -1.7701
32561SOL    HW2   63   3.406   1.135   9.191 -2.1821  0.8014 -0.5856
32562SOL     OW   64   5.171   1.361   1.350 -0.2184  0.0423  0.1932
32562SOL    HW1   65   5.107   1.292   1.333 -1.0055  0.6015  0.8584
32562SOL    HW2   66   5.207   1.339   1.435  0.3564 -0.1633 -0.0950
32563SOL     OW   67   9.123   6.963   9.487  0.5110 -0.4980  0.4542
32563SOL    HW1   68   9.132   6.904   9.561 -1.6489 -1.0339  0.3385
32563SOL    HW2   69   9.085   7.043   9.524  2.5552  0.5334  0.4537
32564SOL     OW   70   8.720   2.864   1.625 -0.1251 -0.3117  0.4837
32564SOL    HW1   71   8.714   2.795   1.691 -1.0774 -0.0227  0.7210
32564SOL    HW2   72   8.652   2.927   1.650  0.1967  0.3166 -0.1847
32565SOL     OW   73   9.562   6.867   7.681 -0.0656 -0.3321  0.0976
32565SOL    HW1   74   9.523   6.949   7.710  0.8625  0.3076 -0.4069
32565SOL    HW2   75   9.649   6.866   7.721 -0.2075 -1.2734  0.4302
32566SOL     OW   76   9.351   6.070   8.707 -0.8717 -0.0066  0.3940
32566SOL    HW1   77   9.261   6.067   8.740 -1.0812  1.9864  0.1412
32566SOL    HW2   78   9.394   6.137   8.761 -0.5294  1.5275 -1.6572
32567SOL     OW   79   0.279   8.384   8.463 -0.0979  0.0278 -0.1938
32567SOL    HW1   80   0.251   8.369   8.554 -2.6914  0.4048 -0.8341
32567SOL    HW2   81   0.293   8.478   8.457 -0.6441  0.1100 -0.3165
32568SOL     OW   82   2.908   9.379   4.668 -0.1810  0.4072  0.4018
32568SOL    HW1   83   2.869   9.456   4.709  1.4565  0.8736  1.1605
32568SOL    HW2   84   2.967   9.414   4.601  0.8776 -0.1461  1.0125
32569SOL     OW   85   8.187   2.770   7.055  0.1345  0.4465  0.3290
32569SOL    HW1   86   8.124   2.764   6.983  0.0406  1.6872  0.2837
32569SOL    HW2   87   8.272   2.765   7.013  0.2040  4.2827 -0.3656
32570SOL     OW   88   1.225   0.060   3.833  0.1416 -0.1735  0.9480
32570SOL    HW1   89   1.283  -0.012   3.812  2.1696  0.9546  2.3185
32570SOL    HW2   90   1.208   0.051   3.927 -0.6312  0.4065  0.8768
32571SOL     OW   91   3.760   1.203   1.176 -0.5151 -0.5137  0.1929
32571SOL    HW1   92   3.813   1.271   1.216 -0.6560 -0.5420  0.4284
32571SOL    HW2   93   3.823   1.137   1.146 -0.3268  0.0184 -0.6200
32572SOL     OW   94  10.497   6.118   0.799  0.4415 -0.0706 -0.7081
32572SOL    HW1   95  10.499   6.121   0.703 -1.6472  2.5505 -0.7807
32572SOL    HW2   96  10.468   6.205   0.825  0.6689 -0.7971  2.3428
32573SOL     OW   97   3.990   7.988   9.623 -0.2920  0.1330 -0.1142
32573SOL    HW1   98   3.998   8.040   9.543 -0.6969  1.9295  0.9628
32573SOL    HW2   99   3.912   8.023   9.666 -0.8019 -1.6412  0.4942
32574SOL     OW  100   0.552   6.393   2.671  0.1930  0.4980  0.0698
32574SOL    HW1  101   0.641   6.420   2.694  0.3150  1.2765 -1.2194
32574SOL    HW2  102   0.562   6.303   2.639  0.4299  0.3758  0.4903
32575SOL     OW  103  10.593   8.124   8.885  0.0834 -0.3893  0.7852
32575SOL    HW1  104  10.501   8.112   8.861  0.4207 -2.0696  0.1476
32575SOL    HW2  105  10.593   8.138   8.979 -0.9189  1.1991  0.5779
32576SOL     OW  106   6.006   6.213   8.048  0.2161 -0.2073 -0.2838
32576SOL    HW1  107   5.953   6.153   8.100 -1.3172  0.0329 -1.4756
32576SOL    HW2  108   5.945   6.284   8.025  0.9476 -0.0881 -1.9977
32577SOL     OW  109   6.762   9.883   4.943  0.0903 -0.0929  0.8597
32577SOL    HW1  110   6.668   9.889   4.962 -0.1138  1.2397 -0.3692
32577SOL    HW2  111   6.767   9.829   4.864 -0.2778  4.2164 -2.4797
32578SOL     OW  112   6.899   7.130   1.082 -0.2120 -0.4792 -0.0592
32578SOL    HW1  113   6.877   7.056   1.025  0.0685  0.5845 -1.6113
32578SOL    HW2  114   6.992   7.145   1.068 -0.7283  1.6696 -1.6755
32579SOL     OW  115   3.475   5.283   8.902 -0.2539 -0.3344  0.5384
32579SOL    HW1  116   3.489   5.375   8.926 -0.2376  0.1999 -1.3516
32579SOL    HW2  117   3.380   5.271   8.909 -0.6232  0.6831 -1.8448
32580SOL     OW  118   2.505   9.813   8.314 -0.4017  0.0892  0.2932
32580SOL    HW1  119   2.515   9.869   8.236  1.2054 -1.7899 -0.9403
32580SOL    HW2  120   2.552   9.859   8.383  0.1099  0.6942 -0.4456
32581SOL     OW  121   0.409   6.604   4.411 -0.5015  0.0662 -0.2263
32581SOL    HW1  122   0.463   6.674   4.446 -0.0522 -0.6964  0.6613
32581SOL    HW2  123   0.463   6.562   4.345 -0.0706 -0.5483  0.4968
32582SOL     OW  124   3.002   7.847  10.637  1.1129 -0.5344 -0.1428
32582SOL    HW1  125   2.991   7.930  10.591 -1.2430 -1.0281 -0.5969
32582SOL    HW2  126   3.076   7.805  10.594  1.0525  0.4540 -1.2475
32583SOL     OW  127   5.722   2.611   9.040  0.2383 -0.1663  0.2517
32583SOL    HW1  128   5.628   2.593   9.034  0.2484 -0.3298  0.5527
32583SOL    HW2  129   5.738   2.622   9.133  0.2037  1.6166  0.0823
32584SOL     OW  130   0.533   0.611   2.925 -0.3366  0.5588  0.1230
32584SOL    HW1  131   0.478   0.545   2.967 -0.5745  1.2512  0.9274
32584SOL    HW2  132   0.505   0.694   2.964  1.5901  0.8831  0.9068
32585SOL     OW  133   8.285   8.569   5.233 -0.1133 -0.1997  0.2931
32585SOL    HW1  134   8.305   8.618   5.153  1.7520 -2.3211 -0.6186
32585SOL    HW2  135   8.192   8.546   5.224 -0.0587  0.0226 -1.0094
32586SOL     OW  136   8.744   7.755   5.687  0.4720  0.4503  0.0836
32586SOL    HW1  137   8.720   7.664   5.671  0.7166  0.8105 -2.8956
32586SOL    HW2  138   8.770   7.757   5.779  2.1336 -2.8688 -0.1448
32587SOL     OW  139   2.664   3.514   0.847  0.2903 -0.7046  0.2668
32587SOL    HW1  140   2.651   3.551   0.934  0.9398 -1.8499  0.8633
32587SOL    HW2  141   2.700   3.427   0.862  2.2612 -0.2122 -1.1700
32588SOL     OW  142   0.807   8.441   1.854 -0.4293 -0.2280 -0.0938
32588SOL    HW1  143   0.897   8.471   1.865 -0.2749  0.2805 -2.2274
32588SOL    HW2  144   0.753   8.510   1.893  0.0797 -0.1977  0.5700
32589SOL     OW  145   5.238   0.673   8.446 -0.2343 -0.0951 -0.0937
32589SOL    HW1  146   5.199   0.646   8.529 -0.7648 -0.0393 -0.3233
32589SOL    HW2  147   5.165   0.674   8.384  0.2623 -0.7283 -0.7051
32590SOL     OW  148   3.934   0.676  10.644 -0.1055 -0.3390  0.2404
32590SOL    HW1  149   3.925   0.769  10.623 -2.0229 -0.6547 -0.5749
32590SOL    HW2  150   3.993   0.674  10.719 -0.3943  1.5814  0.5770
32591SOL     OW  151  10.201   3.907   5.813 -0.4734 -0.2511  0.1217
32591SOL    HW1  152  10.230   3.935   5.727  1.4916 -2.7460 -0.1499
32591SOL    HW2  153  10.255   3.958   5.874 -0.0807 -0.2691 -0.2056
32592SOL     OW  154   4.378   7.811  10.787 -0.1596  0.1204 -0.2131
32592SOL    HW1  155   4.416   7.723  10.781 -0.1248  0.2029 -1.2547
32592SOL    HW2  156   4.328   7.809  10.869  0.2675 -0.6984  0.0393
32593SOL     OW  157   8.653   9.487   9.557  0.1179  0.2944 -0.3906
32593SOL    HW1  158   8.717   9.507   9.626  0.0127  3.6572 -1.1230
32593SOL    HW2  159   8.702   9.436   9.493  0.7138 -1.2856  1.2288
32594SOL     OW  160   8.581   6.332   0.937  0.3615 -0.1113  0.3989
32594SOL    HW1  161   8.606   6.242   0.958 -0.6215 -0.3296  0.7151
32594SOL    HW2  162   8.488   6.337   0.960  0.4453  1.0422  0.5529
32595SOL     OW  163   9.067   5.538   8.023  0.0778  0.1085 -0.2340
32595SOL    HW1  164   9.027   5.459   8.058 -1.3432  0.1474 -1.6646
32595SOL    HW2  165   9.157   5.513   8.002  0.1497 -0.6278  0.9046
32596SOL     OW  166   8.183  10.476   5.493  0.3188 -1.0984  0.1979
32596SOL    HW1  167   8.222  10.528   5.563 -1.4419  0.8329 -0.1524
32596SOL    HW2  168   8.141  10.403   5.538  1.8888 -1.6427  0.8219
32597SOL     OW  169   8.491   9.993   0.189 -0.2226  0.5343  0.6560
32597SOL    HW1  170   8.483   9.900   0.210 -3.6938  0.6096  0.2550
32597SOL    HW2  171   8.415  10.012   0.135  1.9131  3.0434 -1.7847
32598SOL     OW  172   7.038   1.170   9.929  0.3434  0.0048  0.2501
32598SOL    HW1  173   7.005   1.080   9.924 -1.1045  0.4343  1.3285
32598SOL    HW2  174   7.040   1.190  10.022  2.2843  0.5434  0.1198
32599SOL     OW  175   9.651   0.470   8.888  0.5469 -0.0182  0.2556
32599SOL    HW1  176   9.646   0.424   8.804 -1.6860  1.6652 -0.6416
32599SOL    HW2  177   9.660   0.401   8.953 -1.0693 -1.6338 -1.1289
32600SOL     OW  178   4.322   4.493   8.227 -0.4849 -0.3712  0.3691
32600SOL    HW1  179   4.402   4.516   8.182 -1.0170 -2.3648 -1.7943
32600SOL    HW2  180   4.324   4.544   8.308  1.2763  2.1932 -1.1686
32601SOL     OW  181   0.893   4.007   7.667  0.1468 -0.0380 -0.3181
32601SOL    HW1  182   0.956   4.031   7.735  1.2962 -1.5207 -0.7982
32601SOL    HW2  183   0.832   4.081   7.663  0.6758  0.5557  1.5559
32602SOL     OW  184   3.975   0.983   0.427 -0.2673 -0.1928  0.3869
32602SOL    HW1  185   3.915   1.043   0.382 -0.7531 -2.4291 -2.2069
32602SOL    HW2  186   3.919   0.911   0.456  0.7823 -1.0108  0.4142
32603SOL     OW  187   1.870   8.001   8.539  0.1302 -0.2522 -0.5013
32603SOL    HW1  188   1.954   8.001   8.586 -0.5792  2.4812  0.9656
32603SOL    HW2  189   1.865   8.087   8.499 -1.0972 -1.1186 -2.3338
32604SOL     OW  190   4.207   9.681   3.807  0.7099 -0.5664 -0.4192
32604SOL    HW1  191   4.297   9.660   3.785  0.3512 -2.2575 -0.3760
32604SOL    HW2  192   4.171   9.600   3.843 -0.5720  0.3231  0.4062
32605SOL     OW  193   3.359   2.722   3.765  0.8263  0.3792 -0.5540
32605SOL    HW1  194   3.379   2.813   3.744  0.1044  0.9736  1.1758
32605SOL    HW2  195   3.321   2.687   3.685 -1.2376  2.3405 -0.5192
32606SOL     OW  196   6.375   4.606   8.724  0.0685  0.2371 -0.2180
32606SOL    HW1  197   6.340   4.517   8.711 -1.7985  1.0601 -1.1758
32606SOL    HW2  198   6.468   4.592   8.743 -0.1768 -1.9249 -0.2798
32607SOL     OW  199   5.602   3.452   5.503  0.5836 -0.5270  0.3593
32607SOL    HW1  200   5.609   3.389   5.431 -0.5674 -0.6110  0.3005
32607SOL    HW2  201   5.515   3.490   5.492  0.0904 -1.0790  2.1320
32608SOL     OW  202   8.983   7.066   6.192  0.3169  0.0751 -0.3726
32608SOL    HW1  203   8.969   7.007   6.118 -1.7488  0.0092  0.0395
32608SOL    HW2  204   9.079   7.074   6.198  0.8867 -4.7637  0.7911
32609SOL     OW  205   4.932   7.943   6.549 -0.3151 -0.2414  0.1276
32609SOL    HW1  206   4.983   7.892   6.612  0.0326  0.7328  0.6727
32609SOL    HW2  207   4.842   7.940   6.582 -0.0752  0.5654  0.9080
32610SOL     OW  208   7.623   9.789   6.317  0.1376  0.0254  0.1753
32610SOL    HW1  209   7.665   9.748   6.241  0.0086 -0.5473  0.4075
32610SOL    HW2  210   7.538   9.745   6.324  0.0437  0.2582  0.4940
32611SOL     OW  211   4.551   7.624   3.651 -0.5424 -0.5320 -0.0604
32611SOL    HW1  212   4.639   7.588   3.641 -0.1835 -0.5113  2.2906
32611SOL    HW2  213   4.558   7.713   3.616  0.4122 -0.5035  0.1693
32612SOL     OW  214   3.219   0.818   5.011  0.6005 -0.5026 -0.2887
32612SOL    HW1  215   3.307   0.835   5.045  0.5212  0.3134 -0.4555
32612SOL    HW2  216   3.201   0.894   4.955 -1.2742  0.7769  1.8793
32613SOL     OW  217   6.063   6.540   6.991  0.2135  0.1610  0.2069
32613SOL    HW1  218   6.116   6.472   6.951  0.6836  0.5870  0.0928
32613SOL    HW2  219   6.126   6.595   7.038 -0.0336  1.1011 -0.5428
32614SOL     OW  220   1.170   7.733   4.495 -0.3665 -0.1007  0.6655
32614SOL    HW1  221   1.142   7.793   4.427 -0.9574 -0.5925  0.4678
32614SOL    HW2  222   1.186   7.789   4.571 -0.1708  0.3911  0.2745
32615SOL     OW  223   5.101   2.213   6.605  0.2318 -0.1717  0.2976
32615SOL    HW1  224   5.164   2.242   6.539 -1.0771  1.8833 -0.1198
32615SOL    HW2  225   5.025   2.184   6.554 -1.2795  2.5630  0.7944
32616SOL     OW  226   2.105   9.066   3.891  0.1644 -0.4096  0.0654
32616SOL    HW1  227   2.144   8.990   3.849 -1.6964 -1.0574 -0.5969
32616SOL    HW2  228   2.107   9.046   3.985  0.1801 -1.0353 -0.0678
32617SOL     OW  229   1.487   0.638   2.142  0.6619  0.5051 -0.2650
32617SOL    HW1  230   1.569   0.592   2.125  0.1075 -0.2871 -0.8486
32617SOL    HW2  231   1.421   0.590   2.092 -0.7500 -0.7699  2.6221
32618SOL     OW  232   2.391   4.897   9.040  0.4300  0.1752 -0.0353
32618SOL    HW1  233   2.369   4.895   9.133 -1.0662 -2.1531 -0.3376
32618SOL    HW2  234   2.485   4.877   9.037  0.0760 -1.9415  0.9701
32619SOL     OW  235   0.968   3.314   7.825 -0.1692 -0.3783  0.6606
32619SOL    HW1  236   0.944   3.405   7.844  0.9663  0.1620 -0.3773
32619SOL    HW2  237   0.988   3.277   7.911  1.6019  1.0370  0.9094
32620SOL     OW  238   6.184   5.023   8.211 -0.0745  0.3687  0.0107
32620SOL    HW1  239   6.267   5.054   8.246 -0.5018  1.2374  0.2660
32620SOL    HW2  240   6.163   4.946   8.263  0.1738  0.6146  0.4743
32621SOL     OW  241   6.704   2.994  10.050  0.3534  0.4983  0.0576
32621SOL    HW1  242   6.758   3.039  10.115  0.4659  0.4803 -0.0247
32621SOL    HW2  243   6.688   3.061   9.983 -0.8792  0.9377  0.7492
32622SOL     OW  244   1.874   7.837   6.648 -0.3960  0.1570  0.3802
32622SOL    HW1  245   1.798   7.893   6.631  0.2028  1.2881  1.2810
32622SOL    HW2  246   1.840   7.766   6.703 -1.2606 -0.6744 -1.1580
32623SOL     OW  247   6.814   3.728   5.084  0.1696  0.0422  0.4437
32623SOL    HW1  248   6.726   3.692   5.083  0.4456 -0.7944  2.4521
32623SOL    HW2  249   6.806   3.810   5.133  0.6111 -0.3343  1.1487
32624SOL     OW  250   5.844   9.364   3.668 -0.4203  0.7125  0.2249
32624SOL    HW1  251   5.883   9.451   3.656 -0.0847  0.6527  0.8156
32624SOL    HW2  252   5.877   9.336   3.753 -0.2437 -0.1479 -0.1245
32625SOL     OW  253   9.155   9.662   5.949 -0.3345  0.1709 -0.3451
32625SOL    HW1  254   9.224   9.727   5.945  0.9636 -1.1889 -1.2878
32625SOL    HW2  255   9.201   9.578   5.944 -2.1084 -0.8067 -3.9390
32626SOL     OW  256   2.139   8.873   9.092  0.1869 -0.0669 -0.0035
32626SOL    HW1  257   2.066   8.934   9.088  0.1097 -0.2025 -1.2927
32626SOL    HW2  258   2.216   8.928   9.103  0.0628  0.2330 -0.5936
32627SOL     OW  259   2.866   2.956   2.707  0.1211  0.0520 -0.0967
32627SOL    HW1  260   2.876   2.903   2.628 -0.5043  1.2489 -1.0154
32627SOL    HW2  261   2.849   2.893   2.777  0.4771 -1.0129 -0.9439
32628SOL     OW  262   2.678   2.395   5.741  0.2569  0.1005 -0.1936
32628SOL    HW1  263   2.736   2.451   5.792 -0.8888  0.4684  0.7342
32628SOL    HW2  264   2.730   2.316   5.723  1.6558  1.1588 -0.9543
32629SOL     OW  265  10.708   1.379   7.441 -0.4223  0.3606 -0.2059
32629SOL    HW1  266  10.719   1.472   7.421  1.4773  0.4207  0.8368
32629SOL    HW2  267  10.766   1.335   7.379 -0.8623 -0.0902 -0.2996
32630SOL     OW  268   9.710   5.646   8.443 -0.3172 -0.3723 -0.1249
32630SOL    HW1  269   9.724   5.712   8.376 -1.4573  0.5285  0.4738
32630SOL    HW2  270   9.623   5.666   8.479 -0.9154 -2.4877 -0.2371
32631SOL     OW  271   3.380  10.103   7.969 -0.0250 -0.5927  0.0226
32631SOL    HW1  272   3.442  10.175   7.981  0.2168 -0.6804 -0.6710
32631SOL    HW2  273   3.434  10.025   7.969 -0.0611 -0.6270 -1.1687
32632SOL     OW  274   3.985   9.517   1.948 -0.2578  0.7776 -0.4839
32632SOL    HW1  275   4.078   9.514   1.972 -0.4163 -0.3251  0.0630
32632SOL    HW2  276   3.959   9.425   1.940 -0.9572  1.0775 -2.0582
32633SOL     OW  277   0.091   6.298   8.551 -0.0597  0.4827 -0.0971
32633SOL    HW1  278   0.085   6.322   8.644 -1.2001  1.1561 -0.3239
32633SOL    HW2  279   0.124   6.377   8.508  3.6649 -0.7889  0.0889
32634SOL     OW  280  10.076   4.915  10.700  0.4688 -0.0423 -0.0050
32634SOL    HW1  281  10.096   4.985  10.762 -2.8648  0.4695  0.7000
32634SOL    HW2  282  10.072   4.959  10.615  2.7343 -0.2996 -0.2940
32635SOL     OW  283   0.026   1.111   1.860 -0.4928  0.5587 -0.4146
32635SOL    HW1  284   0.114   1.124   1.824 -0.8069  0.9929 -1.0309
32635SOL    HW2  285  -0.003   1.198   1.888 -0.7514  0.4284 -0.2691
32636SOL     OW  286   1.816   4.312   7.399  0.3045 -0.0772  0.7178
32636SOL    HW1  287   1.907   4.284   7.413  0.6067  0.4873 -0.0644
32636SOL    HW2  288   1.807   4.317   7.304 -0.7449 -0.7423  0.7799
32637SOL     OW  289   0.538   6.238   8.693  0.0551  0.7468 -0.1309
32637SOL    HW1  290   0.522   6.220   8.785  1.1494 -0.2338 -0.1009
32637SOL    HW2  291   0.620   6.192   8.674  0.2802  1.6266 -1.3835
32638SOL     OW  292   2.834   0.377   6.843  0.1910  0.3300 -0.0321
32638SOL    HW1  293   2.804   0.450   6.788 -0.3181  0.6532  0.6470
32638SOL    HW2  294   2.881   0.420   6.914  0.4486 -0.0529  0.0280
32639SOL     OW  295   3.655   3.776   6.853  0.1477 -0.4077 -0.7382
32639SOL    HW1  296   3.729   3.826   6.888 -0.4393 -0.4080  0.5390
32639SOL    HW2  297   3.632   3.715   6.923 -1.1398 -0.3347 -1.0769
32640SOL     OW  298   9.688   4.764  10.682 -0.3154 -0.6082  0.5602
32640SOL    HW1  299   9.742   4.687  10.701  2.7949  1.1474 -0.5060
32640SOL    HW2  300   9.689   4.815  10.763  0.0385 -0.3409  0.3877
32641SOL     OW  301   0.980   7.253   2.619 -0.1126 -0.0722  0.4612
32641SOL    HW1  302   0.887   7.235   2.605 -0.2791 -0.3707  1.7439
32641SOL    HW2  303   0.987   7.265   2.714  1.2131 -0.3882  0.4197
32642SOL     OW  304   8.196  10.321   5.925 -0.0830 -0.3224  0.0265
32642SOL    HW1  305   8.216  10.233   5.954 -0.5742 -0.6864 -0.6979
32642SOL    HW2  306   8.137  10.309   5.850  0.0070  0.6070 -0.2119
32643SOL     OW  307   9.259  10.152   9.560  0.1846 -0.1388 -0.2121
32643SOL    HW1  308   9.319  10.083   9.588 -0.6926 -0.7245  0.3029
32643SOL    HW2  309   9.176  10.106   9.543 -0.3994  0.7736  0.0887
32644SOL     OW  310   0.229  10.398   5.499 -0.0348  0.2014  0.2414
32644SOL    HW1  311   0.239  10.398   5.595  0.4305  1.4947  0.2168
32644SOL    HW2  312   0.274  10.478   5.471 -1.8408  0.8810 -0.8769
32645SOL     OW  313   9.138   3.634  10.166 -0.2587  0.2724 -0.8219
32645SOL    HW1  314   9.109   3.632  10.075 -0.6089  2.0983 -0.7930
32645SOL    HW2  315   9.200   3.707  10.170 -1.5274  1.3712  0.7020
32646SOL     OW  316   0.896  10.082   1.775  0.5150  0.5479  0.1793
32646SOL    HW1  317   0.834  10.148   1.744  1.3382 -0.0488 -3.0375
32646SOL    HW2  318   0.982  10.125   1.769  0.7279  0.4681  2.0124
32647SOL     OW  319   9.696   6.879   4.751  0.1722  0.2488 -0.0785
32647SOL    HW1  320   9.631   6.918   4.809 -2.3987  0.5229 -2.9273
32647SOL    HW2  321   9.655   6.799   4.719  2.3795 -1.0071  0.0143
32648SOL     OW  322   2.898   4.290   3.216 -0.4054 -0.4530  0.3531
32648SOL    HW1  323   2.863   4.376   3.193  1.0988  0.3695  0.9974
32648SOL    HW2  324   2.846   4.229   3.165 -2.0508  0.7654  0.4848
32649SOL     OW  325   5.551   9.765   1.408  0.3840 -0.0071 -0.1373
32649SOL    HW1  326   5.503   9.701   1.355 -0.3867  0.7362 -0.3705
32649SOL    HW2  327   5.620   9.715   1.451  0.2570 -0.8539 -0.8897
32650SOL     OW  328   8.252   2.809   2.585 -1.0765  0.2649  0.2478
32650SOL    HW1  329   8.222   2.740   2.526  1.2195 -0.9261  0.3259
32650SOL    HW2  330   8.296   2.762   2.656 -0.3435  1.7685  0.8342
32651SOL     OW  331   7.460  10.710   4.380 -0.0301  0.2745  0.3499
32651SOL    HW1  332   7.434  10.682   4.468 -0.2896  0.0873  0.2166
32651SOL    HW2  333   7.455  10.805   4.382  0.6298  0.3040  0.7412
32652SOL     OW  334   4.744   1.962   2.677  0.3420  0.2984  0.4386
32652SOL    HW1  335   4.768   1.880   2.636  1.5898  1.3801 -1.1084
32652SOL    HW2  336   4.827   2.001   2.705 -0.2671  0.7976  1.6592
32653SOL     OW  337   5.730   0.940   9.830  0.1043 -0.5710  0.1083
32653SOL    HW1  338   5.739   0.921   9.923  1.6998  0.8966  0.2901
32653SOL    HW2  339   5.798   1.005   9.811 -0.5060 -0.4544 -1.9751
32654SOL     OW  340   9.891   1.647   5.974  0.5900  0.0713  0.0118
32654SOL    HW1  341   9.862   1.556   5.986  2.9755 -0.8669 -0.5645
32654SOL    HW2  342   9.942   1.666   6.053 -0.3703  1.1720  0.4004
32655SOL     OW  343   8.638   1.894   0.352 -0.2126 -0.5387  0.0564
32655SOL    HW1  344   8.611   1.911   0.442  1.0154  0.9138  0.1874
32655SOL    HW2  345   8.733   1.906   0.352 -0.1851 -0.5374 -1.4292
32656SOL     OW  346   3.092   1.733   2.700  0.1857  0.4106 -0.6233
32656SOL    HW1  347   3.149   1.746   2.624 -0.3621  1.6164 -0.8546
32656SOL    HW2  348   3.025   1.672   2.669  1.2989 -1.0084 -0.3523
32657SOL     OW  349   3.108   8.465   8.123  0.7922  0.5093  0.0178
32657SOL    HW1  350   3.097   8.454   8.029 -0.6594  1.0133  0.1049
32657SOL    HW2  351   3.024   8.439   8.160  1.0175  1.2680  1.1046
32658SOL     OW  352   2.965   2.464   4.702 -0.3087  0.0602 -0.2287
32658SOL    HW1  353   3.018   2.386   4.721 -0.0732  0.6072  1.6216
32658SOL    HW2  354   2.876   2.430   4.693 -0.4187 -0.3473  1.8469
32659SOL     OW  355   3.994   0.619   2.783  0.0282 -0.1731  0.5333
32659SOL    HW1  356   3.981   0.689   2.847 -2.0895  0.0199 -0.0381
32659SOL    HW2  357   3.982   0.538   2.833  0.2381 -0.0792  0.7399
32660SOL     OW  358   6.950  10.100  10.676 -1.4216  0.2844 -0.0793
32660SOL    HW1  359   6.912  10.078  10.761 -1.5127 -1.0393 -0.4389
32660SOL    HW2  360   6.929  10.026  10.620  0.5372  0.0833 -0.6508
32661SOL     OW  361   3.927   1.165   4.728 -0.2219  0.5397 -0.5398
32661SOL    HW1  362   3.914   1.228   4.799  1.1095  1.6439 -1.2321
32661SOL    HW2  363   3.940   1.219   4.651  1.8546 -0.5407 -1.0147
32662SOL     OW  364   9.516   9.112   7.373 -0.7519  0.2576 -0.3794
32662SOL    HW1  365   9.505   9.170   7.297 -0.7917  2.4382  1.2061
32662SOL    HW2  366   9.599   9.140   7.413 -0.0529 -1.7414 -0.3020
32663SOL     OW  367  10.156   8.318   5.850  0.1561  0.0365  0.1126
32663SOL    HW1  368  10.227   8.345   5.792  0.8714  0.1939  1.0389
32663SOL    HW2  369  10.103   8.257   5.797 -0.4197  1.7534 -1.3837
32664SOL     OW  370   9.598   6.006   0.696  0.1304  0.7915 -0.0194
32664SOL    HW1  371   9.525   6.041   0.645 -1.1495  2.4363  2.7493
32664SOL    HW2  372   9.584   6.039   0.785  1.8325 -2.4899  1.6474
32665SOL     OW  373   6.643   1.066   0.771  0.2183 -0.2636 -0.3819
32665SOL    HW1  374   6.618   1.112   0.691 -0.3627  2.0315  1.0530
32665SOL    HW2  375   6.582   1.098   0.837  0.0764 -2.8025  0.8357
32666SOL     OW  376   7.776   6.141   0.949  0.6073  0.2802  0.0295
32666SOL    HW1  377   7.811   6.212   0.896  0.8239 -0.7740 -1.3154
32666SOL    HW2  378   7.808   6.158   1.038 -0.2600  2.4198 -0.0311
32667SOL     OW  379   8.880   8.168   0.776  0.0962  0.3679  0.4239
32667SOL    HW1  380   8.801   8.167   0.830  0.0879  0.9698  0.4374
32667SOL    HW2  381   8.857   8.221   0.700 -0.0219 -0.8459 -0.3984
32668SOL     OW  382   9.430  10.256   9.955 -0.4776 -0.4552  0.5097
32668SOL    HW1  383   9.431  10.287  10.045 -1.0361  2.3663 -0.3567
32668SOL    HW2  384   9.522  10.258   9.927 -0.4516 -0.0733  0.6223
32669SOL     OW  385   5.203   5.397   8.917 -0.5173  0.1294  0.4834
32669SOL    HW1  386   5.165   5.428   8.835 -1.1273  0.5519  0.9133
32669SOL    HW2  387   5.143   5.429   8.985  0.6600  0.9135  1.1902
32670SOL     OW  388   3.712   9.733   1.655  0.3024 -0.0387 -0.2196
32670SOL    HW1  389   3.710   9.696   1.744  0.5412 -0.0837 -0.2319
32670SOL    HW2  390   3.775   9.678   1.608  0.8180  0.5107 -0.1804
32671SOL     OW  391   5.962  10.717   6.712  0.0721  0.0178  0.6543
32671SOL    HW1  392   5.890  10.762   6.668 -1.2405 -0.9356  1.7435
32671SOL    HW2  393   5.992  10.778   6.779  0.2731  0.4039  0.2182
32672SOL     OW  394  10.703   6.706  10.251  0.1274  0.1851 -0.3769
32672SOL    HW1  395  10.749   6.648  10.191 -0.1306 -0.1798 -0.2308
32672SOL    HW2  396  10.612   6.675  10.249  0.2721 -0.4035  0.8495
32673SOL     OW  397   6.737   1.503   2.284 -0.8373  0.6722  0.6794
32673SOL    HW1  398   6.674   1.540   2.346 -1.1295  1.1115  0.1344
32673SOL    HW2  399   6.697   1.421   2.256 -1.7165  1.4571 -0.4785
32674SOL     OW  400   9.632   1.976   7.346  0.1931 -0.2708 -0.1362
32674SOL    HW1  401   9.636   2.069   7.370 -1.7034 -0.1060 -0.3147
32674SOL    HW2  402   9.561   1.971   7.282 -0.1953 -1.9573  0.3813
32675SOL     OW  403   2.870   7.846   1.629 -0.3977 -0.2607  0.5699
32675SOL    HW1  404   2.867   7.754   1.603  1.5185 -0.1185 -0.3362
32675SOL    HW2  405   2.920   7.847   1.711 -2.9806 -0.2777  2.2602
32676SOL     OW  406   3.674   5.254   4.220 -0.2456  0.5282  0.0215
32676SOL    HW1  407   3.762   5.252   4.259 -1.2975 -0.6796  2.5080
32676SOL    HW2  408   3.636   5.169   4.243 -2.6351  1.6354  0.4086
32677SOL     OW  409   4.164  10.691   2.178  0.3500  0.1670 -0.1684
32677SOL    HW1  410   4.070  10.700   2.193  0.4419 -1.2828  1.7341
32677SOL    HW2  411   4.204  10.749   2.244  0.7598 -1.4153  1.0370
32678SOL     OW  412   1.411   2.297   3.632  0.1267  0.0496  0.0797
32678SOL    HW1  413   1.450   2.378   3.600 -0.6314  0.7081  0.7944
32678SOL    HW2  414   1.485   2.237   3.641  0.5361  0.2461 -1.6242
32679SOL     OW  415   6.852   7.627   0.436  0.2510  0.0906 -0.3728
32679SOL    HW1  416   6.838   7.721   0.448  0.8821  0.5371 -2.6762
32679SOL    HW2  417   6.764   7.590   0.434  0.0162  0.2515  2.6285
32680SOL     OW  418   4.352   8.856   5.841 -0.2022  0.2767 -0.3891
32680SOL    HW1  419   4.373   8.811   5.759 -0.1383 -0.4131  0.0019
32680SOL    HW2  420   4.437   8.879   5.878 -0.1950 -0.4088  0.0300
32681SOL     OW  421   4.255   8.563   8.603  0.0407  0.1744  0.2889
32681SOL    HW1  422   4.332   8.578   8.548 -0.8245 -1.1777 -1.3851
32681SOL    HW2  423   4.201   8.641   8.591  0.5007  0.5061  0.3488
32682SOL     OW  424   4.286   9.588  10.545  0.6622 -0.0871  0.0020
32682SOL    HW1  425   4.342   9.557  10.616  2.5715  0.1947 -1.3082
32682SOL    HW2  426   4.230   9.654  10.586  2.9007  1.3506  0.9441
32683SOL     OW  427   7.482   2.355   7.569  1.0167 -0.5021 -0.1592
32683SOL    HW1  428   7.542   2.429   7.557  0.2705 -0.0635 -1.3543
32683SOL    HW2  429   7.411   2.390   7.622  0.4062 -0.1889 -1.1550
32684SOL     OW  430   2.175   1.052   2.775  0.0227  0.1062 -0.7165
32684SOL    HW1  431   2.126   0.972   2.796  1.1689 -0.4030  0.0672
32684SOL    HW2  432   2.267   1.025   2.776  0.3427  1.0409 -2.2114
32685SOL     OW  433   2.128   9.412   5.102 -0.2989  0.0982  0.1943
32685SOL    HW1  434   2.184   9.425   5.025  0.6493  0.2213  0.8951
32685SOL    HW2  435   2.044   9.451   5.076  0.3146  1.0653 -0.4069
32686SOL     OW  436   9.408   0.121   1.605  0.4298  0.1060  0.0711
32686SOL    HW1  437   9.456   0.135   1.687  1.5904  0.5027 -0.6544
32686SOL    HW2  438   9.457   0.053   1.560 -1.9019 -2.3446  0.9763
32687SOL     OW  439  10.245   5.963   3.356  0.3813 -1.0936  0.1116
32687SOL    HW1  440  10.208   6.034   3.410 -0.3925 -0.0870 -1.6663
32687SOL    HW2  441  10.339   5.970   3.369  0.3737  0.6729 -0.4507
32688SOL     OW  442   4.527   9.878   2.026  0.3523  0.2126  0.1006
32688SOL    HW1  443   4.553   9.965   1.996 -0.9532 -0.2465 -2.6877
32688SOL    HW2  444   4.609   9.828   2.030  0.7755  0.7734 -1.1741
32689SOL     OW  445   1.955   8.765   0.669  0.0676  0.0258  0.4224
32689SOL    HW1  446   2.007   8.799   0.597  0.9510 -0.0778  0.9912
32689SOL    HW2  447   1.867   8.755   0.633  0.6866 -0.9270 -0.9068
32690SOL     OW  448   8.549   5.057   5.658  0.0461  0.3157  0.6765
32690SOL    HW1  449   8.632   5.080   5.699  0.2471 -1.8383  1.6391
32690SOL    HW2  450   8.491   5.036   5.732 -0.8679  0.3118 -0.0242
32691SOL     OW  451   7.746   6.800   6.514  0.1913  0.0963  1.0569
32691SOL    HW1  452   7.713   6.801   6.424  1.0056 -1.4698  0.7117
32691SOL    HW2  453   7.815   6.866   6.514  2.2270 -1.8816 -0.3447
32692SOL     OW  454   4.071   9.131   3.531  0.1141  0.5348 -0.4474
32692SOL    HW1  455   4.159   9.105   3.557  0.0918 -1.6374 -2.2740
32692SOL    HW2  456   4.012   9.075   3.582 -0.1232  0.2920 -0.9832
32693SOL     OW  457   1.505   0.869  10.272  0.1360  0.7105  0.3246
32693SOL    HW1  458   1.559   0.865  10.351 -0.3626  2.5892  0.8099
32693SOL    HW2  459   1.508   0.781  10.236  2.0942  0.3427  1.2887
32694SOL     OW  460  10.553   9.461   0.055  0.2110 -0.1617  0.4148
32694SOL    HW1  461  10.590   9.474   0.142 -0.7099  1.8065  0.5706
32694SOL    HW2  462  10.542   9.549   0.020  1.3700 -0.9236 -2.0811
32695SOL     OW  463   4.791   5.116   6.460 -0.0777  0.4285  0.0176
32695SOL    HW1  464   4.847   5.193   6.452 -1.4986  1.3775 -1.4979
32695SOL    HW2  465   4.778   5.086   6.370  0.9305 -1.9963  0.6059
32696SOL     OW  466   9.885   8.759   7.528 -0.1769 -0.1761 -0.7384
32696SOL    HW1  467   9.973   8.796   7.522 -0.0348 -0.6229 -1.6037
32696SOL    HW2  468   9.839   8.816   7.589  0.7896 -0.0882 -0.0558
32697SOL     OW  469   3.206   0.451  10.020 -0.0427  0.8434 -0.1751
32697SOL    HW1  470   3.299   0.461  10.040 -0.1516 -1.2765  1.8635
32697SOL    HW2  471   3.192   0.357  10.017 -2.3259  1.0717  0.7703
32698SOL     OW  472   3.203   7.475  10.526  0.0311  0.0024  0.5924
32698SOL    HW1  473   3.124   7.518  10.495 -0.5534  0.1442  2.1967
32698SOL    HW2  474   3.184   7.381  10.519 -0.0114  0.0331  0.3164
32699SOL     OW  475   6.508   4.217   6.637 -0.1018 -0.0940 -0.2318
32699SOL    HW1  476   6.505   4.220   6.733 -2.0824  0.2132 -0.2633
32699SOL    HW2  477   6.473   4.301   6.609  2.7043  0.8332 -1.2923
32700SOL     OW  478   7.242   4.104  10.444 -0.2713 -0.0864 -0.2778
32700SOL    HW1  479   7.190   4.108  10.364 -0.0445  0.5547 -0.3983
32700SOL    HW2  480   7.331   4.127  10.417 -0.1972  0.1565  0.1601
32701SOL     OW  481   7.500   1.939   9.404  0.3323  0.7213 -0.2587
32701SOL    HW1  482   7.531   1.912   9.318 -1.6583 -0.4262 -0.6718
32701SOL    HW2  483   7.405   1.932   9.398  0.1563  0.4506  2.0948
32702SOL     OW  484   6.923   7.162   7.407 -0.3952 -0.1586 -0.0102
32702SOL    HW1  485   7.000   7.216   7.388 -1.4146  0.8091 -1.6506
32702SOL    HW2  486   6.918   7.101   7.333 -0.4748 -1.0995  0.7526
32703SOL     OW  487   7.121   2.959   6.590 -0.7377  0.2312 -0.5011
32703SOL    HW1  488   7.180   2.939   6.517 -1.4165  1.4548 -1.4221
32703SOL    HW2  489   7.035   2.930   6.560 -0.5906 -2.0211  1.0351
32704SOL     OW  490   1.259   0.444   1.187  0.2414  0.3690  0.0940
32704SOL    HW1  491   1.288   0.495   1.112  1.4447 -1.4499 -0.7620
32704SOL    HW2  492   1.326   0.376   1.197 -1.1868 -0.9596  1.2245
32705SOL     OW  493   0.772   8.303   2.800  0.1226  0.1486 -0.0351
32705SOL    HW1  494   0.844   8.245   2.773  0.2651 -0.1132  0.8846
32705SOL    HW2  495   0.802   8.391   2.774  0.0877 -0.1280 -1.0572
32706SOL     OW  496   3.216   7.227   9.451 -0.0341 -0.4724 -0.2688
32706SOL    HW1  497   3.220   7.285   9.527  2.5489 -0.4601 -0.3056
32706SOL    HW2  498   3.130   7.187   9.455 -0.5163  0.6439  1.8094
32707SOL     OW  499   2.771   8.295   0.610 -0.4043  0.2800 -0.5161
32707SOL    HW1  500   2.758   8.237   0.685  0.3493  1.3275  0.4606
32707SOL    HW2  501   2.725   8.252   0.538 -2.2552 -0.1403  0.8442
32708SOL     OW  502   0.352   5.873   1.812  0.0526  0.3916  0.7004
32708SOL    HW1  503   0.411   5.804   1.842 -0.0112  0.1486  0.2794
32708SOL    HW2  504   0.338   5.927   1.889  1.1062  0.6591  0.7300
32709SOL     OW  505   8.259   9.783  10.487 -0.1661 -1.1105  0.0639
32709SOL    HW1  506   8.290   9.714  10.546  2.0201 -2.0707 -2.0430
32709SOL    HW2  507   8.337   9.833  10.465 -1.3250  0.6420 -0.2879
32710SOL     OW  508   7.370   0.826   4.928 -0.4240 -0.4430  0.2275
32710SOL    HW1  509   7.425   0.786   4.995  1.6127 -1.4561 -1.9039
32710SOL    HW2  510   7.329   0.752   4.884  1.0580 -0.1237 -1.8416
32711SOL     OW  511   4.943   4.224   7.010 -0.3874 -0.3406  0.2269
32711SOL    HW1  512   5.002   4.299   7.014  0.7816 -1.1369 -1.2811
32711SOL    HW2  513   4.902   4.229   6.924 -2.1726 -0.1109  1.0284
32712SOL     OW  514   6.182   5.298   0.120 -0.8974 -0.4871 -0.1096
32712SOL    HW1  515   6.129   5.299   0.199  0.2140  0.5826  0.6643
32712SOL    HW2  516   6.245   5.369   0.133  1.0014 -1.9744 -0.7884
32713SOL     OW  517   9.137   5.317   0.567  0.6323  0.4309 -0.1450
32713SOL    HW1  518   9.211   5.314   0.507  0.4930  0.3758 -0.3161
32713SOL    HW2  519   9.061   5.332   0.511  0.1167 -2.3586 -0.3206
32714SOL     OW  520   7.657   1.268   9.001  0.1191  0.0876  0.5516
32714SOL    HW1  521   7.583   1.317   9.038  0.6445 -1.4112  4.0014
32714SOL    HW2  522   7.734   1.319   9.026  0.5240 -1.2288  2.1623
32715SOL     OW  523   9.980   0.368   5.066  0.0530  0.3635 -0.4454
32715SOL    HW1  524   9.916   0.400   5.130  1.9252  2.4897  0.4727
32715SOL    HW2  525   9.932   0.369   4.983 -1.6377  0.0917  0.4790
32716SOL     OW  526   7.361   8.004   4.233  0.3403  0.0286  0.3134
32716SOL    HW1  527   7.267   8.007   4.219  0.3422  1.3214  0.4210
32716SOL    HW2  528   7.377   8.069   4.302  1.2742 -0.3398  0.4547
32717SOL     OW  529   1.533   3.785   0.887 -0.1873 -0.4859  0.1696
32717SOL    HW1  530   1.537   3.759   0.979 -1.5634 -1.3422  0.0178
32717SOL    HW2  531   1.439   3.792   0.869  0.0532 -0.8118 -1.2984
32718SOL     OW  532   2.452   1.560   6.968  0.3627  0.2319 -0.4678
32718SOL    HW1  533   2.413   1.479   7.002 -1.5642  1.3070  0.0735
32718SOL    HW2  534   2.435   1.558   6.874 -1.2912  0.7574 -0.2206
32719SOL     OW  535   3.517   1.695   5.245  0.2890  0.4632  0.2944
32719SOL    HW1  536   3.586   1.755   5.275 -0.7812  1.5268  0.6849
32719SOL    HW2  537   3.437   1.728   5.287 -0.4305 -0.8655  0.0024
32720SOL     OW  538   7.870  10.383   1.701 -0.0776  0.5204 -0.1137
32720SOL    HW1  539   7.833  10.298   1.676  0.0169  0.0116  1.3712
32720SOL    HW2  540   7.956  10.385   1.660  2.3956 -2.6199  4.0540
32721SOL     OW  541   7.772  10.586   5.708 -0.5983 -0.2945 -0.3495
32721SOL    HW1  542   7.813  10.657   5.757 -0.4617 -0.7462  0.2049
32721SOL    HW2  543   7.826  10.576   5.629  1.7672 -2.3420  1.3852
32722SOL     OW  544   8.684   6.725   0.851 -0.7725 -0.4832  0.3764
32722SOL    HW1  545   8.671   6.724   0.756 -0.6192 -0.1571  0.3495
32722SOL    HW2  546   8.741   6.800   0.866 -1.7331  0.1795  0.8481
32723SOL     OW  547   8.482   4.363   8.606 -0.2420  0.1234 -0.1225
32723SOL    HW1  548   8.414   4.301   8.634 -0.0705  0.1608  0.3902
32723SOL    HW2  549   8.564   4.313   8.612  0.0432  0.7228  1.4208
32724SOL     OW  550   3.489   5.543   8.976 -0.4652 -0.4742 -0.0259
32724SOL    HW1  551   3.402   5.530   9.014 -0.6636  0.6239 -0.0789
32724SOL    HW2  552   3.541   5.580   9.047 -0.0846 -0.9495 -0.0519
32725SOL     OW  553   4.927  10.341   5.926 -0.1556 -0.4106  0.4038
32725SOL    HW1  554   4.831  10.345   5.924 -0.1440  0.6606  1.3850
32725SOL    HW2  555   4.949  10.326   6.018  0.6833  2.7387  0.8269
32726SOL     OW  556   3.936   5.241   4.328 -0.1139 -0.3032  0.0490
32726SOL    HW1  557   3.952   5.323   4.375  0.3512 -0.3012 -0.1066
32726SOL    HW2  558   3.985   5.176   4.378 -0.4970 -0.4885  0.1808
32727SOL     OW  559   2.067  10.297   6.629 -0.5154 -0.2989 -0.6710
32727SOL    HW1  560   2.041  10.226   6.572  0.6110 -2.0110  0.8314
32727SOL    HW2  561   2.162  10.287   6.638 -0.2609  1.6630 -0.7348
32728SOL     OW  562   3.177   2.264   7.037  0.0709  0.1955 -0.1804
32728SOL    HW1  563   3.126   2.284   7.116  1.2340  0.4763  0.5321
32728SOL    HW2  564   3.261   2.231   7.071  0.6377  0.4333 -1.3046
32729SOL     OW  565   1.779   6.566   7.356 -0.3890  0.1017  0.0375
32729SOL    HW1  566   1.797   6.652   7.318  0.8735 -0.3484 -0.4346
32729SOL    HW2  567   1.865   6.533   7.383 -0.7441 -1.3187 -0.4692
32730SOL     OW  568   3.557   0.936   8.979  0.0609 -0.2060 -0.4250
32730SOL    HW1  569   3.579   1.024   8.948  0.9148 -0.5530 -0.8389
32730SOL    HW2  570   3.591   0.877   8.912 -0.3921 -0.8627 -0.0912
32731SOL     OW  571   0.584   3.530   9.788 -0.1989 -0.1359  0.3789
32731SOL    HW1  572   0.489   3.527   9.801 -0.2933 -0.3866 -0.3302
32731SOL    HW2  573   0.608   3.621   9.805 -1.1683  0.9632 -3.2707
32732SOL     OW  574  10.389   9.988   6.147 -0.8388 -0.1007  0.2909
32732SOL    HW1  575  10.383   9.966   6.239  0.2508  0.2416  0.4568
32732SOL    HW2  576  10.467  10.044   6.140 -1.8171  1.2314 -0.5666
32733SOL     OW  577   0.796   8.450   9.942  0.3837  0.5345  1.1009
32733SOL    HW1  578   0.818   8.409   9.859  2.1396 -0.0673  1.8142
32733SOL    HW2  579   0.712   8.410   9.967  0.4908 -0.2535  0.2517
32734SOL     OW  580   8.353   4.173   3.731 -0.1328  0.0944 -0.5161
32734SOL    HW1  581   8.341   4.078   3.722  1.9038 -0.4011  1.2419
32734SOL    HW2  582   8.391   4.201   3.648  2.1202 -1.2307 -0.0196
32735SOL     OW  583   3.894  10.233   9.350  0.0741 -0.4631 -0.0824
32735SOL    HW1  584   3.858  10.245   9.438  1.4559  2.0135  0.2441
32735SOL    HW2  585   3.953  10.158   9.358  0.2861 -0.1800  1.1687
32736SOL     OW  586   4.250  10.793   5.438  0.2486  0.0268  0.3927
32736SOL    HW1  587   4.264  10.699   5.430  2.5716  0.3481  0.1765
32736SOL    HW2  588   4.337  10.829   5.456 -0.6698  2.0888  0.9902
32737SOL     OW  589   9.536   7.824   6.037 -0.7737  0.1816  0.2465
32737SOL    HW1  590   9.619   7.865   6.059 -0.0734  0.0610 -1.9753
32737SOL    HW2  591   9.470   7.879   6.079  0.3586  1.0537  0.9257
32738SOL     OW  592   3.797   7.934   1.761 -0.6405  0.3321 -0.3057
32738SOL    HW1  593   3.784   7.950   1.667  0.0707  1.4955 -0.2257
32738SOL    HW2  594   3.712   7.953   1.800 -0.4815  1.5698 -0.5235
32739SOL     OW  595   7.880  10.636   1.391 -0.8102 -0.2734 -0.1938
32739SOL    HW1  596   7.939  10.673   1.456 -0.9064  0.8800 -0.7412
32739SOL    HW2  597   7.922  10.554   1.365  1.4135  1.2099 -1.6926
32740SOL     OW  598   1.798   2.831   3.965  0.2290  0.4123  0.1657
32740SOL    HW1  599   1.886   2.853   3.994  0.6141  0.0030 -0.6387
32740SOL    HW2  600   1.740   2.892   4.011  0.9919  1.1137  0.2045
32741SOL     OW  601   4.366   2.529   4.676 -0.3548  0.5786 -0.3477
32741SOL    HW1  602   4.286   2.578   4.656 -0.5781  0.2542 -0.2655
32741SOL    HW2  603   4.359   2.450   4.622 -1.0408 -0.3822  1.0933
32742SOL     OW  604   1.581   3.701   7.018  0.3691 -0.0853 -0.1176
32742SOL    HW1  605   1.620   3.788   7.008  1.0658 -0.3848 -0.1045
32742SOL    HW2  606   1.648   3.651   7.065  1.0217 -1.3331 -2.2451
32743SOL     OW  607  10.737   7.109   7.594  1.0008  0.0871  0.8023
32743SOL    HW1  608  10.825   7.092   7.561  1.2135 -0.1178  1.4600
32743SOL    HW2  609  10.692   7.025   7.589  0.5060  0.4060 -0.4906
32744SOL     OW  610  10.584   4.615   4.513  0.6068 -0.7341  0.2929
32744SOL    HW1  611  10.598   4.527   4.477 -2.0736 -0.3074 -2.1230
32744SOL    HW2  612  10.498   4.611   4.556  1.1363  0.3584  1.5568
32745SOL     OW  613   1.875   8.871   1.238 -0.6553  0.5755 -0.5695
32745SOL    HW1  614   1.938   8.881   1.309 -0.5067  1.1710 -0.7770
32745SOL    HW2  615   1.921   8.821   1.171  0.3236  2.6761 -1.5533
32746SOL     OW  616   0.752   6.194   8.397  0.0375  0.7331  0.2942
32746SOL    HW1  617   0.822   6.256   8.374 -1.2613  2.2261  0.2056
32746SOL    HW2  618   0.687   6.247   8.442 -0.5103 -0.8718  1.4949
32747SOL     OW  619   3.717   5.656   5.510  0.0794  0.0043 -0.2402
32747SOL    HW1  620   3.638   5.657   5.564  2.1046  2.1461  3.0284
32747SOL    HW2  621   3.718   5.742   5.468  0.5217 -0.1551 -0.5650
32748SOL     OW  622   0.938   6.363   0.810  0.2962 -1.1427 -0.1806
32748SOL    HW1  623   0.963   6.444   0.765  2.2277 -1.9848 -0.7299
32748SOL    HW2  624   0.898   6.392   0.892  2.4292  0.3723  0.3917
32749SOL     OW  625   3.654   9.993   8.535 -0.0056  0.2584  0.0918
32749SOL    HW1  626   3.637  10.056   8.605 -2.0789  1.6849 -1.5927
32749SOL    HW2  627   3.588   9.925   8.546 -2.7874  2.2873 -2.3843
32750SOL     OW  628   7.846   6.152   9.435 -0.5570 -0.1605 -0.1317
32750SOL    HW1  629   7.941   6.138   9.440 -0.6849 -1.0283  0.0015
32750SOL    HW2  630   7.824   6.196   9.518 -0.1078  1.1462 -0.6769
32751SOL     OW  631   0.040  10.519   8.760  0.0217 -0.3095 -0.3352
32751SOL    HW1  632   0.063  10.524   8.667  0.5650 -1.0019 -0.2501
32751SOL    HW2  633  -0.029  10.584   8.771  1.4288  1.3336 -0.7653
32752SOL     OW  634   0.373   5.812   6.403 -0.1366  0.6125  0.0093
32752SOL    HW1  635   0.330   5.897   6.407  0.6972  1.0381  0.1787
32752SOL    HW2  636   0.447   5.826   6.343 -1.2708 -0.5810 -1.7396
32753SOL     OW  637   9.950   7.336  10.126 -0.2696 -0.8466 -0.1070
32753SOL    HW1  638   9.939   7.415  10.073 -1.3482 -1.5042 -0.8837
32753SOL    HW2  639   9.899   7.353  10.206 -1.1677 -1.0619 -0.6220
32754SOL     OW  640   2.864   7.667   0.886 -0.2340  0.0184 -0.0023
32754SOL    HW1  641   2.864   7.629   0.798 -0.2826 -2.2796  0.9245
32754SOL    HW2  642   2.773   7.690   0.902 -0.0395  1.6478 -0.9816
32755SOL     OW  643   5.871   9.123   1.892  0.0028  0.6191 -0.6546
32755SOL    HW1  644   5.871   9.144   1.986 -0.5549  2.3437 -1.0059
32755SOL    HW2  645   5.881   9.028   1.889  0.5531  0.5740  1.1397
32756SOL     OW  646   9.326   5.269   1.667 -0.7434  0.0823  0.2405
32756SOL    HW1  647   9.369   5.294   1.749  0.8761 -0.7650 -0.3094
32756SOL    HW2  648   9.332   5.173   1.665 -0.8690  0.0863 -0.8152
32757SOL     OW  649   5.306   5.369  10.093 -0.4204  0.2483 -0.3354
32757SOL    HW1  650   5.350   5.285  10.100  1.4739  1.2300  0.4310
32757SOL    HW2  651   5.212   5.349  10.099 -0.0523 -1.8354 -0.9369
32758SOL     OW  652   9.985   5.544  10.064  0.1378  0.1034  0.4445
32758SOL    HW1  653   9.947   5.573   9.980  0.4399 -0.2241  0.1947
32758SOL    HW2  654  10.064   5.497  10.040  1.1936  1.5185  0.9994
32759SOL     OW  655   6.806   7.083   0.334 -0.4869 -0.5447  0.1466
32759SOL    HW1  656   6.775   7.083   0.424  0.2891  1.0095  0.4488
32759SOL    HW2  657   6.888   7.034   0.336 -0.1486  0.0251  0.4210
32760SOL     OW  658   0.373   0.351   4.191 -0.0581  0.2253  0.5441
32760SOL    HW1  659   0.319   0.403   4.132 -0.7060  0.5537  1.4141
32760SOL    HW2  660   0.412   0.415   4.251 -0.4854 -0.2311  1.3245
32761SOL     OW  661   4.162   9.639  10.147  0.3710 -0.0398 -0.5492
32761SOL    HW1  662   4.228   9.709  10.148  0.3018  0.0211  0.3766
32761SOL    HW2  663   4.195   9.573  10.207 -1.0541  0.6178  1.0381
32762SOL     OW  664   8.939   7.927   0.080 -0.0947  0.1031 -0.2181
32762SOL    HW1  665   8.862   7.873   0.063 -0.1779  0.6124 -1.5207
32762SOL    HW2  666   8.990   7.876   0.143 -0.1455 -1.5236 -1.4422
32763SOL     OW  667  10.609   4.872   4.049 -0.3060 -0.0790  0.3491
32763SOL    HW1  668  10.640   4.962   4.045 -0.8359  0.0472 -1.2692
32763SOL    HW2  669  10.654   4.827   3.978 -0.5428 -0.9452  0.7265
32764SOL     OW  670   8.299  10.574   8.228 -0.2029  0.1131 -0.1184
32764SOL    HW1  671   8.277  10.554   8.137  0.6402  2.1267 -0.8236
32764SOL    HW2  672   8.366  10.510   8.252 -1.0605 -0.9874 -0.5993
32765SOL     OW  673   6.622   2.822   9.786  0.0152  0.2538 -0.0540
32765SOL    HW1  674   6.624   2.871   9.868 -1.4308  0.2936 -0.0154
32765SOL    HW2  675   6.561   2.751   9.802 -0.6096  0.5036 -1.2216
32766SOL     OW  676   9.085   3.918   6.082 -0.0098 -0.2263  0.1694
32766SOL    HW1  677   9.165   3.872   6.105  0.7715  0.7767 -0.4472
32766SOL    HW2  678   9.110   4.011   6.081 -1.3428  0.1574  0.6178
32767SOL     OW  679   2.812   4.184   4.559 -0.1397  0.3228 -0.3428
32767SOL    HW1  680   2.891   4.131   4.571  0.1768  1.0195  0.7536
32767SOL    HW2  681   2.845   4.270   4.532 -0.4443  0.9364  1.1699
32768SOL     OW  682   2.016   4.171   4.505 -0.0719  0.2618 -0.2165
32768SOL    HW1  683   2.092   4.215   4.468  0.5294 -0.8798 -0.3698
32768SOL    HW2  684   2.012   4.087   4.460  0.5161 -1.0727  2.0667
32769SOL     OW  685   9.774   9.459   9.748  0.4340  0.5034 -0.3125
32769SOL    HW1  686   9.786   9.366   9.770  1.0571  0.4597 -0.8141
32769SOL    HW2  687   9.746   9.457   9.656 -0.7991  0.7518  0.0391
32770SOL     OW  688   2.864   0.433   0.701  0.8796  0.3854 -0.4688
32770SOL    HW1  689   2.955   0.404   0.701  0.6341 -0.4130 -0.4864
32770SOL    HW2  690   2.853   0.480   0.784  1.4348  0.9333 -0.6945
32771SOL     OW  691   0.666   8.720   5.235 -0.0835 -0.0491 -0.2949
32771SOL    HW1  692   0.639   8.632   5.259  1.2554 -0.1235  1.1162
32771SOL    HW2  693   0.602   8.777   5.276 -0.2730 -0.3232 -0.2054
32772SOL     OW  694   0.448   5.446   3.285  0.1718 -0.4217  0.1682
32772SOL    HW1  695   0.454   5.445   3.189 -1.0452 -0.9350  0.0767
32772SOL    HW2  696   0.376   5.505   3.304 -0.7974 -1.7082  0.6618
32773SOL     OW  697   2.664   7.431   0.415  0.3439  0.1594  0.5418
32773SOL    HW1  698   2.674   7.520   0.380  2.2269  0.2445  1.1808
32773SOL    HW2  699   2.743   7.385   0.386 -0.1413 -1.0184  1.0502
32774SOL     OW  700   3.923   9.594   0.442 -0.1306  0.0991 -0.3294
32774SOL    HW1  701   3.892   9.528   0.505 -2.2440 -0.4984 -1.8840
32774SOL    HW2  702   3.941   9.671   0.496 -1.4975 -0.5178  1.1052
32775SOL     OW  703   1.499   8.832   8.384  0.5786 -0.6053 -0.7763
32775SOL    HW1  704   1.440   8.763   8.413  1.1439 -0.6686  0.2889
32775SOL    HW2  705   1.559   8.790   8.323  1.3183 -1.2207  0.3513
32776SOL     OW  706   6.775   4.433   0.928  0.0967  0.0471 -0.3569
32776SOL    HW1  707   6.753   4.411   1.019 -0.3924  1.8743  0.0101
32776SOL    HW2  708   6.830   4.511   0.935  2.4286 -1.3713 -1.5402
32777SOL     OW  709   3.780   4.049   8.153 -0.5480 -0.1936 -0.1917
32777SOL    HW1  710   3.701   4.058   8.207 -1.0040  0.0699 -0.8825
32777SOL    HW2  711   3.819   4.137   8.153  0.3275 -0.5607  0.9959
32778SOL     OW  712   5.540   4.245   3.143  0.0823 -0.0192 -0.3580
32778SOL    HW1  713   5.523   4.190   3.067 -0.1188  1.3619 -1.3713
32778SOL    HW2  714   5.635   4.258   3.142  0.0882 -0.0627 -0.3320
32779SOL     OW  715   6.947  10.150   5.606  0.0296  0.1845  0.8455
32779SOL    HW1  716   6.975  10.212   5.539 -0.8567 -1.3771 -1.0473
32779SOL    HW2  717   7.021  10.091   5.617  0.1366  0.3788  1.2098
32780SOL     OW  718  10.557   4.666   7.786  0.4067 -0.0535 -0.1637
32780SOL    HW1  719  10.641   4.682   7.827  0.5161 -0.5090 -0.1976
32780SOL    HW2  720  10.567   4.699   7.696  0.2017  0.8454  0.1384
32781SOL     OW  721   4.164   7.308   7.447 -0.4364 -0.1522  1.2158
32781SOL    HW1  722   4.090   7.250   7.432 -1.1738  1.2073 -0.8151
32781SOL    HW2  723   4.178   7.305   7.541 -0.6019 -3.3405  1.2763
32782SOL     OW  724   1.510   9.729   0.090  0.5768  0.0434  0.7576
32782SOL    HW1  725   1.435   9.789   0.094  1.2567  0.8863  1.3653
32782SOL    HW2  726   1.578   9.774   0.140  1.7391 -0.3490 -0.4326
32783SOL     OW  727   5.877   0.468   8.985 -0.3389  0.1127 -0.4101
32783SOL    HW1  728   5.821   0.404   8.941  0.3048 -0.6683 -0.1126
32783SOL    HW2  729   5.962   0.425   8.992 -0.0020  0.8470  0.1617
32784SOL     OW  730   9.841   5.806   6.437  0.1370  0.3189  0.8251
32784SOL    HW1  731   9.771   5.778   6.496  1.7601 -0.6649  2.3876
32784SOL    HW2  732   9.914   5.827   6.495  1.3225  0.7848 -0.7754
32785SOL     OW  733   6.424   3.241   4.328  0.0123  0.3673  0.4777
32785SOL    HW1  734   6.499   3.227   4.386  0.4449  0.1162 -0.1294
32785SOL    HW2  735   6.434   3.331   4.296  1.8304 -0.6059 -2.0286
32786SOL     OW  736   9.829   9.187   6.877  0.0308  0.2194 -0.5008
32786SOL    HW1  737   9.816   9.115   6.815  2.0288 -0.5908 -0.0362
32786SOL    HW2  738   9.884   9.249   6.830  0.8663 -0.0127  0.1534
32787SOL     OW  739   6.341   1.678   2.085 -0.0314  0.0963  0.5560
32787SOL    HW1  740   6.326   1.691   1.991 -1.4488 -0.6066  0.6520
32787SOL    HW2  741   6.434   1.695   2.097  0.5437 -1.3956 -1.2714
32788SOL     OW  742  10.481   1.504   9.764  0.3669 -0.1146  0.0923
32788SOL    HW1  743  10.490   1.459   9.680 -0.1967 -0.1442  0.0462
32788SOL    HW2  744  10.550   1.466   9.819  0.7964 -0.0262 -0.3840
32789SOL     OW  745   9.133   4.764   7.176  0.1949  0.4714 -0.1969
32789SOL    HW1  746   9.079   4.766   7.097  0.9953 -0.2490 -0.7869
32789SOL    HW2  747   9.214   4.808   7.150  0.2807  0.6457  0.3674
32790SOL     OW  748  10.336  10.624   8.897  0.0139 -0.9336  0.0437
32790SOL    HW1  749  10.246  10.616   8.865 -1.0069  0.6935  2.2091
32790SOL    HW2  750  10.331  10.693   8.964  3.0116 -0.3357 -0.2117
32791SOL     OW  751   1.020   9.018   1.998 -0.5743 -0.3425 -0.4139
32791SOL    HW1  752   0.973   9.058   1.924 -1.6303  0.7852  0.8153
32791SOL    HW2  753   1.076   9.088   2.031 -0.3569 -0.7412  0.0633
32792SOL     OW  754  10.199   2.793   2.839  0.2303  0.1398 -0.3001
32792SOL    HW1  755  10.180   2.884   2.862  2.6383  0.4493  0.7691
32792SOL    HW2  756  10.114   2.748   2.846 -0.6044  1.8451  1.3921
32793SOL     OW  757   1.323   6.545   0.555  0.8929  0.1411 -0.0704
32793SOL    HW1  758   1.302   6.451   0.552  1.5521 -0.0405  0.6421
32793SOL    HW2  759   1.244   6.587   0.589 -0.2883  0.1570 -2.5807
32794SOL     OW  760   6.539   1.840   7.886  0.3302 -0.2359  0.2453
32794SOL    HW1  761   6.479   1.868   7.956  0.8989  2.9306 -0.3497
32794SOL    HW2  762   6.623   1.830   7.930  0.2689 -0.2379  0.3630
32795SOL     OW  763   5.687   0.497   8.177 -0.0113 -0.2107 -0.1150
32795SOL    HW1  764   5.658   0.588   8.170 -0.3742 -0.4229 -1.7226
32795SOL    HW2  765   5.607   0.446   8.172  0.2985 -0.6688 -0.4573
32796SOL     OW  766   7.401   7.895   7.841  0.0779  0.0281  0.1013
32796SOL    HW1  767   7.358   7.957   7.781 -1.3216 -0.9971 -0.0011
32796SOL    HW2  768   7.495   7.913   7.831 -0.2514  1.5073 -0.5935
32797SOL     OW  769   2.598  10.073   6.887  0.0523 -0.2367 -0.2498
32797SOL    HW1  770   2.550  10.053   6.967  0.1180 -2.6419 -0.7307
32797SOL    HW2  771   2.531  10.101   6.825 -0.3708 -0.8359 -0.0755
32798SOL     OW  772   4.974  10.355   3.763  0.0272  0.5055 -0.5093
32798SOL    HW1  773   4.991  10.352   3.669 -0.9565  0.9340 -0.7173
32798SOL    HW2  774   4.967  10.263   3.789  1.1830  0.3670 -0.6762
32799SOL     OW  775   5.587  10.413   6.206 -0.2025 -0.0579 -0.6897
32799SOL    HW1  776   5.547  10.395   6.121  1.1286 -1.5835 -1.0292
32799SOL    HW2  777   5.646  10.339   6.222 -0.2449  0.3029  1.4636
32800SOL     OW  778   0.286  10.739   0.400 -0.2200 -0.0120  0.3628
32800SOL    HW1  779   0.208  10.795   0.404  0.2367  0.5851  1.1283
32800SOL    HW2  780   0.346  10.777   0.465  0.5421 -0.7170  0.0801
32801SOL     OW  781   4.179   4.474   4.762 -0.0362  0.9268 -0.2838
32801SOL    HW1  782   4.273   4.485   4.778  0.4243 -1.9169 -0.5673
32801SOL    HW2  783   4.169   4.381   4.741 -3.0196  1.0166  0.3604
32802SOL     OW  784   9.780   1.731   6.236  0.0418  0.1189  0.0584
32802SOL    HW1  785   9.789   1.808   6.292  0.1840  0.4782 -0.4512
32802SOL    HW2  786   9.696   1.742   6.192 -0.9256 -1.0376  1.4946
32803SOL     OW  787   7.297   9.692   9.030 -0.1248 -0.2910 -0.1786
32803SOL    HW1  788   7.376   9.742   9.049  0.0590 -0.2087 -1.0874
32803SOL    HW2  789   7.278   9.711   8.938 -0.7336 -0.9539 -0.2061
32804SOL     OW  790   9.310   1.732   0.755  0.0378 -0.4358 -0.4008
32804SOL    HW1  791   9.261   1.684   0.689 -0.8129 -1.6974  1.0906
32804SOL    HW2  792   9.303   1.824   0.728 -1.8312 -0.7451 -1.0794
32805SOL     OW  793   4.935   9.632   7.369 -0.0017 -0.1110 -0.4114
32805SOL    HW1  794   4.923   9.537   7.371  3.8991 -0.8055  1.8115
32805SOL    HW2  795   4.946   9.653   7.276  1.3080 -2.2985 -0.8210
32806SOL     OW  796   2.537   3.510   2.325 -0.6254 -0.5232  0.4395
32806SOL    HW1  797   2.490   3.521   2.242  0.3676 -1.2248 -0.2398
32806SOL    HW2  798   2.620   3.470   2.300 -0.0015 -0.0590  1.7055
32807SOL     OW  799   0.237   6.267   7.491 -0.2171  0.3410  0.5876
32807SOL    HW1  800   0.199   6.286   7.577  0.7634 -0.1017  1.1335
32807SOL    HW2  801   0.292   6.190   7.505 -0.1856  0.1464 -0.4806
32808SOL     OW  802   3.862  10.529   5.864 -0.2408 -0.4367  0.2008
32808SOL    HW1  803   3.890  10.439   5.851  1.1776  0.0244 -0.0703
32808SOL    HW2  804   3.858  10.567   5.777 -3.9641 -1.0448 -0.0671
32809SOL     OW  805   8.089  10.245  10.397 -0.5126 -0.0077 -0.0510
32809SOL    HW1  806   8.085  10.311  10.328 -1.4062  2.5149  2.2068
32809SOL    HW2  807   8.016  10.186  10.378 -0.6239  0.5094 -1.3305
32810SOL     OW  808   3.393   1.411  10.586 -0.1078 -0.0946  0.4255
32810SOL    HW1  809   3.389   1.376  10.496  0.3788  1.5072 -0.2582
32810SOL    HW2  810   3.301   1.423  10.611 -0.2883 -1.5705  0.6041
32811SOL     OW  811   0.215   4.335   7.960 -0.4867 -0.5359  0.0090
32811SOL    HW1  812   0.274   4.399   7.999 -0.6738  0.1824 -0.8337
32811SOL    HW2  813   0.248   4.325   7.870  1.3968 -3.9163  0.9087
32812SOL     OW  814   3.744   2.455   2.926 -0.2113  0.0630  0.0646
32812SOL    HW1  815   3.795   2.532   2.953  0.0028  0.0357 -0.2567
32812SOL    HW2  816   3.666   2.457   2.982 -0.7281  1.1219 -0.6535
32813SOL     OW  817   3.377  10.392   6.003  0.1717  0.5224 -0.2364
32813SOL    HW1  818   3.429  10.403   5.923  1.0838  1.5892  0.4562
32813SOL    HW2  819   3.372  10.298   6.016  3.2997  0.3229  0.4504
32814SOL     OW  820   9.322   8.493   9.140  0.2471  0.4317 -0.4580
32814SOL    HW1  821   9.327   8.505   9.235  1.4592 -1.1268 -0.2742
32814SOL    HW2  822   9.266   8.416   9.129  0.4177  0.3813 -0.9900
32815SOL     OW  823   8.713   8.361   2.161 -0.1204  0.5308 -0.4182
32815SOL    HW1  824   8.667   8.438   2.128 -0.2629  0.7477  0.2594
32815SOL    HW2  825   8.750   8.319   2.084  2.4166  2.8349 -0.6037
32816SOL     OW  826   2.164   1.471   4.751  0.2542 -0.3151 -0.0209
32816SOL    HW1  827   2.158   1.509   4.838  1.4625  0.6654 -0.3334
32816SOL    HW2  828   2.073   1.459   4.723 -0.2625  3.1274 -0.2252
32817SOL     OW  829   8.440   9.426   8.372 -0.2681 -0.2552  1.1313
32817SOL    HW1  830   8.376   9.359   8.350  0.8300 -1.0047  0.0726
32817SOL    HW2  831   8.472   9.458   8.287  0.6725  0.1751  1.6280
32818SOL     OW  832   2.253   4.905   3.480 -0.0447 -0.0122  0.5991
32818SOL    HW1  833   2.179   4.846   3.496 -0.3020  0.0437 -0.3524
32818SOL    HW2  834   2.295   4.870   3.402  1.2092 -0.2984  1.3781
32819SOL     OW  835   9.058   3.179   8.887  0.2722  0.0653 -0.3937
32819SOL    HW1  836   9.132   3.233   8.860  1.3087 -1.5411 -0.9167
32819SOL    HW2  837   9.048   3.198   8.981  1.7559 -0.1135 -0.1670
32820SOL     OW  838   5.936   2.396   2.364  0.1527 -0.2046 -0.0246
32820SOL    HW1  839   5.952   2.304   2.387  1.1336 -0.3962 -1.3744
32820SOL    HW2  840   6.011   2.444   2.399 -0.1395  0.0149  0.2994
32821SOL     OW  841   8.418  10.096   9.815 -0.1767 -0.1135  0.8636
32821SOL    HW1  842   8.361  10.150   9.760  0.0715 -0.1857  0.5280
32821SOL    HW2  843   8.425  10.144   9.897  1.3127  1.1779  0.0411
32822SOL     OW  844   9.692   9.900   8.053  0.4546  0.2386  0.3516
32822SOL    HW1  845   9.599   9.880   8.043  0.1056  1.3367  1.2108
32822SOL    HW2  846   9.732   9.871   7.971 -1.0995  2.2632 -1.2247
32823SOL     OW  847   7.572   6.626   0.827 -0.1731 -0.0424  0.0376
32823SOL    HW1  848   7.553   6.576   0.907  1.3138 -1.2367 -0.3053
32823SOL    HW2  849   7.522   6.581   0.759 -0.7106  0.4102  0.1291
32824SOL     OW  850   3.963   7.319  10.702 -0.3025 -0.1148 -0.2176
32824SOL    HW1  851   3.960   7.402  10.749 -0.0109  0.1495 -0.6527
32824SOL    HW2  852   4.045   7.323  10.652  0.8432 -1.5567  1.3833
32825SOL     OW  853   7.031   6.256   3.702 -0.1959 -0.4420  0.3812
32825SOL    HW1  854   7.005   6.164   3.703  0.5427 -0.6633  0.3605
32825SOL    HW2  855   7.124   6.254   3.727 -0.1196  0.2738  0.1588
32826SOL     OW  856   8.135   8.155   7.363 -0.1999 -0.3585  0.0870
32826SOL    HW1  857   8.076   8.088   7.329  1.2566 -0.5400 -2.2521
32826SOL    HW2  858   8.220   8.111   7.369  0.8703  1.3197 -1.8622
32827SOL     OW  859   2.424   2.385   8.019 -0.3976  0.2017 -0.3920
32827SOL    HW1  860   2.448   2.469   7.980 -2.2724  0.0328 -2.1216
32827SOL    HW2  861   2.455   2.320   7.956  1.5707 -0.4984  1.2154
32828SOL     OW  862   8.858   2.557   9.486 -0.1004 -0.2068 -0.3114
32828SOL    HW1  863   8.895   2.494   9.548  2.5830  0.0583 -1.4808
32828SOL    HW2  864   8.836   2.504   9.409  1.3193  0.0887 -0.9571
32829SOL     OW  865   2.513   1.583   8.899 -0.1927  0.2197  0.0456
32829SOL    HW1  866   2.520   1.494   8.934  2.8413  0.0754 -0.5861
32829SOL    HW2  867   2.556   1.578   8.813  1.5504  2.5496  0.6729
32830SOL     OW  868   7.189   9.067   1.141  0.4114  0.5972 -0.2979
32830SOL    HW1  869   7.227   8.996   1.193 -1.8711 -0.2240  0.3781
32830SOL    HW2  870   7.103   9.083   1.181 -1.2686  0.2766 -3.4282
32831SOL     OW  871  10.601   6.591   0.443 -0.5106 -0.3851  0.1091
32831SOL    HW1  872  10.641   6.641   0.371 -0.5939 -1.8271 -0.9905
32831SOL    HW2  873  10.672   6.535   0.475 -0.7681 -0.5385  0.4126
32832SOL     OW  874   3.969   2.258   4.568 -0.0960 -0.0454 -0.2823
32832SOL    HW1  875   4.040   2.276   4.630 -0.6437  1.4298 -0.0399
32832SOL    HW2  876   4.013   2.227   4.489  0.8972  1.5345 -0.3974
32833SOL     OW  877   8.885   0.113   2.604 -0.1431  0.0309  0.1540
32833SOL    HW1  878   8.858   0.022   2.592  2.3163 -0.7994  0.3671
32833SOL    HW2  879   8.805   0.159   2.628 -1.4536 -2.0606  0.0145
32834SOL     OW  880   0.805   9.982   8.908  0.0640  0.8383  0.8346
32834SOL    HW1  881   0.864   9.907   8.916 -1.9861 -0.8665  1.0030
32834SOL    HW2  882   0.727   9.946   8.865 -0.4578  3.2316 -0.3956
32835SOL     OW  883  10.108   8.903   4.692 -0.1758  0.3449 -0.6915
32835SOL    HW1  884  10.016   8.878   4.703  0.4949 -1.1500  4.0641
32835SOL    HW2  885  10.114   8.990   4.732  0.9030 -1.2348  3.0513
32836SOL     OW  886   7.256   4.886   8.315  0.0130 -0.5840 -0.0788
32836SOL    HW1  887   7.213   4.882   8.400 -0.5952  0.0622 -0.3479
32836SOL    HW2  888   7.184   4.887   8.252  0.3561  1.4528 -0.5026
32837SOL     OW  889   2.006   2.264   3.660 -0.1331  0.0441  0.1216
32837SOL    HW1  890   2.087   2.269   3.710  0.6866 -0.7926 -1.0670
32837SOL    HW2  891   1.954   2.198   3.706 -0.0479  0.3935  0.7373
32838SOL     OW  892   3.022   9.110   1.437 -0.0120  0.2305 -0.5838
32838SOL    HW1  893   3.017   9.025   1.480  0.5808  1.1753  1.4981
32838SOL    HW2  894   2.933   9.126   1.406 -0.4492 -0.5484  0.2178
32839SOL     OW  895   4.384   1.536   8.973  0.2150 -0.5110 -0.0091
32839SOL    HW1  896   4.309   1.490   8.936 -0.5053  0.6208  0.0167
32839SOL    HW2  897   4.359   1.628   8.973  0.6627 -0.3269  2.1429
32840SOL     OW  898  10.434   1.772   7.474  0.1858 -0.6490 -0.0647
32840SOL    HW1  899  10.512   1.758   7.420  0.7548  1.8103 -0.0198
32840SOL    HW2  900  10.361   1.764   7.412  0.6531 -0.5850 -0.6399
32841SOL     OW  901   8.584   6.332  10.206  0.1445 -0.0953 -0.1250
32841SOL    HW1  902   8.537   6.249  10.196 -2.0565  1.1118 -0.5932
32841SOL    HW2  903   8.546   6.389  10.139 -0.4004  2.1009  1.8987
32842SOL     OW  904   5.997   5.806   1.573  0.3275 -0.0082  0.7087
32842SOL    HW1  905   6.007   5.718   1.536 -0.8706  0.3719 -0.5901
32842SOL    HW2  906   5.953   5.792   1.657 -0.6737 -0.5910  0.1000
32843SOL     OW  907   5.021   9.906   6.911  0.3355  0.1420  0.1709
32843SOL    HW1  908   5.029   9.968   6.984  0.2516  0.2906  0.0544
32843SOL    HW2  909   5.110   9.898   6.877  0.0130  2.0197 -1.3079
32844SOL     OW  910   7.366   2.613   2.249  0.6068 -0.2934 -0.4233
32844SOL    HW1  911   7.461   2.625   2.244  0.5278  0.2883 -0.5590
32844SOL    HW2  912   7.336   2.618   2.158  0.5001 -0.9500 -0.4264
32845SOL     OW  913   3.859   3.549   8.911  0.0488 -0.1302 -0.1792
32845SOL    HW1  914   3.900   3.480   8.859  1.1170  0.0229  0.4283
32845SOL    HW2  915   3.932   3.605   8.937 -0.7316  0.8883 -0.1533
32846SOL     OW  916   1.388   2.426   4.592 -0.3878  0.2202 -0.1120
32846SOL    HW1  917   1.360   2.440   4.683  0.5046  0.2518  0.1678
32846SOL    HW2  918   1.378   2.332   4.579 -2.2606  0.4344 -0.5973
32847SOL     OW  919   9.722   5.417   2.728 -0.3500 -0.0852  0.3431
32847SOL    HW1  920   9.792   5.365   2.689 -1.7009 -1.9652  0.2900
32847SOL    HW2  921   9.642   5.382   2.690 -1.3393  2.1540  0.2344
32848SOL     OW  922   9.605   7.152   5.335 -0.0552 -0.2078 -0.1250
32848SOL    HW1  923   9.598   7.136   5.429  0.0646  0.4889  0.0101
32848SOL    HW2  924   9.537   7.216   5.316  1.2819  1.2774 -0.0969
32849SOL     OW  925   8.708   3.104   9.504 -0.1280  0.3036 -0.4899
32849SOL    HW1  926   8.700   3.194   9.472  2.6141 -0.1351 -2.9002
32849SOL    HW2  927   8.761   3.111   9.583 -0.2354  0.8572 -0.4642
32850SOL     OW  928  10.050   6.794   2.623 -0.0553 -0.1853  0.1359
32850SOL    HW1  929  10.003   6.770   2.703  0.2077 -0.3103  0.2541
32850SOL    HW2  930  10.070   6.711   2.581  3.4024 -0.4970  1.9749
32851SOL     OW  931   2.006   6.662   0.094 -0.2138 -0.4851  0.0496
32851SOL    HW1  932   1.966   6.748   0.090  0.8883  0.0096 -0.8198
32851SOL    HW2  933   2.086   6.675   0.145  0.2594 -0.8594 -0.5805
32852SOL     OW  934   4.529   3.939   6.523 -0.0323  0.5098  0.0797
32852SOL    HW1  935   4.471   3.893   6.462 -1.4965  2.7672 -0.3778
32852SOL    HW2  936   4.617   3.919   6.492 -0.6551 -0.6366 -1.0666
32853SOL     OW  937   2.371  10.626   7.830  0.2038 -0.2390 -0.9651
32853SOL    HW1  938   2.316  10.548   7.831 -0.4015  0.1209 -2.7773
32853SOL    HW2  939   2.365  10.661   7.919 -1.1571 -1.1297 -0.6851
32854SOL     OW  940   0.548   6.298   1.018  0.0626  0.0701  0.1628
32854SOL    HW1  941   0.637   6.319   0.990 -0.1182 -0.3455 -0.7323
32854SOL    HW2  942   0.492   6.332   0.949 -0.5096  0.6174  0.8750
32855SOL     OW  943   8.209   3.580   7.717  0.3837 -0.4457  0.4620
32855SOL    HW1  944   8.123   3.539   7.708  0.3127 -0.0312 -1.0014
32855SOL    HW2  945   8.190   3.668   7.748  0.1500  0.0658 -1.0426
32856SOL     OW  946   4.421   1.862   6.946  0.0778 -0.0620 -0.0655
32856SOL    HW1  947   4.437   1.768   6.953  0.3414 -0.0445 -0.3795
32856SOL    HW2  948   4.472   1.900   7.018  0.1454 -0.1410 -0.0711
32857SOL     OW  949   0.659   0.450   6.197 -0.3687  0.0594  0.4865
32857SOL    HW1  950   0.733   0.478   6.249 -0.7852  0.8221  0.6739
32857SOL    HW2  951   0.698   0.400   6.125  0.5760  2.8062 -1.0378
32858SOL     OW  952   4.169   7.223   1.835 -0.0406  0.6711 -0.1808
32858SOL    HW1  953   4.129   7.294   1.785 -1.2210  0.6623  0.6862
32858SOL    HW2  954   4.227   7.179   1.774 -1.6076  0.5089 -1.6278
32859SOL     OW  955   6.520   4.693   1.434 -0.3055 -0.2762  0.4388
32859SOL    HW1  956   6.518   4.789   1.441  1.1740  0.1388 -2.9073
32859SOL    HW2  957   6.437   4.671   1.393 -0.7424 -0.5135  1.4095
32860SOL     OW  958   5.567   9.326   4.620 -0.2777 -0.1343  0.0582
32860SOL    HW1  959   5.656   9.292   4.633  0.6103  1.6101 -1.1755
32860SOL    HW2  960   5.550   9.314   4.527  0.3702  3.2486 -0.6347
32861SOL     OW  961   0.006   8.479   8.874  0.0234 -1.0345  0.3803
32861SOL    HW1  962   0.042   8.524   8.797 -0.5947 -0.6216  0.3254
32861SOL    HW2  963   0.053   8.396   8.877  1.8535 -0.0569  0.9784
32862SOL     OW  964   2.847   9.052   1.870  0.1084  0.2092 -0.0602
32862SOL    HW1  965   2.781   9.115   1.840  0.0832  1.0672  1.6577
32862SOL    HW2  966   2.923   9.068   1.814 -0.7846 -0.1009 -1.4035
32863SOL     OW  967  10.689   3.633   1.788 -0.2452 -0.0304 -0.2427
32863SOL    HW1  968  10.682   3.600   1.878 -0.5235 -0.5798 -0.4641
32863SOL    HW2  969  10.632   3.710   1.786 -1.1082 -0.6564 -0.2432
32864SOL     OW  970   3.855   5.015   9.745 -0.0375  0.6757  0.2084
32864SOL    HW1  971   3.926   5.074   9.769 -1.6982  1.9481  2.2662
32864SOL    HW2  972   3.797   5.067   9.689  0.0465 -0.0115 -0.5484
32865SOL     OW  973   5.080   3.304   0.546 -0.0165  0.1649 -0.4872
32865SOL    HW1  974   5.165   3.345   0.531 -0.1120  0.1899 -0.9642
32865SOL    HW2  975   5.098   3.235   0.610 -0.0135  1.4775  0.9961
32866SOL     OW  976   9.912   7.640   3.447  0.3623  0.0924  0.0594
32866SOL    HW1  977   9.905   7.735   3.443 -1.2525  0.0712  1.3503
32866SOL    HW2  978   9.997   7.624   3.489  0.7589  0.9411 -0.3975
32867SOL     OW  979   8.849   7.986   8.978  0.2937  0.0605 -0.5305
32867SOL    HW1  980   8.858   7.989   9.073 -1.8224  0.2253 -0.2868
32867SOL    HW2  981   8.782   8.051   8.958 -2.2715 -2.7037 -1.6843
32868SOL     OW  982   6.429   0.335   9.493 -0.4516 -0.4753  0.0674
32868SOL    HW1  983   6.491   0.375   9.432 -1.4401  0.7847 -0.1649
32868SOL    HW2  984   6.483   0.307   9.567  0.5270 -0.3815 -0.5909
32869SOL     OW  985   5.973  10.322   4.919 -0.3335  0.3580  0.2025
32869SOL    HW1  986   5.889  10.278   4.914 -0.1680 -0.2835  2.1094
32869SOL    HW2  987   5.960  10.405   4.874 -1.9456  0.2034  0.3317
32870SOL     OW  988   3.026   3.697   2.345  0.1205  0.0502  0.0966
32870SOL    HW1  989   2.984   3.647   2.275 -0.8646  0.5884  0.2914
32870SOL    HW2  990   2.954   3.739   2.391  0.8775  1.0701  0.3833
32871SOL     OW  991   1.869   1.627   5.454  0.0626  0.0718  0.3305
32871SOL    HW1  992   1.884   1.689   5.526 -0.0393 -0.2758  0.6573
32871SOL    HW2  993   1.782   1.591   5.471 -0.4626  0.8690 -0.6468
32872SOL     OW  994   4.132   6.117   8.564  0.0123  0.7636  0.1344
32872SOL    HW1  995   4.125   6.213   8.560 -1.3892  0.7748  1.6267
32872SOL    HW2  996   4.173   6.100   8.649  1.1309  0.0311 -0.5250
32873SOL     OW  997   8.397   5.667   9.393 -0.4739 -0.0763 -0.3764
32873SOL    HW1  998   8.464   5.619   9.346 -0.1240  0.8665 -0.8513
32873SOL    HW2  999   8.443   5.741   9.434 -1.0228 -0.0537  0.2340
32874SOL     OW 1000   1.139   8.385   6.888 -0.5141  0.1842 -0.0750
32874SOL    HW1 1001   1.185   8.320   6.834  0.1031  1.8543 -1.6376
32874SOL    HW2 1002   1.123   8.339   6.971  1.0105 -1.5603 -0.6627
32875SOL     OW 1003   1.294  10.379   0.142 -0.0519  0.4342 -0.5288
32875SOL    HW1 1004   1.327  10.291   0.160 -0.6051 -0.1348 -2.1893
32875SOL    HW2 1005   1.372  10.434   0.145  0.3227 -0.1167  0.3616
32876SOL     OW 1006   5.847   4.836   7.441  0.2411 -0.0728 -0.3735
32876SOL    HW1 1007   5.831   4.930   7.445  0.2342 -0.1106  0.9340
32876SOL    HW2 1008   5.811   4.802   7.523  1.4209 -1.0261 -0.2193
32877SOL     OW 1009   4.448   3.657  10.165  0.5621  0.3868  0.1129
32877SOL    HW1 1010   4.498   3.696  10.237 -1.4900  3.1302  0.1958
32877SOL    HW2 1011   4.361   3.641  10.201  0.4419 -1.4435 -0.8612
32878SOL     OW 1012   3.012   7.239   6.459  0.6618 -0.1170  0.1533
32878SOL    HW1 1013   3.056   7.293   6.524 -0.8931 -0.1985  1.3466
32878SOL    HW2 1014   3.076   7.172   6.436  0.8751 -0.8933  2.6330
32879SOL     OW 1015   3.720  10.322   9.671  0.5454  0.2844  0.8288
32879SOL    HW1 1016   3.767  10.238   9.668  0.2963  0.1664  0.0993
32879SOL    HW2 1017   3.633  10.302   9.636  0.3517  0.7660  1.0292
32880SOL     OW 1018   9.228   2.073   6.702 -0.0830 -0.2628 -0.1074
32880SOL    HW1 1019   9.170   2.001   6.677 -1.6447  0.8738  0.1089
32880SOL    HW2 1020   9.306   2.061   6.647  0.3439 -2.8800  0.8786
32881SOL     OW 1021   4.067   6.070   8.965  0.3106 -0.1731 -0.6149
32881SOL    HW1 1022   4.002   6.017   8.920  0.1445  0.7472 -1.4917
32881SOL    HW2 1023   4.131   6.092   8.898  0.3119  0.8303 -0.2997
32882SOL     OW 1024   6.496   2.645   3.777  0.2711 -0.0474  0.3068
32882SOL    HW1 1025   6.541   2.675   3.699  0.1036 -1.0389 -0.1941
32882SOL    HW2 1026   6.532   2.557   3.792 -0.2013 -0.1375  0.9429
32883SOL     OW 1027   8.758   4.340   4.874 -0.3204  0.0372 -0.2383
32883SOL    HW1 1028   8.758   4.345   4.969 -0.2492  1.7649 -0.2825
32883SOL    HW2 1029   8.729   4.427   4.846  0.7345 -0.0678 -1.8044
32884SOL     OW 1030   5.690   7.014   3.348  0.5398 -0.1773 -0.3162
32884SOL    HW1 1031   5.775   7.027   3.391  1.0726  0.3806 -1.5098
32884SOL    HW2 1032   5.674   7.096   3.302 -0.6938 -0.2554 -0.0610
32885SOL     OW 1033   1.425   0.948   5.054  0.3762 -0.2533  0.4236
32885SOL    HW1 1034   1.495   0.892   5.088  1.6105  1.0864  0.1915
32885SOL    HW2 1035   1.437   0.947   4.959 -0.0949 -0.2400  0.3614
32886SOL     OW 1036   8.245   5.324   0.469  0.2846  0.1524 -0.7425
32886SOL    HW1 1037   8.198   5.243   0.490 -0.0096  0.5028 -0.0299
32886SOL    HW2 1038   8.337   5.304   0.487  0.3100 -0.2492 -1.2815
32887SOL     OW 1039   6.534  10.511  10.796  0.2559 -0.6863 -0.5779
32887SOL    HW1 1040   6.611  10.530  10.850 -1.4007  1.6005  1.1954
32887SOL    HW2 1041   6.532  10.583  10.733 -0.2435 -0.9236 -0.8300
32888SOL     OW 1042   9.037   9.717   8.444 -0.3739  0.1824  1.1942
32888SOL    HW1 1043   8.983   9.638   8.438  2.9908 -2.2475 -0.8445
32888SOL    HW2 1044   9.018   9.765   8.363  0.4868 -0.6982  0.4493
32889SOL     OW 1045   1.970   0.864   4.082 -0.1578 -0.5486 -0.5917
32889SOL    HW1 1046   1.980   0.841   4.174  1.3982  1.2197 -0.2618
32889SOL    HW2 1047   1.904   0.933   4.082 -0.6839 -1.0418 -0.9101
32890SOL     OW 1048   0.453   0.683  10.057 -0.1194 -0.8516  0.2596
32890SOL    HW1 1049   0.365   0.667  10.091  0.3495  0.6147  2.3743
32890SOL    HW2 1050   0.448   0.769  10.015  0.1075 -1.1868 -0.4876
32891SOL     OW 1051   2.863   1.439   3.164 -0.3397 -0.4803  0.3729
32891SOL    HW1 1052   2.923   1.458   3.235  1.9414 -0.7980 -1.3572
32891SOL    HW2 1053   2.824   1.524   3.143  0.0763 -0.1157  1.0524
32892SOL     OW 1054   6.697   1.042  10.757  0.0097  0.3701  0.3684
32892SOL    HW1 1055   6.773   1.003  10.801  0.0526  0.6590  0.5561
32892SOL    HW2 1056   6.734   1.095  10.687 -0.0975 -0.7742 -0.5792
32893SOL     OW 1057   6.903   6.712   3.051 -0.1709  0.1093  0.6231
32893SOL    HW1 1058   6.949   6.675   2.975 -0.9828  0.8895 -0.2867
32893SOL    HW2 1059   6.929   6.656   3.124  1.8601  0.2403  0.0816
32894SOL     OW 1060   3.159   4.920   3.290  0.0090  0.2487  0.5085
32894SOL    HW1 1061   3.147   4.835   3.333  0.6432 -0.0745  0.0772
32894SOL    HW2 1062   3.130   4.905   3.200  0.5678  0.3524  0.3089
32895SOL     OW 1063   0.683   6.495   6.327 -0.1844 -0.4045  0.0365
32895SOL    HW1 1064   0.706   6.501   6.420 -0.9206  0.2018  0.1903
32895SOL    HW2 1065   0.753   6.542   6.282 -1.0717  1.4329  0.4987
32896SOL     OW 1066   5.731   8.932   1.267 -0.2838 -0.1467 -0.1322
32896SOL    HW1 1067   5.749   8.842   1.242  0.2220 -0.3444  0.8923
32896SOL    HW2 1068   5.674   8.925   1.343  1.9033  0.2956  1.6442
32897SOL     OW 1069   9.618   6.408   6.944  0.1590  0.4735  0.0075
32897SOL    HW1 1070   9.682   6.445   6.883  0.0200 -0.9186 -1.0357
32897SOL    HW2 1071   9.659   6.417   7.030  1.3700  0.4242 -0.5413
32898SOL     OW 1072   4.241   1.253   5.017 -0.6480 -0.2088  0.4922
32898SOL    HW1 1073   4.167   1.193   5.008 -0.9971  0.3458 -0.5346
32898SOL    HW2 1074   4.265   1.275   4.927  0.8008 -0.3997  0.8117
32899SOL     OW 1075  10.305   7.201   9.063 -0.1350  0.2893 -0.4002
32899SOL    HW1 1076  10.363   7.259   9.015 -0.8097 -0.4018 -2.1094
32899SOL    HW2 1077  10.219   7.213   9.023 -0.3727 -1.5823 -0.5811
32900SOL     OW 1078   8.076   6.223   4.883  0.4992  0.1514 -0.7399
32900SOL    HW1 1079   8.139   6.163   4.843  1.4765 -0.4910  1.6360
32900SOL    HW2 1080   8.013   6.167   4.927  0.8576  0.8367  0.6866
32901SOL     OW 1081  10.020   7.647   0.035 -0.0099  0.0763 -0.2382
32901SOL    HW1 1082  10.027   7.624   0.127  1.1379 -0.1523 -0.3727
32901SOL    HW2 1083   9.946   7.596   0.003  1.6157 -2.4822 -0.2116
32902SOL     OW 1084  10.732   4.961  10.194 -0.0046 -0.4090  0.2433
32902SOL    HW1 1085  10.822   4.991  10.203 -1.0173  2.6219  1.4806
32902SOL    HW2 1086  10.698   5.008  10.118 -0.6657 -1.2543 -0.0015
32903SOL     OW 1087   8.621   8.811   9.097  0.4877  0.1122 -0.2515
32903SOL    HW1 1088   8.578   8.745   9.150  1.4096  1.1738  1.9756
32903SOL    HW2 1089   8.564   8.823   9.021  0.0811 -2.8384 -0.4970
32904SOL     OW 1090   0.306   8.468   8.107 -0.1442  0.1307 -0.2783
32904SOL    HW1 1091   0.295   8.452   8.013 -0.9518  1.6811 -0.4733
32904SOL    HW2 1092   0.220   8.494   8.138  0.4927  1.3993  0.5182
32905SOL     OW 1093   0.421   3.421   7.459 -0.0828  0.4045  0.0811
32905SOL    HW1 1094   0.390   3.486   7.396 -0.8147 -0.6045 -0.6201
32905SOL    HW2 1095   0.509   3.399   7.430 -0.4650 -0.1541 -0.6909
32906SOL     OW 1096   5.888   4.581   4.779 -0.0886 -0.7519 -0.0440
32906SOL    HW1 1097   5.967   4.629   4.755  0.1076 -1.0343  0.0320
32906SOL    HW2 1098   5.826   4.599   4.709 -0.1194 -0.1449  0.1376
32907SOL     OW 1099   5.287   9.899   3.389  0.3417  0.4415 -0.3875
32907SOL    HW1 1100   5.203   9.906   3.435  0.5491  2.1556 -0.2398
32907SOL    HW2 1101   5.352   9.927   3.453  0.7189  2.0053 -1.4133
32908SOL     OW 1102   5.886   5.606   8.167 -0.2539  0.4902  0.0649
32908SOL    HW1 1103   5.935   5.623   8.248  0.0266  1.4588 -0.2875
32908SOL    HW2 1104   5.912   5.677   8.109 -1.2498  0.3883 -0.5196
32909SOL     OW 1105   2.264   6.996   4.386  0.4063  0.4138  0.5842
32909SOL    HW1 1106   2.242   7.083   4.420 -1.0748  0.3370 -0.0872
32909SOL    HW2 1107   2.185   6.944   4.400  1.1094 -0.7008  0.5505
32910SOL     OW 1108   7.977   2.046   3.512  0.4679 -1.1192  0.3960
32910SOL    HW1 1109   7.907   2.106   3.540  1.2300 -0.6666  1.4068
32910SOL    HW2 1110   8.006   2.080   3.428  1.2243  0.2603  1.1841
32911SOL     OW 1111   8.985   1.154   6.496  0.0025 -0.5042  0.3677
32911SOL    HW1 1112   8.920   1.151   6.426 -2.2937 -1.4717  2.3822
32911SOL    HW2 1113   9.068   1.139   6.453 -1.2955 -0.9127 -2.1454
32912SOL     OW 1114   8.868   3.779   6.690 -0.2720 -0.0399 -0.4855
32912SOL    HW1 1115   8.808   3.841   6.730 -1.5675 -1.0318 -0.8279
32912SOL    HW2 1116   8.860   3.700   6.744 -0.7479 -0.8204 -1.6658
32913SOL     OW 1117   5.497   3.075   0.755  0.4561 -0.0683 -0.3909
32913SOL    HW1 1118   5.522   3.038   0.839  1.4113 -0.5898 -0.8842
32913SOL    HW2 1119   5.494   3.169   0.770 -1.7198 -0.2639  0.8117
32914SOL     OW 1120   2.030   3.256   0.931 -0.3427  0.1443 -0.4742
32914SOL    HW1 1121   1.975   3.333   0.917  0.6333  0.7736 -0.9717
32914SOL    HW2 1122   2.099   3.264   0.866 -0.9520 -1.8671 -1.4629
32915SOL     OW 1123   0.477   3.316   3.871  0.3031 -0.3833 -0.2546
32915SOL    HW1 1124   0.491   3.384   3.805  0.6560 -0.7949 -0.6139
32915SOL    HW2 1125   0.385   3.324   3.896  0.3653  0.2828 -0.2274
32916SOL     OW 1126   7.841   1.200   3.064  0.1997  0.0145  0.6751
32916SOL    HW1 1127   7.851   1.236   2.975 -0.1871 -1.1114  0.1526
32916SOL    HW2 1128   7.768   1.138   3.056 -1.7650  1.9325  2.4314
32917SOL     OW 1129   9.873  10.013   6.551 -0.2601  0.2217  0.0782
32917SOL    HW1 1130   9.822  10.077   6.599 -0.8887  1.0503 -1.6224
32917SOL    HW2 1131   9.931  10.065   6.495  0.7532 -0.7012  0.2375
32918SOL     OW 1132   2.805   6.825   8.474 -0.8158 -0.3525  0.2466
32918SOL    HW1 1133   2.791   6.907   8.426 -3.4948  0.9224  2.8388
32918SOL    HW2 1134   2.865   6.849   8.545 -1.6336 -0.5532  1.0323
32919SOL     OW 1135   5.846   5.992   5.567  0.2825 -0.0169 -0.9442
32919SOL    HW1 1136   5.841   5.995   5.471 -0.1318  0.0775 -0.9215
32919SOL    HW2 1137   5.771   5.938   5.593  1.1233 -1.1178 -0.7382
32920SOL     OW 1138   6.367   7.820   4.778 -0.2186  0.6571  0.2855
32920SOL    HW1 1139   6.440   7.819   4.841  0.3437  1.2169 -0.3413
32920SOL    HW2 1140   6.324   7.735   4.790  0.0546  0.6363  1.2158
32921SOL     OW 1141   2.378   8.454   8.247  0.3982  0.1926 -0.3590
32921SOL    HW1 1142   2.391   8.494   8.333 -0.5256 -0.1924 -0.0245
32921SOL    HW2 1143   2.444   8.494   8.191  1.2266  0.2053  0.6096
32922SOL     OW 1144   4.763   8.853   0.955  0.0466 -0.2055  0.4896
32922SOL    HW1 1145   4.839   8.795   0.953 -0.8361 -1.3874 -0.7645
32922SOL    HW2 1146   4.735   8.852   1.046  1.5254  0.2844  0.9894
32923SOL     OW 1147  10.028   0.873   2.493  0.5096 -0.3108 -0.8292
32923SOL    HW1 1148   9.937   0.850   2.510  0.2449  0.6372 -0.9377
32923SOL    HW2 1149  10.074   0.788   2.489 -0.2283 -0.7592 -0.0429
32924SOL     OW 1150   7.061   1.387  10.596  0.1780 -0.5159 -0.2259
32924SOL    HW1 1151   7.042   1.431  10.513 -0.4608  0.4621  0.4183
32924SOL    HW2 1152   7.146   1.423  10.623  0.3340 -0.7530 -0.3937
32925SOL     OW 1153   6.999   6.401   8.469  0.1253 -0.2453  0.1308
32925SOL    HW1 1154   7.059   6.328   8.483  0.8927  0.4962  0.8675
32925SOL    HW2 1155   6.913   6.367   8.492  0.2686 -1.2922 -0.8118
32926SOL     OW 1156   3.852   5.030   7.416  0.2572 -0.3574 -0.7300
32926SOL    HW1 1157   3.841   5.023   7.511  1.6519 -0.5496 -0.5618
32926SOL    HW2 1158   3.817   5.117   7.395 -1.0838 -0.7411 -0.2293
32927SOL     OW 1159   3.969   4.664   1.298  0.5270  0.1748  0.1086
32927SOL    HW1 1160   3.990   4.666   1.391 -0.8567  1.4584  0.4368
32927SOL    HW2 1161   3.964   4.570   1.277  4.5935 -0.2704  0.3188
32928SOL     OW 1162   0.596   9.897   8.760  0.2238 -0.4567  0.2300
32928SOL    HW1 1163   0.575   9.811   8.723 -2.0084  0.4127 -0.7210
32928SOL    HW2 1164   0.594   9.957   8.685 -0.3881  0.7387  1.1546
32929SOL     OW 1165   9.702   4.536   4.802 -0.0964 -0.3545 -0.4297
32929SOL    HW1 1166   9.649   4.535   4.883  0.6175 -1.2200  0.0472
32929SOL    HW2 1167   9.732   4.446   4.792 -1.1948 -0.5588 -2.3757
32930SOL     OW 1168   0.581  10.641   8.791 -0.2579 -0.5210 -0.0482
32930SOL    HW1 1169   0.664  10.661   8.748 -0.8297 -1.1972 -1.5448
32930SOL    HW2 1170   0.602  10.573   8.855  0.4307 -0.2937 -0.0285
32931SOL     OW 1171   8.853   7.274   3.333  0.6687 -0.0014 -0.0803
32931SOL    HW1 1172   8.908   7.308   3.404  0.8700 -1.7270  0.6416
32931SOL    HW2 1173   8.914   7.227   3.276 -0.1779 -4.3845  2.1939
32932SOL     OW 1174   9.802   6.033   1.165 -0.6127  0.3238  0.3292
32932SOL    HW1 1175   9.721   6.045   1.216 -1.2458  1.0039 -0.7984
32932SOL    HW2 1176   9.869   6.078   1.216 -0.2834 -2.5660  2.7268
32933SOL     OW 1177   4.297   8.988   6.400  0.7535 -0.3570  0.3366
32933SOL    HW1 1178   4.285   8.898   6.370 -1.0278 -0.8490  2.2953
32933SOL    HW2 1179   4.368   9.022   6.346  0.6243 -2.5196 -1.3197
32934SOL     OW 1180   0.879   8.955   3.119  0.5912  0.1193  0.0562
32934SOL    HW1 1181   0.927   9.038   3.112  1.8507 -0.3256  2.4102
32934SOL    HW2 1182   0.924   8.907   3.188 -1.5276 -1.5857  0.3519
32935SOL     OW 1183   8.959   2.558   7.053 -0.2401 -0.0302 -0.3005
32935SOL    HW1 1184   8.977   2.652   7.058 -0.2548 -0.0262 -0.3203
32935SOL    HW2 1185   8.896   2.550   6.981  1.0110 -0.2281 -1.4153
32936SOL     OW 1186   6.465   3.885   4.361 -0.1611 -0.3205 -0.8612
32936SOL    HW1 1187   6.531   3.934   4.410 -1.8736  1.9743 -0.6457
32936SOL    HW2 1188   6.397   3.865   4.426  0.2033 -2.5624 -1.0868
32937SOL     OW 1189  10.196   8.598   4.037 -0.2691  0.3838  0.0174
32937SOL    HW1 1190  10.234   8.554   4.113 -0.1971  0.5020  0.0505
32937SOL    HW2 1191  10.176   8.528   3.975 -2.3488  0.0295  1.0001
32938SOL     OW 1192   2.544   0.398   4.751  0.9905  0.3383  0.0269
32938SOL    HW1 1193   2.508   0.321   4.706  0.9725  1.0425 -1.1871
32938SOL    HW2 1194   2.511   0.390   4.841  0.8231 -0.9631 -0.1211
32939SOL     OW 1195  10.307   7.712  10.794 -0.0940 -0.1798 -0.0459
32939SOL    HW1 1196  10.214   7.717  10.817  0.0537  3.3381  0.3948
32939SOL    HW2 1197  10.308   7.702  10.699 -0.9480  0.1695 -0.1026
32940SOL     OW 1198   6.330   3.891   0.800 -0.2855  0.0825 -0.2666
32940SOL    HW1 1199   6.414   3.919   0.764 -0.2880  0.8835  0.3311
32940SOL    HW2 1200   6.280   3.972   0.812 -0.7713 -0.2886  0.3107
32941SOL     OW 1201   8.600   0.028   2.129 -1.1027 -0.1196  0.0988
32941SOL    HW1 1202   8.540  -0.010   2.064 -0.8409 -1.3664  0.5435
32941SOL    HW2 1203   8.687  -0.003   2.101 -0.7914  0.7437  0.0882
32942SOL     OW 1204   3.507   0.990   8.352  0.0434 -0.3105 -0.3572
32942SOL    HW1 1205   3.481   0.909   8.394  0.5309 -0.8716 -1.1167
32942SOL    HW2 1206   3.591   1.012   8.391 -0.9883  0.9388  1.3230
32943SOL     OW 1207   9.715  10.705   6.402  0.1270 -0.1000 -0.4076
32943SOL    HW1 1208   9.692  10.637   6.338 -1.4079 -1.4838  1.4938
32943SOL    HW2 1209   9.635  10.757   6.411  0.4529  0.3226  0.0858
32944SOL     OW 1210   1.986   1.344   0.034 -0.5796 -0.0647  0.0936
32944SOL    HW1 1211   2.010   1.256   0.062 -0.1275 -0.2112 -0.7480
32944SOL    HW2 1212   1.891   1.345   0.038 -0.6533 -0.9798 -1.0425
32945SOL     OW 1213   0.139   8.824   6.828  0.0397  0.2626 -0.6908
32945SOL    HW1 1214   0.086   8.748   6.853  0.4250 -0.0506 -0.7999
32945SOL    HW2 1215   0.196   8.791   6.758 -0.8941  1.0815 -1.8587
32946SOL     OW 1216   9.265   5.688   1.921  0.8274 -0.0523  0.1953
32946SOL    HW1 1217   9.178   5.696   1.959  1.6909 -2.5775  3.0624
32946SOL    HW2 1218   9.316   5.756   1.965  0.3238  1.7857 -1.8695
32947SOL     OW 1219   0.948   4.730  10.103 -0.0221  0.3488 -0.4368
32947SOL    HW1 1220   0.955   4.662  10.171 -0.6014  1.3201  0.6228
32947SOL    HW2 1221   1.037   4.739  10.069  0.7612  1.3577  1.7335
32948SOL     OW 1222   7.490   0.051   6.695 -0.9125  0.4927 -0.4717
32948SOL    HW1 1223   7.469  -0.031   6.650  0.8927  0.0610 -0.5875
32948SOL    HW2 1224   7.440   0.047   6.776  0.1642 -1.3924  0.1610
32949SOL     OW 1225   1.838   9.142   4.555  0.1317  0.0046  0.0287
32949SOL    HW1 1226   1.933   9.141   4.569  0.2473 -1.2036 -0.7059
32949SOL    HW2 1227   1.824   9.082   4.482 -1.2315 -0.0294  0.2973
32950SOL     OW 1228   3.742   6.380   3.685 -0.2902 -0.6686  0.0047
32950SOL    HW1 1229   3.797   6.459   3.686  0.1444 -0.9728  0.1988
32950SOL    HW2 1230   3.698   6.383   3.600 -1.2434  0.4395  0.4897
32951SOL     OW 1231   6.555   6.555   6.704  0.4163  0.1941  0.2317
32951SOL    HW1 1232   6.489   6.528   6.768 -0.1324  1.5159  0.2699
32951SOL    HW2 1233   6.617   6.483   6.701  0.1561 -0.1427  1.8564
32952SOL     OW 1234   0.711   8.752   4.980  0.7115 -0.4905  0.2920
32952SOL    HW1 1235   0.693   8.659   4.965  0.0382 -0.9088  3.0902
32952SOL    HW2 1236   0.687   8.766   5.071  1.9271  2.1838  0.2851
32953SOL     OW 1237   3.912   5.395  10.126 -0.0654 -0.3642 -0.3577
32953SOL    HW1 1238   3.982   5.371  10.187 -1.0469 -0.4878  0.7662
32953SOL    HW2 1239   3.956   5.439  10.054  1.0715  0.4038  0.7752
32954SOL     OW 1240   5.610   2.353   4.691 -0.6462  0.1390 -0.2646
32954SOL    HW1 1241   5.677   2.293   4.660 -0.8988 -0.3004  0.0150
32954SOL    HW2 1242   5.590   2.322   4.780 -1.8575 -0.3178 -0.6643
32955SOL     OW 1243   2.273   7.647   9.527  0.4194  0.4450  0.2003
32955SOL    HW1 1244   2.340   7.629   9.592 -0.8387 -0.1239  1.4005
32955SOL    HW2 1245   2.229   7.726   9.560  0.0225  0.3797 -0.1662
32956SOL     OW 1246   2.921   0.444   7.079 -0.1596 -0.6025  0.1814
32956SOL    HW1 1247   3.008   0.419   7.111 -0.0425 -0.5627 -0.1087
32956SOL    HW2 1248   2.903   0.528   7.123 -0.5300 -1.1555  1.1123
32957SOL     OW 1249   4.379   3.489   1.304 -0.8676 -0.3163 -0.2681
32957SOL    HW1 1250   4.340   3.470   1.218  0.3492 -1.7017 -0.5604
32957SOL    HW2 1251   4.363   3.410   1.355  0.4434 -0.4208  0.0064
32958SOL     OW 1252   2.867   5.610  10.324  0.7064  0.1781  0.0756
32958SOL    HW1 1253   2.957   5.643  10.322  1.1460 -0.9196  1.0459
32958SOL    HW2 1254   2.866   5.537  10.263  0.3808  0.3901 -0.1779
32959SOL     OW 1255   8.667   7.122   5.912  0.2441 -0.8498 -0.0305
32959SOL    HW1 1256   8.592   7.077   5.949  0.6491 -0.9021  0.7558
32959SOL    HW2 1257   8.715   7.055   5.864 -0.3391 -0.7602 -0.7462
32960SOL     OW 1258   5.852   9.814   1.204 -0.6132 -0.1627 -0.1373
32960SOL    HW1 1259   5.846   9.719   1.195  1.5265 -0.2340 -1.3522
32960SOL    HW2 1260   5.884   9.827   1.294  0.9494 -0.7301 -0.5790
32961SOL     OW 1261   2.956   9.354   8.653 -0.4062 -0.5826 -1.1004
32961SOL    HW1 1262   2.939   9.361   8.747  0.1361 -0.1352 -1.0349
32961SOL    HW2 1263   2.888   9.294   8.621  0.0065 -1.5199 -0.2652
32962SOL     OW 1264   9.043   2.624   4.779 -0.2100 -0.1490 -0.0812
32962SOL    HW1 1265   9.046   2.681   4.856 -0.1573 -0.2539 -0.0052
32962SOL    HW2 1266   8.952   2.628   4.750  0.2206  1.6752 -1.3559
32963SOL     OW 1267  10.268   2.785   7.207 -0.1981 -0.1214  0.3715
32963SOL    HW1 1268  10.173   2.768   7.205 -0.7141  2.3256 -2.2568
32963SOL    HW2 1269  10.277   2.860   7.265 -0.2967  1.2921 -1.3587
32964SOL     OW 1270   9.042   4.613   8.391 -0.6148  0.3208 -0.6662
32964SOL    HW1 1271   9.069   4.590   8.480  1.1127  0.1466 -1.1966
32964SOL    HW2 1272   8.954   4.651   8.402 -1.0868 -1.1013  0.9104
32965SOL     OW 1273   2.434  10.613  10.417  0.3859  0.8267  0.4102
32965SOL    HW1 1274   2.522  10.618  10.379  0.1587 -1.7941 -0.6739
32965SOL    HW2 1275   2.376  10.604  10.342 -0.5156 -0.1477  1.1814
32966SOL     OW 1276   9.361   6.161   6.036 -0.4086  0.0221 -1.0171
32966SOL    HW1 1277   9.415   6.210   5.975  1.0220  0.9402  0.8917
32966SOL    HW2 1278   9.287   6.219   6.055 -0.4768  0.0276 -1.2922
32967SOL     OW 1279   3.296   2.815   6.588 -0.4471  0.3890  1.0271
32967SOL    HW1 1280   3.356   2.762   6.534 -2.4317 -1.7015  0.7456
32967SOL    HW2 1281   3.236   2.855   6.525 -1.2885 -0.0904  1.5200
32968SOL     OW 1282   4.362   0.801   7.461  0.1542 -0.0032 -0.0043
32968SOL    HW1 1283   4.334   0.885   7.498  1.5893 -0.8078  3.3100
32968SOL    HW2 1284   4.441   0.822   7.411 -0.0128  0.7364  0.0318
32969SOL     OW 1285   7.730   7.660   0.663 -0.1152  0.1235 -0.4331
32969SOL    HW1 1286   7.700   7.750   0.648  1.1111  0.5334 -0.5524
32969SOL    HW2 1287   7.793   7.644   0.593  2.5957  0.5944  1.7266
32970SOL     OW 1288   8.881   7.258   1.993  0.0571  0.0001  0.2882
32970SOL    HW1 1289   8.912   7.330   2.048  4.6440  0.8814 -2.9019
32970SOL    HW2 1290   8.850   7.301   1.913  1.3532 -1.4023 -1.0312
32971SOL     OW 1291   1.917   7.127   1.484 -0.7440 -0.1495 -0.4153
32971SOL    HW1 1292   1.905   7.125   1.579  1.4399  0.0083 -0.0769
32971SOL    HW2 1293   1.837   7.089   1.449 -2.3760  1.3598  1.3797
32972SOL     OW 1294   2.898   0.692   8.324 -0.4812 -0.0861  0.5706
32972SOL    HW1 1295   2.915   0.765   8.264 -1.0604  0.1147  0.6412
32972SOL    HW2 1296   2.880   0.617   8.267  0.4316 -0.2539  0.4963
32973SOL     OW 1297   8.576   8.351   3.098  0.0752 -0.7671 -0.5952
32973SOL    HW1 1298   8.499   8.346   3.155 -1.2382  1.3510 -2.0146
32973SOL    HW2 1299   8.552   8.416   3.032  3.1585  0.0726 -1.0441
32974SOL     OW 1300   4.056   1.853   7.044  0.3332 -0.1329 -0.3219
32974SOL    HW1 1301   4.094   1.837   7.131 -0.1198 -0.8906 -0.2493
32974SOL    HW2 1302   4.120   1.815   6.984  0.6488  0.3956 -0.3189
32975SOL     OW 1303   2.449   8.781   1.223  0.0021 -0.1054  0.2499
32975SOL    HW1 1304   2.422   8.751   1.136  2.1929  1.3469 -1.0492
32975SOL    HW2 1305   2.390   8.853   1.243 -1.7410 -1.6383  0.9042
32976SOL     OW 1306   8.420   5.910   0.887 -0.4520  0.2608  0.3766
32976SOL    HW1 1307   8.411   5.820   0.919 -0.6613 -0.3638 -1.3163
32976SOL    HW2 1308   8.336   5.929   0.845  0.4001  0.3277 -1.3930
32977SOL     OW 1309   7.003   5.288   6.742 -0.0635 -0.3391 -0.2757
32977SOL    HW1 1310   7.009   5.246   6.656 -3.8105 -0.4878 -0.6213
32977SOL    HW2 1311   6.942   5.234   6.792 -0.3938  1.4227  1.3774
32978SOL     OW 1312   7.509   8.469   7.841  0.4550  0.2587 -0.4475
32978SOL    HW1 1313   7.506   8.383   7.798  1.2585  0.5902 -1.1859
32978SOL    HW2 1314   7.597   8.473   7.879 -0.4767 -0.3586  1.9537
32979SOL     OW 1315  10.764   8.611   4.732  0.1975  0.0506 -0.3411
32979SOL    HW1 1316  10.820   8.544   4.771 -0.0796 -0.2613 -0.4743
32979SOL    HW2 1317  10.821   8.657   4.670  0.9579  1.2815  1.2133
32980SOL     OW 1318   9.898   6.366   5.623  0.1934 -0.7677  0.0057
32980SOL    HW1 1319   9.912   6.333   5.535  1.5201  2.1008 -0.9584
32980SOL    HW2 1320   9.896   6.461   5.614 -0.7586 -0.3938  2.9302
32981SOL     OW 1321   5.251   4.340   1.554  0.1807 -0.2429 -0.0449
32981SOL    HW1 1322   5.281   4.427   1.582 -2.2887  1.3759 -2.0081
32981SOL    HW2 1323   5.257   4.286   1.633 -0.4369  2.3606  1.9194
32982SOL     OW 1324   3.119   7.845   9.816 -0.2783  0.2808  0.2325
32982SOL    HW1 1325   3.067   7.907   9.766  0.4793  0.3847 -0.4493
32982SOL    HW2 1326   3.098   7.759   9.779  0.0471  0.3257 -0.0635
32983SOL     OW 1327   2.294   3.509   2.915  0.0523  0.0836  0.4482
32983SOL    HW1 1328   2.200   3.492   2.914 -0.0560  0.6846  0.1628
32983SOL    HW2 1329   2.317   3.524   2.823  0.3512  0.3414  0.5633
32984SOL     OW 1330   1.882   6.433   2.432 -0.3790  0.4135  0.5894
32984SOL    HW1 1331   1.873   6.528   2.440 -2.6662  0.3127 -0.0382
32984SOL    HW2 1332   1.807   6.398   2.480  0.0362 -1.0341  0.2180
32985SOL     OW 1333   8.463   2.160   2.873 -0.1395  0.0794 -0.2116
32985SOL    HW1 1334   8.546   2.207   2.876  0.2270 -0.6088  1.3636
32985SOL    HW2 1335   8.476   2.084   2.929 -1.7309 -0.2201 -0.1905
32986SOL     OW 1336   8.414   7.134   3.959  0.3274  0.4647  0.0961
32986SOL    HW1 1337   8.455   7.211   3.919 -0.6662  1.1523  0.3483
32986SOL    HW2 1338   8.425   7.064   3.894 -1.2648  1.5512 -1.4634
32987SOL     OW 1339   2.287   1.570   8.553  0.4274  0.1608  0.3836
32987SOL    HW1 1340   2.220   1.521   8.506  0.2822 -0.0128  0.7705
32987SOL    HW2 1341   2.251   1.658   8.561 -0.7070 -0.4311  2.4503
32988SOL     OW 1342   9.339   3.160   0.795  0.0485 -0.1091 -0.1915
32988SOL    HW1 1343   9.260   3.189   0.840 -0.6418 -1.1325 -0.7069
32988SOL    HW2 1344   9.342   3.065   0.812 -0.2934 -0.5527 -2.3559
32989SOL     OW 1345   4.219   5.058   1.494  0.0620  0.5711  0.2029
32989SOL    HW1 1346   4.312   5.066   1.515 -0.4082  1.5629  2.2308
32989SOL    HW2 1347   4.213   5.069   1.400  1.7678  3.1119  0.3130
32990SOL     OW 1348   0.071   9.948   7.397  0.3127 -0.0367 -0.3147
32990SOL    HW1 1349   0.018  10.013   7.352 -1.0375 -0.0995  1.0788
32990SOL    HW2 1350   0.051   9.962   7.490  0.5280 -1.9637  0.0589
32991SOL     OW 1351   3.923   3.172   4.073  0.0890 -0.0961 -0.4514
32991SOL    HW1 1352   3.905   3.154   4.165  0.7298 -0.0916 -0.3205
32991SOL    HW2 1353   3.844   3.142   4.027 -0.3829  0.2373  0.1262
32992SOL     OW 1354   0.204   2.954   8.398 -0.1542 -0.1116 -0.2397
32992SOL    HW1 1355   0.265   2.976   8.328 -0.6776  0.5179 -0.5025
32992SOL    HW2 1356   0.259   2.911   8.464  0.2035 -1.4072 -1.3485
32993SOL     OW 1357   5.338   5.266   7.330  0.1596 -0.2887  0.2319
32993SOL    HW1 1358   5.305   5.348   7.293  1.2215  0.6586  1.2721
32993SOL    HW2 1359   5.391   5.228   7.260  0.1427  0.2139 -0.0595
32994SOL     OW 1360   9.003   8.640   5.047  0.7316 -0.3844  0.0517
32994SOL    HW1 1361   9.022   8.686   5.129  2.1822  1.5988 -1.3383
32994SOL    HW2 1362   9.060   8.563   5.048  0.2581 -0.7439  1.1577
32995SOL     OW 1363   1.990   3.908   2.362 -0.1036 -0.0104  0.1052
32995SOL    HW1 1364   2.003   3.990   2.315 -0.5677  0.0713  0.1075
32995SOL    HW2 1365   1.941   3.934   2.440 -0.2041 -0.2811  0.1323
32996SOL     OW 1366   8.027   6.426   2.527 -0.1632  0.6645  0.0654
32996SOL    HW1 1367   8.109   6.471   2.547  0.4189  0.0790 -0.9415
32996SOL    HW2 1368   7.967   6.496   2.501  0.7723  0.8935 -1.6166
32997SOL     OW 1369   4.728  10.348   5.472 -0.4666  0.1049  0.2015
32997SOL    HW1 1370   4.781  10.268   5.467 -0.5457  0.0503  0.2086
32997SOL    HW2 1371   4.776  10.405   5.532 -0.4308  0.0450  0.2301
32998SOL     OW 1372   1.523   3.380   6.051  0.6862 -0.3418  0.0661
32998SOL    HW1 1373   1.482   3.343   6.129  0.4765  2.2647  1.2611
32998SOL    HW2 1374   1.617   3.364   6.064  0.5378 -1.2634  0.0807
32999SOL     OW 1375   4.313   1.606   2.747  0.0174  0.1546  0.0659
32999SOL    HW1 1376   4.373   1.584   2.676  0.5557  1.6960  0.0164
32999SOL    HW2 1377   4.229   1.571   2.719 -0.0694  1.8394 -1.9721
33000SOL     OW 1378   2.118   7.905   1.029  0.0456  0.1499  0.1272
33000SOL    HW1 1379   2.092   7.951   1.109  1.4757  0.1756  0.6105
33000SOL    HW2 1380   2.076   7.819   1.037  2.4936 -0.9866  2.4543
33001SOL     OW 1381   2.968   6.767   3.835  0.1638  0.1431 -0.2583
33001SOL    HW1 1382   2.979   6.854   3.874  0.7290  0.2598 -0.6626
33001SOL    HW2 1383   2.890   6.775   3.779 -0.7884 -0.0879  0.9898
33002SOL     OW 1384   8.884   2.745   2.688 -0.1586 -0.4275 -0.4443
33002SOL    HW1 1385   8.864   2.719   2.778 -1.7001  0.2149 -0.5637
33002SOL    HW2 1386   8.798   2.762   2.648  0.5543  0.6921 -1.6085
33003SOL     OW 1387   5.313   8.512   3.786  0.1701 -0.1976  0.0432
33003SOL    HW1 1388   5.315   8.460   3.866  2.1804  0.5670  0.5388
33003SOL    HW2 1389   5.255   8.585   3.807 -2.8384 -2.1459 -0.7192
33004SOL     OW 1390   1.673   8.832   0.799  0.5248  0.3912  0.4881
33004SOL    HW1 1391   1.651   8.762   0.860  1.8232 -1.8749 -1.4793
33004SOL    HW2 1392   1.665   8.792   0.712 -0.9864  3.3882 -0.9150
33005SOL     OW 1393   4.161   3.160   1.045  0.3438 -0.1407 -0.0009
33005SOL    HW1 1394   4.110   3.174   0.965 -1.7010 -1.6940  0.9475
33005SOL    HW2 1395   4.155   3.243   1.092 -2.0283 -0.4713  0.4102
33006SOL     OW 1396   8.016   4.691   4.594 -0.2942 -0.0017 -0.0017
33006SOL    HW1 1397   8.096   4.640   4.589 -1.7958 -2.4775 -0.8781
33006SOL    HW2 1398   8.026   4.746   4.671  1.7185 -1.1545  0.6118
33007SOL     OW 1399   4.928   1.967   5.196  0.4737  0.5631  0.0466
33007SOL    HW1 1400   4.868   1.894   5.183  1.6938 -0.1826 -1.7265
33007SOL    HW2 1401   4.904   2.030   5.129  1.4502  0.3971 -0.4768
33008SOL     OW 1402   7.532   5.167   2.077  0.1561  0.3243  0.1271
33008SOL    HW1 1403   7.572   5.137   1.996  1.2696 -0.0461  0.7775
33008SOL    HW2 1404   7.606   5.173   2.138 -0.5566  1.1955  0.9322
33009SOL     OW 1405   4.482   2.535   0.384  0.3664 -0.0823  0.3227
33009SOL    HW1 1406   4.544   2.488   0.440  0.9220 -0.3246 -0.4779
33009SOL    HW2 1407   4.443   2.601   0.441  3.1034  1.7062  0.3107
33010SOL     OW 1408   5.546   0.694   2.197 -0.0314 -0.4528 -0.5310
33010SOL    HW1 1409   5.639   0.718   2.199 -0.3223  1.0339  3.2055
33010SOL    HW2 1410   5.513   0.720   2.283 -3.6047 -2.3402 -1.1567
33011SOL     OW 1411   8.073  10.303  10.657 -0.1322 -0.1780 -0.1003
33011SOL    HW1 1412   8.166  10.281  10.667  0.2598  1.0623 -0.8014
33011SOL    HW2 1413   8.055  10.286  10.565 -0.8067 -1.0817  0.1860
33012SOL     OW 1414   8.810   9.287   4.992 -0.3308 -0.5753 -0.0586
33012SOL    HW1 1415   8.767   9.337   4.923  0.4321 -0.4056 -0.4178
33012SOL    HW2 1416   8.903   9.293   4.972 -0.2333 -2.4565 -0.3130
33013SOL     OW 1417   7.042   9.621   2.590  0.1507  0.3277  0.5064
33013SOL    HW1 1418   7.108   9.553   2.608 -1.6706 -0.9369  3.2842
33013SOL    HW2 1419   6.959   9.575   2.601 -1.2635  1.9841 -2.3697
33014SOL     OW 1420   7.328   0.344   8.140 -0.0349  0.0114 -0.1344
33014SOL    HW1 1421   7.410   0.376   8.178 -0.3273 -1.0380  1.4988
33014SOL    HW2 1422   7.338   0.356   8.046  1.4954  1.0194  0.1271
33015SOL     OW 1423  10.090   9.438   2.997  0.3787  0.0874 -0.3531
33015SOL    HW1 1424  10.114   9.528   2.973  2.8406 -0.7450 -1.3859
33015SOL    HW2 1425  10.104   9.433   3.091 -1.9090  1.3271  0.1082
33016SOL     OW 1426   5.378   9.772  10.485  0.0375  0.2008 -0.3776
33016SOL    HW1 1427   5.362   9.679  10.500  0.1465  0.2906  0.3635
33016SOL    HW2 1428   5.443   9.796  10.552 -0.7377  1.0295  0.1064
33017SOL     OW 1429   0.954   5.526   2.423  0.8450  0.1247 -0.2123
33017SOL    HW1 1430   1.021   5.481   2.373  0.7121 -0.7941  0.4109
33017SOL    HW2 1431   0.963   5.618   2.398  2.3872  0.0369 -0.0690
33018SOL     OW 1432   3.250   8.639  10.653  0.0068 -0.1597  0.0723
33018SOL    HW1 1433   3.313   8.586  10.602 -1.0984 -0.5707 -0.9251
33018SOL    HW2 1434   3.186   8.667  10.588 -0.6307  0.5774  1.0059
33019SOL     OW 1435   8.107   6.943   2.204 -0.2185  0.1576 -0.3607
33019SOL    HW1 1436   8.111   6.900   2.289 -0.3118  0.2269 -0.3203
33019SOL    HW2 1437   8.198   6.954   2.177 -0.1957 -0.1076 -0.3932
33020SOL     OW 1438   2.830   4.928   9.273 -0.6716  0.4481  0.3876
33020SOL    HW1 1439   2.862   4.958   9.359 -0.6704  0.8482  0.2499
33020SOL    HW2 1440   2.761   4.990   9.250 -2.1637 -0.8990  1.0631
33021SOL     OW 1441   8.053   0.880   3.002 -0.0027  0.1057  0.1449
33021SOL    HW1 1442   8.144   0.893   2.974 -0.5801 -1.1397 -2.7404
33021SOL    HW2 1443   8.009   0.962   2.980  0.2783  0.4775  0.9438
33022SOL     OW 1444   9.144   3.136   6.034  0.7859 -0.4475  0.3289
33022SOL    HW1 1445   9.232   3.174   6.031  0.0637  1.3958  1.2306
33022SOL    HW2 1446   9.085   3.211   6.043 -0.8631 -1.6695  0.2336
33023SOL     OW 1447   2.187   9.143   8.116  0.0179 -0.2211  0.1252
33023SOL    HW1 1448   2.195   9.106   8.028 -0.8689  0.4254 -0.2343
33023SOL    HW2 1449   2.275   9.135   8.153  0.5698  0.1051 -1.0644
33024SOL     OW 1450   4.175  10.211   8.745  0.1507  0.4832  0.2502
33024SOL    HW1 1451   4.233  10.286   8.730  1.8124 -0.6933  0.4469
33024SOL    HW2 1452   4.232  10.135   8.736 -0.5256 -0.6550  3.9015
33025SOL     OW 1453   9.308   2.142   1.310 -0.0242  0.5742 -0.0251
33025SOL    HW1 1454   9.291   2.052   1.282 -1.5475  0.3393  1.4302
33025SOL    HW2 1455   9.222   2.185   1.304  0.6811  1.9380 -0.6945
33026SOL     OW 1456   8.352   4.323   1.626 -0.0617 -0.6911 -0.5947
33026SOL    HW1 1457   8.399   4.385   1.570  0.4464 -0.3501  0.2048
33026SOL    HW2 1458   8.356   4.240   1.577  0.3801 -0.4019 -1.0643
33027SOL     OW 1459   9.474   8.999   7.056  0.8030 -0.2089 -0.3404
33027SOL    HW1 1460   9.556   9.048   7.056 -0.1221  1.5426  2.2317
33027SOL    HW2 1461   9.478   8.944   7.133 -0.6800  0.4227  0.2258
33028SOL     OW 1462   5.745   0.118   0.649 -0.0884  0.6912 -0.4575
33028SOL    HW1 1463   5.700   0.196   0.681  0.5204  0.5674  0.7474
33028SOL    HW2 1464   5.780   0.144   0.564 -0.2111  1.6092 -0.2345
33029SOL     OW 1465   4.239   0.885   7.932 -0.2030  0.0066 -0.0920
33029SOL    HW1 1466   4.289   0.911   7.855 -0.2563 -0.4032 -0.2705
33029SOL    HW2 1467   4.194   0.804   7.905 -0.2168 -0.1427  0.3660
33030SOL     OW 1468   6.031   9.054   9.297 -0.4064 -0.8030  0.6070
33030SOL    HW1 1469   6.004   8.965   9.279 -1.6932 -0.0795 -1.4281
33030SOL    HW2 1470   6.111   9.066   9.246 -1.3572 -0.2233 -0.8063
33031SOL     OW 1471   4.340   0.539   0.978  0.6752  0.1534 -0.3081
33031SOL    HW1 1472   4.366   0.631   0.966  0.7045  0.2280  0.3018
33031SOL    HW2 1473   4.404   0.504   1.041  1.1217 -0.4944 -1.1061
33032SOL     OW 1474   3.125  10.100   7.348 -0.1683  0.2459  0.4447
33032SOL    HW1 1475   3.142  10.098   7.254 -1.6642 -2.1790  0.1459
33032SOL    HW2 1476   3.202  10.060   7.387 -0.5807 -1.0685 -0.0133
33033SOL     OW 1477   8.894   1.308   4.917  0.4778 -0.0244 -0.0631
33033SOL    HW1 1478   8.878   1.223   4.877  1.5774  0.1764 -0.9897
33033SOL    HW2 1479   8.822   1.364   4.888 -0.1549 -0.5818  0.4137
33034SOL     OW 1480   7.942   6.976   0.757  0.7576  0.2466  0.3414
33034SOL    HW1 1481   7.863   6.926   0.780  0.6619  0.5108  0.6008
33034SOL    HW2 1482   7.951   6.964   0.663 -0.3697  1.3136  0.0708
33035SOL     OW 1483   9.636   0.903   9.237  0.2744 -0.0898  0.4761
33035SOL    HW1 1484   9.652   0.836   9.171 -0.0883  1.3174 -1.1154
33035SOL    HW2 1485   9.711   0.897   9.296  1.6943 -0.0494 -1.2429
33036SOL     OW 1486   5.892   8.179   3.859  0.5144 -0.6815 -0.1873
33036SOL    HW1 1487   5.814   8.160   3.911 -0.0405 -1.4876 -1.2718
33036SOL    HW2 1488   5.862   8.177   3.768  1.1258  2.2808 -0.5365
33037SOL     OW 1489   0.233   4.197   1.455 -0.6311  0.0805 -0.2273
33037SOL    HW1 1490   0.307   4.253   1.433  0.7269 -1.6168 -0.2121
33037SOL    HW2 1491   0.230   4.132   1.384  1.0828 -2.8559  2.1478
33038SOL     OW 1492  10.566   5.531   0.590  0.0557 -0.0501  0.3292
33038SOL    HW1 1493  10.587   5.451   0.542 -0.3099 -0.7681  1.3313
33038SOL    HW2 1494  10.650   5.576   0.600  0.1276  0.1189 -0.9796
33039SOL     OW 1495   2.408   4.796   5.283 -0.2167  0.5280  0.2975
33039SOL    HW1 1496   2.424   4.703   5.298  1.5553  0.7348 -0.1348
33039SOL    HW2 1497   2.405   4.834   5.371 -2.0155 -0.0445  0.5385
33040SOL     OW 1498   6.021   7.601   4.676  0.1758  0.3350 -0.2350
33040SOL    HW1 1499   6.090   7.616   4.741  0.4779  1.5474 -0.7957
33040SOL    HW2 1500   6.029   7.675   4.616 -0.1353 -0.7104 -1.6199
33041SOL     OW 1501   6.070   1.998   4.470 -0.0101  0.4810  0.2359
33041SOL    HW1 1502   5.995   2.055   4.485 -0.5779  0.3247 -1.7602
33041SOL    HW2 1503   6.104   2.024   4.385  0.6534 -1.1180 -0.0307
33042SOL     OW 1504   3.607   8.647   7.693  0.1327  0.3264  0.6547
33042SOL    HW1 1505   3.525   8.686   7.724 -0.5524 -0.0529 -0.6110
33042SOL    HW2 1506   3.594   8.553   7.703  0.1759  0.2351 -0.1178
33043SOL     OW 1507   9.705   7.138   0.511  0.1109 -0.1341 -0.0299
33043SOL    HW1 1508   9.620   7.148   0.554 -0.1037 -0.4053 -0.3939
33043SOL    HW2 1509   9.754   7.216   0.538 -0.3947  0.2304 -0.1540
33044SOL     OW 1510   1.617   9.422   6.729 -0.2513  0.2001 -0.4976
33044SOL    HW1 1511   1.562   9.480   6.782  0.6918 -0.2710  1.0381
33044SOL    HW2 1512   1.628   9.470   6.647 -2.1047  0.7576 -0.4789
33045SOL     OW 1513   8.162   5.710   9.305 -0.2487  0.3589 -0.1821
33045SOL    HW1 1514   8.112   5.765   9.366 -1.4760 -0.7175 -0.1719
33045SOL    HW2 1515   8.250   5.705   9.343 -0.8632  0.1121  1.2570
33046SOL     OW 1516  10.419   7.716   9.033  0.4382  0.1565  0.4443
33046SOL    HW1 1517  10.345   7.757   9.077 -1.7446 -2.2108 -0.7335
33046SOL    HW2 1518  10.459   7.660   9.099  0.0019  0.0311  0.6047
33047SOL     OW 1519   3.414   0.284   2.871  0.4214 -0.2377  0.2731
33047SOL    HW1 1520   3.486   0.308   2.813 -1.0299  1.8687 -0.7751
33047SOL    HW2 1521   3.351   0.240   2.815  0.0091 -0.2438  0.7309
33048SOL     OW 1522   6.780   9.663   9.033  0.2510 -0.1138  0.2197
33048SOL    HW1 1523   6.837   9.650   8.957  1.0292  0.2185  0.7344
33048SOL    HW2 1524   6.839   9.692   9.102 -0.5735  0.3720  0.7298
33049SOL     OW 1525   9.490   2.127  10.200  0.0770 -0.1557  0.4697
33049SOL    HW1 1526   9.531   2.122  10.114  0.4412  1.7868  0.5013
33049SOL    HW2 1527   9.415   2.186  10.189  0.0624  0.0301  1.4543
33050SOL     OW 1528   6.307   7.582   3.679  0.0923 -0.5359  0.1909
33050SOL    HW1 1529   6.391   7.536   3.671  0.7920  0.6288  0.5309
33050SOL    HW2 1530   6.318   7.661   3.627 -0.0125  0.6610  1.8872
33051SOL     OW 1531   9.591   8.486   5.911  0.7874  0.3755  0.1011
33051SOL    HW1 1532   9.619   8.413   5.967  0.0178  0.9601  1.2969
33051SOL    HW2 1533   9.672   8.527   5.882  1.2171  0.5397  1.4699
33052SOL     OW 1534   3.190  10.287   1.849  0.1610  0.0732  0.1084
33052SOL    HW1 1535   3.255  10.251   1.787 -1.1752 -1.7526 -0.3269
33052SOL    HW2 1536   3.237  10.357   1.894  1.9340 -0.1044 -1.3031
33053SOL     OW 1537   6.273   6.399  10.056  0.0318  0.2614 -0.4961
33053SOL    HW1 1538   6.233   6.461  10.117  0.3976  0.4001 -0.3997
33053SOL    HW2 1539   6.354   6.441  10.028  1.0258 -0.7853  0.6830
33054SOL     OW 1540   1.912   9.727   7.483  0.7496  0.3773 -0.0372
33054SOL    HW1 1541   1.981   9.661   7.490  0.4385  0.2166  2.2431
33054SOL    HW2 1542   1.946   9.802   7.532 -0.6518  0.2766  1.1888
33055SOL     OW 1543   1.578   9.668  10.005  0.0954  0.3212  0.6485
33055SOL    HW1 1544   1.597   9.637   9.917 -0.1578  0.5016  0.5294
33055SOL    HW2 1545   1.517   9.602  10.040 -0.3005  0.5869  0.4602
33056SOL     OW 1546   9.498   6.565   0.709 -0.1992  0.0754 -0.7703
33056SOL    HW1 1547   9.500   6.481   0.754 -2.1907 -0.5721 -1.7984
33056SOL    HW2 1548   9.527   6.546   0.619  0.6882  0.7710 -0.6558
33057SOL     OW 1549   5.011   9.719   1.148 -0.4302  0.1561  0.4945
33057SOL    HW1 1550   5.008   9.652   1.081  0.3234  0.8592 -0.2559
33057SOL    HW2 1551   4.941   9.695   1.209 -0.5998 -0.9252 -0.1138
33058SOL     OW 1552   2.177   1.996  10.226  0.3807 -0.8315  0.1396
33058SOL    HW1 1553   2.167   1.981  10.132  3.7979  2.5023 -0.9964
33058SOL    HW2 1554   2.095   2.040  10.252  1.2820  3.1120 -2.7152
33059SOL     OW 1555   4.672   4.369   3.084 -0.0952 -0.0238  0.2370
33059SOL    HW1 1556   4.619   4.290   3.098 -0.1512 -0.1302 -0.5555
33059SOL    HW2 1557   4.678   4.409   3.171 -1.9887  0.3098  0.2624
33060SOL     OW 1558   0.991   1.395   8.503 -0.5052  0.0161 -0.3541
33060SOL    HW1 1559   1.070   1.442   8.476  0.2779 -1.2057 -0.2725
33060SOL    HW2 1560   0.923   1.462   8.506  0.1183  0.8047 -2.1419
33061SOL     OW 1561   9.814   3.628   2.099 -0.0604  0.1315  0.3649
33061SOL    HW1 1562   9.767   3.627   2.016 -1.3194 -0.9934  1.0481
33061SOL    HW2 1563   9.900   3.589   2.079  0.2697  1.3685 -0.7086
33062SOL     OW 1564   4.298   1.617   6.244 -0.2992  0.1084  0.2829
33062SOL    HW1 1565   4.359   1.588   6.312 -2.0323 -0.6750  1.5666
33062SOL    HW2 1566   4.349   1.678   6.191  1.7063 -0.7955  1.0613
33063SOL     OW 1567   7.258   1.401   4.265 -0.1553 -0.3595  0.1014
33063SOL    HW1 1568   7.206   1.460   4.320  0.3487 -0.8206  1.0855
33063SOL    HW2 1569   7.339   1.388   4.314 -0.0424 -1.4480 -0.3655
33064SOL     OW 1570  10.316   9.175   6.126  0.1847 -0.0033 -0.1472
33064SOL    HW1 1571  10.293   9.161   6.034  1.7047  2.3694 -0.9891
33064SOL    HW2 1572  10.308   9.089   6.166  2.1620 -1.7392 -3.1173
33065SOL     OW 1573   2.566   4.405   9.059 -0.0423 -0.2610  0.1545
33065SOL    HW1 1574   2.542   4.377   9.147 -0.3169 -1.1183 -0.1895
33065SOL    HW2 1575   2.588   4.324   9.013  1.8381  0.3230 -0.0499
33066SOL     OW 1576   2.633   6.927   2.005  0.5187  0.1555  0.0505
33066SOL    HW1 1577   2.683   6.909   1.926  0.0031  0.3988 -0.3394
33066SOL    HW2 1578   2.626   6.843   2.050  1.9872  0.2716  0.5415
33067SOL     OW 1579   8.051   5.762   3.824  0.0521 -0.4747 -0.5095
33067SOL    HW1 1580   8.126   5.704   3.816  0.3277 -0.1071 -0.6180
33067SOL    HW2 1581   8.077   5.828   3.888 -0.3119 -0.5474 -0.2786
33068SOL     OW 1582   9.063   8.523   2.919  0.2087 -0.2790  0.1744
33068SOL    HW1 1583   9.097   8.461   2.984 -0.4998  0.4174  1.2231
33068SOL    HW2 1584   9.058   8.606   2.965  1.6389  0.7230 -1.3686
33069SOL     OW 1585   9.531   7.083   5.686  0.1234  0.2291 -0.2887
33069SOL    HW1 1586   9.462   7.016   5.683 -0.6132  0.7532  2.4581
33069SOL    HW2 1587   9.612   7.033   5.696 -0.3091 -0.3135  0.6483
33070SOL     OW 1588   6.551   4.937   0.219  0.4387 -0.1124  0.3305
33070SOL    HW1 1589   6.486   4.911   0.284 -0.1364  1.5512  0.4856
33070SOL    HW2 1590   6.532   4.884   0.142 -1.8894  1.1104 -0.0219
33071SOL     OW 1591   1.058   1.232   1.149 -0.1179  0.1556  0.0556
33071SOL    HW1 1592   1.087   1.320   1.172  1.8630 -0.4238 -0.1086
33071SOL    HW2 1593   1.123   1.173   1.188 -0.2488 -1.1392 -1.5575
33072SOL     OW 1594   4.006   5.965   0.118 -0.5262 -0.2500  0.8849
33072SOL    HW1 1595   3.968   5.878   0.124  0.8713 -0.8704  1.1923
33072SOL    HW2 1596   4.001   5.987   0.025 -0.7153 -0.7318  0.7800
33073SOL     OW 1597   2.772  10.656   5.226 -0.4713 -0.4172  0.1227
33073SOL    HW1 1598   2.800  10.682   5.314  0.0974 -1.0865  0.1401
33073SOL    HW2 1599   2.829  10.584   5.202 -0.1116  0.2543 -1.1223
33074SOL     OW 1600   4.463   1.463   1.078  0.5098  0.3262  0.1908
33074SOL    HW1 1601   4.508   1.542   1.050 -1.0432  0.8814 -0.8087
33074SOL    HW2 1602   4.379   1.493   1.112 -0.2434 -0.9071 -0.5168
33075SOL     OW 1603  10.426   8.563   8.150 -0.0084  0.8515 -0.1695
33075SOL    HW1 1604  10.423   8.514   8.231 -0.2624  0.5711 -0.3458
33075SOL    HW2 1605  10.519   8.577   8.133  0.1574 -0.8687 -0.8892
33076SOL     OW 1606   1.304   6.577   6.756 -0.5623 -0.0259 -0.1330
33076SOL    HW1 1607   1.284   6.508   6.693 -2.1738  0.3910 -0.1337
33076SOL    HW2 1608   1.311   6.657   6.703 -1.6234  0.2741  0.1467
33077SOL     OW 1609   2.447   7.174   2.382  0.3822  0.6063 -0.0293
33077SOL    HW1 1610   2.530   7.134   2.356  1.1040  1.8381  0.2841
33077SOL    HW2 1611   2.380   7.113   2.350  1.4128 -0.8638  0.4894
33078SOL     OW 1612   6.486   0.560   3.021 -0.4208  0.2128  0.0281
33078SOL    HW1 1613   6.511   0.579   2.930  0.2470  0.3607  0.2345
33078SOL    HW2 1614   6.540   0.620   3.073  0.9332 -1.4867  0.6525
33079SOL     OW 1615   4.200   0.246   6.226  0.3581  0.2751 -0.1859
33079SOL    HW1 1616   4.254   0.290   6.292  0.5655 -0.1887 -0.0408
33079SOL    HW2 1617   4.110   0.266   6.251  0.4573  0.8410 -0.2779
33080SOL     OW 1618   7.314   1.719   9.918 -0.1138  0.2806  0.0203
33080SOL    HW1 1619   7.243   1.742   9.978 -0.2122 -0.0498  0.0324
33080SOL    HW2 1620   7.276   1.653   9.860  0.2898 -0.1502  0.2427
33081SOL     OW 1621   5.773   9.699   0.730  0.2184 -0.4827  0.0187
33081SOL    HW1 1622   5.772   9.612   0.770 -0.7052  0.7145  2.9296
33081SOL    HW2 1623   5.863   9.710   0.699  1.1139 -1.5140  2.0322
33082SOL     OW 1624   2.900   2.545   7.475 -0.1364  0.0870  0.0237
33082SOL    HW1 1625   2.898   2.521   7.382 -1.9169  0.0647  0.0423
33082SOL    HW2 1626   2.908   2.461   7.521 -2.3634 -0.2263 -0.0468
33083SOL     OW 1627   9.766   3.514   3.912 -0.1947 -0.2771  0.1531
33083SOL    HW1 1628   9.783   3.491   4.004 -0.0736 -2.6809 -0.3996
33083SOL    HW2 1629   9.852   3.526   3.874 -0.2558  1.3724  0.4439
33084SOL     OW 1630   3.028   3.068   1.140 -0.1432 -0.6087  0.0815
33084SOL    HW1 1631   3.011   3.157   1.111 -0.8419 -0.9295 -0.5243
33084SOL    HW2 1632   3.090   3.033   1.076  0.7809 -0.2969  0.7905
33085SOL     OW 1633  10.249  10.556   2.898 -0.0841 -0.4460  0.6258
33085SOL    HW1 1634  10.185  10.625   2.917  2.0297  2.1725 -0.8847
33085SOL    HW2 1635  10.283  10.531   2.983 -0.6118  0.7209  1.2091
33086SOL     OW 1636   7.515   3.501   5.423  0.8202 -0.7271 -0.1144
33086SOL    HW1 1637   7.519   3.484   5.329  2.4930  0.4735 -0.3018
33086SOL    HW2 1638   7.597   3.545   5.444 -0.6521  1.5834  1.3741
33087SOL     OW 1639   8.132   0.795   3.302  0.5791  0.6191  0.2100
33087SOL    HW1 1640   8.124   0.879   3.347 -1.8156  0.0461  0.9977
33087SOL    HW2 1641   8.066   0.799   3.232  0.7304 -0.4468 -0.0137
33088SOL     OW 1642   5.917  10.172   2.904  0.0112 -0.4028  0.3006
33088SOL    HW1 1643   5.983  10.241   2.903 -1.7049  1.4788 -3.1849
33088SOL    HW2 1644   5.872  10.184   2.988  0.7493  1.7864  0.4575
33089SOL     OW 1645   6.484  10.440   7.082 -0.2717 -0.0384  0.1639
33089SOL    HW1 1646   6.481  10.481   7.169 -0.6373  0.7062 -0.1922
33089SOL    HW2 1647   6.452  10.351   7.097  1.5461 -0.5700  1.1348
33090SOL     OW 1648   0.956   4.773   2.511 -0.1018 -0.1762 -0.3916
33090SOL    HW1 1649   0.862   4.787   2.505  0.1893  1.6003 -1.7393
33090SOL    HW2 1650   0.973   4.696   2.457 -0.5926  0.6450 -1.7682
33091SOL     OW 1651   0.666   0.490   8.712 -0.2063  0.3862 -0.8359
33091SOL    HW1 1652   0.687   0.569   8.762 -0.4799 -0.1709  0.1985
33091SOL    HW2 1653   0.613   0.437   8.772 -1.1853  0.0120 -1.9779
33092SOL     OW 1654   4.933   8.114   7.447  0.3758  0.4861 -0.4468
33092SOL    HW1 1655   5.029   8.114   7.449  0.3746  1.5514 -0.0037
33092SOL    HW2 1656   4.908   8.202   7.476 -0.7355  0.2699 -0.7108
33093SOL     OW 1657   6.779   0.474   6.854  0.3076  0.3125 -0.1769
33093SOL    HW1 1658   6.691   0.511   6.861 -0.6784 -1.8676 -0.4123
33093SOL    HW2 1659   6.778   0.425   6.772  0.7698 -2.0684  1.1434
33094SOL     OW 1660   5.766   2.894   2.744  0.3107 -0.4025  0.8601
33094SOL    HW1 1661   5.830   2.966   2.746  0.4362 -0.5187  1.0999
33094SOL    HW2 1662   5.717   2.907   2.663  0.7735 -0.4275  0.5740
33095SOL     OW 1663   3.499   8.695   9.982  0.2736 -0.1777 -0.3667
33095SOL    HW1 1664   3.459   8.778   9.959  1.2758  0.4026 -0.0619
33095SOL    HW2 1665   3.499   8.645   9.900  0.0252  0.2639 -0.6408
33096SOL     OW 1666   8.200   6.531   4.184 -0.1533  0.6941  0.4834
33096SOL    HW1 1667   8.166   6.442   4.196  0.1956  0.4604 -0.1525
33096SOL    HW2 1668   8.251   6.548   4.262  2.1182 -0.7848 -0.5690
33097SOL     OW 1669   8.904   6.747   0.372 -0.4787 -0.1710  0.0157
33097SOL    HW1 1670   8.923   6.768   0.463  1.5232 -0.7013 -0.2442
33097SOL    HW2 1671   8.858   6.663   0.376 -2.3738  0.8156  0.6121
33098SOL     OW 1672   5.493   6.707   2.727 -0.0133 -0.0441 -0.1599
33098SOL    HW1 1673   5.416   6.667   2.768  1.3470 -0.1919  2.4980
33098SOL    HW2 1674   5.494   6.796   2.760  1.4548 -0.3371  0.6856
33099SOL     OW 1675   8.313   3.938  10.189  0.1421  0.6534  0.2255
33099SOL    HW1 1676   8.322   3.957  10.282  1.9218 -0.3788  0.3149
33099SOL    HW2 1677   8.246   3.869  10.185  0.2135  0.5445  0.7757
33100SOL     OW 1678   2.530   9.931   4.923 -0.2231 -0.3499  0.6613
33100SOL    HW1 1679   2.607   9.874   4.926 -1.2871 -1.8322  1.0593
33100SOL    HW2 1680   2.499   9.934   5.014 -1.0989 -0.4349  0.3733
33101SOL     OW 1681   0.569   4.925  10.626 -0.3186 -0.7601  0.0908
33101SOL    HW1 1682   0.483   4.949  10.662 -1.4596 -2.1416 -1.5322
33101SOL    HW2 1683   0.580   4.983  10.551 -0.4665 -1.4445 -0.4748
33102SOL     OW 1684   2.631   7.954   5.416 -0.6461 -0.1224 -0.6900
33102SOL    HW1 1685   2.671   7.946   5.330 -0.7284  0.4567 -0.7884
33102SOL    HW2 1686   2.648   7.871   5.459 -1.8711 -0.9947 -1.8003
33103SOL     OW 1687   2.495   2.273   2.380  0.7639  0.1688 -0.2576
33103SOL    HW1 1688   2.404   2.301   2.394  1.4804  1.8516  1.4486
33103SOL    HW2 1689   2.498   2.185   2.415 -0.1516  0.2007 -0.0606
33104SOL     OW 1690   2.892   6.006   3.277  0.1002 -0.2613 -0.3337
33104SOL    HW1 1691   2.974   6.048   3.251 -0.2521  1.6975  1.4028
33104SOL    HW2 1692   2.824   6.068   3.251 -0.6443 -0.8519  0.1833
33105SOL     OW 1693   8.622   5.276   9.438 -0.0373 -0.0647  0.1835
33105SOL    HW1 1694   8.548   5.221   9.416  0.2018  0.4278 -2.2214
33105SOL    HW2 1695   8.682   5.219   9.486 -0.2474 -1.6313 -1.3207
33106SOL     OW 1696   6.121   8.709  10.195  0.0380 -0.2496  0.3674
33106SOL    HW1 1697   6.055   8.755  10.143  0.0455  0.5637  1.0553
33106SOL    HW2 1698   6.111   8.745  10.284  0.7270 -0.8496  0.6988
33107SOL     OW 1699   7.638   6.753   7.361 -0.4098 -0.6950 -0.2507
33107SOL    HW1 1700   7.549   6.777   7.333  0.3868  0.6888 -1.8008
33107SOL    HW2 1701   7.628   6.726   7.452 -2.2452  0.6678  0.0213
33108SOL     OW 1702   0.611   1.597  10.409  0.0145 -0.2316 -0.5152
33108SOL    HW1 1703   0.706   1.596  10.412  0.0081 -1.6868  1.4391
33108SOL    HW2 1704   0.586   1.508  10.384 -0.8022 -0.4229  0.8482
33109SOL     OW 1705   2.170   3.844   5.974  0.3467 -0.4695  0.2864
33109SOL    HW1 1706   2.167   3.928   6.020 -1.3266 -0.7082  0.6721
33109SOL    HW2 1707   2.138   3.780   6.038  0.0581 -1.1433 -0.5062
33110SOL     OW 1708   9.247   3.090   5.748  0.0434  0.3289  0.0374
33110SOL    HW1 1709   9.330   3.111   5.790 -0.4412  1.8696  0.2894
33110SOL    HW2 1710   9.185   3.080   5.820 -0.2762  0.5607 -0.1989
33111SOL     OW 1711   1.220   4.164   2.970  0.0677  0.5430  0.4104
33111SOL    HW1 1712   1.127   4.162   2.949  0.3816  0.8519 -1.1563
33111SOL    HW2 1713   1.227   4.228   3.041 -0.9476  0.2508  0.7899
33112SOL     OW 1714   1.138   7.494   2.960  0.0672  0.3992  0.1816
33112SOL    HW1 1715   1.059   7.519   2.913  0.1795 -0.4694 -0.5037
33112SOL    HW2 1716   1.202   7.562   2.940 -0.1315  0.4495 -0.2830
33113SOL     OW 1717  10.752   0.767   2.548  0.1001 -0.4862  0.2421
33113SOL    HW1 1718  10.686   0.752   2.615  1.2504  0.0837  1.5491
33113SOL    HW2 1719  10.836   0.760   2.594  0.9312 -0.0759 -1.1292
33114SOL     OW 1720   6.346   8.607   5.599  0.9522 -0.3087 -0.5140
33114SOL    HW1 1721   6.381   8.687   5.558  0.7382 -0.1969 -0.4805
33114SOL    HW2 1722   6.276   8.639   5.656 -0.2255 -0.6673 -1.7172
33115SOL     OW 1723   1.643   4.075   8.275  0.2880  0.6462 -0.2364
33115SOL    HW1 1724   1.684   4.160   8.255 -0.6644  1.3439  0.6906
33115SOL    HW2 1725   1.693   4.042   8.349  1.2617 -0.0735 -1.1776
33116SOL     OW 1726   1.659   2.386   4.674 -0.1819 -0.1611 -0.3900
33116SOL    HW1 1727   1.583   2.391   4.615 -1.7805 -3.1363  1.1737
33116SOL    HW2 1728   1.726   2.342   4.622  0.3465  1.8762 -1.5615
33117SOL     OW 1729   1.478   8.549   9.474 -0.1452  0.8102 -0.1712
33117SOL    HW1 1730   1.407   8.597   9.517 -1.4933  0.4889 -1.9130
33117SOL    HW2 1731   1.438   8.514   9.394  1.1443 -2.0449  0.3144
33118SOL     OW 1732   1.673   0.246   2.394  0.2778  0.0620 -0.1517
33118SOL    HW1 1733   1.624   0.328   2.385  0.6767  0.6763  2.4437
33118SOL    HW2 1734   1.764   0.273   2.407  0.3021 -0.6874  1.5212
33119SOL     OW 1735   5.674   9.868   5.001 -0.1583  0.0040  0.3508
33119SOL    HW1 1736   5.671   9.885   4.907 -1.6030  0.3536  0.4453
33119SOL    HW2 1737   5.714   9.781   5.008 -0.2150 -0.1073 -0.5907
33120SOL     OW 1738   4.536   9.361   6.151 -0.1533 -0.4877  0.1634
33120SOL    HW1 1739   4.477   9.415   6.099  1.5934 -0.9934 -2.6016
33120SOL    HW2 1740   4.581   9.423   6.209  0.1326  0.6720 -1.2467
33121SOL     OW 1741   0.038   1.969   5.319  0.4533  0.4559 -0.4742
33121SOL    HW1 1742   0.103   2.037   5.338  0.3665  0.0246  1.7380
33121SOL    HW2 1743  -0.013   1.963   5.400  0.2971 -2.0562 -0.6932
33122SOL     OW 1744   1.129   2.804   0.501 -0.0662  0.2348  0.3254
33122SOL    HW1 1745   1.163   2.877   0.449  0.5183 -0.4672 -0.3147
33122SOL    HW2 1746   1.196   2.787   0.566  0.1818 -0.2430 -0.0440
33123SOL     OW 1747   7.695   2.499   9.934  0.3494 -0.6547 -0.2416
33123SOL    HW1 1748   7.634   2.480   9.863  0.4093 -1.1340 -0.1658
33123SOL    HW2 1749   7.755   2.425   9.935 -0.2276 -1.1474  0.9192
33124SOL     OW 1750   6.179   6.917   2.774  0.0389 -0.4644  0.0896
33124SOL    HW1 1751   6.134   6.961   2.702  0.8828  0.7495  0.2872
33124SOL    HW2 1752   6.124   6.935   2.851  1.2253  1.7365  0.4923
33125SOL     OW 1753   0.711   2.271   8.384  0.1900  0.4634  1.1819
33125SOL    HW1 1754   0.693   2.364   8.392  0.3719  0.4563  1.6861
33125SOL    HW2 1755   0.641   2.238   8.327  0.4476  1.0001  0.5464
33126SOL     OW 1756  10.185   9.954   4.582  0.0104  0.3946 -0.1489
33126SOL    HW1 1757  10.165   9.993   4.496 -0.7035  0.9193  0.2377
33126SOL    HW2 1758  10.150  10.017   4.645  0.4694 -0.0176  0.5313
33127SOL     OW 1759   3.613   4.074  10.481 -0.0063 -0.8851  0.1192
33127SOL    HW1 1760   3.686   4.117  10.437 -0.6431  1.3826  1.1065
33127SOL    HW2 1761   3.598   4.127  10.559 -1.0334 -2.8390  1.3357
33128SOL     OW 1762   8.394   6.330   6.163  0.1554 -0.1534 -0.1095
33128SOL    HW1 1763   8.309   6.366   6.138  0.7361  1.6725  0.4026
33128SOL    HW2 1764   8.444   6.406   6.193  1.0474 -1.5579  2.1905
33129SOL     OW 1765   4.198   6.157   7.819 -0.7061 -0.0378  0.0195
33129SOL    HW1 1766   4.211   6.123   7.731  0.9997  1.5590 -0.4187
33129SOL    HW2 1767   4.115   6.204   7.815  0.4476  2.0499 -1.4983
33130SOL     OW 1768   7.031   5.175   1.246  0.4789 -0.3971  0.0951
33130SOL    HW1 1769   6.997   5.260   1.275  0.7418  0.0247 -0.7998
33130SOL    HW2 1770   7.090   5.148   1.316  2.4664  1.4283 -0.7657
33131SOL     OW 1771   4.675   0.819   7.328 -0.4241  0.2037 -0.0689
33131SOL    HW1 1772   4.687   0.725   7.323 -1.3131  0.0853 -0.2015
33131SOL    HW2 1773   4.636   0.843   7.243 -1.5541  0.4609  0.4998
33132SOL     OW 1774   1.924   2.110  10.175 -0.4726  0.0738  0.3962
33132SOL    HW1 1775   1.841   2.069  10.200  0.0451 -1.6002 -0.5061
33132SOL    HW2 1776   1.919   2.120  10.080  1.0128 -1.6926  0.0688
33133SOL     OW 1777   2.092   4.209   9.720 -0.2450 -0.2809  0.0973
33133SOL    HW1 1778   2.012   4.172   9.757 -2.0560  1.1578 -2.1048
33133SOL    HW2 1779   2.116   4.279   9.781  0.5503 -1.9433  1.8071
33134SOL     OW 1780   0.047   0.579   3.362  0.0239 -0.4654 -0.1662
33134SOL    HW1 1781   0.100   0.610   3.288  0.9225  1.9504  1.3384
33134SOL    HW2 1782   0.110   0.571   3.434 -1.1333 -0.7776  0.8348
33135SOL     OW 1783   7.132  10.493   2.297  0.4034 -0.0097  0.2166
33135SOL    HW1 1784   7.182  10.422   2.338  0.0985 -1.3599 -1.6233
33135SOL    HW2 1785   7.077  10.528   2.367  1.3712 -0.8295  1.4293
33136SOL     OW 1786   8.293   2.378   4.821  0.8502 -0.0102  0.1681
33136SOL    HW1 1787   8.211   2.382   4.773  0.9529  1.2126  0.0646
33136SOL    HW2 1788   8.280   2.436   4.896  1.0952 -0.9893  1.0001
33137SOL     OW 1789   3.891   2.760  10.651 -0.2809 -0.1029  0.0630
33137SOL    HW1 1790   3.835   2.770  10.574 -1.7326  1.1761  1.2422
33137SOL    HW2 1791   3.955   2.831  10.644 -0.6012  0.1966  0.2039
33138SOL     OW 1792   1.493   6.311  10.426  0.3360  0.0637 -0.7072
33138SOL    HW1 1793   1.576   6.294  10.470 -0.0510 -0.7707 -0.2595
33138SOL    HW2 1794   1.431   6.324  10.498  0.0605  0.6154 -1.0350
33139SOL     OW 1795  10.582   5.464   3.235  0.4769 -0.5160  0.0412
33139SOL    HW1 1796  10.668   5.422   3.231  0.8964  0.2230  1.0094
33139SOL    HW2 1797  10.549   5.443   3.322  1.1440  1.9815  0.9469
33140SOL     OW 1798   8.170   9.664   8.546 -0.0331  0.9208 -0.4217
33140SOL    HW1 1799   8.264   9.648   8.554 -0.1413  0.3211 -0.3163
33140SOL    HW2 1800   8.143   9.613   8.469 -1.0822 -2.6589  2.0794
33141SOL     OW 1801   3.617  10.209   4.179 -0.0503 -0.4252  0.2021
33141SOL    HW1 1802   3.556  10.169   4.241 -0.4469 -1.7838 -1.0221
33141SOL    HW2 1803   3.580  10.190   4.093  1.4103 -0.1073 -0.5302
33142SOL     OW 1804   8.790   7.629   1.021  0.3173  0.3456  0.2881
33142SOL    HW1 1805   8.784   7.614   1.115 -0.2651 -1.6196 -0.0168
33142SOL    HW2 1806   8.705   7.603   0.987  0.1674  1.9724 -0.7090
33143SOL     OW 1807   8.334   9.253   4.643  0.0283  0.4063  0.0526
33143SOL    HW1 1808   8.291   9.167   4.648  0.0528  0.4072  0.3106
33143SOL    HW2 1809   8.262   9.316   4.646  0.0489  0.4115  0.6199
33144SOL     OW 1810   3.257   7.368   4.862 -0.0880 -0.8968  0.5120
33144SOL    HW1 1811   3.337   7.359   4.810 -0.7860 -0.1799 -0.7207
33144SOL    HW2 1812   3.288   7.382   4.952  1.1469 -1.6500  0.2289
33145SOL     OW 1813  10.096   8.191   2.140  0.6377 -0.6700 -0.3275
33145SOL    HW1 1814  10.183   8.192   2.101  0.7671 -0.4995 -0.0384
33145SOL    HW2 1815  10.110   8.220   2.230  0.3190 -0.9039 -0.2036
33146SOL     OW 1816   6.652   9.165   3.909  0.1839  0.3158  0.2498
33146SOL    HW1 1817   6.658   9.257   3.883 -0.1497  0.1470 -0.4542
33146SOL    HW2 1818   6.708   9.157   3.986 -0.5989  1.3409  0.9454
33147SOL     OW 1819   1.222   4.573   8.986  0.0802  0.3671 -0.1280
33147SOL    HW1 1820   1.311   4.540   8.980 -0.0623 -0.1662  0.5446
33147SOL    HW2 1821   1.168   4.494   8.995 -0.3324  0.7393  0.8133
33148SOL     OW 1822   7.048   6.142   9.835 -0.3639  0.4735 -0.1416
33148SOL    HW1 1823   7.026   6.102   9.920 -1.2212  0.4823 -0.3486
33148SOL    HW2 1824   7.101   6.217   9.858 -1.7975  1.3354  0.5229
33149SOL     OW 1825   3.154   7.606   8.730 -0.6719 -0.1552 -0.2392
33149SOL    HW1 1826   3.098   7.654   8.791 -0.0260  0.7184 -0.3043
33149SOL    HW2 1827   3.095   7.574   8.662 -1.2140 -0.0133  0.1624
33150SOL     OW 1828   9.441   7.807   9.263 -0.0747  0.2408  0.0506
33150SOL    HW1 1829   9.503   7.789   9.334  0.3112 -1.1141 -0.5949
33150SOL    HW2 1830   9.477   7.760   9.188 -1.1972  0.5373 -0.6899
33151SOL     OW 1831   5.959   9.455   2.931  0.6150  0.2943  0.5133
33151SOL    HW1 1832   5.902   9.468   3.007 -0.5406  2.4406 -0.6085
33151SOL    HW2 1833   6.022   9.527   2.937  0.4118  0.5789 -0.6109
33152SOL     OW 1834   6.539   7.889   0.314  0.0868  0.1495 -0.3785
33152SOL    HW1 1835   6.582   7.844   0.241 -1.7173 -1.4088 -0.5629
33152SOL    HW2 1836   6.470   7.941   0.272 -1.2809 -1.1331  0.1945
33153SOL     OW 1837   1.854   5.824   3.637  0.0872 -0.0561  0.0173
33153SOL    HW1 1838   1.824   5.735   3.654 -1.6435  0.1793 -1.5602
33153SOL    HW2 1839   1.792   5.880   3.684 -1.1568  0.3930 -2.0684
33154SOL     OW 1840   1.893  10.240   0.550 -0.4446  0.8438 -0.9607
33154SOL    HW1 1841   1.988  10.250   0.557 -0.0426 -2.2714 -0.1948
33154SOL    HW2 1842   1.857  10.292   0.622  0.7172  1.6320 -0.9319
33155SOL     OW 1843   7.976   7.540   4.386  0.0769  0.0231  0.0996
33155SOL    HW1 1844   8.022   7.467   4.429  0.7147  1.6517  2.4120
33155SOL    HW2 1845   7.883   7.521   4.400  0.1736 -1.0949 -0.6889
33156SOL     OW 1846   9.373   8.547   0.064 -0.6461  0.3198  0.2173
33156SOL    HW1 1847   9.287   8.515   0.090 -1.2195  1.7485  0.1773
33156SOL    HW2 1848   9.393   8.616   0.128 -0.7135  1.7880 -1.2772
33157SOL     OW 1849   9.353   0.531   0.298  0.5762  0.2203 -0.0226
33157SOL    HW1 1850   9.433   0.585   0.295 -0.2098  1.3845 -1.2305
33157SOL    HW2 1851   9.282   0.594   0.292 -0.5708 -0.6118  3.0895
33158SOL     OW 1852   5.413   6.823   3.690 -0.5548 -0.0601 -0.2767
33158SOL    HW1 1853   5.455   6.779   3.616 -0.8486 -1.4075  0.3307
33158SOL    HW2 1854   5.473   6.809   3.764 -0.6467  0.5859 -0.0668
33159SOL     OW 1855  10.596   3.277   1.847  0.8445  0.2708 -0.2406
33159SOL    HW1 1856  10.589   3.182   1.860 -0.9028  0.2518 -1.0472
33159SOL    HW2 1857  10.584   3.314   1.934  0.9883 -0.2286 -0.0052
33160SOL     OW 1858   5.008   0.592   3.252  0.2716  0.8926 -0.5496
33160SOL    HW1 1859   4.957   0.585   3.332  0.7845 -0.5366 -0.3220
33160SOL    HW2 1860   5.044   0.681   3.254  0.5101  0.7848  0.9498
33161SOL     OW 1861   6.419   4.695   2.682 -0.2876  0.4086 -0.3656
33161SOL    HW1 1862   6.506   4.720   2.713 -0.3389  0.6860 -0.4354
33161SOL    HW2 1863   6.435   4.647   2.601 -0.2346  1.2125 -0.8491
33162SOL     OW 1864   5.383   9.264   7.645  0.9993 -0.1164  0.0176
33162SOL    HW1 1865   5.315   9.273   7.711  0.8404  0.7920 -0.2641
33162SOL    HW2 1866   5.445   9.334   7.664  1.8308 -0.8796  0.2223
33163SOL     OW 1867   6.303  10.195  10.513 -0.1664  0.1606  0.1684
33163SOL    HW1 1868   6.282  10.133  10.583 -0.8488 -1.5344 -1.4520
33163SOL    HW2 1869   6.219  10.214  10.473  0.2125  1.1623 -0.1741
33164SOL     OW 1870   9.026   2.302   8.808 -0.2444  0.1397 -0.6607
33164SOL    HW1 1871   8.976   2.248   8.869 -1.1123 -0.1418 -1.5983
33164SOL    HW2 1872   9.023   2.390   8.845 -2.5247  0.3887 -1.3242
33165SOL     OW 1873   0.675  10.376   0.762  0.2719  0.4762  0.1152
33165SOL    HW1 1874   0.693  10.468   0.781 -0.8622  0.5897  0.6848
33165SOL    HW2 1875   0.724  10.328   0.829  0.2238  0.6876  0.3012
33166SOL     OW 1876   3.913   3.402   9.966 -0.6116 -0.1031 -0.2625
33166SOL    HW1 1877   3.863   3.367   9.893 -2.7446  0.2472  0.9596
33166SOL    HW2 1878   3.969   3.470   9.927  0.1045 -1.5662 -1.8952
33167SOL     OW 1879   0.691   1.913   6.704  0.3145  1.0856 -0.6160
33167SOL    HW1 1880   0.646   1.936   6.622 -3.2697  1.0147  1.1715
33167SOL    HW2 1881   0.711   1.998   6.744  1.3225  1.1091 -1.1375
33168SOL     OW 1882   8.217   0.666   1.843 -0.0535  0.5622 -0.0731
33168SOL    HW1 1883   8.292   0.722   1.821  1.4095 -1.2412  0.0360
33168SOL    HW2 1884   8.251   0.606   1.910 -1.5922 -0.3145 -0.0328
33169SOL     OW 1885   1.007   3.584  10.684 -0.3486  0.3493 -0.2388
33169SOL    HW1 1886   0.912   3.582  10.693 -0.9533 -0.0015 -4.5017
33169SOL    HW2 1887   1.029   3.498  10.648  1.4071  0.8859 -0.5506
33170SOL     OW 1888   6.942   1.957   8.167 -0.0107  0.1100 -0.0877
33170SOL    HW1 1889   7.035   1.950   8.188 -0.0553  0.0775  0.1060
33170SOL    HW2 1890   6.915   2.041   8.205 -0.7212 -1.1618  2.5051
33171SOL     OW 1891   1.441   5.945   3.117  0.1961  0.0828  0.1475
33171SOL    HW1 1892   1.524   5.911   3.151  0.7882 -0.7651 -1.9443
33171SOL    HW2 1893   1.385   5.867   3.109 -0.7212  0.6046  1.2459
33172SOL     OW 1894   9.042   2.683   0.548  0.1524  0.1206  0.1833
33172SOL    HW1 1895   8.960   2.669   0.500 -0.4926 -0.7536  1.4771
33172SOL    HW2 1896   9.050   2.778   0.555 -1.4291  0.2270  1.1031
33173SOL     OW 1897   9.276   7.389   4.158 -0.0270  0.1137 -0.3224
33173SOL    HW1 1898   9.221   7.464   4.181 -1.0267 -0.7791  0.2847
33173SOL    HW2 1899   9.339   7.424   4.094 -1.8016  0.9837 -1.6662
33174SOL     OW 1900   6.506   9.245   1.919 -0.4563  0.1330 -0.4464
33174SOL    HW1 1901   6.491   9.338   1.937 -1.0175 -0.2965  1.6553
33174SOL    HW2 1902   6.591   9.227   1.959  0.7770  0.2019 -2.8982
33175SOL     OW 1903   2.514   3.978   5.398  0.0871 -0.2047  0.3616
33175SOL    HW1 1904   2.520   3.888   5.367  1.5966 -0.1227  0.3603
33175SOL    HW2 1905   2.533   3.973   5.491 -2.2825 -0.1692  0.9022
33176SOL     OW 1906   0.004   7.844   3.816 -0.2349  0.3276 -0.1539
33176SOL    HW1 1907  -0.039   7.885   3.740 -0.8983 -1.3298 -0.7449
33176SOL    HW2 1908  -0.022   7.752   3.810 -0.1779  0.1186  2.0246
33177SOL     OW 1909   7.928   7.858   1.718 -0.1251 -0.5089  0.0815
33177SOL    HW1 1910   7.840   7.848   1.756 -0.0481  0.5585  0.5727
33177SOL    HW2 1911   7.918   7.828   1.628 -1.6401  1.9067 -0.6592
33178SOL     OW 1912   3.060   5.952   8.880 -0.2195  0.2163  0.5744
33178SOL    HW1 1913   3.039   5.982   8.968  0.3476  1.0932  0.4298
33178SOL    HW2 1914   3.005   6.006   8.823 -0.0404  0.1716  0.3574
33179SOL     OW 1915   7.685   9.462  10.308  0.6863 -0.8362  0.2813
33179SOL    HW1 1916   7.672   9.418  10.224  2.3371 -0.3395 -0.2831
33179SOL    HW2 1917   7.681   9.391  10.372 -1.9312 -1.0415 -0.0263
33180SOL     OW 1918   1.593   9.367   6.082  0.5302  0.0802  0.0924
33180SOL    HW1 1919   1.661   9.436   6.081  0.6902 -0.0769  0.0928
33180SOL    HW2 1920   1.555   9.373   6.170  0.9873 -0.2570  0.3221
33181SOL     OW 1921  10.106   4.693   6.454  0.0853  0.1357 -0.2588
33181SOL    HW1 1922  10.084   4.698   6.361  0.4674 -1.3672 -0.4583
33181SOL    HW2 1923  10.163   4.616   6.461  0.2885  0.3887  1.1794
33182SOL     OW 1924  10.460   1.316   1.656 -0.0957 -0.3210 -0.6526
33182SOL    HW1 1925  10.495   1.270   1.580 -1.8161 -0.3235 -1.4786
33182SOL    HW2 1926  10.533   1.371   1.686  1.3379 -2.0244 -0.8707
33183SOL     OW 1927   0.247   1.019   7.322  0.0550  0.2702  0.1546
33183SOL    HW1 1928   0.269   0.965   7.246  1.1531  0.2644  0.4501
33183SOL    HW2 1929   0.263   0.963   7.397 -1.0817  0.2596  0.3987
33184SOL     OW 1930   2.990   6.647   1.325 -0.1355 -0.2594 -0.0772
33184SOL    HW1 1931   2.994   6.559   1.362  0.4531 -0.5533 -0.8071
33184SOL    HW2 1932   2.897   6.667   1.319 -0.2973 -1.0955 -0.5008
33185SOL     OW 1933   3.466   1.832   7.297  0.4408  0.3323 -0.4138
33185SOL    HW1 1934   3.397   1.801   7.238  0.0731 -0.0117  0.1828
33185SOL    HW2 1935   3.430   1.819   7.385  0.9362  0.9343 -0.1100
33186SOL     OW 1936   8.775   3.469   0.214  0.4325  0.0858  0.0645
33186SOL    HW1 1937   8.708   3.400   0.215 -0.8852  1.3200  0.4133
33186SOL    HW2 1938   8.737   3.540   0.265  2.2638  0.6354  0.7450
33187SOL     OW 1939  10.094   6.759   6.308  0.3921 -0.5328 -0.0543
33187SOL    HW1 1940  10.104   6.748   6.214 -0.1194 -0.0641 -0.1717
33187SOL    HW2 1941  10.017   6.816   6.317  1.5759  1.0086  0.5902
33188SOL     OW 1942   3.831   0.025   7.901 -0.1789 -0.3865  0.2118
33188SOL    HW1 1943   3.787   0.053   7.820  0.9957 -2.2594 -1.1754
33188SOL    HW2 1944   3.873  -0.058   7.877 -1.2628 -1.9716  3.2537
33189SOL     OW 1945   4.433   2.511  10.489 -0.0377  0.4784  0.1580
33189SOL    HW1 1946   4.464   2.421  10.500 -0.4109  0.5392  2.1105
33189SOL    HW2 1947   4.430   2.524  10.394  1.2930 -1.1104 -0.1534
33190SOL     OW 1948   0.677   4.907   5.372  0.2107 -0.0286  0.2250
33190SOL    HW1 1949   0.638   4.926   5.287 -1.6975 -2.7175  0.3713
33190SOL    HW2 1950   0.770   4.890   5.353 -0.2867 -1.0853 -1.4467
33191SOL     OW 1951   7.538   0.250   7.122  0.5084 -0.0536  0.0414
33191SOL    HW1 1952   7.451   0.212   7.113  1.0848 -2.5807  3.2217
33191SOL    HW2 1953   7.522   0.343   7.138 -1.5840 -0.3760  0.0441
33192SOL     OW 1954   7.872   3.681   3.303  0.2194  0.1870  0.0705
33192SOL    HW1 1955   7.892   3.671   3.210  0.3678  1.9566 -0.1209
33192SOL    HW2 1956   7.939   3.628   3.347  0.0548 -0.7904 -0.8100
33193SOL     OW 1957   6.954   7.428   0.848 -0.1528 -0.0123  0.1835
33193SOL    HW1 1958   6.978   7.517   0.823 -0.0698 -0.2395 -0.5858
33193SOL    HW2 1959   6.922   7.436   0.938 -0.8785  0.9228 -0.1353
33194SOL     OW 1960   2.963   2.778   8.966  0.1580 -0.2621  0.0656
33194SOL    HW1 1961   2.958   2.703   9.026  0.4210  0.4142  0.9554
33194SOL    HW2 1962   2.889   2.767   8.907 -1.0546 -0.1312  1.5071
33195SOL     OW 1963  10.627   4.488   8.927 -0.0646 -0.6518 -0.2923
33195SOL    HW1 1964  10.695   4.552   8.905 -0.8690  0.2941 -0.1115
33195SOL    HW2 1965  10.675   4.408   8.947  1.1156  0.4098  1.3936
33196SOL     OW 1966   0.032   3.733  10.756  0.3166 -0.0152  0.2759
33196SOL    HW1 1967   0.098   3.670  10.785 -1.3476 -2.0872 -0.1442
33196SOL    HW2 1968   0.033   3.802  10.822  1.2782 -1.1767  1.5331
33197SOL     OW 1969   9.869   9.058  10.365  0.1597  0.1737  0.1460
33197SOL    HW1 1970   9.795   9.008  10.400  0.6238  0.7574  2.0731
33197SOL    HW2 1971   9.829   9.131  10.319 -0.4965 -1.1237 -1.4435
33198SOL     OW 1972   2.270   4.882   6.153 -0.1660 -0.7718 -0.4175
33198SOL    HW1 1973   2.214   4.885   6.076 -0.7837 -0.6516  0.0302
33198SOL    HW2 1974   2.358   4.901   6.120 -0.5100 -0.1968 -1.0098
33199SOL     OW 1975   6.102   5.465   2.968  0.1924 -0.6040 -0.0622
33199SOL    HW1 1976   6.172   5.401   2.979 -0.4795 -1.2454  0.6838
33199SOL    HW2 1977   6.074   5.485   3.058  0.0654  0.3753 -0.3063
33200SOL     OW 1978   3.953   6.242   3.208 -0.4844  0.7791  0.1989
33200SOL    HW1 1979   3.973   6.271   3.297 -3.2260  1.5037  0.6770
33200SOL    HW2 1980   3.945   6.324   3.158 -0.1749  0.4311 -0.4300
33201SOL     OW 1981   6.020  10.087   9.602 -0.2419 -0.1623  0.5664
33201SOL    HW1 1982   6.079  10.147   9.556 -2.3081  1.7602  0.2987
33201SOL    HW2 1983   5.985  10.138   9.675 -1.3554 -1.3253  0.8806
33202SOL     OW 1984   4.410   8.696   5.642  0.0871  1.0455  0.1907
33202SOL    HW1 1985   4.428   8.614   5.688  0.3929  0.2387 -1.3098
33202SOL    HW2 1986   4.367   8.669   5.561 -0.3729  2.4208 -0.0531
33203SOL     OW 1987   6.842   7.021   8.086 -0.1207 -0.3094 -0.3547
33203SOL    HW1 1988   6.776   7.078   8.125  2.4864  2.6727  0.0425
33203SOL    HW2 1989   6.800   6.934   8.084 -3.3679  1.0462  1.3616
33204SOL     OW 1990   9.456   4.952   2.518 -0.0789 -0.1657 -0.3420
33204SOL    HW1 1991   9.428   4.865   2.489 -1.5438  0.2205 -0.2107
33204SOL    HW2 1992   9.482   4.997   2.438  2.4451 -1.2608 -0.2270
33205SOL     OW 1993   8.304   2.545  10.016  0.5747  0.9117 -0.4654
33205SOL    HW1 1994   8.289   2.533   9.922 -0.7268 -0.0523 -0.1609
33205SOL    HW2 1995   8.246   2.617  10.041 -0.4012  0.0309 -0.1023
33206SOL     OW 1996   5.770   1.946  10.306  0.0117 -0.2539  0.2686
33206SOL    HW1 1997   5.827   1.964  10.381  0.4335 -0.8570  0.1021
33206SOL    HW2 1998   5.824   1.967  10.230 -0.4509  0.4589  0.1292
33207SOL     OW 1999   8.161   1.856   9.807 -0.2218 -0.5751  0.4426
33207SOL    HW1 2000   8.126   1.843   9.895  1.1663 -0.5548  1.0274
33207SOL    HW2 2001   8.254   1.874   9.821 -0.0388 -0.2708 -1.0152
33208SOL     OW 2002   4.074   2.456   6.960 -0.6096  0.5150 -0.0366
33208SOL    HW1 2003   3.978   2.466   6.957 -0.9437 -0.9231  2.4515
33208SOL    HW2 2004   4.097   2.479   7.050  1.1349 -0.7697 -0.1081
33209SOL     OW 2005   6.047   2.836   4.913  0.4884  0.1388  0.2673
33209SOL    HW1 2006   5.988   2.869   4.844 -0.5630 -0.5981  0.7846
33209SOL    HW2 2007   5.990   2.784   4.969  1.5310 -0.0548  1.1615
33210SOL     OW 2008   6.654   3.084   9.383 -0.0600  0.0269 -0.2037
33210SOL    HW1 2009   6.696   3.005   9.349 -0.9365  0.0111 -1.3262
33210SOL    HW2 2010   6.664   3.078   9.478  1.6557 -0.4005 -0.3892
33211SOL     OW 2011   6.173   5.299   3.842  0.1447  0.8260 -0.1872
33211SOL    HW1 2012   6.193   5.391   3.828 -0.1667  0.8570 -0.4335
33211SOL    HW2 2013   6.234   5.252   3.784 -0.6677  0.9304 -1.1581
33212SOL     OW 2014   0.181   1.435   4.066  0.2037  0.0155 -0.1775
33212SOL    HW1 2015   0.209   1.410   3.978 -0.4405 -1.0805 -0.0885
33212SOL    HW2 2016   0.262   1.463   4.110  0.6278 -0.0269 -0.9130
33213SOL     OW 2017   7.813   1.877   4.522 -0.4026 -0.0937 -0.4929
33213SOL    HW1 2018   7.862   1.799   4.549 -0.3836 -0.7588 -2.3336
33213SOL    HW2 2019   7.754   1.846   4.453 -1.3461  1.2696 -0.3361
33214SOL     OW 2020   5.577  10.613   8.551  1.0408  0.1457  0.1388
33214SOL    HW1 2021   5.657  10.663   8.568  0.6192  0.9968 -0.3268
33214SOL    HW2 2022   5.599  10.523   8.576  1.6886  0.6308  1.3849
33215SOL     OW 2023   5.160   4.565   3.617 -0.1755  0.4533  0.4405
33215SOL    HW1 2024   5.114   4.482   3.605 -0.0068  0.6137 -1.5304
33215SOL    HW2 2025   5.169   4.573   3.712 -0.8825 -1.3950  0.7089
33216SOL     OW 2026   3.502   3.808   9.499  0.1725  0.7548  0.4189
33216SOL    HW1 2027   3.497   3.714   9.485  1.2243  0.4084  2.0572
33216SOL    HW2 2028   3.414   3.840   9.480 -0.4501 -0.6922  0.7408
33217SOL     OW 2029   0.152  10.616   5.089 -0.1687 -0.2538  0.8031
33217SOL    HW1 2030   0.184  10.689   5.142  1.0438 -0.2584  0.1273
33217SOL    HW2 2031   0.106  10.657   5.016 -1.1459 -0.2302  1.4134
33218SOL     OW 2032   0.488   9.958   4.649 -0.2770  0.3511  0.6965
33218SOL    HW1 2033   0.409   9.941   4.700  0.5508 -1.1959  1.5381
33218SOL    HW2 2034   0.528   9.872   4.636  0.1251  0.8104 -1.6711
33219SOL     OW 2035   5.423   7.030   3.435 -0.3024 -0.2960 -0.1493
33219SOL    HW1 2036   5.399   6.937   3.436 -1.0502 -0.1711 -2.0718
33219SOL    HW2 2037   5.519   7.030   3.436 -0.2909 -1.0071  1.5697
33220SOL     OW 2038   9.946   0.319   5.510  0.3317 -0.0926 -0.1359
33220SOL    HW1 2039   9.991   0.374   5.447 -2.0097  2.5825  0.2666
33220SOL    HW2 2040   9.895   0.258   5.458 -2.7802  3.0521 -1.2407
33221SOL     OW 2041   7.746   1.345   1.091  0.0960 -0.8687 -0.2910
33221SOL    HW1 2042   7.812   1.399   1.048 -0.4943 -0.4058 -0.6200
33221SOL    HW2 2043   7.788   1.259   1.100  1.7885  0.0964  1.9804
33222SOL     OW 2044   2.173  10.163   9.870  0.5201  0.1511  0.2338
33222SOL    HW1 2045   2.205  10.120   9.791 -0.6426 -0.3481  0.0094
33222SOL    HW2 2046   2.080  10.142   9.872  0.7852 -1.0989  2.5157
33223SOL     OW 2047   1.422   1.522   4.762  0.7320  0.4381 -0.3244
33223SOL    HW1 2048   1.425   1.596   4.701 -0.7293  0.8609  0.0881
33223SOL    HW2 2049   1.446   1.447   4.708  0.2422  0.9190 -1.2344
33224SOL     OW 2050   9.281   5.065   1.394  0.0812 -0.1267 -0.3227
33224SOL    HW1 2051   9.310   5.052   1.484 -0.4612  1.4587  0.1221
33224SOL    HW2 2052   9.348   5.124   1.357 -0.9319  1.1587 -0.1923
33225SOL     OW 2053   8.963   9.100   8.969 -0.0719  0.0830 -0.2738
33225SOL    HW1 2054   9.048   9.063   8.992  0.0479  1.2500  1.3645
33225SOL    HW2 2055   8.971   9.193   8.993 -0.7397  0.9635 -3.1095
33226SOL     OW 2056   0.890   3.181   4.384 -0.3401 -0.0675  0.1001
33226SOL    HW1 2057   0.922   3.099   4.346 -2.1157 -0.5160 -0.5456
33226SOL    HW2 2058   0.886   3.242   4.310 -1.3854 -0.1855  0.0320
33227SOL     OW 2059   2.965   2.049   6.113  0.3096  0.5712 -0.9035
33227SOL    HW1 2060   2.910   2.123   6.138 -0.2504 -0.4285  1.0186
33227SOL    HW2 2061   2.903   1.978   6.096  0.9054 -0.7426  1.8681
33228SOL     OW 2062   7.373   5.134   6.048 -0.4641  0.1321  0.2857
33228SOL    HW1 2063   7.280   5.146   6.064 -0.5451 -0.1257  0.0076
33228SOL    HW2 2064   7.416   5.170   6.126 -0.8632 -1.3581  1.2173
33229SOL     OW 2065   0.231   2.114   5.513  0.6614 -0.3625  0.0149
33229SOL    HW1 2066   0.231   2.204   5.481 -0.3650 -1.3305 -3.0127
33229SOL    HW2 2067   0.320   2.082   5.496  1.2556  0.2166  1.7781
33230SOL     OW 2068   5.485   5.766   5.372  0.0029  0.3465  0.0781
33230SOL    HW1 2069   5.430   5.789   5.297 -0.4163  1.3081  0.6662
33230SOL    HW2 2070   5.531   5.687   5.344 -0.1220  0.7061 -1.2017
33231SOL     OW 2071   7.584   2.649   7.260  0.3742  0.3176 -0.1955
33231SOL    HW1 2072   7.535   2.605   7.190 -1.0797  0.9960  0.3387
33231SOL    HW2 2073   7.673   2.655   7.227  0.3160 -1.6958 -0.8919
33232SOL     OW 2074   5.389   2.064   5.064  0.1434 -0.3807  0.3985
33232SOL    HW1 2075   5.413   2.090   5.153  2.2071 -0.6878 -0.0266
33232SOL    HW2 2076   5.387   1.969   5.065 -2.8100 -0.4210  0.7878
33233SOL     OW 2077   6.904   4.935   6.315 -0.0129  0.1471  0.1566
33233SOL    HW1 2078   6.907   5.023   6.277  0.1216 -0.1552 -0.5487
33233SOL    HW2 2079   6.831   4.939   6.377  1.2769  1.3480  1.6673
33234SOL     OW 2080   3.254   0.496   6.558 -0.3855 -0.0830 -0.1700
33234SOL    HW1 2081   3.312   0.424   6.531  0.8486 -0.1339  2.3783
33234SOL    HW2 2082   3.303   0.575   6.537  0.0711 -0.1022  0.7695
33235SOL     OW 2083   4.486   0.388  10.418  0.1454 -0.5247 -0.1719
33235SOL    HW1 2084   4.457   0.437  10.341  1.0157  0.0138 -0.1756
33235SOL    HW2 2085   4.422   0.317  10.427 -0.1923 -0.3653 -1.1559
33236SOL     OW 2086   0.684   2.041   2.222 -0.0015  0.1969 -0.1960
33236SOL    HW1 2087   0.756   2.079   2.272 -0.1096  0.4499 -0.2285
33236SOL    HW2 2088   0.723   2.014   2.139  0.1613 -0.1498 -0.0070
33237SOL     OW 2089   2.697   5.660   0.065 -0.0207  0.7890  0.1560
33237SOL    HW1 2090   2.716   5.632   0.154 -0.6399  2.0550  0.7202
33237SOL    HW2 2091   2.751   5.604   0.010  1.3236  0.8069  1.3874
33238SOL     OW 2092   0.419   0.465   0.251 -0.5803 -0.4254  0.4779
33238SOL    HW1 2093   0.363   0.475   0.174 -0.6365 -0.5785  0.4986
33238SOL    HW2 2094   0.457   0.552   0.264 -1.2096 -0.1875  0.7723
33239SOL     OW 2095   6.067   3.123   7.793 -0.5101 -0.1387 -0.3885
33239SOL    HW1 2096   6.078   3.216   7.816  0.1226  0.0385 -1.3526
33239SOL    HW2 2097   6.005   3.124   7.720 -0.0114 -0.4144 -0.8234
33240SOL     OW 2098   6.008   5.394   8.053 -0.2400 -0.1357 -0.4443
33240SOL    HW1 2099   5.947   5.466   8.068  1.8542  1.4233  1.4159
33240SOL    HW2 2100   5.985   5.328   8.118  1.7361  1.7570  2.4599
33241SOL     OW 2101   3.950   8.523   6.048 -0.1924 -0.3042  0.4485
33241SOL    HW1 2102   3.876   8.483   6.003  0.5180 -1.3209  0.1386
33241SOL    HW2 2103   3.987   8.584   5.984 -0.8881  0.3760  0.6865
33242SOL     OW 2104   4.644   7.171   5.891  0.6452  0.2777  0.0539
33242SOL    HW1 2105   4.707   7.156   5.820  0.0202 -0.1694 -0.4248
33242SOL    HW2 2106   4.683   7.131   5.968  1.0078  0.1278 -0.2076
33243SOL     OW 2107   8.884   6.870   2.630  0.3413 -0.1530  0.4129
33243SOL    HW1 2108   8.812   6.925   2.599  1.3095  0.7146 -0.3345
33243SOL    HW2 2109   8.961   6.903   2.585  0.8691 -2.6078 -0.6794
33244SOL     OW 2110   3.845   7.983  10.542  0.2476 -0.1332  0.2405
33244SOL    HW1 2111   3.752   8.000  10.556  0.2965  0.0795  0.3227
33244SOL    HW2 2112   3.878   8.064  10.503  0.2473 -0.4810 -0.5053
33245SOL     OW 2113  10.169   1.589   0.687 -0.3440 -0.1423  0.4097
33245SOL    HW1 2114  10.161   1.668   0.633 -2.5604  0.4471  1.4972
33245SOL    HW2 2115  10.193   1.520   0.625 -0.1490  1.0312 -0.8664
33246SOL     OW 2116   1.034   3.488   5.067  0.3230 -0.0439 -0.2589
33246SOL    HW1 2117   1.045   3.422   5.135  1.5312 -1.2193 -1.5245
33246SOL    HW2 2118   1.049   3.440   4.985 -1.3715  1.2367 -1.3989
33247SOL     OW 2119   5.298  10.002   9.299 -0.1600 -1.1772  0.0294
33247SOL    HW1 2120   5.310  10.086   9.343 -1.1584 -1.1210  0.2062
33247SOL    HW2 2121   5.387   9.976   9.273  0.0753  0.2950 -0.7198
33248SOL     OW 2122   9.871   9.990   1.238  0.5011  0.0306 -0.2135
33248SOL    HW1 2123   9.946   9.963   1.184  1.0994 -0.1801  0.6984
33248SOL    HW2 2124   9.903  10.066   1.286  0.2893 -0.3484  0.5388
33249SOL     OW 2125   8.462   0.018   2.542 -0.2829  0.1071  0.2586
33249SOL    HW1 2126   8.526   0.060   2.601  0.3287 -1.2523  0.5962
33249SOL    HW2 2127   8.419  -0.048   2.597 -1.4236  0.4624 -0.1919
33250SOL     OW 2128   5.085   5.541   1.282  0.0115  0.1189  0.2648
33250SOL    HW1 2129   5.013   5.537   1.219  0.7271  1.6039 -0.7131
33250SOL    HW2 2130   5.044   5.526   1.366 -1.1373 -0.9054 -0.4513
33251SOL     OW 2131   5.408   3.791   2.857 -0.4389  0.5208 -0.2524
33251SOL    HW1 2132   5.340   3.783   2.923 -0.9837 -0.7159 -0.9126
33251SOL    HW2 2133   5.366   3.763   2.776  0.9571 -0.7196 -0.6043
33252SOL     OW 2134   2.860   3.581   3.823 -0.2804 -0.0246  0.1809
33252SOL    HW1 2135   2.786   3.588   3.763  1.6634  0.2374 -2.4100
33252SOL    HW2 2136   2.892   3.491   3.812  1.5395  0.7114 -1.1588
33253SOL     OW 2137  10.762   7.575   7.208 -0.1349 -0.1346  0.0396
33253SOL    HW1 2138  10.772   7.595   7.115 -0.9225  0.2783  0.0404
33253SOL    HW2 2139  10.670   7.594   7.227 -0.6417 -2.4921  0.3430
33254SOL     OW 2140   5.699   6.470   6.385  1.0265  0.4120 -0.2655
33254SOL    HW1 2141   5.670   6.558   6.408  0.9567  0.8238 -1.8025
33254SOL    HW2 2142   5.708   6.425   6.468 -2.1278  0.8672  0.4486
33255SOL     OW 2143   3.008   5.856   6.070  0.1124 -0.6292  0.4848
33255SOL    HW1 2144   3.000   5.821   5.981  2.1303  0.5578 -0.2330
33255SOL    HW2 2145   3.058   5.790   6.117  0.2128 -0.6586  0.3400
33256SOL     OW 2146   1.266   7.636   2.245 -0.4864 -0.3397 -0.2069
33256SOL    HW1 2147   1.300   7.666   2.161  0.0407 -0.0496  0.1058
33256SOL    HW2 2148   1.174   7.665   2.246 -0.5863 -0.6335 -0.8160
33257SOL     OW 2149   8.799   5.522   1.315 -0.2424  0.3494  0.0362
33257SOL    HW1 2150   8.707   5.529   1.342 -1.1511 -2.9096 -1.6912
33257SOL    HW2 2151   8.797   5.536   1.220  0.9965 -0.1506 -0.0783
33258SOL     OW 2152   1.655   1.409   0.023  0.3617  0.4248  0.0688
33258SOL    HW1 2153   1.674   1.401   0.116  0.6691 -0.1172 -0.0356
33258SOL    HW2 2154   1.640   1.503   0.009 -1.7223  0.3094  1.0599
33259SOL     OW 2155   7.133   6.813   6.119  0.1649  0.0645 -0.0093
33259SOL    HW1 2156   7.038   6.807   6.116 -0.1188  2.7222  0.7083
33259SOL    HW2 2157   7.150   6.892   6.171  2.8309 -1.8386  2.3303
33260SOL     OW 2158   4.987   1.841   9.658 -0.3101  0.2550 -0.6208
33260SOL    HW1 2159   5.038   1.816   9.581  1.4462 -1.8251  1.1099
33260SOL    HW2 2160   4.921   1.772   9.666 -0.0032  0.0439  0.1414
33261SOL     OW 2161   8.000   9.021   6.210  0.0341 -0.0158  0.4193
33261SOL    HW1 2162   8.088   8.987   6.223 -0.3280 -0.5053  1.6629
33261SOL    HW2 2163   8.010   9.116   6.215  0.3645 -0.0964  1.4248
33262SOL     OW 2164   3.868   1.226   0.583 -0.0266 -0.3053  0.9569
33262SOL    HW1 2165   3.836   1.155   0.639 -1.7228  0.0033  0.4369
33262SOL    HW2 2166   3.849   1.197   0.494  0.5134  0.2270  0.6553
33263SOL     OW 2167   0.092   1.564   3.302  0.4512  0.0243  0.0221
33263SOL    HW1 2168   0.013   1.532   3.345  0.6014  0.7946  0.9085
33263SOL    HW2 2169   0.142   1.606   3.372  1.2726  0.2507 -0.6812
33264SOL     OW 2170   1.923   3.967   7.505  0.2439 -0.4056  0.7915
33264SOL    HW1 2171   1.905   3.963   7.411  0.3325  0.8190  0.7104
33264SOL    HW2 2172   1.990   3.900   7.520  0.2944 -0.5429 -0.0262
33265SOL     OW 2173   0.044   3.626   3.495 -0.3360  0.2980  0.1316
33265SOL    HW1 2174   0.081   3.644   3.408  0.6996 -2.7689 -0.2018
33265SOL    HW2 2175   0.118   3.636   3.555  0.7353 -3.6064 -0.2547
33266SOL     OW 2176   3.319   0.507   1.974  0.1488  0.1181 -0.5918
33266SOL    HW1 2177   3.256   0.532   2.042  0.9905  2.0431 -0.4485
33266SOL    HW2 2178   3.282   0.542   1.893  1.0139  1.2922 -0.4994
33267SOL     OW 2179   0.646   5.985   8.205  0.1940 -0.0846 -0.0842
33267SOL    HW1 2180   0.726   5.937   8.225 -0.0954 -0.2804  0.6283
33267SOL    HW2 2181   0.657   6.070   8.248  0.0759 -0.0634 -0.0942
33268SOL     OW 2182   0.542   0.330   5.532 -0.1214 -0.1342 -0.2843
33268SOL    HW1 2183   0.635   0.336   5.511 -0.5472 -1.9917 -3.2430
33268SOL    HW2 2184   0.540   0.311   5.626  2.3629  1.2152  0.1273
33269SOL     OW 2185   0.226   7.020   3.075 -0.2245  0.5857  0.2223
33269SOL    HW1 2186   0.211   7.040   3.168  0.8027  1.1182  0.2873
33269SOL    HW2 2187   0.286   7.089   3.046  0.9649 -0.6688 -0.3575
33270SOL     OW 2188   7.543   0.997   4.509 -0.1937 -0.4755  0.4527
33270SOL    HW1 2189   7.513   0.907   4.498 -1.1371 -0.1333  0.1130
33270SOL    HW2 2190   7.556   1.007   4.603  1.6320 -1.4797  0.3415
33271SOL     OW 2191   0.639   3.574   3.391 -0.1223 -0.1177 -0.4640
33271SOL    HW1 2192   0.546   3.594   3.388 -0.4253 -0.6677  2.3795
33271SOL    HW2 2193   0.682   3.659   3.385 -0.9159  0.3315  0.0446
33272SOL     OW 2194   7.580   4.961   3.118  0.4171 -0.3046 -0.4296
33272SOL    HW1 2195   7.515   4.954   3.048 -0.6408 -0.4040  0.5399
33272SOL    HW2 2196   7.642   5.027   3.086 -0.4592  0.1991 -1.1463
33273SOL     OW 2197   0.488   6.901   0.631 -0.4296  0.2188 -0.2123
33273SOL    HW1 2198   0.483   6.996   0.637 -0.2439  0.1377  2.0055
33273SOL    HW2 2199   0.537   6.885   0.551 -0.5967  1.9801 -0.7158
33274SOL     OW 2200   0.002   5.099   7.173  0.0720  0.0878  0.1582
33274SOL    HW1 2201  -0.001   5.064   7.262  0.0439 -0.6603 -0.1325
33274SOL    HW2 2202  -0.090   5.103   7.145  0.1131 -0.1312 -0.0110
33275SOL     OW 2203   8.772   3.782   7.244  0.7148  0.1366 -0.6166
33275SOL    HW1 2204   8.822   3.797   7.163  1.3761  0.7887 -0.1042
33275SOL    HW2 2205   8.838   3.780   7.313  0.1901 -0.7942 -0.1264
33276SOL     OW 2206   1.431   2.598   2.638  0.2371 -0.1083  0.5096
33276SOL    HW1 2207   1.352   2.563   2.596  0.0073  0.1275  0.7419
33276SOL    HW2 2208   1.398   2.649   2.712  0.5076  1.4297 -0.3924
33277SOL     OW 2209   6.742   7.832   9.318 -0.0035 -0.1626  0.3360
33277SOL    HW1 2210   6.680   7.826   9.245 -1.6767 -0.7076  1.7246
33277SOL    HW2 2211   6.746   7.926   9.338  0.2748 -0.0380 -0.2896
33278SOL     OW 2212   7.758   3.035   6.839 -0.6665  0.7741  0.2728
33278SOL    HW1 2213   7.792   2.991   6.916 -0.9393 -0.4339 -0.2815
33278SOL    HW2 2214   7.835   3.076   6.799 -0.3828  0.6738  0.7070
33279SOL     OW 2215   0.315   6.744   3.379  0.1698 -0.1756 -0.2870
33279SOL    HW1 2216   0.406   6.716   3.370  0.4199  0.8063 -0.8852
33279SOL    HW2 2217   0.315   6.835   3.350 -1.0491 -0.2376 -0.5039
33280SOL     OW 2218   4.126   7.068   6.914 -0.0508  0.1553 -0.8087
33280SOL    HW1 2219   4.049   7.034   6.868 -0.4630 -1.0871  0.7106
33280SOL    HW2 2220   4.181   6.991   6.928  0.6203  0.7220 -0.2694
33281SOL     OW 2221   8.481  10.553   0.701  0.2035 -0.4470 -0.5701
33281SOL    HW1 2222   8.402  10.545   0.756 -0.0101 -1.5389 -1.0197
33281SOL    HW2 2223   8.551  10.569   0.764 -0.1813 -0.7359 -0.0534
33282SOL     OW 2224   5.160   4.490   8.385 -0.0853  0.3678 -0.2369
33282SOL    HW1 2225   5.095   4.540   8.433  0.3636 -1.9433  3.1224
33282SOL    HW2 2226   5.115   4.408   8.363  0.7015  0.1287 -1.0252
33283SOL     OW 2227   6.409  10.520   2.256  0.0620 -0.1833 -0.0961
33283SOL    HW1 2228   6.477  10.475   2.206  0.0511  0.6732 -0.9118
33283SOL    HW2 2229   6.456  10.586   2.307 -0.2999  2.1668 -2.5810
33284SOL     OW 2230   3.063   1.975   3.828 -0.4507 -0.0198  0.2109
33284SOL    HW1 2231   3.133   2.018   3.876  0.5331 -0.3532 -0.8915
33284SOL    HW2 2232   2.983   2.017   3.859  0.2198  0.3244  1.5269
33285SOL     OW 2233   1.543   5.515   8.187  0.5432 -0.1125 -0.2812
33285SOL    HW1 2234   1.581   5.580   8.246 -0.9838  1.1078 -0.5804
33285SOL    HW2 2235   1.614   5.494   8.126  2.2764 -1.6591  2.0728
33286SOL     OW 2236  10.580   6.037   4.383  0.0882 -0.0228 -0.0494
33286SOL    HW1 2237  10.626   5.991   4.313 -0.3788 -0.6183  0.0174
33286SOL    HW2 2238  10.547   5.967   4.439 -0.8675  0.3806 -0.0866
33287SOL     OW 2239   0.306   4.339   9.629  0.0494 -0.0310 -0.1227
33287SOL    HW1 2240   0.234   4.393   9.596  1.9641  2.0575 -1.2004
33287SOL    HW2 2241   0.310   4.361   9.722 -0.1135  0.5980 -0.2540
33288SOL     OW 2242   3.820   8.055   4.951  0.1320 -0.1896  0.4302
33288SOL    HW1 2243   3.886   7.988   4.970 -0.8884 -0.7282  2.3387
33288SOL    HW2 2244   3.808   8.101   5.034 -1.0355  0.6835 -0.1890
33289SOL     OW 2245   7.404   6.144   3.283  0.0532 -0.2158  0.3057
33289SOL    HW1 2246   7.416   6.234   3.251 -0.3183 -0.1217  0.4293
33289SOL    HW2 2247   7.355   6.154   3.365  0.9800 -0.4611  0.9019
33290SOL     OW 2248   1.137   9.740  10.721 -0.1355 -0.2667  0.2954
33290SOL    HW1 2249   1.169   9.650  10.709  0.7514  0.1827 -0.9788
33290SOL    HW2 2250   1.069   9.750  10.654 -0.8495 -0.2464  1.0078
33291SOL     OW 2251   9.609   4.108  10.505  0.1663  0.3559  0.2580
33291SOL    HW1 2252   9.635   4.182  10.561 -1.6923  1.1455  0.1440
33291SOL    HW2 2253   9.523   4.133  10.471  0.6021 -0.7660 -1.7978
33292SOL     OW 2254   7.699   4.127   7.902  0.0019 -0.1522 -0.0248
33292SOL    HW1 2255   7.647   4.068   7.848  0.6818 -0.8866  0.1034
33292SOL    HW2 2256   7.697   4.211   7.855  1.0412 -0.9181 -1.5258
33293SOL     OW 2257   6.952   1.951   6.517  0.2386 -0.4686 -0.0057
33293SOL    HW1 2258   6.968   1.899   6.439  0.5361  0.6346 -0.6979
33293SOL    HW2 2259   6.862   1.980   6.509 -0.8315 -2.9235  1.6558
33294SOL     OW 2260   3.768  10.594   3.891 -0.0427 -0.2735 -0.3708
33294SOL    HW1 2261   3.750  10.539   3.967  0.2474  0.1191 -0.0117
33294SOL    HW2 2262   3.831  10.659   3.922  1.0053 -0.8317 -1.2614
33295SOL     OW 2263   9.516   3.677   7.411 -0.0910  0.1496  0.1246
33295SOL    HW1 2264   9.577   3.693   7.482  0.1990 -0.5775  0.0466
33295SOL    HW2 2265   9.480   3.763   7.390  0.2634  0.4535  0.7464
33296SOL     OW 2266   4.779   8.576   9.596 -0.4098 -0.3413 -0.3919
33296SOL    HW1 2267   4.859   8.609   9.555 -1.2915  1.2107 -0.9467
33296SOL    HW2 2268   4.775   8.484   9.569 -1.6092  0.8459 -5.0886
33297SOL     OW 2269   0.920   9.802  10.590 -0.3703 -0.1443  0.2558
33297SOL    HW1 2270   0.891   9.825  10.501  0.1678 -1.6355 -0.3515
33297SOL    HW2 2271   0.906   9.881  10.641 -1.0787  0.6343 -1.0709
33298SOL     OW 2272   3.446   1.656   6.775 -0.0327 -0.7334 -0.3059
33298SOL    HW1 2273   3.514   1.598   6.741  1.4791 -0.4001  1.8644
33298SOL    HW2 2274   3.411   1.609   6.851  0.6375  0.7323  0.9884
33299SOL     OW 2275  10.534   4.151   2.271  0.0893  0.1318  0.8658
33299SOL    HW1 2276  10.536   4.247   2.272 -2.2467  0.2862 -0.5553
33299SOL    HW2 2277  10.517   4.126   2.361 -0.7292  1.1556  1.0175
33300SOL     OW 2278   4.329   3.905  10.398  0.2546 -0.6136 -0.3319
33300SOL    HW1 2279   4.397   3.837  10.396 -0.4590 -1.3399 -0.3231
33300SOL    HW2 2280   4.358   3.966  10.466  1.2477 -0.5385 -0.8000
33301SOL     OW 2281   5.237   6.635   1.072  0.3921  0.0759  0.4625
33301SOL    HW1 2282   5.280   6.645   1.158 -0.4014 -0.0964  0.8857
33301SOL    HW2 2283   5.197   6.549   1.075 -2.7308  1.4120  1.3542
33302SOL     OW 2284   4.369   7.635   5.147 -0.4568 -0.5865 -0.0150
33302SOL    HW1 2285   4.428   7.630   5.072  1.0025  0.5432  1.0132
33302SOL    HW2 2286   4.425   7.657   5.221 -1.8342 -1.8599  1.4704
33303SOL     OW 2287   7.454  10.136   2.565 -0.0069  0.3440 -0.0972
33303SOL    HW1 2288   7.529  10.195   2.572  0.0830  0.1493  0.7667
33303SOL    HW2 2289   7.424  10.125   2.656 -0.4078 -0.4371 -0.3175
33304SOL     OW 2290   5.534   2.080  10.299  0.1825 -0.4152 -0.1038
33304SOL    HW1 2291   5.567   2.085  10.209  0.5016 -1.4389 -0.0497
33304SOL    HW2 2292   5.597   2.024  10.345 -0.0062  0.0510  0.7518
33305SOL     OW 2293   2.169   6.376   9.117  0.4576 -0.2748  0.3899
33305SOL    HW1 2294   2.171   6.469   9.095 -1.1050  0.0065  1.2750
33305SOL    HW2 2295   2.102   6.339   9.059 -2.1514  0.0723  2.9494
33306SOL     OW 2296  10.614   3.210   7.772  0.1030 -0.2819 -0.2483
33306SOL    HW1 2297  10.695   3.259   7.755  0.3454 -0.2239  0.9373
33306SOL    HW2 2298  10.546   3.260   7.726  0.8645 -0.9007 -2.1074
33307SOL     OW 2299   5.730   9.933   6.966  0.3268  0.3809  0.0944
33307SOL    HW1 2300   5.678   9.998   6.918  0.8738  0.6506 -0.1402
33307SOL    HW2 2301   5.689   9.929   7.052 -1.0476 -0.5552 -0.5649
33308SOL     OW 2302  10.124   1.647   3.551 -0.5582  0.2206 -0.5439
33308SOL    HW1 2303  10.219   1.659   3.546 -0.3466 -1.4007 -0.6679
33308SOL    HW2 2304  10.112   1.560   3.587 -2.0124  0.2535 -0.8874
33309SOL     OW 2305   3.745   7.774   0.400  0.1560  0.1107 -0.0618
33309SOL    HW1 2306   3.653   7.792   0.419  0.2856  0.7635 -0.0497
33309SOL    HW2 2307   3.744   7.737   0.312  0.0417  1.7632 -0.7880
33310SOL     OW 2308   2.211   8.913  10.126 -0.1424  0.2066 -0.2810
33310SOL    HW1 2309   2.203   9.002  10.090  2.4876  0.5006 -0.3291
33310SOL    HW2 2310   2.212   8.856  10.049  0.1653  0.3304 -0.3693
33311SOL     OW 2311   6.765   5.727   8.634 -0.1962 -0.2048 -0.0823
33311SOL    HW1 2312   6.672   5.742   8.619  0.3007  0.6157 -3.1536
33311SOL    HW2 2313   6.772   5.633   8.653 -1.7520  0.0407  2.0086
33312SOL     OW 2314   5.307   0.080   4.485  0.7936 -0.0457  0.1210
33312SOL    HW1 2315   5.335   0.172   4.483  1.6183 -0.3046 -0.5011
33312SOL    HW2 2316   5.225   0.079   4.435  1.6884  0.0694 -1.4082
33313SOL     OW 2317   5.145   6.272  10.699  0.3786 -0.6727 -0.0697
33313SOL    HW1 2318   5.088   6.283  10.775  2.8309 -1.8060  2.0802
33313SOL    HW2 2319   5.119   6.189  10.660 -0.1911 -0.5909  0.1229
33314SOL     OW 2320   4.250   9.307   1.253 -0.1442 -0.0396  0.1275
33314SOL    HW1 2321   4.203   9.232   1.215  0.5687  0.6869 -2.3484
33314SOL    HW2 2322   4.342   9.287   1.239  0.0778  1.0525 -0.0385
33315SOL     OW 2323   9.411   4.151   7.784  0.0679 -0.3596  0.1072
33315SOL    HW1 2324   9.438   4.202   7.860 -1.7128 -2.2242  2.1612
33315SOL    HW2 2325   9.328   4.190   7.757  1.2932  1.0856 -1.7896
33316SOL     OW 2326   1.750   3.133   9.584  0.4868  0.3080 -0.5020
33316SOL    HW1 2327   1.790   3.215   9.613  0.0959  0.4429 -0.3287
33316SOL    HW2 2328   1.656   3.146   9.600  0.4562 -0.3107 -0.1276
33317SOL     OW 2329   7.194   1.890   9.432 -0.0371 -1.4442  0.1127
33317SOL    HW1 2330   7.214   1.808   9.478  2.5926 -1.6466 -1.1782
33317SOL    HW2 2331   7.124   1.866   9.371  0.1368 -2.5539  0.3267
33318SOL     OW 2332   0.350   8.804   9.459 -0.3158  0.4757  0.0444
33318SOL    HW1 2333   0.382   8.847   9.379  3.9860  0.7465  1.6375
33318SOL    HW2 2334   0.388   8.716   9.456 -1.3215 -0.0249  1.1657
33319SOL     OW 2335   2.865   8.287   4.753  0.2359  0.6085 -0.1127
33319SOL    HW1 2336   2.774   8.283   4.782  0.5634 -1.0650  0.8486
33319SOL    HW2 2337   2.860   8.279   4.657 -0.5877 -1.0332  0.0322
33320SOL     OW 2338   5.164  10.696   9.958  0.1154  0.3689  0.3351
33320SOL    HW1 2339   5.257  10.702   9.936  0.2857 -1.8834  0.1607
33320SOL    HW2 2340   5.120  10.699   9.873  0.3034 -1.6917  0.1109
33321SOL     OW 2341   4.600   7.498   0.711 -0.3282  0.2513  0.2685
33321SOL    HW1 2342   4.679   7.473   0.760 -1.7703 -1.9097  1.6671
33321SOL    HW2 2343   4.611   7.458   0.625 -0.6124 -1.5686  1.0321
33322SOL     OW 2344   6.032   8.421   8.906 -0.0873  0.0895  0.5483
33322SOL    HW1 2345   6.113   8.380   8.936 -1.0115 -1.3470  1.1435
33322SOL    HW2 2346   6.021   8.497   8.963 -0.3475 -1.0290  2.0423
33323SOL     OW 2347   4.252   9.681   4.595  0.1843  0.2679  0.5582
33323SOL    HW1 2348   4.273   9.617   4.527  0.2299  0.1702  0.6621
33323SOL    HW2 2349   4.266   9.766   4.554 -0.1607  0.2140  0.3267
33324SOL     OW 2350   0.451   1.578   9.636  0.4525 -0.2881  0.1010
33324SOL    HW1 2351   0.425   1.573   9.544  1.5414  1.3231 -0.3502
33324SOL    HW2 2352   0.547   1.587   9.632  0.6152 -1.1848  1.4509
33325SOL     OW 2353   8.665   2.282   1.261  0.3353 -0.9123  0.9239
33325SOL    HW1 2354   8.682   2.189   1.246  0.0095 -1.2305  2.3368
33325SOL    HW2 2355   8.573   2.293   1.237  0.7284 -0.6250 -0.5519
33326SOL     OW 2356   7.669   4.863   9.387  0.0291 -0.5806 -0.5938
33326SOL    HW1 2357   7.748   4.810   9.382  1.3944  1.4707 -2.1019
33326SOL    HW2 2358   7.693   4.947   9.348 -2.3599  0.7849  0.6262
33327SOL     OW 2359   3.714   0.577   9.915 -0.3226  0.1686  0.4867
33327SOL    HW1 2360   3.670   0.494   9.901  1.2127 -0.4163 -1.3057
33327SOL    HW2 2361   3.660   0.642   9.870 -0.2867 -0.2502 -0.1608
33328SOL     OW 2362   3.121   0.815   6.325 -0.3219  0.2287  0.3303
33328SOL    HW1 2363   3.148   0.724   6.308 -1.4061  0.3219 -2.3663
33328SOL    HW2 2364   3.175   0.867   6.266  0.5742  1.4553  2.1378
33329SOL     OW 2365   8.636   9.060   4.583  0.6455  0.1631  0.0017
33329SOL    HW1 2366   8.630   9.066   4.679 -0.2793 -1.6177  0.0952
33329SOL    HW2 2367   8.577   9.128   4.551  2.4672  2.1454  0.6173
33330SOL     OW 2368  10.216   8.317   1.490  0.1546 -0.2576 -0.2268
33330SOL    HW1 2369  10.163   8.394   1.469  2.1590  0.9198 -1.3208
33330SOL    HW2 2370  10.300   8.334   1.448  2.2492 -0.9253  3.2979
33331SOL     OW 2371   5.886   1.315   8.867  0.3585  0.1763 -0.4820
33331SOL    HW1 2372   5.967   1.277   8.830  0.9355 -0.0035  0.9014
33331SOL    HW2 2373   5.916   1.394   8.912 -0.5545  1.2103 -1.6437
33332SOL     OW 2374   6.041   5.332  10.143  0.2709 -0.4177  0.1658
33332SOL    HW1 2375   6.082   5.311  10.059  0.7067  1.0273 -0.0130
33332SOL    HW2 2376   5.948   5.317  10.129  0.4572 -1.2996 -0.2090
33333SOL     OW 2377   9.791   3.745   3.578 -0.0876 -0.2756 -0.5457
33333SOL    HW1 2378   9.860   3.709   3.633  1.2573  2.4303 -0.2466
33333SOL    HW2 2379   9.755   3.818   3.629 -1.8528 -0.4225 -1.4980
33334SOL     OW 2380   2.729   5.799  10.430 -0.3095  0.3128 -0.2036
33334SOL    HW1 2381   2.779   5.725  10.395 -2.7841 -0.9803 -1.2711
33334SOL    HW2 2382   2.736   5.789  10.525 -0.5653 -1.3319 -0.3217
33335SOL     OW 2383   0.459   0.358   3.601  0.0784 -0.5152  0.4210
33335SOL    HW1 2384   0.406   0.435   3.620  0.0622 -0.7467  1.4085
33335SOL    HW2 2385   0.470   0.358   3.506 -1.5403 -0.3791  0.2121
33336SOL     OW 2386   6.130   1.322   8.634 -0.4724  0.2693 -0.2027
33336SOL    HW1 2387   6.184   1.387   8.678  1.4903 -0.9808 -0.6315
33336SOL    HW2 2388   6.132   1.246   8.692  0.9814 -0.9081 -1.7061
33337SOL     OW 2389   9.621  10.031  10.577  0.3246 -0.3361 -0.6650
33337SOL    HW1 2390   9.588   9.942  10.587 -1.2571  0.0894 -1.7001
33337SOL    HW2 2391   9.584  10.061  10.494  1.1567  1.1576 -0.5313
33338SOL     OW 2392   0.340   8.050   9.684  0.4791  0.6329 -0.6001
33338SOL    HW1 2393   0.277   7.986   9.650 -0.2474  0.8958  0.2112
33338SOL    HW2 2394   0.315   8.133   9.644 -1.2280  1.2167  1.5031
33339SOL     OW 2395   2.560  10.204   4.864 -0.0224  0.2154 -0.4673
33339SOL    HW1 2396   2.562  10.112   4.891  0.1671  0.4336  0.2568
33339SOL    HW2 2397   2.590  10.202   4.773 -2.3787 -0.7161 -1.2936
33340SOL     OW 2398   4.319   7.176  10.743  0.2438  0.0088 -0.2358
33340SOL    HW1 2399   4.312   7.221  10.827  0.0311 -1.1368  0.3806
33340SOL    HW2 2400   4.283   7.238  10.679  0.8267  1.0627  0.4487
33341SOL     OW 2401   5.361   1.517   8.853 -0.0980  0.4912  0.3693
33341SOL    HW1 2402   5.447   1.547   8.823 -0.7328  1.1346 -0.8942
33341SOL    HW2 2403   5.330   1.588   8.910  0.0022  0.4948  0.4192
33342SOL     OW 2404   1.885   9.196   6.107 -0.9253  0.6111 -0.0730
33342SOL    HW1 2405   1.833   9.219   6.029 -0.2884  3.5042  0.2511
33342SOL    HW2 2406   1.969   9.239   6.094 -1.2489  2.3274  2.7862
33343SOL     OW 2407   2.350   8.551   7.595 -0.3879 -0.1772  0.1504
33343SOL    HW1 2408   2.363   8.522   7.505  1.3594  0.9869 -0.0122
33343SOL    HW2 2409   2.415   8.619   7.608 -2.3934  1.6138  1.4577
33344SOL     OW 2410   7.340   1.195   9.221 -0.6465 -0.0628  0.9358
33344SOL    HW1 2411   7.398   1.144   9.278 -2.0887 -0.6987  1.8902
33344SOL    HW2 2412   7.252   1.172   9.250 -1.3794  1.3380 -0.0807
33345SOL     OW 2413   0.741   5.782   2.390 -0.5916  0.0252  0.2223
33345SOL    HW1 2414   0.804   5.729   2.341  0.9290  1.2280  0.8060
33345SOL    HW2 2415   0.726   5.731   2.470 -0.6821 -0.4656 -0.1019
33346SOL     OW 2416   0.088   0.307   5.572  0.0282 -0.2207 -0.3207
33346SOL    HW1 2417   0.023   0.287   5.505 -1.9956  1.6642  0.9572
33346SOL    HW2 2418   0.127   0.390   5.544 -0.7558  0.5244  0.7053
33347SOL     OW 2419   8.347   2.075   8.583  0.3296  0.2061  0.4596
33347SOL    HW1 2420   8.263   2.107   8.551 -1.0241 -0.3412  3.1672
33347SOL    HW2 2421   8.330   1.984   8.609  1.8169 -0.0045  0.8419
33348SOL     OW 2422   5.612   9.512  10.182  0.0638 -0.1656  0.5630
33348SOL    HW1 2423   5.570   9.597  10.168 -0.6475 -0.7247 -0.9803
33348SOL    HW2 2424   5.552   9.465  10.240 -1.0007 -0.5821 -0.8021
33349SOL     OW 2425   9.822   8.593   5.805 -0.3184  0.2549  0.2537
33349SOL    HW1 2426   9.827   8.613   5.712 -0.9155  0.0667  0.1742
33349SOL    HW2 2427   9.911   8.569   5.830 -0.8481 -4.3247 -1.3143
33350SOL     OW 2428  10.653   6.975   4.617  0.4627  0.3128  0.2344
33350SOL    HW1 2429  10.729   6.938   4.573  0.4138  1.1938 -0.6242
33350SOL    HW2 2430  10.632   6.912   4.686  0.3678 -1.2636 -1.1597
33351SOL     OW 2431   7.551   2.516  10.601  0.5691  0.7203  0.0908
33351SOL    HW1 2432   7.642   2.487  10.594  0.4626  0.8053 -2.7574
33351SOL    HW2 2433   7.527   2.544  10.513 -1.7816  2.1513  1.0596
33352SOL     OW 2434   2.407   2.629   9.593  0.4052 -0.0624  0.5733
33352SOL    HW1 2435   2.399   2.709   9.645 -1.5065 -0.8119  1.5198
33352SOL    HW2 2436   2.332   2.575   9.619 -0.0162 -0.9667 -2.1126
33353SOL     OW 2437   6.200   3.570   5.025 -0.1121  0.4058 -0.1021
33353SOL    HW1 2438   6.254   3.621   4.965 -0.8559  1.4531  0.0752
33353SOL    HW2 2439   6.162   3.635   5.084 -1.4633 -0.2973 -0.1531
33354SOL     OW 2440   1.584   7.999   3.108  0.2074 -0.6325 -0.1159
33354SOL    HW1 2441   1.660   7.944   3.088 -0.9716 -1.8564 -1.4647
33354SOL    HW2 2442   1.535   7.948   3.174  1.1250  0.7262  1.7101
33355SOL     OW 2443   5.329   8.518   7.029 -0.1044 -0.8779 -0.7722
33355SOL    HW1 2444   5.415   8.502   6.989  0.4725 -1.8139  0.7939
33355SOL    HW2 2445   5.284   8.575   6.966  1.2039 -1.3439 -2.1866
33356SOL     OW 2446   8.103   9.008   3.978 -0.4598  0.6518  0.1653
33356SOL    HW1 2447   8.047   9.086   3.983 -0.8695  0.3819 -0.0964
33356SOL    HW2 2448   8.091   8.977   3.888 -0.1833  0.3719  0.2266
33357SOL     OW 2449   2.987   3.560   5.599 -0.0684  0.1746 -0.0043
33357SOL    HW1 2450   2.911   3.586   5.546 -0.1143 -0.3688 -0.2034
33357SOL    HW2 2451   2.975   3.608   5.682 -0.6899  0.0011  0.0101
33358SOL     OW 2452   6.557   4.913   7.579  0.7668 -0.7594 -0.4200
33358SOL    HW1 2453   6.618   4.848   7.614 -0.1772 -1.1146  0.6210
33358SOL    HW2 2454   6.488   4.861   7.537  1.1805 -0.3646 -1.6290
33359SOL     OW 2455   9.695   0.708   1.810  0.0436 -0.2239 -0.5823
33359SOL    HW1 2456   9.772   0.652   1.796  2.0769  1.3448  2.9199
33359SOL    HW2 2457   9.728   0.797   1.796 -1.9221  0.3980 -1.5884
33360SOL     OW 2458   8.710   1.988   4.839  0.0530 -0.4927 -0.2348
33360SOL    HW1 2459   8.799   1.976   4.806  0.2656 -0.7072  0.3900
33360SOL    HW2 2460   8.671   2.052   4.780  0.6203 -0.3935 -0.5169
33361SOL     OW 2461   8.810   6.767   4.087 -0.4330 -0.3249 -0.3096
33361SOL    HW1 2462   8.715   6.773   4.099 -0.1565  0.1667  2.2662
33361SOL    HW2 2463   8.834   6.852   4.049 -0.6419  1.4605  3.0897
33362SOL     OW 2464   6.290   9.975   4.653  0.1940 -1.0290 -0.4098
33362SOL    HW1 2465   6.250  10.015   4.576 -2.9732 -0.4903  1.3001
33362SOL    HW2 2466   6.364  10.032   4.674 -0.9695  0.8318 -1.1127
33363SOL     OW 2467   1.038   8.173   5.178  0.0786  0.0158  0.1867
33363SOL    HW1 2468   1.125   8.133   5.177 -0.4574 -1.1899  0.1162
33363SOL    HW2 2469   0.977   8.099   5.178 -0.9581  0.7698  2.2696
33364SOL     OW 2470   6.285   8.094   6.631  0.1614 -0.2328  0.0716
33364SOL    HW1 2471   6.340   8.163   6.593 -0.4774 -0.0736 -0.5796
33364SOL    HW2 2472   6.321   8.080   6.719  1.5027 -0.4091 -0.4788
33365SOL     OW 2473   6.421   4.333   7.881 -0.2514  0.3628 -0.4052
33365SOL    HW1 2474   6.384   4.360   7.797  0.5645  0.4349 -0.7489
33365SOL    HW2 2475   6.423   4.238   7.878  0.1410  0.3749 -0.6360
33366SOL     OW 2476   2.559   2.201   1.193 -0.0263  0.2469  0.3189
33366SOL    HW1 2477   2.482   2.169   1.241  1.7293 -1.8325  1.9047
33366SOL    HW2 2478   2.621   2.128   1.195  0.8479  0.6503 -3.7244
33367SOL     OW 2479   8.083   7.442   2.290  0.5497 -0.0728 -0.4017
33367SOL    HW1 2480   8.011   7.483   2.242 -1.7270 -1.6378  1.4785
33367SOL    HW2 2481   8.152   7.509   2.290 -0.7265  1.3930 -2.5107
33368SOL     OW 2482   7.716   9.041   4.367 -0.1986  0.1090  0.1102
33368SOL    HW1 2483   7.661   8.991   4.427  2.9168 -1.5443  1.8327
33368SOL    HW2 2484   7.749   9.114   4.420  1.0591 -0.2594 -0.1297
33369SOL     OW 2485   0.493  10.204   6.485 -0.3355 -0.4406 -0.3088
33369SOL    HW1 2486   0.511  10.186   6.578  1.5664  0.5175 -0.4492
33369SOL    HW2 2487   0.552  10.146   6.438 -2.4039 -2.0984 -1.0390
33370SOL     OW 2488   0.098   3.191   3.076  0.1960 -0.3090 -0.1163
33370SOL    HW1 2489   0.083   3.147   3.160 -0.5543 -0.2330 -0.2001
33370SOL    HW2 2490   0.180   3.239   3.089 -0.5722  0.7744  1.0555
33371SOL     OW 2491   3.235   3.285   4.732 -0.4910  0.1404 -0.3891
33371SOL    HW1 2492   3.319   3.298   4.776 -0.6513 -1.1086  0.3307
33371SOL    HW2 2493   3.175   3.260   4.802 -0.8963 -1.2759 -1.2070
33372SOL     OW 2494   6.015   2.616   9.751 -0.0898  0.2099  0.5429
33372SOL    HW1 2495   6.072   2.594   9.824 -0.3252 -1.8574  0.1583
33372SOL    HW2 2496   5.931   2.575   9.772 -0.6511  0.9617 -0.1447
33373SOL     OW 2497   1.267   7.878   7.767  0.1093  0.2622 -0.4829
33373SOL    HW1 2498   1.210   7.946   7.730  0.3126  1.0526  0.6087
33373SOL    HW2 2499   1.300   7.917   7.848 -0.6793 -1.5633  0.7711
33374SOL     OW 2500   7.052   5.144   4.746  0.1597  0.2734 -0.0468
33374SOL    HW1 2501   7.058   5.136   4.651  1.3436  0.8560 -0.0406
33374SOL    HW2 2502   6.959   5.158   4.763  0.1018  1.5138 -1.2372
33375SOL     OW 2503   8.541  10.621   0.399 -0.4857  0.0834  0.2173
33375SOL    HW1 2504   8.601  10.645   0.470  1.2173 -1.0936 -0.7486
33375SOL    HW2 2505   8.543  10.696   0.340 -0.3349  0.2475  0.4273
33376SOL     OW 2506   5.186   1.016   6.157 -0.0095 -0.1914  0.1627
33376SOL    HW1 2507   5.128   0.971   6.095 -0.4931  0.2857  0.2607
33376SOL    HW2 2508   5.204   1.100   6.115  1.0546 -0.5507 -0.1139
33377SOL     OW 2509   5.783  10.227   9.005  0.0721 -0.4403  0.0900
33377SOL    HW1 2510   5.734  10.242   9.086 -0.3562 -0.2364 -0.2020
33377SOL    HW2 2511   5.721  10.183   8.947 -0.4080  1.4716 -0.9499
33378SOL     OW 2512   2.669   3.339  10.582  0.3755  0.2069  0.3619
33378SOL    HW1 2513   2.614   3.267  10.553 -2.2562  2.5124 -0.7653
33378SOL    HW2 2514   2.658   3.341  10.677 -1.6007  0.6233  0.1623
33379SOL     OW 2515   4.649  10.321   5.894  0.5737 -0.2424  0.2172
33379SOL    HW1 2516   4.614  10.403   5.859  0.1946 -0.0347  1.0554
33379SOL    HW2 2517   4.609  10.313   5.981 -0.9436 -2.2993 -0.5993
33380SOL     OW 2518   6.052   9.099   6.748  0.1241 -0.0553 -0.0368
33380SOL    HW1 2519   6.129   9.155   6.756 -0.8135  1.1407  1.2226
33380SOL    HW2 2520   5.979   9.161   6.738 -1.1952 -0.8511  3.2131
33381SOL     OW 2521  10.067   9.947   1.031 -0.0803 -0.1347  0.2281
33381SOL    HW1 2522  10.039  10.034   1.001  0.3454  0.2022  0.7901
33381SOL    HW2 2523  10.135   9.921   0.969  0.5938  0.4349  0.7169
33382SOL     OW 2524   2.306  10.349   7.376 -0.3480  0.1942  0.0821
33382SOL    HW1 2525   2.336  10.401   7.450 -0.1939  0.4185 -0.1364
33382SOL    HW2 2526   2.210  10.355   7.380 -0.3630 -0.5105  0.7691
33383SOL     OW 2527   9.708   7.594   7.360 -0.4994 -0.0687 -0.1627
33383SOL    HW1 2528   9.661   7.603   7.443 -0.0064  1.3650 -0.0196
33383SOL    HW2 2529   9.730   7.683   7.334  0.4362 -0.5722 -1.2135
33384SOL     OW 2530  10.657  10.151   1.371  0.0172 -0.6980  0.0065
33384SOL    HW1 2531  10.645  10.240   1.339  0.8892 -0.6533 -0.2354
33384SOL    HW2 2532  10.751  10.144   1.389 -0.1571 -1.3397  0.7216
33385SOL     OW 2533   6.233   9.952  10.023  0.4198 -0.0191  0.0148
33385SOL    HW1 2534   6.219   9.857  10.025  0.5236 -0.0340  0.0204
33385SOL    HW2 2535   6.208   9.981  10.111  1.5038 -0.1942  0.3908
33386SOL     OW 2536   5.920   6.946   6.965  0.1424  0.1018  0.0563
33386SOL    HW1 2537   5.907   6.986   6.879 -0.7313  0.9113  0.5490
33386SOL    HW2 2538   5.834   6.910   6.988  0.5319 -0.6791  0.3184
33387SOL     OW 2539   4.556   4.327  10.339 -0.1211  0.5721 -0.0881
33387SOL    HW1 2540   4.616   4.253  10.325 -0.2824  0.5938 -0.9690
33387SOL    HW2 2541   4.581   4.390  10.272  0.8145  1.8596  1.4051
33388SOL     OW 2542   9.020   1.465   1.475  0.3955  0.3982  0.6857
33388SOL    HW1 2543   9.110   1.442   1.500  0.0763 -1.2392  0.4467
33388SOL    HW2 2544   9.020   1.462   1.380 -0.0941 -0.4032  0.7029
33389SOL     OW 2545   7.158   9.147   0.298  0.2639  0.5920 -0.3643
33389SOL    HW1 2546   7.096   9.197   0.353  0.1511  0.5891 -0.4864
33389SOL    HW2 2547   7.224   9.115   0.359  1.3546  2.4011 -0.5104
33390SOL     OW 2548  10.234   0.475   3.498  0.0604  0.0083  0.2815
33390SOL    HW1 2549  10.312   0.435   3.536 -0.9683 -1.7591  0.6680
33390SOL    HW2 2550  10.236   0.449   3.406 -0.3855 -0.6031  0.4364
33391SOL     OW 2551   2.070   4.025   9.523 -0.1465 -0.1833 -0.5768
33391SOL    HW1 2552   2.062   4.105   9.574 -1.2898 -0.4855 -0.2550
33391SOL    HW2 2553   2.060   3.955   9.587 -2.2569 -0.5677 -1.2617
33392SOL     OW 2554   5.124   4.797   9.358  0.0575 -0.9247  0.3194
33392SOL    HW1 2555   5.061   4.729   9.335  0.3429 -0.7246 -1.1496
33392SOL    HW2 2556   5.162   4.824   9.274  1.7257 -0.6769  1.1133
33393SOL     OW 2557  10.357   1.521   7.027  0.2624 -0.0416  0.5647
33393SOL    HW1 2558  10.445   1.552   7.049  0.7569 -0.5397 -0.6178
33393SOL    HW2 2559  10.322   1.588   6.967 -1.0334  1.2585  2.6408
33394SOL     OW 2560  10.794   1.176  10.011 -0.0451 -0.2720 -0.9181
33394SOL    HW1 2561  10.794   1.083   9.988  1.3880 -0.1537 -1.4978
33394SOL    HW2 2562  10.881   1.207   9.986 -0.0230  0.9286  0.5036
33395SOL     OW 2563   9.363   3.868   9.008  0.6800 -0.0283  0.2487
33395SOL    HW1 2564   9.332   3.880   8.919 -0.6272  1.1161  0.8318
33395SOL    HW2 2565   9.405   3.782   9.007 -3.5736 -2.3909 -0.3603
33396SOL     OW 2566   7.221   6.837   7.856  0.4765  0.5570 -0.1117
33396SOL    HW1 2567   7.183   6.919   7.888 -0.2750  0.5223 -0.9036
33396SOL    HW2 2568   7.316   6.850   7.864  0.3913  1.7661 -0.8695
33397SOL     OW 2569   1.406   6.044   2.859 -0.1443  0.7234 -0.4299
33397SOL    HW1 2570   1.312   6.061   2.866 -0.5734 -0.8985 -1.6021
33397SOL    HW2 2571   1.426   5.987   2.933 -0.4057 -0.0490 -0.9359
33398SOL     OW 2572   3.912   3.969   6.893  0.1108 -0.1985  0.3665
33398SOL    HW1 2573   3.917   4.060   6.923 -1.0941 -0.0571  0.1920
33398SOL    HW2 2574   3.946   3.918   6.967  1.2378  0.4031  0.2886
33399SOL     OW 2575   6.458   7.209   9.707 -0.3378 -0.2409  0.0000
33399SOL    HW1 2576   6.423   7.295   9.685 -1.0204 -0.5191 -0.0422
33399SOL    HW2 2577   6.418   7.150   9.642 -1.0947 -0.8195  0.9661
33400SOL     OW 2578   1.153   4.736   3.868 -0.1948 -0.4548  0.1100
33400SOL    HW1 2579   1.184   4.646   3.878 -1.2436 -0.7718  0.7848
33400SOL    HW2 2580   1.196   4.768   3.789  2.0412 -0.7251  1.1531
33401SOL     OW 2581   3.936   4.859   5.196  0.2860  0.4270  0.2686
33401SOL    HW1 2582   3.945   4.887   5.287 -1.0630 -1.6118  1.1086
33401SOL    HW2 2583   3.973   4.771   5.193 -2.3872 -0.7828 -0.3618
33402SOL     OW 2584  10.227   5.127   2.084  0.0265  0.0366 -0.3055
33402SOL    HW1 2585  10.244   5.092   2.172 -3.4757 -0.6992  0.2447
33402SOL    HW2 2586  10.131   5.129   2.078  0.1395  2.1826 -3.3226
33403SOL     OW 2587   3.123   3.770   8.598  0.0746 -0.3333  0.2490
33403SOL    HW1 2588   3.050   3.741   8.542 -0.3983  0.4096  0.4641
33403SOL    HW2 2589   3.174   3.691   8.613 -1.9333 -1.4348  1.9745
33404SOL     OW 2590   0.084   7.331   3.099  0.1873  0.7340  0.2462
33404SOL    HW1 2591   0.049   7.243   3.112  1.3245  0.3487  0.8700
33404SOL    HW2 2592   0.150   7.321   3.031  0.7294  0.9906  0.7293
33405SOL     OW 2593   4.574   4.369   4.187  0.0595  0.2690 -0.1083
33405SOL    HW1 2594   4.581   4.283   4.144 -0.5156  0.7539 -1.2088
33405SOL    HW2 2595   4.605   4.353   4.277 -1.0109 -1.3297  0.0202
33406SOL     OW 2596   1.985   8.928   0.429  0.4166 -0.0910  0.2485
33406SOL    HW1 2597   2.061   8.892   0.382 -0.0345  0.1679 -0.7018
33406SOL    HW2 2598   1.911   8.912   0.371  0.0354  1.3584  0.3093
33407SOL     OW 2599   0.733   2.770   4.736 -0.3114 -0.1372 -0.6927
33407SOL    HW1 2600   0.641   2.746   4.740 -0.5509  0.8569  0.1196
33407SOL    HW2 2601   0.746   2.829   4.810  0.6675  0.7533 -1.5300
33408SOL     OW 2602   4.051   1.994   2.011 -0.2638 -0.2474 -0.0154
33408SOL    HW1 2603   4.136   2.003   2.055 -0.7132 -0.4368  0.9144
33408SOL    HW2 2604   3.987   1.998   2.082 -0.9564 -1.8136 -0.5084
33409SOL     OW 2605   4.781   0.560  10.255  0.0468  0.0351 -0.5976
33409SOL    HW1 2606   4.767   0.472  10.290 -0.4180 -0.1099 -1.1357
33409SOL    HW2 2607   4.848   0.598  10.312  0.2851 -0.6830 -0.3889
33410SOL     OW 2608   3.637   9.930   1.271  0.3472  0.5441  0.8906
33410SOL    HW1 2609   3.703   9.922   1.340  1.2183  0.0898  0.0324
33410SOL    HW2 2610   3.642   9.847   1.223  1.5791  1.7374 -1.2448
33411SOL     OW 2611   3.788   2.294   8.794 -0.0915  0.4136 -0.0573
33411SOL    HW1 2612   3.711   2.271   8.847  0.0051 -0.4276 -0.2728
33411SOL    HW2 2613   3.752   2.309   8.706  0.1875 -1.9546 -0.6579
33412SOL     OW 2614   8.969   3.856   9.249 -0.0330  0.1334  0.1779
33412SOL    HW1 2615   8.952   3.809   9.167 -1.4173  0.0683  0.4775
33412SOL    HW2 2616   9.060   3.837   9.269  0.0111 -0.7445 -0.7888
33413SOL     OW 2617   2.664   5.810   1.039  0.2562  0.2159 -0.4790
33413SOL    HW1 2618   2.636   5.728   0.998 -0.6013  0.7947 -1.0846
33413SOL    HW2 2619   2.584   5.863   1.043  0.5685  0.6202  0.9016
33414SOL     OW 2620   1.957   7.115   2.096  0.2022  0.1447 -0.1080
33414SOL    HW1 2621   1.948   7.036   2.149  0.1365  0.9890  1.1858
33414SOL    HW2 2622   2.051   7.130   2.091  0.1982  1.9185  2.7406
33415SOL     OW 2623   3.962   5.365   4.801 -0.3460 -0.0817  0.4836
33415SOL    HW1 2624   3.888   5.379   4.861 -1.3083 -2.1257 -0.1518
33415SOL    HW2 2625   4.025   5.315   4.853 -0.5571 -0.5937  0.2579
33416SOL     OW 2626  10.374   5.288   1.938 -0.6637 -0.2925 -0.0140
33416SOL    HW1 2627  10.446   5.303   1.998  1.1372 -1.0651 -1.8596
33416SOL    HW2 2628  10.326   5.214   1.975  1.4445 -1.9199 -0.3413
33417SOL     OW 2629   2.544   2.545   3.663 -0.0476  0.0262 -0.0879
33417SOL    HW1 2630   2.635   2.572   3.667 -0.0366 -0.1513  2.4079
33417SOL    HW2 2631   2.494   2.625   3.680 -0.1541 -0.4747  2.4575
33418SOL     OW 2632   5.507   2.845   6.590  0.1955  0.0922 -0.0935
33418SOL    HW1 2633   5.507   2.845   6.686  0.8627 -1.7748 -0.0508
33418SOL    HW2 2634   5.414   2.844   6.566  0.0223  0.1535  0.5476
33419SOL     OW 2635   8.076   4.661   3.137 -0.1175  0.1287 -0.3231
33419SOL    HW1 2636   7.994   4.697   3.170  0.0280 -0.0792  0.2886
33419SOL    HW2 2637   8.051   4.610   3.060 -0.6089 -0.1999  0.0489
33420SOL     OW 2638   8.914   2.040   0.963 -0.2271  0.1815  0.2926
33420SOL    HW1 2639   8.949   1.994   1.040 -0.3067  0.0846  0.2706
33420SOL    HW2 2640   8.992   2.065   0.913 -0.1342  1.0318  0.8531
33421SOL     OW 2641   8.776   7.448   8.489  0.4430  0.0138  0.0212
33421SOL    HW1 2642   8.870   7.466   8.496  0.2805  0.7133  0.4510
33421SOL    HW2 2643   8.744   7.455   8.579  0.2208 -1.6313  0.0946
33422SOL     OW 2644   3.347   7.277   9.815 -0.3413 -0.5466  0.7801
33422SOL    HW1 2645   3.284   7.205   9.809  0.8125 -1.5257 -0.1843
33422SOL    HW2 2646   3.418   7.242   9.869 -0.2290  0.2517  1.1676
33423SOL     OW 2647   6.371   3.998   9.492 -0.0510  0.2250 -0.1532
33423SOL    HW1 2648   6.422   3.918   9.487 -0.6388 -0.0786 -2.6120
33423SOL    HW2 2649   6.398   4.039   9.574  2.0786 -1.2537 -0.0381
33424SOL     OW 2650   2.645   7.071   8.657  0.4432 -0.3608  0.5858
33424SOL    HW1 2651   2.683   7.153   8.627  1.7171 -0.7895  0.9816
33424SOL    HW2 2652   2.584   7.097   8.726  0.5225  0.2765  0.4249
33425SOL     OW 2653   0.075   1.333   0.569 -0.7218  0.2024 -0.7798
33425SOL    HW1 2654   0.022   1.314   0.647  0.0702  1.8439  0.2085
33425SOL    HW2 2655   0.049   1.422   0.544  0.4179  0.4224 -1.2302
33426SOL     OW 2656   1.304   5.511   4.089 -0.2129  0.3556 -0.1873
33426SOL    HW1 2657   1.295   5.511   3.993  0.3047 -0.1336 -0.2424
33426SOL    HW2 2658   1.295   5.419   4.113 -0.4216  0.4898  0.2501
33427SOL     OW 2659   9.803   7.082   6.058  0.5351  0.4191  0.3083
33427SOL    HW1 2660   9.807   7.028   5.979 -0.4942 -0.1053  0.5918
33427SOL    HW2 2661   9.894   7.089   6.087  0.6419 -1.8969  0.7305
33428SOL     OW 2662   4.879   6.011   3.293  0.2780  0.6331 -0.3501
33428SOL    HW1 2663   4.885   5.939   3.356  1.4599  1.3196  0.3771
33428SOL    HW2 2664   4.788   6.012   3.266 -0.4513  0.7467  1.9283
33429SOL     OW 2665   7.551   8.134   6.647  0.1081  0.1537  0.1554
33429SOL    HW1 2666   7.570   8.154   6.555 -1.0431 -1.5024 -0.4962
33429SOL    HW2 2667   7.464   8.172   6.662  0.9585  1.8159  1.0738
33430SOL     OW 2668   3.517   0.620   3.168  0.1309 -0.2350  0.4197
33430SOL    HW1 2669   3.468   0.538   3.170  1.3452 -0.9664  0.8702
33430SOL    HW2 2670   3.537   0.634   3.075 -0.8707  0.0548  0.2342
33431SOL     OW 2671   8.156   9.994   3.369 -0.4970  0.9688 -0.3910
33431SOL    HW1 2672   8.118   9.995   3.457  0.6964  0.7946  0.1482
33431SOL    HW2 2673   8.213   9.916   3.369  1.6686  2.4548 -0.3424
33432SOL     OW 2674   8.593   0.572   0.545 -0.4374  0.2436  0.1211
33432SOL    HW1 2675   8.637   0.492   0.573 -0.5694 -0.3719 -1.3203
33432SOL    HW2 2676   8.518   0.541   0.494  0.0429  1.2671 -1.2765
33433SOL     OW 2677   1.538   8.603  10.200  0.3771 -0.3644 -0.1263
33433SOL    HW1 2678   1.471   8.549  10.242  0.3870 -0.2264  0.0669
33433SOL    HW2 2679   1.621   8.567  10.232  0.3964  1.7667  2.6215
33434SOL     OW 2680   9.998   0.428   8.978 -0.6095 -0.5902 -0.0240
33434SOL    HW1 2681  10.091   0.406   8.974 -0.1688  1.2343 -0.6310
33434SOL    HW2 2682   9.961   0.395   8.896 -0.0254  0.6188 -0.7915
33435SOL     OW 2683   8.692   5.123   4.548  0.1027 -0.0516 -0.0170
33435SOL    HW1 2684   8.708   5.154   4.637 -0.2907 -0.6224  0.2555
33435SOL    HW2 2685   8.636   5.191   4.509  0.3732  0.2568  0.1290
33436SOL     OW 2686   6.319   3.372   9.981  0.2678  0.5325  0.0919
33436SOL    HW1 2687   6.407   3.409   9.979  0.1526  0.8120 -2.2322
33436SOL    HW2 2688   6.325   3.292   9.928 -0.8330  0.4762  0.0235
33437SOL     OW 2689   7.257   0.001   1.779  0.3302  0.1049 -0.1091
33437SOL    HW1 2690   7.264   0.042   1.692  2.3871 -0.5240 -0.2914
33437SOL    HW2 2691   7.333  -0.056   1.784  0.1143 -0.0525  2.0436
33438SOL     OW 2692   3.749   1.391   0.097 -0.0949  0.2650 -0.8142
33438SOL    HW1 2693   3.695   1.365   0.022  1.7896 -0.7579 -1.8742
33438SOL    HW2 2694   3.805   1.461   0.063 -0.7174  1.3212  0.2730
33439SOL     OW 2695   4.964   0.626   6.613  0.4016  0.9213  0.4778
33439SOL    HW1 2696   5.015   0.551   6.644 -0.7414  1.0747  2.9272
33439SOL    HW2 2697   4.999   0.644   6.526  2.3510 -0.9383  0.7937
33440SOL     OW 2698   1.955   3.963   6.442 -0.3518  0.6251  0.2828
33440SOL    HW1 2699   1.960   3.890   6.503  1.5566  1.1027  0.7852
33440SOL    HW2 2700   1.871   4.005   6.461 -1.0587 -0.8762  0.6105
33441SOL     OW 2701   1.859   0.936   2.923  0.5665  0.6623 -0.1613
33441SOL    HW1 2702   1.930   0.880   2.893 -0.2897 -0.8965  0.5968
33441SOL    HW2 2703   1.792   0.929   2.855  0.4613  0.7959 -0.0732
33442SOL     OW 2704  10.331   4.763   9.801  0.3043 -0.0204 -0.0132
33442SOL    HW1 2705  10.265   4.707   9.760  1.0363  0.0219 -1.2812
33442SOL    HW2 2706  10.405   4.763   9.740  0.5798  1.7988  0.2553
33443SOL     OW 2707   4.161   7.996   6.088 -0.2217 -0.1658  0.0848
33443SOL    HW1 2708   4.189   7.927   6.149  1.5392  2.1956  2.1401
33443SOL    HW2 2709   4.230   7.998   6.022  0.5542  0.5981  0.8927
33444SOL     OW 2710   2.616   5.517   4.684  0.3046  0.2077  0.0539
33444SOL    HW1 2711   2.545   5.507   4.748 -0.9894 -3.7923 -1.6821
33444SOL    HW2 2712   2.578   5.573   4.615 -0.1903  0.2670  0.3658
33445SOL     OW 2713   1.859   3.598   7.545  0.2678  0.4507 -0.3513
33445SOL    HW1 2714   1.933   3.658   7.555 -0.3763  0.8775  2.6786
33445SOL    HW2 2715   1.899   3.512   7.531  1.2878  0.8792 -0.1603
33446SOL     OW 2716   1.750   6.421   5.762 -0.1214  0.3683 -0.1787
33446SOL    HW1 2717   1.662   6.459   5.758  0.3272  1.5170  0.3279
33446SOL    HW2 2718   1.791   6.445   5.679  0.2678  1.3257  0.2656
33447SOL     OW 2719   0.230   9.525   4.355 -0.0434  0.2515 -0.5859
33447SOL    HW1 2720   0.236   9.613   4.392  0.1334  0.2376 -0.5812
33447SOL    HW2 2721   0.148   9.525   4.306 -0.2459  0.2939 -0.2533
33448SOL     OW 2722   8.968   7.246   7.506  0.6630  0.5996 -0.1003
33448SOL    HW1 2723   8.887   7.295   7.515  0.6308  0.3811  1.0042
33448SOL    HW2 2724   9.001   7.238   7.596  0.8831 -1.0279 -0.2908
33449SOL     OW 2725   3.721   6.622   2.538  0.3549  0.1005  0.1863
33449SOL    HW1 2726   3.752   6.542   2.495 -0.3962 -1.0262  1.6360
33449SOL    HW2 2727   3.649   6.653   2.483 -0.0164 -0.8140  0.1396
33450SOL     OW 2728   7.225   0.201   9.160  0.5096  0.2876 -0.4077
33450SOL    HW1 2729   7.216   0.289   9.124  0.0007  0.9279  1.1795
33450SOL    HW2 2730   7.300   0.164   9.115  0.3269  1.2873 -1.5833
33451SOL     OW 2731   3.987   5.674   0.169  0.4964  0.4918 -0.3553
33451SOL    HW1 2732   4.008   5.605   0.107 -0.3487  0.1746 -0.2938
33451SOL    HW2 2733   4.071   5.694   0.211  1.3826  1.6381 -2.4854
33452SOL     OW 2734   0.699   0.577   2.616 -0.6177 -0.0677  0.8143
33452SOL    HW1 2735   0.718   0.666   2.644  0.0262 -0.4489  1.6154
33452SOL    HW2 2736   0.768   0.524   2.655  0.0304 -0.7141 -1.0608
33453SOL     OW 2737   9.603   8.753   4.179 -0.3935  0.0625  0.3475
33453SOL    HW1 2738   9.607   8.799   4.095  0.6391  0.5463  0.6469
33453SOL    HW2 2739   9.607   8.661   4.156 -1.6134  0.1329 -0.2123
33454SOL     OW 2740   5.760   2.734   1.436 -0.5719  0.6312 -0.1613
33454SOL    HW1 2741   5.741   2.789   1.512  0.3284  0.7260  0.0065
33454SOL    HW2 2742   5.766   2.645   1.471  0.2208  0.7215 -0.0432
33455SOL     OW 2743   3.978   4.776  10.154  0.1230  0.1727  0.3988
33455SOL    HW1 2744   3.998   4.868  10.140  4.4712 -0.5927  0.0758
33455SOL    HW2 2745   3.889   4.764  10.119 -0.9217  4.2866  1.1987
33456SOL     OW 2746   4.583   9.439   9.544  0.1939  0.0387 -0.2100
33456SOL    HW1 2747   4.652   9.390   9.589  0.8210  2.0009  1.1120
33456SOL    HW2 2748   4.507   9.434   9.602  0.1041  0.2009 -0.3124
33457SOL     OW 2749   7.829   4.062   5.141  0.4985 -0.3991  0.0118
33457SOL    HW1 2750   7.763   4.052   5.072 -0.6380 -1.1205  1.1514
33457SOL    HW2 2751   7.802   4.140   5.189 -0.0717 -1.1827  1.0129
33458SOL     OW 2752   8.065   6.739   7.506 -0.3267  0.1690  0.2860
33458SOL    HW1 2753   7.991   6.790   7.539 -0.0728  0.3344  0.5920
33458SOL    HW2 2754   8.067   6.661   7.561  0.8473  1.0066  1.4715
33459SOL     OW 2755   2.043   0.229   5.443 -0.3353  0.1746  0.4184
33459SOL    HW1 2756   2.075   0.266   5.526 -0.1774 -1.5428  1.1723
33459SOL    HW2 2757   2.123   0.214   5.392 -0.3703  0.5423  0.2537
33460SOL     OW 2758   1.809   8.583   2.946 -0.1830  0.0982 -0.1632
33460SOL    HW1 2759   1.868   8.624   3.008 -0.0237 -0.5570  0.1263
33460SOL    HW2 2760   1.725   8.578   2.992 -0.0875 -0.3069 -0.0294
33461SOL     OW 2761   9.913   7.802   1.284 -0.0448  0.1952  0.4151
33461SOL    HW1 2762   9.914   7.863   1.357  1.0376 -1.0712  1.5112
33461SOL    HW2 2763   9.910   7.858   1.206 -1.1920  1.5709  1.4044
33462SOL     OW 2764   0.193   9.583   7.448 -0.3968  0.0528 -0.0834
33462SOL    HW1 2765   0.144   9.504   7.427 -1.2376  0.3848  0.5552
33462SOL    HW2 2766   0.138   9.629   7.511  0.8341  0.3600  0.8042
33463SOL     OW 2767   2.774   7.590   4.901  0.6031 -0.5737 -0.1962
33463SOL    HW1 2768   2.818   7.514   4.864  0.2593 -0.2442 -1.3110
33463SOL    HW2 2769   2.836   7.625   4.965  0.6613 -1.9170  0.5126
33464SOL     OW 2770   0.239   8.451   6.931  0.0456  0.3041  0.3070
33464SOL    HW1 2771   0.173   8.449   6.862 -1.6618  1.0543  1.8296
33464SOL    HW2 2772   0.322   8.455   6.885 -0.9420 -0.8154 -1.6999
33465SOL     OW 2773   6.789   9.613   1.634 -0.5065  0.3011  0.3217
33465SOL    HW1 2774   6.772   9.706   1.618  0.4415  0.5857  0.8830
33465SOL    HW2 2775   6.760   9.599   1.724 -0.8363 -0.0011  0.1701
33466SOL     OW 2776   6.566   3.722   2.291 -0.0886 -0.3696 -0.2403
33466SOL    HW1 2777   6.578   3.665   2.215  0.3836 -0.7969  0.1574
33466SOL    HW2 2778   6.560   3.810   2.253  0.2851 -0.5623 -0.7618
33467SOL     OW 2779   4.068   5.513   0.004  0.3135  0.3933  0.0946
33467SOL    HW1 2780   4.013   5.453  -0.046 -0.6711  1.2879  0.0745
33467SOL    HW2 2781   4.155   5.504  -0.035 -0.2613  0.4663 -1.2249
33468SOL     OW 2782   8.038   2.828   4.903 -0.2909  0.0348  0.2239
33468SOL    HW1 2783   8.085   2.904   4.870 -2.8191  1.7273  0.2125
33468SOL    HW2 2784   7.993   2.792   4.826 -1.4531  0.3724  0.7153
33469SOL     OW 2785  10.689   8.663   1.458 -0.2630 -0.3592  0.4362
33469SOL    HW1 2786  10.713   8.680   1.367 -0.4243  1.0950  0.6410
33469SOL    HW2 2787  10.648   8.577   1.457 -3.5163  1.0700 -1.4959
33470SOL     OW 2788   5.763   3.421  10.355 -0.1797  0.4085 -0.5957
33470SOL    HW1 2789   5.703   3.496  10.351 -0.9671 -0.2627 -1.9941
33470SOL    HW2 2790   5.822   3.442  10.428 -2.0557  1.1103  0.8030
33471SOL     OW 2791   1.706   7.069   7.966  0.2916 -0.5074 -0.5404
33471SOL    HW1 2792   1.658   7.002   8.015  1.4004 -0.3777  0.7892
33471SOL    HW2 2793   1.659   7.076   7.883 -1.0065 -1.5250  0.0660
33472SOL     OW 2794   2.645   7.304   8.362 -0.1113 -0.3463  0.7499
33472SOL    HW1 2795   2.586   7.314   8.437 -0.7335  1.7975  0.0557
33472SOL    HW2 2796   2.704   7.379   8.369 -0.3400  0.0401 -1.0272
33473SOL     OW 2797   3.153   5.062   0.322  0.0412 -0.6413 -0.1785
33473SOL    HW1 2798   3.076   5.084   0.375  0.1174 -0.9036  0.0456
33473SOL    HW2 2799   3.139   4.971   0.296  0.5874 -0.9131  0.4251
33474SOL     OW 2800   8.517   9.953   2.648 -0.1372 -0.2959 -0.0485
33474SOL    HW1 2801   8.466  10.013   2.704  0.0657  0.2999 -0.4915
33474SOL    HW2 2802   8.508   9.990   2.560  0.9729 -0.2421 -0.1511
33475SOL     OW 2803   2.749   0.364   9.924 -0.3469  0.0033  0.3962
33475SOL    HW1 2804   2.677   0.427   9.922  1.4104  2.1552  0.9507
33475SOL    HW2 2805   2.797   0.380   9.843  0.4976 -0.1039  0.8571
33476SOL     OW 2806   5.471   6.541   4.878 -0.1765  0.4553  0.0486
33476SOL    HW1 2807   5.546   6.588   4.917  1.4287 -1.8182 -0.1018
33476SOL    HW2 2808   5.457   6.584   4.794  0.5653  1.2914  0.3299
33477SOL     OW 2809   7.027   5.811  10.413  0.6439 -0.2078  0.0935
33477SOL    HW1 2810   7.008   5.767  10.495  0.7146  1.0474  0.8047
33477SOL    HW2 2811   7.120   5.833  10.418  0.5041  0.4531 -0.0140
33478SOL     OW 2812   6.672   0.272   3.583  0.8742 -0.9984 -0.1023
33478SOL    HW1 2813   6.692   0.328   3.658 -1.0470 -0.7571  0.2830
33478SOL    HW2 2814   6.597   0.220   3.612 -1.9654  1.2294 -2.8137
33479SOL     OW 2815   1.972   4.655   3.939 -0.0094 -0.8727  0.4018
33479SOL    HW1 2816   2.021   4.723   3.986  1.4434 -0.8203 -1.1005
33479SOL    HW2 2817   1.881   4.680   3.950  0.3193 -0.4151  2.4674
33480SOL     OW 2818   6.090   6.186   9.650 -0.2918 -0.1460  0.3725
33480SOL    HW1 2819   6.067   6.259   9.591 -2.0128 -0.6152  0.4220
33480SOL    HW2 2820   6.101   6.227   9.736  0.1681  0.2418  0.1357
33481SOL     OW 2821   5.010   0.625   6.337  0.5960  0.0448  0.3434
33481SOL    HW1 2822   4.966   0.541   6.324 -1.8243  1.1242  1.0281
33481SOL    HW2 2823   5.030   0.656   6.249  0.5973 -0.7863  0.0456
33482SOL     OW 2824   8.009   4.339   4.346  0.5946 -0.6682  0.4559
33482SOL    HW1 2825   8.060   4.339   4.265 -1.3398  0.8813 -0.8630
33482SOL    HW2 2826   7.985   4.431   4.360 -3.8159 -1.4618 -0.4210
33483SOL     OW 2827   4.623   4.594   4.042 -0.2126  0.3603 -0.1352
33483SOL    HW1 2828   4.540   4.631   4.072 -0.1622 -0.2363  0.7823
33483SOL    HW2 2829   4.614   4.500   4.058 -0.3194 -0.0648 -2.3567
33484SOL     OW 2830   1.214   9.927   8.322 -0.4842 -0.1688 -0.0733
33484SOL    HW1 2831   1.217   9.857   8.388 -1.2904 -0.5859 -0.4623
33484SOL    HW2 2832   1.206  10.008   8.374 -1.1459 -0.4941  0.3530
33485SOL     OW 2833   3.719   9.233   7.919 -0.4326 -0.2720  0.1323
33485SOL    HW1 2834   3.756   9.321   7.915 -1.8692  0.3616  0.2658
33485SOL    HW2 2835   3.787   9.180   7.960 -0.2485  1.1623  1.7739
33486SOL     OW 2836   6.955   4.061   8.984 -0.5195 -0.5710 -0.0007
33486SOL    HW1 2837   6.984   4.008   8.910  1.7763  1.1262 -0.4374
33486SOL    HW2 2838   6.997   4.021   9.060 -0.2034 -0.4322 -0.0970
33487SOL     OW 2839   6.275   7.433   7.507 -0.1940  0.2854 -0.2372
33487SOL    HW1 2840   6.330   7.357   7.491  0.0232  0.8426 -2.3376
33487SOL    HW2 2841   6.328   7.490   7.563 -0.3176 -1.0081  1.2541
33488SOL     OW 2842   0.857   9.131   2.917 -0.2481  0.1872  0.0480
33488SOL    HW1 2843   0.837   9.043   2.949  1.9902 -1.2316 -2.1334
33488SOL    HW2 2844   0.872   9.120   2.824 -2.5055  3.4209 -0.8836
33489SOL     OW 2845   8.508   1.893   1.058 -0.4828  0.4395 -0.6517
33489SOL    HW1 2846   8.484   1.802   1.077  1.6628  0.0020  0.3492
33489SOL    HW2 2847   8.564   1.886   0.980  0.9039  0.6681  0.2861
33490SOL     OW 2848  10.162   2.781  10.273 -0.5136  0.0521  0.2948
33490SOL    HW1 2849  10.177   2.737  10.189  1.3298  0.9363  0.1170
33490SOL    HW2 2850  10.106   2.720  10.321  0.8011 -1.8995 -0.4677
33491SOL     OW 2851  10.085   4.102   0.215 -0.2380 -0.6188 -0.2037
33491SOL    HW1 2852  10.142   4.091   0.291  0.1106  1.2413 -0.1447
33491SOL    HW2 2853  10.138   4.073   0.141 -0.3856 -1.9253  0.1859
33492SOL     OW 2854   6.225   3.727   0.978 -0.2917  0.7201  0.0863
33492SOL    HW1 2855   6.268   3.644   0.956  0.4804  0.7332  1.4518
33492SOL    HW2 2856   6.261   3.790   0.914  1.7216  0.7112  1.1137
33493SOL     OW 2857   4.229   2.874   6.450  0.2335 -0.1964  1.1398
33493SOL    HW1 2858   4.159   2.811   6.434 -0.0199  0.5861 -1.1324
33493SOL    HW2 2859   4.192   2.958   6.424  1.4265  0.5095  1.6435
33494SOL     OW 2860   2.181   9.866   8.369  0.4300 -0.1480  0.0331
33494SOL    HW1 2861   2.246   9.915   8.319  3.0411 -2.0091  1.3774
33494SOL    HW2 2862   2.130   9.820   8.303  0.3018  1.4838 -1.0717
33495SOL     OW 2863   7.716   7.290  10.167  0.5368 -0.0271  0.1719
33495SOL    HW1 2864   7.658   7.256  10.099 -0.1744  0.9435  0.2635
33495SOL    HW2 2865   7.692   7.383  10.174  0.8756 -0.0220  1.4691
33496SOL     OW 2866   8.069   9.107   3.497  0.4649  0.0393 -0.1482
33496SOL    HW1 2867   8.145   9.065   3.457 -0.5403 -1.0776 -0.9328
33496SOL    HW2 2868   8.041   9.172   3.433 -0.5559 -1.0830 -0.8877
33497SOL     OW 2869   7.217   3.754   3.088 -0.1651  0.7489  0.3220
33497SOL    HW1 2870   7.301   3.782   3.052 -0.6707  1.0882 -0.6324
33497SOL    HW2 2871   7.235   3.735   3.180  0.7952  1.5361  0.3115
33498SOL     OW 2872  10.167   6.682   7.417 -0.3782 -0.2960 -0.6665
33498SOL    HW1 2873  10.206   6.676   7.505  0.5288 -0.9793 -1.0985
33498SOL    HW2 2874  10.076   6.655   7.430  0.0903 -1.7572 -0.1498
33499SOL     OW 2875   7.049   1.801   5.966 -0.1889 -0.3425 -0.0864
33499SOL    HW1 2876   7.059   1.875   6.027 -0.2075 -0.2957 -0.1399
33499SOL    HW2 2877   7.013   1.730   6.020  0.5112 -0.5381  0.1244
33500SOL     OW 2878   4.230   4.023   8.269  0.3077  0.0365 -0.1831
33500SOL    HW1 2879   4.153   3.966   8.270 -0.3307  0.8777  1.2323
33500SOL    HW2 2880   4.194   4.111   8.272  1.3195  0.4693 -0.5378
33501SOL     OW 2881   8.910   8.161  10.521 -0.0896  0.5826 -0.5496
33501SOL    HW1 2882   8.962   8.207  10.455 -0.3565  0.2465 -0.9936
33501SOL    HW2 2883   8.974   8.131  10.586  0.3666 -0.4971 -1.4849
33502SOL     OW 2884  10.349  10.463   9.633 -0.4928 -0.4022 -0.0811
33502SOL    HW1 2885  10.299  10.387   9.604  1.7899 -1.8152 -0.5611
33502SOL    HW2 2886  10.332  10.467   9.728 -1.2672 -1.0000 -0.1792
33503SOL     OW 2887  10.552   7.276   7.710 -0.8365  0.0013 -0.2377
33503SOL    HW1 2888  10.630   7.244   7.664  0.4921  0.9110  1.2952
33503SOL    HW2 2889  10.530   7.207   7.771 -1.0833 -0.1409 -0.4848
33504SOL     OW 2890   2.130   6.007   3.000 -0.4265  0.2107  0.0361
33504SOL    HW1 2891   2.098   5.987   2.912  0.1929 -0.2219 -0.0994
33504SOL    HW2 2892   2.165   6.096   2.994 -0.6818  0.3030 -0.0725
33505SOL     OW 2893   5.185   4.479   2.497  0.0555  0.6439 -0.1527
33505SOL    HW1 2894   5.151   4.568   2.505 -0.3834  0.3495  1.6191
33505SOL    HW2 2895   5.280   4.489   2.502  0.0045  1.0061  0.1016
33506SOL     OW 2896   3.686   4.946   9.279 -0.4527 -0.3073 -0.3124
33506SOL    HW1 2897   3.771   4.952   9.235  0.1161 -1.6355  0.5442
33506SOL    HW2 2898   3.623   4.969   9.211  0.5566  0.3389 -1.0653
33507SOL     OW 2899   4.677   7.539   7.490  0.4188 -0.0826 -0.5416
33507SOL    HW1 2900   4.604   7.496   7.446  0.0466  0.0635 -0.0656
33507SOL    HW2 2901   4.673   7.630   7.460 -1.0206  0.5018  1.2633
33508SOL     OW 2902   8.486   5.368   3.904 -0.2854 -0.0996 -0.3357
33508SOL    HW1 2903   8.476   5.370   3.809  0.7194  0.4125 -0.4396
33508SOL    HW2 2904   8.542   5.443   3.924 -1.4605  0.5111  0.7894
33509SOL     OW 2905   9.777   3.421  10.242 -0.6562  0.1776 -0.0593
33509SOL    HW1 2906   9.857   3.474  10.249 -0.7455  0.3469 -0.3402
33509SOL    HW2 2907   9.756   3.421  10.149 -0.2567 -0.9409 -0.1702
33510SOL     OW 2908   5.169   2.367   4.392 -0.4350  0.3727 -0.0381
33510SOL    HW1 2909   5.232   2.379   4.463  0.2252 -1.5133 -0.2564
33510SOL    HW2 2910   5.150   2.456   4.362  2.0844  1.0179  0.0830
33511SOL     OW 2911   4.126   0.629   8.525  0.4499  0.1409  0.5011
33511SOL    HW1 2912   4.213   0.653   8.556 -0.0355  1.0910  1.1645
33511SOL    HW2 2913   4.074   0.709   8.534 -0.6362 -0.5582  0.6640
33512SOL     OW 2914   6.350   7.765   0.053 -0.5609 -0.2532 -0.0743
33512SOL    HW1 2915   6.369   7.856   0.072 -0.7552 -0.0446 -0.8592
33512SOL    HW2 2916   6.341   7.761  -0.042  0.9859 -1.3783 -0.2080
33513SOL     OW 2917   4.192   1.390   4.554  0.2590 -0.7407  0.2673
33513SOL    HW1 2918   4.115   1.432   4.516 -0.0982 -2.4199 -0.9968
33513SOL    HW2 2919   4.250   1.374   4.479  1.4845 -0.2588  1.0797
33514SOL     OW 2920   8.460   1.783   5.036  0.5931 -0.0853 -0.0164
33514SOL    HW1 2921   8.523   1.711   5.025  0.4899 -0.0525 -0.9126
33514SOL    HW2 2922   8.436   1.779   5.128  0.3171 -1.4450 -0.1247
33515SOL     OW 2923   3.035   0.330   4.130  0.1257 -0.7011 -0.2071
33515SOL    HW1 2924   2.948   0.364   4.149  0.6788  0.4751  0.3240
33515SOL    HW2 2925   3.094   0.385   4.182  1.1995 -1.3497 -0.7077
33516SOL     OW 2926   8.065   1.916   4.824 -0.1013  0.1567 -0.4789
33516SOL    HW1 2927   8.148   1.869   4.826  0.2247  0.7344 -0.2144
33516SOL    HW2 2928   8.045   1.932   4.916 -0.6325 -0.1881 -0.5270
33517SOL     OW 2929   0.102   8.763   0.896 -0.0706  0.0989  0.3867
33517SOL    HW1 2930   0.116   8.678   0.936  1.0595 -0.3004 -0.7636
33517SOL    HW2 2931   0.012   8.787   0.918 -0.7752 -1.8798 -0.1512
33518SOL     OW 2932   0.800   7.150   9.677  0.2229  0.2579  0.3935
33518SOL    HW1 2933   0.815   7.239   9.708 -2.8672  1.5688 -1.4213
33518SOL    HW2 2934   0.739   7.112   9.740 -0.9966  0.6319 -0.5282
33519SOL     OW 2935   1.276  10.307   6.305 -0.0582  0.3387  0.0205
33519SOL    HW1 2936   1.270  10.235   6.369 -0.4054  0.1382 -0.2294
33519SOL    HW2 2937   1.192  10.353   6.314 -0.4306 -0.1472 -0.8142
33520SOL     OW 2938   8.257   8.292   0.839 -0.0163  0.3841 -0.4205
33520SOL    HW1 2939   8.288   8.338   0.917  0.4667 -1.2993  0.4082
33520SOL    HW2 2940   8.168   8.265   0.861  0.1451 -0.1530 -0.4086
33521SOL     OW 2941   1.884   1.970   5.541 -0.7849 -0.4206  0.0880
33521SOL    HW1 2942   1.894   2.041   5.478 -0.0910 -1.5655 -1.1700
33521SOL    HW2 2943   1.798   1.933   5.523 -0.4537 -0.9603 -0.4738
33522SOL     OW 2944  10.473   4.066   8.487  0.1167  0.6311  0.5864
33522SOL    HW1 2945  10.377   4.065   8.480  0.1807 -0.0124 -0.4056
33522SOL    HW2 2946  10.490   4.082   8.580 -0.9570 -0.2047  0.9470
33523SOL     OW 2947   6.964   2.395   0.940 -0.1685  0.9778 -0.6867
33523SOL    HW1 2948   6.902   2.359   0.876 -0.7429  0.6223  0.0514
33523SOL    HW2 2949   7.046   2.350   0.922 -0.4592  0.5026 -0.8406
33524SOL     OW 2950   2.851   4.181   2.272 -0.2707  0.0957 -0.2911
33524SOL    HW1 2951   2.757   4.193   2.283 -0.2736 -1.1497  1.4725
33524SOL    HW2 2952   2.889   4.259   2.313 -0.5040  0.4697 -0.7675
33525SOL     OW 2953   8.939  10.743   5.418  0.2056 -0.4601  0.5832
33525SOL    HW1 2954   8.871  10.746   5.351 -0.4672  0.0593  1.2742
33525SOL    HW2 2955   9.019  10.768   5.372 -0.4233  0.9241  0.1852
33526SOL     OW 2956   7.253   8.238   2.817 -0.7113  0.8297 -0.3985
33526SOL    HW1 2957   7.186   8.290   2.860 -2.4889  0.1623 -2.1686
33526SOL    HW2 2958   7.293   8.297   2.753  0.0747  1.0848  0.3099
33527SOL     OW 2959   2.047  10.003   7.239  0.2220 -0.7271  0.9356
33527SOL    HW1 2960   2.012   9.934   7.182  0.0796 -0.2320  0.4154
33527SOL    HW2 2961   2.020  10.085   7.197  2.1216 -0.3209  0.4158
33528SOL     OW 2962   7.730   5.593   8.480 -0.2490  0.4829 -0.2975
33528SOL    HW1 2963   7.763   5.644   8.554 -2.9127  0.8266  0.7558
33528SOL    HW2 2964   7.675   5.526   8.520  0.5057 -1.1637 -1.8558
33529SOL     OW 2965   2.161   0.197   0.008 -0.4340  0.4569  0.0346
33529SOL    HW1 2966   2.241   0.236   0.043 -0.3181  1.6384 -1.4408
33529SOL    HW2 2967   2.140   0.127   0.070  2.1677 -0.4338  0.0486
33530SOL     OW 2968   9.460   0.222   3.666  0.1689  0.4009 -0.5844
33530SOL    HW1 2969   9.520   0.160   3.624  0.3389 -0.2646  0.5947
33530SOL    HW2 2970   9.508   0.305   3.667  1.0449 -0.0923  0.2231
33531SOL     OW 2971   3.450   2.574   2.741  0.5225  0.1739 -0.0575
33531SOL    HW1 2972   3.364   2.617   2.740  0.2485  0.1704  4.4099
33531SOL    HW2 2973   3.489   2.597   2.657 -3.5639  0.6220 -2.0979
33532SOL     OW 2974   9.769   0.588   2.673  0.3422  0.5451  0.2514
33532SOL    HW1 2975   9.729   0.630   2.597  0.7228  1.9715  0.8124
33532SOL    HW2 2976   9.695   0.554   2.724  0.0793 -0.2973 -0.6599
33533SOL     OW 2977   3.770   5.557   9.801 -0.4856 -0.9231  0.1287
33533SOL    HW1 2978   3.687   5.585   9.761  0.3457 -0.9961 -1.7840
33533SOL    HW2 2979   3.837   5.604   9.751  0.7070 -2.3332  0.3440
33534SOL     OW 2980   8.449   7.127  10.604  0.2911 -0.7702  0.2574
33534SOL    HW1 2981   8.529   7.138  10.553  0.9702 -2.6403  0.8514
33534SOL    HW2 2982   8.381   7.109  10.539  0.7956 -1.3689 -0.1132
33535SOL     OW 2983  10.327   7.098   3.811  0.3759  0.3178  0.1131
33535SOL    HW1 2984  10.256   7.039   3.836  0.5171 -0.6049 -1.5228
33535SOL    HW2 2985  10.406   7.057   3.847  0.2420  0.5771  0.7010
33536SOL     OW 2986   9.946   2.749   6.429 -0.0717 -0.4783  0.4164
33536SOL    HW1 2987  10.000   2.671   6.441  0.5659 -0.0527  0.3482
33536SOL    HW2 2988   9.972   2.808   6.500  0.2242  0.0969 -0.1585
33537SOL     OW 2989   0.213   2.665  10.435 -0.1021  0.1689  0.2228
33537SOL    HW1 2990   0.212   2.749  10.388  0.7094  0.1829  0.2259
33537SOL    HW2 2991   0.179   2.602  10.372  1.7367  0.0407 -0.6909
33538SOL     OW 2992   5.003  10.766   7.502  0.6255 -0.0423  0.0012
33538SOL    HW1 2993   5.087  10.777   7.457 -0.0946  2.5180 -0.8849
33538SOL    HW2 2994   4.937  10.778   7.434 -0.4682  1.1140  1.2057
33539SOL     OW 2995   2.460  10.452   7.173 -0.2809 -0.2223  0.0950
33539SOL    HW1 2996   2.454  10.545   7.152  2.2868 -0.1969 -0.8190
33539SOL    HW2 2997   2.424  10.446   7.262  1.1083  1.9543  0.8953
33540SOL     OW 2998   7.653  10.408   3.418  0.1118  0.5632 -0.1382
33540SOL    HW1 2999   7.595  10.342   3.456 -1.5871  0.3986 -2.7228
33540SOL    HW2 3000   7.694  10.364   3.343  0.8006  1.7597 -0.4966
33541SOL     OW 3001  10.431   6.813   1.812 -0.3738 -0.4283  0.2205
33541SOL    HW1 3002  10.421   6.830   1.719 -1.1179  0.2297  0.4089
33541SOL    HW2 3003  10.523   6.833   1.831 -0.0135 -1.3425 -0.5165
33542SOL     OW 3004   6.206   7.196   1.458  0.7709 -0.2826 -0.0658
33542SOL    HW1 3005   6.288   7.225   1.418 -0.1126 -0.2161 -1.8998
33542SOL    HW2 3006   6.189   7.262   1.526  1.8247  0.1376 -0.1752
33543SOL     OW 3007   3.509   6.785   1.154 -0.2939  0.5884  0.3070
33543SOL    HW1 3008   3.482   6.770   1.063 -1.2312  2.2556  0.2632
33543SOL    HW2 3009   3.428   6.778   1.204 -0.3057  2.3910  0.6199
33544SOL     OW 3010   2.349   3.274   3.149  0.2216  0.5229  0.5791
33544SOL    HW1 3011   2.280   3.207   3.145 -1.8284  2.5577  0.2300
33544SOL    HW2 3012   2.401   3.259   3.070 -1.2364  0.3559 -0.3880
33545SOL     OW 3013   7.443   0.971   1.150  0.4540 -0.0794 -0.2844
33545SOL    HW1 3014   7.477   0.940   1.066 -0.0116 -0.0157 -0.4984
33545SOL    HW2 3015   7.385   0.900   1.180 -0.2562  0.3776 -0.5563
33546SOL     OW 3016   1.627   2.944   8.447 -0.2024  0.1102  0.2969
33546SOL    HW1 3017   1.683   2.909   8.377  0.3107  0.7935  0.3566
33546SOL    HW2 3018   1.615   2.871   8.507 -1.9032 -0.9483 -1.2566
33547SOL     OW 3019   4.207   9.572   9.799  0.1481  0.3751  0.2479
33547SOL    HW1 3020   4.283   9.593   9.744  0.1511 -0.9810 -0.2896
33547SOL    HW2 3021   4.142   9.537   9.738 -0.8461  1.3229  0.7388
33548SOL     OW 3022   6.585   1.364   4.308 -0.1687 -0.0559 -0.2149
33548SOL    HW1 3023   6.555   1.288   4.258 -0.3658  0.9970 -1.7821
33548SOL    HW2 3024   6.509   1.422   4.311 -0.0333  0.0796  0.9955
33549SOL     OW 3025   7.171   4.721  10.084  0.2571  0.4271  0.1176
33549SOL    HW1 3026   7.099   4.761  10.035 -0.9652  1.0936  2.3121
33549SOL    HW2 3027   7.238   4.790  10.088 -0.5439  1.1806  1.1927
33550SOL     OW 3028   7.964   5.535   0.733 -0.8941 -0.5253 -0.0069
33550SOL    HW1 3029   7.900   5.562   0.799 -0.3542 -0.6405  0.5723
33550SOL    HW2 3030   8.038   5.593   0.747  0.3382 -2.2935  1.3288
33551SOL     OW 3031   0.232   9.596   0.373 -0.4095 -0.8784  0.5150
33551SOL    HW1 3032   0.209   9.596   0.466  0.1088 -2.1509  0.6749
33551SOL    HW2 3033   0.187   9.671   0.336  0.7095  0.6575  2.1172
33552SOL     OW 3034   0.124   8.721   3.880 -0.3719  0.5483 -0.5328
33552SOL    HW1 3035   0.042   8.732   3.832 -1.7202 -1.8323  1.0540
33552SOL    HW2 3036   0.167   8.647   3.838 -0.6426 -0.3145  0.6580
33553SOL     OW 3037  10.474   3.208   6.541 -0.0090  0.3907 -0.1584
33553SOL    HW1 3038  10.507   3.235   6.626 -1.0948 -0.6875  0.6520
33553SOL    HW2 3039  10.379   3.219   6.548 -0.1967 -0.5642 -0.8906
33554SOL     OW 3040   9.354   6.640   9.454  0.2755 -0.2512 -0.0881
33554SOL    HW1 3041   9.319   6.699   9.522  2.7531 -1.1146  2.0868
33554SOL    HW2 3042   9.312   6.556   9.472  0.4189 -0.3148 -0.0491
33555SOL     OW 3043   0.171   4.830   9.635 -0.3266  0.3342 -0.0720
33555SOL    HW1 3044   0.131   4.893   9.575  0.4526  1.0869  0.1713
33555SOL    HW2 3045   0.200   4.758   9.578 -0.0106  0.8251 -0.5400
33556SOL     OW 3046   4.892   9.812   3.161 -0.7686 -0.2917 -0.3589
33556SOL    HW1 3047   4.800   9.811   3.187 -0.3714 -1.4342  1.1231
33556SOL    HW2 3048   4.914   9.905   3.156 -2.0570  0.0096 -1.0467
33557SOL     OW 3049   5.283   2.230   7.421  0.4636 -0.1375 -0.2297
33557SOL    HW1 3050   5.305   2.275   7.503 -1.5839  0.8364 -0.1690
33557SOL    HW2 3051   5.206   2.275   7.388  0.7117 -1.0878 -2.2704
33558SOL     OW 3052   0.600   2.558   5.592  0.0867 -0.4856 -0.1805
33558SOL    HW1 3053   0.628   2.578   5.502 -1.4519 -0.8679 -0.7777
33558SOL    HW2 3054   0.629   2.632   5.644  1.7932 -0.6706 -0.8212
33559SOL     OW 3055   2.860   5.420   9.181 -0.0894  0.1846  0.2215
33559SOL    HW1 3056   2.952   5.443   9.198 -0.1774 -0.0016  0.9968
33559SOL    HW2 3057   2.865   5.345   9.122  0.2082  1.7720 -1.8828
33560SOL     OW 3058   3.679   8.506   8.892  0.4191  0.0401 -0.4095
33560SOL    HW1 3059   3.739   8.536   8.824  0.7898  0.0256 -0.0938
33560SOL    HW2 3060   3.626   8.439   8.849  1.0683 -0.4142 -0.5261
33561SOL     OW 3061   5.533   0.309   1.719  0.0288  0.8956 -0.1185
33561SOL    HW1 3062   5.509   0.271   1.634  0.0451 -0.7087  0.5573
33561SOL    HW2 3063   5.468   0.274   1.780 -1.0503  3.3946  0.2978
33562SOL     OW 3064   5.123   1.047   4.621 -0.2573 -0.1285  0.3209
33562SOL    HW1 3065   5.093   0.991   4.549  0.6477 -0.6648  0.3536
33562SOL    HW2 3066   5.203   1.088   4.588 -0.8813  1.1510  0.3085
33563SOL     OW 3067   0.510   6.347   4.749 -0.0286 -0.2671  0.0941
33563SOL    HW1 3068   0.562   6.330   4.827 -0.2672 -0.4444  0.2154
33563SOL    HW2 3069   0.574   6.344   4.677  0.0053 -1.3337  0.1441
33564SOL     OW 3070   0.200   1.347   9.465  0.2693 -0.6449  0.5187
33564SOL    HW1 3071   0.111   1.313   9.478 -1.2311  2.1165 -1.4065
33564SOL    HW2 3072   0.194   1.439   9.492  1.9370  0.1961 -1.7249
33565SOL     OW 3073   9.350   7.040  10.420 -0.3308  0.5556 -0.5070
33565SOL    HW1 3074   9.378   7.131  10.423 -1.4221  0.8975  0.0325
33565SOL    HW2 3075   9.302   7.027  10.502  1.6378 -1.1375  0.4732
33566SOL     OW 3076   6.449   9.459  10.549 -0.2269 -0.6385  0.1116
33566SOL    HW1 3077   6.473   9.383  10.602  0.1031 -0.8696 -0.3557
33566SOL    HW2 3078   6.453   9.427  10.458  0.8607  0.1716 -0.1517
33567SOL     OW 3079   6.111   1.418   4.394 -0.4250 -0.0640 -0.0122
33567SOL    HW1 3080   6.162   1.434   4.474 -0.9438  0.8127  0.1637
33567SOL    HW2 3081   6.023   1.398   4.426 -0.5987  0.1382 -0.3553
33568SOL     OW 3082   8.365   4.945   4.435 -0.1015 -0.3074 -0.0886
33568SOL    HW1 3083   8.435   4.899   4.481  0.8043  0.3732 -0.7586
33568SOL    HW2 3084   8.378   4.923   4.343 -0.7272 -0.1237 -0.2234
33569SOL     OW 3085   2.752   4.431   0.409  0.5557  0.2775 -0.5351
33569SOL    HW1 3086   2.748   4.359   0.472 -1.2022  0.2763 -0.6016
33569SOL    HW2 3087   2.676   4.485   0.431  0.8937  1.1905 -1.5761
33570SOL     OW 3088   8.310   8.867   4.086  0.5996  0.0976  0.1108
33570SOL    HW1 3089   8.234   8.913   4.051 -1.0112 -2.7458 -0.4868
33570SOL    HW2 3090   8.341   8.814   4.013  0.1036 -2.4138  1.5919
33571SOL     OW 3091   5.143   5.372   0.377 -0.1847 -0.2520  0.1850
33571SOL    HW1 3092   5.083   5.335   0.441 -0.3774  0.9132  0.6965
33571SOL    HW2 3093   5.141   5.466   0.392 -0.2050  0.0620 -1.5038
33572SOL     OW 3094   9.236   3.037   9.696 -0.0281  0.3785 -0.4642
33572SOL    HW1 3095   9.243   3.109   9.759 -0.6277 -0.2428  0.3338
33572SOL    HW2 3096   9.221   2.960   9.750 -0.3166 -0.2041 -1.3644
33573SOL     OW 3097   0.026   1.735   0.342 -0.2024 -0.0144  0.0026
33573SOL    HW1 3098  -0.042   1.723   0.409  0.7929  1.5067  1.3689
33573SOL    HW2 3099   0.099   1.682   0.372  1.2806  2.7708  1.7694
33574SOL     OW 3100   5.165   4.027   6.828  0.2316  0.0383 -0.3238
33574SOL    HW1 3101   5.125   4.102   6.872  0.5194 -0.1703  0.3050
33574SOL    HW2 3102   5.091   3.981   6.789 -0.0779  0.0333  0.2474
33575SOL     OW 3103   3.738   6.514   9.960 -0.0080 -0.0225 -0.2701
33575SOL    HW1 3104   3.672   6.572   9.998 -0.1763  0.1817 -0.8692
33575SOL    HW2 3105   3.690   6.432   9.944 -0.1440  0.1494 -0.7736
33576SOL     OW 3106   0.525   0.220  10.063 -0.3394 -0.0315  1.0629
33576SOL    HW1 3107   0.481   0.140  10.091  0.0556 -1.1158 -1.1889
33576SOL    HW2 3108   0.604   0.223  10.116  0.7876 -2.4352 -0.2805
33577SOL     OW 3109  10.357   9.839   5.923 -0.0988  0.3002  0.3336
33577SOL    HW1 3110  10.414   9.876   5.990  0.0799  0.8602 -0.1138
33577SOL    HW2 3111  10.274   9.823   5.968  0.3966 -0.5062  0.9875
33578SOL     OW 3112   9.857   1.742   5.654 -0.4701  0.7393 -0.3334
33578SOL    HW1 3113   9.854   1.663   5.600 -0.6463  1.1644 -0.9640
33578SOL    HW2 3114   9.830   1.714   5.741  1.9154 -0.4136  0.1003
33579SOL     OW 3115   2.433  10.629   9.319 -0.2612 -0.7475  0.1678
33579SOL    HW1 3116   2.486  10.580   9.381  0.3213 -0.0193  0.2516
33579SOL    HW2 3117   2.495  10.682   9.269 -1.0014  1.7076  1.6509
33580SOL     OW 3118   8.728   8.975  10.342 -0.7664 -0.8524 -0.2145
33580SOL    HW1 3119   8.730   8.897  10.286 -1.1617 -1.9348  1.1932
33580SOL    HW2 3120   8.746   8.941  10.430 -0.4607  0.7349  0.3682
33581SOL     OW 3121   2.300   9.608   2.378  0.4890 -0.0863 -0.0739
33581SOL    HW1 3122   2.232   9.675   2.367  1.5988  1.6388  2.5566
33581SOL    HW2 3123   2.253   9.533   2.415 -0.0307  1.3173  2.3510
33582SOL     OW 3124   5.232   0.678  10.784 -0.9518 -0.1042  0.1531
33582SOL    HW1 3125   5.289   0.755  10.782 -0.0436 -0.7823 -1.4004
33582SOL    HW2 3126   5.151   0.710  10.825 -0.5801  1.6633 -0.3910
33583SOL     OW 3127   7.791   4.340   3.122 -0.4751 -0.5055 -0.1985
33583SOL    HW1 3128   7.861   4.284   3.092  1.2606  0.7308  1.2804
33583SOL    HW2 3129   7.810   4.426   3.083 -3.6456 -0.9794 -3.2782
33584SOL     OW 3130   9.474   3.513   0.750 -0.1131  0.8327 -0.5550
33584SOL    HW1 3131   9.522   3.432   0.736  0.1024  0.2328  2.7782
33584SOL    HW2 3132   9.382   3.488   0.746 -0.0487  0.5294 -0.2142
33585SOL     OW 3133   9.409   3.067   2.700 -0.7244 -0.1669 -0.2543
33585SOL    HW1 3134   9.422   3.157   2.729  0.4737 -0.7679  1.1617
33585SOL    HW2 3135   9.377   3.076   2.610  2.3886  1.6458 -1.3568
33586SOL     OW 3136   9.418   8.406   0.841  0.5633  0.0853 -0.2894
33586SOL    HW1 3137   9.498   8.459   0.846  1.5618 -1.4513  0.8021
33586SOL    HW2 3138   9.347   8.471   0.837  1.8671  1.4875 -2.2645
33587SOL     OW 3139   0.135   7.008   6.482 -0.2540  0.7572 -0.5932
33587SOL    HW1 3140   0.113   7.070   6.552 -1.8767 -0.5600  0.1193
33587SOL    HW2 3141   0.057   7.005   6.427 -1.7893 -3.2255  1.3861
33588SOL     OW 3142   3.228   6.959   0.974 -0.0826 -0.2100 -0.1264
33588SOL    HW1 3143   3.247   6.895   0.905 -0.4815 -0.2723 -0.1778
33588SOL    HW2 3144   3.136   6.944   0.996  0.0203 -0.1294  0.3572
33589SOL     OW 3145   2.694   7.873   7.358  0.6945 -0.5527 -0.2640
33589SOL    HW1 3146   2.783   7.867   7.393  1.3332  1.0977 -1.5141
33589SOL    HW2 3147   2.676   7.785   7.325  1.6922 -1.0163  0.3474
33590SOL     OW 3148   0.559   1.513   3.786 -0.0111  0.1203  0.2702
33590SOL    HW1 3149   0.653   1.496   3.783 -0.2241 -1.0494 -1.4479
33590SOL    HW2 3150   0.519   1.427   3.800 -0.8692  0.5065  0.3122
33591SOL     OW 3151   9.127   7.564   6.966  0.3127  0.2055 -0.2016
33591SOL    HW1 3152   9.117   7.632   6.900 -1.4215  0.7366  0.5647
33591SOL    HW2 3153   9.091   7.601   7.046  3.0476 -0.1265  1.3391
33592SOL     OW 3154   3.581  10.650  10.238  0.4190  0.3007  0.4631
33592SOL    HW1 3155   3.490  10.626  10.224  0.4351  0.2989  0.3648
33592SOL    HW2 3156   3.592  10.731  10.188  0.5235  0.1982  0.3184
33593SOL     OW 3157   9.194   9.219   2.881 -0.5401  0.1105  0.1807
33593SOL    HW1 3158   9.118   9.205   2.825 -0.4165  0.4917 -0.0848
33593SOL    HW2 3159   9.261   9.159   2.846 -0.6375 -0.0439  0.2581
33594SOL     OW 3160   4.505   3.551   2.749  0.4776 -0.2272  0.0477
33594SOL    HW1 3161   4.481   3.636   2.712  3.0368  0.6396  0.2237
33594SOL    HW2 3162   4.522   3.496   2.672  1.1458  0.1549 -0.0873
33595SOL     OW 3163   5.332   9.200   7.372 -0.6562 -0.8474  0.1800
33595SOL    HW1 3164   5.323   9.267   7.305 -0.8710 -1.8295 -0.8047
33595SOL    HW2 3165   5.382   9.242   7.442 -2.2934  0.8836  0.3744
33596SOL     OW 3166   6.415   7.581   1.349 -0.1082 -0.8268  1.1054
33596SOL    HW1 3167   6.412   7.559   1.256  1.7468 -0.4947  0.9304
33596SOL    HW2 3168   6.382   7.671   1.354 -0.1181 -0.8117  0.7607
33597SOL     OW 3169   9.066   7.628   4.547  0.0748 -0.0714 -0.1292
33597SOL    HW1 3170   9.161   7.628   4.534 -0.0537 -0.4836 -1.2239
33597SOL    HW2 3171   9.040   7.720   4.537  0.5350  0.2985  1.8121
33598SOL     OW 3172   6.136   0.163   1.772  0.0633  0.2752  1.1313
33598SOL    HW1 3173   6.094   0.220   1.836 -1.2762 -0.5748  1.0313
33598SOL    HW2 3174   6.064   0.119   1.728  0.9442  0.7540 -0.9092
33599SOL     OW 3175   4.593   6.881  10.386  0.0111  0.2351 -0.1812
33599SOL    HW1 3176   4.683   6.850  10.373  0.9748  2.3268  0.9494
33599SOL    HW2 3177   4.597   6.930  10.468 -1.3226  3.2985 -1.7949
33600SOL     OW 3178   0.990   7.827   1.478  0.0879  0.3208  0.2190
33600SOL    HW1 3179   1.046   7.897   1.512  0.6613  0.2613 -0.5765
33600SOL    HW2 3180   1.021   7.748   1.522  1.0205  0.1975 -0.6244
33601SOL     OW 3181   2.005   6.422   7.432 -0.1959  0.2398  0.3042
33601SOL    HW1 3182   2.075   6.440   7.369 -0.0816 -0.6505  0.1625
33601SOL    HW2 3183   1.967   6.339   7.403  0.6205 -0.8064  2.0483
33602SOL     OW 3184   9.548   7.648   2.742 -0.1388 -0.7506  0.1330
33602SOL    HW1 3185   9.546   7.686   2.654  0.5574 -0.8759  0.0541
33602SOL    HW2 3186   9.459   7.657   2.775  0.1852  1.8299  0.4932
33603SOL     OW 3187   2.421   6.643   1.158 -0.4025 -0.0538  0.1752
33603SOL    HW1 3188   2.452   6.731   1.136 -0.5674  0.2933  1.2786
33603SOL    HW2 3189   2.467   6.586   1.097  0.3530  0.7072  0.0095
33604SOL     OW 3190   4.570   3.761  10.378 -0.1103  0.4886  0.3467
33604SOL    HW1 3191   4.610   3.843  10.349 -0.1102 -0.0118 -1.1119
33604SOL    HW2 3192   4.638   3.719  10.431  0.5214  0.6350 -0.3419
33605SOL     OW 3193   3.187   6.096   5.491  0.3751 -0.0617 -0.7781
33605SOL    HW1 3194   3.155   6.185   5.500  2.9729  0.9734 -0.9795
33605SOL    HW2 3195   3.117   6.050   5.444 -2.0255  1.1968  1.3386
33606SOL     OW 3196   9.845   2.052   8.785 -0.0507  0.3153  0.7912
33606SOL    HW1 3197   9.840   2.069   8.879 -0.7615 -5.2532  2.0930
33606SOL    HW2 3198   9.753   2.045   8.757  0.1294 -1.2973  0.5242
33607SOL     OW 3199   5.034   9.449   4.032 -0.0993 -0.0357 -0.3837
33607SOL    HW1 3200   4.999   9.500   4.105  1.1521 -1.0956  1.0312
33607SOL    HW2 3201   5.040   9.360   4.066  2.7058 -0.1377 -0.9471
33608SOL     OW 3202   2.477   3.336   1.538  0.4029 -0.1775  0.7404
33608SOL    HW1 3203   2.527   3.279   1.479  0.1746  1.8654 -1.5545
33608SOL    HW2 3204   2.530   3.415   1.547 -1.2270  1.0305  0.2535
33609SOL     OW 3205   3.082   1.091   2.817 -0.1689  0.8253  0.2420
33609SOL    HW1 3206   3.156   1.098   2.878  0.1714  1.6658 -0.2484
33609SOL    HW2 3207   3.031   1.171   2.832  0.6258  1.6920 -1.4680
33610SOL     OW 3208   7.476   1.519   4.928  0.0332 -0.0315 -0.4468
33610SOL    HW1 3209   7.397   1.482   4.966  2.0280 -2.5892  1.6053
33610SOL    HW2 3210   7.534   1.534   5.003  1.3694  2.2230 -1.8203
33611SOL     OW 3211   3.238  10.487   8.353 -0.3076 -0.3239 -0.2245
33611SOL    HW1 3212   3.291  10.566   8.351 -0.9934  0.2215  1.3346
33611SOL    HW2 3213   3.239  10.455   8.263  0.2599  1.2620 -0.8193
33612SOL     OW 3214   0.757   2.969  10.464  0.8171  0.3574  0.0754
33612SOL    HW1 3215   0.676   2.990  10.510  0.2197 -2.0671  0.2697
33612SOL    HW2 3216   0.733   2.975  10.371 -0.1114 -1.8054  0.1033
33613SOL     OW 3217   6.427   9.716  10.022  0.1908 -0.4773 -0.0824
33613SOL    HW1 3218   6.358   9.687  10.082  1.0295 -0.0136  1.1499
33613SOL    HW2 3219   6.470   9.789  10.068 -0.0994  0.9153 -1.9041
33614SOL     OW 3220   9.946   4.362   1.906  0.3295 -0.4211 -0.8110
33614SOL    HW1 3221   9.941   4.329   1.995  1.6504  0.5235 -0.3591
33614SOL    HW2 3222   9.855   4.380   1.883  0.0570  0.4823  0.8064
33615SOL     OW 3223   0.055   6.187   8.816 -0.3129  0.3412  0.4754
33615SOL    HW1 3224   0.043   6.138   8.734 -1.8015  1.4611 -0.0166
33615SOL    HW2 3225  -0.030   6.184   8.858  0.2531  0.3967  1.6664
33616SOL     OW 3226   7.923   4.543   0.412  0.1880  0.0938 -0.2227
33616SOL    HW1 3227   7.945   4.636   0.415 -0.8373  0.3405  0.3447
33616SOL    HW2 3228   8.007   4.497   0.411  0.7204  1.0438 -1.7249
33617SOL     OW 3229   1.596  10.425   1.436 -0.6962 -0.2390 -0.6815
33617SOL    HW1 3230   1.627  10.397   1.350  2.9014  2.0656 -0.3479
33617SOL    HW2 3231   1.549  10.507   1.420 -0.9705 -0.3661 -0.5453
33618SOL     OW 3232   6.597   4.738   9.749  0.2599 -0.4465  0.0171
33618SOL    HW1 3233   6.605   4.831   9.770 -0.7747 -0.1666 -0.7510
33618SOL    HW2 3234   6.504   4.719   9.758  0.5135 -1.5411  0.6353
33619SOL     OW 3235   6.893   9.254   6.394  0.3029  0.1474  0.5568
33619SOL    HW1 3236   6.880   9.244   6.488 -1.5437  0.0208  0.3314
33619SOL    HW2 3237   6.922   9.344   6.383 -1.0192  0.6793  1.1610
33620SOL     OW 3238   5.251  10.012   6.015  0.0232  0.3765  0.1778
33620SOL    HW1 3239   5.195   9.936   6.027 -0.9183  1.0706  0.2618
33620SOL    HW2 3240   5.291  10.027   6.101 -1.0385  0.9298  0.5897
33621SOL     OW 3241   9.711   8.533   2.343  0.0710 -0.0809 -1.1591
33621SOL    HW1 3242   9.768   8.505   2.415 -1.1527  0.3426  0.0261
33621SOL    HW2 3243   9.645   8.463   2.337 -0.1079  0.1168 -1.5428
33622SOL     OW 3244   4.610   3.051   4.958 -0.4438 -0.0297 -0.0831
33622SOL    HW1 3245   4.630   2.973   5.010  1.3837 -1.5442 -2.8487
33622SOL    HW2 3246   4.526   3.082   4.994 -1.6602 -3.6937  0.6924
33623SOL     OW 3247   4.373   1.494   6.728 -0.1155 -0.0709 -0.1143
33623SOL    HW1 3248   4.437   1.529   6.790 -0.2653  0.2510 -0.1362
33623SOL    HW2 3249   4.403   1.406   6.709  0.6448  0.2821 -0.5784
33624SOL     OW 3250   0.341   4.234   0.985  0.0141 -0.1902  0.0145
33624SOL    HW1 3251   0.356   4.326   1.005  0.1473 -0.5560  1.6774
33624SOL    HW2 3252   0.275   4.236   0.916 -1.6780  1.1148  1.5843
33625SOL     OW 3253   7.370   2.478   1.955  0.1034 -0.4479 -0.1027
33625SOL    HW1 3254   7.401   2.542   1.891 -2.0805  0.5461 -0.2691
33625SOL    HW2 3255   7.447   2.457   2.007  1.2124  1.2174 -0.9726
33626SOL     OW 3256   0.283   2.362   2.777 -0.7589  0.2219 -0.9937
33626SOL    HW1 3257   0.298   2.456   2.770 -2.0357  0.9744  3.3326
33626SOL    HW2 3258   0.188   2.354   2.789 -0.3914 -1.2027  1.7852
33627SOL     OW 3259   0.638   8.298   6.144 -0.4681 -0.4558 -0.2635
33627SOL    HW1 3260   0.665   8.237   6.213  0.2548 -0.7353 -0.7878
33627SOL    HW2 3261   0.584   8.363   6.190  2.1516  0.8931  1.1181
33628SOL     OW 3262   0.584   3.570   1.493  0.0062  0.1602 -0.1031
33628SOL    HW1 3263   0.524   3.585   1.566 -0.1770 -0.8991 -0.0138
33628SOL    HW2 3264   0.657   3.521   1.532  0.6739  0.9627 -0.3181
33629SOL     OW 3265   0.362   6.197   1.171  0.0706  0.5936  0.3569
33629SOL    HW1 3266   0.401   6.136   1.233  0.5051  0.4045 -0.0913
33629SOL    HW2 3267   0.436   6.228   1.118 -0.6826 -2.2317 -2.6733
33630SOL     OW 3268   9.234   1.578   9.974  0.1860 -0.4416  0.0458
33630SOL    HW1 3269   9.169   1.649   9.968  0.5378 -0.1442 -0.3545
33630SOL    HW2 3270   9.200   1.510   9.915  0.3485 -0.1920 -0.3428
33631SOL     OW 3271   8.754   2.403   0.365  0.4539 -0.2987  0.3267
33631SOL    HW1 3272   8.733   2.372   0.276 -0.7352  1.7741 -0.1767
33631SOL    HW2 3273   8.811   2.335   0.401 -0.3176 -1.9763 -1.4437
33632SOL     OW 3274  10.467   5.988   1.052 -0.0089  0.1182  0.2599
33632SOL    HW1 3275  10.465   5.907   1.001  2.0178  0.5382 -0.6315
33632SOL    HW2 3276  10.497   6.054   0.989  1.9315  0.8005  1.7716
33633SOL     OW 3277   6.656   3.610   2.700 -0.3152  0.1288 -0.2672
33633SOL    HW1 3278   6.642   3.534   2.756 -1.1074  0.2431 -0.2985
33633SOL    HW2 3279   6.720   3.581   2.635 -2.1341 -1.2047 -1.5544
33634SOL     OW 3280   3.969   9.991   4.493  0.5378 -0.3074  0.2811
33634SOL    HW1 3281   3.897   9.961   4.438  1.9005  0.3819 -2.0067
33634SOL    HW2 3282   3.993   9.915   4.545 -1.9456 -0.4892  1.3076
33635SOL     OW 3283   5.055   9.446   2.064  0.0975 -0.0302 -0.2223
33635SOL    HW1 3284   4.965   9.415   2.063  0.0609 -0.0259  1.1098
33635SOL    HW2 3285   5.054   9.527   2.014 -0.3704 -0.6790 -1.3028
33636SOL     OW 3286   3.926   6.567   4.163  0.3946  0.6728  0.7261
33636SOL    HW1 3287   3.931   6.564   4.259 -0.3225  2.0297  0.8294
33636SOL    HW2 3288   4.009   6.530   4.134 -0.3713 -2.2137  1.7904
33637SOL     OW 3289   1.335   1.577   7.835  0.4004  0.0877 -0.4945
33637SOL    HW1 3290   1.280   1.541   7.766 -1.2804  1.4037  0.0762
33637SOL    HW2 3291   1.356   1.666   7.806  0.9387  0.1296 -0.0028
33638SOL     OW 3292  10.253   4.393   2.384  0.5218  0.4993 -0.0305
33638SOL    HW1 3293  10.187   4.346   2.435  0.7186 -0.0575 -0.2749
33638SOL    HW2 3294  10.330   4.393   2.440  1.2805 -1.6326 -0.9555
33639SOL     OW 3295   6.364   2.368   2.744 -0.3411 -0.5245  0.5085
33639SOL    HW1 3296   6.325   2.295   2.695 -0.9995 -0.9960  1.6852
33639SOL    HW2 3297   6.364   2.338   2.835  0.5407  0.4618  0.8513
33640SOL     OW 3298   5.867   1.714   9.649  0.2226  0.2618 -0.3838
33640SOL    HW1 3299   5.839   1.664   9.725 -1.0351  0.6051 -0.6104
33640SOL    HW2 3300   5.825   1.671   9.575 -0.8409  1.5859 -0.5922
33641SOL     OW 3301  10.367   4.404   3.315  0.3857  0.2233  0.0646
33641SOL    HW1 3302  10.388   4.452   3.395  2.9557 -0.2721 -0.2347
33641SOL    HW2 3303  10.382   4.312   3.338 -0.2104 -0.0572 -0.6278
33642SOL     OW 3304   5.917   5.798   7.961  0.2931 -0.6446  0.1069
33642SOL    HW1 3305   6.011   5.786   7.946 -0.1600 -2.3051 -1.7430
33642SOL    HW2 3306   5.889   5.858   7.892  0.0662  0.3648  1.0419
33643SOL     OW 3307   3.030   4.290   3.791 -0.0397 -0.5988  0.2516
33643SOL    HW1 3308   2.966   4.360   3.775  0.4500 -0.2324 -0.1193
33643SOL    HW2 3309   3.034   4.242   3.708  1.3345  0.3471 -0.2647
33644SOL     OW 3310   2.165   2.455   1.169 -0.2850  0.6333 -0.2429
33644SOL    HW1 3311   2.204   2.533   1.131  0.1049  0.4861 -0.1498
33644SOL    HW2 3312   2.239   2.405   1.204 -0.6658  0.9844  1.1344
33645SOL     OW 3313   0.346   6.750   1.651  0.4692  0.3226  0.2625
33645SOL    HW1 3314   0.392   6.691   1.592  0.4822 -0.8645  1.4068
33645SOL    HW2 3315   0.324   6.826   1.597 -0.0407 -0.9527 -1.3927
33646SOL     OW 3316   4.599   5.789   0.409 -0.3325 -0.0567  0.3123
33646SOL    HW1 3317   4.535   5.718   0.396 -0.8812  0.2856  1.0998
33646SOL    HW2 3318   4.546   5.868   0.411 -0.1347  0.0799  2.9557
33647SOL     OW 3319  10.762   0.787   7.066  0.4885  0.0779  0.5593
33647SOL    HW1 3320  10.753   0.876   7.102  0.7965  1.7504 -3.0350
33647SOL    HW2 3321  10.701   0.786   6.992  4.1021 -0.7878 -2.6623
33648SOL     OW 3322   8.689   5.991   4.390 -0.4135  0.6223 -0.0943
33648SOL    HW1 3323   8.776   6.028   4.407 -0.9339  1.2881  1.1789
33648SOL    HW2 3324   8.699   5.947   4.305  1.9487 -1.7197  1.2197
33649SOL     OW 3325   6.490   1.692   8.831  0.0525 -0.0614 -0.2255
33649SOL    HW1 3326   6.547   1.767   8.815 -0.0486  0.1892  0.5478
33649SOL    HW2 3327   6.420   1.727   8.887  0.5593 -0.9458  1.0108
33650SOL     OW 3328  10.484   2.621  10.005  0.7338  0.3930  0.0008
33650SOL    HW1 3329  10.471   2.529   9.983 -0.6061  0.1279  1.7018
33650SOL    HW2 3330  10.509   2.662   9.923  0.6060 -1.3553 -0.9501
33651SOL     OW 3331   8.880   2.200   0.510 -0.1964 -0.1252 -0.4124
33651SOL    HW1 3332   8.887   2.276   0.567  0.6136 -0.6198  0.1784
33651SOL    HW2 3333   8.798   2.158   0.536 -0.4771  0.3603 -0.5105
33652SOL     OW 3334   9.561   9.023   0.466 -0.1646 -0.0758  0.7164
33652SOL    HW1 3335   9.585   9.012   0.558 -0.5605  2.5921  1.2143
33652SOL    HW2 3336   9.639   8.997   0.418  0.2996 -0.8148  1.8242
33653SOL     OW 3337   6.294   9.438   4.750 -0.6221  0.2869 -0.2809
33653SOL    HW1 3338   6.334   9.369   4.802 -1.1514  0.4528  0.3703
33653SOL    HW2 3339   6.311   9.518   4.800 -2.2018  0.2936  0.2986
33654SOL     OW 3340   5.658   0.006   9.797 -1.0887 -0.0512 -0.5209
33654SOL    HW1 3341   5.702   0.079   9.841 -0.6444  0.1669 -1.3066
33654SOL    HW2 3342   5.729  -0.052   9.770 -1.4184 -0.6100 -0.1972
33655SOL     OW 3343   7.062  10.541   7.838 -0.1932  0.2174  0.1635
33655SOL    HW1 3344   6.970  10.540   7.814  0.0213  0.0573 -0.6558
33655SOL    HW2 3345   7.078  10.631   7.867 -0.2830  0.6135 -0.9812
33656SOL     OW 3346   6.362   5.872   4.197  0.5495  0.4011 -0.1770
33656SOL    HW1 3347   6.426   5.831   4.138  1.3496  0.9743  0.2656
33656SOL    HW2 3348   6.413   5.936   4.247 -0.2760  0.5130  0.5562
33657SOL     OW 3349  10.294   4.261   7.120 -0.2333  0.2706  0.1049
33657SOL    HW1 3350  10.386   4.284   7.104 -0.2041  0.3959  0.4484
33657SOL    HW2 3351  10.288   4.168   7.098  0.4059 -0.2190  1.8636
33658SOL     OW 3352   3.281   3.741  10.016  0.3191  0.5123  0.1688
33658SOL    HW1 3353   3.370   3.759   9.985 -0.2363  0.2584 -1.7434
33658SOL    HW2 3354   3.275   3.646  10.015 -0.4598  0.5431 -1.3611
33659SOL     OW 3355   7.646   4.489   5.427  0.2101  0.8457 -0.4555
33659SOL    HW1 3356   7.689   4.506   5.511 -2.6005 -0.3135  1.3670
33659SOL    HW2 3357   7.641   4.575   5.384  0.2101  1.7798  1.3378
33660SOL     OW 3358   4.984   0.586   1.666 -0.1615 -0.2779 -0.0385
33660SOL    HW1 3359   5.050   0.525   1.699  0.7239  1.6164  1.9701
33660SOL    HW2 3360   5.019   0.672   1.686 -2.5120  0.8580 -0.4320
33661SOL     OW 3361   7.920   4.864   6.142 -0.1874  0.8149  0.0596
33661SOL    HW1 3362   7.845   4.846   6.200  0.9880  1.4045  1.8425
33661SOL    HW2 3363   7.890   4.935   6.085 -0.7245  1.6542  1.3451
33662SOL     OW 3364   6.036   8.739   2.980  0.1754  0.3044  0.3029
33662SOL    HW1 3365   6.045   8.804   3.049 -2.3835 -0.1790  1.2099
33662SOL    HW2 3366   6.047   8.655   3.024 -0.3473  0.0316 -0.0716
33663SOL     OW 3367   4.686   6.506   3.797  0.6351  0.2105 -0.8476
33663SOL    HW1 3368   4.614   6.520   3.859  1.6737 -0.0690  0.4672
33663SOL    HW2 3369   4.704   6.592   3.761  0.7104  0.5721  0.0359
33664SOL     OW 3370   2.211  10.746   2.612  0.5101 -0.1549 -0.0640
33664SOL    HW1 3371   2.175  10.772   2.697 -0.1476  0.5897 -0.5468
33664SOL    HW2 3372   2.211  10.651   2.614 -2.3909 -0.2449 -0.3602
33665SOL     OW 3373   2.585   0.128   6.895  0.3824  0.6326  0.1570
33665SOL    HW1 3374   2.614   0.095   6.810  0.9074  1.7746 -0.1379
33665SOL    HW2 3375   2.490   0.132   6.888  0.3556 -0.1879 -0.0191
33666SOL     OW 3376   9.365   9.485   8.996 -0.2419 -0.1525  0.1865
33666SOL    HW1 3377   9.279   9.507   9.032 -0.3337  0.0179 -0.1409
33666SOL    HW2 3378   9.349   9.466   8.904  0.3412  1.6805 -0.3326
33667SOL     OW 3379   0.615  10.137   3.523 -0.3073 -0.2241  0.4980
33667SOL    HW1 3380   0.522  10.142   3.545 -0.4734 -0.4909 -0.1318
33667SOL    HW2 3381   0.620  10.164   3.431  0.1300 -1.0483  0.2703
33668SOL     OW 3382   2.205   0.832   9.322  0.3795  0.6677 -0.2517
33668SOL    HW1 3383   2.159   0.896   9.376  0.4234  1.1282 -0.7399
33668SOL    HW2 3384   2.297   0.841   9.347  0.2495 -0.0346  0.5063
33669SOL     OW 3385   3.287   5.830   1.818  0.4132  0.4415 -0.0020
33669SOL    HW1 3386   3.200   5.816   1.781  0.3343 -0.4226  0.5045
33669SOL    HW2 3387   3.345   5.832   1.742  0.0508  0.2864 -0.2867
33670SOL     OW 3388   0.904   5.397   2.655  0.3309  0.2370 -0.2160
33670SOL    HW1 3389   0.944   5.454   2.590 -2.5981  1.7424 -0.8759
33670SOL    HW2 3390   0.810   5.401   2.637 -0.4966 -0.5377  3.1261
33671SOL     OW 3391   8.910   7.786   2.307  0.3475  0.2627  0.2413
33671SOL    HW1 3392   8.864   7.850   2.253  0.8340  1.3970  1.1224
33671SOL    HW2 3393   8.957   7.731   2.244 -1.8339 -0.6926 -0.6612
33672SOL     OW 3394   3.280   9.554   9.758 -0.4223 -0.2298  0.1850
33672SOL    HW1 3395   3.363   9.600   9.769 -1.2866  1.1197  1.4042
33672SOL    HW2 3396   3.243   9.587   9.676 -0.3639  0.1453  0.3121
33673SOL     OW 3397   8.397   2.301  10.144  0.2107 -0.1270 -0.5445
33673SOL    HW1 3398   8.321   2.243  10.135 -0.4041  0.4960  0.3938
33673SOL    HW2 3399   8.371   2.382  10.099 -1.0425  1.2913  2.4316
33674SOL     OW 3400  10.313   1.297   1.270  0.1074  0.1312 -0.2310
33674SOL    HW1 3401  10.283   1.373   1.221  1.0829  1.0928  0.6243
33674SOL    HW2 3402  10.292   1.317   1.361 -0.5823 -1.0952 -0.1006
33675SOL     OW 3403   1.387   8.643   5.207 -0.2656  0.3236 -0.1275
33675SOL    HW1 3404   1.344   8.629   5.291 -0.5200  2.7598  0.2250
33675SOL    HW2 3405   1.334   8.709   5.163 -0.4812 -1.3059 -2.5248
33676SOL     OW 3406   4.460   1.618   4.763  0.1027  0.0884  0.4233
33676SOL    HW1 3407   4.527   1.609   4.830 -1.8918  1.1950  2.7373
33676SOL    HW2 3408   4.410   1.537   4.769 -0.3305  0.3631  0.6118
33677SOL     OW 3409   6.615   7.832   3.683 -0.2450 -0.2694  0.2800
33677SOL    HW1 3410   6.649   7.786   3.606  2.3472  1.1803  0.4377
33677SOL    HW2 3411   6.598   7.921   3.652  0.5130  0.2416  1.2683
33678SOL     OW 3412   3.895   4.648   8.003  0.0669  0.3312 -0.4152
33678SOL    HW1 3413   3.901   4.591   7.926  0.6950  1.1654 -1.0009
33678SOL    HW2 3414   3.984   4.651   8.038 -0.1249  0.3266  0.0871
33679SOL     OW 3415   4.995   9.345   6.819 -0.0936 -0.3923 -0.0707
33679SOL    HW1 3416   4.918   9.296   6.790 -0.2252 -1.5098  1.9259
33679SOL    HW2 3417   4.967   9.386   6.901  1.3839 -0.7704  0.6664
33680SOL     OW 3418   9.685   3.716   4.937  0.3872 -0.0300 -0.1620
33680SOL    HW1 3419   9.659   3.678   4.853 -0.3600 -1.2621  0.5803
33680SOL    HW2 3420   9.604   3.718   4.988  0.8890  0.3766  0.6353
33681SOL     OW 3421   7.535   0.202   2.705 -0.0668 -0.2645 -0.3475
33681SOL    HW1 3422   7.609   0.249   2.666  0.6209 -1.2481 -0.2690
33681SOL    HW2 3423   7.572   0.160   2.782 -1.1866  0.8397  0.8414
33682SOL     OW 3424   8.868   4.039   1.085  0.3290  0.1163 -0.3505
33682SOL    HW1 3425   8.956   4.031   1.049  0.1992 -0.6932 -0.5273
33682SOL    HW2 3426   8.810   4.031   1.008  0.0139 -2.5802  0.0589
33683SOL     OW 3427   4.412   9.071  10.134 -0.0756  0.0493  0.0452
33683SOL    HW1 3428   4.379   9.140  10.076 -0.5410 -0.1259  0.0986
33683SOL    HW2 3429   4.460   9.118  10.202  0.3984  0.2633 -0.4287
33684SOL     OW 3430  10.485   4.075   9.570 -0.3998 -0.7107 -0.4017
33684SOL    HW1 3431  10.533   4.152   9.601 -1.5475  0.3374 -1.1061
33684SOL    HW2 3432  10.458   4.029   9.649 -0.0744 -0.1336  0.0499
33685SOL     OW 3433   8.450   9.235   3.528 -0.2508 -0.3268  0.1388
33685SOL    HW1 3434   8.403   9.223   3.611  1.5093 -1.0749  1.0819
33685SOL    HW2 3435   8.397   9.188   3.464 -0.9465 -0.8934  1.1020
33686SOL     OW 3436   0.100   1.263  10.452 -0.7013  0.0571  0.1240
33686SOL    HW1 3437   0.185   1.278  10.410 -1.0888 -0.5983 -0.9363
33686SOL    HW2 3438   0.121   1.251  10.544  0.1829  1.5127  0.1429
33687SOL     OW 3439   8.753   1.640   1.016  0.0438  0.0295 -0.0782
33687SOL    HW1 3440   8.786   1.685   0.937 -1.1775  0.1697 -0.5275
33687SOL    HW2 3441   8.673   1.597   0.987  0.7400 -1.7918  0.5525
33688SOL     OW 3442   8.250   6.193   3.655  0.5553  0.2540  0.0519
33688SOL    HW1 3443   8.295   6.258   3.601  2.7251 -0.1841  1.2282
33688SOL    HW2 3444   8.274   6.109   3.617 -0.6769  0.0339 -0.2958
33689SOL     OW 3445   7.550   7.413   2.921 -0.1281 -0.4903  0.2536
33689SOL    HW1 3446   7.548   7.505   2.947  1.5884 -0.3004 -0.1455
33689SOL    HW2 3447   7.565   7.415   2.826 -2.4453 -1.2014 -0.1930
33690SOL     OW 3448   6.128   2.923   7.258 -0.3255  0.3570  0.2624
33690SOL    HW1 3449   6.200   2.903   7.318 -0.6289 -0.2078  0.4502
33690SOL    HW2 3450   6.121   3.018   7.259 -1.9604  0.2929  3.0574
33691SOL     OW 3451   9.176   0.827   1.693 -0.2816 -0.4739  0.0692
33691SOL    HW1 3452   9.103   0.815   1.632  0.5990 -0.2252 -1.0672
33691SOL    HW2 3453   9.254   0.815   1.640  0.5659 -3.2728  1.7489
33692SOL     OW 3454   5.722   8.292   6.201 -0.1252 -0.2221  0.1682
33692SOL    HW1 3455   5.643   8.340   6.223 -0.3689 -0.9316  0.8672
33692SOL    HW2 3456   5.734   8.230   6.273 -0.5441 -2.1127 -1.3141
33693SOL     OW 3457   4.030   6.368  10.383 -0.3369  0.8243  0.4174
33693SOL    HW1 3458   4.007   6.410  10.466  0.8863  0.1555  1.1418
33693SOL    HW2 3459   3.990   6.422  10.316 -3.8162 -0.1906  1.4912
33694SOL     OW 3460   0.064   4.895   7.386 -0.0563 -0.2486  0.2079
33694SOL    HW1 3461   0.060   4.831   7.315  0.0266 -1.0951  0.9448
33694SOL    HW2 3462   0.095   4.845   7.461  0.1977  0.7090  0.7578
33695SOL     OW 3463  10.324   7.020   7.748  0.3390  0.1971  0.0237
33695SOL    HW1 3464  10.398   7.039   7.805  0.7603 -1.6711  0.1663
33695SOL    HW2 3465  10.357   7.034   7.659  0.5462  0.3594  0.1273
33696SOL     OW 3466   5.608   1.633   1.142  0.5197  0.3163 -0.6909
33696SOL    HW1 3467   5.676   1.567   1.149  0.8033  0.7337  0.6109
33696SOL    HW2 3468   5.655   1.715   1.132  0.1698  0.3290 -2.8801
33697SOL     OW 3469   7.645   7.465   4.515  0.2262 -0.7490  0.0424
33697SOL    HW1 3470   7.580   7.395   4.513  1.1874 -1.6737  0.3155
33697SOL    HW2 3471   7.695   7.450   4.596 -0.4561  1.1130  0.8692
33698SOL     OW 3472   1.593   9.076   1.928 -0.4565  0.4687  0.3022
33698SOL    HW1 3473   1.546   9.144   1.976 -2.0046  0.3081 -0.9081
33698SOL    HW2 3474   1.603   9.112   1.840 -0.4759 -0.4824 -0.0990
33699SOL     OW 3475   3.269   7.582   8.376  0.4864 -0.0761  0.5854
33699SOL    HW1 3476   3.264   7.637   8.298  0.6990  0.2641  0.8115
33699SOL    HW2 3477   3.344   7.617   8.426 -0.7805  0.9307  1.8743
33700SOL     OW 3478   1.013   7.940   2.477  0.2393  0.3924 -0.4795
33700SOL    HW1 3479   0.999   7.846   2.478  0.8533  0.2976  0.2071
33700SOL    HW2 3480   1.060   7.957   2.395 -0.9766  0.2904 -1.2239
33701SOL     OW 3481   9.096   1.134   9.408 -0.0813 -0.6144  0.6348
33701SOL    HW1 3482   9.114   1.102   9.496  0.9828  1.1460  1.1137
33701SOL    HW2 3483   9.130   1.066   9.350  1.0687 -0.8896  1.5949
33702SOL     OW 3484   8.586   6.625   1.340  0.1608 -0.2772 -0.4084
33702SOL    HW1 3485   8.631   6.583   1.267  1.4234 -0.2415  0.3004
33702SOL    HW2 3486   8.555   6.709   1.305  1.0162 -0.1286 -0.8401
33703SOL     OW 3487   8.027   6.140   6.896 -0.4656 -0.6334  0.7745
33703SOL    HW1 3488   8.065   6.227   6.904 -1.2501 -0.2235  0.2083
33703SOL    HW2 3489   8.024   6.106   6.985  2.1292 -1.1025  0.7517
33704SOL     OW 3490   3.501   8.494   7.425 -0.1567 -0.6522 -0.0724
33704SOL    HW1 3491   3.522   8.490   7.332  0.5434 -0.7958  0.0832
33704SOL    HW2 3492   3.470   8.583   7.440  0.6320 -0.3330 -0.2677
33705SOL     OW 3493   7.845   9.998   9.738  0.0524 -0.0266 -0.1933
33705SOL    HW1 3494   7.755   9.965   9.731 -0.1503  0.6887 -1.3144
33705SOL    HW2 3495   7.834  10.088   9.768  0.4668 -0.2950  0.7712
33706SOL     OW 3496   5.490   9.612   4.934 -0.9447  0.5364 -0.0599
33706SOL    HW1 3497   5.409   9.562   4.935 -0.8033  0.3109  1.5927
33706SOL    HW2 3498   5.543   9.575   5.005 -0.7742  2.9124  1.1348
33707SOL     OW 3499   1.726  10.721   9.649  0.3626  0.2739  0.0248
33707SOL    HW1 3500   1.632  10.729   9.634  0.5139 -1.0793 -2.0034
33707SOL    HW2 3501   1.732  10.670   9.730 -0.6339  0.5179  0.2748
33708SOL     OW 3502   2.179  10.666   1.223  0.2626 -0.1260  0.0413
33708SOL    HW1 3503   2.214  10.735   1.167  0.1452  1.5696  1.9510
33708SOL    HW2 3504   2.107  10.707   1.270  0.9968 -1.1076  2.1924
33709SOL     OW 3505   4.225   1.330   9.177 -0.2072  0.3110  0.0527
33709SOL    HW1 3506   4.172   1.399   9.215  0.2127  1.5501 -1.5050
33709SOL    HW2 3507   4.267   1.287   9.252  0.1782  2.2796  1.0290
33710SOL     OW 3508   0.878   9.976   8.301  0.1408 -0.1832  0.1920
33710SOL    HW1 3509   0.922   9.910   8.354  0.5950 -2.5744 -2.8643
33710SOL    HW2 3510   0.902   9.954   8.210 -2.7918  1.8901 -1.2537
33711SOL     OW 3511  10.607   8.574  10.584  0.2421 -0.8247 -0.1818
33711SOL    HW1 3512  10.681   8.618  10.626 -0.1090 -1.4506  1.1149
33711SOL    HW2 3513  10.616   8.482  10.608 -1.5200 -0.7636  0.9034
33712SOL     OW 3514  10.369   8.500   9.582 -0.3613 -0.0884 -0.3471
33712SOL    HW1 3515  10.361   8.553   9.661  2.0299 -0.8182  0.4594
33712SOL    HW2 3516  10.350   8.411   9.612  3.1669 -0.8053  0.1422
33713SOL     OW 3517   5.913   6.168   0.434  0.8107  0.2340 -0.4048
33713SOL    HW1 3518   5.869   6.239   0.389  0.5278  0.3215  0.0087
33713SOL    HW2 3519   5.973   6.211   0.494 -0.5906  0.1690  1.0998
33714SOL     OW 3520   7.931   1.582   4.317 -0.5113 -0.2481  0.6235
33714SOL    HW1 3521   7.962   1.642   4.250 -0.4485 -1.1878 -0.2038
33714SOL    HW2 3522   8.004   1.522   4.331 -1.5521 -1.8625 -0.6109
33715SOL     OW 3523   9.370  10.371   6.082  0.5801  0.0021 -0.1294
33715SOL    HW1 3524   9.276  10.359   6.098  0.1780  0.5423 -1.8403
33715SOL    HW2 3525   9.374  10.417   5.998  2.3964 -0.3725 -0.2860
33716SOL     OW 3526   4.500   6.730   2.034 -0.8236 -0.3658  0.2117
33716SOL    HW1 3527   4.508   6.818   1.999 -0.7611 -0.5189 -0.1652
33716SOL    HW2 3528   4.503   6.741   2.129 -0.0074 -0.0421  0.1544
33717SOL     OW 3529   5.027   9.454   6.472 -0.2361 -0.5817  0.0810
33717SOL    HW1 3530   5.081   9.382   6.504  1.9841  1.4592  1.2360
33717SOL    HW2 3531   4.957   9.461   6.537 -1.9426 -3.1024 -1.3071
33718SOL     OW 3532   2.938   6.149   4.242  0.2174 -0.0161 -0.3275
33718SOL    HW1 3533   2.969   6.226   4.194  0.0732  0.5525  0.4754
33718SOL    HW2 3534   3.018   6.109   4.277  0.1717  0.7871  0.7517
33719SOL     OW 3535   6.507   5.779   8.522 -0.5180 -0.1893 -0.4611
33719SOL    HW1 3536   6.434   5.753   8.466  0.1422 -0.4028 -1.2395
33719SOL    HW2 3537   6.498   5.874   8.531 -0.5125 -0.1241 -1.1095
33720SOL     OW 3538   0.912   6.880   3.395 -0.4664  0.6324 -0.1463
33720SOL    HW1 3539   0.850   6.906   3.327  0.5025 -1.3303 -1.8973
33720SOL    HW2 3540   0.932   6.788   3.376  0.2446  0.1240  2.5279
33721SOL     OW 3541   2.855   3.283   7.936 -0.1774 -0.0835  0.0428
33721SOL    HW1 3542   2.885   3.358   7.883 -1.3057  0.1312 -0.3075
33721SOL    HW2 3543   2.915   3.212   7.913  0.2425  0.4150 -0.4352
33722SOL     OW 3544   4.050   8.270   2.513  0.5455 -0.5993 -0.5452
33722SOL    HW1 3545   4.079   8.318   2.436  0.0170  2.2596  0.8607
33722SOL    HW2 3546   4.009   8.191   2.479 -0.2706  0.8635 -3.2687
33723SOL     OW 3547   3.515   6.730   2.065 -0.3121  0.0745  0.2774
33723SOL    HW1 3548   3.553   6.769   1.987 -0.2458  0.7872  0.6607
33723SOL    HW2 3549   3.560   6.772   2.138 -1.2596  0.3534  0.7249
33724SOL     OW 3550   6.644   4.413   7.603  0.2731  0.1333  0.2656
33724SOL    HW1 3551   6.662   4.444   7.692  1.0067  0.1938  0.1058
33724SOL    HW2 3552   6.630   4.319   7.612 -0.4545  0.2673  0.5512
33725SOL     OW 3553   2.309   7.332   7.376  0.3680  0.4494  0.3293
33725SOL    HW1 3554   2.328   7.302   7.465 -1.6136 -0.3149  0.5437
33725SOL    HW2 3555   2.238   7.395   7.387  1.0985  1.4748 -0.6120
33726SOL     OW 3556   2.790   8.097   1.527  0.2438 -0.6325  0.6729
33726SOL    HW1 3557   2.842   8.118   1.450 -0.1829 -0.0297  0.5457
33726SOL    HW2 3558   2.832   8.019   1.564  2.5944  1.0953  1.8499
33727SOL     OW 3559   4.344  10.238   1.469 -0.3576  0.3209 -0.0371
33727SOL    HW1 3560   4.362  10.185   1.547 -0.0836  0.0664 -0.2743
33727SOL    HW2 3561   4.308  10.320   1.504 -1.2006 -0.1804  0.3214
33728SOL     OW 3562   5.017   8.881  10.474  0.5093  0.0166  0.2377
33728SOL    HW1 3563   4.996   8.814  10.540  0.7157 -0.3693 -0.0860
33728SOL    HW2 3564   5.013   8.963  10.523 -2.6670  0.1020  0.0018
33729SOL     OW 3565  10.125   9.161   1.258  0.0455  0.2199  0.2229
33729SOL    HW1 3566  10.123   9.250   1.221 -0.0011 -0.0674 -0.4819
33729SOL    HW2 3567  10.033   9.142   1.277 -0.0193  0.0949 -0.1973
33730SOL     OW 3568   0.541   5.603   7.285  0.4259  0.1290  0.4738
33730SOL    HW1 3569   0.599   5.665   7.329  0.9718  0.3410 -0.4971
33730SOL    HW2 3570   0.526   5.643   7.199  0.5893 -0.9688 -0.0748
33731SOL     OW 3571   8.540   1.793   8.690  0.0819  0.4568 -0.2745
33731SOL    HW1 3572   8.499   1.710   8.715 -0.3718  0.4232 -1.1057
33731SOL    HW2 3573   8.590   1.773   8.611  2.1531  0.3772  0.9712
33732SOL     OW 3574   0.052   7.603   4.367  0.1821 -0.2287 -0.6990
33732SOL    HW1 3575   0.032   7.697   4.363 -0.2056 -0.2752 -0.0167
33732SOL    HW2 3576   0.095   7.591   4.451  2.0886 -0.3443 -1.6385
33733SOL     OW 3577   5.938   5.874   0.706  0.1005 -0.6331 -0.3707
33733SOL    HW1 3578   5.978   5.794   0.741 -0.2109 -0.2795  0.8595
33733SOL    HW2 3579   5.984   5.891   0.624 -0.7300 -2.8140 -1.3585
33734SOL     OW 3580   3.303   1.488   0.175 -0.2282 -0.6483 -0.4119
33734SOL    HW1 3581   3.306   1.543   0.253  0.1282  1.2825 -1.7173
33734SOL    HW2 3582   3.214   1.453   0.172 -0.7046  0.5009  0.0504
33735SOL     OW 3583   7.221   2.666   8.390 -0.0459  0.2849  0.3170
33735SOL    HW1 3584   7.292   2.605   8.369 -1.5493 -0.4973 -3.0673
33735SOL    HW2 3585   7.251   2.711   8.469  2.3455 -2.8705  1.4111
33736SOL     OW 3586   6.407   2.728   4.353  0.4499 -0.7339 -0.3784
33736SOL    HW1 3587   6.358   2.730   4.270 -1.3298  0.9553  0.6061
33736SOL    HW2 3588   6.373   2.803   4.402  1.0564 -1.9634  2.1017
33737SOL     OW 3589  10.606   3.817   8.732 -0.4707  0.1712 -0.2640
33737SOL    HW1 3590  10.693   3.792   8.700  1.6383 -1.1152  5.3058
33737SOL    HW2 3591  10.554   3.738   8.723  0.7298 -0.8483  1.2029
33738SOL     OW 3592   4.676   4.469   1.300 -0.2704 -0.6294 -0.0595
33738SOL    HW1 3593   4.651   4.516   1.221  0.6084 -0.3688 -0.1893
33738SOL    HW2 3594   4.679   4.535   1.369  1.9888 -0.2729 -0.4575
33739SOL     OW 3595   2.641   5.255   4.041  0.0275 -0.0970  0.1551
33739SOL    HW1 3596   2.590   5.284   4.116  1.2573  0.0061  0.9754
33739SOL    HW2 3597   2.732   5.265   4.068  0.5207  0.6964 -1.6341
33740SOL     OW 3598   5.747   7.681   7.574  0.1844 -0.6143 -0.4202
33740SOL    HW1 3599   5.774   7.595   7.543  2.8297 -0.1885  0.4208
33740SOL    HW2 3600   5.713   7.725   7.496 -0.6700 -2.1943 -0.9697
33741SOL     OW 3601   0.311   2.975   3.936 -0.4460 -0.0460  0.4791
33741SOL    HW1 3602   0.318   2.883   3.909  1.1926  0.4784 -1.1354
33741SOL    HW2 3603   0.401   3.007   3.933 -0.5622  0.9697  3.6725
33742SOL     OW 3604   2.619   2.776   8.361  0.1992 -0.3831 -0.4872
33742SOL    HW1 3605   2.683   2.773   8.289  1.0846 -0.3162  0.2719
33742SOL    HW2 3606   2.552   2.838   8.331  1.9945  1.8827 -0.1500
33743SOL     OW 3607   8.636   6.187   0.270  0.3367  0.2592  0.0524
33743SOL    HW1 3608   8.671   6.228   0.191  3.2420 -1.0464  0.5367
33743SOL    HW2 3609   8.604   6.260   0.323  1.2384  1.4528 -0.9858
33744SOL     OW 3610   8.386  10.442   3.206  0.2767  0.4230  0.0195
33744SOL    HW1 3611   8.411  10.353   3.230  3.6629  0.7787 -1.6037
33744SOL    HW2 3612   8.408  10.495   3.283  0.2746  0.1455  0.2143
33745SOL     OW 3613   0.954   0.575   4.605  0.1471  0.0129 -0.0940
33745SOL    HW1 3614   0.947   0.541   4.516  0.5644 -0.5694  0.0874
33745SOL    HW2 3615   1.041   0.613   4.610 -0.3949  1.3562 -0.3636
33746SOL     OW 3616   8.681   5.374   0.304  0.2435 -0.5185 -0.3708
33746SOL    HW1 3617   8.664   5.460   0.265  1.5546 -0.4180 -0.7439
33746SOL    HW2 3618   8.735   5.328   0.239  0.1425 -1.3704  0.1327
33747SOL     OW 3619   7.728   9.367   3.490  0.0513  0.2126  0.4586
33747SOL    HW1 3620   7.802   9.323   3.447 -0.0360  0.0356  0.4854
33747SOL    HW2 3621   7.696   9.303   3.554  0.6173  0.7407  1.2843
33748SOL     OW 3622   6.415   7.427   4.968 -0.0025  0.5134  0.1912
33748SOL    HW1 3623   6.491   7.409   4.912 -1.3461 -0.8727 -1.3292
33748SOL    HW2 3624   6.446   7.413   5.057  2.0518  2.1030 -0.2105
33749SOL     OW 3625  10.271   3.844   6.129 -0.1593 -0.1479 -0.7955
33749SOL    HW1 3626  10.253   3.837   6.222 -0.1144  0.6583 -0.7200
33749SOL    HW2 3627  10.242   3.761   6.092 -2.6541  0.4860 -0.4465
33750SOL     OW 3628   9.270   3.924   1.772  0.3725  0.3104 -0.3775
33750SOL    HW1 3629   9.206   3.928   1.702  0.9053  0.4345 -0.8654
33750SOL    HW2 3630   9.304   4.013   1.778  0.7201  0.1765 -0.3353
33751SOL     OW 3631   6.338   5.139   9.078  0.4661 -0.0293  0.4267
33751SOL    HW1 3632   6.328   5.092   8.996  1.3698  0.4980 -0.0056
33751SOL    HW2 3633   6.254   5.129   9.123  0.5169 -1.7474  0.2040
33752SOL     OW 3634   3.588   7.086   3.573 -0.3898 -0.2825  0.3468
33752SOL    HW1 3635   3.651   7.118   3.637  1.1380  1.0661 -1.7122
33752SOL    HW2 3636   3.567   7.162   3.519 -1.0954 -1.4749 -1.1589
33753SOL     OW 3637   7.825   9.899   6.494 -1.2063 -0.3303 -0.0114
33753SOL    HW1 3638   7.912   9.886   6.455 -1.3917  0.6784 -0.8063
33753SOL    HW2 3639   7.766   9.904   6.419 -1.4258  2.8545  0.2659
33754SOL     OW 3640   7.565   1.732   9.819 -0.2057 -0.0558  0.1249
33754SOL    HW1 3641   7.479   1.725   9.862  0.1623 -2.0923  0.6278
33754SOL    HW2 3642   7.578   1.647   9.778  1.6524  0.1614  0.1928
33755SOL     OW 3643   7.836   4.974   4.568 -0.1240 -0.6946  0.7769
33755SOL    HW1 3644   7.868   4.980   4.658  3.1325  0.3155 -0.2836
33755SOL    HW2 3645   7.914   4.987   4.514 -1.8204 -1.8553 -2.2288
33756SOL     OW 3646   8.995   0.920  10.136  0.0228  0.4437 -0.1029
33756SOL    HW1 3647   8.928   0.852  10.135 -1.0168  1.4418  0.3255
33756SOL    HW2 3648   8.988   0.960  10.222  1.2641  0.4852 -0.0080
33757SOL     OW 3649   1.767   5.949   2.622 -0.1849 -0.4624 -0.2276
33757SOL    HW1 3650   1.766   5.856   2.600  0.2528 -0.4679 -0.2295
33757SOL    HW2 3651   1.682   5.981   2.594 -0.9079 -1.1613  1.0472
33758SOL     OW 3652   7.513   3.744   5.108  0.1070  0.0654  0.0413
33758SOL    HW1 3653   7.516   3.648   5.112 -0.1273  0.0930  1.2318
33758SOL    HW2 3654   7.502   3.764   5.014 -0.2120 -1.0751 -0.1790
33759SOL     OW 3655   3.353   9.028   1.711  0.5427  0.0256 -0.5666
33759SOL    HW1 3656   3.287   9.088   1.746 -1.0956 -2.4365  0.9100
33759SOL    HW2 3657   3.417   9.019   1.782 -1.0312 -2.4339  0.6883
33760SOL     OW 3658   4.889  10.688   1.248 -0.1343 -0.3211 -1.1726
33760SOL    HW1 3659   4.839  10.761   1.211  1.0644  0.4113 -1.4150
33760SOL    HW2 3660   4.899  10.626   1.176 -0.7938 -0.5340 -1.0856
33761SOL     OW 3661   6.296  10.583   9.948  0.6748  0.1355 -0.3560
33761SOL    HW1 3662   6.353  10.522   9.901  1.1506  0.8429 -0.7195
33761SOL    HW2 3663   6.341  10.598  10.031  0.1227 -0.6638  0.1067
33762SOL     OW 3664   4.168   5.331   4.103  0.4318 -0.2023  0.4452
33762SOL    HW1 3665   4.202   5.257   4.053 -0.4179 -1.1993  1.2999
33762SOL    HW2 3666   4.074   5.333   4.084 -0.1841 -1.4647  2.9822
33763SOL     OW 3667   9.209   0.368   8.105 -0.3469 -0.1365  0.3550
33763SOL    HW1 3668   9.252   0.301   8.158  6.2437  1.4974 -1.9488
33763SOL    HW2 3669   9.204   0.330   8.017 -2.2859  0.4307  0.1617
33764SOL     OW 3670   8.683   0.946   0.868 -0.2055  0.2247 -0.2290
33764SOL    HW1 3671   8.715   0.957   0.958 -1.4975  0.9652  0.1709
33764SOL    HW2 3672   8.748   0.891   0.826  0.5698  0.0912  1.0893
33765SOL     OW 3673   0.041   5.311   4.204 -0.3382 -0.3335 -0.4032
33765SOL    HW1 3674  -0.017   5.387   4.197  0.6096  0.4135 -0.5461
33765SOL    HW2 3675   0.082   5.321   4.290  0.6271 -0.0291 -0.8753
33766SOL     OW 3676   7.074   7.552   4.858 -0.0737  0.4930 -0.0374
33766SOL    HW1 3677   7.039   7.508   4.935 -0.4605  1.1366  0.1688
33766SOL    HW2 3678   7.153   7.597   4.890  0.4270 -0.1916 -0.2893
33767SOL     OW 3679   5.688   8.942   6.276 -0.3025  0.0147  0.0515
33767SOL    HW1 3680   5.613   8.984   6.319  0.0684  0.9224 -0.1569
33767SOL    HW2 3681   5.753   9.012   6.269 -0.2388 -0.1877 -1.7190
33768SOL     OW 3682   8.665   9.264   0.454  0.0058  0.1134 -0.0190
33768SOL    HW1 3683   8.735   9.318   0.488 -0.6806  0.5959  0.6523
33768SOL    HW2 3684   8.632   9.312   0.378  0.3992 -0.1227 -0.3463
33769SOL     OW 3685  10.217  10.248   4.126 -0.0955 -0.0074  0.5821
33769SOL    HW1 3686  10.253  10.335   4.144  0.6276 -0.3311  0.7363
33769SOL    HW2 3687  10.123  10.258   4.140 -0.2094  1.1046 -0.7842
33770SOL     OW 3688   8.724   1.329   5.175  0.2533  0.0541 -0.6436
33770SOL    HW1 3689   8.812   1.330   5.137  0.4452 -0.8281 -0.2552
33770SOL    HW2 3690   8.669   1.291   5.106  0.2368  0.2740 -0.7536
33771SOL     OW 3691   6.922   3.539   0.889  0.0920  0.5688  0.0404
33771SOL    HW1 3692   7.001   3.556   0.837  0.6065 -1.4593  0.0601
33771SOL    HW2 3693   6.865   3.614   0.872  1.4932  1.4494 -0.9993
33772SOL     OW 3694   1.708   7.951   6.272  0.2617  0.2613 -0.3427
33772SOL    HW1 3695   1.665   7.880   6.320 -0.8267  1.4674  0.5361
33772SOL    HW2 3696   1.766   7.991   6.336 -0.0596  0.9346 -0.4690
33773SOL     OW 3697   6.676   3.574   1.465  0.4978 -0.7320  0.0604
33773SOL    HW1 3698   6.610   3.509   1.489  0.7112 -1.2907 -0.8108
33773SOL    HW2 3699   6.679   3.571   1.370  1.1207 -0.0393  0.0490
33774SOL     OW 3700   3.591   6.248   5.319  0.1913  0.3127 -0.0039
33774SOL    HW1 3701   3.576   6.284   5.231  1.2079  2.2781  0.5756
33774SOL    HW2 3702   3.665   6.188   5.308  0.0813  0.2699 -0.5425
33775SOL     OW 3703   3.205  10.561   3.463 -0.1955  0.0894 -0.1788
33775SOL    HW1 3704   3.158  10.481   3.439 -0.0290  0.2094 -0.9477
33775SOL    HW2 3705   3.279  10.530   3.515 -0.9538 -0.1231  0.7871
33776SOL     OW 3706   0.713  10.784   1.660  0.2319 -0.1739  0.4042
33776SOL    HW1 3707   0.679  10.872   1.675 -1.5846 -0.8832  0.7137
33776SOL    HW2 3708   0.783  10.796   1.595 -2.1380  1.1663 -2.1149
33777SOL     OW 3709   5.505   6.868   0.437  0.4648  0.7490 -0.1630
33777SOL    HW1 3710   5.533   6.930   0.370 -1.2922  0.7899 -0.9366
33777SOL    HW2 3711   5.516   6.915   0.520  0.9061  1.3992 -0.5819
33778SOL     OW 3712   9.148  10.510   0.564  0.6374 -0.1111 -0.6443
33778SOL    HW1 3713   9.216  10.446   0.545  0.2146 -0.5748 -0.6317
33778SOL    HW2 3714   9.179  10.557   0.641  1.0863 -0.0983 -0.8296
33779SOL     OW 3715   0.189   5.346   1.790  0.0479  0.6535  0.4383
33779SOL    HW1 3716   0.148   5.291   1.724  1.1568 -0.0114  0.2686
33779SOL    HW2 3717   0.122   5.358   1.857 -0.8468  0.7315 -0.4555
33780SOL     OW 3718   9.717   3.861   2.552 -0.1332  0.1118 -0.2316
33780SOL    HW1 3719   9.808   3.882   2.533  0.1721  1.7205  2.5039
33780SOL    HW2 3720   9.692   3.799   2.483  2.6820  0.3739 -1.6400
33781SOL     OW 3721   3.612   7.269   4.200  0.2351  0.2723 -0.3157
33781SOL    HW1 3722   3.607   7.364   4.206  0.0154  0.2445 -0.0521
33781SOL    HW2 3723   3.592   7.238   4.288 -1.7310 -0.0937 -0.8459
33782SOL     OW 3724   1.626   8.501   9.119  0.4070 -0.9233  0.1198
33782SOL    HW1 3725   1.603   8.577   9.066  1.8104 -0.5866 -0.0431
33782SOL    HW2 3726   1.564   8.503   9.192 -0.7521 -0.6861 -0.8413
33783SOL     OW 3727   3.920   3.954   1.397 -0.4403  0.2524 -0.0752
33783SOL    HW1 3728   3.895   3.987   1.484 -1.6834 -1.6348  0.3415
33783SOL    HW2 3729   3.881   4.017   1.336 -0.1041  1.2541  0.7055
33784SOL     OW 3730   2.688   0.179   8.671  0.1752 -0.7481  0.5824
33784SOL    HW1 3731   2.776   0.154   8.700 -0.1512 -0.4330  1.9431
33784SOL    HW2 3732   2.674   0.265   8.711 -0.1127 -0.0122 -1.0130
33785SOL     OW 3733   4.110   4.134   4.706 -0.6527 -0.0967 -0.2217
33785SOL    HW1 3734   4.068   4.209   4.664  1.0332  0.4556 -1.0281
33785SOL    HW2 3735   4.052   4.111   4.778 -1.3367  1.8147 -0.1085
33786SOL     OW 3736   2.398   2.891   0.402 -0.1120 -0.1962  0.7205
33786SOL    HW1 3737   2.418   2.941   0.481 -1.0284  1.7529 -0.2353
33786SOL    HW2 3738   2.481   2.848   0.380  0.8034  1.1637  1.3934
33787SOL     OW 3739   4.213   2.344   0.055  0.1937 -0.0391 -0.4787
33787SOL    HW1 3740   4.200   2.264   0.003 -0.0156 -0.6017  0.4116
33787SOL    HW2 3741   4.153   2.407   0.017  1.8507  0.3941 -2.5571
33788SOL     OW 3742   6.108   9.626  10.664 -0.2276 -0.2649  0.1364
33788SOL    HW1 3743   6.112   9.636  10.759  3.0294  0.8252 -0.0044
33788SOL    HW2 3744   6.193   9.656  10.633 -0.3898 -2.5709 -2.9773
33789SOL     OW 3745   1.388   4.721   2.687 -0.0842 -0.0159 -0.6038
33789SOL    HW1 3746   1.475   4.741   2.723 -0.6128 -0.7523  1.1732
33789SOL    HW2 3747   1.407   4.681   2.602  1.2386  1.1554 -0.9155
33790SOL     OW 3748   6.670   3.442   5.151 -0.1550  0.2539 -0.2273
33790SOL    HW1 3749   6.696   3.355   5.178  1.1851  0.9840  0.9550
33790SOL    HW2 3750   6.732   3.466   5.082 -0.9990  0.0060 -1.1032
33791SOL     OW 3751   8.881   9.434   3.744 -0.0921 -0.4470  0.1836
33791SOL    HW1 3752   8.798   9.483   3.747 -0.0850 -0.3826 -0.5793
33791SOL    HW2 3753   8.937   9.479   3.808  0.5512  1.7511 -1.7583
33792SOL     OW 3754   9.715  10.230   6.546 -0.1852 -0.0165 -0.0769
33792SOL    HW1 3755   9.748  10.239   6.457 -0.4385  1.6737 -0.0207
33792SOL    HW2 3756   9.721  10.318   6.583  0.7000 -0.8234  1.8654
33793SOL     OW 3757   3.028   6.485   7.734  0.0891 -0.6893 -0.1613
33793SOL    HW1 3758   2.993   6.460   7.819 -1.0527 -1.7313 -0.9195
33793SOL    HW2 3759   3.110   6.531   7.754 -1.6320  1.8082  1.6667
33794SOL     OW 3760   4.348   0.396  10.688  0.5402 -0.0135  0.3076
33794SOL    HW1 3761   4.312   0.402  10.599 -0.1931 -0.5115  0.5606
33794SOL    HW2 3762   4.404   0.318  10.686  0.3502 -0.1499  0.3463
33795SOL     OW 3763   4.018   3.880   7.698  0.3557  0.4654  0.1055
33795SOL    HW1 3764   4.004   3.891   7.792  1.3637  0.9368  0.2173
33795SOL    HW2 3765   4.004   3.787   7.682  0.0416  0.4065  0.6991
33796SOL     OW 3766   1.004  10.296   0.701  0.5561  0.2166  0.3429
33796SOL    HW1 3767   0.956  10.221   0.735  1.3793 -1.1726 -1.3827
33796SOL    HW2 3768   1.055  10.329   0.775 -0.5420 -0.3035  1.3561
33797SOL     OW 3769   8.848   9.191  10.537  0.1753  0.2293  0.4949
33797SOL    HW1 3770   8.803   9.169  10.619  0.1976 -0.5050  0.3148
33797SOL    HW2 3771   8.925   9.134  10.536  0.5966  0.7949  0.3350
33798SOL     OW 3772   5.402   5.409   8.073 -0.0749 -0.0184 -0.5790
33798SOL    HW1 3773   5.493   5.378   8.069  0.2352  0.9338 -1.5357
33798SOL    HW2 3774   5.349   5.330   8.067  0.6963 -0.4596 -2.3051
33799SOL     OW 3775   9.090   3.980   7.218 -0.2426  0.1641 -0.6523
33799SOL    HW1 3776   9.043   4.061   7.240 -1.1010 -0.4023 -0.3512
33799SOL    HW2 3777   9.059   3.916   7.282  1.4440 -0.0849 -0.0240
33800SOL     OW 3778   2.940   0.750   1.944 -0.0291  0.0076  0.1406
33800SOL    HW1 3779   2.961   0.665   1.982  0.1881  0.2281  0.5201
33800SOL    HW2 3780   2.997   0.812   1.990  0.1419  0.2990 -0.4537
33801SOL     OW 3781   8.803   7.662  10.685 -0.8782  0.5310 -0.6026
33801SOL    HW1 3782   8.774   7.683  10.774  0.7939 -0.2374  0.1714
33801SOL    HW2 3783   8.793   7.744  10.637  0.9112  1.8268  1.0755
33802SOL     OW 3784   1.374   9.324   9.077  0.4735 -0.0295 -0.0917
33802SOL    HW1 3785   1.353   9.371   8.997  0.2603  0.4849  0.2625
33802SOL    HW2 3786   1.309   9.354   9.141  0.5326 -0.5651  0.2260
33803SOL     OW 3787   0.251  10.525   9.550  0.2211  0.5133  0.9750
33803SOL    HW1 3788   0.210  10.562   9.628  0.3479  0.7843  0.9149
33803SOL    HW2 3789   0.305  10.597   9.515 -1.6418  1.1935 -0.6919
33804SOL     OW 3790   7.558   5.121   3.972  0.2344 -0.2290 -0.4191
33804SOL    HW1 3791   7.625   5.189   3.978  0.0532 -0.1110  0.5210
33804SOL    HW2 3792   7.495   5.144   4.041 -1.4121  0.3340 -2.0435
33805SOL     OW 3793   0.954   9.078   6.148 -0.2379 -0.2809  0.1261
33805SOL    HW1 3794   1.026   9.141   6.136  0.1756 -0.7014  0.3826
33805SOL    HW2 3795   0.877   9.133   6.158  0.0037  0.1749 -0.3993
33806SOL     OW 3796   0.159   9.084   6.710 -0.2180  0.7531 -0.3336
33806SOL    HW1 3797   0.154   8.994   6.745  0.7955  0.7064 -0.3011
33806SOL    HW2 3798   0.105   9.081   6.631  2.2482 -0.7458 -2.1021
33807SOL     OW 3799   6.480   8.035   2.310  0.2313  0.2002 -0.4667
33807SOL    HW1 3800   6.402   8.024   2.256  0.6833  0.3850 -1.1737
33807SOL    HW2 3801   6.488   8.130   2.321  0.0524  0.1553  0.0632
33808SOL     OW 3802   8.394  10.625   7.459  0.2915  0.0561 -0.2406
33808SOL    HW1 3803   8.476  10.594   7.420 -0.0319 -0.6420 -0.3675
33808SOL    HW2 3804   8.328  10.613   7.391  0.2325  1.4698 -0.4691
33809SOL     OW 3805   7.497   0.783   9.576  0.0543  0.2143 -0.0462
33809SOL    HW1 3806   7.465   0.863   9.617 -0.2853 -1.0363  2.2877
33809SOL    HW2 3807   7.423   0.723   9.578  0.5832 -0.4996 -0.8794
33810SOL     OW 3808   6.296   9.095   7.859 -0.4307  0.3013  0.1643
33810SOL    HW1 3809   6.267   9.101   7.950  1.0707  0.4048  0.6583
33810SOL    HW2 3810   6.262   9.010   7.829 -0.9005  0.2475  0.8197
33811SOL     OW 3811   9.614   4.389   8.857  0.5005 -0.0400  0.0247
33811SOL    HW1 3812   9.586   4.341   8.935  0.4981 -1.5339 -0.8626
33811SOL    HW2 3813   9.685   4.446   8.888 -0.2124  0.1819  1.3062
33812SOL     OW 3814   7.638   4.047   5.557  0.4337 -0.1449 -0.4417
33812SOL    HW1 3815   7.726   4.077   5.533  0.6599 -0.1809  0.3085
33812SOL    HW2 3816   7.612   3.989   5.485  0.4278  0.9799 -1.3832
33813SOL     OW 3817  10.118   8.327   8.190 -0.2827  0.3169  0.1241
33813SOL    HW1 3818  10.049   8.392   8.178 -2.3506 -1.4424  1.6821
33813SOL    HW2 3819  10.193   8.364   8.145 -1.8847  2.8800 -0.6863
33814SOL     OW 3820   4.169   5.340  10.276 -0.1336  0.4829 -0.5273
33814SOL    HW1 3821   4.209   5.253  10.280  0.5261  0.6550 -2.2991
33814SOL    HW2 3822   4.222   5.388  10.212 -2.5170  1.0772 -2.2229
33815SOL     OW 3823   1.253   4.159   8.919  0.3657 -0.5539  0.4828
33815SOL    HW1 3824   1.222   4.070   8.904 -0.0273 -0.3273 -0.0859
33815SOL    HW2 3825   1.338   4.163   8.875  1.3374 -1.2312  2.2013
33816SOL     OW 3826   3.831   9.298   3.133 -0.2644 -0.1725 -0.2951
33816SOL    HW1 3827   3.789   9.215   3.110 -3.0603  0.3548  2.3294
33816SOL    HW2 3828   3.861   9.286   3.223 -1.2776  1.7889  0.3647
33817SOL     OW 3829   4.867   9.585   1.348 -0.4281 -0.4836 -0.6397
33817SOL    HW1 3830   4.894   9.566   1.438 -1.2799  0.8198 -0.0733
33817SOL    HW2 3831   4.782   9.541   1.339 -1.4294  1.2173 -0.0056
33818SOL     OW 3832   7.278  10.592   5.449  0.6632 -0.4414 -0.0127
33818SOL    HW1 3833   7.184  10.579   5.435  0.1533  2.0416  0.5605
33818SOL    HW2 3834   7.313  10.603   5.361  0.4994 -1.6624 -0.2501
33819SOL     OW 3835  10.731   9.952   2.575 -0.0348  0.0043 -0.3514
33819SOL    HW1 3836  10.815   9.909   2.594 -0.4937  0.4737  3.4168
33819SOL    HW2 3837  10.755  10.034   2.532  1.3220 -0.4571 -0.5176
33820SOL     OW 3838   3.202   2.440   5.458  0.5182  0.0075 -0.7043
33820SOL    HW1 3839   3.246   2.525   5.461 -0.5325  0.6459 -2.2778
33820SOL    HW2 3840   3.272   2.376   5.470  1.5739  1.0526 -1.1191
33821SOL     OW 3841   2.464   0.391   1.206  0.5618  0.3595 -0.1764
33821SOL    HW1 3842   2.399   0.325   1.183  0.1386  0.3485  0.9963
33821SOL    HW2 3843   2.516   0.402   1.126  0.4724 -1.1824 -0.4786
33822SOL     OW 3844   7.501   8.292   4.048 -0.0230 -0.2075 -0.4117
33822SOL    HW1 3845   7.430   8.344   4.086  0.6483  1.2099 -1.0437
33822SOL    HW2 3846   7.572   8.297   4.112  0.1271 -0.1655 -0.5803
33823SOL     OW 3847   0.653   4.279   8.414  0.0313 -0.3121  0.2906
33823SOL    HW1 3848   0.735   4.243   8.449  0.6470  0.9071  0.1566
33823SOL    HW2 3849   0.585   4.239   8.467  0.7488 -0.9031  0.7950
33824SOL     OW 3850   4.585   3.809   9.717 -0.5769  0.0288  0.0225
33824SOL    HW1 3851   4.563   3.800   9.809  1.6776 -0.0482  0.6265
33824SOL    HW2 3852   4.508   3.779   9.670 -1.3510 -1.0520  1.8947
33825SOL     OW 3853   9.324   9.448   6.707  0.6551 -0.3059 -0.0106
33825SOL    HW1 3854   9.230   9.436   6.717  0.6097  0.4444  0.5659
33825SOL    HW2 3855   9.334   9.542   6.688  1.1874 -0.6330 -1.4500
33826SOL     OW 3856   5.616   4.111   0.334 -0.0313  0.0088 -0.2044
33826SOL    HW1 3857   5.676   4.045   0.369 -0.5900 -0.1037  0.5506
33826SOL    HW2 3858   5.589   4.074   0.249 -0.3589 -0.7505  0.2199
33827SOL     OW 3859   8.119  10.543   8.432  0.1782  0.3281  0.3381
33827SOL    HW1 3860   8.075  10.462   8.406  0.6953 -0.0005  0.4673
33827SOL    HW2 3861   8.177  10.563   8.359  0.0052  0.6218  0.2785
33828SOL     OW 3862   2.217   5.123   6.951 -0.3368  0.1184 -0.0925
33828SOL    HW1 3863   2.218   5.172   6.869  0.5772  0.3407  0.0394
33828SOL    HW2 3864   2.233   5.189   7.019  0.2302 -0.2534  0.1446
33829SOL     OW 3865   3.070   3.210   6.390 -0.0016 -0.9827 -0.5723
33829SOL    HW1 3866   2.980   3.208   6.358 -0.3531 -1.5709  0.3895
33829SOL    HW2 3867   3.119   3.256   6.322 -1.3136  0.8321 -0.3717
33830SOL     OW 3868   1.536   0.239   6.499  0.3498  0.4923  0.1842
33830SOL    HW1 3869   1.465   0.291   6.538 -0.2975 -0.4184  0.2730
33830SOL    HW2 3870   1.588   0.210   6.573  0.5899  0.8370  0.1520
33831SOL     OW 3871   5.339  10.337   5.240 -0.0893 -0.1969  0.0545
33831SOL    HW1 3872   5.262  10.377   5.280 -0.6478 -0.6172 -0.5808
33831SOL    HW2 3873   5.306  10.258   5.198  1.1099 -1.6816  1.7883
33832SOL     OW 3874   6.578   0.626   3.986  0.0674 -0.8129 -0.5483
33832SOL    HW1 3875   6.613   0.666   4.067 -0.6497 -0.1323 -0.5581
33832SOL    HW2 3876   6.490   0.597   4.010 -0.1523 -0.6009 -1.0849
33833SOL     OW 3877   3.500   2.413  10.619  0.0749  0.2459  0.2705
33833SOL    HW1 3878   3.426   2.353  10.615  0.9904 -0.9307  0.4151
33833SOL    HW2 3879   3.519   2.423  10.712 -1.6611  2.8503  0.4484
33834SOL     OW 3880   4.067   8.377   6.238  0.1744  0.0478 -0.3133
33834SOL    HW1 3881   3.994   8.354   6.295  0.6394  0.7132  0.5624
33834SOL    HW2 3882   4.026   8.411   6.158 -0.4774  0.8844  0.3682
33835SOL     OW 3883   0.456   3.646   0.681  0.1219  1.4135  0.0488
33835SOL    HW1 3884   0.389   3.618   0.743 -1.8461  2.2716 -1.5908
33835SOL    HW2 3885   0.534   3.596   0.706 -1.1749  0.1569  1.8386
33836SOL     OW 3886   0.374   4.802   4.654  0.0301  0.0076  0.1942
33836SOL    HW1 3887   0.388   4.708   4.639 -0.8975  0.0697 -1.2383
33836SOL    HW2 3888   0.459   4.842   4.634  0.3705 -0.4958  0.5937
33837SOL     OW 3889   0.420   2.056   2.414  0.9045  0.1275  0.0851
33837SOL    HW1 3890   0.419   1.960   2.424 -0.0537  0.2443  1.4683
33837SOL    HW2 3891   0.458   2.071   2.328 -0.8310 -1.5785 -1.0541
33838SOL     OW 3892   8.327   2.486   6.769  0.3439  0.3749 -0.0083
33838SOL    HW1 3893   8.344   2.457   6.858 -1.2234  1.0760  0.5724
33838SOL    HW2 3894   8.380   2.565   6.759 -0.3958  0.9963  0.7757
33839SOL     OW 3895   6.349   6.093   6.725 -0.3768  0.1691  0.0976
33839SOL    HW1 3896   6.348   6.055   6.813  0.7433  0.1180  0.1002
33839SOL    HW2 3897   6.320   6.184   6.738 -0.5716  0.0597  0.4549
33840SOL     OW 3898   0.011   0.984   0.853 -0.6768  0.3437 -0.6802
33840SOL    HW1 3899   0.018   0.889   0.855 -1.5534  0.1504 -3.1523
33840SOL    HW2 3900   0.090   1.015   0.898  0.1404 -1.5328 -0.7277
33841SOL     OW 3901  10.314   4.059   4.448  0.7668  0.9776 -0.2746
33841SOL    HW1 3902  10.395   4.033   4.492  0.6577  0.8181 -0.1698
33841SOL    HW2 3903  10.336   4.056   4.355  0.5940 -0.0106 -0.2843
33842SOL     OW 3904   8.438   4.032   8.669 -0.7166 -0.4760  0.2555
33842SOL    HW1 3905   8.516   4.065   8.714 -0.6885  1.0301 -0.8070
33842SOL    HW2 3906   8.366   4.085   8.703 -0.8624 -0.0967 -0.6098
33843SOL     OW 3907   6.386   7.159   9.274 -0.2506 -0.8943  0.4661
33843SOL    HW1 3908   6.376   7.095   9.345  0.1885 -0.3273  1.0490
33843SOL    HW2 3909   6.301   7.160   9.231 -0.6562 -0.9423  1.2476
33844SOL     OW 3910   9.681  10.387   6.909  0.3633  0.3173 -1.0790
33844SOL    HW1 3911   9.744  10.406   6.978  1.5209  0.3090 -2.1095
33844SOL    HW2 3912   9.671  10.292   6.910  0.3694  0.3183 -0.9184
33845SOL     OW 3913   1.407   9.878   5.598  0.5780 -0.2611  0.3329
33845SOL    HW1 3914   1.334   9.898   5.539  2.0297  0.2472 -1.3430
33845SOL    HW2 3915   1.443   9.963   5.622 -0.2948 -0.4241  2.4435
33846SOL     OW 3916   3.514   1.858   2.286 -0.6787  0.5526  0.2088
33846SOL    HW1 3917   3.567   1.868   2.206 -3.0736  1.0485 -1.4218
33846SOL    HW2 3918   3.508   1.764   2.299 -0.8697  0.4371 -0.6447
33847SOL     OW 3919   4.274   3.462   1.888 -0.1278 -0.3164  0.4017
33847SOL    HW1 3920   4.369   3.457   1.893 -0.1856 -4.1662  0.5115
33847SOL    HW2 3921   4.254   3.447   1.796 -0.6002 -2.6680  0.8232
33848SOL     OW 3922  10.562   5.485   0.275  0.2759  0.6278 -0.1435
33848SOL    HW1 3923  10.619   5.559   0.255  1.7169 -0.6222 -0.9257
33848SOL    HW2 3924  10.608   5.409   0.238 -0.4776 -0.8363  1.7533
33849SOL     OW 3925   8.975   7.692   0.583  0.8498  0.2197 -0.2002
33849SOL    HW1 3926   9.064   7.676   0.616  0.5559  0.6755  0.8470
33849SOL    HW2 3927   8.984   7.692   0.488  1.6591 -1.6082 -0.1690
33850SOL     OW 3928  10.324   2.058   2.432  0.1248 -0.1829  0.2102
33850SOL    HW1 3929  10.246   2.068   2.378  0.7934 -2.5201 -1.2993
33850SOL    HW2 3930  10.346   2.147   2.459 -1.1779  0.8902 -2.0361
33851SOL     OW 3931   8.217   6.465   1.805  0.1556  0.3992 -0.0108
33851SOL    HW1 3932   8.189   6.521   1.877 -0.3895  0.4947 -0.2910
33851SOL    HW2 3933   8.183   6.508   1.726 -0.5172 -0.4655 -0.2137
33852SOL     OW 3934   7.365   0.380   3.590  0.4101 -0.1417 -0.5745
33852SOL    HW1 3935   7.331   0.291   3.581  0.2415  0.1201 -3.4055
33852SOL    HW2 3936   7.390   0.405   3.501 -0.2515  2.9167 -0.0051
33853SOL     OW 3937   9.680   0.708   7.746 -0.4424 -0.2016  0.2300
33853SOL    HW1 3938   9.646   0.619   7.749 -2.0802  0.4038  0.5208
33853SOL    HW2 3939   9.632   0.750   7.675  1.5273  0.0140 -1.0671
33854SOL     OW 3940   4.336   1.753   0.037  0.3111  0.2691 -0.0341
33854SOL    HW1 3941   4.316   1.664   0.066  0.9254  0.1844  0.1480
33854SOL    HW2 3942   4.290   1.810   0.098  1.0129  0.0826  0.6863
33855SOL     OW 3943   1.844   8.931   8.978  0.3581  0.3651  0.2787
33855SOL    HW1 3944   1.763   8.930   9.029 -0.5144  2.2162 -0.9635
33855SOL    HW2 3945   1.828   8.868   8.907 -0.3704  1.3039 -0.4265
33856SOL     OW 3946   9.065   1.010   8.093  0.0954 -0.0862 -0.3040
33856SOL    HW1 3947   8.993   1.013   8.155  0.6701  0.9024  0.3404
33856SOL    HW2 3948   9.099   0.921   8.100 -0.6894 -0.3833 -0.1936
33857SOL     OW 3949   5.270   8.256  10.305 -0.0142  0.3020 -0.1835
33857SOL    HW1 3950   5.333   8.191  10.337 -0.1236 -1.1146 -2.5840
33857SOL    HW2 3951   5.282   8.331  10.363  0.2729 -1.7267  2.5885
33858SOL     OW 3952   0.187   4.721   1.981 -0.5713  0.0655 -0.0852
33858SOL    HW1 3953   0.241   4.759   2.050  1.5212 -0.7115 -1.1904
33858SOL    HW2 3954   0.243   4.722   1.903 -1.3600 -2.7181 -0.8075
33859SOL     OW 3955   3.035   1.634   0.250 -0.4662  1.1060  0.2283
33859SOL    HW1 3956   3.049   1.653   0.157 -0.6815 -1.7395 -0.4933
33859SOL    HW2 3957   3.120   1.649   0.291  0.9929 -1.9137 -1.3635
33860SOL     OW 3958   6.337   0.011   3.985 -0.2443 -0.0449  0.0481
33860SOL    HW1 3959   6.375   0.096   4.006 -0.9308  0.0170  1.0864
33860SOL    HW2 3960   6.243   0.028   3.975 -0.2002 -0.4253 -1.2171
33861SOL     OW 3961   7.784   2.379   1.524  0.6863 -0.1065  0.0886
33861SOL    HW1 3962   7.766   2.353   1.614 -1.2037 -1.1720 -0.5436
33861SOL    HW2 3963   7.710   2.345   1.473  2.3577 -0.7535 -2.1026
33862SOL     OW 3964   4.082  10.634  10.303 -0.0859 -0.0102 -0.1138
33862SOL    HW1 3965   4.056  10.587  10.383  1.3478 -1.1829 -0.2978
33862SOL    HW2 3966   4.065  10.726  10.324 -1.5339 -0.4454  0.8250
33863SOL     OW 3967   1.323   0.771   9.347 -0.1569 -0.0636 -0.1812
33863SOL    HW1 3968   1.338   0.686   9.390 -1.0675 -0.4122 -0.5195
33863SOL    HW2 3969   1.289   0.827   9.417 -0.7660 -0.3596 -0.2332
33864SOL     OW 3970   3.660   8.453   4.592  0.0842  0.2556  0.4100
33864SOL    HW1 3971   3.608   8.392   4.539 -0.3657  0.9299  0.0711
33864SOL    HW2 3972   3.705   8.396   4.655  2.3812 -0.8460 -2.0678
33865SOL     OW 3973   0.549   6.963   1.268  0.5321  0.2585 -0.3515
33865SOL    HW1 3974   0.549   6.876   1.228  0.5403 -0.2790  0.7697
33865SOL    HW2 3975   0.619   7.011   1.223  0.9603 -0.5335 -0.5401
33866SOL     OW 3976   9.171  10.735   2.401  0.7732 -1.1827 -0.3012
33866SOL    HW1 3977   9.235  10.672   2.370  1.6044  0.3422 -1.9170
33866SOL    HW2 3978   9.167  10.800   2.331 -0.2348  0.4012  1.1538
33867SOL     OW 3979   2.007   9.608   3.595  0.0046  0.2101 -0.3276
33867SOL    HW1 3980   1.991   9.626   3.687 -0.8603 -0.5061 -0.3281
33867SOL    HW2 3981   2.091   9.650   3.576  0.9802 -0.9791  1.1735
33868SOL     OW 3982   8.537   9.300   4.471 -0.1667  0.0145  0.1199
33868SOL    HW1 3983   8.465   9.271   4.527 -1.1401 -0.4740 -1.3092
33868SOL    HW2 3984   8.494   9.329   4.391  0.9585  3.1927  0.5472
33869SOL     OW 3985  10.244  10.154   2.718  0.5384 -0.0198  0.9293
33869SOL    HW1 3986  10.169  10.095   2.713 -0.7781  1.5772  1.2226
33869SOL    HW2 3987  10.277  10.143   2.807  1.1302 -1.2532  0.5784
33870SOL     OW 3988  10.474   4.864  10.749 -0.4149  0.2674  0.3342
33870SOL    HW1 3989  10.453   4.866  10.655 -2.0230 -1.2673  0.6068
33870SOL    HW2 3990  10.508   4.951  10.768 -0.5489  0.7744 -1.5711
33871SOL     OW 3991   4.690   2.872   6.807  0.1555 -0.5826 -0.2554
33871SOL    HW1 3992   4.723   2.946   6.858  1.6074 -0.9643 -0.5745
33871SOL    HW2 3993   4.611   2.904   6.765  2.5509  2.0577 -3.2514
33872SOL     OW 3994  10.745   4.323   0.573  0.4558  0.0667 -0.3212
33872SOL    HW1 3995  10.726   4.284   0.487 -1.4383  0.0492  0.0653
33872SOL    HW2 3996  10.680   4.392   0.583  1.2954  0.7462  0.6955
33873SOL     OW 3997   5.790   9.171   7.412  0.4597 -1.2254  0.4752
33873SOL    HW1 3998   5.848   9.235   7.453 -0.6886 -1.0187  1.8375
33873SOL    HW2 3999   5.744   9.130   7.485 -1.2679 -1.2348 -0.5613
33874SOL     OW 4000   1.837   7.632   3.237 -0.2317  0.4465  0.3397
33874SOL    HW1 4001   1.912   7.605   3.183 -0.7233  1.4954 -0.9309
33874SOL    HW2 4002   1.856   7.723   3.261 -0.9271  0.6062  0.3102
33875SOL     OW 4003   4.172   5.915   6.389  0.1516 -0.5918  0.1482
33875SOL    HW1 4004   4.215   5.980   6.334  1.3825 -2.1712 -0.8559
33875SOL    HW2 4005   4.082   5.945   6.398  0.6592  1.1563 -0.3807
33876SOL     OW 4006   8.665   0.347   7.754  0.3391 -0.1461  0.0384
33876SOL    HW1 4007   8.709   0.361   7.670  1.1189 -0.9372  0.2904
33876SOL    HW2 4008   8.580   0.389   7.744  0.3747 -0.3148 -1.1864
33877SOL     OW 4009   6.185   1.085   6.999  0.0675  0.1695  0.2234
33877SOL    HW1 4010   6.153   1.162   6.953 -1.4341  0.5085  1.7629
33877SOL    HW2 4011   6.116   1.063   7.062  2.5244  0.6183  3.3579
33878SOL     OW 4012   4.086   2.910   7.722  0.4297  0.2366 -0.1064
33878SOL    HW1 4013   3.998   2.939   7.698  0.1711 -0.5854 -0.1776
33878SOL    HW2 4014   4.141   2.987   7.707 -0.4497  1.1493  1.1099
33879SOL     OW 4015   5.088   6.875  10.629 -0.0081  0.1264 -0.1472
33879SOL    HW1 4016   5.088   6.802  10.691 -2.2055 -0.6188 -0.8946
33879SOL    HW2 4017   5.130   6.840  10.551  0.4474  0.2161  0.0581
33880SOL     OW 4018   7.458   7.614   2.264 -0.3385 -0.5059 -0.1310
33880SOL    HW1 4019   7.467   7.593   2.170 -0.3270  1.8334 -0.7056
33880SOL    HW2 4020   7.533   7.570   2.305 -0.3578 -1.5930 -1.1908
33881SOL     OW 4021   1.679   5.938   4.068  0.4612  0.5099 -0.5198
33881SOL    HW1 4022   1.644   6.003   4.129 -0.0184  0.4857 -0.7652
33881SOL    HW2 4023   1.648   5.854   4.102  2.2773  0.2482  0.6253
33882SOL     OW 4024   1.541   0.887   8.958  0.1014  0.0360  0.3578
33882SOL    HW1 4025   1.452   0.866   8.986  0.8012  0.8445  3.5120
33882SOL    HW2 4026   1.598   0.852   9.027  2.6114 -2.9814 -2.8494
33883SOL     OW 4027  10.608   2.736   9.766  0.2155  0.0602 -0.2327
33883SOL    HW1 4028  10.600   2.811   9.707  1.0649 -0.8132 -1.4992
33883SOL    HW2 4029  10.620   2.661   9.708  0.5216 -0.9059  1.0454
33884SOL     OW 4030   7.505   9.562   3.884 -0.5257  0.0027 -0.3178
33884SOL    HW1 4031   7.508   9.470   3.858  1.0394  0.7662 -3.3122
33884SOL    HW2 4032   7.584   9.574   3.938  0.5604  0.0319 -1.8517
33885SOL     OW 4033   6.834   8.291   6.571  0.3080 -0.0995  0.1977
33885SOL    HW1 4034   6.885   8.315   6.494  0.6871 -0.1001  0.4496
33885SOL    HW2 4035   6.891   8.311   6.646 -0.8683  2.0294  0.6102
33886SOL     OW 4036   4.169   7.148   6.354  0.0771  0.3389  0.0259
33886SOL    HW1 4037   4.102   7.093   6.393  0.7257  0.6192  1.6224
33886SOL    HW2 4038   4.135   7.237   6.363  0.8616  0.5290  1.3340
33887SOL     OW 4039   6.943   2.608   8.325 -0.1703 -1.1627  0.1425
33887SOL    HW1 4040   6.884   2.680   8.344 -1.4677 -2.2319  0.2961
33887SOL    HW2 4041   7.030   2.649   8.320 -0.6283  0.1341  1.8882
33888SOL     OW 4042  10.513   5.906  10.492  0.1806  0.6099  1.2198
33888SOL    HW1 4043  10.594   5.855  10.483 -0.7572 -0.7638 -0.0994
33888SOL    HW2 4044  10.493   5.934  10.402 -1.1059  0.3863  1.4120
33889SOL     OW 4045   4.174   9.750   2.795  0.0492  0.0846  0.5640
33889SOL    HW1 4046   4.262   9.730   2.825  0.5391 -1.4763 -1.6004
33889SOL    HW2 4047   4.122   9.673   2.820  0.0031 -0.2861 -0.5725
33890SOL     OW 4048  10.581   5.510   5.396 -0.0455  0.1019  0.2047
33890SOL    HW1 4049  10.504   5.459   5.422 -0.5985 -0.1614 -1.7732
33890SOL    HW2 4050  10.654   5.450   5.409 -0.5705 -0.8762 -1.0683
33891SOL     OW 4051   1.892   1.859   7.711  0.0655 -0.7511 -0.2825
33891SOL    HW1 4052   1.972   1.903   7.681 -0.5315 -0.2371 -1.1569
33891SOL    HW2 4053   1.885   1.782   7.656 -1.4934  0.6409 -2.1418
33892SOL     OW 4054   4.244   8.685   4.983  0.1357 -0.1840  0.8782
33892SOL    HW1 4055   4.337   8.693   4.963 -0.1462 -0.9578 -0.9625
33892SOL    HW2 4056   4.237   8.606   5.037  0.3748 -1.2713 -0.6236
33893SOL     OW 4057   8.004   7.953   3.502  0.5896  0.0005  0.0518
33893SOL    HW1 4058   8.033   8.031   3.455 -0.6758 -0.0965 -0.9536
33893SOL    HW2 4059   7.973   7.986   3.586 -0.3794  0.6965 -0.5408
33894SOL     OW 4060   4.592   2.382   4.030  0.3453  0.5715 -0.4732
33894SOL    HW1 4061   4.651   2.336   4.089 -0.7855  1.0655  1.1146
33894SOL    HW2 4062   4.645   2.454   3.994  1.6017 -0.8609 -1.6147
33895SOL     OW 4063   7.033   5.592   0.293 -0.4647  0.1102 -0.6137
33895SOL    HW1 4064   7.009   5.581   0.200 -2.5568  1.2805 -0.2834
33895SOL    HW2 4065   6.954   5.630   0.333  0.1779 -0.9430  1.7854
33896SOL     OW 4066   5.058   0.207   1.491  0.6484 -0.1111 -0.4665
33896SOL    HW1 4067   5.103   0.195   1.574 -0.5412  1.7111  0.4911
33896SOL    HW2 4068   5.116   0.264   1.440 -0.6430  2.6715  0.9652
33897SOL     OW 4069   0.145   5.690   1.762 -0.1969 -0.2781  0.3320
33897SOL    HW1 4070   0.220   5.647   1.804 -0.6724 -0.7713  0.6848
33897SOL    HW2 4071   0.148   5.780   1.794  0.3813 -0.2311  0.1594
33898SOL     OW 4072   1.833   7.746   3.873 -0.2034 -0.4344  0.4511
33898SOL    HW1 4073   1.805   7.767   3.784 -0.0963  1.9385  0.9050
33898SOL    HW2 4074   1.806   7.822   3.925  1.3821 -0.9277  2.0951
33899SOL     OW 4075   8.746   4.907   8.901  0.1796 -0.0999 -0.1421
33899SOL    HW1 4076   8.790   4.893   8.985 -0.7398  1.1015  0.5635
33899SOL    HW2 4077   8.789   4.985   8.864  1.5586 -1.4176 -1.5047
33900SOL     OW 4078   8.966   3.022   0.524  0.4340 -0.4415 -0.0574
33900SOL    HW1 4079   9.007   3.056   0.445 -1.7742  1.7353 -0.3906
33900SOL    HW2 4080   8.882   2.987   0.494 -0.5107  0.5536  1.3090
33901SOL     OW 4081   5.201   3.556   9.127  0.1670 -0.0202 -0.0866
33901SOL    HW1 4082   5.261   3.487   9.101 -0.7251 -1.3010  1.0771
33901SOL    HW2 4083   5.126   3.510   9.165  0.3669  1.5730  2.5180
33902SOL     OW 4084   4.700   5.694   1.316 -0.2294 -0.0554  0.1747
33902SOL    HW1 4085   4.619   5.644   1.312  0.5406 -1.3231 -0.4915
33902SOL    HW2 4086   4.678   5.772   1.366 -1.5956 -0.8657  0.9087
33903SOL     OW 4087   4.444   7.801   3.318 -0.6329 -0.2803  0.1147
33903SOL    HW1 4088   4.503   7.826   3.390 -1.3212 -0.0634  0.6107
33903SOL    HW2 4089   4.463   7.709   3.303 -0.7166 -0.4173  0.8027
33904SOL     OW 4090   4.100   5.181   2.064  0.0481  0.5312 -0.2868
33904SOL    HW1 4091   4.053   5.180   2.147  0.8832  0.6181  0.1944
33904SOL    HW2 4092   4.190   5.157   2.086 -0.2393 -2.0353 -1.4990
33905SOL     OW 4093   6.458   4.358   7.357 -0.0485  0.3242  0.2936
33905SOL    HW1 4094   6.381   4.305   7.338  0.7990 -1.0232  0.4665
33905SOL    HW2 4095   6.525   4.295   7.384  1.0305  1.4795  0.4443
33906SOL     OW 4096   5.462   4.220   0.579 -0.1794  0.7746 -0.1999
33906SOL    HW1 4097   5.536   4.193   0.525 -0.7649  0.2942 -0.7770
33906SOL    HW2 4098   5.384   4.199   0.527 -0.7689  0.2445  0.8474
33907SOL     OW 4099   5.524  10.566   7.054 -0.0848 -0.2410  0.2721
33907SOL    HW1 4100   5.442  10.607   7.027  0.7179  1.5884  0.3936
33907SOL    HW2 4101   5.570  10.548   6.972 -1.5386 -3.5670  0.0467
33908SOL     OW 4102   3.845   1.938   9.096 -0.1063  0.0587 -0.0981
33908SOL    HW1 4103   3.833   1.851   9.133  1.7032 -0.4538 -0.5880
33908SOL    HW2 4104   3.761   1.960   9.056 -1.0156 -0.8407  1.2622
33909SOL     OW 4105   2.043   4.959   7.776 -0.3284  0.2747 -0.1745
33909SOL    HW1 4106   1.963   5.005   7.753 -1.1463 -0.9015  0.2211
33909SOL    HW2 4107   2.075   5.002   7.855 -0.4908  0.8273 -0.4081
33910SOL     OW 4108   5.915   4.905   5.910 -0.5758  0.5746  0.5717
33910SOL    HW1 4109   5.838   4.883   5.963 -1.7511  0.8748 -0.9639
33910SOL    HW2 4110   5.984   4.922   5.975 -1.5988 -0.3460  1.9647
33911SOL     OW 4111   5.108   7.095   6.713 -0.1665  0.3108  0.2568
33911SOL    HW1 4112   5.047   7.035   6.670  0.2166  1.0360 -1.3634
33911SOL    HW2 4113   5.060   7.128   6.789 -1.4312  0.0929 -0.4239
33912SOL     OW 4114   5.958   5.954   9.639  0.2613  0.5770  0.1775
33912SOL    HW1 4115   5.977   6.046   9.656 -1.8986  1.3875 -1.3623
33912SOL    HW2 4116   6.042   5.910   9.651  1.2316  2.6298  1.5387
33913SOL     OW 4117   6.246   9.007   0.872 -0.3761 -0.3845  0.6583
33913SOL    HW1 4118   6.221   9.099   0.860 -0.5106 -0.3731  1.0190
33913SOL    HW2 4119   6.296   8.986   0.793  0.3395  0.2340  0.9239
33914SOL     OW 4120  10.197   3.283   9.441 -0.2023  0.3067  0.5642
33914SOL    HW1 4121  10.215   3.377   9.445 -0.9080  0.6387 -2.1096
33914SOL    HW2 4122  10.120   3.276   9.384 -0.3154 -1.8952  0.9130
33915SOL     OW 4123   6.309   8.040   5.801 -0.1773  0.2346 -0.0848
33915SOL    HW1 4124   6.327   8.130   5.829 -0.3535  0.4401 -0.6108
33915SOL    HW2 4125   6.275   8.050   5.712 -1.3202 -0.2546  0.2764
33916SOL     OW 4126   0.722   9.372   9.538 -0.1254 -0.4307  0.2096
33916SOL    HW1 4127   0.736   9.292   9.588  3.2583  0.0645  0.2818
33916SOL    HW2 4128   0.742   9.347   9.447 -1.3744 -0.1781 -0.1505
33917SOL     OW 4129   1.864   3.178   6.859  0.1449  0.2464  0.1764
33917SOL    HW1 4130   1.805   3.103   6.854  1.7738 -1.4289  3.3684
33917SOL    HW2 4131   1.925   3.166   6.787  0.3043 -1.4695  0.5592
33918SOL     OW 4132   1.057   5.678   0.047  0.3382 -0.1448 -0.0429
33918SOL    HW1 4133   1.125   5.729   0.003  0.3576 -0.5249 -0.4603
33918SOL    HW2 4134   0.975   5.717   0.018  0.3538 -0.3345 -0.3514
33919SOL     OW 4135   5.431   8.797  10.030 -0.3426  0.1338  0.3497
33919SOL    HW1 4136   5.468   8.739   9.964 -0.2328 -0.3349  0.8111
33919SOL    HW2 4137   5.366   8.850   9.983 -1.5006 -1.3620  0.1942
33920SOL     OW 4138   1.807   5.448   9.126 -0.3394  0.1699 -0.3290
33920SOL    HW1 4139   1.758   5.478   9.048 -0.1782  0.8758 -0.1662
33920SOL    HW2 4140   1.761   5.488   9.200  0.2791  0.5717 -0.1514
33921SOL     OW 4141   5.170   5.440   9.386 -0.2920 -0.0112  0.0310
33921SOL    HW1 4142   5.260   5.423   9.413 -0.0068 -0.9021 -1.3480
33921SOL    HW2 4143   5.169   5.533   9.362  0.6631 -0.3131 -1.2946
33922SOL     OW 4144   8.808   5.410   8.946 -0.0748  0.1575  0.3445
33922SOL    HW1 4145   8.815   5.497   8.986 -1.5626  0.4418  0.0415
33922SOL    HW2 4146   8.743   5.365   8.999 -0.2735 -0.3165 -0.2950
33923SOL     OW 4147  10.346   0.653   4.226  0.6228  0.0438 -0.1128
33923SOL    HW1 4148  10.422   0.606   4.260 -0.0831  0.3281  1.9766
33923SOL    HW2 4149  10.275   0.631   4.287 -1.3356 -1.1924 -2.6462
33924SOL     OW 4150   5.095   8.618   4.931 -0.3759  0.0735  0.4861
33924SOL    HW1 4151   5.026   8.675   4.965 -0.8041  0.0278 -0.2883
33924SOL    HW2 4152   5.100   8.639   4.838  0.6454  0.0543  0.5212
33925SOL     OW 4153   8.170   8.127   1.098 -0.0246 -0.3610  1.0319
33925SOL    HW1 4154   8.133   8.091   1.018 -0.1470  1.6581  0.1104
33925SOL    HW2 4155   8.144   8.066   1.167 -0.3384 -1.8793 -0.3823
33926SOL     OW 4156   0.431   3.341   4.154 -0.0190 -0.0730 -0.2954
33926SOL    HW1 4157   0.388   3.282   4.093 -0.4885  0.7984 -0.8373
33926SOL    HW2 4158   0.366   3.359   4.221  0.5394 -1.1285  0.5549
33927SOL     OW 4159  10.635   9.665   8.811  0.0328 -0.1901 -0.2270
33927SOL    HW1 4160  10.623   9.631   8.722 -0.0762 -1.7636  0.3554
33927SOL    HW2 4161  10.717   9.714   8.807 -0.4842  0.6532 -1.4242
33928SOL     OW 4162   1.886   5.961   8.374  0.1711 -0.0187  0.1016
33928SOL    HW1 4163   1.841   6.025   8.320  1.2385  1.2192  0.6222
33928SOL    HW2 4164   1.942   5.913   8.312 -1.0161 -0.8465 -0.3715
33929SOL     OW 4165   9.999   7.965   7.558 -0.1226 -0.2093 -0.0889
33929SOL    HW1 4166   9.940   7.997   7.626  0.9305  0.2559  0.6289
33929SOL    HW2 4167  10.048   7.894   7.600 -0.1194 -0.5588 -0.6635
33930SOL     OW 4168   8.396   0.554   3.621 -0.0189  0.4337  0.4055
33930SOL    HW1 4169   8.398   0.545   3.525  1.9956  1.2987  0.3224
33930SOL    HW2 4170   8.350   0.637   3.636 -0.7480  0.0739  0.2420
33931SOL     OW 4171   6.824   5.238   1.871 -0.0741 -0.4081 -0.1113
33931SOL    HW1 4172   6.910   5.226   1.911 -0.0362  2.4227  0.9136
33931SOL    HW2 4173   6.841   5.240   1.777  0.6118 -1.9985 -0.0505
33932SOL     OW 4174   0.637   0.610  10.245 -0.0895 -0.5605 -0.1341
33932SOL    HW1 4175   0.580   0.669  10.195  0.4415  0.7821  0.7830
33932SOL    HW2 4176   0.580   0.538  10.270 -0.8875 -0.2199 -0.8954
33933SOL     OW 4177   4.290   5.611   7.450  0.1411 -0.2121 -0.2420
33933SOL    HW1 4178   4.343   5.545   7.405  1.5277  0.8209 -0.1754
33933SOL    HW2 4179   4.307   5.595   7.543 -1.3418 -1.2195 -0.1220
33934SOL     OW 4180   3.957  10.230   6.387  0.4813  0.2015  0.4808
33934SOL    HW1 4181   3.982  10.322   6.393 -0.3550  0.4078  0.9060
33934SOL    HW2 4182   3.867  10.227   6.419  1.2838 -1.1294  2.8867
33935SOL     OW 4183   1.950   8.858   6.540  0.1056 -0.1558 -0.1993
33935SOL    HW1 4184   1.972   8.793   6.474 -0.9585 -1.4234  0.6437
33935SOL    HW2 4185   1.906   8.809   6.609 -3.1465  1.7645 -0.6577
33936SOL     OW 4186   4.461   0.207   1.817  0.2654  0.1797  0.2651
33936SOL    HW1 4187   4.536   0.267   1.820  1.8154 -1.6230 -0.0869
33936SOL    HW2 4188   4.472   0.160   1.735 -0.8903 -0.5921  0.5293
33937SOL     OW 4189   4.618   1.272   8.814  0.0067 -0.0589 -0.2630
33937SOL    HW1 4190   4.662   1.295   8.732 -0.2572 -2.0666 -1.0216
33937SOL    HW2 4191   4.672   1.311   8.882  1.7027 -0.5194 -1.2861
33938SOL     OW 4192   9.520   1.372  10.688  0.2105 -0.3401 -0.3662
33938SOL    HW1 4193   9.488   1.288  10.655  1.2649 -0.6740 -0.5799
33938SOL    HW2 4194   9.597   1.349  10.740 -1.7498  0.0485  3.0330
33939SOL     OW 4195   9.718   6.001   2.372  0.3876 -0.1226 -0.1809
33939SOL    HW1 4196   9.701   5.990   2.466  0.9397 -2.0929 -0.2731
33939SOL    HW2 4197   9.753   5.917   2.344  0.3291  0.4663 -2.1576
33940SOL     OW 4198   4.780   0.339   4.811 -0.3541  0.2237  0.3730
33940SOL    HW1 4199   4.824   0.343   4.726 -0.5813  1.6386  0.2889
33940SOL    HW2 4200   4.708   0.400   4.803 -1.5910 -1.1089  0.9444
33941SOL     OW 4201   9.669   9.307   0.105  0.1945 -0.2576  0.3758
33941SOL    HW1 4202   9.673   9.237   0.041 -0.7775 -0.3448  0.3921
33941SOL    HW2 4203   9.588   9.355   0.084  0.6148  0.5918  0.6306
33942SOL     OW 4204   0.621   5.054   1.650 -0.9820 -0.3041 -0.7106
33942SOL    HW1 4205   0.545   4.997   1.662  0.6362 -2.2905  0.6581
33942SOL    HW2 4206   0.693   4.995   1.630  0.3089  1.5078 -1.6975
33943SOL     OW 4207   9.282   9.852   7.314  0.5290 -0.1165 -0.1268
33943SOL    HW1 4208   9.349   9.879   7.250  1.5820 -1.8540  0.1633
33943SOL    HW2 4209   9.318   9.773   7.354 -0.9449 -0.1147  1.3184
33944SOL     OW 4210   9.504   0.724   9.654  0.0618 -0.6117  0.6629
33944SOL    HW1 4211   9.438   0.745   9.721 -0.5061 -0.0586 -0.0490
33944SOL    HW2 4212   9.465   0.653   9.604 -0.4082  0.3022 -0.3116
33945SOL     OW 4213   4.757   4.214   1.267  0.2551  0.0184 -0.2209
33945SOL    HW1 4214   4.675   4.183   1.306  2.0297 -2.1342  2.2232
33945SOL    HW2 4215   4.756   4.309   1.282 -1.0927 -0.1762  1.2422
33946SOL     OW 4216   7.156   5.141   5.340 -0.1721  0.2656 -0.4842
33946SOL    HW1 4217   7.184   5.089   5.416 -1.8033  0.7568  0.4965
33946SOL    HW2 4218   7.238   5.165   5.296  0.6804 -2.5040 -0.5865
33947SOL     OW 4219   0.469   7.559   7.643 -0.9004  0.3367  0.1190
33947SOL    HW1 4220   0.474   7.565   7.738  2.0779  1.1074  0.0330
33947SOL    HW2 4221   0.417   7.635   7.616  0.1594  1.4401  1.0684
33948SOL     OW 4222   6.482   0.901  10.606 -0.4030  0.8604 -0.0088
33948SOL    HW1 4223   6.492   0.917  10.512 -1.2799 -1.2497 -0.5184
33948SOL    HW2 4224   6.558   0.944  10.645  1.6334 -0.6259 -2.0058
33949SOL     OW 4225   4.607   1.926   6.761  0.2047  0.3445 -0.4775
33949SOL    HW1 4226   4.684   1.883   6.798 -0.4789 -0.4855  0.0126
33949SOL    HW2 4227   4.536   1.902   6.820 -0.2102  2.1673 -0.1862
33950SOL     OW 4228   9.961   1.055   3.207 -0.0642  0.9351  0.0020
33950SOL    HW1 4229   9.873   1.027   3.183  0.1062  1.5803 -1.4492
33950SOL    HW2 4230   9.985   0.997   3.280 -1.1661 -0.1393 -0.4541
33951SOL     OW 4231   5.940   0.656   1.066 -0.1644 -0.1372  0.3633
33951SOL    HW1 4232   6.000   0.612   1.127  0.2902 -0.9632 -0.6415
33951SOL    HW2 4233   5.981   0.646   0.981  0.1099  2.5702  0.0906
33952SOL     OW 4234  10.199   5.126   1.758  0.2325  0.1555  0.0364
33952SOL    HW1 4235  10.279   5.130   1.706  0.4901  1.1762  0.4893
33952SOL    HW2 4236  10.230   5.121   1.849 -0.2137  0.3424  0.1992
33953SOL     OW 4237   1.551   6.173   6.077  0.5180 -0.5598 -0.6118
33953SOL    HW1 4238   1.594   6.258   6.089  0.3609 -0.0783 -2.9411
33953SOL    HW2 4239   1.621   6.109   6.088  0.7362 -0.1079  0.7015
33954SOL     OW 4240   5.801   0.488   9.238  0.4580  0.4677 -0.2615
33954SOL    HW1 4241   5.849   0.492   9.156  1.2602  0.0359  0.1705
33954SOL    HW2 4242   5.724   0.434   9.219  1.0696 -0.3305 -0.5359
33955SOL     OW 4243   0.801   8.839   6.942 -0.5907  0.3363 -0.0900
33955SOL    HW1 4244   0.834   8.788   7.016 -1.4090 -0.9070 -0.5567
33955SOL    HW2 4245   0.750   8.909   6.983 -0.7719 -0.1485  0.5359
33956SOL     OW 4246   8.647   3.510   3.431  0.1432  0.3752 -0.5361
33956SOL    HW1 4247   8.635   3.541   3.341 -0.9371  0.9198 -0.2299
33956SOL    HW2 4248   8.739   3.486   3.436  0.3716  0.9419 -1.6024
33957SOL     OW 4249   7.455   0.707   4.472  0.5827  0.2305  0.1368
33957SOL    HW1 4250   7.481   0.615   4.461 -1.9666 -0.8150  1.9256
33957SOL    HW2 4251   7.414   0.710   4.558  1.3063  3.2823  0.4685
33958SOL     OW 4252   7.612   0.184   1.302 -0.3556 -0.1507  0.0255
33958SOL    HW1 4253   7.546   0.135   1.350  1.4854 -2.8454  0.0130
33958SOL    HW2 4254   7.670   0.117   1.264  1.6205  2.0092 -1.0828
33959SOL     OW 4255   1.667   4.132   4.574 -0.3065 -0.7006  0.2954
33959SOL    HW1 4256   1.704   4.069   4.636  1.0690 -0.8811 -0.6646
33959SOL    HW2 4257   1.733   4.139   4.505 -2.6560 -2.0613 -2.2666
33960SOL     OW 4258   0.860   0.558   6.861 -0.0805 -0.1998  0.3325
33960SOL    HW1 4259   0.880   0.616   6.935  0.3558  0.5393 -0.3595
33960SOL    HW2 4260   0.765   0.565   6.850 -0.3147 -1.1468  1.4934
33961SOL     OW 4261   5.765   1.598   2.883  0.7097  0.2139 -0.3633
33961SOL    HW1 4262   5.685   1.621   2.835 -1.0226 -2.6458  0.8199
33961SOL    HW2 4263   5.743   1.614   2.975  1.7652  0.0512 -0.0698
33962SOL     OW 4264   5.145  10.450   6.109  0.0280  0.0427  0.5404
33962SOL    HW1 4265   5.098  10.372   6.141  1.5333 -1.0125  0.3069
33962SOL    HW2 4266   5.164  10.430   6.018  4.2944 -1.4533  1.4874
33963SOL     OW 4267   6.306   0.152   3.477  0.1376  0.1653 -0.1121
33963SOL    HW1 4268   6.351   0.142   3.393  1.3109  1.6744  0.2889
33963SOL    HW2 4269   6.373   0.136   3.543 -0.7490 -0.8973  0.5605
33964SOL     OW 4270   5.369   3.713   7.620 -0.3203  0.2694 -0.5921
33964SOL    HW1 4271   5.416   3.785   7.662 -1.6014  0.8870 -0.1486
33964SOL    HW2 4272   5.410   3.633   7.654  0.8323  0.7795 -0.7613
33965SOL     OW 4273   0.818   0.549   2.313 -0.5497  0.2487 -0.3107
33965SOL    HW1 4274   0.803   0.643   2.302 -0.2611  0.4412  0.7924
33965SOL    HW2 4275   0.787   0.529   2.401 -1.9573 -1.0068 -1.0335
33966SOL     OW 4276   9.004   4.176   5.702  0.2635  0.0029 -0.2878
33966SOL    HW1 4277   8.926   4.156   5.754 -0.6009  1.4906 -0.9614
33966SOL    HW2 4278   9.075   4.177   5.766 -0.7106  1.3987  0.8322
33967SOL     OW 4279   7.061   3.194   5.109 -0.5948  0.2115  0.6497
33967SOL    HW1 4280   7.148   3.184   5.149 -1.0562  0.6277  1.7901
33967SOL    HW2 4281   7.078   3.236   5.025  0.2512  0.9883  1.1887
33968SOL     OW 4282   1.218   4.417  10.141  0.1211 -0.4394 -0.2304
33968SOL    HW1 4283   1.288   4.400  10.078  0.5728  1.5795 -0.3414
33968SOL    HW2 4284   1.138   4.389  10.096  0.5822 -0.2809 -1.1600
33969SOL     OW 4285   4.674   0.131   2.845 -0.2195 -0.3318  0.0862
33969SOL    HW1 4286   4.658   0.215   2.802  0.6685 -0.1819  0.0113
33969SOL    HW2 4287   4.629   0.067   2.791 -1.2708  0.1399  0.3828
33970SOL     OW 4288  10.506   9.319   5.184 -0.4744  0.3511  0.2577
33970SOL    HW1 4289  10.503   9.387   5.117 -0.6730  0.9861  0.8932
33970SOL    HW2 4290  10.513   9.367   5.267  1.8288 -0.4249  0.6090
33971SOL     OW 4291   8.758   7.977   5.956  0.0240  0.4091 -0.2572
33971SOL    HW1 4292   8.732   7.895   5.999 -0.4023  0.2681 -0.7753
33971SOL    HW2 4293   8.833   8.008   6.007 -0.5582  0.3225  0.6693
33972SOL     OW 4294   6.870  10.370   9.572 -0.0389  0.2219 -0.2693
33972SOL    HW1 4295   6.961  10.384   9.545  0.9280 -1.0063  2.0545
33972SOL    HW2 4296   6.820  10.373   9.490  1.8443  2.4215 -1.4594
33973SOL     OW 4297   0.563   6.093   7.913  0.2415 -0.3058 -0.1571
33973SOL    HW1 4298   0.539   6.066   8.002  0.1423 -1.0278 -0.3955
33973SOL    HW2 4299   0.635   6.155   7.925 -0.5510  0.5259  0.4819
33974SOL     OW 4300   2.343   1.367   0.983 -0.3693  0.3074  0.2600
33974SOL    HW1 4301   2.275   1.416   1.029 -0.8036  0.1326 -0.1998
33974SOL    HW2 4302   2.306   1.280   0.970 -0.6251  0.6188 -1.2552
33975SOL     OW 4303   1.652   0.625   5.393  0.0822  0.5187  0.0120
33975SOL    HW1 4304   1.585   0.643   5.327 -1.1599  1.1670  1.3776
33975SOL    HW2 4305   1.605   0.578   5.462  1.3902 -0.3507  0.3483
33976SOL     OW 4306   2.635   4.565   6.034 -0.2421 -0.6508 -0.5492
33976SOL    HW1 4307   2.666   4.651   6.007 -1.3523 -0.5084 -1.4942
33976SOL    HW2 4308   2.550   4.582   6.076  0.9385 -0.9934  2.1679
33977SOL     OW 4309   1.781   4.090   9.119  0.1357 -0.1905 -0.4967
33977SOL    HW1 4310   1.734   4.159   9.166 -1.3649 -2.3500  1.4335
33977SOL    HW2 4311   1.869   4.091   9.156 -0.6474 -0.9818  1.5425
33978SOL     OW 4312  10.311   1.536   7.283 -0.4048  0.2443 -0.2958
33978SOL    HW1 4313  10.224   1.566   7.309  0.0849  2.4162 -0.9299
33978SOL    HW2 4314  10.306   1.530   7.187  0.5536  1.9152 -0.4735
33979SOL     OW 4315  10.470  10.338   7.727 -0.0284 -0.2618 -0.1560
33979SOL    HW1 4316  10.524  10.344   7.648  1.1761 -0.9143  0.5805
33979SOL    HW2 4317  10.424  10.254   7.717 -1.0479  0.3606 -0.8505
33980SOL     OW 4318   6.557   1.180   7.509  0.0188  0.6335  0.4145
33980SOL    HW1 4319   6.636   1.139   7.546 -0.1409  0.1971  0.2792
33980SOL    HW2 4320   6.576   1.187   7.415 -0.5088 -0.4262  0.2163
33981SOL     OW 4321   1.202   0.297   2.185  0.4260 -0.3080  0.4524
33981SOL    HW1 4322   1.162   0.378   2.218 -3.7247 -1.4308 -1.0798
33981SOL    HW2 4323   1.203   0.238   2.261 -0.1395  0.0324  0.7344
33982SOL     OW 4324   0.897   1.671   7.106  0.0724  0.3472  0.0987
33982SOL    HW1 4325   0.983   1.682   7.068  1.0207  1.5334  2.3883
33982SOL    HW2 4326   0.901   1.586   7.150 -0.6470 -0.5142 -1.4303
33983SOL     OW 4327   6.840   3.072   8.507  0.1526  0.4439  0.4743
33983SOL    HW1 4328   6.778   3.039   8.442  0.8744  3.4999 -2.0122
33983SOL    HW2 4329   6.785   3.104   8.579 -1.0388  1.2093 -0.7387
33984SOL     OW 4330   4.832  10.181   1.326 -0.0025  0.7240 -0.0405
33984SOL    HW1 4331   4.754  10.148   1.369  1.1555 -1.5778  0.4175
33984SOL    HW2 4332   4.837  10.273   1.352 -1.4451  0.3785  1.5633
33985SOL     OW 4333   4.408   3.418   3.558  0.3958  0.3613  0.4322
33985SOL    HW1 4334   4.400   3.361   3.634 -0.3636  0.1002  0.1756
33985SOL    HW2 4335   4.401   3.358   3.483  0.6510  0.6683  0.1609
33986SOL     OW 4336   3.353  10.433   3.971 -0.2533 -0.0235  0.2049
33986SOL    HW1 4337   3.420  10.485   3.927  1.7439 -0.2422  2.7282
33986SOL    HW2 4338   3.359  10.460   4.063 -2.3717 -1.4089  0.8202
33987SOL     OW 4339   8.643   0.725   3.678  0.1661 -0.3167  0.1546
33987SOL    HW1 4340   8.617   0.731   3.770 -2.7904 -0.8782 -0.5589
33987SOL    HW2 4341   8.606   0.643   3.648  2.2861 -0.8341 -1.2538
33988SOL     OW 4342   6.779   9.014  10.691 -0.3099 -0.0596  0.1000
33988SOL    HW1 4343   6.684   9.010  10.679 -0.3666  0.7470  0.2492
33988SOL    HW2 4344   6.793   9.090  10.747  0.3156 -1.0301  1.2949
33989SOL     OW 4345   4.658   3.152   7.780 -0.5851 -0.4458  0.2229
33989SOL    HW1 4346   4.609   3.212   7.724  1.5509  2.1177  0.9082
33989SOL    HW2 4347   4.594   3.085   7.805 -3.0900  1.4736 -0.6390
33990SOL     OW 4348  10.610   0.539   9.022 -0.2567 -0.3270  0.1751
33990SOL    HW1 4349  10.601   0.541   9.117 -0.7966 -0.3273  0.1297
33990SOL    HW2 4350  10.635   0.628   8.998 -0.9402 -0.1103  0.2463
33991SOL     OW 4351   3.286   1.706  10.347 -0.5706 -1.2923  0.1440
33991SOL    HW1 4352   3.284   1.613  10.328 -0.6052 -1.1218 -0.7211
33991SOL    HW2 4353   3.237   1.747  10.276  0.0523 -0.5491  0.1181
33992SOL     OW 4354   2.261   6.378   9.654  0.5470  0.0009  0.2968
33992SOL    HW1 4355   2.310   6.318   9.711  0.2573 -0.6691 -0.1392
33992SOL    HW2 4356   2.272   6.341   9.566 -0.0246  0.3347  0.0782
33993SOL     OW 4357   8.180   4.440   5.908  0.0620  0.3320  0.7380
33993SOL    HW1 4358   8.264   4.401   5.883 -0.6836 -1.2877  0.6483
33993SOL    HW2 4359   8.194   4.474   5.996  1.0920  1.0040  0.3341
33994SOL     OW 4360   2.839   3.010   2.140  0.3403 -0.1796  0.4833
33994SOL    HW1 4361   2.870   2.925   2.171 -0.6107 -0.8392 -0.3544
33994SOL    HW2 4362   2.817   3.057   2.220  0.7514 -0.7571  0.9487
33995SOL     OW 4363   1.577   9.455   1.867 -0.2214  0.1181  0.3567
33995SOL    HW1 4364   1.524   9.525   1.829  0.3578  0.4000  0.0599
33995SOL    HW2 4365   1.655   9.500   1.901  0.8941 -0.5457 -1.2109
33996SOL     OW 4366   5.061   5.440   8.381  0.5565  0.0175 -0.1512
33996SOL    HW1 4367   5.013   5.514   8.419 -0.2552 -0.9468  0.7412
33996SOL    HW2 4368   5.101   5.476   8.302  0.5962  1.5450  0.5277
33997SOL     OW 4369   0.130   1.207   1.382  0.2416 -0.0670 -0.4334
33997SOL    HW1 4370   0.168   1.226   1.296 -0.2663 -1.3574 -0.9730
33997SOL    HW2 4371   0.203   1.171   1.432  0.7811  1.5837  0.0308
33998SOL     OW 4372   7.320   1.008   0.369 -0.0911  0.3381 -0.0525
33998SOL    HW1 4373   7.249   0.974   0.423 -0.2264  0.6209 -0.0530
33998SOL    HW2 4374   7.393   1.019   0.430 -0.0437  0.0360 -0.0543
33999SOL     OW 4375   1.953   1.864   6.102 -0.4520  0.1360 -0.0320
33999SOL    HW1 4376   1.916   1.789   6.148  0.0714 -0.8243 -1.1437
33999SOL    HW2 4377   2.018   1.827   6.042  1.1238  1.6199  0.6492
34000SOL     OW 4378   9.079   4.736   8.889  0.0306  0.0099  0.8976
34000SOL    HW1 4379   9.067   4.669   8.957  2.1629 -1.8793 -0.4454
34000SOL    HW2 4380   9.150   4.791   8.922  0.1756 -0.1217  0.8130
34001SOL     OW 4381   4.429   1.609   7.932  0.7429 -0.2044  0.3846
34001SOL    HW1 4382   4.524   1.600   7.945  0.6181  2.0565  4.8353
34001SOL    HW2 4383   4.391   1.538   7.984  0.0993  1.1731  1.8936
34002SOL     OW 4384   5.733   3.894   7.670  0.2176 -0.2662 -0.2597
34002SOL    HW1 4385   5.739   3.988   7.687  3.7664 -0.4544  0.4572
34002SOL    HW2 4386   5.802   3.878   7.606  0.3039 -2.4836  0.3272
34003SOL     OW 4387   1.121   3.353   5.313 -0.3571 -0.6367 -0.1585
34003SOL    HW1 4388   1.126   3.260   5.336  0.1190 -0.6584 -0.3333
34003SOL    HW2 4389   1.044   3.385   5.359 -0.5090 -1.1137 -0.0762
34004SOL     OW 4390   2.043   9.678   8.094 -0.6433 -0.2030 -0.3221
34004SOL    HW1 4391   2.111   9.641   8.151 -1.3345 -2.1551 -0.6740
34004SOL    HW2 4392   2.062   9.641   8.008 -2.1580 -0.8723 -0.4039
34005SOL     OW 4393   8.167   7.574   5.178 -0.0561 -0.5938 -0.3567
34005SOL    HW1 4394   8.262   7.580   5.180 -0.0795 -0.4148  0.8939
34005SOL    HW2 4395   8.142   7.552   5.267 -1.2078 -0.3241 -0.5930
34006SOL     OW 4396   8.048   1.737   5.762 -0.1290 -0.5549 -0.2233
34006SOL    HW1 4397   8.125   1.790   5.782  0.3571 -1.5834  0.7282
34006SOL    HW2 4398   8.080   1.670   5.701 -0.1764 -1.1980  0.4444
34007SOL     OW 4399   6.074   1.516   1.691 -0.1584  0.7416 -0.1372
34007SOL    HW1 4400   6.141   1.571   1.650 -0.4968  0.1243 -1.5645
34007SOL    HW2 4401   6.059   1.557   1.776  0.8522  1.8324 -0.4493
34008SOL     OW 4402   2.579  10.742   1.275 -0.0672  0.5027 -0.0620
34008SOL    HW1 4403   2.530  10.675   1.323 -1.8959  1.1154 -0.9841
34008SOL    HW2 4404   2.549  10.825   1.313  0.9962  0.8782 -0.0051
34009SOL     OW 4405   6.040   4.426   3.776 -0.2816  0.5731 -0.5768
34009SOL    HW1 4406   6.134   4.436   3.760 -0.1433 -0.1309 -0.2241
34009SOL    HW2 4407   6.017   4.344   3.734 -0.2054 -0.5700  1.4759
34010SOL     OW 4408   3.918   5.990   4.655 -0.0535 -0.3528 -0.5670
34010SOL    HW1 4409   3.830   5.985   4.691  0.1276  0.0775 -0.0561
34010SOL    HW2 4410   3.917   5.930   4.580 -0.5369 -0.9587 -0.0830
34011SOL     OW 4411   9.865   2.126   6.634 -0.6981  0.2276  0.2712
34011SOL    HW1 4412   9.921   2.106   6.560 -0.2513  1.4521  0.2486
34011SOL    HW2 4413   9.836   2.041   6.667  0.0937 -0.3684 -0.5405
34012SOL     OW 4414   8.718   9.051   1.467  0.1004  0.2900  0.1113
34012SOL    HW1 4415   8.720   8.959   1.441 -0.4734 -0.2873  1.9351
34012SOL    HW2 4416   8.655   9.092   1.408 -0.6892 -0.8066  0.1811
34013SOL     OW 4417   8.216   9.324   3.206  0.3305  0.3380  0.4530
34013SOL    HW1 4418   8.267   9.256   3.250  0.6842  0.0594 -0.3695
34013SOL    HW2 4419   8.280   9.387   3.175  0.0006  1.0621  1.2143
34014SOL     OW 4420  10.539  10.678   0.053  0.5398 -0.4898  0.6029
34014SOL    HW1 4421  10.492  10.624  -0.011 -1.4772  0.6771  0.9898
34014SOL    HW2 4422  10.499  10.656   0.137  1.6940 -0.4752  1.1751
34015SOL     OW 4423   6.767   0.929   7.871  0.3110  0.0681  0.5119
34015SOL    HW1 4424   6.826   0.926   7.946  1.2628 -2.7153 -0.2044
34015SOL    HW2 4425   6.689   0.881   7.899 -1.1093  2.4686  0.9596
34016SOL     OW 4426   8.238   9.887   5.604 -0.4592 -0.0047 -0.2562
34016SOL    HW1 4427   8.156   9.917   5.564 -0.1918  0.7722 -0.2545
34016SOL    HW2 4428   8.267   9.962   5.657  0.1357 -0.3488 -0.0887
34017SOL     OW 4429   0.521   3.281   3.566  0.2510  0.3069 -0.0596
34017SOL    HW1 4430   0.516   3.274   3.471  0.4987 -0.9033 -0.0016
34017SOL    HW2 4431   0.544   3.192   3.595 -0.8968  0.3922  1.2012
34018SOL     OW 4432  10.559   0.935   7.817  0.5109  0.3942 -0.1995
34018SOL    HW1 4433  10.635   0.880   7.837  1.7776  1.8061 -0.8528
34018SOL    HW2 4434  10.551   0.993   7.892  0.1154  0.2876 -0.1593
34019SOL     OW 4435   4.701   2.685   9.309 -0.2910  0.4579 -0.1720
34019SOL    HW1 4436   4.633   2.620   9.327 -0.8606  0.9683 -0.4625
34019SOL    HW2 4437   4.716   2.728   9.393  1.1208 -0.9944  0.3769
34020SOL     OW 4438   6.466   1.957   2.199  0.2912 -0.1163 -0.3847
34020SOL    HW1 4439   6.541   1.902   2.175  1.9563  1.7969  0.1091
34020SOL    HW2 4440   6.468   2.029   2.135  0.2988  1.1367  0.9617
34021SOL     OW 4441   8.179   9.949   8.488  0.3579  0.4613  0.2757
34021SOL    HW1 4442   8.160   9.971   8.579 -3.0744  1.9922 -0.6268
34021SOL    HW2 4443   8.147   9.859   8.478 -0.8767  0.8741  0.2606
34022SOL     OW 4444   3.123   0.061   7.419 -0.2356  0.1727 -0.4729
34022SOL    HW1 4445   3.122  -0.013   7.358  0.9089  0.3755 -0.7782
34022SOL    HW2 4446   3.185   0.034   7.487 -0.8297  0.3121  0.1259
34023SOL     OW 4447   8.978   0.581   8.464 -0.4794 -0.4427 -0.0653
34023SOL    HW1 4448   8.918   0.559   8.393 -1.9883  0.7585  0.7890
34023SOL    HW2 4449   8.968   0.510   8.527 -0.2453 -0.7455 -0.3633
34024SOL     OW 4450   8.393   8.916   2.549 -0.5660 -0.3273 -0.8716
34024SOL    HW1 4451   8.473   8.903   2.498  0.4783 -0.8133  0.8145
34024SOL    HW2 4452   8.422   8.958   2.630 -1.8295 -1.5120  0.2573
34025SOL     OW 4453  10.652   2.737   0.102 -0.1133 -0.2483 -0.5116
34025SOL    HW1 4454  10.564   2.758   0.073  0.5892  0.9750 -1.9166
34025SOL    HW2 4455  10.687   2.680   0.034  0.0962 -0.9555  0.1741
34026SOL     OW 4456   3.506   4.406   4.068 -0.0670  0.3054 -0.2007
34026SOL    HW1 4457   3.434   4.374   4.014 -0.1013 -0.1834  0.1336
34026SOL    HW2 4458   3.580   4.412   4.008  0.2378 -1.4721 -0.0489
34027SOL     OW 4459   2.031   6.727   2.570 -0.1688 -0.6893  0.0697
34027SOL    HW1 4460   2.069   6.672   2.638 -0.4643  1.5636  2.2009
34027SOL    HW2 4461   1.940   6.698   2.564 -1.2188  1.2686  3.3704
34028SOL     OW 4462   0.242   2.602   2.421  0.4495 -0.2762 -0.6333
34028SOL    HW1 4463   0.159   2.560   2.403 -0.1640  0.6058  0.0425
34028SOL    HW2 4464   0.241   2.681   2.367 -0.2585  1.0171  1.1841
34029SOL     OW 4465   4.369   9.530   5.408 -0.5580  1.2435 -0.2437
34029SOL    HW1 4466   4.388   9.621   5.431 -0.1408  1.1804 -0.3323
34029SOL    HW2 4467   4.320   9.536   5.326 -1.7552  1.4524  0.4546
34030SOL     OW 4468   4.839   0.103   3.049  0.1980  0.3053 -0.0728
34030SOL    HW1 4469   4.783   0.077   2.975  0.4959  0.3642 -0.3229
34030SOL    HW2 4470   4.839   0.198   3.047  2.0014  0.3431 -1.4067
34031SOL     OW 4471   0.846   2.663   6.669 -0.3560  0.2343  0.2634
34031SOL    HW1 4472   0.922   2.646   6.613 -0.8959 -2.2283  0.1914
34031SOL    HW2 4473   0.881   2.660   6.758 -0.3705 -1.0634  0.2374
34032SOL     OW 4474   6.634   8.962   3.212 -0.5130 -0.4065  0.3557
34032SOL    HW1 4475   6.692   8.897   3.251  0.4297  1.0452  1.4713
34032SOL    HW2 4476   6.692   9.015   3.157 -0.8813  0.6721  0.9906
34033SOL     OW 4477   8.020   2.421   9.298 -0.9304 -0.3179  0.0822
34033SOL    HW1 4478   8.055   2.510   9.297 -0.1134 -0.5666  1.9176
34033SOL    HW2 4479   7.925   2.433   9.306 -0.8460  0.3901  0.0914
34034SOL     OW 4480   9.986  10.415   4.423  0.5690  0.0837  0.3579
34034SOL    HW1 4481   9.908  10.455   4.460 -1.2525 -1.7407 -1.2711
34034SOL    HW2 4482   9.999  10.460   4.339 -0.3286 -1.3281 -0.5741
34035SOL     OW 4483   2.250   4.594   3.889 -0.3668  0.0201  0.3101
34035SOL    HW1 4484   2.166   4.612   3.931  0.6182  1.6275  1.7107
34035SOL    HW2 4485   2.279   4.678   3.855  0.0544 -0.7801 -1.4247
34036SOL     OW 4486   0.300   2.122   4.251  0.6217 -0.0382  0.3722
34036SOL    HW1 4487   0.223   2.121   4.308  1.6320  0.1021  1.7889
34036SOL    HW2 4488   0.372   2.152   4.307  1.4318  1.3563 -1.3041
34037SOL     OW 4489   8.286   8.163   9.720  0.2677 -0.3167  0.2899
34037SOL    HW1 4490   8.230   8.161   9.797  1.7851  0.0795  1.4365
34037SOL    HW2 4491   8.228   8.193   9.650 -0.8539  0.5001  1.5177
34038SOL     OW 4492   6.751  10.492   8.232  0.2153 -0.3270 -0.1864
34038SOL    HW1 4493   6.679  10.556   8.236  0.4696 -0.0394 -0.1991
34038SOL    HW2 4494   6.752  10.453   8.320  0.3621  0.0209 -0.0309
34039SOL     OW 4495   4.505   0.199  10.051  0.1209 -0.3010 -0.2221
34039SOL    HW1 4496   4.584   0.223  10.100 -0.1687 -1.3967  0.8536
34039SOL    HW2 4497   4.537   0.157   9.971  0.6101  1.5502 -1.0288
34040SOL     OW 4498   2.960   9.395   7.479  0.3809 -0.3787  0.4180
34040SOL    HW1 4499   2.884   9.444   7.512  0.8205  1.4143 -1.0348
34040SOL    HW2 4500   2.952   9.309   7.519 -2.1439 -0.0908  0.7293
34041SOL     OW 4501   7.421   6.620   4.822  0.4441 -0.2947  0.5839
34041SOL    HW1 4502   7.503   6.666   4.837  1.1692 -0.7713 -1.6724
34041SOL    HW2 4503   7.417   6.556   4.893  1.0273  0.9870  1.8438
34042SOL     OW 4504   1.212   7.190   9.083  0.4233 -0.2593  0.0883
34042SOL    HW1 4505   1.216   7.174   9.177 -1.2848 -0.2650  0.1838
34042SOL    HW2 4506   1.188   7.282   9.075 -0.9916 -0.6375 -0.2906
34043SOL     OW 4507   4.799   9.598  10.091 -0.0751  0.2195 -0.2554
34043SOL    HW1 4508   4.894   9.594  10.078 -0.1615 -0.1477 -0.8604
34043SOL    HW2 4509   4.768   9.510  10.067 -0.5724  0.3567 -0.1361
34044SOL     OW 4510   4.176   4.486   2.213 -0.1263  0.3073  0.1545
34044SOL    HW1 4511   4.215   4.427   2.148 -2.3715 -0.1950 -0.8125
34044SOL    HW2 4512   4.112   4.432   2.259 -2.0869  1.8853 -0.6085
34045SOL     OW 4513   0.874  10.251   6.505  0.6054 -0.1699  0.3547
34045SOL    HW1 4514   0.827  10.186   6.557  1.0429 -0.8869 -0.1368
34045SOL    HW2 4515   0.910  10.202   6.431 -1.5958  1.1274 -1.7247
34046SOL     OW 4516   9.043   3.593   7.096 -0.1855 -0.6065  0.4431
34046SOL    HW1 4517   9.082   3.544   7.169  0.9960 -1.3822 -0.6582
34046SOL    HW2 4518   9.118   3.614   7.039 -0.9508  0.7636 -0.1173
34047SOL     OW 4519   6.417   7.185   7.532 -0.0111  0.1339  0.1045
34047SOL    HW1 4520   6.389   7.097   7.506 -1.1304  1.0297 -1.8840
34047SOL    HW2 4521   6.512   7.184   7.520  0.0241 -0.8659  0.3505
34048SOL     OW 4522   6.047   4.301   4.164 -0.0154  0.3910 -0.3674
34048SOL    HW1 4523   5.997   4.361   4.107 -2.0621 -1.0893 -0.2528
34048SOL    HW2 4524   6.133   4.343   4.173 -1.0693  2.9013 -0.9243
34049SOL     OW 4525   3.613   9.505  10.628  0.1466  0.3525 -0.7794
34049SOL    HW1 4526   3.622   9.473  10.717 -0.8766  1.3575 -0.3023
34049SOL    HW2 4527   3.550   9.446  10.587 -2.0530  1.8864  0.2200
34050SOL     OW 4528   0.892   3.082   0.076  0.3769  0.7024  0.0628
34050SOL    HW1 4529   0.819   3.020   0.087  0.6288  0.3983  0.0480
34050SOL    HW2 4530   0.869   3.156   0.132  0.5557  0.1466  0.8955
34051SOL     OW 4531   9.393   3.091   4.210 -0.3841  0.0698 -0.3316
34051SOL    HW1 4532   9.389   2.996   4.198 -0.2615 -0.2058  1.4639
34051SOL    HW2 4533   9.439   3.103   4.293 -0.6027  1.6921 -0.4061
34052SOL     OW 4534   3.698   1.488   2.746 -0.0963  0.1780  0.2533
34052SOL    HW1 4535   3.617   1.538   2.757 -0.2445 -0.2712  1.3249
34052SOL    HW2 4536   3.680   1.428   2.673 -0.0248  1.4428 -0.8371
34053SOL     OW 4537   0.713   3.920   8.834 -0.2089 -0.1496 -0.0488
34053SOL    HW1 4538   0.766   3.896   8.910  2.9031 -1.5574 -2.4380
34053SOL    HW2 4539   0.669   3.839   8.809 -1.4991  0.3907  0.3740
34054SOL     OW 4540   6.918  10.517  10.080 -0.2222  0.2636 -0.3049
34054SOL    HW1 4541   6.836  10.537  10.126 -0.4789  0.2473 -0.7500
34054SOL    HW2 4542   6.967  10.462  10.141 -0.5010  0.3540  0.0031
34055SOL     OW 4543   3.218   9.768   5.971  0.1476  0.0554  0.5063
34055SOL    HW1 4544   3.159   9.788   5.899 -0.4706  0.8672  1.2208
34055SOL    HW2 4545   3.166   9.717   6.032 -0.0887  1.4293  1.5061
34056SOL     OW 4546   9.893   5.706   5.121 -0.3246 -0.4292  0.4117
34056SOL    HW1 4547   9.943   5.705   5.039  0.5423  0.5260  0.9075
34056SOL    HW2 4548   9.941   5.647   5.179  0.1055  0.3050  0.8122
34057SOL     OW 4549   5.673   8.259   5.720 -0.8064  0.3958 -0.6173
34057SOL    HW1 4550   5.674   8.212   5.637 -0.1152  0.5167 -0.6848
34057SOL    HW2 4551   5.627   8.200   5.780 -0.9460  0.1287 -0.9823
34058SOL     OW 4552   9.957   3.080   3.502 -0.0657  0.1640 -0.1299
34058SOL    HW1 4553   9.870   3.100   3.535 -0.0318  3.5676 -1.6816
34058SOL    HW2 4554   9.951   3.091   3.407  1.7572 -0.8673 -0.4244
34059SOL     OW 4555   2.551   7.781   7.983  0.2754  0.3181  0.2309
34059SOL    HW1 4556   2.502   7.841   8.039 -0.0087 -0.4251  0.7935
34059SOL    HW2 4557   2.628   7.758   8.035 -0.1847 -0.6825  0.4944
34060SOL     OW 4558   8.503   9.867   6.352 -0.0846 -0.4855 -0.0054
34060SOL    HW1 4559   8.580   9.912   6.388 -0.2609  0.2676 -0.5454
34060SOL    HW2 4560   8.432   9.930   6.363 -0.6108 -1.1351  0.3897
34061SOL     OW 4561   4.928   8.328   1.807  0.1776  0.0049 -0.6252
34061SOL    HW1 4562   4.907   8.325   1.900  1.1912 -3.5056 -0.3844
34061SOL    HW2 4563   5.003   8.387   1.801  2.4845 -2.4879  1.4391
34062SOL     OW 4564   2.702   7.774   4.638 -0.0374  0.0031 -0.2926
34062SOL    HW1 4565   2.784   7.728   4.654  0.2858  0.1634 -1.3809
34062SOL    HW2 4566   2.726   7.867   4.644 -0.0799  0.0518 -0.8649
34063SOL     OW 4567   7.992   7.042   1.145 -0.6694 -0.1003  0.1558
34063SOL    HW1 4568   8.059   7.030   1.077 -0.6300 -0.8534  0.3237
34063SOL    HW2 4569   7.995   7.136   1.164  0.6662 -0.1801  0.4831
34064SOL     OW 4570   8.600   1.332   3.369 -0.3479  0.4870  0.3916
34064SOL    HW1 4571   8.539   1.342   3.296 -0.4205 -1.9706  0.0210
34064SOL    HW2 4572   8.606   1.419   3.408 -2.5053  1.2347 -0.7976
34065SOL     OW 4573   7.057   4.076   9.876 -0.3810  0.3933  0.1524
34065SOL    HW1 4574   7.150   4.066   9.897 -0.3784 -0.4360 -0.2128
34065SOL    HW2 4575   7.054   4.156   9.823  0.2506 -0.0231 -0.5398
34066SOL     OW 4576   6.549   9.559   4.363  0.8831 -0.2231 -0.1106
34066SOL    HW1 4577   6.510   9.585   4.280  0.1139  1.3161  0.6882
34066SOL    HW2 4578   6.546   9.638   4.417  1.9387 -1.0116  1.1779
34067SOL     OW 4579   6.951   0.290   9.864  0.3657  0.3124  0.1289
34067SOL    HW1 4580   6.967   0.201   9.894 -0.4311  0.9757  2.8048
34067SOL    HW2 4581   7.011   0.302   9.791  1.1506 -2.0885  0.2963
34068SOL     OW 4582   1.509   1.734   9.943 -0.1472 -0.4401 -0.1416
34068SOL    HW1 4583   1.463   1.726   9.860  0.6076 -0.0293 -0.6075
34068SOL    HW2 4584   1.601   1.718   9.921  0.2486  1.0379  0.3638
34069SOL     OW 4585   9.990   9.642   3.883  0.5425 -0.3138  0.4453
34069SOL    HW1 4586   9.990   9.585   3.806  0.2481  1.8323 -1.2884
34069SOL    HW2 4587   9.908   9.692   3.875  0.2573 -0.4063  2.4736
34070SOL     OW 4588   1.766   1.696   8.779 -0.5848  0.6453  0.7276
34070SOL    HW1 4589   1.825   1.721   8.850  1.6119  0.2066 -0.8561
34070SOL    HW2 4590   1.754   1.776   8.728  0.1500  0.3171  0.0241
34071SOL     OW 4591   8.505   2.403   9.523 -0.0593 -0.3408  0.4387
34071SOL    HW1 4592   8.582   2.359   9.559  0.0100 -0.2748  0.3724
34071SOL    HW2 4593   8.510   2.492   9.558  0.0837 -0.2368  0.1564
34072SOL     OW 4594  10.781   7.519   6.718 -0.4215 -0.2933  0.4760
34072SOL    HW1 4595  10.745   7.583   6.657  0.7269 -0.5638 -0.5308
34072SOL    HW2 4596  10.779   7.563   6.803  1.3676  1.5705 -0.3480
34073SOL     OW 4597   4.063   8.403   8.739 -0.2836  0.1012 -0.2385
34073SOL    HW1 4598   4.144   8.436   8.699  0.0027 -2.0585 -1.6487
34073SOL    HW2 4599   3.994   8.457   8.702  0.3841  1.0345 -0.1583
34074SOL     OW 4600   1.865   3.458  10.230 -0.1173  0.1728  0.2284
34074SOL    HW1 4601   1.886   3.470  10.137  1.5923 -1.1047  0.4013
34074SOL    HW2 4602   1.769   3.457  10.233 -0.2220  1.4677 -1.3308
34075SOL     OW 4603   8.630   7.813   8.738 -0.0629 -0.1198  0.8601
34075SOL    HW1 4604   8.690   7.738   8.743  0.5379  0.3417  0.7268
34075SOL    HW2 4605   8.579   7.797   8.658  0.1512 -0.3257  0.7610
34076SOL     OW 4606   9.859   6.261   2.349 -0.1563 -0.1828  0.5369
34076SOL    HW1 4607   9.830   6.172   2.370  2.1987 -1.1701 -0.0950
34076SOL    HW2 4608   9.817   6.281   2.266  0.4667 -1.3587 -0.0928
34077SOL     OW 4609   9.934   4.133   4.693  0.6609  0.1844  0.1389
34077SOL    HW1 4610   9.985   4.094   4.623 -0.7917  1.1610 -1.5454
34077SOL    HW2 4611   9.997   4.149   4.764  2.5991  1.0041 -1.6796
34078SOL     OW 4612   9.063   4.685   5.629 -0.1478  0.1166  0.3684
34078SOL    HW1 4613   8.978   4.677   5.585  0.1725 -0.8400 -0.0908
34078SOL    HW2 4614   9.092   4.595   5.643  1.5142  0.4172 -0.8535
34079SOL     OW 4615   6.911   2.349   4.066  0.1421 -0.0444  0.2266
34079SOL    HW1 4616   6.862   2.318   3.989  0.7353  0.9327 -0.5692
34079SOL    HW2 4617   6.998   2.309   4.056  0.2199  0.0822  0.3980
34080SOL     OW 4618   2.695   7.418  10.542 -0.3157  0.1910 -0.5410
34080SOL    HW1 4619   2.675   7.444  10.632  2.0672  0.3961  0.0005
34080SOL    HW2 4620   2.616   7.375  10.511 -2.0087  2.1154  0.8614
34081SOL     OW 4621   3.373   4.353   2.326 -0.1853  0.0817 -0.3307
34081SOL    HW1 4622   3.430   4.429   2.337  0.1202 -0.1512 -0.2899
34081SOL    HW2 4623   3.285   4.390   2.315 -0.7267  0.4087  3.6274
34082SOL     OW 4624   6.177   7.732   1.117  0.0109  0.2551  0.1371
34082SOL    HW1 4625   6.198   7.785   1.040 -1.0203 -0.2987 -0.5445
34082SOL    HW2 4626   6.200   7.788   1.191  1.2056  0.7222 -0.5495
34083SOL     OW 4627   5.625   1.448   0.334  0.0840 -0.4157  0.2879
34083SOL    HW1 4628   5.712   1.409   0.343  0.9872  1.7527  1.8148
34083SOL    HW2 4629   5.565   1.376   0.352  1.6234 -1.2946  2.2985
34084SOL     OW 4630   0.587   5.588   6.879  0.0755 -0.1242 -0.0060
34084SOL    HW1 4631   0.569   5.514   6.936  3.1730 -0.5049  0.6885
34084SOL    HW2 4632   0.596   5.550   6.791  1.1800 -0.5658  0.2741
34085SOL     OW 4633   4.467   7.163   0.691 -0.3178 -0.1265  0.0753
34085SOL    HW1 4634   4.423   7.081   0.713 -0.9236 -0.6440 -2.6839
34085SOL    HW2 4635   4.557   7.151   0.721 -0.8616 -0.9581  1.5094
34086SOL     OW 4636   0.924   6.025   5.432 -0.0788  0.6291  0.3378
34086SOL    HW1 4637   0.847   5.969   5.436 -0.5739  0.6553 -3.9018
34086SOL    HW2 4638   0.998   5.965   5.421 -0.1678  0.6927 -0.6732
34087SOL     OW 4639   7.910   7.427   0.228 -0.0462  0.3132  0.1775
34087SOL    HW1 4640   7.989   7.423   0.174 -0.8212 -2.5668 -0.9088
34087SOL    HW2 4641   7.877   7.338   0.230 -3.2710  1.3716  0.6686
34088SOL     OW 4642   9.959   8.168   1.295  0.2161 -0.1845  0.3937
34088SOL    HW1 4643   9.916   8.186   1.211  0.8340 -1.2163 -0.1660
34088SOL    HW2 4644  10.008   8.087   1.280  0.5871 -0.2182  1.6664
34089SOL     OW 4645   1.398  10.059   9.067  0.0036 -0.4182  0.3454
34089SOL    HW1 4646   1.329  10.054   9.002 -0.3737  0.8009  0.6219
34089SOL    HW2 4647   1.423  10.151   9.070  0.7651 -0.6228  1.1557
34090SOL     OW 4648  10.246   7.519   4.790  0.1015  0.1465 -0.1585
34090SOL    HW1 4649  10.230   7.470   4.709 -0.9980  1.1611 -0.5833
34090SOL    HW2 4650  10.303   7.462   4.841 -1.7013 -1.9426 -0.3223
34091SOL     OW 4651   7.933   5.065  10.644  0.1020 -0.5535  0.1642
34091SOL    HW1 4652   7.907   4.990  10.591 -2.3053 -1.5422  2.5134
34091SOL    HW2 4653   7.854   5.119  10.649  1.1151  0.9893  0.4544
34092SOL     OW 4654   9.785  10.265   9.102  0.1404  0.3765 -0.5698
34092SOL    HW1 4655   9.849  10.194   9.101  0.1568  0.2627  1.9843
34092SOL    HW2 4656   9.805  10.314   9.182 -1.8410  1.4101 -0.6445
34093SOL     OW 4657   4.458   0.117   5.537 -0.3548  0.0760  0.4948
34093SOL    HW1 4658   4.482   0.114   5.630  1.9467 -1.0413 -0.0506
34093SOL    HW2 4659   4.540   0.098   5.491 -1.7136 -0.7317 -1.7388
34094SOL     OW 4660   5.583   3.876   9.333 -0.0700 -0.1183  0.0960
34094SOL    HW1 4661   5.583   3.858   9.427 -1.5498 -0.1019  0.1289
34094SOL    HW2 4662   5.527   3.807   9.296 -0.3492  0.4839 -0.6224
34095SOL     OW 4663   5.192   5.703   1.767 -0.1415 -0.8256 -0.5311
34095SOL    HW1 4664   5.111   5.702   1.818  0.7744  1.7710  1.1268
34095SOL    HW2 4665   5.197   5.615   1.730 -2.8191 -1.6127  0.7040
34096SOL     OW 4666   8.663   9.751  10.040  0.3956 -0.4040 -0.2509
34096SOL    HW1 4667   8.607   9.691   9.992 -1.8887  1.5709 -0.2032
34096SOL    HW2 4668   8.714   9.796   9.973  0.1830 -0.5324 -0.4975
34097SOL     OW 4669   0.947   2.578   8.844  0.4221  0.0662 -0.0862
34097SOL    HW1 4670   0.887   2.567   8.918  0.3717  0.0758 -0.1256
34097SOL    HW2 4671   1.027   2.613   8.883  0.3771  0.1224 -0.0434
34098SOL     OW 4672   6.169  10.208   1.101 -0.0923 -0.5242 -0.0282
34098SOL    HW1 4673   6.074  10.199   1.107 -0.0457 -0.7004  0.5815
34098SOL    HW2 4674   6.191  10.278   1.163  0.3280 -1.6168  1.1010
34099SOL     OW 4675   2.861   1.059   7.040 -0.3255  0.1145  0.2803
34099SOL    HW1 4676   2.838   0.983   6.986 -2.5977  0.8600  0.0813
34099SOL    HW2 4677   2.896   1.122   6.977 -0.7731  0.1153  0.0199
34100SOL     OW 4678   8.257   9.790   0.779 -0.0528  0.2646 -0.3397
34100SOL    HW1 4679   8.283   9.880   0.761 -0.9418  0.5475 -0.2254
34100SOL    HW2 4680   8.168   9.782   0.745 -0.8314  0.0870  1.5650
34101SOL     OW 4681   9.222   1.488   1.228  0.0983 -0.2657 -0.1336
34101SOL    HW1 4682   9.288   1.440   1.177 -1.0719 -1.7446 -0.3090
34101SOL    HW2 4683   9.262   1.499   1.314  0.6297 -1.0661 -0.2651
34102SOL     OW 4684   4.191   3.888  10.775  0.4369 -0.4833  0.0657
34102SOL    HW1 4685   4.205   3.976  10.810 -1.0686 -0.1739 -0.0689
34102SOL    HW2 4686   4.117   3.854  10.825 -0.1138 -1.0087 -1.0738
34103SOL     OW 4687   6.121   6.039   4.413 -0.2123 -0.0168  0.2590
34103SOL    HW1 4688   6.150   6.091   4.339  0.8385 -0.6781  0.1782
34103SOL    HW2 4689   6.030   6.017   4.393 -1.1156  2.7692  0.8910
34104SOL     OW 4690   2.143   6.551   8.601 -0.0807 -0.4900 -0.2526
34104SOL    HW1 4691   2.096   6.543   8.684  0.6786 -0.0222  0.2360
34104SOL    HW2 4692   2.203   6.478   8.601  1.5082  0.7412  0.6867
34105SOL     OW 4693   0.756   8.673   0.267  0.1319 -0.4281 -0.1198
34105SOL    HW1 4694   0.733   8.712   0.183  0.0748  0.5989  0.3695
34105SOL    HW2 4695   0.745   8.743   0.331 -0.2101 -1.3027  0.8142
34106SOL     OW 4696   7.676   9.823   5.431  0.0803  0.3100  0.0980
34106SOL    HW1 4697   7.765   9.842   5.401  0.5766 -1.5751  0.2344
34106SOL    HW2 4698   7.622   9.833   5.353  0.6162  0.2520 -0.2870
34107SOL     OW 4699   6.036   9.712   5.225 -0.1483 -0.9219  0.0506
34107SOL    HW1 4700   5.998   9.668   5.149  0.8839 -0.2414 -0.8918
34107SOL    HW2 4701   6.018   9.805   5.210 -0.7633 -0.8405  1.1397
34108SOL     OW 4702   6.914   5.452   9.529 -0.2208  0.5077  0.5572
34108SOL    HW1 4703   6.950   5.461   9.441 -0.8609 -0.9933  0.0978
34108SOL    HW2 4704   6.973   5.391   9.573 -1.0273 -0.3527  0.4761
34109SOL     OW 4705   9.151   6.240  10.152 -0.3760  0.2027 -0.2785
34109SOL    HW1 4706   9.103   6.315  10.188  0.2755  1.2462 -1.5109
34109SOL    HW2 4707   9.228   6.278  10.111 -0.1936 -1.1168 -1.2240
34110SOL     OW 4708   3.812   1.491   1.273  0.2469  0.0005  0.1356
34110SOL    HW1 4709   3.781   1.466   1.360 -0.0021 -0.8197 -0.1799
34110SOL    HW2 4710   3.738   1.535   1.232  0.0944 -0.3500  0.0367
34111SOL     OW 4711   4.618   0.778   6.224 -0.7732 -0.3620  0.0068
34111SOL    HW1 4712   4.532   0.773   6.266 -0.9451  0.3206 -0.2381
34111SOL    HW2 4713   4.614   0.715   6.152 -0.8744 -0.7205  0.3237
34112SOL     OW 4714   7.442   7.297   1.561 -0.0992 -0.1117 -0.1022
34112SOL    HW1 4715   7.505   7.369   1.563  0.5782 -0.7102  1.4070
34112SOL    HW2 4716   7.357   7.339   1.558  0.2535  0.7890  1.6671
34113SOL     OW 4717   9.194   7.014   8.899 -0.1412  0.2432  0.0767
34113SOL    HW1 4718   9.162   7.086   8.952  0.6334  0.2992  0.4716
34113SOL    HW2 4719   9.224   7.055   8.818  1.5240  0.5577  0.8119
34114SOL     OW 4720   0.854   3.565   9.045 -0.2064 -0.6891  0.3229
34114SOL    HW1 4721   0.886   3.650   9.014 -0.3431 -0.7217  0.0893
34114SOL    HW2 4722   0.787   3.587   9.110  1.4178 -0.6008  2.0643
34115SOL     OW 4723   0.418   9.748   6.498  0.5759 -0.6702 -0.1011
34115SOL    HW1 4724   0.509   9.762   6.525  1.3290 -1.5603 -2.0450
34115SOL    HW2 4725   0.418   9.763   6.404 -1.1346 -1.4882 -0.2685
34116SOL     OW 4726   2.187   3.247   2.057 -0.2946 -0.3338 -0.5744
34116SOL    HW1 4727   2.142   3.162   2.054  0.5215 -0.8110  0.3099
34116SOL    HW2 4728   2.278   3.228   2.035  0.5891 -0.2344  2.4892
34117SOL     OW 4729   6.069   3.313   2.857 -0.2084 -0.1327  0.2731
34117SOL    HW1 4730   6.012   3.313   2.781 -0.9689 -0.9438  0.8133
34117SOL    HW2 4731   6.075   3.220   2.882  2.2489 -0.2346 -0.4064
34118SOL     OW 4732  10.240   6.686   3.671  0.0830 -0.0033  0.8702
34118SOL    HW1 4733  10.289   6.612   3.706 -0.5321 -0.2950  1.1132
34118SOL    HW2 4734  10.189   6.650   3.599  0.1501  0.2833  0.6744
34119SOL     OW 4735   8.194   2.221   9.930  0.2398 -0.0995  0.5727
34119SOL    HW1 4736   8.227   2.164   9.861 -0.3421 -0.1745  0.3485
34119SOL    HW2 4737   8.185   2.306   9.888 -1.0545 -0.3650  0.2632
34120SOL     OW 4738   1.251   3.832   6.497 -0.7728 -0.0503 -0.6361
34120SOL    HW1 4739   1.171   3.801   6.538 -0.6896 -0.1421 -0.5446
34120SOL    HW2 4740   1.232   3.830   6.403 -0.3915 -1.4546 -0.7125
34121SOL     OW 4741  10.182   5.255   2.458 -0.1639  0.4927  0.1242
34121SOL    HW1 4742  10.219   5.260   2.546 -0.1865 -1.3860  0.2772
34121SOL    HW2 4743  10.151   5.344   2.440 -3.1154  0.3242  3.2917
34122SOL     OW 4744   3.157   7.870   7.842 -0.3771 -0.2307  0.0800
34122SOL    HW1 4745   3.171   7.927   7.766 -1.2917  0.0498  0.1079
34122SOL    HW2 4746   3.242   7.830   7.858 -0.0928 -0.0384 -0.8912
34123SOL     OW 4747   4.338  10.464   0.014 -0.1597 -0.0179  0.2880
34123SOL    HW1 4748   4.356  10.424   0.099  0.9558  0.6126  0.3601
34123SOL    HW2 4749   4.280  10.401  -0.030 -0.7210 -0.3732  1.4813
34124SOL     OW 4750   7.623   3.783   4.613 -0.1261  0.3816 -0.1811
34124SOL    HW1 4751   7.717   3.799   4.622  0.0698 -1.1788  0.9591
34124SOL    HW2 4752   7.613   3.689   4.627 -2.0275  0.7554  1.4697
34125SOL     OW 4753   5.863   1.720   2.502 -0.3053 -0.2056 -0.3243
34125SOL    HW1 4754   5.827   1.671   2.428  2.7934 -0.9376 -1.5118
34125SOL    HW2 4755   5.931   1.663   2.538 -0.5044  0.8971  2.0040
34126SOL     OW 4756   8.800   4.510   0.974  0.1240  0.0359  0.6929
34126SOL    HW1 4757   8.889   4.483   0.948 -0.1169 -2.9186  2.4414
34126SOL    HW2 4758   8.742   4.450   0.926 -0.8252  0.7392  0.9456
34127SOL     OW 4759   3.751   1.180  10.084 -0.4509  0.6533  0.2252
34127SOL    HW1 4760   3.752   1.139  10.171 -0.0749  0.5803  0.1885
34127SOL    HW2 4761   3.814   1.251  10.090  1.2756 -0.7247 -0.6299
34128SOL     OW 4762   8.718   8.469   7.559  0.6086 -0.0443  0.1354
34128SOL    HW1 4763   8.631   8.469   7.600 -0.0102  2.2583 -0.9777
34128SOL    HW2 4764   8.745   8.378   7.560 -0.4193 -0.4371  3.3874
34129SOL     OW 4765  10.637   5.891   4.678  0.0549  0.2585  0.0398
34129SOL    HW1 4766  10.553   5.861   4.642 -0.5495  0.9127  0.8629
34129SOL    HW2 4767  10.615   5.970   4.726  1.2593  0.7888 -0.2451
34130SOL     OW 4768   8.900   8.792   2.629 -0.2993 -0.0445 -0.0421
34130SOL    HW1 4769   8.833   8.823   2.691 -0.7905 -1.2234  0.0446
34130SOL    HW2 4770   8.982   8.799   2.678 -0.5156  0.2461  0.2897
34131SOL     OW 4771   2.660   9.169   5.619 -0.1394 -0.1380  0.0013
34131SOL    HW1 4772   2.749   9.141   5.641  0.3507  1.4750  0.1754
34131SOL    HW2 4773   2.612   9.165   5.702  0.8525  2.8032  0.8180
34132SOL     OW 4774   5.083   1.606   8.269 -0.2266  0.3390 -0.6696
34132SOL    HW1 4775   5.163   1.556   8.283 -0.9709 -0.5910  0.5001
34132SOL    HW2 4776   5.112   1.697   8.266  0.8396  0.0478  0.1037
34133SOL     OW 4777   3.695   2.030   6.499  0.1479  0.6360 -0.3417
34133SOL    HW1 4778   3.634   1.972   6.453  0.1537  0.8833 -0.6670
34133SOL    HW2 4779   3.657   2.041   6.586  2.1507 -3.0805  1.2292
34134SOL     OW 4780   9.142   9.543   0.238 -0.5511 -0.0368  0.2628
34134SOL    HW1 4781   9.147   9.638   0.234  0.0236 -0.1111 -1.1633
34134SOL    HW2 4782   9.233   9.514   0.234 -0.8185 -0.7270 -2.8306
34135SOL     OW 4783   5.948   5.371   8.985  0.1516  0.0620  0.3509
34135SOL    HW1 4784   6.017   5.370   9.051 -1.1959 -0.8573  1.8304
34135SOL    HW2 4785   5.948   5.282   8.949 -0.0373  0.1593  0.1049
34136SOL     OW 4786   4.271   3.390   5.856  0.2826 -0.1312 -0.4995
34136SOL    HW1 4787   4.352   3.414   5.812  0.7531  1.8511  1.3065
34136SOL    HW2 4788   4.245   3.468   5.904 -0.8492 -1.7633  1.7406
34137SOL     OW 4789   9.045   0.261  10.681  0.1018  0.4331  0.1741
34137SOL    HW1 4790   9.019   0.312  10.604  2.4927 -0.5992 -1.4560
34137SOL    HW2 4791   9.049   0.325  10.752  0.2499  1.9515 -1.1296
34138SOL     OW 4792   9.004  10.209   0.775 -0.3336 -0.2580  0.1327
34138SOL    HW1 4793   9.037  10.215   0.865 -0.0497  0.0169  0.0128
34138SOL    HW2 4794   8.978  10.117   0.765 -0.0237 -0.3742  0.3790
34139SOL     OW 4795   1.261   5.646   0.734  0.6228  0.0114 -0.4628
34139SOL    HW1 4796   1.173   5.671   0.707 -0.6520 -1.0534  2.2640
34139SOL    HW2 4797   1.274   5.559   0.695  1.0672  0.7332 -1.9785
34140SOL     OW 4798  10.711   0.313   0.505  0.3869 -0.2749 -0.1470
34140SOL    HW1 4799  10.703   0.326   0.599 -0.0415  1.5300 -0.4051
34140SOL    HW2 4800  10.650   0.376   0.466  1.7269  0.1652 -1.6786
34141SOL     OW 4801   0.725   1.272   3.271  0.0474 -0.7461  0.2552
34141SOL    HW1 4802   0.649   1.304   3.319 -0.2276  0.7232 -1.0784
34141SOL    HW2 4803   0.798   1.327   3.300  0.4623 -1.6128  0.9224
34142SOL     OW 4804   3.322   0.071   6.700  0.4163 -0.4365  0.0589
34142SOL    HW1 4805   3.390   0.021   6.744  0.6004 -2.6899 -2.5763
34142SOL    HW2 4806   3.244   0.016   6.706 -0.1031  0.2155 -0.5677
34143SOL     OW 4807   7.865   9.055   8.751  0.7917  0.0547 -0.0973
34143SOL    HW1 4808   7.864   9.150   8.759  1.2084 -0.0518  1.3175
34143SOL    HW2 4809   7.861   9.023   8.840 -0.7526 -1.2904 -0.5953
34144SOL     OW 4810   4.363   3.898   4.619  0.5691 -0.3477 -0.2161
34144SOL    HW1 4811   4.316   3.840   4.559 -0.9310  2.5976 -2.1496
34144SOL    HW2 4812   4.345   3.863   4.706  0.0043 -2.8864 -1.2773
34145SOL     OW 4813   3.861   2.753   6.133  0.2908 -0.1864  0.5050
34145SOL    HW1 4814   3.949   2.779   6.107  0.2470  0.5034  1.0136
34145SOL    HW2 4815   3.803   2.811   6.083 -0.0513 -2.6183 -2.1857
34146SOL     OW 4816   5.004  10.569   3.911  0.3371 -0.0557  0.2264
34146SOL    HW1 4817   4.923  10.575   3.960  1.9338  0.8920  2.9775
34146SOL    HW2 4818   4.993  10.493   3.855 -2.7921  0.6475 -0.3069
34147SOL     OW 4819   8.089  10.398   9.259 -0.3589  0.0452  0.0063
34147SOL    HW1 4820   8.047  10.353   9.185  0.7297  1.1597 -1.3631
34147SOL    HW2 4821   8.172  10.353   9.270  0.0886  0.7537 -0.3927
34148SOL     OW 4822   2.808   8.727   2.998  0.2315  0.4757  0.2033
34148SOL    HW1 4823   2.729   8.682   2.970  0.8572 -0.9729  0.6169
34148SOL    HW2 4824   2.788   8.758   3.086 -0.5266  1.8886 -0.4384
34149SOL     OW 4825   5.734   8.128   4.891  0.6407  0.6075  0.4127
34149SOL    HW1 4826   5.783   8.183   4.831 -0.3868 -0.8438 -1.9159
34149SOL    HW2 4827   5.782   8.045   4.893 -0.2501  0.0657  0.1953
34150SOL     OW 4828   9.611   7.041   2.225  0.3105 -0.1865  0.4500
34150SOL    HW1 4829   9.556   6.966   2.245  0.7426 -0.2680  1.4441
34150SOL    HW2 4830   9.622   7.085   2.310 -1.0697  1.7985 -0.3183
34151SOL     OW 4831   8.408   4.589   8.536 -0.5434 -0.4463 -0.1905
34151SOL    HW1 4832   8.441   4.583   8.447 -2.1918  0.3990 -0.9057
34151SOL    HW2 4833   8.443   4.513   8.581  1.3846 -0.1872 -1.1854
34152SOL     OW 4834   1.778   2.767   2.318 -0.8491 -0.6262 -0.0313
34152SOL    HW1 4835   1.816   2.725   2.240 -0.6311 -2.7742  1.1607
34152SOL    HW2 4836   1.683   2.761   2.303 -0.8521  1.7544 -1.4776
34153SOL     OW 4837  10.126   5.913   8.887 -0.2725 -0.1325 -0.1093
34153SOL    HW1 4838  10.139   5.893   8.794 -0.7843  2.0470 -0.6919
34153SOL    HW2 4839  10.155   6.003   8.897 -1.3920  0.0840  1.5936
34154SOL     OW 4840   7.305   7.843   1.200  0.3486  0.1412  0.1861
34154SOL    HW1 4841   7.229   7.868   1.147 -0.3334 -1.5926  0.2803
34154SOL    HW2 4842   7.325   7.754   1.173 -0.1425 -0.8954  2.9605
34155SOL     OW 4843   7.409   6.314   1.260  0.9992 -0.0386 -1.0103
34155SOL    HW1 4844   7.385   6.244   1.200  1.6008 -0.6747 -0.5182
34155SOL    HW2 4845   7.493   6.287   1.297  0.4675  0.1552  0.3931
34156SOL     OW 4846   3.629   1.107   4.522  0.2842  0.5039  0.0046
34156SOL    HW1 4847   3.630   1.054   4.601  2.6109 -0.7450 -0.7400
34156SOL    HW2 4848   3.677   1.187   4.545 -0.2004  0.7393  0.2020
34157SOL     OW 4849   6.184   3.558   6.753  0.4982  1.0837 -0.4648
34157SOL    HW1 4850   6.104   3.586   6.709  0.2087  1.7013  0.4200
34157SOL    HW2 4851   6.220   3.639   6.790  0.3574  0.4957  1.0210
34158SOL     OW 4852   4.129   8.649   6.370  0.0003  0.2545 -0.3034
34158SOL    HW1 4853   4.216   8.688   6.377  0.1164  0.5323 -2.5537
34158SOL    HW2 4854   4.143   8.568   6.321 -0.9337  0.0284 -0.2163
34159SOL     OW 4855   5.437   6.414   1.125 -0.4823 -0.2928  0.0534
34159SOL    HW1 4856   5.449   6.373   1.210  0.1650 -1.6337 -0.6546
34159SOL    HW2 4857   5.383   6.491   1.143 -0.4379 -0.6003  1.6474
34160SOL     OW 4858   6.441   0.523   7.199 -0.0510  0.1063  0.2172
34160SOL    HW1 4859   6.449   0.490   7.109 -0.7109 -1.1288  0.5894
34160SOL    HW2 4860   6.389   0.457   7.244  1.1377  0.1822  1.7770
34161SOL     OW 4861   2.846  10.569   0.075  0.0462  0.2095 -0.1755
34161SOL    HW1 4862   2.895  10.577  -0.007  0.4168 -0.2430 -0.0002
34161SOL    HW2 4863   2.901  10.614   0.140  0.1726 -0.1966 -0.0018
34162SOL     OW 4864   0.523  10.734   6.721  0.3010 -0.4775  0.3597
34162SOL    HW1 4865   0.435  10.749   6.685 -0.4635 -0.2170  2.2564
34162SOL    HW2 4866   0.544  10.644   6.696 -2.0640 -1.8774  2.8659
34163SOL     OW 4867   5.034   7.549   2.598  0.8705  0.3098 -0.0679
34163SOL    HW1 4868   5.103   7.556   2.532  0.0895 -0.8647 -1.0664
34163SOL    HW2 4869   4.954   7.535   2.547 -0.1306  1.6650  1.0572
34164SOL     OW 4870   0.195   1.691   4.404 -0.1937 -0.7556  0.3461
34164SOL    HW1 4871   0.150   1.759   4.353  1.0962  0.0995  0.2902
34164SOL    HW2 4872   0.126   1.628   4.427 -1.2530  0.1048 -0.3731
34165SOL     OW 4873   4.081   2.747   8.354 -0.1830  0.0519  0.3529
34165SOL    HW1 4874   4.056   2.807   8.424 -0.2122 -1.0862  1.3490
34165SOL    HW2 4875   4.171   2.771   8.334  0.3423 -0.5619  1.8400
34166SOL     OW 4876   1.021   3.352   1.291 -0.0814 -0.1414  0.5545
34166SOL    HW1 4877   0.981   3.424   1.339  0.6948  1.6769 -1.3495
34166SOL    HW2 4878   0.974   3.350   1.207  1.3805 -0.3353 -0.2999
34167SOL     OW 4879   6.986   7.798   7.766  0.0387 -0.3862 -0.0780
34167SOL    HW1 4880   6.922   7.740   7.724 -1.1042  0.9931 -0.3114
34167SOL    HW2 4881   7.068   7.749   7.763 -0.5118 -1.2895 -1.8115
34168SOL     OW 4882   1.661   9.984   5.257 -0.5595  0.5667  0.4938
34168SOL    HW1 4883   1.676   9.913   5.194  0.6791  0.5315  0.8008
34168SOL    HW2 4884   1.566   9.990   5.264 -0.7428  0.6470 -1.4538
34169SOL     OW 4885   2.003   7.467   8.375 -0.2582  0.0815 -0.0433
34169SOL    HW1 4886   2.066   7.486   8.306 -1.8326 -1.8021 -2.1473
34169SOL    HW2 4887   1.934   7.532   8.362 -0.8360 -0.6373 -0.6879
34170SOL     OW 4888   4.366  10.122   7.627 -0.1564  0.6196  0.0946
34170SOL    HW1 4889   4.460  10.111   7.638  0.0866 -0.1481 -2.2616
34170SOL    HW2 4890   4.327  10.044   7.667  0.0111  1.7845  2.7032
34171SOL     OW 4891   0.323   3.134   1.008 -0.3334  0.0233 -0.2292
34171SOL    HW1 4892   0.295   3.145   0.918 -0.5679 -0.2665 -0.1958
34171SOL    HW2 4893   0.244   3.105   1.055 -0.8084  2.3876  0.5487
34172SOL     OW 4894   1.447  10.136   8.770 -0.2283  0.0740  0.0855
34172SOL    HW1 4895   1.406  10.090   8.697  0.6415  0.0915 -0.4244
34172SOL    HW2 4896   1.510  10.073   8.805  1.5489  1.1063 -1.1118
34173SOL     OW 4897   0.110   7.029  10.786  0.1330 -0.3577 -1.0164
34173SOL    HW1 4898   0.052   7.105  10.787 -2.0782 -1.8601 -2.9614
34173SOL    HW2 4899   0.153   7.031  10.700  2.6644  0.4061  0.1677
34174SOL     OW 4900   9.065   6.174   2.713 -0.1877  0.2208  0.1200
34174SOL    HW1 4901   9.049   6.098   2.658  0.0746 -0.4223  0.9153
34174SOL    HW2 4902   9.140   6.149   2.767 -1.1778  0.3807  1.6146
34175SOL     OW 4903   6.240   3.761  10.180  0.4076  0.2886  0.2020
34175SOL    HW1 4904   6.229   3.669  10.154  2.3295 -0.5367  1.9692
34175SOL    HW2 4905   6.151   3.792  10.198 -0.4130 -0.7686 -1.7477
34176SOL     OW 4906   8.838   6.567   7.917 -0.0786 -0.7155  0.0369
34176SOL    HW1 4907   8.818   6.483   7.957 -1.4049 -0.8020 -0.7419
34176SOL    HW2 4908   8.832   6.630   7.989 -1.4727 -0.9921  0.1873
34177SOL     OW 4909   7.188   2.740   6.016  0.1098 -0.6054  0.0006
34177SOL    HW1 4910   7.118   2.699   6.067 -1.8996  2.0240 -0.4639
34177SOL    HW2 4911   7.236   2.666   5.979 -2.6176 -2.5691  0.0600
34178SOL     OW 4912   5.682   7.450   1.470 -0.1979  0.1281 -0.2450
34178SOL    HW1 4913   5.629   7.376   1.501 -0.2292  0.2013 -0.1229
34178SOL    HW2 4914   5.762   7.446   1.521  0.0307 -0.1452 -0.6232
34179SOL     OW 4915   4.343   5.744   5.637 -0.4474  0.0899  0.3553
34179SOL    HW1 4916   4.248   5.758   5.649 -0.3065  1.2201  0.3198
34179SOL    HW2 4917   4.349   5.673   5.574 -1.2813  0.0932  0.2587
34180SOL     OW 4918   4.117   7.361   9.809  0.6973 -0.5689 -0.3375
34180SOL    HW1 4919   4.180   7.323   9.869  2.5785  0.2089 -1.7328
34180SOL    HW2 4920   4.117   7.303   9.733  0.3816 -0.0921 -0.7119
34181SOL     OW 4921   6.924   0.147  10.767 -0.1556 -0.5400 -0.2106
34181SOL    HW1 4922   6.971   0.162  10.849  0.6701  1.1842 -0.9690
34181SOL    HW2 4923   6.985   0.097  10.713  0.4443  0.7714 -0.7935
34182SOL     OW 4924   1.587  10.024   3.327  0.2825  0.1012 -0.2772
34182SOL    HW1 4925   1.571   9.953   3.390 -0.2728  2.6778  2.7553
34182SOL    HW2 4926   1.541   9.997   3.248 -1.6403 -1.9938  1.4185
34183SOL     OW 4927   1.690   6.003   7.922 -0.2882  0.1751 -0.0562
34183SOL    HW1 4928   1.766   6.039   7.967 -1.1799  0.2378  1.4696
34183SOL    HW2 4929   1.649   5.946   7.987 -1.3999 -0.0599 -0.9381
34184SOL     OW 4930   1.756  10.183   3.814  0.9489 -0.4542  0.2118
34184SOL    HW1 4931   1.690  10.130   3.859  0.7824 -1.6376 -1.3257
34184SOL    HW2 4932   1.730  10.273   3.832 -1.6650 -0.8533 -1.0509
34185SOL     OW 4933   4.093   8.886   9.416 -0.0865 -0.0613  0.3870
34185SOL    HW1 4934   4.135   8.855   9.335  1.7873 -0.4396  1.4361
34185SOL    HW2 4935   4.060   8.973   9.394 -0.6398 -0.5962 -1.0855
34186SOL     OW 4936   8.083   1.466   0.407 -0.2789 -0.1820  0.5173
34186SOL    HW1 4937   8.060   1.478   0.315  0.5445  2.0456  0.5473
34186SOL    HW2 4938   8.171   1.428   0.405  0.0896  0.6588  0.3571
34187SOL     OW 4939   1.740   0.016   8.725  0.3741  0.2111  0.3768
34187SOL    HW1 4940   1.677   0.010   8.796  0.4318 -0.5725  0.3609
34187SOL    HW2 4941   1.825   0.026   8.770  0.3565  0.2146  0.4091
34188SOL     OW 4942   6.997   8.103   8.337  0.0103 -0.0258  0.8945
34188SOL    HW1 4943   6.990   8.011   8.314  0.3426  0.3645 -0.9104
34188SOL    HW2 4944   6.906   8.133   8.348 -0.1764 -0.1862 -0.1749
34189SOL     OW 4945   7.755   4.625   3.770  0.0558  0.4099  0.0444
34189SOL    HW1 4946   7.711   4.665   3.845 -0.6847  0.5075 -0.4226
34189SOL    HW2 4947   7.725   4.534   3.770  0.4678  0.2730  0.1686
34190SOL     OW 4948   4.377   6.134   2.437 -0.0903  0.0287 -0.0832
34190SOL    HW1 4949   4.387   6.074   2.363  0.3186  1.0215 -0.8584
34190SOL    HW2 4950   4.451   6.193   2.430 -0.0015  0.0825  1.1961
34191SOL     OW 4951   0.016   8.259   9.727 -0.2956 -0.4783  0.1375
34191SOL    HW1 4952  -0.036   8.339   9.739 -1.5014 -1.2915  0.4756
34191SOL    HW2 4953   0.095   8.289   9.682 -0.1947  1.0863  1.2479
34192SOL     OW 4954   7.489   0.196   3.850  0.5453  0.3011 -0.4441
34192SOL    HW1 4955   7.573   0.192   3.804  0.5371 -0.2540 -0.4207
34192SOL    HW2 4956   7.436   0.257   3.799  0.3494 -0.7113 -1.4788
34193SOL     OW 4957   6.191   3.636   4.407 -0.3984 -0.6500 -0.3013
34193SOL    HW1 4958   6.231   3.618   4.492  0.5560 -1.7141 -0.9534
34193SOL    HW2 4959   6.119   3.573   4.401 -1.3813  0.3540  0.2763
34194SOL     OW 4960   5.135   4.077   5.785  0.2182  0.3040 -0.3638
34194SOL    HW1 4961   5.138   4.155   5.840 -2.0686 -0.3762  0.8696
34194SOL    HW2 4962   5.057   4.090   5.730 -1.0966 -1.6663  0.8949
34195SOL     OW 4963   4.852   8.272   9.594 -0.1167  0.0135 -0.1205
34195SOL    HW1 4964   4.870   8.183   9.623 -1.0533 -0.8531 -2.0420
34195SOL    HW2 4965   4.897   8.281   9.510 -0.7633  1.0395 -0.3819
34196SOL     OW 4966   6.862  10.383   2.879 -0.0787  0.5923  0.6564
34196SOL    HW1 4967   6.836  10.406   2.790 -1.6997  0.6914  1.1191
34196SOL    HW2 4968   6.796  10.319   2.907  1.0020 -0.2159  1.4297
34197SOL     OW 4969   8.054   6.384   7.284  0.5969 -0.2485  0.2604
34197SOL    HW1 4970   8.019   6.473   7.276  0.2728 -0.4354 -0.4104
34197SOL    HW2 4971   8.132   6.394   7.340 -0.0287  0.2939  1.0507
34198SOL     OW 4972   4.324   8.255   5.174 -0.1558 -0.3284  0.1240
34198SOL    HW1 4973   4.410   8.292   5.153 -0.7211  1.2749  0.4604
34198SOL    HW2 4974   4.340   8.194   5.245  0.5652  0.8945  1.0513
34199SOL     OW 4975   9.331   1.374   6.929  0.4340  0.2054  0.1168
34199SOL    HW1 4976   9.301   1.283   6.920  0.0087  0.4628 -1.3908
34199SOL    HW2 4977   9.353   1.401   6.840  1.8471  1.1733  0.7166
34200SOL     OW 4978   5.965   1.438   2.838 -0.0691 -0.0906 -0.2756
34200SOL    HW1 4979   5.957   1.389   2.920 -0.3904 -1.7566 -1.2496
34200SOL    HW2 4980   5.889   1.495   2.836 -0.0080  0.0280  0.6184
34201SOL     OW 4981   6.457   4.368   1.910 -0.3033  0.9820  0.5278
34201SOL    HW1 4982   6.400   4.334   1.979  0.0067 -0.5701  0.0455
34201SOL    HW2 4983   6.400   4.382   1.835 -0.1250 -0.2502  0.1508
34202SOL     OW 4984   0.674   5.736   8.526 -0.0542  0.8069  0.5452
34202SOL    HW1 4985   0.596   5.702   8.482  0.4011  1.1525 -0.5450
34202SOL    HW2 4986   0.666   5.704   8.616 -1.0000  0.0950  0.2235
34203SOL     OW 4987   7.322   0.048   6.412  0.0380  0.1641  0.4614
34203SOL    HW1 4988   7.236   0.022   6.380  0.4235 -0.2807 -0.2495
34203SOL    HW2 4989   7.338  -0.007   6.488 -0.4366  0.4781  0.7962
34204SOL     OW 4990   5.228   9.123   0.831 -0.2927  0.0399  0.9378
34204SOL    HW1 4991   5.160   9.188   0.814 -1.1080 -0.8149  0.8462
34204SOL    HW2 4992   5.215   9.097   0.922  0.7237  0.7779  1.3136
34205SOL     OW 4993   0.869   0.675   6.632  0.0728  0.8738  0.2438
34205SOL    HW1 4994   0.861   0.615   6.706  2.4074 -0.4752 -0.4752
34205SOL    HW2 4995   0.889   0.760   6.671 -0.5763  0.6049  1.1893
34206SOL     OW 4996   5.963   8.286   9.300  0.3523  0.6621 -0.2009
34206SOL    HW1 4997   6.048   8.242   9.306  0.3127  0.4767 -0.9302
34206SOL    HW2 4998   5.902   8.217   9.274  0.0705  0.8979 -0.1632
34207SOL     OW 4999   0.379   7.892   6.404  0.5431  0.0291  0.3781
34207SOL    HW1 5000   0.432   7.817   6.433  3.4202  1.7495  0.0159
34207SOL    HW2 5001   0.365   7.875   6.311 -1.9624 -1.6999  0.9684
34208SOL     OW 5002   3.837   1.709   4.320 -0.4347  0.6316 -0.4390
34208SOL    HW1 5003   3.848   1.760   4.239 -2.3665  0.2595 -0.9910
34208SOL    HW2 5004   3.754   1.664   4.308  0.0613 -0.7550  1.0806
34209SOL     OW 5005   3.419   9.195   0.609 -0.0297 -0.4147 -0.3015
34209SOL    HW1 5006   3.514   9.191   0.609  0.0067 -1.5631 -2.8965
34209SOL    HW2 5007   3.396   9.226   0.521 -2.0666  0.8610  0.5919
34210SOL     OW 5008   8.267   8.857   7.330  0.0925  0.1813  0.0338
34210SOL    HW1 5009   8.322   8.798   7.380  0.2945 -0.3494 -0.7892
34210SOL    HW2 5010   8.318   8.938   7.324 -0.0841  0.3718  0.9573
34211SOL     OW 5011   0.856   3.327   4.164 -0.5573  0.1803  0.4077
34211SOL    HW1 5012   0.781   3.361   4.115 -0.2204 -0.3171 -0.4629
34211SOL    HW2 5013   0.893   3.259   4.108 -0.0685 -0.2976  1.2844
34212SOL     OW 5014  10.519   9.652  10.575 -0.3431 -0.1746 -0.2470
34212SOL    HW1 5015  10.524   9.664  10.481  1.3594 -0.9467 -0.2872
34212SOL    HW2 5016  10.500   9.739  10.610  0.2311  0.3483 -1.2187
34213SOL     OW 5017   7.093   5.161   4.134  0.2448 -0.8837  0.3060
34213SOL    HW1 5018   7.179   5.185   4.170  0.1056  1.7220 -0.9098
34213SOL    HW2 5019   7.106   5.072   4.101  1.3722 -2.0115  3.4139
34214SOL     OW 5020   1.161   4.290   3.800 -0.1773 -0.0349 -0.5532
34214SOL    HW1 5021   1.101   4.364   3.813 -1.9018 -1.2367 -1.2229
34214SOL    HW2 5022   1.134   4.225   3.866 -0.3106 -0.9899 -1.5111
34215SOL     OW 5023   7.493   0.696   5.157  0.5853 -0.5097 -0.5841
34215SOL    HW1 5024   7.573   0.699   5.106  0.7999  1.9975 -0.1982
34215SOL    HW2 5025   7.522   0.703   5.248 -0.0515 -0.1919 -0.4024
34216SOL     OW 5026   1.318   2.108   8.702  0.1039 -0.4131  0.1643
34216SOL    HW1 5027   1.365   2.028   8.723  0.5194  0.4004  2.6567
34216SOL    HW2 5028   1.381   2.160   8.652  0.2230 -1.1612 -0.4763
34217SOL     OW 5029   1.654   3.748   8.235  0.3991  0.6411  0.1756
34217SOL    HW1 5030   1.635   3.667   8.189  0.6983  0.7918 -0.2162
34217SOL    HW2 5031   1.587   3.753   8.304 -1.0257  1.1714 -1.1875
34218SOL     OW 5032   5.036   0.945   9.577  0.5156  0.0309  0.2607
34218SOL    HW1 5033   5.053   0.877   9.643  1.1614  1.0622  1.1942
34218SOL    HW2 5034   4.956   0.987   9.608 -0.2313 -0.6703 -0.6512
34219SOL     OW 5035   3.860   2.380   4.287  0.3367 -0.7691  0.4124
34219SOL    HW1 5036   3.863   2.287   4.307 -0.8598 -0.9770 -0.2856
34219SOL    HW2 5037   3.858   2.384   4.191  0.3379 -0.0254  0.4347
34220SOL     OW 5038   1.297   2.475   0.487 -0.1518  0.6498  0.2103
34220SOL    HW1 5039   1.219   2.515   0.449 -1.2259 -1.7313 -0.2151
34220SOL    HW2 5040   1.367   2.537   0.467 -1.8024  2.5995  0.1411
34221SOL     OW 5041   3.894   2.509  10.757 -0.3441 -0.2695  0.5314
34221SOL    HW1 5042   3.945   2.508  10.838 -0.0624  0.0171  0.3627
34221SOL    HW2 5043   3.893   2.601  10.732 -1.2489 -0.2261  0.7167
34222SOL     OW 5044   6.848   1.131   6.517  0.1355 -0.3959 -0.2319
34222SOL    HW1 5045   6.941   1.113   6.501 -0.1100 -1.0294 -1.0209
34222SOL    HW2 5046   6.847   1.189   6.593  1.1704 -0.5089 -0.1237
34223SOL     OW 5047   4.588   1.741   1.418  0.2212 -0.3786  0.5632
34223SOL    HW1 5048   4.525   1.681   1.458  1.3497 -0.8149  1.7325
34223SOL    HW2 5049   4.626   1.789   1.491  0.3620  0.7870 -0.2382
34224SOL     OW 5050   5.677   2.198   3.937 -0.1721 -0.5691  0.6795
34224SOL    HW1 5051   5.704   2.109   3.959  1.5684 -0.3517 -0.4292
34224SOL    HW2 5052   5.743   2.254   3.978 -0.9561  0.1992  0.9234
34225SOL     OW 5053   7.467   4.102   0.018 -0.2278  0.0142 -0.0993
34225SOL    HW1 5054   7.404   4.170   0.041  1.5359  1.0779  1.9942
34225SOL    HW2 5055   7.539   4.114   0.080  1.0320 -2.5691 -0.9056
34226SOL     OW 5056   1.211   0.219   0.343  0.5299  0.7580  0.0136
34226SOL    HW1 5057   1.224   0.127   0.363 -0.2794  0.7249  0.4528
34226SOL    HW2 5058   1.116   0.230   0.341  0.5978  1.3435 -1.1922
34227SOL     OW 5059   6.453   6.960   2.541  0.0365  0.0128 -0.8982
34227SOL    HW1 5060   6.430   7.038   2.592  0.7093  0.6668 -1.5689
34227SOL    HW2 5061   6.518   6.991   2.478 -0.0599 -0.9903 -1.5127
34228SOL     OW 5062   6.926   5.325  10.368 -0.2460 -0.1190  0.1324
34228SOL    HW1 5063   6.839   5.303  10.334 -0.9022  2.1659  0.1878
34228SOL    HW2 5064   6.964   5.383  10.302  0.8047 -0.2309  0.6185
34229SOL     OW 5065   7.231   7.422   9.104 -0.0284  0.0443 -0.5918
34229SOL    HW1 5066   7.243   7.410   9.010 -0.1557 -0.6110 -0.5297
34229SOL    HW2 5067   7.317   7.450   9.135  0.3456 -0.9087 -0.7265
34230SOL     OW 5068   2.431   4.734   1.221 -0.4139  0.8449  0.1405
34230SOL    HW1 5069   2.414   4.760   1.311 -0.8652  0.6250  0.1241
34230SOL    HW2 5070   2.487   4.803   1.186  0.2623  0.6246  0.7662
34231SOL     OW 5071   6.543   2.591   6.639 -0.2950  0.4726 -0.0512
34231SOL    HW1 5072   6.489   2.578   6.561 -0.0176  0.7382 -0.2914
34231SOL    HW2 5073   6.495   2.656   6.690  0.7291  2.2165 -1.1933
34232SOL     OW 5074   5.555   9.236   7.035  0.6084  0.4155 -0.4113
34232SOL    HW1 5075   5.511   9.187   6.965 -0.1526  1.3353 -0.5934
34232SOL    HW2 5076   5.604   9.304   6.990 -0.7280  1.6735 -0.0148
34233SOL     OW 5077  10.611   6.316   8.459  0.0772  0.8638 -0.0526
34233SOL    HW1 5078  10.599   6.403   8.421 -2.6038  0.9577  0.8096
34233SOL    HW2 5079  10.686   6.326   8.518  1.2430  1.9525 -1.6522
34234SOL     OW 5080   0.743   8.057   4.413 -0.4537 -0.5713  0.0810
34234SOL    HW1 5081   0.795   8.087   4.338 -0.3505  1.9117  1.0593
34234SOL    HW2 5082   0.807   8.045   4.483 -0.9490  1.1643  0.8986
34235SOL     OW 5083   0.520   9.604   0.537 -0.0598  0.0347 -0.0660
34235SOL    HW1 5084   0.550   9.546   0.607  0.3630 -0.9553 -1.0385
34235SOL    HW2 5085   0.447   9.557   0.497  0.2984  0.1581 -0.8832
34236SOL     OW 5086   5.119  10.565  10.588  0.2014 -0.4754 -0.1865
34236SOL    HW1 5087   5.043  10.511  10.610  0.1073  0.1274  1.0515
34236SOL    HW2 5088   5.173  10.565  10.667 -0.5251  2.4256  0.4126
34237SOL     OW 5089   2.533   8.968   9.504  0.0561  0.6106  0.0423
34237SOL    HW1 5090   2.496   9.055   9.518 -0.2170  0.7322 -1.2974
34237SOL    HW2 5091   2.458   8.913   9.483  0.3742  0.3403 -0.4039
34238SOL     OW 5092   0.732  10.171   0.528 -0.2911  0.3607  0.5983
34238SOL    HW1 5093   0.678  10.250   0.533 -0.2093  0.5576 -1.1770
34238SOL    HW2 5094   0.670  10.098   0.530 -0.6428  0.5809 -1.2637
34239SOL     OW 5095   0.295   5.857   9.675  0.2464  0.0691  0.7161
34239SOL    HW1 5096   0.287   5.952   9.687 -4.2969 -0.3641  4.1962
34239SOL    HW2 5097   0.388   5.839   9.686  1.1285  4.0085  1.1607
34240SOL     OW 5098   9.395   0.238   5.978  0.0174  0.1975  0.5304
34240SOL    HW1 5099   9.388   0.279   5.892 -0.1068 -1.8865 -0.5267
34240SOL    HW2 5100   9.305   0.234   6.010 -0.4782 -2.1977 -0.9054
34241SOL     OW 5101   6.698  10.186   5.441  0.5444 -0.3398 -0.3661
34241SOL    HW1 5102   6.624  10.126   5.435  0.5439 -0.2430 -1.3875
34241SOL    HW2 5103   6.772  10.132   5.469  0.3624 -0.6539 -0.4959
34242SOL     OW 5104   8.865   0.110   5.657  0.4856 -0.6935  0.4374
34242SOL    HW1 5105   8.899   0.068   5.578  0.7280 -0.5699  0.4730
34242SOL    HW2 5106   8.836   0.196   5.628 -1.5330 -1.4588  0.0371
34243SOL     OW 5107   3.971   0.728   2.529  0.3065  0.2011  0.0015
34243SOL    HW1 5108   3.982   0.637   2.503  0.1685  0.4244 -0.8691
34243SOL    HW2 5109   3.954   0.725   2.623 -0.2055 -0.7011 -0.1158
34244SOL     OW 5110   7.172   4.692   6.222  0.5134 -0.1681 -0.0624
34244SOL    HW1 5111   7.164   4.603   6.257  2.6567 -0.4289 -0.1030
34244SOL    HW2 5112   7.120   4.691   6.142 -3.0364 -0.0754  2.0059
34245SOL     OW 5113   3.146   0.224   6.106 -0.3717 -0.6300 -0.0937
34245SOL    HW1 5114   3.073   0.230   6.168 -0.0459  0.5310  0.2134
34245SOL    HW2 5115   3.224   0.239   6.160 -0.0994  0.6334 -0.7918
34246SOL     OW 5116   3.063   2.534   1.549 -0.4784 -0.5567 -0.1761
34246SOL    HW1 5117   2.969   2.529   1.563 -0.4969 -0.8484 -0.4066
34246SOL    HW2 5118   3.101   2.539   1.637 -0.7456  0.2760 -0.0961
34247SOL     OW 5119   5.207   6.800   8.826 -0.0348 -0.6669  0.1819
34247SOL    HW1 5120   5.141   6.797   8.894 -0.9545  0.1383 -0.6366
34247SOL    HW2 5121   5.158   6.817   8.745  0.9672 -1.9832 -0.7616
34248SOL     OW 5122   1.258   1.626  10.381 -0.4483  0.4397  0.0088
34248SOL    HW1 5123   1.348   1.593  10.388 -0.4195  0.1628 -1.3157
34248SOL    HW2 5124   1.247   1.645  10.288 -2.3362 -1.2351 -0.1917
34249SOL     OW 5125   5.230   2.788   1.926 -0.4527 -0.0875 -0.2028
34249SOL    HW1 5126   5.307   2.806   1.981 -1.1799  1.2129  0.4295
34249SOL    HW2 5127   5.189   2.712   1.968 -0.8548  0.7271  0.9497
34250SOL     OW 5128   5.851   9.189   8.192 -0.4890 -0.5309  0.2878
34250SOL    HW1 5129   5.789   9.134   8.240  0.6437 -1.1463  1.0813
34250SOL    HW2 5130   5.933   9.140   8.193  0.4978  1.0276  0.7881
34251SOL     OW 5131   4.477   8.881   0.603 -0.2194 -0.0394  0.1244
34251SOL    HW1 5132   4.516   8.927   0.677 -0.8402  0.6760  0.0142
34251SOL    HW2 5133   4.521   8.796   0.603 -0.6722 -0.3096  1.7177
34252SOL     OW 5134   8.975   2.294   8.310 -0.2108  0.4511 -0.0421
34252SOL    HW1 5135   8.923   2.215   8.321  0.6887 -0.0794  0.5146
34252SOL    HW2 5136   9.020   2.305   8.393 -0.8945  1.9870  0.1528
34253SOL     OW 5137   1.427   6.089   9.667 -0.1354 -0.1512  0.1329
34253SOL    HW1 5138   1.522   6.084   9.656 -0.0855 -0.6308  0.7553
34253SOL    HW2 5139   1.414   6.137   9.749 -0.4776  1.6460 -0.9141
34254SOL     OW 5140   2.751   7.671   6.996  0.5293 -0.0608 -0.4766
34254SOL    HW1 5141   2.800   7.598   6.959  1.5067  0.5584 -0.4433
34254SOL    HW2 5142   2.659   7.644   6.991  0.9074 -1.4819 -0.0290
34255SOL     OW 5143   8.216   2.800   9.635  0.3354 -0.1023  0.0658
34255SOL    HW1 5144   8.125   2.780   9.614 -0.0295  1.1695  0.3591
34255SOL    HW2 5145   8.218   2.894   9.649  1.8726  0.0380 -0.7994
34256SOL     OW 5146   2.407   5.956   5.954 -0.0205 -0.0870  0.4905
34256SOL    HW1 5147   2.487   6.008   5.956  0.0988  0.0021 -2.2500
34256SOL    HW2 5148   2.432   5.871   5.990  0.7525  0.5711  1.5489
34257SOL     OW 5149   9.218   7.247   7.073  0.1075 -0.8003  0.0534
34257SOL    HW1 5150   9.246   7.330   7.035 -2.6087 -0.0244 -0.4919
34257SOL    HW2 5151   9.198   7.268   7.164 -0.9598 -0.7418 -0.1870
34258SOL     OW 5152   7.750   3.409   5.630  0.5786 -0.2814 -0.6991
34258SOL    HW1 5153   7.719   3.441   5.715 -1.5987  1.2421 -1.9755
34258SOL    HW2 5154   7.720   3.319   5.626 -0.2333 -0.0432 -0.2649
34259SOL     OW 5155   6.486   5.804   2.645 -0.5908 -0.1386 -0.0997
34259SOL    HW1 5156   6.576   5.781   2.623 -1.0117 -2.2093  0.0532
34259SOL    HW2 5157   6.464   5.748   2.719 -2.8049 -1.7458 -1.8021
34260SOL     OW 5158   3.598   0.451   5.601  0.0278  0.3311 -0.0617
34260SOL    HW1 5159   3.677   0.398   5.591  1.0780  1.9071 -0.6827
34260SOL    HW2 5160   3.631   0.540   5.616 -1.6401  0.7704  1.4028
34261SOL     OW 5161   4.847   3.379   4.763 -0.7172 -0.1962 -0.3706
34261SOL    HW1 5162   4.940   3.360   4.774 -1.0117  0.0215  5.9357
34261SOL    HW2 5163   4.844   3.472   4.740  0.6214  0.0990  0.5529
34262SOL     OW 5164   7.959   8.033   6.207  0.1263 -0.6060 -0.6725
34262SOL    HW1 5165   7.961   8.128   6.193  0.4521 -0.6354 -0.8446
34262SOL    HW2 5166   7.983   7.996   6.122  1.8165 -0.7977 -0.1653
34263SOL     OW 5167   4.940   4.267  10.245  0.3813 -0.2904  0.1558
34263SOL    HW1 5168   4.968   4.242  10.333 -1.2507  1.3415  1.2049
34263SOL    HW2 5169   4.982   4.351  10.229  1.1953 -0.8699 -0.9561
34264SOL     OW 5170   6.650   8.501   4.412 -0.1101  0.6484 -0.3959
34264SOL    HW1 5171   6.586   8.510   4.341 -1.5471 -1.3199  0.5674
34264SOL    HW2 5172   6.639   8.582   4.463 -1.0325  0.8460 -0.8750
34265SOL     OW 5173  10.249   5.048  10.251 -0.2394 -0.7282 -0.5702
34265SOL    HW1 5174  10.224   4.962  10.283 -0.7570 -0.1305  0.6806
34265SOL    HW2 5175  10.271   5.033  10.159 -1.1751 -2.0298 -0.6166
34266SOL     OW 5176   8.737   8.449  10.679  0.1682 -0.0215 -0.2669
34266SOL    HW1 5177   8.705   8.536  10.704 -0.7348 -0.3235 -0.3587
34266SOL    HW2 5178   8.658   8.396  10.668  0.6613 -0.6168 -1.1068
34267SOL     OW 5179  10.714   7.719   5.504  0.5105  0.8044 -0.0588
34267SOL    HW1 5180  10.724   7.759   5.590 -0.2987 -0.1863  0.5275
34267SOL    HW2 5181  10.703   7.626   5.522  0.9286  0.4994 -1.2826
34268SOL     OW 5182   8.681   2.707   6.482 -0.0603  0.1600 -0.2695
34268SOL    HW1 5183   8.599   2.733   6.440 -0.5111  0.8069  0.9759
34268SOL    HW2 5184   8.739   2.783   6.473 -0.0479  0.1827 -0.0162
34269SOL     OW 5185   7.083   2.885   3.489 -0.3178  0.0416 -0.2392
34269SOL    HW1 5186   7.026   2.815   3.459 -1.5075  0.6642  0.4713
34269SOL    HW2 5187   7.108   2.860   3.578 -2.0652  1.2074  0.6576
34270SOL     OW 5188   3.292   2.985   4.215 -0.5776 -0.3430  0.2246
34270SOL    HW1 5189   3.210   2.979   4.167  0.0646 -2.1857 -0.7294
34270SOL    HW2 5190   3.267   3.015   4.302 -2.3666 -1.5983  0.1877
34271SOL     OW 5191   6.334   9.841   3.070 -0.1113  0.2863  0.2950
34271SOL    HW1 5192   6.407   9.784   3.093 -0.9641 -0.8282  0.2985
34271SOL    HW2 5193   6.373   9.911   3.017  0.9543 -0.2581  0.3545
34272SOL     OW 5194   9.938   1.774   4.674  0.0984  0.2798 -0.1906
34272SOL    HW1 5195   9.886   1.699   4.643  0.2380  0.2979 -0.4789
34272SOL    HW2 5196   9.893   1.804   4.753 -1.3119  1.3598 -1.3433
34273SOL     OW 5197   5.746   4.077   6.992 -0.4240 -0.3494 -0.4644
34273SOL    HW1 5198   5.654   4.064   6.968 -0.4510 -0.1351 -0.4775
34273SOL    HW2 5199   5.755   4.035   7.078 -0.8692  0.8125  0.1722
34274SOL     OW 5200   4.264   7.369   8.421 -0.0893 -0.3848 -0.6524
34274SOL    HW1 5201   4.230   7.447   8.377 -0.5573  0.7559  1.5864
34274SOL    HW2 5202   4.204   7.299   8.396 -0.4881  0.2757 -1.5873
34275SOL     OW 5203   0.479   4.327   3.842  0.1384 -0.3351 -0.0986
34275SOL    HW1 5204   0.435   4.385   3.780  1.1848 -1.1074 -1.6323
34275SOL    HW2 5205   0.411   4.304   3.907 -1.0316  0.3804 -1.0404
34276SOL     OW 5206   2.901   9.601   5.530 -0.1892  0.0764 -0.5490
34276SOL    HW1 5207   2.846   9.594   5.608 -1.3203  0.1860 -1.3254
34276SOL    HW2 5208   2.923   9.510   5.508 -0.0157  0.0359 -0.2199
34277SOL     OW 5209   2.251   8.637   0.686  0.4392  0.1463  0.3416
34277SOL    HW1 5210   2.232   8.730   0.699  0.2229  0.1671 -0.0854
34277SOL    HW2 5211   2.167   8.593   0.695  0.2002  0.2100 -1.3165
34278SOL     OW 5212   2.018   5.192   4.049 -0.4624 -0.0451 -0.7584
34278SOL    HW1 5213   2.088   5.247   4.085 -1.3204 -0.3224  1.5203
34278SOL    HW2 5214   1.991   5.236   3.969  0.3155  1.6938 -0.1078
34279SOL     OW 5215   8.004   0.973   4.317  0.2479 -0.0655  0.5025
34279SOL    HW1 5216   7.944   0.982   4.391  0.3442  0.2108  0.5485
34279SOL    HW2 5217   8.091   0.987   4.354  0.4734 -1.6997  0.6754
34280SOL     OW 5218   7.233   9.985  10.032 -0.6116  0.2492 -0.3904
34280SOL    HW1 5219   7.193   9.988  10.119 -0.3960 -3.7034  0.0311
34280SOL    HW2 5220   7.159   9.981   9.971 -0.9163 -1.7352  0.0326
34281SOL     OW 5221   3.000   3.562   0.582 -0.0395  0.0657  0.1036
34281SOL    HW1 5222   3.066   3.534   0.519 -0.3037  0.5814 -0.4132
34281SOL    HW2 5223   2.916   3.539   0.542 -0.1971 -0.0300  0.4785
34282SOL     OW 5224   9.782   6.854   8.772 -0.5405  0.1057  0.4997
34282SOL    HW1 5225   9.796   6.929   8.829 -1.3700  1.2951 -0.8040
34282SOL    HW2 5226   9.783   6.890   8.683  0.6472 -1.6791 -0.2750
34283SOL     OW 5227   3.509  10.723   2.761  0.3215 -0.0986 -0.4528
34283SOL    HW1 5228   3.510  10.802   2.706  1.4317  0.6987  0.6478
34283SOL    HW2 5229   3.593  10.681   2.744  0.5817  0.0428  0.4722
34284SOL     OW 5230   3.265   7.625   0.891 -0.0439 -0.6615 -0.2804
34284SOL    HW1 5231   3.208   7.694   0.923  0.6959 -0.3666  0.4180
34284SOL    HW2 5232   3.340   7.625   0.950  0.8034 -0.8924 -1.3097
34285SOL     OW 5233   3.670  10.646   8.645  0.4506  0.2280 -0.1479
34285SOL    HW1 5234   3.669  10.574   8.582 -1.4789 -0.1971  0.3359
34285SOL    HW2 5235   3.650  10.724   8.592  1.0272  0.2034 -0.4110
34286SOL     OW 5236   9.515   8.320   8.266 -0.1063  0.0306  0.5966
34286SOL    HW1 5237   9.480   8.262   8.333  0.0871  1.0443  1.5964
34286SOL    HW2 5238   9.607   8.334   8.291  1.2573 -2.8415 -2.1506
34287SOL     OW 5239   5.163  10.103   3.817  0.1609  0.2845 -0.5101
34287SOL    HW1 5240   5.239  10.129   3.868 -0.8149  1.0313  0.6104
34287SOL    HW2 5241   5.185  10.016   3.783  0.6117 -0.4997  1.6849
34288SOL     OW 5242   6.296   3.093   8.738  0.6132 -0.5165  0.2389
34288SOL    HW1 5243   6.206   3.075   8.711  0.6833 -1.2971  0.4831
34288SOL    HW2 5244   6.306   3.046   8.821  0.8580  0.6269  0.8751
34289SOL     OW 5245   1.570   1.609   5.269  0.2864  0.1582  0.5307
34289SOL    HW1 5246   1.543   1.519   5.286 -0.1301  0.1768  0.0162
34289SOL    HW2 5247   1.615   1.605   5.185 -1.4521  0.7136 -0.4805
34290SOL     OW 5248   0.504   3.598   5.182 -0.0694  0.4971 -0.2993
34290SOL    HW1 5249   0.552   3.535   5.236 -0.7505  0.8771  0.7734
34290SOL    HW2 5250   0.532   3.579   5.092  0.7524 -0.4349  0.1411
34291SOL     OW 5251   8.927   0.494   0.991 -0.1273  0.1409 -0.1407
34291SOL    HW1 5252   8.880   0.577   1.001  0.3392  0.3994 -0.0949
34291SOL    HW2 5253   8.994   0.495   1.059 -1.4687 -1.2307  1.3017
34292SOL     OW 5254   8.263   0.111   5.452 -0.1210  0.0993 -0.4642
34292SOL    HW1 5255   8.248   0.199   5.418 -2.1496 -0.1851 -0.4224
34292SOL    HW2 5256   8.180   0.086   5.492  0.7329 -1.4447  0.4456
34293SOL     OW 5257   0.382   2.751   6.889 -0.2620 -0.0265 -0.5413
34293SOL    HW1 5258   0.400   2.820   6.952 -0.1745 -0.1295 -0.4515
34293SOL    HW2 5259   0.447   2.764   6.819 -0.4517  0.1749 -0.6817
34294SOL     OW 5260   6.306   4.155   0.349  0.4379 -0.6205 -0.1689
34294SOL    HW1 5261   6.386   4.203   0.328  0.4090  0.7632  2.4748
34294SOL    HW2 5262   6.241   4.224   0.365 -0.8802 -1.6919 -0.6855
34295SOL     OW 5263   9.677  10.133   5.483  0.8189 -0.4166  0.0450
34295SOL    HW1 5264   9.626  10.173   5.553  1.5005  0.8310 -0.1414
34295SOL    HW2 5265   9.616  10.126   5.410  0.1266 -1.6541  0.7028
34296SOL     OW 5266   2.500   1.147   7.509 -0.1995 -0.3160  0.0207
34296SOL    HW1 5267   2.555   1.203   7.455 -0.7419  0.1995  0.0002
34296SOL    HW2 5268   2.559   1.117   7.579  0.3403 -0.4939 -0.4983
34297SOL     OW 5269   5.559   6.996   4.281  0.3870 -0.1546  0.2822
34297SOL    HW1 5270   5.650   6.994   4.251  0.3378 -0.5416  0.1541
34297SOL    HW2 5271   5.514   6.932   4.226 -0.0875  0.4535 -0.0519
34298SOL     OW 5272   0.628   5.223   5.197  0.0210  0.1299  0.0568
34298SOL    HW1 5273   0.667   5.212   5.284 -1.1701  0.2578  0.6136
34298SOL    HW2 5274   0.589   5.310   5.198  0.0623  0.1668 -0.6478
34299SOL     OW 5275   9.350   6.207   7.840 -0.4700 -0.5822 -0.0977
34299SOL    HW1 5276   9.289   6.255   7.784 -0.9934 -1.0729  0.0454
34299SOL    HW2 5277   9.409   6.274   7.874 -1.3579  0.0039  0.3111
34300SOL     OW 5278   9.534   8.363   1.542  0.2184  0.2330 -0.3471
34300SOL    HW1 5279   9.627   8.344   1.528  0.1274  0.8858 -2.0532
34300SOL    HW2 5280   9.502   8.394   1.457 -1.6043 -0.1057  0.1572
34301SOL     OW 5281   8.919   6.208   1.590  0.1240  0.1740 -0.2534
34301SOL    HW1 5282   8.980   6.270   1.551  0.5823 -0.6138 -0.8286
34301SOL    HW2 5283   8.951   6.122   1.563 -1.4578 -0.2531 -0.9116
34302SOL     OW 5284  10.164   2.153   7.099 -0.0784 -0.1937 -0.5009
34302SOL    HW1 5285  10.117   2.101   7.034 -1.7935 -0.2304  0.7098
34302SOL    HW2 5286  10.175   2.239   7.057  2.1841 -1.2057 -2.2469
34303SOL     OW 5287   8.784   4.898   3.981 -0.1722  0.6508 -0.0880
34303SOL    HW1 5288   8.692   4.904   3.952 -1.2565  1.8228  3.1484
34303SOL    HW2 5289   8.794   4.807   4.009 -0.8790  0.8720  0.9469
34304SOL     OW 5290  10.484   3.125   4.313 -0.2697 -0.6903 -0.3417
34304SOL    HW1 5291  10.546   3.173   4.258 -1.2876  0.3407 -0.6262
34304SOL    HW2 5292  10.417   3.094   4.252 -0.6035 -0.8801  0.1150
34305SOL     OW 5293   2.532   3.190   2.975  0.2441  0.7140 -0.0610
34305SOL    HW1 5294   2.567   3.138   3.047 -1.0047 -1.1840 -0.7284
34305SOL    HW2 5295   2.541   3.133   2.898 -1.8559  1.1803 -0.7097
34306SOL     OW 5296   3.954   3.252   2.908 -0.1790  0.3088  0.1728
34306SOL    HW1 5297   3.983   3.316   2.842 -1.8568  0.1465 -0.7805
34306SOL    HW2 5298   3.903   3.304   2.970  1.9507  0.5819  1.8088
34307SOL     OW 5299   6.646   1.608   6.286  0.3642  0.3246 -0.8217
34307SOL    HW1 5300   6.701   1.534   6.311  1.5154  1.4836  0.2569
34307SOL    HW2 5301   6.616   1.645   6.370  1.1771  2.0312 -1.2313
34308SOL     OW 5302   2.723   4.776   2.825 -0.1503 -0.1434 -0.6393
34308SOL    HW1 5303   2.800   4.723   2.849 -0.2803 -0.7633 -1.5340
34308SOL    HW2 5304   2.724   4.777   2.730 -2.7674 -2.4849 -0.8092
34309SOL     OW 5305   1.682   1.600   4.552  0.1656  0.2802 -0.4477
34309SOL    HW1 5306   1.739   1.636   4.620  0.5546 -0.8234 -0.1597
34309SOL    HW2 5307   1.730   1.524   4.518 -0.5358  0.1377 -1.1492
34310SOL     OW 5308   2.364   7.305   0.051 -0.5232  0.1590  0.7772
34310SOL    HW1 5309   2.408   7.376   0.098 -0.3699  0.5286  0.1033
34310SOL    HW2 5310   2.431   7.238   0.039 -0.8584 -0.4330  2.0483
34311SOL     OW 5311   6.527   9.483   0.580  0.5360 -0.7073  0.0603
34311SOL    HW1 5312   6.569   9.565   0.606 -2.5740  0.6509  1.3806
34311SOL    HW2 5313   6.489   9.450   0.661 -0.8374 -1.8371 -0.9982
34312SOL     OW 5314   1.989   5.436   0.780  0.4107 -0.1652  0.3359
34312SOL    HW1 5315   1.943   5.447   0.697  1.6224 -1.9270 -0.6456
34312SOL    HW2 5316   2.027   5.521   0.798  1.8470 -0.2043 -2.0431
34313SOL     OW 5317   5.004   6.416   4.185 -0.3372  0.4008 -0.1447
34313SOL    HW1 5318   5.076   6.367   4.145 -2.2926 -1.8579 -1.0767
34313SOL    HW2 5319   4.925   6.369   4.160 -2.2036  2.8032  0.8236
34314SOL     OW 5320  10.303   4.726   1.562 -0.4481 -0.3293 -0.5295
34314SOL    HW1 5321  10.344   4.727   1.649  3.5409 -0.4839 -2.2215
34314SOL    HW2 5322  10.300   4.818   1.536 -0.3200 -0.3926 -0.7715
34315SOL     OW 5323   8.561  10.255   1.770  0.2764 -0.4285 -0.3340
34315SOL    HW1 5324   8.585  10.186   1.832  0.0775 -2.5731 -2.4988
34315SOL    HW2 5325   8.585  10.220   1.684 -0.2337  2.0477 -1.5900
34316SOL     OW 5326   1.861   0.469   5.352 -0.7472 -0.0215 -0.1997
34316SOL    HW1 5327   1.788   0.525   5.380 -1.1918 -1.1270  0.9604
34316SOL    HW2 5328   1.844   0.385   5.395  0.9676 -0.4410 -0.2762
34317SOL     OW 5329   9.632   0.882   2.927 -0.1756  0.6045 -0.2423
34317SOL    HW1 5330   9.698   0.922   2.869  1.6838  0.6955  1.8093
34317SOL    HW2 5331   9.552   0.933   2.910 -0.0746 -0.0444 -3.4186
34318SOL     OW 5332   2.807   6.010   6.188 -0.0866  0.8387  0.1137
34318SOL    HW1 5333   2.880   5.955   6.160 -0.4504  0.8056 -0.8261
34318SOL    HW2 5334   2.806   6.003   6.283 -0.2166 -0.8933  0.0175
34319SOL     OW 5335   4.961   5.913   2.424 -0.3610  0.2407 -0.6590
34319SOL    HW1 5336   5.046   5.897   2.465 -0.1201  2.6716 -0.0896
34319SOL    HW2 5337   4.913   5.832   2.438  1.3915 -0.7255  0.1708
34320SOL     OW 5338   9.505   8.920   8.196  0.2660  0.1986 -0.4200
34320SOL    HW1 5339   9.524   8.864   8.121  0.7579  0.8188 -0.7684
34320SOL    HW2 5340   9.416   8.952   8.180  0.9824  1.6891 -1.6356
34321SOL     OW 5341  10.522   1.568   8.609 -0.3629  0.0789  0.7324
34321SOL    HW1 5342  10.429   1.551   8.626 -0.5246  1.2394  1.0635
34321SOL    HW2 5343  10.541   1.649   8.657  1.1843 -0.8948  1.8401
34322SOL     OW 5344   8.612   9.959   1.082  0.5467 -0.4132  0.2580
34322SOL    HW1 5345   8.517   9.967   1.070  0.6957  2.7039  0.4018
34322SOL    HW2 5346   8.645   9.937   0.995 -0.3544 -3.1280  0.5108
34323SOL     OW 5347   0.936   2.329   1.729  0.2338  0.0533 -0.3078
34323SOL    HW1 5348   0.970   2.412   1.764 -0.4914  1.6098 -2.9863
34323SOL    HW2 5349   0.880   2.296   1.799  0.4382  1.9021  0.8198
34324SOL     OW 5350   9.649   4.968   8.082 -0.2327 -0.1845 -0.0894
34324SOL    HW1 5351   9.624   5.055   8.113  0.6438  0.1592 -0.3336
34324SOL    HW2 5352   9.715   4.984   8.015  0.7012 -1.0701  0.5837
34325SOL     OW 5353   3.351   7.039  10.044 -0.0816  0.3979 -0.0258
34325SOL    HW1 5354   3.434   7.079  10.067  0.5328 -1.9028  2.2890
34325SOL    HW2 5355   3.296   7.050  10.121 -0.9297 -0.4750 -0.4743
34326SOL     OW 5356   3.609   1.799   0.029 -0.5828 -0.3923 -0.5316
34326SOL    HW1 5357   3.549   1.745  -0.023 -1.9221  0.6495 -0.1441
34326SOL    HW2 5358   3.611   1.883  -0.017  1.4835 -0.7326 -1.1398
34327SOL     OW 5359   4.865   9.731   2.776  0.1444 -0.0862 -0.0072
34327SOL    HW1 5360   4.906   9.692   2.699  1.5133 -1.3873  1.3232
34327SOL    HW2 5361   4.918   9.809   2.794  0.9159 -0.7529  0.6359
34328SOL     OW 5362   5.682   0.917  10.753  0.0481 -0.0308  0.0491
34328SOL    HW1 5363   5.753   0.854  10.739 -0.1913 -0.1355 -0.8066
34328SOL    HW2 5364   5.678   0.966  10.671 -1.0077 -0.1812 -0.0024
34329SOL     OW 5365   5.767   2.469   3.069 -0.1123 -0.3301 -0.0274
34329SOL    HW1 5366   5.728   2.527   3.003  0.2406 -3.3989 -3.1963
34329SOL    HW2 5367   5.694   2.417   3.101 -0.2263  0.9398  1.9646
34330SOL     OW 5368   6.935   0.091   1.307 -0.0758 -0.1232 -0.2470
34330SOL    HW1 5369   6.884   0.040   1.245 -0.8483  1.1245 -0.6806
34330SOL    HW2 5370   7.022   0.098   1.268 -0.2781 -0.1908 -0.7125
34331SOL     OW 5371   3.896   5.025   7.697  0.2575 -0.0689 -0.4410
34331SOL    HW1 5372   3.978   4.978   7.705 -0.2608 -1.2169 -1.5904
34331SOL    HW2 5373   3.891   5.079   7.776  1.6023 -0.7654  0.1372
34332SOL     OW 5374  10.040   0.163   1.221 -0.1737  0.1830 -0.1339
34332SOL    HW1 5375   9.951   0.142   1.193  0.1378 -0.0713 -0.9566
34332SOL    HW2 5376  10.094   0.145   1.145  0.3181  2.5047 -0.4125
34333SOL     OW 5377   7.875   6.943   1.377  0.3037 -0.5155  0.4176
34333SOL    HW1 5378   7.933   6.982   1.311  1.9831  0.4999  2.3698
34333SOL    HW2 5379   7.931   6.931   1.454 -1.7405 -0.9361  1.9275
34334SOL     OW 5380   5.447   4.948   6.818 -0.0728 -0.1732 -0.6242
34334SOL    HW1 5381   5.475   4.856   6.818  1.1629  0.1844 -0.8249
34334SOL    HW2 5382   5.464   4.978   6.729  0.4942  0.5264 -0.2917
34335SOL     OW 5383   3.363   4.462   0.470 -0.0728  0.9074 -0.0655
34335SOL    HW1 5384   3.453   4.432   0.482 -0.1717  0.0811 -1.2147
34335SOL    HW2 5385   3.355   4.537   0.529  1.7891  1.8404 -0.8964
34336SOL     OW 5386   8.087   3.871   7.295 -0.1585  0.2375 -0.0505
34336SOL    HW1 5387   8.079   3.898   7.387  0.0072  0.7054 -0.1729
34336SOL    HW2 5388   7.996   3.862   7.265 -0.2166  0.8019 -0.0489
34337SOL     OW 5389   8.122   8.707   5.803  0.2237 -0.2173  0.4025
34337SOL    HW1 5390   8.196   8.682   5.858 -0.2829  2.2329  2.3913
34337SOL    HW2 5391   8.158   8.771   5.741  0.4244 -1.6814 -1.0765
34338SOL     OW 5392   2.303   0.870   4.180 -0.5078 -0.4532 -0.2405
34338SOL    HW1 5393   2.216   0.897   4.207  0.0979  0.3504  1.0202
34338SOL    HW2 5394   2.358   0.886   4.257  0.1153 -4.3928  0.3633
34339SOL     OW 5395   3.576   8.441   2.059 -0.3116 -0.7599 -0.4594
34339SOL    HW1 5396   3.591   8.347   2.044 -0.5271 -0.8775  0.0468
34339SOL    HW2 5397   3.662   8.481   2.048 -0.6127 -0.6558 -3.2003
34340SOL     OW 5398   7.232   8.155   3.738 -0.1194 -0.1051  0.1408
34340SOL    HW1 5399   7.287   8.187   3.666 -0.5821  0.3838  0.0026
34340SOL    HW2 5400   7.195   8.073   3.704  0.1040 -0.1650  0.0351
34341SOL     OW 5401   1.564   8.369  10.611 -0.6137 -0.0846  0.0617
34341SOL    HW1 5402   1.535   8.302  10.550 -1.1405 -0.3528  0.6019
34341SOL    HW2 5403   1.490   8.430  10.618  0.0601  0.8874 -0.8625
34342SOL     OW 5404   1.494   4.629   8.829  0.4829 -0.3158  0.6443
34342SOL    HW1 5405   1.581   4.648   8.792 -0.4583 -0.2335 -1.7055
34342SOL    HW2 5406   1.441   4.705   8.804 -0.8840 -1.5081 -0.2386
34343SOL     OW 5407   3.216   6.518   2.809 -0.2260  0.5231 -0.2841
34343SOL    HW1 5408   3.223   6.443   2.750  0.7881  0.4979 -0.1582
34343SOL    HW2 5409   3.303   6.524   2.850 -0.4633  1.4303  0.1127
34344SOL     OW 5410   3.879   6.776   4.950 -0.1284 -0.3270 -0.0472
34344SOL    HW1 5411   3.936   6.727   5.009  0.9451 -0.3474 -1.0494
34344SOL    HW2 5412   3.906   6.868   4.962 -0.7114 -0.2010  0.3308
34345SOL     OW 5413   6.298   7.700   9.845 -0.2331 -0.1553  0.0781
34345SOL    HW1 5414   6.276   7.783   9.888  0.2340 -0.8910  1.8448
34345SOL    HW2 5415   6.213   7.660   9.827 -0.4494  0.4323 -0.2487
34346SOL     OW 5416   6.048   3.609   5.613  0.0021  0.1490  0.1558
34346SOL    HW1 5417   6.118   3.667   5.583 -0.4663  0.6616  0.0382
34346SOL    HW2 5418   6.080   3.521   5.593  1.5858  0.2086  2.1541
34347SOL     OW 5419   9.221   7.337   3.350  0.0670 -0.4999 -0.0040
34347SOL    HW1 5420   9.161   7.333   3.425  0.4923 -1.0159  0.3136
34347SOL    HW2 5421   9.304   7.306   3.385  0.6866  0.8021 -0.2784
34348SOL     OW 5422   3.030   1.520   3.358  0.1125 -0.1914  0.1397
34348SOL    HW1 5423   2.970   1.568   3.416  1.3779 -0.9015  2.1333
34348SOL    HW2 5424   3.091   1.587   3.328 -0.4636  0.1612 -0.2656
34349SOL     OW 5425  10.651   8.659   6.089  0.2776 -0.2379  0.2226
34349SOL    HW1 5426  10.569   8.620   6.058  0.2039  0.2771 -0.2469
34349SOL    HW2 5427  10.644   8.657   6.184  0.2303 -1.2701  0.2081
34350SOL     OW 5428   0.088   7.263   1.330 -0.0906  0.1973 -0.2742
34350SOL    HW1 5429   0.033   7.274   1.251  0.4859  0.7979 -0.6081
34350SOL    HW2 5430   0.161   7.208   1.301  0.6837  1.2856 -0.4654
34351SOL     OW 5431  10.389   3.683  10.440 -0.5817  0.4682  0.0304
34351SOL    HW1 5432  10.312   3.626  10.442  0.9348 -1.7040 -0.2091
34351SOL    HW2 5433  10.438   3.660  10.520  1.4061 -0.5987 -1.4083
34352SOL     OW 5434   1.467   6.255   8.884  0.1583 -0.0490  0.2910
34352SOL    HW1 5435   1.392   6.226   8.831 -0.2843 -0.0069  0.8896
34352SOL    HW2 5436   1.431   6.266   8.972  0.5254  1.3772  0.2978
34353SOL     OW 5437   7.248   9.056   6.925 -0.4053  0.3574 -0.5338
34353SOL    HW1 5438   7.263   8.976   6.875 -2.3973 -0.3480 -0.0920
34353SOL    HW2 5439   7.260   9.127   6.861  0.0723 -0.3496 -1.2462
34354SOL     OW 5440   0.296   8.858   1.771  0.0902  0.2834  0.7263
34354SOL    HW1 5441   0.254   8.831   1.853  1.4785 -0.8630  1.1073
34354SOL    HW2 5442   0.225   8.864   1.708 -0.8914  0.3505  1.8038
34355SOL     OW 5443   3.962   0.316   1.325  0.6383  0.1647  0.0599
34355SOL    HW1 5444   3.926   0.404   1.337 -0.5020 -0.4719  1.6661
34355SOL    HW2 5445   4.050   0.321   1.361  1.2094  1.0267 -1.3532
34356SOL     OW 5446   9.200   7.239   3.818  0.1598  0.2217  0.4561
34356SOL    HW1 5447   9.207   7.318   3.872 -0.2661 -0.4114  1.4573
34356SOL    HW2 5448   9.121   7.254   3.765 -0.8293 -0.1709  1.7630
34357SOL     OW 5449   5.313  10.284   8.322  0.8375  0.3034  0.2264
34357SOL    HW1 5450   5.300  10.217   8.255  1.4105  0.0482  0.3633
34357SOL    HW2 5451   5.226  10.297   8.360  0.8680 -1.0140  0.8102
34358SOL     OW 5452   1.110   3.618   7.710  0.4862  0.5526  0.0920
34358SOL    HW1 5453   1.192   3.587   7.673  1.3225  0.9157  1.5755
34358SOL    HW2 5454   1.058   3.645   7.634  1.0178 -1.3186 -0.9970
34359SOL     OW 5455   4.491   6.554   0.920 -0.1571 -0.2199 -0.2464
34359SOL    HW1 5456   4.467   6.588   0.834 -0.4825 -0.2682 -0.1759
34359SOL    HW2 5457   4.501   6.460   0.908 -3.2485 -0.7557  0.3839
34360SOL     OW 5458   6.284   4.047   2.826  0.3899  0.1810 -0.1684
34360SOL    HW1 5459   6.301   4.061   2.733  1.1913 -0.4479 -0.1244
34360SOL    HW2 5460   6.304   4.132   2.867  0.6629  0.2750 -0.4932
34361SOL     OW 5461  10.181   3.744  10.071 -0.3095 -0.1936 -0.0102
34361SOL    HW1 5462  10.191   3.809  10.140  0.5414 -0.4377  0.1117
34361SOL    HW2 5463  10.087   3.740  10.055 -0.4327  0.5359  0.4844
34362SOL     OW 5464   1.767  10.112   1.870 -0.3866 -0.0507  0.3567
34362SOL    HW1 5465   1.819  10.128   1.949 -0.2436 -0.4431  0.3437
34362SOL    HW2 5466   1.735  10.022   1.880 -0.1901 -0.1804 -0.1309
34363SOL     OW 5467   9.483   5.111   6.528  0.9076 -0.2448 -0.3491
34363SOL    HW1 5468   9.500   5.051   6.455  0.3236 -1.6068  0.6071
34363SOL    HW2 5469   9.447   5.056   6.597 -0.9479  1.4298  0.1061
34364SOL     OW 5470   8.655   9.836   3.695  0.4554 -0.0400 -0.0362
34364SOL    HW1 5471   8.633   9.820   3.603 -0.7209  0.3668  0.1578
34364SOL    HW2 5472   8.742   9.876   3.692  0.6062 -0.3919 -0.9360
34365SOL     OW 5473   1.318   0.966   0.790  0.2235 -0.0324  0.2147
34365SOL    HW1 5474   1.404   0.976   0.749  0.5042 -0.6781  0.6243
34365SOL    HW2 5475   1.302   1.051   0.832  0.3713  0.3049 -0.3946
34366SOL     OW 5476   1.871   1.903   2.493  0.1421  0.1687  0.0341
34366SOL    HW1 5477   1.952   1.865   2.527 -0.6497 -1.2963  0.3791
34366SOL    HW2 5478   1.882   1.902   2.398  0.4089 -0.3370  0.0660
34367SOL     OW 5479  10.096  10.577   8.817  0.0892  0.2797 -0.2249
34367SOL    HW1 5480  10.022  10.607   8.870 -0.7592  0.3650 -1.4185
34367SOL    HW2 5481  10.058  10.514   8.755  0.8483  0.9272 -1.3949
34368SOL     OW 5482   8.244   9.156   4.295 -0.2978  0.2642  0.5276
34368SOL    HW1 5483   8.175   9.156   4.361 -0.8847  1.4402 -0.0474
34368SOL    HW2 5484   8.201   9.185   4.215  0.7050  0.2835 -0.0254
34369SOL     OW 5485   0.938  10.497   3.413 -0.1811  0.4328  0.1078
34369SOL    HW1 5486   0.907  10.444   3.486  0.1593 -0.5232 -0.4108
34369SOL    HW2 5487   0.901  10.584   3.428 -0.4640  0.1420  1.1775
34370SOL     OW 5488   3.961   4.961   5.443  0.2400  0.2489  0.4206
34370SOL    HW1 5489   4.035   4.990   5.496 -0.2666  1.4913  0.4652
34370SOL    HW2 5490   3.909   4.906   5.501  1.4138 -1.1434  0.2197
34371SOL     OW 5491   4.692   1.513   1.635  0.0298 -0.4764 -0.3265
34371SOL    HW1 5492   4.698   1.532   1.541 -2.0080 -0.2002 -0.4576
34371SOL    HW2 5493   4.661   1.423   1.639  0.4147 -0.5919  0.1044
34372SOL     OW 5494  10.304   0.630   0.797 -0.1454 -0.0857  0.0443
34372SOL    HW1 5495  10.342   0.546   0.770  2.3725  1.2612 -0.9586
34372SOL    HW2 5496  10.322   0.689   0.724 -2.3847  1.2346  0.4694
34373SOL     OW 5497   1.594   0.443   6.974  0.7816  0.2434  0.5767
34373SOL    HW1 5498   1.655   0.422   6.903  0.5424  0.4769  0.2962
34373SOL    HW2 5499   1.600   0.539   6.983  1.0592  0.1785  1.1003
34374SOL     OW 5500   0.483   6.382   4.213 -0.3561 -0.5865  0.0818
34374SOL    HW1 5501   0.550   6.448   4.191 -1.6686  0.7926  0.0586
34374SOL    HW2 5502   0.519   6.300   4.178  1.9268 -0.1724  1.2523
34375SOL     OW 5503  10.261   0.147   8.819 -0.0826  0.2934 -0.3433
34375SOL    HW1 5504  10.274   0.240   8.836  1.3726 -0.1107  1.0177
34375SOL    HW2 5505  10.321   0.127   8.747 -1.5138  0.6754 -1.7019
34376SOL     OW 5506   9.846   8.255   7.653  0.2619 -0.1478  0.1688
34376SOL    HW1 5507   9.929   8.254   7.699  0.1294  0.7877  0.4425
34376SOL    HW2 5508   9.809   8.168   7.669  0.9982 -0.4292  0.3756
34377SOL     OW 5509   6.503   8.735   1.786 -0.4405 -0.1853 -0.0757
34377SOL    HW1 5510   6.506   8.769   1.875 -2.4086 -4.4495  1.9353
34377SOL    HW2 5511   6.442   8.792   1.740 -1.2120  0.7964  2.0368
34378SOL     OW 5512   6.661   1.086   4.748  0.0930 -0.9375 -0.0369
34378SOL    HW1 5513   6.621   1.043   4.824  0.1445 -0.4342  0.2788
34378SOL    HW2 5514   6.596   1.078   4.679 -0.9049  0.5318  0.6775
34379SOL     OW 5515  10.006   4.845   5.356  0.0688 -0.2059  0.5745
34379SOL    HW1 5516   9.935   4.907   5.371  0.0496 -0.6288  2.4557
34379SOL    HW2 5517   9.974   4.763   5.392  1.0237 -0.7255  0.2736
34380SOL     OW 5518   3.029   4.329   1.072 -0.4531  0.0994 -0.1976
34380SOL    HW1 5519   3.041   4.372   0.987  0.4808  1.6672  0.6687
34380SOL    HW2 5520   2.962   4.382   1.117 -0.2087 -0.0998  0.4150
34381SOL     OW 5521   6.084   5.826   4.176  0.0813  0.2611  0.3064
34381SOL    HW1 5522   6.154   5.887   4.201  1.8282 -1.5459  0.1021
34381SOL    HW2 5523   6.129   5.759   4.124 -2.0308 -0.3852 -0.7763
34382SOL     OW 5524   5.070   5.736   3.078  0.4163 -0.4956 -0.0976
34382SOL    HW1 5525   5.082   5.736   3.173  0.4701 -0.1739 -0.1055
34382SOL    HW2 5526   4.976   5.747   3.065  0.6780  2.5600 -0.1167
34383SOL     OW 5527  10.799   2.637   5.021  0.6742 -0.1023  0.3994
34383SOL    HW1 5528  10.872   2.617   5.081  1.5398  0.2869 -0.4878
34383SOL    HW2 5529  10.741   2.693   5.072  1.2012 -0.0831  0.9991
34384SOL     OW 5530   5.708   2.516   8.433 -0.3988  0.1520 -0.5958
34384SOL    HW1 5531   5.799   2.545   8.431 -0.8880  1.7005 -1.4982
34384SOL    HW2 5532   5.690   2.487   8.343 -0.9852  0.4915 -0.5910
34385SOL     OW 5533   2.666   1.370   2.632 -0.4065  0.4438  0.6479
34385SOL    HW1 5534   2.729   1.333   2.570  1.3215 -1.9897  3.6054
34385SOL    HW2 5535   2.684   1.464   2.629  0.3971  0.3030 -1.5980
34386SOL     OW 5536   9.948   0.889   1.447  0.2688  0.1136 -0.0661
34386SOL    HW1 5537   9.949   0.797   1.422  0.5675  0.2727 -0.6648
34386SOL    HW2 5538   9.927   0.936   1.366  1.5722  0.6613 -0.1114
34387SOL     OW 5539  10.186   6.080   1.045 -0.3307 -0.2085  0.3237
34387SOL    HW1 5540  10.272   6.041   1.061 -1.1080 -0.9612  3.3719
34387SOL    HW2 5541  10.140   6.015   0.991  0.2888 -0.8744  0.5745
34388SOL     OW 5542   3.875   2.734   9.673  0.3519  0.1774  0.1449
34388SOL    HW1 5543   3.906   2.677   9.602  1.2153  1.0652 -0.2216
34388SOL    HW2 5544   3.901   2.689   9.753 -1.1092 -1.0999 -0.0695
34389SOL     OW 5545   3.660   0.963   9.470  0.3001  0.1501 -0.4902
34389SOL    HW1 5546   3.746   1.005   9.471 -0.5808  2.0672 -1.1450
34389SOL    HW2 5547   3.659   0.913   9.388  0.5760  0.6142 -0.7854
34390SOL     OW 5548   1.496   8.871   1.537 -0.1985  0.6098  0.2232
34390SOL    HW1 5549   1.576   8.824   1.559 -0.2789 -0.4672 -1.6265
34390SOL    HW2 5550   1.429   8.804   1.529 -0.8348  1.2842 -0.2764
34391SOL     OW 5551   8.963   3.502   6.617  0.1053  0.5669  0.0209
34391SOL    HW1 5552   8.884   3.534   6.574 -0.4095  1.5911  1.6481
34391SOL    HW2 5553   8.941   3.499   6.710  0.3140 -4.0748  0.1232
34392SOL     OW 5554  10.007   2.359   0.412 -0.2040  0.2287 -0.2394
34392SOL    HW1 5555   9.971   2.278   0.375  3.7591 -1.9079  0.0357
34392SOL    HW2 5556  10.024   2.415   0.336 -2.0069  0.4345 -0.5294
34393SOL     OW 5557   8.259   7.861   0.431  0.2258 -0.1394 -0.2502
34393SOL    HW1 5558   8.246   7.767   0.447 -2.0556  0.4475  2.0813
34393SOL    HW2 5559   8.287   7.895   0.516  0.3014  1.4221 -0.8786
34394SOL     OW 5560   7.410   1.253   1.249  0.5933  0.1873  0.3086
34394SOL    HW1 5561   7.461   1.172   1.238  0.7109  0.3834 -0.7387
34394SOL    HW2 5562   7.433   1.306   1.173 -2.1824 -0.2694 -0.9657
34395SOL     OW 5563   1.762   1.633   9.895 -0.0370  0.2516 -0.5410
34395SOL    HW1 5564   1.800   1.549   9.921  0.3218  0.9338  1.2135
34395SOL    HW2 5565   1.827   1.671   9.835  0.1576 -0.3637 -0.7265
34396SOL     OW 5566   0.192   7.328   8.073 -0.3362  0.2971 -0.2075
34396SOL    HW1 5567   0.276   7.374   8.083 -0.5743  0.4154  1.6707
34396SOL    HW2 5568   0.134   7.392   8.034 -0.3492  1.2705  1.3154
34397SOL     OW 5569   3.817   6.675   3.437  0.3891 -0.1789 -0.1529
34397SOL    HW1 5570   3.878   6.723   3.381 -0.2579 -1.2055 -1.8091
34397SOL    HW2 5571   3.755   6.741   3.467  1.1888  0.5226  0.0110
34398SOL     OW 5572   4.503   6.649   2.910  0.3587 -0.4603  0.0276
34398SOL    HW1 5573   4.529   6.670   2.999  0.3266  0.8075 -0.2428
34398SOL    HW2 5574   4.416   6.687   2.900  0.0514 -1.2198 -0.3283
34399SOL     OW 5575   1.025   9.503   9.598  0.1461 -0.4435  0.2006
34399SOL    HW1 5576   0.977   9.476   9.676  0.9247  0.8149  1.1544
34399SOL    HW2 5577   0.956   9.525   9.534 -0.5203 -3.9566 -0.4665
34400SOL     OW 5578   2.814   8.063   0.165  0.7721 -0.1486 -0.2364
34400SOL    HW1 5579   2.829   8.036   0.255  2.8958  1.6270  0.0301
34400SOL    HW2 5580   2.901   8.077   0.128 -0.0559  1.5260 -1.7825
34401SOL     OW 5581   1.614   1.112   1.791 -0.1678  0.1113  0.3865
34401SOL    HW1 5582   1.626   1.025   1.752  1.2852 -0.1932  1.4296
34401SOL    HW2 5583   1.677   1.168   1.745 -1.1088  0.6407 -0.2924
34402SOL     OW 5584   6.896   3.580   1.623  0.0246  0.4602  0.6283
34402SOL    HW1 5585   6.869   3.528   1.698 -0.1400  1.4401  1.2675
34402SOL    HW2 5586   6.825   3.569   1.560  0.5895 -1.1007  0.2159
34403SOL     OW 5587   9.890   0.483   2.990  0.3816 -0.3640 -0.0533
34403SOL    HW1 5588   9.813   0.444   2.948  1.3907 -0.7059 -1.6853
34403SOL    HW2 5589   9.870   0.576   2.994 -0.2038 -0.4706 -0.2979
34404SOL     OW 5590  10.394   0.017   6.207 -0.1801  0.1623 -0.4906
34404SOL    HW1 5591  10.476   0.048   6.168 -0.0443 -0.1389 -0.4461
34404SOL    HW2 5592  10.326   0.050   6.148 -0.0279  0.3968 -0.5395
34405SOL     OW 5593   1.530   2.438   2.253 -0.2908 -0.4724  0.3207
34405SOL    HW1 5594   1.589   2.449   2.178 -2.8140 -1.4170 -2.0105
34405SOL    HW2 5595   1.544   2.348   2.282  1.0929  0.0709  1.4126
34406SOL     OW 5596   0.681   2.911   8.933  0.4192  0.1971  0.5354
34406SOL    HW1 5597   0.757   2.893   8.989 -0.1459 -1.3182  0.8648
34406SOL    HW2 5598   0.607   2.877   8.982 -0.3654  0.7951 -0.2068
34407SOL     OW 5599   3.818  10.680   9.438  0.2272  0.7646  0.2990
34407SOL    HW1 5600   3.750  10.741   9.410 -0.1173  0.8613  1.3099
34407SOL    HW2 5601   3.828  10.621   9.364  1.4304  2.7343 -1.1983
34408SOL     OW 5602   5.685   6.601   5.419 -0.0413 -0.4212  0.3525
34408SOL    HW1 5603   5.621   6.649   5.471  0.1981 -0.3635  0.5925
34408SOL    HW2 5604   5.756   6.664   5.403 -0.2528 -0.3460 -0.2980
34409SOL     OW 5605   0.985   7.159   0.904  0.6319 -0.2851 -0.4173
34409SOL    HW1 5606   0.895   7.181   0.879 -0.2581 -0.5249  2.2642
34409SOL    HW2 5607   1.022   7.242   0.933  1.0174 -0.3389 -0.7490
34410SOL     OW 5608   9.854   0.749   3.035  0.0659  0.0557 -0.1939
34410SOL    HW1 5609   9.762   0.771   3.020  0.2904  0.5943 -0.8347
34410SOL    HW2 5610   9.899   0.774   2.954  0.6244 -1.1557 -0.2790
34411SOL     OW 5611   1.188   3.277   4.409  0.0934 -0.1517  0.1122
34411SOL    HW1 5612   1.247   3.311   4.476  0.1183 -1.1074  0.5850
34411SOL    HW2 5613   1.134   3.213   4.455 -1.3769  0.7460 -0.2843
34412SOL     OW 5614   2.024  10.326   8.922 -0.3713  0.6026  0.4324
34412SOL    HW1 5615   2.016  10.236   8.954 -0.4006  0.6102  0.4463
34412SOL    HW2 5616   2.117  10.346   8.933 -0.5237  0.8814  1.2682
34413SOL     OW 5617   5.284   2.653   6.985  0.0238  0.2904 -0.2689
34413SOL    HW1 5618   5.207   2.615   6.942  0.0529 -0.1638  0.0657
34413SOL    HW2 5619   5.274   2.627   7.077  0.2825  0.7146 -0.1188
34414SOL     OW 5620   2.726   1.698   7.395  0.0948  0.3262 -0.1203
34414SOL    HW1 5621   2.706   1.620   7.343 -1.1408  0.6035 -0.0928
34414SOL    HW2 5622   2.650   1.755   7.382  0.6880  1.2521  0.3831
34415SOL     OW 5623   5.458   4.279  10.181  0.3787 -0.2278  0.1500
34415SOL    HW1 5624   5.550   4.253  10.191  0.5747  0.6338  0.6947
34415SOL    HW2 5625   5.409   4.200  10.204  0.9795 -0.8723 -0.6984
34416SOL     OW 5626   8.593   0.969   9.566 -0.1142  0.0398  0.5301
34416SOL    HW1 5627   8.633   0.945   9.482  0.2967  1.6714  0.2171
34416SOL    HW2 5628   8.542   0.892   9.591  0.9072 -1.0172 -0.4960
34417SOL     OW 5629   8.453   6.454   9.302 -0.0499 -0.0801 -0.1999
34417SOL    HW1 5630   8.372   6.451   9.353 -0.3728 -0.4834 -0.7170
34417SOL    HW2 5631   8.465   6.364   9.271  1.6587 -0.4760  1.4642
34418SOL     OW 5632   1.144   8.196   4.601  0.1099 -0.2192  0.2194
34418SOL    HW1 5633   1.212   8.261   4.584  0.5994 -0.7307  0.2159
34418SOL    HW2 5634   1.184   8.112   4.579 -0.0392 -0.6768  1.5932
34419SOL     OW 5635   1.453   1.640   6.583  0.1311 -0.3782 -0.0800
34419SOL    HW1 5636   1.515   1.675   6.519 -2.1219  2.4074 -0.9426
34419SOL    HW2 5637   1.387   1.595   6.530 -1.4418  1.4510  0.2218
34420SOL     OW 5638   8.441   0.163   1.837  0.1340 -0.1196  0.1900
34420SOL    HW1 5639   8.402   0.075   1.845 -2.0971  0.9074  1.8646
34420SOL    HW2 5640   8.387   0.207   1.772  1.1763  0.0815 -0.5587
34421SOL     OW 5641  10.387   1.992   0.393 -0.2520 -0.4948 -0.1163
34421SOL    HW1 5642  10.453   1.994   0.463 -0.2517 -1.3358 -0.0721
34421SOL    HW2 5643  10.357   2.082   0.385 -1.9739 -0.7065  2.6440
34422SOL     OW 5644   0.269   7.446   4.509 -0.9123 -0.4564 -0.4277
34422SOL    HW1 5645   0.339   7.393   4.546 -1.6809 -1.2117 -0.0129
34422SOL    HW2 5646   0.233   7.495   4.583 -1.4076 -0.7634 -0.4548
34423SOL     OW 5647   0.621   7.195   5.271 -0.5168  0.2673 -0.0395
34423SOL    HW1 5648   0.555   7.130   5.252 -0.9392  1.1615 -1.8989
34423SOL    HW2 5649   0.586   7.277   5.235  1.5018  0.7899 -1.0231
34424SOL     OW 5650   2.880   7.186   1.079 -0.5460  0.1300  0.4287
34424SOL    HW1 5651   2.815   7.212   1.144 -1.6744 -0.6035 -0.3861
34424SOL    HW2 5652   2.929   7.266   1.061 -0.4682  0.4350  1.8791
34425SOL     OW 5653   3.263   4.037   9.800 -0.1340  0.5197  0.1322
34425SOL    HW1 5654   3.244   4.107   9.737  0.1863  0.4087 -0.0883
34425SOL    HW2 5655   3.356   4.019   9.788 -0.2961 -0.1954 -0.0587
34426SOL     OW 5656   7.099   0.267   0.411  0.1962 -0.2673  0.1455
34426SOL    HW1 5657   7.193   0.269   0.424  0.1230  1.4349  0.7434
34426SOL    HW2 5658   7.083   0.191   0.355  1.7318 -1.5018  1.3036
34427SOL     OW 5659  10.358   6.011   7.825  0.3101 -0.2362 -0.2284
34427SOL    HW1 5660  10.269   6.037   7.846  0.4503 -0.9348  1.3824
34427SOL    HW2 5661  10.412   6.086   7.853  0.3870 -0.6719  0.8549
34428SOL     OW 5662   0.105   4.798   9.243 -0.0132 -0.0099 -0.1462
34428SOL    HW1 5663   0.057   4.880   9.248 -0.8112 -0.5229  1.1010
34428SOL    HW2 5664   0.142   4.797   9.155 -1.4707  0.8577 -0.8068
34429SOL     OW 5665   8.401   7.439   6.433 -0.2213 -0.1239  0.0190
34429SOL    HW1 5666   8.404   7.507   6.501  0.8999  0.9091 -1.0195
34429SOL    HW2 5667   8.470   7.463   6.372 -0.6857 -1.4786 -1.0901
34430SOL     OW 5668   0.504   8.827   2.794 -0.0177  0.8588  0.8350
34430SOL    HW1 5669   0.596   8.820   2.769 -0.2233 -2.0724  0.5979
34430SOL    HW2 5670   0.477   8.912   2.759  2.5673  1.8454  0.9675
34431SOL     OW 5671   0.958   9.522   2.414  0.2556 -0.6778  0.2188
34431SOL    HW1 5672   0.928   9.432   2.406 -1.5341 -0.2580  1.4531
34431SOL    HW2 5673   0.883   9.575   2.388  1.2970  0.4776 -0.5590
34432SOL     OW 5674   4.540   9.845   8.923 -0.1149  0.0443 -0.2451
34432SOL    HW1 5675   4.489   9.826   8.844  1.4037  1.0011 -1.5262
34432SOL    HW2 5676   4.592   9.766   8.937 -1.0920 -0.5029  0.4045
34433SOL     OW 5677   8.321   9.640   6.068  0.1338 -0.2203  0.7412
34433SOL    HW1 5678   8.315   9.667   6.160  0.8724  1.1269  0.4117
34433SOL    HW2 5679   8.240   9.591   6.052 -1.0469  1.3840  1.5257
34434SOL     OW 5680   6.490   6.446   4.499  0.3334  0.0535 -0.1152
34434SOL    HW1 5681   6.543   6.526   4.503  1.5966 -0.7026 -1.1978
34434SOL    HW2 5682   6.552   6.375   4.512 -0.7652 -0.7903  0.7264
34435SOL     OW 5683   5.954   2.603   4.482 -0.1170 -0.7828 -0.1724
34435SOL    HW1 5684   5.901   2.596   4.402 -0.2973  0.6192 -0.2014
34435SOL    HW2 5685   5.901   2.656   4.541  0.1945 -1.4687  0.7412
34436SOL     OW 5686   8.941  10.694   5.784  0.4627  0.0774 -0.1544
34436SOL    HW1 5687   9.030  10.671   5.758 -0.2923 -1.2729 -1.7134
34436SOL    HW2 5688   8.934  10.787   5.762  1.4212  0.1442 -0.2368
34437SOL     OW 5689   3.926   7.997   0.419 -0.3683 -0.0034 -0.2212
34437SOL    HW1 5690   3.885   7.911   0.418 -3.9334  1.5107  0.2606
34437SOL    HW2 5691   3.902   8.034   0.504  0.4042  1.7860 -0.7381
34438SOL     OW 5692   5.967   6.244   3.658 -0.1174 -0.3182 -0.2142
34438SOL    HW1 5693   6.014   6.185   3.717 -0.8642 -2.6701 -1.8417
34438SOL    HW2 5694   5.955   6.324   3.709  1.9158 -1.1259  1.7163
34439SOL     OW 5695   4.055  10.519   5.264 -0.0862 -0.1074 -0.2218
34439SOL    HW1 5696   3.985  10.577   5.296  0.0914 -0.8023  1.5677
34439SOL    HW2 5697   4.082  10.557   5.181 -1.2934  1.2670 -0.0278
34440SOL     OW 5698   7.769   6.489   4.488 -0.0920 -0.3160 -0.0607
34440SOL    HW1 5699   7.851   6.480   4.536  0.6072  1.2306 -0.8767
34440SOL    HW2 5700   7.713   6.541   4.546  0.2572  0.3686 -0.3219
34441SOL     OW 5701   2.628   8.636   7.527 -0.1066 -0.2348 -0.1594
34441SOL    HW1 5702   2.692   8.616   7.595 -1.9297 -1.2308  1.3404
34441SOL    HW2 5703   2.614   8.730   7.534  0.7665 -0.0928 -0.1539
34442SOL     OW 5704   4.843   0.094   8.136  0.5455 -0.4135  0.3031
34442SOL    HW1 5705   4.924   0.044   8.127  0.1573 -1.1480  0.8107
34442SOL    HW2 5706   4.861   0.176   8.091  1.3898 -0.7797 -0.0528
34443SOL     OW 5707   3.340  10.567  10.150 -0.6303  0.1406 -0.0891
34443SOL    HW1 5708   3.253  10.601  10.167 -0.9006 -0.2680 -0.6230
34443SOL    HW2 5709   3.329  10.472  10.148 -0.0822  0.0599  0.3328
34444SOL     OW 5710   9.228   1.624   0.047 -0.0060 -0.3073  0.1616
34444SOL    HW1 5711   9.300   1.656  -0.008  0.3235 -0.1283  0.6800
34444SOL    HW2 5712   9.239   1.672   0.130 -0.8424 -0.1329  0.1827
34445SOL     OW 5713   8.376   0.552   4.360  0.3183  0.4961 -0.2915
34445SOL    HW1 5714   8.321   0.609   4.307 -0.4375  0.7307  0.7051
34445SOL    HW2 5715   8.353   0.464   4.332  0.7092  0.6354 -1.0848
34446SOL     OW 5716   6.531   4.121   7.509 -0.4405 -0.4638 -0.8370
34446SOL    HW1 5717   6.478   4.054   7.465  0.3040 -0.9023 -1.0888
34446SOL    HW2 5718   6.617   4.080   7.520 -0.6036 -0.3561  1.0504
34447SOL     OW 5719   0.075   9.288  10.548  0.0227 -0.0892  0.3617
34447SOL    HW1 5720   0.169   9.274  10.549  0.1610  0.7295  1.5934
34447SOL    HW2 5721   0.055   9.325  10.634 -0.8223  3.3577 -1.1191
34448SOL     OW 5722   3.790   3.890   4.803  0.4957  0.4103 -0.4607
34448SOL    HW1 5723   3.759   3.942   4.878 -1.3231 -0.5061 -0.5123
34448SOL    HW2 5724   3.710   3.855   4.764  1.6136 -1.7727 -0.9251
34449SOL     OW 5725  10.289   4.014   1.737 -0.1687  0.1612  0.6108
34449SOL    HW1 5726  10.206   4.049   1.768 -0.9425 -1.3142  0.2629
34449SOL    HW2 5727  10.280   4.011   1.642 -0.2552 -1.2554  0.6469
34450SOL     OW 5728  10.091   6.060   9.248  0.0486  0.0017 -0.0766
34450SOL    HW1 5729  10.024   5.993   9.263 -0.8662  0.8292 -0.3644
34450SOL    HW2 5730  10.158   6.015   9.196 -0.6610 -0.6354 -0.4623
34451SOL     OW 5731   5.139   1.898   6.203 -0.4535  0.3337 -0.1191
34451SOL    HW1 5732   5.200   1.853   6.144 -0.4799  2.3264 -1.7956
34451SOL    HW2 5733   5.162   1.991   6.195 -1.2738  0.7928  2.1385
34452SOL     OW 5734   8.184   9.469   8.883  0.6805  0.0513 -0.0534
34452SOL    HW1 5735   8.261   9.485   8.937 -0.8798  0.3863  2.2137
34452SOL    HW2 5736   8.115   9.522   8.923 -0.4658  0.8263 -2.7942
34453SOL     OW 5737  10.531   1.809   8.763  0.2552  0.5397  0.2227
34453SOL    HW1 5738  10.611   1.861   8.765  0.1359  0.7110  1.2884
34453SOL    HW2 5739  10.465   1.865   8.804 -1.5851  2.1696 -4.2903
34454SOL     OW 5740   8.157   1.859   0.905  0.0271 -0.2622  0.1769
34454SOL    HW1 5741   8.226   1.848   0.840  0.0847 -1.0409  0.3626
34454SOL    HW2 5742   8.076   1.866   0.854  0.3467  2.1253 -0.1319
34455SOL     OW 5743   2.954   0.142   8.074  0.1548  0.0114  0.1090
34455SOL    HW1 5744   3.035   0.160   8.121  0.3018 -0.8987  0.2326
34455SOL    HW2 5745   2.943   0.215   8.014  0.6673  0.5202  0.6297
34456SOL     OW 5746   7.322   7.093   1.727  0.0104  0.2792 -0.2244
34456SOL    HW1 5747   7.370   7.162   1.681  2.6046 -1.2377  0.0246
34456SOL    HW2 5748   7.324   7.018   1.667 -1.4748 -0.0722  0.1125
34457SOL     OW 5749   6.258   6.889   3.178  0.2328 -0.0658  0.2435
34457SOL    HW1 5750   6.320   6.899   3.106 -1.3672  1.0086 -1.0833
34457SOL    HW2 5751   6.250   6.977   3.215  1.2475 -0.6625  1.9739
34458SOL     OW 5752   1.452   9.648   2.311  0.2222  0.8435  0.3667
34458SOL    HW1 5753   1.444   9.719   2.373  0.4536  1.3724 -0.2015
34458SOL    HW2 5754   1.362   9.630   2.283  0.1423  0.7561  0.6731
34459SOL     OW 5755   3.400   6.049   2.634  0.3974  0.5043 -0.5584
34459SOL    HW1 5756   3.482   6.096   2.641 -0.2114  1.5643 -0.3235
34459SOL    HW2 5757   3.397   5.994   2.713  0.2789  1.4636  0.1274
34460SOL     OW 5758   4.990   3.285  10.767 -0.2165 -0.0697  0.5672
34460SOL    HW1 5759   5.076   3.307  10.801 -0.0295  1.0346 -0.5264
34460SOL    HW2 5760   5.007   3.241  10.684 -0.6948 -0.0370  0.4443
34461SOL     OW 5761   8.378   2.182   7.858  0.0253  0.3873  0.1281
34461SOL    HW1 5762   8.324   2.132   7.797 -0.4183  1.0726 -0.0536
34461SOL    HW2 5763   8.398   2.121   7.929 -0.5505 -0.0227 -0.0576
34462SOL     OW 5764   2.087   0.210   1.476 -0.5379  0.3264 -0.3947
34462SOL    HW1 5765   2.153   0.219   1.545 -1.5951  0.4592  0.6279
34462SOL    HW2 5766   2.089   0.294   1.430 -0.5585  0.6302  0.1534
34463SOL     OW 5767   1.664   9.489   8.045 -0.1644  0.4429 -0.0060
34463SOL    HW1 5768   1.690   9.481   7.953  0.0060 -1.3379  0.1556
34463SOL    HW2 5769   1.745   9.512   8.091  0.3390 -1.1761 -0.0123
34464SOL     OW 5770   4.051   0.057   5.631  0.4537 -0.2117  0.1995
34464SOL    HW1 5771   4.097   0.046   5.548 -0.0351  0.3179 -0.1488
34464SOL    HW2 5772   4.119   0.046   5.698  1.2504  1.2900 -0.3164
34465SOL     OW 5773   4.957   4.460   6.121  0.0132 -0.0391  0.1056
34465SOL    HW1 5774   4.933   4.532   6.062 -0.2423 -0.6540 -0.5465
34465SOL    HW2 5775   5.044   4.433   6.091  0.1113  0.0015  0.3542
34466SOL     OW 5776   1.446   0.929   4.291  0.7566  0.2564  0.4735
34466SOL    HW1 5777   1.539   0.938   4.309  0.6740  1.9232  0.2269
34466SOL    HW2 5778   1.432   0.978   4.209  0.2409 -2.8428 -1.4778
34467SOL     OW 5779   7.927   5.073  10.275  0.6915 -0.0652  0.1158
34467SOL    HW1 5780   7.957   4.989  10.308  0.7919  0.3939  1.2309
34467SOL    HW2 5781   7.969   5.138  10.331  1.0090  0.7603 -1.0416
34468SOL     OW 5782   5.760   8.569   6.115  0.0261 -1.2502  0.1571
34468SOL    HW1 5783   5.706   8.520   6.053 -1.9005  1.0063 -0.1074
34468SOL    HW2 5784   5.818   8.621   6.059 -1.3238  0.3590  0.1624
34469SOL     OW 5785   0.234   5.218  10.032  0.3458  0.4369  0.0096
34469SOL    HW1 5786   0.252   5.148  10.095  0.8740 -1.9465 -2.5474
34469SOL    HW2 5787   0.139   5.220  10.025  0.3229  0.0103  0.1593
34470SOL     OW 5788   7.659   0.448   2.379  0.9352  0.1835 -0.7191
34470SOL    HW1 5789   7.680   0.400   2.459  1.5628 -1.4273 -1.7885
34470SOL    HW2 5790   7.686   0.538   2.397  2.7067 -0.4970  0.2749
34471SOL     OW 5791   3.127   2.178   4.248 -0.5543  0.1169  0.1803
34471SOL    HW1 5792   3.170   2.264   4.243 -1.2522  0.5158  0.8249
34471SOL    HW2 5793   3.042   2.197   4.288  0.4453 -1.2828  3.2313
34472SOL     OW 5794   7.513   3.444   9.670  0.4259 -0.2704  0.0594
34472SOL    HW1 5795   7.506   3.441   9.765 -0.5593 -0.6047 -0.0052
34472SOL    HW2 5796   7.430   3.407   9.639  0.5601  0.2103 -0.9261
34473SOL     OW 5797   8.519   3.829  10.003 -0.3360 -0.1424 -0.1977
34473SOL    HW1 5798   8.587   3.781  10.051  0.0382  0.7641  0.1949
34473SOL    HW2 5799   8.470   3.876  10.071 -0.2193  0.6350 -0.6414
34474SOL     OW 5800   9.690   2.316   8.966  0.0888  0.5032  0.0696
34474SOL    HW1 5801   9.621   2.327   9.032  2.0354  0.3162  2.2963
34474SOL    HW2 5802   9.651   2.261   8.898 -1.7571 -0.1130  1.5470
34475SOL     OW 5803   0.514  10.287   9.345 -0.5278  0.1347 -0.2545
34475SOL    HW1 5804   0.430  10.281   9.391 -0.9031 -1.5142 -1.1006
34475SOL    HW2 5805   0.515  10.376   9.310 -1.2468  0.6731  1.0158
34476SOL     OW 5806   8.725   6.294   8.466 -0.0136 -0.3074 -0.3183
34476SOL    HW1 5807   8.777   6.222   8.430 -1.0056 -0.8300 -0.7541
34476SOL    HW2 5808   8.755   6.303   8.556  0.9454 -0.4735 -0.6100
34477SOL     OW 5809   5.588   4.112   3.398  0.1069  0.0060 -0.1570
34477SOL    HW1 5810   5.592   4.168   3.321  2.5295 -0.3810 -0.3792
34477SOL    HW2 5811   5.522   4.153   3.454  1.0979  2.5637 -0.7184
34478SOL     OW 5812   1.872   6.853   2.226 -0.4283 -0.3079  0.0945
34478SOL    HW1 5813   1.789   6.893   2.250 -0.5566 -0.5669  0.0901
34478SOL    HW2 5814   1.871   6.767   2.269  1.0790  0.7986  2.5199
34479SOL     OW 5815   6.363   6.320   1.794 -0.2675 -0.0378 -0.4515
34479SOL    HW1 5816   6.344   6.413   1.802 -1.5527 -0.3005 -0.2900
34479SOL    HW2 5817   6.318   6.293   1.714 -0.1849 -0.5880 -0.3174
34480SOL     OW 5818   5.035   0.390   3.531  0.0907  0.4090 -0.2511
34480SOL    HW1 5819   4.984   0.467   3.506  0.4478  0.1585 -1.8130
34480SOL    HW2 5820   5.077   0.361   3.450  1.9652  0.0371  0.7939
34481SOL     OW 5821   4.324  10.737   9.105  0.9212 -0.1037  0.4932
34481SOL    HW1 5822   4.417  10.719   9.091  0.1876 -3.7023 -0.7898
34481SOL    HW2 5823   4.285  10.652   9.126 -2.1387  1.2393  0.8949
34482SOL     OW 5824   2.229   6.747   0.249 -0.0208  0.1349 -0.6460
34482SOL    HW1 5825   2.196   6.837   0.259 -0.3210  0.0925 -1.2412
34482SOL    HW2 5826   2.218   6.708   0.336  0.1646  0.6863 -0.3658
34483SOL     OW 5827   5.475   5.177  10.439 -0.0703 -0.1463  0.2196
34483SOL    HW1 5828   5.487   5.157  10.346  0.0744  0.3234  0.1367
34483SOL    HW2 5829   5.380   5.178  10.452 -0.0990  0.1708 -0.0090
34484SOL     OW 5830   1.445   0.513   5.542 -0.3365  0.0845 -0.0505
34484SOL    HW1 5831   1.365   0.525   5.594  0.1208  3.0277  0.1543
34484SOL    HW2 5832   1.416   0.464   5.465 -1.5196 -2.2434  1.7318
34485SOL     OW 5833   5.589   2.100   8.931  0.4439 -0.4417 -0.3108
34485SOL    HW1 5834   5.513   2.077   8.878 -0.5575 -3.4953  2.1336
34485SOL    HW2 5835   5.555   2.165   8.993 -0.0503 -1.2602  0.3049
34486SOL     OW 5836   8.935   6.104   5.004  0.2107 -0.4333  0.3055
34486SOL    HW1 5837   8.862   6.164   4.991  1.1031  0.5403 -0.3758
34486SOL    HW2 5838   8.917   6.063   5.088 -1.3025 -0.4954 -0.0166
34487SOL     OW 5839   9.117  10.204   4.592  0.5408 -0.2121 -0.6173
34487SOL    HW1 5840   9.086  10.282   4.637 -1.6874 -1.1483 -0.4171
34487SOL    HW2 5841   9.209  10.197   4.617 -0.2083  0.1046  2.6628
34488SOL     OW 5842  10.230   1.974   9.865 -0.4180 -0.8614  0.0484
34488SOL    HW1 5843  10.236   1.882   9.889  0.4549 -0.5351  1.1713
34488SOL    HW2 5844  10.291   1.984   9.792  1.3929 -0.7032  1.5117
34489SOL     OW 5845   9.414   1.913   0.493 -0.1701 -0.0793  0.6851
34489SOL    HW1 5846   9.466   1.946   0.420 -1.2227  0.3381  0.0965
34489SOL    HW2 5847   9.434   1.972   0.566  0.7325 -0.3757  0.6873
34490SOL     OW 5848   5.166   1.129   0.346 -0.2047 -0.1268 -0.1579
34490SOL    HW1 5849   5.182   1.197   0.410 -0.3773 -1.0014  0.8418
34490SOL    HW2 5850   5.097   1.164   0.289  0.4790  0.9534 -0.3525
34491SOL     OW 5851   8.482   5.609   6.799 -0.4660  0.1681 -0.0157
34491SOL    HW1 5852   8.456   5.528   6.754  1.0244  0.1328 -0.8999
34491SOL    HW2 5853   8.550   5.646   6.743  1.2930  0.2791  2.0689
34492SOL     OW 5854   3.191   3.615   3.863 -0.0032 -0.7152  0.3912
34492SOL    HW1 5855   3.223   3.657   3.943  0.0022 -0.9492  0.5120
34492SOL    HW2 5856   3.136   3.543   3.894  0.4222 -1.1322  0.1889
34493SOL     OW 5857   5.117   1.782   8.805 -0.1653 -0.0532 -0.3755
34493SOL    HW1 5858   5.026   1.759   8.819  0.2617 -1.1418  0.8412
34493SOL    HW2 5859   5.114   1.864   8.755 -1.8085  0.6747  0.8202
34494SOL     OW 5860   1.381   9.611   6.015  0.6821  0.0835 -0.2158
34494SOL    HW1 5861   1.407   9.553   6.086  1.1539  0.0701 -0.4013
34494SOL    HW2 5862   1.453   9.673   6.005  0.3617  0.4542 -0.2916
34495SOL     OW 5863  10.394   4.559   7.314 -0.0109  0.4688  0.4425
34495SOL    HW1 5864  10.389   4.627   7.247 -0.9505  0.6392  0.6683
34495SOL    HW2 5865  10.311   4.566   7.361  0.3618 -0.0858  1.2013
34496SOL     OW 5866   3.397   5.872   9.764 -0.0894 -0.3867 -0.3358
34496SOL    HW1 5867   3.456   5.842   9.694  1.5568 -0.2723  0.9290
34496SOL    HW2 5868   3.314   5.828   9.746  0.6347 -1.2898 -1.6730
34497SOL     OW 5869   1.317   6.798   6.993  0.6749 -0.0930 -0.1112
34497SOL    HW1 5870   1.375   6.748   7.050  0.3546  0.5000  0.7641
34497SOL    HW2 5871   1.369   6.815   6.914  1.4488 -0.1323  0.3838
34498SOL     OW 5872   9.482  10.008   1.428 -0.1703 -0.1122 -0.0027
34498SOL    HW1 5873   9.558  10.005   1.487 -0.9827 -3.1056  1.0647
34498SOL    HW2 5874   9.411   9.968   1.478 -1.6362 -0.2711 -2.0860
34499SOL     OW 5875  10.573   6.700   1.566 -0.5103 -0.0381 -0.3753
34499SOL    HW1 5876  10.492   6.655   1.541 -0.7528  0.5684 -0.7236
34499SOL    HW2 5877  10.621   6.637   1.619 -1.8472  0.0339  1.0094
34500SOL     OW 5878   1.408  10.469   7.415 -0.0663  0.4621 -0.0514
34500SOL    HW1 5879   1.398  10.376   7.438  0.2901  0.4452  0.0438
34500SOL    HW2 5880   1.462  10.505   7.485 -0.8659  0.9279  0.3378
34501SOL     OW 5881   5.955   0.599   1.826  0.2674  0.5465  0.2357
34501SOL    HW1 5882   5.921   0.511   1.811  0.2116  0.5747  0.1954
34501SOL    HW2 5883   5.881   0.648   1.860 -0.1317  0.9786 -1.1621
34502SOL     OW 5884   2.661   7.913   8.348  0.2694  0.1390  0.2863
34502SOL    HW1 5885   2.710   7.956   8.418 -0.9124  0.3124  1.0377
34502SOL    HW2 5886   2.708   7.832   8.331  0.3450 -0.1067  1.5974
34503SOL     OW 5887   8.639   8.995   8.360 -0.3722 -0.4393 -0.1874
34503SOL    HW1 5888   8.554   8.974   8.320 -0.1242 -0.9320 -0.4618
34503SOL    HW2 5889   8.620   9.000   8.454 -0.4513 -1.9482 -0.0904
34504SOL     OW 5890   2.968   0.097   4.025  0.4518 -0.0755  0.2900
34504SOL    HW1 5891   2.983   0.166   4.090  1.3815 -0.0686  0.0780
34504SOL    HW2 5892   3.048   0.096   3.973 -0.9787  1.2332 -2.0857
34505SOL     OW 5893   3.098   6.991   3.681 -0.2472  0.7247 -0.2466
34505SOL    HW1 5894   3.181   6.963   3.718 -0.7052  0.1298  0.3485
34505SOL    HW2 5895   3.108   6.978   3.586  1.2980  3.2284 -0.4928
34506SOL     OW 5896   3.506   7.154   5.312 -0.2769  0.2364 -0.1648
34506SOL    HW1 5897   3.568   7.081   5.308 -0.3880  0.0692  0.9522
34506SOL    HW2 5898   3.455   7.138   5.390  0.2281  1.9278  0.5640
34507SOL     OW 5899   3.548   8.460   0.830  0.2270  0.4131  0.2531
34507SOL    HW1 5900   3.492   8.388   0.858  0.8410  0.3797  1.4739
34507SOL    HW2 5901   3.592   8.428   0.751  1.3746 -1.0293  1.4258
34508SOL     OW 5902   5.528   9.274   0.544  0.7770 -0.0601 -0.4127
34508SOL    HW1 5903   5.463   9.343   0.559  1.1809  0.3999 -0.7598
34508SOL    HW2 5904   5.500   9.202   0.600 -0.6332 -0.2502 -1.3034
34509SOL     OW 5905   4.807  10.625   6.875  0.2020 -0.4448 -0.2037
34509SOL    HW1 5906   4.870  10.644   6.945 -0.0235  1.2608 -0.4224
34509SOL    HW2 5907   4.723  10.616   6.920  0.2411 -0.4589 -0.1340
34510SOL     OW 5908   8.059   3.348   9.977  0.1303 -0.1290  0.2358
34510SOL    HW1 5909   8.123   3.277   9.985 -0.6198 -0.7584  0.8348
34510SOL    HW2 5910   8.010   3.326   9.898 -0.2174 -0.3897  0.5173
34511SOL     OW 5911   2.686   4.325   6.591  0.2393 -0.1560 -0.2613
34511SOL    HW1 5912   2.739   4.334   6.671 -2.9364  2.6161  1.8101
34511SOL    HW2 5913   2.697   4.409   6.546 -1.3721  0.0033 -0.3984
34512SOL     OW 5914   9.423   3.996   2.537 -0.0657  0.2910  0.1368
34512SOL    HW1 5915   9.407   3.908   2.503 -1.9801 -0.6330  3.0803
34512SOL    HW2 5916   9.503   3.988   2.589 -0.4156  0.2353  0.6611
34513SOL     OW 5917   7.133   4.325   6.794  0.1823  0.1918 -0.2751
34513SOL    HW1 5918   7.071   4.255   6.778 -1.3554  2.1058 -3.7866
34513SOL    HW2 5919   7.200   4.286   6.850 -3.0540 -2.5427  2.0671
34514SOL     OW 5920   2.303   2.899   9.020  0.4400 -0.0446  0.2035
34514SOL    HW1 5921   2.353   2.962   9.071  0.6317 -0.1516  0.1494
34514SOL    HW2 5922   2.310   2.930   8.930 -1.5684  1.2888  0.4395
34515SOL     OW 5923   5.735   0.434  10.449 -0.9764 -0.4962  0.1663
34515SOL    HW1 5924   5.657   0.488  10.431 -1.3004 -1.2559 -0.7735
34515SOL    HW2 5925   5.758   0.396  10.364  1.3516  0.9019  0.0955
34516SOL     OW 5926   1.701   0.937   3.133 -1.0572  0.2977  1.0747
34516SOL    HW1 5927   1.758   0.947   3.057 -1.9818 -0.4086  0.2413
34516SOL    HW2 5928   1.714   1.016   3.185  2.3945 -0.8318  2.1546
34517SOL     OW 5929   0.244   7.753   7.061 -0.8471  0.0647 -0.2532
34517SOL    HW1 5930   0.315   7.688   7.065  0.7368  1.7748  1.5629
34517SOL    HW2 5931   0.271   7.812   6.990 -1.2282 -0.0767 -0.5207
34518SOL     OW 5932   5.246   3.187   7.087 -0.1927 -0.1119  0.3165
34518SOL    HW1 5933   5.329   3.214   7.049  1.2399 -2.0157  1.9078
34518SOL    HW2 5934   5.260   3.191   7.181 -1.7215 -1.0277  0.6149
34519SOL     OW 5935   6.403   5.412   0.871 -0.0021  0.1589  0.0554
34519SOL    HW1 5936   6.497   5.406   0.855 -0.0300 -2.7165  0.3501
34519SOL    HW2 5937   6.363   5.400   0.785 -0.0748 -0.5454  0.1785
34520SOL     OW 5938   7.751   9.538   7.654  0.2171  0.5635  0.2045
34520SOL    HW1 5939   7.718   9.570   7.738 -0.7282 -0.0767  0.0880
34520SOL    HW2 5940   7.844   9.563   7.654  1.2260 -2.4723  2.9998
34521SOL     OW 5941   3.880   8.548   4.431  0.1257  0.1675  0.4684
34521SOL    HW1 5942   3.814   8.493   4.388 -2.6886  2.5515  1.4745
34521SOL    HW2 5943   3.883   8.515   4.521  2.8011 -1.9372 -0.2130
34522SOL     OW 5944   9.567   0.590  10.474 -0.5693  0.5247 -0.5216
34522SOL    HW1 5945   9.599   0.677  10.497 -0.7310  0.8021 -1.3312
34522SOL    HW2 5946   9.473   0.593  10.489 -0.3234 -0.1929  1.5428
34523SOL     OW 5947   4.603  10.554   9.830 -0.2852 -0.2889  0.4942
34523SOL    HW1 5948   4.556  10.631   9.860  1.9171  1.2418  0.2488
34523SOL    HW2 5949   4.664  10.533   9.901  0.0863 -0.9597 -0.0101
34524SOL     OW 5950   9.075   7.639   0.965  0.1378 -0.6797 -0.0751
34524SOL    HW1 5951   9.097   7.698   0.893 -0.6754 -0.9694 -0.5755
34524SOL    HW2 5952   8.980   7.627   0.958  0.2070 -1.5870  0.3644
34525SOL     OW 5953   4.491   3.041   4.349 -0.6726 -0.6104  0.2275
34525SOL    HW1 5954   4.430   3.113   4.365  1.7610  2.0104 -1.3675
34525SOL    HW2 5955   4.510   3.046   4.255  1.9797 -1.2805  0.6490
34526SOL     OW 5956   3.890   1.705   3.191 -0.3416 -0.3412  0.0215
34526SOL    HW1 5957   3.869   1.726   3.282 -1.3817 -1.5098  0.0659
34526SOL    HW2 5958   3.828   1.756   3.139 -0.2392 -0.2519 -0.0148
34527SOL     OW 5959   6.216   8.469   6.126 -0.7987 -0.1432  0.2779
34527SOL    HW1 5960   6.162   8.440   6.199 -1.8506  0.0918 -0.3856
34527SOL    HW2 5961   6.165   8.448   6.048  0.5401 -0.9036 -0.4445
34528SOL     OW 5962   5.472   8.634   2.700 -0.1520  0.2826 -0.0339
34528SOL    HW1 5963   5.525   8.563   2.663  0.2794 -0.0194  1.1061
34528SOL    HW2 5964   5.462   8.696   2.629  2.1102  0.5478 -0.1923
34529SOL     OW 5965   0.263   8.917   2.172  0.7429  0.0853  0.0847
34529SOL    HW1 5966   0.254   8.989   2.109  0.8970 -0.1232 -0.1734
34529SOL    HW2 5967   0.214   8.845   2.133  0.9575 -0.0893  0.1392
34530SOL     OW 5968   7.730   8.699   1.414 -0.0327 -0.0144  0.5777
34530SOL    HW1 5969   7.726   8.613   1.455  0.1454 -0.2776  0.0494
34530SOL    HW2 5970   7.664   8.751   1.461 -1.6794 -1.0389 -0.4931
34531SOL     OW 5971   0.291   5.036   2.325 -0.1263  0.4451  0.1534
34531SOL    HW1 5972   0.282   5.078   2.240 -0.5277  0.1858  0.0631
34531SOL    HW2 5973   0.208   5.055   2.370 -0.1337  0.1275  0.2777
34532SOL     OW 5974   7.414   1.484   8.485  0.4448 -0.4389 -0.4531
34532SOL    HW1 5975   7.368   1.403   8.467 -1.3141 -0.0057  1.6888
34532SOL    HW2 5976   7.423   1.486   8.580  1.8102  1.1900 -0.5603
34533SOL     OW 5977   4.699   4.244   3.363  0.2961 -0.3846 -0.2649
34533SOL    HW1 5978   4.778   4.191   3.370  0.3102 -0.2438  0.8251
34533SOL    HW2 5979   4.639   4.191   3.311  0.7559 -0.9254 -0.2483
34534SOL     OW 5980   3.123   4.933   6.932  0.1919 -0.6109 -0.0547
34534SOL    HW1 5981   3.027   4.930   6.928  0.2376 -0.5524 -2.2325
34534SOL    HW2 5982   3.143   5.022   6.959 -0.3658 -0.4959 -0.0032
34535SOL     OW 5983   6.154   2.178   3.828  0.2772  0.5926 -0.3104
34535SOL    HW1 5984   6.168   2.183   3.734  0.2216 -1.7481 -0.4871
34535SOL    HW2 5985   6.096   2.103   3.841 -0.3200  1.3016  1.5401
34536SOL     OW 5986   1.024   4.273   1.282  0.2510 -0.0938 -0.3277
34536SOL    HW1 5987   1.101   4.221   1.260 -1.3895 -4.0459  2.2666
34536SOL    HW2 5988   0.954   4.235   1.230 -0.6069  1.1820 -0.1376
34537SOL     OW 5989   6.689   4.268   7.104  0.5073 -0.2384 -0.3143
34537SOL    HW1 5990   6.740   4.187   7.101  1.2142  0.2189 -1.4963
34537SOL    HW2 5991   6.711   4.307   7.189  3.4952  0.7506 -1.4305
34538SOL     OW 5992   9.619   1.433  10.325 -0.1526 -0.1292 -0.0609
34538SOL    HW1 5993   9.598   1.479  10.243 -3.1368  1.4747  1.4520
34538SOL    HW2 5994   9.539   1.385  10.347  1.3700 -2.4790  0.8126
34539SOL     OW 5995   9.808   0.086   1.785  0.0915  0.5409  0.3211
34539SOL    HW1 5996   9.791   0.086   1.690  0.8349 -0.2309  0.1728
34539SOL    HW2 5997   9.722   0.098   1.825 -0.0181  2.8942 -0.4590
34540SOL     OW 5998   8.152   7.682   4.241  0.4488 -0.7659  0.6530
34540SOL    HW1 5999   8.192   7.733   4.312  1.2724  0.3763 -0.5932
34540SOL    HW2 6000   8.074   7.644   4.281  0.1414  0.9462  1.8191
34541SOL     OW 6001  10.665   3.221   5.227  0.2367  0.1505  0.8147
34541SOL    HW1 6002  10.673   3.140   5.277  0.7528  0.1815  0.7959
34541SOL    HW2 6003  10.653   3.289   5.292 -1.4059 -0.0715  0.7717
34542SOL     OW 6004   1.806   3.598   5.542  0.2733 -0.3820  0.1510
34542SOL    HW1 6005   1.863   3.585   5.467 -2.4213  0.7311 -2.3025
34542SOL    HW2 6006   1.839   3.678   5.584 -1.2018  2.3128 -3.2664
34543SOL     OW 6007   0.128   0.813   9.190 -0.2917 -0.0175 -0.0160
34543SOL    HW1 6008   0.119   0.719   9.177  1.2743 -0.0306 -1.4599
34543SOL    HW2 6009   0.057   0.852   9.139  2.1664 -0.3272 -4.1278
34544SOL     OW 6010   4.477  10.586   5.779  0.1808  0.1011  0.0648
34544SOL    HW1 6011   4.510  10.611   5.693  1.6675 -0.8137  0.3443
34544SOL    HW2 6012   4.394  10.633   5.787  0.3084  0.6756 -1.6079
34545SOL     OW 6013   9.703   5.571   2.283  0.3620 -1.0020 -0.2733
34545SOL    HW1 6014   9.763   5.508   2.244  1.1406  1.4424 -3.4150
34545SOL    HW2 6015   9.616   5.537   2.265  0.7252 -2.4980  0.6151
34546SOL     OW 6016   7.700   6.512   8.906  0.8259 -0.3956 -0.8308
34546SOL    HW1 6017   7.692   6.536   8.998  1.1358  1.2229 -1.1880
34546SOL    HW2 6018   7.616   6.535   8.867  0.5050 -1.5700 -0.8748
34547SOL     OW 6019   4.005   7.392   6.365  0.5739  0.0281 -0.0540
34547SOL    HW1 6020   4.000   7.468   6.423 -0.1600 -0.2877  0.3168
34547SOL    HW2 6021   4.036   7.428   6.282 -0.5980  0.9152 -0.1485
34548SOL     OW 6022   5.163   1.246   7.351  0.5110  0.7019  0.1912
34548SOL    HW1 6023   5.155   1.168   7.297  1.2247  0.0104  1.0462
34548SOL    HW2 6024   5.155   1.319   7.290 -1.3714 -0.0011 -0.4631
34549SOL     OW 6025   5.922   9.901   2.842 -0.0839 -0.3866  0.3936
34549SOL    HW1 6026   6.013   9.874   2.841 -0.5957 -2.2198 -0.2090
34549SOL    HW2 6027   5.923   9.987   2.883  2.0609  0.1989 -0.7302
34550SOL     OW 6028   6.571   8.487   0.616 -0.0314  0.3314  0.1124
34550SOL    HW1 6029   6.550   8.393   0.618  0.9101  0.1165  0.4651
34550SOL    HW2 6030   6.519   8.525   0.687  0.7462 -0.1809  0.9661
34551SOL     OW 6031   3.696   3.604   1.314 -0.7363  0.0889  0.5071
34551SOL    HW1 6032   3.665   3.540   1.378 -0.7951  0.4862  0.8798
34551SOL    HW2 6033   3.684   3.689   1.357 -0.4460  0.3363  0.1062
34552SOL     OW 6034  10.763   6.795   2.619 -0.3859  0.9996 -0.0522
34552SOL    HW1 6035  10.801   6.724   2.566 -0.5760  0.6452  0.2824
34552SOL    HW2 6036  10.824   6.806   2.692 -1.3686 -0.2006  0.9922
34553SOL     OW 6037   1.710   4.530   8.018  0.2444 -0.0625  0.2912
34553SOL    HW1 6038   1.717   4.508   7.925 -2.6444  0.8444 -0.2534
34553SOL    HW2 6039   1.674   4.619   8.019 -1.5983 -0.7314  2.1733
34554SOL     OW 6040   7.362   6.687   1.298 -0.0069 -0.1642 -0.2443
34554SOL    HW1 6041   7.342   6.662   1.388  0.2949  0.8084  0.1050
34554SOL    HW2 6042   7.428   6.756   1.306  0.4205 -0.4318 -1.2325
34555SOL     OW 6043   2.167   1.262   2.598  0.1110  0.5744 -0.1547
34555SOL    HW1 6044   2.099   1.241   2.534  1.5407 -1.2727 -1.1645
34555SOL    HW2 6045   2.152   1.198   2.668  0.7921  0.1663 -0.3797
34556SOL     OW 6046   4.488   0.305   8.502  0.0370 -0.6952 -0.3126
34556SOL    HW1 6047   4.513   0.256   8.423 -0.5360  0.1887 -1.0775
34556SOL    HW2 6048   4.563   0.362   8.519 -0.5752  0.4978 -1.3979
34557SOL     OW 6049  10.379   2.210   8.846 -0.6833 -0.0596  0.3860
34557SOL    HW1 6050  10.372   2.280   8.781 -0.9169  0.4344  0.9363
34557SOL    HW2 6051  10.290   2.175   8.855 -0.8009  0.3794  0.9863
34558SOL     OW 6052   9.834   6.509   0.489 -0.2011 -0.5540  0.1129
34558SOL    HW1 6053   9.841   6.414   0.502 -0.3145 -0.4495  1.0121
34558SOL    HW2 6054   9.744   6.523   0.462 -0.3930 -0.6349  0.6938
34559SOL     OW 6055  10.340   6.975   2.312 -0.3176  0.1736  0.8680
34559SOL    HW1 6056  10.265   6.997   2.366 -0.7486 -0.0374  0.3567
34559SOL    HW2 6057  10.400   6.930   2.372 -1.5416 -1.6693  0.8084
34560SOL     OW 6058   8.470   4.263   8.982 -0.1313 -0.4973  0.1858
34560SOL    HW1 6059   8.539   4.314   8.940  0.6584 -0.4580  1.4686
34560SOL    HW2 6060   8.389   4.304   8.953  0.4773  1.4845  1.1414
34561SOL     OW 6061   5.538   9.474   1.135 -0.2956 -0.0553  0.2692
34561SOL    HW1 6062   5.575   9.446   1.218  2.4039  1.5041 -0.3228
34561SOL    HW2 6063   5.461   9.525   1.159 -0.0150 -0.2821  1.7487
34562SOL     OW 6064   4.792   2.001  10.272  0.2911 -0.0640 -0.1715
34562SOL    HW1 6065   4.756   1.931  10.326  0.3524 -0.0191 -0.0731
34562SOL    HW2 6066   4.812   1.959  10.188 -1.1686  0.1642 -0.6717
34563SOL     OW 6067   3.138   9.497   8.520  0.5191  0.2263 -0.0999
34563SOL    HW1 6068   3.156   9.566   8.584 -0.1502  0.8407 -0.5588
34563SOL    HW2 6069   3.091   9.430   8.570  1.0507  0.1575  0.3187
34564SOL     OW 6070   0.810   2.243   9.346  0.0699 -0.2776 -0.1909
34564SOL    HW1 6071   0.828   2.255   9.439  0.6762  1.5693 -0.5115
34564SOL    HW2 6072   0.716   2.260   9.337  0.3300  1.3199 -0.1443
34565SOL     OW 6073   4.156   4.878   4.106  0.2305 -0.0881  0.7883
34565SOL    HW1 6074   4.068   4.914   4.094 -0.2131 -1.3543  0.0380
34565SOL    HW2 6075   4.141   4.790   4.141  1.0116 -1.3651 -1.8043
34566SOL     OW 6076   4.544   5.703   9.280 -0.3366 -0.0764  0.0111
34566SOL    HW1 6077   4.545   5.748   9.365 -2.2042  1.1745 -0.5772
34566SOL    HW2 6078   4.474   5.638   9.288  0.7826 -1.3304  0.0434
34567SOL     OW 6079   2.041   2.580   9.683 -0.5415 -0.2484  0.7064
34567SOL    HW1 6080   1.957   2.613   9.651 -0.9588 -0.6690  1.3438
34567SOL    HW2 6081   2.034   2.585   9.778 -0.1422 -1.0201  0.7819
34568SOL     OW 6082  10.637   9.579   5.940  0.4228 -0.3068 -0.3060
34568SOL    HW1 6083  10.713   9.523   5.960  1.7657  1.7138  0.6956
34568SOL    HW2 6084  10.569   9.548   6.000  0.7800 -1.4830 -0.4709
34569SOL     OW 6085  10.214   0.754   2.895  0.3721 -0.1556 -0.2849
34569SOL    HW1 6086  10.192   0.829   2.951 -0.5195 -1.1632  0.7570
34569SOL    HW2 6087  10.129   0.722   2.865  0.8364  0.8146 -2.9070
34570SOL     OW 6088   0.236   2.647   4.069  0.2904  0.2508  0.5699
34570SOL    HW1 6089   0.141   2.661   4.067  0.3882  1.0317  0.8441
34570SOL    HW2 6090   0.249   2.577   4.133 -0.1622 -0.4251 -0.0739
34571SOL     OW 6091   9.966   1.846  10.463 -0.0868 -0.1183 -0.0550
34571SOL    HW1 6092   9.925   1.762  10.445 -1.4690 -0.5072  3.8355
34571SOL    HW2 6093   9.911   1.910  10.418 -1.6389 -1.0493  0.4575
34572SOL     OW 6094   9.294   8.561   1.992 -0.5494 -0.1674  0.6660
34572SOL    HW1 6095   9.310   8.479   2.038  0.8630  0.5332  1.5119
34572SOL    HW2 6096   9.375   8.578   1.943 -0.5460  1.0133  1.0269
34573SOL     OW 6097   4.937  10.138   3.413 -0.2812 -0.0857  1.0637
34573SOL    HW1 6098   4.979  10.217   3.446  1.9580 -1.2389  1.1609
34573SOL    HW2 6099   4.896  10.099   3.490 -2.3803  1.4733  0.8173
34574SOL     OW 6100   0.036   9.260   1.264  0.2556  0.2833 -0.0606
34574SOL    HW1 6101   0.117   9.241   1.217  0.6375 -0.2765  0.8034
34574SOL    HW2 6102  -0.008   9.176   1.272 -0.2183  0.5175 -0.1719
34575SOL     OW 6103   4.999   6.367   0.259 -0.0117  0.0892 -0.2196
34575SOL    HW1 6104   4.969   6.361   0.350  1.0147  0.6454  0.1808
34575SOL    HW2 6105   5.095   6.364   0.266  0.0547 -1.1300 -1.3882
34576SOL     OW 6106   4.479   6.756   2.306 -0.1063  0.3375 -0.4750
34576SOL    HW1 6107   4.537   6.779   2.378 -0.5195  0.7216 -0.2535
34576SOL    HW2 6108   4.394   6.743   2.347 -0.9327  2.9731 -1.1329
34577SOL     OW 6109   5.263   5.953   7.459  0.5529  0.1525 -0.1556
34577SOL    HW1 6110   5.208   5.883   7.425 -0.4826 -0.2899  2.2442
34577SOL    HW2 6111   5.276   6.012   7.384 -1.5488 -0.7294 -1.2937
34578SOL     OW 6112   6.036   2.351   8.705  0.2178  0.4639 -0.5656
34578SOL    HW1 6113   5.954   2.400   8.708  1.4967  2.7429 -0.5889
34578SOL    HW2 6114   6.079   2.381   8.625  1.6654  0.3544  0.1396
34579SOL     OW 6115   8.299   8.164   8.347 -0.1403  0.0093  0.6099
34579SOL    HW1 6116   8.312   8.152   8.253 -0.5278  0.2283  0.5279
34579SOL    HW2 6117   8.209   8.195   8.355 -0.2932 -0.5649  1.1046
34580SOL     OW 6118   8.910   5.753   3.838  0.2840  0.3524  0.2775
34580SOL    HW1 6119   8.952   5.678   3.880 -0.0121 -0.0486 -0.1353
34580SOL    HW2 6120   8.862   5.796   3.908 -1.0146 -0.8743  0.1840
34581SOL     OW 6121   4.002   8.976   6.101 -0.0123  0.1821 -0.8691
34581SOL    HW1 6122   4.026   9.051   6.156 -0.5442 -0.1069 -0.2436
34581SOL    HW2 6123   3.977   8.908   6.162 -0.8148 -0.0780 -1.4787
34582SOL     OW 6124   9.914  10.301   0.406  0.1198  0.1324  0.0015
34582SOL    HW1 6125   9.880  10.262   0.325  0.8180 -0.9485  0.2070
34582SOL    HW2 6126   9.848  10.364   0.432 -0.2853  0.2313 -1.2259
34583SOL     OW 6127   2.913   9.592   1.913  0.5682 -0.6406  0.3326
34583SOL    HW1 6128   2.975   9.523   1.890  1.5693 -0.2517  1.7527
34583SOL    HW2 6129   2.921   9.601   2.008  0.1615  1.1428  0.2340
34584SOL     OW 6130   5.191   1.706   3.063  0.6777 -0.0309  0.3134
34584SOL    HW1 6131   5.101   1.692   3.091  0.8671 -0.7062  0.6107
34584SOL    HW2 6132   5.202   1.648   2.987  0.6516  0.5819 -0.1660
34585SOL     OW 6133   1.068   5.819   0.497 -0.5533 -0.1774  0.0631
34585SOL    HW1 6134   1.023   5.852   0.419  1.2362  0.4028 -0.7982
34585SOL    HW2 6135   1.046   5.882   0.565 -1.0793  0.0724 -0.3278
34586SOL     OW 6136   6.526   1.180  10.482  0.1501 -0.1863 -0.5274
34586SOL    HW1 6137   6.546   1.243  10.413  0.6135  0.9419  0.6034
34586SOL    HW2 6138   6.473   1.229  10.545 -1.3073 -1.5325 -0.6349
34587SOL     OW 6139   3.192   6.913   3.275  0.7375 -0.0604 -0.7856
34587SOL    HW1 6140   3.115   6.959   3.308 -0.1945 -0.8873 -1.7528
34587SOL    HW2 6141   3.158   6.832   3.238  2.2764 -1.2634  0.3207
34588SOL     OW 6142   9.365   9.919   8.684  0.2477  0.2969  0.0710
34588SOL    HW1 6143   9.283   9.955   8.649  0.5859  2.3571  1.2201
34588SOL    HW2 6144   9.432   9.948   8.622  0.4847  1.4321  0.8389
34589SOL     OW 6145  10.312   3.776   4.591 -0.1664 -0.1820  0.6165
34589SOL    HW1 6146  10.405   3.796   4.575 -0.9467  1.9291 -1.9014
34589SOL    HW2 6147  10.305   3.682   4.576  1.4107 -0.2370  0.0087
34590SOL     OW 6148  10.768   8.562   5.588 -0.4755  0.1636  0.2915
34590SOL    HW1 6149  10.724   8.632   5.636  0.1172  1.4520 -0.9752
34590SOL    HW2 6150  10.745   8.578   5.496 -0.6395 -1.5502  0.0063
34591SOL     OW 6151   4.689   1.528   7.977  0.1094 -0.1163 -0.6026
34591SOL    HW1 6152   4.739   1.448   7.963 -0.8319 -0.7055 -0.6709
34591SOL    HW2 6153   4.748   1.584   8.028  0.4852 -1.1736  0.1622
34592SOL     OW 6154   3.582   1.209   1.396  0.1411  0.0278  0.1176
34592SOL    HW1 6155   3.596   1.299   1.425 -1.3343  0.4617 -0.4309
34592SOL    HW2 6156   3.661   1.187   1.347  0.3694  1.1408 -0.0335
34593SOL     OW 6157   6.486   0.733   9.353 -0.0652 -0.2640 -0.3147
34593SOL    HW1 6158   6.569   0.740   9.400  1.5060  0.2468 -2.9560
34593SOL    HW2 6159   6.433   0.805   9.386  1.3873  0.7520 -0.0985
34594SOL     OW 6160   8.270   1.203   4.602  0.4495 -0.2037  0.4051
34594SOL    HW1 6161   8.320   1.270   4.647  1.7347 -1.0038  0.2308
34594SOL    HW2 6162   8.179   1.218   4.628  0.5218  2.2981 -0.5249
34595SOL     OW 6163   6.188   0.564  10.004  0.4201  0.2246  0.4457
34595SOL    HW1 6164   6.226   0.558  10.091 -2.4402  0.8263  1.8387
34595SOL    HW2 6165   6.210   0.653   9.975  0.9028  0.2216  0.7907
34596SOL     OW 6166   2.522   1.727  10.492 -0.3629 -0.1732 -0.1280
34596SOL    HW1 6167   2.438   1.693  10.523 -0.6375  0.6821  0.0947
34596SOL    HW2 6168   2.502   1.815  10.459  0.1735 -0.5167 -1.4636
34597SOL     OW 6169   8.469   6.570   2.339 -0.2030  0.0962  0.7020
34597SOL    HW1 6170   8.527   6.546   2.412  1.3345  0.5200 -0.3286
34597SOL    HW2 6171   8.409   6.496   2.331 -0.1480 -0.1374  2.1307
34598SOL     OW 6172   1.524   1.097   9.824 -0.2956 -1.1227  0.1810
34598SOL    HW1 6173   1.511   1.174   9.880  1.5857 -0.8526  0.2824
34598SOL    HW2 6174   1.605   1.058   9.855  1.0750 -0.7231 -2.6202
34599SOL     OW 6175  10.481   2.926   9.579  0.0300  0.0054 -0.3381
34599SOL    HW1 6176  10.461   2.960   9.666 -1.5724 -0.8077 -0.3442
34599SOL    HW2 6177  10.400   2.940   9.529  1.2601  1.4386 -2.0400
34600SOL     OW 6178   0.795  10.084   0.771 -0.5334  0.0592 -0.3462
34600SOL    HW1 6179   0.795  10.127   0.686 -0.7596  0.4100 -0.1731
34600SOL    HW2 6180   0.770   9.994   0.753 -1.7079  0.4032 -0.5221
34601SOL     OW 6181  10.274   6.201   8.192  0.4402 -0.2404  0.1316
34601SOL    HW1 6182  10.330   6.152   8.253  0.9527 -0.6955 -0.6759
34601SOL    HW2 6183  10.189   6.157   8.196 -0.4720  1.4970  2.6619
34602SOL     OW 6184   3.069   6.309   2.101  0.0754  0.2008 -0.7924
34602SOL    HW1 6185   3.093   6.218   2.084 -1.6701 -0.4056 -0.1568
34602SOL    HW2 6186   3.150   6.358   2.087  1.1794 -1.5076 -0.6102
34603SOL     OW 6187   2.915  10.299  10.247  0.4544 -0.0857  0.2265
34603SOL    HW1 6188   2.980  10.339  10.304  0.1768 -0.6064  0.9282
34603SOL    HW2 6189   2.915  10.207  10.271  0.0171 -0.2372 -0.3165
34604SOL     OW 6190   4.396  10.742   9.830 -0.2999 -0.4180 -0.2124
34604SOL    HW1 6191   4.353  10.803   9.890  0.1217  0.6624 -0.9675
34604SOL    HW2 6192   4.435  10.798   9.762  0.4116 -1.5073 -0.7437
34605SOL     OW 6193   2.599   9.685   0.770 -0.4870 -0.2900 -0.3455
34605SOL    HW1 6194   2.656   9.762   0.763  2.3699 -2.1198  1.0501
34605SOL    HW2 6195   2.648   9.624   0.825 -3.2394 -2.6049 -0.2554
34606SOL     OW 6196  10.650   6.504   8.969  0.0405 -0.1011  0.3050
34606SOL    HW1 6197  10.561   6.499   9.005  0.9417 -1.0288  2.6463
34606SOL    HW2 6198  10.683   6.415   8.974  1.4880  0.4206  0.5700
34607SOL     OW 6199   6.350   1.276   2.103  0.1812 -0.3693  0.4907
34607SOL    HW1 6200   6.260   1.288   2.131  0.2309 -0.9196  0.8958
34607SOL    HW2 6201   6.360   1.336   2.029 -0.6472 -0.6459  0.1479
34608SOL     OW 6202   4.369   2.177   0.763  0.3427 -0.2186 -0.0318
34608SOL    HW1 6203   4.314   2.134   0.829 -1.8016  0.3707 -1.3253
34608SOL    HW2 6204   4.359   2.122   0.685 -0.0418  0.9782 -0.8510
34609SOL     OW 6205   0.074  10.599   7.553 -0.2743  0.5356  0.2732
34609SOL    HW1 6206   0.033  10.679   7.587 -0.9495 -0.1961  1.2563
34609SOL    HW2 6207   0.001  10.551   7.512  0.0860  0.3404 -0.1403
34610SOL     OW 6208   7.233   8.673   3.777  0.5319  0.3890 -0.2385
34610SOL    HW1 6209   7.183   8.696   3.699 -2.4880 -2.2704  0.7159
34610SOL    HW2 6210   7.195   8.728   3.846 -0.5004 -0.9793  0.3138
34611SOL     OW 6211   9.996   3.706   4.628 -0.0254 -0.2742  0.6784
34611SOL    HW1 6212  10.009   3.626   4.577 -0.0827 -0.7663  1.4193
34611SOL    HW2 6213  10.035   3.776   4.574  0.6029 -0.8965  0.3120
34612SOL     OW 6214   6.522   4.820   6.418 -0.4975  0.0607 -0.2813
34612SOL    HW1 6215   6.437   4.779   6.400 -1.0037  0.6651  0.6700
34612SOL    HW2 6216   6.526   4.894   6.357 -0.7080  0.1038 -0.2447
34613SOL     OW 6217   9.948  10.489   3.578 -0.1156 -0.3993  0.6562
34613SOL    HW1 6218   9.889  10.563   3.567 -0.8035 -1.2168 -2.0520
34613SOL    HW2 6219  10.030  10.527   3.609 -1.2917  1.0693  2.1097
34614SOL     OW 6220   3.098   8.316   6.416  0.8176  0.1593  0.2401
34614SOL    HW1 6221   3.038   8.245   6.391  0.8674  0.3851 -0.5466
34614SOL    HW2 6222   3.130   8.290   6.502 -0.0490 -0.1985  0.4669
34615SOL     OW 6223   4.678   3.982   5.887 -0.1350 -0.1389 -0.1420
34615SOL    HW1 6224   4.658   4.030   5.807  0.0773 -0.5956 -0.4751
34615SOL    HW2 6225   4.762   3.940   5.869  0.0452 -0.0242  0.4218
34616SOL     OW 6226   2.106   7.712   0.695 -0.3246 -0.0755  0.5796
34616SOL    HW1 6227   2.091   7.681   0.606  1.9851  1.2358 -0.3789
34616SOL    HW2 6228   2.035   7.774   0.711 -1.9950 -1.8889  0.5483
34617SOL     OW 6229   9.237  10.147   1.722 -0.4092  0.3792  0.0913
34617SOL    HW1 6230   9.322  10.164   1.763 -0.7939  3.5172 -0.1908
34617SOL    HW2 6231   9.244  10.187   1.636 -1.5846 -1.0235 -0.6975
34618SOL     OW 6232   7.585  10.044   6.370  0.4752 -0.2987 -0.0080
34618SOL    HW1 6233   7.626  10.085   6.294 -0.0277  0.2746  0.0199
34618SOL    HW2 6234   7.587   9.950   6.351 -0.1384 -0.1315 -0.9986
34619SOL     OW 6235   9.467   7.329   5.980  0.9532 -0.1165  0.1111
34619SOL    HW1 6236   9.458   7.423   5.968 -0.7307 -0.2720 -0.0144
34619SOL    HW2 6237   9.391   7.291   5.935  0.9116 -1.4490  1.2398
34620SOL     OW 6238   4.211   1.626   3.209 -0.2310  0.0207  0.1290
34620SOL    HW1 6239   4.180   1.590   3.292 -1.7950  0.0503 -0.4059
34620SOL    HW2 6240   4.131   1.647   3.161  0.6432  0.3222 -1.2477
34621SOL     OW 6241   8.249   4.543   0.115  0.1505 -0.2703 -0.3074
34621SOL    HW1 6242   8.192   4.618   0.131 -0.1657 -0.5813  0.0125
34621SOL    HW2 6243   8.190   4.470   0.099  0.4466 -0.2529 -1.6316
34622SOL     OW 6244   5.124  10.337   4.108 -0.1466  0.2876  0.1042
34622SOL    HW1 6245   5.083  10.342   4.194  0.0289  3.0019  0.1265
34622SOL    HW2 6246   5.074  10.271   4.060 -3.0591  1.7683  0.9039
34623SOL     OW 6247   2.867   3.795   4.910  0.0706 -0.0063 -0.3407
34623SOL    HW1 6248   2.917   3.765   4.835  0.2698  0.5994 -0.4537
34623SOL    HW2 6249   2.835   3.715   4.952  0.6583 -0.3732 -0.5915
34624SOL     OW 6250   5.983  10.699   4.763 -0.4721  0.1897 -0.2541
34624SOL    HW1 6251   6.043  10.748   4.707 -1.2346 -0.4317 -1.6539
34624SOL    HW2 6252   5.896  10.720   4.729 -1.0330  0.4483  1.2396
34625SOL     OW 6253   4.647   0.929   4.805  0.3981 -0.0406  0.0939
34625SOL    HW1 6254   4.641   1.011   4.854 -0.9421 -0.1843  0.1965
34625SOL    HW2 6255   4.557   0.898   4.799  0.7706 -0.9963 -0.8218
34626SOL     OW 6256   4.226  10.641   4.449 -0.5583 -0.6396 -0.2985
34626SOL    HW1 6257   4.135  10.614   4.435 -1.1543  0.6159  0.8837
34626SOL    HW2 6258   4.238  10.715   4.390  0.2069 -1.7572 -1.5739
34627SOL     OW 6259   4.761   0.725   5.146 -0.4903 -0.3433 -0.0787
34627SOL    HW1 6260   4.670   0.697   5.141 -1.1741  1.7301 -0.1903
34627SOL    HW2 6261   4.790   0.731   5.055  0.0727 -1.8264 -0.0274
34628SOL     OW 6262   0.070   4.085   8.409  0.1441  0.4841 -0.1465
34628SOL    HW1 6263   0.132   4.018   8.438  0.9594  1.2671 -0.0435
34628SOL    HW2 6264   0.119   4.138   8.346 -1.0056 -0.0130 -1.5133
34629SOL     OW 6265   0.198   3.208   3.920  0.2363  0.7669 -0.3546
34629SOL    HW1 6266   0.235   3.120   3.919 -0.7268  0.3501 -0.4592
34629SOL    HW2 6267   0.169   3.224   3.830  2.6115  2.1828 -0.9422
34630SOL     OW 6268   7.344   3.934   9.639 -0.0304 -0.5611 -1.5048
34630SOL    HW1 6269   7.397   4.008   9.668 -0.9632  0.1825 -1.6785
34630SOL    HW2 6270   7.400   3.858   9.655 -0.4631 -0.2690  2.4880
34631SOL     OW 6271  10.602   7.080   6.719 -0.6049  0.3103 -0.1840
34631SOL    HW1 6272  10.683   7.068   6.767  0.6957 -0.4743 -2.4387
34631SOL    HW2 6273  10.578   7.171   6.734  0.2778  0.3533  1.0978
34632SOL     OW 6274   8.705   9.727   3.202  0.1134 -0.3026  0.8681
34632SOL    HW1 6275   8.672   9.734   3.292  1.6160  1.8682  1.3530
34632SOL    HW2 6276   8.636   9.765   3.148  0.8623  2.4209  1.6521
34633SOL     OW 6277   5.266   1.591   9.804 -0.2707 -0.7279 -0.8748
34633SOL    HW1 6278   5.352   1.570   9.769 -0.7601 -0.3212 -2.4239
34633SOL    HW2 6279   5.209   1.595   9.727 -1.2749  0.9494 -0.1179
34634SOL     OW 6280   3.754   9.118   2.105  0.1524  0.7397  0.3533
34634SOL    HW1 6281   3.807   9.182   2.153  1.1573 -0.0135  0.3064
34634SOL    HW2 6282   3.785   9.033   2.137  0.0380  0.2428 -0.7756
34635SOL     OW 6283   4.284   2.086   2.889 -0.4485  0.3041 -0.8529
34635SOL    HW1 6284   4.223   2.039   2.945  2.2502 -1.2002  1.0865
34635SOL    HW2 6285   4.341   2.017   2.853  0.8513  1.6801 -1.5471
34636SOL     OW 6286   1.514   7.508   6.698 -0.2843 -0.7243 -0.4171
34636SOL    HW1 6287   1.482   7.473   6.615 -0.7032 -0.5903 -0.3129
34636SOL    HW2 6288   1.435   7.533   6.746 -0.0926 -1.3933  0.2842
34637SOL     OW 6289   1.313   9.490   3.018 -0.1555  0.8224  0.0519
34637SOL    HW1 6290   1.244   9.495   2.952 -0.0535  0.9424 -0.0467
34637SOL    HW2 6291   1.268   9.503   3.101 -0.2863  0.6638  0.0057
34638SOL     OW 6292   8.208   7.385   5.903 -0.5371 -0.3432 -0.1091
34638SOL    HW1 6293   8.179   7.428   5.823 -2.2480 -0.7199  0.2626
34638SOL    HW2 6294   8.141   7.408   5.968 -0.8687 -2.5053  0.4086
34639SOL     OW 6295   1.125   2.910   8.400 -0.2869 -0.0138  0.2931
34639SOL    HW1 6296   1.201   2.908   8.460 -0.6700  1.0900  0.8461
34639SOL    HW2 6297   1.162   2.891   8.314  0.4956 -0.2928  0.6813
34640SOL     OW 6298   8.017   7.148   9.928 -0.5806  0.2481  0.3828
34640SOL    HW1 6299   7.942   7.167   9.872 -1.1860  0.1272  1.1487
34640SOL    HW2 6300   8.093   7.162   9.871 -1.1964 -0.4706 -0.6514
34641SOL     OW 6301   4.193   4.818   8.820  0.0564 -0.3714  0.2103
34641SOL    HW1 6302   4.272   4.851   8.863  0.6188  1.2791 -1.9011
34641SOL    HW2 6303   4.212   4.726   8.800  0.5075 -0.6247  1.7198
34642SOL     OW 6304   7.385   9.665   6.390  1.0391  0.3062  0.3706
34642SOL    HW1 6305   7.399   9.580   6.347  2.7981  0.3861  0.7022
34642SOL    HW2 6306   7.320   9.709   6.335 -1.7983 -2.1239  1.5067
34643SOL     OW 6307  10.327  10.269  10.550 -0.0518 -0.1499  0.0996
34643SOL    HW1 6308  10.247  10.225  10.579 -0.3358 -0.2895 -0.8576
34643SOL    HW2 6309  10.333  10.249  10.456 -0.7958  2.7348 -0.6495
34644SOL     OW 6310   7.251   2.787   3.045  0.1434 -0.1585  0.3737
34644SOL    HW1 6311   7.269   2.819   2.957  0.7464 -0.1479  0.4926
34644SOL    HW2 6312   7.249   2.692   3.037 -0.2565 -0.1385  0.2647
34645SOL     OW 6313   6.117   2.136   3.533  1.0125 -0.8982  0.3017
34645SOL    HW1 6314   6.035   2.140   3.482  0.2187  0.5952  1.5827
34645SOL    HW2 6315   6.122   2.046   3.564 -1.4432 -0.5260  2.1194
34646SOL     OW 6316   3.330   3.774   7.948  0.2577 -0.4533  0.5301
34646SOL    HW1 6317   3.420   3.802   7.967  0.0898  1.0734 -0.7189
34646SOL    HW2 6318   3.275   3.839   7.989 -0.2346 -0.6026  0.1170
34647SOL     OW 6319   0.516  10.165   9.765  0.3633  0.2823 -0.4994
34647SOL    HW1 6320   0.511  10.259   9.786 -0.4529  0.7106 -2.3321
34647SOL    HW2 6321   0.608  10.151   9.742  0.6833  0.4088  0.6417
34648SOL     OW 6322   4.564  10.682   1.528 -0.3277  0.1729  0.1747
34648SOL    HW1 6323   4.500  10.684   1.599 -3.2852 -1.0133 -2.2156
34648SOL    HW2 6324   4.517  10.719   1.453  1.9381 -0.4799 -1.6825
34649SOL     OW 6325   4.285   5.472   3.090 -0.2352  0.0095  0.2068
34649SOL    HW1 6326   4.248   5.548   3.135 -1.4170 -0.6988  0.4844
34649SOL    HW2 6327   4.311   5.413   3.160 -1.4084 -0.7844  0.0009
34650SOL     OW 6328   7.477   1.646   6.095  0.1846 -0.0757  0.2827
34650SOL    HW1 6329   7.418   1.692   6.155 -1.3968 -1.8401  0.1497
34650SOL    HW2 6330   7.494   1.562   6.137  0.6648 -0.5443 -0.8150
34651SOL     OW 6331   7.416   7.241   4.539 -0.1742  0.6041 -0.0732
34651SOL    HW1 6332   7.353   7.185   4.586  1.1383 -0.4001  0.5519
34651SOL    HW2 6333   7.416   7.208   4.450 -1.8167  1.7697 -0.5622
34652SOL     OW 6334   1.715   6.250   7.502  0.5624 -0.1021  0.0188
34652SOL    HW1 6335   1.787   6.227   7.444 -1.0135  1.4860 -2.7937
34652SOL    HW2 6336   1.680   6.167   7.531  2.4919 -0.9207  0.1805
34653SOL     OW 6337   1.166   5.086   6.285  0.6489 -0.1720 -0.0801
34653SOL    HW1 6338   1.192   4.994   6.294 -1.8369 -1.0522 -1.0118
34653SOL    HW2 6339   1.236   5.126   6.233  2.5128 -1.1122  1.5733
34654SOL     OW 6340   2.867   9.231   8.284  0.7763 -0.2531 -0.2432
34654SOL    HW1 6341   2.835   9.213   8.373  0.9130 -0.0228 -0.1488
34654SOL    HW2 6342   2.962   9.229   8.292  0.8072  1.1577 -0.0976
34655SOL     OW 6343  10.602   6.949   8.546 -0.1820  0.5488 -0.5319
34655SOL    HW1 6344  10.615   6.931   8.639  1.2162 -0.7272 -0.9374
34655SOL    HW2 6345  10.507   6.949   8.534 -0.3654  0.3655  0.8234
34656SOL     OW 6346   7.011   0.164   2.821 -0.4833  0.5169  0.0936
34656SOL    HW1 6347   6.990   0.200   2.907 -0.7919  0.4938  0.0288
34656SOL    HW2 6348   7.012   0.240   2.763 -1.0490  0.4313 -0.0269
34657SOL     OW 6349   6.440   8.732   5.047  0.3165  0.2285 -0.6620
34657SOL    HW1 6350   6.529   8.764   5.055  0.3138 -0.0576  1.0178
34657SOL    HW2 6351   6.447   8.637   5.059 -0.3448  0.3702  1.1209
34658SOL     OW 6352   6.485   1.829   4.877  0.5263  0.3842  0.2064
34658SOL    HW1 6353   6.462   1.920   4.898 -1.2266  0.6396 -2.3509
34658SOL    HW2 6354   6.517   1.833   4.787  0.5661 -1.5206  0.1009
34659SOL     OW 6355  10.139   6.350   0.690 -0.4106  0.6679 -0.5520
34659SOL    HW1 6356  10.075   6.331   0.621 -1.7260  2.8634 -0.0422
34659SOL    HW2 6357  10.215   6.384   0.643 -1.6147  2.9841 -0.9890
34660SOL     OW 6358   2.280  10.251   0.467  0.1121  0.2743 -0.3639
34660SOL    HW1 6359   2.202  10.238   0.414  0.8727 -0.6610 -1.2826
34660SOL    HW2 6360   2.345  10.287   0.407  0.6962  0.1110  0.1544
34661SOL     OW 6361   8.363  10.637   8.772  0.1792  0.8152  0.4041
34661SOL    HW1 6362   8.395  10.684   8.695 -1.3516  0.0280 -0.7557
34661SOL    HW2 6363   8.316  10.562   8.737 -0.0088  0.0761  2.1408
34662SOL     OW 6364  10.200   8.866   9.024  0.0980 -0.6410  0.1989
34662SOL    HW1 6365  10.239   8.790   8.981 -0.6045 -1.7783  1.4786
34662SOL    HW2 6366  10.106   8.848   9.023 -0.0892  0.2967  0.3700
34663SOL     OW 6367   8.416   5.936   8.071 -0.3269  0.1825  0.1528
34663SOL    HW1 6368   8.460   5.998   8.128 -1.8076 -1.4965  3.4159
34663SOL    HW2 6369   8.379   5.989   8.001  1.2300  2.4551  0.9478
34664SOL     OW 6370   4.762   3.757   2.486 -0.4416 -0.3585 -0.3604
34664SOL    HW1 6371   4.759   3.755   2.582  2.7029  1.1182 -0.0809
34664SOL    HW2 6372   4.795   3.671   2.461  0.6102 -0.1132  0.1015
34665SOL     OW 6373   2.920   3.575   5.236  0.0455 -0.1081 -0.4559
34665SOL    HW1 6374   2.893   3.666   5.248 -1.1220 -0.3663 -1.0184
34665SOL    HW2 6375   3.011   3.580   5.207 -0.4593  0.9671 -1.9555
34666SOL     OW 6376   3.908   7.074  10.638 -0.3707  0.6921  0.0414
34666SOL    HW1 6377   3.838   7.062  10.703 -0.9951  1.1859 -0.5288
34666SOL    HW2 6378   3.941   7.162  10.654 -0.6216  0.8695 -0.3921
34667SOL     OW 6379   8.993   2.015   9.560  0.0751 -0.2033 -0.1176
34667SOL    HW1 6380   9.064   2.061   9.605 -0.9449  0.8724  0.4297
34667SOL    HW2 6381   8.958   1.953   9.625 -1.1136  1.0459  0.4740
34668SOL     OW 6382   7.092   7.711   9.061  0.2080  0.4013  0.0514
34668SOL    HW1 6383   7.165   7.698   9.121 -0.1480 -0.9224  0.2321
34668SOL    HW2 6384   7.123   7.678   8.977 -1.1995 -3.4230  0.8402
34669SOL     OW 6385   2.325   6.357   0.469 -0.2827  0.0337  0.0456
34669SOL    HW1 6386   2.253   6.327   0.525 -2.2692  0.7470 -1.9679
34669SOL    HW2 6387   2.305   6.449   0.452  1.7997  0.5984  0.3465
34670SOL     OW 6388   8.698   4.519   2.968 -0.5208  0.0960 -0.1892
34670SOL    HW1 6389   8.653   4.516   2.883 -2.6726 -0.0254  0.8940
34670SOL    HW2 6390   8.726   4.429   2.984  0.0922  0.1598 -0.8404
34671SOL     OW 6391   0.714   6.541   7.757  0.0776  0.0053 -0.0948
34671SOL    HW1 6392   0.739   6.619   7.707 -1.8563  0.8872  0.1891
34671SOL    HW2 6393   0.769   6.545   7.835  2.1730 -0.6518 -1.4572
34672SOL     OW 6394   7.672   8.059   4.425  0.3041 -0.7613  0.0017
34672SOL    HW1 6395   7.716   8.118   4.486  1.2114 -0.1032 -1.2422
34672SOL    HW2 6396   7.643   8.115   4.353  1.9454 -1.8770 -1.6427
34673SOL     OW 6397   8.352   8.876  10.431  0.2899  0.1337 -0.4128
34673SOL    HW1 6398   8.319   8.827  10.355 -2.3234  1.6242 -0.3674
34673SOL    HW2 6399   8.361   8.810  10.499 -1.2992 -0.6417 -0.8921
34674SOL     OW 6400   6.018   0.530   9.391  0.3398  0.0111 -0.2415
34674SOL    HW1 6401   6.016   0.448   9.440 -0.1152 -0.0806 -0.4109
34674SOL    HW2 6402   6.009   0.503   9.300  2.2711  0.0975 -0.4913
34675SOL     OW 6403   9.968   0.038   0.129 -0.0579 -0.1699  0.1898
34675SOL    HW1 6404   9.890   0.056   0.077 -0.6422 -1.7823  0.4524
34675SOL    HW2 6405  10.024   0.115   0.116 -1.4697  0.8044 -0.3796
34676SOL     OW 6406   2.340   8.759   2.561 -0.4162 -0.0375  0.4284
34676SOL    HW1 6407   2.382   8.839   2.531  0.1679  0.1559  1.6836
34676SOL    HW2 6408   2.404   8.690   2.543 -0.5280 -0.0818  0.2045
34677SOL     OW 6409   1.095   1.928   0.347  0.4250 -0.6144 -0.1715
34677SOL    HW1 6410   1.038   1.955   0.418  0.5369  0.2772 -0.4070
34677SOL    HW2 6411   1.036   1.914   0.273  0.4336 -0.4273 -0.2131
34678SOL     OW 6412   0.303   1.022   8.546 -0.1693  0.1800 -0.2160
34678SOL    HW1 6413   0.313   0.941   8.597 -0.2694  0.8229  0.8566
34678SOL    HW2 6414   0.372   1.079   8.577 -0.7277  0.8759 -0.2272
34679SOL     OW 6415   7.319  10.597   4.601  0.6429  0.0037 -0.4169
34679SOL    HW1 6416   7.255  10.656   4.561  0.0072 -1.7792 -2.1821
34679SOL    HW2 6417   7.276  10.512   4.602  2.3347 -0.8900  0.0000
34680SOL     OW 6418   3.119   0.515   9.757 -0.5614  0.4278 -0.2748
34680SOL    HW1 6419   3.209   0.537   9.732 -1.2253  0.1836 -3.2886
34680SOL    HW2 6420   3.120   0.514   9.853  2.8858 -0.6473 -0.2020
34681SOL     OW 6421   5.175   0.675   2.243 -0.0283  0.4382 -0.6039
34681SOL    HW1 6422   5.155   0.752   2.296  0.0421  0.5353 -0.7176
34681SOL    HW2 6423   5.126   0.688   2.161 -0.7590 -0.0841 -0.2619
34682SOL     OW 6424   2.034   7.273   2.781 -0.3311 -0.6256 -0.1542
34682SOL    HW1 6425   2.028   7.246   2.690  0.4572 -1.2935 -0.0293
34682SOL    HW2 6426   2.083   7.355   2.780  0.0027 -0.8262 -0.3061
34683SOL     OW 6427   6.537   6.370   0.535 -0.7698  0.0211  0.7152
34683SOL    HW1 6428   6.544   6.338   0.625  0.2035 -0.4707  0.4801
34683SOL    HW2 6429   6.472   6.312   0.494 -1.0439  0.1010  1.0292
34684SOL     OW 6430  10.330   5.991   6.522  0.3053 -0.1770 -0.1417
34684SOL    HW1 6431  10.358   6.005   6.612  1.6614 -0.4415 -0.5070
34684SOL    HW2 6432  10.241   6.027   6.519  0.6828  0.9112  0.9907
34685SOL     OW 6433   6.457   0.083   2.241 -0.3939 -0.1754  0.3723
34685SOL    HW1 6434   6.417   0.050   2.322 -1.3329  0.4728  0.1899
34685SOL    HW2 6435   6.402   0.048   2.171 -2.2489  2.7480  0.2206
34686SOL     OW 6436   2.417   8.650  10.509  0.6868 -0.0518 -0.0464
34686SOL    HW1 6437   2.324   8.627  10.497  0.5566  0.1941  0.4543
34686SOL    HW2 6438   2.445   8.684  10.424  0.5748 -1.0007 -0.4793
34687SOL     OW 6439   3.467   4.942   6.856  0.2727 -0.4199 -0.5632
34687SOL    HW1 6440   3.533   4.984   6.801 -0.8072  0.4701 -1.2435
34687SOL    HW2 6441   3.464   4.996   6.935  1.6240 -1.5338  0.2856
34688SOL     OW 6442   8.289   5.527  10.007 -0.4000 -0.0062 -0.2683
34688SOL    HW1 6443   8.376   5.521   9.968 -0.0466 -0.9320  0.6214
34688SOL    HW2 6444   8.283   5.617  10.040  0.5493 -0.1781  0.4014
34689SOL     OW 6445   5.493   0.508  10.647  0.4667  0.1425  0.1759
34689SOL    HW1 6446   5.486   0.519  10.552  2.1724  0.2607  0.0383
34689SOL    HW2 6447   5.467   0.593  10.683 -0.0177  0.1514 -0.1838
34690SOL     OW 6448   7.521   0.272   4.801  0.3557  0.6904  0.7152
34690SOL    HW1 6449   7.425   0.273   4.798  0.3701  0.6422 -0.6945
34690SOL    HW2 6450   7.545   0.357   4.838 -0.2249  0.8844  0.6608
34691SOL     OW 6451   5.104   9.204   1.909  0.0545  0.0161  0.1206
34691SOL    HW1 6452   5.051   9.280   1.884 -0.1983 -0.6175 -1.3792
34691SOL    HW2 6453   5.157   9.186   1.832  1.1561 -0.4663  0.9797
34692SOL     OW 6454   5.801   7.581   3.693 -0.1935 -0.2899 -0.5379
34692SOL    HW1 6455   5.717   7.612   3.659  1.2783  2.5291 -1.9987
34692SOL    HW2 6456   5.845   7.661   3.724  1.8859 -1.6870  0.3277
34693SOL     OW 6457   6.507   3.497   3.988  0.1004  0.0205  0.1267
34693SOL    HW1 6458   6.427   3.507   4.041  1.3736  1.2797  1.9354
34693SOL    HW2 6459   6.573   3.468   4.051  0.7793 -2.5720 -1.6456
34694SOL     OW 6460   9.581   2.801   7.798 -0.5076 -0.2002  0.1799
34694SOL    HW1 6461   9.617   2.715   7.776 -0.9746 -0.5040  0.5870
34694SOL    HW2 6462   9.585   2.850   7.716  2.0131  0.2173  0.4721
34695SOL     OW 6463   8.766   2.391   9.306  0.1830  0.1567 -0.2891
34695SOL    HW1 6464   8.739   2.348   9.225  0.9008  0.0639 -0.4884
34695SOL    HW2 6465   8.734   2.334   9.375 -0.6355  0.3525 -0.4980
34696SOL     OW 6466   9.121   8.496   6.039  0.2408 -0.5706 -0.2958
34696SOL    HW1 6467   9.029   8.495   6.065 -0.2153  0.3695 -1.7980
34696SOL    HW2 6468   9.121   8.462   5.949  1.4088 -0.8785 -0.1923
34697SOL     OW 6469   7.061   4.327   4.834  0.6458  0.2718  0.1552
34697SOL    HW1 6470   6.969   4.347   4.818  0.4789  0.9810  1.8082
34697SOL    HW2 6471   7.102   4.328   4.747 -0.8974 -0.1080 -0.5989
34698SOL     OW 6472   6.991   3.700   1.380  0.2940  0.0459  0.0418
34698SOL    HW1 6473   7.009   3.639   1.451 -1.4233  1.3241  1.6605
34698SOL    HW2 6474   6.975   3.645   1.304 -1.3914 -1.5889  1.4890
34699SOL     OW 6475   4.179   9.533   8.128 -0.1810  1.1950 -0.0764
34699SOL    HW1 6476   4.212   9.477   8.058 -0.9226 -0.9458  1.1957
34699SOL    HW2 6477   4.250   9.596   8.144  1.6081 -0.7168 -0.1296
34700SOL     OW 6478   9.928   5.185   1.160 -0.3469  0.5988 -0.0182
34700SOL    HW1 6479   9.838   5.215   1.154 -0.2874  0.6250 -0.9286
34700SOL    HW2 6480   9.980   5.259   1.130  0.0316  0.8720  1.2921
34701SOL     OW 6481   9.122   4.318   3.917 -0.1297 -0.1601 -0.2614
34701SOL    HW1 6482   9.145   4.228   3.940  0.1808 -0.8848 -3.0421
34701SOL    HW2 6483   9.030   4.326   3.940 -0.6805 -1.8641 -1.6368
34702SOL     OW 6484   2.303   8.432   0.918  0.5048 -0.5665 -0.2082
34702SOL    HW1 6485   2.268   8.350   0.952  2.0924 -1.8046 -1.3861
34702SOL    HW2 6486   2.304   8.420   0.823 -0.2012  1.2569 -0.4744
34703SOL     OW 6487   6.781   1.672   8.896  0.4341 -0.1877  0.1228
34703SOL    HW1 6488   6.860   1.685   8.844  0.2609 -2.8775 -0.9829
34703SOL    HW2 6489   6.710   1.666   8.832  0.0982 -2.7476  0.6103
34704SOL     OW 6490   2.636   6.529   1.450 -0.6383 -0.0452  0.2245
34704SOL    HW1 6491   2.544   6.554   1.465 -0.8320 -1.3332  1.4279
34704SOL    HW2 6492   2.662   6.485   1.531  0.4382 -1.4269 -0.8213
34705SOL     OW 6493   0.926   4.466   0.187  0.2900  0.4961  0.1508
34705SOL    HW1 6494   0.884   4.517   0.256 -0.0741  0.0169  0.2781
34705SOL    HW2 6495   0.860   4.458   0.119  0.4940  0.5629 -0.0585
34706SOL     OW 6496   5.997   1.733   9.972  0.4926 -0.2981 -0.3170
34706SOL    HW1 6497   5.908   1.708   9.998  0.4017 -0.0309 -0.3629
34706SOL    HW2 6498   5.984   1.807   9.913  0.7610 -0.0504 -0.0675
34707SOL     OW 6499   0.438   4.854   7.171  0.3935 -0.2281  0.5372
34707SOL    HW1 6500   0.362   4.897   7.209  0.5785 -0.7069  1.4985
34707SOL    HW2 6501   0.510   4.874   7.232  0.6033 -1.3843  0.6975
34708SOL     OW 6502   2.887   9.858   3.495 -1.0246  0.2606 -0.6981
34708SOL    HW1 6503   2.792   9.871   3.498 -1.1942 -0.2821 -2.3288
34708SOL    HW2 6504   2.923   9.946   3.482 -1.4772  0.2760 -2.0625
34709SOL     OW 6505   0.446   2.149   6.699 -0.0691  0.0443 -0.1566
34709SOL    HW1 6506   0.493   2.205   6.637  1.5936 -0.9954  0.0901
34709SOL    HW2 6507   0.411   2.078   6.646  0.4781 -0.3004 -0.0683
34710SOL     OW 6508   3.839   7.021   0.506  0.5437 -0.1300 -0.1024
34710SOL    HW1 6509   3.843   7.117   0.496 -0.0118 -0.0580  0.3490
34710SOL    HW2 6510   3.862   7.006   0.597 -0.1549 -0.3696  0.0364
34711SOL     OW 6511  10.542   8.996   0.403  0.2719  0.0225 -0.1014
34711SOL    HW1 6512  10.538   8.981   0.309  0.4169 -2.7811  0.2686
34711SOL    HW2 6513  10.454   8.977   0.434  0.6955 -1.0005  0.5342
34712SOL     OW 6514   6.121   1.431   9.498  0.4115  0.3008 -0.3284
34712SOL    HW1 6515   6.207   1.467   9.517  1.0019 -1.5445  0.6799
34712SOL    HW2 6516   6.101   1.463   9.409  1.5877  1.6824 -0.1373
34713SOL     OW 6517   3.011   1.668   9.656  0.2294  0.3649  0.2203
34713SOL    HW1 6518   3.094   1.658   9.610  0.2489 -0.7289  0.4653
34713SOL    HW2 6519   2.984   1.578   9.677 -0.0646  0.7911  1.8154
34714SOL     OW 6520   3.887   3.865   7.279  0.4209  0.0680 -0.6622
34714SOL    HW1 6521   3.894   3.926   7.353 -2.0495 -1.7029  1.1558
34714SOL    HW2 6522   3.838   3.914   7.213 -0.7017  0.4334  0.3980
34715SOL     OW 6523   5.782   5.568   1.046  0.0309 -0.3829 -0.4447
34715SOL    HW1 6524   5.694   5.548   1.077 -0.1947 -1.3360 -1.6503
34715SOL    HW2 6525   5.775   5.658   1.013 -0.4105 -0.3438 -0.2553
34716SOL     OW 6526   7.910   2.901   0.776 -0.6817 -0.3498  0.0604
34716SOL    HW1 6527   7.973   2.848   0.728  0.8432 -0.1316  1.7288
34716SOL    HW2 6528   7.854   2.838   0.822  0.1739 -0.5482  0.8501
34717SOL     OW 6529   1.377   8.174   1.208 -0.1203 -0.0498 -0.2680
34717SOL    HW1 6530   1.454   8.128   1.175  0.1391  1.0124 -1.1942
34717SOL    HW2 6531   1.410   8.227   1.280 -0.3566 -0.9887  0.5676
34718SOL     OW 6532   9.685   7.929   4.011  0.9270 -0.7478  0.0249
34718SOL    HW1 6533   9.651   8.013   4.042  1.4127 -0.8156  0.7650
34718SOL    HW2 6534   9.713   7.946   3.921  1.0143 -0.1263  0.1661
34719SOL     OW 6535   6.558   1.701   8.181 -0.2988  0.6623 -0.1502
34719SOL    HW1 6536   6.544   1.615   8.142 -0.2176  0.4398  0.2958
34719SOL    HW2 6537   6.628   1.740   8.128  0.4963 -0.0227  0.3489
34720SOL     OW 6538   5.924  10.500   0.460  0.1618  0.2122 -0.1294
34720SOL    HW1 6539   5.981  10.494   0.537 -0.6543 -0.4713  0.4287
34720SOL    HW2 6540   5.852  10.557   0.488 -0.6059 -0.7627 -0.0819
34721SOL     OW 6541   9.843   5.381   7.562  0.4938  0.1367  0.0127
34721SOL    HW1 6542   9.818   5.432   7.485  0.9565  1.8921  0.9486
34721SOL    HW2 6543   9.770   5.393   7.624  0.8052  0.0426  0.4047
34722SOL     OW 6544   6.612   9.717   7.428  0.3356 -0.1948 -0.1907
34722SOL    HW1 6545   6.548   9.715   7.499  1.3135  0.2261  0.7284
34722SOL    HW2 6546   6.573   9.662   7.360 -0.3235 -1.1886  0.9362
34723SOL     OW 6547   5.864   5.667   2.307 -0.0510 -0.5783  0.2081
34723SOL    HW1 6548   5.887   5.584   2.265  0.0371 -1.4639  1.9309
34723SOL    HW2 6549   5.829   5.642   2.392 -1.6118  1.0720  0.1264
34724SOL     OW 6550   1.437   5.834   3.898 -0.0317  0.0152  0.2714
34724SOL    HW1 6551   1.436   5.800   3.809  0.1029 -0.0599  0.2987
34724SOL    HW2 6552   1.529   5.846   3.919 -0.0330 -0.5850  0.6344
34725SOL     OW 6553   0.335   8.992   5.611  0.1814  0.7572 -0.2990
34725SOL    HW1 6554   0.300   8.925   5.670  2.2194 -1.2383 -1.1938
34725SOL    HW2 6555   0.381   9.053   5.669  1.4428 -0.7117  0.3385
34726SOL     OW 6556   7.464   1.945   1.157  0.5994 -0.5349 -0.9459
34726SOL    HW1 6557   7.454   2.031   1.117 -0.1440  0.4353  1.1802
34726SOL    HW2 6558   7.554   1.919   1.136  1.9115  2.1276  0.7800
34727SOL     OW 6559  10.684   8.064   2.854 -0.2750 -0.3121  0.3635
34727SOL    HW1 6560  10.691   8.024   2.767 -1.4612  0.0146  0.0914
34727SOL    HW2 6561  10.763   8.117   2.863 -1.2295  1.5868 -1.5612
34728SOL     OW 6562   4.084   3.458   8.760  0.0282  0.2602 -0.6525
34728SOL    HW1 6563   4.101   3.537   8.811  0.8727  0.0620 -0.6254
34728SOL    HW2 6564   4.168   3.437   8.719  0.0968 -1.2521  0.2105
34729SOL     OW 6565   4.485   1.869   5.269 -0.5140  0.3215 -0.9074
34729SOL    HW1 6566   4.402   1.825   5.288  0.4774 -0.5114  2.0833
34729SOL    HW2 6567   4.486   1.945   5.328  1.3041 -0.3785  0.0649
34730SOL     OW 6568   5.850   0.884   4.562  0.7565  0.1884  0.5366
34730SOL    HW1 6569   5.767   0.837   4.570  1.3121 -1.1571 -1.1083
34730SOL    HW2 6570   5.873   0.907   4.653 -0.5955 -0.8549  1.1805
34731SOL     OW 6571   6.295   7.354  10.089 -0.0868 -0.0993 -0.3412
34731SOL    HW1 6572   6.251   7.273  10.112  2.3333 -0.9176  1.8140
34731SOL    HW2 6573   6.378   7.326  10.050 -0.6842  1.3896 -2.9161
34732SOL     OW 6574   2.251   4.737   0.832 -0.0079  0.1881  0.4947
34732SOL    HW1 6575   2.321   4.712   0.893  0.0554 -0.9298 -0.0075
34732SOL    HW2 6576   2.236   4.830   0.849  0.2546 -0.0178  1.9645
34733SOL     OW 6577   1.728   2.478   2.941  0.2398 -0.2783 -0.7644
34733SOL    HW1 6578   1.644   2.445   2.975  0.0831  0.3941 -0.4687
34733SOL    HW2 6579   1.769   2.402   2.900 -0.5289 -0.6090 -0.9384
34734SOL     OW 6580   6.725   8.439  10.745  0.4835  0.2084 -0.1375
34734SOL    HW1 6581   6.810   8.394  10.744  1.1808  1.4902 -0.5513
34734SOL    HW2 6582   6.738   8.517  10.690 -0.5443  1.1491  0.8938
34735SOL     OW 6583   6.476   4.812   5.519 -0.1441  0.3418 -0.1326
34735SOL    HW1 6584   6.505   4.739   5.465  0.4855 -0.8741  1.7641
34735SOL    HW2 6585   6.507   4.890   5.473  0.8941 -0.6655 -1.1890
34736SOL     OW 6586   7.923   0.120   1.670 -0.5815 -0.2408 -0.5344
34736SOL    HW1 6587   7.954   0.043   1.719 -2.2281 -1.1372 -0.8270
34736SOL    HW2 6588   7.838   0.139   1.708  0.0192  1.8042 -0.1175
34737SOL     OW 6589   1.637   9.296   9.168  0.3832 -0.6296 -0.3743
34737SOL    HW1 6590   1.637   9.201   9.185 -1.5653 -0.6227 -0.0931
34737SOL    HW2 6591   1.561   9.309   9.111 -0.0323  0.9088  0.4999
34738SOL     OW 6592   7.653   8.321   8.855 -0.0551 -0.1244 -0.3694
34738SOL    HW1 6593   7.659   8.226   8.867  1.3865 -0.2017 -1.5544
34738SOL    HW2 6594   7.573   8.333   8.803 -1.1363 -0.5219  1.1304
34739SOL     OW 6595   1.638   3.272   0.293  0.0989  0.2617 -0.1417
34739SOL    HW1 6596   1.668   3.295   0.381  1.5019 -0.5775 -0.3715
34739SOL    HW2 6597   1.708   3.301   0.235  0.0480 -0.8620 -0.8024
34740SOL     OW 6598   4.521   3.406   9.028  0.5938 -0.2389 -0.0276
34740SOL    HW1 6599   4.571   3.426   8.949  0.5561  0.8380  0.2076
34740SOL    HW2 6600   4.585   3.368   9.088  1.1304  1.0661  0.2473
34741SOL     OW 6601   0.167   7.189   5.435  0.4277 -0.7838  0.5129
34741SOL    HW1 6602   0.215   7.163   5.514 -1.0941 -0.2539  1.6679
34741SOL    HW2 6603   0.170   7.112   5.379  1.0466 -1.3752  1.3263
34742SOL     OW 6604   9.822   1.531   3.563 -0.3242 -0.1271  0.0879
34742SOL    HW1 6605   9.910   1.517   3.527  0.0380  0.2656  0.7956
34742SOL    HW2 6606   9.808   1.457   3.622 -0.5466 -0.2890 -0.1672
34743SOL     OW 6607   0.373   7.585   8.179  0.2774  0.0222  0.5900
34743SOL    HW1 6608   0.438   7.522   8.211  0.4252 -0.0852  0.0892
34743SOL    HW2 6609   0.391   7.665   8.229  0.4956 -0.1438  0.7835
34744SOL     OW 6610   9.337   5.140   2.181 -0.0545 -0.3944 -0.4752
34744SOL    HW1 6611   9.405   5.191   2.225 -0.9294  0.2802  0.1246
34744SOL    HW2 6612   9.364   5.049   2.193 -0.5090 -0.2858  1.9449
34745SOL     OW 6613   5.293   4.573   8.065 -0.5495 -0.5359  0.7733
34745SOL    HW1 6614   5.378   4.542   8.095 -0.7969 -0.8730  1.1402
34745SOL    HW2 6615   5.284   4.660   8.105  1.4096  1.4197 -2.5512
34746SOL     OW 6616   5.154   6.189   1.134  0.1852  0.5337 -0.2352
34746SOL    HW1 6617   5.178   6.244   1.059  0.7506 -0.5288 -0.8561
34746SOL    HW2 6618   5.224   6.203   1.198  0.6022  0.1581 -0.6021
34747SOL     OW 6619   5.737   5.609   9.018  0.8349  0.0650  0.3044
34747SOL    HW1 6620   5.784   5.557   8.953 -1.0776 -1.0323 -0.2825
34747SOL    HW2 6621   5.739   5.698   8.984  1.4697 -0.1715 -0.2960
34748SOL     OW 6622   7.932   9.020   1.153  0.1523  0.1775  0.5738
34748SOL    HW1 6623   7.957   9.107   1.122 -0.9682  0.4437  0.3755
34748SOL    HW2 6624   7.836   9.021   1.153  0.1140 -1.1432  0.2922
34749SOL     OW 6625   2.761   3.355   2.637 -0.9406  0.1445 -0.7027
34749SOL    HW1 6626   2.802   3.281   2.682  0.2933  0.7692 -0.7510
34749SOL    HW2 6627   2.834   3.414   2.617 -1.7151  0.7562 -1.8427
34750SOL     OW 6628   6.691   9.587   1.904 -0.0761 -0.0979 -0.0183
34750SOL    HW1 6629   6.725   9.630   1.983 -0.0577  0.8774 -0.5376
34750SOL    HW2 6630   6.596   9.591   1.914 -0.0730 -0.7266  0.3346
34751SOL     OW 6631  10.098   9.836   7.232 -0.9186  0.1490  0.8714
34751SOL    HW1 6632  10.037   9.892   7.185 -2.1773 -1.1444  0.8853
34751SOL    HW2 6633  10.148   9.792   7.164  0.3941  1.5905  0.8693
34752SOL     OW 6634   9.494  10.471   0.365 -0.0645  0.1599  0.1055
34752SOL    HW1 6635   9.459  10.546   0.317  0.6869 -0.5951 -1.7108
34752SOL    HW2 6636   9.576  10.504   0.403 -0.7835  0.8336  1.0987
34753SOL     OW 6637   2.076   7.097   6.257 -0.0274  0.3543  0.4241
34753SOL    HW1 6638   2.149   7.158   6.253 -0.5085  0.9014 -0.4409
34753SOL    HW2 6639   2.026   7.124   6.334 -0.2802  1.1233  0.0049
34754SOL     OW 6640   7.186  10.417   3.334 -0.3756  0.7217  0.0364
34754SOL    HW1 6641   7.205  10.333   3.376 -0.0569  0.8932  0.2453
34754SOL    HW2 6642   7.154  10.472   3.406  1.3027  1.3935  0.3365
34755SOL     OW 6643   1.577   7.870   2.268 -0.1627  0.7143 -0.2499
34755SOL    HW1 6644   1.669   7.896   2.263 -0.4089  1.5157 -0.8966
34755SOL    HW2 6645   1.529   7.953   2.279 -0.7961  0.2973  0.2005
34756SOL     OW 6646   8.629   8.062   1.824  0.3107 -0.0305  0.2806
34756SOL    HW1 6647   8.608   7.972   1.848 -0.9685  0.0484 -0.4420
34756SOL    HW2 6648   8.544   8.105   1.814  0.8250  0.6419 -1.6144
34757SOL     OW 6649   9.609   4.381  10.625 -0.3369 -0.2333  0.3639
34757SOL    HW1 6650   9.540   4.397  10.561 -0.4825 -2.0653  0.0158
34757SOL    HW2 6651   9.599   4.453  10.688 -1.8421  0.1637 -0.2683
34758SOL     OW 6652   4.382   3.705   8.372 -0.1294  0.2223 -0.3537
34758SOL    HW1 6653   4.427   3.744   8.448  1.0258  1.1378 -1.4546
34758SOL    HW2 6654   4.341   3.780   8.328 -1.4604 -0.4035 -0.2257
34759SOL     OW 6655   2.617   3.662   7.222 -0.0106 -0.2637  0.2430
34759SOL    HW1 6656   2.693   3.677   7.166  1.1996 -1.3074  1.5300
34759SOL    HW2 6657   2.638   3.707   7.304 -1.4557  0.6747  0.1437
34760SOL     OW 6658   8.335   3.440   0.649  0.1281  0.9215 -0.0149
34760SOL    HW1 6659   8.366   3.480   0.731  1.1244 -0.6988  0.4397
34760SOL    HW2 6660   8.280   3.508   0.609  2.4506  3.0958  0.2338
34761SOL     OW 6661   0.144   0.961   3.641 -0.0673  0.1647  0.1753
34761SOL    HW1 6662   0.052   0.938   3.653 -0.1089 -0.0337 -0.5051
34761SOL    HW2 6663   0.188   0.877   3.627  0.4787  0.0949  2.0742
34762SOL     OW 6664   6.770   5.271   4.743  0.1957 -0.0119  0.0164
34762SOL    HW1 6665   6.704   5.216   4.785  0.0048 -1.2309 -1.7524
34762SOL    HW2 6666   6.738   5.360   4.754 -1.1693 -0.5014  0.1714
34763SOL     OW 6667   7.698   5.683   9.821  0.3958  0.1087  0.0207
34763SOL    HW1 6668   7.767   5.705   9.883  0.9887 -1.0833 -0.2058
34763SOL    HW2 6669   7.617   5.697   9.869  0.8529 -1.0507  1.1628
34764SOL     OW 6670   2.727   3.686   5.567 -0.2704 -0.1748  0.0798
34764SOL    HW1 6671   2.792   3.748   5.600  0.8862 -1.0632 -0.4602
34764SOL    HW2 6672   2.643   3.722   5.596  0.4514  0.9745  0.8392
34765SOL     OW 6673   1.918   8.255   5.972  0.6456  0.0744  0.0405
34765SOL    HW1 6674   1.857   8.194   5.931  1.5834  0.6679 -2.3803
34765SOL    HW2 6675   1.862   8.314   6.023 -0.8682  0.5687 -2.0451
34766SOL     OW 6676   9.759   3.749   4.189 -0.4534 -1.7060 -0.3195
34766SOL    HW1 6677   9.780   3.657   4.202  0.7916 -1.2627  1.0950
34766SOL    HW2 6678   9.842   3.790   4.165 -1.1639 -1.0751 -1.8278
34767SOL     OW 6679   3.414  10.186   1.716 -0.2980 -0.4511 -0.0894
34767SOL    HW1 6680   3.479  10.225   1.776  0.1030 -1.0026 -0.1601
34767SOL    HW2 6681   3.462  10.118   1.670 -0.9726 -0.9667 -0.0436
34768SOL     OW 6682   9.528   4.717   5.265 -0.3766  0.3038  0.1831
34768SOL    HW1 6683   9.447   4.761   5.290 -0.6955 -0.1116 -0.1029
34768SOL    HW2 6684   9.560   4.676   5.346 -0.2082  0.8447  0.3957
34769SOL     OW 6685   2.683   7.693   3.359 -0.0886  0.0614 -0.0673
34769SOL    HW1 6686   2.604   7.668   3.310  0.7544 -0.6166 -1.1360
34769SOL    HW2 6687   2.704   7.781   3.328  0.8129 -0.6114 -1.4886
34770SOL     OW 6688  10.162   2.170   8.338  0.5162 -0.3753  0.1100
34770SOL    HW1 6689  10.168   2.075   8.353 -0.9009 -0.3048  1.3502
34770SOL    HW2 6690  10.068   2.188   8.342  0.8928  1.4420  2.2990
34771SOL     OW 6691  10.454   7.720   8.376 -0.3435 -0.3001 -0.1440
34771SOL    HW1 6692  10.508   7.741   8.300  0.3449  0.1457  0.4524
34771SOL    HW2 6693  10.412   7.637   8.353 -1.0736  0.4184 -1.4873
34772SOL     OW 6694   4.809   1.577   1.995 -0.4506  0.5203  0.1115
34772SOL    HW1 6695   4.734   1.524   1.966 -1.3730  2.5482 -1.5151
34772SOL    HW2 6696   4.879   1.553   1.935 -0.5056  0.2728  0.1460
34773SOL     OW 6697  10.756   2.432   9.144 -0.5171 -0.1559 -0.4652
34773SOL    HW1 6698  10.829   2.445   9.085 -1.4016  2.1206 -1.1628
34773SOL    HW2 6699  10.686   2.397   9.089 -0.6791 -0.0849 -0.3053
34774SOL     OW 6700   4.438   7.632   4.325 -0.5146 -0.1785 -0.3606
34774SOL    HW1 6701   4.463   7.686   4.249  0.6869  2.5459  1.7743
34774SOL    HW2 6702   4.505   7.564   4.329  0.6077  0.8792 -0.6067
34775SOL     OW 6703  10.282   9.546   8.685  0.0677 -0.2577  0.1772
34775SOL    HW1 6704  10.347   9.478   8.703  1.3299  1.2356  1.5399
34775SOL    HW2 6705  10.291   9.565   8.591  1.0398 -0.6265  0.1924
34776SOL     OW 6706   0.551   0.828   5.156 -0.0143 -0.1277 -0.0570
34776SOL    HW1 6707   0.564   0.921   5.137 -2.0323  0.0605 -0.7618
34776SOL    HW2 6708   0.625   0.804   5.211  1.9265  1.2699 -1.8909
34777SOL     OW 6709   7.535   4.125   3.801  0.1298  0.6352 -0.6765
34777SOL    HW1 6710   7.519   4.031   3.798  0.6205  0.5389 -0.5406
34777SOL    HW2 6711   7.498   4.153   3.885 -0.0787  0.5723 -0.7494
34778SOL     OW 6712   2.769   0.707   6.353  0.0844 -0.3788  0.0924
34778SOL    HW1 6713   2.726   0.631   6.313  0.7724 -0.3492 -0.7475
34778SOL    HW2 6714   2.851   0.673   6.389 -0.0931 -0.2237  0.6506
34779SOL     OW 6715   9.738   8.117   4.566  0.1026 -0.5416 -0.3034
34779SOL    HW1 6716   9.729   8.195   4.620  1.2025 -0.0587 -0.7952
34779SOL    HW2 6717   9.788   8.146   4.490 -0.8453 -1.3541 -1.2749
34780SOL     OW 6718   7.326   2.940   2.322  0.2217  0.0886 -0.1524
34780SOL    HW1 6719   7.244   2.895   2.303 -0.1798  0.9820 -0.6153
34780SOL    HW2 6720   7.342   2.993   2.244  0.9629  0.3304  0.1599
34781SOL     OW 6721   4.440  10.444   7.282  0.1846  0.0958 -0.4424
34781SOL    HW1 6722   4.392  10.427   7.201 -0.5586  0.0536 -0.0013
34781SOL    HW2 6723   4.380  10.497   7.335  1.1773  1.2994 -0.4628
34782SOL     OW 6724   3.948   0.371   2.108  0.9428 -0.2837 -0.8389
34782SOL    HW1 6725   4.028   0.371   2.160  0.6156  0.1880 -0.3177
34782SOL    HW2 6726   3.882   0.334   2.167  0.6137  0.0694 -0.9809
34783SOL     OW 6727   0.434   6.227   4.458 -0.1066  0.8544 -0.1159
34783SOL    HW1 6728   0.462   6.286   4.388 -0.0896  0.5259 -0.3894
34783SOL    HW2 6729   0.488   6.252   4.533 -0.8665  1.9134  0.0962
34784SOL     OW 6730   1.583   8.821   7.929  0.5928  0.6000 -1.0046
34784SOL    HW1 6731   1.500   8.869   7.928 -0.3204 -0.6479  1.8221
34784SOL    HW2 6732   1.559   8.732   7.903  0.8984  0.1308  0.2204
34785SOL     OW 6733   5.233   9.539   3.645 -0.0915 -0.4429  0.0446
34785SOL    HW1 6734   5.148   9.508   3.612  0.0295 -1.1993  0.4065
34785SOL    HW2 6735   5.296   9.515   3.577 -0.3208  1.3074 -0.8394
34786SOL     OW 6736   4.620   6.066   2.815  0.4422 -0.0923  0.4494
34786SOL    HW1 6737   4.607   6.018   2.733  1.6427 -1.0132  0.7687
34786SOL    HW2 6738   4.671   6.143   2.791  0.5662 -0.2233  0.2922
34787SOL     OW 6739   6.178   8.726   7.016 -0.1801 -0.2543 -0.1244
34787SOL    HW1 6740   6.138   8.685   6.939 -0.1816  2.1696 -1.4946
34787SOL    HW2 6741   6.114   8.791   7.045  1.3463  1.4416 -0.3820
34788SOL     OW 6742   5.524   9.442   1.433  0.4490  0.1177  0.2180
34788SOL    HW1 6743   5.587   9.394   1.486  0.4152 -1.2019 -0.8636
34788SOL    HW2 6744   5.440   9.398   1.451  0.2939  0.2140 -0.2501
34789SOL     OW 6745   2.549   2.496   6.717  0.0487  0.5403 -0.5710
34789SOL    HW1 6746   2.543   2.407   6.680 -2.2226  0.5467 -0.3407
34789SOL    HW2 6747   2.592   2.483   6.802 -0.2287 -0.3375 -0.5490
34790SOL     OW 6748   5.955   6.845   4.438 -0.1307 -0.0015 -0.2546
34790SOL    HW1 6749   5.964   6.939   4.424 -0.1539 -0.2159 -1.9388
34790SOL    HW2 6750   5.864   6.834   4.465  0.5631  0.6962  2.6365
34791SOL     OW 6751   1.371   6.765   4.474  0.0841 -0.2874 -0.4332
34791SOL    HW1 6752   1.402   6.750   4.564  0.1916  1.2442 -0.1784
34791SOL    HW2 6753   1.327   6.684   4.450  2.6791 -1.8964 -0.1368
34792SOL     OW 6754   5.887  10.107   1.059  0.2541 -0.2641 -0.5813
34792SOL    HW1 6755   5.798  10.125   1.030  0.1070 -2.0860 -1.3851
34792SOL    HW2 6756   5.883  10.020   1.098  1.4955  0.0421  0.3059
34793SOL     OW 6757   3.548   8.773   5.110  0.2892  0.2026 -0.2972
34793SOL    HW1 6758   3.515   8.705   5.051  0.3065 -0.1813  0.1290
34793SOL    HW2 6759   3.642   8.757   5.115  0.5367  1.1731 -1.3537
34794SOL     OW 6760   1.570   7.687   2.491 -0.1050  0.3458 -0.0926
34794SOL    HW1 6761   1.597   7.746   2.421  0.2500  1.0139  0.5938
34794SOL    HW2 6762   1.592   7.600   2.459  0.0845  0.6451 -0.7930
34795SOL     OW 6763   8.931   2.066   1.389 -0.7646  0.0789  0.1167
34795SOL    HW1 6764   8.851   2.054   1.442 -1.0441  1.3909  0.0215
34795SOL    HW2 6765   8.921   2.004   1.317 -1.8168  0.3854 -0.0177
34796SOL     OW 6766   9.016   4.940   2.677  0.4403 -0.0831  0.1948
34796SOL    HW1 6767   8.963   5.019   2.665  1.4662  0.8808  1.6128
34796SOL    HW2 6768   9.044   4.916   2.588 -1.3672  0.0503 -0.4451
34797SOL     OW 6769  10.502   0.772   1.383 -0.2518 -0.8962  0.2134
34797SOL    HW1 6770  10.561   0.735   1.450  0.8604 -0.3588 -0.4390
34797SOL    HW2 6771  10.540   0.744   1.300 -1.4151 -1.2376 -0.2224
34798SOL     OW 6772   3.550   5.747   1.917  0.1935 -0.3636 -0.0627
34798SOL    HW1 6773   3.545   5.660   1.877  0.0173 -0.9616  1.2068
34798SOL    HW2 6774   3.459   5.776   1.923  0.2543 -0.0746 -0.5093
34799SOL     OW 6775   4.879   6.850   9.281 -0.7614 -0.0132  0.5147
34799SOL    HW1 6776   4.831   6.837   9.199 -0.4511  0.9782  0.1580
34799SOL    HW2 6777   4.821   6.906   9.334  0.0728  1.4323 -0.0319
34800SOL     OW 6778   2.860   3.918   1.448  0.5051  0.3794 -0.5637
34800SOL    HW1 6779   2.783   3.945   1.400 -1.5543 -0.4552  2.0224
34800SOL    HW2 6780   2.876   3.989   1.510 -0.1710 -0.7376  0.9838
34801SOL     OW 6781   9.155   8.088   0.257  0.6725 -0.0123 -0.2508
34801SOL    HW1 6782   9.211   8.051   0.188  1.7326 -2.0555  1.5520
34801SOL    HW2 6783   9.067   8.058   0.236  1.0672 -1.0569 -0.4886
34802SOL     OW 6784   5.061   0.961   2.967  0.3037  0.4223 -0.5854
34802SOL    HW1 6785   5.142   0.910   2.959  0.3379  0.5912 -1.3771
34802SOL    HW2 6786   4.991   0.898   2.951  0.2214  0.1087  0.8379
34803SOL     OW 6787   2.720   3.594   1.255  0.4502 -0.0479  0.1462
34803SOL    HW1 6788   2.778   3.598   1.331 -1.2283 -0.8761  1.5387
34803SOL    HW2 6789   2.678   3.508   1.261 -2.1778  1.1278  0.1960
34804SOL     OW 6790   9.535   7.937  10.725 -0.5135 -0.2959  0.2254
34804SOL    HW1 6791   9.610   7.885  10.752  0.2058 -0.0121 -1.1369
34804SOL    HW2 6792   9.481   7.877  10.673  0.3689  0.2851 -1.4352
34805SOL     OW 6793   8.373   2.628   3.273  0.2085 -0.5069 -0.5670
34805SOL    HW1 6794   8.281   2.604   3.282  0.1306 -0.1642 -0.4469
34805SOL    HW2 6795   8.420   2.544   3.276  0.0885 -0.5485  1.5220
34806SOL     OW 6796   8.166   4.181   0.033  0.0381  0.1758  0.1074
34806SOL    HW1 6797   8.113   4.252  -0.004 -0.7124  0.2412  1.2613
34806SOL    HW2 6798   8.132   4.102  -0.008  0.1777  0.3805 -0.4088
34807SOL     OW 6799   8.671   4.051   7.179  0.2140 -0.0916  0.1614
34807SOL    HW1 6800   8.696   3.968   7.219  0.4710  0.6138  1.5006
34807SOL    HW2 6801   8.746   4.109   7.193  0.3618  0.1493 -1.4599
34808SOL     OW 6802   8.489   9.291   9.923  0.1245 -0.1408  0.4636
34808SOL    HW1 6803   8.575   9.331   9.908 -0.0604 -0.1321 -0.6996
34808SOL    HW2 6804   8.480   9.227   9.853 -1.8472  1.6159 -1.0274
34809SOL     OW 6805   7.302   2.096   7.876  0.0005 -0.3807  0.0473
34809SOL    HW1 6806   7.268   2.132   7.795  1.0850 -0.0611 -0.2857
34809SOL    HW2 6807   7.385   2.055   7.852  0.6009  0.1698  1.0604
34810SOL     OW 6808   0.868   1.326   5.288 -0.1352  0.2500  0.1258
34810SOL    HW1 6809   0.870   1.233   5.310 -0.5470 -0.1977 -1.5863
34810SOL    HW2 6810   0.958   1.347   5.265 -0.3879 -0.2277 -1.3560
34811SOL     OW 6811   0.469   6.740  10.609 -0.1824 -0.2510 -0.3622
34811SOL    HW1 6812   0.536   6.676  10.582  1.4949  1.8692 -1.4940
34811SOL    HW2 6813   0.491   6.760  10.700 -0.0986 -0.5373 -0.3179
34812SOL     OW 6814  10.526   1.781   9.957 -0.4149 -0.3485  0.3169
34812SOL    HW1 6815  10.527   1.700  10.007 -0.1929  0.3818  1.5152
34812SOL    HW2 6816  10.450   1.772   9.899 -0.7880 -1.1294  0.9105
34813SOL     OW 6817   3.214   9.601   9.502  0.5029 -0.3176 -0.2687
34813SOL    HW1 6818   3.187   9.549   9.427 -0.9385  0.9911 -0.7014
34813SOL    HW2 6819   3.237   9.686   9.466  0.0410  0.2532  0.7298
34814SOL     OW 6820   5.273   2.333   2.527  0.2807  0.8711 -0.7704
34814SOL    HW1 6821   5.262   2.239   2.541 -0.4866  0.7192 -2.2482
34814SOL    HW2 6822   5.361   2.352   2.558  0.8594 -0.5556 -1.4824
34815SOL     OW 6823   4.512   4.895  10.771  0.8381 -0.6054 -0.1505
34815SOL    HW1 6824   4.461   4.819  10.801 -1.2199  0.3693 -0.9233
34815SOL    HW2 6825   4.582   4.904  10.836 -1.7912 -0.1777  2.9138
34816SOL     OW 6826   8.711   2.980   4.410  0.3628  0.6911  0.0055
34816SOL    HW1 6827   8.642   3.032   4.450  1.4033  1.8065  0.4313
34816SOL    HW2 6828   8.770   2.959   4.482  0.3432 -0.4630 -0.3044
34817SOL     OW 6829   9.710   0.290   8.619 -0.2061 -0.2758  0.0420
34817SOL    HW1 6830   9.709   0.369   8.565  0.4131 -1.1384 -1.2574
34817SOL    HW2 6831   9.755   0.225   8.566  1.0320 -0.9769  1.8583
34818SOL     OW 6832   2.282   7.660   7.583 -0.1268  0.6608 -0.2282
34818SOL    HW1 6833   2.303   7.570   7.607 -2.3778  0.5669  1.8640
34818SOL    HW2 6834   2.364   7.697   7.551  1.9350 -0.9378  2.7439
34819SOL     OW 6835   5.497  10.024   1.983  1.0745  0.1020  0.1313
34819SOL    HW1 6836   5.484  10.013   2.077  2.4752  1.3573  0.4954
34819SOL    HW2 6837   5.408  10.031   1.947  0.5341 -0.1358  1.3737
34820SOL     OW 6838   0.124   8.356   0.852 -0.2420 -0.5963  0.0032
34820SOL    HW1 6839   0.189   8.287   0.840  0.0541 -0.4620  0.7735
34820SOL    HW2 6840   0.114   8.394   0.765  1.5434  0.1126  0.0615
34821SOL     OW 6841   2.096   2.994   6.118  0.1532  0.0044 -0.0901
34821SOL    HW1 6842   2.147   2.926   6.072 -0.9498 -0.7742 -0.2181
34821SOL    HW2 6843   2.006   2.962   6.114 -0.1387  0.5501  1.5317
34822SOL     OW 6844   2.203   8.188   7.641 -0.3161  0.3046  0.0579
34822SOL    HW1 6845   2.209   8.231   7.555  1.2533 -0.7165 -0.3932
34822SOL    HW2 6846   2.282   8.217   7.688  0.2498 -1.2216  0.1125
34823SOL     OW 6847   8.567   0.127   9.930  0.9295  0.2947 -0.5143
34823SOL    HW1 6848   8.620   0.158  10.003 -1.1653 -0.3756  1.4084
34823SOL    HW2 6849   8.525   0.206   9.895 -0.8731  0.2823  1.4366
34824SOL     OW 6850   6.430   2.294   1.239 -0.2472 -0.0497 -0.0221
34824SOL    HW1 6851   6.355   2.243   1.270 -0.8459  1.0374  0.3358
34824SOL    HW2 6852   6.423   2.378   1.284  0.5746  0.4625 -0.8166
34825SOL     OW 6853   1.815   7.503   7.828  0.0772  0.0820 -0.0666
34825SOL    HW1 6854   1.746   7.544   7.776  0.9875 -1.0392 -2.3318
34825SOL    HW2 6855   1.896   7.544   7.796  0.7830 -1.6827 -0.6535
34826SOL     OW 6856   9.439   5.354   9.899 -0.0066  1.0959  0.0596
34826SOL    HW1 6857   9.439   5.333   9.993  0.8090  1.8404  0.2391
34826SOL    HW2 6858   9.364   5.306   9.864 -0.6061  1.1710  1.1756
34827SOL     OW 6859   2.062   5.663   4.563 -0.3611  0.3780  0.3475
34827SOL    HW1 6860   2.093   5.744   4.603 -1.9561  1.0792  0.2364
34827SOL    HW2 6861   1.979   5.645   4.607 -0.7228 -0.4169 -0.6276
34828SOL     OW 6862   7.630   1.760   4.364  0.2533  0.7931 -0.3551
34828SOL    HW1 6863   7.652   1.668   4.350 -0.1356  0.3197  1.7823
34828SOL    HW2 6864   7.606   1.792   4.277  0.0812 -1.2085 -1.1088
34829SOL     OW 6865   8.294   4.990   1.720  0.6161  0.4285  0.3641
34829SOL    HW1 6866   8.380   5.033   1.714  0.2555  1.4835  2.1897
34829SOL    HW2 6867   8.245   5.042   1.784 -0.6033 -1.4609  1.0497
34830SOL     OW 6868   0.579   5.529   9.844 -0.1414  0.3402  0.2532
34830SOL    HW1 6869   0.494   5.505   9.879 -0.2202 -0.9555 -0.7671
34830SOL    HW2 6870   0.642   5.484   9.900 -0.1754  0.3421  0.2927
34831SOL     OW 6871  10.712   4.034   3.909  0.7287 -0.1953  0.1895
34831SOL    HW1 6872  10.703   4.122   3.946  2.1686 -0.2250  0.6654
34831SOL    HW2 6873  10.719   3.977   3.986  0.0450 -0.7114 -0.1188
34832SOL     OW 6874   3.445  10.037   0.568  0.8516  0.0994 -0.1711
34832SOL    HW1 6875   3.510   9.967   0.569  0.3796 -0.3515  0.6967
34832SOL    HW2 6876   3.362   9.993   0.550  0.6451  0.5189 -0.2509
34833SOL     OW 6877   6.238   4.540   0.653 -0.1674  0.0888  0.2087
34833SOL    HW1 6878   6.146   4.560   0.671  0.4608  2.0507  1.5755
34833SOL    HW2 6879   6.270   4.502   0.735  0.2566 -0.5743 -0.2595
34834SOL     OW 6880   4.128   5.195   3.732  0.2451  0.5440 -0.0449
34834SOL    HW1 6881   4.204   5.187   3.790  1.0242  1.1352 -0.9324
34834SOL    HW2 6882   4.163   5.240   3.655 -1.1518  1.4160 -0.2096
34835SOL     OW 6883   3.124   3.695   4.180  0.4022  0.8548 -0.3187
34835SOL    HW1 6884   3.069   3.681   4.257 -0.3708  1.6784 -0.7057
34835SOL    HW2 6885   3.214   3.689   4.213  0.0838  0.0868  0.4306
34836SOL     OW 6886   3.234   1.379   6.760  0.0097  0.2385  0.5425
34836SOL    HW1 6887   3.211   1.466   6.795 -2.0617  0.1117 -0.3572
34836SOL    HW2 6888   3.188   1.374   6.676 -0.9810 -2.2256  1.1572
34837SOL     OW 6889   0.095   6.031   0.347 -0.2307  0.1375  0.0821
34837SOL    HW1 6890   0.106   6.087   0.424  0.8450  1.2367 -0.8426
34837SOL    HW2 6891   0.008   6.053   0.314  0.4416  1.8198 -0.6665
34838SOL     OW 6892   4.994   4.940   6.296  0.3154 -0.1840 -0.1316
34838SOL    HW1 6893   4.931   4.934   6.224  0.2873  0.5970 -0.1835
34838SOL    HW2 6894   4.961   4.879   6.362 -0.3733  0.0434 -0.2531
34839SOL     OW 6895   0.025   4.700   7.196 -0.7492  0.2537 -0.2352
34839SOL    HW1 6896   0.109   4.658   7.174 -0.4518  0.7826 -0.1250
34839SOL    HW2 6897  -0.025   4.630   7.239  0.1340  0.2705  0.9041
34840SOL     OW 6898   4.575   1.308   0.727  1.0023 -0.4264  0.4960
34840SOL    HW1 6899   4.540   1.279   0.643  2.2732  0.4535 -0.3836
34840SOL    HW2 6900   4.527   1.388   0.747 -0.2725 -1.3725  1.3289
34841SOL     OW 6901   7.566   0.893   5.611  0.0465 -1.0964 -0.5784
34841SOL    HW1 6902   7.560   0.987   5.594  0.6238 -1.1763 -1.2429
34841SOL    HW2 6903   7.646   0.883   5.663 -0.9997 -1.0133  1.1566
34842SOL     OW 6904   5.863   3.443  10.111  0.5480 -0.7038 -0.0230
34842SOL    HW1 6905   5.816   3.419  10.191  1.3191  1.2107  1.0875
34842SOL    HW2 6906   5.941   3.489  10.143  0.4794  0.8046 -1.8875
34843SOL     OW 6907   8.968   9.466   8.791 -0.4108  0.1475  0.0606
34843SOL    HW1 6908   9.015   9.545   8.765  1.9083 -0.7739  1.1775
34843SOL    HW2 6909   8.996   9.400   8.727 -1.0931 -0.1474  0.0632
34844SOL     OW 6910   2.032   1.852   0.991 -0.2686 -0.5244  0.0505
34844SOL    HW1 6911   1.954   1.853   1.046 -1.0564 -1.2846 -1.0213
34844SOL    HW2 6912   2.017   1.921   0.926 -0.6039 -1.4553 -0.8786
34845SOL     OW 6913   6.226   4.612   5.369  0.1749 -0.9114  0.6065
34845SOL    HW1 6914   6.205   4.551   5.439 -0.2108 -2.5594 -0.8757
34845SOL    HW2 6915   6.297   4.570   5.321 -0.2420 -0.3117 -0.5814
34846SOL     OW 6916   9.853   4.212  10.645  0.4404 -0.3785  0.1251
34846SOL    HW1 6917   9.860   4.278  10.576  0.1882 -1.0799 -0.5921
34846SOL    HW2 6918   9.797   4.253  10.712  0.8968  0.4039  0.0340
34847SOL     OW 6919   7.014   5.547   5.441 -0.4058 -0.0246 -0.0728
34847SOL    HW1 6920   6.984   5.603   5.370  1.1961  0.9142 -0.0453
34847SOL    HW2 6921   7.007   5.458   5.406  1.6004  0.4781 -1.9556
34848SOL     OW 6922   5.514   5.809   0.242  0.5814  0.9054 -0.0278
34848SOL    HW1 6923   5.428   5.799   0.283 -0.0254  2.2176 -0.9300
34848SOL    HW2 6924   5.576   5.796   0.314 -0.4213  1.5226  0.9782
34849SOL     OW 6925   6.113   1.909   7.330 -0.5213 -0.0544 -0.5021
34849SOL    HW1 6926   6.197   1.924   7.286 -0.8317  0.0102 -1.0763
34849SOL    HW2 6927   6.137   1.868   7.413  0.1591  0.9774 -0.1632
34850SOL     OW 6928   0.241   0.487   5.015  0.3133  0.0496 -0.1188
34850SOL    HW1 6929   0.279   0.478   4.927 -1.9958  0.9226 -1.2740
34850SOL    HW2 6930   0.180   0.414   5.023  0.5250 -0.0368  0.7848
34851SOL     OW 6931   0.445  10.688  10.723  0.1524 -0.3448 -0.4437
34851SOL    HW1 6932   0.430  10.678  10.629 -0.8505 -0.4992 -0.2765
34851SOL    HW2 6933   0.358  10.683  10.762  0.5151  0.1642  0.4604
34852SOL     OW 6934   6.022   6.044   4.925  0.1094 -0.2143  0.6791
34852SOL    HW1 6935   5.959   6.014   4.989  0.8944  1.2181  2.1903
34852SOL    HW2 6936   6.102   6.060   4.975  0.5496  1.6024 -0.4877
34853SOL     OW 6937   2.964  10.365   8.312 -0.0782 -0.2584  0.0432
34853SOL    HW1 6938   2.941  10.288   8.365 -1.3078 -0.1184 -0.2548
34853SOL    HW2 6939   3.054  10.386   8.338 -0.6199 -0.2166  2.0386
34854SOL     OW 6940   1.728   2.606  10.429 -0.1843 -0.0298  0.4034
34854SOL    HW1 6941   1.682   2.539  10.480 -1.1116  0.1100 -0.2201
34854SOL    HW2 6942   1.750   2.674  10.493 -1.7509  0.3646  0.5694
34855SOL     OW 6943   0.256   6.972   7.118  0.2949  0.0335 -0.0891
34855SOL    HW1 6944   0.296   6.918   7.185 -0.2839 -0.2683  0.0177
34855SOL    HW2 6945   0.264   7.062   7.151 -1.6822 -0.2481  1.3024
34856SOL     OW 6946   1.188   5.728   3.583  0.0781 -0.5912  0.5561
34856SOL    HW1 6947   1.227   5.648   3.548  0.3191  0.1696 -1.0024
34856SOL    HW2 6948   1.247   5.798   3.555  0.4542  0.0531  2.8209
34857SOL     OW 6949   7.687   8.044   1.163  0.2614  0.4087  0.0427
34857SOL    HW1 6950   7.663   8.131   1.134  1.8401  0.7478 -0.3520
34857SOL    HW2 6951   7.731   8.004   1.088  4.4184  1.3107  1.7278
34858SOL     OW 6952   0.284   6.818   7.453  0.1710 -0.3026 -0.3591
34858SOL    HW1 6953   0.332   6.745   7.414  0.4843 -0.9903  1.2217
34858SOL    HW2 6954   0.330   6.835   7.535 -2.4652 -1.2500  1.4444
34859SOL     OW 6955  10.051   2.518   0.172 -0.3048 -0.2264 -0.2755
34859SOL    HW1 6956  10.109   2.558   0.108 -1.4651  0.9496 -0.6297
34859SOL    HW2 6957   9.973   2.492   0.122 -0.7815 -0.2630  0.4574
34860SOL     OW 6958   3.395   3.509   0.002  0.0215 -0.0761  0.1875
34860SOL    HW1 6959   3.454   3.468   0.065  0.0224 -0.4740 -0.0693
34860SOL    HW2 6960   3.369   3.591   0.044  0.6882  0.0666  0.3378
34861SOL     OW 6961   4.823   1.593   8.280  0.5020 -0.2428  0.0938
34861SOL    HW1 6962   4.826   1.669   8.338 -0.3942  0.3006 -0.5336
34861SOL    HW2 6963   4.914   1.566   8.271  0.5127 -1.8478  3.6255
34862SOL     OW 6964   0.271  10.767   6.643 -0.3094  0.2899  0.2878
34862SOL    HW1 6965   0.208  10.709   6.601  1.7478 -1.0796 -1.1163
34862SOL    HW2 6966   0.222  10.809   6.714 -2.8664 -0.3357 -0.9882
34863SOL     OW 6967  10.168   2.336   3.151 -0.3961 -0.3243 -0.2896
34863SOL    HW1 6968  10.229   2.409   3.141  1.2651 -1.5330  0.5890
34863SOL    HW2 6969  10.102   2.351   3.083 -0.1408  1.9862 -0.1287
34864SOL     OW 6970   6.564   9.958   5.508  0.0521 -0.1864  0.1047
34864SOL    HW1 6971   6.515   9.922   5.582  0.3583  0.0424  0.4245
34864SOL    HW2 6972   6.512   9.934   5.431 -2.0746  2.4171  0.5730
34865SOL     OW 6973   8.147   1.545   5.116 -0.3500  0.7471  0.2227
34865SOL    HW1 6974   8.149   1.473   5.178 -4.1332  2.0261  2.1756
34865SOL    HW2 6975   8.219   1.602   5.143 -0.7880  0.3788  2.3612
34866SOL     OW 6976   7.683   9.935   3.109  0.0911 -0.2932  0.2888
34866SOL    HW1 6977   7.676   9.848   3.148  1.0158 -0.4600  0.1056
34866SOL    HW2 6978   7.750   9.925   3.041 -0.2310  0.4173 -0.1446
34867SOL     OW 6979   7.415  10.784   5.226 -0.4774  0.1637 -0.0632
34867SOL    HW1 6980   7.441  10.853   5.165  0.2752  1.0518  1.2167
34867SOL    HW2 6981   7.494  10.768   5.278 -1.4572  0.3678  1.5361
34868SOL     OW 6982   5.415   0.753   6.549 -0.2107  0.0084  0.6716
34868SOL    HW1 6983   5.478   0.780   6.482  1.1627 -0.2823  1.7829
34868SOL    HW2 6984   5.358   0.829   6.560  0.3371  0.5250  0.0798
34869SOL     OW 6985   2.702  10.088   5.909 -0.5097 -0.0974 -0.7306
34869SOL    HW1 6986   2.726  10.025   5.841 -1.0589  0.2962 -1.2977
34869SOL    HW2 6987   2.782  10.139   5.922 -0.7648  0.6863 -2.0391
34870SOL     OW 6988   4.684   4.120   6.625  0.2801  0.0223 -0.2801
34870SOL    HW1 6989   4.615   4.063   6.590  0.5405 -2.0133  2.2913
34870SOL    HW2 6990   4.637   4.190   6.669 -0.0379  1.1195 -2.2217
34871SOL     OW 6991   7.180   6.016   7.763  0.3401  0.2818 -0.9731
34871SOL    HW1 6992   7.228   5.935   7.744 -1.0255 -0.9990  0.6803
34871SOL    HW2 6993   7.115   5.990   7.829 -0.2758  2.7058 -0.5430
34872SOL     OW 6994   1.758   5.381   7.279 -0.3957  0.5180  0.0491
34872SOL    HW1 6995   1.707   5.349   7.206 -0.1058 -0.5044  0.2849
34872SOL    HW2 6996   1.731   5.328   7.354  2.4820 -1.6168 -0.2377
34873SOL     OW 6997   9.069   1.356   3.798  0.1783 -0.3756  0.1753
34873SOL    HW1 6998   9.053   1.384   3.708  0.4275  1.2577  0.6017
34873SOL    HW2 6999   9.126   1.280   3.789  0.5592  0.0217 -1.0560
34874SOL     OW 7000   5.798   3.939   7.232  0.7654 -0.5688 -0.0097
34874SOL    HW1 7001   5.731   3.977   7.289  1.9193  2.8234 -0.6824
34874SOL    HW2 7002   5.786   3.845   7.241 -1.4576 -0.1645  2.9862
34875SOL     OW 7003   3.157   9.223   9.108 -0.4617  0.2691  0.2799
34875SOL    HW1 7004   3.235   9.180   9.074 -1.3819 -0.6281 -0.7846
34875SOL    HW2 7005   3.164   9.314   9.078 -0.7248 -0.2524 -1.4634
34876SOL     OW 7006   4.630  10.018   4.697 -0.4254 -0.0107  0.2299
34876SOL    HW1 7007   4.648   9.926   4.679 -1.7338 -0.1863 -0.2893
34876SOL    HW2 7008   4.632  10.024   4.793 -3.3632 -1.2838  0.4658
34877SOL     OW 7009  10.730   6.133   0.136  0.1039 -0.4643 -0.0070
34877SOL    HW1 7010  10.671   6.122   0.211  0.1518  0.9389  0.2633
34877SOL    HW2 7011  10.675   6.117   0.060 -0.2905 -0.4842  0.2793
34878SOL     OW 7012   7.574   0.404   7.460  0.0337 -0.0873  0.2329
34878SOL    HW1 7013   7.580   0.316   7.424  1.4356 -0.4204  1.2193
34878SOL    HW2 7014   7.480   0.419   7.471 -0.1948 -2.2458  1.8865
34879SOL     OW 7015   9.600   9.689   3.102  0.5012 -0.5523  0.2048
34879SOL    HW1 7016   9.657   9.636   3.157 -0.0641 -0.5474  0.8060
34879SOL    HW2 7017   9.513   9.652   3.116  0.3129 -0.3832 -0.4895
34880SOL     OW 7018   6.821   0.866   3.360 -0.1573 -0.2958  0.1372
34880SOL    HW1 7019   6.827   0.802   3.431 -1.3145 -0.8203 -0.2023
34880SOL    HW2 7020   6.902   0.916   3.365  0.4196 -1.2754  0.9117
34881SOL     OW 7021  10.663   5.727   6.080 -0.0719 -0.5731 -0.1220
34881SOL    HW1 7022  10.746   5.683   6.100 -0.3570 -1.3497 -0.5788
34881SOL    HW2 7023  10.634   5.764   6.163  1.0974  0.3598 -0.1110
34882SOL     OW 7024   8.427   1.117   0.895 -0.1755  0.7919 -0.0831
34882SOL    HW1 7025   8.378   1.200   0.892 -0.0101  0.9628  1.2218
34882SOL    HW2 7026   8.481   1.124   0.974  2.0666  0.6480 -1.5242
34883SOL     OW 7027   7.417   1.010   2.449  0.2545 -0.1626  0.7214
34883SOL    HW1 7028   7.488   1.049   2.500  0.9350  0.2745 -0.5409
34883SOL    HW2 7029   7.418   1.057   2.366 -1.8731  0.2427  0.8558
34884SOL     OW 7030  10.314   6.242   0.012  0.9483  0.1121 -0.0950
34884SOL    HW1 7031  10.241   6.204  -0.036  1.5250  1.3543 -2.1445
34884SOL    HW2 7032  10.357   6.168   0.054 -1.5914 -0.6143  1.4437
34885SOL     OW 7033   2.494   4.263  10.095 -0.0285 -0.0463  0.0163
34885SOL    HW1 7034   2.410   4.298  10.123  0.1741  0.1896  0.3419
34885SOL    HW2 7035   2.486   4.255  10.000  0.2607  1.8663 -0.2211
34886SOL     OW 7036   2.169   4.664   9.268 -0.4147  0.6020  0.7685
34886SOL    HW1 7037   2.227   4.697   9.337  0.5308  0.2345  0.1591
34886SOL    HW2 7038   2.132   4.743   9.228 -0.7684  0.8238  1.5082
34887SOL     OW 7039   1.180   9.991   8.055 -0.4552 -0.5828 -0.2961
34887SOL    HW1 7040   1.266  10.022   8.026 -0.6267 -0.9902 -1.2670
34887SOL    HW2 7041   1.200   9.937   8.132 -0.1436  1.7210  1.3558
34888SOL     OW 7042   2.461   3.872   0.262  0.2824  0.0576  0.0173
34888SOL    HW1 7043   2.509   3.893   0.182  0.1390 -0.3480 -0.1799
34888SOL    HW2 7044   2.519   3.901   0.333 -0.7286  2.8808 -0.2199
34889SOL     OW 7045  10.435   5.141  10.518  0.1444  0.0046  0.1023
34889SOL    HW1 7046  10.399   5.056  10.491  0.4317  0.6832 -2.6744
34889SOL    HW2 7047  10.359   5.198  10.527  0.0891 -0.0890  0.2353
34890SOL     OW 7048   9.701   8.322   5.625  0.5005 -0.0239  0.5676
34890SOL    HW1 7049   9.622   8.370   5.600  0.7904  0.2931  0.2436
34890SOL    HW2 7050   9.773   8.376   5.592  0.8379 -0.6211  0.3076
34891SOL     OW 7051   9.206   8.960   8.454 -0.2593  0.6391  0.2857
34891SOL    HW1 7052   9.220   8.963   8.360 -1.2809  0.6415  0.1166
34891SOL    HW2 7053   9.120   9.002   8.467 -1.5914 -2.0578  0.8670
34892SOL     OW 7054   2.048  10.333  10.226  0.0510  0.1595  0.3668
34892SOL    HW1 7055   2.046  10.238  10.211  1.2328  0.0761  0.6342
34892SOL    HW2 7056   2.108  10.366  10.159 -0.6524  0.7703  0.0343
34893SOL     OW 7057   9.728   8.626   5.492 -0.0936  0.4946  0.3886
34893SOL    HW1 7058   9.775   8.680   5.429  0.3000  1.1058  1.1866
34893SOL    HW2 7059   9.686   8.689   5.552 -2.7778  0.0128 -0.8478
34894SOL     OW 7060  10.325   4.380   6.879  0.1845  0.0180 -0.4839
34894SOL    HW1 7061  10.331   4.366   6.973 -0.8271 -3.7624 -0.8226
34894SOL    HW2 7062  10.242   4.424   6.866  0.6119  1.1261  0.3845
34895SOL     OW 7063   1.557   8.991   5.012 -0.1351 -0.1808  0.1117
34895SOL    HW1 7064   1.559   8.984   5.108 -0.4826  0.3490  0.1641
34895SOL    HW2 7065   1.465   8.975   4.989 -0.2821  0.8203 -0.0294
34896SOL     OW 7066   2.601   0.784   9.682  0.1381 -0.1199  0.3156
34896SOL    HW1 7067   2.601   0.694   9.714  0.4918  0.4815  2.1129
34896SOL    HW2 7068   2.694   0.803   9.665  0.1822  0.2305  0.9324
34897SOL     OW 7069   0.193   2.446   9.641  0.0509 -0.4725  0.0167
34897SOL    HW1 7070   0.138   2.525   9.641  0.2421 -0.3209 -1.1966
34897SOL    HW2 7071   0.131   2.374   9.651 -0.3801 -0.2917 -1.1604
34898SOL     OW 7072   1.217   3.028   0.741 -0.1973 -0.1353 -0.0289
34898SOL    HW1 7073   1.284   2.963   0.719 -0.7320 -0.7942  0.2520
34898SOL    HW2 7074   1.247   3.109   0.699  1.6079  0.0185  1.3965
34899SOL     OW 7075   0.800   1.419   3.913 -0.1917  0.2297 -0.5011
34899SOL    HW1 7076   0.887   1.417   3.872  0.2285 -0.0261  0.3662
34899SOL    HW2 7077   0.819   1.425   4.007 -1.1235  0.6308 -0.3363
34900SOL     OW 7078   4.542   4.262   0.316 -0.3329 -0.1350 -0.1109
34900SOL    HW1 7079   4.586   4.252   0.231  0.7669  1.5735  0.2227
34900SOL    HW2 7080   4.581   4.341   0.354 -1.7290 -0.1536  1.4334
34901SOL     OW 7081   7.507   5.512   9.561  0.5544  0.0429 -0.0610
34901SOL    HW1 7082   7.587   5.467   9.591  0.1209 -0.6357  0.1105
34901SOL    HW2 7083   7.539   5.584   9.507  1.2695 -0.8556 -0.8845
34902SOL     OW 7084   5.695   6.432  10.279  0.4840 -0.6257  0.3215
34902SOL    HW1 7085   5.657   6.470  10.200 -1.7989 -2.3612  0.4858
34902SOL    HW2 7086   5.721   6.508  10.332 -1.1941  0.6423 -0.5901
34903SOL     OW 7087  10.610   0.405   1.453 -0.4991 -0.2933 -0.2294
34903SOL    HW1 7088  10.540   0.359   1.407 -2.8632  1.5532  1.3149
34903SOL    HW2 7089  10.568   0.445   1.529  1.7421  2.7346 -0.3733
34904SOL     OW 7090   1.610   7.275   1.559 -0.1764  0.3603  0.0331
34904SOL    HW1 7091   1.533   7.221   1.541 -1.2605  1.4076  1.4071
34904SOL    HW2 7092   1.646   7.294   1.472 -1.9296  0.5327 -0.6926
34905SOL     OW 7093   5.700   0.331   6.378  0.3240  0.4792 -0.1758
34905SOL    HW1 7094   5.745   0.253   6.412 -1.2386  0.0172  0.9975
34905SOL    HW2 7095   5.770   0.391   6.353  1.6108 -1.5702 -1.8423
34906SOL     OW 7096   2.931   1.503   7.571 -0.0708  0.1107 -0.3627
34906SOL    HW1 7097   2.910   1.431   7.511 -0.2884 -0.5906  0.5509
34906SOL    HW2 7098   3.027   1.500   7.579 -0.0973 -0.2073 -0.1634
34907SOL     OW 7099   7.743   9.045  10.494 -0.2798 -0.0026 -0.4728
34907SOL    HW1 7100   7.731   8.982  10.566 -0.5480 -0.4571 -0.9112
34907SOL    HW2 7101   7.704   9.002  10.418 -4.1037  2.2196 -0.0368
34908SOL     OW 7102   7.023   9.760   4.791 -0.4440 -0.0496  0.0876
34908SOL    HW1 7103   6.976   9.792   4.714  0.3455 -0.3327 -0.5280
34908SOL    HW2 7104   7.101   9.717   4.755  0.0363 -0.0127  1.0570
34909SOL     OW 7105   4.253   2.216   7.088 -0.2359  0.2072  0.1855
34909SOL    HW1 7106   4.184   2.230   7.022  0.2833 -0.2124 -0.4654
34909SOL    HW2 7107   4.220   2.260   7.166 -1.0521  0.3821 -0.2356
34910SOL     OW 7108  10.495   2.143   9.697  0.1468  0.5892  0.1655
34910SOL    HW1 7109  10.582   2.179   9.711  0.3485 -0.3803  1.6230
34910SOL    HW2 7110  10.510   2.061   9.649  0.0118  0.5963  0.1104
34911SOL     OW 7111   3.496   3.899   0.029 -0.3504  0.6722  0.2171
34911SOL    HW1 7112   3.420   3.955   0.012 -1.1088  0.3321  2.2452
34911SOL    HW2 7113   3.508   3.850  -0.052 -2.2212  0.8246 -0.2016
34912SOL     OW 7114   8.496   3.638   1.498  0.0972  0.1667 -0.2270
34912SOL    HW1 7115   8.539   3.569   1.447  1.2916  1.0163 -0.4220
34912SOL    HW2 7116   8.483   3.600   1.585  2.1983  0.1931  0.1434
34913SOL     OW 7117   0.829   6.118   7.439  0.2705  0.0839  0.1084
34913SOL    HW1 7118   0.735   6.120   7.424 -0.3118  1.1798  3.2155
34913SOL    HW2 7119   0.858   6.038   7.395 -2.1665 -0.5567 -0.5081
34914SOL     OW 7120   7.313  10.299   9.284 -0.0198  0.0408  0.1475
34914SOL    HW1 7121   7.398  10.342   9.279 -0.0856  0.4208  1.8093
34914SOL    HW2 7122   7.286  10.288   9.192  2.0191 -0.5282 -0.4347
34915SOL     OW 7123   9.623   2.874  10.409  0.1016  0.4450  0.1052
34915SOL    HW1 7124   9.661   2.841  10.490 -0.0490 -0.8720 -0.3396
34915SOL    HW2 7125   9.529   2.858  10.418  0.0737  0.3698 -0.2765
34916SOL     OW 7126   3.346   0.197   8.576  0.5096 -0.6696  0.0372
34916SOL    HW1 7127   3.287   0.203   8.500  1.6356  1.1961 -0.7712
34916SOL    HW2 7128   3.346   0.104   8.599 -1.5977 -0.9542 -0.8230
34917SOL     OW 7129   7.147   1.184   7.554  0.8136  0.0850  0.7170
34917SOL    HW1 7130   7.144   1.175   7.649 -2.0749  1.0533  0.8024
34917SOL    HW2 7131   7.084   1.120   7.522 -0.5944  1.8866 -0.2800
34918SOL     OW 7132   9.139  10.419   6.290 -0.3135 -0.1567  0.1666
34918SOL    HW1 7133   9.064  10.374   6.329 -0.2972  0.1258  0.5242
34918SOL    HW2 7134   9.102  10.465   6.214 -0.4858 -0.0815  0.2965
34919SOL     OW 7135   1.542   9.210   5.444 -0.3146  0.5065  0.1540
34919SOL    HW1 7136   1.493   9.283   5.407 -1.4902 -0.7824 -0.9252
34919SOL    HW2 7137   1.504   9.133   5.404  1.0958 -0.7006  1.0466
34920SOL     OW 7138   4.981   2.585   8.198 -0.1195  0.1227 -0.3211
34920SOL    HW1 7139   4.912   2.646   8.170 -0.5610  0.0017  0.4780
34920SOL    HW2 7140   4.934   2.506   8.224  0.2144  0.4155  1.2535
34921SOL     OW 7141   3.433  10.633   0.736  0.0624  0.2859 -0.4951
34921SOL    HW1 7142   3.480  10.620   0.818 -1.0504 -0.1532  0.0992
34921SOL    HW2 7143   3.425  10.546   0.697  0.4567  0.4698 -1.0081
34922SOL     OW 7144   0.145   2.318   2.462  0.4462  0.1489  0.1518
34922SOL    HW1 7145   0.240   2.317   2.474  0.3127 -2.6044  1.8993
34922SOL    HW2 7146   0.117   2.228   2.480 -2.5018  0.8271 -0.4293
34923SOL     OW 7147   4.069   7.897   8.783  0.4062 -0.3049  0.6220
34923SOL    HW1 7148   4.135   7.848   8.735  1.2439  0.7314  0.6820
34923SOL    HW2 7149   4.020   7.944   8.715  0.7556  0.1567  0.6891
34924SOL     OW 7150   5.518   4.954   3.111 -0.2572 -0.0847  0.8378
34924SOL    HW1 7151   5.576   4.996   3.047  1.3024  0.8903  2.7885
34924SOL    HW2 7152   5.520   4.861   3.087  1.2562  0.0795  0.1920
34925SOL     OW 7153   2.017   3.535   3.483  0.2654  0.1717  0.1162
34925SOL    HW1 7154   1.952   3.554   3.550 -0.9041 -2.4486 -0.1325
34925SOL    HW2 7155   2.042   3.443   3.499 -0.1731 -0.6259 -3.0527
34926SOL     OW 7156   9.664   2.975   2.803 -0.2779  0.2972  0.0300
34926SOL    HW1 7157   9.589   3.005   2.752  0.2423 -0.0590 -0.9713
34926SOL    HW2 7158   9.685   2.889   2.767  0.9591  0.6310 -0.0967
34927SOL     OW 7159   2.459   8.198   2.996  0.0492  0.6880 -1.1691
34927SOL    HW1 7160   2.533   8.256   2.978 -0.3629  1.6707  0.1470
34927SOL    HW2 7161   2.478   8.162   3.083 -0.6196  0.3223 -1.1694
34928SOL     OW 7162   8.699   4.346   6.486  0.5498  0.3906  0.3272
34928SOL    HW1 7163   8.743   4.283   6.428  1.2825 -0.0145  1.2855
34928SOL    HW2 7164   8.609   4.314   6.493  0.3584  0.6448 -0.8566
34929SOL     OW 7165   4.006   7.097   7.648 -0.4965  0.8755 -0.1658
34929SOL    HW1 7166   4.090   7.122   7.687 -0.7300  0.9598  0.2968
34929SOL    HW2 7167   3.945   7.096   7.722 -0.8257  0.4613 -0.4352
34930SOL     OW 7168   3.666  10.465   8.425 -0.0420 -0.5661 -0.1540
34930SOL    HW1 7169   3.656  10.374   8.397  1.4198 -0.9051  0.3522
34930SOL    HW2 7170   3.730  10.502   8.365 -0.0318 -0.1026  0.1357
34931SOL     OW 7171   0.548   9.847   7.960  0.1462  0.1731  0.1750
34931SOL    HW1 7172   0.571   9.816   7.873  1.1252  3.5897 -0.9078
34931SOL    HW2 7173   0.463   9.889   7.950  0.4733  0.9976  0.7229
34932SOL     OW 7174   1.945   3.710   1.527 -0.1666 -0.2361  0.1435
34932SOL    HW1 7175   1.991   3.743   1.604  1.9614 -2.2206 -0.1584
34932SOL    HW2 7176   1.883   3.646   1.561 -2.1890  1.7632  0.4649
34933SOL     OW 7177   9.206   4.550   2.600 -0.2903 -0.2026  0.1024
34933SOL    HW1 7178   9.139   4.531   2.666 -0.6518  0.4541 -0.0761
34933SOL    HW2 7179   9.157   4.565   2.519 -0.0333  1.5555  0.2382
34934SOL     OW 7180   5.341   7.415   7.571  0.0855  0.5522  0.0951
34934SOL    HW1 7181   5.313   7.325   7.560 -3.5226  1.4306  0.7120
34934SOL    HW2 7182   5.371   7.420   7.662  1.7618 -0.2600 -0.3653
34935SOL     OW 7183   7.474   5.843   0.490  0.4855  0.4862 -1.1577
34935SOL    HW1 7184   7.410   5.796   0.543  1.2973  0.8774  0.2227
34935SOL    HW2 7185   7.506   5.778   0.428 -0.6250  0.0612 -1.3134
34936SOL     OW 7186   0.521   5.177   2.408 -0.1747  0.5876 -0.2117
34936SOL    HW1 7187   0.585   5.182   2.337  1.0762  0.8564  0.8892
34936SOL    HW2 7188   0.460   5.109   2.380 -0.9629  2.1204 -2.4854
34937SOL     OW 7189   1.929   4.536   0.661  0.1390 -0.0347  0.0900
34937SOL    HW1 7190   1.836   4.552   0.647 -0.2871 -0.7888  1.7405
34937SOL    HW2 7191   1.973   4.580   0.588 -1.4263  1.4058 -0.0477
34938SOL     OW 7192   9.561   6.862   9.986  0.8628 -0.0676 -0.7903
34938SOL    HW1 7193   9.488   6.848   9.925  1.6310  1.6262 -2.1838
34938SOL    HW2 7194   9.520   6.864  10.072 -0.6038 -0.1026 -1.4585
34939SOL     OW 7195   5.765   7.023   8.205  0.0552  0.3615  0.5437
34939SOL    HW1 7196   5.768   6.929   8.191 -0.7408  0.3248  0.5784
34939SOL    HW2 7197   5.740   7.033   8.297  0.5222  0.6108  0.6484
34940SOL     OW 7198   5.355   9.259   9.176  0.2624  0.2642 -0.7035
34940SOL    HW1 7199   5.266   9.291   9.158 -0.1471 -0.1671  0.4233
34940SOL    HW2 7200   5.381   9.308   9.254  0.3053 -0.8745  0.0203
34941SOL     OW 7201  10.480   0.898   4.431 -0.0356 -0.3494  0.1391
34941SOL    HW1 7202  10.507   0.976   4.383 -0.3022  0.4601  1.2560
34941SOL    HW2 7203  10.423   0.932   4.501  2.2340 -1.1843  2.5307
34942SOL     OW 7204   0.527   8.946   9.595  0.3633 -0.2483 -0.4131
34942SOL    HW1 7205   0.450   8.909   9.550 -0.7505 -1.2464  2.0784
34942SOL    HW2 7206   0.592   8.876   9.592 -0.1659 -0.8046  0.5398
34943SOL     OW 7207   2.469   1.828   7.367 -0.1887  0.2120 -0.1466
34943SOL    HW1 7208   2.457   1.899   7.430  0.0478 -0.1605  0.3271
34943SOL    HW2 7209   2.380   1.795   7.350 -0.0852 -1.6474  2.3076
34944SOL     OW 7210   0.880   6.783   7.778  0.2954  0.6049  0.0622
34944SOL    HW1 7211   0.952   6.823   7.826 -1.0864  1.6179  1.3844
34944SOL    HW2 7212   0.906   6.691   7.769  1.7806  0.9617  0.4065
34945SOL     OW 7213   3.629   3.561   9.845  0.0894 -0.4971  0.1023
34945SOL    HW1 7214   3.560   3.626   9.836 -0.2333 -0.6671  1.2451
34945SOL    HW2 7215   3.665   3.552   9.756  0.2160  1.2989 -0.0679
34946SOL     OW 7216   1.399   5.531   7.941  0.0224 -0.2813 -0.5558
34946SOL    HW1 7217   1.427   5.611   7.898  2.6062 -0.6082  0.3402
34946SOL    HW2 7218   1.423   5.543   8.033 -1.8471 -1.1041  0.0783
34947SOL     OW 7219   3.702  10.016   7.385  1.0021  0.2851  0.2659
34947SOL    HW1 7220   3.629  10.074   7.362 -0.5767 -1.4470  0.7627
34947SOL    HW2 7221   3.740   9.991   7.301 -1.3382 -1.6923 -0.3154
34948SOL     OW 7222   3.449   3.549   3.233  0.0796  0.3592 -0.3028
34948SOL    HW1 7223   3.490   3.464   3.216  0.3424  0.2401  0.8542
34948SOL    HW2 7224   3.433   3.586   3.146  1.5364 -0.1220 -0.8066
34949SOL     OW 7225   2.220  10.392  10.022 -0.8254 -0.0793 -0.6011
34949SOL    HW1 7226   2.216  10.314   9.967  0.3969 -0.5922 -0.0135
34949SOL    HW2 7227   2.281  10.450   9.977 -0.2521 -0.2704 -0.0846
34950SOL     OW 7228   8.645   5.086   6.594 -0.4581  0.2755  0.3980
34950SOL    HW1 7229   8.701   5.110   6.520 -0.2758 -1.1378  0.0543
34950SOL    HW2 7230   8.557   5.078   6.557 -0.4946  0.2968  0.4799
34951SOL     OW 7231   5.274   1.695  10.689  0.0786  0.0507 -0.5095
34951SOL    HW1 7232   5.274   1.786  10.718 -0.8575 -0.0550 -0.1502
34951SOL    HW2 7233   5.182   1.672  10.682  0.3056 -1.1624  0.2978
34952SOL     OW 7234   4.056   6.715  10.697 -0.5635 -0.2756  0.2289
34952SOL    HW1 7235   3.993   6.772  10.743 -0.5943 -0.0322 -0.1131
34952SOL    HW2 7236   4.042   6.733  10.605 -0.1391 -0.3813  0.1410
34953SOL     OW 7237   6.472   9.637   7.199  0.0672  0.4205 -0.1141
34953SOL    HW1 7238   6.509   9.549   7.204 -0.5246  0.0884 -1.2059
34953SOL    HW2 7239   6.501   9.671   7.114 -2.0287  0.1606 -1.0028
34954SOL     OW 7240   8.073  10.001   7.637  0.0189 -0.2405  0.2430
34954SOL    HW1 7241   8.149   9.944   7.625  0.6643  0.7098 -0.3779
34954SOL    HW2 7242   8.084  10.069   7.571 -1.5893 -0.2843 -0.0944
34955SOL     OW 7243   9.470  10.401   8.198  0.7626  0.2296 -0.0071
34955SOL    HW1 7244   9.497  10.488   8.228  0.9590 -0.5957  2.4256
34955SOL    HW2 7245   9.540  10.373   8.140  1.6687  0.9363  0.7159
34956SOL     OW 7246   3.726   4.604   6.268 -0.5692  0.5164 -0.0400
34956SOL    HW1 7247   3.765   4.517   6.276 -0.5001  0.4966 -0.5573
34956SOL    HW2 7248   3.754   4.650   6.347  0.6785  0.5728 -0.5001
34957SOL     OW 7249   9.650   9.756   1.528  0.0084  0.3466 -0.1911
34957SOL    HW1 7250   9.652   9.728   1.437  1.5205 -0.1505 -0.0229
34957SOL    HW2 7251   9.741   9.770   1.552 -0.3225  0.0195  1.3887
34958SOL     OW 7252   3.084   1.317   1.465  0.1537  0.1664  0.1364
34958SOL    HW1 7253   3.071   1.289   1.375  0.3682  0.9530 -0.1420
34958SOL    HW2 7254   3.146   1.254   1.501  0.5099  0.1899 -0.4289
34959SOL     OW 7255   9.378   2.074   7.266  0.2675  0.1974  0.1526
34959SOL    HW1 7256   9.388   2.169   7.274 -0.0878  0.2557 -0.0897
34959SOL    HW2 7257   9.375   2.058   7.172  1.2602 -0.1580  0.1686
34960SOL     OW 7258   8.932   9.313   6.457 -0.6235  0.5213  0.2427
34960SOL    HW1 7259   9.006   9.372   6.464 -0.0418 -0.1384 -0.1445
34960SOL    HW2 7260   8.901   9.323   6.367 -0.8894  0.6607  0.3483
34961SOL     OW 7261   3.519   0.328   2.046 -0.2157 -0.2355 -0.2783
34961SOL    HW1 7262   3.552   0.281   1.968 -0.7400 -2.6567  0.8516
34961SOL    HW2 7263   3.459   0.393   2.011  0.1319 -0.7631 -1.9651
34962SOL     OW 7264   0.067   0.841   3.975  0.0174  0.1042 -0.0192
34962SOL    HW1 7265   0.003   0.834   3.905 -0.2597  0.1232  0.2308
34962SOL    HW2 7266   0.033   0.784   4.045  1.7237 -2.2822 -0.9728
34963SOL     OW 7267   4.719   5.253   8.201 -0.8390  0.4237  0.4101
34963SOL    HW1 7268   4.798   5.248   8.147 -0.6491  1.0243  0.6254
34963SOL    HW2 7269   4.750   5.242   8.291 -1.1989 -0.9303  0.3767
34964SOL     OW 7270   1.010   8.594   0.287  0.3360 -0.7047  0.4558
34964SOL    HW1 7271   1.048   8.601   0.374 -0.9652 -1.9865  1.1824
34964SOL    HW2 7272   0.915   8.602   0.301  0.0844 -1.1517 -0.8064
34965SOL     OW 7273   4.438   3.295  10.249  0.1498  0.3284 -0.1646
34965SOL    HW1 7274   4.457   3.332  10.335 -1.1251 -1.0289  0.7619
34965SOL    HW2 7275   4.354   3.250  10.261  1.1890 -2.1116 -1.3966
34966SOL     OW 7276   1.913   8.225   7.630  0.1020  0.2126  0.2987
34966SOL    HW1 7277   1.871   8.196   7.549  0.7692  0.8461 -0.2855
34966SOL    HW2 7278   1.984   8.162   7.644 -0.6707 -0.5384  0.9954
34967SOL     OW 7279   1.701   0.836  10.464  0.0754 -0.2387 -0.9379
34967SOL    HW1 7280   1.668   0.838  10.554 -0.5422 -1.3540 -1.1172
34967SOL    HW2 7281   1.769   0.769  10.465 -1.2015 -1.6379 -1.6619
34968SOL     OW 7282   8.544   1.956  10.220 -0.3647 -0.1908  0.4363
34968SOL    HW1 7283   8.605   1.935  10.290  1.0527 -1.0374 -1.0096
34968SOL    HW2 7284   8.582   2.033  10.177 -0.6154 -0.3613 -0.1011
34969SOL     OW 7285   7.413   2.039  10.217  0.1420 -0.5237  0.1873
34969SOL    HW1 7286   7.455   2.083  10.291  1.6490 -1.2401 -0.2146
34969SOL    HW2 7287   7.396   2.110  10.154 -0.9046  0.0472  1.0819
34970SOL     OW 7288   0.874   3.284   0.503  0.4419 -0.3603 -0.0593
34970SOL    HW1 7289   0.782   3.257   0.500 -0.0258  1.1119  0.1955
34970SOL    HW2 7290   0.915   3.223   0.564 -0.3594 -1.0550 -0.2039
34971SOL     OW 7291   0.058   1.038   8.422 -0.0334 -0.1268 -0.7183
34971SOL    HW1 7292   0.139   1.077   8.455 -0.6857 -0.3334  1.2879
34971SOL    HW2 7293   0.079   0.946   8.409 -0.0250 -0.2606  0.1765
34972SOL     OW 7294   5.170   5.215   7.555  0.0921 -0.2887 -0.1958
34972SOL    HW1 7295   5.220   5.218   7.473  0.5873  2.1466  0.1415
34972SOL    HW2 7296   5.116   5.294   7.553  0.0837 -0.2111  1.8207
34973SOL     OW 7297   8.040   8.704   2.717  0.3773  0.6000 -0.1002
34973SOL    HW1 7298   7.946   8.712   2.700  0.3153  1.2818  0.5191
34973SOL    HW2 7299   8.073   8.650   2.645 -0.8132 -1.3673  0.7371
34974SOL     OW 7300   0.174   5.735   8.543  0.0750 -0.3894  0.0982
34974SOL    HW1 7301   0.215   5.649   8.529 -1.7502 -1.4425  0.9351
34974SOL    HW2 7302   0.156   5.738   8.637 -3.8613 -1.0578 -0.4736
34975SOL     OW 7303   5.917   4.459   2.132  0.6113 -0.3112 -0.3445
34975SOL    HW1 7304   5.950   4.375   2.162  1.0769 -0.8768 -2.2703
34975SOL    HW2 7305   5.822   4.448   2.128  0.6493 -0.6404 -0.3255
34976SOL     OW 7306  10.333   1.006   0.950  0.5492 -0.4296 -0.1136
34976SOL    HW1 7307  10.427   0.992   0.962  0.5113  0.1170  0.9986
34976SOL    HW2 7308  10.292   0.925   0.980  0.5805  0.1168  1.5468
34977SOL     OW 7309   6.581   9.799   8.910 -0.0405 -0.5163 -0.1938
34977SOL    HW1 7310   6.503   9.775   8.960 -0.4123  0.6213 -0.1951
34977SOL    HW2 7311   6.654   9.769   8.964 -0.4473  0.2799  0.8242
34978SOL     OW 7312   8.855   6.040   7.652 -0.3717 -0.2503 -0.0165
34978SOL    HW1 7313   8.916   6.103   7.613 -0.8346  0.3177  0.1610
34978SOL    HW2 7314   8.851   6.065   7.745  1.0701 -1.8652  0.5388
34979SOL     OW 7315   2.461   3.343   0.719 -0.2038 -0.4018  0.1770
34979SOL    HW1 7316   2.516   3.419   0.740 -1.8785  0.7809  0.4653
34979SOL    HW2 7317   2.421   3.318   0.803  0.4829 -1.7720  0.1285
34980SOL     OW 7318   6.437   0.506   1.926  0.2551  0.9905 -0.7914
34980SOL    HW1 7319   6.347   0.479   1.910  0.3400 -1.0305  1.5920
34980SOL    HW2 7320   6.490   0.428   1.907  1.2826  1.5333 -0.2694
34981SOL     OW 7321   7.826  10.158  10.632  0.1572 -0.1162 -0.5642
34981SOL    HW1 7322   7.748  10.155  10.688  0.4303 -1.7520 -0.2239
34981SOL    HW2 7323   7.899  10.151  10.693  0.6277  1.8348 -0.8481
34982SOL     OW 7324   1.105   3.891   8.602  0.0176 -0.2269 -0.7215
34982SOL    HW1 7325   1.030   3.926   8.554 -0.7823 -0.3916  0.3773
34982SOL    HW2 7326   1.154   3.969   8.629 -0.1595 -0.0812 -0.8146
34983SOL     OW 7327   4.038   9.323   6.966  0.2083 -0.3460 -0.3349
34983SOL    HW1 7328   3.982   9.246   6.968  0.0677 -0.2425 -0.2113
34983SOL    HW2 7329   4.126   9.290   6.981  0.0528 -0.3974  0.5183
34984SOL     OW 7330   6.686   4.107   7.898 -0.4571 -0.1532 -0.3525
34984SOL    HW1 7331   6.637   4.028   7.921 -2.7436  1.3237  0.0826
34984SOL    HW2 7332   6.740   4.125   7.975 -0.4696 -0.8745 -0.1692
34985SOL     OW 7333   3.195   2.585   9.950  0.2494 -0.0146  0.3029
34985SOL    HW1 7334   3.269   2.638   9.980 -0.4205  0.7656  0.6065
34985SOL    HW2 7335   3.138   2.647   9.905 -0.9590 -0.2868  1.3891
34986SOL     OW 7336   6.297  10.092   6.596 -0.0490 -0.1769  0.3234
34986SOL    HW1 7337   6.276  10.175   6.553  0.9970 -0.1349 -0.1352
34986SOL    HW2 7338   6.320  10.116   6.685  0.6063  0.0871  0.0941
34987SOL     OW 7339   6.302   0.038   1.486  0.0308 -0.3920  0.3173
34987SOL    HW1 7340   6.383   0.068   1.445  0.0394  0.6071  1.0077
34987SOL    HW2 7341   6.308   0.070   1.576 -0.7592 -1.0342  0.6086
34988SOL     OW 7342   8.169   8.662   4.801  0.3954 -0.0947  0.1589
34988SOL    HW1 7343   8.221   8.582   4.792  1.3050  0.5831 -0.9248
34988SOL    HW2 7344   8.125   8.672   4.717 -0.2170  0.2118  0.5079
34989SOL     OW 7345   3.270   7.088   1.758 -0.5709  0.2552  0.2268
34989SOL    HW1 7346   3.356   7.120   1.787 -0.2946  0.0467 -0.3375
34989SOL    HW2 7347   3.267   6.997   1.788 -0.1129 -0.0887 -0.7223
34990SOL     OW 7348   1.145   3.371   9.840 -0.2110  0.5306  0.3619
34990SOL    HW1 7349   1.071   3.421   9.874 -0.3170  2.3324 -2.1626
34990SOL    HW2 7350   1.210   3.438   9.817  0.8676 -0.7425 -0.4627
34991SOL     OW 7351   9.641   6.377   9.230  0.0450 -0.4072  0.5268
34991SOL    HW1 7352   9.673   6.296   9.268  0.9472 -0.4038 -0.2102
34991SOL    HW2 7353   9.592   6.350   9.152  0.2428 -0.2618  0.3489
34992SOL     OW 7354   2.518   6.882   0.095  0.1686 -0.1209 -0.3966
34992SOL    HW1 7355   2.561   6.821   0.154  1.4835 -0.0148 -1.1896
34992SOL    HW2 7356   2.429   6.848   0.084  0.0076 -0.3334  1.3168
34993SOL     OW 7357   5.993   5.815   6.203  0.2639  0.0814  0.7259
34993SOL    HW1 7358   5.932   5.760   6.252  0.0866 -0.4368 -0.0577
34993SOL    HW2 7359   6.025   5.758   6.132  0.0881  0.9775 -0.0893
34994SOL     OW 7360   0.018   8.556   6.775 -0.0352  0.0495  0.1969
34994SOL    HW1 7361   0.008   8.572   6.682 -0.8538 -0.1457  0.2493
34994SOL    HW2 7362  -0.064   8.515   6.802  0.0444  0.4431  1.0720
34995SOL     OW 7363   9.329   3.679   3.763  0.4266 -0.0590  0.0806
34995SOL    HW1 7364   9.246   3.696   3.807  1.2722  1.4991  1.1648
34995SOL    HW2 7365   9.375   3.618   3.820  0.2975 -0.3868 -0.1681
34996SOL     OW 7366   6.897   9.727   8.317 -0.0406 -0.0179 -0.0419
34996SOL    HW1 7367   6.930   9.742   8.405  0.7149 -0.8526 -0.1697
34996SOL    HW2 7368   6.975   9.711   8.264 -0.5984 -1.6724 -0.4324
34997SOL     OW 7369   1.436   9.636   8.484 -0.3408 -0.2485  0.5435
34997SOL    HW1 7370   1.356   9.627   8.433  0.8623 -2.7291 -1.1699
34997SOL    HW2 7371   1.489   9.560   8.458  1.6045 -0.0174  3.3452
34998SOL     OW 7372   3.203   6.014   6.858  0.0746 -0.3022 -0.0816
34998SOL    HW1 7373   3.194   6.057   6.944 -1.7476 -0.7970  0.0079
34998SOL    HW2 7374   3.234   6.084   6.800  1.0899  0.1009  0.8960
34999SOL     OW 7375   7.069   1.568   1.661  0.4943 -0.7017  0.2962
34999SOL    HW1 7376   7.075   1.661   1.640  1.1464 -1.0896 -1.4579
34999SOL    HW2 7377   7.120   1.525   1.592  0.3461 -2.3486  1.1657
35000SOL     OW 7378   9.112   7.882   5.579  0.2978 -0.0514 -0.5838
35000SOL    HW1 7379   9.053   7.848   5.512 -1.9248  0.0952  1.1882
35000SOL    HW2 7380   9.056   7.933   5.638  2.3242  0.7016  0.8244
35001SOL     OW 7381   4.192   5.234   8.795  0.0552  0.0487 -0.4670
35001SOL    HW1 7382   4.240   5.186   8.862 -0.3967  0.2401  0.0014
35001SOL    HW2 7383   4.100   5.211   8.810  0.0680 -1.3014 -2.1302
35002SOL     OW 7384   7.421   9.331   4.421 -0.1311 -0.0142 -0.3298
35002SOL    HW1 7385   7.496   9.335   4.361  0.8747 -1.5763  0.7270
35002SOL    HW2 7386   7.359   9.273   4.379 -0.6925  1.1299 -1.1214
35003SOL     OW 7387   4.154   5.703   9.831  0.1572 -0.2538 -0.3177
35003SOL    HW1 7388   4.120   5.614   9.834  0.8345 -0.5005  0.3561
35003SOL    HW2 7389   4.218   5.703   9.760 -0.9687  0.1262 -1.3713
35004SOL     OW 7390   9.785   5.392   0.656 -0.0742  1.3439 -0.0806
35004SOL    HW1 7391   9.817   5.473   0.696 -0.9821  2.6358 -1.8343
35004SOL    HW2 7392   9.732   5.422   0.582 -0.9468 -0.8573 -0.4017
35005SOL     OW 7393   3.900   0.768   9.651  0.0922 -0.2816  0.6823
35005SOL    HW1 7394   3.818   0.738   9.610  0.6343 -1.1179  0.1842
35005SOL    HW2 7395   3.871   0.822   9.725 -0.9108  0.0649  0.0666
35006SOL     OW 7396   3.331  10.784   5.534 -0.1612  0.5775  0.1712
35006SOL    HW1 7397   3.355  10.873   5.562 -1.7023  1.1026 -0.0944
35006SOL    HW2 7398   3.270  10.753   5.601  0.4411 -0.3420  0.3136
35007SOL     OW 7399   2.044   9.571  10.263 -0.3320 -0.3869 -0.6563
35007SOL    HW1 7400   1.961   9.601  10.226  0.0984 -0.2614 -1.5492
35007SOL    HW2 7401   2.019   9.516  10.337 -1.2008 -0.0697 -0.7010
35008SOL     OW 7402   5.735   6.301   1.433 -0.3162 -0.4266  0.3178
35008SOL    HW1 7403   5.657   6.298   1.488  0.4176 -2.1913  1.3451
35008SOL    HW2 7404   5.771   6.389   1.448 -0.4616 -0.6438  2.2477
35009SOL     OW 7405  10.648  10.558   9.582  0.3704  0.1050 -0.2544
35009SOL    HW1 7406  10.659  10.491   9.514 -0.3012 -0.1275 -0.1435
35009SOL    HW2 7407  10.565  10.601   9.560  1.5210  1.9675 -1.2222
35010SOL     OW 7408   9.116   7.711   3.002 -0.0572  0.6716  0.4208
35010SOL    HW1 7409   9.175   7.770   3.048  2.1275 -1.5978  0.7845
35010SOL    HW2 7410   9.104   7.638   3.063  0.6138 -1.0832 -1.4339
35011SOL     OW 7411   0.542   9.864   8.287 -0.3531 -0.1088 -0.0671
35011SOL    HW1 7412   0.617   9.845   8.230 -0.5212  0.5254 -0.5158
35011SOL    HW2 7413   0.470   9.814   8.250 -0.3766  0.0239 -0.2014
35012SOL     OW 7414   1.744   2.251   6.033  0.2930 -0.1663  0.0109
35012SOL    HW1 7415   1.725   2.340   6.004  1.9079  0.8304  1.8521
35012SOL    HW2 7416   1.770   2.205   5.953  2.7766  1.9595 -0.5082
35013SOL     OW 7417   4.867   4.484   7.553  0.0349 -0.1272 -0.5393
35013SOL    HW1 7418   4.958   4.467   7.576  0.1588  0.7102 -0.4034
35013SOL    HW2 7419   4.828   4.519   7.632 -0.3776 -0.3606 -0.6359
35014SOL     OW 7420  10.542   3.493   4.143  0.1236  0.3217 -0.0006
35014SOL    HW1 7421  10.537   3.552   4.067  2.2463  0.5682 -0.0038
35014SOL    HW2 7422  10.535   3.406   4.105  0.6506  0.4624 -0.4396
35015SOL     OW 7423   5.539   7.172  10.465 -0.2730  0.0469 -0.6358
35015SOL    HW1 7424   5.476   7.199  10.399  0.5576  1.0651 -1.0373
35015SOL    HW2 7425   5.623   7.207  10.435  0.8392 -2.6011 -0.9599
35016SOL     OW 7426  10.147   0.054   0.749  0.4856  0.6707 -0.0960
35016SOL    HW1 7427  10.130  -0.036   0.777 -2.6077  0.6141 -1.7166
35016SOL    HW2 7428  10.197   0.093   0.821  0.5048 -1.8708  1.3688
35017SOL     OW 7429   2.245   6.014   9.406  0.2844  0.7377  0.0403
35017SOL    HW1 7430   2.236   6.106   9.380  0.6596  0.4595 -1.1135
35017SOL    HW2 7431   2.182   5.967   9.352 -1.0919  0.4749  1.7842
35018SOL     OW 7432   7.228   6.157   8.756 -0.3314 -0.2160 -0.1759
35018SOL    HW1 7433   7.236   6.168   8.850 -0.5930  0.1541 -0.1893
35018SOL    HW2 7434   7.252   6.066   8.739  1.1643  0.1085  0.0658
35019SOL     OW 7435   3.567   7.190   9.953 -0.1090  0.1466 -0.0874
35019SOL    HW1 7436   3.619   7.110   9.942 -0.2622  0.2842 -2.2242
35019SOL    HW2 7437   3.632   7.258   9.971  0.3460  0.0914 -1.4622
35020SOL     OW 7438   1.527   2.901   9.477  0.0916 -0.0637 -0.2334
35020SOL    HW1 7439   1.497   2.870   9.562 -2.3949 -0.0837 -1.0563
35020SOL    HW2 7440   1.539   2.995   9.488 -1.8574  0.2095 -0.2657
35021SOL     OW 7441   8.619   1.273   2.008 -0.2785  0.0074  0.1439
35021SOL    HW1 7442   8.591   1.201   2.064 -0.1453 -1.3503 -1.4316
35021SOL    HW2 7443   8.653   1.230   1.929  0.0972  1.7985 -0.7348
35022SOL     OW 7444   4.182   2.783   3.689 -0.3326  0.5530  0.0119
35022SOL    HW1 7445   4.168   2.757   3.598 -1.0290 -0.9422  0.5243
35022SOL    HW2 7446   4.101   2.827   3.714 -0.5208  0.0960  0.2044
35023SOL     OW 7447   7.073   4.694  10.658 -0.1859 -0.1347  0.1695
35023SOL    HW1 7448   7.051   4.734  10.742 -2.0864  1.0925 -0.8401
35023SOL    HW2 7449   7.079   4.600  10.676 -0.8458  0.0797  1.6133
35024SOL     OW 7450   3.652   2.360   3.273  0.5443 -0.0848 -0.5531
35024SOL    HW1 7451   3.672   2.432   3.332 -0.2986  0.6396 -1.1349
35024SOL    HW2 7452   3.569   2.325   3.304  1.9232 -2.2424  1.0428
35025SOL     OW 7453   7.636   9.869   2.634  0.0692  0.2026 -0.4375
35025SOL    HW1 7454   7.567   9.909   2.686 -3.3775 -0.6903 -3.8629
35025SOL    HW2 7455   7.636   9.777   2.660  0.2824  0.2798 -0.1575
35026SOL     OW 7456   1.616   9.067   5.662  0.0385 -0.1173 -0.0164
35026SOL    HW1 7457   1.630   9.102   5.750  2.8384 -0.1946 -0.3702
35026SOL    HW2 7458   1.564   9.134   5.618 -0.5877  0.3521  1.3920
35027SOL     OW 7459   7.173   5.891  10.029  0.5128 -0.1769 -0.0520
35027SOL    HW1 7460   7.226   5.838  10.090 -0.3463 -1.4282 -0.3522
35027SOL    HW2 7461   7.238   5.937   9.976  1.2888 -0.1478  0.8860
35028SOL     OW 7462   0.815  10.123   2.076  0.1182  0.6241 -0.3936
35028SOL    HW1 7463   0.841  10.122   1.983 -0.8169  0.1184 -0.6643
35028SOL    HW2 7464   0.729  10.082   2.077 -0.9732  2.8148  0.3834
35029SOL     OW 7465   7.492   1.265   2.093  0.0537 -0.1434 -0.0933
35029SOL    HW1 7466   7.522   1.311   2.015 -0.2871  0.0783 -0.0971
35029SOL    HW2 7467   7.505   1.172   2.073  0.3540 -0.0690 -0.2494
35030SOL     OW 7468   6.786   4.776   7.586  0.7000 -0.0514 -0.2690
35030SOL    HW1 7469   6.861   4.780   7.528  1.3196 -3.1685  0.1323
35030SOL    HW2 7470   6.822   4.795   7.673  0.5124  0.9031 -0.3941
35031SOL     OW 7471   1.740   2.585   3.809  0.2369  0.0611 -0.7295
35031SOL    HW1 7472   1.645   2.584   3.795  0.3441 -0.6799 -1.4707
35031SOL    HW2 7473   1.757   2.670   3.849 -0.9137 -0.3618  0.7412
35032SOL     OW 7474   8.801   3.511   8.928  0.0731 -0.3600 -0.2699
35032SOL    HW1 7475   8.707   3.524   8.941  0.4561  0.5400  2.3758
35032SOL    HW2 7476   8.813   3.515   8.834 -3.0106 -4.3571 -1.1643
35033SOL     OW 7477   1.294   9.335   1.417 -0.2069 -0.0528 -0.3858
35033SOL    HW1 7478   1.269   9.243   1.430 -0.1387  0.0965  0.9293
35033SOL    HW2 7479   1.313   9.341   1.324 -0.8943 -1.2094 -0.6309
35034SOL     OW 7480  10.243   3.110   7.136 -0.0644 -0.4816 -0.7350
35034SOL    HW1 7481  10.189   3.135   7.061 -1.8008  0.4886  0.7471
35034SOL    HW2 7482  10.181   3.074   7.199  1.1700 -0.2269  0.6768
35035SOL     OW 7483   1.287   8.442   3.538 -0.8432 -0.1256  0.2571
35035SOL    HW1 7484   1.312   8.447   3.630 -1.1257  0.0015  0.3277
35035SOL    HW2 7485   1.333   8.364   3.505 -0.2595  0.1784  0.3488
35036SOL     OW 7486   5.362   5.482   2.348 -0.0319  0.8560  0.5728
35036SOL    HW1 7487   5.429   5.471   2.281 -0.0501 -0.4688  0.7369
35036SOL    HW2 7488   5.383   5.565   2.390  2.1522  0.0163  1.2963
35037SOL     OW 7489   5.341   6.499   6.541 -0.5240 -0.1152 -0.2488
35037SOL    HW1 7490   5.304   6.448   6.613  0.2762 -2.1841 -1.2298
35037SOL    HW2 7491   5.321   6.448   6.462 -0.4961  1.5724 -1.3995
35038SOL     OW 7492   8.595   7.797   2.956  0.0972  0.2306  0.0995
35038SOL    HW1 7493   8.561   7.774   3.043 -0.8302 -0.8796 -0.5311
35038SOL    HW2 7494   8.682   7.759   2.954  0.2569  0.5512  0.6574
35039SOL     OW 7495  10.558   5.861   1.829  0.3927 -0.1089  0.0467
35039SOL    HW1 7496  10.534   5.906   1.910  0.3901 -0.4594  0.2425
35039SOL    HW2 7497  10.487   5.881   1.768  1.1995  1.5247 -0.3988
35040SOL     OW 7498   1.890   3.659   5.856 -0.4688  0.0667 -0.2155
35040SOL    HW1 7499   1.961   3.600   5.827 -1.1648 -0.8800 -0.0426
35040SOL    HW2 7500   1.816   3.601   5.870 -1.7218  1.2122 -1.7727
35041SOL     OW 7501   5.892   3.050   3.305 -0.2872 -0.1263  0.2872
35041SOL    HW1 7502   5.958   3.008   3.250 -2.1029  0.3422 -2.4818
35041SOL    HW2 7503   5.809   3.016   3.271 -1.5425  0.0498  2.9669
35042SOL     OW 7504   8.859   4.219  10.266  0.0605 -0.2522  0.9064
35042SOL    HW1 7505   8.911   4.148  10.304  1.1820  0.1931  0.2677
35042SOL    HW2 7506   8.915   4.296  10.275  0.2281 -0.0531 -1.2956
35043SOL     OW 7507   2.272   1.437   7.609  0.4854 -0.2331  0.0946
35043SOL    HW1 7508   2.321   1.505   7.561  0.3683 -0.6899 -0.6891
35043SOL    HW2 7509   2.328   1.360   7.604  0.7558 -0.1226  1.2484
35044SOL     OW 7510   6.052   2.337   4.863 -0.4053  0.0696 -0.0216
35044SOL    HW1 7511   5.974   2.386   4.839  0.9311  1.8039 -1.0747
35044SOL    HW2 7512   6.020   2.248   4.879 -2.3624  0.2761 -2.1336
35045SOL     OW 7513   0.803   8.782   1.181  0.0290  0.5453 -0.1494
35045SOL    HW1 7514   0.785   8.792   1.275  1.9904  1.1691  0.1982
35045SOL    HW2 7515   0.819   8.688   1.170 -0.0481  0.4939  0.1698
35046SOL     OW 7516   5.456   9.614   6.600 -0.4842 -0.1811 -0.0481
35046SOL    HW1 7517   5.378   9.621   6.545 -0.7041 -1.0783  0.1361
35046SOL    HW2 7518   5.423   9.602   6.689 -0.2110 -2.7658 -0.2264
35047SOL     OW 7519   7.937   0.635   3.013  0.0276 -0.2400  0.1164
35047SOL    HW1 7520   7.854   0.638   3.059 -0.4038 -1.5172 -0.5134
35047SOL    HW2 7521   7.969   0.725   3.013 -1.4212  0.2913  0.2572
35048SOL     OW 7522   6.263   7.366   0.463 -1.0030 -0.2214  0.0054
35048SOL    HW1 7523   6.208   7.420   0.520 -0.8102 -1.3175  1.2686
35048SOL    HW2 7524   6.278   7.421   0.386  0.6195  2.2671  1.9297
35049SOL     OW 7525   9.121  10.248  10.437  0.4192 -0.0121 -0.0473
35049SOL    HW1 7526   9.061  10.228  10.509 -0.6742  0.3120 -0.8449
35049SOL    HW2 7527   9.123  10.167  10.385  0.2657  0.1450 -0.3005
35050SOL     OW 7528   1.819   7.711   8.447 -1.0044 -0.2033  0.1883
35050SOL    HW1 7529   1.836   7.799   8.481  1.9242 -0.0287 -1.3438
35050SOL    HW2 7530   1.772   7.726   8.365 -1.9217 -0.2024  0.7007
35051SOL     OW 7531   2.576   2.565   7.794  0.0070 -0.0292  0.2759
35051SOL    HW1 7532   2.542   2.512   7.722 -1.6108  1.9404 -0.5151
35051SOL    HW2 7533   2.650   2.515   7.827  1.2018 -0.7871 -3.0942
35052SOL     OW 7534   4.272   0.559   2.736 -1.0061 -0.0854 -0.0302
35052SOL    HW1 7535   4.305   0.648   2.744 -1.5748  0.0479  0.9611
35052SOL    HW2 7536   4.177   0.567   2.749 -1.1353 -0.7691 -0.4475
35053SOL     OW 7537  10.613   4.762  10.342 -0.5301  0.6121  0.0134
35053SOL    HW1 7538  10.601   4.690  10.281  0.7929  0.6278 -0.2843
35053SOL    HW2 7539  10.651   4.832  10.289 -1.3042  1.3542  0.4142
35054SOL     OW 7540   5.902   5.385   2.205  0.1710  0.2714  0.1770
35054SOL    HW1 7541   5.840   5.354   2.271 -0.4458  0.0098 -0.5025
35054SOL    HW2 7542   5.982   5.336   2.221 -0.8132 -1.8587 -0.9455
35055SOL     OW 7543   8.735   9.606   0.971  0.1190  0.5296  0.2595
35055SOL    HW1 7544   8.671   9.599   0.901  0.9021 -1.9653 -0.3071
35055SOL    HW2 7545   8.819   9.615   0.926  0.6098 -0.9018  0.8295
35056SOL     OW 7546   2.323   2.448   5.474 -0.9463  0.3499  0.1822
35056SOL    HW1 7547   2.364   2.469   5.559 -0.4637  1.1267 -0.2268
35056SOL    HW2 7548   2.240   2.495   5.476 -1.2653 -0.2227  0.5146
35057SOL     OW 7549   2.132   2.074   2.253  0.0846 -0.4681  0.2053
35057SOL    HW1 7550   2.202   2.053   2.191  0.0951 -1.4323  0.5241
35057SOL    HW2 7551   2.177   2.109   2.330  0.1434 -0.1861  0.0438
35058SOL     OW 7552   1.442   3.106   4.882  0.4192  0.5157  0.4033
35058SOL    HW1 7553   1.402   3.025   4.852  0.1059  1.0423 -0.6443
35058SOL    HW2 7554   1.378   3.144   4.942 -0.1989  0.8145 -0.4227
35059SOL     OW 7555   8.432   5.299   5.568  0.1251  0.4772  0.3020
35059SOL    HW1 7556   8.486   5.230   5.607 -0.5654 -1.8905 -2.6192
35059SOL    HW2 7557   8.478   5.325   5.489 -2.2967 -0.8080 -1.6781
35060SOL     OW 7558   9.048   2.235   1.205 -0.0621  0.1993 -0.4468
35060SOL    HW1 7559   8.989   2.187   1.263 -1.3575  1.0573 -1.0242
35060SOL    HW2 7560   9.043   2.325   1.236  0.7682  0.3347 -0.6725
35061SOL     OW 7561   4.479   4.272   7.477 -0.5418  0.1744 -0.0987
35061SOL    HW1 7562   4.468   4.340   7.545 -2.3648  0.3023 -0.4678
35061SOL    HW2 7563   4.573   4.260   7.471 -0.1846  2.2247  0.4432
35062SOL     OW 7564   7.845   9.314   6.966 -0.1541  0.1940 -0.1938
35062SOL    HW1 7565   7.898   9.350   7.037  0.6207  1.6805 -1.4656
35062SOL    HW2 7566   7.867   9.368   6.890 -1.5873 -0.8081 -1.3745
35063SOL     OW 7567   4.254   9.906   4.004 -0.0110 -0.0063  0.0638
35063SOL    HW1 7568   4.270   9.835   3.943 -2.0147  1.2213 -2.0662
35063SOL    HW2 7569   4.285   9.985   3.959 -0.5757  0.8226  1.0578
35064SOL     OW 7570   7.500   1.630   1.762 -0.1926 -0.5067 -0.2882
35064SOL    HW1 7571   7.430   1.565   1.756 -0.0424 -0.7197  0.2085
35064SOL    HW2 7572   7.572   1.592   1.713 -0.5790 -0.0607 -1.2430
35065SOL     OW 7573   0.031   0.047   2.109  0.5174 -0.0842 -0.0582
35065SOL    HW1 7574  -0.032   0.077   2.175  0.7628 -0.9632  0.5930
35065SOL    HW2 7575  -0.016   0.056   2.026  0.8672  2.9194 -0.0512
35066SOL     OW 7576   0.653   2.303   9.008 -0.1290  0.7566  0.6584
35066SOL    HW1 7577   0.582   2.298   8.944 -0.0516 -0.9607  0.6665
35066SOL    HW2 7578   0.710   2.229   8.987  1.2282  1.6071  1.1825
35067SOL     OW 7579   0.901   2.766   7.328 -0.9016  0.7878 -0.7629
35067SOL    HW1 7580   0.991   2.738   7.311 -1.3221 -0.1406 -1.5576
35067SOL    HW2 7581   0.910   2.855   7.361  0.5095 -0.2657  2.0395
35068SOL     OW 7582   3.455   9.995   1.992 -0.2811  0.2942 -0.3156
35068SOL    HW1 7583   3.492  10.010   1.905  0.9441  1.3427  0.3637
35068SOL    HW2 7584   3.472   9.902   2.008 -0.9329 -0.0278 -1.3657
35069SOL     OW 7585   3.780   0.273   3.813 -0.2232 -0.0235 -0.1474
35069SOL    HW1 7586   3.865   0.289   3.854 -0.8940  1.6310  0.7082
35069SOL    HW2 7587   3.720   0.259   3.887 -1.1539  1.4110 -0.5905
35070SOL     OW 7588   1.564   6.930   3.515 -0.6053  0.1120  0.1585
35070SOL    HW1 7589   1.542   6.994   3.447 -0.7442 -1.7176 -1.6093
35070SOL    HW2 7590   1.480   6.897   3.545 -0.5527 -2.1233 -1.8880
35071SOL     OW 7591  10.460   4.648   5.622 -0.4583 -0.4781 -0.0364
35071SOL    HW1 7592  10.383   4.648   5.565  0.8554 -0.2058 -1.9150
35071SOL    HW2 7593  10.463   4.560   5.659 -0.5554 -1.1705 -1.5834
35072SOL     OW 7594   7.858   2.374   8.774 -0.7481 -0.0379  0.1221
35072SOL    HW1 7595   7.921   2.302   8.778 -0.3735  0.3375  1.7141
35072SOL    HW2 7596   7.891   2.431   8.704  0.2566 -0.2408  0.4196
35073SOL     OW 7597   9.702   7.479   2.502 -0.0864 -0.7646 -0.0068
35073SOL    HW1 7598   9.749   7.552   2.542  0.9935 -0.7704 -1.2344
35073SOL    HW2 7599   9.613   7.512   2.489  0.5462  0.5691 -1.1332
35074SOL     OW 7600   6.204   8.158   0.788 -0.4090  0.5863 -0.1568
35074SOL    HW1 7601   6.290   8.118   0.796 -0.6361 -0.0216 -0.7023
35074SOL    HW2 7602   6.212   8.218   0.714 -1.1297 -1.3634 -1.9270
35075SOL     OW 7603   6.066   9.317   4.901  0.2728 -0.3810  0.2987
35075SOL    HW1 7604   6.018   9.259   4.842 -1.2366 -0.0638  1.1530
35075SOL    HW2 7605   6.074   9.399   4.853 -1.2936 -0.0005  0.6491
35076SOL     OW 7606   1.462   1.775   4.965 -0.0013  0.9620  0.1906
35076SOL    HW1 7607   1.556   1.769   4.952  0.2140 -0.1171  1.8992
35076SOL    HW2 7608   1.430   1.686   4.950 -0.4784  0.9242  1.3131
35077SOL     OW 7609   4.575   5.530   5.201  0.3866 -0.0680  0.2127
35077SOL    HW1 7610   4.480   5.529   5.209  0.2596 -1.3663 -1.1022
35077SOL    HW2 7611   4.592   5.573   5.117  0.9936  0.4087  0.5649
35078SOL     OW 7612   9.654   6.624   1.227  0.3952  0.6003  0.5621
35078SOL    HW1 7613   9.625   6.626   1.136  0.9276  0.9373  0.3948
35078SOL    HW2 7614   9.745   6.594   1.222 -0.1889 -1.4289  1.1451
35079SOL     OW 7615   1.762   8.117   3.362 -0.1129  0.0518  0.1254
35079SOL    HW1 7616   1.849   8.154   3.347 -0.0238 -1.0791 -2.6523
35079SOL    HW2 7617   1.708   8.155   3.293 -1.1833 -1.2724  0.2173
35080SOL     OW 7618   9.792   7.621  10.630 -0.2152 -0.0173 -0.4212
35080SOL    HW1 7619   9.816   7.675  10.555 -0.6457  1.4595  0.4707
35080SOL    HW2 7620   9.767   7.683  10.698  0.1307 -1.3123  0.9498
35081SOL     OW 7621   5.415  10.289  10.459 -0.3745  0.6970 -0.2579
35081SOL    HW1 7622   5.400  10.313  10.550  0.1581  2.0091 -0.4987
35081SOL    HW2 7623   5.444  10.370  10.417  1.3289 -0.3256 -1.1690
35082SOL     OW 7624   2.837   9.862   6.669  0.2535 -1.3927 -0.1801
35082SOL    HW1 7625   2.896   9.934   6.649 -0.3083 -1.0824 -0.7368
35082SOL    HW2 7626   2.835   9.858   6.765 -0.9040  0.3271 -0.0968
35083SOL     OW 7627  10.174  10.290   9.517 -0.4705 -0.2194 -0.8584
35083SOL    HW1 7628  10.080  10.307   9.526 -0.1949  0.4932  1.0935
35083SOL    HW2 7629  10.180  10.195   9.503 -1.4850 -0.2561 -1.1086
35084SOL     OW 7630   3.762   8.874   0.932  0.4102 -0.0268 -0.4908
35084SOL    HW1 7631   3.848   8.870   0.973  0.6306  0.8553 -0.8300
35084SOL    HW2 7632   3.712   8.804   0.973  1.3768 -0.7429 -0.5016
35085SOL     OW 7633   9.782   0.115  10.747 -0.6784  0.0009 -0.4538
35085SOL    HW1 7634   9.747   0.061  10.676 -1.9770  0.2712 -0.0405
35085SOL    HW2 7635   9.716   0.183  10.760 -1.0150 -0.6926  1.7758
35086SOL     OW 7636   0.218   8.384   5.889  0.2617  0.4585 -0.2536
35086SOL    HW1 7637   0.308   8.363   5.914 -0.7275 -0.2299  3.2969
35086SOL    HW2 7638   0.196   8.462   5.941 -1.8940 -0.8296  0.9270
35087SOL     OW 7639   8.430   1.662   5.954  0.2358 -0.2655 -0.3408
35087SOL    HW1 7640   8.509   1.616   5.925 -0.7778 -0.7846 -2.4748
35087SOL    HW2 7641   8.389   1.692   5.873 -1.2926  0.7984  0.7797
35088SOL     OW 7642   2.761   1.746   9.352 -0.1149  0.5408  0.1068
35088SOL    HW1 7643   2.842   1.730   9.304 -0.9314 -0.2770 -1.0688
35088SOL    HW2 7644   2.692   1.728   9.288 -1.2281  1.0205  1.1371
35089SOL     OW 7645  10.070   1.382   4.821  0.2755  0.5663 -0.0572
35089SOL    HW1 7646  10.104   1.377   4.731 -0.0005 -1.8896 -0.1017
35089SOL    HW2 7647   9.980   1.411   4.812  0.4666  1.0301 -0.5043
35090SOL     OW 7648   3.663   0.634   7.945 -0.3301 -0.3875 -0.2146
35090SOL    HW1 7649   3.688   0.543   7.930  0.1368 -0.2080 -0.5315
35090SOL    HW2 7650   3.620   0.661   7.864  0.8273  0.1098 -0.6845
35091SOL     OW 7651   1.701   0.808   1.808  0.1934  0.1833 -0.2086
35091SOL    HW1 7652   1.644   0.830   1.735 -1.6197 -0.1778  1.0472
35091SOL    HW2 7653   1.751   0.732   1.777 -1.5966 -0.8875 -0.5881
35092SOL     OW 7654  10.724   4.384   3.092  0.0242  0.0335  0.4638
35092SOL    HW1 7655  10.748   4.297   3.124  2.9425 -0.8221 -3.3403
35092SOL    HW2 7656  10.761   4.444   3.156 -0.2843 -1.4717  2.1281
35093SOL     OW 7657  10.284   2.314   0.385  1.1246  0.6352 -0.1291
35093SOL    HW1 7658  10.341   2.328   0.461  1.4662 -1.8223  0.1475
35093SOL    HW2 7659  10.205   2.364   0.405  1.5491  0.7416  1.4446
35094SOL     OW 7660   9.163   1.800   6.893 -0.6312  0.1341 -0.0612
35094SOL    HW1 7661   9.256   1.777   6.890 -1.2181 -3.0718  1.9665
35094SOL    HW2 7662   9.133   1.787   6.803  1.0408  2.4100 -1.0264
35095SOL     OW 7663   0.736  10.482   5.877  0.4286  0.3328  0.2347
35095SOL    HW1 7664   0.792  10.536   5.821  0.6749  1.5766  1.6159
35095SOL    HW2 7665   0.772  10.493   5.965  0.0613 -1.5939  0.6565
35096SOL     OW 7666   4.898   2.542   0.817  0.5274  0.0425  0.6368
35096SOL    HW1 7667   4.901   2.501   0.904 -1.9063 -0.9834  0.3047
35096SOL    HW2 7668   4.889   2.635   0.835 -0.6374 -0.2131  1.5355
35097SOL     OW 7669   7.732   1.611   3.974 -0.1935 -0.0802 -0.3099
35097SOL    HW1 7670   7.721   1.521   4.007 -0.8910  0.0931 -0.0636
35097SOL    HW2 7671   7.648   1.653   3.989 -0.1959  0.3269 -1.3479
35098SOL     OW 7672   6.597   7.638   9.887  0.1862  0.3950  0.2920
35098SOL    HW1 7673   6.517   7.665   9.931  0.2771  1.4951 -0.1946
35098SOL    HW2 7674   6.642   7.720   9.866  1.2347 -0.1925  0.1793
35099SOL     OW 7675  10.559   2.411   7.827  0.0378  0.1719 -0.5389
35099SOL    HW1 7676  10.604   2.434   7.908 -1.3941  1.1725 -0.0002
35099SOL    HW2 7677  10.474   2.453   7.833 -1.4406 -2.4894 -1.0477
35100SOL     OW 7678   0.340  10.590   6.959 -0.1596 -0.2333 -0.4828
35100SOL    HW1 7679   0.411  10.652   6.945 -0.9148  0.8563  0.3011
35100SOL    HW2 7680   0.291  10.590   6.877 -1.7381  2.3688  0.3474
35101SOL     OW 7681   9.999   0.577  10.055 -0.6738  0.0105  0.0709
35101SOL    HW1 7682  10.080   0.571  10.106 -0.4355 -3.9835 -0.4694
35101SOL    HW2 7683   9.929   0.574  10.121 -0.3621 -0.4355  0.3863
35102SOL     OW 7684   1.633   7.750   7.398 -0.2925 -0.2872 -0.0373
35102SOL    HW1 7685   1.664   7.718   7.313  0.1610  1.0156 -0.3875
35102SOL    HW2 7686   1.551   7.703   7.413  0.4036 -1.6699 -0.4628
35103SOL     OW 7687   8.870   4.416   7.048 -0.5319  0.3305  0.0794
35103SOL    HW1 7688   8.871   4.338   6.993 -2.1751  0.5842 -0.3847
35103SOL    HW2 7689   8.934   4.399   7.117  1.6085 -0.0127 -1.8739
35104SOL     OW 7690   6.957   7.765   4.026  0.4885 -0.9593 -0.0823
35104SOL    HW1 7691   6.896   7.718   4.082 -0.0810  0.5629  0.6372
35104SOL    HW2 7692   6.964   7.852   4.066  1.3994 -0.3867 -1.4109
35105SOL     OW 7693   5.513  10.048   2.280  0.6425  0.2412 -0.5055
35105SOL    HW1 7694   5.536  10.136   2.309 -0.0019  0.1713  0.2683
35105SOL    HW2 7695   5.518   9.995   2.360  0.3876 -0.2898 -0.8356
35106SOL     OW 7696   9.296   8.821   6.182  0.0093 -0.0832 -0.3340
35106SOL    HW1 7697   9.334   8.900   6.143 -0.6789  0.0476 -0.7556
35106SOL    HW2 7698   9.331   8.749   6.130 -0.7155  0.0749 -1.0564
35107SOL     OW 7699   7.145   1.871   4.050 -0.2807 -0.3439  0.0144
35107SOL    HW1 7700   7.201   1.849   3.976 -0.1697  0.8166 -0.2665
35107SOL    HW2 7701   7.166   1.805   4.116 -0.2338 -1.2715 -0.9022
35108SOL     OW 7702  10.051   3.326  10.434 -0.2046 -0.4411 -0.1057
35108SOL    HW1 7703   9.956   3.334  10.444 -0.5341 -0.4921 -2.5046
35108SOL    HW2 7704  10.067   3.232  10.425 -0.0186 -0.3943 -0.2816
35109SOL     OW 7705   6.050   8.714   8.086  0.4790 -0.0759 -0.2934
35109SOL    HW1 7706   5.958   8.712   8.058  0.4755 -1.5472 -0.2306
35109SOL    HW2 7707   6.066   8.627   8.123  1.8345  0.2457 -0.0743
35110SOL     OW 7708  10.767  10.038   3.985  0.2917  0.4368  0.0158
35110SOL    HW1 7709  10.715  10.108   4.025  2.4222  2.3659 -0.3912
35110SOL    HW2 7710  10.724   9.957   4.013 -1.9260  1.8565  1.0009
35111SOL     OW 7711   6.078   5.821   3.470  0.5105 -0.2820  0.0991
35111SOL    HW1 7712   6.010   5.807   3.536  0.5196 -1.6978 -0.1510
35111SOL    HW2 7713   6.159   5.790   3.512  0.9118  0.8468  0.1884
35112SOL     OW 7714   2.929   1.852   7.683 -0.1413 -0.0272 -0.1092
35112SOL    HW1 7715   2.941   1.783   7.749  0.3445  1.4234  1.4142
35112SOL    HW2 7716   2.929   1.806   7.599 -1.0658 -1.9976  0.9062
35113SOL     OW 7717   0.350   5.384   2.432 -0.0010  0.1778  0.9127
35113SOL    HW1 7718   0.422   5.325   2.409 -0.1023 -0.1795  1.4949
35113SOL    HW2 7719   0.340   5.440   2.355  0.4967 -0.1675  0.5876
35114SOL     OW 7720   9.813   0.898   5.481  0.6721 -0.2043  0.1047
35114SOL    HW1 7721   9.819   0.976   5.426 -2.4952 -0.5314 -0.9129
35114SOL    HW2 7722   9.741   0.916   5.541 -0.3269 -2.4018 -0.3475
35115SOL     OW 7723   5.092   6.654   5.606 -0.1561 -0.3779 -0.0425
35115SOL    HW1 7724   5.105   6.665   5.512 -0.7580 -0.0055 -0.0884
35115SOL    HW2 7725   5.059   6.565   5.616  1.3444 -0.9688 -0.0226
35116SOL     OW 7726   9.381   2.653   8.054 -0.0407 -0.2296  0.4324
35116SOL    HW1 7727   9.466   2.614   8.032 -0.2196 -0.4557  0.1435
35116SOL    HW2 7728   9.404   2.740   8.089  0.4552 -1.0784  2.3667
35117SOL     OW 7729   1.598   9.463   8.349 -0.0615  0.0248  0.2178
35117SOL    HW1 7730   1.613   9.368   8.347 -0.9987 -0.1284 -0.3605
35117SOL    HW2 7731   1.666   9.499   8.293 -0.7626 -0.4883 -1.0111
35118SOL     OW 7732  10.058   5.738   6.109 -0.2859 -0.2320 -0.9165
35118SOL    HW1 7733  10.040   5.655   6.153 -1.5727  0.5642  0.1515
35118SOL    HW2 7734  10.056   5.803   6.179 -2.3663  1.0914 -2.0885
35119SOL     OW 7735   6.692   2.815   8.688 -0.9333 -0.2758  0.0719
35119SOL    HW1 7736   6.614   2.860   8.656 -1.6753 -1.5679 -0.0337
35119SOL    HW2 7737   6.715   2.860   8.769 -1.8963  0.0171  0.1917
35120SOL     OW 7738   0.220   8.215   0.481 -0.8658 -0.0897 -0.2613
35120SOL    HW1 7739   0.236   8.199   0.388 -0.2860 -2.8531  0.2183
35120SOL    HW2 7740   0.163   8.143   0.508 -1.8070  1.1817  1.3502
35121SOL     OW 7741   9.511   1.782   3.542  0.1371 -0.5009  0.2573
35121SOL    HW1 7742   9.521   1.715   3.609 -1.5131 -1.5814 -0.5245
35121SOL    HW2 7743   9.539   1.863   3.585 -0.1262 -1.2930  1.9988
35122SOL     OW 7744  10.118   7.787   7.076 -0.3965 -0.1010 -0.1005
35122SOL    HW1 7745  10.202   7.831   7.092 -0.0466  0.3282 -2.6518
35122SOL    HW2 7746  10.069   7.849   7.022 -2.3040 -0.4594  1.1178
35123SOL     OW 7747   1.561   8.804   1.893 -0.1674 -0.5734 -0.0254
35123SOL    HW1 7748   1.540   8.898   1.897  1.2087 -0.2138 -0.6967
35123SOL    HW2 7749   1.639   8.799   1.838  0.4932 -2.0096  0.9701
35124SOL     OW 7750   1.630   6.465   8.006  0.2442  0.2922  0.2806
35124SOL    HW1 7751   1.713   6.435   8.043 -1.1225 -3.9808  0.4106
35124SOL    HW2 7752   1.564   6.441   8.072 -1.8101 -3.8516 -2.7715
35125SOL     OW 7753  10.363   3.007   3.023  0.5857  0.2818 -0.3115
35125SOL    HW1 7754  10.270   3.017   3.007  0.5820 -0.1029 -0.5447
35125SOL    HW2 7755  10.369   2.993   3.118  0.0705 -2.8983 -0.6137
35126SOL     OW 7756   1.080   7.664   2.538  0.1228  0.0182  0.0725
35126SOL    HW1 7757   1.085   7.672   2.443 -2.0057 -0.2337 -0.1271
35126SOL    HW2 7758   1.150   7.720   2.571  0.9615  0.0368 -1.6415
35127SOL     OW 7759   2.282   1.881   1.042 -0.4719  0.2512 -0.6898
35127SOL    HW1 7760   2.314   1.932   0.968 -1.0398  0.9533 -0.4632
35127SOL    HW2 7761   2.195   1.853   1.015 -0.7168  0.5867 -0.2579
35128SOL     OW 7762   3.387   9.317   6.570  0.1485 -0.3958 -0.2932
35128SOL    HW1 7763   3.331   9.249   6.533 -2.3539  1.3041  0.0928
35128SOL    HW2 7764   3.404   9.377   6.497  0.2751 -0.1730 -0.0831
35129SOL     OW 7765   9.802   1.073   0.520 -0.1887 -0.3479 -0.0750
35129SOL    HW1 7766   9.731   1.084   0.456  0.4361 -0.8414 -0.8835
35129SOL    HW2 7767   9.832   1.162   0.538 -0.6096 -0.1789 -0.1964
35130SOL     OW 7768   4.718   0.681   8.954  0.0518  0.0711 -0.5004
35130SOL    HW1 7769   4.753   0.686   9.043  1.9868 -0.4710 -1.1640
35130SOL    HW2 7770   4.751   0.598   8.920  0.0516  0.6408 -1.9727
35131SOL     OW 7771   2.876   9.724   6.340 -0.0173  0.4682  0.3718
35131SOL    HW1 7772   2.932   9.658   6.298 -0.7349  0.1723 -0.1333
35131SOL    HW2 7773   2.904   9.807   6.300 -0.0756  0.2994 -0.0217
35132SOL     OW 7774   4.494   0.067   7.898  0.3950 -0.2821 -0.2400
35132SOL    HW1 7775   4.487  -0.009   7.955 -2.0864 -1.1950 -1.6106
35132SOL    HW2 7776   4.570   0.048   7.842 -1.0553 -2.6235 -1.6052
35133SOL     OW 7777   7.335   6.934   8.196  0.9019  0.2576  0.8078
35133SOL    HW1 7778   7.385   6.938   8.115  0.9169  0.4761  0.8272
35133SOL    HW2 7779   7.381   6.993   8.256 -0.3340  1.8007  0.3051
35134SOL     OW 7780   2.643   4.012  10.053  0.1723 -0.0298  0.5191
35134SOL    HW1 7781   2.617   4.104  10.054  0.1086 -0.0281 -0.1978
35134SOL    HW2 7782   2.729   4.012  10.011  0.2683 -0.2748  0.7134
35135SOL     OW 7783   0.748   3.831   3.918  0.0100  0.4491 -0.3013
35135SOL    HW1 7784   0.696   3.908   3.894  0.0079  0.5120 -0.0989
35135SOL    HW2 7785   0.720   3.810   4.007 -1.9617 -1.4316 -1.2818
35136SOL     OW 7786   0.140   3.545   2.893  0.2236  0.5454 -0.0985
35136SOL    HW1 7787   0.198   3.558   2.817  0.0922 -0.4183 -0.3885
35136SOL    HW2 7788   0.189   3.578   2.967  0.8576  0.3996 -0.4452
35137SOL     OW 7789   1.837   0.771   8.512 -0.1428 -0.4970  0.3488
35137SOL    HW1 7790   1.917   0.823   8.513 -1.2512  1.3266 -1.1078
35137SOL    HW2 7791   1.801   0.782   8.600 -0.8581  2.0826 -0.2061
35138SOL     OW 7792  10.075  10.434   9.073  0.0923  0.0020  0.0020
35138SOL    HW1 7793  10.092  10.507   9.014  0.3925 -0.2764 -0.2611
35138SOL    HW2 7794  10.115  10.462   9.156 -0.2445  0.3514  0.0472
35139SOL     OW 7795   4.249   9.576   4.873 -0.0417  0.0206 -0.0521
35139SOL    HW1 7796   4.270   9.612   4.787  0.5015 -0.3475 -0.0751
35139SOL    HW2 7797   4.183   9.509   4.856  0.4081 -0.3811 -0.2425
35140SOL     OW 7798   6.738  10.249   5.821 -0.1755  0.3643  0.2262
35140SOL    HW1 7799   6.797  10.231   5.747  0.6980 -1.2839  1.2691
35140SOL    HW2 7800   6.650  10.238   5.785  0.2037  0.4953 -0.7806
35141SOL     OW 7801   1.927   1.640   1.642  0.5241  0.1411  0.1930
35141SOL    HW1 7802   1.945   1.730   1.671  0.6935 -0.1354  0.9670
35141SOL    HW2 7803   2.002   1.616   1.589 -0.1563  0.9427 -1.2032
35142SOL     OW 7804   9.450  10.624   6.501 -0.1275 -0.2139 -0.5786
35142SOL    HW1 7805   9.457  10.557   6.433 -1.2590 -0.8539 -0.0938
35142SOL    HW2 7806   9.503  10.590   6.573 -1.2875 -0.9735 -0.0568
35143SOL     OW 7807   6.360   8.189   1.144  1.0132 -0.2322 -0.4219
35143SOL    HW1 7808   6.418   8.232   1.081  0.2791  2.0359  0.3590
35143SOL    HW2 7809   6.414   8.177   1.222  0.6938  1.1430  0.0318
35144SOL     OW 7810   0.628   2.923   6.426  0.1259 -0.2645 -0.5165
35144SOL    HW1 7811   0.546   2.873   6.431 -2.7128  3.8604  0.2827
35144SOL    HW2 7812   0.636   2.964   6.512  3.2007 -0.5323 -0.5635
35145SOL     OW 7813   6.412   2.212   3.304  0.1203 -0.2447 -0.1348
35145SOL    HW1 7814   6.474   2.239   3.371 -0.1857  0.4236 -0.1086
35145SOL    HW2 7815   6.329   2.253   3.329  0.2598  0.9737 -1.5072
35146SOL     OW 7816   0.831   2.960   3.800 -0.4905  0.1130 -0.6771
35146SOL    HW1 7817   0.865   2.871   3.792 -0.1539  0.1271  0.5069
35146SOL    HW2 7818   0.812   2.971   3.893 -1.3500  0.9905 -0.9365
35147SOL     OW 7819   9.219   2.552   1.868 -0.0148  0.3133  0.1219
35147SOL    HW1 7820   9.224   2.563   1.963 -1.1440 -2.3376  0.5651
35147SOL    HW2 7821   9.139   2.597   1.842  0.1244  0.7587  0.4383
35148SOL     OW 7822   2.592   7.092   7.663 -0.7202  0.1639 -0.0765
35148SOL    HW1 7823   2.547   7.042   7.731  0.0035  0.8349  0.9310
35148SOL    HW2 7824   2.672   7.124   7.706 -1.2476  2.3406 -0.6129
35149SOL     OW 7825   8.112   4.653   9.087 -0.7581 -0.2545 -0.4858
35149SOL    HW1 7826   8.184   4.616   9.037 -0.8898  0.2290 -1.0360
35149SOL    HW2 7827   8.073   4.577   9.132 -1.1321 -0.8352 -1.7415
35150SOL     OW 7828   7.874   3.802   0.766  0.1626  0.0232 -0.4701
35150SOL    HW1 7829   7.916   3.856   0.833  0.7951 -1.3931  0.3164
35150SOL    HW2 7830   7.906   3.713   0.783 -0.7753 -0.6002 -1.7774
35151SOL     OW 7831   3.027   0.110   0.772  0.4681 -0.2130 -0.1990
35151SOL    HW1 7832   3.092   0.041   0.782 -0.2768 -0.8630  0.2036
35151SOL    HW2 7833   3.038   0.164   0.851  1.3794  0.4336 -0.7436
35152SOL     OW 7834   5.577  10.225   7.921 -0.4255  0.4051  0.0591
35152SOL    HW1 7835   5.496  10.183   7.892 -0.5029  1.4898 -1.4183
35152SOL    HW2 7836   5.638  10.212   7.848  0.2688  0.8478  0.5520
35153SOL     OW 7837   3.530   3.566   6.317  0.0008 -0.2692  0.4516
35153SOL    HW1 7838   3.540   3.548   6.411  2.8973 -1.9678 -0.0521
35153SOL    HW2 7839   3.472   3.496   6.286 -0.5384 -0.0215  0.8906
35154SOL     OW 7840   4.699   5.085   8.792  0.3223  0.5868  0.0716
35154SOL    HW1 7841   4.613   5.127   8.795 -0.2088 -0.3962 -0.7310
35154SOL    HW2 7842   4.714   5.055   8.881  0.1264  1.3103  0.3612
35155SOL     OW 7843   3.810   9.717   9.694 -0.0298 -0.5478 -0.5642
35155SOL    HW1 7844   3.778   9.807   9.692 -0.7369 -0.7730  0.1457
35155SOL    HW2 7845   3.809   9.693   9.787 -1.5053 -1.8532 -0.8883
35156SOL     OW 7846   3.858   6.857   5.389  0.1837 -0.2518 -0.4278
35156SOL    HW1 7847   3.929   6.801   5.419  0.7194  0.0464 -1.1063
35156SOL    HW2 7848   3.779   6.803   5.399  0.2423  0.0081  1.9274
35157SOL     OW 7849   0.771   4.601   5.545 -0.6020 -0.0038  0.8353
35157SOL    HW1 7850   0.820   4.637   5.619  1.4749  1.4438 -1.0617
35157SOL    HW2 7851   0.799   4.655   5.471 -3.8907 -0.2236 -0.7380
35158SOL     OW 7852   1.556   6.835   8.036  0.0852 -0.9790  0.0524
35158SOL    HW1 7853   1.575   6.775   7.964  0.6921  0.1695 -0.7584
35158SOL    HW2 7854   1.486   6.791   8.085  1.7289 -3.2345  0.5625
35159SOL     OW 7855   2.640  10.487   6.295  0.0706 -0.4580  0.0009
35159SOL    HW1 7856   2.670  10.500   6.205  0.3192  0.2505  0.1798
35159SOL    HW2 7857   2.587  10.407   6.291  1.0340 -1.0872 -0.5423
35160SOL     OW 7858  10.555   4.330   1.255  0.3244  0.5631  0.1227
35160SOL    HW1 7859  10.534   4.345   1.347  0.5382 -0.6462  0.3893
35160SOL    HW2 7860  10.637   4.280   1.257 -0.8872 -1.5755 -0.6138
35161SOL     OW 7861  10.690   3.785   9.220  0.3968  0.2630 -0.3984
35161SOL    HW1 7862  10.595   3.798   9.218  0.2206 -1.0247 -1.0360
35161SOL    HW2 7863  10.724   3.868   9.254 -1.1368 -0.2901  2.8721
35162SOL     OW 7864   5.334   7.196   1.654  0.2281  0.4700  0.8220
35162SOL    HW1 7865   5.293   7.215   1.738  0.0510 -1.5593  1.2379
35162SOL    HW2 7866   5.320   7.102   1.640 -0.3095  0.8496 -1.7783
35163SOL     OW 7867   2.409  10.332   3.025  0.0317 -0.2545  0.2126
35163SOL    HW1 7868   2.501  10.358   3.021  0.8494 -2.9563 -0.8120
35163SOL    HW2 7869   2.375  10.349   2.937 -0.0122 -0.7410  0.1370
35164SOL     OW 7870   4.196  10.531   5.684  0.3535 -0.3881 -0.1045
35164SOL    HW1 7871   4.106  10.506   5.663 -0.5277  2.4740 -0.2344
35164SOL    HW2 7872   4.238  10.542   5.599 -0.6004  2.6155 -0.3037
35165SOL     OW 7873   1.471   9.198   6.687 -0.0476  0.0460  0.4851
35165SOL    HW1 7874   1.519   9.272   6.723 -0.4497  0.2976  0.5030
35165SOL    HW2 7875   1.393   9.236   6.647  1.2778  0.0377 -2.3754
35166SOL     OW 7876   1.381   6.234   9.153 -0.3622  0.0786 -0.1867
35166SOL    HW1 7877   1.425   6.294   9.214 -0.1255 -0.4656  0.1845
35166SOL    HW2 7878   1.296   6.275   9.137 -0.6183  0.0035  0.8924
35167SOL     OW 7879   3.752   3.496   9.614  0.7175  0.0126 -0.2411
35167SOL    HW1 7880   3.836   3.539   9.600  1.4540 -1.0215  0.8716
35167SOL    HW2 7881   3.773   3.411   9.652 -0.8001 -0.5861 -0.6441
35168SOL     OW 7882   1.454   7.967   8.001 -0.2584 -0.6590 -0.3984
35168SOL    HW1 7883   1.529   7.989   7.946 -0.6389 -0.1008 -0.7026
35168SOL    HW2 7884   1.486   7.898   8.059  0.3682 -0.7156 -0.8048
35169SOL     OW 7885   8.889   8.591   6.904 -0.0283  0.3688 -0.5256
35169SOL    HW1 7886   8.866   8.551   6.821 -0.7965  0.5217 -0.3919
35169SOL    HW2 7887   8.812   8.578   6.960  0.5462  0.0980  0.2265
35170SOL     OW 7888   7.183   4.455   4.252  0.1742  0.4036 -0.4097
35170SOL    HW1 7889   7.244   4.381   4.257 -2.1288 -1.5557  0.7533
35170SOL    HW2 7890   7.207   4.510   4.326  0.9517  0.0110 -0.3558
35171SOL     OW 7891   2.796   3.956   2.101  0.0333 -0.4919 -0.1173
35171SOL    HW1 7892   2.705   3.986   2.102 -0.0259 -0.6544 -0.5808
35171SOL    HW2 7893   2.842   4.018   2.157 -0.0163  0.6871 -1.3318
35172SOL     OW 7894   7.161   0.049   5.751 -0.6359  0.0275  0.6408
35172SOL    HW1 7895   7.154   0.066   5.658  0.6352  0.3818  0.5946
35172SOL    HW2 7896   7.252   0.066   5.772 -1.0406  0.5623  2.0790
35173SOL     OW 7897   9.685   0.518  10.179 -0.0855  0.6809 -0.0002
35173SOL    HW1 7898   9.723   0.497  10.265  0.5621  1.3889 -0.1040
35173SOL    HW2 7899   9.639   0.601  10.192  0.9538  1.3736 -0.5837
35174SOL     OW 7900   3.903   2.744   4.537  0.5184 -0.2785  0.7811
35174SOL    HW1 7901   3.844   2.776   4.606  3.6471  1.8867  2.6975
35174SOL    HW2 7902   3.979   2.709   4.584  2.7315  1.1270 -1.4911
35175SOL     OW 7903   5.786   2.593   9.310 -0.0981  0.0651  0.1839
35175SOL    HW1 7904   5.737   2.511   9.306  2.3446 -1.5390  1.1073
35175SOL    HW2 7905   5.856   2.576   9.373  1.0541  2.5633 -0.3223
35176SOL     OW 7906   7.520   9.403   8.250  0.3519 -0.0681  0.6347
35176SOL    HW1 7907   7.583   9.386   8.320  0.4548 -2.5407  0.0138
35176SOL    HW2 7908   7.575   9.424   8.174  0.3081  0.4057  0.7281
35177SOL     OW 7909   5.669   1.054   5.971 -0.2350  0.4469 -0.3133
35177SOL    HW1 7910   5.635   1.136   6.006 -1.1470  0.4661 -1.2001
35177SOL    HW2 7911   5.591   1.004   5.948  0.3224 -0.4755 -0.2293
35178SOL     OW 7912  10.191   1.794   0.482  0.4215 -0.3745  0.1998
35178SOL    HW1 7913  10.118   1.800   0.419  0.2971 -1.1036  0.2600
35178SOL    HW2 7914  10.247   1.868   0.460 -0.3291  0.1976  0.1406
35179SOL     OW 7915   3.140   3.087  10.775 -0.1741  0.2130  0.0067
35179SOL    HW1 7916   3.162   3.011  10.721  1.0899  0.2863  0.4051
35179SOL    HW2 7917   3.175   3.162  10.727  1.6174  0.2166  1.2438
35180SOL     OW 7918   3.944   6.343   1.320 -0.5841  0.0336 -0.0520
35180SOL    HW1 7919   3.870   6.403   1.310  0.0966  1.1500  1.4490
35180SOL    HW2 7920   3.917   6.265   1.271 -2.0493  1.0281 -0.9141
35181SOL     OW 7921   9.068   8.955   3.777  0.2043  0.3905 -0.1701
35181SOL    HW1 7922   9.134   8.902   3.823 -0.3487  0.4208  0.6881
35181SOL    HW2 7923   9.059   9.034   3.830 -2.5804 -0.8412  1.4219
35182SOL     OW 7924   0.571   1.212   4.746  0.6665 -0.4798  0.5792
35182SOL    HW1 7925   0.639   1.279   4.744  0.7496 -0.5520  0.9355
35182SOL    HW2 7926   0.495   1.253   4.703  0.9040 -0.3700  0.2608
35183SOL     OW 7927   5.985  10.456   6.605 -0.9241  0.4251  0.3374
35183SOL    HW1 7928   5.971  10.520   6.675 -2.0494 -0.3305  0.8205
35183SOL    HW2 7929   5.937  10.378   6.633 -1.7131  0.2300 -1.4528
35184SOL     OW 7930   4.148   8.990   0.888  0.2589  0.4684 -0.6257
35184SOL    HW1 7931   4.087   9.058   0.916 -0.6525 -0.0600 -1.2727
35184SOL    HW2 7932   4.118   8.910   0.933 -0.3124 -0.0603 -1.9063
35185SOL     OW 7933   4.760   0.573   7.261 -0.4961 -0.0272 -1.0089
35185SOL    HW1 7934   4.768   0.477   7.254 -0.6760 -0.4366  2.4591
35185SOL    HW2 7935   4.837   0.599   7.313 -2.5881  1.0028  1.8157
35186SOL     OW 7936   4.912   1.994   4.389  0.0856 -0.6172  0.0037
35186SOL    HW1 7937   4.825   1.980   4.352 -0.8285 -1.2559  2.1943
35186SOL    HW2 7938   4.951   2.061   4.334 -2.0613  0.1647 -0.6709
35187SOL     OW 7939   6.896   7.730   4.725 -0.2614 -0.2067  0.0679
35187SOL    HW1 7940   6.958   7.669   4.764  0.9190  1.0599  0.2258
35187SOL    HW2 7941   6.811   7.701   4.758  0.3360 -1.3659  0.6575
35188SOL     OW 7942   6.373   7.462   9.616  0.0780  0.3213  0.0967
35188SOL    HW1 7943   6.279   7.451   9.604 -0.1681  0.2214  1.9016
35188SOL    HW2 7944   6.381   7.523   9.689  1.4209  0.5470 -0.2169
35189SOL     OW 7945   8.297   7.496   4.660  0.1480 -0.0002 -0.1667
35189SOL    HW1 7946   8.393   7.496   4.669  0.1461  0.7087 -0.0712
35189SOL    HW2 7947   8.269   7.574   4.708 -0.2955  1.0411 -2.0290
35190SOL     OW 7948   6.759   3.437   6.644  0.4443  0.4619 -0.0059
35190SOL    HW1 7949   6.852   3.424   6.663  0.2192  0.2678  1.0375
35190SOL    HW2 7950   6.721   3.349   6.649  0.0178  0.6757  0.7160
35191SOL     OW 7951   1.159   9.682   4.463 -0.7379  0.6909  0.1089
35191SOL    HW1 7952   1.124   9.605   4.417  0.3216  0.4693 -0.3609
35191SOL    HW2 7953   1.227   9.646   4.520 -0.0669  1.3075 -0.2934
35192SOL     OW 7954   9.099   6.702   5.629  0.2618  0.2232 -0.1138
35192SOL    HW1 7955   9.021   6.707   5.683 -0.5214 -1.0183 -1.0694
35192SOL    HW2 7956   9.159   6.766   5.667 -0.6640  0.1759  1.5163
35193SOL     OW 7957   0.301   9.843   4.829  0.0735 -0.1885  0.4493
35193SOL    HW1 7958   0.220   9.863   4.783 -0.6367 -0.3558  1.6049
35193SOL    HW2 7959   0.288   9.756   4.866  0.1140  0.4512  2.0435
35194SOL     OW 7960   2.606   5.449   8.132 -0.1978 -0.6073 -0.4122
35194SOL    HW1 7961   2.568   5.439   8.044 -0.6282 -0.1659 -0.2842
35194SOL    HW2 7962   2.696   5.417   8.123  0.1215  0.4760 -1.2898
35195SOL     OW 7963   5.054   4.657   7.202  0.2617 -0.5205 -0.6450
35195SOL    HW1 7964   4.960   4.643   7.216 -0.1053  2.5189  0.6685
35195SOL    HW2 7965   5.059   4.707   7.121  0.4008  1.9254  0.7887
35196SOL     OW 7966   5.242   9.348   2.271 -0.2412  0.2780 -0.4092
35196SOL    HW1 7967   5.205   9.362   2.184  0.5673  2.2100 -0.4903
35196SOL    HW2 7968   5.223   9.428   2.319 -1.3312 -1.0359  1.4907
35197SOL     OW 7969   0.606   7.870   0.089 -0.3033 -0.5848 -0.4947
35197SOL    HW1 7970   0.648   7.789   0.059  0.5659 -0.1747 -0.4316
35197SOL    HW2 7971   0.512   7.853   0.082 -0.1328 -1.6187 -0.4166
35198SOL     OW 7972   2.618   7.684   5.465 -0.0185  0.1203 -0.5145
35198SOL    HW1 7973   2.699   7.634   5.458  0.4383  0.9141 -1.1382
35198SOL    HW2 7974   2.589   7.697   5.374 -0.9260 -0.2713 -0.2958
35199SOL     OW 7975   1.881   9.526   8.212 -0.5520  0.3137  0.1961
35199SOL    HW1 7976   1.943   9.596   8.191 -0.2249 -0.0575 -0.0936
35199SOL    HW2 7977   1.936   9.455   8.245 -0.8385  0.0266  0.0556
35200SOL     OW 7978  10.328   1.441   3.956  0.3325 -0.2456  0.0738
35200SOL    HW1 7979  10.381   1.373   3.914 -0.6314  0.2214 -2.0455
35200SOL    HW2 7980  10.331   1.515   3.896  0.4546  1.2190  1.8111
35201SOL     OW 7981   1.247   5.653   8.324  0.2961  0.4299  0.5773
35201SOL    HW1 7982   1.287   5.577   8.367  1.3686 -0.8185 -2.3536
35201SOL    HW2 7983   1.172   5.617   8.277  0.3356  1.3258 -0.2072
35202SOL     OW 7984   9.446  10.100   2.842  0.0344 -0.2547 -0.1581
35202SOL    HW1 7985   9.435  10.103   2.747 -1.3972 -1.5645 -0.0827
35202SOL    HW2 7986   9.357  10.095   2.876  0.4749  1.1861  1.3314
35203SOL     OW 7987   7.150   6.309   1.922  0.1224  0.2727 -0.3474
35203SOL    HW1 7988   7.055   6.320   1.926  0.2891  1.6937  0.2054
35203SOL    HW2 7989   7.165   6.221   1.957 -0.8343  0.9318  1.8749
35204SOL     OW 7990   8.892   8.473   4.367 -0.2991  0.6904  0.0847
35204SOL    HW1 7991   8.828   8.520   4.315 -0.6052  0.1581 -0.0184
35204SOL    HW2 7992   8.931   8.410   4.307 -1.5499 -0.8140  0.7764
35205SOL     OW 7993   4.711   8.118   8.585  0.1231  0.2896 -0.6232
35205SOL    HW1 7994   4.633   8.141   8.535 -1.9423 -0.6364  1.9428
35205SOL    HW2 7995   4.741   8.036   8.546  0.3865  1.0908 -2.1829
35206SOL     OW 7996   4.522   5.584   2.440  0.0090 -0.4115 -0.4995
35206SOL    HW1 7997   4.555   5.506   2.485  0.9056  1.4202  2.2789
35206SOL    HW2 7998   4.433   5.560   2.412 -0.1989 -2.0613  1.3472
35207SOL     OW 7999   8.876   1.035   3.664  0.4240  0.5743 -0.3107
35207SOL    HW1 8000   8.859   1.091   3.739 -4.1257  0.6215 -1.0844
35207SOL    HW2 8001   8.882   1.095   3.590 -1.4986  0.3121 -0.7358
35208SOL     OW 8002   2.915   7.608  10.472 -0.5132 -0.3898  0.3096
35208SOL    HW1 8003   2.856   7.534  10.483 -1.1473  0.0710  0.0540
35208SOL    HW2 8004   2.899   7.664  10.548 -0.1185 -0.4493  0.4435
35209SOL     OW 8005   3.831   9.805  10.781  0.2563 -0.2253  0.1258
35209SOL    HW1 8006   3.816   9.759  10.864  1.3019 -1.4356 -0.3272
35209SOL    HW2 8007   3.853   9.895  10.807  0.8311 -0.6576  1.1793
35210SOL     OW 8008   1.646   4.672   6.499 -0.6224 -0.1507  0.1732
35210SOL    HW1 8009   1.572   4.712   6.545 -1.0445  0.4554 -0.9765
35210SOL    HW2 8010   1.705   4.745   6.482 -0.5982 -0.3159 -0.4632
35211SOL     OW 8011   3.639   4.735   9.434  0.0959  0.3282 -1.0522
35211SOL    HW1 8012   3.608   4.750   9.523  0.6899  0.1284 -0.8029
35211SOL    HW2 8013   3.668   4.821   9.404 -2.2080  0.8838 -1.9145
35212SOL     OW 8014   8.167   2.258   0.803 -0.5537 -0.5828  0.3352
35212SOL    HW1 8015   8.115   2.245   0.882  0.1653 -0.8955  0.7635
35212SOL    HW2 8016   8.156   2.177   0.753 -0.2295 -0.7803  0.5779
35213SOL     OW 8017   4.622   9.271   1.446 -0.3596  0.1157 -0.4547
35213SOL    HW1 8018   4.557   9.253   1.513  0.0221  1.8871  0.4509
35213SOL    HW2 8019   4.586   9.345   1.397  0.4822  0.4178 -0.6363
35214SOL     OW 8020  10.778   1.534   9.142  0.2930 -0.3757  0.1764
35214SOL    HW1 8021  10.807   1.450   9.178 -1.3287 -0.6357  0.9576
35214SOL    HW2 8022  10.799   1.597   9.210  2.5427  0.0818 -0.8649
35215SOL     OW 8023   9.698   4.710   9.138  0.0343  0.1093  0.5058
35215SOL    HW1 8024   9.714   4.730   9.230  0.6963 -0.3842  0.5102
35215SOL    HW2 8025   9.786   4.702   9.100 -0.2311  0.3070 -0.1682
35216SOL     OW 8026   7.298   6.202   7.583 -0.5436 -0.4401 -0.3296
35216SOL    HW1 8027   7.298   6.125   7.639  1.9437 -0.9575 -0.9071
35216SOL    HW2 8028   7.250   6.268   7.633 -1.4775 -1.9118  0.8030
35217SOL     OW 8029   0.617   7.687   6.099  0.7264 -0.0657  0.4031
35217SOL    HW1 8030   0.538   7.649   6.060  0.8736  2.0244 -2.2192
35217SOL    HW2 8031   0.685   7.671   6.034  1.8136  0.6654  1.3355
35218SOL     OW 8032   8.631   3.139   5.372  0.7147  0.1577 -0.3749
35218SOL    HW1 8033   8.633   3.182   5.286  0.6975  0.7905 -0.0642
35218SOL    HW2 8034   8.564   3.185   5.421  1.8547  0.9236  0.5378
35219SOL     OW 8035  10.490  10.366   0.960  0.2016 -0.0246  0.4296
35219SOL    HW1 8036  10.577  10.375   0.921 -0.1928 -0.7502 -0.6728
35219SOL    HW2 8037  10.457  10.455   0.967  0.4563  0.1563 -0.5244
35220SOL     OW 8038   5.686   3.788   9.066 -0.1450 -0.3488 -0.2074
35220SOL    HW1 8039   5.722   3.755   8.983  2.4205 -0.7072  0.9577
35220SOL    HW2 8040   5.632   3.717   9.099 -1.2010 -0.2025 -1.5213
35221SOL     OW 8041   6.634   4.588   3.744  0.2032  0.1655 -0.5042
35221SOL    HW1 8042   6.552   4.629   3.715  0.4195 -0.8767 -2.8160
35221SOL    HW2 8043   6.636   4.603   3.839 -2.0815  1.2003 -0.5462
35222SOL     OW 8044   1.668   4.808   7.998 -0.2019  0.2735  0.0423
35222SOL    HW1 8045   1.648   4.840   7.910 -0.7797  1.4522  0.5830
35222SOL    HW2 8046   1.754   4.847   8.018  0.1747 -0.4199 -0.1909
35223SOL     OW 8047   6.491   5.160   5.552 -0.4840 -0.0341  0.1116
35223SOL    HW1 8048   6.538   5.243   5.554  0.4054 -0.5162 -0.2103
35223SOL    HW2 8049   6.522   5.113   5.630 -0.4148 -0.3627 -0.1117
35224SOL     OW 8050   7.899   1.557   1.328 -0.0337 -0.2644 -0.3114
35224SOL    HW1 8051   7.954   1.609   1.269 -0.1591  0.8475  0.5098
35224SOL    HW2 8052   7.813   1.597   1.321 -0.7308 -1.8273 -1.3824
35225SOL     OW 8053   7.279   8.057   9.631 -0.2447  0.7310 -0.1480
35225SOL    HW1 8054   7.196   8.021   9.660 -1.8171  2.2080 -2.4755
35225SOL    HW2 8055   7.270   8.067   9.536  3.2449 -0.6405 -0.7934
35226SOL     OW 8056  10.022   9.941   9.268 -0.0190  0.2216  0.0060
35226SOL    HW1 8057   9.933   9.908   9.264  0.2781 -0.4655 -2.4916
35226SOL    HW2 8058  10.024  10.015   9.208  1.0012  0.4960  0.3427
35227SOL     OW 8059   0.877   3.604   1.316  0.2412  0.0809 -0.6231
35227SOL    HW1 8060   0.787   3.607   1.284 -0.4021  1.4946  1.1444
35227SOL    HW2 8061   0.883   3.678   1.376  2.7384  0.3036 -1.0421
35228SOL     OW 8062   4.523   9.005   8.003  0.1792 -0.0056 -0.0361
35228SOL    HW1 8063   4.455   8.966   8.058 -0.8834  0.7363 -0.7761
35228SOL    HW2 8064   4.588   9.038   8.065  0.7870 -2.2638  0.6333
35229SOL     OW 8065   1.920   5.776   2.128 -0.1579  0.2506 -0.4040
35229SOL    HW1 8066   2.005   5.805   2.163 -0.6950  0.3251  0.8790
35229SOL    HW2 8067   1.881   5.855   2.091  0.6878  0.0461 -1.8108
35230SOL     OW 8068   3.445   7.081   1.088 -0.2325 -0.0801 -0.7551
35230SOL    HW1 8069   3.481   7.004   1.044 -0.6043 -2.7998  3.1854
35230SOL    HW2 8070   3.355   7.057   1.110 -0.9640  2.2505 -0.9612
35231SOL     OW 8071  10.060   6.283   9.990 -0.3262 -0.2782  0.3483
35231SOL    HW1 8072  10.016   6.326   9.916 -1.3658 -2.0766 -0.1596
35231SOL    HW2 8073  10.142   6.331  10.000 -1.3095  1.6728 -0.2675
35232SOL     OW 8074   5.630   2.629   7.270  0.6473  0.0046 -0.7139
35232SOL    HW1 8075   5.551   2.576   7.271  0.2574  0.4414  2.4467
35232SOL    HW2 8076   5.700   2.568   7.293  0.5570  0.3654  0.5840
35233SOL     OW 8077   8.962   5.992   2.546  0.1086  0.1798  0.3825
35233SOL    HW1 8078   9.022   5.918   2.540  0.1655  0.2134  0.5521
35233SOL    HW2 8079   8.910   5.975   2.625 -1.5122 -0.9093 -0.8466
35234SOL     OW 8080   3.212   1.411   0.534  0.4007 -0.4874 -0.2592
35234SOL    HW1 8081   3.116   1.409   0.531  0.2253 -0.0580  2.3474
35234SOL    HW2 8082   3.235   1.362   0.613  2.2729  0.3222 -0.2422
35235SOL     OW 8083   2.780   9.599   6.875  0.0405 -0.1561 -0.4091
35235SOL    HW1 8084   2.804   9.578   6.785  0.4274  0.8246 -0.5511
35235SOL    HW2 8085   2.820   9.684   6.891 -0.0297 -0.3133  0.6929
35236SOL     OW 8086  10.663   8.960   3.298  0.3039 -0.3887 -0.4298
35236SOL    HW1 8087  10.738   8.955   3.357  1.9390  0.0342 -2.3506
35236SOL    HW2 8088  10.660   8.874   3.256  0.4969 -0.0175 -1.2296
35237SOL     OW 8089   3.827   3.794   6.348  0.1765 -0.7688 -0.3178
35237SOL    HW1 8090   3.771   3.821   6.421  0.3908 -0.3442 -0.3100
35237SOL    HW2 8091   3.771   3.800   6.271  0.6579  1.2437 -0.5453
35238SOL     OW 8092   6.570   2.981   6.185 -0.1473 -0.8399  1.1044
35238SOL    HW1 8093   6.660   3.010   6.171 -1.1877  2.0356 -0.3366
35238SOL    HW2 8094   6.564   2.898   6.137  0.5555  1.2611 -3.1094
35239SOL     OW 8095   1.967   6.519   7.863 -0.2118  0.1040 -0.4620
35239SOL    HW1 8096   1.949   6.612   7.876 -0.0167 -0.0485  1.1109
35239SOL    HW2 8097   2.057   6.508   7.892 -0.9215 -0.9458  1.4787
35240SOL     OW 8098   8.953   1.015   9.856  0.4550 -0.0513  0.0544
35240SOL    HW1 8099   8.904   0.933   9.846 -1.6350  1.0052  0.9611
35240SOL    HW2 8100   8.959   1.028   9.950 -2.9669  2.8054  0.0694
35241SOL     OW 8101   3.050   8.801   3.221  0.8075 -0.5081 -0.2022
35241SOL    HW1 8102   3.069   8.872   3.159 -1.3335 -0.4153 -0.8641
35241SOL    HW2 8103   3.062   8.840   3.307 -0.0346  0.6043 -0.5597
35242SOL     OW 8104   6.599   2.024   3.672 -1.0604  0.0253 -0.4428
35242SOL    HW1 8105   6.536   1.952   3.676 -0.7552 -0.2980 -1.2692
35242SOL    HW2 8106   6.557   2.090   3.618 -1.1463  0.2846 -0.0671
35243SOL     OW 8107   4.636  10.109   7.717  0.1750 -0.5671 -0.2572
35243SOL    HW1 8108   4.710  10.110   7.778  1.2491 -2.2709 -1.4402
35243SOL    HW2 8109   4.673  10.136   7.633 -1.2573  1.6419 -0.2614
35244SOL     OW 8110   4.281   6.044   8.779  0.7605  0.4277  0.0234
35244SOL    HW1 8111   4.247   5.955   8.784 -0.3649  0.8759  0.7249
35244SOL    HW2 8112   4.376   6.033   8.774  0.6796 -0.7841  0.7537
35245SOL     OW 8113   5.974   3.210   5.316 -0.3877  0.4391  0.2740
35245SOL    HW1 8114   5.987   3.215   5.221  0.1055 -1.5842  0.1982
35245SOL    HW2 8115   6.062   3.197   5.351 -0.6066  0.8358  0.9923
35246SOL     OW 8116   6.740   2.286   8.736  0.0698  0.0730  0.3243
35246SOL    HW1 8117   6.834   2.285   8.754  0.1110  0.1201  0.1080
35246SOL    HW2 8118   6.711   2.197   8.757  0.1760  0.0367  0.3199
35247SOL     OW 8119  10.698   3.169   2.236  0.0717 -0.0827 -0.4860
35247SOL    HW1 8120  10.671   3.120   2.314 -0.9203  1.3544  0.1031
35247SOL    HW2 8121  10.699   3.260   2.264  1.1923  0.3153 -1.7589
35248SOL     OW 8122   9.147   2.343  10.705 -0.1507 -0.6235  0.5211
35248SOL    HW1 8123   9.086   2.415  10.689  0.5046 -0.5050 -1.6831
35248SOL    HW2 8124   9.210   2.348  10.634  0.2900 -2.9956  0.6578
35249SOL     OW 8125   3.008   1.258   7.429 -0.1091 -0.3761  0.3435
35249SOL    HW1 8126   3.095   1.286   7.456 -0.2970 -0.7533  1.3734
35249SOL    HW2 8127   3.025   1.194   7.359  0.3843  0.4827 -0.3469
35250SOL     OW 8128   0.028   9.399   9.371  0.1238 -0.1069 -0.2264
35250SOL    HW1 8129  -0.009   9.451   9.443  1.2230  2.0121 -1.1119
35250SOL    HW2 8130  -0.047   9.381   9.314 -0.4036 -0.1671  0.4617
35251SOL     OW 8131   8.675   1.546   4.827 -0.0764  0.4490 -0.1940
35251SOL    HW1 8132   8.686   1.581   4.915 -1.1389  0.7540 -0.1621
35251SOL    HW2 8133   8.729   1.602   4.772 -1.6255  2.1088 -0.1196
35252SOL     OW 8134   8.295   6.784  10.147 -0.0944  0.6348 -0.3561
35252SOL    HW1 8135   8.217   6.835  10.124 -0.7299  0.3537  1.0688
35252SOL    HW2 8136   8.285   6.702  10.099  0.2987  1.3218 -1.6655
35253SOL     OW 8137   4.035   6.473   2.201  0.2923  0.5387  0.3227
35253SOL    HW1 8138   4.092   6.483   2.125  0.9959  2.7047  1.0388
35253SOL    HW2 8139   4.085   6.418   2.261  0.5458  0.3834 -0.0259
35254SOL     OW 8140   8.470   2.654   5.763 -0.0561  0.9755 -0.0022
35254SOL    HW1 8141   8.509   2.588   5.706 -0.6355 -1.0578  1.8345
35254SOL    HW2 8142   8.376   2.636   5.760 -0.2424  1.8189  0.4158
35255SOL     OW 8143   8.836   7.530   3.736  0.3438  0.1406 -0.7345
35255SOL    HW1 8144   8.845   7.481   3.818 -0.6591 -0.0709 -0.7418
35255SOL    HW2 8145   8.896   7.486   3.676 -0.9938 -1.5272 -0.9285
35256SOL     OW 8146   4.075   6.665   5.123  0.6826 -0.2320 -0.1944
35256SOL    HW1 8147   4.164   6.654   5.089  1.2452  0.0155  1.1573
35256SOL    HW2 8148   4.039   6.577   5.126  1.0205 -0.3784 -0.3674
35257SOL     OW 8149   4.867   7.735   3.403  0.2238  0.6227 -0.2941
35257SOL    HW1 8150   4.884   7.725   3.496 -0.7001  2.1468  0.0757
35257SOL    HW2 8151   4.869   7.646   3.368 -1.7071 -0.2324  1.5985
35258SOL     OW 8152   9.436   7.885   3.460  0.0951  0.2419  0.0968
35258SOL    HW1 8153   9.498   7.839   3.517 -1.0428  2.3317  3.2653
35258SOL    HW2 8154   9.486   7.959   3.426  0.0219  0.6001  0.7479
35259SOL     OW 8155   2.874   1.403   3.673 -0.4428  0.1404  0.1977
35259SOL    HW1 8156   2.863   1.455   3.752 -1.2387  0.7402 -0.2938
35259SOL    HW2 8157   2.868   1.466   3.601 -1.5734 -0.6190 -0.4171
35260SOL     OW 8158  10.420   3.366   0.460 -0.2105  0.0088 -0.3881
35260SOL    HW1 8159  10.505   3.381   0.418 -1.1158  1.1157 -1.9486
35260SOL    HW2 8160  10.372   3.448   0.445 -1.3464 -0.3810  0.9728
35261SOL     OW 8161  10.340   0.240   3.099  0.7464 -0.4744  0.0533
35261SOL    HW1 8162  10.432   0.232   3.125  1.0459  1.2650 -0.3501
35261SOL    HW2 8163  10.312   0.325   3.135  0.0077  0.1325 -1.8352
35262SOL     OW 8164   2.486   3.540  10.631  0.0214 -0.3804 -0.2825
35262SOL    HW1 8165   2.490   3.540  10.536 -2.1155  1.5646 -0.4471
35262SOL    HW2 8166   2.487   3.633  10.656  1.3215 -0.8459  1.6598
35263SOL     OW 8167   4.527   2.684   6.157  0.1264 -0.3327  0.0728
35263SOL    HW1 8168   4.574   2.603   6.138  1.1295  0.0598  0.7666
35263SOL    HW2 8169   4.515   2.683   6.252 -1.9316 -0.7445 -0.1450
35264SOL     OW 8170   5.964   9.365   7.937  0.3191 -1.2141  0.1434
35264SOL    HW1 8171   6.051   9.351   7.976 -0.0816  0.3942  1.7610
35264SOL    HW2 8172   5.903   9.331   8.001 -0.3027 -0.3725  0.0161
35265SOL     OW 8173   7.092   1.577   2.646 -0.1090  0.0302  0.0429
35265SOL    HW1 8174   7.150   1.501   2.642 -0.0850  0.0790 -1.8413
35265SOL    HW2 8175   7.140   1.643   2.696  0.4532 -0.7370  0.5210
35266SOL     OW 8176   9.791   4.337   4.461 -0.0200 -0.3142 -0.4064
35266SOL    HW1 8177   9.877   4.356   4.499 -0.3809 -2.3040  1.5884
35266SOL    HW2 8178   9.799   4.249   4.425 -1.0635 -0.2536 -0.8215
35267SOL     OW 8179   6.345   8.458   2.068 -0.4323 -0.0084 -0.3183
35267SOL    HW1 8180   6.279   8.477   2.134 -1.3091  2.5462 -1.8174
35267SOL    HW2 8181   6.306   8.484   1.985  2.5575  2.1120 -1.2308
35268SOL     OW 8182   5.042   1.999   9.891  0.3833 -0.2806  0.2369
35268SOL    HW1 8183   5.065   1.918   9.938  0.8580  0.1314  0.7368
35268SOL    HW2 8184   5.000   1.969   9.810  2.5932 -1.1168 -0.6924
35269SOL     OW 8185   6.647   2.417   2.953  0.1191 -0.4010 -0.3294
35269SOL    HW1 8186   6.636   2.497   2.902 -0.2915  0.7942  1.5601
35269SOL    HW2 8187   6.570   2.412   3.009  0.4639 -1.7789  0.0772
35270SOL     OW 8188   5.593   5.731   6.403  0.0668  0.2536  0.1399
35270SOL    HW1 8189   5.574   5.815   6.445 -0.0806 -0.1049  0.8137
35270SOL    HW2 8190   5.513   5.681   6.413  0.9570 -0.8928  2.0521
35271SOL     OW 8191   2.131   6.994   1.329 -0.4532 -0.2754 -0.2347
35271SOL    HW1 8192   2.072   7.050   1.378 -2.0178 -2.2440  0.2410
35271SOL    HW2 8193   2.214   7.041   1.329 -1.4425  1.5792  0.9132
35272SOL     OW 8194   5.657   6.366   7.727 -0.1437 -0.1439 -0.1396
35272SOL    HW1 8195   5.716   6.441   7.731 -1.2679  0.7557  0.1225
35272SOL    HW2 8196   5.593   6.388   7.660 -0.0897 -1.1918 -0.5657
35273SOL     OW 8197   6.282   3.073   6.588 -0.0557 -0.1037  0.4476
35273SOL    HW1 8198   6.330   2.997   6.620  1.2520  0.6212  0.2868
35273SOL    HW2 8199   6.191   3.056   6.612 -0.1667 -2.6871 -1.3739
35274SOL     OW 8200   7.105   6.184   0.399 -0.3581 -0.2811 -0.0789
35274SOL    HW1 8201   7.058   6.183   0.482 -0.1660 -0.7306  0.0246
35274SOL    HW2 8202   7.191   6.219   0.420  0.0145 -1.2786  0.0886
35275SOL     OW 8203   4.935   2.252   8.601 -0.1878 -0.5378 -0.0637
35275SOL    HW1 8204   4.929   2.347   8.614 -1.4224 -0.6017  0.0027
35275SOL    HW2 8205   5.011   2.240   8.545 -0.0183  0.4964 -0.0773
35276SOL     OW 8206   4.664   4.311  10.678 -1.3488 -0.2997  0.0839
35276SOL    HW1 8207   4.677   4.403  10.657 -3.1682  0.1245  0.6688
35276SOL    HW2 8208   4.669   4.266  10.593 -0.3901  0.3048 -0.1932
35277SOL     OW 8209   7.876   6.003   2.158 -0.3172  0.2740 -0.3838
35277SOL    HW1 8210   7.786   5.980   2.137 -0.9988  2.7206 -0.4504
35277SOL    HW2 8211   7.891   6.085   2.112  0.5901  2.0079  2.6899
35278SOL     OW 8212   9.032   9.865   9.288  0.0391  0.2410  0.0342
35278SOL    HW1 8213   9.035   9.877   9.383  1.1426 -1.6711  0.2942
35278SOL    HW2 8214   8.970   9.932   9.258 -2.4890 -0.8069  2.3853
35279SOL     OW 8215   8.619   7.225  10.289  0.0175 -0.3724  0.0674
35279SOL    HW1 8216   8.705   7.226  10.248 -0.7240 -0.0553 -1.5737
35279SOL    HW2 8217   8.611   7.137  10.327  0.9766 -0.4615  0.0791
35280SOL     OW 8218   2.524   0.863   2.991  0.3345  0.2316  0.5636
35280SOL    HW1 8219   2.546   0.931   2.927 -0.0643 -0.4874 -0.3599
35280SOL    HW2 8220   2.609   0.836   3.026  0.6592 -0.1175 -0.4545
35281SOL     OW 8221   1.330   4.051   4.350  0.2810 -0.5754  0.1316
35281SOL    HW1 8222   1.284   4.075   4.269  0.7829  0.1937  0.0638
35281SOL    HW2 8223   1.418   4.026   4.320  0.0327 -1.6841  0.2966
35282SOL     OW 8224   5.610   9.601   4.665  0.0032 -0.4439 -0.0819
35282SOL    HW1 8225   5.571   9.638   4.744 -2.6980 -2.4999 -0.2848
35282SOL    HW2 8226   5.602   9.506   4.677 -0.2610 -0.8285 -2.6929
35283SOL     OW 8227   0.915   9.267   8.219  0.3719  0.5874 -0.1249
35283SOL    HW1 8228   0.910   9.348   8.169  1.8392  0.2272 -0.9202
35283SOL    HW2 8229   0.825   9.250   8.247 -0.2647  1.5185 -1.4954
35284SOL     OW 8230   8.441   4.446   9.998 -0.1386 -1.0144  0.3081
35284SOL    HW1 8231   8.430   4.357  10.031  0.4041 -0.9122  0.7715
35284SOL    HW2 8232   8.393   4.501  10.060  0.9023 -0.8200  0.9611
35285SOL     OW 8233   3.953  10.000   0.923  0.0151 -0.5886 -0.2118
35285SOL    HW1 8234   3.906   9.978   1.003  2.2194 -1.1810  0.9907
35285SOL    HW2 8235   4.034  10.040   0.953  0.5853 -0.1628 -2.1828
35286SOL     OW 8236   6.109   2.767   2.315 -0.2242 -0.8593 -0.0437
35286SOL    HW1 8237   6.170   2.777   2.242  0.4693  0.0756  0.6415
35286SOL    HW2 8238   6.032   2.724   2.276 -0.2455  0.4305 -1.5250
35287SOL     OW 8239   1.033  10.736   3.102  0.6893  0.0997 -0.0333
35287SOL    HW1 8240   0.965  10.669   3.108  0.9371 -0.1281  0.2598
35287SOL    HW2 8241   0.984  10.819   3.099  0.3833 -0.0955 -0.5078
35288SOL     OW 8242   6.127  10.331   4.589 -0.7239  0.2991 -0.2031
35288SOL    HW1 8243   6.219  10.319   4.566 -0.7485  0.0710 -0.1832
35288SOL    HW2 8244   6.124  10.418   4.630 -0.2609 -0.2820  1.1281
35289SOL     OW 8245   8.044   8.877   8.180  0.0050  0.3332  0.0170
35289SOL    HW1 8246   8.135   8.907   8.181  0.2713 -0.3511 -1.5648
35289SOL    HW2 8247   7.999   8.937   8.240  1.0965  2.0152 -0.7520
35290SOL     OW 8248   2.152   8.504   8.062 -0.3143 -0.0318 -0.0188
35290SOL    HW1 8249   2.224   8.503   8.125 -0.8632  0.5520  0.6309
35290SOL    HW2 8250   2.192   8.474   7.980  0.6705  0.3146  0.3202
35291SOL     OW 8251   1.921   2.187   5.158  0.2406 -0.1161 -0.0254
35291SOL    HW1 8252   1.857   2.194   5.230  2.5283  1.5482  2.0135
35291SOL    HW2 8253   1.959   2.099   5.169 -0.0827 -0.2305  0.2050
35292SOL     OW 8254   9.631   1.234   3.014  0.5418 -0.4683 -0.1555
35292SOL    HW1 8255   9.644   1.163   2.951 -0.0425  1.2989 -2.4292
35292SOL    HW2 8256   9.542   1.222   3.047  0.9646 -1.5937  0.6311
35293SOL     OW 8257   7.429   5.795   1.738 -0.1089 -0.2310 -0.0224
35293SOL    HW1 8258   7.348   5.829   1.698 -0.4145 -1.7715 -0.7840
35293SOL    HW2 8259   7.443   5.852   1.814 -1.2257  0.8409 -0.5672
35294SOL     OW 8260  10.076   5.926   0.853  1.0088  0.4726 -0.5458
35294SOL    HW1 8261  10.144   5.892   0.794  0.3473  0.1788 -1.1527
35294SOL    HW2 8262  10.017   5.975   0.796 -0.8638 -1.6327 -0.5630
35295SOL     OW 8263   6.811   0.117   0.400  0.2914 -0.5684  0.7275
35295SOL    HW1 8264   6.863   0.197   0.411 -1.4062  0.5326  1.1114
35295SOL    HW2 8265   6.858   0.067   0.333  0.2379  1.7784 -1.2160
35296SOL     OW 8266   8.091   8.254   9.540  0.0668  0.2732  0.1139
35296SOL    HW1 8267   8.133   8.322   9.487 -0.1376  0.1193 -0.2494
35296SOL    HW2 8268   8.024   8.301   9.589 -0.9336  0.1472 -1.0821
35297SOL     OW 8269   3.091   1.626   1.947  0.7315 -0.2456  0.8706
35297SOL    HW1 8270   3.064   1.717   1.957 -2.5738 -0.9592 -0.3357
35297SOL    HW2 8271   3.120   1.619   1.856  2.2335 -0.1716  1.3186
35298SOL     OW 8272   6.586   8.105   4.901  0.1832 -0.7899 -0.5899
35298SOL    HW1 8273   6.650   8.175   4.899 -0.5924 -0.0228  0.7288
35298SOL    HW2 8274   6.510   8.142   4.946 -0.4072 -2.3319 -0.2511
35299SOL     OW 8275   3.325   8.221  10.470  0.4038 -0.2489  0.3337
35299SOL    HW1 8276   3.268   8.157  10.428  0.4505 -0.0257 -0.0839
35299SOL    HW2 8277   3.333   8.192  10.561 -0.5838 -0.1381  0.4644
35300SOL     OW 8278   4.992   1.600   7.138 -0.8706 -0.2680 -0.0601
35300SOL    HW1 8279   4.901   1.572   7.137 -1.8376  2.5650  0.3396
35300SOL    HW2 8280   5.020   1.593   7.047 -0.8713 -2.7088  0.0461
35301SOL     OW 8281   6.673   6.917   4.909 -0.0758  0.1320  0.0021
35301SOL    HW1 8282   6.767   6.901   4.900  0.1618  1.1134  0.6353
35301SOL    HW2 8283   6.632   6.837   4.877  0.9141  0.4156 -2.1750
35302SOL     OW 8284   9.149   4.872  10.145 -0.0347 -0.0693 -0.2864
35302SOL    HW1 8285   9.102   4.945  10.184  0.4592 -0.3643  0.9096
35302SOL    HW2 8286   9.222   4.912  10.097  1.0833  0.2026  1.5357
35303SOL     OW 8287   9.908   2.702   4.438 -0.1150  0.1401 -0.6467
35303SOL    HW1 8288   9.984   2.655   4.473 -0.2978  0.0619 -0.3547
35303SOL    HW2 8289   9.845   2.633   4.418  0.1665  0.1339 -1.5901
35304SOL     OW 8290   6.469   2.262   7.979 -0.2293  0.1937 -0.0100
35304SOL    HW1 8291   6.390   2.255   7.925 -0.6702 -1.4282  0.7493
35304SOL    HW2 8292   6.528   2.195   7.944  0.0586  0.1385  0.5646
35305SOL     OW 8293   6.035   3.938   4.328  0.3837 -0.5009  0.2918
35305SOL    HW1 8294   6.114   3.990   4.313 -0.3728  0.3088 -1.1581
35305SOL    HW2 8295   5.963   3.996   4.303 -0.4924 -2.2566 -1.5268
35306SOL     OW 8296   9.419   1.513   2.531  0.3289 -0.1158  0.1324
35306SOL    HW1 8297   9.398   1.588   2.476 -1.3550 -0.4925  0.2137
35306SOL    HW2 8298   9.401   1.543   2.620  1.1108 -0.1516  0.3132
35307SOL     OW 8299   3.702   8.274  10.417 -0.2695  0.0728  0.9064
35307SOL    HW1 8300   3.654   8.289  10.336  1.1308 -0.8183 -0.1378
35307SOL    HW2 8301   3.743   8.358  10.437  3.4760 -0.7321 -2.1743
35308SOL     OW 8302   4.153   8.936   0.035 -0.2943 -0.0763 -0.0420
35308SOL    HW1 8303   4.156   9.029   0.057 -0.2390  0.0066 -0.3854
35308SOL    HW2 8304   4.074   8.903   0.077 -0.4001  0.1645 -0.0527
35309SOL     OW 8305   1.552   6.899   1.595  1.0160  0.4293  0.3842
35309SOL    HW1 8306   1.630   6.891   1.651  2.0186 -1.9008 -1.2136
35309SOL    HW2 8307   1.512   6.812   1.597 -0.1966  0.9381 -0.7238
35310SOL     OW 8308   5.161  10.480   7.241  0.2445  0.5638  0.1591
35310SOL    HW1 8309   5.088  10.419   7.249 -1.2855  2.3785  0.6364
35310SOL    HW2 8310   5.220  10.438   7.178 -0.4650 -1.6203  0.8542
35311SOL     OW 8311   8.166   6.879   0.034  0.2048 -0.2397 -0.7250
35311SOL    HW1 8312   8.112   6.954   0.055 -0.8906 -1.1743 -0.0824
35311SOL    HW2 8313   8.175   6.831   0.117  2.2305 -0.0037 -0.7475
35312SOL     OW 8314   0.708   7.881   6.804 -0.5709 -0.0880 -0.0619
35312SOL    HW1 8315   0.760   7.961   6.797  0.1271 -0.4040  1.2560
35312SOL    HW2 8316   0.740   7.825   6.733  0.8609 -0.2411  0.6722
35313SOL     OW 8317   9.035   9.687   1.525 -0.0544 -0.0220  0.0705
35313SOL    HW1 8318   9.014   9.686   1.619 -0.5504  0.1520 -0.0353
35313SOL    HW2 8319   9.128   9.706   1.522 -0.2611  1.1377  0.4948
35314SOL     OW 8320   2.603   0.990   3.234  0.0504 -0.8072 -0.0545
35314SOL    HW1 8321   2.649   0.907   3.220  0.2017 -0.6793 -0.3217
35314SOL    HW2 8322   2.670   1.057   3.223  0.2421 -0.6976  1.5781
35315SOL     OW 8323   6.254   3.065   9.624  0.1065 -0.1195  0.3845
35315SOL    HW1 8324   6.257   3.124   9.549  0.9495 -1.0642 -0.3445
35315SOL    HW2 8325   6.261   2.978   9.586  0.3045 -0.6223  1.5510
35316SOL     OW 8326   6.172   3.833   3.720  0.8564  0.3230  0.4996
35316SOL    HW1 8327   6.203   3.745   3.700  0.5936  0.0723  1.1863
35316SOL    HW2 8328   6.077   3.829   3.705  0.8465  0.4893  0.5203
35317SOL     OW 8329   9.850   8.564  10.444  0.2437  0.3437  0.4919
35317SOL    HW1 8330   9.800   8.589  10.522 -1.0020  1.6406 -0.6490
35317SOL    HW2 8331   9.784   8.563  10.374  1.2327 -1.2797 -0.4559
35318SOL     OW 8332   4.938   7.446   1.815  0.5097 -0.2417 -0.1316
35318SOL    HW1 8333   4.914   7.369   1.764  0.1614 -0.9748  1.1016
35318SOL    HW2 8334   4.994   7.412   1.885 -1.3129  0.2776  1.6571
35319SOL     OW 8335   0.983   3.141   1.955 -0.0053 -0.3390 -0.3980
35319SOL    HW1 8336   0.908   3.127   1.896 -0.8956  1.8171  0.1058
35319SOL    HW2 8337   0.947   3.125   2.042 -0.0770  1.2347 -0.1111
35320SOL     OW 8338   7.040   0.922   7.498 -0.3362 -0.5132  0.1424
35320SOL    HW1 8339   7.136   0.922   7.488 -0.2961  1.6152 -0.0191
35320SOL    HW2 8340   7.008   0.874   7.422  0.5951 -0.1350 -0.5127
35321SOL     OW 8341   0.674   6.197   6.294  0.0167 -0.0665  0.1363
35321SOL    HW1 8342   0.717   6.281   6.309 -0.6590 -0.0585  2.4352
35321SOL    HW2 8343   0.658   6.195   6.200  2.5043  1.1318 -0.4021
35322SOL     OW 8344   1.710   9.305   3.516 -0.6281  0.1460 -0.6218
35322SOL    HW1 8345   1.647   9.356   3.465 -2.2975 -1.2091  0.0138
35322SOL    HW2 8346   1.692   9.214   3.493 -2.2465 -0.6560  3.1518
35323SOL     OW 8347   8.074   7.170   9.565 -0.4644 -0.4212 -0.9643
35323SOL    HW1 8348   8.115   7.085   9.582 -0.1326 -0.0865 -0.0929
35323SOL    HW2 8349   7.981   7.149   9.552 -0.3608 -0.9325 -0.9034
35324SOL     OW 8350   0.577   5.235   3.796  0.3110  0.1702 -0.2878
35324SOL    HW1 8351   0.595   5.326   3.773 -2.9442  0.2159 -3.5145
35324SOL    HW2 8352   0.640   5.184   3.745  1.1497  0.5036  0.3791
35325SOL     OW 8353   2.440   8.772   9.715  0.1147  0.1289  0.0952
35325SOL    HW1 8354   2.376   8.753   9.647 -1.8227  1.0737  1.5739
35325SOL    HW2 8355   2.393   8.758   9.797  1.8582  0.7014  1.2499
35326SOL     OW 8356   8.977   9.880   8.229 -0.2681 -0.2041 -0.1869
35326SOL    HW1 8357   8.953   9.973   8.223 -1.8732 -0.6463 -1.3770
35326SOL    HW2 8358   8.895   9.833   8.214 -0.1535 -1.8751  3.4241
35327SOL     OW 8359   6.206  10.117   4.412  0.0699 -0.3223  0.3292
35327SOL    HW1 8360   6.214  10.168   4.332 -1.0470 -0.5320  0.0704
35327SOL    HW2 8361   6.164  10.177   4.474  2.5530  0.4645  1.3750
35328SOL     OW 8362   0.239   8.358   9.968 -0.4489 -0.2999 -0.0038
35328SOL    HW1 8363   0.151   8.395   9.971 -0.8004 -1.0644  3.2445
35328SOL    HW2 8364   0.226   8.266   9.950 -0.4663 -0.5780  1.2826
35329SOL     OW 8365   9.999   8.840   0.475  0.4615  0.1993 -0.3003
35329SOL    HW1 8366  10.017   8.798   0.391  0.5875  3.0355 -1.8525
35329SOL    HW2 8367   9.929   8.902   0.455  0.8249  1.2838  1.5750
35330SOL     OW 8368   9.520   4.027   7.564 -0.0530  0.0850  0.6453
35330SOL    HW1 8369   9.445   4.033   7.505 -0.6888 -1.2026  1.3069
35330SOL    HW2 8370   9.485   4.047   7.650 -0.0149 -2.0644  1.2176
35331SOL     OW 8371   9.884   0.482   6.352  0.1047  0.4948  0.4133
35331SOL    HW1 8372   9.882   0.459   6.259 -0.1055  2.4690 -0.1309
35331SOL    HW2 8373   9.792   0.483   6.379  0.2153 -1.0942  0.9657
35332SOL     OW 8374   0.458   0.213   6.652 -0.2931  0.5637  0.1660
35332SOL    HW1 8375   0.448   0.155   6.577 -2.4896  2.1784 -0.9053
35332SOL    HW2 8376   0.536   0.181   6.698  0.0687 -1.5606 -1.7945
35333SOL     OW 8377   0.463   5.087   3.144 -0.0415  0.1694  0.3859
35333SOL    HW1 8378   0.417   5.155   3.095 -1.3747 -0.8834  0.1099
35333SOL    HW2 8379   0.518   5.044   3.079 -0.2815  0.0804  0.2374
35334SOL     OW 8380   1.486   7.520   1.340  0.6287 -0.0336 -0.3233
35334SOL    HW1 8381   1.579   7.506   1.357  0.4445 -1.5693 -0.4486
35334SOL    HW2 8382   1.475   7.615   1.342  1.7617  0.1004  2.0059
35335SOL     OW 8383   9.050   4.002   0.064 -0.1687  0.3389  0.1593
35335SOL    HW1 8384   8.976   3.947   0.090  0.4503 -2.1924 -2.7400
35335SOL    HW2 8385   9.011   4.070   0.010 -0.4920 -1.6286 -2.2996
35336SOL     OW 8386   0.821   7.127  10.162  0.1011 -0.2130 -0.1656
35336SOL    HW1 8387   0.867   7.050  10.197  0.8485 -0.3286 -1.3619
35336SOL    HW2 8388   0.811   7.184  10.238 -0.2768 -1.3858  0.7044
35337SOL     OW 8389   0.675   4.224   5.542  0.2017  0.0416 -0.1637
35337SOL    HW1 8390   0.641   4.135   5.542  1.0224 -0.3490 -2.4869
35337SOL    HW2 8391   0.677   4.250   5.634  1.4542 -2.9208  0.7374
35338SOL     OW 8392   0.360   4.990   5.131  0.7656 -0.6731  0.0401
35338SOL    HW1 8393   0.314   4.935   5.067  0.6711 -1.0089  0.3881
35338SOL    HW2 8394   0.453   4.970   5.117  0.7896 -0.1859 -0.4920
35339SOL     OW 8395   5.835   3.233   2.404  0.2798 -1.0201 -0.3789
35339SOL    HW1 8396   5.913   3.225   2.348  0.8479  1.7458 -0.1094
35339SOL    HW2 8397   5.769   3.272   2.346 -0.4507 -1.9707 -0.1990
35340SOL     OW 8398   7.191   5.416   8.399 -0.1511 -0.3365 -0.4992
35340SOL    HW1 8399   7.099   5.441   8.407  0.0861  1.1558 -1.9426
35340SOL    HW2 8400   7.236   5.468   8.467 -0.2750 -0.4335 -0.3440
35341SOL     OW 8401   4.282   5.981   0.219 -0.2138 -0.0752  0.3477
35341SOL    HW1 8402   4.196   5.997   0.181 -0.2695 -0.6960  0.2092
35341SOL    HW2 8403   4.341   5.976   0.144 -0.4501 -2.1367  0.2363
35342SOL     OW 8404   4.401   0.793   0.968  0.0611 -0.3336  0.0056
35342SOL    HW1 8405   4.437   0.843   0.895  0.9850  0.4486  0.9549
35342SOL    HW2 8406   4.470   0.794   1.034 -0.6948 -1.1423  0.8390
35343SOL     OW 8407   0.449   2.707   8.475  0.1839 -0.2535 -0.1567
35343SOL    HW1 8408   0.497   2.718   8.393  1.4942  1.6122  0.7934
35343SOL    HW2 8409   0.516   2.716   8.543 -1.1939  0.3262  1.1729
35344SOL     OW 8410   9.520   1.511   5.917 -0.6248  0.2488  0.1793
35344SOL    HW1 8411   9.431   1.478   5.924 -0.4243 -0.7824 -1.5688
35344SOL    HW2 8412   9.522   1.557   5.833  0.3630  0.6752  0.4203
35345SOL     OW 8413   8.509   1.302   8.249  0.5115  0.4586  0.1480
35345SOL    HW1 8414   8.466   1.332   8.329 -0.0578  0.7733 -0.2698
35345SOL    HW2 8415   8.559   1.225   8.277  1.0952  1.1260  0.9936
35346SOL     OW 8416   5.007   4.592  10.508  0.0415  0.1869  0.9070
35346SOL    HW1 8417   4.937   4.652  10.531 -2.0617 -1.9364  0.4813
35346SOL    HW2 8418   4.970   4.505  10.522  2.7644 -1.0539  1.0562
35347SOL     OW 8419   0.986   2.853   0.995 -0.5736 -0.1120  0.2217
35347SOL    HW1 8420   1.010   2.783   1.055  0.1981  0.0478  0.1140
35347SOL    HW2 8421   0.969   2.809   0.912  3.8953  0.0248 -1.0676
35348SOL     OW 8422   6.635   6.963   0.098 -0.7426 -0.2396 -0.3230
35348SOL    HW1 8423   6.679   7.011   0.168  0.2486 -2.0916  0.3944
35348SOL    HW2 8424   6.561   6.921   0.140 -0.4351 -0.9599 -0.4956
35349SOL     OW 8425   9.704   2.704   6.027 -0.0023  0.4999 -0.6520
35349SOL    HW1 8426   9.615   2.676   6.002 -0.2624  1.4445 -0.8382
35349SOL    HW2 8427   9.707   2.693   6.122 -0.3419  0.5163 -0.6375
35350SOL     OW 8428   6.612   9.175   6.116 -0.1271  0.2609  0.1832
35350SOL    HW1 8429   6.610   9.087   6.152  1.8544  0.6450  1.4218
35350SOL    HW2 8430   6.592   9.232   6.191 -0.1536  0.8972 -0.3021
35351SOL     OW 8431   0.192   8.108   3.059 -0.0537  0.1567 -0.0457
35351SOL    HW1 8432   0.174   8.155   2.978  1.6715  1.2337  0.1346
35351SOL    HW2 8433   0.278   8.067   3.043  0.2960  0.3646  1.2054
35352SOL     OW 8434  10.633  10.488   2.908 -0.0154  0.1157  0.2978
35352SOL    HW1 8435  10.675  10.425   2.967  1.3932 -0.3994 -1.1469
35352SOL    HW2 8436  10.594  10.434   2.839 -0.0225  0.7522 -0.2144
35353SOL     OW 8437   9.554   3.871  10.651  0.1073  0.0976 -0.1169
35353SOL    HW1 8438   9.462   3.872  10.679 -0.0884 -2.2241 -0.4442
35353SOL    HW2 8439   9.563   3.948  10.596 -0.9515  1.7559  1.8863
35354SOL     OW 8440   5.811   7.349   2.193  0.1631  0.6187 -0.0570
35354SOL    HW1 8441   5.825   7.444   2.197 -1.4294  0.8688  0.1578
35354SOL    HW2 8442   5.754   7.330   2.267  2.4353 -0.9267  1.4154
35355SOL     OW 8443   2.958   8.900   4.162 -0.5884  0.1740 -0.0398
35355SOL    HW1 8444   2.918   8.813   4.168  0.3806 -0.4119 -1.4714
35355SOL    HW2 8445   2.969   8.914   4.068  1.9558  0.5767  0.2674
35356SOL     OW 8446   0.400   1.209   7.913 -0.2649  0.4523 -0.0254
35356SOL    HW1 8447   0.485   1.249   7.893 -0.2023  0.3091 -0.0442
35356SOL    HW2 8448   0.337   1.262   7.865 -0.0087 -0.6292 -1.6334
35357SOL     OW 8449   5.439   3.961   1.633  0.0274 -0.5900  0.0395
35357SOL    HW1 8450   5.370   4.018   1.666  0.5720 -0.4032  0.8954
35357SOL    HW2 8451   5.394   3.887   1.593 -0.6570 -1.1044  1.7024
35358SOL     OW 8452   8.615   3.019   3.844  0.8476 -0.2751  0.3171
35358SOL    HW1 8453   8.693   3.075   3.850  0.5180  0.3538 -0.8398
35358SOL    HW2 8454   8.599   3.011   3.750 -0.8367  0.1078  0.5453
35359SOL     OW 8455   5.113   2.172   1.966 -0.3375  0.7031  0.0061
35359SOL    HW1 8456   5.127   2.110   2.037 -0.7007  0.5266 -0.0735
35359SOL    HW2 8457   5.194   2.222   1.961 -0.4717  1.0066  0.8274
35360SOL     OW 8458   1.497   9.002   3.932 -0.0476 -0.2916 -0.3367
35360SOL    HW1 8459   1.504   9.008   3.837 -0.9087 -1.2893 -0.4806
35360SOL    HW2 8460   1.525   9.088   3.963  2.1225 -0.5792 -1.3503
35361SOL     OW 8461   5.855   1.990   7.047 -0.2459  0.3843  0.2800
35361SOL    HW1 8462   5.927   1.984   6.984 -1.0822 -0.8588 -0.6059
35361SOL    HW2 8463   5.780   2.017   6.995 -0.6554  0.6396  0.9990
35362SOL     OW 8464   0.805   1.948   9.423  0.0351 -0.5768  0.0202
35362SOL    HW1 8465   0.793   2.035   9.383  0.4057 -0.5688 -0.0774
35362SOL    HW2 8466   0.776   1.887   9.355 -0.9625 -0.5157  0.3624
35363SOL     OW 8467   4.325   0.398   4.316  0.2049  0.0330 -0.2533
35363SOL    HW1 8468   4.355   0.343   4.244 -1.6363 -0.6296 -0.5820
35363SOL    HW2 8469   4.263   0.459   4.275 -0.1056  0.3066  0.5960
35364SOL     OW 8470   3.451   7.332   6.675 -0.0462 -0.2733  0.2551
35364SOL    HW1 8471   3.518   7.361   6.614 -0.4099 -1.0012 -0.5059
35364SOL    HW2 8472   3.473   7.241   6.695 -1.4515 -0.9352 -0.9616
35365SOL     OW 8473   4.037   2.560   7.418  0.1462  0.4053 -0.2216
35365SOL    HW1 8474   4.088   2.564   7.498  0.1626 -0.6746 -0.1679
35365SOL    HW2 8475   3.977   2.634   7.424  1.1531  1.2179  0.0795
35366SOL     OW 8476  10.595   5.002   1.985  0.2921 -0.6169  0.4536
35366SOL    HW1 8477  10.633   5.035   1.904 -0.1547 -1.5578 -0.1626
35366SOL    HW2 8478  10.592   5.078   2.043  1.1087 -0.0497 -0.2206
35367SOL     OW 8479   5.274   5.636   4.986  0.2766  0.1077  0.0446
35367SOL    HW1 8480   5.347   5.640   4.925  0.1841  1.6380 -0.0144
35367SOL    HW2 8481   5.287   5.711   5.044  0.1256 -1.0423  1.6481
35368SOL     OW 8482   3.214   0.846   7.839  0.1142  0.8514  0.4785
35368SOL    HW1 8483   3.189   0.834   7.748 -0.0705  0.6651  0.5526
35368SOL    HW2 8484   3.182   0.934   7.861 -0.0337  0.8103  0.4278
35369SOL     OW 8485   8.933   2.799   3.635  0.6635 -0.1705  0.4346
35369SOL    HW1 8486   8.969   2.862   3.698 -0.0318  1.3293 -0.5944
35369SOL    HW2 8487   8.840   2.797   3.654  0.2638  1.0892 -1.1263
35370SOL     OW 8488   6.732   4.133   6.466  0.0836 -0.0784 -0.0529
35370SOL    HW1 8489   6.680   4.160   6.541 -0.0992 -0.8794  0.1268
35370SOL    HW2 8490   6.732   4.037   6.471 -0.0425 -0.1483 -1.1506
35371SOL     OW 8491   8.560   7.544   4.710  0.4788 -0.1793  0.2844
35371SOL    HW1 8492   8.639   7.568   4.661 -0.4669  0.1113 -1.1688
35371SOL    HW2 8493   8.589   7.540   4.801  1.8371  1.4085 -0.0149
35372SOL     OW 8494   1.778   2.214   2.818  0.4604  0.0246  0.4359
35372SOL    HW1 8495   1.813   2.194   2.731 -0.6088 -0.6589  0.1455
35372SOL    HW2 8496   1.686   2.188   2.814  0.3593  0.0895  1.7348
35373SOL     OW 8497  10.357   7.479   2.139 -0.3013 -0.6241  0.1292
35373SOL    HW1 8498  10.274   7.520   2.111 -0.8553  0.0303  2.5466
35373SOL    HW2 8499  10.414   7.488   2.063 -2.1368 -0.2271 -1.2844
35374SOL     OW 8500   4.325  10.472   9.898  0.0377 -0.0859  0.3997
35374SOL    HW1 8501   4.265  10.446   9.828  1.3713  0.4187 -0.9817
35374SOL    HW2 8502   4.360  10.557   9.870  1.5387 -0.4536  1.0507
35375SOL     OW 8503   1.759   0.399   1.330 -0.2170 -0.1918 -0.5409
35375SOL    HW1 8504   1.771   0.494   1.331 -0.7865 -0.1163 -0.3442
35375SOL    HW2 8505   1.705   0.383   1.253 -0.1153 -0.3532 -0.5767
35376SOL     OW 8506   4.516   2.225   2.660 -0.2810 -0.6605 -0.0549
35376SOL    HW1 8507   4.549   2.147   2.704 -0.4393 -0.1737  0.9665
35376SOL    HW2 8508   4.473   2.275   2.729 -0.4054  0.2094 -0.7399
35377SOL     OW 8509   3.657   8.700   8.041  0.3531  0.5077  0.3827
35377SOL    HW1 8510   3.661   8.614   8.000  1.6936  1.1059 -0.8393
35377SOL    HW2 8511   3.746   8.716   8.073  0.0157  1.2529  0.9722
35378SOL     OW 8512   3.172   3.214   7.579 -0.0256  0.3414  0.3913
35378SOL    HW1 8513   3.102   3.150   7.587  0.0601  0.0937 -0.6437
35378SOL    HW2 8514   3.228   3.199   7.654 -0.7610  0.1535  0.9172
35379SOL     OW 8515   3.182   7.860   9.443 -0.0838 -0.0536  0.2134
35379SOL    HW1 8516   3.107   7.876   9.500 -1.6382  0.4500 -1.8655
35379SOL    HW2 8517   3.149   7.803   9.375  0.8725  1.6749 -1.8102
35380SOL     OW 8518   5.857  10.677   7.030 -0.5168  0.1013 -0.4922
35380SOL    HW1 8519   5.771  10.665   6.989 -0.6775  1.1284 -0.4682
35380SOL    HW2 8520   5.905  10.732   6.969  0.3745 -0.9972 -0.8221
35381SOL     OW 8521   0.891   2.509   2.318  0.4327 -0.1348 -0.1606
35381SOL    HW1 8522   0.937   2.587   2.288  0.7034  0.0042  0.6005
35381SOL    HW2 8523   0.856   2.533   2.404 -0.4007 -0.4974 -0.3854
35382SOL     OW 8524   8.946   7.039   5.539  0.0413  0.6294  0.7985
35382SOL    HW1 8525   8.998   7.117   5.559  0.4483  1.2983 -2.3469
35382SOL    HW2 8526   8.941   7.037   5.443 -0.1696 -3.0885  0.7254
35383SOL     OW 8527   3.054   8.160   8.859 -0.1555  0.4892  0.1155
35383SOL    HW1 8528   3.028   8.250   8.841 -0.8607  0.4807  1.0216
35383SOL    HW2 8529   3.045   8.151   8.954 -0.6270 -0.6950 -0.0297
35384SOL     OW 8530   5.891   6.166   2.152 -0.0814  0.0191  0.4359
35384SOL    HW1 8531   5.882   6.079   2.190 -1.8666 -0.9235 -1.8794
35384SOL    HW2 8532   5.976   6.164   2.108  0.1499 -0.3143  0.8908
35385SOL     OW 8533   3.876   3.333   8.088  0.0667  0.0927  0.6461
35385SOL    HW1 8534   3.957   3.356   8.042  0.4182 -3.2202 -0.7037
35385SOL    HW2 8535   3.860   3.242   8.064 -4.3882  0.6931  0.4546
35386SOL     OW 8536   5.638   0.793   1.394  0.8608  0.3483  0.1519
35386SOL    HW1 8537   5.615   0.867   1.338 -0.8681 -0.4010 -0.2040
35386SOL    HW2 8538   5.635   0.716   1.336  2.7568 -0.0126  0.4840
35387SOL     OW 8539   8.732   5.174   1.030  0.5231  0.1810 -0.0462
35387SOL    HW1 8540   8.686   5.143   0.953  2.0684 -0.9166 -0.5719
35387SOL    HW2 8541   8.810   5.218   0.996  1.0584 -0.0341  0.8687
35388SOL     OW 8542   4.503   3.129   1.609 -0.1999  0.6327 -0.1157
35388SOL    HW1 8543   4.571   3.102   1.670 -1.7458  0.1569  1.4983
35388SOL    HW2 8544   4.494   3.055   1.548  0.8805  0.8219 -0.5243
35389SOL     OW 8545   0.047   5.819   9.764  0.1987 -0.3513 -0.0120
35389SOL    HW1 8546   0.122   5.827   9.706 -1.4461 -1.1458 -2.3645
35389SOL    HW2 8547   0.057   5.733   9.805  1.3753  0.2195  0.9534
35390SOL     OW 8548   1.433  10.623   8.293 -0.3880 -0.1108 -0.2910
35390SOL    HW1 8549   1.493  10.652   8.225  0.5951 -1.2233  0.0635
35390SOL    HW2 8550   1.489  10.606   8.369 -1.1930 -0.7740  0.1772
35391SOL     OW 8551   2.582   0.282   0.380  0.0629 -0.1299  0.2126
35391SOL    HW1 8552   2.601   0.326   0.463  0.2985  1.8306 -0.8149
35391SOL    HW2 8553   2.664   0.239   0.357  0.9382  1.7156 -0.3442
35392SOL     OW 8554   7.508   5.537   2.679 -0.1741 -0.1854 -0.2881
35392SOL    HW1 8555   7.545   5.564   2.594 -2.9819 -0.7553 -1.8256
35392SOL    HW2 8556   7.564   5.465   2.708  1.9738  1.2505 -0.6690
35393SOL     OW 8557   1.197   5.330   6.770  0.2486  0.1125 -0.1050
35393SOL    HW1 8558   1.184   5.418   6.734  0.6572  0.1391 -0.1875
35393SOL    HW2 8559   1.110   5.305   6.804 -0.2127 -0.0269 -1.3468
35394SOL     OW 8560   8.276   1.876   5.856 -0.0371 -0.4344  0.0975
35394SOL    HW1 8561   8.281   1.852   5.948 -0.7529 -0.1692  0.2115
35394SOL    HW2 8562   8.335   1.951   5.847  0.5165 -0.8484  0.1990
35395SOL     OW 8563   2.475   5.031   0.739 -0.1522 -0.1591 -0.4063
35395SOL    HW1 8564   2.404   5.002   0.796 -0.6818 -0.3524 -1.1447
35395SOL    HW2 8565   2.551   5.039   0.797 -1.2540  2.1435  0.8555
35396SOL     OW 8566   8.613   3.821   1.206 -0.3259  0.2274  0.1235
35396SOL    HW1 8567   8.520   3.802   1.220 -0.2070 -1.1292 -0.7628
35396SOL    HW2 8568   8.613   3.904   1.158 -1.1191 -0.0765 -0.4194
35397SOL     OW 8569   4.102   1.839   6.216  0.2450 -0.4631  0.3060
35397SOL    HW1 8570   4.114   1.872   6.305 -2.2933  1.0481  0.1824
35397SOL    HW2 8571   4.038   1.768   6.225  1.3256 -1.5275 -0.1454
35398SOL     OW 8572   7.717   6.376   8.480 -0.5182 -0.2474 -0.4614
35398SOL    HW1 8573   7.684   6.289   8.501  1.6822 -0.9579  0.3818
35398SOL    HW2 8574   7.761   6.366   8.395  1.9079 -0.6884  0.7383
35399SOL     OW 8575   3.934   1.364   0.836  0.3409  0.3395 -0.5508
35399SOL    HW1 8576   3.850   1.390   0.798 -0.1846  0.1607  0.4483
35399SOL    HW2 8577   3.963   1.290   0.783 -1.4196 -1.2906  0.6572
35400SOL     OW 8578   0.481   8.172   8.856 -0.5551  0.5516  0.1598
35400SOL    HW1 8579   0.491   8.127   8.940 -1.5356  0.8146  0.4203
35400SOL    HW2 8580   0.541   8.247   8.863 -1.9065  1.5802  1.3403
35401SOL     OW 8581   2.829   1.459   1.466  0.2842 -0.8656  0.4184
35401SOL    HW1 8582   2.911   1.409   1.459  1.7362  1.1411  1.9978
35401SOL    HW2 8583   2.829   1.493   1.555 -0.4565  2.1534 -0.6206
35402SOL     OW 8584   1.557   2.329   7.993 -0.7673  0.4227 -0.1244
35402SOL    HW1 8585   1.631   2.304   7.938 -0.5941  0.5064  0.0664
35402SOL    HW2 8586   1.552   2.425   7.984 -1.5492  0.3075 -1.0073
35403SOL     OW 8587   7.351   0.587   7.524 -0.1667  0.4965  0.5119
35403SOL    HW1 8588   7.431   0.598   7.576 -1.9320  4.0930  2.8980
35403SOL    HW2 8589   7.280   0.595   7.588 -2.4703  0.4635 -1.8754
35404SOL     OW 8590   4.986   2.031   1.200  0.1336 -0.1652 -0.2062
35404SOL    HW1 8591   5.044   2.108   1.200 -1.4832  1.1037  0.6552
35404SOL    HW2 8592   4.947   2.031   1.112  0.2938 -0.1329 -0.2785
35405SOL     OW 8593   5.249   2.488   2.285  0.3949  0.8920  0.6247
35405SOL    HW1 8594   5.324   2.466   2.230 -0.7225 -1.4245 -0.1175
35405SOL    HW2 8595   5.247   2.419   2.351 -2.4080 -0.5588 -0.8229
35406SOL     OW 8596   6.470   6.571   1.953 -0.1571 -0.0475 -0.1661
35406SOL    HW1 8597   6.510   6.656   1.932 -1.7236  1.0206  0.9769
35406SOL    HW2 8598   6.533   6.529   2.012  1.9486 -0.9730 -2.8264
35407SOL     OW 8599  10.291   4.338   4.513 -0.1425  0.1053  0.4369
35407SOL    HW1 8600  10.263   4.248   4.500 -1.9747  0.9082 -1.9947
35407SOL    HW2 8601  10.383   4.339   4.487  0.4750 -1.3677  2.3713
35408SOL     OW 8602   4.332   6.939  10.579 -0.2941 -0.2071  0.4866
35408SOL    HW1 8603   4.322   7.013  10.518 -0.1254 -1.0459 -0.5959
35408SOL    HW2 8604   4.249   6.892  10.573 -1.0525  0.7757  2.4440
35409SOL     OW 8605   2.182   4.850   4.496 -0.0929  0.2328 -0.1997
35409SOL    HW1 8606   2.156   4.758   4.504  0.3582 -0.0647 -1.7731
35409SOL    HW2 8607   2.272   4.853   4.528 -0.6322  0.4636  1.3665
35410SOL     OW 8608   1.787   1.214   1.099  0.8024 -0.5076 -0.3403
35410SOL    HW1 8609   1.870   1.220   1.051 -0.1484  0.7967 -1.9445
35410SOL    HW2 8610   1.794   1.280   1.167  0.5413  0.6717 -1.4187
35411SOL     OW 8611   9.848   4.751   4.595 -0.0664  0.0427  0.1212
35411SOL    HW1 8612   9.833   4.691   4.522 -1.7782  0.1815  0.3074
35411SOL    HW2 8613   9.933   4.791   4.576 -0.5502  0.2398 -1.9301
35412SOL     OW 8614  10.355   6.887   3.126 -0.0744  1.0162 -0.0125
35412SOL    HW1 8615  10.336   6.898   3.033  2.1621  1.0138 -0.5334
35412SOL    HW2 8616  10.411   6.962   3.148 -0.9101  1.2517  1.4595
35413SOL     OW 8617   2.764   0.638   7.515  0.7518 -0.0899 -0.5313
35413SOL    HW1 8618   2.794   0.687   7.592 -0.9049  1.6759 -0.9510
35413SOL    HW2 8619   2.779   0.546   7.538 -1.1432  0.2483  2.6138
35414SOL     OW 8620   0.845   3.696   8.358 -0.2355  0.7949  0.2771
35414SOL    HW1 8621   0.757   3.723   8.385 -0.4854  1.0060 -0.6977
35414SOL    HW2 8622   0.889   3.779   8.337 -1.2462  0.5863 -3.4649
35415SOL     OW 8623   9.623  10.181  10.159  0.0169 -0.3119  0.2122
35415SOL    HW1 8624   9.567  10.105  10.144  0.4629 -1.5671  3.9419
35415SOL    HW2 8625   9.710  10.153  10.132 -0.2747 -0.0272 -1.1143
35416SOL     OW 8626   5.443   0.561   1.684 -0.3086 -0.2943  0.1605
35416SOL    HW1 8627   5.490   0.480   1.706 -0.8807 -0.4092  1.0365
35416SOL    HW2 8628   5.481   0.627   1.743 -0.5537 -0.1646  0.1748
35417SOL     OW 8629   4.800   1.346   9.582 -0.2079 -0.4227  0.5504
35417SOL    HW1 8630   4.851   1.348   9.501 -0.4560 -1.4854  0.3482
35417SOL    HW2 8631   4.833   1.420   9.633 -0.0936  0.3045 -0.5390
35418SOL     OW 8632   5.315   9.068   0.069  0.3910  0.4205 -0.7834
35418SOL    HW1 8633   5.238   9.049   0.123  1.1963 -0.6912  0.0112
35418SOL    HW2 8634   5.324   9.163   0.073  0.6187  0.3544  1.3269
35419SOL     OW 8635   6.673  10.705   6.064 -0.0394  0.1964  0.2640
35419SOL    HW1 8636   6.767  10.724   6.059  0.3089 -1.2327  1.0797
35419SOL    HW2 8637   6.633  10.772   6.008  1.5078  0.4554 -0.5952
35420SOL     OW 8638   6.449   1.894   0.209  0.1184  0.0159 -0.2566
35420SOL    HW1 8639   6.473   1.828   0.145 -0.0726 -0.5684  0.2711
35420SOL    HW2 8640   6.456   1.850   0.293 -0.4222  0.5454  0.0704
35421SOL     OW 8641   1.202   9.448  10.630  0.1533 -0.3375  0.0031
35421SOL    HW1 8642   1.263   9.374  10.635  0.0623 -0.5937 -1.8502
35421SOL    HW2 8643   1.128   9.415  10.580  0.2282  1.0462 -1.1170
35422SOL     OW 8644   9.647  10.076   4.116 -0.1955 -0.2678  0.2290
35422SOL    HW1 8645   9.629  10.059   4.023 -0.0521 -0.6923  0.2740
35422SOL    HW2 8646   9.572  10.126   4.146 -0.5467 -0.6632  0.0322
35423SOL     OW 8647  10.517   0.651   4.529 -0.0243  0.1554  0.4870
35423SOL    HW1 8648  10.526   0.588   4.458  0.1715  0.1931  0.4767
35423SOL    HW2 8649  10.505   0.735   4.485  2.7583  0.6121  0.4183
35424SOL     OW 8650   4.804   6.702  10.329 -0.0833 -0.2128  0.2182
35424SOL    HW1 8651   4.773   6.643  10.260  0.1421  0.7754 -0.7468
35424SOL    HW2 8652   4.850   6.645  10.391  0.5855 -0.9797 -0.9601
35425SOL     OW 8653   5.742   8.088   7.575  0.2121 -0.4125  0.3601
35425SOL    HW1 8654   5.748   8.040   7.658 -1.2611  0.0428  0.7620
35425SOL    HW2 8655   5.664   8.051   7.532 -0.3187  0.8590  0.1911
35426SOL     OW 8656   6.852   4.654   0.123  0.1868  0.3630  0.3471
35426SOL    HW1 8657   6.895   4.623   0.202 -1.4421  0.3408  1.2796
35426SOL    HW2 8658   6.897   4.735   0.100  0.6567  0.3907  1.3320
35427SOL     OW 8659   7.741   9.129   9.164 -0.0932 -0.3123 -0.2150
35427SOL    HW1 8660   7.822   9.173   9.138 -1.4570  2.7704  0.2996
35427SOL    HW2 8661   7.752   9.111   9.257 -0.4184  1.3806  0.1994
35428SOL     OW 8662   3.766   4.808   2.430 -0.2085  0.2174 -0.2761
35428SOL    HW1 8663   3.796   4.874   2.493  1.3132 -0.7890  0.1214
35428SOL    HW2 8664   3.811   4.832   2.349 -0.8896  0.5651 -0.5561
35429SOL     OW 8665  10.174   4.094   3.308 -0.4955  0.1148 -0.3521
35429SOL    HW1 8666  10.118   4.048   3.246 -0.0210  3.4495 -3.5934
35429SOL    HW2 8667  10.132   4.179   3.321 -0.4415 -0.2729  3.9544
35430SOL     OW 8668   2.181   5.694   2.283 -0.7290  0.4194  0.2265
35430SOL    HW1 8669   2.198   5.693   2.377 -0.4934  0.1543  0.1818
35430SOL    HW2 8670   2.243   5.758   2.248  2.1349 -2.3518 -0.2856
35431SOL     OW 8671   7.437   7.619   4.154 -0.4929  0.3373 -0.1499
35431SOL    HW1 8672   7.391   7.667   4.085  0.9586  1.3883 -0.4340
35431SOL    HW2 8673   7.501   7.681   4.188  1.3382 -1.2956 -0.4023
35432SOL     OW 8674   2.847  10.647   6.371  0.1066 -0.0374  0.0981
35432SOL    HW1 8675   2.853  10.661   6.465  3.0704 -1.9947  0.3258
35432SOL    HW2 8676   2.776  10.584   6.361 -1.4489  1.5275  0.7545
35433SOL     OW 8677   3.674   4.313   7.467 -0.3102 -0.4536  0.1117
35433SOL    HW1 8678   3.663   4.305   7.372 -0.3160  0.2613  0.0502
35433SOL    HW2 8679   3.738   4.383   7.479  0.2154 -1.0056  0.6222
35434SOL     OW 8680   1.582   2.976   2.720  0.0549 -0.2334  0.3956
35434SOL    HW1 8681   1.516   3.044   2.738 -0.7117 -0.5196 -1.1316
35434SOL    HW2 8682   1.556   2.903   2.776  0.6879  0.5862  1.8037
35435SOL     OW 8683   8.983   8.873   5.956 -0.2056  0.7766 -0.7913
35435SOL    HW1 8684   8.975   8.867   6.051  0.2978  1.6510 -0.6804
35435SOL    HW2 8685   9.076   8.890   5.941  0.2531 -1.9334 -1.6044
35436SOL     OW 8686   3.272   5.556   9.506  0.0286  0.0725 -0.1399
35436SOL    HW1 8687   3.284   5.479   9.562  2.9573  0.5756  0.1034
35436SOL    HW2 8688   3.191   5.539   9.459 -0.8303 -1.8919  1.8533
35437SOL     OW 8689   3.207   2.781   0.106 -0.3047 -0.0945 -0.1702
35437SOL    HW1 8690   3.141   2.789   0.037 -0.7127 -1.4402  0.0331
35437SOL    HW2 8691   3.222   2.871   0.135 -1.0379  0.3685 -1.1591
35438SOL     OW 8692   1.055   3.530   2.161  0.0088 -0.0159 -0.2138
35438SOL    HW1 8693   0.985   3.469   2.137 -0.8237  0.8817 -0.1608
35438SOL    HW2 8694   1.097   3.551   2.078 -2.9618  3.2008 -1.1811
35439SOL     OW 8695   0.319   6.422   3.118  0.0504  0.8367 -0.3573
35439SOL    HW1 8696   0.396   6.469   3.087 -0.5857  1.5923 -0.8449
35439SOL    HW2 8697   0.288   6.374   3.041  0.2397  0.2582 -0.0698
35440SOL     OW 8698   4.778   9.404   2.371  0.0940 -0.3245 -0.8192
35440SOL    HW1 8699   4.733   9.363   2.297  2.3831  0.9773 -3.0743
35440SOL    HW2 8700   4.844   9.339   2.398 -0.1852 -0.4541 -0.4267
35441SOL     OW 8701   0.866   3.211   6.243 -0.1116  0.9848 -0.3410
35441SOL    HW1 8702   0.863   3.115   6.244  0.1767  0.9580 -1.0737
35441SOL    HW2 8703   0.948   3.232   6.198  0.0371  1.5769  0.1974
35442SOL     OW 8704   5.407  10.576   0.904 -0.1536  0.7093  0.6080
35442SOL    HW1 8705   5.378  10.648   0.846 -0.2990  1.2072  1.2878
35442SOL    HW2 8706   5.448  10.620   0.978  1.9191  0.0242 -0.0746
35443SOL     OW 8707   6.287   9.660   8.952 -0.2073 -0.1824 -0.5264
35443SOL    HW1 8708   6.241   9.591   9.001 -0.2092 -0.0654 -0.3600
35443SOL    HW2 8709   6.263   9.646   8.861  2.1289 -2.2616 -0.9317
35444SOL     OW 8710   0.220   5.873   3.159 -0.2793  0.6883  0.2792
35444SOL    HW1 8711   0.169   5.933   3.214  0.3819  1.6043 -0.0805
35444SOL    HW2 8712   0.203   5.902   3.070 -2.0834 -1.3693 -0.1347
35445SOL     OW 8713   6.651   3.682   7.701  0.3188 -0.0977 -0.0569
35445SOL    HW1 8714   6.723   3.706   7.760 -0.3219 -1.8897  1.5494
35445SOL    HW2 8715   6.685   3.607   7.652 -0.1949 -0.4865  0.1826
35446SOL     OW 8716   2.622   0.931   5.979  0.2459 -0.3852 -0.0203
35446SOL    HW1 8717   2.660   0.943   6.066  0.5960 -0.1566 -0.2018
35446SOL    HW2 8718   2.530   0.955   5.990  0.1461 -0.9453  0.4217
35447SOL     OW 8719   6.340   0.500   4.089  1.2258  0.4622  0.4385
35447SOL    HW1 8720   6.290   0.448   4.152  1.9755 -1.1292 -0.2089
35447SOL    HW2 8721   6.287   0.578   4.073 -0.3987 -0.5433  0.7667
35448SOL     OW 8722   0.255   5.431   0.065 -0.4948  0.1953 -0.1255
35448SOL    HW1 8723   0.298   5.368   0.123 -1.9149 -0.0606  0.7030
35448SOL    HW2 8724   0.162   5.408   0.070 -0.7038  0.3210 -2.3330
35449SOL     OW 8725   4.199   7.558  10.186  0.2354 -0.5171  0.2006
35449SOL    HW1 8726   4.210   7.609  10.105 -0.3045 -0.7388 -0.0143
35449SOL    HW2 8727   4.113   7.583  10.218  0.0360 -1.1693  0.1843
35450SOL     OW 8728   8.526   0.485   4.824  0.3017 -0.0865 -0.3537
35450SOL    HW1 8729   8.439   0.450   4.804 -0.3415  0.9020  0.6565
35450SOL    HW2 8730   8.542   0.549   4.755  0.8614 -1.2476 -1.3576
35451SOL     OW 8731   6.170   0.048   0.552  0.2354  0.3251 -0.4561
35451SOL    HW1 8732   6.264   0.055   0.532  0.8091 -1.1738  1.4830
35451SOL    HW2 8733   6.138  -0.017   0.490  1.0177 -0.9242  0.4109
35452SOL     OW 8734   4.698   3.234   5.946 -0.2906 -0.0257 -0.5330
35452SOL    HW1 8735   4.718   3.288   5.869  2.6559 -0.5104 -0.2411
35452SOL    HW2 8736   4.641   3.165   5.913 -0.7861  0.9596 -1.8046
35453SOL     OW 8737   2.034   2.465   6.460 -0.5378 -0.4535 -0.5207
35453SOL    HW1 8738   2.119   2.426   6.437 -0.2438 -0.2039  0.1136
35453SOL    HW2 8739   1.974   2.434   6.391 -0.0754 -1.1479 -0.6262
35454SOL     OW 8740   3.731   1.193   6.325  0.4039  0.2245  0.2228
35454SOL    HW1 8741   3.775   1.266   6.370 -1.5531  0.8195  1.3095
35454SOL    HW2 8742   3.650   1.180   6.375  0.6716 -2.7226  0.0655
35455SOL     OW 8743   9.425   4.267   5.375 -0.0886 -0.1397 -0.0254
35455SOL    HW1 8744   9.378   4.197   5.331  1.1119 -2.1500  1.6812
35455SOL    HW2 8745   9.486   4.301   5.309  0.6081 -2.0162 -0.4225
35456SOL     OW 8746   0.908   0.874   1.723  0.1064  0.4106 -0.5849
35456SOL    HW1 8747   0.926   0.899   1.632 -1.7285 -1.7321 -1.6413
35456SOL    HW2 8748   0.813   0.874   1.729  0.0764 -2.4481  0.3715
35457SOL     OW 8749   2.350   2.142   6.277  0.4944  0.1737 -1.1024
35457SOL    HW1 8750   2.330   2.072   6.214  1.5044 -1.6234  0.4764
35457SOL    HW2 8751   2.426   2.110   6.325  1.3998  2.6883 -0.7383
35458SOL     OW 8752   0.704   4.850   2.500  0.1814 -0.3061 -0.9080
35458SOL    HW1 8753   0.655   4.798   2.436 -0.8065 -1.3777  0.6419
35458SOL    HW2 8754   0.668   4.824   2.584  1.2294  1.2853  0.0894
35459SOL     OW 8755   4.503   5.912   6.217  0.1410 -0.2688  0.2117
35459SOL    HW1 8756   4.538   5.960   6.293  1.3630 -0.6371 -0.0925
35459SOL    HW2 8757   4.572   5.849   6.196 -0.8549 -1.2130 -0.2519
35460SOL     OW 8758   5.250   0.140   1.651  0.1546  0.5294 -0.5768
35460SOL    HW1 8759   5.341   0.112   1.644  0.4077  1.3432 -0.6288
35460SOL    HW2 8760   5.214   0.086   1.723  0.5942  0.0228 -0.7302
35461SOL     OW 8761   9.459   0.327   9.156  0.3316  0.8735  0.5730
35461SOL    HW1 8762   9.406   0.299   9.231  0.6179 -1.2605  0.0451
35461SOL    HW2 8763   9.397   0.371   9.098 -0.3205  0.6921  1.1172
35462SOL     OW 8764   3.412   2.707   8.606 -0.3436  0.2283 -0.2378
35462SOL    HW1 8765   3.484   2.731   8.547 -1.1377  0.9153 -0.9514
35462SOL    HW2 8766   3.375   2.790   8.635 -2.3923 -0.0337 -1.8283
35463SOL     OW 8767   7.307   1.295  10.325  0.1894 -0.7567  0.4565
35463SOL    HW1 8768   7.287   1.344  10.405 -0.2332 -1.3990  0.7503
35463SOL    HW2 8769   7.337   1.362  10.263  2.2697 -0.4577  1.6987
35464SOL     OW 8770  10.071   4.793   0.723  0.0385  0.5783 -0.5795
35464SOL    HW1 8771  10.050   4.742   0.645 -2.4155  0.0526  0.3518
35464SOL    HW2 8772  10.051   4.735   0.796  0.9800  1.5356  0.4721
35465SOL     OW 8773   7.203   9.242   5.736  0.2289 -0.7888 -0.0645
35465SOL    HW1 8774   7.248   9.157   5.735  1.4611 -0.1564 -1.5962
35465SOL    HW2 8775   7.269   9.304   5.707 -1.1045  0.4821 -0.4667
35466SOL     OW 8776   1.985   3.798   9.669  0.2119  0.0751  0.1193
35466SOL    HW1 8777   1.933   3.722   9.644 -0.0439 -0.6598  2.6158
35466SOL    HW2 8778   1.929   3.848   9.728  2.2110 -0.7893  2.9891
35467SOL     OW 8779   6.682   4.879   0.628 -0.0873  0.5861  0.4141
35467SOL    HW1 8780   6.618   4.808   0.627  0.8867 -0.3586 -1.1802
35467SOL    HW2 8781   6.728   4.869   0.711 -0.9148  0.2367  0.8368
35468SOL     OW 8782   4.757   8.020   0.704  0.1194  0.3841 -0.1081
35468SOL    HW1 8783   4.693   7.949   0.704 -0.6372  1.0324 -1.2781
35468SOL    HW2 8784   4.821   7.994   0.637 -0.7252  1.2475 -1.3020
35469SOL     OW 8785   3.333   4.779   5.396 -0.6847  0.1176  0.1101
35469SOL    HW1 8786   3.244   4.816   5.395 -0.7963 -0.1265  0.7702
35469SOL    HW2 8787   3.390   4.854   5.414 -0.7386  0.2945 -0.4195
35470SOL     OW 8788   2.497   5.488   0.147  0.3928  0.1155 -0.4906
35470SOL    HW1 8789   2.438   5.472   0.221 -1.4359 -0.6605 -2.0139
35470SOL    HW2 8790   2.579   5.447   0.172 -0.3394 -0.5656  0.9076
35471SOL     OW 8791   0.577   0.160   7.277  0.1326  0.0242  0.0512
35471SOL    HW1 8792   0.560   0.068   7.295  3.0551 -0.5237  0.6112
35471SOL    HW2 8793   0.513   0.184   7.211  0.3999 -2.9477 -1.4717
35472SOL     OW 8794   4.784   1.990   5.895 -0.2212  0.2967  0.6917
35472SOL    HW1 8795   4.748   1.971   5.808  2.1513 -1.1243 -0.0661
35472SOL    HW2 8796   4.756   1.915   5.949  1.7229 -1.0167  0.0011
35473SOL     OW 8797   8.049   0.220   8.471 -0.3524  0.1183  0.0789
35473SOL    HW1 8798   7.962   0.190   8.445 -1.6390  1.3823  2.4993
35473SOL    HW2 8799   8.110   0.165   8.421 -2.5219 -1.7594 -0.6804
35474SOL     OW 8800   3.523   7.642   5.884 -0.8536  0.0015 -0.5650
35474SOL    HW1 8801   3.591   7.710   5.877 -0.5472 -0.4037 -1.8156
35474SOL    HW2 8802   3.482   7.641   5.798 -1.5128 -0.7372 -0.2511
35475SOL     OW 8803   0.688   4.508  10.036  0.8059 -0.1139  0.1906
35475SOL    HW1 8804   0.754   4.577  10.038  0.1125  0.6125 -0.8735
35475SOL    HW2 8805   0.624   4.534  10.103 -0.8797  1.8265 -2.0033
35476SOL     OW 8806   2.901   6.872   4.575  0.2411  0.5973 -0.0737
35476SOL    HW1 8807   2.970   6.925   4.615  0.1220  0.1505  0.7591
35476SOL    HW2 8808   2.825   6.931   4.570  0.6422  1.0579 -0.8964
35477SOL     OW 8809   5.522   9.738   0.870 -0.2205  0.1130  0.7390
35477SOL    HW1 8810   5.564   9.752   0.955  1.0982 -0.4665  0.2147
35477SOL    HW2 8811   5.595   9.737   0.807 -1.1280  0.1164 -0.3523
35478SOL     OW 8812   9.144   4.031   4.601  0.0547  0.6528  0.3492
35478SOL    HW1 8813   9.110   4.049   4.688  0.0667  3.1256 -0.0853
35478SOL    HW2 8814   9.082   4.074   4.542 -1.9360 -3.7628 -1.2420
35479SOL     OW 8815   0.901   8.400   5.420 -0.2290 -0.1492 -0.6116
35479SOL    HW1 8816   0.948   8.349   5.354 -0.1002 -0.6684 -0.1271
35479SOL    HW2 8817   0.959   8.474   5.440  1.2677 -1.7553  1.3221
35480SOL     OW 8818   7.348   0.470   9.642 -0.1532 -0.4583  0.3984
35480SOL    HW1 8819   7.323   0.382   9.667 -0.2544 -0.4131  0.4556
35480SOL    HW2 8820   7.273   0.525   9.665 -0.2632 -0.4217 -0.0490
35481SOL     OW 8821   7.214   3.918   4.741  0.0269  0.6590 -0.0156
35481SOL    HW1 8822   7.176   3.914   4.829 -0.1430  1.2243 -0.0629
35481SOL    HW2 8823   7.161   3.856   4.690  0.5580 -0.1861  0.4302
35482SOL     OW 8824   7.358   0.040   5.548 -0.3618 -0.1395  0.2904
35482SOL    HW1 8825   7.366  -0.054   5.533 -2.1859 -0.3635  0.5657
35482SOL    HW2 8826   7.313   0.073   5.470 -0.2163  0.4177  0.4393
35483SOL     OW 8827   0.794   1.579   0.907  0.6741  0.3695  0.6404
35483SOL    HW1 8828   0.722   1.608   0.850 -0.5119  0.1386  1.9729
35483SOL    HW2 8829   0.820   1.494   0.871 -3.1996 -2.1122  2.9376
35484SOL     OW 8830   2.679   9.821   2.179  0.3739  0.2971 -0.1413
35484SOL    HW1 8831   2.699   9.895   2.121  1.4883  0.2451  0.1661
35484SOL    HW2 8832   2.764   9.792   2.212 -0.2513  0.5662  1.8307
35485SOL     OW 8833   4.491   0.361   0.600 -0.4911 -0.7821  0.0376
35485SOL    HW1 8834   4.518   0.337   0.689  0.6770 -0.7164 -0.2921
35485SOL    HW2 8835   4.527   0.292   0.544 -1.5389 -1.0293 -0.3709
35486SOL     OW 8836   2.512   1.703   8.103  0.1972  0.4093  0.3704
35486SOL    HW1 8837   2.464   1.625   8.073 -1.5110  1.6844 -0.3535
35486SOL    HW2 8838   2.453   1.745   8.165  1.1030  1.1273  0.7578
35487SOL     OW 8839   0.794   8.172   7.058 -0.0568 -0.1264 -0.1795
35487SOL    HW1 8840   0.785   8.175   6.963  0.8546 -0.0182 -0.2659
35487SOL    HW2 8841   0.759   8.256   7.088 -0.9865 -0.4363 -0.3529
35488SOL     OW 8842  10.368   4.092   6.824  0.0594  0.3596  0.5036
35488SOL    HW1 8843  10.310   4.058   6.892  1.0674  0.7943  1.6204
35488SOL    HW2 8844  10.343   4.184   6.815  0.9034  0.7081  1.4104
35489SOL     OW 8845   1.462   3.709   7.720 -0.1922  0.4998  0.0102
35489SOL    HW1 8846   1.437   3.677   7.634 -1.6087 -0.5580  0.7767
35489SOL    HW2 8847   1.546   3.667   7.739  0.2221  0.8884 -0.9067
35490SOL     OW 8848   3.175   9.033   9.819  0.4955 -0.1840 -0.1117
35490SOL    HW1 8849   3.259   8.990   9.803  1.1789  0.5268  1.3663
35490SOL    HW2 8850   3.190   9.124   9.795  0.6820  0.2892  1.6387
35491SOL     OW 8851   2.226   3.215   6.132  0.6616  0.5103  0.0254
35491SOL    HW1 8852   2.169   3.138   6.139  0.4716  0.6030 -0.4417
35491SOL    HW2 8853   2.258   3.230   6.221  2.2436 -1.2675 -0.1889
35492SOL     OW 8854   8.371   7.568   1.831 -0.3267  0.0771 -0.1149
35492SOL    HW1 8855   8.452   7.557   1.781  0.0784 -1.5597  0.8130
35492SOL    HW2 8856   8.312   7.614   1.772  0.6277 -0.4886 -1.5588
35493SOL     OW 8857   8.855   6.775   1.167 -0.0175  0.1073 -0.0381
35493SOL    HW1 8858   8.773   6.731   1.143 -1.9845  2.9666  0.9127
35493SOL    HW2 8859   8.865   6.844   1.101  0.6467  0.9149  0.8826
35494SOL     OW 8860   7.630   6.929   9.820  0.2722 -0.1213 -0.3015
35494SOL    HW1 8861   7.667   6.870   9.885  1.4488  0.7238 -0.1745
35494SOL    HW2 8862   7.561   6.878   9.777  1.9446 -1.9636 -0.9303
35495SOL     OW 8863   1.358   1.979   0.370 -0.2100 -0.1320  0.2921
35495SOL    HW1 8864   1.374   2.060   0.321  1.6901 -0.8563 -0.4076
35495SOL    HW2 8865   1.263   1.967   0.367 -0.6363  2.4138  1.0417
35496SOL     OW 8866   9.982   5.060   7.558  0.4004 -0.0558 -0.1937
35496SOL    HW1 8867  10.019   5.142   7.588  1.9411 -1.0009  0.6168
35496SOL    HW2 8868   9.924   5.032   7.629  1.0960 -0.4099  0.2537
35497SOL     OW 8869   0.298   5.142   4.010  0.4862 -0.0771  0.2677
35497SOL    HW1 8870   0.389   5.155   4.036  0.1432  0.8166  1.0359
35497SOL    HW2 8871   0.289   5.191   3.928  0.1895  1.5287  1.2241
35498SOL     OW 8872   4.837   5.880   3.538  0.0664  0.6482  0.2793
35498SOL    HW1 8873   4.833   5.785   3.526 -0.2662  0.6421  0.4266
35498SOL    HW2 8874   4.758   5.901   3.589  0.1413  1.0019  0.2503
35499SOL     OW 8875   6.859  10.126   8.071 -0.3011  0.5586  0.5468
35499SOL    HW1 8876   6.850  10.091   7.982 -1.1606  2.1379 -0.0213
35499SOL    HW2 8877   6.838  10.051   8.127  3.4919 -1.4601 -0.3863
35500SOL     OW 8878   0.374   9.670   8.169 -0.4041  0.2018  0.3611
35500SOL    HW1 8879   0.308   9.618   8.214 -1.4536 -0.1123 -1.4564
35500SOL    HW2 8880   0.327   9.709   8.095  1.6580 -0.9491 -1.6776
35501SOL     OW 8881   7.044   4.657   8.627 -0.1033 -0.1438 -0.0691
35501SOL    HW1 8882   7.115   4.710   8.662 -0.3027 -0.3313  0.6500
35501SOL    HW2 8883   7.087   4.593   8.570  0.3736 -0.5979  0.7811
35502SOL     OW 8884   6.577   1.750   6.712 -0.0481  0.1807  0.0134
35502SOL    HW1 8885   6.569   1.718   6.801  0.3112  0.3280  0.1005
35502SOL    HW2 8886   6.600   1.843   6.722 -0.2738  0.2646 -0.2317
35503SOL     OW 8887   5.200   3.572   4.946 -0.5541  0.2386 -0.4163
35503SOL    HW1 8888   5.169   3.551   5.034 -0.0540 -2.5197 -0.8232
35503SOL    HW2 8889   5.163   3.504   4.890 -0.0217  1.3425 -2.1941
35504SOL     OW 8890   6.196   0.958   9.757 -0.0560  1.1290 -0.0385
35504SOL    HW1 8891   6.166   0.876   9.718 -0.7093  1.0472  0.6234
35504SOL    HW2 8892   6.274   0.935   9.807 -1.2964  0.5299  1.7059
35505SOL     OW 8893   2.428   8.453   3.705  0.2205 -0.2653  0.3451
35505SOL    HW1 8894   2.477   8.519   3.756 -0.6359  0.9510 -0.3407
35505SOL    HW2 8895   2.403   8.387   3.769  1.2119  0.0004  1.0379
35506SOL     OW 8896   8.280  10.019   5.970 -0.2371  0.2697  0.1398
35506SOL    HW1 8897   8.370  10.008   6.002 -0.6390  1.0120  1.5909
35506SOL    HW2 8898   8.290  10.056   5.882  0.8542  1.5224  0.7693
35507SOL     OW 8899   4.779   2.382  10.099  0.1494  0.1262  0.0931
35507SOL    HW1 8900   4.810   2.327  10.171  0.1082 -2.1270 -1.5188
35507SOL    HW2 8901   4.796   2.331  10.020  0.7607  2.7349 -1.6224
35508SOL     OW 8902   1.201   0.107   7.852  0.5388 -0.1422  0.3615
35508SOL    HW1 8903   1.144   0.152   7.790  0.3944  0.3604  0.8438
35508SOL    HW2 8904   1.150   0.105   7.933 -0.6936 -3.7053 -0.3049
35509SOL     OW 8905   8.846   5.946   7.202  0.2683 -0.2161 -0.0142
35509SOL    HW1 8906   8.858   6.035   7.233 -0.8965 -0.2004  0.4434
35509SOL    HW2 8907   8.811   5.898   7.277 -0.0821 -0.8150 -0.5438
35510SOL     OW 8908   2.113   0.557   5.325 -0.9143 -0.0198 -0.2966
35510SOL    HW1 8909   2.025   0.519   5.330 -1.7333  1.6784 -1.2564
35510SOL    HW2 8910   2.117   0.599   5.240  0.9157 -0.2072 -0.3503
35511SOL     OW 8911  10.481   0.364   2.001 -0.1595  0.0075  0.8754
35511SOL    HW1 8912  10.426   0.358   1.922 -2.3579  0.2644  2.2784
35511SOL    HW2 8913  10.421   0.397   2.068  1.4100 -1.0297  2.8781
35512SOL     OW 8914   9.469   4.479   9.705  0.4546 -0.0352  0.1950
35512SOL    HW1 8915   9.463   4.471   9.610  0.4193 -0.1426  0.2059
35512SOL    HW2 8916   9.491   4.390   9.735 -0.1480 -0.1442  0.3344
35513SOL     OW 8917   4.205   7.655   8.946  0.3176 -0.2762 -1.2696
35513SOL    HW1 8918   4.191   7.672   8.853 -0.3871  2.7110 -0.7218
35513SOL    HW2 8919   4.236   7.738   8.982  1.3728 -1.5489  1.0558
35514SOL     OW 8920   8.188   3.929   9.381  0.5225  0.0928 -0.2354
35514SOL    HW1 8921   8.233   3.984   9.316 -1.0746 -0.6344 -2.0625
35514SOL    HW2 8922   8.095   3.941   9.362  0.0032 -0.4356  1.7346
35515SOL     OW 8923   8.033   2.672   0.960  0.5810  0.3690  0.3789
35515SOL    HW1 8924   7.938   2.683   0.966  0.7249  1.0027  2.1443
35515SOL    HW2 8925   8.050   2.663   0.867 -1.1773  0.5842 -0.0048
35516SOL     OW 8926   8.910   7.350   8.173  0.1923  0.6792 -0.0506
35516SOL    HW1 8927   8.977   7.414   8.198 -1.6114  1.2419  4.1105
35516SOL    HW2 8928   8.950   7.265   8.192  0.6847  0.8386 -0.3423
35517SOL     OW 8929   5.839   6.892   0.837  0.7385  0.0189  0.2977
35517SOL    HW1 8930   5.787   6.812   0.823  0.4982 -0.4908  3.3341
35517SOL    HW2 8931   5.915   6.863   0.887  1.6784  1.4324 -0.2501
35518SOL     OW 8932   1.329   9.043   8.303  0.0230  0.0430  0.2667
35518SOL    HW1 8933   1.369   9.017   8.386  0.3033 -1.1893 -0.2340
35518SOL    HW2 8934   1.262   8.976   8.287  0.3990 -0.0798 -0.8129
35519SOL     OW 8935   8.398   5.423   3.306 -0.5360 -0.2190 -0.3752
35519SOL    HW1 8936   8.387   5.328   3.295 -2.9059  0.1006 -1.2960
35519SOL    HW2 8937   8.410   5.434   3.401 -1.9074 -1.3316 -0.0334
35520SOL     OW 8938  10.300   9.191   1.655 -1.1953 -0.0065 -0.3778
35520SOL    HW1 8939  10.356   9.217   1.582 -1.7439 -0.4810 -0.9862
35520SOL    HW2 8940  10.252   9.271   1.678 -2.0771 -0.1705 -1.5146
35521SOL     OW 8941   4.251   9.956  10.159 -0.1726  0.3528 -0.3643
35521SOL    HW1 8942   4.247  10.038  10.110  1.1063  0.1807 -0.7966
35521SOL    HW2 8943   4.202   9.973  10.239 -0.0573  1.4808 -0.5260
35522SOL     OW 8944   7.247   6.460   0.702 -0.3089  0.5359  0.2457
35522SOL    HW1 8945   7.245   6.380   0.754 -1.0737 -0.5194 -1.3487
35522SOL    HW2 8946   7.335   6.464   0.666 -0.1701  0.5892  0.5923
35523SOL     OW 8947   5.172  10.720   9.302 -0.0046  0.0289 -0.0929
35523SOL    HW1 8948   5.241  10.770   9.345  0.2412 -0.6265  0.2808
35523SOL    HW2 8949   5.099  10.721   9.365  0.5239 -1.3449  0.5815
35524SOL     OW 8950   7.714   4.647   2.761 -0.4342  0.7001  0.5644
35524SOL    HW1 8951   7.690   4.616   2.673 -0.9826  1.7876  0.3052
35524SOL    HW2 8952   7.696   4.741   2.758  2.0616  1.2602  1.0147
35525SOL     OW 8953   2.840   1.178   4.328  0.0834 -0.0543  0.3584
35525SOL    HW1 8954   2.826   1.128   4.409  0.2807 -0.8461 -0.0776
35525SOL    HW2 8955   2.890   1.255   4.355  0.8134 -0.6971  0.8850
35526SOL     OW 8956   9.663   4.940   3.669  0.5210  0.3676 -0.0301
35526SOL    HW1 8957   9.605   4.864   3.675 -0.5907  1.2428  0.9278
35526SOL    HW2 8958   9.692   4.956   3.759  2.0707  0.1074 -0.4611
35527SOL     OW 8959   8.473   3.840   3.220  0.3814  0.1457 -0.2593
35527SOL    HW1 8960   8.394   3.787   3.209 -0.0632  0.4665  1.2245
35527SOL    HW2 8961   8.470   3.870   3.311  1.3830  1.5025 -0.6397
35528SOL     OW 8962   5.926   4.865  10.038 -0.8976 -0.5172 -0.1334
35528SOL    HW1 8963   5.853   4.820   9.995 -2.1085  2.6917 -1.7420
35528SOL    HW2 8964   5.884   4.922  10.102  0.3565 -0.0204  0.2695
35529SOL     OW 8965  10.526   6.678   7.975 -0.0543 -0.0787  0.7041
35529SOL    HW1 8966  10.618   6.679   8.003  1.4657 -2.9501 -3.3377
35529SOL    HW2 8967  10.526   6.724   7.891 -1.9575 -1.5281 -0.1565
35530SOL     OW 8968   0.556   8.959   0.535 -0.4082  0.3401  0.4685
35530SOL    HW1 8969   0.626   8.915   0.487  0.9841  1.1414  1.6616
35530SOL    HW2 8970   0.475   8.919   0.503  0.5579 -0.3312 -1.2582
35531SOL     OW 8971   5.808   8.103   6.571 -0.3117 -0.0993 -0.3607
35531SOL    HW1 8972   5.717   8.110   6.600  0.0704  0.5223  0.7313
35531SOL    HW2 8973   5.845   8.035   6.626 -0.2416 -0.7272 -1.1698
35532SOL     OW 8974   7.923   3.225   6.688 -0.0148 -0.2328  0.1086
35532SOL    HW1 8975   7.835   3.261   6.679 -0.4222 -1.1113  0.5192
35532SOL    HW2 8976   7.962   3.235   6.602 -0.8826 -0.7834 -0.3620
35533SOL     OW 8977   1.633   0.767   3.969 -0.4551 -0.3063  0.2149
35533SOL    HW1 8978   1.634   0.726   4.056 -2.4862  1.4556  1.1780
35533SOL    HW2 8979   1.595   0.700   3.912  1.1996 -1.6051  0.5725
35534SOL     OW 8980   3.444   1.699   1.767 -0.6293 -0.1505 -0.0827
35534SOL    HW1 8981   3.475   1.755   1.696 -0.3041  0.6000  0.6319
35534SOL    HW2 8982   3.499   1.723   1.841 -1.3213 -0.5323  0.5633
35535SOL     OW 8983   4.198   1.086   8.619  0.4142 -0.0082  0.3928
35535SOL    HW1 8984   4.180   1.055   8.530 -0.1534 -0.8046  0.7785
35535SOL    HW2 8985   4.292   1.105   8.619  0.3704  0.2504 -0.4460
35536SOL     OW 8986   3.966   7.180   3.027  0.4421  0.4757 -0.2252
35536SOL    HW1 8987   4.048   7.224   3.003  0.3812  0.6405 -0.1359
35536SOL    HW2 8988   3.912   7.187   2.948  1.5120 -2.0890 -1.2834
35537SOL     OW 8989   5.222   1.320   8.976  0.3207  0.0786  0.3535
35537SOL    HW1 8990   5.291   1.274   9.024  0.2198  0.5783  0.9873
35537SOL    HW2 8991   5.268   1.390   8.930  0.2890  0.1767  0.4713
35538SOL     OW 8992   4.922   8.995   6.934 -0.7345 -0.1472 -0.0029
35538SOL    HW1 8993   4.957   8.986   6.845 -0.2244  0.7947  0.0860
35538SOL    HW2 8994   4.882   8.911   6.953  2.0710 -1.5597  0.1352
35539SOL     OW 8995   3.485   6.163   7.182 -0.1377 -0.1652  0.4092
35539SOL    HW1 8996   3.530   6.106   7.119 -0.6240  0.4914 -0.5714
35539SOL    HW2 8997   3.555   6.219   7.217  0.1985 -0.7863  0.7338
35540SOL     OW 8998   7.391   1.565   8.021  0.2782  0.2185 -0.2024
35540SOL    HW1 8999   7.360   1.555   8.111  1.5699 -0.0777  0.2228
35540SOL    HW2 9000   7.469   1.510   8.015 -0.4865 -0.7769 -1.8822
35541SOL     OW 9001   1.918   9.882   6.915 -0.4419  0.1591  0.1540
35541SOL    HW1 9002   1.864   9.960   6.930  2.2233  2.1173  0.3029
35541SOL    HW2 9003   1.915   9.835   6.999 -1.1703  0.6902  0.4371
35542SOL     OW 9004   7.177   9.537   3.686  0.8175  0.2287  0.3958
35542SOL    HW1 9005   7.211   9.455   3.719  0.9287 -0.3620 -1.1038
35542SOL    HW2 9006   7.086   9.518   3.663  0.9404  0.4149 -0.2807
35543SOL     OW 9007   2.802   6.088   7.657 -0.0769  0.8870  0.4269
35543SOL    HW1 9008   2.837   6.000   7.666  0.3183  0.5175 -3.2870
35543SOL    HW2 9009   2.847   6.124   7.580 -2.0540  3.3781  0.3149
35544SOL     OW 9010   9.078   2.450   3.669  0.3057  0.1861  0.0567
35544SOL    HW1 9011   9.162   2.484   3.699  0.5376  0.3415 -0.7332
35544SOL    HW2 9012   9.069   2.485   3.580  0.0114 -0.8828 -0.3479
35545SOL     OW 9013   9.521   2.649   3.467 -0.1534  0.0944  0.4732
35545SOL    HW1 9014   9.460   2.682   3.533  0.8708 -1.0477  2.0762
35545SOL    HW2 9015   9.579   2.590   3.516  2.2309  1.1029 -0.9342
35546SOL     OW 9016   9.861   5.130   7.191 -0.3701  0.2576  0.3256
35546SOL    HW1 9017   9.823   5.102   7.274 -2.4686 -1.4336 -1.0853
35546SOL    HW2 9018   9.801   5.197   7.158 -1.4013 -1.3287 -1.2126
35547SOL     OW 9019   9.914   6.019   5.961 -0.2732 -0.3914  0.1079
35547SOL    HW1 9020   9.979   6.045   6.026  0.0218 -0.3999 -0.1790
35547SOL    HW2 9021   9.942   5.931   5.933 -1.0212 -0.8431  0.7619
35548SOL     OW 9022   0.433   8.549   9.245 -0.5544  0.5586 -0.4016
35548SOL    HW1 9023   0.499   8.499   9.196 -0.2715  0.1200  0.4042
35548SOL    HW2 9024   0.452   8.530   9.337 -2.1198  0.0288 -0.1556
35549SOL     OW 9025   0.124   3.727   8.249  0.2304  0.2259  0.6140
35549SOL    HW1 9026   0.185   3.769   8.310  1.4253  0.6365 -0.7913
35549SOL    HW2 9027   0.164   3.641   8.232  0.9255  0.8281 -0.9749
35550SOL     OW 9028   6.735   4.936   4.953 -0.1627  0.2098 -0.0368
35550SOL    HW1 9029   6.818   4.979   4.974 -0.7445  1.5683 -0.4633
35550SOL    HW2 9030   6.707   4.898   5.036  1.4062 -1.2482 -0.1013
35551SOL     OW 9031   8.416  10.565   2.971 -0.1128  0.3810 -0.0285
35551SOL    HW1 9032   8.388  10.657   2.972  0.9968  0.7889  2.2065
35551SOL    HW2 9033   8.391  10.532   3.058  0.5344 -1.0925 -0.3791
35552SOL     OW 9034   1.605   1.327   7.370  0.2143 -0.0742 -0.3790
35552SOL    HW1 9035   1.648   1.279   7.299  0.6538 -0.3797  0.0842
35552SOL    HW2 9036   1.589   1.414   7.334  3.2015  0.7749  0.1038
35553SOL     OW 9037   2.725   2.490   4.985  0.1649  0.3210  0.2444
35553SOL    HW1 9038   2.714   2.484   4.890  0.2219 -0.5951  0.2950
35553SOL    HW2 9039   2.671   2.420   5.020  1.8643 -0.7675  0.7708
35554SOL     OW 9040   1.109   0.539   6.163  0.1672 -0.3443 -0.2351
35554SOL    HW1 9041   1.082   0.521   6.073 -2.6189  1.6108  0.0828
35554SOL    HW2 9042   1.030   0.525   6.215  1.5081 -0.6683  1.8258
35555SOL     OW 9043   8.395   7.832   9.111  0.2788 -1.1195  0.2166
35555SOL    HW1 9044   8.390   7.873   9.025 -0.4779  1.1533  1.2731
35555SOL    HW2 9045   8.471   7.774   9.105 -0.0222 -1.3919 -2.0967
35556SOL     OW 9046   5.375   1.052   4.094  0.3122 -0.1008 -0.1324
35556SOL    HW1 9047   5.356   1.057   4.000 -0.9197  2.7292  0.1722
35556SOL    HW2 9048   5.289   1.058   4.136  0.9541  0.0033  1.2120
35557SOL     OW 9049   4.312   7.258   9.974 -0.2090 -0.0551 -0.5234
35557SOL    HW1 9050   4.384   7.312   9.942 -0.9261  1.5994  0.5191
35557SOL    HW2 9051   4.348   7.170   9.980  0.8912  0.1976 -2.6706
35558SOL     OW 9052   0.184  10.631   8.301  0.2742 -0.4168 -0.1369
35558SOL    HW1 9053   0.145  10.719   8.299  0.8481 -0.1568 -0.0810
35558SOL    HW2 9054   0.276  10.646   8.283  0.8381 -0.7302  2.1323
35559SOL     OW 9055   8.420   0.667   9.298 -0.1757 -0.7048  0.1677
35559SOL    HW1 9056   8.379   0.721   9.365  1.3410  0.4351  0.2166
35559SOL    HW2 9057   8.451   0.590   9.346  1.2769  0.2947  0.9130
35560SOL     OW 9058   0.262   0.546   2.494  0.1244  0.0848  0.3710
35560SOL    HW1 9059   0.336   0.565   2.436  0.0094 -1.5417 -0.3597
35560SOL    HW2 9060   0.192   0.516   2.436 -0.6228  0.1712  1.1928
35561SOL     OW 9061   8.923   9.770   1.791 -0.4877  0.6353 -0.2689
35561SOL    HW1 9062   8.973   9.772   1.872 -1.6841 -1.2118  0.5815
35561SOL    HW2 9063   8.835   9.798   1.817 -0.8813  0.0342 -0.9294
35562SOL     OW 9064   9.466   7.886   8.944  0.6260 -0.2376 -0.0756
35562SOL    HW1 9065   9.475   7.808   8.998 -0.7445  1.2061  2.3673
35562SOL    HW2 9066   9.377   7.882   8.909  1.8632 -1.7971 -3.4887
35563SOL     OW 9067   1.949   8.951   0.050  0.0632 -0.4457 -0.2340
35563SOL    HW1 9068   2.008   9.025   0.066  0.2895 -0.8146  0.6976
35563SOL    HW2 9069   1.938   8.949  -0.045  1.0003  0.0547 -0.3643
35564SOL     OW 9070   4.205   0.546   6.080  0.3965  0.4531 -0.1945
35564SOL    HW1 9071   4.125   0.597   6.092  0.1327 -0.1477  0.6851
35564SOL    HW2 9072   4.175   0.459   6.054  0.7620  0.2211  0.1476
35565SOL     OW 9073   0.821   0.929  10.021 -0.0454  0.0032 -0.0381
35565SOL    HW1 9074   0.734   0.940  10.060 -0.3429 -2.0767 -0.0207
35565SOL    HW2 9075   0.848   0.841  10.045  2.3739  0.7904  0.4497
35566SOL     OW 9076   9.722   8.617  10.652 -0.0667  0.5435 -0.7250
35566SOL    HW1 9077   9.662   8.672  10.701 -0.8956 -0.1524 -0.9223
35566SOL    HW2 9078   9.759   8.557  10.717  1.9782  2.2233 -0.2235
35567SOL     OW 9079   0.817   6.038   0.484 -0.2696 -0.1805 -0.2378
35567SOL    HW1 9080   0.764   5.993   0.551 -0.9671  0.4985 -0.3167
35567SOL    HW2 9081   0.828   5.973   0.415 -0.7158 -0.4433 -0.0661
35568SOL     OW 9082   6.891   5.502   8.390 -0.7037  0.1084 -0.0266
35568SOL    HW1 9083   6.895   5.597   8.387  1.0027  0.0745  0.2198
35568SOL    HW2 9084   6.848   5.477   8.308 -0.4898  1.0691 -0.4437
35569SOL     OW 9085   3.174   2.150   5.094  0.1081  0.2460  0.2624
35569SOL    HW1 9086   3.260   2.119   5.122 -0.7995 -1.4402  1.3604
35569SOL    HW2 9087   3.129   2.172   5.175 -1.7417 -2.4242  0.0634
35570SOL     OW 9088   3.850   3.771   5.334  0.2974  0.0107 -0.1633
35570SOL    HW1 9089   3.763   3.749   5.302  0.0595 -1.4613  1.3532
35570SOL    HW2 9090   3.836   3.850   5.388 -0.5512 -1.4003  1.8087
35571SOL     OW 9091   8.777   5.177   4.808  0.5280 -0.3371  0.1282
35571SOL    HW1 9092   8.859   5.152   4.852 -0.2574 -0.7065  1.4283
35571SOL    HW2 9093   8.708   5.143   4.864 -0.5440 -0.9045 -1.4723
35572SOL     OW 9094  10.625   7.411   3.028  0.2387  0.5207 -0.1897
35572SOL    HW1 9095  10.705   7.379   3.069 -0.6050 -0.6845  0.6060
35572SOL    HW2 9096  10.577   7.331   3.003 -0.9256  1.1932 -0.1860
35573SOL     OW 9097   1.973   4.416   8.653  0.8671  0.7232  0.6513
35573SOL    HW1 9098   2.058   4.458   8.658  0.9550  0.4764  1.6066
35573SOL    HW2 9099   1.948   4.404   8.745 -0.4905  1.3782  0.3874
35574SOL     OW 9100   1.366   1.112  10.297 -0.0923  0.5948  0.0355
35574SOL    HW1 9101   1.399   1.022  10.290  2.4014  1.5457 -1.9437
35574SOL    HW2 9102   1.272   1.102  10.308  0.0549 -2.2533 -0.4564
35575SOL     OW 9103   0.116   4.872   5.901 -0.4379 -0.1432 -0.4119
35575SOL    HW1 9104   0.026   4.875   5.933  0.4787 -0.3086  2.5811
35575SOL    HW2 9105   0.140   4.779   5.907 -0.6272 -0.4583 -3.2267
35576SOL     OW 9106   0.187   9.950   8.235 -0.3962  0.2593 -0.0394
35576SOL    HW1 9107   0.212   9.935   8.144 -1.4156 -1.8352 -0.0363
35576SOL    HW2 9108   0.095   9.978   8.231 -0.7612 -0.8118  0.3559
35577SOL     OW 9109   0.054   2.453   0.769 -0.5529 -0.2572 -0.1021
35577SOL    HW1 9110   0.115   2.409   0.709  0.9578  0.0856  1.1003
35577SOL    HW2 9111   0.107   2.470   0.847 -1.2993  2.8469 -0.1430
35578SOL     OW 9112   6.601   9.272   7.141  0.2798  0.1519 -0.1346
35578SOL    HW1 9113   6.592   9.177   7.145  0.4460  0.1390 -0.0380
35578SOL    HW2 9114   6.695   9.288   7.145  0.4154  0.2147 -2.4383
35579SOL     OW 9115   9.567   5.735   5.372 -0.4271 -0.2945  0.3142
35579SOL    HW1 9116   9.604   5.820   5.348  0.4949 -0.3559  1.3724
35579SOL    HW2 9117   9.642   5.686   5.405 -1.0783 -1.2689  0.3746
35580SOL     OW 9118   2.308   7.355   9.505 -0.2924  0.4449 -0.2151
35580SOL    HW1 9119   2.393   7.345   9.462 -0.1285  0.7295  0.0381
35580SOL    HW2 9120   2.285   7.447   9.490 -0.0923  0.6279  0.5544
35581SOL     OW 9121   9.774   8.057   1.845 -0.6321  0.2738 -0.2556
35581SOL    HW1 9122   9.801   7.970   1.815 -2.2535  0.4043 -2.3200
35581SOL    HW2 9123   9.718   8.040   1.920  0.0994 -0.3462  0.1742
35582SOL     OW 9124  10.707   1.871   9.079  0.1717 -0.2300  0.0766
35582SOL    HW1 9125  10.756   1.795   9.110 -1.3072 -1.9293 -1.5590
35582SOL    HW2 9126  10.771   1.942   9.081  1.6757 -1.5217  1.4355
35583SOL     OW 9127   3.916   5.291   6.370  0.0265  0.0899  0.1138
35583SOL    HW1 9128   3.920   5.213   6.426  0.0948 -0.4130 -0.5863
35583SOL    HW2 9129   3.834   5.281   6.321 -1.0022  1.4434  1.4178
35584SOL     OW 9130   1.599   2.646   9.813  0.0534  0.4449 -0.3229
35584SOL    HW1 9131   1.580   2.614   9.902  0.1559  0.1832 -0.3955
35584SOL    HW2 9132   1.512   2.662   9.775  0.0135  1.8588  0.2865
35585SOL     OW 9133   1.238   0.207   5.302 -0.1330 -0.0586  0.4185
35585SOL    HW1 9134   1.217   0.205   5.396 -1.5081 -0.3105  0.1280
35585SOL    HW2 9135   1.163   0.166   5.260  0.5101 -0.0294 -0.8025
35586SOL     OW 9136   2.040   5.611   3.978 -0.1662 -0.1571 -0.1713
35586SOL    HW1 9137   2.113   5.605   3.917  0.5967  1.7600  0.4962
35586SOL    HW2 9138   1.968   5.646   3.926 -0.2221 -0.7185 -0.4884
35587SOL     OW 9139   5.215   2.680   3.458  0.3373 -0.5416  0.5006
35587SOL    HW1 9140   5.286   2.700   3.520  0.5415 -0.8667  0.3698
35587SOL    HW2 9141   5.249   2.610   3.403  0.7725  0.7932 -1.0230
35588SOL     OW 9142   1.473   4.143   1.681 -0.0694  0.1797 -0.1761
35588SOL    HW1 9143   1.526   4.217   1.652 -0.9991  0.8029 -0.3353
35588SOL    HW2 9144   1.526   4.101   1.749  0.4742  0.9829 -0.0879
35589SOL     OW 9145  10.161   4.534   0.225 -0.0089  0.1832 -0.3956
35589SOL    HW1 9146  10.153   4.469   0.155  0.1417 -0.6490  0.3509
35589SOL    HW2 9147  10.192   4.613   0.180  3.0057 -1.1257 -0.9101
35590SOL     OW 9148   2.373   7.816   5.993  0.2468  0.4665  0.2078
35590SOL    HW1 9149   2.334   7.899   6.022  0.7889  0.5944  0.5881
35590SOL    HW2 9150   2.467   7.828   6.006  0.2861 -0.4099  0.7895
35591SOL     OW 9151   3.534   7.077   3.998 -0.7579 -0.2975  0.1371
35591SOL    HW1 9152   3.532   7.155   3.943 -0.4389 -0.1344  0.3515
35591SOL    HW2 9153   3.544   7.111   4.087 -0.4851 -0.5833  0.2180
35592SOL     OW 9154   2.572   0.394   6.940 -0.1841 -0.3234 -0.2166
35592SOL    HW1 9155   2.666   0.386   6.957 -0.3117  1.8473  2.1859
35592SOL    HW2 9156   2.544   0.306   6.917  2.3429 -1.1304 -0.4505
35593SOL     OW 9157   6.116  10.601   1.774 -0.7160 -0.2245  0.6285
35593SOL    HW1 9158   6.147  10.688   1.747  0.6525 -0.2867  1.9061
35593SOL    HW2 9159   6.115  10.550   1.693  0.7222  0.3273  0.2321
35594SOL     OW 9160   7.120   6.656   8.515 -0.1192 -0.3641 -0.4022
35594SOL    HW1 9161   7.207   6.670   8.478 -0.6712  0.7176 -1.3402
35594SOL    HW2 9162   7.096   6.567   8.487  1.4023 -1.4395  1.4338
35595SOL     OW 9163   0.623  10.761   7.664  0.0568  0.5450 -0.7176
35595SOL    HW1 9164   0.608  10.742   7.572 -2.9890  1.9352 -0.6424
35595SOL    HW2 9165   0.601  10.679   7.709  1.5356 -0.1306 -1.1827
35596SOL     OW 9166   7.009   2.658   3.353 -0.1632  0.3900 -0.0082
35596SOL    HW1 9167   6.984   2.571   3.382  0.6724  0.7756  2.0876
35596SOL    HW2 9168   7.102   2.651   3.331 -0.2418  0.6250 -0.4315
35597SOL     OW 9169   5.178   5.246   2.653 -0.7660  0.3871  0.3577
35597SOL    HW1 9170   5.093   5.254   2.697 -0.9598  2.4052 -0.2751
35597SOL    HW2 9171   5.226   5.182   2.706 -2.7072 -0.9458  0.6327
35598SOL     OW 9172   8.019   9.834   4.707 -0.0525  0.2256 -0.0139
35598SOL    HW1 9173   7.929   9.828   4.736  0.2464 -1.4465  0.6656
35598SOL    HW2 9174   8.017   9.801   4.617  0.0308 -0.7808  0.3476
35599SOL     OW 9175   8.464   4.235   9.715  0.0576  0.8678 -0.1121
35599SOL    HW1 9176   8.524   4.169   9.750  1.2795  0.8582 -2.0727
35599SOL    HW2 9177   8.389   4.232   9.773 -0.2861 -2.8244 -0.5083
35600SOL     OW 9178   1.280   7.850   7.080  0.6260 -0.2452 -0.1868
35600SOL    HW1 9179   1.256   7.774   7.134  2.1663 -1.1881 -0.7443
35600SOL    HW2 9180   1.341   7.899   7.134  0.3722  0.0758 -0.1929
35601SOL     OW 9181   6.918   4.105   7.228 -0.5989 -0.3591  0.4367
35601SOL    HW1 9182   6.941   4.197   7.238  0.7640 -0.5150 -0.9410
35601SOL    HW2 9183   6.954   4.063   7.306 -0.9765  0.2048  0.9284
35602SOL     OW 9184   7.476  10.193  10.683  0.2853  0.0532 -0.1375
35602SOL    HW1 9185   7.520  10.112  10.708  1.3080  0.3775 -0.8402
35602SOL    HW2 9186   7.403  10.201  10.745  0.4417 -1.1617  0.2235
35603SOL     OW 9187   0.714  10.122   6.667 -0.1218  0.3584  0.0346
35603SOL    HW1 9188   0.706  10.027   6.657  2.6503 -0.2374  2.2651
35603SOL    HW2 9189   0.695  10.138   6.760  0.0994  1.9071 -0.1675
35604SOL     OW 9190   5.013   5.034   2.473 -0.3533  0.3281 -0.3560
35604SOL    HW1 9191   5.066   5.087   2.413  0.0123  1.0337  0.5593
35604SOL    HW2 9192   4.952   5.096   2.512  0.6660  0.2989  1.3949
35605SOL     OW 9193   3.068   0.893   4.247 -0.2474 -0.0354  0.1086
35605SOL    HW1 9194   3.153   0.917   4.210 -0.6388  1.0837 -0.1130
35605SOL    HW2 9195   3.011   0.968   4.227 -1.7751 -1.4884 -1.3000
35606SOL     OW 9196   2.763   8.015   4.367  0.2989  0.1144 -0.1208
35606SOL    HW1 9197   2.821   7.938   4.372  1.0305  0.5816 -1.0528
35606SOL    HW2 9198   2.737   8.019   4.275 -1.1730 -0.0344  0.2715
35607SOL     OW 9199   7.073   4.150   1.444  0.1139  0.1427 -0.6484
35607SOL    HW1 9200   7.013   4.098   1.392 -0.0028 -1.9998  1.4551
35607SOL    HW2 9201   7.136   4.087   1.478  0.9968  1.6484  0.6698
35608SOL     OW 9202   4.889   2.095   2.910  0.8022 -0.4066 -0.2743
35608SOL    HW1 9203   4.972   2.050   2.898  1.6064  0.6863  0.9002
35608SOL    HW2 9204   4.838   2.038   2.967  0.9297 -0.8710 -0.6269
35609SOL     OW 9205   3.507   3.458   8.688  0.5055  0.2563  0.5063
35609SOL    HW1 9206   3.583   3.440   8.744 -0.5413 -0.3270  1.7951
35609SOL    HW2 9207   3.512   3.552   8.672  0.4608  0.5797  2.1963
35610SOL     OW 9208   0.633   0.366   7.461  0.1567 -0.2032  0.1261
35610SOL    HW1 9209   0.627   0.304   7.388 -0.1884  0.6214 -0.5596
35610SOL    HW2 9210   0.697   0.327   7.520  1.0069 -0.5308 -0.9814
35611SOL     OW 9211   3.495   2.859  10.533 -0.3842  0.8181 -0.4011
35611SOL    HW1 9212   3.472   2.922  10.465 -1.9845  0.9993  0.2790
35611SOL    HW2 9213   3.455   2.893  10.612 -1.1709 -0.9571  0.0152
35612SOL     OW 9214   9.449  10.800   0.504 -0.2619  0.2851  0.0567
35612SOL    HW1 9215   9.442  10.727   0.566 -1.1845 -0.1536 -0.5452
35612SOL    HW2 9216   9.436  10.759   0.418  0.7985  0.9191 -0.4233
35613SOL     OW 9217   9.093   6.256   0.668 -0.3034  0.3152 -0.0695
35613SOL    HW1 9218   9.010   6.210   0.683  0.9810 -1.6734  1.6120
35613SOL    HW2 9219   9.085   6.294   0.581 -3.0204  0.3302  0.1193
35614SOL     OW 9220   7.679   2.901   8.878 -0.1530 -0.2435 -0.1948
35614SOL    HW1 9221   7.771   2.875   8.886 -0.2090 -1.0388 -1.7508
35614SOL    HW2 9222   7.679   2.995   8.896  1.2132  0.0699 -1.6059
35615SOL     OW 9223   7.483   4.101   5.184  0.0535 -0.2659  0.1800
35615SOL    HW1 9224   7.484   4.085   5.090  0.0739 -0.5312  0.2237
35615SOL    HW2 9225   7.575   4.106   5.209  0.0671  1.6379 -0.1085
35616SOL     OW 9226   6.098   6.923   4.082 -0.6515 -0.6811 -0.5232
35616SOL    HW1 9227   6.103   6.888   3.993 -2.2569 -0.3765 -0.7835
35616SOL    HW2 9228   6.153   7.001   4.080 -0.7010 -0.6545 -1.2691
35617SOL     OW 9229   1.064   9.052   3.690 -0.7919 -0.6031  0.1794
35617SOL    HW1 9230   1.059   9.117   3.620 -0.5546  0.2314  0.9151
35617SOL    HW2 9231   1.153   9.017   3.685 -1.2895 -1.7692 -0.9815
35618SOL     OW 9232   7.998   1.278   7.636  0.4705 -0.2188 -0.2722
35618SOL    HW1 9233   8.092   1.295   7.634  0.2169  1.2987  0.1337
35618SOL    HW2 9234   7.991   1.186   7.609  2.2656 -1.2083  2.2685
35619SOL     OW 9235   1.344   0.220  10.309  0.1913 -0.1838 -0.0635
35619SOL    HW1 9236   1.393   0.300  10.329  0.7104 -0.3670 -0.5880
35619SOL    HW2 9237   1.278   0.215  10.378  1.0100 -0.0112  0.7518
35620SOL     OW 9238   9.079  10.522   5.541 -0.1647  0.0616 -0.0099
35620SOL    HW1 9239   9.147  10.577   5.504 -0.5790 -0.4790 -1.6433
35620SOL    HW2 9240   8.997  10.559   5.510 -0.4652 -1.2040 -0.8166
35621SOL     OW 9241   8.999   9.284   1.077 -0.0805  0.1491  0.3298
35621SOL    HW1 9242   8.937   9.341   1.123 -0.4123 -0.6515  0.9050
35621SOL    HW2 9243   9.046   9.342   1.018 -1.7308  0.6969 -0.5020
35622SOL     OW 9244   3.745   5.470   0.651 -0.6686 -0.0504  0.9238
35622SOL    HW1 9245   3.682   5.516   0.594 -0.5369 -0.8281  0.1345
35622SOL    HW2 9246   3.821   5.454   0.594  0.1129  0.5518  1.7665
35623SOL     OW 9247   6.488   3.879  10.629  0.1945 -0.1424 -0.3661
35623SOL    HW1 9248   6.500   3.932  10.550 -3.1520  0.5938 -0.5343
35623SOL    HW2 9249   6.533   3.797  10.611 -0.6396 -0.0891 -3.1993
35624SOL     OW 9250   7.435   2.681  10.784  0.0285  0.3710  0.0007
35624SOL    HW1 9251   7.361   2.622  10.796 -0.4599  0.9882  0.0616
35624SOL    HW2 9252   7.477   2.650  10.704 -0.3844  0.1186 -0.1239
35625SOL     OW 9253   9.200   3.249   2.022 -0.2095 -0.2256  0.0717
35625SOL    HW1 9254   9.292   3.228   2.041 -0.6123 -1.2390  1.0954
35625SOL    HW2 9255   9.191   3.237   1.928  0.6168 -0.4848  0.0169
35626SOL     OW 9256   3.698   1.549  10.475 -0.3431  0.2341 -0.2250
35626SOL    HW1 9257   3.771   1.505  10.519 -0.5006 -3.1666 -2.9210
35626SOL    HW2 9258   3.638   1.572  10.546  0.7841 -2.0922  1.6320
35627SOL     OW 9259   6.046   6.909   4.722  0.5135 -0.0871  0.0903
35627SOL    HW1 9260   5.983   6.966   4.679  1.1005  1.2619  0.9489
35627SOL    HW2 9261   6.106   6.882   4.652  0.4758  0.7078 -0.2586
35628SOL     OW 9262   9.469   7.367   9.483  0.4240 -0.3931 -0.1152
35628SOL    HW1 9263   9.436   7.277   9.489  0.2718 -0.2478  1.8321
35628SOL    HW2 9264   9.558   7.358   9.449  0.3122 -1.2700 -0.1927
35629SOL     OW 9265   5.750   1.265   3.108 -0.7060 -0.2005  0.0552
35629SOL    HW1 9266   5.690   1.332   3.140 -1.7542 -1.4731  0.8633
35629SOL    HW2 9267   5.837   1.295   3.136 -1.0136  1.3607 -0.5976
35630SOL     OW 9268   6.992  10.786   2.533 -0.5142 -0.1786 -0.2713
35630SOL    HW1 9269   6.985  10.694   2.509  1.4525 -0.4768  0.0866
35630SOL    HW2 9270   7.069  10.790   2.591 -0.4633  1.7073 -0.3971
35631SOL     OW 9271   2.997   1.779   7.437 -0.2975  0.0528 -0.0325
35631SOL    HW1 9272   2.908   1.748   7.421 -0.6362  0.7106  0.4915
35631SOL    HW2 9273   3.053   1.714   7.397 -1.0119 -0.5550 -0.0654
35632SOL     OW 9274   1.424   9.593   4.292  0.1911 -0.7818  0.6435
35632SOL    HW1 9275   1.349   9.534   4.297 -0.5106  0.0567  0.2999
35632SOL    HW2 9276   1.475   9.562   4.217 -1.0506  0.0111 -0.5824
35633SOL     OW 9277   0.827   7.704  10.253 -0.1562 -0.1715 -1.0207
35633SOL    HW1 9278   0.875   7.622  10.259  0.7645  0.3801 -0.6803
35633SOL    HW2 9279   0.889   7.771  10.283 -0.8737  0.6538 -1.3330
35634SOL     OW 9280   7.495  10.697  10.665  0.2747  0.1068  0.1027
35634SOL    HW1 9281   7.578  10.734  10.633  0.0104  0.4113 -0.2409
35634SOL    HW2 9282   7.428  10.737  10.609 -0.1640  0.3312  0.7789
35635SOL     OW 9283   0.111   9.581   0.633 -0.3315  0.1716  0.1052
35635SOL    HW1 9284   0.027   9.535   0.622  0.0000 -0.2922 -0.6188
35635SOL    HW2 9285   0.162   9.525   0.692 -0.3020  0.1258  0.0367
35636SOL     OW 9286  10.608   8.587   7.042 -0.3613 -0.3899 -0.4557
35636SOL    HW1 9287  10.623   8.636   7.123  1.8129 -1.9920  0.2237
35636SOL    HW2 9288  10.614   8.495   7.068 -0.9941 -0.9809 -2.2233
35637SOL     OW 9289   6.426  10.387   7.996  0.3325 -0.5193  0.3990
35637SOL    HW1 9290   6.489  10.319   7.972 -0.1847 -1.2245  0.9807
35637SOL    HW2 9291   6.362  10.387   7.924  0.6493 -0.2338  0.1137
35638SOL     OW 9292   8.260   5.974   4.452  0.1867 -0.1183 -0.1110
35638SOL    HW1 9293   8.311   6.025   4.516  1.0733  0.5723 -1.3316
35638SOL    HW2 9294   8.303   5.889   4.449  0.0763 -0.1919  0.2745
35639SOL     OW 9295   7.470   7.570   7.704  0.4871 -0.6054  0.5357
35639SOL    HW1 9296   7.526   7.646   7.684  0.5544 -1.0699 -1.2398
35639SOL    HW2 9297   7.382   7.606   7.708  0.2470 -0.6596 -2.3632
35640SOL     OW 9298   7.528   6.194   9.394 -0.0956 -0.4241 -0.0753
35640SOL    HW1 9299   7.620   6.170   9.409  0.5123  1.5619 -0.4357
35640SOL    HW2 9300   7.483   6.165   9.473  1.1196 -0.0276  0.7881
35641SOL     OW 9301   4.076   5.664   5.736 -0.1556 -0.6643  0.1868
35641SOL    HW1 9302   4.001   5.607   5.720 -0.1369 -1.2506  1.9488
35641SOL    HW2 9303   4.106   5.640   5.824 -0.6502  2.5691  1.3876
35642SOL     OW 9304   6.736   6.372   9.297  0.7280 -0.0821 -0.5021
35642SOL    HW1 9305   6.764   6.409   9.381 -0.5518  0.8020 -0.4311
35642SOL    HW2 9306   6.687   6.293   9.321  0.9836 -0.2353 -0.4752
35643SOL     OW 9307   4.644   7.594   4.561 -0.1897 -0.3604  0.1514
35643SOL    HW1 9308   4.549   7.606   4.567 -0.3191 -0.3696 -1.3862
35643SOL    HW2 9309   4.674   7.669   4.509  0.3863 -1.2333 -0.8276
35644SOL     OW 9310   1.555   4.585   1.565  0.1052 -0.1121 -0.2924
35644SOL    HW1 9311   1.556   4.516   1.499  0.1596  0.5912 -1.0441
35644SOL    HW2 9312   1.465   4.586   1.597  0.1117 -0.5494 -0.2497
35645SOL     OW 9313   8.012   6.143   6.536  0.7518 -0.2201  0.4303
35645SOL    HW1 9314   8.086   6.092   6.569  1.0650  0.6807  1.1664
35645SOL    HW2 9315   7.935   6.102   6.576  0.8429 -1.1565 -0.3328
35646SOL     OW 9316   8.146   5.305   5.688 -0.3513  0.1961  0.1940
35646SOL    HW1 9317   8.124   5.240   5.754 -1.5402 -0.2815 -0.6416
35646SOL    HW2 9318   8.241   5.296   5.676 -0.4013 -0.9200  0.5672
35647SOL     OW 9319   9.467   7.572   2.394 -0.5144 -0.3182  0.0226
35647SOL    HW1 9320   9.475   7.666   2.378  1.4524 -0.4479 -0.0187
35647SOL    HW2 9321   9.523   7.532   2.327  0.3604 -1.3808  1.3318
35648SOL     OW 9322   4.978   9.606  10.524  0.0686  0.3275  0.3918
35648SOL    HW1 9323   4.961   9.672  10.591 -1.5896  0.5542 -0.2008
35648SOL    HW2 9324   4.922   9.532  10.550  0.7611 -0.2635  0.2191
35649SOL     OW 9325   9.821   8.390   3.203 -0.6475 -0.1633 -0.0212
35649SOL    HW1 9326   9.815   8.356   3.113 -1.1459 -1.9441  0.6302
35649SOL    HW2 9327   9.748   8.451   3.210 -0.5784  0.0260 -0.8422
35650SOL     OW 9328   7.962   1.242   0.585  0.0729 -0.3850 -0.1660
35650SOL    HW1 9329   8.003   1.317   0.543  1.3518 -1.4437 -0.8902
35650SOL    HW2 9330   7.892   1.217   0.526 -1.5521  1.2729  0.9493
35651SOL     OW 9331   7.341   4.472   7.531  0.9354  0.3785  0.3922
35651SOL    HW1 9332   7.272   4.489   7.594 -0.1786  1.7077 -1.0838
35651SOL    HW2 9333   7.364   4.558   7.496  1.8330 -0.2519 -0.6724
35652SOL     OW 9334   0.300   1.611   9.113 -0.2024  0.2631 -0.3591
35652SOL    HW1 9335   0.217   1.571   9.086  0.8836 -0.4975 -2.8025
35652SOL    HW2 9336   0.295   1.701   9.082  0.1977 -0.0281 -1.3152
35653SOL     OW 9337   0.205   1.753   7.553  0.1391 -0.7067  0.0126
35653SOL    HW1 9338   0.254   1.829   7.520  0.6819 -0.4551  1.3577
35653SOL    HW2 9339   0.137   1.791   7.609 -0.7157 -1.1354 -0.7159
35654SOL     OW 9340   5.682   2.345   6.702  0.0451 -0.7427  0.1079
35654SOL    HW1 9341   5.673   2.312   6.613 -0.7188  0.8699 -0.4621
35654SOL    HW2 9342   5.772   2.375   6.708  1.1058 -3.7916  1.0088
35655SOL     OW 9343   1.398   2.627   8.763 -0.0912  0.4150  0.1120
35655SOL    HW1 9344   1.304   2.605   8.758 -0.2969  1.5097 -2.2765
35655SOL    HW2 9345   1.408   2.668   8.848 -1.7293  0.0568  0.5248
35656SOL     OW 9346   6.024   2.129   1.077 -0.7002  0.0461 -0.2051
35656SOL    HW1 9347   6.108   2.085   1.087  0.3578  2.1213  0.4733
35656SOL    HW2 9348   5.983   2.122   1.164 -0.9921 -0.4871 -0.3837
35657SOL     OW 9349   5.713   9.323   8.513 -0.2411 -0.3541 -0.9752
35657SOL    HW1 9350   5.735   9.239   8.473  2.6936 -1.5473  2.6804
35657SOL    HW2 9351   5.634   9.306   8.564 -0.3962 -0.5029 -1.2622
35658SOL     OW 9352   1.630   6.575   9.080  0.8504  0.5193  0.1784
35658SOL    HW1 9353   1.634   6.551   8.987  0.4610  1.0129  0.0325
35658SOL    HW2 9354   1.673   6.660   9.084 -0.1546  1.0333  0.2633
35659SOL     OW 9355   3.413   8.031   6.776 -0.5312  0.4938 -0.1739
35659SOL    HW1 9356   3.413   8.035   6.680 -1.7488  1.3195 -0.1664
35659SOL    HW2 9357   3.479   8.096   6.802  0.1873 -0.1102 -0.4432
35660SOL     OW 9358   1.302   7.691   0.864 -0.2286 -0.3655 -0.5438
35660SOL    HW1 9359   1.279   7.751   0.793  0.2357  0.0824 -0.3249
35660SOL    HW2 9360   1.226   7.690   0.921 -0.8373 -1.1739 -1.3311
35661SOL     OW 9361   8.046   0.845   0.750  0.0056  0.3213  0.4469
35661SOL    HW1 9362   8.115   0.792   0.790  1.6412  0.7214 -1.6682
35661SOL    HW2 9363   8.020   0.796   0.672  1.0258  2.1628 -1.1353
35662SOL     OW 9364   7.674   4.407   0.458  0.4642 -0.0909  0.4118
35662SOL    HW1 9365   7.592   4.442   0.494 -0.0400 -0.4785 -0.3317
35662SOL    HW2 9366   7.738   4.478   0.471  0.2690 -0.1506  1.8849
35663SOL     OW 9367   5.836  10.746   7.848 -0.0561 -0.1564  0.2548
35663SOL    HW1 9368   5.879  10.740   7.762  0.7280  1.0317  0.5537
35663SOL    HW2 9369   5.902  10.782   7.906 -1.0006  0.3073  1.0703
35664SOL     OW 9370   6.190   1.155   3.024 -0.2373  0.1064 -0.3272
35664SOL    HW1 9371   6.187   1.250   3.013  0.0902  0.2952  1.0543
35664SOL    HW2 9372   6.267   1.140   3.079  1.1026 -1.1786 -2.4131
35665SOL     OW 9373  10.007   9.360   2.660  0.0534 -0.3001 -0.8266
35665SOL    HW1 9374   9.968   9.272   2.659 -1.0882  0.1431  0.7170
35665SOL    HW2 9375  10.092   9.347   2.702 -0.4145 -0.5766  0.0633
35666SOL     OW 9376   4.638   4.735   2.277  0.2794  0.0753 -0.2939
35666SOL    HW1 9377   4.614   4.794   2.206  1.0894 -1.7947 -2.2080
35666SOL    HW2 9378   4.732   4.747   2.289 -0.1644  2.0017  2.1151
35667SOL     OW 9379  10.460   6.694   3.276  0.0547  0.1428  0.3977
35667SOL    HW1 9380  10.395   6.624   3.279  0.5171 -0.4169 -1.3287
35667SOL    HW2 9381  10.414   6.769   3.240  0.2805 -0.1982 -0.6448
35668SOL     OW 9382  10.171   0.080   8.278 -0.4877 -0.4513 -0.2871
35668SOL    HW1 9383  10.181   0.009   8.340 -0.2181  0.0500  0.2574
35668SOL    HW2 9384  10.247   0.137   8.294 -0.6834 -0.0561 -0.7240
35669SOL     OW 9385   1.648   1.774   2.226 -0.4885  0.2283 -0.0285
35669SOL    HW1 9386   1.650   1.763   2.321 -0.5470 -0.8717 -0.1371
35669SOL    HW2 9387   1.702   1.851   2.209 -0.8140  0.6828  0.9263
35670SOL     OW 9388  10.183   2.224   2.142 -0.5804  0.3246  0.9442
35670SOL    HW1 9389  10.097   2.186   2.159 -0.9532  1.4006  1.5531
35670SOL    HW2 9390  10.193   2.220   2.047 -0.4564 -1.5558  0.9852
35671SOL     OW 9391   0.740  10.251   5.486 -0.9002  0.3486 -0.1673
35671SOL    HW1 9392   0.815  10.311   5.482  0.0282 -0.3813  3.1614
35671SOL    HW2 9393   0.777  10.166   5.462 -1.0661  0.2686 -0.1357
35672SOL     OW 9394   4.369   5.362   3.838 -0.2199  0.4611  0.2996
35672SOL    HW1 9395   4.413   5.442   3.867 -0.1136 -0.2696  2.3723
35672SOL    HW2 9396   4.441   5.302   3.818 -0.2978  0.4909 -0.0762
35673SOL     OW 9397   4.263   8.625   5.437  0.4253  0.1824  0.0888
35673SOL    HW1 9398   4.174   8.589   5.445  0.3242  0.7940  2.3590
35673SOL    HW2 9399   4.288   8.606   5.347 -2.8337  1.9216 -1.3740
35674SOL     OW 9400   5.562   1.730   0.791 -0.5262  0.1561 -0.2827
35674SOL    HW1 9401   5.592   1.809   0.745 -0.0805 -0.3235 -0.8288
35674SOL    HW2 9402   5.621   1.722   0.866  0.1681 -0.2885 -0.8624
35675SOL     OW 9403   8.461   3.588  10.768  0.1076 -0.2318  0.3385
35675SOL    HW1 9404   8.532   3.646  10.740 -0.9757  1.0342  0.1239
35675SOL    HW2 9405   8.389   3.647  10.788 -1.8326 -1.6198 -2.1223
35676SOL     OW 9406  10.524   8.816   7.203  0.1874 -0.0250 -0.0959
35676SOL    HW1 9407  10.487   8.842   7.119 -0.8481 -1.0420  0.0168
35676SOL    HW2 9408  10.459   8.844   7.267  0.7584  0.3363  0.3314
35677SOL     OW 9409   2.516   5.160   0.350 -0.0437  0.2586 -0.1664
35677SOL    HW1 9410   2.451   5.111   0.402  0.1466 -0.2200 -0.3768
35677SOL    HW2 9411   2.487   5.251   0.356 -0.2002  0.1723  0.5279
35678SOL     OW 9412   5.246   0.506   2.543 -0.1088  0.6583  0.1455
35678SOL    HW1 9413   5.164   0.498   2.591 -0.5744 -1.4933 -0.8963
35678SOL    HW2 9414   5.224   0.559   2.466 -0.6959 -0.3741 -0.4188
35679SOL     OW 9415   9.325   5.101  10.799 -0.3461  0.5833  0.2575
35679SOL    HW1 9416   9.403   5.077  10.849 -0.9502  0.6250  1.2432
35679SOL    HW2 9417   9.332   5.051  10.718 -0.1885 -0.7807  1.0882
35680SOL     OW 9418   0.126  10.347  10.036  0.1209  0.0473  0.6719
35680SOL    HW1 9419   0.207  10.309  10.003 -0.9641  0.2487 -2.5565
35680SOL    HW2 9420   0.059  10.280  10.019 -1.0213  1.4499 -0.5717
35681SOL     OW 9421   9.978   3.360   2.340 -0.4149  0.0537  0.4893
35681SOL    HW1 9422   9.935   3.277   2.318 -0.2537  0.1436 -0.1825
35681SOL    HW2 9423  10.054   3.334   2.393 -0.3379 -0.2305  0.2418
35682SOL     OW 9424   2.691   8.979   5.203 -0.7181  0.6252 -0.4957
35682SOL    HW1 9425   2.677   8.966   5.109 -1.3994  0.8533 -0.4257
35682SOL    HW2 9426   2.624   8.927   5.246 -0.8550  1.0834 -0.1478
35683SOL     OW 9427   1.862   1.219   6.479 -0.0771 -0.2787 -0.4598
35683SOL    HW1 9428   1.925   1.284   6.448 -1.1861  0.8609 -0.4511
35683SOL    HW2 9429   1.894   1.135   6.446  1.8912  0.1321  0.2880
35684SOL     OW 9430   2.095   1.272   9.883 -0.0836  0.1185  0.1320
35684SOL    HW1 9431   2.092   1.344   9.946 -0.8331  0.5286 -0.3589
35684SOL    HW2 9432   2.188   1.249   9.878  0.1462  0.9427  0.4124
35685SOL     OW 9433   1.935   4.879   0.687 -0.2919 -0.4714  0.2375
35685SOL    HW1 9434   1.867   4.943   0.712  1.0404  1.4537 -0.8249
35685SOL    HW2 9435   1.950   4.828   0.767 -0.7525  1.1859  1.4352
35686SOL     OW 9436  10.375   4.176   7.419 -0.3381 -0.3058  0.1362
35686SOL    HW1 9437  10.464   4.212   7.421 -0.8351  0.9485  1.0069
35686SOL    HW2 9438  10.385   4.092   7.375  1.4856 -0.7491  1.2473
35687SOL     OW 9439   5.984   1.441   6.628 -0.2593 -0.5111  0.1029
35687SOL    HW1 9440   5.999   1.346   6.628 -1.4226 -0.7023 -0.0250
35687SOL    HW2 9441   5.951   1.460   6.540 -1.7953 -0.2827  0.7053
35688SOL     OW 9442   0.444   1.304   2.896  0.1082  0.6136 -0.4751
35688SOL    HW1 9443   0.453   1.339   2.985  0.2031  0.8933 -0.5940
35688SOL    HW2 9444   0.444   1.209   2.908 -0.6850  0.6558 -0.1004
35689SOL     OW 9445   9.335   1.225   5.388 -0.2011  0.1533 -0.1504
35689SOL    HW1 9446   9.327   1.179   5.472 -2.2758  0.8560  0.0779
35689SOL    HW2 9447   9.351   1.156   5.324  1.3287 -0.4048  0.7642
35690SOL     OW 9448   7.483   4.937   3.387 -0.0683  0.0234 -0.0067
35690SOL    HW1 9449   7.478   4.932   3.292 -0.7555  1.8426 -0.1070
35690SOL    HW2 9450   7.574   4.960   3.406 -0.1507  0.6122 -0.3009
35691SOL     OW 9451   2.695   8.410   2.946 -0.4222 -0.0049  0.4287
35691SOL    HW1 9452   2.722   8.383   2.858  0.7830  1.3103  0.3642
35691SOL    HW2 9453   2.638   8.486   2.932 -0.7923 -0.2123  0.7680
35692SOL     OW 9454   9.178   7.785   8.574 -0.1080  0.1894 -0.3987
35692SOL    HW1 9455   9.156   7.815   8.662  1.8085  2.1959 -0.5045
35692SOL    HW2 9456   9.094   7.781   8.528 -1.0573 -0.1941  1.2968
35693SOL     OW 9457   2.452   2.649   5.099 -0.9489 -0.5391  0.0205
35693SOL    HW1 9458   2.516   2.641   5.027 -0.9550  0.9592 -0.1840
35693SOL    HW2 9459   2.498   2.614   5.175  0.3189  0.9258 -0.0247
35694SOL     OW 9460   5.287   2.379   7.688  0.2193 -0.1463  0.4599
35694SOL    HW1 9461   5.335   2.401   7.768 -2.0794 -0.0539  1.9014
35694SOL    HW2 9462   5.244   2.461   7.662  0.1785 -0.4110 -0.3362
35695SOL     OW 9463   1.871   1.703   7.460 -0.1494  0.6353  0.2418
35695SOL    HW1 9464   1.922   1.622   7.454 -0.0407  0.7002  0.2662
35695SOL    HW2 9465   1.926   1.768   7.417 -0.2530  0.6880  0.1906
35696SOL     OW 9466   2.090   9.979   5.985 -0.6231 -0.3928 -0.0174
35696SOL    HW1 9467   2.069   9.977   5.891 -0.5542 -0.4389 -0.0314
35696SOL    HW2 9468   2.013   9.941   6.027  0.1117 -2.1384 -0.1810
35697SOL     OW 9469   6.121   6.068   5.527  0.3135 -0.4931  0.0496
35697SOL    HW1 9470   6.131   6.164   5.523 -0.6418 -0.3900  0.0768
35697SOL    HW2 9471   6.034   6.051   5.492  0.2652 -1.3165  0.5458
35698SOL     OW 9472   7.729   1.139   0.425  0.8597  0.1824  0.5060
35698SOL    HW1 9473   7.730   1.053   0.467  0.0520 -0.6340 -1.0360
35698SOL    HW2 9474   7.759   1.122   0.335  0.4200  1.4604  0.0891
35699SOL     OW 9475   2.269   0.157   3.297 -0.1854  0.0366 -0.1151
35699SOL    HW1 9476   2.207   0.097   3.256 -0.1579 -2.3077  2.8889
35699SOL    HW2 9477   2.355   0.128   3.267 -0.2490 -0.6711  0.3651
35700SOL     OW 9478   1.579   7.223   5.636  0.1611  0.2888 -0.2023
35700SOL    HW1 9479   1.483   7.221   5.630  0.2217 -0.7092 -1.0530
35700SOL    HW2 9480   1.598   7.182   5.721 -0.1201 -0.9488 -0.7160
35701SOL     OW 9481   0.419   2.761   6.422 -0.0689 -0.4946 -0.0103
35701SOL    HW1 9482   0.325   2.759   6.435  0.0262 -2.7753  0.8299
35701SOL    HW2 9483   0.439   2.677   6.379  1.3702  0.7787 -2.0240
35702SOL     OW 9484   7.391   4.198   7.964 -0.9795 -0.2533  0.2337
35702SOL    HW1 9485   7.374   4.198   7.869 -0.1413 -0.6099  0.0790
35702SOL    HW2 9486   7.404   4.291   7.985  0.2200 -0.2854 -0.2694
35703SOL     OW 9487   0.333   4.918   0.471 -0.1209 -0.2624  0.6430
35703SOL    HW1 9488   0.425   4.910   0.495 -0.1398  0.1080  0.8313
35703SOL    HW2 9489   0.312   4.833   0.432  0.9829  0.4515 -1.7427
35704SOL     OW 9490  10.127   3.354   3.953 -0.3467 -0.0270 -0.0066
35704SOL    HW1 9491  10.155   3.290   3.888  1.8952 -0.4716  1.2829
35704SOL    HW2 9492  10.141   3.439   3.911  1.5883 -0.2925  0.0208
35705SOL     OW 9493   1.805   1.142   3.683  0.2731  0.5320 -0.2068
35705SOL    HW1 9494   1.822   1.088   3.606  0.3241  0.5536 -0.2109
35705SOL    HW2 9495   1.766   1.083   3.747  1.2857  0.2518  0.1663
35706SOL     OW 9496   6.134   1.715   6.914  0.3178 -0.1072  0.2692
35706SOL    HW1 9497   6.187   1.653   6.864  0.0478  0.7676 -1.1743
35706SOL    HW2 9498   6.183   1.797   6.908  0.4789 -0.0585  1.8252
35707SOL     OW 9499   1.924   8.230   3.825 -0.1474 -0.0356  0.1084
35707SOL    HW1 9500   1.988   8.299   3.809 -0.3167 -0.2384 -1.6335
35707SOL    HW2 9501   1.839   8.275   3.823 -0.2374 -0.2271 -0.7023
35708SOL     OW 9502   0.121   2.047   2.375 -0.1003  0.3194  0.1111
35708SOL    HW1 9503   0.195   2.011   2.425  0.2756  1.2843  0.2669
35708SOL    HW2 9504   0.044   2.010   2.417  0.2673 -0.0282  0.4897
35709SOL     OW 9505   3.717   2.126   8.071 -0.2773  0.5512 -0.1027
35709SOL    HW1 9506   3.804   2.124   8.032 -0.0148  1.6926  0.3905
35709SOL    HW2 9507   3.715   2.050   8.129  0.8682  1.2064  0.8453
35710SOL     OW 9508   7.157   1.647   3.639 -0.2464  0.7326  0.0741
35710SOL    HW1 9509   7.170   1.661   3.546 -1.0677 -0.4408 -0.2354
35710SOL    HW2 9510   7.063   1.630   3.649  0.0117 -0.3504  0.9273
35711SOL     OW 9511   9.617  10.595   7.824 -0.1921 -0.1148  0.0075
35711SOL    HW1 9512   9.711  10.579   7.831 -0.5129 -1.3807  2.9421
35711SOL    HW2 9513   9.601  10.673   7.877 -0.7850  0.1113 -0.4934
35712SOL     OW 9514   8.096   6.255   3.077 -0.1035  0.3500 -0.3266
35712SOL    HW1 9515   8.189   6.275   3.089 -0.3206  0.3504  1.7439
35712SOL    HW2 9516   8.092   6.208   2.994  1.6428  1.0061 -0.8116
35713SOL     OW 9517   5.756   5.035   7.026 -0.0220 -0.0523 -0.0162
35713SOL    HW1 9518   5.680   4.976   7.032 -0.5991  0.7642  0.9927
35713SOL    HW2 9519   5.823   4.993   7.079  1.0565 -1.8695 -2.5691
35714SOL     OW 9520   5.688   0.221   3.216  0.6762  0.1201  0.2932
35714SOL    HW1 9521   5.712   0.158   3.149  0.8170 -0.6000  1.0067
35714SOL    HW2 9522   5.656   0.297   3.167  0.5694 -0.4679 -0.5737
35715SOL     OW 9523   8.398   2.568   8.713  0.2329 -0.1531  0.1291
35715SOL    HW1 9524   8.357   2.592   8.796 -2.1132  1.0625 -1.2670
35715SOL    HW2 9525   8.448   2.645   8.687  2.0865 -0.9974  0.9525
35716SOL     OW 9526   6.786  10.451   1.559  0.1112 -0.2627 -0.3010
35716SOL    HW1 9527   6.712  10.460   1.499 -0.6217  0.7112  0.7038
35716SOL    HW2 9528   6.825  10.538   1.561  0.1069 -0.2799  0.6525
35717SOL     OW 9529  10.275   4.978   9.971 -0.0665  0.4314 -0.0928
35717SOL    HW1 9530  10.370   4.989   9.971 -0.0404  0.6459 -2.3356
35717SOL    HW2 9531  10.255   4.930   9.891 -1.8472  0.0907  0.4859
35718SOL     OW 9532   2.641   0.931   1.617 -0.2103 -0.2740 -0.4328
35718SOL    HW1 9533   2.669   0.843   1.643  0.2338 -0.5274 -1.7089
35718SOL    HW2 9534   2.545   0.927   1.616 -0.1834 -1.0150 -1.3294
35719SOL     OW 9535   0.494   9.793   0.832  0.3098 -0.1412  0.0274
35719SOL    HW1 9536   0.431   9.737   0.787  0.6472  0.0316 -0.6715
35719SOL    HW2 9537   0.462   9.797   0.922 -1.1341  0.5833 -0.4895
35720SOL     OW 9538  10.577  10.056   6.705 -0.0638 -0.4972 -0.2794
35720SOL    HW1 9539  10.501  10.001   6.687  0.3882 -1.4215  0.5384
35720SOL    HW2 9540  10.641  10.032   6.638 -0.7363  0.8753 -1.4931
35721SOL     OW 9541   3.520   1.657   2.847  0.0568 -0.5006 -0.2561
35721SOL    HW1 9542   3.450   1.699   2.897  0.7491 -0.8644  1.0759
35721SOL    HW2 9543   3.601   1.691   2.887  0.7005  0.8934 -2.5719
35722SOL     OW 9544   3.343   8.492   4.809  0.1501  0.0813 -0.0824
35722SOL    HW1 9545   3.260   8.508   4.765  0.8084 -0.0812 -1.4383
35722SOL    HW2 9546   3.362   8.399   4.790 -0.2891 -0.4411  1.8562
35723SOL     OW 9547   9.854   9.682   0.955  0.8303 -0.0257 -0.0598
35723SOL    HW1 9548   9.822   9.768   0.927 -0.9917 -0.8036 -0.5102
35723SOL    HW2 9549   9.823   9.672   1.045  2.8127  0.5873  0.7602
35724SOL     OW 9550   6.438   4.670   2.164 -0.0328 -0.0248 -0.1994
35724SOL    HW1 9551   6.345   4.647   2.156  0.8091 -3.4057 -2.2619
35724SOL    HW2 9552   6.449   4.748   2.109 -1.4817 -0.1742 -0.7335
35725SOL     OW 9553   3.387   6.405   1.102  0.0176  0.2395 -0.4294
35725SOL    HW1 9554   3.395   6.492   1.062  0.3939  0.1403 -0.5763
35725SOL    HW2 9555   3.368   6.347   1.028  0.0255  0.1595 -0.3687
35726SOL     OW 9556   2.773   7.926   7.077  0.0520  0.1911  0.7040
35726SOL    HW1 9557   2.774   7.842   7.032 -3.5490  1.1159 -1.5777
35726SOL    HW2 9558   2.724   7.910   7.158  2.2576 -0.4599  1.9931
35727SOL     OW 9559   8.905   4.165   7.257  0.4066 -0.1765 -0.1119
35727SOL    HW1 9560   8.862   4.127   7.334 -1.7620  0.5175 -0.9030
35727SOL    HW2 9561   8.938   4.250   7.288 -1.1930  0.4732 -0.1199
35728SOL     OW 9562  10.372   0.696   9.622 -0.1562  0.6252 -0.2377
35728SOL    HW1 9563  10.437   0.667   9.686 -0.9354  1.0191  0.7583
35728SOL    HW2 9564  10.316   0.756   9.670 -0.8789  0.7997 -1.2546
35729SOL     OW 9565  10.759   5.503   9.476 -0.3203 -0.4679  0.4245
35729SOL    HW1 9566  10.830   5.566   9.482  0.2988 -1.2816  2.8380
35729SOL    HW2 9567  10.686   5.543   9.523 -0.9189 -0.3556 -0.5685
35730SOL     OW 9568   9.854   1.627   0.808  0.0186 -0.2625 -0.5290
35730SOL    HW1 9569   9.931   1.573   0.791  1.8003  1.4851  1.3854
35730SOL    HW2 9570   9.883   1.691   0.873 -3.2482  0.1142  0.7758
35731SOL     OW 9571   6.386   0.883   6.366  0.4538  0.2432 -0.0929
35731SOL    HW1 9572   6.412   0.791   6.361  1.2196  0.3728  1.1464
35731SOL    HW2 9573   6.385   0.913   6.275 -0.2806 -1.1070 -0.5612
35732SOL     OW 9574   9.346   7.284   4.404  0.9367 -0.5338 -0.1590
35732SOL    HW1 9575   9.383   7.363   4.443  1.1539 -0.6238 -0.1797
35732SOL    HW2 9576   9.345   7.302   4.310  2.3479 -1.1023 -0.3195
35733SOL     OW 9577   6.245   2.168   2.550 -0.2199  0.6590  0.1548
35733SOL    HW1 9578   6.164   2.120   2.568 -0.9221  1.7444 -0.0052
35733SOL    HW2 9579   6.315   2.104   2.566 -1.0583 -0.0222  1.2183
35734SOL     OW 9580   3.571   8.355   7.668  0.2582  0.4778  0.7906
35734SOL    HW1 9581   3.535   8.390   7.587 -0.0470  0.1812  0.7977
35734SOL    HW2 9582   3.641   8.296   7.640 -1.3084 -1.3815  0.6202
35735SOL     OW 9583  10.357   9.767   8.226  0.8470 -0.0230 -0.4044
35735SOL    HW1 9584  10.404   9.684   8.222  0.0707 -0.6731  2.1227
35735SOL    HW2 9585  10.377   9.810   8.143  2.3083 -2.1577 -1.2440
35736SOL     OW 9586   8.194   0.686  10.245  0.0358 -0.0684  0.5173
35736SOL    HW1 9587   8.246   0.766  10.259  1.3297 -0.8365  0.2818
35736SOL    HW2 9588   8.108   0.718  10.217  1.1023  1.2522 -1.5169
35737SOL     OW 9589   5.999   5.628   5.756 -0.2644 -0.4933 -0.4866
35737SOL    HW1 9590   6.012   5.539   5.725 -0.3805 -0.1457 -1.5899
35737SOL    HW2 9591   5.989   5.680   5.676 -0.1474  0.5156  0.1347
35738SOL     OW 9592   2.529   2.955  10.145 -0.2040 -0.0839  0.0230
35738SOL    HW1 9593   2.457   2.912  10.191 -0.1903  0.6118  0.7045
35738SOL    HW2 9594   2.608   2.915  10.180 -0.0919  1.7133  2.0188
35739SOL     OW 9595   6.954   6.562   8.993 -0.0359 -0.3733 -0.5994
35739SOL    HW1 9596   7.048   6.579   8.986  0.9870 -4.5238  0.3257
35739SOL    HW2 9597   6.921   6.565   8.903  1.7359 -1.9975 -1.3624
35740SOL     OW 9598   1.717   0.546   8.386  0.3545 -0.0794  0.1933
35740SOL    HW1 9599   1.626   0.566   8.408  0.3347  1.7247 -1.3005
35740SOL    HW2 9600   1.768   0.609   8.438  0.8327 -1.3804  1.3794
35741SOL     OW 9601   8.874  10.681   9.068  0.1442  0.0854  0.3533
35741SOL    HW1 9602   8.810  10.748   9.044  2.0694  1.4363 -1.3507
35741SOL    HW2 9603   8.900  10.641   8.985  2.8808  0.9520  0.6929
35742SOL     OW 9604   2.010   5.156   6.525 -0.0229 -0.6015 -0.2976
35742SOL    HW1 9605   2.072   5.099   6.480 -0.0458 -1.1107  0.2989
35742SOL    HW2 9606   2.051   5.175   6.609 -0.6938 -1.0065  0.1363
35743SOL     OW 9607   2.967   9.748   4.312  0.0603 -0.0436  0.0548
35743SOL    HW1 9608   3.000   9.678   4.255 -0.9875 -0.6767  0.2045
35743SOL    HW2 9609   2.964   9.825   4.255 -1.5157 -0.7933 -0.9457
35744SOL     OW 9610   7.296  10.598   5.009  0.5175  0.1525  0.2639
35744SOL    HW1 9611   7.326  10.656   5.078  0.5787  0.9291 -0.4060
35744SOL    HW2 9612   7.238  10.652   4.955  2.8453  0.5050 -2.0781
35745SOL     OW 9613  10.609   8.446   0.103  0.2967 -1.1667  0.9889
35745SOL    HW1 9614  10.698   8.451   0.138  1.1343 -0.7540 -1.0880
35745SOL    HW2 9615  10.616   8.392   0.025 -1.2736 -1.1020  0.7661
35746SOL     OW 9616  10.360   8.879   0.748  0.0887  0.2854  0.4235
35746SOL    HW1 9617  10.435   8.831   0.784  0.3023 -0.4524 -0.9426
35746SOL    HW2 9618  10.285   8.847   0.798  0.0599 -2.3426 -1.1178
35747SOL     OW 9619   3.092   7.954   0.064  0.2196  0.3438  0.0320
35747SOL    HW1 9620   3.150   7.889   0.104 -1.1335 -0.7270  0.3679
35747SOL    HW2 9621   3.063   7.913  -0.018 -0.5844  0.5557  0.2024
35748SOL     OW 9622   3.762   8.964   3.021  0.4540  0.7378 -0.0363
35748SOL    HW1 9623   3.832   8.899   3.032  0.2100  0.5685  0.5451
35748SOL    HW2 9624   3.699   8.943   3.090  0.3464  1.5654  0.1278
35749SOL     OW 9625   2.022   6.252   7.704 -0.2521 -1.2045 -0.0657
35749SOL    HW1 9626   2.087   6.228   7.771 -0.6180 -1.0431  0.3477
35749SOL    HW2 9627   1.953   6.186   7.713 -0.9962 -0.3395  0.7012
35750SOL     OW 9628   6.375   4.045   8.024 -0.4211 -0.7793  0.8704
35750SOL    HW1 9629   6.392   3.985   7.951 -2.1907  1.9770 -2.0737
35750SOL    HW2 9630   6.462   4.069   8.056  0.5545 -0.7833 -1.5414
35751SOL     OW 9631   3.332   1.696   3.573 -0.0447  0.3238 -0.4686
35751SOL    HW1 9632   3.376   1.744   3.643  2.7878  1.6072 -2.9150
35751SOL    HW2 9633   3.253   1.747   3.555  0.0698  0.9182  0.6288
35752SOL     OW 9634   8.515   0.069   6.074  0.1159  0.1322 -0.2257
35752SOL    HW1 9635   8.538   0.150   6.119  0.4385 -0.5972  0.9630
35752SOL    HW2 9636   8.589   0.011   6.092 -0.5839 -0.7589 -0.1958
35753SOL     OW 9637   0.928   9.974   2.921 -0.3983 -0.3713  0.1753
35753SOL    HW1 9638   0.926   9.961   3.016  0.2767 -0.6830  0.1511
35753SOL    HW2 9639   0.861  10.040   2.905 -0.3851 -0.1710  0.8956
35754SOL     OW 9640   6.321   0.515   9.243  0.0258 -0.0721 -0.1801
35754SOL    HW1 9641   6.409   0.482   9.227 -0.0162 -0.9947  1.3540
35754SOL    HW2 9642   6.335   0.600   9.286  0.1236  0.8202 -1.8640
35755SOL     OW 9643   1.105  10.649   2.284 -0.0116 -0.2762  0.4583
35755SOL    HW1 9644   1.183  10.630   2.336 -0.0104  1.8323  1.3162
35755SOL    HW2 9645   1.065  10.563   2.268  0.7956 -1.1245  2.6753
35756SOL     OW 9646   2.442   2.437   1.240  0.2203 -0.1361  0.2219
35756SOL    HW1 9647   2.476   2.352   1.211 -0.9884 -0.2226 -1.0395
35756SOL    HW2 9648   2.482   2.501   1.181 -0.7204 -0.1000 -0.3984
35757SOL     OW 9649   2.028   5.271   5.171 -0.1734  0.1086 -0.0179
35757SOL    HW1 9650   2.020   5.254   5.265  1.3642  0.4682  0.1967
35757SOL    HW2 9651   2.063   5.360   5.165 -0.4209  0.1560 -0.9460
35758SOL     OW 9652   9.678   4.252   1.886 -0.0729 -0.7625  0.3398
35758SOL    HW1 9653   9.718   4.212   1.808  3.3099  1.5568  0.6805
35758SOL    HW2 9654   9.682   4.183   1.952  1.2472 -1.3872 -0.3341
35759SOL     OW 9655  10.247   7.241   9.726  0.9885  0.3605  0.5607
35759SOL    HW1 9656  10.155   7.221   9.743  1.4832 -1.0724  1.8584
35759SOL    HW2 9657  10.271   7.185   9.652  0.9614  0.2521  0.6327
35760SOL     OW 9658   0.706   8.587  10.757 -0.3339 -0.6688 -0.4446
35760SOL    HW1 9659   0.701   8.547  10.670  2.3713 -0.5614 -0.7442
35760SOL    HW2 9660   0.654   8.529  10.813  0.6125 -2.6814 -1.5265
35761SOL     OW 9661   0.198   2.074   9.941  0.1377  0.0960 -0.2699
35761SOL    HW1 9662   0.120   2.093   9.889  1.8907  0.3249 -2.9912
35761SOL    HW2 9663   0.227   2.159   9.973 -0.4746  0.0543  0.4247
35762SOL     OW 9664   5.361   5.802  10.159 -0.6690 -0.0165 -0.3837
35762SOL    HW1 9665   5.422   5.806  10.233 -0.6552 -0.5679 -0.3644
35762SOL    HW2 9666   5.313   5.885  10.164 -1.0369 -0.2684  0.5655
35763SOL     OW 9667   2.206   0.644   6.053  0.0040  0.7107  0.7153
35763SOL    HW1 9668   2.173   0.602   6.133  0.2322  0.7777  0.8447
35763SOL    HW2 9669   2.131   0.644   5.994  0.1315 -0.3273  0.5331
35764SOL     OW 9670   0.967   9.520   0.585  0.2868  0.7356  0.0278
35764SOL    HW1 9671   0.949   9.451   0.649 -0.5987 -0.6129 -1.6054
35764SOL    HW2 9672   1.047   9.493   0.542 -0.7260  0.0223 -1.4805
35765SOL     OW 9673   2.498   1.412   2.143  0.6128 -0.3162 -0.2427
35765SOL    HW1 9674   2.530   1.483   2.198  0.9566 -1.0307  0.5001
35765SOL    HW2 9675   2.575   1.382   2.095 -0.0531  1.6935 -2.8054
35766SOL     OW 9676   3.875   2.560   5.920 -0.7639 -0.1570  0.1617
35766SOL    HW1 9677   3.798   2.602   5.957  0.1872  2.0342 -0.1721
35766SOL    HW2 9678   3.913   2.626   5.861  0.0289 -2.0327 -1.5899
35767SOL     OW 9679   7.531   4.992   5.875 -0.2288  0.2237  0.1080
35767SOL    HW1 9680   7.509   4.899   5.876  0.4041  0.0638  0.6564
35767SOL    HW2 9681   7.474   5.031   5.941  1.7929 -0.3923  2.4163
35768SOL     OW 9682   9.759   2.520   6.775 -0.0565 -0.3022  0.5161
35768SOL    HW1 9683   9.772   2.426   6.772  2.4578  0.0058 -1.6095
35768SOL    HW2 9684   9.695   2.538   6.707  0.6612 -0.3612 -0.1886
35769SOL     OW 9685   4.565   5.040   9.461  0.7836 -0.2409 -0.1602
35769SOL    HW1 9686   4.608   5.028   9.545 -1.9695 -0.4042  1.3469
35769SOL    HW2 9687   4.537   4.952   9.436  0.8847 -0.0790 -0.8757
35770SOL     OW 9688   4.532   7.927   1.658  0.6747  0.2413  0.2458
35770SOL    HW1 9689   4.516   7.999   1.719 -2.3111  0.7281 -0.9565
35770SOL    HW2 9690   4.446   7.904   1.624  1.9744 -1.3764 -2.2928
35771SOL     OW 9691   8.469   0.000   5.319  0.1061 -0.1690  0.2857
35771SOL    HW1 9692   8.390   0.020   5.369 -2.2892 -3.8331 -1.6291
35771SOL    HW2 9693   8.467   0.061   5.246 -2.2533 -1.4480 -0.8490
35772SOL     OW 9694  10.657   4.311   2.736 -0.5635  0.0563 -0.2113
35772SOL    HW1 9695  10.598   4.350   2.800 -1.1458  1.7624 -1.6866
35772SOL    HW2 9696  10.676   4.224   2.770 -0.3555  1.0831  2.5527
35773SOL     OW 9697   7.835   1.349   2.272 -0.5755 -0.2188 -0.2933
35773SOL    HW1 9698   7.857   1.292   2.198 -0.1511  1.2236 -1.3475
35773SOL    HW2 9699   7.739   1.351   2.273 -0.6284  1.2013 -2.0742
35774SOL     OW 9700   4.787   3.282   6.203 -0.4490  0.9980 -0.1708
35774SOL    HW1 9701   4.874   3.247   6.189 -0.9112 -1.0755  1.5882
35774SOL    HW2 9702   4.741   3.269   6.120  1.0992  3.0301 -1.4518
35775SOL     OW 9703   6.316   4.082   5.320 -0.5713  0.8371  0.4132
35775SOL    HW1 9704   6.227   4.083   5.356 -0.8876  2.6146 -0.3321
35775SOL    HW2 9705   6.309   4.127   5.236  0.8242 -0.0996 -0.2528
35776SOL     OW 9706   5.631   4.164   5.916 -0.0740  0.5713  0.1611
35776SOL    HW1 9707   5.636   4.113   5.997  0.4439  1.9867  1.0396
35776SOL    HW2 9708   5.684   4.114   5.854  1.0963  0.4154  1.2329
35777SOL     OW 9709   5.025   5.189   0.888 -0.3583 -0.0153  0.3313
35777SOL    HW1 9710   5.059   5.255   0.948 -0.7974  1.2468 -0.7466
35777SOL    HW2 9711   5.102   5.137   0.864  0.3284  1.1113 -0.0132
35778SOL     OW 9712   5.872   0.972   5.804 -0.1861 -0.1717  0.3433
35778SOL    HW1 9713   5.820   1.000   5.879 -2.1670 -0.4685 -0.8187
35778SOL    HW2 9714   5.853   1.037   5.736  3.9421  1.8560  0.8633
35779SOL     OW 9715   6.556   1.047   5.616  0.1972 -0.6909 -0.3552
35779SOL    HW1 9716   6.549   1.034   5.521 -0.7045  3.1325 -0.9782
35779SOL    HW2 9717   6.642   1.087   5.629 -1.5122  3.5319 -0.4680
35780SOL     OW 9718   7.143   8.166   6.245 -0.0510  0.0593  0.5286
35780SOL    HW1 9719   7.097   8.233   6.294 -0.4482 -0.5213  0.9519
35780SOL    HW2 9720   7.156   8.094   6.307 -0.2680 -0.5490 -0.1185
35781SOL     OW 9721   0.640   2.733   8.718 -0.0767  0.1055  0.3843
35781SOL    HW1 9722   0.711   2.761   8.661  0.2749  2.6970  1.9216
35781SOL    HW2 9723   0.650   2.785   8.798 -1.6868 -1.9348  2.0759
35782SOL     OW 9724   8.099   7.854   1.052 -0.2450 -0.4221  0.2987
35782SOL    HW1 9725   8.193   7.851   1.073 -0.5096 -0.5597  1.4857
35782SOL    HW2 9726   8.091   7.800   0.973  0.5600 -1.0662  0.6412
35783SOL     OW 9727   6.377   6.791   8.749  0.1048 -0.4473 -0.3005
35783SOL    HW1 9728   6.433   6.799   8.671  2.2677 -2.1282  0.9596
35783SOL    HW2 9729   6.417   6.850   8.813 -0.7011 -0.2614  0.0433
35784SOL     OW 9730   1.120  10.720  10.257  0.4591 -0.2183 -0.3345
35784SOL    HW1 9731   1.051  10.745  10.318  0.2341 -1.0195 -0.2504
35784SOL    HW2 9732   1.110  10.780  10.184  1.3099  1.3614  0.7883
35785SOL     OW 9733   2.125  10.478   2.364  0.4793  0.8516  0.0782
35785SOL    HW1 9734   2.117  10.573   2.350 -2.7170  0.4246 -1.9658
35785SOL    HW2 9735   2.130  10.441   2.276  1.7895 -0.9131  0.8485
35786SOL     OW 9736   9.303   4.771   1.564 -0.3356  0.2265 -0.0389
35786SOL    HW1 9737   9.285   4.794   1.472  0.2424 -1.2420 -0.5453
35786SOL    HW2 9738   9.324   4.678   1.561 -0.4554  0.1314  1.6241
35787SOL     OW 9739   5.873   8.092   5.574  0.2233 -0.0110  0.0873
35787SOL    HW1 9740   5.915   8.111   5.657  0.8147 -0.7962 -0.0237
35787SOL    HW2 9741   5.911   8.009   5.546 -0.2160  0.0759 -0.8044
35788SOL     OW 9742  10.588   0.943   7.539  0.1756  0.2462  0.6568
35788SOL    HW1 9743  10.630   0.874   7.487  0.4861  0.5385  0.5088
35788SOL    HW2 9744  10.595   0.913   7.629 -0.9099 -0.5531  0.4891
35789SOL     OW 9745   2.096   6.962   3.935  0.1231 -0.5639  0.2583
35789SOL    HW1 9746   2.183   6.979   3.972  0.2958 -0.2710 -0.2763
35789SOL    HW2 9747   2.092   6.866   3.928  0.8572 -0.5301 -0.7790
35790SOL     OW 9748   9.405   8.446   7.234 -0.6749  0.6921  0.5040
35790SOL    HW1 9749   9.325   8.437   7.287 -1.5075  1.6266 -0.5476
35790SOL    HW2 9750   9.401   8.373   7.173 -0.0345 -0.0177  1.2819
35791SOL     OW 9751   7.423   3.670   2.786  0.2370  0.2328  0.2764
35791SOL    HW1 9752   7.456   3.717   2.863 -0.3513 -0.5606  1.0246
35791SOL    HW2 9753   7.426   3.578   2.811  0.6450 -0.0877 -0.8954
35792SOL     OW 9754   5.114   8.089   9.301  0.2685  0.4857 -0.5834
35792SOL    HW1 9755   5.144   8.004   9.272 -1.2126 -0.3189  0.1291
35792SOL    HW2 9756   5.192   8.133   9.335  1.2621 -0.0950 -2.0599
35793SOL     OW 9757   5.242   2.364   8.881 -0.2510 -0.5407 -0.2376
35793SOL    HW1 9758   5.223   2.448   8.841 -1.2365 -0.3818  0.5534
35793SOL    HW2 9759   5.206   2.370   8.969  1.0168 -1.2440  0.3532
35794SOL     OW 9760   7.963   5.150   1.779  0.0030  0.4186  0.1806
35794SOL    HW1 9761   7.936   5.060   1.799 -0.5717  0.7442  0.9008
35794SOL    HW2 9762   8.042   5.164   1.831 -0.6193  0.7432  1.0650
35795SOL     OW 9763   1.985   6.521   4.863 -0.1467 -0.1511  0.3988
35795SOL    HW1 9764   1.972   6.579   4.788 -0.2961  1.0494  1.3102
35795SOL    HW2 9765   1.942   6.439   4.838  1.3557 -0.4344 -1.5346
35796SOL     OW 9766   6.434   8.731   3.881  0.0597 -0.3152  0.4969
35796SOL    HW1 9767   6.456   8.814   3.838 -3.4074 -0.1661 -1.2927
35796SOL    HW2 9768   6.358   8.751   3.935 -1.2068 -2.3907 -0.4025
35797SOL     OW 9769   0.419   2.266   7.936  0.2451 -0.1176  0.1422
35797SOL    HW1 9770   0.348   2.267   7.872 -0.9152  1.8366  1.3788
35797SOL    HW2 9771   0.479   2.334   7.906  0.1840  0.1427  0.6096
35798SOL     OW 9772   8.839   4.133   1.494 -0.0407  0.2495 -0.3897
35798SOL    HW1 9773   8.803   4.114   1.581  1.3275 -0.6595  0.0059
35798SOL    HW2 9774   8.834   4.050   1.447  1.0786  0.2277 -0.4862
35799SOL     OW 9775   1.898   3.593   9.975  0.3573 -0.2742 -0.3799
35799SOL    HW1 9776   1.911   3.685  10.000 -0.2993  0.5434 -2.7292
35799SOL    HW2 9777   1.986   3.556   9.972  0.7688  0.6933 -0.7494
35800SOL     OW 9778   8.258   8.754   1.913 -0.3396  0.1057  0.0894
35800SOL    HW1 9779   8.219   8.837   1.939 -1.2201 -0.5573  0.9335
35800SOL    HW2 9780   8.190   8.710   1.862  0.7010  0.5691 -1.8207
35801SOL     OW 9781   4.417   8.652   2.009  0.5363 -0.2623 -0.4973
35801SOL    HW1 9782   4.327   8.646   1.976  0.0326  1.6987  0.3917
35801SOL    HW2 9783   4.414   8.607   2.094  0.5128 -0.5567 -0.6511
35802SOL     OW 9784   8.299   0.511   1.592  0.1523 -0.3199  0.2106
35802SOL    HW1 9785   8.258   0.583   1.639  0.0732 -0.0711 -0.2400
35802SOL    HW2 9786   8.229   0.446   1.583 -0.3391  0.3525 -1.0911
35803SOL     OW 9787   4.624   6.938   7.634  0.1784 -1.2594  0.0925
35803SOL    HW1 9788   4.695   6.893   7.588 -0.6444 -0.7990 -1.7190
35803SOL    HW2 9789   4.551   6.877   7.632  0.4575 -1.7040  1.8911
35804SOL     OW 9790   6.008   8.270   8.387 -0.6241  0.6708  0.1726
35804SOL    HW1 9791   5.954   8.202   8.426 -0.4274  0.7586  0.6000
35804SOL    HW2 9792   6.054   8.310   8.460 -0.1360  0.7357 -0.1649
35805SOL     OW 9793  10.290   0.798   0.570  0.2540 -0.0536  0.5454
35805SOL    HW1 9794  10.205   0.814   0.610  0.1327  0.2239  0.1774
35805SOL    HW2 9795  10.270   0.760   0.484  0.4663  1.1982 -0.0773
35806SOL     OW 9796   0.435   2.422  10.213  0.5268  0.2957  0.6455
35806SOL    HW1 9797   0.450   2.329  10.228 -1.4165  0.0185  1.2530
35806SOL    HW2 9798   0.491   2.467  10.276  1.6466 -0.4264  0.1913
35807SOL     OW 9799   6.874   5.429   6.969  0.0381  0.0374 -0.0833
35807SOL    HW1 9800   6.778   5.432   6.959 -0.1017 -0.9298  0.8277
35807SOL    HW2 9801   6.895   5.336   6.969  1.0414  0.2488 -0.6656
35808SOL     OW 9802   8.547   1.378   7.759  0.1958  0.1068  0.4083
35808SOL    HW1 9803   8.597   1.440   7.813  1.1809 -1.1248  0.9594
35808SOL    HW2 9804   8.594   1.374   7.676 -0.2454  0.5702  0.1271
35809SOL     OW 9805   2.553   0.567   9.901 -0.2069  0.4787 -0.1905
35809SOL    HW1 9806   2.565   0.641   9.961  1.8225 -0.2284  0.3818
35809SOL    HW2 9807   2.459   0.549   9.902 -0.2567  0.3065  3.0568
35810SOL     OW 9808  10.262   0.797   8.205 -0.3275 -0.1196 -0.3572
35810SOL    HW1 9809  10.218   0.830   8.283  0.0364 -1.2149  0.3351
35810SOL    HW2 9810  10.352   0.782   8.232  0.0449  0.3777 -1.2597
35811SOL     OW 9811   8.202   9.637   4.773  0.0316 -0.2913  0.1508
35811SOL    HW1 9812   8.157   9.566   4.726 -0.4952  0.1300  0.0151
35811SOL    HW2 9813   8.131   9.691   4.809  0.4326 -0.0495  0.5844
35812SOL     OW 9814   0.134   4.374   1.215  0.4146  0.0745  0.2905
35812SOL    HW1 9815   0.089   4.401   1.135 -0.2277  0.3684  0.7463
35812SOL    HW2 9816   0.092   4.292   1.240  1.1759 -0.4500 -0.1226
35813SOL     OW 9817   2.782   1.311   5.067  0.0402 -0.3281  0.0742
35813SOL    HW1 9818   2.706   1.334   5.013 -1.8912 -0.4600  2.5829
35813SOL    HW2 9819   2.823   1.395   5.088  0.5554 -0.2451 -1.1882
35814SOL     OW 9820   3.643   0.315   2.722  0.1347  0.2228  0.3057
35814SOL    HW1 9821   3.667   0.399   2.681  0.8734 -0.8410 -1.5521
35814SOL    HW2 9822   3.720   0.291   2.774  0.0885  0.4962  0.5015
35815SOL     OW 9823   9.376   0.102   2.877 -0.1741 -0.1276 -0.4281
35815SOL    HW1 9824   9.306   0.060   2.927 -1.1950  0.1811 -1.5443
35815SOL    HW2 9825   9.400   0.179   2.928 -2.4604  1.1972 -1.2026
35816SOL     OW 9826   1.126   0.684   1.337 -0.1650 -0.5735 -0.2135
35816SOL    HW1 9827   1.108   0.592   1.354  0.6252 -0.6828  0.0527
35816SOL    HW2 9828   1.221   0.689   1.326 -0.2023  0.2013 -0.2735
35817SOL     OW 9829   0.995   9.848   9.297  0.6958  0.2795  0.2448
35817SOL    HW1 9830   1.050   9.923   9.276  1.2010  0.2132  1.2773
35817SOL    HW2 9831   0.908   9.886   9.312  1.0386  0.7319  1.1834
35818SOL     OW 9832   9.634   2.186   9.624  0.4632 -0.1484 -0.2977
35818SOL    HW1 9833   9.584   2.196   9.705  3.6859 -0.9270  1.9816
35818SOL    HW2 9834   9.623   2.270   9.580 -1.5831  0.2296  0.7942
35819SOL     OW 9835   4.741   6.837   6.969 -0.2678 -0.5408 -0.0435
35819SOL    HW1 9836   4.827   6.825   7.009  0.0085 -0.7347 -0.6830
35819SOL    HW2 9837   4.717   6.750   6.936  0.6028  0.0265 -2.4262
35820SOL     OW 9838   6.834   0.567   7.524  0.3596 -0.5134 -0.2859
35820SOL    HW1 9839   6.775   0.585   7.452 -0.7268 -2.5649 -0.0040
35820SOL    HW2 9840   6.785   0.590   7.603  0.4941 -0.7976 -0.1133
35821SOL     OW 9841   7.933   5.625   9.198  0.3291 -0.2219  0.5012
35821SOL    HW1 9842   8.020   5.646   9.231  1.0270  1.3797 -2.0374
35821SOL    HW2 9843   7.875   5.685   9.244  1.1487  1.3256 -0.3658
35822SOL     OW 9844   3.652  10.223   8.723 -0.0000  0.2027  0.3415
35822SOL    HW1 9845   3.618  10.298   8.771 -0.8424 -0.7135  1.2451
35822SOL    HW2 9846   3.734  10.254   8.684  0.4327  1.1648  1.9117
35823SOL     OW 9847   4.909   6.202   0.066 -0.1215  0.3903  0.4403
35823SOL    HW1 9848   4.922   6.266   0.136  0.0861 -1.2362  1.9545
35823SOL    HW2 9849   4.888   6.120   0.112  0.5835 -0.8670 -1.3798
35824SOL     OW 9850   0.567   3.066   3.907  0.1293 -0.5718  0.4887
35824SOL    HW1 9851   0.633   3.058   3.976  0.7806  2.0620  0.2615
35824SOL    HW2 9852   0.536   3.156   3.913 -0.7109 -0.6259 -1.8657
35825SOL     OW 9853   3.166  10.211   8.414 -0.0944  0.0419  0.1441
35825SOL    HW1 9854   3.257  10.228   8.391 -0.0789  1.7207  1.2783
35825SOL    HW2 9855   3.130  10.167   8.337  1.5370 -0.1969 -0.5233
35826SOL     OW 9856   0.892   3.685   3.263 -0.3078 -0.2465  0.5032
35826SOL    HW1 9857   0.985   3.706   3.272  0.4039 -2.6731 -0.4894
35826SOL    HW2 9858   0.881   3.664   3.170 -2.3634  2.0072  0.1231
35827SOL     OW 9859   9.023   9.132   6.812 -0.2110  0.5692 -0.2350
35827SOL    HW1 9860   8.931   9.123   6.788 -0.4235  0.2186  0.6601
35827SOL    HW2 9861   9.070   9.126   6.729 -1.0006  0.8972 -0.7148
35828SOL     OW 9862   2.364   0.653   2.077 -0.5901  0.2818  0.4738
35828SOL    HW1 9863   2.380   0.628   2.168 -1.7543  0.4218  0.7357
35828SOL    HW2 9864   2.269   0.665   2.072 -0.4851  0.7680 -0.6383
35829SOL     OW 9865   0.795   3.837   0.826 -0.1175  0.6345 -0.9100
35829SOL    HW1 9866   0.703   3.863   0.826 -0.0612  0.9337  1.0027
35829SOL    HW2 9867   0.826   3.863   0.739 -1.8133  0.5485 -1.5846
35830SOL     OW 9868  10.146   5.860   3.107 -0.1622 -0.4504 -0.2301
35830SOL    HW1 9869  10.147   5.770   3.138 -1.5191  0.1943  1.9143
35830SOL    HW2 9870  10.170   5.912   3.184  1.2484  1.0068 -1.5829
35831SOL     OW 9871   8.534  10.610   1.218 -0.5520  0.9594 -0.1046
35831SOL    HW1 9872   8.546  10.635   1.127  0.3471  1.6639  0.1849
35831SOL    HW2 9873   8.570  10.684   1.268  2.5608 -0.9695  0.8126
35832SOL     OW 9874   0.838   9.956   3.442 -0.6547 -0.0811 -0.1911
35832SOL    HW1 9875   0.872   9.885   3.496  0.7606  1.5868  1.2699
35832SOL    HW2 9876   0.786  10.009   3.503 -1.7363  0.1271 -1.2559
35833SOL     OW 9877   3.550   6.150  10.453 -0.4239  1.0002  0.0956
35833SOL    HW1 9878   3.612   6.178  10.387 -1.6379 -0.1828 -1.6477
35833SOL    HW2 9879   3.476   6.211  10.445 -1.6264 -0.5451 -1.4128
35834SOL     OW 9880   3.849   6.819   3.081  0.0925 -0.0848 -0.1725
35834SOL    HW1 9881   3.795   6.865   3.145  0.8929 -0.6239  0.9263
35834SOL    HW2 9882   3.822   6.855   2.997 -1.4286  0.1901  0.4050
35835SOL     OW 9883   3.719   0.783   1.961 -0.7075  0.2385 -0.1369
35835SOL    HW1 9884   3.771   0.710   1.926 -2.2324 -2.3203  2.5133
35835SOL    HW2 9885   3.636   0.778   1.913 -1.3796 -0.8489  1.0652
35836SOL     OW 9886   8.532   6.252   5.730  0.4031 -0.5190 -0.4275
35836SOL    HW1 9887   8.543   6.334   5.779 -0.0864  1.0027 -2.7090
35836SOL    HW2 9888   8.461   6.207   5.774  3.0187 -1.6097  3.1391
35837SOL     OW 9889   9.347   6.876   6.462 -0.4021 -0.6274 -0.0891
35837SOL    HW1 9890   9.374   6.786   6.444  1.1055 -0.1849 -0.2413
35837SOL    HW2 9891   9.313   6.908   6.378 -1.1027 -1.1026  0.0118
35838SOL     OW 9892   3.740   6.461   8.063 -0.5409 -0.1153  0.2241
35838SOL    HW1 9893   3.829   6.496   8.063 -0.7293  0.3681 -0.2025
35838SOL    HW2 9894   3.742   6.393   8.130  0.2105 -0.2617  0.0717
35839SOL     OW 9895   0.975   0.207   5.231  0.1231 -0.3291 -0.2612
35839SOL    HW1 9896   0.986   0.275   5.164  2.0735 -0.1944  0.1285
35839SOL    HW2 9897   0.922   0.249   5.299 -2.0627 -0.5324 -1.7514
35840SOL     OW 9898   6.896   2.058   9.553  0.2698  0.4198  0.2139
35840SOL    HW1 9899   6.831   2.076   9.484 -0.7338 -0.2337  0.9620
35840SOL    HW2 9900   6.879   1.967   9.578  3.7487 -1.0568 -1.9478
35841SOL     OW 9901   8.447   2.799   4.555 -0.0812  0.0746 -0.1551
35841SOL    HW1 9902   8.473   2.808   4.464 -0.8898 -2.3124 -0.7054
35841SOL    HW2 9903   8.365   2.750   4.552  0.1812 -0.6042  1.8715
35842SOL     OW 9904   6.008   8.708   9.057 -0.5860  0.1186  0.0819
35842SOL    HW1 9905   5.968   8.679   9.139 -1.2087 -0.0399 -0.2672
35842SOL    HW2 9906   5.939   8.695   8.991  0.4743 -1.4794 -0.7924
35843SOL     OW 9907  10.348   4.768   7.127 -0.2822 -0.1433  0.4272
35843SOL    HW1 9908  10.379   4.739   7.041  1.9509 -0.6919  1.3203
35843SOL    HW2 9909  10.306   4.852   7.111  1.4808  0.5400 -1.0235
35844SOL     OW 9910   8.332   2.101   5.199  0.4495 -0.5919  0.4683
35844SOL    HW1 9911   8.249   2.104   5.150  0.6946 -0.0286  0.0767
35844SOL    HW2 9912   8.399   2.094   5.131  0.6640 -3.0844  0.8096
35845SOL     OW 9913   8.297   6.773  10.449 -0.2503  0.3121 -0.0319
35845SOL    HW1 9914   8.312   6.783  10.355  0.0829  2.0174  0.1706
35845SOL    HW2 9915   8.315   6.681  10.466  1.0103  0.2597 -1.4106
35846SOL     OW 9916   8.187   3.414  10.406  0.3384  0.4342  0.0496
35846SOL    HW1 9917   8.258   3.446  10.461 -0.7099 -0.0315  1.7357
35846SOL    HW2 9918   8.219   3.425  10.317  1.7775  1.9527  0.7087
35847SOL     OW 9919   1.215   4.145   8.615 -0.2597  0.1121  0.0831
35847SOL    HW1 9920   1.260   4.132   8.531 -1.6421  1.4290 -0.9080
35847SOL    HW2 9921   1.170   4.229   8.606 -1.8184 -0.5078  1.5124
35848SOL     OW 9922   8.776   1.307   5.449 -0.1577  0.0379 -0.1932
35848SOL    HW1 9923   8.754   1.308   5.356 -0.5468 -1.0081 -0.1191
35848SOL    HW2 9924   8.746   1.393   5.481 -2.0792 -0.4388 -0.5767
35849SOL     OW 9925  10.584   1.068   5.247 -0.4094  0.3013 -0.1128
35849SOL    HW1 9926  10.511   1.029   5.199 -0.0918  0.2607 -0.5735
35849SOL    HW2 9927  10.659   1.058   5.188 -0.0255  0.3130  0.3680
35850SOL     OW 9928  10.044   3.577   1.144  0.1979  0.0676 -0.0482
35850SOL    HW1 9929  10.068   3.590   1.236  0.9218  0.4676 -0.2817
35850SOL    HW2 9930  10.104   3.634   1.095 -0.0958 -0.2321 -0.7789
35851SOL     OW 9931   9.937   7.368   9.221 -0.5436 -0.2771  0.1037
35851SOL    HW1 9932  10.000   7.329   9.281  1.3322  3.5980  0.9347
35851SOL    HW2 9933   9.980   7.367   9.136 -0.9811 -0.9423 -0.1240
35852SOL     OW 9934   9.283   1.733   2.434 -0.1741  0.0049 -0.2055
35852SOL    HW1 9935   9.279   1.810   2.490 -0.5847  0.3834 -0.7442
35852SOL    HW2 9936   9.192   1.710   2.418 -0.1019 -1.7745  1.5200
35853SOL     OW 9937   4.880   6.999   4.698  0.0572 -0.4037 -0.0331
35853SOL    HW1 9938   4.879   6.903   4.694 -0.1288 -0.5388  2.0754
35853SOL    HW2 9939   4.914   7.026   4.613 -0.6835 -2.3044 -0.9987
35854SOL     OW 9940   4.442   1.523   2.980  0.3047  0.6353  0.2538
35854SOL    HW1 9941   4.416   1.566   2.899  0.2845 -0.7407 -0.5068
35854SOL    HW2 9942   4.363   1.523   3.034 -0.8675 -1.7472 -1.2567
35855SOL     OW 9943   0.438   9.015   9.836  0.2212  0.1983 -0.3699
35855SOL    HW1 9944   0.507   8.964   9.877  0.1398  1.1380  0.9969
35855SOL    HW2 9945   0.445   8.995   9.742  3.3762  1.4367 -0.5151
35856SOL     OW 9946   6.487   1.746   4.413 -0.6432 -0.6085  0.2939
35856SOL    HW1 9947   6.509   1.759   4.505  0.6913  0.4617 -0.1463
35856SOL    HW2 9948   6.559   1.786   4.365 -1.4756 -0.8597 -1.2282
35857SOL     OW 9949   8.690   7.107   8.639  0.6707 -0.0227 -0.1869
35857SOL    HW1 9950   8.640   7.142   8.565  2.3721  0.8317 -0.9734
35857SOL    HW2 9951   8.651   7.149   8.715 -0.7067 -0.4504 -0.6180
35858SOL     OW 9952   5.879   2.870   5.380 -0.5762 -0.3314 -0.2805
35858SOL    HW1 9953   5.973   2.881   5.365 -0.2297 -0.4009  1.5820
35858SOL    HW2 9954   5.842   2.860   5.292  1.1810 -0.6103 -1.0395
35859SOL     OW 9955  10.585   5.195   7.386 -0.5394 -0.2003  0.5311
35859SOL    HW1 9956  10.614   5.221   7.474 -0.2471  1.5295 -0.0365
35859SOL    HW2 9957  10.613   5.267   7.329 -1.8517 -0.6747 -0.7858
35860SOL     OW 9958   1.327   8.874   8.776  0.2145 -0.0140 -0.3858
35860SOL    HW1 9959   1.418   8.874   8.804  0.3914  0.2166 -0.9399
35860SOL    HW2 9960   1.310   8.783   8.749  0.7851  0.2873 -1.8363
35861SOL     OW 9961   1.601   1.689   2.495 -0.1336  0.4638 -0.0731
35861SOL    HW1 9962   1.610   1.692   2.590 -1.5490  1.2004  0.0585
35861SOL    HW2 9963   1.669   1.628   2.467  0.9582  0.9861  1.3083
35862SOL     OW 9964  10.476  10.397   4.388 -0.5053 -0.4795  0.0077
35862SOL    HW1 9965  10.451  10.311   4.420 -1.0228 -1.4134 -2.6983
35862SOL    HW2 9966  10.397  10.451   4.401 -1.3437 -1.3355 -1.3162
35863SOL     OW 9967  10.108   2.723  10.780  0.4487 -0.0950  0.4989
35863SOL    HW1 9968  10.077   2.796  10.834  0.2241 -0.0294  0.2860
35863SOL    HW2 9969  10.028   2.672  10.761  0.6647 -0.6265  0.9911
35864SOL     OW 9970   3.869   0.567   1.896 -0.7775  0.0725  0.0764
35864SOL    HW1 9971   3.890   0.541   1.986 -0.1111  1.0067  0.2105
35864SOL    HW2 9972   3.931   0.520   1.841  0.4272  1.2979  0.3171
35865SOL     OW 9973   1.393   0.398   3.982 -0.0995 -0.1207 -0.4201
35865SOL    HW1 9974   1.305   0.419   3.951 -0.2259  0.4073  0.2658
35865SOL    HW2 9975   1.451   0.446   3.924 -0.2972  0.2203 -0.3358
35866SOL     OW 9976   1.523   8.183   3.842  0.2143 -0.7099 -0.2127
35866SOL    HW1 9977   1.449   8.226   3.799  0.2753 -1.6861 -1.3449
35866SOL    HW2 9978   1.506   8.090   3.831  1.4193 -0.9514 -0.1367
35867SOL     OW 9979   9.083   9.567   9.387 -0.1801  0.4637  0.1331
35867SOL    HW1 9980   9.018   9.502   9.409  0.2097  0.1279  0.2939
35867SOL    HW2 9981   9.108   9.606   9.471  2.4886 -1.9341  0.5939
35868SOL     OW 9982   3.279   4.629   2.892  0.4589  0.8435  0.7412
35868SOL    HW1 9983   3.237   4.712   2.866  1.7919  1.3486  0.0969
35868SOL    HW2 9984   3.336   4.653   2.965  0.7929  0.4676  0.6043
35869SOL     OW 9985   1.289   6.535   4.105  0.2792 -0.0835 -0.1025
35869SOL    HW1 9986   1.297   6.595   4.031  2.4304 -0.6054 -0.3490
35869SOL    HW2 9987   1.247   6.586   4.174 -0.4777  0.8270 -1.2002
35870SOL     OW 9988   0.906   4.298   6.524  0.1352 -0.8224  0.1350
35870SOL    HW1 9989   0.883   4.338   6.608  0.1108  1.7727 -1.0256
35870SOL    HW2 9990   0.826   4.253   6.496 -0.2792 -0.5536  0.8645
35871SOL     OW 9991   3.447   3.989   6.866  0.0293  0.4681  0.2215
35871SOL    HW1 9992   3.517   3.927   6.846 -2.0994 -2.0917  0.0741
35871SOL    HW2 9993   3.425   4.029   6.782 -0.4701 -0.7653 -0.2518
35872SOL     OW 9994   0.723   0.233   6.717 -0.2690 -0.0238 -0.1042
35872SOL    HW1 9995   0.758   0.239   6.806  0.7669  0.6720 -0.5361
35872SOL    HW2 9996   0.764   0.154   6.681 -1.4670 -0.8807  0.3391
35873SOL     OW 9997   7.649   6.208   1.295 -0.4091 -0.0917 -0.7447
35873SOL    HW1 9998   7.743   6.218   1.309 -0.7271  1.1658  0.8113
35873SOL    HW2 9999   7.633   6.115   1.309  0.1450  0.1990  2.5779
35874SOL     OW10000   5.045   8.063   0.049  0.3587 -0.0737 -0.7047
35874SOL    HW110001   5.140   8.049   0.052  0.6485  1.4899 -1.5778
35874SOL    HW210002   5.022   8.047  -0.043  0.0940  1.2652 -0.8901
35875SOL     OW10003   7.267   5.258   6.903 -0.3313 -0.1824  0.1434
35875SOL    HW110004   7.268   5.175   6.949  0.4805 -0.4830 -0.3884
35875SOL    HW210005   7.180   5.263   6.864  0.1896 -1.6770 -1.3616
35876SOL     OW10006   1.469   4.806   9.627 -0.2361 -0.2018 -0.6581
35876SOL    HW110007   1.544   4.861   9.605  0.3432  0.0854  1.7962
35876SOL    HW210008   1.494   4.719   9.597  1.2061 -0.1556  0.3126
35877SOL     OW10009   2.122  10.629   1.627 -0.1695  0.1970 -0.1062
35877SOL    HW110010   2.214  10.643   1.648 -0.0565 -2.6048  1.8160
35877SOL    HW210011   2.075  10.644   1.709 -0.9856 -1.5440 -0.2028
35878SOL     OW10012   8.735   9.854   2.525  0.1373 -0.3757 -0.0201
35878SOL    HW110013   8.659   9.892   2.570  0.7454  0.3091  0.4409
35878SOL    HW210014   8.798   9.838   2.595  1.1908  0.9171 -0.6390
35879SOL     OW10015   6.253   7.913   2.633  0.0504 -0.1168 -0.1153
35879SOL    HW110016   6.342   7.877   2.627 -0.4470 -1.2375 -1.3812
35879SOL    HW210017   6.196   7.837   2.629 -0.9777  0.5595  1.1619
35880SOL     OW10018  10.186   5.893   5.911  0.1821 -0.1962 -0.3751
35880SOL    HW110019  10.249   5.927   5.974  2.3390 -2.5006 -1.1176
35880SOL    HW210020  10.136   5.827   5.960  1.8315 -1.9583 -0.9258
35881SOL     OW10021   5.875  10.681   5.693 -0.1080  0.0946 -0.2106
35881SOL    HW110022   5.861  10.677   5.788  0.8420  0.4101 -0.0398
35881SOL    HW210023   5.829  10.760   5.665  0.5117  0.6168  0.1833
35882SOL     OW10024   0.956   3.648   2.997 -0.7491  0.5041 -0.3841
35882SOL    HW110025   1.020   3.711   2.965 -0.5099 -0.2657 -1.4513
35882SOL    HW210026   0.887   3.648   2.932 -0.8061 -0.2415 -0.3336
35883SOL     OW10027   1.340   8.746   0.483  0.6668  0.2554  1.0354
35883SOL    HW110028   1.369   8.669   0.433 -0.4439 -0.2690  1.1732
35883SOL    HW210029   1.265   8.779   0.434  0.2797  0.4256  1.7386
35884SOL     OW10030  10.073   8.477   8.490 -0.3094  0.1796  0.4505
35884SOL    HW110031  10.118   8.442   8.567 -1.7129  0.8506  1.6303
35884SOL    HW210032  10.056   8.401   8.435  0.5657 -0.3353  0.8702
35885SOL     OW10033   6.723   9.879   1.655  0.1768 -0.4143 -0.2267
35885SOL    HW110034   6.640   9.887   1.608 -0.6184 -1.1998  0.9718
35885SOL    HW210035   6.706   9.920   1.740  1.0941 -0.3748 -0.0547
35886SOL     OW10036   8.778  10.259   7.892  0.4622 -0.9609 -0.3620
35886SOL    HW110037   8.817  10.176   7.866  3.8890  0.2233  0.4939
35886SOL    HW210038   8.720  10.236   7.965  1.8575 -2.5568  0.3201
35887SOL     OW10039   8.027   6.674   0.589 -1.0503  0.0209  0.0696
35887SOL    HW110040   8.012   6.678   0.683  0.2388  1.5665  0.2432
35887SOL    HW210041   7.974   6.745   0.552 -2.4461 -1.2776 -0.5479
35888SOL     OW10042   7.149   4.824   1.421  0.0242  0.2527 -0.6670
35888SOL    HW110043   7.099   4.793   1.497  0.2683  1.5175  0.0327
35888SOL    HW210044   7.115   4.772   1.348 -2.4065  1.1060 -0.2340
35889SOL     OW10045   4.977   4.112   2.688  0.2787  0.1487 -0.2167
35889SOL    HW110046   4.973   4.161   2.606 -0.3969  2.4407  1.1108
35889SOL    HW210047   4.886   4.091   2.708  0.3298  0.5553  0.4700
35890SOL     OW10048   6.801   9.896   0.917  0.2750  0.0551 -0.5397
35890SOL    HW110049   6.707   9.906   0.930  0.5899  3.3853 -0.0541
35890SOL    HW210050   6.835   9.871   1.003 -0.1037 -1.0591 -0.6951
35891SOL     OW10051   5.399  10.278   0.490 -0.4410  0.0451  0.2913
35891SOL    HW110052   5.449  10.354   0.460 -3.4947  1.2499 -2.3268
35891SOL    HW210053   5.377  10.298   0.580  2.5042  0.0428  1.1344
35892SOL     OW10054  10.507   2.573   7.279 -0.4640 -0.1860  0.4260
35892SOL    HW110055  10.422   2.611   7.299 -0.1426  1.2364 -0.7169
35892SOL    HW210056  10.539   2.540   7.362 -1.0494  1.5303  1.3877
35893SOL     OW10057   4.501   6.428   4.922  0.0705 -0.0495 -0.8596
35893SOL    HW110058   4.545   6.398   5.001 -0.6138 -0.3251 -0.5790
35893SOL    HW210059   4.429   6.366   4.909 -0.8583  0.9752 -0.7366
35894SOL     OW10060   3.995   3.480  10.296 -0.2416  0.5185  0.9564
35894SOL    HW110061   3.970   3.429  10.219  1.3675 -1.8738  1.8830
35894SOL    HW210062   3.916   3.528  10.320 -0.9801  0.8201 -1.7464
35895SOL     OW10063   5.708   2.338   0.254 -0.9850 -0.1173 -0.5582
35895SOL    HW110064   5.672   2.426   0.267  1.4701  1.1516 -1.5543
35895SOL    HW210065   5.774   2.329   0.323 -0.1171 -0.5082 -1.4191
35896SOL     OW10066   8.762   3.095   2.883  0.1712  0.1022 -0.2551
35896SOL    HW110067   8.669   3.070   2.884  0.2057 -0.2226  2.4889
35896SOL    HW210068   8.769   3.163   2.949  1.9121  0.1017 -0.3901
35897SOL     OW10069   6.303   3.762   6.885 -0.3403  0.1609  0.2107
35897SOL    HW110070   6.341   3.808   6.810 -1.9781 -1.3520 -1.6480
35897SOL    HW210071   6.372   3.701   6.913  0.1836  0.5182 -0.2795
35898SOL     OW10072   3.859   0.427   4.651  0.1769 -0.2108 -0.0349
35898SOL    HW110073   3.804   0.503   4.632  0.2220 -0.7682 -2.7683
35898SOL    HW210074   3.949   0.459   4.641  0.3199 -1.2913 -5.7202
35899SOL     OW10075   8.969   5.785   1.794 -0.0571 -0.0755  0.3937
35899SOL    HW110076   9.003   5.868   1.826 -0.4275  0.7350 -1.1722
35899SOL    HW210077   8.897   5.764   1.854 -0.3858  1.0848  0.4465
35900SOL     OW10078   8.015   2.657   0.444  0.1157 -0.3708  0.2261
35900SOL    HW110079   7.921   2.670   0.458  0.3428 -0.2075  1.9287
35900SOL    HW210080   8.027   2.563   0.440 -0.2113 -0.3770 -0.9097
35901SOL     OW10081   3.130   8.990   6.726  0.1829  0.1072  1.0069
35901SOL    HW110082   3.185   8.951   6.794 -1.0559  0.8158  2.4627
35901SOL    HW210083   3.146   8.935   6.649 -0.0515 -2.1529  2.4601
35902SOL     OW10084   7.381   2.736   9.796  0.4748  0.0183 -0.3432
35902SOL    HW110085   7.399   2.748   9.889 -0.0205  1.1088 -0.3704
35902SOL    HW210086   7.307   2.676   9.793  0.3353  0.1694 -0.0168
35903SOL     OW10087   2.188   0.927   0.703 -0.0251 -0.3301  0.1470
35903SOL    HW110088   2.155   1.005   0.658 -0.7713  0.4413  1.9205
35903SOL    HW210089   2.277   0.952   0.730  1.1383 -1.4468 -2.3325
35904SOL     OW10090   3.422   2.680   6.261  0.1808 -0.0416 -0.1412
35904SOL    HW110091   3.477   2.683   6.339 -1.1268  0.4624  0.7886
35904SOL    HW210092   3.454   2.752   6.207  0.8370 -0.1441  0.1024
35905SOL     OW10093   2.354   3.275   5.481 -0.0466 -0.5584 -0.5045
35905SOL    HW110094   2.357   3.211   5.553  0.4911  0.7796  0.7010
35905SOL    HW210095   2.268   3.317   5.490  0.5325  0.5140  0.1915
35906SOL     OW10096   3.701  10.685   0.027 -0.0592 -0.7630  0.2848
35906SOL    HW110097   3.706  10.644   0.114 -1.1393  0.4877  0.9829
35906SOL    HW210098   3.791  10.711   0.008 -0.0714  0.7319  1.9783
35907SOL     OW10099   3.752   3.713   3.677  0.5337  0.8954 -0.0744
35907SOL    HW110100   3.847   3.703   3.673  0.4220 -0.6189  0.6102
35907SOL    HW210101   3.718   3.624   3.678 -0.9452  1.4010 -1.1120
35908SOL     OW10102   9.778   6.209  10.109  0.1927 -0.5580 -0.5337
35908SOL    HW110103   9.731   6.290  10.127 -0.0987 -0.9020  0.3416
35908SOL    HW210104   9.862   6.219  10.153  0.3936 -0.4885 -0.9342
35909SOL     OW10105   1.336   6.727   8.207 -0.5017  0.8817  0.1194
35909SOL    HW110106   1.245   6.756   8.208 -0.2702  1.7651  2.8808
35909SOL    HW210107   1.346   6.673   8.285  1.8315  2.6642  1.2068
35910SOL     OW10108   3.749   8.118   6.572  0.3042  0.0411  0.3884
35910SOL    HW110109   3.820   8.054   6.582  0.4274  0.2859  1.2018
35910SOL    HW210110   3.781   8.180   6.506  0.8921  0.2048  0.8214
35911SOL     OW10111   7.616  10.610   1.485  0.0668  0.1094 -0.3930
35911SOL    HW110112   7.556  10.639   1.417 -0.6225  0.3831  0.3113
35911SOL    HW210113   7.698  10.592   1.440 -0.5045 -0.1302 -1.3508
35912SOL     OW10114   8.056   8.289   2.888  0.1932  0.1691  0.2645
35912SOL    HW110115   8.018   8.252   2.809 -0.2901  0.2599  0.4534
35912SOL    HW210116   8.143   8.319   2.861  0.2490 -0.3050 -0.0965
35913SOL     OW10117   4.213   6.641   7.872 -0.3199  0.4797  0.1551
35913SOL    HW110118   4.157   6.714   7.846 -2.6554 -1.1830  0.2191
35913SOL    HW210119   4.202   6.636   7.967  1.4397  1.2395  0.4360
35914SOL     OW10120   2.297   5.231  10.602 -0.3561  0.1047  0.3671
35914SOL    HW110121   2.215   5.182  10.600 -1.3462  1.6591  0.8478
35914SOL    HW210122   2.317   5.242  10.695 -0.8069  1.6134  0.3067
35915SOL     OW10123   0.719   7.430   8.565 -0.3857  0.1281  0.0438
35915SOL    HW110124   0.735   7.348   8.613 -2.1781  0.0182  0.4983
35915SOL    HW210125   0.781   7.492   8.604 -1.0834 -0.2353  1.8156
35916SOL     OW10126   2.441   0.100   4.933  0.2607 -0.3320  0.0797
35916SOL    HW110127   2.520   0.065   4.974 -0.2265 -1.2630  0.2461
35916SOL    HW210128   2.401   0.156   5.000  0.2816 -0.6175  0.3313
35917SOL     OW10129   3.488   5.047   0.870 -0.0654  0.0723 -0.6011
35917SOL    HW110130   3.560   5.095   0.829  0.7867 -0.9471 -0.3483
35917SOL    HW210131   3.494   4.959   0.833 -0.6491 -0.2615  0.0749
35918SOL     OW10132  10.379   8.519   4.256  0.2581  0.8865 -0.4299
35918SOL    HW110133  10.463   8.487   4.224  0.6511  1.9710 -0.5489
35918SOL    HW210134  10.355   8.459   4.327  1.0082  0.4134 -0.5745
35919SOL     OW10135   0.272   9.367  10.187 -0.0880  0.7793  0.9103
35919SOL    HW110136   0.304   9.335  10.103  2.0377  1.1161  1.5194
35919SOL    HW210137   0.182   9.337  10.192  0.2830 -0.7646 -0.7161
35920SOL     OW10138   0.320   8.861   6.604 -0.4282 -0.4154 -0.2586
35920SOL    HW110139   0.396   8.904   6.565 -2.7168  1.2629 -3.2862
35920SOL    HW210140   0.341   8.767   6.599  2.0229  0.0055  0.5444
35921SOL     OW10141   8.729  10.228   3.785  0.2279 -0.0550  0.3431
35921SOL    HW110142   8.717  10.247   3.878  2.4769 -0.2145  0.7330
35921SOL    HW210143   8.763  10.310   3.749  1.6304 -0.6691  0.1974
35922SOL     OW10144   2.089   8.303   2.728  0.1574 -0.0485  0.2001
35922SOL    HW110145   2.123   8.320   2.640  0.7529  0.4704  0.5154
35922SOL    HW210146   2.076   8.390   2.765  1.2097 -0.2433  1.0967
35923SOL     OW10147   5.874   6.724  10.695 -0.3271  0.8325  0.4616
35923SOL    HW110148   5.912   6.812  10.707  0.4309  0.4002  1.4237
35923SOL    HW210149   5.793   6.726  10.746 -0.4780  1.0788  0.2116
35924SOL     OW10150   4.725   7.798   0.176  0.4704 -0.0929 -0.8130
35924SOL    HW110151   4.794   7.830   0.234  0.3941  0.6035 -1.0988
35924SOL    HW210152   4.647   7.797   0.230  0.7725 -1.3000 -0.3614
35925SOL     OW10153   5.767   9.049  10.427 -0.3827  0.0241  0.3890
35925SOL    HW110154   5.752   8.998  10.506 -1.0033  0.1910  0.3911
35925SOL    HW210155   5.695   9.112  10.426  0.1706  0.6629  0.1990
35926SOL     OW10156   1.574  10.586   7.208  0.1156 -0.1540  0.0772
35926SOL    HW110157   1.509  10.657   7.212  0.0321 -0.1828 -0.5608
35926SOL    HW210158   1.527  10.509   7.239 -0.1195 -0.1465 -0.2537
35927SOL     OW10159   9.540  10.176   7.276 -0.5359  0.4599  0.0025
35927SOL    HW110160   9.460  10.159   7.226  0.3022 -0.2541 -1.1403
35927SOL    HW210161   9.516  10.247   7.335 -2.6806 -1.2108  1.3056
35928SOL     OW10162   8.625   0.882   6.404  0.6559  0.6134  0.1620
35928SOL    HW110163   8.611   0.887   6.498  1.3683 -1.7471  0.4532
35928SOL    HW210164   8.713   0.847   6.393  0.0413 -0.6091 -1.3307
35929SOL     OW10165   1.427   6.900   9.761 -0.3591  0.0489  0.4068
35929SOL    HW110166   1.345   6.872   9.720  0.8339 -1.8167 -0.8482
35929SOL    HW210167   1.401   6.974   9.817 -2.6415  0.4388 -1.0135
35930SOL     OW10168   7.864   5.605   5.434  0.0099 -0.2959 -0.1330
35930SOL    HW110169   7.802   5.560   5.377 -0.9616 -0.3576  0.9443
35930SOL    HW210170   7.817   5.681   5.466 -0.1167 -1.1901  1.9676
35931SOL     OW10171   8.707   0.112  10.409 -0.2408 -0.1304 -0.1909
35931SOL    HW110172   8.664   0.172  10.349  0.7215 -0.4478 -1.2360
35931SOL    HW210173   8.653   0.033  10.408 -1.3600  0.5837  0.9774
35932SOL     OW10174   6.084   5.661   0.781 -1.1031  0.3085  0.4050
35932SOL    HW110175   6.071   5.575   0.823  0.3503  0.0858  0.4406
35932SOL    HW210176   6.150   5.704   0.835  1.6215 -0.4016 -2.1667
35933SOL     OW10177   6.827   4.326   1.408 -0.3742 -0.2633  0.2446
35933SOL    HW110178   6.781   4.381   1.344 -0.4381 -0.5573  0.0330
35933SOL    HW210179   6.893   4.280   1.356  0.1099  0.0922  0.5341
35934SOL     OW10180  10.402   0.056   2.910 -0.0382 -0.1615  0.2830
35934SOL    HW110181  10.353   0.097   2.981 -1.1936  0.3360 -0.7499
35934SOL    HW210182  10.395  -0.038   2.926 -1.0093 -0.0826  0.3748
35935SOL     OW10183   5.801   5.038   3.302 -0.3796  0.4845  0.2531
35935SOL    HW110184   5.746   4.973   3.258 -0.5166  1.5753 -1.2633
35935SOL    HW210185   5.826   5.099   3.233 -1.4958  2.9322  1.8943
35936SOL     OW10186   5.980  10.491   6.270 -0.5160  0.0091 -0.0071
35936SOL    HW110187   5.941  10.416   6.314  1.7827 -0.6017  1.1272
35936SOL    HW210188   5.991  10.462   6.179  0.1402 -0.9705  0.3670
35937SOL     OW10189   1.228   3.340   0.074 -0.1687 -0.2370 -0.2548
35937SOL    HW110190   1.290   3.305   0.010  0.9244  1.4453 -0.2038
35937SOL    HW210191   1.196   3.420   0.033 -0.5367  0.1169  0.7007
35938SOL     OW10192   7.588   8.082   9.092  0.0534 -0.7251  0.5055
35938SOL    HW110193   7.604   8.070   8.998  0.2691 -0.2240  0.4765
35938SOL    HW210194   7.529   8.009   9.115 -0.5499 -0.4688 -0.1621
35939SOL     OW10195   2.902   4.752   7.036 -0.2080 -1.0830 -0.7878
35939SOL    HW110196   2.981   4.764   7.088 -0.0668 -1.3188 -0.9459
35939SOL    HW210197   2.837   4.720   7.098  0.0050 -1.5172 -0.7870
35940SOL     OW10198   0.942   9.526   9.262  0.1209  0.7872  0.4008
35940SOL    HW110199   0.849   9.541   9.248  0.2159 -0.2540 -1.6061
35940SOL    HW210200   0.984   9.606   9.231  0.0535  0.0431 -1.7711
35941SOL     OW10201   9.054   2.380   9.302 -0.1201 -0.1358 -0.2528
35941SOL    HW110202   8.966   2.349   9.319 -0.2597  0.3404 -0.0930
35941SOL    HW210203   9.044   2.474   9.287  0.5102  0.1337  0.9183
35942SOL     OW10204   6.519   2.016   0.487  0.0939  0.1036  0.1088
35942SOL    HW110205   6.497   2.044   0.576  0.7113 -1.7909  0.8999
35942SOL    HW210206   6.454   1.950   0.466  0.6089 -0.2468 -0.4114
35943SOL     OW10207   1.484   7.688   9.377 -0.1764  0.0992  0.6889
35943SOL    HW110208   1.401   7.681   9.425 -0.8332  0.8170 -0.2911
35943SOL    HW210209   1.477   7.622   9.308  0.2564 -0.1249  0.8570
35944SOL     OW10210   9.828   6.092   2.006  0.4722 -0.2794  0.4463
35944SOL    HW110211   9.893   6.044   2.056  2.1844 -0.0663 -1.4635
35944SOL    HW210212   9.796   6.030   1.941  0.3304  0.2191  0.0265
35945SOL     OW10213   7.186   9.694   4.563 -0.0828 -0.6315  0.5871
35945SOL    HW110214   7.274   9.654   4.559 -0.3141 -1.2860  1.6446
35945SOL    HW210215   7.131   9.635   4.512  0.2280  0.2512 -0.8398
35946SOL     OW10216   0.731   3.948   2.100  0.6741  0.1721  0.5013
35946SOL    HW110217   0.766   3.942   2.011  0.7994 -0.3520  0.5799
35946SOL    HW210218   0.678   3.869   2.110 -0.2808  0.7944  0.4979
35947SOL     OW10219  10.706   3.606   5.159  0.0557  0.3117  0.4796
35947SOL    HW110220  10.799   3.595   5.136 -0.3292 -0.1758 -0.9642
35947SOL    HW210221  10.664   3.528   5.123 -1.0878  1.1028  0.0638
35948SOL     OW10222   8.627   9.071   3.348 -0.2162  0.6424  0.1592
35948SOL    HW110223   8.645   9.152   3.396  0.0402  0.9000 -0.3605
35948SOL    HW210224   8.536   9.078   3.321 -0.2674  0.6419  0.3260
35949SOL     OW10225   0.571   5.785   9.682  0.5155 -0.0591 -0.1965
35949SOL    HW110226   0.627   5.771   9.605  0.3488  0.1616 -0.3586
35949SOL    HW210227   0.600   5.718   9.745 -0.7348 -1.6302 -1.1985
35950SOL     OW10228   3.648   4.924   6.393 -0.1114 -0.2443 -0.1842
35950SOL    HW110229   3.695   4.863   6.449  0.0450 -1.2059 -1.3176
35950SOL    HW210230   3.572   4.951   6.444  1.2829  0.8101  1.4284
35951SOL     OW10231   9.915   6.303  10.411 -0.0296 -0.1081 -0.4494
35951SOL    HW110232   9.938   6.381  10.361  0.5281  1.7679  2.5440
35951SOL    HW210233   9.996   6.251  10.414  0.2146  0.2632 -0.5816
35952SOL     OW10234   3.787   4.642   2.891 -0.0913  0.1817 -0.0670
35952SOL    HW110235   3.716   4.647   2.826 -0.1064  0.5072 -0.0238
35952SOL    HW210236   3.772   4.716   2.949 -0.6117 -0.6143  0.8543
35953SOL     OW10237   5.214   4.441   1.954  0.6119  0.2062  0.0009
35953SOL    HW110238   5.218   4.446   2.050  1.2544 -0.2222  0.0021
35953SOL    HW210239   5.185   4.352   1.936  1.1970  0.0526 -0.2098
35954SOL     OW10240   9.436   0.892   9.453 -0.5976 -0.3453  0.3843
35954SOL    HW110241   9.503   0.840   9.499  2.0295  0.5504 -2.1211
35954SOL    HW210242   9.367   0.904   9.518  0.2752 -3.8457  2.2153
35955SOL     OW10243  10.247   7.839   1.571 -0.9835 -0.1522 -0.3686
35955SOL    HW110244  10.280   7.924   1.543  1.0656 -1.0047 -0.7087
35955SOL    HW210245  10.220   7.853   1.662 -2.7583  1.3472 -1.0559
35956SOL     OW10246   2.700   4.959   4.509  0.1851 -0.0396  0.4368
35956SOL    HW110247   2.632   4.981   4.572  0.5439 -0.8159  1.1134
35956SOL    HW210248   2.703   4.864   4.508 -0.3247 -0.0773 -1.3247
35957SOL     OW10249   7.106   4.399   0.961 -0.5055  0.1005  0.7248
35957SOL    HW110250   7.135   4.377   1.049  0.1990 -0.8257  0.2829
35957SOL    HW210251   7.149   4.483   0.941  0.3322 -0.2929  0.8163
35958SOL     OW10252   7.401   3.607   0.233  0.2702 -0.1945 -0.4774
35958SOL    HW110253   7.389   3.512   0.232  0.8511 -0.3180  1.5144
35958SOL    HW210254   7.370   3.635   0.319  0.0710  1.4469 -1.0420
35959SOL     OW10255   6.006  10.210   7.935  0.0217 -0.9305 -0.7904
35959SOL    HW110256   6.069  10.235   7.868  0.3116 -1.4762 -0.7251
35959SOL    HW210257   5.943  10.282   7.937  0.5863 -0.4311 -0.9208
35960SOL     OW10258   1.281   7.796   9.121  0.1045 -0.2045 -0.1889
35960SOL    HW110259   1.331   7.823   9.044  0.6840 -0.6599  0.0180
35960SOL    HW210260   1.266   7.703   9.109  0.0640 -0.2471  0.1737
35961SOL     OW10261   0.573  10.052   8.556 -0.0778  0.3182 -0.0102
35961SOL    HW110262   0.571  10.027   8.463 -0.5470  1.9058 -0.4569
35961SOL    HW210263   0.575  10.147   8.555  0.3118  0.3538  1.6290
35962SOL     OW10264   8.923   1.199   2.329 -0.3550  0.4757 -0.1248
35962SOL    HW110265   8.918   1.238   2.416 -0.7081  1.3713 -0.5333
35962SOL    HW210266   8.873   1.258   2.273 -1.2585 -0.7926 -0.7037
35963SOL     OW10267   6.756   9.719   3.313 -0.2003  0.1469 -0.6943
35963SOL    HW110268   6.730   9.664   3.239 -1.0260  1.4345 -1.3890
35963SOL    HW210269   6.822   9.779   3.276 -0.2128  0.4355 -0.2565
35964SOL     OW10270  10.222   4.608   5.445 -0.5303 -0.3538 -0.0722
35964SOL    HW110271  10.211   4.519   5.413  0.8879 -0.8411  0.6997
35964SOL    HW210272  10.136   4.632   5.479 -0.9184 -1.4421 -0.2417
35965SOL     OW10273  10.682   3.993   5.612  0.1575  0.0487 -0.1092
35965SOL    HW110274  10.707   3.994   5.705  0.7139 -0.9208 -0.2381
35965SOL    HW210275  10.587   4.005   5.613  0.3529  1.8586  0.4887
35966SOL     OW10276   2.801   9.885   8.122 -0.3908 -0.2550  0.1517
35966SOL    HW110277   2.855   9.841   8.056  0.1679 -1.0238  1.1007
35966SOL    HW210278   2.715   9.845   8.113 -0.2870 -0.4342 -0.0394
35967SOL     OW10279   2.385  10.643   1.676  0.4337  0.2883 -0.3441
35967SOL    HW110280   2.431  10.601   1.749 -1.4381  0.1988  0.8762
35967SOL    HW210281   2.454  10.674   1.618  1.9615 -2.1624  0.0065
35968SOL     OW10282   5.802  10.057   6.518  0.4051 -0.0971 -0.0862
35968SOL    HW110283   5.835   9.978   6.476  0.7400  1.0473 -2.1081
35968SOL    HW210284   5.709  10.040   6.531 -0.1352  0.1168 -3.0150
35969SOL     OW10285   8.858   1.125   4.450  0.0940  0.5863 -0.3338
35969SOL    HW110286   8.828   1.057   4.391 -0.9839  1.3969 -0.7353
35969SOL    HW210287   8.951   1.137   4.428  0.9812 -2.2845  1.2556
35970SOL     OW10288   1.715   6.155   6.737 -0.0637  0.1109  0.1274
35970SOL    HW110289   1.655   6.090   6.702 -0.2753  0.3432  0.0495
35970SOL    HW210290   1.775   6.174   6.665 -1.0832  1.2941 -0.4674
35971SOL     OW10291   7.563   7.164   1.334 -0.0558 -0.0110  0.1794
35971SOL    HW110292   7.537   7.201   1.418  1.0775 -0.3155  0.6854
35971SOL    HW210293   7.546   7.234   1.270 -0.7543  0.2833  0.6742
35972SOL     OW10294   0.575  10.233   3.254 -0.4175  0.9675 -0.7558
35972SOL    HW110295   0.602  10.294   3.185 -2.5582  0.4940 -2.1351
35972SOL    HW210296   0.522  10.168   3.208  1.4749 -1.8109  0.7073
35973SOL     OW10297  10.287   3.365  10.727 -0.4621 -0.2127  0.5842
35973SOL    HW110298  10.302   3.408  10.811 -0.9546  0.4089  0.3635
35973SOL    HW210299  10.257   3.435  10.670 -0.9935 -0.8023  0.1307
35974SOL     OW10300   8.261   6.633   1.201  0.9008 -0.2459 -0.0552
35974SOL    HW110301   8.167   6.646   1.185  1.1263  0.4669 -0.8664
35974SOL    HW210302   8.304   6.696   1.143  1.9821 -2.3652 -1.6712
35975SOL     OW10303   7.627   6.406   7.694  0.1076 -0.2182 -0.0838
35975SOL    HW110304   7.550   6.392   7.638 -1.2728 -0.1760  1.7133
35975SOL    HW210305   7.606   6.361   7.776  2.0584 -0.2739  0.4497
35976SOL     OW10306   1.054   0.009   2.509 -0.2024 -0.0529 -0.1071
35976SOL    HW110307   1.107   0.086   2.489  1.0462 -0.4726  1.3397
35976SOL    HW210308   1.082  -0.057   2.446  0.7712 -0.1538  0.4128
35977SOL     OW10309   4.298  10.709   4.727  0.0604 -0.4486  0.3032
35977SOL    HW110310   4.262  10.704   4.638  2.2504 -3.4592 -0.5871
35977SOL    HW210311   4.299  10.618   4.757  0.8011  0.3177  2.8508
35978SOL     OW10312   2.356   0.708   0.862 -0.2058  0.5584 -0.3349
35978SOL    HW110313   2.291   0.672   0.923  1.7715  1.0196  2.1894
35978SOL    HW210314   2.349   0.803   0.874  0.4673  0.6339 -0.5326
35979SOL     OW10315   8.966   4.734   0.061  0.2471 -0.0001  0.0432
35979SOL    HW110316   9.017   4.788   0.002 -0.7077  0.5146 -0.3332
35979SOL    HW210317   9.024   4.717   0.136  1.8614 -1.5228 -1.4487
35980SOL     OW10318   6.194   9.010   8.709  0.3489 -0.2371  0.6264
35980SOL    HW110319   6.179   9.038   8.799  0.9783  0.6626  0.4629
35980SOL    HW210320   6.119   8.954   8.688 -0.3311  0.3834  1.3588
35981SOL     OW10321   2.470   6.602   8.786 -0.2692 -0.3828 -0.2669
35981SOL    HW110322   2.512   6.601   8.700 -1.1226  0.0871 -0.6998
35981SOL    HW210323   2.539   6.574   8.846 -0.5076 -4.1138 -1.4574
35982SOL     OW10324   4.299   2.745   6.000  0.2500  0.2172 -0.4593
35982SOL    HW110325   4.338   2.757   5.914 -0.0260  2.5652 -0.3125
35982SOL    HW210326   4.369   2.706   6.053  1.0280  0.4775 -1.2708
35983SOL     OW10327   3.101   7.281   0.576  0.2236  0.3244 -0.7665
35983SOL    HW110328   3.145   7.208   0.619  2.1119  0.7509 -1.8368
35983SOL    HW210329   3.093   7.348   0.644  0.0875 -0.2305 -0.2316
35984SOL     OW10330   0.271   2.555   3.285 -0.1607  0.0244  0.1333
35984SOL    HW110331   0.290   2.612   3.359  0.8010  0.2165 -0.2391
35984SOL    HW210332   0.273   2.613   3.209  0.7185 -0.4732 -0.2342
35985SOL     OW10333   0.350   0.967  10.297 -0.4079  0.1212 -0.5641
35985SOL    HW110334   0.269   0.921  10.278 -1.1290  1.4282 -0.7474
35985SOL    HW210335   0.372   0.942  10.387 -2.4197  1.6988  0.4525
35986SOL     OW10336   7.934   9.265   6.131  0.4531 -0.3878  0.1912
35986SOL    HW110337   7.869   9.273   6.061 -0.3124 -1.0553  0.7997
35986SOL    HW210338   8.001   9.330   6.110 -0.2204  0.0446 -0.6649
35987SOL     OW10339   9.465   1.557   3.732  0.1850 -1.1092  0.3082
35987SOL    HW110340   9.389   1.596   3.774  0.7755 -0.0166  0.3951
35987SOL    HW210341   9.528   1.544   3.803  0.4310 -1.1338  0.0896
35988SOL     OW10342   8.707   6.116   9.846 -0.0620 -0.4073  0.1530
35988SOL    HW110343   8.694   6.161   9.762 -1.3431 -0.1702  0.4710
35988SOL    HW210344   8.774   6.050   9.826  0.4486  0.3585 -0.7872
35989SOL     OW10345   6.033  10.411   4.243  0.0984 -0.3715 -0.0631
35989SOL    HW110346   6.008  10.351   4.173  0.5665 -0.2725 -0.3198
35989SOL    HW210347   5.951  10.430   4.288 -0.0307 -1.3323  0.1303
35990SOL     OW10348  10.761   3.004   3.570 -0.4374  0.4378 -0.2128
35990SOL    HW110349  10.674   3.038   3.547 -0.1529  1.6765  0.4242
35990SOL    HW210350  10.743   2.931   3.629 -1.0545  0.6507 -0.1216
35991SOL     OW10351  10.082   3.714   7.227 -0.3817 -0.3948 -0.1039
35991SOL    HW110352  10.085   3.797   7.180  2.1648 -0.4436 -0.1487
35991SOL    HW210353  10.139   3.656   7.177 -0.0698 -1.3784  1.3324
35992SOL     OW10354   6.158   9.461   7.020 -0.0769  0.0549 -0.2868
35992SOL    HW110355   6.104   9.464   7.099 -2.8541 -2.3237 -1.8762
35992SOL    HW210356   6.225   9.395   7.040 -0.6566 -0.4128  0.1648
35993SOL     OW10357   2.749   4.379   3.481 -0.0543 -0.4144  0.0028
35993SOL    HW110358   2.767   4.324   3.404 -1.9502  0.7015 -1.3100
35993SOL    HW210359   2.673   4.337   3.523 -0.1297 -0.0212  0.2592
35994SOL     OW10360   9.820   7.629  10.295  0.1320  0.2045 -0.0591
35994SOL    HW110361   9.913   7.631  10.270  0.2821 -1.0750  0.3679
35994SOL    HW210362   9.807   7.543  10.333 -0.4644  1.4855  2.8703
35995SOL     OW10363   9.227   2.207   0.698  0.2437 -0.1332  0.1314
35995SOL    HW110364   9.225   2.233   0.791 -0.4619 -0.8971  0.3313
35995SOL    HW210365   9.153   2.252   0.659  0.9001  0.6832 -0.2103
35996SOL     OW10366   6.335   5.713   1.569 -0.1103  0.4185  0.4565
35996SOL    HW110367   6.316   5.724   1.662  1.7610  0.8757  0.8299
35996SOL    HW210368   6.325   5.801   1.532 -2.2268 -0.0113 -0.0935
35997SOL     OW10369   4.540   8.943   1.926 -0.5100  0.0486  0.4778
35997SOL    HW110370   4.482   8.888   1.978 -0.9904 -0.1537 -0.2620
35997SOL    HW210371   4.611   8.966   1.986 -0.3495 -1.2890  0.8247
35998SOL     OW10372   0.971   4.999   5.216 -0.0581  0.3963 -0.0057
35998SOL    HW110373   1.047   4.969   5.266  0.0211 -0.5471 -0.6554
35998SOL    HW210374   0.979   5.094   5.214  0.1235  0.4420  1.4513
35999SOL     OW10375   2.589   4.131   8.553  0.1564  0.3364  0.3648
35999SOL    HW110376   2.571   4.048   8.508 -1.1136 -0.1368  1.6987
35999SOL    HW210377   2.523   4.192   8.518 -0.2323  0.2216  0.8980
36000SOL     OW10378   5.061   9.014   6.356 -0.1903 -0.0832  0.5460
36000SOL    HW110379   5.053   8.966   6.438  1.1248  0.9197  1.2994
36000SOL    HW210380   5.106   8.954   6.297  0.0228 -0.3496  0.9734
36001SOL     OW10381  10.784   2.762   7.959 -0.3396 -0.3440  0.8346
36001SOL    HW110382  10.836   2.682   7.957 -0.4492 -0.4164 -1.1856
36001SOL    HW210383  10.845   2.831   7.933 -0.2595  0.2564  2.5073
36002SOL     OW10384   5.315   6.515   8.942 -0.3668  0.6501  0.5826
36002SOL    HW110385   5.275   6.587   8.894  0.2200 -0.5125 -1.7632
36002SOL    HW210386   5.265   6.511   9.024 -2.9015  1.3502 -0.7984
36003SOL     OW10387   1.128   7.192   4.574  0.0658 -0.2695 -0.4175
36003SOL    HW110388   1.115   7.283   4.549 -0.9118 -0.5564 -1.0164
36003SOL    HW210389   1.103   7.188   4.667 -0.9683 -0.1283 -0.6731
36004SOL     OW10390   2.897   8.969   3.442  0.0626 -0.2852  0.1131
36004SOL    HW110391   2.955   8.974   3.518  0.5424  0.4535 -0.2922
36004SOL    HW210392   2.897   9.058   3.406 -1.9560 -0.0336  0.5764
36005SOL     OW10393   4.369   8.119   9.263  0.7087  0.3837 -0.5847
36005SOL    HW110394   4.445   8.105   9.319  0.2041 -0.3376 -0.0649
36005SOL    HW210395   4.407   8.132   9.175  1.4229 -0.1171 -0.3640
36006SOL     OW10396  10.361   6.032   9.381 -0.0867  0.5989 -0.2120
36006SOL    HW110397  10.383   5.986   9.301 -1.6857  0.3802 -0.5616
36006SOL    HW210398  10.379   5.970   9.451 -0.3984  0.1323 -0.5436
36007SOL     OW10399   5.958   1.729  10.650  0.2100  0.2150 -0.8867
36007SOL    HW110400   6.029   1.756  10.708  0.2922 -0.3459 -0.7199
36007SOL    HW210401   5.966   1.634  10.645  0.1715  0.2515 -1.7864
36008SOL     OW10402   0.202   3.242   0.183 -0.7690 -0.4213 -0.2147
36008SOL    HW110403   0.156   3.216   0.104 -0.5889 -0.6481 -0.2439
36008SOL    HW210404   0.200   3.164   0.239  0.0314 -0.5992 -0.4231
36009SOL     OW10405   7.061   8.586   6.264 -0.8281  0.1530 -0.3036
36009SOL    HW110406   7.055   8.629   6.179 -1.9956  0.1051 -0.2589
36009SOL    HW210407   7.071   8.658   6.327 -0.5339  0.2182 -0.4220
36010SOL     OW10408   3.850   6.832   0.038  0.5810 -0.8975 -0.1267
36010SOL    HW110409   3.776   6.872  -0.009  0.4132 -2.8793 -1.6989
36010SOL    HW210410   3.857   6.882   0.119 -2.6173 -0.7334  0.1832
36011SOL     OW10411   8.597   5.989   4.948  0.1977  0.0337 -0.1375
36011SOL    HW110412   8.655   5.958   5.017 -0.0224 -1.2801 -0.5112
36011SOL    HW210413   8.613   6.083   4.943  1.0058 -0.0296  0.9500
36012SOL     OW10414  10.092  10.626  10.759  0.1519  0.1858  0.6281
36012SOL    HW110415  10.023  10.559  10.755  0.0494  0.3544 -1.5268
36012SOL    HW210416  10.065  10.684  10.830 -1.9972  0.2655 -0.1709
36013SOL     OW10417   8.446   0.231   2.969  0.0327 -0.1875 -0.6439
36013SOL    HW110418   8.492   0.148   2.981  1.2348  0.5151 -0.2559
36013SOL    HW210419   8.354   0.209   2.984  0.2849 -1.4988 -0.8260
36014SOL     OW10420   7.371   1.680   7.363  0.3478 -0.1594  0.1726
36014SOL    HW110421   7.317   1.604   7.386  1.1707  0.0142  3.0848
36014SOL    HW210422   7.444   1.644   7.314  1.3213 -1.5377  2.4548
36015SOL     OW10423   0.989   2.835   2.857 -0.2723  0.1843 -0.6646
36015SOL    HW110424   1.017   2.841   2.948  3.2501 -0.9874 -1.5174
36015SOL    HW210425   0.974   2.926   2.831 -0.8687  0.5793  0.9105
36016SOL     OW10426  10.263   3.011   9.444  0.6221  0.4664 -0.1247
36016SOL    HW110427  10.249   3.000   9.350  0.1083  0.1345 -0.0151
36016SOL    HW210428  10.239   3.102   9.462 -0.2121  0.2577 -0.1568
36017SOL     OW10429   0.399   3.783   6.457 -0.0729 -0.3903  0.3101
36017SOL    HW110430   0.306   3.806   6.455  0.1627  0.5887 -1.3162
36017SOL    HW210431   0.403   3.696   6.420 -0.3235 -0.3826  0.2642
36018SOL     OW10432   5.117   1.382   5.799  0.2225  0.1818  0.0860
36018SOL    HW110433   5.154   1.400   5.713 -0.3194  0.0966 -0.1697
36018SOL    HW210434   5.022   1.384   5.785  0.1361 -0.1933  0.6069
36019SOL     OW10435   7.234   0.827   7.202  0.4302  0.2478  0.0019
36019SOL    HW110436   7.216   0.799   7.112 -1.3794  0.6521  0.2158
36019SOL    HW210437   7.154   0.808   7.250  1.4648 -0.2124  1.6197
36020SOL     OW10438   5.503   0.913   3.652  0.4258 -0.0128 -0.2802
36020SOL    HW110439   5.518   0.961   3.570 -0.0849 -0.9829 -0.9573
36020SOL    HW210440   5.529   0.823   3.632 -0.4838 -0.4328  0.3626
36021SOL     OW10441   7.022   0.158   1.573 -0.3011  0.7254  0.2750
36021SOL    HW110442   6.999   0.159   1.480  0.2462 -0.5225  0.0998
36021SOL    HW210443   7.102   0.106   1.577 -1.3557 -0.8926  1.6524
36022SOL     OW10444   1.750   9.817   3.602 -0.1098  0.4136  0.1753
36022SOL    HW110445   1.782   9.754   3.538 -2.4765 -0.6743 -0.0779
36022SOL    HW210446   1.654   9.813   3.593 -0.5452  0.3662  3.6104
36023SOL     OW10447   5.867   8.746   0.261  0.0917 -0.2117  0.4801
36023SOL    HW110448   5.874   8.834   0.223  0.2201  0.3122  1.6919
36023SOL    HW210449   5.952   8.732   0.304  0.2636 -1.1453 -0.1404
36024SOL     OW10450   8.778   0.983   4.232  0.1923  0.2534  0.0169
36024SOL    HW110451   8.866   0.992   4.193  0.5881  0.4068  0.9167
36024SOL    HW210452   8.720   1.029   4.171  0.7252  0.1128 -0.6143
36025SOL     OW10453   1.646   0.782   7.332 -0.4256 -0.1029  0.1649
36025SOL    HW110454   1.718   0.795   7.270  1.0520 -0.2489  1.7980
36025SOL    HW210455   1.575   0.836   7.297 -0.2766 -1.5070 -2.5907
36026SOL     OW10456   5.734  10.144   3.106  0.1433  0.0145  0.5648
36026SOL    HW110457   5.647  10.176   3.081  0.1530 -0.0140  0.4953
36026SOL    HW210458   5.720  10.102   3.191 -0.1349 -1.0570 -0.0012
36027SOL     OW10459   9.858   6.888   2.435  0.2357  0.3850 -0.7598
36027SOL    HW110460   9.798   6.817   2.412  0.1653  0.0739  0.3453
36027SOL    HW210461   9.933   6.844   2.474 -0.7431  0.9923  2.0181
36028SOL     OW10462   0.413   8.963  10.266  0.2555 -0.0537  0.6096
36028SOL    HW110463   0.481   8.907  10.304 -0.2106 -0.8332  0.3144
36028SOL    HW210464   0.444   9.052  10.283  0.5881 -0.3854  1.8468
36029SOL     OW10465   3.603   0.341   9.892 -0.0493  0.0369  0.2526
36029SOL    HW110466   3.527   0.340   9.834 -0.0917  1.2368  0.2688
36029SOL    HW210467   3.649   0.259   9.872 -0.8096 -0.2286 -0.4683
36030SOL     OW10468   7.983   2.351   3.529  0.2079 -0.7608  0.6725
36030SOL    HW110469   8.059   2.343   3.471  1.0316 -2.3561  1.8924
36030SOL    HW210470   7.919   2.401   3.478  1.9651  0.4159 -0.4724
36031SOL     OW10471   2.709   7.135   3.860  0.0373  0.4132 -0.1983
36031SOL    HW110472   2.721   7.149   3.954 -0.0527  1.0460 -0.2782
36031SOL    HW210473   2.614   7.122   3.850  0.3342 -3.2188  0.2492
36032SOL     OW10474   2.958   1.122   8.896  0.3342 -0.0913 -0.0391
36032SOL    HW110475   3.011   1.150   8.821 -0.4323  3.4941  0.5917
36032SOL    HW210476   3.020   1.075   8.952  1.6386 -0.2627 -1.5370
36033SOL     OW10477   2.905   7.176   8.985  0.3014 -0.4256  0.2668
36033SOL    HW110478   2.918   7.137   9.071 -2.2256 -1.3232  0.3238
36033SOL    HW210479   2.843   7.247   9.001 -0.5771 -0.9125 -0.8506
36034SOL     OW10480   6.037   5.699   6.963  0.1081  0.2472 -0.1292
36034SOL    HW110481   6.081   5.672   6.882 -0.6403  1.4333 -0.9593
36034SOL    HW210482   5.944   5.689   6.943 -0.0866  0.8008  0.4908
36035SOL     OW10483   8.206   7.565   5.688 -0.2485 -0.3531  0.0082
36035SOL    HW110484   8.279   7.601   5.739 -0.1699 -3.3199  2.3261
36035SOL    HW210485   8.137   7.631   5.695  0.9406  0.8365  1.0939
36036SOL     OW10486   4.542   0.055   9.522 -0.2834  0.2881  0.0986
36036SOL    HW110487   4.480   0.121   9.492 -0.2334  0.4256  0.2946
36036SOL    HW210488   4.501  -0.029   9.499  0.1708  0.3923 -1.1820
36037SOL     OW10489   7.959   8.216   3.396 -0.0349 -0.2295 -0.0836
36037SOL    HW110490   8.017   8.233   3.323  0.4638  0.6899  0.5059
36037SOL    HW210491   7.875   8.255   3.371  0.9124  2.7916  0.9790
36038SOL     OW10492   4.396   0.984   7.741 -0.0136  0.5713 -0.6111
36038SOL    HW110493   4.351   1.011   7.660  0.1520 -1.7061 -1.5298
36038SOL    HW210494   4.463   0.923   7.712  2.2442  2.1368  0.9767
36039SOL     OW10495   2.195   2.051   9.142 -0.0795  0.4796 -0.0059
36039SOL    HW110496   2.214   1.994   9.217 -1.2446 -0.4844 -0.4201
36039SOL    HW210497   2.254   2.019   9.073 -0.7010 -0.2150 -0.2249
36040SOL     OW10498   2.422   3.931   1.122  0.0252  0.2094 -0.0374
36040SOL    HW110499   2.351   3.925   1.186  0.4158  1.3706  0.5398
36040SOL    HW210500   2.407   4.014   1.077  0.8134  0.3033 -0.1457
36041SOL     OW10501   2.917   0.576   3.819  0.7944 -0.5200  0.3892
36041SOL    HW110502   2.830   0.564   3.780  0.6945 -0.6028  0.6329
36041SOL    HW210503   2.911   0.660   3.864  0.7681 -0.6307  0.5940
36042SOL     OW10504   3.188   4.243   5.565  0.3999  0.1944  0.0556
36042SOL    HW110505   3.171   4.239   5.659 -0.2630 -2.1111 -0.0782
36042SOL    HW210506   3.282   4.229   5.556  0.6276  1.4141  0.3809
36043SOL     OW10507   1.364   5.062  10.708  0.8957  0.6257  0.0332
36043SOL    HW110508   1.350   5.033  10.798 -2.9694  3.5243  0.6349
36043SOL    HW210509   1.289   5.027  10.659  1.5212  1.2604 -1.4462
36044SOL     OW10510   1.888   9.756   8.464  0.3838  0.4080  0.1840
36044SOL    HW110511   1.852   9.773   8.377 -0.7768  0.0651  0.5713
36044SOL    HW210512   1.829   9.802   8.524  0.7757  0.0828  0.8316
36045SOL     OW10513   3.683   1.982   7.145 -0.1539 -0.6451 -0.0334
36045SOL    HW110514   3.672   1.957   7.053 -0.4316 -0.5207 -0.0356
36045SOL    HW210515   3.629   1.921   7.194 -0.9658  0.0334 -0.0532
36046SOL     OW10516   3.358   6.622   0.931  0.2773 -0.4425  0.4254
36046SOL    HW110517   3.440   6.656   0.895 -0.8702  2.6726  0.5316
36046SOL    HW210518   3.292   6.641   0.864 -0.9556  0.3998  1.8236
36047SOL     OW10519   3.121   3.943   3.582  0.2161  0.0456 -0.3195
36047SOL    HW110520   3.092   3.856   3.556 -1.2801  0.0727  1.1107
36047SOL    HW210521   3.040   3.993   3.592  1.0239  1.5039 -0.7369
36048SOL     OW10522   6.441   8.575   1.367  0.3307  0.0465 -0.0779
36048SOL    HW110523   6.421   8.664   1.338  0.4204  0.2005  0.3196
36048SOL    HW210524   6.435   8.580   1.463  1.3620 -0.1137  0.0065
36049SOL     OW10525   8.999   9.933   9.553 -1.0260  0.3496  0.0158
36049SOL    HW110526   8.912   9.894   9.562 -0.3296 -1.2188  0.3427
36049SOL    HW210527   9.031   9.942   9.643 -0.3192 -0.4196 -0.1392
36050SOL     OW10528   9.234   0.357   3.270  0.3089 -0.5747  0.4929
36050SOL    HW110529   9.320   0.326   3.243  0.1016 -1.1978  0.5195
36050SOL    HW210530   9.199   0.286   3.325  0.0015 -0.0973  0.9263
36051SOL     OW10531   8.991   8.208   9.958  0.2446 -0.5116 -0.6006
36051SOL    HW110532   8.969   8.268  10.029 -1.2161 -0.1146 -1.3594
36051SOL    HW210533   9.075   8.171   9.984 -0.7059 -1.1922  1.8951
36052SOL     OW10534   8.682   2.414   8.605  0.3096 -0.2311  0.2134
36052SOL    HW110535   8.645   2.458   8.528 -0.7315  0.1509  0.9020
36052SOL    HW210536   8.654   2.323   8.596  1.5462 -0.5520 -0.6561
36053SOL     OW10537   2.997   6.179  10.376  0.1685  0.7507  0.5668
36053SOL    HW110538   3.056   6.253  10.388 -0.3287  1.2001  0.2871
36053SOL    HW210539   3.011   6.124  10.454  2.9355 -0.5983 -0.7457
36054SOL     OW10540   2.012  10.237   0.017 -0.3446  0.0058  0.1004
36054SOL    HW110541   2.091  10.208  -0.028 -0.7704  0.3259 -0.8889
36054SOL    HW210542   1.958  10.159   0.025 -0.5912  0.0927 -0.6501
36055SOL     OW10543   0.071   6.414   0.154  0.5991  0.3257  0.0471
36055SOL    HW110544   0.012   6.361   0.100  0.9173 -1.1302  1.0494
36055SOL    HW210545   0.086   6.360   0.232  0.4116  2.2156  1.4544
36056SOL     OW10546   5.629   6.193   0.482 -0.1929  0.1738  0.7650
36056SOL    HW110547   5.708   6.140   0.492 -0.1469  0.4152  1.7740
36056SOL    HW210548   5.655   6.265   0.425 -0.5134 -1.3709 -1.4797
36057SOL     OW10549   1.589   0.934   8.295  0.7930 -0.0939 -0.1431
36057SOL    HW110550   1.680   0.964   8.295  0.7983 -0.0871  0.6146
36057SOL    HW210551   1.554   0.963   8.379  0.3933 -0.9826  0.0157
36058SOL     OW10552   8.782   3.744  10.106  0.2789  0.5574  0.2309
36058SOL    HW110553   8.768   3.651  10.120 -1.0776  0.3802 -1.8241
36058SOL    HW210554   8.876   3.756  10.114  0.5893 -1.1805 -0.4132
36059SOL     OW10555   2.264   4.443  10.252  0.4728 -0.2235 -0.2530
36059SOL    HW110556   2.203   4.369  10.255  0.6665 -0.3736  2.0864
36059SOL    HW210557   2.254   4.486  10.337  2.9495  0.2903 -0.1422
36060SOL     OW10558   5.744  10.635   6.281 -0.4084 -0.0161  0.3687
36060SOL    HW110559   5.834  10.603   6.283 -0.0975  0.8356  0.5742
36060SOL    HW210560   5.700  10.582   6.214  0.4152 -0.0041 -0.1875
36061SOL     OW10561   6.002  10.254   8.241 -0.4829 -0.0294  0.0722
36061SOL    HW110562   5.959  10.332   8.205  3.1078  1.7377 -0.8521
36061SOL    HW210563   5.985  10.185   8.176 -0.6306  1.0202 -1.0511
36062SOL     OW10564   3.997   2.780   5.811 -0.1050  0.5062  0.2465
36062SOL    HW110565   3.965   2.866   5.838  3.4999  1.0905  3.5943
36062SOL    HW210566   4.083   2.797   5.773 -0.6096 -1.4644 -1.9999
36063SOL     OW10567   6.915   5.893   1.788  0.2320  0.0572 -0.2215
36063SOL    HW110568   6.826   5.897   1.752  0.0755  1.3833  0.2706
36063SOL    HW210569   6.903   5.909   1.881  1.0538  0.9333 -0.2582
36064SOL     OW10570   0.292   9.615   4.967 -0.0239  0.2450  0.5756
36064SOL    HW110571   0.379   9.654   4.975  0.3035 -0.6340  1.6513
36064SOL    HW210572   0.260   9.609   5.057 -1.2129  0.5695  0.1901
36065SOL     OW10573   6.212  10.068   8.545 -0.1590  0.0948  0.1355
36065SOL    HW110574   6.263  10.067   8.625 -1.4687 -0.1129  0.9969
36065SOL    HW210575   6.154  10.144   8.554 -0.4907 -0.0708 -0.4988
36066SOL     OW10576   5.676   9.897   4.730  0.1956 -0.0521  0.3094
36066SOL    HW110577   5.591   9.938   4.713 -0.1611 -0.6829  0.5197
36066SOL    HW210578   5.686   9.832   4.661  0.9237  0.6193 -0.2320
36067SOL     OW10579   8.393   1.519   5.732  0.2211 -0.3137  0.3109
36067SOL    HW110580   8.448   1.447   5.705  0.7931  0.0941  0.3731
36067SOL    HW210581   8.343   1.485   5.807  0.8167 -0.4988  0.6241
36068SOL     OW10582   6.424   1.064   4.604  0.2370  0.0769  0.0228
36068SOL    HW110583   6.333   1.044   4.625  0.3987  0.7843  1.5082
36068SOL    HW210584   6.431   1.159   4.612  1.2703 -0.0386  0.7130
36069SOL     OW10585   7.161  10.583   3.086 -0.0474 -0.1140  0.0939
36069SOL    HW110586   7.199  10.544   3.165  0.5882  0.0874 -0.1132
36069SOL    HW210587   7.104  10.514   3.052  0.2799 -0.4920  0.2953
36070SOL     OW10588   8.760   7.012   3.261  0.1982 -0.1438  0.2647
36070SOL    HW110589   8.838   7.059   3.233 -0.8851  0.6725 -1.5107
36070SOL    HW210590   8.707   7.077   3.307  0.1927 -0.4950  0.7703
36071SOL     OW10591   7.325   6.998   3.962 -0.2582 -0.2546 -0.2841
36071SOL    HW110592   7.250   7.055   3.978 -1.5330 -1.6461 -1.0728
36071SOL    HW210593   7.401   7.053   3.980 -1.4292  1.6515 -0.8734
36072SOL     OW10594   4.296  10.693   2.960  0.5287  0.2886 -0.5181
36072SOL    HW110595   4.364  10.631   2.986  0.5965  0.6413  0.1659
36072SOL    HW210596   4.218  10.664   3.008 -0.3002 -1.1396 -2.5605
36073SOL     OW10597   7.289   3.032   9.600 -0.6111 -1.0342  0.2365
36073SOL    HW110598   7.215   2.979   9.629 -0.0569 -1.1787  1.4811
36073SOL    HW210599   7.352   2.968   9.567 -0.9757 -0.9242 -0.6818
36074SOL     OW10600   4.424   2.598  10.225  0.5546 -0.3047 -0.2194
36074SOL    HW110601   4.384   2.677  10.187  0.2516 -0.3666 -0.0325
36074SOL    HW210602   4.511   2.594  10.185  0.3227 -0.2475 -0.7365
36075SOL     OW10603   3.752   5.517   0.200 -0.4966  0.0828  0.5290
36075SOL    HW110604   3.779   5.455   0.132 -0.1667  0.3009  0.4634
36075SOL    HW210605   3.804   5.596   0.184  0.0298 -0.0735  1.4103
36076SOL     OW10606   2.946   5.902   6.910  0.6502 -0.1190  0.2303
36076SOL    HW110607   3.023   5.957   6.909  1.0644 -0.5624  2.1240
36076SOL    HW210608   2.937   5.875   7.002 -2.1211  0.4364  0.2259
36077SOL     OW10609   8.916   1.581   9.080  0.6067  0.5111 -0.2185
36077SOL    HW110610   8.904   1.487   9.064 -0.9491  0.8506 -1.2542
36077SOL    HW210611   8.992   1.605   9.026  1.4918 -0.2674  0.6386
36078SOL     OW10612   3.920   2.306   9.646  0.6381 -0.3723 -0.4622
36078SOL    HW110613   3.936   2.321   9.740  0.8074  0.3908 -0.6050
36078SOL    HW210614   3.829   2.332   9.633  0.5305 -0.7447 -0.4579
36079SOL     OW10615   4.256   9.463   3.057 -0.0307 -0.2688 -0.1970
36079SOL    HW110616   4.229   9.519   3.130 -0.5081  2.2975 -2.1911
36079SOL    HW210617   4.292   9.385   3.099  0.4238  1.3806  2.7896
36080SOL     OW10618   1.325   2.870   3.406 -0.1464 -0.3992  0.1050
36080SOL    HW110619   1.245   2.907   3.442 -0.3506 -0.5262 -0.2178
36080SOL    HW210620   1.391   2.939   3.418 -0.7872  0.5677 -1.5501
36081SOL     OW10621   5.875  10.569   9.195  0.4107  0.2926  0.0736
36081SOL    HW110622   5.899  10.589   9.105 -1.3567 -1.4793 -0.8549
36081SOL    HW210623   5.940  10.504   9.223 -0.0500 -0.4442 -0.5396
36082SOL     OW10624   9.718   5.447   8.780  0.1113 -0.0344  0.4638
36082SOL    HW110625   9.691   5.429   8.690  0.2135 -1.6865  0.7424
36082SOL    HW210626   9.726   5.542   8.784 -0.4720  0.1005 -1.1040
36083SOL     OW10627   7.906   7.962   8.967 -0.5191 -0.4321  0.2880
36083SOL    HW110628   7.977   8.019   8.937 -1.0903 -0.4075 -1.0863
36083SOL    HW210629   7.938   7.873   8.953 -0.3842 -0.4347  0.6026
36084SOL     OW10630   5.204   5.510   2.741  0.2405 -0.0944  0.0778
36084SOL    HW110631   5.171   5.433   2.695  0.2067 -0.3408  0.5066
36084SOL    HW210632   5.125   5.552   2.776  0.2232  0.3511 -0.4792
36085SOL     OW10633   6.877   5.261   9.939  0.0038 -0.1781  0.1654
36085SOL    HW110634   6.942   5.259   9.869 -0.8108 -1.7983 -0.6040
36085SOL    HW210635   6.927   5.241  10.019  0.5755 -0.7480 -0.3167
36086SOL     OW10636   8.736   8.240   4.640 -0.6696 -0.0440  0.1554
36086SOL    HW110637   8.665   8.217   4.580  0.0091 -2.0987  0.0746
36086SOL    HW210638   8.731   8.175   4.709  0.5067  0.4224  0.6977
36087SOL     OW10639   4.370   8.886   9.025  0.4781  0.2075  0.5651
36087SOL    HW110640   4.462   8.909   9.036  0.2866  1.5084 -0.2688
36087SOL    HW210641   4.370   8.824   8.951  0.7593 -0.5035  1.1528
36088SOL     OW10642   1.032   5.036   2.963 -0.6319 -0.6855 -0.0589
36088SOL    HW110643   1.086   4.975   3.013 -0.3804  0.7731  1.5648
36088SOL    HW210644   1.078   5.047   2.880  0.3633 -1.1820  0.4135
36089SOL     OW10645   2.440   9.997   7.484  0.3506 -0.3250  0.3185
36089SOL    HW110646   2.456  10.050   7.406  1.8600 -1.2884 -0.0616
36089SOL    HW210647   2.361   9.947   7.464 -0.5987  1.1196  0.3477
36090SOL     OW10648   0.260   1.300   3.838 -0.0335  0.1327 -0.7005
36090SOL    HW110649   0.256   1.214   3.879  0.6686  0.4304  0.0066
36090SOL    HW210650   0.336   1.295   3.780 -0.2484  0.1432 -0.9866
36091SOL     OW10651   0.171  10.111   3.210  0.3144  0.0547 -0.2177
36091SOL    HW110652   0.234  10.066   3.154 -1.7787 -0.8865 -1.9877
36091SOL    HW210653   0.166  10.200   3.176 -0.2829 -0.2567 -0.9627
36092SOL     OW10654   2.690   0.021   5.043  0.3707 -0.4883  1.2108
36092SOL    HW110655   2.716  -0.042   5.110  0.9890 -0.4816  0.9834
36092SOL    HW210656   2.737  -0.007   4.964  0.5885  0.2048  1.0870
36093SOL     OW10657  10.483   1.853   4.619 -0.2860  0.6544  0.0774
36093SOL    HW110658  10.420   1.878   4.687  0.3546  0.0596  0.9182
36093SOL    HW210659  10.459   1.763   4.596  0.3032  0.3877  0.4774
36094SOL     OW10660  10.339   6.843   8.089  0.1674  0.1342 -0.0417
36094SOL    HW110661  10.418   6.795   8.062  0.1078  1.1579 -2.2784
36094SOL    HW210662  10.272   6.775   8.099  0.6691 -0.4957 -0.8206
36095SOL     OW10663  10.301   3.440   4.907 -0.0626 -0.3245 -0.2573
36095SOL    HW110664  10.395   3.432   4.922 -0.2717 -1.6229  0.5377
36095SOL    HW210665  10.269   3.493   4.980  0.0852  0.4218 -0.7218
36096SOL     OW10666   5.540   8.404   8.818 -0.3289  0.6464 -0.0138
36096SOL    HW110667   5.458   8.404   8.868 -1.3167  1.3585 -1.5776
36096SOL    HW210668   5.608   8.420   8.884 -1.4604  0.3659  1.2667
36097SOL     OW10669   3.932   7.095   9.188 -0.2967  0.0039 -0.1799
36097SOL    HW110670   3.916   7.189   9.176  1.3293  0.4181  0.6830
36097SOL    HW210671   3.855   7.063   9.234  0.2761  1.4804  1.9414
36098SOL     OW10672  10.741   2.817   8.274 -0.3845  0.1955  0.2903
36098SOL    HW110673  10.738   2.906   8.311 -0.7781  0.4211 -0.2696
36098SOL    HW210674  10.755   2.831   8.180 -1.3664 -0.3028  0.0566
36099SOL     OW10675   8.565   1.591   0.507  1.2045 -0.0004  0.1007
36099SOL    HW110676   8.532   1.679   0.524 -0.2187 -0.3519 -0.6432
36099SOL    HW210677   8.576   1.552   0.594  0.6491  0.4973  0.3986
36100SOL     OW10678   3.008   1.734   3.947 -0.1003 -0.0927  0.5092
36100SOL    HW110679   2.913   1.741   3.943 -0.0828  0.8113  1.1771
36100SOL    HW210680   3.039   1.793   3.879 -0.0138 -0.2328  0.4269
36101SOL     OW10681   8.072   7.658   0.846  0.2316  0.1676 -0.0918
36101SOL    HW110682   8.043   7.721   0.781  1.7768  1.0416  0.0115
36101SOL    HW210683   8.085   7.577   0.797  0.1341  0.4676 -0.6126
36102SOL     OW10684   1.806   5.022   1.027 -0.0959  0.6464  0.0099
36102SOL    HW110685   1.755   4.975   0.961 -1.4942  3.9779 -1.4711
36102SOL    HW210686   1.816   5.110   0.992  3.3444  1.2750  2.1119
36103SOL     OW10687   4.368   8.108   5.662 -0.2563  0.4120 -0.1728
36103SOL    HW110688   4.298   8.159   5.701  0.7982  1.1638  0.8110
36103SOL    HW210689   4.408   8.061   5.736 -0.2703 -0.7022 -0.8378
36104SOL     OW10690   5.868   1.978   7.314  0.1789  0.2261 -0.7623
36104SOL    HW110691   5.955   1.939   7.322  0.2294  0.2130 -1.3148
36104SOL    HW210692   5.854   1.987   7.219 -0.7735 -0.5552 -0.7127
36105SOL     OW10693   9.926  10.776   5.536  0.4295 -0.2509 -0.2411
36105SOL    HW110694   9.933  10.694   5.585 -0.4125 -0.6875 -0.8367
36105SOL    HW210695  10.008  10.822   5.555 -0.4258  0.2887  2.8172
36106SOL     OW10696   3.049   5.552   3.835  0.0919  0.4435 -0.1760
36106SOL    HW110697   3.002   5.557   3.752  1.3715  2.0321 -0.8607
36106SOL    HW210698   3.064   5.643   3.860  0.0435 -0.0127  1.6355
36107SOL     OW10699   7.087   7.707   0.263  0.0530  0.2176  0.1769
36107SOL    HW110700   7.005   7.683   0.304  0.7319  0.2693  1.6110
36107SOL    HW210701   7.100   7.641   0.194 -1.3352  0.4240 -0.3034
36108SOL     OW10702   6.539   3.604   3.713 -0.3484  0.0504 -0.3825
36108SOL    HW110703   6.514   3.552   3.789  1.3041 -0.2379 -0.0107
36108SOL    HW210704   6.498   3.560   3.639 -1.7492  0.1814  0.2751
36109SOL     OW10705   7.911   2.896   7.019 -0.8527  0.2361  0.3200
36109SOL    HW110706   7.919   2.805   6.991  1.2310  0.0543  1.2872
36109SOL    HW210707   7.853   2.892   7.096 -1.6036 -0.1146 -0.2579
36110SOL     OW10708   6.881   9.306   7.219 -0.1450  0.0915 -0.1135
36110SOL    HW110709   6.890   9.399   7.201  0.6109  0.3154  1.2557
36110SOL    HW210710   6.969   9.276   7.241 -0.2857 -1.0774 -1.0133
36111SOL     OW10711   0.159   4.443   3.887  0.6604 -0.1536  0.3911
36111SOL    HW110712   0.158   4.488   3.802  2.4054 -0.0620  0.3789
36111SOL    HW210713   0.106   4.499   3.944  1.1148  0.8463 -0.1386
36112SOL     OW10714   9.447   9.205   6.588  0.0678  0.0446 -0.0113
36112SOL    HW110715   9.428   9.179   6.498  1.8611 -1.3779 -0.0421
36112SOL    HW210716   9.415   9.294   6.595  0.6213  0.4888 -2.3377
36113SOL     OW10717   7.907   2.007   6.967 -0.3234  0.2566 -0.5956
36113SOL    HW110718   7.886   1.984   6.877  0.0036  2.2041 -1.1968
36113SOL    HW210719   7.860   2.088   6.984  1.2819  1.0609  0.2664
36114SOL     OW10720   0.845   9.003   8.629  0.4796  0.1116 -0.8012
36114SOL    HW110721   0.857   8.967   8.716  1.1329 -0.4630 -1.1178
36114SOL    HW210722   0.917   8.966   8.577  1.0633  1.7009 -1.1876
36115SOL     OW10723   4.852   7.854   3.154  0.2002 -0.0385 -0.0052
36115SOL    HW110724   4.847   7.808   3.238  0.7173  0.7125  0.4487
36115SOL    HW210725   4.890   7.939   3.176  0.5678  0.0705 -1.0439
36116SOL     OW10726   0.677  10.186   1.578 -0.7159 -0.7664  0.0443
36116SOL    HW110727   0.633  10.166   1.495  0.0665 -1.0921 -0.2957
36116SOL    HW210728   0.630  10.262   1.612  0.3591  0.7878 -1.7945
36117SOL     OW10729   1.153   2.525   8.463 -0.8281  0.0002 -0.0728
36117SOL    HW110730   1.111   2.447   8.499 -0.7642 -0.2507 -0.5415
36117SOL    HW210731   1.245   2.501   8.455 -1.1498 -0.6670 -2.2985
36118SOL     OW10732   7.004   0.766   6.329  0.0011 -0.4760  0.3131
36118SOL    HW110733   6.964   0.830   6.270  2.1149  1.1924  0.5618
36118SOL    HW210734   6.948   0.768   6.407 -0.3241  0.6598  0.0757
36119SOL     OW10735   0.470   3.211   8.524  0.1118 -0.8260 -0.4063
36119SOL    HW110736   0.560   3.228   8.552 -0.6609 -1.0328  2.5603
36119SOL    HW210737   0.440   3.139   8.580 -3.5378  2.6858  2.8349
36120SOL     OW10738   1.449   6.346   5.887  0.0626  0.2596  0.0051
36120SOL    HW110739   1.451   6.436   5.918  0.1355 -0.0414  0.9112
36120SOL    HW210740   1.473   6.294   5.963  0.0116 -0.5293 -0.5044
36121SOL     OW10741   0.777   9.598   1.197 -0.1626  0.0153 -0.8883
36121SOL    HW110742   0.842   9.621   1.130 -0.6796 -0.3051 -1.5056
36121SOL    HW210743   0.719   9.674   1.201 -0.4163 -0.1637 -1.1534
36122SOL     OW10744   7.819   4.630   6.330 -0.1553  0.7023 -0.2115
36122SOL    HW110745   7.774   4.710   6.301 -1.2627  0.4656  0.8139
36122SOL    HW210746   7.751   4.578   6.372  0.7050 -0.4942 -0.2704
36123SOL     OW10747   0.653   8.564   3.632  0.0202 -0.0256  0.0122
36123SOL    HW110748   0.616   8.493   3.683  0.6780 -0.7119 -0.4515
36123SOL    HW210749   0.747   8.555   3.641  0.1448  0.0664 -1.0005
36124SOL     OW10750   1.988   1.227   5.875  0.4783 -0.2320 -0.5762
36124SOL    HW110751   2.004   1.144   5.830 -0.6408 -0.2592 -0.9438
36124SOL    HW210752   1.908   1.262   5.835 -0.6885 -0.3510  1.5225
36125SOL     OW10753   1.980  10.116  10.497 -0.0651  0.1452 -0.1283
36125SOL    HW110754   1.928  10.136  10.420 -0.2540 -0.1181 -0.0708
36125SOL    HW210755   1.954  10.182  10.562  0.0154  0.2999 -0.2542
36126SOL     OW10756   3.537  10.269   3.704  0.4715 -0.6546 -0.5329
36126SOL    HW110757   3.565  10.257   3.613  2.1617  1.1377 -0.3060
36126SOL    HW210758   3.477  10.343   3.700 -0.6043 -1.4790 -0.3335
36127SOL     OW10759   9.256   3.499   6.921  0.4476  0.2546  0.0260
36127SOL    HW110760   9.178   3.445   6.936  0.1406  0.9898  1.2325
36127SOL    HW210761   9.323   3.457   6.975  0.2684  0.9137  0.7860
36128SOL     OW10762   5.555   5.588   9.213 -0.0917  0.1660 -0.2174
36128SOL    HW110763   5.553   5.670   9.262  0.3997 -0.5586  1.0592
36128SOL    HW210764   5.624   5.602   9.148  1.6600 -0.0266  1.5063
36129SOL     OW10765   9.521   9.925   7.484  0.1760 -0.0332  0.3363
36129SOL    HW110766   9.548   9.842   7.446  2.4992 -0.0490  1.7999
36129SOL    HW210767   9.585   9.988   7.451 -1.5526  1.2266 -0.7565
36130SOL     OW10768   5.188   2.091   3.424 -0.1364  0.0015  0.4274
36130SOL    HW110769   5.196   2.022   3.357  2.2384 -0.0212  0.6265
36130SOL    HW210770   5.183   2.043   3.507 -1.4393  0.0501  0.3849
36131SOL     OW10771   8.339   9.992   1.076  0.4604  0.7193  0.4898
36131SOL    HW110772   8.277  10.065   1.080 -0.1093  0.2705  0.1049
36131SOL    HW210773   8.284   9.914   1.080  0.8465  0.2872 -1.5434
36132SOL     OW10774   2.078   0.013   3.141 -0.2362 -0.4173  0.0188
36132SOL    HW110775   1.995   0.019   3.187 -0.6708  0.4645 -0.8495
36132SOL    HW210776   2.090  -0.081   3.125 -1.0923 -0.5460  0.1041
36133SOL     OW10777   9.641   0.609   4.105  0.4060  0.0303 -0.4437
36133SOL    HW110778   9.550   0.609   4.077  0.9001  0.0683 -2.1868
36133SOL    HW210779   9.663   0.517   4.119 -0.3506  0.1262  1.7120
36134SOL     OW10780   4.940   5.126   2.884  0.0278 -0.5206  0.2519
36134SOL    HW110781   4.918   5.174   2.964 -0.0034 -0.5563  0.2649
36134SOL    HW210782   4.882   5.163   2.817  0.2990 -0.2467  0.1668
36135SOL     OW10783   1.180   5.594   4.694  0.0990  0.6416  0.0240
36135SOL    HW110784   1.130   5.515   4.718  0.4981 -0.0574 -1.3615
36135SOL    HW210785   1.201   5.635   4.778  2.4532 -2.3081  1.0789
36136SOL     OW10786   4.140   4.871   4.853 -0.1032 -0.1134  0.8542
36136SOL    HW110787   4.186   4.937   4.904 -0.4122  1.6354 -1.0228
36136SOL    HW210788   4.211   4.817   4.815  0.1317 -1.2193  2.7579
36137SOL     OW10789   8.931   1.439   4.518 -0.0470 -0.0831  0.0931
36137SOL    HW110790   9.022   1.426   4.544  0.0534  0.2057 -0.1063
36137SOL    HW210791   8.908   1.360   4.470  0.0396 -0.2380  0.3072
36138SOL     OW10792   6.898   4.996   2.351  0.8559  0.3083  0.1970
36138SOL    HW110793   6.829   4.934   2.327  0.4409  0.6552  0.4701
36138SOL    HW210794   6.867   5.080   2.317  1.3794  0.3817 -0.1033
36139SOL     OW10795   5.042   1.144   3.658 -0.0935  0.7558  0.1787
36139SOL    HW110796   4.975   1.132   3.725 -0.7094 -0.9784 -0.6732
36139SOL    HW210797   5.089   1.060   3.655 -0.5935  0.4917 -2.0536
36140SOL     OW10798   5.598   2.814   4.326  0.6634  0.1096 -0.3650
36140SOL    HW110799   5.517   2.772   4.357 -0.1436  2.7024  1.3466
36140SOL    HW210800   5.588   2.818   4.231  0.7109 -3.2309 -0.6327
36141SOL     OW10801   4.636   7.651   5.803 -0.7171 -0.2736  0.1292
36141SOL    HW110802   4.607   7.561   5.790 -2.0649  0.2417 -0.6344
36141SOL    HW210803   4.670   7.652   5.893  0.6900 -1.8567 -0.3227
36142SOL     OW10804   7.192   6.138   8.084  0.1377  0.3053 -0.5633
36142SOL    HW110805   7.256   6.191   8.037  1.1346 -0.2176  0.1672
36142SOL    HW210806   7.185   6.057   8.033  1.5043 -0.4207  0.3336
36143SOL     OW10807   4.605   8.381   0.023  0.2283 -0.0929  0.0065
36143SOL    HW110808   4.554   8.398  -0.056  3.2620 -0.4958 -2.1885
36143SOL    HW210809   4.632   8.289   0.015  1.1518  0.0473  1.1713
36144SOL     OW10810   7.868   9.816   4.960  0.1555 -0.6164  0.5932
36144SOL    HW110811   7.783   9.857   4.972 -0.8924 -1.1502 -3.6154
36144SOL    HW210812   7.930   9.889   4.956 -0.6744  0.0666 -0.0162
36145SOL     OW10813   1.351   6.468   0.213  0.4396  0.2979  0.1747
36145SOL    HW110814   1.331   6.517   0.293 -0.2585  1.1841 -0.5152
36145SOL    HW210815   1.301   6.387   0.222 -1.3285  1.2924 -0.2685
36146SOL     OW10816   9.667   4.908   6.699 -0.5380  0.1446  0.3628
36146SOL    HW110817   9.732   4.866   6.644 -1.8778  0.0150 -1.2049
36146SOL    HW210818   9.664   4.855   6.779  0.5889 -0.3845  0.0650
36147SOL     OW10819   5.016   9.319   9.154  0.2920 -0.1519  0.1009
36147SOL    HW110820   5.073   9.367   9.214  1.3939 -1.9069  0.5397
36147SOL    HW210821   5.034   9.227   9.173  0.0766 -0.7629 -2.3747
36148SOL     OW10822  10.628   7.106   1.711  0.4896 -0.2928 -0.4837
36148SOL    HW110823  10.552   7.142   1.755  0.2717 -0.1802 -0.9458
36148SOL    HW210824  10.697   7.108   1.776  0.3946  0.6601 -0.4057
36149SOL     OW10825   5.776  10.523   4.926 -0.4057  0.3380  0.5398
36149SOL    HW110826   5.721  10.480   4.992  0.7469 -0.5505  0.9427
36149SOL    HW210827   5.852  10.555   4.975  0.7843 -0.9090 -0.4168
36150SOL     OW10828   1.056   2.298   9.666  0.8616 -0.4563  0.4651
36150SOL    HW110829   1.038   2.237   9.594  0.1680  0.8951 -0.5538
36150SOL    HW210830   0.988   2.281   9.730  0.3723 -0.4142 -0.0402
36151SOL     OW10831   1.902   6.917  10.800  0.4500 -0.2090 -0.4250
36151SOL    HW110832   1.889   7.000  10.754 -0.3689 -0.2502 -0.2741
36151SOL    HW210833   1.911   6.942  10.892 -0.3779 -0.3364 -0.3090
36152SOL     OW10834   1.406   1.643   1.256 -0.0869  0.2765  0.9050
36152SOL    HW110835   1.441   1.566   1.211  0.3608  0.1592  1.4460
36152SOL    HW210836   1.411   1.713   1.191 -0.9206 -0.2420  0.2547
36153SOL     OW10837   6.292   7.817   7.044  0.0873 -0.3550 -0.0526
36153SOL    HW110838   6.245   7.882   7.097  0.5175  1.2721 -1.5563
36153SOL    HW210839   6.381   7.819   7.078 -0.3741 -1.8703  1.3817
36154SOL     OW10840  10.386   0.935   9.430  0.2346 -0.0717 -0.0377
36154SOL    HW110841  10.422   0.848   9.448 -0.5324 -0.3800  0.0185
36154SOL    HW210842  10.343   0.960   9.512 -0.7930 -0.2594 -0.5061
36155SOL     OW10843   8.023   3.750   7.993 -0.0726 -0.0320 -0.7705
36155SOL    HW110844   8.034   3.846   7.994 -1.5048  0.1905  1.2301
36155SOL    HW210845   8.103   3.717   8.033 -0.1899  0.4488 -0.1180
36156SOL     OW10846   7.699   2.358   6.725 -0.0317  0.6414  0.1413
36156SOL    HW110847   7.605   2.353   6.739  0.0741  0.5256  0.8832
36156SOL    HW210848   7.716   2.301   6.650 -0.1938 -1.8946  1.8671
36157SOL     OW10849   5.421   1.799   5.106  0.4721 -0.1715  0.1073
36157SOL    HW110850   5.513   1.804   5.133  0.8477  1.1034 -1.2790
36157SOL    HW210851   5.407   1.706   5.087  1.7360 -0.2559 -0.4967
36158SOL     OW10852   0.568   8.044  10.562  0.2534  0.5328  0.0946
36158SOL    HW110853   0.586   8.059  10.470  1.1011 -2.1998 -0.2546
36158SOL    HW210854   0.506   8.114  10.586  0.6277  1.7677 -2.2930
36159SOL     OW10855   4.253   1.903   4.780  0.0058 -0.1511  0.3183
36159SOL    HW110856   4.305   1.828   4.808 -0.1404 -1.4501 -2.4874
36159SOL    HW210857   4.164   1.868   4.771 -0.9705  1.4410  2.7606
36160SOL     OW10858   6.684   6.334  10.259 -0.2909  0.1288 -0.1931
36160SOL    HW110859   6.724   6.416  10.231  0.2922 -0.1170 -0.1146
36160SOL    HW210860   6.658   6.291  10.178 -0.4717  0.3258 -0.2412
36161SOL     OW10861   2.203   1.418   5.509 -0.0385 -0.3451  0.4336
36161SOL    HW110862   2.109   1.413   5.523 -0.2676 -1.6582 -1.2702
36161SOL    HW210863   2.228   1.332   5.475  2.0302 -0.4815  2.0405
36162SOL     OW10864   8.429   1.231   2.894 -0.3968 -0.4926 -0.4025
36162SOL    HW110865   8.362   1.192   2.837 -1.5633  1.3275 -0.3573
36162SOL    HW210866   8.494   1.267   2.834  0.2532 -1.7160 -0.4612
36163SOL     OW10867   4.727   4.518   8.093  0.1537  0.3120 -0.2323
36163SOL    HW110868   4.751   4.432   8.056 -2.2087 -0.5109  0.0169
36163SOL    HW210869   4.796   4.536   8.156  0.9252 -1.2168 -0.5757
36164SOL     OW10870   9.325  10.034  10.504  0.2035 -1.4977  0.0464
36164SOL    HW110871   9.326  10.128  10.485  1.4935 -0.8602  2.7635
36164SOL    HW210872   9.266  10.025  10.579  1.0623 -2.6238  0.6222
36165SOL     OW10873   5.303   7.488   6.651 -0.5838 -0.5302  0.2725
36165SOL    HW110874   5.361   7.554   6.690 -1.8463 -0.4979  2.2053
36165SOL    HW210875   5.361   7.415   6.631  0.3389 -0.0428  1.0564
36166SOL     OW10876   8.125   5.349   7.844 -0.1995 -0.2106 -0.2049
36166SOL    HW110877   8.045   5.333   7.793 -1.2635 -0.2525  1.3922
36166SOL    HW210878   8.165   5.263   7.853 -0.0810 -0.2241 -0.8422
36167SOL     OW10879   5.120   4.909   8.733 -0.1159  0.3528 -0.2041
36167SOL    HW110880   5.183   4.980   8.725 -0.8452  0.9853 -0.5386
36167SOL    HW210881   5.153   4.855   8.805  1.1157  0.3213 -0.7669
36168SOL     OW10882  10.571   3.178   7.457 -0.2188 -0.4588  0.0941
36168SOL    HW110883  10.647   3.237   7.453 -0.4537 -0.2055 -0.8000
36168SOL    HW210884  10.517   3.204   7.383 -0.4978 -1.5834 -0.1083
36169SOL     OW10885   3.723   3.257   5.610  0.0024 -0.3013 -0.2169
36169SOL    HW110886   3.646   3.208   5.582 -0.4157  0.1797  0.0587
36169SOL    HW210887   3.700   3.290   5.697  0.3122  0.2878 -0.3524
36170SOL     OW10888   6.173   9.883   7.537  0.0652 -0.5071  0.2150
36170SOL    HW110889   6.198   9.867   7.628 -1.3492 -1.2303  0.5104
36170SOL    HW210890   6.212   9.809   7.489 -0.5906 -1.0542  0.5070
36171SOL     OW10891   9.334   6.825   1.968 -0.1706 -0.1885 -0.3780
36171SOL    HW110892   9.325   6.731   1.981  0.3666 -0.3404 -1.0287
36171SOL    HW210893   9.294   6.842   1.883 -1.4562  0.3954  0.3087
36172SOL     OW10894   4.101   2.261   5.755 -0.4957 -0.0693 -0.3779
36172SOL    HW110895   4.179   2.208   5.735  1.9383  1.9977  2.5854
36172SOL    HW210896   4.121   2.347   5.717 -1.4845  0.4171  0.1728
36173SOL     OW10897   6.632   8.868   0.201 -0.3541 -0.2169  0.6906
36173SOL    HW110898   6.648   8.960   0.221 -0.1458 -0.1491  0.2483
36173SOL    HW210899   6.646   8.822   0.284 -1.3526  0.2468  1.1218
36174SOL     OW10900   2.452   7.130   8.812 -0.0413  0.6048 -0.6751
36174SOL    HW110901   2.426   7.176   8.892 -1.7835  0.8064 -1.3254
36174SOL    HW210902   2.431   7.038   8.829  0.3676  0.5198 -0.6063
36175SOL     OW10903   1.200   7.433   4.780 -0.0878 -0.0042  0.0468
36175SOL    HW110904   1.283   7.450   4.826 -0.4462 -0.4757  0.8958
36175SOL    HW210905   1.171   7.348   4.813 -1.8177  0.9621  1.1882
36176SOL     OW10906   5.621   9.022   9.976  0.0074 -0.2451  0.2340
36176SOL    HW110907   5.541   9.005  10.025  0.8062 -1.3008  1.2327
36176SOL    HW210908   5.661   9.097  10.020 -0.2723  0.0954 -0.0829
36177SOL     OW10909   0.597   9.799   1.195  0.2375  0.3004  0.0267
36177SOL    HW110910   0.515   9.834   1.159  0.0746  1.6722  1.6231
36177SOL    HW210911   0.645   9.877   1.224  1.1765 -0.6337  1.0374
36178SOL     OW10912   9.506   5.045   4.725 -0.4577  0.1919 -0.9922
36178SOL    HW110913   9.500   5.134   4.760  0.2272 -0.2378  0.2804
36178SOL    HW210914   9.484   5.054   4.633 -1.6488  1.4826 -0.6105
36179SOL     OW10915   1.754   3.013   1.742  0.0487 -0.2114 -0.1720
36179SOL    HW110916   1.779   2.921   1.727 -0.7959 -0.1029 -2.6173
36179SOL    HW210917   1.742   3.049   1.654 -1.1760  1.8217  0.7681
36180SOL     OW10918   8.876   4.925   6.767  0.1685  0.1471  0.0046
36180SOL    HW110919   8.969   4.942   6.753  0.5879 -0.5831  1.7352
36180SOL    HW210920   8.845   4.891   6.683  1.6775 -0.5507 -0.2952
36181SOL     OW10921   5.573   8.970   0.094  0.6138  0.0818  0.2518
36181SOL    HW110922   5.614   9.051   0.125 -0.3241  1.3962 -1.7119
36181SOL    HW210923   5.481   8.993   0.081  0.0781 -1.6474  0.6848
36182SOL     OW10924  10.797   7.308   7.098  0.0739 -0.3327  0.3588
36182SOL    HW110925  10.804   7.249   7.174  0.0321 -0.1984  0.4665
36182SOL    HW210926  10.817   7.394   7.132  1.0700 -0.4169 -0.0027
36183SOL     OW10927   9.060  10.792   8.291  0.0523 -0.3185  0.1963
36183SOL    HW110928   8.990  10.839   8.245 -0.4610 -0.8282  0.4427
36183SOL    HW210929   9.036  10.798   8.384 -0.3562 -1.5490  0.2007
36184SOL     OW10930   9.025   1.573   6.415  0.5186  0.3252  0.1575
36184SOL    HW110931   9.003   1.484   6.443  1.5725 -0.9025 -2.5342
36184SOL    HW210932   8.941   1.614   6.397  0.0584 -0.8855 -0.5883
36185SOL     OW10933   2.093   3.326   9.309 -0.3285  0.4839 -0.3250
36185SOL    HW110934   2.051   3.250   9.349 -1.0464  0.2877 -1.4094
36185SOL    HW210935   2.087   3.311   9.215  0.7728  1.2268 -0.5356
36186SOL     OW10936   8.947   7.102   1.183  0.8258  0.5405  0.0988
36186SOL    HW110937   8.931   7.074   1.093  1.7645  0.8751 -0.1902
36186SOL    HW210938   8.992   7.186   1.174  1.3583  0.3547  0.8655
36187SOL     OW10939   0.522   3.279   6.410 -0.2027 -0.2052  0.2873
36187SOL    HW110940   0.602   3.326   6.435 -1.0976  0.8686  1.2598
36187SOL    HW210941   0.494   3.234   6.490 -0.8288 -0.1676  0.0964
36188SOL     OW10942   1.324   8.006   8.373  0.3873 -0.3711  0.4879
36188SOL    HW110943   1.303   7.954   8.450  0.7021 -0.8459  0.2616
36188SOL    HW210944   1.411   7.975   8.347 -0.2379 -1.1318 -0.8024
36189SOL     OW10945   5.380   1.588   2.022 -0.1574 -0.5888 -0.1360
36189SOL    HW110946   5.468   1.552   2.019  0.4403  0.8578 -0.8232
36189SOL    HW210947   5.392   1.683   2.013 -1.6808 -0.2099  1.1728
36190SOL     OW10948   8.881   1.983   6.809  0.3368  0.1380  0.1130
36190SOL    HW110949   8.915   1.897   6.831 -0.3211 -0.0200  0.5761
36190SOL    HW210950   8.833   1.970   6.727  1.1277  0.2988 -0.3831
36191SOL     OW10951   4.658   7.801   4.880  0.2215 -0.6544  0.1672
36191SOL    HW110952   4.661   7.840   4.792  0.4101  0.9061  0.8378
36191SOL    HW210953   4.750   7.785   4.902  0.2331 -0.2564  0.4125
36192SOL     OW10954   2.803   8.463  10.435  0.3030  0.3442 -0.0245
36192SOL    HW110955   2.742   8.495  10.501 -0.8855 -0.4756 -0.6770
36192SOL    HW210956   2.847   8.389  10.478  0.1931  0.3771  0.1471
36193SOL     OW10957   3.838   0.118   8.743 -0.2454  0.3154  0.6424
36193SOL    HW110958   3.768   0.175   8.712  1.1355 -0.0863 -3.9327
36193SOL    HW210959   3.918   0.153   8.703  1.6901 -1.2257  2.8553
36194SOL     OW10960   5.125   4.018   8.795 -0.4621  0.2180  0.1355
36194SOL    HW110961   5.030   4.012   8.805 -0.4372  0.6206  0.6543
36194SOL    HW210962   5.139   4.097   8.743 -0.4536 -0.4231 -0.8749
36195SOL     OW10963   8.161   9.401   6.183 -0.2359 -0.1761  0.1273
36195SOL    HW110964   8.100   9.466   6.218 -0.0878  0.0482 -0.0255
36195SOL    HW210965   8.158   9.329   6.246 -2.6535 -1.3726 -1.1876
36196SOL     OW10966   8.735   6.921   6.821 -0.0447 -0.1915 -0.1246
36196SOL    HW110967   8.736   6.861   6.894 -0.2115 -0.5130 -0.3853
36196SOL    HW210968   8.746   7.008   6.861  0.0994 -0.3831  0.2559
36197SOL     OW10969  10.434   2.217  10.289  0.3449 -0.2919 -0.0902
36197SOL    HW110970  10.479   2.144  10.330  0.4491 -0.7226 -0.9445
36197SOL    HW210971  10.402   2.182  10.206  0.9072  0.7738 -0.7871
36198SOL     OW10972   6.025   3.642   5.280 -0.1469  0.3447  0.3917
36198SOL    HW110973   6.023   3.732   5.247  1.0600  1.1674  2.3626
36198SOL    HW210974   5.947   3.635   5.335 -1.2190 -0.4604 -1.1458
36199SOL     OW10975   4.315   5.039   5.135 -0.2176  0.4746  0.0387
36199SOL    HW110976   4.380   5.003   5.196 -0.4270 -0.8198 -0.4565
36199SOL    HW210977   4.244   5.070   5.190  0.2978  0.8133  0.5249
36200SOL     OW10978  10.000   3.863   4.081 -0.0062 -0.1596  0.3790
36200SOL    HW110979  10.061   3.802   4.120  0.8700 -0.8061 -1.8568
36200SOL    HW210980  10.045   3.948   4.084  0.2378 -0.2900  0.3658
36201SOL     OW10981   5.865   5.390   5.404  0.2025  1.2302  0.1318
36201SOL    HW110982   5.815   5.428   5.331 -0.3128 -0.5971 -0.5225
36201SOL    HW210983   5.932   5.336   5.361  0.0283  0.3020  0.9956
36202SOL     OW10984   7.067   8.700   8.424  0.3338 -0.1727 -0.1773
36202SOL    HW110985   7.081   8.788   8.391  0.0858 -0.4189 -0.9676
36202SOL    HW210986   6.979   8.677   8.396 -0.0530 -0.2433  1.0372
36203SOL     OW10987   8.043   0.198   4.258  0.1647  0.2667  0.4063
36203SOL    HW110988   8.003   0.187   4.171 -0.6659 -0.5014  0.8642
36203SOL    HW210989   7.981   0.157   4.318  0.7839  0.6876  1.3591
36204SOL     OW10990   9.676   2.855   1.944 -0.2898  0.1019  0.2395
36204SOL    HW110991   9.711   2.828   2.029  0.2073 -0.5493 -0.1653
36204SOL    HW210992   9.584   2.829   1.947  0.1067 -1.4397 -0.0276
36205SOL     OW10993   0.356   2.147   0.045 -0.0123  0.2029  0.3248
36205SOL    HW110994   0.407   2.201  -0.015 -0.4066  1.1844  0.8496
36205SOL    HW210995   0.285   2.112  -0.009  0.7734 -0.5632 -0.2325
36206SOL     OW10996   2.151   8.702   6.717 -0.4130 -0.4650 -0.1412
36206SOL    HW110997   2.182   8.750   6.794 -0.7881  0.1683 -0.3758
36206SOL    HW210998   2.058   8.688   6.733 -0.2591 -1.3400  0.0331
36207SOL     OW10999   5.859   0.112   6.546  0.2627 -0.4848  0.3965
36207SOL    HW111000   5.945   0.094   6.510  0.8851 -0.3061  1.7472
36207SOL    HW211001   5.871   0.190   6.600 -1.1788  0.7167 -0.9157
36208SOL     OW11002   2.527   2.521   6.416 -0.0864  0.3825 -0.3261
36208SOL    HW111003   2.471   2.560   6.348 -0.4001  0.9246  0.2273
36208SOL    HW211004   2.499   2.564   6.497  0.8592  0.3643  0.0256
36209SOL     OW11005   6.805   3.085   2.440  0.1697  0.4867  0.1164
36209SOL    HW111006   6.728   3.060   2.389  0.7860 -0.2568 -0.4815
36209SOL    HW211007   6.867   3.118   2.375 -0.1497  2.5007  0.7480
36210SOL     OW11008   9.521   0.116   1.221  0.3114 -0.3924  0.0230
36210SOL    HW111009   9.476   0.089   1.301 -0.0323  0.5050  0.1500
36210SOL    HW211010   9.495   0.208   1.209 -0.9783 -0.9295 -1.9991
36211SOL     OW11011   6.646   1.506   4.038 -0.5218  0.6750 -0.1770
36211SOL    HW111012   6.654   1.488   4.132 -1.7916  1.0402  0.0262
36211SOL    HW211013   6.712   1.574   4.021 -0.8408  1.2157  0.6437
36212SOL     OW11014  10.006   3.116   8.165 -0.1370 -0.0091 -0.0753
36212SOL    HW111015  10.071   3.179   8.132  0.4667 -0.2840  0.5752
36212SOL    HW211016  10.037   3.031   8.134 -1.3384  0.0475 -1.5731
36213SOL     OW11017   6.085   5.619   1.879 -0.0482 -0.1412 -0.3646
36213SOL    HW111018   6.102   5.572   1.961 -0.4682  0.7109  0.2291
36213SOL    HW211019   6.079   5.550   1.813  0.7338 -0.8170  0.2405
36214SOL     OW11020   2.976   8.171   7.843 -0.6534 -0.6458 -0.1903
36214SOL    HW111021   3.035   8.095   7.843  0.7452  0.3288  2.0497
36214SOL    HW211022   2.907   8.146   7.904 -0.2142 -0.1605  0.5154
36215SOL     OW11023   8.784   0.959   0.426  0.0946  0.7882  0.5748
36215SOL    HW111024   8.759   1.028   0.488  0.9289  0.2721  1.5037
36215SOL    HW211025   8.872   0.983   0.398  0.3917  0.1067  0.9069
36216SOL     OW11026   0.602   7.170   9.127  0.8188 -0.2949  0.6816
36216SOL    HW111027   0.545   7.115   9.181  1.6869 -0.0299  1.9010
36216SOL    HW211028   0.678   7.188   9.182  2.4002 -1.1408 -1.1090
36217SOL     OW11029   3.565   7.839   5.240 -0.3850 -0.2916 -0.3547
36217SOL    HW111030   3.620   7.802   5.309  0.8138 -0.2117 -1.2224
36217SOL    HW211031   3.571   7.934   5.254 -1.5858 -0.3211  0.4794
36218SOL     OW11032   1.660   0.812   9.762 -0.2343 -0.8793  0.2452
36218SOL    HW111033   1.727   0.751   9.732 -0.4423 -0.2161 -1.7429
36218SOL    HW211034   1.580   0.759   9.767 -0.3462 -0.8755 -1.1529
36219SOL     OW11035   4.282   2.215   7.991  0.3645  0.0574 -0.4973
36219SOL    HW111036   4.304   2.170   7.910  1.3833  3.5203 -2.3384
36219SOL    HW211037   4.320   2.160   8.060 -1.2282 -3.4429 -2.1325
36220SOL     OW11038   2.320   8.171   1.471  0.4946  0.2328  0.1081
36220SOL    HW111039   2.327   8.253   1.520 -0.5828 -0.4274  1.4621
36220SOL    HW211040   2.284   8.109   1.535 -1.2407 -0.6217 -1.6022
36221SOL     OW11041   9.341   6.536   7.335 -0.2510 -0.1867  0.2277
36221SOL    HW111042   9.332   6.571   7.246  0.2170  0.7190  0.5174
36221SOL    HW211043   9.434   6.515   7.343  0.0785  1.4550  1.0936
36222SOL     OW11044   1.292   7.829   5.585 -0.4402  0.2632  0.1461
36222SOL    HW111045   1.309   7.762   5.651 -0.6489 -0.1744 -0.2394
36222SOL    HW211046   1.362   7.893   5.598 -1.4387  1.0755  1.9150
36223SOL     OW11047   3.662   7.155   0.216 -0.5892 -0.0868  0.2315
36223SOL    HW111048   3.682   7.145   0.309  0.9261 -2.0925 -0.2390
36223SOL    HW211049   3.568   7.142   0.209 -0.4865 -1.5646  1.3144
36224SOL     OW11050   2.660   3.150   5.660 -0.0255 -0.0049 -0.5085
36224SOL    HW111051   2.568   3.137   5.683 -0.3731  1.1067 -1.2063
36224SOL    HW211052   2.674   3.245   5.668  1.2772 -0.2415  0.3632
36225SOL     OW11053   6.553   8.528   2.993  0.1989  0.4358 -0.0914
36225SOL    HW111054   6.635   8.572   2.973  0.7463 -0.4766  0.1318
36225SOL    HW211055   6.520   8.499   2.908  1.3326 -1.3233  0.0139
36226SOL     OW11056   9.595  10.353   3.819  0.0339 -0.2461 -0.2223
36226SOL    HW111057   9.689  10.353   3.837  0.1085  0.7549 -0.5161
36226SOL    HW211058   9.560  10.423   3.874 -0.7398 -1.3753  0.7585
36227SOL     OW11059   7.676   2.806   2.000  0.2935 -0.4086  0.2606
36227SOL    HW111060   7.720   2.891   1.991 -1.5723  0.5623 -0.2882
36227SOL    HW211061   7.744   2.742   1.984  1.8830  0.9662  1.2069
36228SOL     OW11062   4.583   5.306   2.804 -0.0526  0.3590  0.1013
36228SOL    HW111063   4.576   5.219   2.843 -1.9631  0.2639 -0.3576
36228SOL    HW211064   4.667   5.305   2.759 -0.3538 -1.5335 -0.5066
36229SOL     OW11065   3.808   4.374   3.559  0.2343 -0.2219 -0.0859
36229SOL    HW111066   3.842   4.419   3.637 -1.3629  1.7852 -0.4748
36229SOL    HW211067   3.716   4.357   3.580  0.4657 -2.1593 -0.5046
36230SOL     OW11068   4.755   4.809   9.901 -0.0919 -0.1618  0.2252
36230SOL    HW111069   4.818   4.737   9.895  0.1967 -0.0401  1.5450
36230SOL    HW211070   4.744   4.824   9.994 -2.4491 -0.4970  0.0587
36231SOL     OW11071   3.344   7.138   9.240 -0.4239  0.3728 -0.3054
36231SOL    HW111072   3.407   7.206   9.217  1.1703 -1.3004 -1.1739
36231SOL    HW211073   3.286   7.179   9.304 -0.1726  2.8289 -1.5403
36232SOL     OW11074   5.071   9.192   7.369 -0.4503 -0.2900  0.5210
36232SOL    HW111075   5.069   9.168   7.277 -1.1363  0.5060  0.3224
36232SOL    HW211076   5.164   9.191   7.392 -0.3694 -1.9691  0.2355
36233SOL     OW11077  10.046   8.148   9.745 -0.2637  0.1954 -0.1067
36233SOL    HW111078   9.986   8.080   9.714  0.4617 -0.3365 -0.3599
36233SOL    HW211079  10.029   8.223   9.687 -0.9461  0.1893  0.0678
36234SOL     OW11080   7.408   4.209   9.494 -0.5033 -0.4267  0.4437
36234SOL    HW111081   7.430   4.272   9.424  1.0496  0.3937  1.6126
36234SOL    HW211082   7.313   4.215   9.502 -0.3162  3.0516  1.5881
36235SOL     OW11083   5.582   2.480   0.629  0.6341 -0.4711  0.2921
36235SOL    HW111084   5.667   2.515   0.605  0.6203  1.1824  2.4237
36235SOL    HW211085   5.519   2.534   0.581  0.7207 -1.4188 -0.9472
36236SOL     OW11086   8.230   4.919  10.449  0.4019  0.1448 -0.5846
36236SOL    HW111087   8.168   4.864  10.401  0.6967  0.1973 -1.0407
36236SOL    HW211088   8.180   4.997  10.472  0.5263  0.6007 -1.7579
36237SOL     OW11089   1.574   8.639   0.991  0.0689  0.2120 -0.0321
36237SOL    HW111090   1.659   8.600   0.971  0.3788  0.6163  0.4655
36237SOL    HW211091   1.579   8.660   1.084  0.1863  2.0419 -0.4081
36238SOL     OW11092   0.149   4.226   2.712  0.5279 -0.1454  0.5924
36238SOL    HW111093   0.207   4.224   2.788  0.9388 -0.9601  0.2706
36238SOL    HW211094   0.101   4.308   2.720  0.8838 -0.0162  1.4954
36239SOL     OW11095   0.612   9.490   8.653  0.3441 -1.1637  0.2957
36239SOL    HW111096   0.546   9.548   8.616  1.0170 -0.8049 -0.3704
36239SOL    HW211097   0.563   9.430   8.709 -0.6059 -1.2358 -0.5962
36240SOL     OW11098   5.087   0.379   6.676  0.2565  0.1000 -0.4766
36240SOL    HW111099   5.088   0.304   6.735  1.3598 -1.9735 -2.9080
36240SOL    HW211100   5.172   0.421   6.690  1.5369 -1.7855 -2.1181
36241SOL     OW11101   3.597   0.820   9.904  0.2244 -0.0190  0.3926
36241SOL    HW111102   3.656   0.831   9.978  0.2798  0.7578  0.2448
36241SOL    HW211103   3.511   0.803   9.943  0.3088  0.0989  0.6295
36242SOL     OW11104   8.127   7.780   9.236 -0.4922  0.4283  0.2227
36242SOL    HW111105   8.129   7.692   9.199 -2.4571 -0.5387  2.1558
36242SOL    HW211106   8.054   7.824   9.191  0.3225  0.9961 -0.5611
36243SOL     OW11107   2.362   2.910   6.577  0.3001  0.4237 -0.0409
36243SOL    HW111108   2.367   2.857   6.656  1.0654  0.7668  0.1467
36243SOL    HW211109   2.444   2.891   6.530  1.0249  2.1341  0.4752
36244SOL     OW11110  10.067   3.485   2.039 -0.3298 -0.5802 -0.7120
36244SOL    HW111111  10.160   3.468   2.021 -0.0579  0.5655 -0.4339
36244SOL    HW211112  10.054   3.452   2.128  0.1503  0.4246 -0.2486
36245SOL     OW11113   2.341   5.406   0.352  0.1195 -0.1216 -0.4965
36245SOL    HW111114   2.259   5.362   0.335  0.0899 -0.6010  0.7820
36245SOL    HW211115   2.353   5.399   0.447  1.8223 -0.4121 -0.6992
36246SOL     OW11116   1.313   6.233   8.371 -0.3342 -0.2665 -0.1934
36246SOL    HW111117   1.371   6.157   8.368  0.4726  0.3414 -0.5114
36246SOL    HW211118   1.347   6.291   8.303  1.0715  1.7667  2.0908
36247SOL     OW11119   2.161   4.455   5.787  0.3558 -0.1119 -0.0457
36247SOL    HW111120   2.186   4.392   5.719 -1.7604  0.1665 -1.1413
36247SOL    HW211121   2.098   4.512   5.744  0.1949  1.0858  1.7232
36248SOL     OW11122   8.569   3.639   2.813 -0.1164  0.2502 -0.1479
36248SOL    HW111123   8.601   3.662   2.900 -2.9619  0.2779  1.0155
36248SOL    HW211124   8.581   3.544   2.807  1.0689  0.3840 -0.2272
36249SOL     OW11125   6.696   6.553   6.171  0.2176  0.5574 -0.5705
36249SOL    HW111126   6.766   6.529   6.232 -0.7228  0.0617  0.3469
36249SOL    HW211127   6.726   6.519   6.087 -0.0547 -2.0248  0.2776
36250SOL     OW11128   4.389   5.476   2.832  0.3422 -0.2886  0.3299
36250SOL    HW111129   4.469   5.425   2.823  1.0817  0.9897 -0.5858
36250SOL    HW211130   4.369   5.472   2.926 -0.4126 -3.3543  0.1218
36251SOL     OW11131   1.964   8.828   7.711  0.7281 -0.3317  0.6137
36251SOL    HW111132   2.042   8.801   7.759  0.5492 -1.3750  0.3426
36251SOL    HW211133   1.904   8.755   7.720  0.3975 -0.2248 -0.5508
36252SOL     OW11134   1.750   1.788   3.676 -0.6747  0.2011  0.1319
36252SOL    HW111135   1.707   1.760   3.757  0.3320 -0.7460  0.3586
36252SOL    HW211136   1.798   1.711   3.646  1.2307  1.3351  0.1340
36253SOL     OW11137   9.284   3.083   1.402  0.0596  0.0275 -0.2977
36253SOL    HW111138   9.347   3.036   1.456 -0.1295 -0.5029 -0.5368
36253SOL    HW211139   9.203   3.083   1.453  0.8564  2.9952  1.2412
36254SOL     OW11140   1.987   2.061   1.434  0.3441  0.5981 -0.4293
36254SOL    HW111141   2.036   1.988   1.472 -0.2751  0.2720 -0.2372
36254SOL    HW211142   2.035   2.139   1.461  1.5212  0.2199 -1.3901
36255SOL     OW11143   6.898   2.583   0.388  0.6786  0.4987 -0.0184
36255SOL    HW111144   6.811   2.592   0.427  0.8258  0.9797  0.2136
36255SOL    HW211145   6.886   2.605   0.296  0.7477  1.6615  0.2361
36256SOL     OW11146   6.830   8.212   9.154 -0.2577  0.5532 -0.2148
36256SOL    HW111147   6.760   8.172   9.103  0.4303  0.5857 -1.1984
36256SOL    HW211148   6.802   8.200   9.245 -0.2782 -1.7830 -0.4696
36257SOL     OW11149   3.804   8.714   8.458  0.3570 -0.0805 -0.2965
36257SOL    HW111150   3.748   8.789   8.480  1.4756  1.6660 -2.8350
36257SOL    HW211151   3.748   8.658   8.403 -0.0575 -0.3886  0.4314
36258SOL     OW11152   6.063   3.214   1.145  0.1010 -0.0422 -0.2733
36258SOL    HW111153   6.133   3.266   1.184  0.7998 -1.0100 -0.1813
36258SOL    HW211154   6.102   3.128   1.132 -1.9463 -1.5420  2.5383
36259SOL     OW11155   1.714   5.296   3.483  0.3843  0.3929 -0.3556
36259SOL    HW111156   1.776   5.277   3.553 -0.6510 -0.1018  0.4530
36259SOL    HW211157   1.746   5.246   3.408  0.4163 -0.6546  0.3421
36260SOL     OW11158  10.056   0.197   3.779 -0.7674 -0.1052 -0.3710
36260SOL    HW111159  10.049   0.102   3.766 -1.4281 -0.0023 -0.8532
36260SOL    HW211160  10.146   0.211   3.808  0.1045 -0.6297 -2.6081
36261SOL     OW11161   7.421   6.036   0.305  0.3632 -0.7984 -0.1228
36261SOL    HW111162   7.439   5.957   0.356 -0.7272 -1.6895 -1.0700
36261SOL    HW211163   7.395   6.101   0.371  0.8523 -1.3415  0.6242
36262SOL     OW11164   9.537  10.408   8.975 -0.0213  0.0402  0.1799
36262SOL    HW111165   9.492  10.492   8.985 -1.1844 -0.4330 -0.8284
36262SOL    HW211166   9.624  10.423   9.013 -1.2904  0.6922  3.1379
36263SOL     OW11167   0.663   9.055   7.066 -0.5556  0.1854 -0.1551
36263SOL    HW111168   0.649   9.106   6.986  0.8937 -0.4812 -0.8724
36263SOL    HW211169   0.624   9.108   7.135 -0.2650  1.6360 -1.0622
36264SOL     OW11170   9.100   0.876  10.561  0.0968 -0.0817 -0.1714
36264SOL    HW111171   9.186   0.875  10.602 -0.8119 -0.7761  1.8389
36264SOL    HW211172   9.045   0.927  10.621 -1.6470 -2.3930  0.3385
36265SOL     OW11173   8.108  10.372   9.859 -0.3802 -0.0470 -0.0456
36265SOL    HW111174   8.093  10.286   9.898 -0.0846 -0.2495 -0.3735
36265SOL    HW211175   8.087  10.361   9.767  1.2370 -0.2158 -0.4261
36266SOL     OW11176   1.670   8.757   0.552  0.2217 -0.0036  0.0173
36266SOL    HW111177   1.713   8.736   0.469  0.2474 -1.5232  0.3850
36266SOL    HW211178   1.576   8.745   0.534 -0.0327  2.1710 -0.4586
36267SOL     OW11179   1.674   1.415   7.019  0.3779  0.1044  0.2809
36267SOL    HW111180   1.633   1.483   7.073 -3.6640 -0.0953 -2.1215
36267SOL    HW211181   1.727   1.464   6.956 -0.2126  0.8608  0.3513
36268SOL     OW11182   6.156   4.659   1.927 -0.0388 -0.3178 -0.4974
36268SOL    HW111183   6.234   4.668   1.871 -0.8389 -0.6146 -1.7071
36268SOL    HW211184   6.152   4.566   1.948  0.2552 -0.2078  0.0709
36269SOL     OW11185  10.357   4.763   9.077  0.7087  0.3228 -0.0757
36269SOL    HW111186  10.316   4.850   9.075  2.2300  1.0757 -0.0388
36269SOL    HW211187  10.362   4.736   8.985  0.1220  0.2226 -0.0778
36270SOL     OW11188   3.323   0.501  10.404 -0.0381  0.3882 -0.3041
36270SOL    HW111189   3.355   0.434  10.464  0.2797  1.1294  0.3755
36270SOL    HW211190   3.354   0.473  10.318 -1.4480 -1.2839 -0.3389
36271SOL     OW11191   2.930   1.944   0.874 -0.0502  0.8251  0.3685
36271SOL    HW111192   2.882   1.951   0.791  1.5547  1.3238 -0.5646
36271SOL    HW211193   3.021   1.961   0.850  0.8805 -1.7050  1.7611
36272SOL     OW11194   8.318   7.285   3.491  0.0471  0.3120  0.4893
36272SOL    HW111195   8.350   7.352   3.551  2.0753 -1.2046  1.2308
36272SOL    HW211196   8.367   7.300   3.410 -0.4410  0.5075  0.2300
36273SOL     OW11197  10.206   7.583   0.966 -0.1382  0.1106 -0.0672
36273SOL    HW111198  10.227   7.663   1.014 -1.2172  0.7649 -0.6462
36273SOL    HW211199  10.145   7.535   1.024 -0.9355  0.5956 -0.4868
36274SOL     OW11200  10.047   1.292   3.837 -0.0229 -0.1274  0.0311
36274SOL    HW111201  10.043   1.291   3.741 -1.6941  0.6848  0.0492
36274SOL    HW211202  10.123   1.239   3.858  0.0293 -0.8445 -1.7377
36275SOL     OW11203   7.594   4.998   0.570 -0.4867  0.1209  0.6198
36275SOL    HW111204   7.565   4.944   0.643 -0.0545  0.3877  0.9977
36275SOL    HW211205   7.514   5.031   0.531 -0.7863 -1.3398 -0.0443
36276SOL     OW11206   0.475   4.802  10.334  0.0623 -0.2695  0.5818
36276SOL    HW111207   0.490   4.847  10.417  0.7225 -1.3548  1.0732
36276SOL    HW211208   0.520   4.855  10.269  0.9550 -0.2851  1.1726
36277SOL     OW11209   3.142   2.368   1.777 -0.4004 -0.0855 -0.7312
36277SOL    HW111210   3.058   2.322   1.772 -0.0914 -0.7270 -0.1906
36277SOL    HW211211   3.133   2.429   1.849 -0.4298 -0.0956 -0.7265
36278SOL     OW11212   6.583   6.113   9.292  0.3704  0.1218 -0.1395
36278SOL    HW111213   6.566   6.154   9.207  0.5431 -2.6779 -1.6718
36278SOL    HW211214   6.610   6.023   9.270  1.3971 -0.4264  2.8624
36279SOL     OW11215   3.356   3.711   6.707 -0.7876  0.3853  0.0040
36279SOL    HW111216   3.377   3.793   6.752 -0.6997 -1.2356  3.1999
36279SOL    HW211217   3.261   3.715   6.695 -0.8188  0.8564  0.3396
36280SOL     OW11218   5.173   7.551   4.127 -0.1137  0.0651  0.4311
36280SOL    HW111219   5.110   7.623   4.124 -0.4776 -0.1068  2.3028
36280SOL    HW211220   5.207   7.554   4.217  0.9266 -1.2067  0.0997
36281SOL     OW11221   9.067   0.972   8.957  0.0150 -0.3439  0.2119
36281SOL    HW111222   9.120   1.049   8.937  2.0112 -1.2629  1.6299
36281SOL    HW211223   8.977   1.005   8.961  0.8060  1.9190  0.8135
36282SOL     OW11224   2.058   8.639   4.746 -0.2900 -0.4047  0.0283
36282SOL    HW111225   2.030   8.563   4.796  1.7574 -0.4645  1.1944
36282SOL    HW211226   2.069   8.606   4.656 -0.6764 -1.1536  0.2481
36283SOL     OW11227   2.475   7.427  10.165 -0.3915 -0.3448 -0.0040
36283SOL    HW111228   2.443   7.478  10.091  0.1842 -0.2561 -0.2036
36283SOL    HW211229   2.399   7.416  10.222 -0.9757 -0.8779 -0.8651
36284SOL     OW11230   3.378   0.091   0.600  0.0561  0.2773 -0.1560
36284SOL    HW111231   3.451   0.097   0.538 -0.3792 -0.0375 -0.7050
36284SOL    HW211232   3.391   0.007   0.644  0.7305  0.7892  0.6592
36285SOL     OW11233   6.818   1.562   7.026 -0.0166 -0.2947  0.6559
36285SOL    HW111234   6.856   1.650   7.028 -1.6009  0.4737 -0.8874
36285SOL    HW211235   6.766   1.557   7.106 -0.5533  0.4928  0.3677
36286SOL     OW11236   0.225   8.060   2.670  0.4212 -0.0196  0.1226
36286SOL    HW111237   0.288   8.103   2.612 -0.7741  1.0846 -0.4332
36286SOL    HW211238   0.172   8.131   2.705 -0.5670 -0.9092  0.5021
36287SOL     OW11239   4.104   6.480   5.852 -0.4466 -0.3111  0.5130
36287SOL    HW111240   4.111   6.397   5.898  1.7953 -1.7410 -2.0924
36287SOL    HW211241   4.194   6.508   5.838 -1.0692  1.1595 -0.9917
36288SOL     OW11242   6.814   4.693   1.471  0.3500  0.1196  0.4916
36288SOL    HW111243   6.800   4.711   1.564 -0.7749 -0.0455  0.3694
36288SOL    HW211244   6.727   4.701   1.432  0.6795 -0.5827 -0.4138
36289SOL     OW11245   7.467  10.782   0.431  0.0382 -0.3778  1.1288
36289SOL    HW111246   7.452  10.689   0.443 -0.5611 -0.3888  0.4043
36289SOL    HW211247   7.562  10.793   0.441 -0.0510 -0.8270  2.6200
36290SOL     OW11248   8.791   0.475  10.613  0.7892 -0.2763  0.2791
36290SOL    HW111249   8.844   0.445  10.539  0.4778 -1.2644  0.4463
36290SOL    HW211250   8.836   0.553  10.644  0.3094  0.8317 -1.6567
36291SOL     OW11251   8.876   5.548   7.169 -0.1775  0.3435  0.8169
36291SOL    HW111252   8.881   5.603   7.091 -1.6407 -3.6101 -2.3857
36291SOL    HW211253   8.967   5.543   7.201  0.3411  2.5830 -0.1437
36292SOL     OW11254   4.682   8.474   5.460 -0.2187 -0.2519  0.2673
36292SOL    HW111255   4.666   8.411   5.530  1.4075 -0.0605  0.8670
36292SOL    HW211256   4.712   8.553   5.506 -0.2057  0.2532 -0.5891
36293SOL     OW11257   3.139   2.947   4.631  0.4667  0.3244  0.3835
36293SOL    HW111258   3.113   2.946   4.723  0.6906 -1.2106  0.4499
36293SOL    HW211259   3.156   2.855   4.609 -0.0830  0.5895 -1.3327
36294SOL     OW11260   8.143   8.769   4.294  0.8660 -0.2142  0.4000
36294SOL    HW111261   8.209   8.766   4.224  0.8756 -1.2098  0.4348
36294SOL    HW211262   8.066   8.808   4.253  0.8623 -0.8218 -0.1866
36295SOL     OW11263   2.180   2.657  10.558 -0.4101 -0.3606 -0.5751
36295SOL    HW111264   2.201   2.566  10.580 -0.1949  0.1516  1.5838
36295SOL    HW211265   2.162   2.655  10.464  0.8705 -2.3861 -0.8595
36296SOL     OW11266   6.729   2.282   2.685 -0.3313  0.1339 -0.7091
36296SOL    HW111267   6.698   2.194   2.666 -0.4093  0.1436 -0.6253
36296SOL    HW211268   6.667   2.317   2.749  0.7915 -0.4805  0.7888
36297SOL     OW11269   6.389   9.339   8.904  0.0620 -0.2060  0.3568
36297SOL    HW111270   6.418   9.390   8.979  1.0895 -1.0259  0.5426
36297SOL    HW211271   6.323   9.279   8.940  0.8667 -0.8979  0.7152
36298SOL     OW11272   0.009   6.221   6.458  0.6750  0.2334 -0.5904
36298SOL    HW111273   0.068   6.180   6.395 -0.0923  1.5777 -2.2528
36298SOL    HW211274  -0.076   6.182   6.441  0.8685 -1.2148  1.3583
36299SOL     OW11275   9.928   2.019   3.928 -0.1576  0.2613  0.1995
36299SOL    HW111276   9.972   1.973   3.856  0.8275  1.8189 -0.2330
36299SOL    HW211277   9.852   1.964   3.948  0.5755 -1.1726 -0.7663
36300SOL     OW11278   2.606   8.303   9.256 -0.1695  0.2299  0.0681
36300SOL    HW111279   2.595   8.396   9.273 -2.8320  0.0834 -0.3465
36300SOL    HW211280   2.579   8.291   9.165 -2.6198 -1.2407  0.8823
36301SOL     OW11281   1.360   3.385   6.638 -0.4297 -0.4304  0.7373
36301SOL    HW111282   1.453   3.375   6.618 -0.4982  1.5758 -0.9297
36301SOL    HW211283   1.346   3.480   6.640 -2.6031 -0.6844  0.0248
36302SOL     OW11284   6.586   8.511   3.839  0.0766  0.3353 -0.0634
36302SOL    HW111285   6.550   8.480   3.756 -1.9093  0.0636  0.8216
36302SOL    HW211286   6.517   8.569   3.874  1.5307  1.6838  0.6828
36303SOL     OW11287   0.931   4.546   0.702  0.2556  0.7694 -0.2579
36303SOL    HW111288   0.885   4.558   0.618  0.2672  0.2387 -0.3430
36303SOL    HW211289   0.950   4.453   0.705  0.8994  0.9062  0.0046
36304SOL     OW11290   3.170   9.255   9.436  0.0534  0.0305 -0.4386
36304SOL    HW111291   3.122   9.292   9.509 -0.0799 -1.7932  0.4576
36304SOL    HW211292   3.192   9.330   9.381  1.1076  1.6157  1.9913
36305SOL     OW11293   6.894   0.520   4.885 -0.4539 -0.5062 -0.3003
36305SOL    HW111294   6.960   0.526   4.954  0.4034 -1.6509 -0.9606
36305SOL    HW211295   6.820   0.571   4.917  0.3720 -0.0153  0.9169
36306SOL     OW11296   2.819   3.000   9.025 -0.3041  0.1638 -0.8694
36306SOL    HW111297   2.897   2.957   8.989 -0.1784  0.2275 -0.6719
36306SOL    HW211298   2.829   3.092   9.000 -0.2646  0.1906 -0.7520
36307SOL     OW11299   3.988  10.012   9.930  0.6398 -0.0115 -0.0707
36307SOL    HW111300   3.934  10.015   9.851  0.1312 -0.4843  0.2532
36307SOL    HW211301   4.055   9.947   9.911  0.7059  0.1042 -0.2316
36308SOL     OW11302   0.167   3.914   3.828  0.4869  0.2380  0.0051
36308SOL    HW111303   0.106   3.987   3.845  0.1064 -0.1236  0.2037
36308SOL    HW211304   0.254   3.952   3.840  0.3055  0.7781 -0.3351
36309SOL     OW11305   1.233  10.009   4.387 -0.3149 -0.5476 -0.1670
36309SOL    HW111306   1.222  10.020   4.482  0.7503 -1.0480  0.0307
36309SOL    HW211307   1.275   9.924   4.378 -0.3107 -0.4560 -1.0888
36310SOL     OW11308  10.435   7.197   2.150 -0.2681 -0.2280 -0.3980
36310SOL    HW111309  10.412   7.280   2.191  0.6268  0.5464 -1.4131
36310SOL    HW211310  10.407   7.130   2.213 -2.0420  0.7806 -0.0695
36311SOL     OW11311   7.145   0.617   5.050  0.4848  0.1847 -0.1904
36311SOL    HW111312   7.101   0.604   5.134  0.0485  0.1841 -0.4128
36311SOL    HW211313   7.156   0.712   5.043 -0.5108  0.2807 -0.6368
36312SOL     OW11314   3.463   2.888   9.067  0.2731  0.2364 -0.1055
36312SOL    HW111315   3.370   2.898   9.085  0.3292  2.9256 -0.8042
36312SOL    HW211316   3.468   2.820   9.001 -0.9381 -1.5203  1.5124
36313SOL     OW11317   0.897   4.198   8.552  0.2062  0.1897 -1.0275
36313SOL    HW111318   0.912   4.118   8.502  1.1892  0.0416 -0.5224
36313SOL    HW211319   0.980   4.246   8.546  0.3661  0.1438  0.4943
36314SOL     OW11320   5.429   2.045   6.649 -0.7219  0.3702 -0.2206
36314SOL    HW111321   5.497   2.049   6.716 -0.8510 -1.4560  0.0870
36314SOL    HW211322   5.347   2.048   6.697 -0.8932  2.3518 -0.5773
36315SOL     OW11323   2.895   4.938   9.574 -0.2331  0.1831 -0.2871
36315SOL    HW111324   2.882   4.844   9.583 -0.1721  0.1518 -0.5098
36315SOL    HW211325   2.819   4.977   9.618 -1.9948 -0.0037 -2.9166
36316SOL     OW11326   6.037   3.392   6.407  0.1940  0.2571  0.3225
36316SOL    HW111327   6.025   3.354   6.494  0.3874 -1.7986 -0.4750
36316SOL    HW211328   6.084   3.324   6.358  0.0186  1.3283 -1.4096
36317SOL     OW11329   8.596   9.770   0.735 -0.6527  0.2814  0.5899
36317SOL    HW111330   8.504   9.782   0.711 -0.2080  0.4107 -1.1688
36317SOL    HW211331   8.619   9.685   0.699 -0.3138 -0.1619  1.8259
36318SOL     OW11332   8.459   1.443   4.690  0.0232  0.3124  0.1571
36318SOL    HW111333   8.457   1.475   4.600  0.3983  0.0040  0.0349
36318SOL    HW211334   8.543   1.474   4.724 -0.6589  1.5127  0.8125
36319SOL     OW11335   1.821   9.517   0.068  0.0750  0.0466 -0.1602
36319SOL    HW111336   1.799   9.520   0.161 -0.2560 -1.2061 -0.1736
36319SOL    HW211337   1.866   9.433   0.056 -0.8472 -0.3238 -1.3082
36320SOL     OW11338   9.575   8.851   2.569 -0.0610 -0.1145  0.5449
36320SOL    HW111339   9.551   8.784   2.506  0.8859 -0.7853  0.8849
36320SOL    HW211340   9.545   8.933   2.529 -0.3284 -0.6267 -0.3267
36321SOL     OW11341   6.913   0.486   6.113  0.6200 -0.1187  0.2952
36321SOL    HW111342   7.004   0.507   6.093  0.2145 -1.4214 -3.9321
36321SOL    HW211343   6.916   0.395   6.143  0.7261  0.0513  0.8176
36322SOL     OW11344   2.383   0.296   0.141  0.0424  0.1470 -0.3811
36322SOL    HW111345   2.364   0.384   0.173  1.1732  0.1552  0.3434
36322SOL    HW211346   2.412   0.248   0.219 -0.7890 -0.9413 -0.7191
36323SOL     OW11347   2.949   9.658   2.673  0.3161  0.3385 -0.2495
36323SOL    HW111348   2.996   9.575   2.661  1.3406  0.6103  1.5174
36323SOL    HW211349   3.008   9.724   2.637  1.5229  0.6997  2.1270
36324SOL     OW11350   0.606   6.299   3.709 -0.3504  0.0557  0.4815
36324SOL    HW111351   0.555   6.358   3.765  0.6448 -1.4153  3.0932
36324SOL    HW211352   0.690   6.290   3.753  0.1564 -1.9471 -0.7530
36325SOL     OW11353   2.519   9.637  10.081 -0.1923  0.0473  0.3585
36325SOL    HW111354   2.604   9.594  10.093 -0.4227  0.1393  2.9884
36325SOL    HW211355   2.528   9.721  10.128 -1.0110  1.1469 -1.3418
36326SOL     OW11356   9.109   9.571   4.367 -0.3610  0.5133 -0.2857
36326SOL    HW111357   9.187   9.626   4.365  0.1917 -0.0798  1.8213
36326SOL    HW211358   9.083   9.562   4.275  3.3283 -1.0648 -1.3402
36327SOL     OW11359   4.318   0.608   3.360 -0.4400  0.1695 -0.3619
36327SOL    HW111360   4.311   0.634   3.452  1.8124  1.2048 -0.4100
36327SOL    HW211361   4.294   0.687   3.311  0.7972  0.4152 -0.5998
36328SOL     OW11362   0.845   0.276   7.207 -0.0406 -0.2563  0.3571
36328SOL    HW111363   0.884   0.208   7.262  1.2915  0.3429  0.2064
36328SOL    HW211364   0.753   0.277   7.232  0.0478 -1.6305  0.8501
36329SOL     OW11365   1.143   6.313   4.012  0.7093 -0.0632  0.3299
36329SOL    HW111366   1.112   6.333   3.923  0.9543  1.5355  0.5719
36329SOL    HW211367   1.192   6.392   4.038 -1.4166  0.5429  2.8105
36330SOL     OW11368   9.780   0.354   5.800 -0.1142  0.3951 -0.4180
36330SOL    HW111369   9.744   0.329   5.716 -1.3023  1.8053 -0.3583
36330SOL    HW211370   9.781   0.450   5.799  2.5913  0.4611  0.0397
36331SOL     OW11371   5.245   5.924   0.344  0.4883  0.1496  0.5955
36331SOL    HW111372   5.226   5.980   0.419  1.3067  0.5068  0.5394
36331SOL    HW211373   5.190   5.957   0.274 -0.6379 -0.4776  1.1533
36332SOL     OW11374   1.878   7.523  10.783 -0.0593 -0.3344 -0.6296
36332SOL    HW111375   1.837   7.535  10.697  1.1415 -1.8747 -1.4705
36332SOL    HW211376   1.804   7.515  10.844 -0.9356  2.3778 -1.2085
36333SOL     OW11377   8.229   4.734   1.280  0.5040 -0.2264 -0.5224
36333SOL    HW111378   8.167   4.664   1.300 -0.4626  0.8368  0.3190
36333SOL    HW211379   8.175   4.814   1.276  1.7783  0.6960  0.0022
36334SOL     OW11380   6.456   1.479   1.527 -0.3856 -0.2138  0.3086
36334SOL    HW111381   6.393   1.435   1.470  0.8457 -0.4987 -0.9019
36334SOL    HW211382   6.405   1.542   1.577 -1.8378 -1.4246  0.4071
36335SOL     OW11383   8.760   0.043   5.242 -0.1303 -0.4672  0.7227
36335SOL    HW111384   8.761   0.136   5.265  0.2831  0.4556 -2.5138
36335SOL    HW211385   8.667   0.018   5.245 -0.5121  0.7075 -0.5209
36336SOL     OW11386   8.164   8.590   8.436  0.2584 -0.2508  0.0350
36336SOL    HW111387   8.185   8.623   8.523 -0.6227 -0.6311  0.3917
36336SOL    HW211388   8.210   8.651   8.377  0.9429 -0.0501  0.7475
36337SOL     OW11389   4.950   1.778   8.017  0.1182  0.3218 -0.0416
36337SOL    HW111390   4.928   1.871   8.020  1.1613  0.6055 -0.5433
36337SOL    HW211391   5.034   1.773   8.062  0.3522 -0.2824 -0.5432
36338SOL     OW11392   6.230   2.355   6.330  0.0884  0.2164 -0.2710
36338SOL    HW111393   6.296   2.287   6.321 -0.3590 -0.3039  0.3205
36338SOL    HW211394   6.146   2.309   6.325 -0.2319  0.4442  1.7858
36339SOL     OW11395   5.161   8.584   4.401 -0.2629  0.1944  0.6031
36339SOL    HW111396   5.201   8.540   4.326  1.9468  0.9589  1.2356
36339SOL    HW211397   5.067   8.579   4.385 -0.0679 -3.2856 -0.1316
36340SOL     OW11398   1.039   5.748   2.987  0.4221  0.4064 -0.1278
36340SOL    HW111399   0.992   5.828   2.963  0.7527  0.6542  0.0351
36340SOL    HW211400   1.127   5.761   2.953  0.2231 -0.3128 -0.9474
36341SOL     OW11401   8.554   9.959   6.063  0.2573 -0.0331  0.2225
36341SOL    HW111402   8.577  10.051   6.048 -0.7535  0.1208 -0.4488
36341SOL    HW211403   8.544   9.951   6.158 -1.2479  0.9509  0.1688
36342SOL     OW11404   6.762   7.778   2.262 -0.2779 -0.4602 -0.8693
36342SOL    HW111405   6.788   7.833   2.188 -0.9779  0.5294 -0.4034
36342SOL    HW211406   6.670   7.800   2.276 -0.0465 -0.3076  0.5568
36343SOL     OW11407   3.663   1.843  10.476 -0.5790  0.2644  0.1542
36343SOL    HW111408   3.673   1.751  10.450 -0.0259 -0.7863  3.4979
36343SOL    HW211409   3.700   1.893  10.403 -1.1978 -2.1106 -1.9311
36344SOL     OW11410   4.210   3.136   7.615  0.1278 -0.0770 -0.1477
36344SOL    HW111411   4.253   3.156   7.698 -0.0302  0.6815 -0.2403
36344SOL    HW211412   4.239   3.205   7.556 -0.6511  0.0376 -0.4069
36345SOL     OW11413   5.475   8.253   1.036 -0.1363 -0.2399  0.4200
36345SOL    HW111414   5.502   8.289   1.120 -1.3550  2.1794 -0.1374
36345SOL    HW211415   5.520   8.168   1.030  2.6435  0.9891  2.0050
36346SOL     OW11416   8.948   2.219   2.150  0.2759  0.3675 -0.1623
36346SOL    HW111417   9.008   2.238   2.078 -0.6310  0.4096 -0.9341
36346SOL    HW211418   8.933   2.124   2.145 -0.3980  0.4847 -0.5431
36347SOL     OW11419   7.025   4.834   0.596 -0.1884  0.3666  0.5089
36347SOL    HW111420   7.038   4.926   0.573 -1.6857  0.3527 -0.5226
36347SOL    HW211421   6.980   4.838   0.681 -0.1760  0.5813  0.5075
36348SOL     OW11422   4.012   9.950   2.676 -0.2193 -0.4286  0.5993
36348SOL    HW111423   4.066   9.910   2.745  1.4800 -1.3643 -1.1764
36348SOL    HW211424   3.958   9.878   2.644  0.2859 -0.4569 -0.2179
36349SOL     OW11425   8.370   4.758   1.514 -0.1629  0.5668 -0.3212
36349SOL    HW111426   8.301   4.795   1.569 -2.7871 -0.0334 -2.9439
36349SOL    HW211427   8.333   4.759   1.426  3.6892  1.2675 -2.1287
36350SOL     OW11428   4.601   6.042   4.878 -0.3295 -0.0605  0.0027
36350SOL    HW111429   4.577   6.051   4.971 -0.5251 -1.0129  0.0571
36350SOL    HW211430   4.517   6.039   4.832 -0.2180  1.5796 -0.3403
36351SOL     OW11431   5.595  10.714   2.415 -0.5222  0.2893 -0.2772
36351SOL    HW111432   5.510  10.722   2.458  0.8186 -2.3061  3.3037
36351SOL    HW211433   5.597  10.623   2.384  1.3865 -0.1402  0.9536
36352SOL     OW11434   5.534   8.160   4.689  0.3575 -0.2087 -0.4411
36352SOL    HW111435   5.604   8.135   4.629  0.5402 -0.3959 -0.1501
36352SOL    HW211436   5.573   8.155   4.776 -0.3169 -1.4096 -0.1803
36353SOL     OW11437   8.012   1.867   1.600  0.2704 -0.1446 -0.3806
36353SOL    HW111438   8.018   1.823   1.685  1.3662  1.4563  0.4077
36353SOL    HW211439   7.957   1.943   1.616  1.1750  0.6371 -0.8726
36354SOL     OW11440   9.729   2.227   1.386  0.8328  0.3471 -0.3879
36354SOL    HW111441   9.652   2.202   1.437  1.0236  0.4672 -0.0297
36354SOL    HW211442   9.760   2.307   1.428  1.3537  0.1084 -0.3051
36355SOL     OW11443   0.232   9.875   3.658 -0.0654  0.0478  0.3258
36355SOL    HW111444   0.244   9.817   3.734 -0.6031 -0.2557  0.1800
36355SOL    HW211445   0.254   9.962   3.691  1.3599 -0.3136  0.3934
36356SOL     OW11446   6.416   6.128   4.352 -0.2217 -0.6109 -0.0751
36356SOL    HW111447   6.372   6.202   4.311  1.1647  1.1946  1.5238
36356SOL    HW211448   6.363   6.108   4.430 -0.4468 -1.1331 -0.3591
36357SOL     OW11449   2.038  10.436   5.722  0.2581  0.3378 -0.0131
36357SOL    HW111450   2.090  10.496   5.777 -0.5788 -0.0468  1.2576
36357SOL    HW211451   2.103  10.383   5.677  0.9894  0.4043  0.9259
36358SOL     OW11452   7.546   8.849   7.041 -0.1302  0.2802  0.0022
36358SOL    HW111453   7.630   8.891   7.028 -0.2483  0.3606 -0.5277
36358SOL    HW211454   7.491   8.916   7.082 -0.1982  0.5117 -0.4657
36359SOL     OW11455   5.460   6.689   6.169 -0.0077  0.1842 -0.0850
36359SOL    HW111456   5.429   6.745   6.098  0.8578 -0.5533 -1.0751
36359SOL    HW211457   5.398   6.615   6.171 -0.4881  0.5929  0.4659
36360SOL     OW11458   0.490   1.716   5.116  0.1506 -0.5465 -0.1119
36360SOL    HW111459   0.558   1.772   5.078  0.2705  1.6732  3.0487
36360SOL    HW211460   0.415   1.725   5.057  0.8023  1.4623 -0.7046
36361SOL     OW11461  10.379   0.737   8.913 -0.3863 -0.2634 -0.2056
36361SOL    HW111462  10.422   0.806   8.963 -1.3463  1.9171 -2.2125
36361SOL    HW211463  10.285   0.757   8.919 -0.6999 -1.3909 -0.8851
36362SOL     OW11464   4.601   8.101   9.420 -0.0659  0.6644 -0.5412
36362SOL    HW111465   4.640   8.017   9.445 -2.2617 -0.3949 -0.3844
36362SOL    HW211466   4.632   8.163   9.485  1.5208 -0.0319 -0.5964
36363SOL     OW11467   0.594   7.642   7.370 -0.4708  0.3559  0.4294
36363SOL    HW111468   0.587   7.632   7.275 -2.4825 -0.4274  0.6182
36363SOL    HW211469   0.526   7.585   7.405 -0.1125  1.0419  2.3296
36364SOL     OW11470   2.858   3.618   9.357  0.2064 -0.1222  0.0043
36364SOL    HW111471   2.866   3.710   9.381  2.1311 -0.6779  1.8256
36364SOL    HW211472   2.809   3.578   9.428  0.0416 -0.6442 -0.3934
36365SOL     OW11473   3.836   3.453   8.345 -0.4977  0.5126  0.2794
36365SOL    HW111474   3.861   3.409   8.264  0.0129 -0.9524  1.1827
36365SOL    HW211475   3.883   3.405   8.414  0.1997  2.5989  1.3309
36366SOL     OW11476   3.804   8.464   3.163 -0.0563  0.1803 -0.9172
36366SOL    HW111477   3.833   8.452   3.073 -0.0028  0.3684 -0.9262
36366SOL    HW211478   3.797   8.376   3.198  0.0763  0.1136 -1.0569
36367SOL     OW11479   4.689   7.543   2.103 -0.5875  0.5781 -0.2399
36367SOL    HW111480   4.741   7.624   2.099 -0.8317  0.7841  0.5721
36367SOL    HW211481   4.606   7.570   2.143 -0.5642 -0.1226  0.2939
36368SOL     OW11482   9.818   3.709  10.026 -0.0565  0.0826 -0.2426
36368SOL    HW111483   9.822   3.718  10.121  0.8669  0.2570 -0.2891
36368SOL    HW211484   9.736   3.662  10.010 -0.7024  0.8870  0.5700
36369SOL     OW11485   6.397   0.809   8.209 -0.0591  0.1079 -0.2319
36369SOL    HW111486   6.458   0.877   8.237  2.0985 -2.2721  1.3100
36369SOL    HW211487   6.313   0.836   8.244 -0.0403  3.4217 -2.2793
36370SOL     OW11488   1.190   2.466  10.718  0.1176 -0.4041  0.0503
36370SOL    HW111489   1.111   2.427  10.756  0.3863  0.1463  1.2490
36370SOL    HW211490   1.225   2.400  10.659 -0.6334 -1.0827  0.3545
36371SOL     OW11491   9.616   8.704   6.181 -0.0669 -0.1279  0.0987
36371SOL    HW111492   9.682   8.646   6.220 -0.0415  0.9273  1.6742
36371SOL    HW211493   9.537   8.650   6.176  0.2820 -0.6772  0.4097
36372SOL     OW11494   8.897   4.329   3.652  0.3004  0.0765  0.8452
36372SOL    HW111495   8.831   4.302   3.589 -0.3494  0.3774  1.3815
36372SOL    HW211496   8.962   4.258   3.651  0.1310 -0.0749  0.0937
36373SOL     OW11497   8.170   5.077   0.510 -0.5326 -0.1885  0.7119
36373SOL    HW111498   8.167   5.038   0.423 -1.1804  2.1264 -0.3916
36373SOL    HW211499   8.094   5.041   0.556 -0.1383 -1.4925  0.3843
36374SOL     OW11500   3.442   3.960   0.525  0.0898 -0.2920 -0.1771
36374SOL    HW111501   3.411   3.908   0.451 -1.8159 -0.0124  0.3674
36374SOL    HW211502   3.371   3.954   0.589  1.9615 -1.1182  1.9578
36375SOL     OW11503   6.502   9.677   3.427 -0.3341 -0.6478  0.2118
36375SOL    HW111504   6.494   9.588   3.392 -1.0388  0.1191 -1.7197
36375SOL    HW211505   6.591   9.703   3.406 -0.8615 -0.0584 -1.4987
36376SOL     OW11506   2.331   1.575   1.856  0.3801  0.4443 -0.0643
36376SOL    HW111507   2.396   1.514   1.822 -0.0368 -0.2711  0.3749
36376SOL    HW211508   2.311   1.541   1.944 -2.1836 -0.6843 -0.9656
36377SOL     OW11509   8.036   2.264   0.242  0.1915  0.5259 -0.0280
36377SOL    HW111510   7.940   2.256   0.235  0.2700 -0.1276 -0.4864
36377SOL    HW211511   8.068   2.175   0.228  0.8752  0.7452  0.1034
36378SOL     OW11512   1.503   7.710   8.636  0.2234  0.2591 -0.1597
36378SOL    HW111513   1.578   7.651   8.629  0.3293  0.0144  2.2368
36378SOL    HW211514   1.541   7.795   8.658 -0.1291  0.4257 -0.1854
36379SOL     OW11515   0.008   9.678   8.485 -0.1619  0.4644 -0.1596
36379SOL    HW111516  -0.034   9.619   8.548 -1.4626  0.0880 -1.3013
36379SOL    HW211517  -0.048   9.755   8.484 -0.4419  0.2690 -1.1616
36380SOL     OW11518   5.481   5.416   8.926  0.0835 -0.1900 -0.2673
36380SOL    HW111519   5.393   5.386   8.946  0.0051 -0.3492 -0.8490
36380SOL    HW211520   5.484   5.506   8.959 -0.1917 -0.2860  0.0270
36381SOL     OW11521   3.093   2.244   7.802  0.0551 -0.6920  0.0716
36381SOL    HW111522   3.125   2.163   7.762 -0.6595 -1.0509  0.2040
36381SOL    HW211523   3.077   2.221   7.893 -0.2167 -0.4259  0.0931
36382SOL     OW11524  10.606   7.939  10.224  0.0089 -0.1558  0.5081
36382SOL    HW111525  10.694   7.913  10.196 -0.0100 -1.5994  1.6564
36382SOL    HW211526  10.565   7.974  10.145  0.8485 -1.6126 -0.6274
36383SOL     OW11527   4.237   0.587   9.908 -0.2067 -0.4998 -0.2325
36383SOL    HW111528   4.158   0.575   9.961 -1.1492  1.2873 -1.1493
36383SOL    HW211529   4.290   0.649   9.958  1.0283 -2.2409  0.7378
36384SOL     OW11530   4.500   2.310   8.515 -0.3858  0.0239 -0.4701
36384SOL    HW111531   4.550   2.228   8.510 -0.8222 -0.2812  0.0316
36384SOL    HW211532   4.413   2.287   8.482 -0.4958  0.2970 -0.3704
36385SOL     OW11533   1.398   4.910   8.784 -0.0550 -0.2398 -0.3506
36385SOL    HW111534   1.359   4.953   8.709  1.4739 -0.7794 -1.5196
36385SOL    HW211535   1.475   4.963   8.805  0.1918 -0.7508  0.0689
36386SOL     OW11536   5.851   1.392  10.413  0.0682 -0.1002  0.3795
36386SOL    HW111537   5.926   1.421  10.361  0.1387  0.2504  0.6761
36386SOL    HW211538   5.881   1.395  10.503  0.6746 -2.7868  0.3661
36387SOL     OW11539   9.775   3.643   5.341 -0.3208  0.5774  0.2800
36387SOL    HW111540   9.737   3.718   5.385 -0.2823  0.8444 -0.1343
36387SOL    HW211541   9.701   3.600   5.298 -0.6211 -0.6084  1.9105
36388SOL     OW11542   2.568   0.710   5.301 -0.1714 -0.2768 -0.1931
36388SOL    HW111543   2.589   0.728   5.209 -0.5886 -0.6312 -0.3622
36388SOL    HW211544   2.640   0.749   5.350  0.5596 -0.9433 -0.7260
36389SOL     OW11545   2.033   0.657   2.561 -0.0259  0.0448 -0.1776
36389SOL    HW111546   1.981   0.578   2.545 -0.3778 -0.1805  1.7271
36389SOL    HW211547   2.109   0.649   2.504  0.2454 -1.9915  0.4116
36390SOL     OW11548  10.685   0.175   7.356 -0.3527  0.1108 -0.2384
36390SOL    HW111549  10.757   0.233   7.383  1.2121 -1.9492  0.2091
36390SOL    HW211550  10.681   0.184   7.261  2.5904 -1.9348 -0.6731
36391SOL     OW11551   8.591   6.833   3.081  0.1039 -0.0161  0.3828
36391SOL    HW111552   8.587   6.738   3.077  1.3785 -0.0523 -0.3782
36391SOL    HW211553   8.660   6.852   3.145  0.3679  0.3854 -0.0159
36392SOL     OW11554   9.995   1.731   0.251 -0.3488  0.5898  0.6000
36392SOL    HW111555  10.049   1.705   0.177  0.9739  0.7231  1.4867
36392SOL    HW211556   9.961   1.649   0.287  1.2281  0.2834  1.4684
36393SOL     OW11557   2.762   3.790  10.658  0.1029  0.4022 -0.1278
36393SOL    HW111558   2.668   3.776  10.667 -0.0584  0.7753 -1.1214
36393SOL    HW211559   2.800   3.745  10.733 -0.7646 -0.8391 -0.4047
36394SOL     OW11560   6.761   3.014   7.469 -0.0774  0.4963  0.2261
36394SOL    HW111561   6.694   2.984   7.407 -0.7253 -2.3486  2.1182
36394SOL    HW211562   6.841   2.969   7.442 -0.1914 -0.1842  0.9949
36395SOL     OW11563   8.160   0.488   9.455 -0.7967 -0.0588  0.2818
36395SOL    HW111564   8.112   0.569   9.436  1.8841  1.3217 -1.2408
36395SOL    HW211565   8.151   0.436   9.375 -0.0536  0.0710  0.1112
36396SOL     OW11566   6.576   5.313   7.334  0.0968 -0.3119 -0.7559
36396SOL    HW111567   6.664   5.274   7.331 -0.1080 -1.2769  2.1900
36396SOL    HW211568   6.518   5.239   7.348 -0.6053  0.6763  2.2736
36397SOL     OW11569   6.559   3.896   5.819 -0.2878 -0.1630 -0.1477
36397SOL    HW111570   6.561   3.907   5.724 -1.2251  0.6073 -0.0844
36397SOL    HW211571   6.638   3.844   5.838  1.2899  1.7639 -1.0727
36398SOL     OW11572   3.346   4.946   2.172 -0.3063 -0.1999 -0.1649
36398SOL    HW111573   3.305   4.860   2.162  0.2471 -0.4599 -0.2999
36398SOL    HW211574   3.408   4.934   2.244 -0.2832  0.1111 -0.1311
36399SOL     OW11575   4.291   9.653   7.737 -0.0186  0.9192  0.2848
36399SOL    HW111576   4.346   9.698   7.801  0.6125  0.8948 -0.2331
36399SOL    HW211577   4.201   9.673   7.765  0.2242  2.7548 -0.0756
36400SOL     OW11578   1.626   9.119   0.727 -0.2209 -0.4626  0.1921
36400SOL    HW111579   1.630   9.026   0.749 -2.8148 -0.5754  0.5062
36400SOL    HW211580   1.623   9.121   0.631 -0.0417 -0.6719  0.1808
36401SOL     OW11581   0.265   7.730   6.667 -0.3779  0.1664 -0.1807
36401SOL    HW111582   0.342   7.710   6.614  1.1200  0.7610  1.6478
36401SOL    HW211583   0.222   7.802   6.621 -0.8206 -1.2263 -2.0869
36402SOL     OW11584   1.222   9.750   9.134 -0.3983 -0.3476  0.3718
36402SOL    HW111585   1.209   9.739   9.228  0.2859  0.8957  0.6395
36402SOL    HW211586   1.308   9.712   9.117 -1.1418 -1.9159 -0.0476
36403SOL     OW11587   2.592   1.647   4.361 -0.0648 -0.3543  0.1996
36403SOL    HW111588   2.672   1.678   4.402 -0.6580 -0.6390  1.6267
36403SOL    HW211589   2.533   1.722   4.361 -0.4354 -0.6332  0.8711
36404SOL     OW11590   5.065   0.111   9.686 -0.3272 -0.7554  0.1687
36404SOL    HW111591   5.114   0.191   9.670  0.8280 -1.7986 -1.8186
36404SOL    HW211592   4.975   0.133   9.663 -0.1055  0.0757  0.0738
36405SOL     OW11593   4.174   0.141   3.961  0.3396 -0.7610 -0.4978
36405SOL    HW111594   4.116   0.214   3.982  0.8617 -0.0531 -1.4327
36405SOL    HW211595   4.152   0.118   3.871  2.2721  0.3113 -1.3058
36406SOL     OW11596   1.730   2.247   0.329 -0.0727 -0.0598 -0.3337
36406SOL    HW111597   1.813   2.204   0.350  0.4683  0.9603 -0.3097
36406SOL    HW211598   1.699   2.202   0.250  0.0477 -1.0453  0.1755
36407SOL     OW11599   2.319   0.162   2.884 -0.7324  0.1867 -0.1521
36407SOL    HW111600   2.281   0.225   2.945 -1.0334  0.0954 -0.2470
36407SOL    HW211601   2.245   0.126   2.836 -0.7913 -1.5773  1.1524
36408SOL     OW11602   4.437   7.934   8.814  0.4059 -0.0310  0.1479
36408SOL    HW111603   4.424   8.024   8.785 -0.2842 -0.0493  0.3775
36408SOL    HW211604   4.497   7.896   8.750 -0.9860 -0.0339 -1.1913
36409SOL     OW11605   7.018   0.046   0.214 -0.5611  0.2232  0.4119
36409SOL    HW111606   7.045   0.002   0.295 -0.1761  0.0607  0.1963
36409SOL    HW211607   7.074   0.008   0.146 -0.8309  0.4128  0.0794
36410SOL     OW11608   0.634   3.653   6.182 -0.1248 -0.6075 -0.1531
36410SOL    HW111609   0.673   3.693   6.105  0.9979 -1.6763 -0.1640
36410SOL    HW211610   0.553   3.613   6.150 -1.2396  1.5163 -0.1488
36411SOL     OW11611   7.168   3.219   5.900 -0.4752 -0.0933  0.2842
36411SOL    HW111612   7.182   3.272   5.978 -0.6528  0.7464 -0.2310
36411SOL    HW211613   7.075   3.228   5.881 -0.1248  1.1996 -1.0207
36412SOL     OW11614   8.516   5.571   9.869  0.1157 -0.1550  0.7689
36412SOL    HW111615   8.577   5.528   9.930  1.2305  1.6223  0.9909
36412SOL    HW211616   8.527   5.524   9.787  1.4430 -0.2020  0.9449
36413SOL     OW11617   5.758   0.272   1.253 -0.0757  0.5676  0.6546
36413SOL    HW111618   5.761   0.188   1.299  1.4747  0.9865  1.3670
36413SOL    HW211619   5.798   0.334   1.313  0.7729  1.3893 -0.7064
36414SOL     OW11620   0.287   3.523   8.170 -0.0917  0.1260  0.1548
36414SOL    HW111621   0.314   3.520   8.262  2.0187 -0.8869 -0.4192
36414SOL    HW211622   0.243   3.439   8.156 -1.1077  0.6052  0.4077
36415SOL     OW11623   7.752   5.122   2.944  0.5249 -0.3280  0.1233
36415SOL    HW111624   7.755   5.061   2.870  2.1247 -0.7875  0.5465
36415SOL    HW211625   7.711   5.201   2.908 -1.2012 -1.4673 -0.5394
36416SOL     OW11626   7.391   6.373   8.692  0.3137 -0.1457  0.2801
36416SOL    HW111627   7.452   6.318   8.741  0.2360  1.3192  2.1206
36416SOL    HW211628   7.305   6.344   8.719  0.2735  1.5869  2.1883
36417SOL     OW11629   2.269   8.653   0.415 -0.0986 -0.1749 -0.3784
36417SOL    HW111630   2.189   8.600   0.410 -0.2515  0.0652 -0.5116
36417SOL    HW211631   2.287   8.659   0.509  0.2038 -0.8750 -0.3834
36418SOL     OW11632   6.561   5.672   5.039 -0.1415 -0.2733  0.0813
36418SOL    HW111633   6.601   5.590   5.069  0.9625  0.1361 -0.2131
36418SOL    HW211634   6.499   5.645   4.972  0.0781 -0.8869  0.1179
36419SOL     OW11635  10.755   9.506   4.255 -0.3027 -0.0269  0.1960
36419SOL    HW111636  10.755   9.430   4.314  1.3519  0.9821  1.5802
36419SOL    HW211637  10.764   9.469   4.167  1.7594 -1.4091  0.9293
36420SOL     OW11638   2.928   9.537   8.354 -0.1822 -0.0271  0.0327
36420SOL    HW111639   2.965   9.529   8.266 -0.0227 -0.1945  0.1141
36420SOL    HW211640   3.001   9.517   8.413  0.1605  1.7861  0.2542
36421SOL     OW11641  10.503   0.562   9.865 -0.0530  0.0872  0.2154
36421SOL    HW111642  10.425   0.615   9.884  0.2369  0.6040 -0.0358
36421SOL    HW211643  10.511   0.504   9.941  0.3056  1.1995  1.0635
36422SOL     OW11644   8.933   6.281   0.135  0.7851 -0.0739 -0.4778
36422SOL    HW111645   8.894   6.207   0.087  0.7830 -0.3238 -0.0940
36422SOL    HW211646   8.894   6.359   0.095 -0.8050 -0.3398  0.4637
36423SOL     OW11647   4.083  10.453   9.030  0.0150  0.0483 -0.4393
36423SOL    HW111648   4.059  10.519   8.965 -0.1953 -0.4300 -0.8441
36423SOL    HW211649   4.018  10.384   9.020  1.2116 -1.0197 -1.1791
36424SOL     OW11650   7.778   0.359   8.547 -0.3813  0.0008 -0.5103
36424SOL    HW111651   7.696   0.309   8.554  0.3955 -1.0811  1.5292
36424SOL    HW211652   7.788   0.374   8.453 -1.4650 -2.3564 -1.0873
36425SOL     OW11653   9.083   7.875   4.458  0.2683  0.2808  0.0744
36425SOL    HW111654   9.135   7.872   4.377  0.8342  1.0703  0.3957
36425SOL    HW211655   9.096   7.964   4.491 -0.8214  0.3006  0.4810
36426SOL     OW11656   9.891   6.517   1.228 -0.1236 -0.5776 -0.4148
36426SOL    HW111657   9.908   6.428   1.196 -0.8140 -0.3823 -1.3384
36426SOL    HW211658   9.939   6.574   1.169  2.2475 -0.3991  1.5307
36427SOL     OW11659   6.435   7.029   5.790 -0.3896 -0.1797  0.2713
36427SOL    HW111660   6.412   6.968   5.860  0.5752  0.3346  1.0588
36427SOL    HW211661   6.379   7.105   5.806  0.7935  0.5076  1.3581
36428SOL     OW11662   7.467   4.103   6.178  0.4970 -0.1048  0.0155
36428SOL    HW111663   7.377   4.114   6.145  1.0751 -1.1586 -2.0715
36428SOL    HW211664   7.459   4.033   6.243 -0.0799 -0.8638 -0.8350
36429SOL     OW11665   1.296   7.149   0.488  0.4696  0.0721 -0.2001
36429SOL    HW111666   1.331   7.163   0.400 -0.2477 -2.2492 -0.9337
36429SOL    HW211667   1.366   7.105   0.535  0.2600 -0.1913 -0.1349
36430SOL     OW11668   7.478   9.276   0.610  0.5104 -0.0213 -0.1649
36430SOL    HW111669   7.502   9.261   0.701 -3.0575 -1.7073  0.6700
36430SOL    HW211670   7.472   9.371   0.603  0.1757  0.1405  1.6342
36431SOL     OW11671   5.367   0.419   5.931 -0.3933  0.7559  0.2371
36431SOL    HW111672   5.345   0.491   5.991  0.2468  0.9815  0.2043
36431SOL    HW211673   5.386   0.461   5.848 -1.0890  0.4554 -0.0805
36432SOL     OW11674   9.854   5.658   1.560  0.0856  0.4332  0.2380
36432SOL    HW111675   9.896   5.729   1.512  1.1377 -0.0890  0.3568
36432SOL    HW211676   9.789   5.623   1.500  0.7884  0.3462 -0.4792
36433SOL     OW11677   5.259   5.797   5.963 -0.2202 -0.0087 -0.3851
36433SOL    HW111678   5.242   5.856   5.889 -1.1632  3.1072  2.0831
36433SOL    HW211679   5.185   5.811   6.022  1.3603 -0.9802  1.9729
36434SOL     OW11680   6.846   3.998   5.197  0.1454  0.0496  0.4030
36434SOL    HW111681   6.815   4.087   5.213 -1.0339 -0.4828  1.1915
36434SOL    HW211682   6.925   3.990   5.251 -0.2730  0.3273  1.0672
36435SOL     OW11683   1.668   0.450   0.463 -0.1059  0.2667 -0.3600
36435SOL    HW111684   1.736   0.384   0.474 -0.7568 -0.0907  2.0169
36435SOL    HW211685   1.599   0.425   0.525  0.1826  3.8431  1.6399
36436SOL     OW11686  10.744   2.177   3.095 -0.7242 -0.3443 -0.1785
36436SOL    HW111687  10.751   2.215   3.007 -1.2004  0.9516  0.3055
36436SOL    HW211688  10.751   2.253   3.153 -2.5016 -0.8915  0.8257
36437SOL     OW11689   2.363   0.428   6.086 -0.3538  0.6347 -1.3237
36437SOL    HW111690   2.338   0.373   6.011 -0.3424  2.8890 -3.0601
36437SOL    HW211691   2.340   0.517   6.060  1.4324  1.7420  0.5926
36438SOL     OW11692   7.527   6.418   7.447 -0.1920 -0.3831 -0.5039
36438SOL    HW111693   7.456   6.425   7.384 -0.6054  0.3953  0.0207
36438SOL    HW211694   7.604   6.450   7.401 -0.7179  1.2985 -0.2869
36439SOL     OW11695   2.428   6.758   7.060 -0.1467 -0.4654 -0.8799
36439SOL    HW111696   2.473   6.787   7.139  0.6172 -0.0472 -1.4608
36439SOL    HW211697   2.347   6.718   7.092 -0.1168  0.2066  0.0812
36440SOL     OW11698   1.350   8.655   1.701  0.3494 -0.4562 -0.3711
36440SOL    HW111699   1.384   8.733   1.745  0.8658 -1.3437  0.8473
36440SOL    HW211700   1.396   8.582   1.742 -0.8986 -1.4843 -0.7382
36441SOL     OW11701   7.678  10.463   9.038  0.1364 -0.7480 -0.0223
36441SOL    HW111702   7.654  10.470   9.131  1.3996  0.5154  0.2455
36441SOL    HW211703   7.732  10.385   9.032 -0.6802 -1.3420  0.1134
36442SOL     OW11704   8.904   5.812   7.930 -0.1178 -0.2376  0.5363
36442SOL    HW111705   8.989   5.789   7.892 -0.1452 -0.0757  0.3809
36442SOL    HW211706   8.845   5.743   7.900 -0.7180  1.1846 -1.7664
36443SOL     OW11707   3.645   7.047  10.754  0.2026 -0.2385 -0.3390
36443SOL    HW111708   3.595   7.127  10.739 -2.4138 -1.4734  1.2202
36443SOL    HW211709   3.580   6.978  10.756  2.3091 -2.3766 -0.9128
36444SOL     OW11710   5.262   2.767   8.028 -0.6947 -0.2451 -0.0389
36444SOL    HW111711   5.223   2.727   7.950  0.6091 -0.1573 -0.7603
36444SOL    HW211712   5.296   2.851   7.998  1.3067 -0.9146  0.1835
36445SOL     OW11713   4.113   8.843   9.967  0.6900  0.7147 -0.3691
36445SOL    HW111714   4.113   8.826   9.873 -0.1781 -0.2230 -0.2163
36445SOL    HW211715   4.109   8.757  10.008 -0.3894  1.1334  0.4873
36446SOL     OW11716   2.183   8.254   2.996 -0.2509  0.1975 -0.2263
36446SOL    HW111717   2.130   8.282   2.921 -1.3827  2.5011  1.3191
36446SOL    HW211718   2.269   8.294   2.981  0.0350 -0.6912 -1.0471
36447SOL     OW11719   5.563   2.160   4.299 -0.2298 -0.7495 -0.2290
36447SOL    HW111720   5.521   2.081   4.334  1.4468 -0.9330  1.5674
36447SOL    HW211721   5.635   2.178   4.361  1.6744  0.1278 -2.5514
36448SOL     OW11722   6.081   8.236   2.144  0.2870 -0.3533  0.1857
36448SOL    HW111723   6.012   8.184   2.103  0.1947  1.9948 -3.0340
36448SOL    HW211724   6.040   8.321   2.161  1.5823  0.1333  1.0669
36449SOL     OW11725   2.063  10.185   7.687 -0.0421 -0.6290  0.1790
36449SOL    HW111726   2.150  10.157   7.715  0.7280  2.0484  0.8135
36449SOL    HW211727   2.079  10.243   7.612 -1.5775 -2.5074 -1.7186
36450SOL     OW11728   6.192   0.449   5.730 -0.7984 -0.3780  0.0042
36450SOL    HW111729   6.125   0.434   5.797 -0.3475 -0.8515  0.3494
36450SOL    HW211730   6.240   0.367   5.725 -0.5177 -0.1809 -0.5526
36451SOL     OW11731  10.378   6.254   8.856  0.2946  0.0924  0.0576
36451SOL    HW111732  10.299   6.225   8.902 -0.2870 -0.8535 -1.4415
36451SOL    HW211733  10.346   6.287   8.772  1.4691 -0.1626 -0.5113
36452SOL     OW11734   5.278   2.904   7.166  0.0227  0.1000  0.2700
36452SOL    HW111735   5.265   2.994   7.134 -0.1534 -0.0595 -0.1116
36452SOL    HW211736   5.302   2.854   7.088 -0.6216 -0.3384  0.3472
36453SOL     OW11737   5.769   9.824   9.927  0.2227 -0.2848 -0.3447
36453SOL    HW111738   5.859   9.828   9.894  1.2175 -0.0662  2.1249
36453SOL    HW211739   5.717   9.793   9.853  2.3797 -0.7161 -1.7647
36454SOL     OW11740  10.590   8.020   7.770 -0.5671  0.6688 -0.0464
36454SOL    HW111741  10.587   7.925   7.775 -1.0247  0.6536 -0.5615
36454SOL    HW211742  10.669   8.039   7.720 -0.5078  0.5548  0.0044
36455SOL     OW11743  10.649   1.165   2.411 -0.4914 -0.4558 -0.3109
36455SOL    HW111744  10.741   1.177   2.387 -0.0231 -0.6552  1.2292
36455SOL    HW211745  10.619   1.253   2.433 -0.7192 -0.3698 -0.9550
36456SOL     OW11746  10.281   8.448   4.626 -0.0173 -0.2540 -0.2455
36456SOL    HW111747  10.346   8.468   4.692 -0.0466 -0.9424 -0.0017
36456SOL    HW211748  10.326   8.392   4.563 -0.4346 -0.9532  0.0634
36457SOL     OW11749   7.666   4.376   3.806  0.4732 -0.2937  0.5162
36457SOL    HW111750   7.595   4.316   3.785 -0.4358  0.8762  0.0829
36457SOL    HW211751   7.706   4.341   3.885 -0.5296 -1.0276  0.7139
36458SOL     OW11752   0.861   8.332   6.601 -0.2752 -0.6862 -0.0909
36458SOL    HW111753   0.799   8.365   6.537  1.2326  2.5053 -0.0736
36458SOL    HW211754   0.882   8.408   6.655  2.7475 -1.9166  0.6282
36459SOL     OW11755   1.248   4.182   4.123 -0.2910 -0.5014  0.3159
36459SOL    HW111756   1.323   4.208   4.069  0.3669  0.7054  1.7157
36459SOL    HW211757   1.189   4.257   4.119 -0.1550 -0.3252  1.3687
36460SOL     OW11758  10.437   9.128   3.236 -0.2415 -0.2618  0.0387
36460SOL    HW111759  10.423   9.051   3.291  0.3663 -1.3370 -1.2532
36460SOL    HW211760  10.514   9.106   3.184  0.1969  1.4122 -0.0501
36461SOL     OW11761   1.289   6.740   3.932  0.7031 -0.2770  0.1293
36461SOL    HW111762   1.371   6.779   3.901  0.5464  0.5025  0.6483
36461SOL    HW211763   1.227   6.755   3.860  1.0651 -1.0634 -0.3533
36462SOL     OW11764   0.507   0.549  10.625  0.3721  0.1345  0.0859
36462SOL    HW111765   0.565   0.624  10.617 -1.0161  1.3582  0.9749
36462SOL    HW211766   0.421   0.583  10.602 -0.0296 -1.6581 -1.2999
36463SOL     OW11767   6.628  10.220   8.934 -0.2303 -0.1467  0.1218
36463SOL    HW111768   6.642  10.224   8.840 -0.1851 -0.4419  0.1156
36463SOL    HW211769   6.678  10.143   8.963 -2.1307 -1.4760  0.0355
36464SOL     OW11770   9.174   2.257   0.970  0.3361  0.2138  0.1933
36464SOL    HW111771   9.111   2.265   1.042  0.0259  2.7262 -0.2840
36464SOL    HW211772   9.258   2.247   1.014  0.0439  0.7976  0.9056
36465SOL     OW11773  10.333   3.931  10.294  0.7556 -0.0938 -0.4706
36465SOL    HW111774  10.330   4.006  10.353 -0.9623 -0.8318  0.4555
36465SOL    HW211775  10.364   3.858  10.349 -0.6790 -0.7425 -0.4620
36466SOL     OW11776   7.910   0.534   7.056 -0.6616  0.1371  0.0324
36466SOL    HW111777   7.924   0.444   7.028  0.6050  0.1545  0.5453
36466SOL    HW211778   7.883   0.527   7.147  1.3279  0.3245  0.6798
36467SOL     OW11779   3.708  10.544   1.312 -0.0621 -0.0833  0.3180
36467SOL    HW111780   3.716  10.452   1.338 -1.0065 -0.4724 -0.6786
36467SOL    HW211781   3.774  10.556   1.244 -2.4327 -1.1722 -2.3901
36468SOL     OW11782   0.902   4.345   3.190  0.5309 -0.3833 -0.3315
36468SOL    HW111783   0.934   4.256   3.201  1.0978  0.1225  3.0066
36468SOL    HW211784   0.976   4.392   3.152  1.0086 -0.8605 -0.0085
36469SOL     OW11785   4.322   4.714   2.173  0.3544 -0.3225  0.4031
36469SOL    HW111786   4.296   4.628   2.206  0.7631 -0.8591 -0.6174
36469SOL    HW211787   4.378   4.695   2.098  0.4528  0.8422  0.1563
36470SOL     OW11788   9.252   1.332   2.416 -0.1134 -0.4480 -0.1328
36470SOL    HW111789   9.197   1.280   2.474  0.5090 -1.9097 -0.8205
36470SOL    HW211790   9.321   1.366   2.473  0.5030 -1.8821  0.0094
36471SOL     OW11791   2.914   1.048   1.054 -0.3050 -0.1739  0.0799
36471SOL    HW111792   2.907   1.121   1.116 -0.8121  2.0185 -2.3853
36471SOL    HW211793   2.826   1.040   1.016  0.3428 -0.4622 -1.4094
36472SOL     OW11794   1.569   0.838   0.381  0.3917  0.1408  0.2439
36472SOL    HW111795   1.645   0.827   0.439  0.9780 -1.7349 -0.8123
36472SOL    HW211796   1.497   0.859   0.441  1.1629 -0.8026  1.5638
36473SOL     OW11797   3.256   0.570   8.609  0.2325  0.2988 -0.2340
36473SOL    HW111798   3.228   0.561   8.518  0.7806  1.6631 -0.5710
36473SOL    HW211799   3.206   0.503   8.656 -1.3019  0.6361 -1.2847
36474SOL     OW11800   8.042   2.919   8.363  0.3167  0.2501 -0.2896
36474SOL    HW111801   8.067   2.859   8.291 -1.4665  2.2298 -2.7263
36474SOL    HW211802   7.957   2.887   8.392 -0.3242  1.1584 -1.1280
36475SOL     OW11803   5.654   1.028  10.523  0.2471 -0.2313 -0.6454
36475SOL    HW111804   5.671   1.122  10.513  0.4452  0.0525  1.7912
36475SOL    HW211805   5.559   1.020  10.514  0.3649 -0.0801 -2.4427
36476SOL     OW11806   9.151   0.723   5.137  0.0382 -0.2129 -0.1018
36476SOL    HW111807   9.109   0.808   5.155 -1.1417 -0.9369  0.6784
36476SOL    HW211808   9.220   0.717   5.203 -1.6628 -1.0499  1.6950
36477SOL     OW11809   4.047   3.017   8.754  0.0288  0.7682 -0.3653
36477SOL    HW111810   4.063   2.946   8.816  1.6952  3.1830  2.1929
36477SOL    HW211811   3.952   3.019   8.742 -0.0950 -1.5941 -0.2763
36478SOL     OW11812   3.293   9.033   3.346 -0.1429  0.1444  0.0323
36478SOL    HW111813   3.268   9.114   3.390 -0.0528  0.3587 -0.3144
36478SOL    HW211814   3.266   8.964   3.407  0.9725  0.4729  0.9171
36479SOL     OW11815   2.264   9.747   8.605 -0.2753  0.2292  0.0567
36479SOL    HW111816   2.236   9.798   8.529 -0.1097 -0.4271 -0.4534
36479SOL    HW211817   2.354   9.723   8.586  0.2835  1.3126  1.1487
36480SOL     OW11818   5.401   4.740   0.324 -0.0258 -0.4547  0.1562
36480SOL    HW111819   5.407   4.714   0.232 -1.0780  2.3512 -0.8214
36480SOL    HW211820   5.486   4.715   0.361  1.1319 -0.0767 -2.0461
36481SOL     OW11821   8.679   0.818   9.334  0.2515 -0.0472  0.5031
36481SOL    HW111822   8.608   0.764   9.298 -0.5197 -0.2778  2.2829
36481SOL    HW211823   8.739   0.754   9.372 -0.4645  0.2693  2.2639
36482SOL     OW11824   5.635   9.931   7.206  0.0566  0.0536 -0.3797
36482SOL    HW111825   5.561   9.934   7.268  0.6253 -0.1291  0.3266
36482SOL    HW211826   5.681   9.850   7.228  0.7296  0.3971 -0.4951
36483SOL     OW11827   5.142   4.057   3.683 -0.1529 -0.4661  0.6550
36483SOL    HW111828   5.048   4.068   3.695 -0.2348  1.8728 -1.4555
36483SOL    HW211829   5.181   4.098   3.760 -0.8024 -1.7976  1.7390
36484SOL     OW11830   8.199   5.894   2.506  0.2767 -0.1180 -0.1309
36484SOL    HW111831   8.152   5.865   2.428 -1.5063  1.9888  0.0610
36484SOL    HW211832   8.182   5.827   2.571  0.2684 -0.9881 -0.9949
36485SOL     OW11833   9.320   5.651   5.493 -0.2608  0.4015 -0.5007
36485SOL    HW111834   9.312   5.739   5.530  2.4119  0.3891  0.3070
36485SOL    HW211835   9.404   5.652   5.446 -0.2525 -1.6652 -0.6267
36486SOL     OW11836   4.830   8.468   8.852  0.0796  0.2501  0.7825
36486SOL    HW111837   4.855   8.494   8.763  0.7091 -2.1230  0.2112
36486SOL    HW211838   4.858   8.542   8.907 -0.1410  1.6761 -0.9364
36487SOL     OW11839  10.254   3.783   2.505  0.1165 -0.2863  0.1673
36487SOL    HW111840  10.269   3.871   2.537  0.7267 -0.4001  0.1995
36487SOL    HW211841  10.321   3.730   2.547  0.1941 -0.6441 -0.3921
36488SOL     OW11842   1.748   4.495   4.858 -0.4427  0.7215 -0.3290
36488SOL    HW111843   1.733   4.496   4.953  1.5139 -2.0681  0.1211
36488SOL    HW211844   1.792   4.412   4.842 -1.4125  0.7512 -3.8446
36489SOL     OW11845   0.609   3.583  10.491  0.0074  0.3749  0.3187
36489SOL    HW111846   0.640   3.551  10.576  0.2038 -0.5711 -0.1001
36489SOL    HW211847   0.579   3.505  10.445  1.3719  0.6365 -1.1003
36490SOL     OW11848  10.535   3.696   6.774  0.0018  0.1788  0.2562
36490SOL    HW111849  10.452   3.690   6.822  1.7165 -3.5661  3.3667
36490SOL    HW211850  10.527   3.632   6.703 -0.4095  1.2634 -0.6930
36491SOL     OW11851   8.991  10.293   5.976  0.5844 -0.4123  0.1880
36491SOL    HW111852   9.007  10.223   5.913  0.0499  1.3109 -2.0205
36491SOL    HW211853   8.961  10.367   5.922  0.8689  1.4413  2.4111
36492SOL     OW11854   7.087   6.500   7.959  0.0962 -0.3377 -0.4799
36492SOL    HW111855   7.108   6.485   8.051 -1.2630 -0.6254 -0.1986
36492SOL    HW211856   7.092   6.595   7.949 -2.5450  0.0024  0.6581
36493SOL     OW11857   2.193   8.256   3.607 -0.4091 -0.1196 -0.8946
36493SOL    HW111858   2.271   8.224   3.654 -0.5342  1.1534  0.2495
36493SOL    HW211859   2.172   8.339   3.650 -1.5928  0.2337 -2.0972
36494SOL     OW11860   2.099   3.206   6.673 -0.4473 -0.2818 -0.3212
36494SOL    HW111861   2.121   3.118   6.704  1.8157 -0.1445 -1.3564
36494SOL    HW211862   2.173   3.232   6.619 -1.6949  1.7345 -1.1913
36495SOL     OW11863   0.819   2.080   8.895  0.3654 -0.1469  0.0027
36495SOL    HW111864   0.774   2.011   8.847  0.0344 -0.2210  0.4171
36495SOL    HW211865   0.897   2.099   8.842  0.4344 -0.8008 -0.1406
36496SOL     OW11866   7.788  10.065   7.795  0.3321 -0.1093  0.1419
36496SOL    HW111867   7.777   9.970   7.791 -1.9686  0.1637 -2.1570
36496SOL    HW211868   7.850  10.085   7.725 -1.2335  0.2802 -1.1699
36497SOL     OW11869   1.455  10.212   9.404  0.1358  0.1557 -0.0467
36497SOL    HW111870   1.378  10.269   9.408 -1.2699 -1.6665  0.2778
36497SOL    HW211871   1.522  10.265   9.361 -0.7674  2.3666  1.1003
36498SOL     OW11872   9.048   8.173   5.951 -0.0414 -0.4619  0.3307
36498SOL    HW111873   9.141   8.151   5.961  0.4704  1.6912  0.8192
36498SOL    HW211874   9.048   8.258   5.907 -1.7363  0.2440  1.5993
36499SOL     OW11875   7.877   6.840   9.180 -0.2940 -0.6607  0.0010
36499SOL    HW111876   7.870   6.773   9.248 -1.2516  0.0891  0.6558
36499SOL    HW211877   7.938   6.803   9.116  0.8175 -1.2860  1.3740
36500SOL     OW11878   2.569   8.184   0.437 -0.3209 -0.0492  0.1370
36500SOL    HW111879   2.482   8.162   0.471 -0.1670  0.9191  1.2366
36500SOL    HW211880   2.560   8.274   0.404 -0.2598 -0.6938 -1.7541
36501SOL     OW11881   5.090   8.178   6.509 -0.5696  0.1813 -0.2180
36501SOL    HW111882   5.013   8.234   6.506 -0.4729  0.4380  1.3048
36501SOL    HW211883   5.059   8.097   6.549 -0.2500 -0.0849 -0.5022
36502SOL     OW11884  10.478   7.787   5.868 -0.1528  0.7638 -0.0539
36502SOL    HW111885  10.566   7.821   5.882 -0.1154  0.7764 -0.3207
36502SOL    HW211886  10.480   7.699   5.905 -0.1536  0.9237  0.3328
36503SOL     OW11887   3.954   0.984   8.849  0.1137 -0.1638 -0.0796
36503SOL    HW111888   4.048   0.992   8.869 -0.0651 -0.3712  0.8626
36503SOL    HW211889   3.943   0.892   8.823  0.3223  0.0766 -1.0883
36504SOL     OW11890   1.213   1.610   3.505 -0.8466 -0.0854  0.3135
36504SOL    HW111891   1.237   1.590   3.414  1.2211  1.1793  0.5219
36504SOL    HW211892   1.139   1.671   3.496 -1.3577 -0.7903 -0.4775
36505SOL     OW11893   5.479   2.560   3.519 -0.3437 -0.2397 -0.0299
36505SOL    HW111894   5.555   2.512   3.551  0.6052  0.7040 -0.8027
36505SOL    HW211895   5.513   2.616   3.450 -1.5583  0.9885  0.3275
36506SOL     OW11896   1.919   8.410  10.553 -0.2586  0.0660  0.2438
36506SOL    HW111897   1.889   8.444  10.638 -0.4256  0.6667 -0.0559
36506SOL    HW211898   1.949   8.321  10.573  1.8050  0.9246  1.3903
36507SOL     OW11899   8.101   0.384  10.365 -0.0294 -0.2957  0.7916
36507SOL    HW111900   8.185   0.367  10.407 -0.0633 -1.3538  0.4605
36507SOL    HW211901   8.059   0.298  10.360  0.3194 -0.3896 -2.1382
36508SOL     OW11902   3.230   9.870   6.404 -0.2921  0.1448  0.0709
36508SOL    HW111903   3.147   9.889   6.448 -0.9955  0.0102 -1.1625
36508SOL    HW211904   3.236   9.936   6.335  1.0976  0.7431  0.7210
36509SOL     OW11905   0.143   7.919   8.922 -0.1267  0.1782 -0.0440
36509SOL    HW111906   0.094   7.847   8.882  1.5974 -0.6991 -0.6767
36509SOL    HW211907   0.148   7.896   9.015 -2.0643  0.9989  0.3111
36510SOL     OW11908  10.077  10.726   2.735 -0.8365  0.4232  0.7155
36510SOL    HW111909  10.021  10.775   2.674  1.7085  1.9207 -0.6058
36510SOL    HW211910  10.026  10.721   2.816 -2.1710  3.2643  0.1817
36511SOL     OW11911   2.792   0.320   0.155 -0.4469 -0.6088 -0.0255
36511SOL    HW111912   2.870   0.361   0.190 -0.9391  0.2083  0.1418
36511SOL    HW211913   2.720   0.360   0.202 -0.9375 -1.9723  0.4470
36512SOL     OW11914   7.145   0.014   7.851  0.1849  0.6259 -0.3908
36512SOL    HW111915   7.139   0.061   7.768 -0.1300  0.0349 -0.7112
36512SOL    HW211916   7.237  -0.010   7.859 -0.1083 -1.0950 -1.5916
36513SOL     OW11917   0.541   6.216   7.386  0.5104 -0.1446  0.3762
36513SOL    HW111918   0.548   6.278   7.314  0.4105 -0.0699  0.4315
36513SOL    HW211919   0.531   6.270   7.464 -1.1149 -0.2442  0.2688
36514SOL     OW11920   2.137   8.345   5.846 -0.1412 -0.2884  0.4219
36514SOL    HW111921   2.054   8.307   5.875 -0.1816  0.8257  1.9017
36514SOL    HW211922   2.115   8.395   5.768 -0.7635 -0.4104  0.5164
36515SOL     OW11923   2.821   2.780   8.088 -0.1425  0.7461  0.2754
36515SOL    HW111924   2.768   2.819   8.018 -2.3362 -2.0311  0.2355
36515SOL    HW211925   2.908   2.771   8.050 -0.9416  0.6056 -1.6267
36516SOL     OW11926   1.103   3.588   3.880  0.2687 -0.4526 -0.5353
36516SOL    HW111927   1.069   3.499   3.870 -2.1637  0.2494  0.5345
36516SOL    HW211928   1.032   3.644   3.847  0.7951  1.1169  0.8666
36517SOL     OW11929  10.357   5.442   3.056  0.0486 -0.4451  0.0681
36517SOL    HW111930  10.440   5.458   3.101 -1.0095  0.5824  1.7659
36517SOL    HW211931  10.348   5.346   3.055  1.6376 -0.6184 -0.9479
36518SOL     OW11932   1.899   9.638   5.248 -0.5515  0.3393 -0.4325
36518SOL    HW111933   1.896   9.588   5.329  1.4674 -1.2041 -1.2076
36518SOL    HW211934   1.972   9.699   5.260 -1.3601  1.3270 -0.4556
36519SOL     OW11935   1.778   7.941   4.852 -0.8183  0.3052  0.3469
36519SOL    HW111936   1.836   8.015   4.838 -0.1803 -0.4789 -1.5699
36519SOL    HW211937   1.776   7.895   4.767 -0.8078 -2.1258  1.5598
36520SOL     OW11938   1.229   3.043  10.469  0.0425  0.3163  0.1458
36520SOL    HW111939   1.180   3.088  10.401 -1.6958 -0.9037  0.5175
36520SOL    HW211940   1.200   3.083  10.551 -0.5504 -0.5792  0.3882
36521SOL     OW11941   2.273   2.827   5.734  0.6847 -0.1266 -0.4459
36521SOL    HW111942   2.266   2.808   5.828  1.8129  1.0672 -0.0964
36521SOL    HW211943   2.233   2.751   5.691  1.7505 -1.5421  0.9539
36522SOL     OW11944   7.033   8.874   6.329  0.4519  0.4571  0.0452
36522SOL    HW111945   7.005   8.929   6.256 -1.4906  1.4984  1.4816
36522SOL    HW211946   6.951   8.848   6.372  1.5186 -0.2863  1.7218
36523SOL     OW11947   6.167   8.425   4.887  0.2412  0.1459 -0.0429
36523SOL    HW111948   6.153   8.516   4.862  0.9112 -0.3823 -2.6363
36523SOL    HW211949   6.249   8.401   4.843  0.2862 -1.6031  0.9217
36524SOL     OW11950   3.851   4.064   2.186 -0.2622 -0.3257 -0.6974
36524SOL    HW111951   3.775   4.067   2.245  0.5597  0.2257  0.3677
36524SOL    HW211952   3.820   4.105   2.105 -0.7144  1.2263  0.2128
36525SOL     OW11953   9.346   8.517   7.630 -0.1788  0.1063  0.2895
36525SOL    HW111954   9.364   8.469   7.710 -1.3707  1.7579  1.6165
36525SOL    HW211955   9.278   8.466   7.585 -1.0210  0.2301  1.3867
36526SOL     OW11956   6.207   7.978   3.367 -0.1067  0.0564  0.0388
36526SOL    HW111957   6.247   7.990   3.453 -0.1229 -1.2762  0.2563
36526SOL    HW211958   6.113   7.979   3.384 -0.1154  0.1852 -0.0181
36527SOL     OW11959   0.773   9.517   3.192  0.5706  0.5259  0.2537
36527SOL    HW111960   0.781   9.605   3.155  2.3780  0.6386  0.7778
36527SOL    HW211961   0.848   9.469   3.156 -0.5940 -0.9371 -0.3281
36528SOL     OW11962   9.226   2.174   3.134  0.5880 -0.5268 -0.1850
36528SOL    HW111963   9.206   2.266   3.152  1.7832 -0.3874  0.4822
36528SOL    HW211964   9.162   2.125   3.185  0.0565 -0.0807 -0.4076
36529SOL     OW11965   2.437   1.791   5.804 -0.8721 -0.3519  0.7594
36529SOL    HW111966   2.362   1.837   5.768 -2.3067 -1.8687  1.6712
36529SOL    HW211967   2.466   1.845   5.878  0.2415  1.2491 -0.7605
36530SOL     OW11968   2.600   4.743   9.485 -0.7937  0.7022 -0.2464
36530SOL    HW111969   2.633   4.686   9.416 -2.3391 -0.7533  0.1673
36530SOL    HW211970   2.677   4.763   9.539  0.1873  0.8534 -1.6490
36531SOL     OW11971   5.044   0.719   8.957  0.0327 -0.2101  0.0550
36531SOL    HW111972   5.139   0.725   8.947 -0.0792 -0.5862 -1.4113
36531SOL    HW211973   5.032   0.680   9.043  1.1410  1.8600  1.2244
36532SOL     OW11974   9.104   7.316   4.562 -0.3421  0.9407  0.7764
36532SOL    HW111975   9.183   7.267   4.541 -1.0266 -0.3111  1.0461
36532SOL    HW211976   9.064   7.333   4.476 -1.4219 -1.2751  0.7661
36533SOL     OW11977   3.507   0.086   6.471  0.8134 -0.5672  0.0549
36533SOL    HW111978   3.521   0.011   6.413  0.0187 -0.4136 -0.3531
36533SOL    HW211979   3.437   0.058   6.529  1.0588 -0.4249  0.4206
36534SOL     OW11980   0.351   0.524   8.539 -0.2421 -0.5395 -0.4503
36534SOL    HW111981   0.367   0.556   8.628 -2.4287 -0.9501  0.1463
36534SOL    HW211982   0.375   0.598   8.483  1.3004 -0.3157  0.4256
36535SOL     OW11983   3.821   3.816  10.599 -0.0484  0.1914 -0.4978
36535SOL    HW111984   3.797   3.909  10.603  0.0393  0.1730  1.0407
36535SOL    HW211985   3.913   3.816  10.575  0.1873  0.5549  0.3628
36536SOL     OW11986   6.724   7.761   7.159  0.2009 -0.3311 -0.1252
36536SOL    HW111987   6.657   7.712   7.112 -0.6585  0.7839 -0.0956
36536SOL    HW211988   6.772   7.695   7.208 -1.6329 -1.0601  0.7858
36537SOL     OW11989   6.147   6.257   5.269 -0.6521 -0.5553  0.3418
36537SOL    HW111990   6.169   6.294   5.355 -0.3524 -0.4154  0.2074
36537SOL    HW211991   6.232   6.231   5.232 -0.6624  0.4070 -0.3820
36538SOL     OW11992   8.154  10.750   8.601  0.7903 -0.0112 -0.0487
36538SOL    HW111993   8.146  10.677   8.539 -0.9642 -0.0218  0.1520
36538SOL    HW211994   8.227  10.802   8.567  1.1955 -1.1267 -0.9540
36539SOL     OW11995   3.766   1.712   9.285 -0.2177  0.6859 -0.3624
36539SOL    HW111996   3.806   1.660   9.356 -1.8584 -1.0035 -0.5784
36539SOL    HW211997   3.706   1.771   9.330  0.1843  1.0029 -0.2356
36540SOL     OW11998   1.546   1.349   9.999  0.3552 -0.1117 -0.1686
36540SOL    HW111999   1.634   1.346   9.963  0.1575 -0.4768 -0.6349
36540SOL    HW212000   1.558   1.335  10.093  0.7685 -0.4215 -0.2664
36541SOL     OW12001   1.897   9.354   1.954 -1.2279  0.2214 -0.0057
36541SOL    HW112002   1.884   9.262   1.933 -1.1336  0.6417 -2.0870
36541SOL    HW212003   1.838   9.370   2.028 -3.4296 -0.8323 -1.4306
36542SOL     OW12004   6.055   7.564   0.600 -0.3065  0.1078 -0.1679
36542SOL    HW112005   5.987   7.506   0.637 -1.6780 -0.6856 -3.5791
36542SOL    HW212006   6.006   7.630   0.552  1.3092  0.3249 -1.6081
36543SOL     OW12007   3.862  10.223   2.108  0.2925 -0.3069  0.4896
36543SOL    HW112008   3.942  10.223   2.055  1.0259 -1.4220  1.5381
36543SOL    HW212009   3.828  10.134   2.100 -0.0287 -0.2581  1.2301
36544SOL     OW12010   4.008   3.326   5.779 -0.0775 -0.1091  0.0088
36544SOL    HW112011   4.025   3.353   5.689 -1.2067 -0.9641 -0.4958
36544SOL    HW212012   4.093   3.299   5.813 -0.1099 -3.1147 -1.9772
36545SOL     OW12013   9.268   0.605   9.268  0.5117 -0.9981  0.1864
36545SOL    HW112014   9.273   0.552   9.189  2.2928  1.4717 -1.5230
36545SOL    HW212015   9.352   0.592   9.312  1.7292  1.5150 -1.1704
36546SOL     OW12016   6.519   1.405   8.785 -0.3638 -0.2503  0.0767
36546SOL    HW112017   6.501   1.348   8.859  1.1703  0.1913  0.8208
36546SOL    HW212018   6.513   1.494   8.820 -0.0506 -0.0245 -0.4167
36547SOL     OW12019   0.708   7.303   4.825 -0.3853  0.2980  0.1546
36547SOL    HW112020   0.764   7.376   4.851 -1.8583  1.7208 -0.4542
36547SOL    HW212021   0.768   7.231   4.807  1.1746  1.5346  0.2447
36548SOL     OW12022   2.286   8.451   6.652 -0.0559  0.3493  0.6409
36548SOL    HW112023   2.316   8.439   6.742 -0.0333 -0.7964  0.4904
36548SOL    HW212024   2.245   8.538   6.652  0.0377  0.4071  1.7268
36549SOL     OW12025   9.494   0.025   2.630  0.1313 -0.0877 -0.4619
36549SOL    HW112026   9.520  -0.066   2.639 -1.2299 -0.4715 -0.1596
36549SOL    HW212027   9.444   0.045   2.709 -1.3778  0.2567 -1.4472
36550SOL     OW12028   2.357   5.493   6.530  0.2224  0.5364 -0.1237
36550SOL    HW112029   2.412   5.553   6.580  0.7182  0.7122 -0.8587
36550SOL    HW212030   2.309   5.549   6.469 -0.2063  0.3041 -0.0065
36551SOL     OW12031   1.086   1.700   2.702  0.1738  0.4157 -0.2091
36551SOL    HW112032   1.078   1.795   2.706 -0.2381  0.3601  2.1914
36551SOL    HW212033   1.013   1.672   2.647 -1.7190  1.3586  1.6709
36552SOL     OW12034   1.792   8.227   3.079 -0.1353 -0.4251  0.6089
36552SOL    HW112035   1.799   8.322   3.093 -0.7751 -0.2219 -0.3806
36552SOL    HW212036   1.700   8.212   3.058 -0.0437 -1.2819  0.7764
36553SOL     OW12037   6.651   6.812   0.932 -0.0381  0.0995  0.0349
36553SOL    HW112038   6.596   6.765   0.994  0.8836  0.0226  0.8226
36553SOL    HW212039   6.591   6.869   0.885 -0.5846  1.3419  2.0903
36554SOL     OW12040   4.696   9.072   0.400  0.1432  0.2191 -0.0974
36554SOL    HW112041   4.681   8.982   0.370  1.2098  0.3937 -1.2417
36554SOL    HW212042   4.727   9.062   0.490  1.1672 -0.6468 -0.5181
36555SOL     OW12043   2.629   8.276   2.529  0.4593 -0.1269 -0.0982
36555SOL    HW112044   2.600   8.280   2.438  0.2229  1.3766  0.0198
36555SOL    HW212045   2.631   8.182   2.549  1.8196 -0.5750 -2.0358
36556SOL     OW12046   6.130   9.023   1.171 -0.1415 -0.1080 -0.0917
36556SOL    HW112047   6.209   9.063   1.133  0.4566  0.3162  1.4891
36556SOL    HW212048   6.060   9.043   1.109  1.2078 -1.6425 -2.1994
36557SOL     OW12049   5.538   1.114   0.746 -0.6628  0.1141 -0.4753
36557SOL    HW112050   5.503   1.049   0.807  0.3210 -0.1640 -0.1804
36557SOL    HW212051   5.624   1.079   0.721 -0.4600  0.9138 -0.9352
36558SOL     OW12052   5.303   6.467   7.382  0.2314 -0.3080 -0.4974
36558SOL    HW112053   5.243   6.397   7.355  1.4938 -1.3717 -0.6541
36558SOL    HW212054   5.365   6.474   7.310 -0.0169  1.1777 -0.5903
36559SOL     OW12055   3.657   1.974   0.259  0.3707  0.0297 -0.0143
36559SOL    HW112056   3.679   1.934   0.343 -2.1798 -2.1834 -0.2474
36559SOL    HW212057   3.662   1.901   0.196 -1.4041  0.7281 -1.0473
36560SOL     OW12058  10.306   5.340   4.260 -0.3417 -0.5660  0.3397
36560SOL    HW112059  10.285   5.346   4.167 -0.2092 -1.0922  0.2745
36560SOL    HW212060  10.237   5.390   4.303  0.6357  1.3088 -0.1548
36561SOL     OW12061   0.705   7.590  10.041 -0.2510 -0.2907 -0.6622
36561SOL    HW112062   0.751   7.635  10.112 -1.7621  0.5774 -0.1869
36561SOL    HW212063   0.714   7.649   9.966 -0.2986 -0.2785 -0.6581
36562SOL     OW12064   5.193   6.838   2.802  0.1512  0.2854  0.1413
36562SOL    HW112065   5.122   6.851   2.864  0.7519  1.6411  0.5879
36562SOL    HW212066   5.230   6.753   2.825 -1.0161 -0.2229  0.1985
36563SOL     OW12067   7.354   1.957   3.347 -0.0616  0.4755 -0.4128
36563SOL    HW112068   7.278   1.992   3.393  0.0666 -0.1686  0.2982
36563SOL    HW212069   7.427   2.013   3.376  0.0645 -0.0852  0.3801
36564SOL     OW12070   4.457   2.490   0.005  0.0383  0.1149 -0.0342
36564SOL    HW112071   4.380   2.434   0.007  0.6259 -0.7391 -0.6603
36564SOL    HW212072   4.422   2.579   0.013 -1.2012 -0.0921 -2.2600
36565SOL     OW12073   7.477   3.116   3.332  0.6233  0.0068 -0.9038
36565SOL    HW112074   7.442   3.196   3.293 -0.2574  0.5898  0.9977
36565SOL    HW212075   7.401   3.057   3.339  0.8892 -0.3046 -0.6066
36566SOL     OW12076   3.166   0.809   3.749 -0.1370  0.2773  0.2443
36566SOL    HW112077   3.094   0.867   3.775  0.8317  2.1044 -0.9482
36566SOL    HW212078   3.135   0.768   3.668 -1.3911 -2.0865  1.7905
36567SOL     OW12079   0.293   8.816   0.434 -0.2674 -0.3728 -0.3082
36567SOL    HW112080   0.229   8.746   0.440 -0.6690  0.0354  0.2746
36567SOL    HW212081   0.245   8.890   0.398 -0.3710  0.2179  1.0154
36568SOL     OW12082   1.603  10.354   8.053 -0.0146 -0.1400 -0.3574
36568SOL    HW112083   1.536  10.360   7.984  0.0996  0.7408 -0.3951
36568SOL    HW212084   1.576  10.419   8.118  1.5259  1.1904 -1.0000
36569SOL     OW12085   6.307   4.202   8.223 -0.1942 -0.3940  0.5876
36569SOL    HW112086   6.389   4.251   8.219 -0.7456  0.5507  0.4650
36569SOL    HW212087   6.318   4.132   8.159  0.8096 -0.7606  1.1431
36570SOL     OW12088   1.960   8.716   4.069  0.3216  0.4662  1.1188
36570SOL    HW112089   1.989   8.807   4.059  2.4749 -0.1577  1.1050
36570SOL    HW212090   2.036   8.664   4.040 -0.4463 -1.3321  2.1944
36571SOL     OW12091   7.261   0.268  10.530  0.0611  0.0983 -0.1379
36571SOL    HW112092   7.277   0.174  10.519 -0.1274 -0.0924  1.1146
36571SOL    HW212093   7.168   0.279  10.509  0.3065  0.1895 -1.2659
36572SOL     OW12094   6.066   2.061   5.599 -0.0772 -0.0024 -0.0444
36572SOL    HW112095   6.090   1.976   5.561  0.1230  0.8588 -2.0003
36572SOL    HW212096   5.973   2.054   5.619  0.1053 -0.9190  0.4904
36573SOL     OW12097   7.928   6.873   8.618 -0.2048  1.0284 -0.5885
36573SOL    HW112098   7.857   6.880   8.681  1.4306  0.2594  1.4448
36573SOL    HW212099   7.988   6.809   8.656  0.2754 -0.4635 -3.5584
36574SOL     OW12100   7.048   8.607   9.388 -0.0917  0.1962 -0.6223
36574SOL    HW112101   7.072   8.515   9.399 -1.3940 -0.1003  0.0517
36574SOL    HW212102   7.122   8.647   9.342  1.7347 -0.5785  1.4630
36575SOL     OW12103   9.638   4.898   1.670 -1.2288  0.1044 -0.2012
36575SOL    HW112104   9.732   4.911   1.671 -1.2485  0.2276  0.4885
36575SOL    HW212105   9.627   4.805   1.648 -0.8420 -0.6223  2.3043
36576SOL     OW12106   5.542   2.648   9.906 -0.0331 -0.5977  0.1525
36576SOL    HW112107   5.556   2.554   9.898 -0.1916 -0.4941 -1.7412
36576SOL    HW212108   5.628   2.684   9.925 -0.1018 -1.1770  1.6709
36577SOL     OW12109   9.523   1.871   2.325 -0.0476  0.2173 -0.2435
36577SOL    HW112110   9.602   1.895   2.375 -1.0494  1.4966  0.8083
36577SOL    HW212111   9.481   1.803   2.377 -0.4311  0.6551  0.0361
36578SOL     OW12112   0.465   2.045   7.750  0.2487  0.2486 -0.3132
36578SOL    HW112113   0.489   2.127   7.793 -1.5066  0.5928  0.0799
36578SOL    HW212114   0.380   2.021   7.788  0.9129 -2.0076 -0.0979
36579SOL     OW12115   7.932   9.537  10.479  0.5984  0.2416 -0.2847
36579SOL    HW112116   7.977   9.520  10.396  0.7641  0.6684 -0.2878
36579SOL    HW212117   7.851   9.487  10.473  1.6427 -1.6189  0.2733
36580SOL     OW12118   0.862  10.009   5.341  0.1505  0.0069 -0.7372
36580SOL    HW112119   0.925  10.056   5.287  1.0273  0.3873  0.5939
36580SOL    HW212120   0.914   9.964   5.407 -0.9724  0.6279  0.6278
36581SOL     OW12121   2.832   7.203   1.882  0.4931 -0.1022  0.2951
36581SOL    HW112122   2.890   7.152   1.826  2.3614  2.8845 -0.7319
36581SOL    HW212123   2.890   7.247   1.944 -0.9216  1.0125  0.8984
36582SOL     OW12124   9.588   3.936   1.685  0.2611 -0.6543  0.2424
36582SOL    HW112125   9.549   3.882   1.753 -0.1585  0.0226  0.5555
36582SOL    HW212126   9.625   3.874   1.623  0.1014 -1.2887  0.7714
36583SOL     OW12127   1.911   0.062   2.651  0.0273  0.5203 -0.3889
36583SOL    HW112128   1.859   0.099   2.722  0.1673 -0.7094  0.3958
36583SOL    HW212129   1.964  -0.006   2.693  1.2711  0.8128 -1.4069
36584SOL     OW12130   3.022   8.500   7.578 -0.1838  0.0004 -0.0197
36584SOL    HW112131   3.111   8.536   7.580  0.7694 -2.2487  0.6568
36584SOL    HW212132   2.968   8.568   7.620  1.1820  1.3908 -0.4072
36585SOL     OW12133   3.176   9.328  10.399  0.5200 -0.2341 -0.0330
36585SOL    HW112134   3.265   9.309  10.369 -0.1454 -0.5450 -1.9491
36585SOL    HW212135   3.143   9.245  10.431  0.3835 -0.4831 -0.8093
36586SOL     OW12136   2.737   6.973   5.071 -0.8087  0.2600  0.1996
36586SOL    HW112137   2.773   7.035   5.135  1.2723 -0.0072 -0.6284
36586SOL    HW212138   2.646   6.961   5.097 -0.3064  0.9789  2.4657
36587SOL     OW12139   3.853  10.761   2.220  0.2999  0.0560  0.2761
36587SOL    HW112140   3.850  10.801   2.133  0.6251 -1.8187 -0.6489
36587SOL    HW212141   3.911  10.818   2.271  0.4355  0.9585 -0.8513
36588SOL     OW12142   9.458   7.341   5.661  0.0872 -0.5912  0.5126
36588SOL    HW112143   9.395   7.333   5.733 -1.7736 -3.6277 -1.2378
36588SOL    HW212144   9.503   7.256   5.660  0.8007 -0.2313 -1.2580
36589SOL     OW12145   1.074   6.651   7.408 -0.1947  0.4218  0.2991
36589SOL    HW112146   1.153   6.700   7.431 -0.4037  0.8553  0.1152
36589SOL    HW212147   1.039   6.621   7.491  1.0794 -1.2397  0.2807
36590SOL     OW12148   0.049   1.461   6.992 -0.9475  0.4514  0.2053
36590SOL    HW112149   0.056   1.511   6.910 -0.4096  0.2051  0.0975
36590SOL    HW212150   0.026   1.372   6.963 -2.3763  0.7269  0.4204
36591SOL     OW12151   1.376   6.562   7.369  0.2725 -0.2327  0.2671
36591SOL    HW112152   1.351   6.589   7.457 -1.5348 -1.0587  0.0368
36591SOL    HW212153   1.432   6.634   7.338  3.2014 -1.0936  2.9932
36592SOL     OW12154  10.500   8.234   7.269 -0.2730  0.3181 -0.1670
36592SOL    HW112155  10.527   8.301   7.331  2.3895 -0.6943 -0.0974
36592SOL    HW212156  10.464   8.164   7.324 -1.3698  0.9200 -0.0998
36593SOL     OW12157   5.811   3.241   7.806 -0.1266 -0.0377  0.5002
36593SOL    HW112158   5.809   3.192   7.888 -0.4657  0.7030  0.9403
36593SOL    HW212159   5.738   3.205   7.755 -0.1947 -0.1850  0.7018
36594SOL     OW12160   2.319   7.321   0.834 -0.5949 -0.1118  0.4272
36594SOL    HW112161   2.240   7.375   0.830 -1.0306 -0.7861 -0.4876
36594SOL    HW212162   2.342   7.319   0.926 -1.1154  0.8595  0.5882
36595SOL     OW12163   5.129   8.993   1.325  0.0867 -0.3440  0.1348
36595SOL    HW112164   5.107   8.902   1.307  0.3712 -0.4911  0.5434
36595SOL    HW212165   5.067   9.020   1.393 -0.2596 -0.1073 -0.2598
36596SOL     OW12166  10.557   9.406   1.930  0.4647 -0.2744 -0.0044
36596SOL    HW112167  10.620   9.456   1.981  0.3873  0.8166 -0.9411
36596SOL    HW212168  10.598   9.320   1.919  0.2484 -0.7396  2.3013
36597SOL     OW12169   9.733  10.492   4.128  0.0196  0.4358  0.4296
36597SOL    HW112170   9.695  10.576   4.103  0.7420  0.9137  0.9099
36597SOL    HW212171   9.765  10.454   4.047 -1.7204 -0.1119 -0.0392
36598SOL     OW12172   8.149   4.432   7.471  0.5005 -0.2715 -0.0806
36598SOL    HW112173   8.085   4.421   7.541  1.2093 -1.5348  0.4103
36598SOL    HW212174   8.181   4.522   7.482 -1.9802  0.8123 -1.0836
36599SOL     OW12175   8.864   6.206   3.816  0.1077 -0.4018 -0.2435
36599SOL    HW112176   8.953   6.178   3.838 -0.2678  0.2330  2.4764
36599SOL    HW212177   8.863   6.300   3.836 -0.5189  0.1712 -2.6907
36600SOL     OW12178   6.798   6.567  10.174  0.0942  0.3648  0.3327
36600SOL    HW112179   6.820   6.592  10.263  1.8465 -1.5157  0.5012
36600SOL    HW212180   6.815   6.646  10.122  0.1364  1.1382  1.4939
36601SOL     OW12181   4.700   3.523   6.050 -0.3927  0.4421 -0.1419
36601SOL    HW112182   4.715   3.588   6.118 -0.0751 -0.7621  0.9675
36601SOL    HW212183   4.788   3.499   6.021 -0.4168 -0.7951  0.7399
36602SOL     OW12184   7.797   6.534   6.371  0.1108  0.4129  0.0487
36602SOL    HW112185   7.732   6.470   6.341 -0.4924  1.1972 -0.3405
36602SOL    HW212186   7.834   6.570   6.291 -0.2186  1.2136  0.2496
36603SOL     OW12187   4.106   3.999   3.072  0.2921 -0.2143 -0.2182
36603SOL    HW112188   4.160   4.067   3.032  0.1287 -0.5891 -1.1087
36603SOL    HW212189   4.016   4.033   3.065  0.0623 -1.0474 -1.8512
36604SOL     OW12190   3.133   6.265   7.583  0.3290  0.0179 -0.0668
36604SOL    HW112191   3.075   6.223   7.519  1.2580 -2.0836  0.4043
36604SOL    HW212192   3.077   6.330   7.625 -1.2897 -0.9469 -0.6193
36605SOL     OW12193   3.392   3.661   1.746  0.0656  0.2507 -0.2129
36605SOL    HW112194   3.444   3.739   1.728  0.1742  0.1356 -0.3983
36605SOL    HW212195   3.305   3.695   1.769 -0.3170  0.3742 -1.7613
36606SOL     OW12196   2.356   3.453   9.215 -0.3179  0.3750  0.2220
36606SOL    HW112197   2.260   3.450   9.217 -0.3221 -0.5364 -0.4650
36606SOL    HW212198   2.383   3.394   9.285 -0.2923 -0.7367 -0.6818
36607SOL     OW12199   3.134  10.091  10.142  0.1573 -0.3292  0.2043
36607SOL    HW112200   3.215  10.094  10.091  0.8637 -0.6618  1.2681
36607SOL    HW212201   3.143  10.014  10.197 -0.9687 -0.4606  0.2338
36608SOL     OW12202   3.354   2.640   5.540 -0.5179 -0.2194  0.1099
36608SOL    HW112203   3.441   2.609   5.565  0.0581  0.6020 -0.8173
36608SOL    HW212204   3.371   2.711   5.477 -1.7727  1.7102  1.8222
36609SOL     OW12205   0.391   1.233   0.841 -0.6791 -0.0960  0.0644
36609SOL    HW112206   0.346   1.149   0.848 -0.4427 -0.4631 -2.1090
36609SOL    HW212207   0.480   1.214   0.872 -0.7285 -0.5676 -0.0672
36610SOL     OW12208   3.563   8.196   2.834  0.4764 -0.1973 -0.4028
36610SOL    HW112209   3.500   8.202   2.763 -0.3840 -0.1426  0.3495
36610SOL    HW212210   3.648   8.205   2.791  0.0139 -0.8797 -1.5020
36611SOL     OW12211   4.081   7.460   2.634 -0.0191 -0.1094  0.0029
36611SOL    HW112212   4.026   7.451   2.712  0.2754 -0.5258  0.1703
36611SOL    HW212213   4.167   7.427   2.661  0.3120  0.5215 -0.2584
36612SOL     OW12214   4.603   9.434   9.058 -0.9987  0.0262 -0.4031
36612SOL    HW112215   4.569   9.344   9.066 -0.0522 -0.4569 -1.5349
36612SOL    HW212216   4.584   9.474   9.143  0.7499 -2.0256  1.0675
36613SOL     OW12217   3.157   4.682   3.679 -0.1672 -0.3793  0.1799
36613SOL    HW112218   3.107   4.693   3.760 -0.5147 -0.2341 -0.0540
36613SOL    HW212219   3.126   4.600   3.642  0.9665 -1.1561  0.8790
36614SOL     OW12220   6.907   1.150  10.613  0.1393  0.5148 -0.1388
36614SOL    HW112221   6.955   1.092  10.671 -1.0348  1.3475  1.7631
36614SOL    HW212222   6.956   1.232  10.614 -0.0710  0.6409 -0.0342
36615SOL     OW12223   2.123   7.418   1.968 -0.1047 -0.4228  0.0430
36615SOL    HW112224   2.030   7.441   1.969 -0.3883 -1.5326  1.5468
36615SOL    HW212225   2.168   7.502   1.954 -1.3286 -0.0696 -2.3574
36616SOL     OW12226   6.362  10.267   5.946  0.1309 -0.0138  0.2631
36616SOL    HW112227   6.390  10.320   6.021 -2.1448  1.2841  0.2806
36616SOL    HW212228   6.403  10.182   5.961  1.7763  0.9281  1.6253
36617SOL     OW12229   6.817   6.517   9.538  0.5916  0.0265 -0.1717
36617SOL    HW112230   6.735   6.525   9.586  0.8207  0.0372  0.2181
36617SOL    HW212231   6.852   6.431   9.564  0.8912  0.1870 -0.0429
36618SOL     OW12232   6.292   7.891   4.155  0.0686 -0.3271 -0.0205
36618SOL    HW112233   6.296   7.986   4.157 -0.4663 -0.3025  1.8843
36618SOL    HW212234   6.312   7.868   4.064  1.0161  1.5396 -0.3298
36619SOL     OW12235   8.920   7.380   0.482  0.5353 -0.1105  0.3442
36619SOL    HW112236   8.930   7.419   0.395  1.7787  0.1433  0.5810
36619SOL    HW212237   8.862   7.306   0.468  2.1170 -1.1678 -1.0630
36620SOL     OW12238   5.892   6.727   6.662 -0.4712 -0.2875 -0.0502
36620SOL    HW112239   5.846   6.719   6.578  0.1167 -0.7195 -0.3462
36620SOL    HW212240   5.842   6.672   6.722  0.1504 -1.5142 -0.5982
36621SOL     OW12241   5.009   5.135   5.317  0.0298 -0.8004  0.6099
36621SOL    HW112242   5.100   5.161   5.310 -0.0205 -0.1485  2.0117
36621SOL    HW212243   4.960   5.217   5.321 -0.6349 -1.1416 -0.2594
36622SOL     OW12244  10.032   9.222   0.170  0.6953  0.3677  0.4609
36622SOL    HW112245   9.980   9.213   0.090 -0.1079 -0.0941  1.0106
36622SOL    HW212246  10.065   9.133   0.187  0.6263  0.4045  0.7880
36623SOL     OW12247   0.038   6.416   1.279 -0.1901  0.3897  0.1530
36623SOL    HW112248   0.079   6.462   1.205 -1.1895  2.0226  0.5586
36623SOL    HW212249   0.044   6.323   1.256  1.0179  0.7657 -1.1808
36624SOL     OW12250  10.724   2.579  10.690 -1.1454  0.3162 -0.6064
36624SOL    HW112251  10.727   2.510  10.756 -0.0169  0.3164 -0.6456
36624SOL    HW212252  10.673   2.541  10.619 -1.5391 -0.0433 -0.1434
36625SOL     OW12253   6.198   1.945  10.347 -0.3952  0.5009  0.2166
36625SOL    HW112254   6.285   1.969  10.315  0.6520 -0.8784  1.8752
36625SOL    HW212255   6.172   1.871  10.292 -0.6497  1.0738 -0.4461
36626SOL     OW12256   5.467   6.416   5.496 -0.2808 -0.0075  0.4836
36626SOL    HW112257   5.384   6.412   5.448 -0.8010  0.8625  1.2753
36626SOL    HW212258   5.463   6.499   5.543  1.7828  0.8800 -0.7821
36627SOL     OW12259   4.344   7.484   3.853 -0.3564 -0.0561 -0.1117
36627SOL    HW112260   4.280   7.415   3.835 -0.9487  0.8902 -2.0019
36627SOL    HW212261   4.373   7.512   3.766  2.6607 -0.4323  0.6953
36628SOL     OW12262   7.594   3.860   5.364  0.2412 -0.0598 -0.0422
36628SOL    HW112263   7.586   3.826   5.276 -1.3361 -1.3645  0.5661
36628SOL    HW212264   7.660   3.805   5.406  1.3889  0.9011 -0.5256
36629SOL     OW12265   2.739   6.498   6.517 -0.8253  0.0587 -0.5619
36629SOL    HW112266   2.654   6.488   6.559 -0.7822  0.3592 -0.4038
36629SOL    HW212267   2.782   6.569   6.565 -0.7548  0.3706 -1.0695
36630SOL     OW12268   8.022   5.108   1.494  0.0392  0.3143  0.5839
36630SOL    HW112269   7.987   5.021   1.474  0.3636  0.7910 -2.4187
36630SOL    HW212270   7.995   5.124   1.585 -0.5139 -2.6538  1.0433
36631SOL     OW12271   7.369   5.527   8.569 -0.2807 -0.4818 -0.1901
36631SOL    HW112272   7.404   5.608   8.605  1.4431 -0.3669 -1.9497
36631SOL    HW212273   7.351   5.472   8.645 -1.3867  1.4646  1.0334
36632SOL     OW12274  10.099   7.480   7.691 -0.5718  0.2149  0.3531
36632SOL    HW112275  10.137   7.401   7.654 -1.7275 -0.1150 -0.1718
36632SOL    HW212276  10.014   7.489   7.647 -0.5871  1.5813  0.6151
36633SOL     OW12277   1.203   4.756   9.449  0.3515 -0.1987 -0.0526
36633SOL    HW112278   1.154   4.820   9.501  1.2917  0.2242  0.3379
36633SOL    HW212279   1.276   4.731   9.505 -0.2152 -1.9524 -0.0280
36634SOL     OW12280   5.259   2.371   3.909  0.3546  0.0836 -0.1845
36634SOL    HW112281   5.286   2.311   3.980 -0.5995 -0.7981 -0.5327
36634SOL    HW212282   5.175   2.406   3.939  0.0773 -0.0888 -0.7571
36635SOL     OW12283   2.779   3.163   0.582 -0.1012 -0.3660 -0.1146
36635SOL    HW112284   2.720   3.192   0.513  1.2782 -0.7396 -1.5098
36635SOL    HW212285   2.753   3.073   0.599 -0.8638 -0.0709  0.3420
36636SOL     OW12286   2.363   6.461   7.213 -0.1223  0.0625  0.4895
36636SOL    HW112287   2.426   6.468   7.284 -1.5976 -2.6839  2.2904
36636SOL    HW212288   2.396   6.389   7.159  0.0131  0.8779 -0.5303
36637SOL     OW12289   9.144   8.972   7.557  0.1945 -0.5579  0.1677
36637SOL    HW112290   9.166   8.880   7.574 -0.5439 -0.4558  1.8025
36637SOL    HW212291   9.225   9.020   7.577  1.0333 -0.9351 -2.0567
36638SOL     OW12292   1.969   2.131   6.392 -0.7482 -0.0148 -0.2398
36638SOL    HW112293   2.045   2.075   6.373 -0.9202  0.4236 -2.3862
36638SOL    HW212294   1.940   2.102   6.479  0.7942 -1.3966 -0.1317
36639SOL     OW12295   5.384  10.323   3.637  0.0614  0.5111  0.3080
36639SOL    HW112296   5.403  10.250   3.578 -0.7572  0.3339  0.2446
36639SOL    HW212297   5.301  10.299   3.678  1.3788 -0.1331  2.7653
36640SOL     OW12298   7.054   5.161   4.477 -0.0789  0.5456  0.0307
36640SOL    HW112299   7.081   5.097   4.412 -1.7757 -0.1033 -0.0828
36640SOL    HW212300   7.085   5.245   4.443  0.0231  0.0843 -1.0501
36641SOL     OW12301   5.866   9.203   2.823 -0.0843  0.0109  0.3095
36641SOL    HW112302   5.873   9.151   2.903  1.0722  1.2262  1.0314
36641SOL    HW212303   5.875   9.293   2.852 -0.6496  0.5517 -1.0902
36642SOL     OW12304   1.692   0.671   3.569  0.1723 -0.1221  0.5120
36642SOL    HW112305   1.621   0.735   3.567  1.4272  1.5009  3.0215
36642SOL    HW212306   1.738   0.684   3.486 -1.4474 -0.0489 -0.4159
36643SOL     OW12307   0.697   8.713   1.446 -0.3129 -0.1958 -0.0703
36643SOL    HW112308   0.622   8.662   1.416  0.0115 -0.4739 -0.4159
36643SOL    HW212309   0.679   8.729   1.539 -2.1846  2.1807 -0.7532
36644SOL     OW12310   8.834   0.727   1.107  0.0866 -0.1377 -0.0479
36644SOL    HW112311   8.763   0.790   1.121 -0.6889 -0.3693 -2.4706
36644SOL    HW212312   8.914   0.776   1.130 -0.5651  1.4912 -1.0161
36645SOL     OW12313   2.412   2.631   9.322 -0.0861  0.6298  0.1211
36645SOL    HW112314   2.368   2.546   9.311 -0.1840  0.6665  0.2261
36645SOL    HW212315   2.415   2.643   9.417  0.1767  0.6145  0.1147
36646SOL     OW12316   7.825   9.344   3.062  0.1525 -0.1662  0.0411
36646SOL    HW112317   7.822   9.440   3.060 -0.3636 -0.1781 -1.3923
36646SOL    HW212318   7.755   9.317   3.002  0.0485 -1.4521  0.7056
36647SOL     OW12319   1.468   3.000   8.838 -0.6603  0.1229 -0.0658
36647SOL    HW112320   1.405   3.057   8.880  0.2999  0.6527  0.6871
36647SOL    HW212321   1.475   2.924   8.897 -0.2618  0.2787  0.0924
36648SOL     OW12322   0.388   0.387   0.505  0.6671 -0.0415  0.2033
36648SOL    HW112323   0.424   0.308   0.546 -0.3243 -0.3886  0.4194
36648SOL    HW212324   0.425   0.387   0.417  3.2213  0.9695  1.1770
36649SOL     OW12325   2.817   4.949   2.558  0.0723 -0.1059 -0.0990
36649SOL    HW112326   2.845   4.972   2.469  1.5309  2.7388  0.9790
36649SOL    HW212327   2.866   4.869   2.578 -0.6060 -1.0454 -1.9391
36650SOL     OW12328   9.817   9.015   0.361 -0.0471  0.0593  0.4286
36650SOL    HW112329   9.879   9.088   0.361 -0.9674  0.8594 -0.6136
36650SOL    HW212330   9.821   8.979   0.273 -0.1344 -0.7110  0.7273
36651SOL     OW12331   9.561   7.777   3.672 -0.9340  0.1937 -0.0967
36651SOL    HW112332   9.628   7.727   3.719 -1.1206 -2.0443 -2.0151
36651SOL    HW212333   9.574   7.868   3.700  1.2025 -0.5330  1.5248
36652SOL     OW12334   8.569   7.803   2.562 -0.0062 -0.1780  0.1821
36652SOL    HW112335   8.628   7.728   2.572 -0.7876 -0.7213  0.8678
36652SOL    HW212336   8.537   7.820   2.650 -0.5850  0.3616 -0.1241
36653SOL     OW12337   3.165  10.157   9.269  0.2810  0.0066 -0.3184
36653SOL    HW112338   3.111  10.236   9.276  1.1079  0.8263 -2.3925
36653SOL    HW212339   3.104  10.085   9.286 -1.1239  0.9699 -1.0231
36654SOL     OW12340   7.278  10.231   1.272 -0.0191  0.1146 -0.7559
36654SOL    HW112341   7.289  10.136   1.281 -3.9940 -0.4504 -0.2748
36654SOL    HW212342   7.291  10.247   1.178 -1.9995 -1.4363 -1.3605
36655SOL     OW12343   1.496   0.181   8.543 -0.3551 -0.0532 -0.7127
36655SOL    HW112344   1.512   0.252   8.605 -2.2472  2.0696 -2.4535
36655SOL    HW212345   1.583   0.159   8.510  0.3433  1.1408  0.2262
36656SOL     OW12346  10.540   8.403   8.370 -0.0379 -0.6995 -0.0930
36656SOL    HW112347  10.485   8.455   8.429  0.0195  0.3609 -0.9441
36656SOL    HW212348  10.624   8.396   8.416 -0.0968 -0.1845  0.0984
36657SOL     OW12349   1.339  10.113   0.306 -0.1213 -0.1958 -0.1882
36657SOL    HW112350   1.417  10.100   0.360 -0.2509  0.6028  0.2115
36657SOL    HW212351   1.266  10.114   0.368 -0.5322 -1.5322 -0.6171
36658SOL     OW12352   9.268  10.566   0.809  0.0921  0.2931 -0.8163
36658SOL    HW112353   9.332  10.516   0.859  1.2603  2.7825  0.3510
36658SOL    HW212354   9.190  10.568   0.864  0.4601  0.7722 -0.3066
36659SOL     OW12355   0.211   4.288   7.617 -0.3781  0.5531  0.2463
36659SOL    HW112356   0.302   4.266   7.597 -0.6557 -0.3165 -0.0859
36659SOL    HW212357   0.175   4.210   7.660 -1.0271  0.7965  0.1662
36660SOL     OW12358   2.414   4.550   7.920 -0.2254  0.0880  0.5639
36660SOL    HW112359   2.429   4.641   7.892 -0.0284 -0.3170 -0.7526
36660SOL    HW212360   2.478   4.499   7.869 -0.9659 -0.8758  0.5727
36661SOL     OW12361   0.479   1.949   0.212  0.0598  0.2637  0.5038
36661SOL    HW112362   0.452   1.876   0.157  2.9676 -1.6170  1.3651
36661SOL    HW212363   0.445   2.027   0.167 -3.7597 -1.4942 -0.1129
36662SOL     OW12364   7.189   1.470   9.778 -0.4344  0.2183 -0.2030
36662SOL    HW112365   7.268   1.428   9.811 -0.0200  1.4643  0.4394
36662SOL    HW212366   7.163   1.417   9.703  1.6675  0.4434 -1.1528
36663SOL     OW12367   2.816   1.852   4.649 -0.1810 -0.1795 -0.1848
36663SOL    HW112368   2.725   1.826   4.636 -0.3155  0.6529 -1.0459
36663SOL    HW212369   2.831   1.842   4.743 -1.7189  1.3583  0.2755
36664SOL     OW12370  10.181   9.192   9.111  0.7149 -0.3520 -0.2642
36664SOL    HW112371  10.160   9.099   9.100  3.2194 -0.9084 -1.0616
36664SOL    HW212372  10.256   9.192   9.171  0.3316  1.2362  0.2587
36665SOL     OW12373   1.691   7.903  10.569 -0.3841 -0.0959 -0.3846
36665SOL    HW112374   1.727   7.907  10.658  0.2162 -0.7838 -0.5926
36665SOL    HW212375   1.620   7.968  10.569 -1.2970 -1.0604  0.9939
36666SOL     OW12376   2.423   8.543   8.487 -0.7800  0.8744  0.1886
36666SOL    HW112377   2.511   8.556   8.522 -0.2653 -0.1732 -0.6547
36666SOL    HW212378   2.411   8.448   8.486 -1.2409  0.9181 -1.2642
36667SOL     OW12379   1.039   4.407   6.329 -0.1055 -0.2560  0.0124
36667SOL    HW112380   1.110   4.345   6.316  1.6701  1.5928  0.4094
36667SOL    HW212381   0.982   4.366   6.393  0.7836 -1.6361 -0.0520
36668SOL     OW12382   3.652   5.342   1.059 -0.5405 -0.2662 -0.2920
36668SOL    HW112383   3.583   5.275   1.068 -0.9255  0.3823  2.3479
36668SOL    HW212384   3.718   5.316   1.122 -0.1122  1.1831 -0.1286
36669SOL     OW12385   2.944   6.640  10.479  0.5598  0.3909  0.7477
36669SOL    HW112386   2.975   6.729  10.495 -0.7731  0.9034  0.5396
36669SOL    HW212387   2.901   6.615  10.561  1.6828 -0.4049  1.1158
36670SOL     OW12388   6.634   8.808   4.505  1.0743 -0.1332 -0.1872
36670SOL    HW112389   6.727   8.830   4.516  1.5558  0.1951 -3.7287
36670SOL    HW212390   6.604   8.865   4.434 -1.7428 -0.5891  0.5158
36671SOL     OW12391   5.840   8.091   8.522  0.0386  0.6608  0.5150
36671SOL    HW112392   5.763   8.123   8.570  1.7678  2.5827  2.1713
36671SOL    HW212393   5.887   8.037   8.586  0.8443  0.7642  0.0198
36672SOL     OW12394   3.986   4.764   0.868  0.5960  0.0651 -0.0238
36672SOL    HW112395   4.053   4.795   0.807 -1.1797 -0.5345 -2.4219
36672SOL    HW212396   3.988   4.668   0.859 -0.6682  0.0464 -0.2580
36673SOL     OW12397   6.793   6.877  10.657 -0.0579 -0.0528 -0.0452
36673SOL    HW112398   6.763   6.913  10.740  1.4235 -0.9306  0.9112
36673SOL    HW212399   6.717   6.830  10.623 -0.1333 -1.4096  1.8344
36674SOL     OW12400   3.435   8.777   3.946 -0.3466  0.4885  0.3901
36674SOL    HW112401   3.514   8.826   3.928  1.7187 -2.3379  1.0390
36674SOL    HW212402   3.448   8.742   4.035 -1.4867 -1.4118 -0.1189
36675SOL     OW12403   3.652   2.525   0.162 -0.3613  0.3349  0.4724
36675SOL    HW112404   3.588   2.455   0.150  0.0631 -0.0757  0.5522
36675SOL    HW212405   3.709   2.520   0.085  0.5068 -0.3155  1.1359
36676SOL     OW12406   1.922   5.500   5.640 -0.4877  0.4645 -0.1270
36676SOL    HW112407   1.836   5.536   5.618 -1.4719 -1.8831 -0.4332
36676SOL    HW212408   1.907   5.451   5.722  0.0562 -1.4855 -1.1238
36677SOL     OW12409   4.408   9.655   1.874  0.3755 -0.4255  0.5225
36677SOL    HW112410   4.340   9.652   1.942 -0.4492  0.1144 -0.2519
36677SOL    HW212411   4.428   9.749   1.866 -1.8714 -0.0229 -2.1726
36678SOL     OW12412   3.526  10.174   7.287 -0.1559 -0.2433 -0.3956
36678SOL    HW112413   3.553  10.186   7.196 -0.9488  0.7309 -0.5054
36678SOL    HW212414   3.450  10.230   7.299  1.5193  1.7993  1.6219
36679SOL     OW12415   6.863  10.188   0.707  0.1753  0.0029  0.2143
36679SOL    HW112416   6.881  10.205   0.800 -0.3943  0.0247  0.3217
36679SOL    HW212417   6.875  10.093   0.698 -0.0933 -0.0491  0.3850
36680SOL     OW12418   3.263   9.263   7.150 -0.4661  0.1930 -0.2541
36680SOL    HW112419   3.250   9.321   7.224 -0.0402 -0.7567  0.5855
36680SOL    HW212420   3.276   9.321   7.075 -0.5938  1.1606  0.4687
36681SOL     OW12421   8.026   9.376   5.046 -0.1561  0.2631 -0.0248
36681SOL    HW112422   8.023   9.322   5.125 -3.1827  0.0325 -0.1925
36681SOL    HW212423   8.008   9.315   4.975  0.7146  0.7958 -0.7223
36682SOL     OW12424   2.861   3.839   1.846 -0.3251  0.4650 -0.3157
36682SOL    HW112425   2.846   3.923   1.802  1.6471  1.2630  0.4399
36682SOL    HW212426   2.829   3.853   1.935 -1.5114 -0.1639 -0.6189
36683SOL     OW12427   0.565   9.489   8.113 -0.1346 -0.5951 -0.2682
36683SOL    HW112428   0.651   9.511   8.148  0.9465 -1.6051 -2.0955
36683SOL    HW212429   0.511   9.565   8.132  0.8551 -0.3563  1.8416
36684SOL     OW12430   8.715   9.148   2.671 -0.0304  0.6058 -0.2272
36684SOL    HW112431   8.660   9.207   2.723 -0.0430  0.8845 -0.5541
36684SOL    HW212432   8.671   9.144   2.586 -1.2663 -1.6197  0.4494
36685SOL     OW12433   5.433   7.456   8.435 -0.5612 -0.0397 -0.1730
36685SOL    HW112434   5.406   7.517   8.367 -0.4256 -1.0720 -1.1649
36685SOL    HW212435   5.497   7.399   8.393 -0.7055 -0.9000  0.7289
36686SOL     OW12436   2.109   1.152   3.436 -0.2007  0.2621  0.0489
36686SOL    HW112437   2.144   1.118   3.518 -0.8823 -2.2306 -0.6149
36686SOL    HW212438   2.187   1.175   3.384  0.2528  0.6110  0.8665
36687SOL     OW12439  10.672   2.553   3.159 -0.4853 -0.5574  0.1555
36687SOL    HW112440  10.613   2.587   3.093 -0.1361 -1.9182 -0.8978
36687SOL    HW212441  10.689   2.628   3.217 -0.6859  0.7100 -1.3577
36688SOL     OW12442   7.293   1.991   2.342  0.7074 -0.2666 -0.0446
36688SOL    HW112443   7.248   1.926   2.287  0.2590  0.0998 -0.1184
36688SOL    HW212444   7.302   1.948   2.427  0.6398 -0.5170 -0.1609
36689SOL     OW12445   7.426   1.163   2.748 -0.0337  0.0734 -0.0564
36689SOL    HW112446   7.464   1.234   2.800  0.1840 -0.0663 -0.0216
36689SOL    HW212447   7.495   1.138   2.687  0.6283 -1.4193  1.2247
36690SOL     OW12448   3.423   5.059   8.271 -0.1207 -0.3376  0.0799
36690SOL    HW112449   3.367   5.010   8.333 -1.0662 -0.3066 -0.7278
36690SOL    HW212450   3.377   5.053   8.188  0.9442 -0.0361 -0.5433
36691SOL     OW12451   5.323   0.450  10.181  0.4520 -0.4422  0.1149
36691SOL    HW112452   5.376   0.441  10.102 -0.2101 -0.7015 -0.3130
36691SOL    HW212453   5.330   0.364  10.224  2.5489  0.3321  1.4968
36692SOL     OW12454   1.578   5.870  10.193 -0.3485  0.4221  0.6917
36692SOL    HW112455   1.609   5.949  10.236  1.9657 -0.3312  0.5757
36692SOL    HW212456   1.647   5.806  10.209  0.5441 -0.0396 -3.7466
36693SOL     OW12457   9.223   3.100   7.027 -0.7079 -0.1303 -0.5921
36693SOL    HW112458   9.266   3.074   7.108  0.3091  1.4555 -0.5767
36693SOL    HW212459   9.288   3.085   6.959 -0.9373  0.1236 -0.8708
36694SOL     OW12460  10.246   3.052   9.158 -0.0875 -0.3085  0.5061
36694SOL    HW112461  10.335   3.088   9.152  0.1215 -0.5966  1.5666
36694SOL    HW212462  10.247   2.975   9.102  0.3355 -0.3009  0.5012
36695SOL     OW12463   1.695   1.028   7.565  0.6637  0.0288  0.4418
36695SOL    HW112464   1.773   0.984   7.598 -0.2582 -1.8338  0.2121
36695SOL    HW212465   1.625   1.004   7.626 -0.0348  0.5707 -0.1158
36696SOL     OW12466   3.216   5.627   8.398 -0.2163  0.0305 -0.6617
36696SOL    HW112467   3.297   5.609   8.350 -0.1760 -0.5333 -0.3960
36696SOL    HW212468   3.231   5.711   8.441  0.3770 -0.2467 -0.3142
36697SOL     OW12469  10.521  10.366   6.642 -0.4321  0.4794  0.3361
36697SOL    HW112470  10.521  10.311   6.721  1.7062 -2.9184 -1.7902
36697SOL    HW212471  10.454  10.327   6.586  0.5758  0.4947 -0.9237
36698SOL     OW12472   0.004   2.800   6.144 -0.2791 -0.2250 -0.1948
36698SOL    HW112473   0.047   2.854   6.078 -0.2686 -0.6120 -0.5093
36698SOL    HW212474   0.075   2.751   6.185 -0.4253 -0.9710 -0.8135
36699SOL     OW12475   9.733   5.932   5.466 -0.5990  0.0728  0.3372
36699SOL    HW112476   9.798   5.944   5.535 -0.2607 -0.8184  0.1890
36699SOL    HW212477   9.649   5.950   5.509 -0.2863  0.8808  0.6196
36700SOL     OW12478   0.191   5.834   5.837  0.8090  0.4962 -0.4293
36700SOL    HW112479   0.206   5.877   5.753  1.9617  0.8626 -0.0568
36700SOL    HW212480   0.099   5.805   5.834  0.8477  0.4669 -1.8152
36701SOL     OW12481   7.475   8.915   1.630 -0.2378 -0.4333 -0.3413
36701SOL    HW112482   7.413   8.938   1.560 -0.1185 -0.2723 -0.3955
36701SOL    HW212483   7.449   8.971   1.704  1.4069  1.5399 -1.1501
36702SOL     OW12484   0.123   3.168   9.324  0.2311  0.0775  0.1105
36702SOL    HW112485   0.054   3.141   9.384  0.1039 -0.2061 -0.1646
36702SOL    HW212486   0.078   3.194   9.244  0.4910 -0.9289 -0.3772
36703SOL     OW12487   3.143   0.110   1.327 -0.4880 -0.0498  0.0452
36703SOL    HW112488   3.223   0.160   1.338  0.3593 -1.5293  0.9975
36703SOL    HW212489   3.073   0.168   1.356  0.3314  0.9522  0.0501
36704SOL     OW12490   3.101  10.773   1.604  0.5070 -0.1650 -0.2547
36704SOL    HW112491   3.084  10.801   1.514  0.5717 -1.6843 -0.7679
36704SOL    HW212492   3.185  10.813   1.626  0.1303  0.8417 -0.5819
36705SOL     OW12493  10.532   5.089   2.983 -0.3396  0.3621 -0.5301
36705SOL    HW112494  10.624   5.090   3.008 -0.4119 -2.7084  0.2865
36705SOL    HW212495  10.522   5.009   2.932 -2.5091  0.7573 -0.8228
36706SOL     OW12496   1.388   4.477   5.624 -0.4703 -0.0549 -0.0134
36706SOL    HW112497   1.300   4.442   5.606 -0.9377  1.2188 -0.3247
36706SOL    HW212498   1.372   4.559   5.669  0.5821  0.1281  0.0468
36707SOL     OW12499   9.542   9.996   8.470  0.1438 -0.1424  0.2973
36707SOL    HW112500   9.555  10.091   8.461  0.8057  0.0645  2.8024
36707SOL    HW212501   9.631   9.960   8.470 -0.1246 -0.9055 -1.3672
36708SOL     OW12502   8.230   1.272   4.017  0.0022  0.2161  0.0775
36708SOL    HW112503   8.268   1.268   4.105  1.2192 -1.3735 -0.4738
36708SOL    HW212504   8.198   1.184   4.000  2.0394 -0.2100 -1.9786
36709SOL     OW12505   7.991   2.346   3.128 -0.0893 -0.3323  0.0143
36709SOL    HW112506   7.926   2.344   3.058 -0.4525 -0.4125  0.3523
36709SOL    HW212507   8.062   2.290   3.096  0.5159  0.9651 -1.0164
36710SOL     OW12508   6.590   2.436   8.967  0.3704 -0.0391  0.1671
36710SOL    HW112509   6.636   2.394   8.894  0.0981  1.3778 -0.8736
36710SOL    HW212510   6.519   2.485   8.924  0.9737  1.8593  1.2499
36711SOL     OW12511  10.311   8.357   5.629 -0.1383 -0.0861 -0.3320
36711SOL    HW112512  10.309   8.266   5.601 -0.1828  0.0157 -0.6725
36711SOL    HW212513  10.396   8.368   5.671 -0.3676 -0.4315  0.2276
36712SOL     OW12514   4.560   9.294   2.632  0.2297 -0.2614  0.3897
36712SOL    HW112515   4.502   9.221   2.609  2.4296 -1.4477 -1.9296
36712SOL    HW212516   4.517   9.371   2.593  0.4054 -1.2018 -1.7955
36713SOL     OW12517   2.691   1.077   0.598  0.4642  0.7621 -0.1402
36713SOL    HW112518   2.693   1.168   0.629  1.2126  0.6566  0.1555
36713SOL    HW212519   2.716   1.082   0.506  2.0767  0.7204  0.2718
36714SOL     OW12520   1.280   4.092   9.692 -0.4647 -0.2004  0.0030
36714SOL    HW112521   1.213   4.143   9.736  0.7031  0.4823  1.0440
36714SOL    HW212522   1.231   4.025   9.643 -1.8626 -0.1469  1.2656
36715SOL     OW12523   8.237   0.623   5.317  0.1683  0.2657 -0.1134
36715SOL    HW112524   8.149   0.661   5.315  0.1064  0.0815 -1.3065
36715SOL    HW212525   8.296   0.698   5.308  0.2151  0.5377  1.8807
36716SOL     OW12526   2.150   7.285   4.937  0.1927 -0.6247 -0.4964
36716SOL    HW112527   2.223   7.346   4.943 -1.2154  1.1774 -0.9117
36716SOL    HW212528   2.171   7.230   4.861  1.6791 -0.9866  0.1457
36717SOL     OW12529   5.730   5.612  10.739 -0.1785  0.3548 -0.0120
36717SOL    HW112530   5.684   5.535  10.707  1.4665 -0.1805 -1.2675
36717SOL    HW212531   5.779   5.644  10.663  1.1928  1.0962  1.1176
36718SOL     OW12532   3.574   5.258   8.072 -0.5373 -0.1372  0.0988
36718SOL    HW112533   3.562   5.302   8.156  1.2538 -0.2939  0.4837
36718SOL    HW212534   3.558   5.327   8.007  0.4169  0.6554  0.6558
36719SOL     OW12535  10.338   6.250   7.239 -0.6423  0.1195  0.5502
36719SOL    HW112536  10.385   6.291   7.166  0.5860 -0.3401  1.0512
36719SOL    HW212537  10.346   6.156   7.223 -1.9567  0.0227  0.3244
36720SOL     OW12538   7.435   6.117   7.909  0.3237 -0.2043  0.0193
36720SOL    HW112539   7.379   6.051   7.867  0.6414  0.4578 -1.4953
36720SOL    HW212540   7.515   6.070   7.930 -0.1976 -0.7778  0.7784
36721SOL     OW12541   3.408  10.521   9.272  0.1391  0.0188 -0.1482
36721SOL    HW112542   3.411  10.426   9.257  1.4373 -0.5281  2.9056
36721SOL    HW212543   3.488  10.554   9.232  1.2603 -0.6884  1.4342
36722SOL     OW12544   1.264   7.613  10.367  0.4272 -0.3910  0.3983
36722SOL    HW112545   1.317   7.647  10.439  2.3994  1.5358 -1.7815
36722SOL    HW212546   1.215   7.689  10.335 -0.4051 -1.1881 -0.2982
36723SOL     OW12547   0.887   4.112  10.207 -0.4487  0.1162  0.0135
36723SOL    HW112548   0.923   4.102  10.119 -1.2410 -0.0698 -0.2976
36723SOL    HW212549   0.804   4.159  10.194 -0.2155  0.7522  0.7353
36724SOL     OW12550   2.380   5.448   8.971  0.0746  0.0333 -0.3319
36724SOL    HW112551   2.452   5.477   8.915  1.6991 -0.7803  1.2311
36724SOL    HW212552   2.377   5.353   8.959  1.1037 -0.2977  1.6084
36725SOL     OW12553   7.759   0.663   0.897  0.0103  0.1830  0.3808
36725SOL    HW112554   7.719   0.590   0.944 -0.1513 -0.4857 -0.7654
36725SOL    HW212555   7.777   0.629   0.809 -0.1882  1.5570 -0.2216
36726SOL     OW12556  10.204   5.593   4.474 -0.0924  0.2514 -0.4585
36726SOL    HW112557  10.249   5.520   4.517 -1.4458  0.3250  1.2118
36726SOL    HW212558  10.244   5.672   4.512 -0.4215  0.3427 -0.3028
36727SOL     OW12559   6.120   8.903   7.827 -0.1715  0.1787  0.0030
36727SOL    HW112560   6.035   8.923   7.788 -0.2287  0.4781  0.2795
36727SOL    HW212561   6.100   8.840   7.896 -0.0535 -0.4603 -0.5297
36728SOL     OW12562   5.118   0.099   9.079  0.6201 -0.1393 -0.3898
36728SOL    HW112563   5.172   0.149   9.140  0.6955  1.0531 -1.3831
36728SOL    HW212564   5.081   0.028   9.131 -0.5129  1.6773  1.4222
36729SOL     OW12565   5.189   8.687   6.881 -0.1499  0.2141 -0.0672
36729SOL    HW112566   5.204   8.762   6.938  0.0336 -0.0926  0.2901
36729SOL    HW212567   5.117   8.714   6.824  0.5303  1.0160 -0.5764
36730SOL     OW12568   0.254  10.736   1.132 -0.3839 -0.2555  0.4041
36730SOL    HW112569   0.276  10.673   1.064 -0.2993 -0.1857  0.3667
36730SOL    HW212570   0.161  10.752   1.121 -0.1332  0.6912 -0.4848
36731SOL     OW12571   3.293   6.304   4.553  0.0681 -0.2985  0.4280
36731SOL    HW112572   3.218   6.351   4.516  0.5489  1.3850  1.4472
36731SOL    HW212573   3.332   6.259   4.478 -0.7940  0.4482 -0.5093
36732SOL     OW12574   0.228   2.261   8.273 -0.1327  0.2806  0.5675
36732SOL    HW112575   0.256   2.351   8.284  0.7022 -0.0323  1.1473
36732SOL    HW212576   0.201   2.233   8.360  1.0240 -0.4623  0.7175
36733SOL     OW12577   6.136   2.704   6.837  0.0651  0.3660 -0.1195
36733SOL    HW112578   6.225   2.738   6.832  0.2048 -0.1082 -1.2266
36733SOL    HW212579   6.128   2.669   6.926  1.0386  0.2858 -0.0548
36734SOL     OW12580   1.231   5.036   2.778  1.4094  0.6008 -0.1569
36734SOL    HW112581   1.206   4.983   2.702 -2.0577  2.0687 -0.2551
36734SOL    HW212582   1.212   5.126   2.751 -1.5224  1.0811  2.8330
36735SOL     OW12583   6.021   1.251   3.469 -0.1688  0.7539 -0.0649
36735SOL    HW112584   5.929   1.246   3.496 -0.3305 -1.2766 -0.8292
36735SOL    HW212585   6.057   1.166   3.493  1.5532  1.5387  0.2657
36736SOL     OW12586   5.088   7.272   4.931  0.2814 -0.4502  0.1044
36736SOL    HW112587   5.080   7.234   5.019 -0.0546 -0.0060  0.2664
36736SOL    HW212588   5.000   7.268   4.895 -0.5407  3.0056  1.3040
36737SOL     OW12589   8.718   2.909   0.450  1.0839 -0.1632  0.8418
36737SOL    HW112590   8.701   2.958   0.370 -1.2119 -0.1843  1.2523
36737SOL    HW212591   8.733   2.819   0.421 -1.0598 -0.4494  0.4440
36738SOL     OW12592   5.662   5.284   8.045 -0.1396  0.1797  0.1417
36738SOL    HW112593   5.722   5.271   7.971 -0.8439 -1.6449 -0.1733
36738SOL    HW212594   5.704   5.238   8.118 -1.2213 -1.3590 -0.1525
36739SOL     OW12595   4.243   4.064   3.359  0.2192  0.2969 -0.3670
36739SOL    HW112596   4.199   4.088   3.277 -1.6110  0.3759  0.5859
36739SOL    HW212597   4.278   4.146   3.392 -4.5197  1.7302  2.0074
36740SOL     OW12598   0.447   3.716   4.326 -0.2851  0.1882 -0.3049
36740SOL    HW112599   0.476   3.761   4.405  0.6987  1.5873 -1.4177
36740SOL    HW212600   0.385   3.777   4.285  0.7848  0.4077 -1.6569
36741SOL     OW12601   8.446   7.621   2.737 -0.5138  0.6284 -0.8891
36741SOL    HW112602   8.459   7.633   2.831 -1.9193 -2.0176 -0.2808
36741SOL    HW212603   8.356   7.648   2.721 -1.2472 -1.5800 -0.8569
36742SOL     OW12604   4.994   2.922  10.508  0.4388 -0.1375 -1.2350
36742SOL    HW112605   4.953   2.978  10.442  2.2763  1.1307 -1.3753
36742SOL    HW212606   5.058   2.870  10.459  1.4796  0.4704 -0.5528
36743SOL     OW12607   9.082   3.034   4.632 -0.1938 -0.4709 -0.2433
36743SOL    HW112608   9.154   2.973   4.616 -0.5722 -1.4703  1.5138
36743SOL    HW212609   9.112   3.117   4.597  1.3324 -1.1441 -0.6025
36744SOL     OW12610   1.758   6.824  10.575  0.5040 -0.1238 -0.0247
36744SOL    HW112611   1.838   6.788  10.537  0.8033  0.3154  0.1746
36744SOL    HW212612   1.785   6.857  10.660 -0.0291 -0.5372  0.3094
36745SOL     OW12613   4.334   2.994   0.844  0.4709 -0.4788  0.3330
36745SOL    HW112614   4.426   3.017   0.859  0.3633  0.3746 -0.2932
36745SOL    HW212615   4.305   2.957   0.928  1.0640  0.3020  0.8931
36746SOL     OW12616   2.268   7.285   6.163 -0.1351  0.4347 -0.2124
36746SOL    HW112617   2.345   7.293   6.220 -0.4251  1.8166  0.0137
36746SOL    HW212618   2.232   7.373   6.158 -2.1006 -0.2853  0.2260
36747SOL     OW12619   1.964   6.022   4.685 -0.4182 -0.6383 -0.8419
36747SOL    HW112620   1.910   5.959   4.638 -0.6487 -0.4206 -0.8761
36747SOL    HW212621   2.017   5.970   4.745  0.2812 -0.9740 -1.7354
36748SOL     OW12622   3.764   6.508   6.348  0.1056 -0.1018  0.1915
36748SOL    HW112623   3.783   6.572   6.415 -0.2094  0.3079 -0.1046
36748SOL    HW212624   3.727   6.559   6.275  2.3035 -0.2268 -1.1087
36749SOL     OW12625   2.799   9.641   3.922  0.7005 -0.1890 -0.1969
36749SOL    HW112626   2.727   9.610   3.868  1.4551 -1.4607 -0.5127
36749SOL    HW212627   2.868   9.663   3.859  1.8329 -2.3256  0.2135
36750SOL     OW12628   5.213   6.547   8.213  0.1048  0.3161  0.3802
36750SOL    HW112629   5.265   6.469   8.232 -0.0874  0.0521 -0.1291
36750SOL    HW212630   5.227   6.562   8.119 -0.8358  0.1581  0.2054
36751SOL     OW12631   5.584   3.933   8.594 -0.0344  0.3193  0.1747
36751SOL    HW112632   5.671   3.965   8.617  0.7726 -1.0563 -0.7963
36751SOL    HW212633   5.531   4.012   8.581  1.1433  1.1796  0.4806
36752SOL     OW12634   8.534   7.827   2.289  0.4832 -0.3895  0.3215
36752SOL    HW112635   8.569   7.844   2.377 -0.9675  0.5720  0.7459
36752SOL    HW212636   8.439   7.831   2.300  0.2836  0.5040 -1.4450
36753SOL     OW12637   2.694   0.015   7.991  0.5897 -0.8106  0.5475
36753SOL    HW112638   2.778   0.012   8.036  0.5565 -1.1536  0.5935
36753SOL    HW212639   2.647   0.088   8.031  0.4565 -1.2799  1.2583
36754SOL     OW12640   2.368  10.420   1.124 -0.0947  0.0564  0.0581
36754SOL    HW112641   2.428  10.475   1.073  0.3109 -0.6411 -0.2351
36754SOL    HW212642   2.376  10.454   1.214  1.0865 -0.2982  0.1062
36755SOL     OW12643   6.476   0.129   4.386 -0.2242  0.4010 -0.4963
36755SOL    HW112644   6.481   0.179   4.467  1.1478  1.4663 -1.1807
36755SOL    HW212645   6.403   0.167   4.338 -0.5900  0.2420 -0.0681
36756SOL     OW12646   2.828   4.047   4.860 -0.5702 -0.0507 -0.4747
36756SOL    HW112647   2.887   4.089   4.923 -1.7270  2.0537 -0.7183
36756SOL    HW212648   2.817   3.957   4.893  0.7966  0.2504  0.9109
36757SOL     OW12649   3.323   0.296   2.446  0.5798 -0.0079  0.4178
36757SOL    HW112650   3.384   0.234   2.486  1.0252  0.7032  0.8607
36757SOL    HW212651   3.379   0.367   2.413  0.0841  0.1463 -0.1019
36758SOL     OW12652   6.368   3.553   1.433  0.2665  0.1482 -0.3298
36758SOL    HW112653   6.392   3.604   1.511 -1.8604  0.7346  0.0007
36758SOL    HW212654   6.370   3.616   1.361 -2.5568  0.8792  0.1103
36759SOL     OW12655   7.454  10.626   1.733 -0.0169  0.5290  0.3363
36759SOL    HW112656   7.503  10.656   1.657  0.1796  0.1299  0.2996
36759SOL    HW212657   7.395  10.559   1.698 -1.1951  1.5859  0.2320
36760SOL     OW12658   4.652   2.732   6.396  0.0641  0.5100  0.0615
36760SOL    HW112659   4.722   2.754   6.457 -0.6022 -0.3999  1.1861
36760SOL    HW212660   4.691   2.668   6.336  0.4163  0.5972  0.1986
36761SOL     OW12661   8.721   5.760   3.652  0.0573 -0.5195  0.0653
36761SOL    HW112662   8.777   5.749   3.729  0.9950  0.1077 -0.5131
36761SOL    HW212663   8.782   5.765   3.578 -0.8220 -1.0804 -0.7264
36762SOL     OW12664   7.307   2.658  10.320 -0.2873  0.3990  0.1557
36762SOL    HW112665   7.299   2.659  10.225 -2.4123  0.4826  0.2787
36762SOL    HW212666   7.400   2.645  10.337 -0.0455 -1.0714 -1.9386
36763SOL     OW12667   3.644   7.746   4.986  0.5393  0.8189 -0.3186
36763SOL    HW112668   3.616   7.787   5.068  1.9294  1.4673 -0.1424
36763SOL    HW212669   3.634   7.815   4.920  0.9443  0.7999 -0.3989
36764SOL     OW12670   7.703   0.800   8.986  0.2929 -0.3991 -0.3774
36764SOL    HW112671   7.719   0.729   9.049 -0.6642 -0.8301 -0.5857
36764SOL    HW212672   7.637   0.763   8.926  0.3241  0.4176 -0.9240
36765SOL     OW12673  10.197   7.928   1.842 -0.5198 -0.2513 -0.2446
36765SOL    HW112674  10.283   7.971   1.843  0.2818 -1.7779 -0.2018
36765SOL    HW212675  10.134   7.999   1.833  0.8071  0.8270 -1.3326
36766SOL     OW12676   3.883   1.518   6.695  0.0328 -0.4142  0.2807
36766SOL    HW112677   3.973   1.509   6.729  0.7713  1.3739 -1.0364
36766SOL    HW212678   3.831   1.540   6.772  0.8878 -0.5551  0.9254
36767SOL     OW12679   8.446   5.019   2.824 -0.3085 -0.2966  0.0754
36767SOL    HW112680   8.510   5.088   2.836  2.2938 -2.6625  1.0111
36767SOL    HW212681   8.369   5.047   2.874  1.1448  1.2703  1.5334
36768SOL     OW12682   8.433   7.001  10.141  1.0202 -0.8400 -0.1357
36768SOL    HW112683   8.393   6.916  10.127 -1.5076  0.2826 -0.2269
36768SOL    HW212684   8.517   6.995  10.096  1.1412 -3.4001  0.2712
36769SOL     OW12685   5.067   9.750   9.737 -0.1897 -0.5541 -0.6181
36769SOL    HW112686   5.117   9.828   9.761  0.5379 -0.6101 -1.8474
36769SOL    HW212687   5.003   9.740   9.807  0.1298  0.7697 -0.0986
36770SOL     OW12688   2.133   2.955   6.771 -0.1925  0.2180 -0.3415
36770SOL    HW112689   2.111   2.891   6.704 -0.6181  1.1574 -1.1235
36770SOL    HW212690   2.128   2.907   6.853  0.7351 -1.0534 -0.9956
36771SOL     OW12691   0.629   3.132   5.222  0.1758  0.7579  0.1255
36771SOL    HW112692   0.559   3.178   5.175  0.8476 -0.0595 -1.7879
36771SOL    HW212693   0.669   3.075   5.155  1.5997 -0.0107  1.5685
36772SOL     OW12694   9.343  10.244   6.381 -0.8882 -0.1116  0.0574
36772SOL    HW112695   9.378  10.195   6.306 -0.6191  0.6000 -0.2980
36772SOL    HW212696   9.310  10.325   6.342  0.9131  1.0933  0.9345
36773SOL     OW12697   5.808   7.786   0.851  0.0005  0.2016 -0.7060
36773SOL    HW112698   5.824   7.733   0.928 -0.5177 -1.4798 -1.6951
36773SOL    HW212699   5.844   7.872   0.872  0.0723 -0.2831  1.2873
36774SOL     OW12700   2.498   4.881   7.284  0.4179  0.2758 -0.6081
36774SOL    HW112701   2.405   4.870   7.266  0.3003 -0.5047  0.3857
36774SOL    HW212702   2.510   4.976   7.290 -0.2988  0.3838 -0.8167
36775SOL     OW12703   5.356   5.337   6.840 -0.1363 -0.1454 -0.0709
36775SOL    HW112704   5.336   5.275   6.910 -0.6279  0.0623 -0.0277
36775SOL    HW212705   5.369   5.282   6.762 -1.5475 -0.2505 -0.2585
36776SOL     OW12706   1.934   7.872   3.308  0.2294 -0.2875 -0.2558
36776SOL    HW112707   2.024   7.894   3.334  0.1874 -0.1818 -0.1992
36776SOL    HW212708   1.879   7.926   3.365  0.1431  0.4824 -1.0515
36777SOL     OW12709   0.219   4.489  10.577  1.1317 -0.5126 -0.0665
36777SOL    HW112710   0.241   4.549  10.648  0.0377 -0.2487  0.0710
36777SOL    HW212711   0.143   4.528  10.535  1.6878 -0.7237 -1.3326
36778SOL     OW12712   3.166   1.795   6.034  0.6367  0.0835 -0.2292
36778SOL    HW112713   3.118   1.874   6.059  1.4830  1.0642 -1.5580
36778SOL    HW212714   3.192   1.756   6.117 -0.7103  0.6104  0.4739
36779SOL     OW12715   9.220   6.080   8.071 -0.6336 -0.0116  0.5896
36779SOL    HW112716   9.157   6.148   8.096 -0.2632  1.1893 -1.4745
36779SOL    HW212717   9.242   6.101   7.980  2.7793 -0.3652  1.2078
36780SOL     OW12718   2.368   0.884   8.457  0.3483  0.4193  0.3592
36780SOL    HW112719   2.395   0.875   8.549 -0.2960 -1.9746  0.3707
36780SOL    HW212720   2.290   0.830   8.449  1.3291 -0.7857 -1.9705
36781SOL     OW12721   0.312   4.772   2.202 -0.1305  0.1684  0.3964
36781SOL    HW112722   0.296   4.842   2.265 -2.0163 -0.4004  0.6306
36781SOL    HW212723   0.271   4.695   2.242  3.3012 -1.5422  0.9400
36782SOL     OW12724   9.240   2.867   8.948 -0.5933 -0.2344  0.1098
36782SOL    HW112725   9.193   2.900   9.025 -0.9281  0.6643 -0.4657
36782SOL    HW212726   9.170   2.838   8.889 -0.4674  1.3817 -0.8780
36783SOL     OW12727   8.218  10.200   8.154 -0.4465  0.2987 -0.3053
36783SOL    HW112728   8.235  10.279   8.104  0.8094 -0.5506 -1.2598
36783SOL    HW212729   8.164  10.146   8.097 -0.1626 -0.1054 -0.1945
36784SOL     OW12730   5.285   6.973   0.868 -0.1252 -0.6167 -0.2345
36784SOL    HW112731   5.217   7.005   0.927 -0.2099 -0.1244 -0.5932
36784SOL    HW212732   5.357   6.946   0.926  0.8713  2.2716  0.0503
36785SOL     OW12733   8.539   6.066  10.263  0.2990  0.3066 -0.0656
36785SOL    HW112734   8.527   5.972  10.278  2.5625 -0.5194 -2.6446
36785SOL    HW212735   8.632   6.075  10.242  0.1674  3.1813  0.1933
36786SOL     OW12736   2.210   9.391   4.620  0.4293  0.3315  0.2669
36786SOL    HW112737   2.118   9.396   4.595  0.3283  0.8299  0.7151
36786SOL    HW212738   2.228   9.298   4.630  0.1714  0.1856 -0.5278
36787SOL     OW12739   1.144   4.635   8.388 -0.6036 -0.2049 -0.1846
36787SOL    HW112740   1.226   4.676   8.359 -2.6025  1.8365 -3.7296
36787SOL    HW212741   1.105   4.698   8.447 -0.3376 -0.4821  0.2939
36788SOL     OW12742   2.868   8.840   3.888  0.7454  0.0981 -0.7265
36788SOL    HW112743   2.781   8.873   3.865  0.7024  0.6018  0.1291
36788SOL    HW212744   2.850   8.764   3.944  0.8592  0.3633 -0.3322
36789SOL     OW12745   4.018   9.183   8.540  0.0765  0.1720  0.0507
36789SOL    HW112746   3.978   9.245   8.601 -0.3633  0.7970 -0.8592
36789SOL    HW212747   4.072   9.127   8.596  0.2265  1.1599  0.9382
36790SOL     OW12748  10.482   8.600  10.193 -0.4050  0.1357 -0.3043
36790SOL    HW112749  10.455   8.510  10.209  1.9943 -0.9127 -1.6140
36790SOL    HW212750  10.576   8.601  10.213 -0.4684  2.4969  0.1740
36791SOL     OW12751   9.952   8.526   3.839 -0.5987 -0.8201  0.6301
36791SOL    HW112752  10.013   8.457   3.814 -0.5194 -0.9191  1.0928
36791SOL    HW212753   9.879   8.516   3.778 -0.4195 -1.0749  0.4552
36792SOL     OW12754   0.395   2.523   0.880 -0.2652  0.1622 -0.0402
36792SOL    HW112755   0.436   2.473   0.951  0.4567  0.8761  0.0697
36792SOL    HW212756   0.332   2.579   0.924  1.5503  2.0399  0.3470
36793SOL     OW12757   7.722   4.763   3.527  0.0241  0.1753  0.2445
36793SOL    HW112758   7.666   4.833   3.560  1.5761  1.3277  0.5274
36793SOL    HW212759   7.737   4.706   3.603  0.9683  1.0555  0.7387
36794SOL     OW12760   9.190   7.985   3.605 -0.1317 -0.1303  0.0308
36794SOL    HW112761   9.253   7.977   3.533  0.2632 -0.5973  0.4258
36794SOL    HW212762   9.213   7.914   3.665 -2.3649 -1.7218 -0.8294
36795SOL     OW12763   4.926   2.934   3.307 -0.4376  0.1318 -0.1822
36795SOL    HW112764   4.844   2.887   3.321  0.7526 -2.0801 -0.2305
36795SOL    HW212765   4.920   2.967   3.217 -0.9882 -0.6207 -0.4251
36796SOL     OW12766   6.550   9.507   9.526  0.0043  0.5749 -0.6707
36796SOL    HW112767   6.644   9.498   9.542 -0.3836 -2.1955  0.6229
36796SOL    HW212768   6.541   9.591   9.481  3.2074  0.4094 -1.8611
36797SOL     OW12769   8.435   1.801   3.965  0.2301  0.1317  0.4416
36797SOL    HW112770   8.393   1.715   3.969  2.7849 -1.1850  0.4878
36797SOL    HW212771   8.395   1.850   4.038 -0.3642 -1.4543  1.2245
36798SOL     OW12772  10.032   4.418   4.523 -0.1274  0.5620 -0.5583
36798SOL    HW112773  10.046   4.453   4.612  0.3820  0.0362 -0.4239
36798SOL    HW212774  10.117   4.383   4.498 -0.4057  0.2232 -1.0431
36799SOL     OW12775   6.309  10.115   0.835  0.2973  0.5346  0.5695
36799SOL    HW112776   6.226  10.074   0.809 -0.7624  1.6678  2.0253
36799SOL    HW212777   6.334  10.069   0.915 -0.5003  2.1243  1.7854
36800SOL     OW12778   8.284   2.982   1.100  0.1648  0.2251 -0.4460
36800SOL    HW112779   8.348   2.927   1.054 -1.0165 -0.9147 -0.7716
36800SOL    HW212780   8.210   2.989   1.040 -0.3458  0.9042  0.2370
36801SOL     OW12781   1.509   8.803   2.731 -0.2857 -0.4441  0.5543
36801SOL    HW112782   1.598   8.769   2.720 -0.5268 -0.7239 -0.6624
36801SOL    HW212783   1.522   8.888   2.774  0.5418 -0.6160  0.6745
36802SOL     OW12784   0.368   9.417   6.272  0.0091  0.1708  0.3963
36802SOL    HW112785   0.315   9.483   6.227 -0.9523 -0.2106  0.9495
36802SOL    HW212786   0.307   9.346   6.290  0.8685 -0.5581  0.4705
36803SOL     OW12787   2.755  10.313   1.430 -0.1858 -0.2026 -0.1863
36803SOL    HW112788   2.758  10.243   1.365  0.2608  0.4913 -0.9348
36803SOL    HW212789   2.674  10.297   1.479  0.3064 -1.6897  0.1952
36804SOL     OW12790   8.969   7.076   1.743 -0.2499 -0.1564 -0.2917
36804SOL    HW112791   8.999   7.167   1.752  1.3918 -0.8176  1.7579
36804SOL    HW212792   8.969   7.060   1.649  0.1257  1.7534 -0.6610
36805SOL     OW12793   9.135   0.442  10.239  0.0255 -0.5472  0.0224
36805SOL    HW112794   9.196   0.376  10.273  0.3849 -0.8198 -1.1194
36805SOL    HW212795   9.129   0.423  10.145 -1.0172  0.1293 -0.0559
36806SOL     OW12796   1.438   3.243   2.751 -0.3013 -0.2884 -0.1778
36806SOL    HW112797   1.520   3.288   2.771 -0.1191 -0.4884 -0.4641
36806SOL    HW212798   1.417   3.194   2.831 -1.2533  1.4134  0.6648
36807SOL     OW12799   2.216   7.984   4.451 -0.0799 -0.7416  0.1894
36807SOL    HW112800   2.227   7.948   4.540  2.0693 -0.1399  0.2420
36807SOL    HW212801   2.302   7.971   4.410 -0.5293  0.5115 -1.2245
36808SOL     OW12802   4.659   9.883   7.420 -0.4672 -0.1409 -0.5851
36808SOL    HW112803   4.590   9.831   7.460 -0.6985  0.7687  0.2465
36808SOL    HW212804   4.630   9.895   7.330 -1.4787  0.3373 -0.2187
36809SOL     OW12805   9.494   3.158   3.939 -0.5763 -0.3765  0.7840
36809SOL    HW112806   9.456   3.081   3.897 -0.5519 -1.0339  1.9140
36809SOL    HW212807   9.430   3.181   4.007 -0.8372  0.9333  0.1258
36810SOL     OW12808   0.345   3.901   1.760  0.2937 -0.0042 -0.2150
36810SOL    HW112809   0.418   3.854   1.801  0.3678  1.0444  0.8851
36810SOL    HW212810   0.272   3.840   1.767  0.3764  0.0206  1.2529
36811SOL     OW12811   5.592   1.416   2.536  0.0991  0.3598  0.4402
36811SOL    HW112812   5.622   1.468   2.461 -0.1843  1.6914  1.2065
36811SOL    HW212813   5.657   1.347   2.544  0.9896  1.1012 -0.0980
36812SOL     OW12814   2.584   1.688   4.675  0.7096 -0.1551  0.5237
36812SOL    HW112815   2.491   1.676   4.655  0.1822 -1.2093  3.2794
36812SOL    HW212816   2.625   1.605   4.649  1.2759  0.8740 -2.2245
36813SOL     OW12817   6.517   7.302   9.057  0.3900  0.0389  0.3455
36813SOL    HW112818   6.447   7.243   9.028  1.9287 -1.9713  0.5312
36813SOL    HW212819   6.547   7.346   8.977  0.6166 -1.0081 -0.1557
36814SOL     OW12820   2.914   7.973   6.079  0.3104  0.3143 -0.2015
36814SOL    HW112821   2.959   7.948   5.998  0.6932  0.9803 -0.2059
36814SOL    HW212822   2.830   7.929   6.074  0.7914 -0.6244 -0.3976
36815SOL     OW12823  10.374   2.728   5.847 -0.6297  0.0192  0.2577
36815SOL    HW112824  10.392   2.755   5.937 -1.7327 -0.5612  0.6787
36815SOL    HW212825  10.460   2.710   5.809 -0.1638  0.1279  1.2393
36816SOL     OW12826  10.555   5.111   0.000 -0.2221 -0.1551 -0.6482
36816SOL    HW112827  10.610   5.188   0.015  1.3627 -0.8110 -2.5552
36816SOL    HW212828  10.494   5.138  -0.068 -0.0873 -0.3893 -0.8635
36817SOL     OW12829   8.547   7.983  10.745  0.1170  0.0990 -0.3040
36817SOL    HW112830   8.605   7.945  10.679  0.0554  1.2465 -1.0424
36817SOL    HW212831   8.591   8.063  10.773 -0.2293  0.0237  0.4978
36818SOL     OW12832   9.449   6.281  10.285 -0.2808  0.1480 -0.1593
36818SOL    HW112833   9.435   6.187  10.281  2.3833 -0.2772 -1.2109
36818SOL    HW212834   9.519   6.293  10.350 -0.6424  1.4284  0.0342
36819SOL     OW12835   5.171   9.058   9.533  0.3443  0.5427  0.6777
36819SOL    HW112836   5.170   9.097   9.620 -1.4394  1.5149  0.2642
36819SOL    HW212837   5.094   9.002   9.531 -0.9693  2.2922 -0.9910
36820SOL     OW12838   3.483   7.889   2.497  0.2179  0.2561 -0.1512
36820SOL    HW112839   3.520   7.833   2.565  1.5505 -0.0095 -1.0646
36820SOL    HW212840   3.541   7.878   2.422 -1.3833  0.2915 -1.4659
36821SOL     OW12841   3.645   0.802   8.175 -0.2290  0.3250 -0.1000
36821SOL    HW112842   3.625   0.878   8.121  3.3706  0.6174 -1.2625
36821SOL    HW212843   3.647   0.729   8.114  2.4134  0.4169 -0.2358
36822SOL     OW12844   4.916   0.286   0.903 -0.1669 -0.3481 -0.3818
36822SOL    HW112845   4.967   0.367   0.898  0.1636 -0.5963 -1.3000
36822SOL    HW212846   4.979   0.217   0.884 -0.5145 -0.7961  0.0779
36823SOL     OW12847   3.076   7.066   2.766  0.0441  0.8084 -0.2201
36823SOL    HW112848   3.127   7.002   2.718 -0.0526  0.7953 -0.3058
36823SOL    HW212849   3.008   7.015   2.811  1.1658  0.5995  1.3242
36824SOL     OW12850   9.032   9.655   2.809  0.3422  0.4738  0.1459
36824SOL    HW112851   8.956   9.712   2.819 -0.1659 -0.0467 -0.6319
36824SOL    HW212852   9.012   9.579   2.863  0.2107  0.2395 -0.2313
36825SOL     OW12853   9.489   0.878   7.610  0.0394 -0.3184 -0.0379
36825SOL    HW112854   9.465   0.936   7.537  2.9549 -0.6528 -1.3733
36825SOL    HW212855   9.527   0.937   7.675 -0.9146 -0.2503  0.4770
36826SOL     OW12856   5.282   3.781   1.480  0.1699  0.3498  0.1216
36826SOL    HW112857   5.198   3.806   1.441  0.1396 -1.6170 -1.2041
36826SOL    HW212858   5.347   3.800   1.412  0.4034 -0.9175 -0.0454
36827SOL     OW12859   2.338   4.453   0.386 -0.0777 -0.4942  0.0714
36827SOL    HW112860   2.342   4.524   0.450  1.1517 -0.9880  0.5462
36827SOL    HW212861   2.244   4.432   0.380 -0.3673  0.5852  0.5442
36828SOL     OW12862   9.423   4.800   4.428  0.1105  0.2718 -0.8553
36828SOL    HW112863   9.512   4.782   4.397  0.6080  0.2467  0.5095
36828SOL    HW212864   9.377   4.716   4.420  0.7274 -0.1719  0.0304
36829SOL     OW12865   1.174   8.028   7.313 -0.0931  0.2474 -0.1443
36829SOL    HW112866   1.153   7.935   7.324  3.0637 -0.5269  0.1651
36829SOL    HW212867   1.143   8.049   7.225 -2.1935 -0.6243  0.3204
36830SOL     OW12868   9.567   3.256   0.951  0.3025  0.1570  0.0055
36830SOL    HW112869   9.605   3.285   0.868 -0.8153  1.7952  0.0229
36830SOL    HW212870   9.497   3.197   0.925  1.2385 -0.9391 -0.1122
36831SOL     OW12871   1.691  10.023   8.846  0.1344  0.1120  0.2428
36831SOL    HW112872   1.753  10.092   8.821 -0.0791  0.6772  1.2086
36831SOL    HW212873   1.703  10.014   8.941 -2.3108  1.3252  0.7336
36832SOL     OW12874   9.328   6.597   2.525  1.0347 -0.7241  0.1733
36832SOL    HW112875   9.311   6.510   2.561  2.7603 -0.8493  0.7857
36832SOL    HW212876   9.265   6.607   2.454 -0.5476 -1.6429  1.3847
36833SOL     OW12877   0.273   1.167   3.237 -0.3070 -0.0563 -0.2028
36833SOL    HW112878   0.211   1.203   3.174  0.4989  1.3016 -0.2741
36833SOL    HW212879   0.359   1.187   3.199  0.1761 -0.7844  0.4853
36834SOL     OW12880   9.863  10.371   9.352 -0.3020  0.3014  0.2030
36834SOL    HW112881   9.896  10.382   9.441  0.3887  1.2657 -0.1593
36834SOL    HW212882   9.768  10.383   9.359 -0.0478  2.5553  0.5000
36835SOL     OW12883  10.489   4.730   6.386  0.4856  0.2913 -0.0492
36835SOL    HW112884  10.452   4.648   6.354  1.0199 -0.1330  0.3738
36835SOL    HW212885  10.444   4.798   6.337  0.9110 -0.3043 -1.3204
36836SOL     OW12886   5.109   1.147   6.985  0.0159  0.3516  0.3104
36836SOL    HW112887   5.098   1.221   6.925  3.4708  1.1509  0.4752
36836SOL    HW212888   5.059   1.172   7.063 -0.2654  1.7225 -0.2790
36837SOL     OW12889   4.697   1.040   5.820 -0.3772  0.2006  0.3343
36837SOL    HW112890   4.630   1.027   5.753 -1.1837 -0.1547  1.1829
36837SOL    HW212891   4.717   0.952   5.851 -1.0910  0.4396  1.5592
36838SOL     OW12892   9.825   3.593   8.588 -0.1024 -0.1512  0.2048
36838SOL    HW112893   9.860   3.657   8.526  1.7474  0.2207  1.5871
36838SOL    HW212894   9.874   3.513   8.571  1.4740  0.3533  2.1094
36839SOL     OW12895   8.647   4.075   9.826 -0.0123  0.0158  0.1602
36839SOL    HW112896   8.618   3.988   9.853  0.9750 -0.6174 -0.7378
36839SOL    HW212897   8.725   4.091   9.880 -1.3651  1.2917  1.8657
36840SOL     OW12898   7.935   5.418   5.176  0.3452  0.3366 -0.1747
36840SOL    HW112899   8.009   5.396   5.119  0.5511 -2.0359  0.8984
36840SOL    HW212900   7.975   5.434   5.261 -0.3303 -0.5374  0.3139
36841SOL     OW12901   8.852   2.904   4.644 -0.7643 -0.1171 -0.3277
36841SOL    HW112902   8.872   2.827   4.590  0.6003 -0.8631  1.1778
36841SOL    HW212903   8.930   2.958   4.637  0.6965 -1.5589  3.0922
36842SOL     OW12904   7.042   5.987   1.375  0.2006 -0.4402  0.1397
36842SOL    HW112905   7.104   6.027   1.436 -1.5840 -0.5172  2.1181
36842SOL    HW212906   7.013   6.060   1.319 -0.5949  0.3877  1.5845
36843SOL     OW12907   7.165   4.210   8.343  0.2599  0.3632  0.4182
36843SOL    HW112908   7.166   4.281   8.408 -1.2666 -1.7240  2.9245
36843SOL    HW212909   7.074   4.206   8.313  0.1169 -0.9716  0.9349
36844SOL     OW12910   4.020   8.018   6.989  0.2387 -0.4731 -0.8135
36844SOL    HW112911   4.083   8.080   6.952 -0.0862 -0.4174 -1.2874
36844SOL    HW212912   4.064   7.933   6.984 -0.0414 -0.5732 -1.9591
36845SOL     OW12913   4.157   7.595   8.306  0.2249  0.5441  0.3230
36845SOL    HW112914   4.207   7.642   8.240  1.7862 -2.8871 -1.1591
36845SOL    HW212915   4.081   7.652   8.324  2.1532  3.7513 -0.8375
36846SOL     OW12916   2.097   4.454   8.237  0.6271 -0.5279  0.2989
36846SOL    HW112917   2.034   4.524   8.224  1.8469  0.3863 -1.0906
36846SOL    HW212918   2.153   4.485   8.309 -1.3696 -2.0529  2.6571
36847SOL     OW12919   5.543  10.595   1.546 -0.0732 -0.4379 -0.4785
36847SOL    HW112920   5.624  10.550   1.521  0.0333  0.0125 -0.9822
36847SOL    HW212921   5.485  10.583   1.471  0.4214  1.3481 -1.2086
36848SOL     OW12922  10.203   6.996   1.892 -0.3246 -0.5501  0.0083
36848SOL    HW112923  10.146   7.006   1.815  2.5018  2.0250 -2.0177
36848SOL    HW212924  10.287   6.968   1.855  1.7145  2.6439  1.7723
36849SOL     OW12925   9.138   8.796   2.792  0.1676 -0.2109 -0.2524
36849SOL    HW112926   9.074   8.768   2.858  0.7926 -1.0623  0.0192
36849SOL    HW212927   9.189   8.864   2.834 -0.6171  0.5451 -0.5058
36850SOL     OW12928   5.196   8.090   7.514  0.1006  0.2466 -0.0143
36850SOL    HW112929   5.207   7.997   7.499  1.4482  0.1552  1.2586
36850SOL    HW212930   5.216   8.102   7.607  0.3064  1.8428 -0.2228
36851SOL     OW12931   3.916   7.200   0.153 -0.3208  0.0436 -0.2702
36851SOL    HW112932   3.910   7.238   0.065 -3.5569 -2.4558 -1.3356
36851SOL    HW212933   3.826   7.174   0.173  0.7402 -1.7211  2.7755
36852SOL     OW12934   4.490   4.148   0.772  0.2386 -0.1912  0.0595
36852SOL    HW112935   4.539   4.095   0.709 -0.3319  0.1535 -0.6903
36852SOL    HW212936   4.420   4.090   0.803  1.2115 -0.7536  1.2891
36853SOL     OW12937   8.242   1.903   6.130  0.2249 -0.1483 -0.1648
36853SOL    HW112938   8.152   1.932   6.148 -0.1139 -1.7775  0.9605
36853SOL    HW212939   8.290   1.984   6.116 -0.6520  1.0598  2.9271
36854SOL     OW12940   8.232   4.853   8.876  0.0179 -0.7847 -0.0700
36854SOL    HW112941   8.138   4.855   8.889  0.0079 -1.7702  0.0575
36854SOL    HW212942   8.269   4.878   8.961 -0.1185  0.4727 -0.3565
36855SOL     OW12943   2.525   8.828   0.103 -0.0316 -0.2411  0.2218
36855SOL    HW112944   2.612   8.792   0.119 -0.4059 -0.4852  1.9891
36855SOL    HW212945   2.540   8.906   0.049  1.2493 -0.4365  0.2759
36856SOL     OW12946  10.284   2.067   5.764 -0.3812 -0.1711 -0.8485
36856SOL    HW112947  10.317   1.979   5.748  0.5989  0.1529 -0.6845
36856SOL    HW212948  10.319   2.090   5.851 -1.0070  0.2071 -0.6885
36857SOL     OW12949   5.726   1.861   1.008  0.2826  0.2188 -0.0803
36857SOL    HW112950   5.672   1.939   0.996  0.2135  0.2497  0.3920
36857SOL    HW212951   5.804   1.878   0.956 -0.1015  0.2316 -0.6572
36858SOL     OW12952   3.767   3.611   0.764  0.0348 -0.0335 -0.1079
36858SOL    HW112953   3.853   3.649   0.749 -0.3014  1.1184  0.7771
36858SOL    HW212954   3.709   3.686   0.776 -0.8737 -0.8102  0.4846
36859SOL     OW12955   8.750   0.427   9.818 -0.0937  0.3692  0.0926
36859SOL    HW112956   8.654   0.431   9.824 -0.1704  0.3330 -0.8553
36859SOL    HW212957   8.778   0.393   9.902 -1.0483 -1.4525 -0.2748
36860SOL     OW12958   4.247   2.807   1.751  0.7775  0.3892 -0.3527
36860SOL    HW112959   4.163   2.853   1.752  0.3581 -0.3490  0.4527
36860SOL    HW212960   4.313   2.874   1.765  0.6011  1.4247 -3.5808
36861SOL     OW12961   2.529   5.487   6.822  0.3167  0.0040 -0.1230
36861SOL    HW112962   2.560   5.562   6.873 -0.1320  0.7663 -0.9368
36861SOL    HW212963   2.441   5.470   6.855  0.1822  0.2421 -0.3456
36862SOL     OW12964   9.657   1.322   9.389  0.4201 -0.1497  0.5114
36862SOL    HW112965   9.603   1.263   9.336  0.1552 -0.7563  1.4385
36862SOL    HW212966   9.728   1.347   9.330  0.2299 -0.9490 -0.0836
36863SOL     OW12967   5.332   1.139   1.184  0.4202  0.3756  0.4048
36863SOL    HW112968   5.388   1.061   1.179 -1.5812 -1.0507 -1.1864
36863SOL    HW212969   5.292   1.133   1.271 -0.6712 -1.1279 -0.1592
36864SOL     OW12970   9.426   3.935   5.321  0.5105  0.1698  0.0240
36864SOL    HW112971   9.338   3.969   5.304  0.3482 -0.3860 -0.2901
36864SOL    HW212972   9.455   3.902   5.236  0.8391 -0.0568  0.2227
36865SOL     OW12973   4.678   2.179   1.292  0.2703  0.1944  0.7785
36865SOL    HW112974   4.715   2.091   1.280 -2.1205 -0.7693 -0.3034
36865SOL    HW212975   4.617   2.170   1.365 -0.5015  0.7421  0.2272
36866SOL     OW12976   2.335   0.148   6.541  0.1901 -0.2415 -0.2166
36866SOL    HW112977   2.345   0.053   6.546  0.8883 -0.1178  1.2664
36866SOL    HW212978   2.360   0.180   6.628 -0.3198  1.2803 -0.5884
36867SOL     OW12979   3.337   1.511   5.531 -0.1523 -0.0979 -0.0894
36867SOL    HW112980   3.309   1.524   5.440  0.0390  0.5564 -0.0617
36867SOL    HW212981   3.374   1.595   5.557  1.2758 -0.7477  0.0839
36868SOL     OW12982   1.626   1.668  10.660 -0.3590 -0.3510 -0.6253
36868SOL    HW112983   1.703   1.725  10.657 -0.7051  0.0733 -2.3897
36868SOL    HW212984   1.558   1.717  10.612 -1.0589 -1.6754 -1.0339
36869SOL     OW12985   7.997   8.599   0.890 -0.2760 -0.0058 -0.0824
36869SOL    HW112986   8.020   8.662   0.822  1.9312 -1.3622 -0.6908
36869SOL    HW212987   7.997   8.650   0.971  0.4314  0.9774 -0.6749
36870SOL     OW12988   0.758   1.774   5.792 -0.7974  0.1964  0.0261
36870SOL    HW112989   0.687   1.835   5.813 -0.0072  1.3166 -0.4586
36870SOL    HW212990   0.790   1.803   5.707 -1.6254 -2.0938 -1.1587
36871SOL     OW12991   4.157   3.450   2.137  0.4214 -0.5070  0.5600
36871SOL    HW112992   4.155   3.543   2.156  1.0396 -0.2358 -0.6111
36871SOL    HW212993   4.204   3.443   2.054 -0.2544 -1.7961  0.2530
36872SOL     OW12994   5.156   5.524   6.847  0.4642 -0.7741  0.4440
36872SOL    HW112995   5.094   5.477   6.902 -0.6581 -1.5654 -1.4162
36872SOL    HW212996   5.230   5.463   6.837  0.4957 -0.7870  0.7433
36873SOL     OW12997   9.659   5.532   8.065 -0.0239 -0.3423  0.0163
36873SOL    HW112998   9.672   5.584   8.144 -2.4963 -0.3894  0.5287
36873SOL    HW212999   9.565   5.514   8.063  0.2978 -2.2066 -1.7836
36874SOL     OW13000   6.676   8.590   9.578  0.2649  0.2515 -0.5489
36874SOL    HW113001   6.640   8.516   9.530  0.4408  0.0472 -0.3701
36874SOL    HW213002   6.724   8.550   9.651  1.1599  0.5053 -0.9890
36875SOL     OW13003   0.347   1.157   2.367  0.3845 -0.0219  0.1458
36875SOL    HW113004   0.350   1.103   2.446  0.0759  0.3921  0.4454
36875SOL    HW213005   0.330   1.095   2.296 -1.8191 -0.1327  0.6961
36876SOL     OW13006   7.223   2.158   1.374  0.1112  0.1026 -0.1410
36876SOL    HW113007   7.231   2.201   1.460 -0.2910 -1.1289  0.5404
36876SOL    HW213008   7.133   2.177   1.346  0.1411  0.2400 -0.1454
36877SOL     OW13009   6.261   2.809   4.150  0.3914  0.0245 -0.1099
36877SOL    HW113010   6.181   2.774   4.110  0.8094 -0.6366 -0.3856
36877SOL    HW213011   6.269   2.898   4.114 -1.5111  1.0555  1.7754
36878SOL     OW13012   1.198   8.341   6.257 -0.0290 -0.4660 -0.2814
36878SOL    HW113013   1.252   8.329   6.179 -0.2315  1.8741 -0.8665
36878SOL    HW213014   1.110   8.361   6.223 -0.5593 -1.2170  0.5917
36879SOL     OW13015   3.366   4.912  10.669  0.3342  0.3601  0.3256
36879SOL    HW113016   3.295   4.856  10.636  0.1157  0.7469  0.1266
36879SOL    HW213017   3.442   4.887  10.617 -0.1069  1.2536 -0.7773
36880SOL     OW13018   6.315   4.745   6.195  0.5747 -0.3562 -0.1084
36880SOL    HW113019   6.248   4.685   6.163  0.4360 -0.6573  0.7302
36880SOL    HW213020   6.284   4.772   6.281  0.7406  0.7703 -0.3889
36881SOL     OW13021  10.137   1.568   8.285 -0.1128  0.5725  0.2508
36881SOL    HW113022  10.202   1.513   8.240 -1.9151 -2.2470  0.7962
36881SOL    HW213023  10.129   1.646   8.231  2.4357  0.2128 -0.7510
36882SOL     OW13024   4.898   8.508   5.143 -0.3158  0.0054 -0.0862
36882SOL    HW113025   4.875   8.580   5.084 -0.6835  0.5401  0.6978
36882SOL    HW213026   4.967   8.543   5.199  0.9871 -0.9253 -1.0430
36883SOL     OW13027   0.205   0.368   9.327 -0.1998  0.3186 -0.0325
36883SOL    HW113028   0.261   0.291   9.339  2.0139  1.7237 -0.6959
36883SOL    HW213029   0.189   0.373   9.233  1.5863  1.8409 -0.3187
36884SOL     OW13030   0.842   0.311   8.334 -0.2662  0.1707  0.1064
36884SOL    HW113031   0.809   0.388   8.380  1.9224  0.6524  1.0261
36884SOL    HW213032   0.793   0.237   8.370 -2.4005  1.0998 -0.7881
36885SOL     OW13033   7.660   5.669   2.495  0.2120  0.0500  0.7296
36885SOL    HW113034   7.755   5.665   2.483  0.1573  1.6508 -0.4785
36885SOL    HW213035   7.633   5.749   2.451 -1.8752 -0.9888 -0.0312
36886SOL     OW13036  10.156   9.325   6.980 -0.0911  0.7748  0.6394
36886SOL    HW113037  10.223   9.275   7.026 -0.8274 -0.1411  0.7452
36886SOL    HW213038  10.086   9.262   6.964 -0.3114  1.3400 -0.7858
36887SOL     OW13039   2.560   4.266   4.102  0.1969 -0.0451 -0.1693
36887SOL    HW113040   2.630   4.297   4.160  0.2921 -0.3382 -0.1300
36887SOL    HW213041   2.524   4.189   4.146 -0.4999  0.4021  0.0733
36888SOL     OW13042   6.018   0.929   3.942  0.1076 -0.6792  0.3818
36888SOL    HW113043   6.022   1.008   3.997  0.1847 -0.2491 -0.2234
36888SOL    HW213044   5.934   0.936   3.896  1.7456  1.1659 -2.6893
36889SOL     OW13045   9.880   5.435   8.418  0.3820  0.2004 -0.0107
36889SOL    HW113046   9.799   5.401   8.455  0.4551  1.5168  1.4526
36889SOL    HW213047   9.864   5.528   8.405  1.8241  0.6138  0.9043
36890SOL     OW13048   2.950   8.186   1.312 -0.1672 -0.3609 -0.1398
36890SOL    HW113049   2.902   8.268   1.311  0.0910 -0.2142 -0.8750
36890SOL    HW213050   3.035   8.208   1.351  0.4305  0.0340 -1.6168
36891SOL     OW13051   0.243   9.476   2.136 -0.1427 -0.1709  0.4379
36891SOL    HW113052   0.316   9.419   2.160 -1.0132 -1.0105  1.1827
36891SOL    HW213053   0.174   9.454   2.198 -1.0247  0.6363 -0.2253
36892SOL     OW13054   0.397   3.534   6.083 -0.3338  0.1215 -0.5257
36892SOL    HW113055   0.405   3.450   6.036 -0.3209 -0.5197  0.5983
36892SOL    HW213056   0.310   3.565   6.060 -1.2062 -1.2717  0.7395
36893SOL     OW13057   8.149   6.127   7.719  0.2630  0.0927 -0.1952
36893SOL    HW113058   8.076   6.155   7.774 -1.7761 -1.3699 -1.9863
36893SOL    HW213059   8.139   6.178   7.638  0.0167 -1.4997 -1.2056
36894SOL     OW13060   9.355   4.458   1.592  0.0311 -0.6734  0.9477
36894SOL    HW113061   9.389   4.377   1.554 -0.0329 -0.1720 -0.2089
36894SOL    HW213062   9.270   4.434   1.629  0.5117 -1.3745  1.6098
36895SOL     OW13063   5.793   8.904   2.538  0.7335  0.4823  0.6462
36895SOL    HW113064   5.749   8.824   2.511 -1.4428  1.8374 -0.1367
36895SOL    HW213065   5.791   8.903   2.633 -1.3880  0.6160  0.6503
36896SOL     OW13066   6.604   8.004   7.059 -0.1370 -0.2135 -0.2226
36896SOL    HW113067   6.608   8.037   7.149  1.5592  0.2620 -0.4335
36896SOL    HW213068   6.644   7.917   7.063 -1.9164 -1.0793 -0.1971
36897SOL     OW13069  10.110   9.173   2.131 -0.7055  0.0740 -0.3873
36897SOL    HW113070  10.177   9.227   2.090 -0.2952  0.6746  1.0098
36897SOL    HW213071  10.037   9.175   2.069 -0.5963  2.0240 -0.5244
36898SOL     OW13072   0.337   4.626   3.278 -0.1853 -0.1988  0.2338
36898SOL    HW113073   0.339   4.689   3.206  0.2063  0.4445  0.8011
36898SOL    HW213074   0.399   4.660   3.342  1.0270 -1.8241  0.0059
36899SOL     OW13075   3.592   6.422   7.269  0.6065 -0.1540 -0.3907
36899SOL    HW113076   3.543   6.461   7.197 -1.0345  0.5421  1.0400
36899SOL    HW213077   3.683   6.431   7.244  0.0723 -0.0119 -2.4118
36900SOL     OW13078   2.372   4.600   6.131  0.2773 -0.1523 -0.6555
36900SOL    HW113079   2.406   4.667   6.191 -0.9289  2.0191 -2.2471
36900SOL    HW213080   2.307   4.553   6.183  0.4673  0.5351  0.2412
36901SOL     OW13081   5.102   8.668   0.585  0.4055 -0.8927  0.3178
36901SOL    HW113082   5.166   8.604   0.554  1.4232 -0.7779  2.0265
36901SOL    HW213083   5.064   8.627   0.663  0.6353  0.3116  1.0928
36902SOL     OW13084   8.543   7.926   6.684  0.4223 -0.5935 -0.4426
36902SOL    HW113085   8.570   7.965   6.601  0.4280 -0.7030 -0.4926
36902SOL    HW213086   8.592   7.973   6.751 -0.3629  0.2110 -0.4229
36903SOL     OW13087  10.765   4.956   5.202 -0.3078  0.0344 -0.3344
36903SOL    HW113088  10.672   4.941   5.220  0.1062 -1.1081  1.0392
36903SOL    HW213089  10.800   4.868   5.185  0.3762  0.5411 -1.7072
36904SOL     OW13090   2.393   6.414   4.141 -0.0647  0.1836 -0.1405
36904SOL    HW113091   2.397   6.361   4.061 -0.1192 -0.2134  0.1174
36904SOL    HW213092   2.476   6.462   4.143  0.3325 -0.4971  0.0362
36905SOL     OW13093   0.659   8.877  10.391  0.5410  0.2137  0.4480
36905SOL    HW113094   0.701   8.792  10.386 -0.6501 -0.3557 -0.7531
36905SOL    HW213095   0.731   8.940  10.392  1.4376 -0.7919  1.2813
36906SOL     OW13096   7.482   6.730   9.663  0.0987  0.1801  0.1609
36906SOL    HW113097   7.495   6.639   9.637 -0.6214 -0.2622  1.2430
36906SOL    HW213098   7.495   6.781   9.583  1.8023 -0.7472 -0.1911
36907SOL     OW13099   0.691   7.649   5.297  0.2231  0.2842 -0.0540
36907SOL    HW113100   0.658   7.735   5.320  0.1469  0.3717 -0.4909
36907SOL    HW213101   0.673   7.639   5.204 -1.2500 -0.8671  0.3157
36908SOL     OW13102   0.953   5.342   7.719  0.0155 -0.1565  0.2754
36908SOL    HW113103   0.961   5.284   7.795  3.4836 -0.0055  0.2168
36908SOL    HW213104   1.001   5.421   7.745 -1.3726  1.1815 -1.0137
36909SOL     OW13105   6.614   6.621   2.537 -0.1364 -0.1323 -0.5010
36909SOL    HW113106   6.707   6.633   2.558  0.0557 -1.4817 -0.4613
36909SOL    HW213107   6.589   6.700   2.490  0.7872  0.6563  0.2959
36910SOL     OW13108   8.294   9.468   7.777 -0.4951  0.2197  0.5707
36910SOL    HW113109   8.328   9.531   7.839 -2.3258  1.1413  0.7132
36910SOL    HW213110   8.335   9.492   7.693  1.6615 -0.7776  1.2650
36911SOL     OW13111   2.909   0.277   2.252 -0.0511  0.5080 -0.2882
36911SOL    HW113112   2.979   0.273   2.317 -0.7716 -0.4372  0.4870
36911SOL    HW213113   2.903   0.188   2.218 -1.5723  0.2629  0.4832
36912SOL     OW13114   5.374   6.115   6.442 -0.2247 -0.0877  0.3472
36912SOL    HW113115   5.406   6.062   6.368 -1.8276 -0.9006  0.2048
36912SOL    HW213116   5.343   6.196   6.402  0.1834  0.0489  0.3019
36913SOL     OW13117   4.463   1.108   8.653  0.5294 -0.1419  0.1087
36913SOL    HW113118   4.518   1.141   8.724 -0.4768  0.6557  0.5482
36913SOL    HW213119   4.520   1.108   8.576  1.1730  0.5452  0.5714
36914SOL     OW13120   1.102   8.177  10.304  0.1516  0.3383  0.1873
36914SOL    HW113121   1.055   8.125  10.369  0.7688  0.9833  1.1763
36914SOL    HW213122   1.033   8.228  10.260 -0.0975  1.5571  1.8774
36915SOL     OW13123   1.311   8.869   3.679  0.1283 -0.3445 -0.3067
36915SOL    HW113124   1.356   8.890   3.761 -0.0017 -0.5980 -0.1703
36915SOL    HW213125   1.366   8.802   3.637  0.8195  0.6104 -0.9891
36916SOL     OW13126   2.840   3.250   9.562  0.4600 -0.2147 -0.7555
36916SOL    HW113127   2.786   3.179   9.527  0.1187 -1.3437  1.7880
36916SOL    HW213128   2.787   3.329   9.550 -0.1836 -0.7565 -1.5465
36917SOL     OW13129   9.673   5.123   7.416  0.3946  0.0676 -0.8723
36917SOL    HW113130   9.735   5.169   7.472 -0.0614  0.9748 -1.0972
36917SOL    HW213131   9.587   5.149   7.448  0.1064 -1.0912 -0.6303
36918SOL     OW13132   0.315   8.305   4.160  0.1334  0.0802 -0.5306
36918SOL    HW113133   0.394   8.302   4.106  1.7249  0.6880  1.6420
36918SOL    HW213134   0.318   8.390   4.203 -2.0921  0.3910 -0.8905
36919SOL     OW13135  10.120   5.346   7.471  0.2711  0.3660  0.0376
36919SOL    HW113136  10.042   5.383   7.431 -0.2934  0.2518  1.0095
36919SOL    HW213137  10.162   5.419   7.516  0.6483  0.3915 -0.3416
36920SOL     OW13138   7.910   3.365   3.522 -0.3658  0.0277  0.2353
36920SOL    HW113139   7.829   3.380   3.474 -0.5633  0.0994  0.5922
36920SOL    HW213140   7.925   3.446   3.570 -1.5661 -0.9294  2.3664
36921SOL     OW13141   2.880   3.574   2.136  0.6357 -0.2391  0.3579
36921SOL    HW113142   2.946   3.571   2.067 -0.2331 -2.4441 -0.4906
36921SOL    HW213143   2.808   3.624   2.098  0.9143  0.1970  0.4035
36922SOL     OW13144   7.162   9.835   0.028  0.0147  0.0550  0.0757
36922SOL    HW113145   7.098   9.886   0.077  0.2355 -1.1132  1.6935
36922SOL    HW213146   7.113   9.758  -0.003  0.0421  0.4476 -0.9721
36923SOL     OW13147   7.656   0.228   3.480 -0.2408 -0.5790  0.0648
36923SOL    HW113148   7.568   0.203   3.452 -0.8612 -1.2045  2.3798
36923SOL    HW213149   7.665   0.319   3.451 -1.8268 -0.3530  0.1977
36924SOL     OW13150   5.351   1.456   4.543  0.4380 -0.0993  0.2655
36924SOL    HW113151   5.398   1.532   4.577  0.6991 -0.5276  0.8746
36924SOL    HW213152   5.259   1.479   4.550  0.5066  0.0256  0.7907
36925SOL     OW13153   4.975   4.976   8.141 -0.6790  0.2091 -0.4598
36925SOL    HW113154   5.060   5.003   8.106  0.6555  0.1070  2.3419
36925SOL    HW213155   4.962   5.034   8.217 -0.6592 -2.8638  2.0965
36926SOL     OW13156   5.354   1.140   5.097 -0.2141  0.2230 -0.4058
36926SOL    HW113157   5.260   1.136   5.082 -0.4131  3.5012 -0.7959
36926SOL    HW213158   5.392   1.160   5.011  0.7443 -0.0738 -0.0680
36927SOL     OW13159   4.830   6.371   9.117  0.2513  0.0808  0.6145
36927SOL    HW113160   4.848   6.450   9.065  0.4248  0.2789  0.9695
36927SOL    HW213161   4.754   6.331   9.074 -0.6151  1.0972  1.1469
36928SOL     OW13162   6.954   2.301   2.074 -0.2874 -0.1346 -0.3505
36928SOL    HW113163   6.886   2.247   2.114 -0.7473 -0.3672 -1.4038
36928SOL    HW213164   7.035   2.273   2.116 -0.7752 -0.2073  0.5656
36929SOL     OW13165  10.281   6.968   7.264  0.3800 -0.1530  0.3652
36929SOL    HW113166  10.201   6.979   7.314 -0.6583 -1.3507 -0.9482
36929SOL    HW213167  10.339   7.038   7.295  0.0402 -1.1456  3.5622
36930SOL     OW13168   7.326  10.780  10.436 -0.2517  0.6580 -0.5385
36930SOL    HW113169   7.307  10.689  10.414  1.9533  0.3321 -1.3866
36930SOL    HW213170   7.385  10.810  10.367 -0.3330  2.5126  0.1200
36931SOL     OW13171   2.291   4.105   9.388 -0.0588  0.1025 -0.4130
36931SOL    HW113172   2.313   4.185   9.438  0.6507 -0.1132 -0.3677
36931SOL    HW213173   2.207   4.077   9.424 -0.5010  1.0398 -0.6883
36932SOL     OW13174   1.503   6.289   4.455  0.4335 -0.4373 -0.1142
36932SOL    HW113175   1.545   6.333   4.381  0.6316 -0.3531  0.0476
36932SOL    HW213176   1.410   6.289   4.433  0.3236  0.7545  0.2299
36933SOL     OW13177   6.298   6.598   3.832 -0.5096  0.1384 -0.0997
36933SOL    HW113178   6.346   6.594   3.749  1.6583  0.1353  1.0589
36933SOL    HW213179   6.254   6.513   3.839  0.1232 -0.2590 -0.7958
36934SOL     OW13180  10.674   8.715   3.797 -0.5209  0.1425 -0.3252
36934SOL    HW113181  10.638   8.760   3.874  0.8535 -0.2230  0.5739
36934SOL    HW213182  10.612   8.645   3.779 -1.7652  1.2945 -0.6476
36935SOL     OW13183   4.025   8.241   5.460 -0.2386 -0.1836 -0.3234
36935SOL    HW113184   3.962   8.215   5.528  0.8204  0.6041  1.0104
36935SOL    HW213185   4.094   8.175   5.466 -0.4678 -0.5059 -1.1368
36936SOL     OW13186   5.174   2.153   4.602  0.2453  0.1143  0.3662
36936SOL    HW113187   5.240   2.085   4.593  1.1445  0.9473  0.5554
36936SOL    HW213188   5.170   2.194   4.515 -1.1866 -0.9512 -0.1126
36937SOL     OW13189   4.356   0.150   2.846  0.7669 -0.0557  0.2515
36937SOL    HW113190   4.352   0.054   2.852  0.2858 -0.0903 -0.4831
36937SOL    HW213191   4.307   0.181   2.921 -0.5063 -0.4040 -0.4134
36938SOL     OW13192   2.539   0.988  10.557 -0.6174  0.3921  0.3696
36938SOL    HW113193   2.460   1.041  10.565 -0.2762  1.2172 -1.4083
36938SOL    HW213194   2.606   1.038  10.604 -0.6605  0.7736  0.0320
36939SOL     OW13195   6.907   1.275   2.890  0.6430 -0.3449  0.4112
36939SOL    HW113196   6.890   1.223   2.968  0.2147 -1.4791 -0.4157
36939SOL    HW213197   6.898   1.366   2.919 -1.7567 -0.7832  1.1950
36940SOL     OW13198  10.179   7.937  10.297  0.3735 -0.3652  0.1923
36940SOL    HW113199  10.112   8.004  10.311  0.9686  0.7357 -1.7791
36940SOL    HW213200  10.258   7.986  10.275  1.1754 -1.6962 -0.0114
36941SOL     OW13201   2.559   4.972   1.186  0.0656  0.2673 -0.0868
36941SOL    HW113202   2.592   5.027   1.115  1.3546  0.7722  0.8663
36941SOL    HW213203   2.554   5.030   1.262 -0.9444 -0.3461  0.3320
36942SOL     OW13204   3.696   9.916   9.220  0.3047  0.0113  0.2466
36942SOL    HW113205   3.694   9.835   9.271 -1.4018  0.1120  0.4067
36942SOL    HW213206   3.781   9.914   9.175  0.7699 -1.3050  1.1130
36943SOL     OW13207   6.387   1.237   4.125 -0.1351  0.5076 -0.2226
36943SOL    HW113208   6.335   1.227   4.045  0.8545  0.0707 -0.8437
36943SOL    HW213209   6.375   1.328   4.151  0.0615  0.8577 -1.2795
36944SOL     OW13210   3.713   8.901   6.619  0.4123 -0.0709 -0.4252
36944SOL    HW113211   3.624   8.916   6.590 -1.1694 -1.2268  3.2117
36944SOL    HW213212   3.747   8.988   6.641 -0.4203  0.2331 -0.3188
36945SOL     OW13213   3.574   4.546  10.694 -0.3491 -0.1147 -0.3721
36945SOL    HW113214   3.658   4.526  10.652 -0.6864  1.3387 -1.8979
36945SOL    HW213215   3.510   4.491  10.648 -0.5186  0.4190 -0.7935
36946SOL     OW13216   1.242   0.304   7.140 -0.1245 -0.2403  0.0651
36946SOL    HW113217   1.173   0.370   7.142 -0.9449 -1.0785  0.1747
36946SOL    HW213218   1.249   0.274   7.231 -0.6730 -1.2153 -0.2063
36947SOL     OW13219   5.627   2.941   8.646  0.4040 -0.3649  0.7240
36947SOL    HW113220   5.644   2.880   8.574  0.7908 -0.9847  1.3277
36947SOL    HW213221   5.536   2.922   8.672 -0.3341  1.0385 -0.6950
36948SOL     OW13222   8.094   9.880   6.930  0.8165  0.3297  0.5923
36948SOL    HW113223   8.047   9.826   6.994 -0.3341 -0.0426 -0.5126
36948SOL    HW213224   8.030   9.895   6.861  1.9264  0.9811 -0.3276
36949SOL     OW13225   3.312   5.865   8.537 -0.1765  0.2178 -0.4763
36949SOL    HW113226   3.393   5.815   8.536 -0.2371  0.1247 -0.8873
36949SOL    HW213227   3.270   5.842   8.620  0.1106  0.0970 -0.3660
36950SOL     OW13228   3.850   9.369   5.303 -0.2641  0.1419  0.1957
36950SOL    HW113229   3.856   9.454   5.346 -0.9541  0.7333 -0.8304
36950SOL    HW213230   3.763   9.336   5.325 -0.0059 -0.3100  0.5778
36951SOL     OW13231  10.249   5.330   0.632  0.3945 -0.3634  0.1578
36951SOL    HW113232  10.184   5.357   0.567 -1.4474  0.1457  2.1159
36951SOL    HW213233  10.317   5.286   0.580 -0.1665  1.3852 -2.2937
36952SOL     OW13234   4.553   3.894   1.392 -0.1769 -0.2084 -0.1762
36952SOL    HW113235   4.511   3.958   1.334 -0.4756 -0.0652  0.1962
36952SOL    HW213236   4.481   3.838   1.423 -0.0667 -0.0920  0.3006
36953SOL     OW13237   3.751   9.193  10.378  0.5022 -0.4792  0.3837
36953SOL    HW113238   3.660   9.187  10.406  0.9052  0.8164  2.1569
36953SOL    HW213239   3.748   9.246  10.298 -0.3196 -0.6957  0.2613
36954SOL     OW13240  10.469   6.838   3.699  0.3442 -0.1478 -0.8224
36954SOL    HW113241  10.523   6.774   3.652  0.0346 -0.5929 -0.5771
36954SOL    HW213242  10.379   6.807   3.686  0.1283  0.6877 -1.3774
36955SOL     OW13243   3.584   9.435   7.075 -0.3890 -0.5302  0.0058
36955SOL    HW113244   3.615   9.348   7.053 -0.1202 -0.6841  0.9671
36955SOL    HW213245   3.490   9.432   7.059 -0.0072 -0.0419 -2.9835
36956SOL     OW13246   7.812   7.270   7.687 -0.0555  0.3691  0.3483
36956SOL    HW113247   7.781   7.304   7.772 -0.4485  0.6188  0.1089
36956SOL    HW213248   7.733   7.235   7.646  0.1853 -0.0021  0.2013
36957SOL     OW13249   4.146   7.548   5.831  0.3208 -0.2910  0.2279
36957SOL    HW113250   4.166   7.615   5.767 -0.4813 -1.1963 -1.0367
36957SOL    HW213251   4.220   7.549   5.892  0.7921  1.0302 -0.3321
36958SOL     OW13252   2.930   6.207   1.073  0.7640 -0.5075  0.5237
36958SOL    HW113253   2.969   6.286   1.037 -2.2904  0.5492 -0.8384
36958SOL    HW213254   2.960   6.136   1.017 -0.7391  0.5611 -1.7789
36959SOL     OW13255   7.842   1.080   9.496  0.3754  0.4204 -0.1788
36959SOL    HW113256   7.888   1.021   9.436  0.7041  1.9787 -1.5483
36959SOL    HW213257   7.768   1.113   9.445 -0.5492  0.2354  0.9945
36960SOL     OW13258   7.374   6.308   0.421  0.1632  0.7498 -0.1942
36960SOL    HW113259   7.425   6.361   0.482 -0.4167  0.7765  0.2899
36960SOL    HW213260   7.386   6.350   0.336  0.1813  1.3153  0.0808
36961SOL     OW13261   6.606   8.126   1.897  0.3159 -0.1115  0.3469
36961SOL    HW113262   6.665   8.184   1.946  0.1168 -0.3175  0.8407
36961SOL    HW213263   6.522   8.136   1.941  0.3732 -1.0775  0.6959
36962SOL     OW13264   9.259   7.434   2.804  0.1322 -0.3966  0.3563
36962SOL    HW113265   9.191   7.491   2.769  0.2345 -0.1241  0.5913
36962SOL    HW213266   9.282   7.473   2.888  0.4802 -0.5632  0.3435
36963SOL     OW13267   6.211   6.874   7.805  0.7629 -0.1224 -0.2907
36963SOL    HW113268   6.183   6.965   7.820  0.1234 -0.6475  2.2838
36963SOL    HW213269   6.304   6.881   7.784  0.8441  1.1161  0.3916
36964SOL     OW13270   9.502   8.867   8.991  0.1081  0.0841 -0.0264
36964SOL    HW113271   9.569   8.849   8.925  0.1015  0.6368 -0.1834
36964SOL    HW213272   9.537   8.940   9.042 -0.7825  1.0088 -0.7086
36965SOL     OW13273   5.302   4.620   7.752  0.6130 -0.0921 -0.3819
36965SOL    HW113274   5.396   4.602   7.752  0.6165 -0.0805 -0.0412
36965SOL    HW213275   5.275   4.604   7.842  0.0379 -1.3986 -0.7648
36966SOL     OW13276   5.690   9.856  10.402 -0.3774 -0.6662 -0.1218
36966SOL    HW113277   5.737   9.781  10.439  0.7795  1.0617  2.2124
36966SOL    HW213278   5.599   9.828  10.397  0.1100 -2.4037  0.1464
36967SOL     OW13279   8.580   3.887  10.363 -0.0686 -0.2766  0.8087
36967SOL    HW113280   8.489   3.887  10.393 -0.4568  0.5863 -0.3273
36967SOL    HW213281   8.588   3.808  10.310 -1.1799  1.2919 -1.9297
36968SOL     OW13282   7.978  10.549   4.990  0.3262 -0.1885 -0.3080
36968SOL    HW113283   7.893  10.586   5.015  0.7853  2.1110 -1.7549
36968SOL    HW213284   8.038  10.575   5.060 -0.1166 -1.7758  0.6920
36969SOL     OW13285   5.888   2.246   8.420  0.2884  0.0014 -0.6863
36969SOL    HW113286   5.793   2.255   8.417  0.3327  0.6006 -0.4331
36969SOL    HW213287   5.904   2.154   8.399 -0.3696 -0.2002 -0.3477
36970SOL     OW13288   8.306   2.659   1.896 -0.5053  0.3306 -0.6104
36970SOL    HW113289   8.341   2.725   1.955  1.5821  0.5758 -2.0358
36970SOL    HW213290   8.225   2.629   1.939  0.1053  1.5837  1.5600
36971SOL     OW13291   6.571   9.885   8.434 -0.5982  0.1528 -0.0970
36971SOL    HW113292   6.616   9.946   8.376 -0.3339  0.1017  0.0504
36971SOL    HW213293   6.480   9.884   8.403 -0.2307 -0.7157 -1.2193
36972SOL     OW13294   3.932   5.948   4.082 -0.1005 -0.1436 -0.1531
36972SOL    HW113295   4.026   5.941   4.065 -0.0602  0.1723 -0.0584
36972SOL    HW213296   3.917   6.041   4.098 -0.1385 -0.4058  1.5079
36973SOL     OW13297   8.661   1.975   6.975 -0.5957 -0.2176 -0.2794
36973SOL    HW113298   8.741   2.001   6.930 -1.3683 -0.3323 -1.7765
36973SOL    HW213299   8.622   2.058   7.004 -0.4047 -0.0962 -0.3681
36974SOL     OW13300  10.086   9.151   0.726 -0.6705  0.1855 -0.5842
36974SOL    HW113301  10.159   9.214   0.722  0.3316 -0.8693  0.4545
36974SOL    HW213302  10.028   9.179   0.655  1.6282 -0.0405 -2.7185
36975SOL     OW13303   0.855   5.445   5.785 -0.1226 -0.0768 -0.3905
36975SOL    HW113304   0.781   5.446   5.725  1.0451  1.1457 -1.9174
36975SOL    HW213305   0.847   5.528   5.834  0.3044  0.1344 -0.6730
36976SOL     OW13306   5.244   4.208   3.887  0.5618  0.4106  0.1542
36976SOL    HW113307   5.325   4.257   3.901  0.0301  0.7881  2.3159
36976SOL    HW213308   5.200   4.209   3.973 -0.9120 -1.2634 -0.5079
36977SOL     OW13309   5.861   6.484   3.820  0.1888 -0.0025  0.0469
36977SOL    HW113310   5.794   6.416   3.811 -0.0332  0.1540  0.5023
36977SOL    HW213311   5.837   6.531   3.900  0.6910  0.2227  0.0688
36978SOL     OW13312   7.417   9.926   7.881  0.1908 -0.1281 -0.5545
36978SOL    HW113313   7.489   9.905   7.941  0.3749 -0.5322 -0.9202
36978SOL    HW213314   7.342   9.943   7.939  0.6526  0.6222 -0.1519
36979SOL     OW13315   0.024   5.712   2.075  0.0439  0.1522 -0.5272
36979SOL    HW113316   0.102   5.748   2.118  0.8823 -1.5901 -0.4923
36979SOL    HW213317  -0.039   5.701   2.146  0.3990 -0.0741 -0.2422
36980SOL     OW13318   6.241   6.352   5.520 -0.0994  0.4910 -0.2004
36980SOL    HW113319   6.231   6.361   5.615 -0.1539 -0.3041 -0.1260
36980SOL    HW213320   6.330   6.384   5.503  1.4618 -2.9601  0.6757
36981SOL     OW13321   3.322   5.878   7.291 -0.2512  0.6674  0.2870
36981SOL    HW113322   3.287   5.949   7.237  0.8543  0.4830 -0.7296
36981SOL    HW213323   3.250   5.854   7.349 -1.7430  0.4439 -1.5471
36982SOL     OW13324   8.941   5.460   5.423 -0.5230  0.2407  0.4312
36982SOL    HW113325   9.029   5.427   5.441 -0.7550 -0.2494  0.6677
36982SOL    HW213326   8.931   5.535   5.481  0.3871  1.3872 -0.8225
36983SOL     OW13327   0.399   3.120   9.117  0.0663  0.3111  0.0347
36983SOL    HW113328   0.346   3.113   9.196 -1.7719  0.4946 -1.1252
36983SOL    HW213329   0.411   3.030   9.088 -3.1664  0.3541 -1.8758
36984SOL     OW13330   1.377   3.654   6.226  0.0713  0.1619  0.1736
36984SOL    HW113331   1.402   3.725   6.166  0.8033 -1.7323 -1.9162
36984SOL    HW213332   1.457   3.636   6.276  0.8521 -1.0555 -1.3902
36985SOL     OW13333   1.321   1.895   5.151 -0.3073 -0.0486  0.2655
36985SOL    HW113334   1.372   1.966   5.192 -2.6414  1.5555  0.5897
36985SOL    HW213335   1.383   1.853   5.091  2.4905 -0.7781  3.4039
36986SOL     OW13336   9.635   6.271   0.236 -0.3844 -0.0896  0.0709
36986SOL    HW113337   9.723   6.303   0.214 -0.9508 -0.1936 -2.7772
36986SOL    HW213338   9.577   6.345   0.213 -1.1373 -0.5153  0.5769
36987SOL     OW13339   2.762   7.716   9.504 -0.5918 -0.0176  0.3411
36987SOL    HW113340   2.816   7.750   9.576 -1.3373  0.5698  0.6309
36987SOL    HW213341   2.715   7.793   9.471 -0.6033 -0.3703 -0.4771
36988SOL     OW13342   4.508   7.195   8.945  0.0575  0.4420  0.4505
36988SOL    HW113343   4.490   7.287   8.965  0.4818  0.5450  0.3622
36988SOL    HW213344   4.540   7.159   9.028  0.4859  0.5277  0.3246
36989SOL     OW13345   3.227   2.100   5.688 -0.3945 -0.2903 -0.0938
36989SOL    HW113346   3.168   2.064   5.622  1.2502 -1.0309 -1.2205
36989SOL    HW213347   3.176   2.098   5.770 -2.3804  0.4090 -1.2510
36990SOL     OW13348   7.514   9.343   9.868  0.2588  0.6632 -0.2358
36990SOL    HW113349   7.441   9.301   9.914  0.0418 -0.2522 -1.3471
36990SOL    HW213350   7.476   9.421   9.829 -0.0453  0.3885 -0.4984
36991SOL     OW13351   7.773   9.083   3.972 -0.0432 -0.2443  0.0715
36991SOL    HW113352   7.804   9.171   3.952 -1.3285  0.3602  0.6139
36991SOL    HW213353   7.723   9.057   3.895  0.0032 -0.3368  0.0729
36992SOL     OW13354   1.290   3.163   2.011 -0.9489 -0.0966 -0.0200
36992SOL    HW113355   1.259   3.137   2.098 -1.3442  0.1203 -0.0959
36992SOL    HW213356   1.318   3.081   1.971  0.3493 -0.0578  0.7436
36993SOL     OW13357   3.606  10.280   7.036  0.3782 -0.1551  0.1270
36993SOL    HW113358   3.685  10.263   6.984  1.2940  0.1388  1.3811
36993SOL    HW213359   3.535  10.240   6.985  0.9621  1.4370 -2.1436
36994SOL     OW13360  10.602   7.086   1.441 -0.0321 -0.3935 -0.5681
36994SOL    HW113361  10.603   7.100   1.535  0.8369  3.0113 -0.9304
36994SOL    HW213362  10.680   7.033   1.423  0.5112 -0.0020  0.5506
36995SOL     OW13363   6.975   1.436   0.078  0.4203  0.2600  0.0579
36995SOL    HW113364   6.979   1.423  -0.016  0.2386  0.4701  0.0192
36995SOL    HW213365   7.029   1.366   0.115 -0.8073 -0.8312 -0.1191
36996SOL     OW13366   3.460   4.386   8.409 -0.1190  0.1909 -0.1141
36996SOL    HW113367   3.414   4.342   8.480 -0.8120  1.9950  0.6080
36996SOL    HW213368   3.399   4.452   8.378  1.5342  1.9031  0.1135
36997SOL     OW13369   2.490   3.466   0.207 -0.1307  0.1559 -0.6614
36997SOL    HW113370   2.419   3.509   0.254 -0.1784 -0.0920 -0.5106
36997SOL    HW213371   2.448   3.422   0.133 -0.2168 -0.5129 -0.2225
36998SOL     OW13372   9.758   2.123   8.023 -0.3818 -0.1453  0.1211
36998SOL    HW113373   9.794   2.210   8.003 -1.3466  0.3519  0.5057
36998SOL    HW213374   9.835   2.067   8.032  0.2291 -0.0534 -3.2552
36999SOL     OW13375   5.020   7.791   6.807  0.3892  0.1700 -0.1902
36999SOL    HW113376   5.012   7.766   6.899  0.5486 -0.6514 -0.3906
36999SOL    HW213377   4.943   7.753   6.765  0.3083  0.5543 -0.4030
37000SOL     OW13378   5.719   2.596   6.104 -0.8378  0.2934  0.2961
37000SOL    HW113379   5.758   2.550   6.029 -0.7769  0.1460  0.4185
37000SOL    HW213380   5.681   2.527   6.158 -0.4434  0.3537  0.6589
37001SOL     OW13381   1.847   3.076   2.195  0.1955  0.0895  0.4084
37001SOL    HW113382   1.777   3.029   2.240 -0.1073 -0.5666 -0.7115
37001SOL    HW213383   1.844   3.164   2.232 -0.1696 -0.3658  1.5112
37002SOL     OW13384  10.303   4.167   4.823 -0.0223  0.3733 -0.3261
37002SOL    HW113385  10.256   4.085   4.840  0.0019  0.4218 -0.0135
37002SOL    HW213386  10.340   4.155   4.736 -1.3118  0.6652 -0.9380
37003SOL     OW13387   4.521   3.906   6.897  0.1880 -0.1186 -0.3079
37003SOL    HW113388   4.586   3.934   6.832 -1.1762  0.5434 -1.4533
37003SOL    HW213389   4.547   3.952   6.978  0.5831  0.9132 -0.9997
37004SOL     OW13390   8.007   9.609   2.979  0.4993 -0.0867 -0.4563
37004SOL    HW113391   8.061   9.627   2.903  1.0224  1.2291  0.2088
37004SOL    HW213392   8.045   9.529   3.017  1.2540  0.1750 -0.6472
37005SOL     OW13393   7.771   9.442   5.924 -0.5307 -0.1465  0.1879
37005SOL    HW113394   7.733   9.496   5.856  1.0109  1.0887  0.2374
37005SOL    HW213395   7.794   9.504   5.994  2.1796 -0.6491 -0.1512
37006SOL     OW13396  10.360   5.893   7.210 -0.1163 -0.7373  0.0449
37006SOL    HW113397  10.314   5.810   7.219 -1.9941  0.0772 -1.4492
37006SOL    HW213398  10.334   5.943   7.287 -3.0096  0.2355 -1.4476
37007SOL     OW13399   9.310   5.333   3.855 -0.0073  0.1267 -0.0263
37007SOL    HW113400   9.392   5.289   3.835 -0.5746 -1.4452  0.9338
37007SOL    HW213401   9.250   5.305   3.785 -0.4532 -0.9577  0.7493
37008SOL     OW13402   9.903   6.678   2.871  0.2105 -0.0459 -0.4493
37008SOL    HW113403   9.877   6.594   2.911 -0.8623 -0.2679 -1.5373
37008SOL    HW213404   9.851   6.743   2.918  1.0164  0.0236  0.3719
37009SOL     OW13405   4.975   6.079   9.175 -0.4563 -0.5267  0.4607
37009SOL    HW113406   4.924   6.055   9.098 -1.2432 -0.5563  0.9863
37009SOL    HW213407   4.965   6.174   9.182 -0.9820 -0.6123  0.9378
37010SOL     OW13408   7.559   0.518   2.081 -0.3045  0.0665 -0.2893
37010SOL    HW113409   7.530   0.497   2.170 -0.9117 -1.7920 -0.8658
37010SOL    HW213410   7.647   0.482   2.075 -0.9063 -1.3991 -0.9234
37011SOL     OW13411   1.528   0.786   0.991 -0.0540 -0.4094 -0.1216
37011SOL    HW113412   1.487   0.866   1.025  0.4181 -0.7033  1.1997
37011SOL    HW213413   1.567   0.812   0.908  1.6751  1.2199  1.1335
37012SOL     OW13414   8.283   6.489   2.591  0.6488 -0.1035 -0.1543
37012SOL    HW113415   8.232   6.528   2.662  1.6910  0.5360  0.2784
37012SOL    HW213416   8.373   6.517   2.608  1.2532 -1.6414 -0.5659
37013SOL     OW13417   2.505   8.475   1.794  0.6499 -0.6027  0.4497
37013SOL    HW113418   2.547   8.389   1.787  1.5601 -0.0854 -0.8166
37013SOL    HW213419   2.537   8.509   1.878  0.8194 -1.2220  0.6486
37014SOL     OW13420   5.491   7.674   9.037  0.2526  0.4997 -0.2187
37014SOL    HW113421   5.424   7.654   9.103  0.6218  1.6269  0.5141
37014SOL    HW213422   5.546   7.595   9.035 -0.1817  0.1729  0.2968
37015SOL     OW13423   6.246   8.719   8.439 -0.0501 -1.2841 -0.0286
37015SOL    HW113424   6.288   8.723   8.353 -1.6534  1.2490 -0.8407
37015SOL    HW213425   6.313   8.686   8.498  1.6710 -1.4265 -1.9669
37016SOL     OW13426   9.068   6.946   8.334  0.1802  0.5731 -0.5021
37016SOL    HW113427   9.011   6.871   8.315  0.7905  0.3219 -1.4476
37016SOL    HW213428   9.098   6.932   8.424  0.1254 -0.2166 -0.6011
37017SOL     OW13429   3.382   9.468   8.142 -0.4290 -0.5928  0.4199
37017SOL    HW113430   3.309   9.522   8.112 -0.3132 -0.9013 -0.4454
37017SOL    HW213431   3.458   9.527   8.139 -0.2581 -0.8595 -0.7593
37018SOL     OW13432   5.722   0.680   5.970 -0.1565  0.8277  0.8811
37018SOL    HW113433   5.712   0.705   5.878 -1.0239  0.5635  0.8901
37018SOL    HW213434   5.815   0.691   5.989 -0.0157  1.1125  0.0377
37019SOL     OW13435   4.097   4.599   4.523  0.1845 -0.4086 -0.0275
37019SOL    HW113436   4.151   4.585   4.600  0.1740  0.2185  0.0943
37019SOL    HW213437   4.009   4.615   4.557  0.4064  1.0738 -0.0966
37020SOL     OW13438   2.805   9.291   2.695  0.5393 -0.7265  0.0276
37020SOL    HW113439   2.736   9.226   2.706  1.0802 -1.1262  1.1540
37020SOL    HW213440   2.882   9.252   2.736  0.9986  0.4266  0.3047
37021SOL     OW13441   4.999   1.987   4.046  0.5218  0.1173  0.4025
37021SOL    HW113442   4.918   2.033   4.066  0.5197 -0.4951  1.9289
37021SOL    HW213443   5.061   2.016   4.113  1.0137 -0.7861  0.3646
37022SOL     OW13444  10.519   7.666   5.273 -0.0521 -0.0600 -0.0064
37022SOL    HW113445  10.583   7.710   5.328 -0.5983  2.0563 -0.9868
37022SOL    HW213446  10.527   7.708   5.187 -1.2112 -1.2978 -0.7713
37023SOL     OW13447   0.802   4.901   8.594 -0.1093  0.7264  0.1885
37023SOL    HW113448   0.752   4.839   8.648  1.6246 -1.4977 -0.6097
37023SOL    HW213449   0.758   4.900   8.510  0.0143  0.4413  0.1272
37024SOL     OW13450   0.269   9.858   9.704  0.4385  0.0594 -0.7067
37024SOL    HW113451   0.179   9.828   9.716  0.9454 -0.3332  3.1848
37024SOL    HW213452   0.318   9.779   9.679  0.0056 -0.0271 -1.3167
37025SOL     OW13453   3.257   0.589   6.222 -0.2976  0.0452 -0.9853
37025SOL    HW113454   3.269   0.566   6.130  0.3201  0.0401 -0.9083
37025SOL    HW213455   3.342   0.625   6.249 -0.4942  0.1030 -0.4369
37026SOL     OW13456   0.615   3.315  10.337 -0.1332 -0.4385 -0.2474
37026SOL    HW113457   0.620   3.243  10.275  0.9977 -0.3365 -0.2936
37026SOL    HW213458   0.683   3.296  10.402  2.9658  2.4494 -2.3148
37027SOL     OW13459   7.951   9.675   9.009  0.7248  0.6060 -0.1819
37027SOL    HW113460   7.857   9.668   9.023  0.7443 -1.2604 -0.6892
37027SOL    HW213461   7.960   9.706   8.919  0.5749 -0.0515 -0.4307
37028SOL     OW13462   8.067   0.697   6.932  0.3051 -0.3790 -0.4260
37028SOL    HW113463   8.052   0.661   6.845  1.4549 -2.0150  0.0045
37028SOL    HW213464   8.010   0.646   6.990 -0.8970  1.0887 -0.2475
37029SOL     OW13465   6.522   6.159  10.746  0.1199  0.1547  0.3049
37029SOL    HW113466   6.534   6.158  10.841 -0.3159 -0.5620  0.3541
37029SOL    HW213467   6.589   6.100  10.713 -0.6250 -0.6859  0.2765
37030SOL     OW13468   6.294   4.897   2.273  0.4634 -0.4863  0.3543
37030SOL    HW113469   6.283   4.813   2.317 -1.7246 -0.5622 -0.1935
37030SOL    HW213470   6.260   4.882   2.184  2.0562  0.4271 -0.4523
37031SOL     OW13471   2.112   2.177   1.189  0.0588 -0.0921 -0.7200
37031SOL    HW113472   2.060   2.248   1.150  0.4743  1.2787  1.0707
37031SOL    HW213473   2.050   2.129   1.244  0.2579  0.3710 -0.0768
37032SOL     OW13474   5.765   6.666  10.434 -0.1886 -0.0085  0.1380
37032SOL    HW113475   5.830   6.685  10.503  0.4258  0.1655 -0.4762
37032SOL    HW213476   5.809   6.690  10.353 -0.2479 -1.8291 -0.4813
37033SOL     OW13477   4.681   8.797   9.303 -0.1202  0.0883  0.1891
37033SOL    HW113478   4.621   8.839   9.241  2.0709 -0.5773 -2.5736
37033SOL    HW213479   4.651   8.707   9.308 -0.3749  0.1705  0.1479
37034SOL     OW13480   7.092   9.276   1.471  0.0251 -0.3526 -0.7358
37034SOL    HW113481   7.039   9.339   1.520 -0.0114 -1.5005  0.7503
37034SOL    HW213482   7.031   9.206   1.448  0.0850  0.0735 -2.3043
37035SOL     OW13483   7.140   8.763   1.492  0.1124 -0.2053 -0.1071
37035SOL    HW113484   7.106   8.678   1.521  3.2350 -1.7332 -0.4916
37035SOL    HW213485   7.119   8.765   1.398  0.0745 -0.5912 -0.1120
37036SOL     OW13486  10.571   8.408   7.487 -0.1406  0.1213 -0.1018
37036SOL    HW113487  10.580   8.403   7.582 -0.6404  0.1741 -0.0506
37036SOL    HW213488  10.661   8.417   7.455 -0.0143  0.6276  0.3939
37037SOL     OW13489   3.773   5.715   6.542 -0.2110 -0.3911 -0.8860
37037SOL    HW113490   3.762   5.680   6.454  0.3782 -0.8793 -0.7723
37037SOL    HW213491   3.805   5.641   6.594 -2.1434 -0.5766  0.1338
37038SOL     OW13492   0.633   7.624  10.769  0.3956  0.0243  0.2438
37038SOL    HW113493   0.603   7.535  10.791 -0.2631  0.5315  1.4759
37038SOL    HW213494   0.646   7.621  10.674 -3.3100 -0.3663 -0.4229
37039SOL     OW13495  10.489   3.541   3.372 -0.5722 -0.4768  0.0168
37039SOL    HW113496  10.503   3.451   3.399  1.0906  0.0939  1.2556
37039SOL    HW213497  10.467   3.587   3.453 -0.6195  0.3738 -0.4690
37040SOL     OW13498   6.617   0.661   6.341  0.4989  0.5160  0.1174
37040SOL    HW113499   6.617   0.636   6.249 -4.0529 -0.0438  0.0165
37040SOL    HW213500   6.661   0.746   6.343  0.9854  0.4119 -2.5164
37041SOL     OW13501  10.071   7.280   8.000 -0.1789  0.2176  0.2215
37041SOL    HW113502  10.135   7.329   7.947 -1.1091  1.2601  0.0291
37041SOL    HW213503  10.011   7.347   8.033 -1.9862 -0.8633 -0.7212
37042SOL     OW13504   7.458   8.649   3.256  0.7363  0.3449  0.0368
37042SOL    HW113505   7.441   8.602   3.338  1.3373 -0.3520 -0.2247
37042SOL    HW213506   7.543   8.690   3.269  0.0748  1.6556  0.3819
37043SOL     OW13507   6.933   7.758   6.486 -0.1290  0.1461 -0.0657
37043SOL    HW113508   6.888   7.677   6.462  0.1329 -0.3748  1.1600
37043SOL    HW213509   6.888   7.789   6.564 -0.1808  1.1514 -0.4865
37044SOL     OW13510   3.370   4.868   0.320 -0.0286 -0.3394  0.7930
37044SOL    HW113511   3.431   4.931   0.281  3.1864 -2.0902  2.5742
37044SOL    HW213512   3.403   4.782   0.294 -2.7456 -1.4282  0.5845
37045SOL     OW13513   2.260   9.687   6.599  0.3267 -0.1055  0.4643
37045SOL    HW113514   2.245   9.752   6.667  2.1695 -0.8030  1.6120
37045SOL    HW213515   2.222   9.607   6.633  1.5756 -0.5463  0.8996
37046SOL     OW13516   0.155   9.107   4.996  0.1262  0.5229  0.2065
37046SOL    HW113517   0.067   9.132   4.969  0.3770  0.9205 -0.2625
37046SOL    HW213518   0.209   9.184   4.975  0.3783  0.7649  1.5925
37047SOL     OW13519   0.201   9.286   8.023 -0.0378 -0.2183  0.2234
37047SOL    HW113520   0.257   9.363   8.035  0.0418 -0.1744 -0.3784
37047SOL    HW213521   0.198   9.245   8.109  0.4922  0.0692  0.3877
37048SOL     OW13522  10.012   0.868  10.226  0.4549  0.5212  0.2483
37048SOL    HW113523   9.961   0.939  10.265 -0.5406  0.7921 -1.4645
37048SOL    HW213524   9.979   0.861  10.137  1.3549 -1.3304  0.0218
37049SOL     OW13525   0.963   7.375   7.195 -0.8950  0.4883  0.4900
37049SOL    HW113526   0.965   7.431   7.273 -1.3998  2.3596 -0.7874
37049SOL    HW213527   1.045   7.393   7.149 -1.0733  0.1978  0.0460
37050SOL     OW13528   8.440   4.989  10.709  0.1155 -0.3560  0.5160
37050SOL    HW113529   8.534   4.991  10.729  0.6237  0.4980 -1.5927
37050SOL    HW213530   8.410   4.903  10.738  1.5409 -0.6176  1.2775
37051SOL     OW13531   0.371   7.853   5.082 -0.3277 -0.1579 -0.2001
37051SOL    HW113532   0.371   7.836   4.988  2.0891  2.8922 -0.9305
37051SOL    HW213533   0.294   7.808   5.115 -0.7497 -2.1141 -3.4564
37052SOL     OW13534   2.971   9.428   3.439 -0.1175  0.3741  0.7662
37052SOL    HW113535   2.929   9.503   3.397  0.2514  0.3435  0.3300
37052SOL    HW213536   2.993   9.458   3.527  0.5535  0.9806  0.4071
37053SOL     OW13537   4.434   2.696   7.404 -0.7592  0.0109 -0.2599
37053SOL    HW113538   4.368   2.666   7.466 -0.4528 -0.4534 -0.1529
37053SOL    HW213539   4.408   2.656   7.321  0.7231 -2.2020  0.2667
37054SOL     OW13540   3.776   2.045   3.396  0.2544 -0.1424 -0.8166
37054SOL    HW113541   3.680   2.048   3.387  0.1376  4.1188  0.0927
37054SOL    HW213542   3.791   1.986   3.470 -1.7307 -0.0941 -0.3138
37055SOL     OW13543   1.560   5.394   2.037 -0.0167  0.0615 -0.4017
37055SOL    HW113544   1.629   5.461   2.035 -1.8936  2.1315  0.1185
37055SOL    HW213545   1.509   5.410   1.958 -1.7404  0.7181  0.7810
37056SOL     OW13546   7.500   9.520   0.368  0.4607  0.0689 -0.1499
37056SOL    HW113547   7.596   9.520   0.367  0.5038  0.8445  1.4368
37056SOL    HW213548   7.476   9.527   0.276  1.9269 -0.0299 -0.5748
37057SOL     OW13549   6.077   3.159   0.108 -0.3271  0.2717 -0.1302
37057SOL    HW113550   6.107   3.132   0.195 -2.4983  1.1913  0.9778
37057SOL    HW213551   6.143   3.221   0.078 -1.0000  2.2913  2.2267
37058SOL     OW13552   1.919   1.490   0.793 -0.5413  0.0113 -0.0923
37058SOL    HW113553   1.966   1.415   0.757 -1.0187  0.6988 -2.3673
37058SOL    HW213554   1.978   1.565   0.778 -1.0228  0.4082 -0.0466
37059SOL     OW13555   5.169   7.094   9.760 -0.2234  0.2615 -0.5873
37059SOL    HW113556   5.117   7.173   9.776  0.2056  0.3550  0.4431
37059SOL    HW213557   5.196   7.065   9.847 -0.1824 -0.9003 -0.9666
37060SOL     OW13558   5.588   4.269   8.372  0.1916 -0.0075 -0.1408
37060SOL    HW113559   5.650   4.203   8.342  0.1220  0.6525 -1.8694
37060SOL    HW213560   5.640   4.333   8.419  0.3116 -1.0827  1.2391
37061SOL     OW13561   3.225   9.292   3.451 -0.2910  0.3696 -0.2391
37061SOL    HW113562   3.291   9.349   3.490  0.2116  0.2818 -0.9311
37061SOL    HW213563   3.141   9.335   3.471 -0.0992  0.0852  1.3019
37062SOL     OW13564  10.438   9.591   5.761 -0.4666 -0.7049  0.8333
37062SOL    HW113565  10.513   9.579   5.819  1.5265 -1.3031 -1.6910
37062SOL    HW213566  10.461   9.667   5.707 -1.7070 -0.8459  0.0520
37063SOL     OW13567   9.124   1.774   5.861 -0.3206 -0.4796  0.3212
37063SOL    HW113568   9.068   1.850   5.877 -1.0513 -0.5116 -1.8408
37063SOL    HW213569   9.151   1.783   5.770  2.1483 -1.1832  0.9052
37064SOL     OW13570   0.682   9.216   2.195  0.4978 -0.2300  0.7070
37064SOL    HW113571   0.632   9.244   2.119  1.3688  0.8981  0.5262
37064SOL    HW213572   0.654   9.126   2.210 -1.3755  0.2745  0.4648
37065SOL     OW13573   8.236   5.358  10.238  0.1105  0.2162 -0.1302
37065SOL    HW113574   8.281   5.411  10.303  0.0650 -1.9841  1.8639
37065SOL    HW213575   8.278   5.379  10.155  2.5630  0.6465  1.1493
37066SOL     OW13576   2.303   3.254   3.884  0.4597  0.0184 -1.1233
37066SOL    HW113577   2.281   3.168   3.847  1.3062 -0.6109 -0.1974
37066SOL    HW213578   2.224   3.280   3.931 -0.3126  0.4227 -2.5779
37067SOL     OW13579   4.998   2.633   9.279  0.3776 -0.2547  0.5241
37067SOL    HW113580   4.959   2.654   9.194  1.3067  0.8367  0.3453
37067SOL    HW213581   4.924   2.635   9.340  0.1602  2.3294  0.2920
37068SOL     OW13582   1.005   4.727   3.391  0.1806  0.0272 -0.0708
37068SOL    HW113583   1.022   4.690   3.478 -1.2683  2.0455  1.1778
37068SOL    HW213584   1.041   4.663   3.330  2.4641 -0.8518  2.0127
37069SOL     OW13585   8.441   7.571  10.588 -0.4822 -0.0224  0.2731
37069SOL    HW113586   8.374   7.509  10.560 -1.9604  1.0224  1.3168
37069SOL    HW213587   8.409   7.656  10.557  0.6282  0.4356  0.3429
37070SOL     OW13588   7.706   4.925   3.828  0.3180 -0.4566 -0.0962
37070SOL    HW113589   7.684   4.853   3.886  0.5986  1.1415  2.1170
37070SOL    HW213590   7.658   5.000   3.863  1.0916  0.7445 -1.4914
37071SOL     OW13591   5.305   2.213   2.951 -0.2000 -0.1901  0.5557
37071SOL    HW113592   5.378   2.243   3.005  0.6495 -0.0668 -0.6350
37071SOL    HW213593   5.241   2.285   2.955  0.7429  0.7191 -0.2371
37072SOL     OW13594   6.143   4.974   6.067 -0.5186  0.1841 -0.0309
37072SOL    HW113595   6.197   5.052   6.072 -1.0737  0.6234 -0.6427
37072SOL    HW213596   6.181   4.913   6.130 -1.2034  1.6195  1.8290
37073SOL     OW13597  10.782   1.713   1.905  0.2503 -0.1258  0.3758
37073SOL    HW113598  10.863   1.696   1.954  0.7932  3.2040  0.8600
37073SOL    HW213599  10.732   1.771   1.961  1.1440  4.4143 -2.9518
37074SOL     OW13600   8.646   4.233   7.852 -0.8196  0.4170 -0.0711
37074SOL    HW113601   8.635   4.328   7.846  1.1496  0.8966  2.4656
37074SOL    HW213602   8.734   4.216   7.820 -1.5274 -0.7465 -1.5207
37075SOL     OW13603   4.100   2.435   1.838  0.2853 -0.3428 -0.5358
37075SOL    HW113604   4.182   2.417   1.883  0.5296  0.8828 -0.4494
37075SOL    HW213605   4.118   2.416   1.746  0.8847  0.5618 -0.6176
37076SOL     OW13606   2.722   0.589   6.672 -0.2441 -0.2287 -0.3910
37076SOL    HW113607   2.651   0.564   6.613 -0.0801  1.5398 -1.4099
37076SOL    HW213608   2.802   0.568   6.624 -0.0844 -0.3964 -0.0570
37077SOL     OW13609   7.202   1.733   1.905 -0.4552  0.1476 -0.1560
37077SOL    HW113610   7.223   1.790   1.831 -1.3573  0.2328 -0.3504
37077SOL    HW213611   7.197   1.646   1.867  0.3800  0.0029  0.0453
37078SOL     OW13612   0.096   1.874   6.779  0.2831  0.1815  0.1001
37078SOL    HW113613   0.159   1.820   6.732 -0.2336 -0.3350 -0.0133
37078SOL    HW213614   0.121   1.964   6.759  0.4091 -0.0301 -0.6955
37079SOL     OW13615   8.185   4.942   6.809 -0.1796 -0.0690  0.4153
37079SOL    HW113616   8.150   4.997   6.879 -1.5690  1.1843 -1.2073
37079SOL    HW213617   8.110   4.920   6.755  1.1220  0.6777 -1.8283
37080SOL     OW13618   1.329   5.230   4.196  0.1609 -0.5778  0.0801
37080SOL    HW113619   1.276   5.259   4.270  1.1168 -0.1751  0.6361
37080SOL    HW213620   1.313   5.136   4.190 -1.0265 -0.3778 -0.1303
37081SOL     OW13621   9.768   2.746   5.391  0.2960  0.2929 -0.4490
37081SOL    HW113622   9.676   2.748   5.421  0.2003 -1.2213 -0.5719
37081SOL    HW213623   9.816   2.713   5.467  0.4850 -0.5941 -0.9443
37082SOL     OW13624   9.127   8.055  10.696  0.2720 -0.5514  0.4543
37082SOL    HW113625   9.183   7.983  10.669  0.5122 -0.4661  0.7231
37082SOL    HW213626   9.072   8.017  10.765 -1.0332 -1.0526 -0.8145
37083SOL     OW13627   2.834  10.535  10.526  0.3231 -0.2868  0.2990
37083SOL    HW113628   2.891  10.458  10.530  1.2610  0.4543  2.0577
37083SOL    HW213629   2.884  10.599  10.475  0.4101 -0.1549  0.5496
37084SOL     OW13630   7.029   7.611   3.163  0.9671 -0.6899 -0.0023
37084SOL    HW113631   6.987   7.525   3.163  0.6468 -0.5818 -2.0177
37084SOL    HW213632   7.054   7.626   3.072  0.3621  1.6696  0.1484
37085SOL     OW13633   1.234   6.217   0.980  0.0083  0.1462  0.4098
37085SOL    HW113634   1.320   6.255   0.958  0.3146 -1.9153 -2.5366
37085SOL    HW213635   1.255   6.141   1.033  0.1414 -0.8428 -1.0079
37086SOL     OW13636   2.058   8.077   6.514  0.0875 -0.0818  0.1777
37086SOL    HW113637   2.048   8.017   6.440  0.0808 -0.3126  0.3674
37086SOL    HW213638   2.020   8.031   6.589  1.7144 -0.6044  0.7201
37087SOL     OW13639   2.735   8.778   7.935 -0.4377  0.2276  0.2175
37087SOL    HW113640   2.786   8.829   7.997 -0.7520  1.5433 -0.5615
37087SOL    HW213641   2.681   8.843   7.889 -0.9564 -0.8207 -0.7155
37088SOL     OW13642   6.471   9.645   6.673 -0.5696 -0.2279 -0.7059
37088SOL    HW113643   6.534   9.573   6.675 -0.5378 -0.2464 -1.9035
37088SOL    HW213644   6.485   9.687   6.588 -0.5759  1.2119 -0.0253
37089SOL     OW13645   1.995   2.470   1.720  0.8690  0.2213 -0.9382
37089SOL    HW113646   2.041   2.390   1.697  0.6114 -0.5697  1.1067
37089SOL    HW213647   1.924   2.477   1.655  0.4479 -1.6081 -0.7317
37090SOL     OW13648   1.169   8.831   7.633 -0.5032 -0.2751 -0.3152
37090SOL    HW113649   1.172   8.903   7.696 -2.1866 -0.4787  0.0592
37090SOL    HW213650   1.249   8.841   7.582 -0.9232  2.2360 -0.6514
37091SOL     OW13651   7.416   5.345  10.542 -0.2758 -0.0899 -0.5705
37091SOL    HW113652   7.325   5.375  10.539 -0.4946 -0.3761  1.5750
37091SOL    HW213653   7.411   5.259  10.583  1.1680  1.3568  3.0893
37092SOL     OW13654   6.322   9.259   6.712 -0.1206  0.6724 -0.2752
37092SOL    HW113655   6.321   9.338   6.658 -0.0227  0.7628 -0.1428
37092SOL    HW213656   6.351   9.289   6.798 -1.5503  0.7820  0.2097
37093SOL     OW13657  10.171   2.243   1.860 -0.0642  0.4376 -0.0893
37093SOL    HW113658  10.145   2.308   1.794 -0.4586 -1.6293 -2.0866
37093SOL    HW213659  10.151   2.159   1.820  1.1062 -0.9796  2.1101
37094SOL     OW13660   7.134  10.206   0.342 -1.1176 -0.1293  0.3138
37094SOL    HW113661   7.124  10.300   0.329 -0.2008 -0.1002 -0.2029
37094SOL    HW213662   7.193  10.199   0.418  0.4292 -0.2607 -0.8604
37095SOL     OW13663   9.388  10.010   8.245  0.1798  0.3456 -0.4949
37095SOL    HW113664   9.321   9.961   8.293 -0.0852  0.0805 -1.1304
37095SOL    HW213665   9.464  10.009   8.303 -0.9296  2.3382  1.1399
37096SOL     OW13666   6.152   8.045   7.975 -0.1109  0.4033  0.0906
37096SOL    HW113667   6.164   8.082   7.887  3.3725 -0.1030  0.2366
37096SOL    HW213668   6.204   8.101   8.032 -1.1268 -0.1561  1.6314
37097SOL     OW13669   6.457   2.039   4.516 -0.8047 -0.0116 -0.3429
37097SOL    HW113670   6.515   1.967   4.541  1.0100  1.7297  0.7933
37097SOL    HW213671   6.382   2.031   4.575  0.2384  0.0539  1.0357
37098SOL     OW13672   9.794   6.871   1.875  0.1498  0.2382 -0.4081
37098SOL    HW113673   9.799   6.911   1.788 -0.4930 -0.9022 -0.9935
37098SOL    HW213674   9.711   6.902   1.911  0.2205  0.3727 -0.3542
37099SOL     OW13675   8.495   9.329   3.072 -0.1648  0.3039 -0.1832
37099SOL    HW113676   8.580   9.303   3.106 -0.3357  0.9670  0.7882
37099SOL    HW213677   8.495   9.424   3.075 -1.4589  0.3093  1.2298
37100SOL     OW13678   7.968  10.586   6.488  0.2215 -0.0548  0.2779
37100SOL    HW113679   7.875  10.566   6.490  0.2627 -0.2733  0.0369
37100SOL    HW213680   7.975  10.671   6.532 -0.0635 -0.1375  0.4872
37101SOL     OW13681   7.695   1.254   6.646 -0.5586  0.2793  0.6260
37101SOL    HW113682   7.638   1.223   6.575  0.7747 -1.2936  0.2063
37101SOL    HW213683   7.777   1.278   6.602 -0.0778  0.2711  1.5089
37102SOL     OW13684   6.665  10.606   4.576 -0.4507 -0.3733 -0.1562
37102SOL    HW113685   6.737  10.661   4.545 -0.5908 -0.7539 -1.1895
37102SOL    HW213686   6.624  10.657   4.645 -0.5751  0.8290 -1.0832
37103SOL     OW13687   6.397   1.871   8.289 -0.2005  1.0136  0.4617
37103SOL    HW113688   6.469   1.812   8.267  0.0133  0.9050  1.3749
37103SOL    HW213689   6.440   1.948   8.325 -0.3786  2.5720 -2.3862
37104SOL     OW13690   6.600  10.418   4.788 -0.1433 -0.0747 -0.6861
37104SOL    HW113691   6.667  10.434   4.723 -1.1936  0.4442 -1.6785
37104SOL    HW213692   6.581  10.504   4.825 -0.8505 -0.0790 -1.0220
37105SOL     OW13693   0.153  10.154   4.572 -0.3835  0.5699  0.1957
37105SOL    HW113694   0.083  10.154   4.507 -0.4888 -0.8451  0.2789
37105SOL    HW213695   0.132  10.228   4.629 -1.7539  0.2339  0.1615
37106SOL     OW13696   7.486   1.819   5.103  0.6378 -0.1305  0.1376
37106SOL    HW113697   7.416   1.821   5.038  0.9071  0.4097 -0.1469
37106SOL    HW213698   7.541   1.895   5.082  0.5134  0.2915  1.2351
37107SOL     OW13699   2.203   7.123   7.900 -0.1310  0.6152 -0.2140
37107SOL    HW113700   2.198   7.028   7.903 -1.9314  0.6437 -0.8192
37107SOL    HW213701   2.250   7.148   7.980 -1.8620 -0.6812  1.2771
37108SOL     OW13702   0.455   4.367   0.271 -0.2289 -0.0977  0.4153
37108SOL    HW113703   0.440   4.330   0.184 -0.3328 -0.3289  0.5314
37108SOL    HW213704   0.526   4.315   0.308 -0.6689 -0.4699  0.7495
37109SOL     OW13705   8.233  10.158   1.961  0.2322 -0.7280  0.9020
37109SOL    HW113706   8.141  10.134   1.951  0.0220 -0.3019  1.7176
37109SOL    HW213707   8.234  10.215   2.038  1.0950 -0.2693  0.5602
37110SOL     OW13708  10.159   2.996   2.359  0.1419  0.0459  0.2477
37110SOL    HW113709  10.165   3.037   2.273 -0.9639 -0.9161 -0.3035
37110SOL    HW213710  10.150   3.069   2.420 -1.4497  0.6701 -0.6820
37111SOL     OW13711   6.016  10.344  10.480 -0.2839 -0.4961  0.4680
37111SOL    HW113712   5.927  10.320  10.506 -0.8711 -0.3177 -1.2254
37111SOL    HW213713   6.029  10.432  10.514 -1.7529  0.5034 -1.3984
37112SOL     OW13714   7.764   5.374   6.417  0.1198  0.4342 -0.5884
37112SOL    HW113715   7.754   5.444   6.482 -1.4680  0.5574 -0.9115
37112SOL    HW213716   7.798   5.418   6.339  0.6108  0.5608 -0.3033
37113SOL     OW13717   0.049   2.967   4.253 -1.1510  0.1008  0.8882
37113SOL    HW113718   0.032   2.950   4.161 -1.5031  0.3553  0.9021
37113SOL    HW213719   0.024   2.886   4.298  0.0464 -0.4166  0.6602
37114SOL     OW13720   2.880   7.147   7.845 -0.0678  0.2418  0.0896
37114SOL    HW113721   2.886   7.192   7.929 -1.3496 -1.9560  1.4696
37114SOL    HW213722   2.969   7.116   7.829  0.2588  0.9516  0.4811
37115SOL     OW13723   5.208   8.714   3.476 -0.3153  0.1383  0.2084
37115SOL    HW113724   5.250   8.763   3.546 -1.0450  0.1578  0.6435
37115SOL    HW213725   5.150   8.653   3.521 -0.1729 -0.4227 -0.3570
37116SOL     OW13726   6.760  10.128   8.411  0.6205  0.2863  0.1042
37116SOL    HW113727   6.715  10.167   8.336  1.3317 -0.4671 -0.7378
37116SOL    HW213728   6.798  10.047   8.377  0.5812 -0.3056  1.3963
37117SOL     OW13729   0.129   5.727   4.171 -0.3430  0.3046  0.1198
37117SOL    HW113730   0.151   5.750   4.081  1.9596  0.8349  0.7615
37117SOL    HW213731   0.180   5.648   4.189  0.2819  0.9609  1.3542
37118SOL     OW13732   9.077   6.768  10.719  0.1118 -0.0800 -0.0113
37118SOL    HW113733   9.111   6.854  10.696 -1.1023 -0.1164 -2.2390
37118SOL    HW213734   9.052   6.775  10.811  1.1859  1.5388  0.1957
37119SOL     OW13735   5.214   8.553   8.193  0.6173 -0.3791 -0.3296
37119SOL    HW113736   5.295   8.559   8.244 -0.4594 -0.1392  1.4325
37119SOL    HW213737   5.154   8.506   8.249 -1.0582  1.1113 -0.7895
37120SOL     OW13738  10.543   0.915   4.882 -0.8633 -0.0835 -0.2409
37120SOL    HW113739  10.617   0.866   4.847 -1.0664 -2.0358  1.8185
37120SOL    HW213740  10.583   0.978   4.943 -0.7867  0.3919 -0.7724
37121SOL     OW13741   1.707   2.742   7.466 -0.0662  0.3602  0.3613
37121SOL    HW113742   1.623   2.697   7.462 -0.1934  0.4485  1.5559
37121SOL    HW213743   1.684   2.832   7.488  0.3405  0.3514  0.8305
37122SOL     OW13744   3.059   6.284   3.291  0.3091 -0.2402 -0.1560
37122SOL    HW113745   3.116   6.276   3.367  1.5570  0.0749 -1.0305
37122SOL    HW213746   3.009   6.364   3.306  0.6852 -0.0771  0.2304
37123SOL     OW13747   2.786   3.766   8.708  0.1850  0.2136  0.0428
37123SOL    HW113748   2.771   3.780   8.615 -0.1093 -1.1273 -0.1345
37123SOL    HW213749   2.769   3.851   8.749 -2.3712  0.1980 -0.8108
37124SOL     OW13750   8.177   2.751   1.481 -0.5535 -0.3489  0.8218
37124SOL    HW113751   8.148   2.760   1.390  0.4602  0.9884  0.6005
37124SOL    HW213752   8.252   2.691   1.476  0.0519  0.4027  0.6274
37125SOL     OW13753   0.413   2.872   7.374  0.5186 -0.6566 -0.4392
37125SOL    HW113754   0.407   2.967   7.382  0.0275 -0.7436  0.4973
37125SOL    HW213755   0.337   2.848   7.320 -0.7558 -0.6880  1.2596
37126SOL     OW13756   9.918   9.292   9.036  0.1713  0.1897 -0.7376
37126SOL    HW113757   9.931   9.347   8.958 -0.3266  0.5417 -0.5824
37126SOL    HW213758  10.006   9.278   9.071  0.3902  0.0979 -1.3185
37127SOL     OW13759   7.943   4.369   6.181  0.0741 -0.3583 -0.4168
37127SOL    HW113760   8.033   4.402   6.182  0.8594 -2.2923  0.8592
37127SOL    HW213761   7.895   4.426   6.240  0.7178  0.1035 -0.3361
37128SOL     OW13762   8.568   8.021   7.837 -0.2839 -0.1972  0.7958
37128SOL    HW113763   8.634   7.961   7.804 -0.1532  0.9673 -1.2404
37128SOL    HW213764   8.495   7.964   7.863  0.6483 -1.3481  0.9863
37129SOL     OW13765   0.131   3.965  10.420  0.9498 -0.1264 -0.2880
37129SOL    HW113766   0.101   3.883  10.459  1.6914  0.2250  1.0864
37129SOL    HW213767   0.219   3.945  10.386  0.9775  0.0021 -0.2932
37130SOL     OW13768   2.897   7.036   8.732 -0.0890  0.2937 -0.3731
37130SOL    HW113769   2.912   7.082   8.815  0.9660  0.4396 -0.6311
37130SOL    HW213770   2.802   7.033   8.723 -0.3286 -1.4062  1.7736
37131SOL     OW13771   0.625   5.865   1.086 -0.4585 -0.1292 -0.4692
37131SOL    HW113772   0.707   5.835   1.046  0.6366  2.0982 -0.0071
37131SOL    HW213773   0.573   5.899   1.013 -0.2229  0.0842 -0.5374
37132SOL     OW13774   1.904   7.553  10.081  0.2509 -0.0838 -0.3775
37132SOL    HW113775   1.964   7.541  10.007  3.1094  0.0416  1.7854
37132SOL    HW213776   1.876   7.644  10.075  0.0576 -0.2007 -1.5245
37133SOL     OW13777   7.778   4.583   4.514 -0.4326 -0.4871  0.5104
37133SOL    HW113778   7.866   4.609   4.543  0.5395 -0.6327 -2.0704
37133SOL    HW213779   7.744   4.660   4.470 -1.8703 -0.2612  1.9461
37134SOL     OW13780   4.693   8.328   2.003 -0.1614 -0.3036 -0.1380
37134SOL    HW113781   4.676   8.288   2.088 -1.3684  1.4525  0.4941
37134SOL    HW213782   4.688   8.422   2.018 -0.0624  0.0686 -2.0826
37135SOL     OW13783   1.087   3.324   0.907 -0.0930 -0.1596  0.0182
37135SOL    HW113784   1.124   3.400   0.952  0.7081 -1.0212  0.8771
37135SOL    HW213785   1.116   3.249   0.959 -0.0632 -1.1272 -1.3322
37136SOL     OW13786   3.297   1.186   3.311  0.6233  0.1489  0.2336
37136SOL    HW113787   3.369   1.238   3.347  0.6145 -0.2863  0.9033
37136SOL    HW213788   3.288   1.216   3.221  1.2058  0.6740  0.3444
37137SOL     OW13789   3.241   3.087   3.472  0.6707 -0.3360  0.3295
37137SOL    HW113790   3.230   3.129   3.387  1.0974 -1.4127 -0.2817
37137SOL    HW213791   3.264   3.158   3.532  0.0969  0.4752 -0.3885
37138SOL     OW13792   7.355   5.924   8.831 -0.3787 -0.4258 -0.4855
37138SOL    HW113793   7.370   5.869   8.908  1.8506 -1.7382 -1.7171
37138SOL    HW213794   7.399   6.006   8.851  0.6854 -0.9639 -0.5039
37139SOL     OW13795   0.596   6.939   2.177 -0.4856  0.0808  0.5833
37139SOL    HW113796   0.616   6.964   2.087 -0.5425 -2.9411 -0.3681
37139SOL    HW213797   0.529   6.871   2.169  0.0433 -0.8021  2.8580
37140SOL     OW13798   6.095   0.947   5.553  0.2135  0.0535  0.6115
37140SOL    HW113799   6.144   0.866   5.570 -0.3548 -0.8689 -1.8487
37140SOL    HW213800   6.163   1.013   5.540  0.6820  0.0674  2.6915
37141SOL     OW13801   9.790   4.164   2.457 -1.2341 -0.4207 -0.3857
37141SOL    HW113802   9.837   4.088   2.421 -0.4182  1.0616 -2.7047
37141SOL    HW213803   9.703   4.158   2.417 -1.4947 -0.6319  0.2020
37142SOL     OW13804   1.185   8.890   0.265  0.2988 -0.4329  0.1209
37142SOL    HW113805   1.122   8.900   0.194 -1.6816  0.1054  1.8574
37142SOL    HW213806   1.256   8.838   0.227 -0.5877 -0.0371 -2.2572
37143SOL     OW13807  10.783   7.346   1.575 -0.2605 -0.0871 -0.6802
37143SOL    HW113808  10.735   7.281   1.627 -0.8952  0.9198  0.0359
37143SOL    HW213809  10.818   7.297   1.501 -0.4305 -1.3057  0.0254
37144SOL     OW13810   5.932   7.526   6.750  0.1371 -0.0039 -0.2147
37144SOL    HW113811   5.904   7.462   6.815 -0.2173 -0.0273 -0.3932
37144SOL    HW213812   6.024   7.542   6.771 -0.5816  1.8535  1.8630
37145SOL     OW13813   6.714   0.010   6.449 -0.4932  0.1423  0.0327
37145SOL    HW113814   6.773   0.049   6.384 -0.1717 -2.8530 -1.6812
37145SOL    HW213815   6.772  -0.026   6.515 -0.3830 -1.4823 -0.8803
37146SOL     OW13816   4.322   9.775   5.950  0.0671  0.3902 -0.1245
37146SOL    HW113817   4.244   9.777   5.895 -0.2904 -0.0441  0.3620
37146SOL    HW213818   4.353   9.866   5.951 -0.9477  0.7437  0.4105
37147SOL     OW13819   1.178   7.877   8.564 -0.3286 -0.5204  0.3451
37147SOL    HW113820   1.179   7.818   8.639  0.8685 -2.2098 -0.9396
37147SOL    HW213821   1.088   7.872   8.531  0.1428 -2.9843 -0.7281
37148SOL     OW13822   9.569   1.686   5.700 -0.1868  0.3010 -0.0344
37148SOL    HW113823   9.619   1.644   5.630  0.2779  0.1728  0.3728
37148SOL    HW213824   9.531   1.764   5.659  0.3239  0.3825 -0.3537
37149SOL     OW13825   0.908   3.824  10.457  0.3007 -0.1678 -0.0661
37149SOL    HW113826   0.866   3.821  10.371  0.8784 -0.2638 -0.3535
37149SOL    HW213827   0.848   3.778  10.515 -0.1396 -0.0147 -0.4021
37150SOL     OW13828   9.138  10.756   7.580 -0.1120 -0.3404  0.1530
37150SOL    HW113829   9.181  10.783   7.661  0.9793 -0.9133 -0.2183
37150SOL    HW213830   9.164  10.665   7.568  1.4712  0.3078 -1.9088
37151SOL     OW13831   4.010   9.352   9.163 -0.1509  0.4638 -0.5262
37151SOL    HW113832   4.072   9.412   9.121  1.0355 -0.5768 -0.3330
37151SOL    HW213833   3.959   9.316   9.091  4.3815 -4.2900 -2.0477
37152SOL     OW13834   9.519   1.011   1.045  0.8748  0.0559  0.3173
37152SOL    HW113835   9.504   1.022   1.138  0.9082 -0.1600  0.3487
37152SOL    HW213836   9.597   1.064   1.026  0.0018  1.3011  0.1246
37153SOL     OW13837   7.995   9.747  10.092  0.4054  0.1906  0.0035
37153SOL    HW113838   8.082   9.738  10.131  0.2020  1.2124  0.7358
37153SOL    HW213839   7.935   9.740  10.166 -0.1914 -1.0864 -0.5697
37154SOL     OW13840   9.886   6.655   6.540 -0.3389 -0.2478 -0.2882
37154SOL    HW113841   9.949   6.662   6.611  0.4350 -1.6009 -0.8045
37154SOL    HW213842   9.926   6.593   6.478 -0.7434  1.2632 -2.1546
37155SOL     OW13843   0.776   8.420   8.048  0.2609 -0.9815  0.1764
37155SOL    HW113844   0.809   8.344   8.096  0.9637  0.0841  1.4321
37155SOL    HW213845   0.813   8.495   8.093 -1.8667  0.1988  0.0954
37156SOL     OW13846   8.191   9.260   7.168 -0.1415 -0.0756  0.1660
37156SOL    HW113847   8.198   9.201   7.093  2.1915  0.3241 -0.0034
37156SOL    HW213848   8.111   9.310   7.152 -0.4334 -0.9684 -1.3128
37157SOL     OW13849   6.430   0.097   0.014  0.1286 -0.0086 -0.2204
37157SOL    HW113850   6.345   0.116   0.052 -0.8241 -0.7285 -1.8857
37157SOL    HW213851   6.487   0.168   0.044 -1.2384  0.8731  0.3316
37158SOL     OW13852   3.947   8.027   4.424  0.2744 -0.2169 -0.0014
37158SOL    HW113853   3.927   8.027   4.518  0.9788  0.2893  0.1516
37158SOL    HW213854   3.910   7.944   4.392  1.1722 -1.0244  0.9703
37159SOL     OW13855   0.956   6.015  10.294  0.5287  0.5165 -0.1821
37159SOL    HW113856   0.907   6.080  10.244  1.3195  1.1520 -0.1706
37159SOL    HW213857   0.971   5.943  10.233  0.2455  0.6566 -0.4149
37160SOL     OW13858   2.245   5.639   0.048 -0.3707  0.2833 -0.4066
37160SOL    HW113859   2.191   5.687  -0.015 -1.0157 -0.2635 -0.2858
37160SOL    HW213860   2.182   5.591   0.101  0.2774 -2.5269 -1.9767
37161SOL     OW13861   0.803   2.606   5.379  0.0854  0.3106 -0.3449
37161SOL    HW113862   0.794   2.687   5.329 -0.7108 -0.5872 -1.7057
37161SOL    HW213863   0.883   2.566   5.345  1.3708  1.2182  1.4217
37162SOL     OW13864   7.133   1.738   8.398 -0.1564 -0.5507 -0.2653
37162SOL    HW113865   7.061   1.716   8.338  0.3720  0.1158 -1.1654
37162SOL    HW213866   7.091   1.746   8.484 -0.9615 -1.3255 -0.5716
37163SOL     OW13867   9.804   2.765   2.701  0.3100 -0.4314  0.1390
37163SOL    HW113868   9.828   2.689   2.648  1.0483 -0.0170 -0.1346
37163SOL    HW213869   9.875   2.774   2.764  1.6948  1.6620 -1.5826
37164SOL     OW13870   8.592   6.305  10.477  0.4566 -0.4866 -0.3968
37164SOL    HW113871   8.640   6.230  10.512  2.0857  0.8141  0.2863
37164SOL    HW213872   8.598   6.295  10.382  0.9626 -1.0240 -0.3130
37165SOL     OW13873   1.022   4.394   2.664  0.2734  0.5129 -0.0441
37165SOL    HW113874   0.974   4.433   2.736  1.4626  2.3966 -0.2095
37165SOL    HW213875   1.103   4.362   2.705 -0.1221 -0.6551 -0.1426
37166SOL     OW13876   7.890   6.811   9.642 -0.5287  0.9426 -0.7987
37166SOL    HW113877   7.848   6.755   9.576 -1.1660  0.7913 -0.2697
37166SOL    HW213878   7.825   6.819   9.711  0.3360  0.6686  0.0606
37167SOL     OW13879   8.367  10.173   4.438  0.0752  0.0191  0.4523
37167SOL    HW113880   8.321  10.092   4.417  0.6718 -0.5475  1.2690
37167SOL    HW213881   8.344  10.192   4.529 -2.0018  2.1159 -0.3923
37168SOL     OW13882   4.755  10.721   3.718  0.6007 -0.8887 -0.1299
37168SOL    HW113883   4.777  10.638   3.760 -0.0766 -1.3788 -0.7348
37168SOL    HW213884   4.660  10.724   3.717  0.6134 -0.0935 -0.1073
37169SOL     OW13885   7.205   4.838   7.186  0.1325 -0.2629  0.1387
37169SOL    HW113886   7.222   4.931   7.198 -1.3222 -0.0262  0.5635
37169SOL    HW213887   7.212   4.824   7.091  1.0188  0.1251  0.1403
37170SOL     OW13888   4.445   6.780   9.841 -0.1480 -0.2253 -0.3241
37170SOL    HW113889   4.363   6.754   9.799 -0.0488 -1.9129  0.4602
37170SOL    HW213890   4.512   6.724   9.801  0.5730  0.7873 -0.5953
37171SOL     OW13891   8.768   8.419   1.316  0.2681  0.0158  0.2064
37171SOL    HW113892   8.833   8.459   1.257 -0.0177 -1.4411 -1.1602
37171SOL    HW213893   8.685   8.460   1.290  0.4866  1.2490  1.3721
37172SOL     OW13894   5.288   8.936   3.620  0.3339  0.2681 -0.4929
37172SOL    HW113895   5.322   9.025   3.631  1.1958 -0.1152 -0.0367
37172SOL    HW213896   5.196   8.949   3.597  0.2461  1.2569  0.3498
37173SOL     OW13897   4.587   5.577   6.530  0.1975  0.7011  0.0428
37173SOL    HW113898   4.608   5.616   6.445  1.2241 -0.0444 -0.0702
37173SOL    HW213899   4.497   5.545   6.520  0.4350  0.2729 -0.9179
37174SOL     OW13900   4.648   5.748   4.157 -0.1491 -0.0952  0.1909
37174SOL    HW113901   4.740   5.773   4.154 -0.0838 -0.3550  0.0376
37174SOL    HW213902   4.611   5.803   4.225  0.2293 -0.3552  0.6116
37175SOL     OW13903   1.814   1.407   8.429  0.1696 -0.0770  0.5542
37175SOL    HW113904   1.753   1.333   8.426  0.1934 -0.0477 -1.6109
37175SOL    HW213905   1.827   1.423   8.523 -3.4999  0.2413  1.1542
37176SOL     OW13906   7.493   6.159   6.528 -0.3410 -0.0157  0.0103
37176SOL    HW113907   7.517   6.189   6.616 -2.9426  0.6875  0.5420
37176SOL    HW213908   7.433   6.087   6.543 -0.3279 -0.2983 -1.2256
37177SOL     OW13909   4.375   5.522  10.399  0.6301  0.2621 -0.3955
37177SOL    HW113910   4.372   5.610  10.361 -0.4327 -0.2816 -1.6440
37177SOL    HW213911   4.315   5.470  10.345 -2.1445 -0.2652  2.8631
37178SOL     OW13912   1.183   7.790   9.681  0.0414 -0.3390  0.5107
37178SOL    HW113913   1.172   7.700   9.710 -0.8433 -0.0496  1.1199
37178SOL    HW213914   1.183   7.785   9.585 -0.3801 -0.9407  0.5379
37179SOL     OW13915   8.573   1.944   5.361 -0.0774 -0.0605  0.3880
37179SOL    HW113916   8.607   1.984   5.281  0.4211  0.7097  0.9715
37179SOL    HW213917   8.650   1.931   5.416 -0.3709 -0.8758  0.6354
37180SOL     OW13918   9.812   5.618   9.817 -0.1533 -0.6866 -0.5185
37180SOL    HW113919   9.723   5.649   9.838 -0.4673 -0.1980 -2.4156
37180SOL    HW213920   9.804   5.523   9.814 -1.6952 -0.5953 -4.6914
37181SOL     OW13921   2.997   7.036   1.720 -0.2498 -0.2392 -0.0076
37181SOL    HW113922   3.089   7.056   1.738 -0.3290  2.3076 -1.7907
37181SOL    HW213923   3.000   6.968   1.652  0.2617 -0.9901  0.7520
37182SOL     OW13924   8.082   9.283  10.668 -0.2105  0.3098 -0.3701
37182SOL    HW113925   8.146   9.218  10.696  0.1334  0.4256 -0.8693
37182SOL    HW213926   8.089   9.284  10.573 -1.8190 -0.5498 -0.5269
37183SOL     OW13927   6.124   0.515   4.354  0.5258  0.1605 -0.0445
37183SOL    HW113928   6.063   0.560   4.412 -0.2591  2.1208 -2.2208
37183SOL    HW213929   6.074   0.441   4.319  0.4057  0.0330  0.3880
37184SOL     OW13930   1.338   3.247   1.733  0.1856 -0.4047 -0.0712
37184SOL    HW113931   1.325   3.246   1.828 -1.6829  0.4208 -0.2848
37184SOL    HW213932   1.268   3.302   1.700  1.8389  0.7668 -1.8136
37185SOL     OW13933   6.986   2.520   7.705 -0.6324 -0.0655  0.1967
37185SOL    HW113934   7.028   2.531   7.790 -0.3606  1.4966 -0.1047
37185SOL    HW213935   6.997   2.427   7.685  1.0561 -0.0829  0.9649
37186SOL     OW13936   8.086   0.473   0.329 -0.2058  0.5715  0.3295
37186SOL    HW113937   8.010   0.415   0.326  1.5348 -1.8048 -1.0424
37186SOL    HW213938   8.090   0.511   0.241 -0.1084  1.1424  0.5756
37187SOL     OW13939   6.643   5.443   9.421 -0.2334  0.2801  0.2984
37187SOL    HW113940   6.595   5.407   9.496 -1.7793  1.8405  0.1511
37187SOL    HW213941   6.735   5.438   9.446 -0.4228 -2.4717  0.7829
37188SOL     OW13942   6.992   3.470   0.017  0.2838 -0.2034  0.4357
37188SOL    HW113943   7.060   3.404   0.006 -0.4162 -0.7277 -1.1927
37188SOL    HW213944   6.992   3.490   0.110  3.3169  0.5593  0.3750
37189SOL     OW13945   4.333   0.760   4.921  0.1081 -0.4750  0.2116
37189SOL    HW113946   4.408   0.748   4.979  1.2404 -0.0231 -1.1345
37189SOL    HW213947   4.258   0.769   4.981  1.0329 -1.3730  1.5611
37190SOL     OW13948   4.158  10.003   2.966  0.1391 -0.0072  1.1004
37190SOL    HW113949   4.201   9.919   2.950 -0.2752 -0.0227 -0.0094
37190SOL    HW213950   4.074   9.981   3.006 -1.3771 -0.3701 -2.0465
37191SOL     OW13951   1.754   5.084   0.716  0.2200  0.2998  0.1160
37191SOL    HW113952   1.671   5.104   0.672  0.9613  0.6692 -1.1435
37191SOL    HW213953   1.786   5.168   0.748  1.4253  0.6178 -1.7911
37192SOL     OW13954   8.240   3.705   4.489  0.2616 -0.0665  0.6183
37192SOL    HW113955   8.164   3.663   4.448 -1.0815  1.5213  1.3758
37192SOL    HW213956   8.239   3.674   4.579 -0.0950  0.7164  0.8927
37193SOL     OW13957   3.561  10.320   8.988 -0.2306  0.3060 -0.1175
37193SOL    HW113958   3.580  10.408   9.021 -1.5525  1.4783 -2.2279
37193SOL    HW213959   3.512  10.278   9.058  2.2461  0.4015  1.7956
37194SOL     OW13960   3.953   4.998   6.189  0.5125  0.3843  0.3366
37194SOL    HW113961   3.885   5.066   6.182  0.3922  0.4165  1.6606
37194SOL    HW213962   3.917   4.923   6.141 -0.2106  0.5921  0.5409
37195SOL     OW13963   9.722   2.276   3.716 -0.3612  0.4201 -0.1798
37195SOL    HW113964   9.764   2.242   3.795  0.1489 -0.9213 -0.9893
37195SOL    HW213965   9.713   2.199   3.659 -0.7491  1.3473 -1.4039
37196SOL     OW13966   0.355   9.503   7.794 -0.4155 -0.5961 -0.2156
37196SOL    HW113967   0.445   9.471   7.794 -0.5327 -0.9399  0.6571
37196SOL    HW213968   0.309   9.446   7.732  0.1076  0.0173 -1.1886
37197SOL     OW13969   4.000   1.940   2.272  0.0159 -0.2572 -0.4124
37197SOL    HW113970   3.962   1.940   2.360 -0.5462 -0.4437 -0.6496
37197SOL    HW213971   3.957   1.866   2.228 -0.3814  0.3917 -1.1292
37198SOL     OW13972   5.445   5.101   3.339 -0.1096  0.0007  0.4646
37198SOL    HW113973   5.482   5.034   3.397  1.4746 -0.5246 -1.0723
37198SOL    HW213974   5.463   5.069   3.251  0.5297  2.3514 -0.3271
37199SOL     OW13975   7.670   5.768   4.253  0.4436  0.0338  0.0946
37199SOL    HW113976   7.605   5.786   4.185  1.2955 -2.3395 -1.4873
37199SOL    HW213977   7.618   5.756   4.333 -0.6359  2.1695 -0.2168
37200SOL     OW13978   0.695   8.612   7.852 -0.1817  0.5564 -0.1043
37200SOL    HW113979   0.756   8.680   7.881  0.4801 -0.3430  0.6743
37200SOL    HW213980   0.698   8.546   7.921 -0.3141 -0.5766 -1.1413
37201SOL     OW13981   2.529   0.337  10.136 -0.4533  0.0043  0.3661
37201SOL    HW113982   2.619   0.370  10.143 -0.0577 -0.7582 -0.7670
37201SOL    HW213983   2.476   0.400  10.185  0.2179  2.4454 -1.7788
37202SOL     OW13984   6.391   8.359   9.899 -0.1092  0.1499  0.4748
37202SOL    HW113985   6.433   8.338   9.982  2.3503 -0.0965 -0.7147
37202SOL    HW213986   6.366   8.451   9.906  0.6811  0.3146  1.2695
37203SOL     OW13987   6.413   1.461   9.198 -0.0571 -0.3137 -0.1399
37203SOL    HW113988   6.362   1.541   9.186  0.0377 -0.3748 -1.0007
37203SOL    HW213989   6.351   1.399   9.236 -0.6100 -0.3622 -1.1069
37204SOL     OW13990   7.104   8.368   9.996 -0.0807  0.3050 -0.4654
37204SOL    HW113991   7.106   8.437  10.063 -0.1876 -0.0800 -0.0615
37204SOL    HW213992   7.162   8.400   9.927  0.9017  0.2187  0.2984
37205SOL     OW13993   9.002   3.960   2.335 -0.2692  0.4460 -0.5543
37205SOL    HW113994   9.015   3.894   2.404  0.0191  1.5015  0.4384
37205SOL    HW213995   9.088   4.000   2.324 -0.0270 -0.5044 -2.4189
37206SOL     OW13996   7.319   0.248  10.162 -0.1650 -0.1746 -0.1445
37206SOL    HW113997   7.245   0.308  10.158  0.1974  0.3687  0.9768
37206SOL    HW213998   7.374   0.282  10.233  1.0900 -0.6478 -0.8606
37207SOL     OW13999   7.368   0.467   1.456  0.4555 -0.5344  0.3614
37207SOL    HW114000   7.410   0.445   1.539 -0.5023  1.4923  1.4542
37207SOL    HW214001   7.425   0.534   1.417  1.3621 -2.0790 -1.0917
37208SOL     OW14002   6.273   2.910  10.247 -0.3368 -0.0371 -0.1083
37208SOL    HW114003   6.363   2.883  10.268 -0.2032  0.5369  0.0781
37208SOL    HW214004   6.271   3.003  10.268 -0.8155  0.0801 -0.6540
37209SOL     OW14005   5.247   4.247  10.446 -0.1990  0.1239  0.2236
37209SOL    HW114006   5.248   4.223  10.354 -0.1716  0.2295  0.1967
37209SOL    HW214007   5.303   4.182  10.488  0.1651  0.3552  0.0964
37210SOL     OW14008   1.353   4.822   7.229 -0.1835  0.0443 -0.2105
37210SOL    HW114009   1.395   4.907   7.215 -0.7764  0.1225 -1.7693
37210SOL    HW214010   1.412   4.775   7.286  1.2198  0.7432 -1.0356
37211SOL     OW14011   2.566   7.163   1.934 -0.3963 -0.1197 -0.1645
37211SOL    HW114012   2.593   7.073   1.954  0.2439  0.7316  3.5775
37211SOL    HW214013   2.645   7.205   1.900  0.0119 -0.3841  0.4372
37212SOL     OW14014   6.233   2.623   1.209  0.4472 -0.1888  0.1194
37212SOL    HW114015   6.144   2.589   1.201  0.3162  0.4084 -1.2054
37212SOL    HW214016   6.225   2.698   1.267  0.0725 -0.0824 -0.0714
37213SOL     OW14017   2.258   4.068   9.111  0.4438  0.3095  0.0919
37213SOL    HW114018   2.206   4.148   9.107  1.6271  1.0944  0.1208
37213SOL    HW214019   2.290   4.064   9.201 -1.2398 -1.2875  0.6851
37214SOL     OW14020   5.208   1.635   8.580  0.1985 -0.5689 -0.7379
37214SOL    HW114021   5.298   1.669   8.577 -0.3977  0.9867 -1.8585
37214SOL    HW214022   5.179   1.654   8.670  1.1836 -1.6700 -0.1641
37215SOL     OW14023  10.750   5.758  10.435 -0.2383 -0.0905  0.0688
37215SOL    HW114024  10.801   5.756  10.516  0.2769 -0.9833 -0.2613
37215SOL    HW214025  10.816   5.765  10.366 -0.6781  0.7731 -0.2710
37216SOL     OW14026   9.022   7.240   5.203  0.1225 -0.0883 -0.4065
37216SOL    HW114027   8.992   7.156   5.236  1.1406  0.0246  0.9001
37216SOL    HW214028   9.072   7.218   5.124  1.0172 -0.8185  0.3342
37217SOL     OW14029   9.156   4.047   9.040 -0.3136 -0.0650  0.0734
37217SOL    HW114030   9.121   4.067   9.126 -1.2526 -0.5532 -0.1827
37217SOL    HW214031   9.218   3.976   9.054 -1.1410 -0.7689  0.2366
37218SOL     OW14032   6.142   1.865   9.551 -0.6239 -0.6104 -0.4242
37218SOL    HW114033   6.129   1.793   9.612  0.7526 -0.6730 -0.1707
37218SOL    HW214034   6.055   1.886   9.519 -1.2093 -1.4449  0.5768
37219SOL     OW14035   0.450   2.016   4.857 -0.3456  0.3595  1.1565
37219SOL    HW114036   0.381   2.022   4.791 -2.0488  1.3002  2.9324
37219SOL    HW214037   0.433   1.934   4.903  1.0608 -0.4810  0.2702
37220SOL     OW14038   2.639   1.494  10.126  0.0450 -0.2640 -0.8091
37220SOL    HW114039   2.584   1.550  10.181 -0.8179 -1.7549 -0.0726
37220SOL    HW214040   2.723   1.491  10.171  0.0210  0.2447 -0.7292
37221SOL     OW14041   0.405   5.986   9.175  0.2930  0.3170 -0.2463
37221SOL    HW114042   0.476   6.045   9.197  0.8958  0.0769 -1.4590
37221SOL    HW214043   0.350   6.036   9.115  0.5591 -0.1707 -0.9174
37222SOL     OW14044   2.584   2.042  10.480 -0.7214  0.2855  0.6027
37222SOL    HW114045   2.650   2.092  10.433  0.9280 -2.1078  0.1674
37222SOL    HW214046   2.596   2.067  10.572 -0.2137  0.9592  0.3616
37223SOL     OW14047   0.112   2.980   5.121 -0.1265 -0.1516  0.6156
37223SOL    HW114048   0.205   2.992   5.103  0.3750 -2.0146  1.6959
37223SOL    HW214049   0.083   3.064   5.158  1.3096  0.2061  0.9752
37224SOL     OW14050   3.162   7.762   4.132 -0.5634  0.1619 -0.7748
37224SOL    HW114051   3.078   7.738   4.093 -0.9110  1.3193 -0.7490
37224SOL    HW214052   3.169   7.856   4.121  0.4557  0.1735 -0.2208
37225SOL     OW14053   4.815   2.895   7.357  0.1633 -0.2090 -0.5631
37225SOL    HW114054   4.758   2.826   7.391  0.1152  0.5334  0.9404
37225SOL    HW214055   4.843   2.863   7.271  0.4765 -2.2935  0.2519
37226SOL     OW14056   7.469   8.107   1.533  0.5208  0.0408  0.2387
37226SOL    HW114057   7.506   8.173   1.474  0.0338  0.7736  0.7363
37226SOL    HW214058   7.517   8.119   1.615 -0.0098  0.2180  0.5288
37227SOL     OW14059   2.130   7.864   8.690  0.2429 -0.0311 -0.5545
37227SOL    HW114060   2.208   7.881   8.638  2.5517  0.0061  2.5796
37227SOL    HW214061   2.103   7.775   8.667  1.4408 -0.1726 -1.4477
37228SOL     OW14062   8.309   1.967   4.138  0.1020 -0.1171 -0.1367
37228SOL    HW114063   8.282   2.058   4.129 -0.3843 -0.3311 -0.9869
37228SOL    HW214064   8.307   1.950   4.232  0.3865  0.7966  0.0444
37229SOL     OW14065   9.566   4.338   5.147  0.7210 -0.8114 -0.2519
37229SOL    HW114066   9.620   4.413   5.121 -0.7226  1.3414  2.4838
37229SOL    HW214067   9.485   4.349   5.098  0.2078 -0.0667  0.7284
37230SOL     OW14068   8.023   7.822   6.371 -0.9543 -0.0745 -0.0446
37230SOL    HW114069   8.116   7.804   6.383 -0.9093 -0.4241 -0.8639
37230SOL    HW214070   8.020   7.893   6.307 -1.2427  0.3612  0.4399
37231SOL     OW14071   2.451   0.966   8.715  0.9273 -0.7003  0.5318
37231SOL    HW114072   2.414   1.019   8.785  0.1499 -1.3603  0.6300
37231SOL    HW214073   2.517   1.023   8.675 -0.2857  0.5744  0.2585
37232SOL     OW14074   2.333   9.335   4.091  0.0452 -0.5453 -0.2296
37232SOL    HW114075   2.311   9.363   4.002 -0.1829 -2.0680 -0.6720
37232SOL    HW214076   2.360   9.416   4.135  1.1922  0.0897 -1.9817
37233SOL     OW14077   7.553  10.331   1.754  0.0620  0.1029  0.3585
37233SOL    HW114078   7.461  10.311   1.767  0.1105  0.6218  1.6228
37233SOL    HW214079   7.569  10.311   1.661 -0.8282 -1.8181  0.5801
37234SOL     OW14080   4.759   0.504   3.818  0.3885  0.2241  0.1197
37234SOL    HW114081   4.816   0.438   3.778  0.0621  0.4900 -0.7866
37234SOL    HW214082   4.710   0.542   3.745 -0.2830  0.6482  0.7805
37235SOL     OW14083   1.033   2.619   4.028  0.4174 -0.8068 -0.2219
37235SOL    HW114084   0.987   2.542   4.061  1.5521 -2.1410 -1.6263
37235SOL    HW214085   1.022   2.616   3.933  1.1183  0.3460 -0.3694
37236SOL     OW14086   6.576   5.219   0.260  0.3551 -0.4726 -0.5300
37236SOL    HW114087   6.592   5.207   0.354 -0.2732 -1.1710 -0.5054
37236SOL    HW214088   6.578   5.130   0.224  2.0405 -0.1213 -1.4353
37237SOL     OW14089   7.857   3.017   1.963 -0.8048 -0.2631 -0.5581
37237SOL    HW114090   7.934   3.062   1.929  0.4289 -0.4621  1.7272
37237SOL    HW214091   7.789   3.084   1.966 -0.0842  0.4832 -0.6396
37238SOL     OW14092   0.881   7.250   1.516  0.3402  0.2949  0.0445
37238SOL    HW114093   0.926   7.261   1.432  0.9504 -0.7451  0.2179
37238SOL    HW214094   0.816   7.320   1.518  0.8500  0.8142 -0.9462
37239SOL     OW14095  10.682   3.565   2.079 -0.1167  0.0506 -0.4639
37239SOL    HW114096  10.744   3.502   2.116 -0.8525  0.2910  1.3020
37239SOL    HW214097  10.710   3.650   2.113 -0.2785  0.4269 -1.2422
37240SOL     OW14098   6.278   9.791   3.563  0.3316  0.5130  0.5953
37240SOL    HW114099   6.297   9.824   3.651  1.1208  0.6124  0.3957
37240SOL    HW214100   6.364   9.774   3.525  0.0172  1.0284 -0.3679
37241SOL     OW14101   6.348   5.069   8.707  0.2738 -0.2268  0.7895
37241SOL    HW114102   6.435   5.056   8.746  0.3585  1.0018  1.0422
37241SOL    HW214103   6.341   4.999   8.642  2.4641  1.0947 -1.0047
37242SOL     OW14104   7.855   3.216   9.267  0.4276  0.0882  0.0110
37242SOL    HW114105   7.816   3.302   9.285  0.7961  0.2957 -0.1633
37242SOL    HW214106   7.803   3.182   9.194 -0.9389 -0.6677  1.2651
37243SOL     OW14107   8.832   6.045  10.181 -0.0367  0.3719  0.0160
37243SOL    HW114108   8.853   6.085  10.097 -0.3641 -0.0839 -0.2911
37243SOL    HW214109   8.875   6.101  10.246  0.9457  0.2499 -0.5000
37244SOL     OW14110   4.892   3.864   6.459 -0.3258 -0.1801  0.0500
37244SOL    HW114111   4.927   3.950   6.482 -1.1875  0.5733 -1.3499
37244SOL    HW214112   4.968   3.814   6.430  0.2314 -0.0343  1.1702
37245SOL     OW14113   7.766   3.733   1.151  0.4990  0.8175  0.1354
37245SOL    HW114114   7.763   3.638   1.162  1.2242  0.7635 -0.0407
37245SOL    HW214115   7.705   3.752   1.080 -0.1368  0.5590  0.6094
37246SOL     OW14116   9.917   1.937   4.293  0.0164 -0.0160  0.3716
37246SOL    HW114117   9.840   1.881   4.304 -0.0352 -0.1938 -0.7579
37246SOL    HW214118   9.990   1.876   4.294 -0.0689 -0.1822 -1.2770
37247SOL     OW14119   9.093   0.193   8.927 -0.2037  0.1689 -0.5089
37247SOL    HW114120   9.007   0.200   8.969 -0.0067  0.4891 -0.1559
37247SOL    HW214121   9.139   0.273   8.953  1.4259 -1.4587  2.0524
37248SOL     OW14122   7.413   7.867  10.006 -0.4577 -0.2228 -0.0120
37248SOL    HW114123   7.381   7.780  10.030 -1.3606 -0.6966 -2.5960
37248SOL    HW214124   7.507   7.856   9.994 -0.4164 -0.5942  0.6258
37249SOL     OW14125   0.360   1.768   4.644 -0.2112 -0.3303 -0.0080
37249SOL    HW114126   0.382   1.739   4.556 -0.5932 -0.0013 -0.2134
37249SOL    HW214127   0.299   1.841   4.631 -1.9589 -1.6357  0.5685
37250SOL     OW14128   4.903   9.036   9.077 -0.2782  0.0609  0.0944
37250SOL    HW114129   4.894   9.039   8.981  2.1708 -1.1666 -0.2500
37250SOL    HW214130   4.935   8.948   9.095  0.6584  0.7340  1.9026
37251SOL     OW14131   3.321   0.883   0.343 -0.3217  0.5202 -0.6071
37251SOL    HW114132   3.350   0.956   0.397  0.2557  0.6039 -1.0163
37251SOL    HW214133   3.329   0.915   0.253  0.0740 -0.0816 -0.7945
37252SOL     OW14134   4.144   6.060   6.682  0.2390  0.3708 -0.2480
37252SOL    HW114135   4.159   6.011   6.601 -1.2263  0.4403 -0.5916
37252SOL    HW214136   4.056   6.034   6.709 -0.4988  2.6106 -0.3166
37253SOL     OW14137   3.742   5.806   8.049 -0.0814 -0.1027  0.5067
37253SOL    HW114138   3.650   5.831   8.053 -0.6868 -2.0956  0.0956
37253SOL    HW214139   3.778   5.836   8.132 -1.2442  0.2050  0.9253
37254SOL     OW14140   0.601   5.550   9.364  0.5541  0.1398 -0.8605
37254SOL    HW114141   0.570   5.511   9.447  0.6069  1.4588 -0.2044
37254SOL    HW214142   0.553   5.632   9.357  0.2726 -0.1208 -2.3577
37255SOL     OW14143   4.188   3.982  10.180 -0.1143 -0.2049  0.7674
37255SOL    HW114144   4.232   3.943  10.256  1.3603 -0.3488 -0.1317
37255SOL    HW214145   4.124   3.916  10.153 -0.5720 -0.2079  1.7899
37256SOL     OW14146   1.821   3.536   1.264  0.3595  0.0700 -0.0501
37256SOL    HW114147   1.742   3.481   1.259  0.9961 -0.7683 -2.0909
37256SOL    HW214148   1.864   3.508   1.345 -1.2877  0.3811  0.9854
37257SOL     OW14149   4.704   6.122   9.917  0.7167  0.4762 -0.5306
37257SOL    HW114150   4.642   6.076   9.860  0.3343  0.9923 -0.5393
37257SOL    HW214151   4.649   6.158   9.987  1.3847 -1.7062  1.2183
37258SOL     OW14152   8.168   0.894   6.334  0.5143 -0.0570 -0.3321
37258SOL    HW114153   8.162   0.824   6.399  0.8442 -0.4951 -0.7697
37258SOL    HW214154   8.262   0.902   6.316  0.6500  1.6162  0.9207
37259SOL     OW14155   1.298   4.128   5.581 -0.0159 -0.1775 -0.3880
37259SOL    HW114156   1.314   4.105   5.490  0.9359  0.0176 -0.2794
37259SOL    HW214157   1.343   4.060   5.632  3.0584  1.9176 -0.0622
37260SOL     OW14158   0.262   2.706   1.425 -0.9117  0.3697  0.2949
37260SOL    HW114159   0.241   2.799   1.430 -1.5928  0.3578 -1.4896
37260SOL    HW214160   0.357   2.703   1.424 -0.8808  1.0095  0.8183
37261SOL     OW14161  10.412   1.823   5.693 -0.8616  0.1747  0.3453
37261SOL    HW114162  10.448   1.736   5.711 -0.4692  0.0798 -0.8089
37261SOL    HW214163  10.488   1.881   5.694 -0.6464  0.0017 -1.9342
37262SOL     OW14164   9.498   2.863   7.134 -0.5025  0.0812  0.0145
37262SOL    HW114165   9.579   2.820   7.161 -0.5191  0.8548  1.3754
37262SOL    HW214166   9.456   2.800   7.076  1.2364 -0.1962 -1.0368
37263SOL     OW14167   0.451   2.220   3.588  0.0718 -0.5922  0.3285
37263SOL    HW114168   0.544   2.200   3.587  0.8263  2.3636  0.7710
37263SOL    HW214169   0.431   2.252   3.500 -0.2228 -0.0875  0.5706
37264SOL     OW14170   8.123   2.442   9.751  0.3512  0.5147  0.1420
37264SOL    HW114171   8.196   2.498   9.727  0.4987  0.3196  0.1363
37264SOL    HW214172   8.110   2.384   9.676  0.8936 -0.1794  0.5747
37265SOL     OW14173   4.939   9.242  10.050 -0.5596 -0.2028  0.1241
37265SOL    HW114174   5.002   9.293  10.101  0.7467 -1.1514 -0.4825
37265SOL    HW214175   4.983   9.158  10.034 -0.7585  0.1556 -2.8377
37266SOL     OW14176   2.996   2.249   9.585 -0.1275 -0.3862 -0.2278
37266SOL    HW114177   2.964   2.340   9.588 -1.7857 -0.9196 -0.6536
37266SOL    HW214178   2.916   2.196   9.583  0.6662 -2.0352  3.4081
37267SOL     OW14179   2.157   2.996   3.770 -0.0850  0.7919 -0.1901
37267SOL    HW114180   2.122   3.005   3.682 -0.0882 -1.3215 -0.4456
37267SOL    HW214181   2.235   2.942   3.761 -0.1849  0.3782  1.1248
37268SOL     OW14182   7.656   1.727   2.190 -0.3980  0.3820 -0.5348
37268SOL    HW114183   7.631   1.814   2.157 -0.9760 -0.0243 -1.1777
37268SOL    HW214184   7.732   1.703   2.138 -0.6125  0.2396 -0.7853
37269SOL     OW14185   3.457   9.670   5.599 -0.4128 -0.2524 -0.1331
37269SOL    HW114186   3.467   9.758   5.635  1.0406 -0.1096 -0.8151
37269SOL    HW214187   3.544   9.647   5.565 -0.7027 -2.0466  0.2209
37270SOL     OW14188   7.596   4.434   1.598 -0.5118  0.1623 -0.4574
37270SOL    HW114189   7.504   4.412   1.610 -0.3113 -0.3548  0.2225
37270SOL    HW214190   7.597   4.498   1.527 -1.3686 -0.0154 -0.6379
37271SOL     OW14191  10.652   3.201  10.138  0.0804  0.0831 -0.6822
37271SOL    HW114192  10.686   3.161  10.218  0.0907 -1.2805 -1.3496
37271SOL    HW214193  10.669   3.295  10.149  0.1768 -0.0911  0.8579
37272SOL     OW14194   2.631  10.379   9.908  0.4252  0.0432  0.3017
37272SOL    HW114195   2.582  10.326   9.844  2.6252  0.3386 -1.8077
37272SOL    HW214196   2.717  10.392   9.866  1.0994  2.4665  2.2334
37273SOL     OW14197  10.121   8.216   3.665  0.2681 -0.4408 -0.4503
37273SOL    HW114198  10.176   8.289   3.693 -1.3062  0.6611 -0.1582
37273SOL    HW214199  10.124   8.219   3.569  0.0728  0.1255 -0.4423
37274SOL     OW14200   3.730   8.362   4.842 -0.1937 -0.1184 -0.7750
37274SOL    HW114201   3.756   8.279   4.881 -0.6229 -0.2692 -0.7966
37274SOL    HW214202   3.812   8.408   4.824  0.0766 -0.8352 -1.4058
37275SOL     OW14203   3.214   5.287   4.732 -0.9230  0.0672  0.6822
37275SOL    HW114204   3.144   5.290   4.798 -0.1262  0.5214  1.5195
37275SOL    HW214205   3.230   5.379   4.710 -2.7192 -0.1217 -1.8435
37276SOL     OW14206   3.566   6.042   7.755 -0.0377  0.2466  0.1960
37276SOL    HW114207   3.514   5.996   7.822  1.2204  0.6027  1.4710
37276SOL    HW214208   3.556   5.988   7.676  0.8453 -1.9065  1.4557
37277SOL     OW14209   9.364   9.114   5.120 -0.4267 -0.1606 -0.3601
37277SOL    HW114210   9.328   9.052   5.185 -2.4167  0.5072 -0.7482
37277SOL    HW214211   9.407   9.058   5.056 -0.0544 -0.9658  0.5542
37278SOL     OW14212   1.749   4.722   8.712 -0.1272 -0.3066 -0.2875
37278SOL    HW114213   1.772   4.807   8.675  0.3473 -0.6277 -0.7466
37278SOL    HW214214   1.807   4.713   8.788 -0.2857 -0.1550 -0.1483
37279SOL     OW14215   1.546   1.556   9.680 -0.1204  0.2095  0.3398
37279SOL    HW114216   1.506   1.469   9.673  1.0253 -0.2969 -0.3220
37279SOL    HW214217   1.621   1.543   9.738 -0.2263  0.8711  0.6297
37280SOL     OW14218   9.081  10.108   5.788  0.0115  0.1626 -0.2323
37280SOL    HW114219   9.144  10.179   5.776 -0.4164  0.6065  0.0871
37280SOL    HW214220   9.125  10.031   5.754  1.4321  0.1174  1.5490
37281SOL     OW14221   2.001   5.819  10.083  0.1131 -0.2442 -0.2616
37281SOL    HW114222   2.091   5.803  10.056  0.3663 -0.0941  0.4599
37281SOL    HW214223   2.006   5.829  10.179 -0.3407  1.8674 -0.4048
37282SOL     OW14224   5.628   1.255   2.859 -0.0790  0.1809  0.1167
37282SOL    HW114225   5.670   1.254   2.945 -0.5502  1.4403  0.3824
37282SOL    HW214226   5.696   1.221   2.800  0.6217  0.3072  0.8190
37283SOL     OW14227   7.530   8.668   8.122  0.0938  0.0140 -0.4047
37283SOL    HW114228   7.541   8.674   8.217  0.1086  1.7491 -0.4792
37283SOL    HW214229   7.542   8.575   8.102  1.0448 -0.2400  1.1717
37284SOL     OW14230   4.625   1.080   8.449  0.1867  0.6504  0.2624
37284SOL    HW114231   4.667   1.135   8.383 -0.2744  0.0619 -0.5365
37284SOL    HW214232   4.693   1.017   8.474  0.1071  0.3429 -0.2784
37285SOL     OW14233   7.623   2.057   5.600 -0.4327  0.0056  0.6879
37285SOL    HW114234   7.713   2.024   5.604  0.1056  1.2412 -0.4845
37285SOL    HW214235   7.633   2.151   5.582 -1.9156  0.7194  3.0922
37286SOL     OW14236   5.946   7.003   6.665 -0.0782 -0.1586  0.2533
37286SOL    HW114237   6.035   7.013   6.698  1.0595  0.8795 -2.8064
37286SOL    HW214238   5.933   6.909   6.657  1.2361 -0.2991 -0.4359
37287SOL     OW14239   8.691   4.697   0.599  0.7493  0.0494 -0.2001
37287SOL    HW114240   8.747   4.672   0.673  2.3407  0.0446 -1.3484
37287SOL    HW214241   8.612   4.644   0.608  0.3502  0.9307  2.1638
37288SOL     OW14242   4.852   4.750   6.486  0.6733 -0.5248  0.1585
37288SOL    HW114243   4.809   4.809   6.548  1.6925 -1.0190  1.3770
37288SOL    HW214244   4.784   4.686   6.464  0.1255 -0.0057  0.3070
37289SOL     OW14245   1.136  10.465   7.329  0.4109 -0.2098 -0.5012
37289SOL    HW114246   1.128  10.452   7.235  1.4999 -0.0561 -0.6242
37289SOL    HW214247   1.230  10.456   7.348  0.1953 -0.3990  0.5913
37290SOL     OW14248   4.197  10.198   6.996 -0.4410  0.0117 -0.0924
37290SOL    HW114249   4.171  10.217   6.905  0.5062 -0.2680 -0.4345
37290SOL    HW214250   4.251  10.272   7.022 -0.0915 -0.2627 -0.0258
37291SOL     OW14251   7.132   0.028   9.348  0.2039 -0.2430 -0.5080
37291SOL    HW114252   7.190   0.069   9.413  3.2740 -1.9322 -1.9197
37291SOL    HW214253   7.151   0.074   9.267 -1.7630  0.2486 -0.7215
37292SOL     OW14254   3.817   2.946   4.999 -0.8353 -0.1466  0.0144
37292SOL    HW114255   3.835   2.859   5.034 -2.3149 -0.2085  0.7056
37292SOL    HW214256   3.805   3.001   5.077 -0.5659  0.5243 -0.4119
37293SOL     OW14257   1.133   6.357   7.001 -0.0273 -0.0306  0.2446
37293SOL    HW114258   1.049   6.312   7.007 -0.3172  0.6158  1.5210
37293SOL    HW214259   1.198   6.289   7.017 -0.3073 -0.5179 -0.6649
37294SOL     OW14260   4.168   6.864   3.631  0.3296 -0.0279 -0.1228
37294SOL    HW114261   4.247   6.868   3.578  0.8927 -0.8585  0.6404
37294SOL    HW214262   4.102   6.824   3.574  0.5078  0.4471 -0.6757
37295SOL     OW14263   5.103   6.337   4.907 -0.3900  0.0910  0.5067
37295SOL    HW114264   5.050   6.325   4.985 -1.1825 -2.6219 -0.3718
37295SOL    HW214265   5.043   6.324   4.834  1.1594 -1.7613 -0.5158
37296SOL     OW14266   5.296   1.321   3.656  0.3376 -0.9283  0.0088
37296SOL    HW114267   5.293   1.274   3.573 -2.1268 -0.9013  0.0016
37296SOL    HW214268   5.246   1.401   3.641 -1.7990 -1.7629  1.9056
37297SOL     OW14269   6.646   4.298   1.614  0.0991 -0.3694  0.2307
37297SOL    HW114270   6.585   4.251   1.557 -0.5212  0.3730  0.2684
37297SOL    HW214271   6.724   4.309   1.560  0.3064 -1.5498  0.2705
37298SOL     OW14272   7.208   9.165   4.284 -0.2286  0.1428  0.0814
37298SOL    HW114273   7.113   9.152   4.280 -0.1991 -0.1046  0.1791
37298SOL    HW214274   7.234   9.127   4.368 -0.4287  2.6202  1.3703
37299SOL     OW14275   3.888   1.603  10.781  0.6721 -0.0223  0.0065
37299SOL    HW114276   3.859   1.691  10.756  0.3792 -0.0547  0.2277
37299SOL    HW214277   3.981   1.614  10.804  1.0365 -0.0555 -1.4018
37300SOL     OW14278   5.330   4.241   0.976 -0.2559  0.1925  0.0362
37300SOL    HW114279   5.304   4.269   1.063  1.8841 -0.6498  0.9975
37300SOL    HW214280   5.249   4.207   0.937 -1.1392  0.0428  1.8969
37301SOL     OW14281   7.773   5.762   8.714  0.3022  0.7774 -0.3779
37301SOL    HW114282   7.766   5.852   8.747 -1.2274 -0.2644  2.5207
37301SOL    HW214283   7.795   5.710   8.791  1.4846 -1.3615 -2.0344
37302SOL     OW14284   6.844   1.624   5.123 -0.1126 -0.1115  0.4887
37302SOL    HW114285   6.934   1.655   5.136  1.2903 -3.0348 -1.1827
37302SOL    HW214286   6.816   1.663   5.041  0.6100 -1.0551 -0.2283
37303SOL     OW14287   7.873   5.172   4.217  0.2482  0.5821  0.1697
37303SOL    HW114288   7.886   5.214   4.132 -0.1980  0.6045  0.1092
37303SOL    HW214289   7.960   5.142   4.242  0.6624  1.9170  0.4130
37304SOL     OW14290   0.596   0.555   6.790 -0.2903 -0.0310 -0.6667
37304SOL    HW114291   0.521   0.600   6.753 -0.5360 -0.7488 -1.0720
37304SOL    HW214292   0.563   0.516   6.871  0.0048  0.7697 -0.1523
37305SOL     OW14293   1.505  10.457   9.669 -0.5736  0.4261  0.5959
37305SOL    HW114294   1.449  10.461   9.746 -1.4032 -0.4479  0.0542
37305SOL    HW214295   1.447  10.479   9.595  0.7773  4.1287  0.3987
37306SOL     OW14296   1.902   7.221   8.325 -0.3161  0.0657  0.0480
37306SOL    HW114297   1.940   7.307   8.343  0.8853 -0.6216  0.9270
37306SOL    HW214298   1.921   7.169   8.403 -0.2982 -1.2340 -0.7830
37307SOL     OW14299   3.605   2.250   2.478 -0.3651 -0.4871 -0.2213
37307SOL    HW114300   3.658   2.280   2.404 -2.0403  0.8426 -0.9535
37307SOL    HW214301   3.653   2.278   2.555 -0.8357  2.4176 -0.8644
37308SOL     OW14302   1.939   6.133   0.758 -0.4477 -0.8096 -0.8004
37308SOL    HW114303   1.976   6.220   0.776  2.6951 -2.4202  1.5584
37308SOL    HW214304   1.848   6.140   0.784  0.2162  1.2645  1.3809
37309SOL     OW14305   1.854   8.817   4.681  0.4317 -0.2091  0.3368
37309SOL    HW114306   1.801   8.820   4.761  0.1898  0.3959  0.1633
37309SOL    HW214307   1.924   8.754   4.700  0.1483 -0.3645  0.8789
37310SOL     OW14308   2.498   2.672   6.084  0.4531  0.1674 -0.3218
37310SOL    HW114309   2.553   2.670   6.163 -0.3853  0.6481  0.2951
37310SOL    HW214310   2.545   2.728   6.023  0.6242  0.6272  0.2240
37311SOL     OW14311   7.640  10.364   2.565 -0.0053  0.0374 -0.6874
37311SOL    HW114312   7.565  10.413   2.531 -0.5577 -0.5515 -0.3323
37311SOL    HW214313   7.683  10.328   2.488  0.4606  1.1357 -0.9678
37312SOL     OW14314   3.219   3.866   7.209 -0.0087 -0.0938 -0.8332
37312SOL    HW114315   3.193   3.898   7.123  3.0929 -0.0961 -1.8981
37312SOL    HW214316   3.239   3.945   7.259 -0.8689 -0.1295 -0.4133
37313SOL     OW14317   7.402   1.232   4.448  0.5460 -0.8316  0.4455
37313SOL    HW114318   7.407   1.278   4.532 -0.9797 -0.7893  0.5474
37313SOL    HW214319   7.443   1.147   4.464 -0.5526 -1.1902  1.5320
37314SOL     OW14320   6.147   4.974   8.870 -0.0996 -0.0655 -0.0688
37314SOL    HW114321   6.204   4.998   8.798  0.1089 -0.0024  0.1162
37314SOL    HW214322   6.138   4.879   8.863 -0.1640 -0.0466 -0.2398
37315SOL     OW14323   9.260  10.314   3.497 -0.4473  0.0089 -0.6976
37315SOL    HW114324   9.225  10.400   3.518 -1.0102  0.5116 -3.3458
37315SOL    HW214325   9.189  10.253   3.517 -0.2970  0.2106  0.5061
37316SOL     OW14326   3.491   8.929   8.878 -0.1749  0.0061 -0.0123
37316SOL    HW114327   3.514   8.870   8.806 -1.9926  0.5499 -1.1022
37316SOL    HW214328   3.420   8.884   8.924  0.3791  0.0693  0.9301
37317SOL     OW14329   2.110   1.495   5.845 -0.0854  0.2303 -0.1439
37317SOL    HW114330   2.086   1.404   5.862  0.0360  0.0956 -0.6758
37317SOL    HW214331   2.196   1.490   5.803  0.4210  0.6525  0.8017
37318SOL     OW14332   9.074   7.482   3.173  0.0810  0.2455  0.3144
37318SOL    HW114333   9.140   7.432   3.220  0.5308  0.4280 -0.1157
37318SOL    HW214334   8.993   7.468   3.222  0.0215 -1.5333 -0.2361
37319SOL     OW14335   1.664   3.068   6.310  0.4202  0.3502  0.2645
37319SOL    HW114336   1.741   3.013   6.328  0.5877 -0.2082 -1.8344
37319SOL    HW214337   1.668   3.082   6.215 -1.7633  0.7806  0.2023
37320SOL     OW14338   8.864   5.719   5.102  0.1733  0.2401 -0.1213
37320SOL    HW114339   8.813   5.641   5.124  0.9807  0.0189  1.0450
37320SOL    HW214340   8.935   5.720   5.166  1.5901  0.5839 -1.6245
37321SOL     OW14341   3.420   1.722   4.390  0.0983 -0.1993  0.7748
37321SOL    HW114342   3.379   1.765   4.465 -1.2108 -1.1107  0.6034
37321SOL    HW214343   3.394   1.775   4.314  1.0512  0.4596  0.8811
37322SOL     OW14344   4.276   7.023   8.178 -0.2770 -0.3822  0.2707
37322SOL    HW114345   4.272   6.934   8.143  0.9194 -0.4789  0.3310
37322SOL    HW214346   4.326   7.014   8.259 -0.5251  0.2844  0.4990
37323SOL     OW14347   2.351   7.136   1.324  0.4311 -0.4676  0.1536
37323SOL    HW114348   2.401   7.213   1.350 -1.4021  1.1118 -0.6692
37323SOL    HW214349   2.352   7.139   1.228 -0.3770 -0.9403  0.1207
37324SOL     OW14350   9.245   0.536   8.333 -0.3219 -0.0813 -0.2893
37324SOL    HW114351   9.151   0.551   8.335 -0.2319  0.5524 -0.5729
37324SOL    HW214352   9.265   0.518   8.241  0.1058  1.7588 -0.6148
37325SOL     OW14353   7.241   6.838   3.111 -0.4363 -0.1908  0.0176
37325SOL    HW114354   7.214   6.819   3.022 -1.7731 -1.4101  0.6382
37325SOL    HW214355   7.230   6.933   3.120  0.0615 -0.0031 -1.1980
37326SOL     OW14356   0.023   9.525   7.938 -0.1062  0.1462 -0.1279
37326SOL    HW114357   0.011   9.483   7.853  1.4876 -0.1745 -0.2405
37326SOL    HW214358   0.045   9.453   7.998 -1.0098  0.3917  0.5128
37327SOL     OW14359   3.187   5.464   7.349 -0.1125 -0.4142  0.2337
37327SOL    HW114360   3.135   5.544   7.360 -0.6302 -0.8164  0.7098
37327SOL    HW214361   3.259   5.473   7.412 -0.3874 -0.5023  0.5613
37328SOL     OW14362   9.971   4.136   9.153 -0.5141  0.5073 -0.2158
37328SOL    HW114363   9.982   4.068   9.087  1.1483 -0.1177  0.6256
37328SOL    HW214364   9.952   4.088   9.234  3.3096  0.6706  0.9927
37329SOL     OW14365   4.829  10.716   7.268  0.5450  0.0927 -0.0620
37329SOL    HW114366   4.754  10.772   7.249  2.2891  2.4291 -0.5443
37329SOL    HW214367   4.797  10.652   7.331 -1.6807  1.3743  0.1891
37330SOL     OW14368   8.663   6.804   4.726 -0.2066  0.4697  0.3709
37330SOL    HW114369   8.653   6.797   4.631  0.1737 -1.3127  0.4443
37330SOL    HW214370   8.644   6.717   4.759  3.5737 -0.0864  1.5519
37331SOL     OW14371   4.059   1.973   9.759 -0.6580  0.8628  0.0118
37331SOL    HW114372   4.138   2.020   9.734 -0.1496  0.1260  0.2065
37331SOL    HW214373   3.993   2.041   9.770  0.0599  1.5269  0.2744
37332SOL     OW14374   0.683   3.518   3.730  0.0680 -0.0334  0.3656
37332SOL    HW114375   0.747   3.455   3.761 -2.1353 -2.2633  0.7147
37332SOL    HW214376   0.670   3.496   3.638 -0.1776  0.4165  0.2876
37333SOL     OW14377   8.187   1.139   8.706 -0.1888  0.1432 -0.3362
37333SOL    HW114378   8.271   1.099   8.681  0.1617  1.0125 -0.5686
37333SOL    HW214379   8.209   1.201   8.775 -1.0204 -1.5216  1.5314
37334SOL     OW14380   4.157   3.873   0.312  0.0264  0.2196 -0.6106
37334SOL    HW114381   4.170   3.781   0.292  2.2030  0.1326  0.9115
37334SOL    HW214382   4.234   3.917   0.277  0.1601  1.1140  0.7216
37335SOL     OW14383   2.566   6.022   7.472 -0.0816  0.5158 -0.1143
37335SOL    HW114384   2.591   6.057   7.386  0.2152  1.5270  0.3691
37335SOL    HW214385   2.605   6.083   7.535  2.0484 -1.6875  0.8363
37336SOL     OW14386   8.235   5.678   1.351 -0.0396 -0.1898  0.9310
37336SOL    HW114387   8.263   5.753   1.299 -1.6659  0.7590  1.3757
37336SOL    HW214388   8.294   5.607   1.323  1.0317  1.0258 -0.0486
37337SOL     OW14389   2.755   9.830  10.624 -0.4834 -0.1112  0.2398
37337SOL    HW114390   2.712   9.842  10.709  0.8503  0.8299  0.8055
37337SOL    HW214391   2.837   9.786  10.645  1.4555  3.0399 -0.0640
37338SOL     OW14392   5.134   2.686   8.775 -0.3701  0.1618 -0.8072
37338SOL    HW114393   5.107   2.639   8.697  0.0065 -0.4356 -0.5862
37338SOL    HW214394   5.052   2.704   8.822 -0.4048 -3.5143  0.9508
37339SOL     OW14395   3.423   8.148   7.823  0.8554  0.4879 -0.0445
37339SOL    HW114396   3.389   8.111   7.742  0.1672 -1.1189  0.9345
37339SOL    HW214397   3.491   8.210   7.794  0.0966  0.5511 -1.8489
37340SOL     OW14398  10.315   7.074   5.505 -0.7312 -0.0875 -0.7221
37340SOL    HW114399  10.326   7.142   5.572  1.8743 -1.1409  0.0433
37340SOL    HW214400  10.260   7.007   5.547 -0.4572 -0.0093 -0.2369
37341SOL     OW14401   4.427   6.257   0.306  0.6879 -0.2552  0.0375
37341SOL    HW114402   4.451   6.345   0.278 -0.8784  0.5935  1.1728
37341SOL    HW214403   4.400   6.213   0.226 -0.0795  0.8506 -0.3335
37342SOL     OW14404   5.493   0.122  10.526  0.2007  0.4987 -0.0662
37342SOL    HW114405   5.421   0.173  10.489 -1.4185 -0.5192  1.5181
37342SOL    HW214406   5.528   0.178  10.595 -1.7379 -0.4858  1.8402
37343SOL     OW14407   6.995   1.324   1.150 -0.3181 -0.7367  0.3653
37343SOL    HW114408   7.063   1.380   1.112  0.8272 -1.6046  1.0390
37343SOL    HW214409   6.966   1.371   1.228 -0.1408 -0.5792  0.3365
37344SOL     OW14410  10.285   5.181   3.026  0.0421 -0.9699 -0.0829
37344SOL    HW114411  10.379   5.168   3.014  0.1334  0.0054 -0.5135
37344SOL    HW214412  10.248   5.162   2.940 -0.0675 -0.5646 -0.1238
37345SOL     OW14413   5.202   0.120  10.188  1.0297 -0.5191  0.0287
37345SOL    HW114414   5.211   0.125  10.093  1.8343 -0.1177  0.1203
37345SOL    HW214415   5.233   0.033  10.210 -2.7494 -2.1876 -0.4336
37346SOL     OW14416   6.031   6.902   8.744  0.1431 -0.2205  0.0801
37346SOL    HW114417   6.069   6.829   8.696  0.0972 -0.4803  0.4376
37346SOL    HW214418   6.057   6.888   8.834 -1.3810 -0.7952  0.4648
37347SOL     OW14419   7.495   4.007   1.278  0.5487 -0.2253  0.3993
37347SOL    HW114420   7.485   3.914   1.258 -1.7073  0.3518 -1.7559
37347SOL    HW214421   7.580   4.030   1.242  0.2492 -1.0824 -0.9612
37348SOL     OW14422   0.347   4.312   7.152  0.1179 -0.3596 -0.7065
37348SOL    HW114423   0.437   4.342   7.148  0.2951 -0.8391 -0.3260
37348SOL    HW214424   0.344   4.237   7.093 -0.0892 -0.2158 -0.8850
37349SOL     OW14425   2.250   0.402   2.748  0.0698 -0.1538 -0.1358
37349SOL    HW114426   2.214   0.335   2.806  0.1787 -0.3079 -0.2438
37349SOL    HW214427   2.295   0.463   2.806 -2.4381  1.4352  0.2955
37350SOL     OW14428   7.830  10.686   7.872  0.6051  0.3019  0.4208
37350SOL    HW114429   7.892  10.733   7.816 -1.4621  1.2318 -1.2064
37350SOL    HW214430   7.754  10.743   7.877 -1.0159 -1.7448  0.4562
37351SOL     OW14431  10.427   3.093   2.768  0.2592 -0.0085 -0.2596
37351SOL    HW114432  10.462   3.006   2.751 -1.6566 -0.6753 -1.1992
37351SOL    HW214433  10.392   3.089   2.857  2.0299  0.5132  0.5003
37352SOL     OW14434   1.816   7.541   6.443  0.5447  0.7349 -0.1461
37352SOL    HW114435   1.895   7.505   6.400 -0.3097  0.3483 -1.4672
37352SOL    HW214436   1.838   7.543   6.536  1.5476 -0.8825 -0.3091
37353SOL     OW14437   8.654   1.166  10.376  0.6654 -0.1845 -0.4509
37353SOL    HW114438   8.579   1.141  10.429  0.4734  0.6324 -0.3179
37353SOL    HW214439   8.665   1.260  10.393  1.3078 -0.1576 -0.9725
37354SOL     OW14440   1.536   7.604   5.266 -0.0110 -0.3762  0.7604
37354SOL    HW114441   1.609   7.555   5.228 -0.3533  0.4568 -1.1379
37354SOL    HW214442   1.469   7.538   5.284 -0.3103 -0.7447 -1.3651
37355SOL     OW14443   2.629   5.771   3.607  0.3246 -0.4679  0.2824
37355SOL    HW114444   2.593   5.859   3.617  2.6612  0.5922 -0.0011
37355SOL    HW214445   2.724   5.783   3.613  0.6800 -3.1597  1.6281
37356SOL     OW14446   4.607   8.117   7.815 -0.2423 -0.1203 -0.0187
37356SOL    HW114447   4.589   8.025   7.833  1.3719 -0.7840 -1.4567
37356SOL    HW214448   4.548   8.140   7.743  0.8340 -0.7411 -1.1586
37357SOL     OW14449  10.700   7.662   1.997  0.2761  0.1515  0.6991
37357SOL    HW114450  10.685   7.752   2.024  0.6852 -0.3369  2.7678
37357SOL    HW214451  10.787   7.662   1.958 -0.5103  0.9727 -1.1572
37358SOL     OW14452   3.206   2.828   7.497  0.1385 -0.0964  0.1653
37358SOL    HW114453   3.296   2.828   7.530  0.1910 -1.3575  0.0767
37358SOL    HW214454   3.211   2.877   7.414  1.2579 -2.1204 -1.0564
37359SOL     OW14455   9.429   3.087   8.897 -0.4494  0.1339  0.4513
37359SOL    HW114456   9.369   3.012   8.888  0.5310 -0.6547  0.3134
37359SOL    HW214457   9.424   3.131   8.812  0.3100 -0.8149 -0.1005
37360SOL     OW14458   2.866   5.327   8.434 -0.4115  0.1964  0.4183
37360SOL    HW114459   2.899   5.242   8.407 -2.0391 -0.4626  0.4282
37360SOL    HW214460   2.943   5.385   8.431  0.8097 -1.3478  0.8357
37361SOL     OW14461   0.307   5.457   8.258 -0.1230  0.3535 -0.0885
37361SOL    HW114462   0.389   5.506   8.254  0.4963 -0.4707  1.6222
37361SOL    HW214463   0.263   5.489   8.336 -0.4578 -0.6460  0.1469
37362SOL     OW14464   1.908   6.677   3.616 -0.4549  0.7291  0.3482
37362SOL    HW114465   1.831   6.634   3.653 -0.3855 -0.3982 -0.7606
37362SOL    HW214466   1.981   6.647   3.671 -0.4885 -0.1813 -0.0713
37363SOL     OW14467  10.270   6.289   3.825 -0.1152  0.1103  0.1747
37363SOL    HW114468  10.221   6.207   3.826  1.3972 -0.8995 -1.9014
37363SOL    HW214469  10.255   6.327   3.912 -0.4260 -2.6106  1.4093
37364SOL     OW14470   5.105  10.714   8.671 -0.2038 -0.3482  1.0028
37364SOL    HW114471   5.148  10.733   8.587 -1.0244  1.8368  0.9945
37364SOL    HW214472   5.098  10.619   8.674 -0.7629 -0.4830 -1.7535
37365SOL     OW14473  10.696   1.244   3.108 -0.4052 -0.2488 -0.2189
37365SOL    HW114474  10.645   1.189   3.167  0.4024 -0.6563  0.1143
37365SOL    HW214475  10.655   1.330   3.115 -1.5937 -0.7508 -0.6302
37366SOL     OW14476   6.366   7.711   6.626 -0.1382  0.4301 -0.2181
37366SOL    HW114477   6.333   7.748   6.544 -0.7831 -1.2168 -0.7363
37366SOL    HW214478   6.294   7.721   6.688  0.4629  1.9756  0.2991
37367SOL     OW14479  10.063   0.713   3.244  0.7961 -0.0019  0.0954
37367SOL    HW114480   9.985   0.711   3.189  1.9463  1.0276 -1.6586
37367SOL    HW214481  10.038   0.764   3.321 -0.3544 -0.0368 -0.2526
37368SOL     OW14482   5.832   2.423   5.569 -0.0799  0.5214  0.1746
37368SOL    HW114483   5.899   2.475   5.613  0.2028 -0.4748  0.9790
37368SOL    HW214484   5.878   2.378   5.499 -0.1185  0.6174  0.0883
37369SOL     OW14485   5.859   8.408   5.506 -0.2362 -0.0751  0.2349
37369SOL    HW114486   5.801   8.367   5.570 -1.6722  0.8330 -0.4472
37369SOL    HW214487   5.815   8.395   5.422 -0.5106  2.3767 -0.0571
37370SOL     OW14488  10.263   0.196  10.446 -0.2099  0.5876 -0.6578
37370SOL    HW114489  10.168   0.199  10.432  0.0218 -1.2349 -3.5184
37370SOL    HW214490  10.286   0.285  10.471 -2.5856  1.2337 -0.4751
37371SOL     OW14491   7.114   8.105   4.240 -0.1489  0.2780 -0.5114
37371SOL    HW114492   7.127   8.182   4.295  1.2491 -1.2952  1.4700
37371SOL    HW214493   7.112   8.140   4.151  0.3321  2.6185  0.3322
37372SOL     OW14494  10.036   0.147   9.503  0.7505  0.1056  0.0202
37372SOL    HW114495  10.030   0.117   9.594  1.3606 -0.1318 -0.0051
37372SOL    HW214496   9.952   0.187   9.484 -0.7808 -3.0195 -0.4480
37373SOL     OW14497   6.587   7.393   6.287  0.8752 -0.0155  0.5934
37373SOL    HW114498   6.518   7.374   6.223  0.8552  0.1752  0.5600
37373SOL    HW214499   6.613   7.306   6.320 -0.1031 -0.0295  1.3797
37374SOL     OW14500  10.423   6.560   8.428 -0.0446 -0.1596  0.2426
37374SOL    HW114501  10.451   6.651   8.444 -0.1658 -0.1946  0.6748
37374SOL    HW214502  10.347   6.568   8.371 -1.0476  0.1040  1.5795
37375SOL     OW14503   6.037   1.661   0.727  0.3338 -0.0346 -0.0293
37375SOL    HW114504   6.015   1.753   0.743  0.1678  0.7463 -3.8362
37375SOL    HW214505   6.133   1.659   0.730  0.3437  0.3054 -0.0534
37376SOL     OW14506   5.447   9.086   4.302  0.1217 -0.1823  0.7790
37376SOL    HW114507   5.518   9.081   4.366  1.0243  0.6527 -0.1256
37376SOL    HW214508   5.490   9.085   4.217 -0.7602  2.4130  0.2093
37377SOL     OW14509   9.836   1.067   2.770 -0.1482  0.4081 -0.1193
37377SOL    HW114510   9.902   1.095   2.707  0.4939  0.9866  0.7743
37377SOL    HW214511   9.753   1.095   2.732  0.3515  2.2391  0.0186
37378SOL     OW14512   5.020   4.801   4.354  0.0096  0.3374  0.4694
37378SOL    HW114513   4.973   4.829   4.276  1.1813  1.4522  0.1413
37378SOL    HW214514   5.003   4.707   4.360 -1.1968  0.4851 -0.3481
37379SOL     OW14515   6.356  10.391   0.892 -0.3760  0.5154 -0.3896
37379SOL    HW114516   6.308  10.463   0.933 -0.9978 -0.3156  0.3778
37379SOL    HW214517   6.357  10.322   0.959  1.0280  0.1486 -0.7598
37380SOL     OW14518   7.534   7.659   0.885  0.1500 -0.7052  0.2952
37380SOL    HW114519   7.585   7.635   0.807  1.7872  0.1973  1.0394
37380SOL    HW214520   7.600   7.680   0.951 -1.1965  0.4524  1.3311
37381SOL     OW14521   6.636   5.534   2.873 -0.3428  0.0818 -0.2896
37381SOL    HW114522   6.673   5.465   2.927 -0.3690  0.5176  0.2971
37381SOL    HW214523   6.573   5.490   2.816  0.0639 -0.4565 -0.3234
37382SOL     OW14524   7.085   9.868   1.700 -0.0396 -0.1446 -0.1359
37382SOL    HW114525   7.152   9.902   1.641  1.2074  0.8250  1.7521
37382SOL    HW214526   7.121   9.785   1.732 -0.7379 -0.6958 -0.7350
37383SOL     OW14527   1.833  10.758   3.792 -0.1012  0.3869  0.1505
37383SOL    HW114528   1.846  10.684   3.851  0.9825  0.6570  0.2654
37383SOL    HW214529   1.898  10.823   3.820 -1.2444  1.5185  0.2552
37384SOL     OW14530  10.485   2.821   2.185  0.3326 -0.4341  0.0676
37384SOL    HW114531  10.480   2.749   2.122 -0.4498 -2.0457  1.8669
37384SOL    HW214532  10.428   2.888   2.149 -1.1191 -1.8280 -0.3808
37385SOL     OW14533   1.757  10.727   3.532 -0.2497 -0.3962  0.5548
37385SOL    HW114534   1.758  10.760   3.622  2.1989  1.7080 -0.1621
37385SOL    HW214535   1.844  10.689   3.519 -1.0294 -1.9466 -0.5570
37386SOL     OW14536   3.700  10.373   5.555 -0.2483 -0.2754 -0.0257
37386SOL    HW114537   3.642  10.447   5.536 -0.8632 -0.9706 -0.9358
37386SOL    HW214538   3.694  10.318   5.477 -1.2029 -2.1771  1.3281
37387SOL     OW14539   2.801   1.900  10.403  0.2314 -0.0952 -0.1830
37387SOL    HW114540   2.716   1.935  10.427  1.3682  2.1216  0.8583
37387SOL    HW214541   2.807   1.816  10.450 -0.8939  0.2851  0.6652
37388SOL     OW14542   6.608   7.463   7.662  0.1281  0.1648 -0.3087
37388SOL    HW114543   6.641   7.393   7.606 -0.9749 -0.2415 -0.4781
37388SOL    HW214544   6.564   7.418   7.734 -1.4482  0.6356 -0.9187
37389SOL     OW14545   3.156   7.857   5.389  0.0121 -0.1981 -0.2517
37389SOL    HW114546   3.087   7.920   5.410  2.0523  1.0770  3.7895
37389SOL    HW214547   3.130   7.778   5.437  1.1268  0.2208  1.1086
37390SOL     OW14548   3.589   9.655   8.661 -0.2082  0.1660 -0.1304
37390SOL    HW114549   3.671   9.647   8.613  2.1549 -1.9954  3.7510
37390SOL    HW214550   3.612   9.703   8.741 -2.2653 -1.8484  1.8360
37391SOL     OW14551   7.433   3.157   5.887 -0.5988 -0.7244 -0.7958
37391SOL    HW114552   7.341   3.177   5.899 -0.8151 -2.4710  0.8473
37391SOL    HW214553   7.439   3.062   5.896  1.5007 -0.5558  0.2307
37392SOL     OW14554   7.313   7.671   8.900  0.1269 -0.0272 -0.7110
37392SOL    HW114555   7.353   7.719   8.973  2.3254 -0.0330 -1.8251
37392SOL    HW214556   7.314   7.733   8.827 -1.0606 -0.3656 -1.0258
37393SOL     OW14557   0.177   7.988   4.544  0.4575  0.4184  0.0539
37393SOL    HW114558   0.121   7.948   4.611  1.3923  0.7158  1.0407
37393SOL    HW214559   0.127   7.979   4.463 -0.5340 -0.3025  0.7172
37394SOL     OW14560   2.792   7.071   8.354 -0.3581  0.3767  0.4331
37394SOL    HW114561   2.878   7.107   8.330 -0.0536 -0.1453  0.7182
37394SOL    HW214562   2.736   7.147   8.365 -0.2986  0.6837 -1.1343
37395SOL     OW14563   0.972   0.461   9.342 -0.5753 -0.2431 -0.2080
37395SOL    HW114564   0.915   0.518   9.291 -1.2963 -0.8469 -0.0831
37395SOL    HW214565   0.914   0.413   9.399  0.1043 -0.5515  0.2363
37396SOL     OW14566   7.661   4.040   4.934 -0.5468  0.1291  0.5393
37396SOL    HW114567   7.665   4.108   4.866 -2.2854  0.0078  0.2653
37396SOL    HW214568   7.608   3.970   4.895  0.6054 -1.0843  1.0855
37397SOL     OW14569   1.609   8.167   8.196 -0.4270  0.2714  1.1669
37397SOL    HW114570   1.609   8.079   8.158 -0.0538  1.2133 -1.2042
37397SOL    HW214571   1.610   8.152   8.290  2.1266 -2.2851  0.8783
37398SOL     OW14572   1.270   2.684   9.422  0.2416  0.8136 -0.5252
37398SOL    HW114573   1.314   2.720   9.345  0.9548 -0.3085 -0.6597
37398SOL    HW214574   1.251   2.593   9.398  1.5214  0.1028  1.0414
37399SOL     OW14575   9.184   7.624   4.922 -0.0654 -0.1418  0.4473
37399SOL    HW114576   9.112   7.561   4.925 -0.5278  0.2286 -1.4869
37399SOL    HW214577   9.247   7.586   4.861 -0.4785  1.3480 -0.9759
37400SOL     OW14578   1.654   2.533   5.338  0.6788 -0.4949 -0.5113
37400SOL    HW114579   1.664   2.503   5.248 -1.7190 -1.1895 -0.6216
37400SOL    HW214580   1.581   2.594   5.336  0.2656 -0.8837  1.0286
37401SOL     OW14581   5.284   0.520   7.471 -0.3330  0.4628 -0.5640
37401SOL    HW114582   5.314   0.599   7.426 -1.6508 -0.5843 -3.5883
37401SOL    HW214583   5.215   0.486   7.414 -1.3303 -1.6943  1.7780
37402SOL     OW14584   5.823   7.886   1.499 -0.3011  0.8487 -0.3724
37402SOL    HW114585   5.901   7.942   1.494 -0.4781  1.0608 -0.7775
37402SOL    HW214586   5.754   7.938   1.458 -0.8183  0.9394  0.5883
37403SOL     OW14587   4.749   5.099   0.839 -2.0676 -0.1158  0.3126
37403SOL    HW114588   4.842   5.118   0.856 -1.5660 -1.6423 -0.5231
37403SOL    HW214589   4.702   5.164   0.890 -0.5451  3.4809 -2.3967
37404SOL     OW14590   4.780   8.164   6.273  0.2795  0.0370 -0.1461
37404SOL    HW114591   4.809   8.073   6.273  0.7166  0.1715  0.1856
37404SOL    HW214592   4.688   8.160   6.302  0.0566 -0.3599 -0.8767
37405SOL     OW14593   6.350   6.851   2.081  0.1632  0.0933 -0.2862
37405SOL    HW114594   6.330   6.893   1.998  1.4520  2.1989  0.3754
37405SOL    HW214595   6.291   6.892   2.144  0.2537 -0.3691  0.1114
37406SOL     OW14596   4.837   3.109   8.159 -0.3007  0.2014 -0.2565
37406SOL    HW114597   4.889   3.067   8.091 -1.1214  0.5247 -1.1010
37406SOL    HW214598   4.801   3.188   8.118  0.4619  1.2663  1.0231
37407SOL     OW14599   4.056   3.979   3.575 -0.4171  0.4756  0.3149
37407SOL    HW114600   4.127   3.990   3.513  1.4279 -0.4444  2.1519
37407SOL    HW214601   4.048   3.884   3.586  0.1343  0.6055  2.3000
37408SOL     OW14602   2.695   7.450   8.070 -0.3197 -0.1299  0.2800
37408SOL    HW114603   2.777   7.406   8.090  0.3528  0.6840 -0.6224
37408SOL    HW214604   2.702   7.534   8.114 -1.6692 -0.9156  2.1340
37409SOL     OW14605   0.218   6.969   9.159  0.6922 -0.4640 -0.2695
37409SOL    HW114606   0.235   6.945   9.068  1.4938 -2.5631  0.3675
37409SOL    HW214607   0.305   6.988   9.196  0.3620  0.4999  0.0351
37410SOL     OW14608   1.231   8.083   9.567  0.1714 -0.2902 -0.3361
37410SOL    HW114609   1.298   8.039   9.620 -0.0211 -0.5969 -0.3447
37410SOL    HW214610   1.247   8.052   9.478 -0.4408 -0.9446 -0.2283
37411SOL     OW14611   9.612   6.809   1.655 -0.4199  0.3877 -0.0541
37411SOL    HW114612   9.572   6.877   1.710 -1.6394  0.8415 -1.4424
37411SOL    HW214613   9.704   6.836   1.647 -0.8650  1.8875 -0.5314
37412SOL     OW14614   7.439   2.894   5.901  0.1855 -1.0325  0.5074
37412SOL    HW114615   7.528   2.858   5.900  0.6448 -0.0001  1.7166
37412SOL    HW214616   7.395   2.849   5.973  0.7750  0.7408  2.0549
37413SOL     OW14617   7.611   2.224   1.918 -0.7435  0.3970  0.5026
37413SOL    HW114618   7.527   2.207   1.876 -1.4682  1.9703  1.2376
37413SOL    HW214619   7.589   2.270   1.998  0.7711 -0.2134  1.3171
37414SOL     OW14620   7.958   9.829   1.725  0.2873  0.8255 -0.2108
37414SOL    HW114621   8.040   9.807   1.769 -0.3551  0.3857  0.7954
37414SOL    HW214622   7.941   9.754   1.668 -0.8221 -0.4353  1.6610
37415SOL     OW14623  10.792   9.989   5.000  0.5699 -0.2047  0.0761
37415SOL    HW114624  10.846  10.038   4.939  1.1771  1.6884  2.0210
37415SOL    HW214625  10.743  10.056   5.049 -0.2532 -1.6387  1.3235
37416SOL     OW14626   3.571   0.492   3.409  0.4884  0.0267 -0.0222
37416SOL    HW114627   3.513   0.533   3.473  0.1742 -2.7463  1.6292
37416SOL    HW214628   3.568   0.551   3.333 -2.2828  1.4134  1.0046
37417SOL     OW14629   1.736   3.577   6.580  0.1318 -0.4930 -0.2719
37417SOL    HW114630   1.819   3.624   6.586 -0.0747  0.0040 -1.1225
37417SOL    HW214631   1.757   3.497   6.533  0.1992 -0.5350 -0.1697
37418SOL     OW14632   4.391   6.897   7.274  0.2229 -0.0453  0.5280
37418SOL    HW114633   4.439   6.893   7.191  0.6848  0.8381  0.7441
37418SOL    HW214634   4.432   6.831   7.329  0.2609 -0.2671  0.2389
37419SOL     OW14635   7.274   3.534  10.608 -0.0650  0.0304  0.5605
37419SOL    HW114636   7.182   3.536  10.581  0.3417  0.6203 -0.8545
37419SOL    HW214637   7.281   3.605  10.672 -0.5259  0.1580  0.4761
37420SOL     OW14638   2.474   3.009   9.522 -0.6972  0.5512  0.5642
37420SOL    HW114639   2.398   2.994   9.578 -1.2665  1.3378  0.0401
37420SOL    HW214640   2.520   2.925   9.519 -0.8943  0.3793  1.8325
37421SOL     OW14641   9.461   7.732   1.513 -0.8004  0.4455  0.1919
37421SOL    HW114642   9.401   7.802   1.486  1.6089  2.4868 -0.2838
37421SOL    HW214643   9.480   7.685   1.433 -2.0598 -0.5218  0.4285
37422SOL     OW14644   4.484   7.136   2.593  0.3206 -0.2138  0.0785
37422SOL    HW114645   4.457   7.044   2.586 -1.2920  0.2835 -0.7239
37422SOL    HW214646   4.532   7.153   2.511 -0.4680 -0.0221 -0.3545
37423SOL     OW14647   5.457   1.662   1.407  0.3973  0.1638 -0.2001
37423SOL    HW114648   5.384   1.719   1.386  0.2031  0.1958  0.5366
37423SOL    HW214649   5.494   1.638   1.322 -0.9553 -0.4922 -0.6246
37424SOL     OW14650   4.736   0.511   6.722  0.2925  0.0743 -0.3055
37424SOL    HW114651   4.732   0.419   6.698 -1.5971  0.6797 -2.7460
37424SOL    HW214652   4.818   0.542   6.685  0.2056 -0.3207 -0.8414
37425SOL     OW14653   7.269   3.303   9.613 -0.2022  0.0046  0.3390
37425SOL    HW114654   7.280   3.208   9.614  1.1406  0.1387  0.2456
37425SOL    HW214655   7.208   3.321   9.685 -0.4207 -0.9135  0.3948
37426SOL     OW14656   3.288   0.025   4.083  0.0677 -1.0805 -0.0660
37426SOL    HW114657   3.381   0.039   4.068  0.0611  0.2671  0.9781
37426SOL    HW214658   3.244   0.084   4.022 -0.0197  0.7297  1.6608
37427SOL     OW14659   7.126   3.518   0.655  0.6115 -0.3311 -0.2456
37427SOL    HW114660   7.209   3.505   0.701  0.1532 -0.6746  0.4933
37427SOL    HW214661   7.103   3.430   0.624 -0.2666 -0.5416  0.9329
37428SOL     OW14662   2.869   1.467  10.289  0.2453 -0.2953 -0.1118
37428SOL    HW114663   2.948   1.430  10.251 -0.2158 -0.2837 -1.1187
37428SOL    HW214664   2.840   1.402  10.353  0.6505 -0.6509 -0.2870
37429SOL     OW14665   7.464  10.317   7.971  0.2407 -0.1329  0.0771
37429SOL    HW114666   7.396  10.380   7.947 -0.5134 -0.8134  0.3556
37429SOL    HW214667   7.466  10.255   7.898  1.5973  0.6740 -0.6109
37430SOL     OW14668   8.902   1.009   1.087  0.1087  0.8077 -0.0345
37430SOL    HW114669   8.906   1.096   1.126 -0.5186 -0.0267  2.0716
37430SOL    HW214670   8.994   0.982   1.081  0.2293  0.7832  1.4431
37431SOL     OW14671   9.854   4.687   7.163  0.2102  0.0265 -0.1359
37431SOL    HW114672   9.928   4.709   7.220 -0.6188 -3.2333  2.5636
37431SOL    HW214673   9.876   4.601   7.128 -1.6590 -0.3595 -0.4639
37432SOL     OW14674   2.897   4.702   0.054 -0.1268  0.1429 -0.3617
37432SOL    HW114675   2.886   4.648  -0.025 -1.6915 -0.3860  0.1702
37432SOL    HW214676   2.970   4.760   0.034  1.4872 -1.9903 -1.0649
37433SOL     OW14677   3.779   8.846   3.911 -0.1328  0.0865  0.1423
37433SOL    HW114678   3.865   8.806   3.919 -0.7324 -0.9308  1.9770
37433SOL    HW214679   3.737   8.799   3.839 -0.5204 -2.1249  1.7294
37434SOL     OW14680   7.708   2.977   1.098 -0.1491  0.1989  0.2498
37434SOL    HW114681   7.647   2.935   1.159 -0.0453 -1.2404 -0.5915
37434SOL    HW214682   7.773   3.019   1.154  0.4596 -1.8491  1.1825
37435SOL     OW14683   6.335   8.869  10.028  0.2444 -0.0867 -0.2274
37435SOL    HW114684   6.278   8.837  10.097  0.0595  1.4906  0.4120
37435SOL    HW214685   6.419   8.885  10.072  0.8853 -1.3904 -0.9263
37436SOL     OW14686   8.231   1.964   9.281  0.4136  0.7895  0.5484
37436SOL    HW114687   8.218   1.900   9.352  1.2636  0.5113  0.4751
37436SOL    HW214688   8.288   2.030   9.320  1.7610  0.0952 -0.1586
37437SOL     OW14689   3.176  10.790   7.768  0.7436  0.0753 -0.0895
37437SOL    HW114690   3.135  10.750   7.844 -0.0702  1.0361 -0.0008
37437SOL    HW214691   3.242  10.850   7.805 -2.2449  3.5634  0.2010
37438SOL     OW14692   3.490  10.727   3.033 -0.1451  0.0436  0.3820
37438SOL    HW114693   3.451  10.722   2.946 -0.2805 -1.0081  0.4901
37438SOL    HW214694   3.456  10.651   3.079 -0.4591  0.8427  1.5223
37439SOL     OW14695  10.227   8.295   7.557  0.3094 -0.3227 -0.3732
37439SOL    HW114696  10.218   8.233   7.485 -0.8287 -2.3023  1.3463
37439SOL    HW214697  10.189   8.376   7.525  0.6698 -0.8569 -2.2731
37440SOL     OW14698   1.529  10.420   8.961 -0.4223 -0.2073  0.5064
37440SOL    HW114699   1.485  10.450   8.882 -0.0620 -2.4754 -0.6198
37440SOL    HW214700   1.616  10.391   8.932  0.4963  0.7793  2.0863
37441SOL     OW14701   3.648   9.428   4.441 -0.0405 -0.0622 -0.4809
37441SOL    HW114702   3.727   9.449   4.391 -0.6094 -0.1367 -1.4447
37441SOL    HW214703   3.585   9.495   4.415 -0.4870 -0.3614 -0.1826
37442SOL     OW14704   6.561   2.760   0.745 -0.0288  0.1670 -0.8360
37442SOL    HW114705   6.609   2.693   0.794  1.6674  1.0331 -1.2374
37442SOL    HW214706   6.549   2.831   0.808  0.5028  0.5308 -1.1407
37443SOL     OW14707   1.000   2.677   6.937 -0.1528  0.8591 -0.0028
37443SOL    HW114708   0.912   2.697   6.969 -0.1528  1.6490 -0.4665
37443SOL    HW214709   1.034   2.762   6.906  0.3701  0.3756 -0.7920
37444SOL     OW14710   2.804   4.501   5.017  0.2382  0.6885 -0.0082
37444SOL    HW114711   2.766   4.586   4.994  0.2439  0.5642 -0.4826
37444SOL    HW214712   2.863   4.520   5.090 -1.9742  0.6413  1.9052
37445SOL     OW14713   4.431   2.587   1.778  0.8743  0.0395  0.2697
37445SOL    HW114714   4.415   2.510   1.833  1.4502  0.8029  1.5453
37445SOL    HW214715   4.346   2.632   1.775  1.1727  0.7852  1.8363
37446SOL     OW14716   1.312   7.412   5.414  0.4026  0.1948 -0.3380
37446SOL    HW114717   1.332   7.321   5.435  1.2798  0.2177 -1.0309
37446SOL    HW214718   1.316   7.457   5.498  0.0385 -0.3849 -0.0005
37447SOL     OW14719   1.663   1.841   7.328 -0.3207 -0.2539 -0.2406
37447SOL    HW114720   1.741   1.810   7.375 -2.1830 -2.4085  1.7063
37447SOL    HW214721   1.628   1.910   7.384 -1.1878 -1.1253  0.3407
37448SOL     OW14722   0.138   9.579   3.737 -0.3880  0.3922 -0.0587
37448SOL    HW114723   0.228   9.610   3.726 -0.8954  1.6125 -0.9439
37448SOL    HW214724   0.100   9.583   3.649 -1.2964 -0.1758  0.2923
37449SOL     OW14725   4.962   3.862   6.769 -0.3847 -0.3516 -0.1343
37449SOL    HW114726   4.947   3.917   6.692  0.4497  0.5305  0.2976
37449SOL    HW214727   4.890   3.799   6.769 -2.1183  1.5250  0.0318
37450SOL     OW14728   5.679   2.500   8.149 -0.0124  0.4996 -0.0692
37450SOL    HW114729   5.705   2.464   8.064 -2.7165 -1.3090 -0.2613
37450SOL    HW214730   5.620   2.573   8.127 -1.1808 -0.3403  0.1923
37451SOL     OW14731   4.822   2.475   1.697 -0.3329  0.0069  0.4085
37451SOL    HW114732   4.754   2.480   1.629 -1.6793  0.0577  1.7148
37451SOL    HW214733   4.794   2.404   1.754 -0.7939  1.7911  2.5309
37452SOL     OW14734   6.156   1.489   7.132 -0.1519  0.3575 -0.0463
37452SOL    HW114735   6.121   1.551   7.068 -1.8216  0.2494  0.7070
37452SOL    HW214736   6.123   1.520   7.216 -0.0014 -0.8462  0.4766
37453SOL     OW14737   6.853   4.962   6.664  0.1412 -0.1152  0.2374
37453SOL    HW114738   6.921   5.016   6.625  0.6977 -0.2630  0.9689
37453SOL    HW214739   6.852   4.987   6.756 -1.6678  0.7644  0.0125
37454SOL     OW14740   5.019  10.332   9.688  0.0885 -0.2963  0.5713
37454SOL    HW114741   5.108  10.301   9.705  0.5324  0.8918  0.4684
37454SOL    HW214742   5.026  10.427   9.687 -1.1400 -0.1916  0.2982
37455SOL     OW14743   6.418   4.792   5.915  0.2467 -0.5223  0.1996
37455SOL    HW114744   6.380   4.721   5.863 -0.3458 -1.3063  1.6444
37455SOL    HW214745   6.349   4.814   5.978  0.8786  0.5286  0.5404
37456SOL     OW14746   1.395   9.382   8.137 -0.4188 -0.1819 -0.3351
37456SOL    HW114747   1.423   9.292   8.120  0.3204 -0.0035 -0.1261
37456SOL    HW214748   1.477   9.432   8.137 -0.9192  0.6606 -1.4772
37457SOL     OW14749   7.637   2.193   4.387 -0.0093  0.0114  0.3380
37457SOL    HW114750   7.617   2.130   4.319 -0.3071 -0.0774  0.5076
37457SOL    HW214751   7.557   2.200   4.439 -0.0422  0.6539  0.2191
37458SOL     OW14752   6.012   8.093   7.519  0.0882  1.0101  0.3043
37458SOL    HW114753   6.029   8.118   7.428  0.1296  0.3831  0.1356
37458SOL    HW214754   5.917   8.100   7.529 -0.1230 -0.6032 -0.3080
37459SOL     OW14755   3.611   3.665   4.363  0.2474 -0.4148  0.0097
37459SOL    HW114756   3.578   3.703   4.281  0.5299 -0.6332 -0.2054
37459SOL    HW214757   3.628   3.741   4.419 -0.1877 -0.2748 -0.0381
37460SOL     OW14758  10.192   8.849   9.718 -0.1942  0.6862 -0.0718
37460SOL    HW114759  10.201   8.917   9.651 -0.8200  2.1450  1.2667
37460SOL    HW214760  10.159   8.895   9.795  1.4203 -0.7545  1.5691
37461SOL     OW14761   9.765   6.554   8.331  0.2334  0.0943  0.2471
37461SOL    HW114762   9.673   6.572   8.312  0.6376  0.8486 -1.1326
37461SOL    HW214763   9.762   6.493   8.405 -1.3954 -0.7393 -0.4361
37462SOL     OW14764   8.060   8.094   5.728 -0.1566 -0.4021  0.0440
37462SOL    HW114765   8.136   8.145   5.757  0.4318 -1.1102 -0.2303
37462SOL    HW214766   8.057   8.108   5.633 -0.2209 -0.5676  0.0217
37463SOL     OW14767   5.546   9.334   5.046  0.5744 -0.2108  0.2581
37463SOL    HW114768   5.495   9.351   4.967 -0.8110  0.3719  1.2283
37463SOL    HW214769   5.496   9.267   5.093  0.8263  0.1922  1.1269
37464SOL     OW14770   4.971   5.561   6.551 -0.4465  0.0590 -0.0098
37464SOL    HW114771   5.044   5.615   6.580  0.0350 -0.5283 -0.1306
37464SOL    HW214772   4.917   5.621   6.498 -0.0762  0.4971  0.1035
37465SOL     OW14773   2.866   0.819   7.712  0.5950  0.4996 -0.1835
37465SOL    HW114774   2.948   0.860   7.684  1.2780 -0.0964  0.8631
37465SOL    HW214775   2.891   0.766   7.788 -0.7653  0.3043  0.1486
37466SOL     OW14776   6.752   0.466   8.310  0.0777  0.3240  0.5159
37466SOL    HW114777   6.779   0.445   8.400 -0.1991 -0.8879  0.3365
37466SOL    HW214778   6.667   0.509   8.320  0.3644  0.8255  0.8668
37467SOL     OW14779   9.870   9.960   1.811  0.1350 -0.2449  0.3102
37467SOL    HW114780   9.939   9.936   1.873  4.0615  1.2469 -2.9610
37467SOL    HW214781   9.883   9.901   1.737 -2.0340  0.2151 -0.5035
37468SOL     OW14782   9.341   0.194   5.637  0.1698 -0.1842 -0.0369
37468SOL    HW114783   9.305   0.208   5.549  0.0315 -0.6257 -0.0533
37468SOL    HW214784   9.317   0.273   5.685  2.3218  1.1801 -1.0553
37469SOL     OW14785   8.488   6.784   5.466  0.0106 -0.3764  0.1529
37469SOL    HW114786   8.560   6.768   5.528 -0.0558 -1.8962 -0.1042
37469SOL    HW214787   8.462   6.696   5.438 -0.5010  0.2434 -1.4132
37470SOL     OW14788   7.095   2.080   8.597  0.9568  0.3131  0.1864
37470SOL    HW114789   7.105   2.170   8.566  0.3778 -0.1495 -1.4995
37470SOL    HW214790   7.016   2.049   8.553  2.5947 -1.8447 -1.4558
37471SOL     OW14791   0.412   6.352   9.811  0.1329 -0.4549  0.2623
37471SOL    HW114792   0.485   6.312   9.859  1.1634 -2.1227 -2.4234
37471SOL    HW214793   0.452   6.428   9.768 -0.2863 -0.0772  0.5416
37472SOL     OW14794   0.191   7.667   5.191  0.6006  0.0664 -0.9416
37472SOL    HW114795   0.170   7.577   5.214  2.6358 -0.4573 -0.9598
37472SOL    HW214796   0.177   7.717   5.272 -1.0113 -0.1490 -1.0673
37473SOL     OW14797   3.035   8.472  10.681 -0.2118 -0.4846  0.1495
37473SOL    HW114798   2.996   8.518  10.756  0.5806  2.5233 -1.1259
37473SOL    HW214799   3.125   8.505  10.677  0.9582 -3.4425  0.0153
37474SOL     OW14800   5.114   8.669   5.716 -0.0463 -0.2017  0.2481
37474SOL    HW114801   5.029   8.681   5.674 -0.1120 -1.2518  0.0485
37474SOL    HW214802   5.093   8.644   5.806  0.0476 -0.3256  0.2364
37475SOL     OW14803   6.038   0.794   5.912  0.0069  0.1504 -0.3149
37475SOL    HW114804   5.962   0.831   5.866 -0.1471  0.7213  0.3763
37475SOL    HW214805   6.114   0.834   5.870 -0.1648  1.4543  0.5619
37476SOL     OW14806  10.033   5.010   1.405  0.0320 -0.0725  0.3203
37476SOL    HW114807  10.116   4.967   1.384 -1.2237 -1.3950 -2.4737
37476SOL    HW214808  10.003   5.044   1.321 -1.7193  1.3898  1.4925
37477SOL     OW14809   2.189   4.723   8.084  0.1040 -0.0753 -0.5530
37477SOL    HW114810   2.254   4.721   8.154 -1.7900 -3.8018  1.4146
37477SOL    HW214811   2.238   4.699   8.005  1.6769  0.8097  0.0996
37478SOL     OW14812   2.825   8.716   9.246 -0.0956  0.3579 -0.0815
37478SOL    HW114813   2.825   8.661   9.325 -0.4024 -0.7885 -0.8509
37478SOL    HW214814   2.747   8.771   9.256 -0.3672 -0.0732  0.2287
37479SOL     OW14815   0.734   1.134   4.182  0.4625  0.3772 -0.5626
37479SOL    HW114816   0.741   1.045   4.145 -0.7019  0.2052 -0.4108
37479SOL    HW214817   0.821   1.152   4.217 -0.0258 -2.0720  2.4331
37480SOL     OW14818   7.345   4.692   4.369 -0.3254 -0.2440  0.2061
37480SOL    HW114819   7.434   4.662   4.391  0.6765  0.6392 -2.2401
37480SOL    HW214820   7.288   4.644   4.428  1.7496 -1.2356  1.5186
37481SOL     OW14821   6.702   2.244   5.863 -0.5137  0.1792 -0.3730
37481SOL    HW114822   6.757   2.179   5.819 -1.2257 -0.4748 -0.3230
37481SOL    HW214823   6.623   2.196   5.887 -1.0249  1.0480 -0.2656
37482SOL     OW14824   6.879   9.739   7.683 -0.5483 -0.2232 -0.3352
37482SOL    HW114825   6.899   9.677   7.613  2.3425 -0.6509  0.7214
37482SOL    HW214826   6.844   9.685   7.754 -1.4017 -0.1114 -0.6689
37483SOL     OW14827   8.505   4.139   1.076 -0.5515 -0.6869 -0.0043
37483SOL    HW114828   8.419   4.177   1.057 -0.5628  0.2853  1.7399
37483SOL    HW214829   8.532   4.181   1.158  2.0133 -0.2986 -0.9678
37484SOL     OW14830   4.349   8.315   6.240 -0.1347 -0.2276 -0.2770
37484SOL    HW114831   4.264   8.346   6.274 -0.0463 -0.9817  0.6623
37484SOL    HW214832   4.339   8.320   6.145 -0.0677  2.8180 -0.2274
37485SOL     OW14833   4.580   3.942   3.324 -0.1235  0.6836 -0.1080
37485SOL    HW114834   4.672   3.924   3.347 -0.2841 -0.4018 -0.2561
37485SOL    HW214835   4.546   3.857   3.296 -2.0286  0.3675  2.8097
37486SOL     OW14836   4.956   4.106   6.629 -0.5717 -0.7373 -0.1373
37486SOL    HW114837   4.991   4.169   6.692  1.0621 -2.1685  0.4667
37486SOL    HW214838   4.861   4.121   6.631 -0.4220  0.3121  1.4953
37487SOL     OW14839   1.016  10.191   1.230 -0.3955 -0.2290 -0.0989
37487SOL    HW114840   0.966  10.257   1.278  0.7581  0.1429  0.6235
37487SOL    HW214841   0.966  10.110   1.242 -0.1257 -0.1687  1.8003
37488SOL     OW14842   6.615   5.175   9.031  0.1478 -0.3625 -0.3005
37488SOL    HW114843   6.663   5.164   9.114  2.4080  0.4152 -1.4210
37488SOL    HW214844   6.525   5.151   9.053  0.7966 -0.8885  2.2041
37489SOL     OW14845  10.013   0.167   4.144 -0.2199 -0.0198  0.2669
37489SOL    HW114846  10.058   0.164   4.228  0.8629  0.0475 -0.2912
37489SOL    HW214847  10.049   0.245   4.101 -1.4839  0.5081  0.1247
37490SOL     OW14848   0.971   3.155   9.656 -0.0565 -1.1250  0.2900
37490SOL    HW114849   0.890   3.125   9.697 -0.8720  0.2558 -0.2424
37490SOL    HW214850   0.963   3.251   9.656  0.9243 -1.0280 -1.0882
37491SOL     OW14851   5.423   6.555   7.990 -0.5690 -0.4859 -0.2277
37491SOL    HW114852   5.401   6.468   8.022  0.5568 -0.3836  0.8936
37491SOL    HW214853   5.470   6.596   8.063 -0.7521  0.9205 -0.8755
37492SOL     OW14854   2.855   0.571   5.310  0.3858 -0.6146 -0.0690
37492SOL    HW114855   2.806   0.640   5.355  0.5939 -0.5429  0.0537
37492SOL    HW214856   2.894   0.615   5.234 -1.2530 -1.0851 -1.2355
37493SOL     OW14857   7.387   5.788   9.079 -0.3998 -0.6310  0.2953
37493SOL    HW114858   7.445   5.816   9.150 -0.9881  0.2806  0.4481
37493SOL    HW214859   7.312   5.748   9.124  0.1761 -1.9763  0.0949
37494SOL     OW14860   8.941   9.952   6.665 -0.0879 -0.4975  0.2250
37494SOL    HW114861   9.013  10.014   6.677  0.0468 -0.4017 -0.9069
37494SOL    HW214862   8.961   9.879   6.724  0.9683 -0.4933 -0.1065
37495SOL     OW14863   2.105   8.261   6.773 -0.4356 -0.3387  1.0134
37495SOL    HW114864   2.079   8.323   6.841  1.2193  0.5941  0.8474
37495SOL    HW214865   2.140   8.316   6.702  0.9004 -1.4388  0.7859
37496SOL     OW14866   5.254   8.584   4.650  0.2021  0.3273  0.0292
37496SOL    HW114867   5.216   8.592   4.563  0.7198  1.5972 -0.0909
37496SOL    HW214868   5.335   8.534   4.637  1.5956  2.6419 -0.6497
37497SOL     OW14869   7.775   6.251   8.926  0.1410 -0.3950 -0.1538
37497SOL    HW114870   7.827   6.256   9.006 -1.1121 -2.1824  0.8465
37497SOL    HW214871   7.742   6.339   8.913  2.5419  0.5593 -0.2761
37498SOL     OW14872  10.549   9.866   1.226 -0.0456 -0.1604 -0.2849
37498SOL    HW114873  10.577   9.951   1.193  1.1454 -0.2912  0.3433
37498SOL    HW214874  10.497   9.828   1.154  0.3189  0.6314 -0.9802
37499SOL     OW14875   5.853   7.288   2.506  0.3639  0.3977  0.4633
37499SOL    HW114876   5.813   7.240   2.579  0.5880 -1.0184 -0.3109
37499SOL    HW214877   5.802   7.369   2.500 -0.9195 -0.3419  0.9606
37500SOL     OW14878   3.038   3.689   7.899 -0.2270 -0.5596  0.0414
37500SOL    HW114879   3.017   3.665   7.990  0.3897 -3.5346 -0.4936
37500SOL    HW214880   3.117   3.743   7.906 -0.5416 -0.2234  1.2822
37501SOL     OW14881   4.764   1.520   1.358 -0.2197 -0.1158 -0.0068
37501SOL    HW114882   4.764   1.615   1.368  1.3579 -0.3370  4.0097
37501SOL    HW214883   4.815   1.503   1.279 -0.6046  2.3376 -0.8503
37502SOL     OW14884   6.562   9.518   1.020  0.7785 -0.1250  0.0090
37502SOL    HW114885   6.593   9.538   1.108  0.8182 -1.4269  0.3039
37502SOL    HW214886   6.547   9.604   0.980 -0.6775  0.5026  1.7709
37503SOL     OW14887   3.531  10.556   2.407 -0.4344 -0.5382 -0.0487
37503SOL    HW114888   3.575  10.531   2.488 -0.3407 -0.8123 -0.1825
37503SOL    HW214889   3.475  10.481   2.385 -0.8367 -0.2616  0.0262
37504SOL     OW14890   4.176   0.733   6.869 -0.0544 -0.0183  0.4285
37504SOL    HW114891   4.246   0.668   6.862 -2.4266 -2.7295 -0.3853
37504SOL    HW214892   4.095   0.681   6.861 -2.1732  2.8989  1.3040
37505SOL     OW14893   0.409   8.054  10.228  0.0500 -0.1095  0.2658
37505SOL    HW114894   0.407   8.149  10.242 -0.6523  0.0252 -0.6780
37505SOL    HW214895   0.464   8.043  10.150  2.3690 -0.7090  1.8649
37506SOL     OW14896   5.724   6.578   2.637 -1.0350  0.3853  0.1308
37506SOL    HW114897   5.652   6.641   2.640 -1.3046  0.1498 -1.0042
37506SOL    HW214898   5.708   6.527   2.557  0.1087  0.0017  0.1341
37507SOL     OW14899   6.139   6.234   4.639 -0.2411  0.1224 -0.2119
37507SOL    HW114900   6.151   6.174   4.565 -1.8451 -0.0554 -0.3446
37507SOL    HW214901   6.177   6.188   4.713  0.2531 -0.2311 -0.6740
37508SOL     OW14902   3.968   6.332   7.794  0.3565  0.2220 -0.8508
37508SOL    HW114903   3.950   6.422   7.766 -1.8716  0.1671  0.2235
37508SOL    HW214904   3.981   6.338   7.889 -2.2295 -0.8448 -0.3671
37509SOL     OW14905   5.795   3.794   3.868  0.3377 -0.3264 -0.4380
37509SOL    HW114906   5.837   3.790   3.783 -1.0262 -1.6021 -1.1108
37509SOL    HW214907   5.735   3.868   3.862 -2.0787 -2.2443 -1.8186
37510SOL     OW14908   0.860   7.157   3.055  0.1164 -0.0053  0.2873
37510SOL    HW114909   0.953   7.172   3.068 -0.1109  1.2000  0.6564
37510SOL    HW214910   0.832   7.226   2.996 -0.4326 -0.7227 -0.3069
37511SOL     OW14911   5.968   9.122   2.583 -0.5310 -0.1459  0.0371
37511SOL    HW114912   5.914   9.072   2.521 -1.8959 -0.9112  1.7553
37511SOL    HW214913   5.939   9.091   2.669  0.0120  2.1878  1.1185
37512SOL     OW14914   0.411   6.245   0.558  0.1186  0.1684 -0.1081
37512SOL    HW114915   0.485   6.247   0.497  0.3001  0.6120  0.1211
37512SOL    HW214916   0.337   6.277   0.506 -0.0562 -0.8424 -0.5115
37513SOL     OW14917   0.720  10.092   9.156  0.1274  0.5575  0.1132
37513SOL    HW114918   0.644  10.151   9.152  0.1910  0.7778  1.6935
37513SOL    HW214919   0.731  10.063   9.066 -1.0233  1.5541 -0.3903
37514SOL     OW14920  10.694   7.080   7.268  0.0575 -0.3689  0.1936
37514SOL    HW114921  10.669   7.166   7.300  0.9898  1.1283 -2.7177
37514SOL    HW214922  10.773   7.058   7.316  1.1371  1.5232 -0.6105
37515SOL     OW14923   3.815   8.744   6.157 -0.1607  0.2926 -0.6660
37515SOL    HW114924   3.795   8.744   6.250  0.2756  2.3011 -0.5262
37515SOL    HW214925   3.856   8.660   6.141  0.4493  0.2090  1.1163
37516SOL     OW14926   4.657   9.647   0.869  0.0357 -0.5231  0.1850
37516SOL    HW114927   4.750   9.628   0.856 -0.1112 -0.3537 -1.2075
37516SOL    HW214928   4.613   9.605   0.795 -0.9888 -0.4357  0.7246
37517SOL     OW14929   3.557   9.511   4.154 -0.1748  0.0699  0.3479
37517SOL    HW114930   3.592   9.592   4.117 -1.0365  0.3004  0.0117
37517SOL    HW214931   3.514   9.538   4.235 -1.8899  0.2370 -0.5762
37518SOL     OW14932   9.131   0.692   0.234  0.3053  0.0545 -0.4329
37518SOL    HW114933   9.051   0.682   0.285 -0.1114 -1.6374 -1.3476
37518SOL    HW214934   9.143   0.787   0.226  0.8334  0.4575  3.3910
37519SOL     OW14935   6.056   9.643   9.670 -0.1347  0.0263  0.1142
37519SOL    HW114936   6.113   9.582   9.717  0.6530 -0.6503 -1.6122
37519SOL    HW214937   6.086   9.730   9.695  1.6032 -0.3194 -0.6200
37520SOL     OW14938   3.633   5.309   0.354 -0.0812 -0.2929 -0.1989
37520SOL    HW114939   3.551   5.282   0.313 -0.8283  0.7570  0.5377
37520SOL    HW214940   3.670   5.373   0.294 -0.4793  0.2200  0.0963
37521SOL     OW14941   4.281   0.652   2.011 -0.5692 -0.0925 -0.3401
37521SOL    HW114942   4.276   0.565   1.972 -0.9446  0.7089 -2.2319
37521SOL    HW214943   4.284   0.637   2.105 -1.2417 -2.1199 -0.5981
37522SOL     OW14944   0.062   0.560   9.129  0.0195  0.5911  0.0950
37522SOL    HW114945   0.038   0.576   9.038  0.0669  0.5449  0.0742
37522SOL    HW214946   0.072   0.464   9.135 -0.7131  0.5225  0.3249
37523SOL     OW14947   5.935   4.717   6.306  0.3697  0.0533  0.1114
37523SOL    HW114948   5.870   4.681   6.245  0.0192  1.5560 -0.4540
37523SOL    HW214949   5.996   4.645   6.320  0.0836 -0.5627 -1.5053
37524SOL     OW14950   6.512  10.679   6.592  0.1428  0.4458  0.9730
37524SOL    HW114951   6.509  10.608   6.528  0.4099 -0.4528  1.9338
37524SOL    HW214952   6.591  10.729   6.569 -0.2081  0.6178  0.1156
37525SOL     OW14953   3.022  10.336   2.666 -0.8727  0.5134  0.0125
37525SOL    HW114954   3.082  10.385   2.722  0.5612 -2.1280  0.9493
37525SOL    HW214955   2.935  10.361   2.697 -0.2033  1.9207  0.8642
37526SOL     OW14956  10.108   7.523   9.810 -0.4274 -0.2919 -0.3394
37526SOL    HW114957  10.039   7.537   9.875 -0.5810  1.5883 -0.8391
37526SOL    HW214958  10.083   7.579   9.737  1.1699 -0.2468 -0.8866
37527SOL     OW14959   8.550   8.667   9.990  0.0398  0.6121 -0.4139
37527SOL    HW114960   8.503   8.615  10.055 -2.3939  2.0416 -0.8758
37527SOL    HW214961   8.602   8.604   9.941 -1.4134 -1.1375  0.1789
37528SOL     OW14962   5.479  10.233   5.453 -0.3425  0.5531 -0.4311
37528SOL    HW114963   5.555  10.224   5.395  0.0672  0.1277  0.1662
37528SOL    HW214964   5.405  10.243   5.393  0.3406  2.5556 -1.0449
37529SOL     OW14965   4.391   8.140  10.451 -0.1758  0.2491 -0.1216
37529SOL    HW114966   4.394   8.184  10.366 -1.6019 -1.2396 -0.9898
37529SOL    HW214967   4.340   8.200  10.506 -2.1857 -0.2626 -1.3128
37530SOL     OW14968   7.822   2.641   1.805 -0.2508 -0.1983 -0.6917
37530SOL    HW114969   7.894   2.578   1.803 -0.8963 -0.9884 -0.1063
37530SOL    HW214970   7.847   2.709   1.743  1.6303  0.2596  0.5242
37531SOL     OW14971   9.115   0.978   6.168 -0.0618  0.6665 -0.7218
37531SOL    HW114972   9.169   0.900   6.183  0.3861  0.9110 -1.0452
37531SOL    HW214973   9.100   1.014   6.255  0.6970  0.8642 -0.6738
37532SOL     OW14974   3.939   4.597  10.533  0.1506  0.3799  0.0536
37532SOL    HW114975   3.895   4.628  10.454 -1.8397 -1.8809  0.1728
37532SOL    HW214976   3.880   4.531  10.569  2.0410 -0.2468  2.2350
37533SOL     OW14977   8.000   5.605   6.636 -0.0816 -0.2697  0.0009
37533SOL    HW114978   8.054   5.605   6.714  1.5520 -0.1799 -1.0683
37533SOL    HW214979   7.946   5.527   6.644  1.0463 -1.0220  0.5803
37534SOL     OW14980   1.891   0.109   9.719  0.1780 -0.2630 -0.2790
37534SOL    HW114981   1.841   0.032   9.693  0.1037 -0.0554 -0.7742
37534SOL    HW214982   1.928   0.087   9.804 -0.3766 -0.5998 -0.1180
37535SOL     OW14983   0.085   4.194   3.244  0.5460  0.4213 -0.0455
37535SOL    HW114984   0.154   4.134   3.272  0.0794  1.2917  3.3598
37535SOL    HW214985   0.007   4.139   3.238  0.9376 -0.0492 -1.2654
37536SOL     OW14986   1.590   5.552   3.196  0.2816  0.2332  0.2624
37536SOL    HW114987   1.530   5.613   3.155  0.2238 -0.7465 -1.1843
37536SOL    HW214988   1.675   5.595   3.193  0.3444  0.0585 -1.2494
37537SOL     OW14989   6.737   8.542   1.097 -0.1670  0.3150  0.2089
37537SOL    HW114990   6.743   8.448   1.116 -2.2026 -0.2592 -1.5882
37537SOL    HW214991   6.817   8.561   1.048 -0.0468 -0.6477 -0.0007
37538SOL     OW14992   7.028   4.702   2.088  0.2450 -0.1152 -0.1954
37538SOL    HW114993   7.110   4.715   2.137  0.1218 -0.7441  0.1805
37538SOL    HW214994   6.966   4.668   2.153  0.8453 -3.6643 -1.2875
37539SOL     OW14995   0.763   4.220   0.346  0.1490  0.3716  0.6838
37539SOL    HW114996   0.843   4.172   0.368  1.0675  1.8714  0.7881
37539SOL    HW214997   0.749   4.202   0.253 -1.3718 -2.6171  1.3730
37540SOL     OW14998   9.078   8.340   3.409 -0.0719  0.2605 -0.5345
37540SOL    HW114999   8.996   8.388   3.397  0.3814  1.1183 -0.3215
37540SOL    HW215000   9.061   8.280   3.481 -0.7832 -0.2227 -1.0880
37541SOL     OW15001   9.571   3.733   0.880 -0.4995  0.3203  0.0392
37541SOL    HW115002   9.529   3.652   0.851 -1.1547  0.7583 -0.2711
37541SOL    HW215003   9.614   3.711   0.962  0.7744 -0.7715 -0.8843
37542SOL     OW15004   7.393   2.305   9.512  0.6574 -0.0059 -0.2913
37542SOL    HW115005   7.345   2.225   9.487 -0.4336  0.6491 -0.3498
37542SOL    HW215006   7.473   2.302   9.458 -0.3525 -0.0223 -1.8601
37543SOL     OW15007   9.455   3.009   6.893 -0.2694  0.1146  0.4209
37543SOL    HW115008   9.484   2.961   6.815  1.2921 -0.4600  1.3237
37543SOL    HW215009   9.490   2.960   6.967  0.1487  1.8223  1.4230
37544SOL     OW15010   5.845   1.742   5.583 -0.4440  0.4886  0.5945
37544SOL    HW115011   5.751   1.731   5.595 -0.6548 -1.0696 -1.6813
37544SOL    HW215012   5.884   1.716   5.666 -1.8797 -3.2818  0.3038
37545SOL     OW15013   3.771   5.920  10.361  0.2836  0.0715  0.4253
37545SOL    HW115014   3.801   5.876  10.282  0.0088  0.5079  0.0761
37545SOL    HW215015   3.745   6.007  10.332  2.1093  0.9797  1.3197
37546SOL     OW15016   6.129   7.887   2.930 -0.0855  0.1149  0.8859
37546SOL    HW115017   6.173   7.958   2.883 -0.6450  0.8268  1.3964
37546SOL    HW215018   6.113   7.820   2.864  0.8910  0.2508  0.4925
37547SOL     OW15019   6.746   1.791   0.626  0.3794 -0.4445  0.0330
37547SOL    HW115020   6.799   1.871   0.625 -0.0062 -0.1864  0.0509
37547SOL    HW215021   6.729   1.773   0.533 -1.1808  0.6079  0.0758
37548SOL     OW15022   7.352   9.057   8.295  0.4570  0.0253 -0.3060
37548SOL    HW115023   7.334   8.963   8.295 -0.2011  0.1448 -0.4844
37548SOL    HW215024   7.273   9.096   8.332  2.0106  0.2900  3.1520
37549SOL     OW15025   9.342   3.534   6.672  0.0646 -0.6840 -0.1516
37549SOL    HW115026   9.263   3.576   6.639  0.7704  0.7972 -0.0274
37549SOL    HW215027   9.326   3.523   6.766  0.8740  1.8081  0.3559
37550SOL     OW15028  10.545   0.185   2.617  0.0988 -0.0941 -0.2371
37550SOL    HW115029  10.579   0.102   2.651  1.3131  0.9342  1.1922
37550SOL    HW215030  10.455   0.189   2.648 -0.6958 -1.8023 -2.1162
37551SOL     OW15031   4.122   4.957   7.364  0.6035 -0.1722  0.3953
37551SOL    HW115032   4.032   4.989   7.365  1.2677  1.7989  1.1123
37551SOL    HW215033   4.114   4.862   7.375 -1.3503  0.0587  1.3629
37552SOL     OW15034   4.489   8.516   5.846 -0.1248  0.0211  0.4691
37552SOL    HW115035   4.557   8.561   5.895  1.0292 -0.6236 -0.4787
37552SOL    HW215036   4.428   8.484   5.913 -0.3260  1.8646  1.2352
37553SOL     OW15037   2.518   1.426   1.687  0.0631 -0.1543  0.2972
37553SOL    HW115038   2.497   1.333   1.685  0.0510 -0.1431 -0.3117
37553SOL    HW215039   2.494   1.458   1.600  0.9054  0.2273  0.1907
37554SOL     OW15040   8.091   3.146   1.884  0.1090 -0.3789 -0.4765
37554SOL    HW115041   8.184   3.164   1.876 -0.1197  0.6346 -1.0364
37554SOL    HW215042   8.049   3.212   1.830 -0.9263 -1.0194 -0.4839
37555SOL     OW15043   4.505   3.053   4.662 -0.0289  0.3415  0.0390
37555SOL    HW115044   4.542   3.127   4.613 -1.0761  0.8435 -0.0361
37555SOL    HW215045   4.549   3.055   4.746  1.2068 -0.0290 -0.5791
37556SOL     OW15046   7.699   9.265   7.705  0.1863 -0.0738  0.0291
37556SOL    HW115047   7.607   9.249   7.683 -0.0535 -1.3280  1.6775
37556SOL    HW215048   7.718   9.352   7.671 -1.9323  0.6370  0.5270
37557SOL     OW15049   7.755   7.500   1.341  0.0519  0.4080 -0.0569
37557SOL    HW115050   7.793   7.426   1.388 -1.6653 -0.3974  0.1142
37557SOL    HW215051   7.736   7.564   1.409 -0.7288 -0.0042  0.1170
37558SOL     OW15052   9.055   0.458   5.226 -0.6099  0.5368  0.0016
37558SOL    HW115053   9.065   0.495   5.314 -2.1856 -0.7731  0.7917
37558SOL    HW215054   9.035   0.534   5.171 -1.3941  1.1942  1.1274
37559SOL     OW15055   1.361   7.148   3.767 -0.0792 -0.2329 -0.1708
37559SOL    HW115056   1.353   7.240   3.746 -2.4634 -0.7489 -1.8818
37559SOL    HW215057   1.272   7.114   3.765  0.7277 -2.6221  0.2569
37560SOL     OW15058   6.457   6.413  10.417  0.5401 -0.4202  0.0482
37560SOL    HW115059   6.504   6.395  10.498  1.3770  1.3762  0.0078
37560SOL    HW215060   6.503   6.361  10.351  0.3941 -1.2185  0.5575
37561SOL     OW15061   4.734   6.853   9.056  0.3410 -0.4410  0.4575
37561SOL    HW115062   4.707   6.941   9.082 -0.9889 -0.9289  0.7918
37561SOL    HW215063   4.735   6.855   8.961  0.3605 -0.0450  0.4670
37562SOL     OW15064   4.371   3.379   8.689  0.1318  0.2342 -0.2186
37562SOL    HW115065   4.372   3.285   8.710  0.9155  0.2396 -0.1749
37562SOL    HW215066   4.444   3.415   8.741  0.6856  0.6326 -1.2429
37563SOL     OW15067   8.879  10.016   7.599 -0.3342  0.0938 -0.3210
37563SOL    HW115068   8.954  10.015   7.540 -1.9468 -1.8133 -2.5197
37563SOL    HW215069   8.815   9.959   7.557 -2.3526  0.2151  2.3552
37564SOL     OW15070   6.085   2.197   8.953 -0.2320  0.0166  0.0794
37564SOL    HW115071   6.065   2.107   8.927  1.3228 -0.3309  0.0014
37564SOL    HW215072   6.051   2.250   8.881 -2.6648 -0.3276  0.8893
37565SOL     OW15073   9.894   7.048   9.013  0.1877  0.2747 -0.5329
37565SOL    HW115074   9.922   7.129   8.971 -0.8454 -0.2914 -2.4246
37565SOL    HW215075   9.973   7.017   9.058  0.6381  2.2357  0.1619
37566SOL     OW15076   0.957   4.287   1.553  0.1286  0.0631 -0.0474
37566SOL    HW115077   0.864   4.309   1.555  0.2573  0.5949  2.2111
37566SOL    HW215078   0.981   4.296   1.460 -2.2751 -1.1468 -0.8902
37567SOL     OW15079   5.542   4.354   0.065 -0.7123  0.2318 -0.6900
37567SOL    HW115080   5.498   4.375   0.147 -0.1882 -0.6101 -0.1878
37567SOL    HW215081   5.519   4.263   0.048  2.6017 -1.0397  0.7862
37568SOL     OW15082   9.179  10.421   9.255 -0.6861 -0.1024  0.1667
37568SOL    HW115083   9.173  10.436   9.161  0.0534  2.1888  0.4204
37568SOL    HW215084   9.247  10.354   9.265 -0.8803 -0.4729 -0.9122
37569SOL     OW15085   0.383   3.006   8.677  0.4302  1.1238  0.2525
37569SOL    HW115086   0.396   2.912   8.695 -0.6730  1.0525  0.7612
37569SOL    HW215087   0.308   3.030   8.731 -0.7929  1.7554 -1.6494
37570SOL     OW15088   0.914   3.172   4.667 -0.4936 -0.7393 -0.1658
37570SOL    HW115089   0.994   3.122   4.686  0.5232  0.8020 -0.2219
37570SOL    HW215090   0.905   3.167   4.571  0.5543  0.5023 -0.3624
37571SOL     OW15091   9.006   6.287   3.267  1.1048  0.6814  0.9584
37571SOL    HW115092   8.955   6.237   3.331  1.6244  0.3748  1.1385
37571SOL    HW215093   8.995   6.239   3.185 -1.8203  2.5467  0.1112
37572SOL     OW15094   2.291   0.528   4.408  0.4124 -0.3599  0.2638
37572SOL    HW115095   2.285   0.528   4.312  1.1289  0.3652  0.2134
37572SOL    HW215096   2.379   0.561   4.427 -0.5190  1.7220  1.2209
37573SOL     OW15097   8.455   9.849   3.094 -0.3714 -0.0465 -0.8455
37573SOL    HW115098   8.527   9.900   3.058 -0.3638  0.3859 -0.2247
37573SOL    HW215099   8.377   9.882   3.049 -0.4839  1.1398  0.1796
37574SOL     OW15100   6.763   2.845   1.433 -0.3520 -0.0037  0.2845
37574SOL    HW115101   6.772   2.869   1.341 -1.1536  0.5929  0.3530
37574SOL    HW215102   6.822   2.771   1.444 -1.5034 -1.2135 -1.1408
37575SOL     OW15103   4.803   7.374   5.566 -0.1381 -0.6782  0.6435
37575SOL    HW115104   4.710   7.352   5.560 -0.3813  0.6097 -0.6600
37575SOL    HW215105   4.846   7.289   5.577 -1.3877 -1.3984  0.2279
37576SOL     OW15106  10.608   0.729   2.795  0.0199  0.2863  0.8015
37576SOL    HW115107  10.522   0.738   2.756 -0.5749 -2.1921  1.3283
37576SOL    HW215108  10.633   0.817   2.822 -2.3902  1.0487  0.7151
37577SOL     OW15109   4.785   4.606   7.288  0.4240  0.3757 -0.1745
37577SOL    HW115110   4.814   4.597   7.379  0.9552 -1.2750 -0.4766
37577SOL    HW215111   4.706   4.659   7.294 -0.7353 -1.3635  1.5275
37578SOL     OW15112   6.561   4.541   4.039 -0.1926 -0.3823 -0.2448
37578SOL    HW115113   6.534   4.613   4.095 -0.3852 -1.4965  1.1406
37578SOL    HW215114   6.657   4.538   4.049 -0.3448 -1.4845  1.2274
37579SOL     OW15115   3.688   2.004   4.779  0.6822 -0.5005 -0.0397
37579SOL    HW115116   3.670   1.930   4.721 -0.8375  0.9989 -1.6064
37579SOL    HW215117   3.727   2.070   4.721 -0.2840  0.8192  0.7681
37580SOL     OW15118   6.006   3.380   4.092  0.2135 -0.4306  0.0156
37580SOL    HW115119   5.986   3.310   4.154  0.9329 -0.3283  0.3711
37580SOL    HW215120   6.086   3.350   4.048  0.0680 -0.2052 -0.4137
37581SOL     OW15121   7.153   2.172   9.916 -0.0620  0.6905 -0.0336
37581SOL    HW115122   7.088   2.185   9.984 -0.2329 -0.7189  0.0997
37581SOL    HW215123   7.130   2.088   9.876  0.7562  0.9107 -1.0241
37582SOL     OW15124   8.146   2.802   3.728  0.1116  0.6497  0.5979
37582SOL    HW115125   8.194   2.863   3.672 -1.7343  0.6474 -1.0911
37582SOL    HW215126   8.175   2.716   3.700  2.3728  0.6248  2.6703
37583SOL     OW15127   5.824   2.979   6.324  0.3593  0.3575  0.3603
37583SOL    HW115128   5.765   3.049   6.352  0.7266  1.0083 -0.4554
37583SOL    HW215129   5.794   2.954   6.237  1.8927  1.4409 -0.5316
37584SOL     OW15130   7.929   3.287   0.234  0.1591 -0.0359  0.1249
37584SOL    HW115131   7.967   3.205   0.264  2.7456  1.7397  2.2671
37584SOL    HW215132   7.851   3.299   0.290  2.8017  1.3685  3.9811
37585SOL     OW15133   8.502   0.947   3.660  0.5001  0.7046 -0.1240
37585SOL    HW115134   8.540   0.864   3.632 -0.4634  0.2924 -0.2425
37585SOL    HW215135   8.570   1.012   3.641  0.3519  0.2841 -2.3285
37586SOL     OW15136   4.670   0.895   7.711  0.0564  0.1562 -0.0602
37586SOL    HW115137   4.732   0.957   7.749  0.1897  0.2806 -0.4727
37586SOL    HW215138   4.708   0.809   7.727 -0.0267  0.1924  0.3299
37587SOL     OW15139   6.717   2.617   8.082  0.0839  0.2541  0.1866
37587SOL    HW115140   6.764   2.659   8.154  2.7804 -1.7062 -0.2833
37587SOL    HW215141   6.765   2.643   8.004 -0.0381 -1.2195 -0.4098
37588SOL     OW15142   8.116   5.881   3.128 -0.2525 -0.4295  0.1667
37588SOL    HW115143   8.063   5.813   3.169 -2.9308  0.9295 -0.8195
37588SOL    HW215144   8.106   5.866   3.034 -0.3276  0.8775 -0.0547
37589SOL     OW15145   9.010   1.306   1.005 -0.6489 -0.7206  0.0904
37589SOL    HW115146   9.034   1.338   0.918 -0.2870 -0.5151  0.2670
37589SOL    HW215147   9.086   1.258   1.036 -1.0176 -1.3539  0.0260
37590SOL     OW15148   7.875   4.793   7.240  0.1984  0.3295  0.2183
37590SOL    HW115149   7.873   4.698   7.252 -1.8005  0.4926  1.6777
37590SOL    HW215150   7.838   4.806   7.152 -0.6280 -0.2205  0.4660
37591SOL     OW15151   9.793  10.405   3.336 -0.1043 -0.2981 -0.7161
37591SOL    HW115152   9.706  10.373   3.360  0.2912 -1.1443 -0.3803
37591SOL    HW215153   9.840  10.413   3.419  0.0925  0.2932 -0.8837
37592SOL     OW15154   4.439   4.085  10.058 -0.2434  0.4954  0.4977
37592SOL    HW115155   4.347   4.083  10.084 -0.0071  2.7604  1.7649
37592SOL    HW215156   4.487   4.079  10.141  0.9127 -2.8368 -0.2486
37593SOL     OW15157   3.977   7.975   7.935 -0.2896 -0.2803 -0.0361
37593SOL    HW115158   4.042   8.039   7.964 -0.5867 -0.0009  0.0168
37593SOL    HW215159   3.967   7.991   7.841 -1.4411  0.7461  0.2329
37594SOL     OW15160  10.491   3.381   9.600  0.2737  0.5928  0.1807
37594SOL    HW115161  10.426   3.409   9.536  0.9687  2.1517  0.1221
37594SOL    HW215162  10.440   3.355   9.677 -0.4270  1.6803  0.0974
37595SOL     OW15163   8.222   4.697   7.514 -0.5269 -0.0738  0.4465
37595SOL    HW115164   8.231   4.733   7.602  0.3401 -2.4188  1.4076
37595SOL    HW215165   8.173   4.763   7.465  0.5122  2.0674  2.1726
37596SOL     OW15166   1.415   9.133   4.269  0.3751  0.2845 -0.2955
37596SOL    HW115167   1.390   9.194   4.338  0.8125  0.8282 -0.6059
37596SOL    HW215168   1.340   9.131   4.210  0.0380 -0.1107  0.1419
37597SOL     OW15169   2.982   1.120   5.917 -0.0042 -0.5699 -0.4355
37597SOL    HW115170   3.035   1.138   5.995  0.3500 -0.3319 -0.7318
37597SOL    HW215171   3.036   1.149   5.844 -0.1581 -1.1830 -0.8023
37598SOL     OW15172   7.321   7.693   8.024 -0.3024 -0.4087  0.3546
37598SOL    HW115173   7.253   7.660   7.965 -0.0648 -0.6041  0.1908
37598SOL    HW215174   7.360   7.767   7.977  0.5148 -1.1430 -0.1330
37599SOL     OW15175   9.566   5.096  10.342 -0.3047 -0.1397 -0.4604
37599SOL    HW115176   9.482   5.142  10.343 -0.4767 -0.3761 -1.8982
37599SOL    HW215177   9.631   5.163  10.364 -0.5365  0.9035 -2.6741
37600SOL     OW15178   0.941   6.503   8.887 -0.1290 -0.1726 -0.2206
37600SOL    HW115179   0.989   6.473   8.810 -0.1918  0.8510 -0.6764
37600SOL    HW215180   0.873   6.561   8.852  0.0973  0.6358  0.6240
37601SOL     OW15181   4.165   9.882   3.238  0.5523  0.4345 -0.0559
37601SOL    HW115182   4.123   9.796   3.237 -1.0233  1.1613 -0.3332
37601SOL    HW215183   4.114   9.932   3.302  2.1232  0.8554  0.9061
37602SOL     OW15184   6.643   2.309   0.164 -0.0185  0.4022  0.4206
37602SOL    HW115185   6.577   2.241   0.160 -2.0943  2.2511  1.1836
37602SOL    HW215186   6.674   2.319   0.074 -0.1213 -1.0842  0.2004
37603SOL     OW15187   8.371   5.885   1.848 -0.7444  0.0198 -0.5518
37603SOL    HW115188   8.314   5.894   1.925  0.0384 -1.1961  0.2132
37603SOL    HW215189   8.433   5.957   1.857 -0.6163 -0.1521  0.0075
37604SOL     OW15190   8.382   8.112   7.200 -0.0391 -0.0329  0.0942
37604SOL    HW115191   8.364   8.194   7.154 -1.2851 -1.4356 -2.0679
37604SOL    HW215192   8.473   8.121   7.230  1.5754  0.3765 -4.2259
37605SOL     OW15193   3.999  10.102   7.849  0.1300 -0.4994 -0.5940
37605SOL    HW115194   4.042  10.144   7.923  1.1169  0.0652 -1.4558
37605SOL    HW215195   3.929  10.050   7.888 -0.5961  1.2810  0.5710
37606SOL     OW15196  10.719   6.734  10.519  0.5246  0.2369 -0.3736
37606SOL    HW115197  10.713   6.708  10.427  0.8906 -1.7276  0.1034
37606SOL    HW215198  10.798   6.788  10.524  1.0845 -0.4886 -1.0515
37607SOL     OW15199   5.736   2.885   1.659 -0.3761  0.0327  0.7140
37607SOL    HW115200   5.659   2.856   1.709 -0.5996  2.2799  1.8039
37607SOL    HW215201   5.806   2.888   1.724  0.2455 -0.3834  0.0819
37608SOL     OW15202   1.353   3.507   4.023  0.2729  0.0269 -0.6278
37608SOL    HW115203   1.285   3.510   3.955 -1.3541 -0.8571  0.8680
37608SOL    HW215204   1.368   3.599   4.045 -0.6154  0.2388 -0.8409
37609SOL     OW15205   3.265   5.258   6.499  0.5031  0.2397  0.4963
37609SOL    HW115206   3.231   5.198   6.565  1.1392  0.1178  0.7291
37609SOL    HW215207   3.343   5.296   6.540 -1.0991  2.9269  1.2423
37610SOL     OW15208   9.594  10.085   3.847 -0.2292  0.3835 -0.1339
37610SOL    HW115209   9.598  10.180   3.831 -0.1063  0.5467  0.7901
37610SOL    HW215210   9.655  10.048   3.783 -0.1116  0.9488 -0.3637
37611SOL     OW15211   5.321   8.666   7.845 -0.2084  0.1997  0.1471
37611SOL    HW115212   5.262   8.710   7.784 -0.9069 -1.4533 -0.4310
37611SOL    HW215213   5.320   8.721   7.923 -1.8855  0.6560 -0.1485
37612SOL     OW15214   7.229   8.024   2.025  0.0936  0.8415  0.2499
37612SOL    HW115215   7.177   8.034   2.105  0.4485 -1.2658  0.8086
37612SOL    HW215216   7.177   7.965   1.970  0.3660  1.3960 -0.6169
37613SOL     OW15217   1.670   5.549   8.875  0.2581  0.4940 -0.4338
37613SOL    HW115218   1.745   5.584   8.826  0.5616 -1.7960 -1.7166
37613SOL    HW215219   1.594   5.571   8.822 -0.1322  3.1464  1.0490
37614SOL     OW15220   1.071   0.304   9.658  0.0076 -0.0267 -0.1938
37614SOL    HW115221   1.078   0.303   9.753 -1.8843 -0.8070  0.0012
37614SOL    HW215222   0.976   0.300   9.641  0.2037  1.7930 -2.1125
37615SOL     OW15223   2.732   2.161   4.164  0.3802 -0.4016  0.0456
37615SOL    HW115224   2.766   2.205   4.242  2.9570 -2.2833  0.1445
37615SOL    HW215225   2.739   2.226   4.094 -0.7831  0.9129  1.0938
37616SOL     OW15226   4.760   1.836   3.010  0.1097  0.2831  0.5065
37616SOL    HW115227   4.717   1.898   3.069 -0.4619  1.4106 -1.0556
37616SOL    HW215228   4.688   1.795   2.962  0.5070 -1.2919  1.1837
37617SOL     OW15229   2.390   3.029   4.758 -0.3719  0.0389 -0.0940
37617SOL    HW115230   2.395   3.010   4.664 -0.7787 -1.3015  0.1302
37617SOL    HW215231   2.319   2.974   4.790  0.3129 -0.1674  1.1513
37618SOL     OW15232   0.441   9.454   4.698 -0.1377  0.2940  0.0520
37618SOL    HW115233   0.477   9.392   4.634  0.7791  1.6251 -0.7921
37618SOL    HW215234   0.347   9.449   4.686  0.0230  2.1810 -3.1787
37619SOL     OW15235  10.636   0.420   2.887  0.3595  0.4011  0.3835
37619SOL    HW115236  10.608   0.362   2.958  0.3916  0.0844  0.1358
37619SOL    HW215237  10.563   0.479   2.874  0.1811  0.1799  0.3819
37620SOL     OW15238   7.827   9.554   1.943 -0.3375  0.7030  0.0159
37620SOL    HW115239   7.856   9.472   1.902 -0.0105  1.1393 -0.6379
37620SOL    HW215240   7.895   9.574   2.007  0.9883  1.8295 -1.6523
37621SOL     OW15241   8.008   0.596   2.259 -0.2875  0.4211  0.0438
37621SOL    HW115242   8.061   0.657   2.207  0.6733  0.9588  1.5798
37621SOL    HW215243   7.959   0.546   2.194  0.3418  1.5227 -1.3439
37622SOL     OW15244   1.050   6.224   1.455  0.3549  0.0442 -0.2584
37622SOL    HW115245   0.957   6.207   1.469  0.8095 -1.3214  1.5103
37622SOL    HW215246   1.088   6.137   1.440  1.6195  0.3309  1.0353
37623SOL     OW15247   6.678   1.320   6.912  0.2019  0.1178 -0.2467
37623SOL    HW115248   6.681   1.336   7.006 -0.6717 -0.9500 -0.0223
37623SOL    HW215249   6.751   1.260   6.896  1.0687  1.1950 -0.4591
37624SOL     OW15250   7.712   7.238   2.331  0.0107  0.0303 -0.3802
37624SOL    HW115251   7.797   7.223   2.290  0.6862  0.0307  0.9589
37624SOL    HW215252   7.653   7.177   2.287  1.0587 -1.1265 -0.2302
37625SOL     OW15253   2.167   2.127   5.541 -0.0802 -0.4796  0.0569
37625SOL    HW115254   2.222   2.191   5.495 -0.7871 -0.2769 -0.5348
37625SOL    HW215255   2.093   2.178   5.574 -1.1227 -1.1030 -1.1993
37626SOL     OW15256  10.003   2.890   0.578 -0.1131  0.5892 -0.1350
37626SOL    HW115257   9.980   2.851   0.494 -0.0970  1.6755 -0.6550
37626SOL    HW215258   9.996   2.818   0.640  0.0235 -0.2680 -1.0868
37627SOL     OW15259   9.871   9.619   7.136 -0.1878  0.3440  0.5602
37627SOL    HW115260   9.891   9.595   7.046  0.1269  0.4740  0.5939
37627SOL    HW215261   9.955   9.610   7.182 -0.2407  0.7568  0.7353
37628SOL     OW15262   9.856   9.858   7.752  0.2534  0.4480 -0.1990
37628SOL    HW115263   9.941   9.853   7.795  0.2351 -0.3523 -0.2497
37628SOL    HW215264   9.873   9.833   7.661 -0.1604 -0.4525 -0.0326
37629SOL     OW15265   9.486   2.516   6.366 -0.3611 -0.3963  0.1105
37629SOL    HW115266   9.423   2.565   6.313  2.1536  2.4029 -0.5318
37629SOL    HW215267   9.525   2.453   6.305  0.6889  1.0677 -0.8074
37630SOL     OW15268  10.255   1.936   7.785  0.5832  0.0038  0.1479
37630SOL    HW115269  10.291   1.915   7.872 -0.5180  0.3919  0.7109
37630SOL    HW215270  10.321   1.992   7.745  1.1119 -0.1883  0.7311
37631SOL     OW15271   9.271   7.979   7.008 -0.3909  0.6942  0.3684
37631SOL    HW115272   9.316   8.059   7.033  2.1243 -0.6019  0.2363
37631SOL    HW215273   9.306   7.912   7.066 -1.3070 -0.6239 -0.5264
37632SOL     OW15274   8.220   6.546  10.010 -0.3162 -0.1601 -0.3248
37632SOL    HW115275   8.211   6.452  10.025  1.1470  0.0620  2.7042
37632SOL    HW215276   8.131   6.578   9.999 -0.9832 -1.6320  0.5685
37633SOL     OW15277   6.125   4.006   2.330 -0.2485 -0.0183  0.2651
37633SOL    HW115278   6.166   3.986   2.415 -0.7863 -1.2212  0.2682
37633SOL    HW215279   6.186   3.971   2.265  0.1720  0.9208  0.1419
37634SOL     OW15280   3.180   7.005   5.781  0.1775 -0.2753  0.7602
37634SOL    HW115281   3.218   7.041   5.861 -0.7599  0.3696  0.9295
37634SOL    HW215282   3.096   6.968   5.808 -0.5580  0.7285 -0.0453
37635SOL     OW15283   7.955   0.339   8.996 -0.0437  0.0056 -0.3646
37635SOL    HW115284   7.947   0.354   8.901  1.2139  0.7428 -0.3802
37635SOL    HW215285   7.947   0.245   9.006 -0.0114 -0.1002 -1.2333
37636SOL     OW15286   2.902   6.321   9.858  0.1745 -0.2480 -0.2580
37636SOL    HW115287   2.928   6.320   9.950 -0.1057  1.6238 -0.1218
37636SOL    HW215288   2.816   6.365   9.858  0.4406  0.3220 -1.4653
37637SOL     OW15289   2.295   0.016   5.688 -0.0634  0.1922  0.3441
37637SOL    HW115290   2.264  -0.043   5.619  1.5684 -1.6984  1.1577
37637SOL    HW215291   2.355   0.076   5.642 -2.1758  1.7201 -0.5941
37638SOL     OW15292   6.410   0.280   5.648  0.2094  0.1267  0.0009
37638SOL    HW115293   6.428   0.194   5.611 -2.7259 -1.2601  1.4694
37638SOL    HW215294   6.463   0.284   5.727 -0.2114 -0.7143  0.3403
37639SOL     OW15295   1.045   9.981   6.669  0.5040 -0.3069 -0.7008
37639SOL    HW115296   0.954  10.007   6.685  0.5543  0.1249 -1.1140
37639SOL    HW215297   1.039   9.887   6.653  0.1195 -0.2735 -0.7829
37640SOL     OW15298   3.850   2.459   5.654  0.3963 -0.1027  0.0554
37640SOL    HW115299   3.885   2.448   5.742 -0.0769 -0.3583  0.2177
37640SOL    HW215300   3.861   2.374   5.613  0.3358 -0.0697 -0.0297
37641SOL     OW15301   1.145   5.998   3.171  0.1686 -0.5679  0.4037
37641SOL    HW115302   1.215   5.943   3.208  0.2403 -0.5500  0.2954
37641SOL    HW215303   1.066   5.972   3.219  0.3584 -0.1788  0.9389
37642SOL     OW15304   6.257   0.913   7.273  0.5833  0.0145  0.2658
37642SOL    HW115305   6.233   0.827   7.237  2.5310  0.2964 -1.9909
37642SOL    HW215306   6.268   0.969   7.196  2.6986  1.3337  1.4291
37643SOL     OW15307   7.639   9.826   1.728  0.9872 -0.0383  0.2780
37643SOL    HW115308   7.723   9.860   1.758  0.3777  1.4204  0.3987
37643SOL    HW215309   7.616   9.881   1.653  0.1687 -0.4736  0.1919
37644SOL     OW15310   0.098  10.484   3.827 -0.6826 -0.1905  0.4737
37644SOL    HW115311   0.071  10.473   3.736 -1.3301 -2.4605  0.8621
37644SOL    HW215312   0.190  10.456   3.828 -0.7657 -0.4672  0.5555
37645SOL     OW15313   6.436   3.331   8.097  0.4745  0.3603  0.1725
37645SOL    HW115314   6.452   3.331   8.003  1.2284 -0.2049  0.2933
37645SOL    HW215315   6.404   3.419   8.116  3.5425  1.6395 -0.0748
37646SOL     OW15316   5.892   6.369   1.931  0.0568 -0.3453  0.0312
37646SOL    HW115317   5.964   6.432   1.936 -1.0236  0.9708 -0.3148
37646SOL    HW215318   5.837   6.389   2.006 -0.7080 -0.3332 -0.5161
37647SOL     OW15319  10.278   5.490   1.265 -0.0506  0.3664 -0.2640
37647SOL    HW115320  10.312   5.474   1.353 -0.2776  1.5810  0.0615
37647SOL    HW215321  10.308   5.579   1.244 -0.2196  0.1849 -1.3067
37648SOL     OW15322   8.803   8.094   3.430 -0.4942  0.1650  0.1209
37648SOL    HW115323   8.736   8.046   3.381 -0.0641  0.3776 -0.6799
37648SOL    HW215324   8.845   8.150   3.365  1.1658 -0.7122  0.3878
37649SOL     OW15325   1.664   9.434   3.761  0.1866  0.0330  0.2334
37649SOL    HW115326   1.655   9.384   3.680 -0.8393  0.7839 -0.1408
37649SOL    HW215327   1.591   9.497   3.759  0.7928  0.8055  1.2022
37650SOL     OW15328   5.658   2.274   3.639  0.1883 -0.5298  0.4973
37650SOL    HW115329   5.571   2.311   3.650  0.5716  1.1490 -1.5753
37650SOL    HW215330   5.689   2.258   3.728 -1.9391 -0.5454  1.2892
37651SOL     OW15331   0.155   7.680   1.906  0.4005  0.1176 -0.1612
37651SOL    HW115332   0.178   7.762   1.863 -2.0890 -0.5134 -2.9673
37651SOL    HW215333   0.198   7.612   1.854 -0.3953 -0.5363  0.0160
37652SOL     OW15334   2.148   4.183   2.729  0.1285  0.1622  0.1449
37652SOL    HW115335   2.147   4.088   2.724  1.7877  0.0742  0.8306
37652SOL    HW215336   2.223   4.209   2.674 -0.8636  1.1534 -0.8034
37653SOL     OW15337   9.972   1.736   8.107 -0.5015  0.8522 -0.1045
37653SOL    HW115338   9.881   1.714   8.085 -0.6412 -1.1037  2.0686
37653SOL    HW215339   9.965   1.799   8.178 -0.0926  2.0722 -1.1049
37654SOL     OW15340   6.261   5.967   5.070  0.3733  0.1475 -0.0116
37654SOL    HW115341   6.195   5.902   5.046  1.6114 -0.9864 -0.4355
37654SOL    HW215342   6.291   5.939   5.157  0.2068  0.7564  0.2512
37655SOL     OW15343   0.917   7.404  10.541 -0.3031 -0.3126  0.0530
37655SOL    HW115344   0.895   7.384  10.632 -0.0665 -0.8654 -0.0075
37655SOL    HW215345   0.880   7.331  10.491 -0.2302 -0.1310 -0.2692
37656SOL     OW15346   1.435  10.157  10.474  0.2548 -0.1385  0.2261
37656SOL    HW115347   1.345  10.144  10.447 -0.0214  0.6088  0.7424
37656SOL    HW215348   1.472  10.069  10.481  0.2544 -0.3929 -2.1806
37657SOL     OW15349   7.177   3.115  10.120 -0.3863 -0.3283 -0.2954
37657SOL    HW115350   7.219   3.029  10.113 -1.1089 -0.6964 -0.1959
37657SOL    HW215351   7.246   3.173  10.153  0.5980 -0.4941 -1.9355
37658SOL     OW15352   2.666  10.425  10.174  0.3643 -0.2438 -0.1337
37658SOL    HW115353   2.647  10.405  10.082  0.6643 -0.1469 -0.2179
37658SOL    HW215354   2.744  10.372  10.194 -0.7959 -1.7498  0.6222
37659SOL     OW15355   4.204   2.942   4.082 -0.0766  0.0574  0.1407
37659SOL    HW115356   4.261   2.869   4.060  2.4378  0.7700  3.5839
37659SOL    HW215357   4.126   2.901   4.120 -0.0955 -0.8316 -0.8051
37660SOL     OW15358   5.836   8.314   9.950 -0.0727 -0.2755 -0.0495
37660SOL    HW115359   5.852   8.254   9.877 -0.5289 -0.4892  0.0170
37660SOL    HW215360   5.923   8.338   9.981  0.1364 -2.1136  0.8996
37661SOL     OW15361   6.979   0.713   4.688  0.5733 -0.5076  0.0274
37661SOL    HW115362   6.915   0.648   4.716 -1.0180  0.9039 -0.2075
37661SOL    HW215363   6.953   0.736   4.598  1.9896 -0.5743 -0.4352
37662SOL     OW15364  10.301  10.738  10.584  1.1457  0.7875 -0.8525
37662SOL    HW115365  10.295  10.833  10.574 -0.6200  1.0038  1.4997
37662SOL    HW215366  10.239  10.717  10.653  2.3548 -1.9651 -0.4747
37663SOL     OW15367   1.253   5.084   8.539  0.4323  0.2970 -0.6025
37663SOL    HW115368   1.179   5.031   8.511 -1.1521  2.3742 -0.6338
37663SOL    HW215369   1.298   5.109   8.458  1.8331 -1.7487 -0.5306
37664SOL     OW15370   5.682   2.159   7.438 -0.0921 -0.5256  0.0903
37664SOL    HW115371   5.612   2.138   7.376  0.2598 -2.2896  0.2176
37664SOL    HW215372   5.753   2.100   7.413  0.2054 -0.9900  1.8882
37665SOL     OW15373   7.038   1.058   3.319  0.0374 -0.5015 -0.1922
37665SOL    HW115374   7.065   1.135   3.368 -1.3624  0.7886 -1.3596
37665SOL    HW215375   7.110   0.996   3.330  0.7157  0.5369  1.6599
37666SOL     OW15376   2.364   3.857   2.899  0.4260 -0.8762  0.2951
37666SOL    HW115377   2.432   3.803   2.859  0.3128 -0.6903 -0.1471
37666SOL    HW215378   2.337   3.808   2.977  2.0288 -0.3074  1.2449
37667SOL     OW15379   1.141   7.219   3.006 -0.5513 -0.5752  0.1764
37667SOL    HW115380   1.159   7.309   2.982 -0.6474 -0.5450  0.2177
37667SOL    HW215381   1.190   7.166   2.944  0.5163 -0.4871  0.9227
37668SOL     OW15382   4.334   0.060   0.445 -0.2053  0.3536  0.1570
37668SOL    HW115383   4.412   0.049   0.391  0.1042  2.0740  0.1831
37668SOL    HW215384   4.362   0.118   0.516 -1.3943  0.6809  0.3871
37669SOL     OW15385  10.606   0.330   4.767  0.0828 -0.4400  0.0435
37669SOL    HW115386  10.647   0.371   4.692  2.1902 -0.4536  1.1195
37669SOL    HW215387  10.517   0.365   4.768  0.3296  0.3359 -1.8392
37670SOL     OW15388   7.538   3.213   1.142 -0.4903  0.5165 -0.0052
37670SOL    HW115389   7.448   3.202   1.173 -1.1978  1.5045 -1.5928
37670SOL    HW215390   7.562   3.126   1.108 -1.6694  0.7488 -1.5526
37671SOL     OW15391   5.547  10.690   9.077 -0.4798 -0.4715 -0.3616
37671SOL    HW115392   5.465  10.685   9.125  0.1583 -0.2639  0.7857
37671SOL    HW215393   5.575  10.599   9.068 -1.3177 -0.6331 -1.6700
37672SOL     OW15394   7.900   1.921   2.029  0.8276  0.3175 -0.2554
37672SOL    HW115395   7.924   1.868   1.953 -1.3536 -1.6518  0.3288
37672SOL    HW215396   7.938   1.874   2.104 -0.5031 -0.0664  0.2047
37673SOL     OW15397   7.254   5.020  10.711 -0.0216  0.1746  0.3727
37673SOL    HW115398   7.340   5.009  10.671 -0.5972  0.5488 -1.0371
37673SOL    HW215399   7.270   5.014  10.805  1.6664  1.0827  0.1817
37674SOL     OW15400   1.958   1.828   2.822 -0.7863  0.4516  0.0958
37674SOL    HW115401   1.964   1.924   2.827  0.3055  0.3428  1.7104
37674SOL    HW215402   1.864   1.811   2.821 -1.0688  1.5112  2.2262
37675SOL     OW15403   8.087   6.860   1.802 -0.1823 -0.4059  0.6610
37675SOL    HW115404   8.016   6.890   1.859 -0.6742 -1.2196  0.4903
37675SOL    HW215405   8.167   6.895   1.843 -0.7794  2.0216 -0.1048
37676SOL     OW15406   4.711   0.889   2.461  0.5657 -0.1675 -0.4514
37676SOL    HW115407   4.788   0.924   2.505  0.6471 -1.2331  0.3041
37676SOL    HW215408   4.743   0.810   2.417  0.0985 -0.0925 -0.9370
37677SOL     OW15409   2.554   8.562   9.353  0.2700  0.0212 -0.3376
37677SOL    HW115410   2.604   8.637   9.388 -2.5442  1.4598  0.9270
37677SOL    HW215411   2.520   8.518   9.431 -1.8689  0.1935 -1.1145
37678SOL     OW15412   5.505   0.048   1.612  0.1471  0.3983  0.6770
37678SOL    HW115413   5.544  -0.028   1.570 -0.5720  0.6138 -0.4158
37678SOL    HW215414   5.565   0.069   1.684  0.8924 -0.5661  0.3565
37679SOL     OW15415   1.805   9.542   6.066  0.1105 -0.0906 -0.0421
37679SOL    HW115416   1.837   9.624   6.028  1.4482 -0.5435  0.0492
37679SOL    HW215417   1.880   9.506   6.114 -0.3976 -1.4400 -0.1948
37680SOL     OW15418   2.812   2.146   2.521  1.0154 -0.2302 -0.0202
37680SOL    HW115419   2.817   2.056   2.490  0.6912  0.3340 -1.8544
37680SOL    HW215420   2.847   2.143   2.610  1.3693 -2.0804 -0.1791
37681SOL     OW15421  10.174   7.117   8.711 -0.1745  0.1416 -0.1457
37681SOL    HW115422  10.109   7.180   8.742 -0.3226  0.1746 -0.5259
37681SOL    HW215423  10.235   7.109   8.785  1.0115  2.3021 -0.7994
37682SOL     OW15424   0.662   4.313   5.813  0.0572 -0.3330  0.0926
37682SOL    HW115425   0.591   4.330   5.876 -0.0561 -1.3158  0.2422
37682SOL    HW215426   0.729   4.378   5.834  0.0252 -0.6515  1.2446
37683SOL     OW15427   1.015   3.460   0.673 -0.9665  0.2540 -0.1069
37683SOL    HW115428   0.988   3.418   0.592  0.9615 -0.3274 -0.5028
37683SOL    HW215429   1.017   3.389   0.738 -0.2079  0.2249 -0.1493
37684SOL     OW15430   7.864   5.737   3.635 -0.1195  0.0136  0.2517
37684SOL    HW115431   7.925   5.784   3.578  0.6380 -0.5987  0.5336
37684SOL    HW215432   7.914   5.719   3.715 -0.7554 -0.2653  0.5966
37685SOL     OW15433   3.769   4.983   2.715  0.1985 -0.5247 -0.0983
37685SOL    HW115434   3.696   4.996   2.654 -1.1696 -1.7187  1.1995
37685SOL    HW215435   3.774   5.064   2.765 -1.0960 -0.8935  0.6539
37686SOL     OW15436   8.992   7.673   7.190  0.2945  0.6871  0.2611
37686SOL    HW115437   9.009   7.767   7.190  0.4551  0.6861 -1.2486
37686SOL    HW215438   8.907   7.664   7.233 -0.1844  1.6370 -0.4339
37687SOL     OW15439   3.427   1.186  10.186  0.2440  0.2359 -0.1112
37687SOL    HW115440   3.373   1.106  10.191 -2.7602  2.0124 -1.2542
37687SOL    HW215441   3.460   1.186  10.096  0.9172 -0.0912  0.1309
37688SOL     OW15442   2.352   2.866   7.681 -0.2468  0.3348 -0.5643
37688SOL    HW115443   2.287   2.928   7.651 -0.6638 -0.1436 -0.6590
37688SOL    HW215444   2.377   2.898   7.768 -1.1824  0.0882 -0.1980
37689SOL     OW15445   0.906   0.310   6.941 -0.0959  0.1184  0.1677
37689SOL    HW115446   0.909   0.404   6.925 -0.4996  0.3491  1.3511
37689SOL    HW215447   0.874   0.302   7.031 -1.6356 -1.1867 -0.4413
37690SOL     OW15448  10.098   2.211   8.764  0.2895  0.0386 -0.5750
37690SOL    HW115449  10.015   2.169   8.743  0.9497 -0.4695 -2.3781
37690SOL    HW215450  10.114   2.270   8.691  2.8111 -1.9234 -1.7603
37691SOL     OW15451   5.990  10.360   8.840 -0.7231  0.1059  0.0743
37691SOL    HW115452   5.921  10.312   8.885  0.7011 -0.3480  1.9201
37691SOL    HW215453   6.071  10.326   8.878  0.5816  0.1642 -2.4299
37692SOL     OW15454   6.239   5.088   1.861 -0.1217  0.6905 -0.1938
37692SOL    HW115455   6.296   5.011   1.852 -0.8290  0.4302 -3.3264
37692SOL    HW215456   6.167   5.058   1.917  0.5436 -0.3173  0.1551
37693SOL     OW15457   6.503   6.714   1.128  0.3195  0.2165 -0.1079
37693SOL    HW115458   6.519   6.650   1.197 -1.3133  0.3071  0.3836
37693SOL    HW215459   6.455   6.666   1.060  1.2325  0.3249 -0.8637
37694SOL     OW15460   3.919   8.140   4.165 -0.8299  0.1146 -0.2968
37694SOL    HW115461   3.920   8.076   4.236 -0.4759  0.4711  0.0256
37694SOL    HW215462   3.896   8.089   4.087  0.0789 -0.5296 -0.1690
37695SOL     OW15463   3.959   4.204   0.394  0.5963  0.1967 -0.1457
37695SOL    HW115464   3.893   4.135   0.388  1.4561 -0.6166 -0.3857
37695SOL    HW215465   3.947   4.254   0.313 -2.1752  2.3656  1.4115
37696SOL     OW15466   3.121   5.108   2.391 -0.5346 -0.4288  0.1675
37696SOL    HW115467   3.135   5.203   2.395 -0.0423 -0.4319 -1.0137
37696SOL    HW215468   3.187   5.071   2.449 -0.0566 -0.0948 -0.1540
37697SOL     OW15469   7.425   0.430   5.112  0.1695 -0.1474  0.1025
37697SOL    HW115470   7.453   0.518   5.086 -0.4211 -0.0304 -0.1499
37697SOL    HW215471   7.332   0.428   5.092 -0.0672 -0.4355  1.1783
37698SOL     OW15472   0.761   2.573   4.244 -0.6497 -0.3608  0.0907
37698SOL    HW115473   0.829   2.506   4.239  0.2281  0.5361 -0.3119
37698SOL    HW215474   0.781   2.623   4.322 -0.4232  0.3417 -0.4082
37699SOL     OW15475   6.547   2.443   9.325  0.3633  0.1588 -0.2510
37699SOL    HW115476   6.563   2.461   9.418 -0.5710 -1.1448  0.1897
37699SOL    HW215477   6.634   2.431   9.288  0.7707  1.0938  0.3573
37700SOL     OW15478   5.308   4.277   6.881  0.0279 -0.3627  0.5981
37700SOL    HW115479   5.265   4.229   6.810 -0.9806  0.3274  0.7098
37700SOL    HW215480   5.378   4.219   6.910 -0.0047 -0.9709 -0.4693
37701SOL     OW15481   6.898   4.114   6.765 -0.0792 -0.4034 -0.4408
37701SOL    HW115482   6.954   4.036   6.760  0.2704 -0.3438  1.5757
37701SOL    HW215483   6.818   4.084   6.809  0.3602  0.4701  1.0484
37702SOL     OW15484   0.217   2.679   1.735 -0.6639 -0.3135  0.1506
37702SOL    HW115485   0.225   2.774   1.726 -1.7525 -0.3083 -1.0492
37702SOL    HW215486   0.188   2.665   1.825  0.8966  0.3779  0.7934
37703SOL     OW15487   5.266   2.440   6.184  0.1118  0.4138  0.4466
37703SOL    HW115488   5.222   2.504   6.127  0.5922 -0.5323 -1.0216
37703SOL    HW215489   5.337   2.406   6.132  0.5060 -0.5823  1.5967
37704SOL     OW15490   6.825   3.421   0.477 -0.1215  0.2136  0.1988
37704SOL    HW115491   6.762   3.379   0.536  0.8314 -1.1251  0.3126
37704SOL    HW215492   6.904   3.367   0.484  0.3229  0.5748 -1.6062
37705SOL     OW15493   8.073   9.883   3.126 -1.0171  0.1519 -0.0601
37705SOL    HW115494   8.044   9.792   3.120  0.0693 -0.2626  0.5221
37705SOL    HW215495   8.096   9.894   3.219  0.4910  0.4576 -0.4326
37706SOL     OW15496  10.566   9.101   3.509 -0.1119  0.0994  0.2280
37706SOL    HW115497  10.585   9.061   3.424 -0.1081  1.1578 -0.2947
37706SOL    HW215498  10.623   9.055   3.570  0.0491 -0.5333 -0.3874
37707SOL     OW15499   5.385   5.097  10.181  0.3875  0.2743  0.1897
37707SOL    HW115500   5.381   5.049  10.098 -0.7033  0.7034 -0.0195
37707SOL    HW215501   5.399   5.028  10.247  1.1331 -0.0808 -0.3302
37708SOL     OW15502   4.378   6.141   1.476 -0.0827  0.0990  0.6379
37708SOL    HW115503   4.352   6.051   1.495 -1.4767  0.1785 -0.6638
37708SOL    HW215504   4.296   6.191   1.484  0.7400  1.3410  1.7376
37709SOL     OW15505   9.497   9.244   2.621 -0.2507 -0.1626 -0.1526
37709SOL    HW115506   9.473   9.336   2.613  1.0476  0.2917  0.8139
37709SOL    HW215507   9.419   9.196   2.593 -0.5325  1.2074 -1.8344
37710SOL     OW15508   0.741   4.178   0.060  0.0501 -0.0391  0.3361
37710SOL    HW115509   0.817   4.121   0.046  0.1222  0.3826 -1.1920
37710SOL    HW215510   0.666   4.126   0.034  0.0238  0.2266 -0.1358
37711SOL     OW15511   7.889   1.054   4.086  0.4099 -0.6648  0.0301
37711SOL    HW115512   7.934   1.042   4.170 -1.9246  0.3208  1.5079
37711SOL    HW215513   7.798   1.070   4.110 -0.4595 -1.0524 -2.7643
37712SOL     OW15514   6.686   9.014   9.008  0.1626 -0.0776 -0.1633
37712SOL    HW115515   6.599   8.987   9.039 -1.2133  1.8661 -1.9826
37712SOL    HW215516   6.667   9.084   8.945  3.0916  0.4658 -0.5527
37713SOL     OW15517   0.716   5.942   6.461 -0.2312 -0.0803  0.2957
37713SOL    HW115518   0.686   6.009   6.399  1.7418  0.5629 -0.0277
37713SOL    HW215519   0.708   5.859   6.412 -0.0944  0.2454 -0.2898
37714SOL     OW15520   1.719   6.037   5.381  0.2703  0.0106  0.2952
37714SOL    HW115521   1.630   6.072   5.386  0.4225  0.2378  2.0729
37714SOL    HW215522   1.748   6.032   5.472  1.9786 -0.3265 -0.2292
37715SOL     OW15523   1.673   5.565   0.258  0.1489  0.0467 -0.3986
37715SOL    HW115524   1.646   5.544   0.169  1.7204  1.1842 -1.1936
37715SOL    HW215525   1.765   5.592   0.250  0.0644  1.0804  1.4291
37716SOL     OW15526   6.966   0.301   3.058 -0.2166  0.3816  0.0150
37716SOL    HW115527   7.046   0.305   3.111  0.4912 -0.1814 -0.9727
37716SOL    HW215528   6.909   0.369   3.095  0.6427  0.6746  0.8463
37717SOL     OW15529  10.540   3.376   0.810 -0.0614 -0.3221 -0.5966
37717SOL    HW115530  10.546   3.382   0.905 -1.6771  0.3608 -0.5106
37717SOL    HW215531  10.605   3.439   0.779 -1.2596  1.3384  0.1183
37718SOL     OW15532   5.371   2.332   0.977 -0.2138 -0.0342  0.2687
37718SOL    HW115533   5.319   2.277   1.036 -1.3476 -0.7252 -1.3056
37718SOL    HW215534   5.451   2.282   0.962 -0.0041  0.0544  1.0201
37719SOL     OW15535   5.507   7.248   9.204 -0.3857 -0.0929  0.0618
37719SOL    HW115536   5.577   7.251   9.269 -1.7057  2.2841  1.5294
37719SOL    HW215537   5.549   7.271   9.121  0.6144  1.3067  0.9211
37720SOL     OW15538   3.214   9.860   3.546  0.1126  0.4005 -0.4812
37720SOL    HW115539   3.253   9.772   3.546  0.8148  0.6799 -1.8135
37720SOL    HW215540   3.184   9.873   3.636 -0.4040 -1.3679 -0.3560
37721SOL     OW15541   4.476   1.777   1.926  0.5050  0.6299 -0.0814
37721SOL    HW115542   4.440   1.849   1.876  0.3785  0.4911 -0.1906
37721SOL    HW215543   4.571   1.781   1.910  0.8342  2.3180  1.9055
37722SOL     OW15544   8.823   0.450   6.979  0.2290  0.1393 -0.7536
37722SOL    HW115545   8.796   0.388   7.046  0.7530  1.0865  0.3730
37722SOL    HW215546   8.913   0.426   6.959 -0.3861 -1.0835 -2.2596
37723SOL     OW15547   0.445   6.223   3.260  0.1021 -0.2309 -0.0345
37723SOL    HW115548   0.457   6.156   3.192  0.6714 -0.8656  0.6701
37723SOL    HW215549   0.384   6.285   3.222  0.1939 -0.7250 -1.0248
37724SOL     OW15550   0.132   9.749   2.172 -0.0300  0.6445 -0.6842
37724SOL    HW115551   0.096   9.766   2.085  0.0355  1.1638 -0.6162
37724SOL    HW215552   0.187   9.672   2.161 -1.1365 -0.1509 -0.7936
37725SOL     OW15553   9.184   4.472   0.219  0.3011  0.6314 -0.1429
37725SOL    HW115554   9.176   4.421   0.299 -1.5908  0.6075 -0.3043
37725SOL    HW215555   9.171   4.562   0.246  0.5162  0.7120 -0.3030
37726SOL     OW15556   4.719   8.523   7.766  0.2515  0.0981  0.2236
37726SOL    HW115557   4.750   8.432   7.772  0.4817  0.1587 -0.0527
37726SOL    HW215558   4.626   8.515   7.743  0.6336 -0.0483 -1.3548
37727SOL     OW15559   5.502   3.632   8.305 -0.2758 -0.1654  0.0702
37727SOL    HW115560   5.482   3.718   8.344  2.0173  0.6588 -0.4473
37727SOL    HW215561   5.511   3.650   8.212 -1.3468 -1.3157 -0.2811
37728SOL     OW15562   5.047   0.140   6.828 -0.4375 -0.3751  0.5596
37728SOL    HW115563   4.963   0.122   6.869  0.3703  0.0062  2.5009
37728SOL    HW215564   5.097   0.058   6.838 -0.7050 -0.7525 -0.9894
37729SOL     OW15565   3.748   0.233   7.377 -0.2294 -0.3494  0.4222
37729SOL    HW115566   3.715   0.313   7.335 -1.2679 -0.8319  0.2962
37729SOL    HW215567   3.840   0.252   7.396 -0.2898  0.6287 -0.2146
37730SOL     OW15568   4.902  10.672   8.351  0.1633 -0.3222 -0.1817
37730SOL    HW115569   4.823  10.661   8.298 -1.5795 -0.1710  2.2166
37730SOL    HW215570   4.874  10.728   8.423  2.2741 -0.8987  1.1607
37731SOL     OW15571   8.797   3.346   9.419 -0.2171  0.6608 -0.8962
37731SOL    HW115572   8.853   3.401   9.474 -1.1728 -0.0223  0.8405
37731SOL    HW215573   8.858   3.293   9.367  0.7290  0.7211  0.1271
37732SOL     OW15574   6.735  10.211   7.771  0.8410 -0.5899 -0.4583
37732SOL    HW115575   6.778  10.271   7.833 -0.7889  0.8657 -0.6688
37732SOL    HW215576   6.690  10.147   7.826  1.0971 -0.5354 -0.1835
37733SOL     OW15577   9.869   9.838  10.596 -0.4267  0.2890 -0.2040
37733SOL    HW115578   9.813   9.844  10.519 -0.8284 -0.6261 -0.0011
37733SOL    HW215579   9.808   9.832  10.669 -0.0878 -0.9852 -0.0013
37734SOL     OW15580   7.612   9.637   9.578  0.5225 -0.8102 -0.5203
37734SOL    HW115581   7.581   9.674   9.661  0.9121  0.4215 -0.8983
37734SOL    HW215582   7.703   9.613   9.596  0.4346 -1.0762 -0.4307
37735SOL     OW15583  10.289   9.946   4.249 -0.2677  0.0153  0.1240
37735SOL    HW115584  10.225   9.886   4.211 -0.0867  1.1076 -2.0624
37735SOL    HW215585  10.248  10.032   4.244  0.7443  0.5170  0.1719
37736SOL     OW15586   1.024   1.263   4.922 -0.5270  0.0650 -0.1131
37736SOL    HW115587   1.020   1.205   4.846  0.6547 -0.1291 -0.0563
37736SOL    HW215588   1.016   1.204   4.997  1.4931 -0.1950 -0.0299
37737SOL     OW15589   0.737   0.871   9.376 -0.0081  0.3264 -0.5723
37737SOL    HW115590   0.764   0.786   9.411 -0.9170  0.7633  1.3170
37737SOL    HW215591   0.652   0.888   9.416 -1.0670  0.9907 -2.9323
37738SOL     OW15592   6.303   5.060   0.072 -0.0113  0.0504  0.0818
37738SOL    HW115593   6.241   5.001   0.116 -0.3148  0.2779 -0.0355
37738SOL    HW215594   6.277   5.147   0.101 -0.0753  0.1861 -0.3804
37739SOL     OW15595   9.463   3.178   8.644 -0.3356  0.0656 -0.0043
37739SOL    HW115596   9.502   3.265   8.646  0.3210 -0.2343  1.0950
37739SOL    HW215597   9.377   3.191   8.604  0.5679  0.8579 -1.7931
37740SOL     OW15598   0.412   6.368   7.116 -0.1938  0.9384 -0.6521
37740SOL    HW115599   0.460   6.409   7.044  1.7996  0.8295  0.5464
37740SOL    HW215600   0.437   6.276   7.113  0.8391  1.1437  0.8488
37741SOL     OW15601   6.219   0.921   4.740 -0.2371  0.2656  0.4143
37741SOL    HW115602   6.133   0.892   4.771 -0.5300  2.2088  1.6014
37741SOL    HW215603   6.255   0.845   4.695 -3.1730 -0.1782 -1.4481
37742SOL     OW15604   8.106   2.354   5.299  0.1778 -0.6462 -0.1922
37742SOL    HW115605   8.144   2.311   5.376 -0.4658  0.5573  0.8451
37742SOL    HW215606   8.116   2.291   5.228  0.4924 -1.9245  0.9521
37743SOL     OW15607   2.936   7.324   8.087  0.1852 -1.0530 -0.2107
37743SOL    HW115608   3.016   7.351   8.042 -0.3790 -1.1013 -1.2939
37743SOL    HW215609   2.965   7.290   8.171  1.4549 -2.3786 -1.1344
37744SOL     OW15610  10.588   6.370   5.926  0.0004 -0.5490  0.0028
37744SOL    HW115611  10.536   6.292   5.906 -0.0515 -0.2014 -1.3347
37744SOL    HW215612  10.634   6.348   6.007 -0.4253 -1.7521 -0.0540
37745SOL     OW15613   0.889   4.706   3.665 -0.2024 -0.5120 -0.4260
37745SOL    HW115614   0.861   4.753   3.744  0.5717  1.1229 -1.0761
37745SOL    HW215615   0.826   4.733   3.598 -0.2393 -1.0568 -0.6106
37746SOL     OW15616   9.816   9.873   8.272 -0.6562 -0.3286  0.6095
37746SOL    HW115617   9.762   9.864   8.193  0.4307 -0.3867 -0.1528
37746SOL    HW215618   9.807   9.789   8.317  1.4399 -1.7091 -1.2840
37747SOL     OW15619   4.047   3.191   3.308 -0.3896 -0.0815  0.3553
37747SOL    HW115620   4.079   3.204   3.219 -1.0727  0.9436  0.2463
37747SOL    HW215621   3.954   3.169   3.297  0.0102 -2.1886  0.7108
37748SOL     OW15622   0.628   0.828   7.534  0.2865 -0.3201 -0.0754
37748SOL    HW115623   0.600   0.918   7.515 -0.8173 -0.3150  1.4035
37748SOL    HW215624   0.717   0.837   7.569 -0.1983  0.3296  1.0420
37749SOL     OW15625   2.743   4.999   8.472 -0.0386 -0.8416  0.0989
37749SOL    HW115626   2.758   4.977   8.563  0.3008 -0.0896  0.2308
37749SOL    HW215627   2.830   5.014   8.435 -0.1286 -1.7305 -0.5054
37750SOL     OW15628   8.582   1.825  10.515 -0.1066  0.9208 -0.1435
37750SOL    HW115629   8.576   1.776  10.597 -0.0107  1.3297  0.1109
37750SOL    HW215630   8.614   1.762  10.451  2.0262  1.1576  0.6286
37751SOL     OW15631   8.171   0.282   9.259 -0.2205 -0.0724  0.2954
37751SOL    HW115632   8.123   0.214   9.212 -0.4734 -0.1165  0.6107
37751SOL    HW215633   8.257   0.285   9.217 -0.9931  1.0933 -1.3390
37752SOL     OW15634   4.104   8.045   3.547 -0.5086 -0.0027 -0.1165
37752SOL    HW115635   4.045   7.971   3.532 -1.0187  0.3572  0.0625
37752SOL    HW215636   4.181   8.026   3.494  0.3371 -1.7466  1.5951
37753SOL     OW15637   4.643   1.904   8.398 -0.0475 -0.1289 -0.2807
37753SOL    HW115638   4.706   1.967   8.363  0.4790 -1.1718 -1.2447
37753SOL    HW215639   4.558   1.948   8.390  0.3290  0.5232 -0.7589
37754SOL     OW15640   0.318  10.072   0.781  0.1890  0.8769  0.1196
37754SOL    HW115641   0.375  10.062   0.705 -1.5540 -0.4558 -1.0887
37754SOL    HW215642   0.347  10.004   0.841  0.4456  0.7954 -0.0941
37755SOL     OW15643   6.769   2.281   0.751 -0.1950 -0.2222  0.1161
37755SOL    HW115644   6.827   2.241   0.686 -0.7763 -1.0851  0.1156
37755SOL    HW215645   6.701   2.323   0.698  0.3061  0.6247  0.1230
37756SOL     OW15646   9.217   4.205   6.343  0.4085 -0.6464 -0.1853
37756SOL    HW115647   9.309   4.222   6.365  0.2627 -0.8319  0.5635
37756SOL    HW215648   9.190   4.137   6.404 -0.6811  0.4847  0.6275
37757SOL     OW15649   1.173   9.556   3.911  0.0327 -0.7686 -0.1593
37757SOL    HW115650   1.184   9.638   3.959  0.4896 -1.1962  0.4899
37757SOL    HW215651   1.211   9.573   3.825  1.1549 -0.6157  0.3367
37758SOL     OW15652   9.815   8.333   0.370 -0.3090  0.4219  0.4421
37758SOL    HW115653   9.892   8.293   0.331 -1.2658  0.3715 -1.4842
37758SOL    HW215654   9.803   8.286   0.453 -0.6174 -2.4103 -1.0995
37759SOL     OW15655   0.724  10.313   4.775 -0.4058  0.0253  0.5379
37759SOL    HW115656   0.662  10.374   4.815  0.3836  0.1689  1.5824
37759SOL    HW215657   0.809  10.352   4.791  0.1130 -1.2761  1.1068
37760SOL     OW15658   3.999  10.684   1.305 -0.3444 -0.3309  0.1650
37760SOL    HW115659   4.060  10.642   1.244 -1.5577 -0.3787 -1.0661
37760SOL    HW215660   4.033  10.662   1.392 -0.0972 -2.6008 -0.4425
37761SOL     OW15661   9.200   5.307   6.664 -0.2948 -0.4157  0.2506
37761SOL    HW115662   9.192   5.375   6.730 -1.6867 -1.4493  1.2074
37761SOL    HW215663   9.286   5.267   6.681  0.2393  0.6462  0.0981
37762SOL     OW15664   0.516   7.013   3.524 -0.7482 -0.0031  0.3691
37762SOL    HW115665   0.466   6.990   3.602 -0.2841 -0.3118  0.5777
37762SOL    HW215666   0.598   7.049   3.557 -0.6226  0.0384  0.0244
37763SOL     OW15667   6.090   2.311   0.767  0.1538  0.4812 -0.5005
37763SOL    HW115668   6.181   2.282   0.770  1.0632  3.1161  1.4221
37763SOL    HW215669   6.095   2.397   0.725 -1.5262  0.5022 -0.7131
37764SOL     OW15670   6.957  10.298   1.942 -0.3114 -0.1756  1.3015
37764SOL    HW115671   6.892  10.263   1.880  0.4499  0.0939  0.3220
37764SOL    HW215672   6.970  10.227   2.005  0.3712 -1.2680 -0.0123
37765SOL     OW15673   1.942   1.318   0.368  0.1273  0.6639  0.1172
37765SOL    HW115674   2.021   1.289   0.322 -0.2783  0.4924 -0.4891
37765SOL    HW215675   1.960   1.301   0.460  0.8790  0.8249  0.0055
37766SOL     OW15676   5.995   0.206   4.787 -0.7563 -0.2128  0.0160
37766SOL    HW115677   6.043   0.203   4.704 -0.1097  1.0001  0.3270
37766SOL    HW215678   5.924   0.269   4.772 -1.2604 -0.7571  0.0766
37767SOL     OW15679   7.774   0.551   9.924 -0.2221 -0.2126  0.6163
37767SOL    HW115680   7.860   0.523   9.953 -0.7686 -2.1693  0.5037
37767SOL    HW215681   7.755   0.629   9.976  2.0389  0.9407 -0.1526
37768SOL     OW15682   1.318   4.919   0.154  0.0047 -0.0433  0.2984
37768SOL    HW115683   1.371   4.840   0.166  1.3532  0.2172 -2.8599
37768SOL    HW215684   1.232   4.887   0.127  0.5081 -0.4839 -0.8449
37769SOL     OW15685   9.449   2.330   3.731  0.0514  0.0665 -0.2618
37769SOL    HW115686   9.429   2.420   3.757  0.2535 -0.3046  1.3257
37769SOL    HW215687   9.537   2.333   3.696  0.1216  0.4733 -0.0550
37770SOL     OW15688   6.412   5.427   0.185  0.1149 -0.5267  0.5208
37770SOL    HW115689   6.459   5.345   0.198 -1.6077 -1.4091  1.5912
37770SOL    HW215690   6.455   5.489   0.244  3.6193  0.4382 -2.6678
37771SOL     OW15691   0.679   6.570   4.290  0.4416 -0.1139 -0.6328
37771SOL    HW115692   0.689   6.647   4.346  2.8107  0.0799 -1.2077
37771SOL    HW215693   0.755   6.572   4.232 -1.2636 -0.9819 -3.0758
37772SOL     OW15694   9.217   1.068   0.839 -0.2444 -0.1786 -0.2175
37772SOL    HW115695   9.303   1.026   0.833  0.7508  1.6930  0.0945
37772SOL    HW215696   9.159   1.012   0.788  1.1098 -1.5975 -0.2746
37773SOL     OW15697   4.732   2.955   9.228 -0.8154  0.4593  0.2435
37773SOL    HW115698   4.721   2.862   9.205  0.8844  0.1536  0.5221
37773SOL    HW215699   4.643   2.989   9.234 -1.6035  0.1813 -5.0906
37774SOL     OW15700   1.756   6.200   1.658  0.2706 -0.6295  0.4445
37774SOL    HW115701   1.835   6.148   1.664  2.0594  2.0379  2.0642
37774SOL    HW215702   1.722   6.205   1.747  0.5162  1.3521  0.4868
37775SOL     OW15703  10.389  10.070   8.390  0.2229 -0.0464 -0.2996
37775SOL    HW115704  10.301  10.068   8.428  0.4253 -1.1896  0.1547
37775SOL    HW215705  10.442  10.016   8.448  1.5932  1.7704  0.2387
37776SOL     OW15706   4.833   0.640   9.552 -0.0363 -0.4874  0.1690
37776SOL    HW115707   4.775   0.715   9.566  0.6697 -0.1950  1.6606
37776SOL    HW215708   4.904   0.652   9.615  1.8365 -0.6902 -1.7754
37777SOL     OW15709   9.521  10.765   5.182  0.1026 -0.2111  0.4263
37777SOL    HW115710   9.609  10.730   5.193  0.3226  0.3913  0.6204
37777SOL    HW215711   9.465  10.688   5.175  0.7603 -0.6058 -0.6917
37778SOL     OW15712   7.270   3.928   9.359 -0.0076 -0.6199  0.6847
37778SOL    HW115713   7.276   3.963   9.448  0.4996 -0.6499  0.6662
37778SOL    HW215714   7.304   3.838   9.367 -0.5914 -0.8545  0.5885
37779SOL     OW15715   3.326   2.678   7.927  0.1150  0.1983  0.3716
37779SOL    HW115716   3.310   2.608   7.864  0.6885  1.8040 -1.6538
37779SOL    HW215717   3.421   2.684   7.933  0.1054  1.6176 -0.4862
37780SOL     OW15718   2.910   7.829   7.927  0.6176 -0.3624 -0.0128
37780SOL    HW115719   2.864   7.782   7.857  2.0121  1.3770 -2.2472
37780SOL    HW215720   3.000   7.836   7.894  1.1449  1.1720  1.6523
37781SOL     OW15721   4.137  10.348   3.174 -0.0098 -0.2304 -0.3031
37781SOL    HW115722   4.112  10.300   3.095 -3.8818  0.7852  0.1178
37781SOL    HW215723   4.096  10.299   3.246 -0.2088  1.2021  0.5991
37782SOL     OW15724   4.916   6.425   4.470 -0.0103  0.5596  0.0902
37782SOL    HW115725   4.825   6.452   4.469 -0.1022  0.2605  0.2220
37782SOL    HW215726   4.953   6.460   4.389 -0.4117  0.1180 -0.2910
37783SOL     OW15727   4.906   6.083   8.218  0.3958  0.3344 -0.5888
37783SOL    HW115728   4.959   6.159   8.245 -1.3788  1.3038  0.3243
37783SOL    HW215729   4.970   6.021   8.184  1.9833  1.9840 -0.7877
37784SOL     OW15730   0.107   7.865   4.273  0.1028 -0.3512  0.6917
37784SOL    HW115731   0.191   7.907   4.258 -0.2938  0.5088  0.8053
37784SOL    HW215732   0.050   7.901   4.205 -0.5831  0.3186  1.5967
37785SOL     OW15733   3.474   9.884   4.373  0.3126  0.5088  0.0653
37785SOL    HW115734   3.546   9.933   4.413  1.0007  1.6807 -2.4177
37785SOL    HW215735   3.410   9.951   4.349 -1.2252 -0.4248  1.3548
37786SOL     OW15736   0.081   6.772   2.869 -0.2579 -0.0334  0.1595
37786SOL    HW115737   0.091   6.694   2.924  1.1551  0.0403  0.0595
37786SOL    HW215738   0.163   6.821   2.882  0.5287 -0.4196 -2.6118
37787SOL     OW15739   3.266   7.058   4.832  0.2309 -0.0523 -0.0770
37787SOL    HW115740   3.360   7.073   4.824  0.3283 -0.0756  0.8793
37787SOL    HW215741   3.229   7.145   4.847 -0.1969  0.2960 -2.6198
37788SOL     OW15742   8.542   7.087   3.698  0.6043 -0.8514 -0.6543
37788SOL    HW115743   8.514   7.176   3.680 -2.2322 -1.8533 -1.7116
37788SOL    HW215744   8.638   7.091   3.697  0.6396  2.5642  1.6625
37789SOL     OW15745   7.612   7.818   1.298 -0.6689  0.2780  0.4845
37789SOL    HW115746   7.519   7.838   1.281 -0.5324 -0.1595 -0.9882
37789SOL    HW215747   7.658   7.900   1.278 -0.7925  0.7498  2.0384
37790SOL     OW15748   6.779   3.171   5.165 -0.4132  0.1400  0.0721
37790SOL    HW115749   6.873   3.187   5.172 -0.8981  4.8336 -0.7024
37790SOL    HW215750   6.749   3.166   5.256  0.3702  0.9734  0.3964
37791SOL     OW15751   9.630   7.130   0.232 -0.0958  0.4681  0.1955
37791SOL    HW115752   9.618   7.087   0.317  1.2166 -0.8914 -0.2645
37791SOL    HW215753   9.716   7.171   0.237 -0.0233  0.4121 -0.4666
37792SOL     OW15754   7.352   1.352   7.007 -0.2826  0.1599  0.6763
37792SOL    HW115755   7.437   1.310   6.997 -0.0833  0.4106  1.3032
37792SOL    HW215756   7.299   1.316   6.936  1.0687  1.8860 -1.3001
37793SOL     OW15757   2.652   3.773   0.677  0.5850 -0.0592  0.2621
37793SOL    HW115758   2.678   3.698   0.731  1.8046  0.7832  0.9039
37793SOL    HW215759   2.717   3.840   0.698  0.3057  0.7306 -1.3008
37794SOL     OW15760   4.352   2.932   6.671  0.4967  0.2001  0.7704
37794SOL    HW115761   4.294   2.905   6.599  0.9998  1.6692 -0.2124
37794SOL    HW215762   4.338   3.026   6.679  2.0950  0.4253  1.1193
37795SOL     OW15763   6.226   4.238   7.309 -0.6783  0.7922  0.1099
37795SOL    HW115764   6.197   4.246   7.400 -1.7958  1.3268 -0.2870
37795SOL    HW215765   6.155   4.192   7.265  1.5193 -3.2425  0.3094
37796SOL     OW15766   1.506  10.120   9.923  0.3985 -0.5007  0.2079
37796SOL    HW115767   1.545  10.142   9.839  1.4261 -0.4512  0.6922
37796SOL    HW215768   1.505  10.202   9.973  0.8489 -0.7646  0.6612
37797SOL     OW15769  10.642   1.960   5.718 -0.3174  0.2208  0.0153
37797SOL    HW115770  10.624   2.048   5.686  1.5491  0.8258  0.5174
37797SOL    HW215771  10.737   1.952   5.713 -0.4665 -1.8653 -0.2607
37798SOL     OW15772   6.890   0.910   6.046  0.2434  0.3146 -0.0724
37798SOL    HW115773   6.915   0.843   5.982  0.1719 -0.7318  0.9567
37798SOL    HW215774   6.795   0.898   6.057  0.3302  0.1495  0.5696
37799SOL     OW15775   3.680   3.870   3.406  0.1586 -0.0455 -0.2991
37799SOL    HW115776   3.645   3.860   3.317  1.6457 -0.0447 -0.9159
37799SOL    HW215777   3.711   3.783   3.430  0.7946  0.1857 -0.2509
37800SOL     OW15778   6.557   2.814   7.780 -0.2938 -0.5916  0.2389
37800SOL    HW115779   6.493   2.746   7.761 -1.4933  0.7319 -0.6446
37800SOL    HW215780   6.547   2.878   7.709  1.6436 -0.0796  0.3741
37801SOL     OW15781  10.320   6.211   0.348  0.2034  0.5383 -0.0195
37801SOL    HW115782  10.291   6.166   0.269  0.3447 -0.2465  0.3602
37801SOL    HW215783  10.383   6.276   0.317 -1.9860  2.4043 -0.8791
37802SOL     OW15784   1.092   7.662   0.024 -0.0841 -0.3770  0.3337
37802SOL    HW115785   1.079   7.745  -0.022  0.4845  0.5779  1.8279
37802SOL    HW215786   1.019   7.656   0.085  0.3863 -0.4966  0.8980
37803SOL     OW15787   3.544   3.811   6.206  0.2061 -0.6362  0.4250
37803SOL    HW115788   3.548   3.726   6.250 -0.1702 -0.7183  0.2981
37803SOL    HW215789   3.479   3.861   6.256 -1.2898 -1.2191 -0.8893
37804SOL     OW15790   3.257   3.434   6.438  0.0943 -0.3642  0.2199
37804SOL    HW115791   3.322   3.387   6.386 -1.5995 -1.1164 -1.3390
37804SOL    HW215792   3.303   3.457   6.519  2.2461 -0.9155 -0.7639
37805SOL     OW15793  10.670   4.179   7.361  0.4895  0.8284 -0.3028
37805SOL    HW115794  10.693   4.113   7.426 -0.3334 -0.1402 -0.9757
37805SOL    HW215795  10.755   4.209   7.327  0.8971  0.7917  0.6574
37806SOL     OW15796   7.240   3.217   7.155 -0.1481 -0.2410  0.1788
37806SOL    HW115797   7.263   3.125   7.161 -1.2172 -0.5616 -0.4052
37806SOL    HW215798   7.256   3.252   7.243  1.8183 -0.5777  0.0181
37807SOL     OW15799   4.110  10.000   1.322 -0.5055  0.2894  0.4725
37807SOL    HW115800   4.182   9.985   1.261 -0.4420  0.9873  0.3632
37807SOL    HW215801   4.039  10.035   1.268 -1.4084 -1.5861  0.3530
37808SOL     OW15802   9.774   0.535   5.197 -0.0258  0.0130 -0.0530
37808SOL    HW115803   9.825   0.615   5.187  0.9169 -0.4868  0.5672
37808SOL    HW215804   9.701   0.545   5.136  0.3411  1.1248 -0.3358
37809SOL     OW15805   4.136  10.034  10.418  0.0511 -0.6003 -0.0211
37809SOL    HW115806   4.057  10.057  10.369 -0.7580 -0.7306  1.1858
37809SOL    HW215807   4.113   9.954  10.466  0.9283 -0.6571  0.3309
37810SOL     OW15808   3.732   7.031  10.395  0.0082 -0.4084  0.0872
37810SOL    HW115809   3.766   7.071  10.315 -0.6516 -1.5024 -0.7804
37810SOL    HW215810   3.788   7.064  10.465  0.3407  0.8998 -0.7722
37811SOL     OW15811   0.013   6.775   9.603 -0.1340 -1.0426 -0.0597
37811SOL    HW115812   0.094   6.810   9.568 -0.1134 -1.7423 -0.7451
37811SOL    HW215813   0.041   6.708   9.666 -0.1720  0.0909  1.2072
37812SOL     OW15814   7.898   7.257   1.868  0.7548  0.4913  0.8025
37812SOL    HW115815   7.821   7.245   1.922 -1.1956  0.3520 -1.8037
37812SOL    HW215816   7.906   7.351   1.857  0.8093  0.4974  0.9011
37813SOL     OW15817   8.294   2.203   6.267  0.2640 -0.6162 -0.3975
37813SOL    HW115818   8.290   2.226   6.174 -0.1567  1.0385 -0.0052
37813SOL    HW215819   8.387   2.187   6.283  0.7903  1.8338 -0.5511
37814SOL     OW15820  10.760   5.148   0.652  0.5642  0.2152 -0.2242
37814SOL    HW115821  10.783   5.057   0.669 -0.0691 -0.2522 -1.6462
37814SOL    HW215822  10.782   5.194   0.733  2.7700 -0.8242 -0.1522
37815SOL     OW15823   2.355   6.150   7.195  0.6246  0.5974  0.2573
37815SOL    HW115824   2.353   6.204   7.116  0.4198  0.0232 -0.1288
37815SOL    HW215825   2.447   6.131   7.209  0.7711  1.6128  0.7877
37816SOL     OW15826   4.911   8.197   7.146  0.1749 -0.0719 -0.3604
37816SOL    HW115827   4.836   8.140   7.127  1.5399 -1.8709 -0.6206
37816SOL    HW215828   4.910   8.206   7.242  0.8137 -1.8694 -0.1447
37817SOL     OW15829   2.747   1.654   8.349 -0.2091 -0.4000  0.5417
37817SOL    HW115830   2.663   1.642   8.392 -0.7041  0.5980 -0.0903
37817SOL    HW215831   2.725   1.693   8.264  0.6879 -2.8483 -0.8966
37818SOL     OW15832   9.582   4.513   1.115  0.2521  0.7305 -0.2459
37818SOL    HW115833   9.626   4.531   1.198  1.0192 -0.1539 -0.4446
37818SOL    HW215834   9.564   4.599   1.078  2.2215  1.1393 -0.3606
37819SOL     OW15835   7.411   3.373   2.923 -0.3314  0.2894  0.0772
37819SOL    HW115836   7.482   3.310   2.911 -0.2442  0.8332 -3.0971
37819SOL    HW215837   7.411   3.391   3.017  1.8159 -1.8814  0.6055
37820SOL     OW15838   1.698   3.826   9.068 -0.6711  0.5939  0.7719
37820SOL    HW115839   1.722   3.918   9.085  0.5059  0.9395 -2.1525
37820SOL    HW215840   1.777   3.777   9.092 -0.3561  0.6702 -0.0731
37821SOL     OW15841   1.167  10.519   9.062  0.0537 -0.1660 -0.1935
37821SOL    HW115842   1.260  10.499   9.049  0.3242 -1.3108  2.8106
37821SOL    HW215843   1.121  10.448   9.017  0.7040 -0.7663  0.0648
37822SOL     OW15844   6.149   6.811   9.415  0.4462  0.0702 -0.1358
37822SOL    HW115845   6.062   6.806   9.455  0.9687 -0.4575  0.9787
37822SOL    HW215846   6.209   6.818   9.489  1.3917 -0.0773 -0.8703
37823SOL     OW15847   5.374   2.402   4.571  0.0042 -0.2840  0.1530
37823SOL    HW115848   5.329   2.410   4.655  1.0279  0.0277  0.6866
37823SOL    HW215849   5.466   2.389   4.594  0.8551  2.9508 -0.8760
37824SOL     OW15850   1.757   8.763   3.796  0.2126  0.3613 -0.5646
37824SOL    HW115851   1.727   8.733   3.882  1.1252 -0.6670 -0.5781
37824SOL    HW215852   1.722   8.852   3.788 -2.4054 -0.5770 -0.4065
37825SOL     OW15853   7.696   9.611   4.084  0.0088  0.4124 -0.3042
37825SOL    HW115854   7.708   9.537   4.144 -0.5440  0.6520  0.1126
37825SOL    HW215855   7.774   9.666   4.098  1.7598 -1.3292 -2.4980
37826SOL     OW15856   1.897  10.441   7.858  0.1942  0.5643  0.3672
37826SOL    HW115857   1.927  10.473   7.773  1.1354 -0.7803  0.1428
37826SOL    HW215858   1.820  10.388   7.838  1.1474 -0.7960  0.1416
37827SOL     OW15859   0.749   5.153   1.345 -0.0502 -0.2073 -0.1661
37827SOL    HW115860   0.676   5.107   1.304 -0.1543  0.1043 -0.3345
37827SOL    HW215861   0.797   5.085   1.393 -1.5302 -0.1216  1.5595
37828SOL     OW15862   4.315   8.008   2.965  0.2008  0.0098  0.4536
37828SOL    HW115863   4.252   8.061   3.013  2.0893  1.2411  1.7187
37828SOL    HW215864   4.343   7.941   3.028  0.5759 -0.1610  0.1122
37829SOL     OW15865   0.593   4.966   7.659 -0.0829  0.5102  0.1807
37829SOL    HW115866   0.574   4.965   7.753  1.0269  0.6540  0.4260
37829SOL    HW215867   0.654   5.040   7.648  0.5673 -0.1097 -0.4822
37830SOL     OW15868   5.164   5.515   8.128  0.3694  0.3412 -0.4952
37830SOL    HW115869   5.183   5.608   8.132  0.4957  0.2892  0.3942
37830SOL    HW215870   5.249   5.473   8.118  0.2127  0.3638 -2.2366
37831SOL     OW15871   8.158   8.363   7.193 -0.0143 -0.0103 -0.1903
37831SOL    HW115872   8.129   8.311   7.268 -2.0986 -0.1794 -1.0751
37831SOL    HW215873   8.130   8.452   7.213  0.1854  0.1007 -0.3934
37832SOL     OW15874   6.902   1.694   0.021 -0.2300  0.4659 -0.3868
37832SOL    HW115875   6.861   1.746   0.091  0.3352  1.0692 -0.4978
37832SOL    HW215876   6.930   1.614   0.065 -1.8748 -0.1614 -0.3861
37833SOL     OW15877   1.384   4.315   2.098 -0.2084  0.0241  0.4843
37833SOL    HW115878   1.289   4.303   2.087 -0.8366  2.0348  2.8465
37833SOL    HW215879   1.415   4.230   2.130 -1.0211 -0.9160 -1.1083
37834SOL     OW15880   7.009   4.092   5.416 -0.3738 -0.0059 -1.1383
37834SOL    HW115881   6.992   4.018   5.475 -1.0591  1.0091 -0.0223
37834SOL    HW215882   7.092   4.070   5.374  0.3208 -0.6186  0.4610
37835SOL     OW15883   1.141  10.788   9.472  0.0114  0.6777 -0.4165
37835SOL    HW115884   1.047  10.790   9.487  0.0793  0.8139  0.0424
37835SOL    HW215885   1.153  10.829   9.386 -0.3840  0.1900 -0.7058
37836SOL     OW15886  10.041   4.847   7.340 -0.4524 -0.3376 -0.0071
37836SOL    HW115887  10.030   4.917   7.406 -2.0658 -0.6185  0.0688
37836SOL    HW215888  10.055   4.894   7.258  0.2969  0.0366  0.3237
37837SOL     OW15889   6.708   3.330   2.251 -0.1213  0.2218 -0.0383
37837SOL    HW115890   6.689   3.418   2.218 -1.2787 -0.4445 -1.2427
37837SOL    HW215891   6.652   3.321   2.328 -0.8381  0.1566 -0.5578
37838SOL     OW15892   2.964   3.227   5.691 -0.2983  0.5404 -0.3812
37838SOL    HW115893   3.010   3.234   5.608  0.8935 -3.1787 -0.2170
37838SOL    HW215894   2.895   3.163   5.675 -0.4128  0.1924  1.3153
37839SOL     OW15895   6.483   2.520   0.964  0.2457 -0.5600 -0.9229
37839SOL    HW115896   6.459   2.506   1.056 -0.0639 -1.0090 -1.0703
37839SOL    HW215897   6.480   2.433   0.925  0.4401 -0.3768 -1.3442
37840SOL     OW15898   6.054   7.728   2.686 -0.2436  0.5768 -0.4939
37840SOL    HW115899   6.088   7.676   2.614 -0.0359 -0.5253  0.3694
37840SOL    HW215900   5.990   7.787   2.646  2.1023  2.2164 -2.0518
37841SOL     OW15901   0.061   6.366   3.395  0.4917  0.3699  0.4499
37841SOL    HW115902   0.100   6.452   3.381 -1.2033  1.0873 -0.2145
37841SOL    HW215903  -0.015   6.364   3.336  0.0013 -1.2613  1.0625
37842SOL     OW15904   5.835   9.137   8.704 -0.3944 -0.5999 -0.2773
37842SOL    HW115905   5.821   9.097   8.790 -1.0248  0.1464 -0.0167
37842SOL    HW215906   5.747   9.148   8.668 -0.2127  0.1793 -0.5069
37843SOL     OW15907  10.780   4.848   9.857 -0.2399 -0.3854  0.1811
37843SOL    HW115908  10.843   4.811   9.794 -1.0414 -1.8932  0.2174
37843SOL    HW215909  10.729   4.772   9.886 -0.9997  0.5650  1.3793
37844SOL     OW15910   0.013  10.447   7.805 -0.2790 -0.5599  0.1510
37844SOL    HW115911   0.060  10.517   7.759  2.4221 -1.8190  0.7820
37844SOL    HW215912  -0.036  10.401   7.736  0.4215  0.0609 -0.7852
37845SOL     OW15913   6.411   8.732   5.358  0.1630 -0.4651 -0.3021
37845SOL    HW115914   6.471   8.735   5.284  2.6907 -1.8193  1.5414
37845SOL    HW215915   6.335   8.683   5.326 -0.2803  1.6968 -2.8428
37846SOL     OW15916   5.576   6.539   8.591  0.4873  0.5979  0.7781
37846SOL    HW115917   5.667   6.564   8.605  0.7995 -0.6469  1.0890
37846SOL    HW215918   5.557   6.478   8.661 -0.0311 -0.5207 -0.2940
37847SOL     OW15919   0.087   1.172  10.722  0.5492  0.5685  0.1594
37847SOL    HW115920   0.003   1.131  10.741  0.1081  1.8959  1.2366
37847SOL    HW215921   0.140   1.157  10.800  1.8844 -1.4888 -1.0399
37848SOL     OW15922   8.649   2.045   0.610  1.1680 -0.0061 -0.1858
37848SOL    HW115923   8.588   2.107   0.650  1.1601  0.6137 -1.1184
37848SOL    HW215924   8.686   1.997   0.683 -1.6094 -1.5245  0.3644
37849SOL     OW15925  10.220   8.341   7.116 -0.1937 -0.0541  0.2584
37849SOL    HW115926  10.244   8.271   7.177 -0.3072 -1.2689 -1.0371
37849SOL    HW215927  10.267   8.418   7.148 -0.3618 -0.6021  1.9502
37850SOL     OW15928   4.435   8.569   6.849  0.5262 -0.1557  0.2928
37850SOL    HW115929   4.412   8.637   6.785  0.5748 -0.6126 -0.2260
37850SOL    HW215930   4.518   8.534   6.818  1.4786  0.8514  1.6383
37851SOL     OW15931   7.464   4.087   2.034  0.2404 -0.0799  0.0769
37851SOL    HW115932   7.474   4.018   2.099  1.5382  0.6477  0.6763
37851SOL    HW215933   7.460   4.041   1.950  1.1616 -0.8851  0.4647
37852SOL     OW15934   9.565   8.251   6.071 -0.0202  0.4315  0.4812
37852SOL    HW115935   9.620   8.198   6.013  0.7847  0.2580  1.3713
37852SOL    HW215936   9.615   8.257   6.152 -1.7838 -0.6528  1.7303
37853SOL     OW15937   9.262   0.027   4.967 -0.0676 -0.3400  0.3229
37853SOL    HW115938   9.203  -0.046   4.946  0.9147 -1.9772  2.8475
37853SOL    HW215939   9.219   0.073   5.038 -0.3552  1.2089 -0.8073
37854SOL     OW15940   5.722   4.928   4.873 -0.1588  0.3841  0.8602
37854SOL    HW115941   5.715   4.878   4.791  0.7149 -0.7581  1.4520
37854SOL    HW215942   5.652   4.894   4.928 -0.2544  0.6113  0.8835
37855SOL     OW15943   0.947  10.775   0.330  0.4019 -0.0581  0.3299
37855SOL    HW115944   1.032  10.777   0.374  1.0454 -0.0954 -0.8612
37855SOL    HW215945   0.934  10.864   0.299  0.1575 -0.1241  0.2427
37856SOL     OW15946   0.410   7.148   4.371 -0.2361  0.4782 -0.1063
37856SOL    HW115947   0.482   7.209   4.386  0.3784 -0.4081  0.7012
37856SOL    HW215948   0.398   7.104   4.455 -1.5360  0.3995 -0.3136
37857SOL     OW15949   4.334   8.130   4.728  0.7922  0.6330 -0.0074
37857SOL    HW115950   4.328   8.224   4.742  0.1174  0.3392  1.9882
37857SOL    HW215951   4.402   8.100   4.788 -1.5911 -0.5848  2.3315
37858SOL     OW15952   9.077   4.871   2.427 -0.1474  0.5813 -0.5712
37858SOL    HW115953   9.152   4.845   2.373  0.3369 -1.8363  1.0635
37858SOL    HW215954   9.006   4.814   2.397 -0.0299 -0.3661  0.8677
37859SOL     OW15955  10.268   6.238   7.567  0.1175  0.3535 -0.0487
37859SOL    HW115956  10.317   6.275   7.494 -0.3224 -0.8025 -0.9618
37859SOL    HW215957  10.226   6.313   7.609  1.7211  1.2405  0.0740
37860SOL     OW15958   9.897   6.905   1.579  0.7473  0.1634 -0.0391
37860SOL    HW115959   9.970   6.967   1.576 -0.5960  1.7811 -0.7385
37860SOL    HW215960   9.867   6.900   1.489  1.0026 -1.8061 -0.0635
37861SOL     OW15961   7.795   4.537   7.299  0.0785  0.5781  0.0915
37861SOL    HW115962   7.729   4.522   7.232  0.6916 -0.7591 -0.2577
37861SOL    HW215963   7.752   4.511   7.381  0.3960 -1.1539 -0.2395
37862SOL     OW15964   2.703   0.163   5.892 -0.4662  0.3523  0.1682
37862SOL    HW115965   2.705   0.224   5.818  0.7483  2.7597  2.0231
37862SOL    HW215966   2.619   0.118   5.884 -2.1188  3.3209 -0.5812
37863SOL     OW15967   0.119   4.534   8.677 -0.2032 -0.1884 -0.2525
37863SOL    HW115968   0.188   4.588   8.716 -1.2674  1.0485 -0.0087
37863SOL    HW215969   0.090   4.477   8.748  1.8487 -2.1272 -0.8610
37864SOL     OW15970   8.857   8.095   5.486  0.0156  0.5733 -0.6000
37864SOL    HW115971   8.898   8.122   5.568  1.0149 -0.7986 -0.6147
37864SOL    HW215972   8.815   8.011   5.505  2.8616 -1.3672 -2.1249
37865SOL     OW15973   7.145   0.604  10.369  0.8170 -0.0563  0.0901
37865SOL    HW115974   7.112   0.536  10.427  1.4015 -0.9135 -0.5607
37865SOL    HW215975   7.151   0.562  10.283  1.9560  0.5607 -0.1586
37866SOL     OW15976   4.710   4.672   4.401  0.1656  0.4371 -0.7340
37866SOL    HW115977   4.724   4.640   4.490  1.0045  2.8619  0.0810
37866SOL    HW215978   4.790   4.649   4.354  0.6173  0.9901 -0.2529
37867SOL     OW15979   0.116   7.678   4.040  0.1881 -0.2910 -0.6637
37867SOL    HW115980   0.085   7.682   4.130 -0.1473 -0.7424 -0.7574
37867SOL    HW215981   0.037   7.690   3.987  0.5951  1.7249 -0.9128
37868SOL     OW15982   8.819   4.635   4.033 -0.2139  0.9509  0.3831
37868SOL    HW115983   8.799   4.548   3.998  0.0045  1.4642 -1.0799
37868SOL    HW215984   8.909   4.652   4.005 -0.1430  1.5170  0.9381
37869SOL     OW15985   2.846   8.606   4.949  0.0368 -0.3169 -0.3025
37869SOL    HW115986   2.775   8.660   4.984 -0.3096 -1.4914  0.9060
37869SOL    HW215987   2.808   8.518   4.944  1.2049 -0.8418 -0.2339
37870SOL     OW15988   2.225   1.547   5.041 -0.5133 -0.1862 -0.2860
37870SOL    HW115989   2.179   1.469   5.070  0.5875 -1.1559 -1.0765
37870SOL    HW215990   2.264   1.583   5.120 -0.4867 -0.7977 -0.0190
37871SOL     OW15991   6.562   0.776   7.977 -0.0535  0.2913  0.2711
37871SOL    HW115992   6.530   0.785   8.066  0.0346  1.8423  0.1642
37871SOL    HW215993   6.492   0.811   7.922 -0.1776 -0.8043 -0.2950
37872SOL     OW15994   1.900   9.202   8.685  0.3578 -0.2367 -0.4996
37872SOL    HW115995   1.905   9.150   8.604 -0.1345  0.0145 -0.6987
37872SOL    HW215996   1.870   9.288   8.656 -2.9079 -0.9702  0.2373
37873SOL     OW15997   1.585   4.606  10.408 -0.3038 -0.6399 -0.4344
37873SOL    HW115998   1.581   4.650  10.493  1.9121 -1.9949  0.4558
37873SOL    HW215999   1.502   4.558  10.402 -0.6254 -0.2800  0.8243
37874SOL     OW16000   1.603   4.126   2.487 -0.5729 -0.5127 -0.3334
37874SOL    HW116001   1.685   4.173   2.475 -0.0939 -1.4395 -0.7665
37874SOL    HW216002   1.535   4.194   2.483  0.1335  0.1979 -0.4075
37875SOL     OW16003   0.505   3.141   2.354 -0.4516 -0.3767 -0.1091
37875SOL    HW116004   0.527   3.103   2.268 -0.9955 -0.8768 -0.0323
37875SOL    HW216005   0.468   3.069   2.403 -2.1143  0.3928 -0.1744
37876SOL     OW16006   2.266   9.429   6.137 -0.0159 -0.1850  0.2029
37876SOL    HW116007   2.190   9.371   6.139  0.7998 -1.3641 -1.3612
37876SOL    HW216008   2.310   9.409   6.055  0.5945  2.3083 -0.1724
37877SOL     OW16009   7.181  10.525   0.738 -0.6085  0.2715  0.4040
37877SOL    HW116010   7.175  10.515   0.833 -2.3701  1.9466  0.5452
37877SOL    HW216011   7.133  10.606   0.719  0.4773  0.4826 -1.8394
37878SOL     OW16012   4.256   8.989   8.098  0.7696  0.1283 -0.0090
37878SOL    HW116013   4.187   8.952   8.043  1.0846  1.1500 -1.1282
37878SOL    HW216014   4.218   9.070   8.132  1.7824  1.3177 -1.5789
37879SOL     OW16015   7.200   2.357   0.777  0.2619 -0.2520  0.2078
37879SOL    HW116016   7.197   2.446   0.813 -0.6675  0.2112 -0.9443
37879SOL    HW216017   7.247   2.366   0.694 -2.0535 -0.3172 -1.1839
37880SOL     OW16018   6.844   9.198   2.795 -0.2800 -0.0212 -0.1952
37880SOL    HW116019   6.840   9.272   2.855  0.3994 -0.1071 -0.0348
37880SOL    HW216020   6.799   9.228   2.716 -0.7215  0.2732  0.1603
37881SOL     OW16021   5.919   4.203  10.161 -0.0592  0.5366  0.2786
37881SOL    HW116022   5.865   4.213  10.239 -0.2516  1.9948 -0.0069
37881SOL    HW216023   6.009   4.201  10.193 -0.0547  2.4819  0.4797
37882SOL     OW16024   1.777   2.943  10.000 -0.0371  0.0784  0.4230
37882SOL    HW116025   1.701   2.975   9.951  0.4960  0.4954 -0.1516
37882SOL    HW216026   1.837   2.910   9.933  0.8556  0.9671  0.7609
37883SOL     OW16027   5.152   2.493  10.780  0.0746  0.3751 -0.0136
37883SOL    HW116028   5.097   2.553  10.831  2.2339  0.8703  1.8909
37883SOL    HW216029   5.151   2.412  10.832  1.4045  0.5139  0.2484
37884SOL     OW16030   0.312   8.976   4.162 -0.3315 -0.1805 -0.3263
37884SOL    HW116031   0.350   8.980   4.074  1.2498 -2.0828  0.1765
37884SOL    HW216032   0.229   8.931   4.150  0.7850 -2.3054 -0.6923
37885SOL     OW16033   2.302   4.415   0.868  0.6101 -0.4629  0.0706
37885SOL    HW116034   2.362   4.488   0.851  0.0416  0.0194  0.0837
37885SOL    HW216035   2.284   4.419   0.962  0.8113 -0.8078  0.1258
37886SOL     OW16036  10.450   9.933   7.691 -0.7331  0.1021 -0.5765
37886SOL    HW116037  10.382   9.915   7.626 -0.4253  0.7251 -1.0823
37886SOL    HW216038  10.439  10.025   7.713  1.0926  0.7285 -2.0511
37887SOL     OW16039   5.860   6.355   0.940  0.0593  0.1113  0.4220
37887SOL    HW116040   5.777   6.342   0.894  0.8411 -2.5570 -0.4307
37887SOL    HW216041   5.860   6.289   1.008  1.2978  0.3824  0.7113
37888SOL     OW16042   2.360   4.252   2.542  0.0524  0.0367 -0.2884
37888SOL    HW116043   2.424   4.187   2.573  2.2551  2.1702 -0.0786
37888SOL    HW216044   2.404   4.294   2.468 -1.0649  1.6426 -0.0709
37889SOL     OW16045   5.989   6.251   6.324  0.4574  0.0837  0.3031
37889SOL    HW116046   5.970   6.327   6.270 -0.3512  0.0433  0.5147
37889SOL    HW216047   6.016   6.288   6.408  1.2817  0.1422  0.0181
37890SOL     OW16048   4.175   9.747   5.649 -0.1157  0.1822 -0.2730
37890SOL    HW116049   4.152   9.659   5.677  0.0420  0.9444  2.6236
37890SOL    HW216050   4.260   9.738   5.606  0.0561 -1.0404  0.2934
37891SOL     OW16051  10.392   7.168  10.192 -0.1219  0.3776  0.2774
37891SOL    HW116052  10.393   7.078  10.223  0.5087  0.2448 -0.1016
37891SOL    HW216053  10.305   7.180  10.154 -1.6238  1.0779  3.5596
37892SOL     OW16054   3.399   2.832   5.308 -0.4440  0.3699 -0.1241
37892SOL    HW116055   3.461   2.875   5.367  1.9969 -0.3969 -1.9874
37892SOL    HW216056   3.348   2.903   5.269  0.3032  1.1531  0.3086
37893SOL     OW16057   9.637   3.233   3.361 -0.1389 -0.5908 -0.4572
37893SOL    HW116058   9.609   3.232   3.269 -2.3121 -2.4453  0.1068
37893SOL    HW216059   9.656   3.141   3.381  0.5268 -0.1840  0.8953
37894SOL     OW16060   9.830   4.047   8.879 -0.6619  0.7357  0.7129
37894SOL    HW116061   9.773   4.098   8.820  0.3473  1.4071  0.2745
37894SOL    HW216062   9.771   3.987   8.923 -1.1827 -1.7986 -2.9850
37895SOL     OW16063   2.991   2.713   2.604  0.2553 -0.0544  0.5249
37895SOL    HW116064   2.934   2.646   2.641 -0.2814 -0.8095 -1.5448
37895SOL    HW216065   3.038   2.669   2.533  0.8546  1.4343 -0.0500
37896SOL     OW16066   5.061   9.340   0.225  0.1877 -0.7297 -0.3819
37896SOL    HW116067   4.987   9.294   0.186 -0.5136 -2.0303  2.2433
37896SOL    HW216068   5.129   9.274   0.233  1.5493  0.3457 -2.3404
37897SOL     OW16069   8.850   4.706   2.381 -0.2188 -0.6203 -0.2895
37897SOL    HW116070   8.870   4.639   2.446 -0.8210  0.1951  0.7592
37897SOL    HW216071   8.764   4.682   2.347 -0.4233 -0.3854  0.0673
37898SOL     OW16072   8.885   5.875   1.254 -0.1496  1.2523  0.6908
37898SOL    HW116073   8.790   5.865   1.263 -0.3176  1.6837 -0.4200
37898SOL    HW216074   8.898   5.886   1.160  1.1619 -0.4944  0.6278
37899SOL     OW16075   7.702   7.289   9.189  0.2564  0.4285 -0.8416
37899SOL    HW116076   7.773   7.253   9.242 -0.4645 -0.5414 -0.5177
37899SOL    HW216077   7.728   7.380   9.173  0.4784  0.7817  1.2322
37900SOL     OW16078   6.291   1.689   1.599  0.0761  0.1384  0.8018
37900SOL    HW116079   6.263   1.708   1.510  2.2141 -2.2484 -0.5105
37900SOL    HW216080   6.357   1.755   1.619  1.4190 -0.7700 -0.4432
37901SOL     OW16081   6.156   8.397   9.564 -0.5655  0.3818 -0.1468
37901SOL    HW116082   6.182   8.406   9.472 -0.3236 -0.1295 -0.1299
37901SOL    HW216083   6.158   8.486   9.598  3.0587  0.2268  0.3946
37902SOL     OW16084   7.230   7.673   2.457 -0.3165  0.1076  0.1295
37902SOL    HW116085   7.262   7.583   2.449 -1.3902 -0.2266 -0.5699
37902SOL    HW216086   7.305   7.722   2.491  0.2539 -1.0652  0.6223
37903SOL     OW16087   0.604   3.797   8.498 -0.2589 -0.3134 -0.2297
37903SOL    HW116088   0.528   3.824   8.446 -1.0396  0.4769  1.2532
37903SOL    HW216089   0.566   3.761   8.579  0.9422 -0.3464  0.3396
37904SOL     OW16090   6.548   8.128   1.613 -0.4240 -0.3794 -0.3418
37904SOL    HW116091   6.477   8.192   1.621 -0.7458 -0.5504 -1.5823
37904SOL    HW216092   6.558   8.091   1.701 -0.4089  1.1773  0.3475
37905SOL     OW16093   7.669   4.821   4.403 -0.7181 -0.1037  0.2061
37905SOL    HW116094   7.590   4.871   4.380 -1.5509 -0.5102  2.0019
37905SOL    HW216095   7.724   4.883   4.451 -0.4313 -0.1208 -0.0982
37906SOL     OW16096   2.471   2.533   0.283 -0.5190  0.1773  0.5528
37906SOL    HW116097   2.409   2.490   0.224 -0.9014  1.5545 -0.0804
37906SOL    HW216098   2.556   2.527   0.238 -0.8937  1.6595 -0.4240
37907SOL     OW16099   6.225   9.154   9.016  0.3409 -0.0721 -0.7099
37907SOL    HW116100   6.145   9.102   9.005  0.3532  0.1288 -1.8725
37907SOL    HW216101   6.284   9.097   9.065  0.7525 -1.6410 -2.8723
37908SOL     OW16102   3.773   4.080   9.734 -0.3263  0.3190  0.3879
37908SOL    HW116103   3.822   4.158   9.761 -2.0259  1.5190  0.1513
37908SOL    HW216104   3.821   4.007   9.774  0.6256  1.5678  1.6247
37909SOL     OW16105   1.464   4.968   5.764  0.1886 -0.0890  0.8280
37909SOL    HW116106   1.486   4.955   5.672 -0.2804 -1.7032  0.9063
37909SOL    HW216107   1.540   5.013   5.801  0.9027 -0.5113 -0.0923
37910SOL     OW16108   3.257   5.433   3.645  0.6386  0.1476 -0.4566
37910SOL    HW116109   3.196   5.464   3.712  0.4500 -0.2916 -0.4239
37910SOL    HW216110   3.224   5.469   3.563  0.3641 -0.0510 -0.4325
37911SOL     OW16111   9.354   8.181   8.480 -0.3028 -0.1567  0.5289
37911SOL    HW116112   9.355   8.227   8.564 -0.2799 -0.6496  0.8056
37911SOL    HW216113   9.397   8.098   8.498  1.4128  0.4751 -0.4120
37912SOL     OW16114   3.496   5.749   9.976 -0.3583 -0.1514 -0.3625
37912SOL    HW116115   3.589   5.768   9.977 -0.1827 -0.9720 -0.1518
37912SOL    HW216116   3.467   5.772   9.887  0.3576 -1.3002 -0.9137
37913SOL     OW16117   9.040   1.287   7.389  1.0038  0.6553  0.2323
37913SOL    HW116118   9.071   1.374   7.364 -1.5625  1.8747  1.0522
37913SOL    HW216119   9.035   1.289   7.484  0.6717 -0.3312  0.2502
37914SOL     OW16120   0.094   8.289   2.801  0.2268 -0.6242  0.4566
37914SOL    HW116121   0.106   8.356   2.868  1.9769 -1.3190  0.8985
37914SOL    HW216122   0.047   8.333   2.730  0.2351  0.6980  1.2524
37915SOL     OW16123   5.336   6.866   5.332 -0.6878  0.0270 -0.2645
37915SOL    HW116124   5.310   6.954   5.306 -0.5253  0.4323  0.8791
37915SOL    HW216125   5.379   6.830   5.255 -0.5266  1.0397 -0.6670
37916SOL     OW16126   6.943   9.374   9.156  0.1671  0.0368 -0.5015
37916SOL    HW116127   7.028   9.399   9.121  0.0831 -0.8318 -1.3839
37916SOL    HW216128   6.888   9.451   9.143  0.8111  0.6093  0.0854
37917SOL     OW16129   3.570   8.025  10.529 -0.4118 -0.0589  0.4452
37917SOL    HW116130   3.585   8.115  10.499 -0.5760 -0.2094 -0.1140
37917SOL    HW216131   3.482   8.027  10.566 -0.3683  0.0383  0.5447
37918SOL     OW16132   0.179   0.874   0.395  0.1619 -0.2508 -0.4599
37918SOL    HW116133   0.165   0.941   0.462 -0.3136 -1.0221  0.2334
37918SOL    HW216134   0.105   0.883   0.335 -0.6422 -1.0161  0.3846
37919SOL     OW16135   1.630  10.402   6.339 -0.2942 -0.2386 -0.3339
37919SOL    HW116136   1.621  10.348   6.418 -2.1834  1.7084  0.8976
37919SOL    HW216137   1.599  10.346   6.268  0.8448 -1.8257  0.3654
37920SOL     OW16138   3.975   1.300   9.017 -0.0713 -0.3562 -0.0377
37920SOL    HW116139   4.064   1.297   9.051 -0.9168 -0.0379  2.4641
37920SOL    HW216140   3.953   1.393   9.017 -0.6694 -0.4917  0.1933
37921SOL     OW16141   0.625   6.481   8.606  0.0391 -0.3235 -0.4449
37921SOL    HW116142   0.609   6.388   8.623  1.2643 -0.3590  0.6754
37921SOL    HW216143   0.656   6.516   8.690 -1.9691  1.4884 -0.3768
37922SOL     OW16144   6.916   4.279   0.739 -0.0292  0.0807 -0.1799
37922SOL    HW116145   6.869   4.350   0.783  0.2732  0.4818 -0.4973
37922SOL    HW216146   7.004   4.281   0.777  0.8213  1.6254 -2.0473
37923SOL     OW16147   5.556  10.708   3.235  0.4255 -0.1506  0.3344
37923SOL    HW116148   5.552  10.654   3.156  0.9960 -0.4201  0.4794
37923SOL    HW216149   5.487  10.773   3.224  2.1388  1.4882 -1.6126
37924SOL     OW16150   1.269   8.033  10.106 -0.2689  0.7219 -0.2706
37924SOL    HW116151   1.219   8.085  10.168  0.0805 -0.0190  0.6690
37924SOL    HW216152   1.354   8.020  10.149  0.6670  1.7528 -1.7251
37925SOL     OW16153   4.312   6.914   6.507 -0.1300  0.3071 -0.8091
37925SOL    HW116154   4.344   6.863   6.432 -0.3388  0.6606 -1.1433
37925SOL    HW216155   4.296   6.849   6.575  1.1784  0.0981 -0.6685
37926SOL     OW16156   4.681   5.836  10.097 -0.2724 -0.2700  0.3499
37926SOL    HW116157   4.761   5.839  10.044 -0.0594 -0.8423  0.6306
37926SOL    HW216158   4.685   5.751  10.142 -1.0990 -0.3573  0.2729
37927SOL     OW16159  10.760   8.877   8.205  0.1875  0.0799  0.4514
37927SOL    HW116160  10.698   8.803   8.204  1.4213 -1.0121 -0.9495
37927SOL    HW216161  10.837   8.843   8.251  1.3582 -0.0922 -1.5070
37928SOL     OW16162   2.007   1.908   4.003  0.0214  0.4132  0.3950
37928SOL    HW116163   2.021   1.828   3.953 -1.6384  0.7622 -0.6996
37928SOL    HW216164   2.076   1.906   4.070  1.5674 -0.6801 -1.1201
37929SOL     OW16165   9.602   6.314   8.806  0.7115 -0.1946  0.3887
37929SOL    HW116166   9.693   6.326   8.834  1.1090  0.8945 -1.2666
37929SOL    HW216167   9.554   6.302   8.888  1.9635  1.7758  1.5063
37930SOL     OW16168   7.199   7.105   3.112 -0.9165  0.0513  0.0676
37930SOL    HW116169   7.216   7.139   3.024  1.3393 -2.1732 -0.4687
37930SOL    HW216170   7.263   7.150   3.168 -0.5432 -0.4893  0.0750
37931SOL     OW16171   7.688   7.013   0.545  0.5148 -0.7337  0.1956
37931SOL    HW116172   7.693   7.043   0.636 -1.8181  2.3066 -0.4949
37931SOL    HW216173   7.598   6.981   0.535  0.4669 -0.2635 -1.1820
37932SOL     OW16174   2.480   3.703   5.714 -0.3578  0.6194  0.4336
37932SOL    HW116175   2.393   3.688   5.751  1.0507 -0.0350  3.8716
37932SOL    HW216176   2.534   3.728   5.789  2.0338  3.0839 -1.8748
37933SOL     OW16177   6.803   5.419   5.185 -0.0129  0.0738 -0.1283
37933SOL    HW116178   6.886   5.415   5.137  0.2140  0.8285  0.1737
37933SOL    HW216179   6.808   5.347   5.247  0.4225  0.1032 -0.1217
37934SOL     OW16180   2.245   4.734   5.852  0.0860 -0.2992 -0.2457
37934SOL    HW116181   2.225   4.675   5.779 -0.7400 -0.5589  0.1824
37934SOL    HW216182   2.314   4.688   5.901  0.3774 -0.2965 -0.6497
37935SOL     OW16183   4.327   9.238   8.910  0.2069 -0.2722  0.0445
37935SOL    HW116184   4.276   9.157   8.903  1.0058 -0.6817 -1.4318
37935SOL    HW216185   4.402   9.215   8.964  0.8364 -0.7665 -1.0018
37936SOL     OW16186   4.324   3.236   2.513 -0.0992 -0.4741 -0.0809
37936SOL    HW116187   4.339   3.142   2.503 -0.4979 -0.4680 -0.7935
37936SOL    HW216188   4.266   3.259   2.440 -0.1623  0.2876  0.2013
37937SOL     OW16189   2.229   6.770   1.623  0.6226 -0.3181 -0.1059
37937SOL    HW116190   2.233   6.864   1.608  1.5375 -0.3856 -0.3510
37937SOL    HW216191   2.238   6.761   1.718 -0.3755 -0.1183  0.0104
37938SOL     OW16192  10.005   7.121  10.299 -0.0680 -0.1265 -0.4465
37938SOL    HW116193  10.018   7.184  10.228 -0.8771  0.9466  0.3160
37938SOL    HW216194   9.919   7.082  10.282 -0.2989  0.1912 -0.0222
37939SOL     OW16195   9.103   5.801  10.549  0.5200 -0.3465  0.1273
37939SOL    HW116196   9.168   5.769  10.612 -0.2223 -0.5399  0.8074
37939SOL    HW216197   9.098   5.896  10.566  1.1851 -0.1959 -0.4622
37940SOL     OW16198   8.620   8.659   2.536  0.2886  0.5870 -0.1035
37940SOL    HW116199   8.611   8.740   2.486 -0.0118  0.1988 -0.6907
37940SOL    HW216200   8.710   8.661   2.570  0.5383  0.7891 -0.7736
37941SOL     OW16201   4.704   1.014   5.170  0.1728 -0.4207 -0.2091
37941SOL    HW116202   4.663   1.067   5.102 -0.2072 -1.2752 -0.6607
37941SOL    HW216203   4.638   0.949   5.195  0.5204 -0.5032  0.5401
37942SOL     OW16204   7.596   7.086   4.681 -0.3762  0.2415  0.3272
37942SOL    HW116205   7.576   7.103   4.773 -1.2796  1.1013 -0.0106
37942SOL    HW216206   7.540   7.147   4.633  0.5546  0.2614 -0.7719
37943SOL     OW16207   4.948   6.529   2.915  0.2385 -0.5836 -0.6277
37943SOL    HW116208   4.884   6.536   2.844  0.5045 -0.6375 -0.8731
37943SOL    HW216209   5.023   6.485   2.875  1.8575  2.5238 -1.3034
37944SOL     OW16210   0.748   2.772   9.997 -0.0384 -0.0000  0.3287
37944SOL    HW116211   0.831   2.730   9.977  0.5967  0.9893  0.7730
37944SOL    HW216212   0.724   2.817   9.916  0.5834  0.8441  0.5893
37945SOL     OW16213   4.626   7.104   4.435 -0.2557  0.3341 -0.1119
37945SOL    HW116214   4.611   7.178   4.376 -1.6309  0.4956  0.4088
37945SOL    HW216215   4.720   7.108   4.454  0.7998 -1.1386 -4.0858
37946SOL     OW16216   0.100   9.093   8.633 -0.0618 -0.1778 -0.1239
37946SOL    HW116217   0.150   9.130   8.705  0.1484  0.2214 -0.4700
37946SOL    HW216218   0.047   9.166   8.600 -2.4965 -1.0569  1.5653
37947SOL     OW16219   4.394   9.501   5.942 -0.2942  0.4560 -0.1490
37947SOL    HW116220   4.409   9.594   5.958 -1.1825  1.0497 -2.3854
37947SOL    HW216221   4.351   9.498   5.857  1.2949 -2.1067 -0.9750
37948SOL     OW16222   6.059   1.493   2.336 -0.4406  0.6575 -0.0002
37948SOL    HW116223   6.072   1.433   2.263  0.1644  0.1449  0.5176
37948SOL    HW216224   6.082   1.579   2.301 -1.0296  0.5508 -0.6645
37949SOL     OW16225   0.569   6.786   5.769  0.2268 -0.1137 -0.0577
37949SOL    HW116226   0.522   6.802   5.687 -1.0538 -1.3667  0.3898
37949SOL    HW216227   0.661   6.774   5.743 -0.2405 -1.0131 -1.3913
37950SOL     OW16228   3.953   3.474   5.366 -0.1830 -0.5760 -0.3763
37950SOL    HW116229   3.895   3.517   5.428 -0.8829  0.3775 -1.6391
37950SOL    HW216230   4.004   3.413   5.419 -0.9796 -0.0398  1.0646
37951SOL     OW16231   9.880   3.163   2.861  0.5188 -0.5793 -0.2951
37951SOL    HW116232   9.832   3.240   2.892  0.2187 -0.7126 -0.4287
37951SOL    HW216233   9.845   3.147   2.773 -0.8684 -2.0646  0.4697
37952SOL     OW16234   0.254   3.813   9.304 -0.3815  0.0287  0.3366
37952SOL    HW116235   0.221   3.742   9.360  1.2930 -0.4216  0.8277
37952SOL    HW216236   0.233   3.785   9.215 -0.8786 -0.4563  0.5959
37953SOL     OW16237   1.506   1.863  10.502  0.3138 -0.1959  0.3868
37953SOL    HW116238   1.486   1.859  10.409  1.3703 -0.7004  0.1658
37953SOL    HW216239   1.555   1.945  10.512  0.5884 -0.3646  0.4212
37954SOL     OW16240   7.853   4.426   3.469  0.5370 -0.3911  0.1654
37954SOL    HW116241   7.917   4.394   3.532 -0.0851 -0.0334  0.9992
37954SOL    HW216242   7.899   4.495   3.421  2.0949 -2.8556 -2.0924
37955SOL     OW16243   9.829   9.058   6.418  0.8146  0.3339 -0.3352
37955SOL    HW116244   9.857   9.000   6.348  0.5361 -1.3212  0.8785
37955SOL    HW216245   9.745   9.022   6.447  0.3069  1.7299  0.0423
37956SOL     OW16246   7.786   8.094   1.416  0.5757 -0.2058  0.5265
37956SOL    HW116247   7.850   8.043   1.466 -0.6654 -1.5715  0.7796
37956SOL    HW216248   7.783   8.051   1.331  0.3494  0.1663  0.3451
37957SOL     OW16249   5.841   9.705   7.939  0.4160  0.1311  0.7766
37957SOL    HW116250   5.854   9.705   8.034  2.1085 -0.6644  0.5919
37957SOL    HW216251   5.921   9.664   7.905 -0.3312  0.0677 -0.9691
37958SOL     OW16252   5.280   0.102   8.829 -0.3006 -0.5734  0.3244
37958SOL    HW116253   5.213   0.112   8.896 -0.2402  0.0393  0.2940
37958SOL    HW216254   5.262   0.017   8.790  0.1744 -1.3448  1.6895
37959SOL     OW16255   0.351   9.787   5.962  0.1322 -0.3435  0.0716
37959SOL    HW116256   0.308   9.822   6.040  1.6131  0.1648  0.7066
37959SOL    HW216257   0.306   9.830   5.889  0.8653  1.7664  0.7811
37960SOL     OW16258   8.504   1.417   2.536  0.3880 -0.5623  0.2158
37960SOL    HW116259   8.458   1.480   2.590 -1.5029 -1.6610 -0.0425
37960SOL    HW216260   8.546   1.358   2.599 -1.1471 -1.3662  0.5357
37961SOL     OW16261  10.756   7.354   0.161 -0.4473  0.6600  0.8374
37961SOL    HW116262  10.728   7.272   0.201 -1.6054  1.4468  1.7327
37961SOL    HW216263  10.848   7.341   0.139 -0.7584 -1.0620  0.4377
37962SOL     OW16264   7.134   2.637   2.075 -0.3902  0.2167  0.0824
37962SOL    HW116265   7.097   2.613   2.159  1.1101 -0.7087  0.5359
37962SOL    HW216266   7.159   2.553   2.035 -0.2178  0.6935 -0.8607
37963SOL     OW16267   3.526   8.354   7.180  0.7297  0.6868  0.6812
37963SOL    HW116268   3.520   8.290   7.250  0.3345  1.7753  1.6794
37963SOL    HW216269   3.527   8.302   7.099 -1.2782 -0.5055  1.3684
37964SOL     OW16270   4.965   8.392   6.959  0.8767  0.0232 -0.0716
37964SOL    HW116271   4.930   8.321   7.012  1.1217  0.3088  0.4794
37964SOL    HW216272   5.011   8.449   7.022 -0.1804  1.2115 -0.3272
37965SOL     OW16273   4.347  10.220   4.611  0.2171  0.0497  0.0817
37965SOL    HW116274   4.377  10.209   4.521  0.0856  0.9812 -0.0877
37965SOL    HW216275   4.423  10.200   4.665  1.4691  3.0786 -0.3551
37966SOL     OW16276   2.582   0.212   8.127 -0.4123  0.0361  0.5408
37966SOL    HW116277   2.494   0.198   8.163  0.6424 -1.4649  2.7513
37966SOL    HW216278   2.614   0.290   8.173  0.2072 -0.7227  1.4239
37967SOL     OW16279   1.080   7.201   4.872  0.8128 -0.2314 -0.6224
37967SOL    HW116280   1.003   7.155   4.839  0.8441 -2.4717  2.0879
37967SOL    HW216281   1.135   7.132   4.910  1.5315  1.7972  2.4205
37968SOL     OW16282   2.038   3.918   3.196  0.5220  0.2033 -0.0915
37968SOL    HW116283   2.001   3.889   3.113 -0.1748  0.6580  0.0460
37968SOL    HW216284   2.071   4.006   3.178  0.7241  0.1502  0.0162
37969SOL     OW16285   2.716  10.197   2.377 -0.0799 -0.6923  0.9208
37969SOL    HW116286   2.806  10.227   2.365 -0.7989  1.5069  0.6166
37969SOL    HW216287   2.665  10.277   2.390 -1.6624 -1.9842  3.6155
37970SOL     OW16288   7.762   2.505   6.367 -0.6376  0.1652  0.3240
37970SOL    HW116289   7.675   2.488   6.403  0.5877  0.4419  3.7415
37970SOL    HW216290   7.766   2.601   6.358 -0.2459  0.3004  1.6374
37971SOL     OW16291   2.756   6.732   3.644 -0.5116  0.2117 -0.0423
37971SOL    HW116292   2.706   6.794   3.592 -2.1262  0.7466  2.0301
37971SOL    HW216293   2.699   6.655   3.651 -0.1503 -0.0021  0.5926
37972SOL     OW16294   6.217   8.045   5.528 -0.9028  0.1445  0.0393
37972SOL    HW116295   6.206   8.138   5.549  0.0844  0.2479  0.1288
37972SOL    HW216296   6.240   8.044   5.435 -1.8897 -0.0899 -0.2175
37973SOL     OW16297   7.430   9.516   4.812  0.3140 -0.2487 -0.1419
37973SOL    HW116298   7.342   9.479   4.803  0.5980 -0.8245 -0.6296
37973SOL    HW216299   7.450   9.508   4.905 -0.3098  0.2637  0.0424
37974SOL     OW16300   1.738   6.352   3.320  0.1984  0.2203  0.7058
37974SOL    HW116301   1.822   6.307   3.326 -0.5634 -1.5209 -0.7245
37974SOL    HW216302   1.753   6.422   3.255  0.0310 -1.5286 -1.3352
37975SOL     OW16303   7.430   1.010   0.649 -0.4627  0.3217  0.2540
37975SOL    HW116304   7.367   1.077   0.675 -0.0799  0.2029  1.5433
37975SOL    HW216305   7.487   0.999   0.725  0.2139 -0.6245 -0.3599
37976SOL     OW16306   4.949  10.024   2.092  0.2279 -0.1095 -1.1160
37976SOL    HW116307   5.021  10.086   2.105 -0.5337  0.8312 -1.2639
37976SOL    HW216308   4.902  10.024   2.175 -0.4739  0.4337 -1.5056
37977SOL     OW16309   7.148   4.056   0.732 -0.3485  0.0477 -0.5542
37977SOL    HW116310   7.230   4.105   0.740 -0.7105  0.7076 -0.8050
37977SOL    HW216311   7.160   3.981   0.790  0.0324  0.6844  0.2189
37978SOL     OW16312   8.427   7.919   5.330  0.6555  0.3424 -0.5608
37978SOL    HW116313   8.336   7.892   5.319  0.7819 -0.1425 -0.4100
37978SOL    HW216314   8.446   7.905   5.423  0.0586  2.9971  0.0456
37979SOL     OW16315   5.128   4.825   5.828 -0.0004  0.1622  0.1516
37979SOL    HW116316   5.088   4.910   5.846 -0.0184  0.0542  0.6259
37979SOL    HW216317   5.055   4.764   5.828 -0.0047  0.1612 -0.3234
37980SOL     OW16318   1.212   9.946   7.435  0.2398 -0.4619  0.0029
37980SOL    HW116319   1.148   9.875   7.445  1.7310 -1.6304  2.2928
37980SOL    HW216320   1.242   9.963   7.525  2.5637  0.5552 -0.9045
37981SOL     OW16321   3.897   6.994   4.152 -0.1126 -0.1481 -0.2799
37981SOL    HW116322   3.881   6.984   4.246 -0.7904  3.2093  0.0864
37981SOL    HW216323   3.958   6.923   4.131  0.5346 -0.6688  2.8234
37982SOL     OW16324   8.262   4.342   9.303  0.3291  0.2706  0.7987
37982SOL    HW116325   8.269   4.421   9.356  0.5359  0.5899  0.3004
37982SOL    HW216326   8.333   4.286   9.335  0.9744  0.7964  0.3056
37983SOL     OW16327   7.995   7.674   3.744  0.2063 -0.0778 -0.8167
37983SOL    HW116328   8.043   7.702   3.822  0.5166  1.9720 -1.6939
37983SOL    HW216329   8.036   7.591   3.719  1.1468  0.0360  0.2725
37984SOL     OW16330   4.027   4.767   2.536  0.5549 -0.2335 -0.5994
37984SOL    HW116331   4.040   4.686   2.586 -1.4218  0.4039  1.0814
37984SOL    HW216332   3.939   4.758   2.499 -0.6103  1.9434  1.3791
37985SOL     OW16333   1.454   2.938   7.208  0.0820 -0.3462 -0.1453
37985SOL    HW116334   1.511   2.880   7.158  0.3887  0.6550 -0.9646
37985SOL    HW216335   1.471   3.025   7.174  0.1183  0.3396  1.5293
37986SOL     OW16336   1.197   6.332   5.705  0.1577  0.6218  0.0311
37986SOL    HW116337   1.290   6.326   5.724  0.0998 -1.1652 -0.0936
37986SOL    HW216338   1.163   6.243   5.721 -1.2534  0.8748 -1.3022
37987SOL     OW16339   7.763   9.829   0.245  0.3907 -0.7744  0.3624
37987SOL    HW116340   7.800   9.887   0.311  0.3388 -0.9421  0.5376
37987SOL    HW216341   7.672   9.816   0.273  0.1675 -0.2983 -0.1077
37988SOL     OW16342   0.841   7.522   2.057  0.4838  0.0647 -0.3558
37988SOL    HW116343   0.747   7.541   2.064  0.5288  0.2744 -0.3262
37988SOL    HW216344   0.845   7.429   2.036  0.3323 -0.7220  2.6031
37989SOL     OW16345   7.492   1.391   6.202 -0.1059 -0.1472 -0.0724
37989SOL    HW116346   7.518   1.305   6.167 -1.2151 -1.2207  1.5792
37989SOL    HW216347   7.397   1.383   6.214 -0.3847  1.6838 -0.7608
37990SOL     OW16348   0.904   5.592   6.749 -0.3565 -0.3898 -0.4579
37990SOL    HW116349   0.861   5.678   6.747  0.7312  0.1801  0.1148
37990SOL    HW216350   0.831   5.529   6.745 -1.1088  0.5356 -2.1521
37991SOL     OW16351   1.521   0.167   4.062 -0.2118  0.0806 -0.1301
37991SOL    HW116352   1.466   0.243   4.041 -1.4652 -0.9732 -0.7900
37991SOL    HW216353   1.461   0.093   4.060  1.0451 -0.9786  0.2221
37992SOL     OW16354   0.800   0.009   4.641  0.4463 -1.1717 -0.6569
37992SOL    HW116355   0.810   0.003   4.546  3.4026  0.1092 -0.5100
37992SOL    HW216356   0.759   0.094   4.655  2.0002 -0.3957 -0.7222
37993SOL     OW16357   0.977   8.680   2.592 -0.0178 -0.1891  0.3278
37993SOL    HW116358   0.963   8.668   2.498 -0.9778 -1.0137  0.5663
37993SOL    HW216359   1.057   8.734   2.597  0.1899 -0.3406 -0.9407
37994SOL     OW16360   9.934   8.737   4.108 -0.3200 -0.4109  0.2712
37994SOL    HW116361   9.891   8.720   4.025  0.3172  1.6570 -0.5413
37994SOL    HW216362  10.019   8.693   4.100  0.3490  1.0192 -0.8148
37995SOL     OW16363   3.124   2.783  10.610  0.5673  0.0707 -0.1804
37995SOL    HW116364   3.167   2.745  10.533  0.3175  0.0112 -0.2900
37995SOL    HW216365   3.067   2.851  10.574 -1.1013 -1.3178 -0.2326
37996SOL     OW16366   2.244   5.823   9.609 -0.2120 -0.0769 -0.1837
37996SOL    HW116367   2.226   5.882   9.537 -1.4199  0.0782  0.2311
37996SOL    HW216368   2.174   5.838   9.672  0.7265 -0.3097  0.9700
37997SOL     OW16369   5.887   5.217   2.450  0.3565 -0.4752  0.4502
37997SOL    HW116370   5.903   5.125   2.426  3.8451 -0.0778  0.8537
37997SOL    HW216371   5.954   5.237   2.515 -0.4889  2.3292  0.5765
37998SOL     OW16372   2.534   9.146   8.086  0.0744  0.1181  0.2414
37998SOL    HW116373   2.567   9.081   8.023 -1.7578 -0.5550 -0.0693
37998SOL    HW216374   2.596   9.219   8.079  1.1028 -0.8086 -0.7918
37999SOL     OW16375   2.284   8.986   7.206 -0.4977 -0.5940 -0.0868
37999SOL    HW116376   2.360   8.967   7.152 -0.2797  0.9743 -0.3975
37999SOL    HW216377   2.213   9.000   7.144 -0.7272 -0.7613  0.1349
38000SOL     OW16378   1.554   9.819   0.914 -0.1729 -0.5369  0.2753
38000SOL    HW116379   1.592   9.742   0.872 -1.4965 -1.0579 -0.0066
38000SOL    HW216380   1.463   9.820   0.885  0.0399  1.6644 -0.4688
38001SOL     OW16381   5.840   6.083   7.829 -0.5135  0.0287  0.4031
38001SOL    HW116382   5.883   6.090   7.914  2.8142 -0.0335 -1.1218
38001SOL    HW216383   5.811   6.172   7.809  0.5848  0.4769  0.7318
38002SOL     OW16384   3.884   5.477   5.993  0.2182  0.3296  0.0848
38002SOL    HW116385   3.790   5.486   5.977  0.4669  0.6140 -1.2772
38002SOL    HW216386   3.906   5.390   5.960  0.1763 -0.3880  1.8180
38003SOL     OW16387   2.207   7.352   5.705  0.2919  0.3368 -0.1526
38003SOL    HW116388   2.239   7.423   5.760  1.9097 -1.8446  1.9264
38003SOL    HW216389   2.133   7.316   5.753 -0.5055  0.5626 -1.1764
38004SOL     OW16390   6.921   1.955   7.430 -0.4326 -0.4877  0.6195
38004SOL    HW116391   6.877   1.876   7.397 -0.3679  0.3116 -1.4755
38004SOL    HW216392   6.850   2.011   7.461 -0.4651 -1.4180  2.3613
38005SOL     OW16393   2.701   0.024   0.065  0.0617  0.0423  0.0659
38005SOL    HW116394   2.784   0.060   0.097  1.2621 -2.2551 -0.3022
38005SOL    HW216395   2.717  -0.070   0.056 -2.3697 -0.3604 -0.7270
38006SOL     OW16396  10.021   2.863   7.728  0.6240 -1.0750  0.1378
38006SOL    HW116397  10.109   2.893   7.705  1.0316 -0.5103  2.2093
38006SOL    HW216398  10.032   2.772   7.754  0.9157 -0.6347  1.7183
38007SOL     OW16399   2.981   0.343   5.842 -0.0602 -0.3944  0.1313
38007SOL    HW116400   3.050   0.302   5.895 -0.6834 -0.6466  0.7586
38007SOL    HW216401   2.921   0.381   5.906 -1.0799 -1.1148 -0.3686
38008SOL     OW16402   1.936   8.893   2.771 -0.0598 -0.0848  0.5677
38008SOL    HW116403   1.983   8.944   2.837  0.1428  0.4342  0.0290
38008SOL    HW216404   1.935   8.949   2.693 -0.6685 -0.5126  0.2565
38009SOL     OW16405   3.409   5.734   1.593 -0.0680  0.8026  0.3069
38009SOL    HW116406   3.480   5.669   1.598 -0.9438 -0.4571 -1.9303
38009SOL    HW216407   3.407   5.758   1.500 -1.9092  1.5555  0.5109
38010SOL     OW16408   0.734   8.755   6.572  0.2088  0.1250 -0.4098
38010SOL    HW116409   0.685   8.801   6.640  0.8466 -2.4838  2.0064
38010SOL    HW216410   0.825   8.781   6.585  0.2289  0.3404 -0.9308
38011SOL     OW16411   4.669   2.581   4.649  0.0873 -0.1964  0.1932
38011SOL    HW116412   4.663   2.579   4.554  2.7453 -2.3652 -0.0447
38011SOL    HW216413   4.578   2.589   4.679 -0.7097  1.8671 -2.4670
38012SOL     OW16414   6.256  10.438   0.075 -0.0422 -0.2541  0.3961
38012SOL    HW116415   6.231  10.348   0.053  0.2036 -0.7220  1.9138
38012SOL    HW216416   6.347  10.445   0.047  0.2939 -0.8694  1.2869
38013SOL     OW16417   3.166   0.560   2.262  0.3863 -0.4449 -0.1699
38013SOL    HW116418   3.239   0.611   2.297 -0.0321  0.7180 -0.9266
38013SOL    HW216419   3.133   0.510   2.336  1.0322  0.1354  0.5175
38014SOL     OW16420   5.583   9.498   9.571  0.1684  0.2665  0.2437
38014SOL    HW116421   5.559   9.483   9.662 -0.3266  1.4322  0.3117
38014SOL    HW216422   5.664   9.548   9.575 -0.3521  1.1424  0.0655
38015SOL     OW16423   6.349   7.206   8.645 -0.1575 -0.3276 -0.0088
38015SOL    HW116424   6.336   7.280   8.585  1.0657 -0.4566 -0.4706
38015SOL    HW216425   6.273   7.208   8.703 -0.3193  1.0839 -0.2309
38016SOL     OW16426   8.235  10.619   3.581 -0.3930 -0.2654  0.2294
38016SOL    HW116427   8.298  10.548   3.593 -1.5368 -1.3518  0.0839
38016SOL    HW216428   8.157  10.575   3.546 -0.6197  1.2993 -1.3647
38017SOL     OW16429   3.090   8.018   4.159  0.5118 -0.0967  0.2750
38017SOL    HW116430   3.050   8.059   4.083  0.3741  0.7450  0.7788
38017SOL    HW216431   3.054   8.067   4.234  2.0872  0.3501  0.7732
38018SOL     OW16432   2.279   1.826   2.961 -0.1056  0.1555  0.7881
38018SOL    HW116433   2.355   1.769   2.966  0.5719  0.9924  0.3179
38018SOL    HW216434   2.313   1.908   2.924 -1.0017  0.9311  1.6153
38019SOL     OW16435   5.783   9.520   3.118 -0.3718 -0.0476 -0.6059
38019SOL    HW116436   5.752   9.610   3.109 -0.6658 -0.0684  0.1519
38019SOL    HW216437   5.778   9.502   3.212  2.7446  0.2577 -0.2457
38020SOL     OW16438   9.192   2.322   7.371  0.3105  0.1179  0.2036
38020SOL    HW116439   9.169   2.331   7.278 -2.7219  1.6883  0.9756
38020SOL    HW216440   9.117   2.277   7.410  0.0700  2.1913  2.3679
38021SOL     OW16441   3.631   1.010   8.612 -0.0035  0.0330  0.1049
38021SOL    HW116442   3.636   0.932   8.667  1.3595  0.6725  0.9299
38021SOL    HW216443   3.722   1.033   8.594 -0.4039  0.7634 -1.1052
38022SOL     OW16444   2.133   0.468   1.633  0.6714 -0.2783 -0.2091
38022SOL    HW116445   2.111   0.508   1.548  1.2878  0.8649  0.1432
38022SOL    HW216446   2.153   0.543   1.690 -0.4784 -0.9675  1.1726
38023SOL     OW16447   2.302   6.899  10.524 -0.2994 -0.5312 -0.1000
38023SOL    HW116448   2.288   6.903  10.618 -3.3486  0.9295 -0.5015
38023SOL    HW216449   2.237   6.836  10.493  1.5340 -2.0105 -1.1686
38024SOL     OW16450   2.193   2.800   5.176 -0.7851  0.1355 -0.3887
38024SOL    HW116451   2.228   2.889   5.172  0.6910 -0.4179 -0.4069
38024SOL    HW216452   2.270   2.745   5.195 -1.3995 -1.2940 -1.8434
38025SOL     OW16453   6.563   7.905   3.113 -0.4505 -0.1542 -0.2710
38025SOL    HW116454   6.651   7.931   3.142 -0.7251 -0.0914  0.5086
38025SOL    HW216455   6.507   7.978   3.140 -0.5120  0.5900 -2.2256
38026SOL     OW16456   6.811   3.027   7.731  0.2487  0.0910  0.1564
38026SOL    HW116457   6.877   2.958   7.729  0.4857  0.2899  0.8342
38026SOL    HW216458   6.782   3.035   7.640  1.3556  0.1837 -0.2018
38027SOL     OW16459  10.151  10.094   8.505 -0.0311  0.2800 -0.3291
38027SOL    HW116460  10.122  10.137   8.586 -0.2720  1.2182 -0.8909
38027SOL    HW216461  10.101  10.137   8.436  0.2249 -0.4551 -0.9913
38028SOL     OW16462   0.437  10.230   4.747 -0.1010  0.3388  0.7716
38028SOL    HW116463   0.416  10.285   4.672 -0.5088 -0.0178  0.6216
38028SOL    HW216464   0.413  10.284   4.823 -3.8692 -0.8256  0.6409
38029SOL     OW16465   0.827  10.320   3.594 -0.5958 -0.2827 -0.4852
38029SOL    HW116466   0.842  10.293   3.685 -0.4400 -0.3948 -0.5434
38029SOL    HW216467   0.737  10.292   3.576  0.0231 -2.1132 -1.0129
38030SOL     OW16468   0.188   8.816   7.980 -0.3956 -0.0475  0.2863
38030SOL    HW116469   0.226   8.823   8.068 -1.7073  0.3073  0.8406
38030SOL    HW216470   0.243   8.751   7.936  1.3782  1.0470  0.7657
38031SOL     OW16471   8.808   1.414   6.621 -0.1698  0.2087 -0.4245
38031SOL    HW116472   8.774   1.331   6.587 -1.9116  0.4254  0.6706
38031SOL    HW216473   8.731   1.469   6.631  0.8928  1.8031 -0.6383
38032SOL     OW16474   2.779   7.399   0.722  0.6139 -0.0916  0.2359
38032SOL    HW116475   2.818   7.445   0.648 -0.6865 -0.6018 -0.8114
38032SOL    HW216476   2.685   7.420   0.717 -0.3343 -3.8246 -1.1503
38033SOL     OW16477   0.623   8.839   4.060 -0.7531  0.6303  0.4924
38033SOL    HW116478   0.624   8.934   4.064 -0.1126  0.6507  0.0044
38033SOL    HW216479   0.531   8.815   4.075 -1.1055  1.3747 -0.3786
38034SOL     OW16480   3.976   3.786   8.469 -0.3436 -0.8696  0.3415
38034SOL    HW116481   3.899   3.795   8.526  0.9492  2.1168  1.8597
38034SOL    HW216482   4.030   3.862   8.491  1.7606 -1.3495 -2.6637
38035SOL     OW16483   1.595  10.766   2.836  0.8753  0.2068  0.5171
38035SOL    HW116484   1.529  10.763   2.905  0.2374 -1.0174 -0.1073
38035SOL    HW216485   1.561  10.830   2.773  0.5581  0.0122  0.4845
38036SOL     OW16486   7.502   5.476   9.177  0.0949 -0.0926 -0.1374
38036SOL    HW116487   7.436   5.492   9.244  1.9673  1.9177  1.3586
38036SOL    HW216488   7.554   5.556   9.174  0.9684 -0.6347 -3.0413
38037SOL     OW16489   9.930   1.492  10.542  0.0247  0.8404  0.1105
38037SOL    HW116490   9.910   1.558  10.609  0.2278  0.1838  0.8251
38037SOL    HW216491   9.889   1.526  10.463  0.0299  1.7787  0.4930
38038SOL     OW16492   9.099   4.048   8.764 -0.3423  0.4089 -0.2492
38038SOL    HW116493   9.055   4.033   8.847  0.2504 -1.4205 -0.2163
38038SOL    HW216494   9.097   4.143   8.752 -2.6271  0.5314  0.6254
38039SOL     OW16495   7.837   3.768   2.804  0.4999 -0.3797  0.1283
38039SOL    HW116496   7.903   3.810   2.750  1.2687 -1.2877  0.3336
38039SOL    HW216497   7.779   3.725   2.741  0.8143 -0.5951 -0.0204
38040SOL     OW16498   6.581   1.834   0.859  0.5580 -0.2269  0.3934
38040SOL    HW116499   6.630   1.842   0.777 -0.4924  1.2620 -0.1208
38040SOL    HW216500   6.574   1.739   0.873 -0.4019 -0.5740 -1.9533
38041SOL     OW16501  10.347   1.426   8.136  0.2211 -0.0668  0.7244
38041SOL    HW116502  10.360   1.436   8.042  0.9695  0.2387  0.8527
38041SOL    HW216503  10.435   1.407   8.170  0.0531  0.3925  1.4314
38042SOL     OW16504   3.025   8.564   9.694  0.1666 -0.4703 -0.1291
38042SOL    HW116505   2.955   8.527   9.746  0.9643 -0.3205  1.0821
38042SOL    HW216506   3.034   8.654   9.725  0.6452 -0.3703 -0.5312
38043SOL     OW16507   2.758   1.960   0.655 -0.1855 -0.3246 -0.4995
38043SOL    HW116508   2.683   2.016   0.636  0.2732  0.8750  0.9925
38043SOL    HW216509   2.790   1.932   0.569 -1.0286  0.9091 -1.2457
38044SOL     OW16510   2.279   1.852   6.185 -0.0460  0.3054  0.2740
38044SOL    HW116511   2.206   1.856   6.247 -0.9620  0.9093 -0.7855
38044SOL    HW216512   2.243   1.804   6.110  1.3939 -1.4200  0.6360
38045SOL     OW16513   7.730  10.318   3.961 -0.4777  0.2022  0.1736
38045SOL    HW116514   7.656  10.321   4.022 -1.4422  0.2119 -0.9646
38045SOL    HW216515   7.807  10.326   4.017 -1.3793  2.6743  1.2088
38046SOL     OW16516  10.008   6.148   7.875 -0.1022  0.1835  0.1579
38046SOL    HW116517   9.940   6.151   7.943 -2.6971  0.0346 -2.2557
38046SOL    HW216518  10.076   6.207   7.907 -2.1672  1.7906  1.9533
38047SOL     OW16519   7.534   8.792   5.391  0.1124  0.0990  0.1463
38047SOL    HW116520   7.597   8.757   5.454 -0.5182 -0.3268  0.5521
38047SOL    HW216521   7.567   8.879   5.369  1.4697 -0.5592 -0.5421
38048SOL     OW16522   9.899   7.926   3.399 -0.5100 -0.2726  0.3281
38048SOL    HW116523   9.824   7.981   3.378 -0.2508  0.7912  1.9759
38048SOL    HW216524   9.975   7.984   3.387 -0.0668 -0.9001  0.0708
38049SOL     OW16525   2.464   5.285   3.579  0.0843  0.1045  0.0115
38049SOL    HW116526   2.448   5.360   3.637  0.3728 -0.9261  1.4709
38049SOL    HW216527   2.536   5.238   3.619  0.3036 -0.6527 -1.2129
38050SOL     OW16528   2.625   3.585   6.625  0.1738  0.0539  0.1216
38050SOL    HW116529   2.672   3.520   6.573 -0.5703 -1.1613  0.9301
38050SOL    HW216530   2.681   3.663   6.621  0.1059  0.0732 -2.5365
38051SOL     OW16531   8.298   9.850   9.943  0.1223 -0.2599  0.1076
38051SOL    HW116532   8.345   9.931   9.927 -1.4145  0.6039 -0.2426
38051SOL    HW216533   8.233   9.872  10.011 -2.2766 -0.3440 -2.0095
38052SOL     OW16534   9.725  10.704   3.591  0.0514 -0.5459 -0.1687
38052SOL    HW116535   9.665  10.633   3.571 -1.5415  1.0539 -1.3363
38052SOL    HW216536   9.699  10.732   3.679  0.3286 -1.0421  0.0760
38053SOL     OW16537   3.404   8.450   6.176  0.4658  0.0676 -0.1017
38053SOL    HW116538   3.312   8.456   6.149  0.2463  4.1495  0.9126
38053SOL    HW216539   3.453   8.480   6.100  0.8755 -0.5395 -0.0864
38054SOL     OW16540   5.391   2.371  10.533 -0.3672 -0.1979 -0.0620
38054SOL    HW116541   5.426   2.289  10.568 -0.1665  0.2175  0.7345
38054SOL    HW216542   5.451   2.438  10.565 -0.9828  0.3508 -0.0381
38055SOL     OW16543   0.224   6.340   9.464  0.3449  0.3165 -0.1950
38055SOL    HW116544   0.300   6.392   9.438 -0.5129  0.1484 -3.6230
38055SOL    HW216545   0.160   6.356   9.394 -2.1754 -0.8384  1.6803
38056SOL     OW16546   4.792   7.622   6.691  0.2819  0.4103 -0.6580
38056SOL    HW116547   4.771   7.619   6.598 -1.9390  0.5800 -0.2075
38056SOL    HW216548   4.865   7.560   6.701  1.5763  1.4821 -2.6981
38057SOL     OW16549   9.176   6.164   9.420 -0.5687  0.2523  0.2540
38057SOL    HW116550   9.207   6.231   9.481  1.3503 -0.2464 -0.1032
38057SOL    HW216551   9.213   6.190   9.336 -2.0792  0.1995 -0.4527
38058SOL     OW16552   0.789   8.286   4.674 -0.8120 -0.2663 -0.3068
38058SOL    HW116553   0.791   8.191   4.662  1.1479 -0.3845  0.6105
38058SOL    HW216554   0.731   8.299   4.750  1.5483 -1.0962  1.7866
38059SOL     OW16555   1.627   7.527   5.804 -0.0777 -0.1687  0.4081
38059SOL    HW116556   1.571   7.449   5.812 -0.9801  0.4735  0.5035
38059SOL    HW216557   1.641   7.536   5.710  0.1184 -0.4991  0.4010
38060SOL     OW16558   9.743   3.335   7.232  0.8050 -0.3696  0.4605
38060SOL    HW116559   9.769   3.267   7.169  0.7261  0.5423 -0.5782
38060SOL    HW216560   9.775   3.302   7.317  1.5217 -1.3019 -0.1477
38061SOL     OW16561   4.386   4.387   6.927  0.1301 -0.7896 -0.2545
38061SOL    HW116562   4.377   4.296   6.952  1.5972 -1.1834 -1.0156
38061SOL    HW216563   4.459   4.420   6.980  0.3005 -0.3661 -0.7394
38062SOL     OW16564   8.187   1.963   3.720 -0.4804 -0.1032 -0.4567
38062SOL    HW116565   8.176   1.875   3.684  0.5993 -0.4268 -0.0351
38062SOL    HW216566   8.130   2.018   3.666 -3.3196 -1.4378  0.9775
38063SOL     OW16567   1.332   1.182   8.753  0.0654  0.2773  0.2405
38063SOL    HW116568   1.326   1.275   8.727 -1.2782  0.7707  2.1355
38063SOL    HW216569   1.425   1.168   8.767  0.2861  1.3870  0.0333
38064SOL     OW16570   5.173   2.949   7.640  0.1747 -0.5203 -0.1903
38064SOL    HW116571   5.149   2.863   7.674 -0.7504  0.4028  1.6721
38064SOL    HW216572   5.106   2.967   7.574  1.3118 -1.8595 -1.7768
38065SOL     OW16573   6.245   4.317   5.096  0.1332  0.4054 -0.0727
38065SOL    HW116574   6.313   4.353   5.153  0.2425  1.2853 -0.7470
38065SOL    HW216575   6.168   4.370   5.114 -0.3267 -0.4387  0.5171
38066SOL     OW16576   4.131   4.033   0.553 -0.0075  0.1746 -0.4925
38066SOL    HW116577   4.161   3.984   0.476 -1.3674  0.7588 -1.4325
38066SOL    HW216578   4.097   4.115   0.517 -0.8713  0.3652  0.7147
38067SOL     OW16579   6.721   7.202   9.217 -0.3201  0.3142  0.1315
38067SOL    HW116580   6.709   7.131   9.154 -0.5235  0.1201  0.3873
38067SOL    HW216581   6.802   7.181   9.263  0.8156  1.3820 -1.2704
38068SOL     OW16582   3.342   2.939   8.682 -0.4809 -0.3544 -0.4763
38068SOL    HW116583   3.260   2.987   8.670 -1.3434 -0.9779  2.0877
38068SOL    HW216584   3.398   2.998   8.732 -0.3617 -0.8400 -0.0151
38069SOL     OW16585   8.535  10.387   8.307  0.0471  0.1571  0.0357
38069SOL    HW116586   8.478  10.323   8.349 -2.0437  1.6756 -0.3219
38069SOL    HW216587   8.605  10.403   8.371 -1.2824  0.0400  1.5700
38070SOL     OW16588   0.497   5.844   5.087  0.0660  0.0420  0.4694
38070SOL    HW116589   0.483   5.859   5.180  0.2496 -2.8034  1.0342
38070SOL    HW216590   0.413   5.865   5.046  0.1510  1.8660  1.1272
38071SOL     OW16591   8.783   9.051   5.888  0.6148 -0.3469  0.4227
38071SOL    HW116592   8.705   8.997   5.898 -0.2862  0.4705 -1.6060
38071SOL    HW216593   8.856   8.989   5.893 -0.1709 -1.2349  1.5203
38072SOL     OW16594   7.387   9.441   5.669  0.3213  0.1400 -0.0471
38072SOL    HW116595   7.463   9.491   5.640  1.5890 -0.1585  2.5229
38072SOL    HW216596   7.312   9.499   5.653  1.3641  1.4284 -0.3801
38073SOL     OW16597   6.601   9.240   5.617  0.3247  0.3991  0.6763
38073SOL    HW116598   6.559   9.224   5.702 -0.4671  1.5155  0.5156
38073SOL    HW216599   6.588   9.333   5.601 -0.4499  0.0207 -1.1604
38074SOL     OW16600   6.316  10.100   7.377 -0.6623 -0.1051 -0.5988
38074SOL    HW116601   6.398  10.089   7.424  0.0662 -2.5408 -2.2519
38074SOL    HW216602   6.249  10.065   7.436 -0.2328 -0.1192 -0.1149
38075SOL     OW16603   4.648   5.530   5.955 -0.3827 -0.4492 -0.1856
38075SOL    HW116604   4.607   5.543   6.041 -0.4008  0.8032 -0.3643
38075SOL    HW216605   4.673   5.618   5.927 -0.9906 -0.7587 -1.7749
38076SOL     OW16606   3.511   1.763   1.273 -0.5707  0.4274 -0.0593
38076SOL    HW116607   3.583   1.729   1.220  0.2787  1.2669  0.5305
38076SOL    HW216608   3.456   1.810   1.210 -0.5742 -0.1564 -0.4998
38077SOL     OW16609   3.154   7.424   7.902  0.8571 -0.1279 -0.4060
38077SOL    HW116610   3.189   7.371   7.830  1.3426 -0.2038 -0.1178
38077SOL    HW216611   3.207   7.399   7.978  0.7276  0.3702 -0.1479
38078SOL     OW16612   5.534   1.666   9.407 -0.1086 -0.0198 -0.0901
38078SOL    HW116613   5.470   1.630   9.346  0.4570  1.7467 -1.8358
38078SOL    HW216614   5.614   1.616   9.390 -1.0001 -2.4726  2.3447
38079SOL     OW16615   3.103   3.494   0.049 -0.0629  0.8788 -0.3649
38079SOL    HW116616   3.090   3.406   0.082 -0.3174  1.0121 -0.1095
38079SOL    HW216617   3.198   3.509   0.056 -0.3219  1.8193  2.6936
38080SOL     OW16618   0.174   3.677   4.064 -0.5545  0.0431 -0.1537
38080SOL    HW116619   0.155   3.585   4.083 -0.1009  0.0832  0.5314
38080SOL    HW216620   0.263   3.677   4.029 -0.2702  0.2977  0.5552
38081SOL     OW16621   3.005   7.415   0.981 -0.9077 -0.0382  0.0886
38081SOL    HW116622   3.031   7.402   0.890 -2.3069  1.0701 -0.5180
38081SOL    HW216623   2.948   7.492   0.978  0.1473  0.8874  2.1303
38082SOL     OW16624   7.994   5.748  10.285  0.3343 -0.3518 -0.3171
38082SOL    HW116625   7.951   5.792  10.359 -1.3700  0.2684 -1.6215
38082SOL    HW216626   8.067   5.806  10.263  1.1195 -0.7457  1.0943
38083SOL     OW16627   2.344   7.066   4.043 -0.1806 -0.6685 -0.1008
38083SOL    HW116628   2.326   7.159   4.026  1.0584 -0.4213 -0.1259
38083SOL    HW216629   2.414   7.043   3.982  0.6772 -1.1685  1.0422
38084SOL     OW16630   0.786   4.226   1.140  0.1214 -0.0058 -0.3030
38084SOL    HW116631   0.789   4.294   1.072 -0.4961  0.6759  0.3402
38084SOL    HW216632   0.816   4.146   1.095 -1.3269  0.1793 -1.6861
38085SOL     OW16633   9.222   5.190   5.650  0.5407 -0.1855 -0.6813
38085SOL    HW116634   9.281   5.131   5.603 -0.0448  0.0619 -1.7550
38085SOL    HW216635   9.217   5.268   5.595 -1.5331 -0.5695 -1.1230
38086SOL     OW16636   5.131   9.198   6.522  0.6358 -0.1420 -0.0488
38086SOL    HW116637   5.117   9.155   6.607 -0.5881  1.8675  0.8366
38086SOL    HW216638   5.084   9.143   6.459 -1.2661  0.0617  1.1127
38087SOL     OW16639   1.141   0.588   6.625  0.1304  0.3297  0.1512
38087SOL    HW116640   1.151   0.584   6.720 -1.2850 -2.7069  0.2788
38087SOL    HW216641   1.053   0.621   6.611  0.0024 -0.0909 -0.0594
38088SOL     OW16642   3.303   6.130   8.587 -0.0957  0.1606 -0.4051
38088SOL    HW116643   3.370   6.168   8.529  1.3522 -0.6611  0.6693
38088SOL    HW216644   3.300   6.038   8.563 -2.0264  0.4560 -1.5088
38089SOL     OW16645   4.580   8.906   0.221 -0.3086  0.3750 -0.2222
38089SOL    HW116646   4.540   8.860   0.146  2.8784 -1.4139 -1.0320
38089SOL    HW216647   4.575   8.843   0.293  0.4433  0.3474 -0.1822
38090SOL     OW16648   8.955   5.145   8.864 -0.1467 -0.2100  0.2594
38090SOL    HW116649   8.993   5.119   8.948 -1.3385 -2.4902  0.1615
38090SOL    HW216650   8.915   5.230   8.881  1.4602  0.3567  1.4104
38091SOL     OW16651   0.752   5.944   3.138 -0.5885  0.0178  0.4716
38091SOL    HW116652   0.787   5.932   3.049 -1.3881  0.0987  0.1314
38091SOL    HW216653   0.679   6.005   3.126 -0.8095 -0.1054  1.1654
38092SOL     OW16654   3.627   0.643   3.686  0.0147 -0.1516 -0.0454
38092SOL    HW116655   3.711   0.628   3.730 -1.2840 -0.4866  2.5106
38092SOL    HW216656   3.579   0.561   3.698 -2.0031  1.1950  1.8100
38093SOL     OW16657   9.840   6.814   8.303  0.3228  0.2710  0.2274
38093SOL    HW116658   9.763   6.857   8.267  0.5648  0.9675  0.5352
38093SOL    HW216659   9.818   6.720   8.301 -0.3739  0.4344 -0.0407
38094SOL     OW16660   8.722   5.674   1.600  0.0192  0.2333 -0.1019
38094SOL    HW116661   8.654   5.655   1.664  0.0580  0.8603  0.1366
38094SOL    HW216662   8.798   5.698   1.652 -0.6497  3.2628 -0.3018
38095SOL     OW16663   8.480   3.297   3.477  0.0580  0.2483 -0.0260
38095SOL    HW116664   8.526   3.215   3.459 -1.1097 -0.2052 -1.1717
38095SOL    HW216665   8.547   3.365   3.467  0.5167 -0.3843 -1.6105
38096SOL     OW16666   3.568   3.037   4.171  0.1560 -0.2774  0.0259
38096SOL    HW116667   3.628   2.979   4.219 -0.2999 -0.6858  0.1002
38096SOL    HW216668   3.482   3.018   4.207 -0.0450  0.2002 -0.1957
38097SOL     OW16669   0.619   6.490   2.197 -0.5014  0.6260 -0.5148
38097SOL    HW116670   0.675   6.537   2.134 -0.8814  1.6013 -0.1522
38097SOL    HW216671   0.627   6.541   2.278 -1.1721  0.2305 -0.1939
38098SOL     OW16672   4.140   0.365   0.981  0.6021  0.1016  0.0653
38098SOL    HW116673   4.215   0.423   0.989 -0.7510  1.7667  1.8823
38098SOL    HW216674   4.130   0.326   1.069 -1.5576  1.1990  0.3822
38099SOL     OW16675   0.458   6.466   7.951 -0.3689  0.1644  0.5171
38099SOL    HW116676   0.412   6.513   7.880 -1.9967  1.6672  2.4500
38099SOL    HW216677   0.538   6.517   7.965  0.0210 -0.2083 -0.2858
38100SOL     OW16678  10.705   3.455  10.202  0.3624  0.5021 -0.1052
38100SOL    HW116679  10.676   3.540  10.168 -1.0954 -0.1615 -0.5947
38100SOL    HW216680  10.674   3.454  10.292  2.6624  1.5177  0.7803
38101SOL     OW16681   2.030   6.137   6.601  0.2297  0.0879 -0.6722
38101SOL    HW116682   2.110   6.162   6.557  0.2631  1.0517 -0.0946
38101SOL    HW216683   2.046   6.156   6.694 -1.0653  1.4078 -0.6867
38102SOL     OW16684   0.253   6.778   7.987 -0.2650  0.3211  0.0697
38102SOL    HW116685   0.286   6.787   7.898 -0.6365  1.9159  0.0529
38102SOL    HW216686   0.259   6.867   8.024 -1.4921  0.0006  1.1302
38103SOL     OW16687   3.889   2.279   6.115  0.1289  0.4601 -0.1777
38103SOL    HW116688   3.851   2.225   6.046 -0.4837  1.1050 -0.3563
38103SOL    HW216689   3.897   2.366   6.076  1.0895  0.5124  0.1111
38104SOL     OW16690   1.298   3.783   1.240  0.2904  0.3995 -0.1483
38104SOL    HW116691   1.260   3.696   1.228  0.2910  0.2714  0.6839
38104SOL    HW216692   1.392   3.770   1.228  0.2913  0.2830 -0.0181
38105SOL     OW16693   5.566   3.713   7.185 -0.0782  0.0371  0.1097
38105SOL    HW116694   5.477   3.679   7.185  0.3144 -1.0048  0.6083
38105SOL    HW216695   5.593   3.712   7.277  0.7916 -0.5907 -0.1376
38106SOL     OW16696   2.431   2.297   9.087  0.0976 -0.8472  0.5331
38106SOL    HW116697   2.521   2.325   9.101  0.0802 -1.1730  1.3654
38106SOL    HW216698   2.380   2.347   9.149 -0.5364  0.5174 -1.0183
38107SOL     OW16699   1.492   2.696   2.367 -0.0926  0.4051  0.2589
38107SOL    HW116700   1.480   2.694   2.463 -2.4865 -0.6636  0.0241
38107SOL    HW216701   1.494   2.604   2.342 -0.8668  0.6712 -0.8354
38108SOL     OW16702   1.316   4.568   2.930 -0.3510 -0.1143 -0.1979
38108SOL    HW116703   1.330   4.631   2.859 -0.4524 -0.4291 -0.5040
38108SOL    HW216704   1.399   4.566   2.978 -0.6172  0.8740  0.3278
38109SOL     OW16705   4.311   0.434   4.649  0.8290  0.1372 -0.1617
38109SOL    HW116706   4.256   0.511   4.656 -2.0653 -1.8378  0.4605
38109SOL    HW216707   4.329   0.408   4.740 -0.7128 -1.4773 -0.2562
38110SOL     OW16708   8.071   8.846   9.753  0.1690  0.7288  0.3019
38110SOL    HW116709   8.036   8.762   9.722 -1.3912  1.4500  0.0612
38110SOL    HW216710   8.106   8.827   9.840  1.6308 -0.5888 -0.5095
38111SOL     OW16711  10.482   5.173   6.675 -0.2725  0.6954  0.1958
38111SOL    HW116712  10.527   5.225   6.741  1.3297  0.7899 -0.9277
38111SOL    HW216713  10.501   5.082   6.699  1.1399  0.7398 -0.6415
38112SOL     OW16714   2.766   9.861   1.023  0.4905 -0.0445 -0.1753
38112SOL    HW116715   2.715   9.882   0.944 -0.2958  0.5771  0.4816
38112SOL    HW216716   2.750   9.768   1.038 -0.8900  0.2553  0.3111
38113SOL     OW16717   6.491   3.800   0.369  0.4461  0.0772 -0.1237
38113SOL    HW116718   6.536   3.790   0.285 -0.1612 -0.4255 -0.3980
38113SOL    HW216719   6.407   3.840   0.347  0.0997 -0.4689  0.1903
38114SOL     OW16720   3.073   4.095   9.570  0.5903  0.1493 -0.7840
38114SOL    HW116721   3.144   4.155   9.592  1.0255 -0.0743 -1.5517
38114SOL    HW216722   3.094   4.064   9.483  0.8671 -1.8681 -0.0399
38115SOL     OW16723   2.832   4.675   0.337 -0.0596  0.2395 -0.1625
38115SOL    HW116724   2.832   4.581   0.355  0.6754  0.1588 -0.5423
38115SOL    HW216725   2.841   4.681   0.242  3.0599  0.6758  0.0555
38116SOL     OW16726  10.688   2.411   3.493  0.1910 -0.5335 -0.1424
38116SOL    HW116727  10.673   2.362   3.573 -1.3931 -0.5735 -0.4222
38116SOL    HW216728  10.615   2.387   3.436  1.5195 -0.8689 -1.7963
38117SOL     OW16729   7.560   1.198   3.356 -0.0838  0.3825  0.1851
38117SOL    HW116730   7.546   1.203   3.261  2.5358  1.9992 -0.2331
38117SOL    HW216731   7.604   1.113   3.369  1.9941  1.2810 -0.5305
38118SOL     OW16732   8.875   1.596   8.285  0.0421  0.3799  0.4583
38118SOL    HW116733   8.948   1.534   8.290 -0.6886 -0.4115  2.1093
38118SOL    HW216734   8.917   1.680   8.266  1.3308 -0.1456  0.8063
38119SOL     OW16735   1.184   6.870   0.523 -0.4553 -0.3243  0.1517
38119SOL    HW116736   1.255   6.927   0.553 -0.0854 -1.4192  1.4534
38119SOL    HW216737   1.108   6.897   0.573 -1.2853  1.4693 -1.8949
38120SOL     OW16738   6.562   2.789   0.297 -0.4186 -0.1428 -0.0334
38120SOL    HW116739   6.473   2.769   0.326 -0.6713 -1.7366 -1.6957
38120SOL    HW216740   6.596   2.850   0.362 -3.2951  1.8386 -0.1993
38121SOL     OW16741   2.132  10.317   1.779 -0.0380  0.2432  0.3501
38121SOL    HW116742   2.092  10.359   1.855 -1.9811 -0.2815 -0.3442
38121SOL    HW216743   2.059  10.282   1.729  1.3111 -1.0295 -0.8309
38122SOL     OW16744   8.813   9.678   1.390 -0.1910 -0.0851  0.1884
38122SOL    HW116745   8.751   9.657   1.460 -1.8776 -0.5659 -1.3743
38122SOL    HW216746   8.896   9.693   1.435 -0.9725 -1.3762  2.1966
38123SOL     OW16747   7.355  10.184   2.822  0.6331 -0.1245 -0.1963
38123SOL    HW116748   7.368  10.265   2.872 -0.5270  1.0455 -1.6602
38123SOL    HW216749   7.262  10.187   2.797  0.2923 -2.4578  0.5692
38124SOL     OW16750   4.182   3.852   5.868  0.2135  0.1121  0.3134
38124SOL    HW116751   4.163   3.771   5.819 -0.7124 -0.3308  1.3691
38124SOL    HW216752   4.275   3.846   5.888  0.4894  0.0387 -0.9093
38125SOL     OW16753   3.728   3.353   0.696  0.8846 -0.4818  0.3269
38125SOL    HW116754   3.761   3.439   0.720  0.8249 -0.1804 -0.6291
38125SOL    HW216755   3.699   3.314   0.778 -1.2276  1.3098  0.5375
38126SOL     OW16756   7.673   9.880  10.097  0.4898 -0.2503 -0.1452
38126SOL    HW116757   7.738   9.829  10.144  1.2651 -0.2024 -1.1165
38126SOL    HW216758   7.649   9.826  10.022 -1.1866 -0.5970  0.6062
38127SOL     OW16759   5.640   2.369   0.865  0.6525 -0.1667 -0.0442
38127SOL    HW116760   5.676   2.454   0.890 -1.7151  0.8235  0.2337
38127SOL    HW216761   5.601   2.384   0.779  2.0111 -1.5672 -0.9688
38128SOL     OW16762   9.902   1.075  10.399  0.0765  0.4662 -0.2449
38128SOL    HW116763   9.907   1.140  10.469  1.1559  0.4551 -0.2980
38128SOL    HW216764   9.844   1.007  10.433  2.2349 -0.5936  1.5435
38129SOL     OW16765   1.723   9.308   7.755  0.5111  0.5780  0.7302
38129SOL    HW116766   1.729   9.399   7.726 -1.0206 -0.0435 -1.9553
38129SOL    HW216767   1.802   9.267   7.720  1.2872  0.8691  2.0890
38130SOL     OW16768   2.511  10.508   5.239  0.1464  0.0824 -0.4391
38130SOL    HW116769   2.599  10.520   5.203  0.7084 -2.0958  0.0834
38130SOL    HW216770   2.525  10.497   5.333 -1.0607  3.0451  0.2012
38131SOL     OW16771   5.221   6.409   5.326  0.1011 -0.0034  0.0999
38131SOL    HW116772   5.231   6.440   5.236 -0.1663 -0.1613  0.0144
38131SOL    HW216773   5.178   6.324   5.317 -2.1958  1.0354  0.4734
38132SOL     OW16774   0.834   7.422   4.511 -0.2121  0.1369 -0.3417
38132SOL    HW116775   0.928   7.424   4.488 -0.0081 -1.1528  0.3005
38132SOL    HW216776   0.810   7.514   4.519  1.6126  0.5122  1.8578
38133SOL     OW16777   7.914   1.272   9.676  0.5936  0.4712  0.0714
38133SOL    HW116778   7.838   1.278   9.734  1.2153 -0.0437  0.9631
38133SOL    HW216779   7.887   1.210   9.608  0.1420  0.4470  0.2673
38134SOL     OW16780   7.046   8.267   0.795 -0.1769  0.3161 -0.7225
38134SOL    HW116781   7.131   8.308   0.778 -0.4124  1.8034  1.3198
38134SOL    HW216782   6.985   8.311   0.736  0.4525 -0.9197 -2.3667
38135SOL     OW16783   3.888   5.850   7.806 -0.8274 -0.1346  0.0953
38135SOL    HW116784   3.853   5.845   7.895  0.9254  0.9886  0.9019
38135SOL    HW216785   3.868   5.940   7.778 -0.6361 -0.2169 -0.3110
38136SOL     OW16786   6.168   9.902   9.416  0.0619 -0.3977 -0.6038
38136SOL    HW116787   6.077   9.872   9.411 -0.0134 -0.2155 -0.3663
38136SOL    HW216788   6.166   9.975   9.479  0.4371 -0.6423 -0.2999
38137SOL     OW16789   1.131   3.155   3.066 -0.6693 -0.1687  0.1448
38137SOL    HW116790   1.140   3.247   3.089 -0.3629  0.2245 -1.4610
38137SOL    HW216791   1.141   3.108   3.150 -0.9237  1.2390  0.9899
38138SOL     OW16792   6.731   3.068   9.644  0.5739 -0.1931 -0.2388
38138SOL    HW116793   6.721   3.128   9.719 -0.0301 -0.1943 -0.3132
38138SOL    HW216794   6.702   2.984   9.678 -1.6326  0.2076 -1.0288
38139SOL     OW16795   1.538   9.184  10.341  0.1643 -0.8973 -0.6184
38139SOL    HW116796   1.532   9.093  10.314 -0.8495 -0.8111 -0.7520
38139SOL    HW216797   1.451   9.220  10.322  0.0051 -0.3439  1.0022
38140SOL     OW16798   4.876   1.223   6.268 -0.2887  0.4268  0.0854
38140SOL    HW116799   4.833   1.298   6.308  1.5798  1.8465 -0.4544
38140SOL    HW216800   4.833   1.213   6.184 -1.9372 -0.4594  0.9745
38141SOL     OW16801   1.684   0.065   5.874 -0.2261 -0.3067  0.5003
38141SOL    HW116802   1.770   0.039   5.842 -0.3739  1.4037 -1.4743
38141SOL    HW216803   1.702   0.140   5.931 -0.4310  0.3285 -0.2633
38142SOL     OW16804   0.733   6.630   0.859  0.0137  0.8408 -0.5088
38142SOL    HW116805   0.662   6.686   0.889 -2.1219 -0.1014 -3.3265
38142SOL    HW216806   0.706   6.541   0.883  1.2036  0.6060  0.0371
38143SOL     OW16807   7.340   4.917  10.139 -0.0384  0.0150  0.0367
38143SOL    HW116808   7.328   4.938  10.231  1.4279  0.4132  0.1679
38143SOL    HW216809   7.422   4.961  10.114 -0.0379 -0.6457 -1.2634
38144SOL     OW16810   5.172   5.642  10.031  0.2310 -0.1340 -0.2828
38144SOL    HW116811   5.106   5.711  10.041  0.9940  0.8927 -1.7959
38144SOL    HW216812   5.253   5.682  10.063  0.8262 -0.0362 -1.8322
38145SOL     OW16813   5.058   9.700   3.340  0.2365  0.9617  0.0343
38145SOL    HW116814   5.004   9.753   3.280 -0.2997  1.6230  1.0716
38145SOL    HW216815   5.146   9.734   3.329  0.1225  1.1684 -0.2730
38146SOL     OW16816   2.569   8.596   3.887 -0.3362  0.5670  0.0553
38146SOL    HW116817   2.612   8.604   3.972  1.8908  1.1773 -1.0488
38146SOL    HW216818   2.516   8.675   3.878  0.6812  1.2808  0.2235
38147SOL     OW16819   1.970   1.688   6.913 -0.2264  0.9420  0.5428
38147SOL    HW116820   1.981   1.700   7.008 -0.5687  0.6319  0.6265
38147SOL    HW216821   1.875   1.681   6.902 -0.0966 -2.2506  0.5888
38148SOL     OW16822   8.956   6.437   9.922 -0.3162  0.2116  0.1090
38148SOL    HW116823   8.976   6.344   9.932  0.4160  0.3854  0.3523
38148SOL    HW216824   8.873   6.439   9.874 -0.8792 -0.5844  1.0004
38149SOL     OW16825   4.428   0.126   4.814  0.0143  0.2314  0.0871
38149SOL    HW116826   4.381   0.046   4.793 -0.7766  0.9663 -1.0625
38149SOL    HW216827   4.405   0.144   4.905 -1.2085  0.0714 -0.1725
38150SOL     OW16828   1.831   9.454   9.420 -0.3444  0.5883 -0.2365
38150SOL    HW116829   1.737   9.464   9.401 -0.7403 -0.0449  1.2305
38150SOL    HW216830   1.869   9.424   9.338 -1.3830  1.0959 -0.9240
38151SOL     OW16831   5.541  10.340  10.715  0.1069 -0.3879  0.2581
38151SOL    HW116832   5.592  10.307  10.789 -1.5563 -1.5887  0.9154
38151SOL    HW216833   5.455  10.300  10.725 -0.1550 -0.6522 -2.3950
38152SOL     OW16834   2.424  10.159   8.421  0.1700 -0.4016 -0.0716
38152SOL    HW116835   2.443  10.079   8.468  1.5544 -0.1359 -0.1537
38152SOL    HW216836   2.425  10.227   8.488 -0.3856 -0.3540 -0.1024
38153SOL     OW16837   1.135  10.119   9.584 -0.0626  0.6819 -0.3167
38153SOL    HW116838   1.105  10.121   9.676 -1.1120  0.5022 -0.6379
38153SOL    HW216839   1.163  10.029   9.570  2.2042  1.2054  0.4432
38154SOL     OW16840   1.147   1.397   6.768 -0.5919  0.2864  0.4082
38154SOL    HW116841   1.131   1.356   6.853 -1.3446 -0.9719 -0.3189
38154SOL    HW216842   1.061   1.421   6.736 -0.2718  1.1860  0.1922
38155SOL     OW16843   7.924   5.437   7.500  0.0591  0.0178 -0.5599
38155SOL    HW116844   7.897   5.515   7.452 -1.4816 -0.5171 -0.6225
38155SOL    HW216845   7.902   5.455   7.591  0.0573 -0.1844 -0.5190
38156SOL     OW16846   0.131   6.571  10.772  0.0194  0.0553  0.4530
38156SOL    HW116847   0.119   6.525  10.688  1.8615  0.7104 -0.2126
38156SOL    HW216848   0.103   6.508  10.838 -1.3560 -0.5240 -0.6315
38157SOL     OW16849   5.913   9.981   8.153 -0.4536  0.0050  0.2729
38157SOL    HW116850   5.827  10.004   8.119 -0.9357 -0.8898  0.8555
38157SOL    HW216851   5.909   9.887   8.168  0.7780 -0.1202 -0.0959
38158SOL     OW16852   3.779   3.464   5.053 -0.2495  0.2817  0.1307
38158SOL    HW116853   3.786   3.492   5.144  1.0426  0.7136 -0.0716
38158SOL    HW216854   3.842   3.520   5.007  1.0314 -1.6660 -0.5968
38159SOL     OW16855   3.513   7.891  10.274  0.4001 -0.1419 -0.6370
38159SOL    HW116856   3.423   7.900  10.245  0.7089  1.4118 -1.1765
38159SOL    HW216857   3.514   7.929  10.362  0.7830  1.0341 -1.1394
38160SOL     OW16858   8.709   8.187   0.030 -0.3271 -0.2723  0.0536
38160SOL    HW116859   8.721   8.150   0.118  0.2663  1.3113  0.6717
38160SOL    HW216860   8.795   8.222   0.006 -0.3784 -1.0390 -1.3456
38161SOL     OW16861   4.011   9.682   6.102  0.3984  0.2866 -0.5855
38161SOL    HW116862   3.957   9.645   6.032 -0.9817 -0.5267  0.8679
38161SOL    HW216863   3.957   9.749   6.142  0.8559  0.1905  0.2207
38162SOL     OW16864   3.845   7.700   1.937  0.1899  0.0897 -0.1546
38162SOL    HW116865   3.938   7.686   1.918  0.5450  1.8964  0.0788
38162SOL    HW216866   3.805   7.718   1.852  0.0934 -0.4199 -0.2209
38163SOL     OW16867   2.058   4.139   7.726  0.1844 -1.1768  0.0933
38163SOL    HW116868   2.089   4.225   7.754  0.8501 -1.5801  0.6195
38163SOL    HW216869   2.091   4.130   7.637 -1.2079 -0.2548 -0.5708
38164SOL     OW16870   0.187   2.280   7.780  0.8857 -0.2899  0.0329
38164SOL    HW116871   0.198   2.298   7.687 -1.7557  0.0630 -0.2791
38164SOL    HW216872   0.105   2.232   7.786  0.2894  0.8694  2.2779
38165SOL     OW16873   5.285   9.632   1.559 -0.8001  0.2435  0.4811
38165SOL    HW116874   5.297   9.616   1.465 -0.9571  0.7185  0.3764
38165SOL    HW216875   5.322   9.719   1.574 -1.7289  0.6257  0.6485
38166SOL     OW16876   7.400   9.143   1.839  0.5247  0.3073  0.2338
38166SOL    HW116877   7.331   9.135   1.773 -0.3956  0.2679  1.1706
38166SOL    HW216878   7.409   9.237   1.852  0.9264  0.3243 -0.1734
38167SOL     OW16879   5.184   6.835   4.772 -0.0565  0.5452  0.2529
38167SOL    HW116880   5.161   6.755   4.725  0.4094  1.1496 -1.0326
38167SOL    HW216881   5.172   6.905   4.708  0.8994  1.3564  0.9402
38168SOL     OW16882   5.080   4.334   7.349 -0.5766 -0.5473  0.2789
38168SOL    HW116883   5.068   4.292   7.434 -2.4758  0.1416  0.3967
38168SOL    HW216884   5.043   4.421   7.360  3.9212  1.6986  0.3091
38169SOL     OW16885   4.303   2.142   9.817  0.5620 -0.3486  0.1817
38169SOL    HW116886   4.379   2.190   9.785  0.5860 -0.1316  0.5637
38169SOL    HW216887   4.262   2.201   9.880 -0.5607  0.0018 -0.8422
38170SOL     OW16888   0.685   7.981   2.589 -0.5974 -0.9786  0.3214
38170SOL    HW116889   0.615   8.032   2.548 -0.6094 -0.5787  0.8255
38170SOL    HW216890   0.736   8.046   2.639  0.3238 -1.2123 -0.2897
38171SOL     OW16891   9.117   9.892   4.629  0.2942  0.1526 -0.3229
38171SOL    HW116892   9.105   9.987   4.632  1.9789  0.4975 -2.0945
38171SOL    HW216893   9.047   9.860   4.574  0.4796  0.5510 -0.7965
38172SOL     OW16894   2.084  10.517   8.247  0.4738 -0.0263 -0.0132
38172SOL    HW116895   2.011  10.458   8.269 -0.1705  1.2762  1.5380
38172SOL    HW216896   2.162  10.472   8.280  0.0644 -0.3322  0.5649
38173SOL     OW16897   6.933   1.668   8.192 -0.4504 -0.8703 -0.4267
38173SOL    HW116898   6.998   1.623   8.138 -0.4264 -0.1323 -1.0200
38173SOL    HW216899   6.888   1.726   8.131  1.7958  2.5443  0.8938
38174SOL     OW16900   4.100   0.251   4.474  0.2192 -0.0592  0.2291
38174SOL    HW116901   4.046   0.311   4.423 -0.9373 -0.8155  0.5241
38174SOL    HW216902   4.190   0.274   4.450 -0.2393  0.7161 -0.8562
38175SOL     OW16903   8.334   8.302   4.639  0.0622  0.3551 -0.2600
38175SOL    HW116904   8.365   8.351   4.714 -1.1116  2.8416 -1.2800
38175SOL    HW216905   8.409   8.298   4.580  0.0756  1.3783 -0.3386
38176SOL     OW16906   0.814   5.674   7.062 -0.0386 -0.0607  0.2356
38176SOL    HW116907   0.736   5.659   7.009 -2.3520  0.3019  3.2583
38176SOL    HW216908   0.839   5.587   7.093  0.0295 -0.0379  0.2445
38177SOL     OW16909   1.194   8.097   2.858 -0.1897  0.0143  0.5298
38177SOL    HW116910   1.205   8.178   2.907  0.0330  0.6936 -0.5972
38177SOL    HW216911   1.284   8.066   2.842 -0.2696 -0.3843  0.8441
38178SOL     OW16912   9.688   4.149   5.999  1.0457 -0.1075 -0.4266
38178SOL    HW116913   9.766   4.095   6.007  1.7188  0.7950 -0.6903
38178SOL    HW216914   9.713   4.217   5.936 -0.1028 -0.0654 -0.8649
38179SOL     OW16915   4.780   3.286   3.357  0.1030  0.0171 -0.3051
38179SOL    HW116916   4.732   3.365   3.332  0.4070  0.2900 -0.0333
38179SOL    HW216917   4.744   3.262   3.443  0.7522  0.4817  0.1117
38180SOL     OW16918   2.385   1.126   2.278 -0.1101 -0.4515  0.5078
38180SOL    HW116919   2.410   1.186   2.348 -0.7863  0.3271  0.0958
38180SOL    HW216920   2.453   1.139   2.211  0.0713 -0.5859  0.6633
38181SOL     OW16921   7.011   6.326   8.790 -0.1969  0.6839  0.1725
38181SOL    HW116922   6.936   6.267   8.797 -0.0583  0.4218 -0.5078
38181SOL    HW216923   7.086   6.272   8.814  0.1826  0.0007 -2.3580
38182SOL     OW16924   5.186   9.690   6.545  0.0371 -0.5239 -0.1939
38182SOL    HW116925   5.144   9.699   6.630  0.7948 -2.3987  0.4239
38182SOL    HW216926   5.127   9.635   6.494  1.0483 -2.0767  0.2402
38183SOL     OW16927   1.822   8.922   7.985  0.5555 -0.6676  0.2318
38183SOL    HW116928   1.866   8.839   7.969  0.4616 -0.7249  0.2701
38183SOL    HW216929   1.729   8.899   7.994  0.5391 -0.5687  0.3177
38184SOL     OW16930   1.279   3.488   3.394  0.0825 -0.0583 -0.2129
38184SOL    HW116931   1.344   3.521   3.457  0.4103  0.4594 -0.8187
38184SOL    HW216932   1.262   3.398   3.423  1.0793 -0.2034 -0.0445
38185SOL     OW16933   9.699   7.417   2.848 -0.3855  0.5503  0.4236
38185SOL    HW116934   9.666   7.338   2.805  0.2424  0.7041 -0.3813
38185SOL    HW216935   9.672   7.488   2.791  2.1598  0.6076 -0.8774
38186SOL     OW16936   8.513   1.470   1.602 -0.1185 -0.5353 -0.6793
38186SOL    HW116937   8.432   1.419   1.593 -0.7952  0.0295  1.5244
38186SOL    HW216938   8.511   1.532   1.529 -1.7141 -0.4904 -0.6406
38187SOL     OW16939   5.307   1.476   0.404 -0.5010 -0.2668 -0.4502
38187SOL    HW116940   5.385   1.483   0.459 -1.3335 -0.1518  0.7550
38187SOL    HW216941   5.336   1.505   0.317  0.5604  0.6895  0.1943
38188SOL     OW16942   1.968   3.719   6.656  0.6342 -0.2793 -0.0145
38188SOL    HW116943   2.029   3.649   6.632 -0.2243 -1.8704  2.1043
38188SOL    HW216944   2.023   3.786   6.698  1.3547 -0.0078 -1.3405
38189SOL     OW16945   0.366   6.907   2.862  0.3445  0.5807  0.3552
38189SOL    HW116946   0.439   6.969   2.865  0.2926  0.6330  0.6184
38189SOL    HW216947   0.312   6.930   2.938 -0.3236  0.9929 -0.2297
38190SOL     OW16948  10.783  10.312   9.688  0.7987 -1.2056  0.1294
38190SOL    HW116949  10.851  10.264   9.641  1.4738 -0.1200 -0.0457
38190SOL    HW216950  10.818  10.400   9.697  0.6366 -1.3312  2.5725
38191SOL     OW16951   8.044   2.529   4.053  0.1195  0.2879  0.1010
38191SOL    HW116952   8.127   2.530   4.102 -0.5861 -0.2419  1.3364
38191SOL    HW216953   8.070   2.508   3.963  1.5010  1.7953  0.1010
38192SOL     OW16954   2.682   3.308   3.587  0.4961 -0.1155  0.0618
38192SOL    HW116955   2.632   3.304   3.505 -1.5659  2.0939  1.0725
38192SOL    HW216956   2.649   3.234   3.638  0.1790 -0.2131 -0.2747
38193SOL     OW16957  10.785   9.307   4.443 -0.2392  1.1053 -0.0458
38193SOL    HW116958  10.734   9.316   4.524 -1.6141  1.6659 -0.9347
38193SOL    HW216959  10.814   9.216   4.444 -2.4883  0.3120 -0.1579
38194SOL     OW16960   5.394   3.382   9.105 -0.1205 -0.1069  0.2885
38194SOL    HW116961   5.409   3.336   9.188 -1.0998  0.2554  0.6774
38194SOL    HW216962   5.370   3.313   9.043 -2.1908 -0.0912  1.0184
38195SOL     OW16963  10.677  10.120   6.090 -0.0445  0.0623  0.2572
38195SOL    HW116964  10.762  10.165   6.084  0.0632 -0.1117  0.4253
38195SOL    HW216965  10.701  10.029   6.108 -0.2674  0.0026  0.2472
38196SOL     OW16966   6.231  10.355   6.526  0.4749  0.1981 -0.4175
38196SOL    HW116967   6.154  10.411   6.533  0.0111 -0.5676  1.4946
38196SOL    HW216968   6.291  10.388   6.592  1.3204  0.0782 -1.1076
38197SOL     OW16969   2.976   3.144   3.655  0.8064 -0.3134  0.4121
38197SOL    HW116970   3.068   3.149   3.682  0.9746  0.5293 -0.2674
38197SOL    HW216971   2.958   3.230   3.616 -0.5195 -0.1538  1.3101
38198SOL     OW16972   2.431   8.266   8.515  0.1567 -0.3960 -0.3041
38198SOL    HW116973   2.380   8.208   8.458 -0.5211  0.0420 -0.1584
38198SOL    HW216974   2.522   8.254   8.487 -0.0089 -1.2615 -0.5109
38199SOL     OW16975   6.511  10.757   1.051 -0.0128  0.6325  0.1505
38199SOL    HW116976   6.557  10.677   1.076 -0.3905 -0.1102 -1.3962
38199SOL    HW216977   6.581  10.819   1.027  0.2467  0.2458 -0.1017
38200SOL     OW16978   5.148   0.405   8.567 -0.0837 -0.3886 -0.4696
38200SOL    HW116979   5.243   0.411   8.561 -0.0005 -2.0453 -1.3508
38200SOL    HW216980   5.123   0.475   8.628  1.7395 -0.3331  0.2710
38201SOL     OW16981   7.099  10.442   6.061 -0.7093  0.7033 -0.4163
38201SOL    HW116982   7.040  10.507   6.022 -0.3178  1.2581 -0.0917
38201SOL    HW216983   7.168  10.494   6.102 -0.4116  0.0796 -0.1208
38202SOL     OW16984   9.344   5.790   8.029 -0.3881  0.4161 -0.0278
38202SOL    HW116985   9.259   5.802   7.989 -0.4418  1.3988  0.3686
38202SOL    HW216986   9.358   5.869   8.081 -0.0638 -0.5601  1.4219
38203SOL     OW16987   8.129   3.075   9.656 -0.1341 -0.6041  0.2565
38203SOL    HW116988   8.103   3.165   9.640 -0.6792 -1.0397 -1.6196
38203SOL    HW216989   8.086   3.051   9.738 -1.1253  0.4109  0.0503
38204SOL     OW16990   8.832   9.681   9.275  0.2420 -0.0898 -0.2878
38204SOL    HW116991   8.811   9.747   9.341  0.0649 -2.2601  1.9844
38204SOL    HW216992   8.927   9.667   9.284  0.1347 -0.7479 -0.1251
38205SOL     OW16993   2.396   7.030  10.251  0.2758 -0.3084  0.0103
38205SOL    HW116994   2.304   7.053  10.238  0.2870  0.8106  1.6852
38205SOL    HW216995   2.419   6.978  10.173 -1.6149 -0.1919 -0.6684
38206SOL     OW16996   7.299   0.663   7.983  0.6417 -0.5423 -0.4578
38206SOL    HW116997   7.392   0.673   8.003  0.6429  0.1862 -0.8136
38206SOL    HW216998   7.285   0.715   7.904 -0.3488  0.5332  0.3791
38207SOL     OW16999   0.995   7.637   3.407 -0.0680 -0.1937 -0.5351
38207SOL    HW117000   0.938   7.713   3.412  1.9046  1.5691 -2.8094
38207SOL    HW217001   1.044   7.638   3.490 -1.8505 -0.6136  0.5851
38208SOL     OW17002   3.528   0.063   7.228 -0.6506  0.2263 -0.3311
38208SOL    HW117003   3.581   0.129   7.273  1.3106 -0.6999 -1.1679
38208SOL    HW217004   3.572   0.049   7.144 -2.1316 -0.7320 -0.9968
38209SOL     OW17005   3.453  10.098   6.074  0.0569 -0.2543 -0.3033
38209SOL    HW117006   3.444  10.007   6.046  2.1905 -0.6236  0.0030
38209SOL    HW217007   3.536  10.100   6.122 -1.0228  1.3916  1.6662
38210SOL     OW17008   7.156   5.508   2.347  0.0491  0.1054  0.5237
38210SOL    HW117009   7.246   5.529   2.322 -0.5144  0.0351 -1.7888
38210SOL    HW217010   7.157   5.509   2.443  2.8302 -1.2800  0.6133
38211SOL     OW17011   9.377   9.572   6.400 -0.1513 -0.2757  0.3394
38211SOL    HW117012   9.350   9.664   6.392  1.6398  0.3025  0.6235
38211SOL    HW217013   9.295   9.523   6.393 -1.2095  1.3629  0.7145
38212SOL     OW17014   3.212   0.776   0.731  0.2135 -0.3333 -0.3218
38212SOL    HW117015   3.292   0.827   0.715 -0.1650  0.4208  0.1569
38212SOL    HW217016   3.141   0.839   0.720 -0.3124 -0.9583 -0.5450
38213SOL     OW17017   1.308   4.612   2.273  0.0933 -0.1522 -0.2219
38213SOL    HW117018   1.346   4.628   2.360  0.6822  0.8853 -0.6497
38213SOL    HW217019   1.217   4.588   2.291 -0.1552  1.3108  0.6484
38214SOL     OW17020   0.289   1.784   4.940  0.2423  0.1724 -0.1961
38214SOL    HW117021   0.234   1.797   5.017 -0.7971  0.4250 -0.9681
38214SOL    HW217022   0.233   1.805   4.866  1.3131  0.2097 -1.0212
38215SOL     OW17023   1.255   4.126   1.504  0.5707 -0.0519 -0.1561
38215SOL    HW117024   1.238   4.217   1.480 -1.1042 -0.6440 -1.3980
38215SOL    HW217025   1.339   4.129   1.549  1.5943  1.8258 -1.9966
38216SOL     OW17026   3.956   6.725   6.937  0.2945 -0.0575  0.4176
38216SOL    HW117027   3.982   6.633   6.947  0.1918 -0.1412 -0.0664
38216SOL    HW217028   4.037   6.769   6.912 -0.1717 -0.4812 -2.0694
38217SOL     OW17029   0.415   1.408   2.440 -0.3139  0.9314 -0.4631
38217SOL    HW117030   0.409   1.322   2.398  0.4716  0.8074 -0.3431
38217SOL    HW217031   0.383   1.393   2.529  2.2137  0.1214  0.4013
38218SOL     OW17032   6.717   3.804   1.282  0.0675  0.0098 -0.3431
38218SOL    HW117033   6.808   3.818   1.253  1.0138 -1.2735  1.7969
38218SOL    HW217034   6.724   3.788   1.376 -2.2232 -1.5943 -0.3716
38219SOL     OW17035   9.748   4.604  10.213 -0.4792 -0.4418 -0.4839
38219SOL    HW117036   9.769   4.696  10.231 -0.8147 -0.6929  1.4480
38219SOL    HW217037   9.671   4.607  10.156  0.0944  0.4585 -1.2318
38220SOL     OW17038   3.531   1.295   4.784  0.0267 -0.0186 -0.6296
38220SOL    HW117039   3.448   1.247   4.787  0.7954 -1.5545 -2.0140
38220SOL    HW217040   3.583   1.258   4.855 -1.0227  2.1944  1.4160
38221SOL     OW17041   6.412   0.880   9.887 -0.4781  0.2059  0.3042
38221SOL    HW117042   6.474   0.945   9.919  1.2495 -1.3746  0.3470
38221SOL    HW217043   6.399   0.819   9.960 -2.1228  0.4990  0.2993
38222SOL     OW17044   4.281   3.646   6.672  0.1400  0.4904  0.1838
38222SOL    HW117045   4.299   3.675   6.761 -1.2936 -1.6457  1.2720
38222SOL    HW217046   4.187   3.659   6.661 -0.0469 -1.0377 -0.2781
38223SOL     OW17047   7.909   3.129   0.003  0.1717 -0.8486  0.2794
38223SOL    HW117048   7.863   3.202   0.046 -0.0488 -0.2907 -0.8605
38223SOL    HW217049   7.975   3.102   0.067  1.7380  1.8042 -0.0439
38224SOL     OW17050   1.460   0.927   0.041  0.6696  0.0989 -0.2690
38224SOL    HW117051   1.450   0.865  -0.031  1.2840  1.3103 -1.4396
38224SOL    HW217052   1.402   0.894   0.110  0.4230 -1.3429 -1.1361
38225SOL     OW17053  10.145   6.786   6.033 -0.0003  0.6921 -0.3690
38225SOL    HW117054  10.063   6.760   5.991 -0.6280 -0.3482  1.3783
38225SOL    HW217055  10.211   6.779   5.964 -1.0662 -0.4024 -1.3258
38226SOL     OW17056   5.300   1.780   5.710  0.6253  0.5110 -0.6121
38226SOL    HW117057   5.231   1.842   5.731  0.8639  0.2059  1.2478
38226SOL    HW217058   5.279   1.748   5.623 -1.4241  0.6271 -0.1932
38227SOL     OW17059   3.284   2.286   6.422  0.2013  0.3689  0.0754
38227SOL    HW117060   3.351   2.328   6.476  1.3303 -1.2710  0.0045
38227SOL    HW217061   3.245   2.358   6.372 -0.4885  1.8486  2.5972
38228SOL     OW17062   4.349   2.467   8.004  0.3366  0.2735  0.0174
38228SOL    HW117063   4.328   2.502   8.091 -1.1001 -1.0934  0.2858
38228SOL    HW217064   4.320   2.375   8.008  1.7364 -0.2745 -1.4011
38229SOL     OW17065   7.817   9.621   2.266 -0.8574  0.8040 -0.3876
38229SOL    HW117066   7.750   9.559   2.239 -0.3649 -0.9174  2.0465
38229SOL    HW217067   7.898   9.589   2.225 -0.3183 -1.1555  2.0129
38230SOL     OW17068   2.363   5.336  10.258 -0.0067  0.7267 -0.4952
38230SOL    HW117069   2.363   5.359  10.165 -2.2922  1.8586 -0.2978
38230SOL    HW217070   2.344   5.242  10.260 -0.9827  0.8946 -1.1800
38231SOL     OW17071   6.710   3.079   7.973  0.2397 -0.1770 -0.4512
38231SOL    HW117072   6.726   3.046   7.885  2.3223 -0.4210 -0.0311
38231SOL    HW217073   6.726   3.174   7.966  2.1182 -0.4192 -0.0346
38232SOL     OW17074   0.917   7.465   5.660 -0.0543 -0.7348 -0.2628
38232SOL    HW117075   0.955   7.511   5.586 -1.3988  0.6782 -0.1091
38232SOL    HW217076   0.862   7.397   5.621  0.5802 -1.1240 -0.5060
38233SOL     OW17077   6.823   6.953   6.272 -0.2618  0.1484 -0.0295
38233SOL    HW117078   6.737   6.910   6.265 -0.3547 -0.0337  1.8396
38233SOL    HW217079   6.806   7.044   6.250 -0.7967 -0.0217 -0.3575
38234SOL     OW17080   7.091   8.330   9.445  0.5556 -0.0330  0.2832
38234SOL    HW117081   7.057   8.250   9.485 -0.9183  1.1705  1.5876
38234SOL    HW217082   7.101   8.308   9.352 -0.2999 -1.5732  0.5138
38235SOL     OW17083   6.212   3.497   5.397 -1.0657 -0.5465  0.3120
38235SOL    HW117084   6.294   3.534   5.365 -1.0161  0.0532  1.0957
38235SOL    HW217085   6.145   3.534   5.339 -0.6721 -2.2010 -1.2672
38236SOL     OW17086   6.623   2.207   4.762  0.1979  0.3938  0.3640
38236SOL    HW117087   6.566   2.182   4.689 -0.8943 -0.7170  1.5717
38236SOL    HW217088   6.625   2.303   4.757  0.1050  0.3543 -1.0767
38237SOL     OW17089   8.706   4.872   7.554 -0.2701  0.6524 -0.4923
38237SOL    HW117090   8.643   4.800   7.552  0.1947  0.1941  0.7565
38237SOL    HW217091   8.756   4.862   7.473 -0.9885  0.2824 -0.8953
38238SOL     OW17092   1.267   0.961   1.586  0.0377 -0.0574  0.3359
38238SOL    HW117093   1.230   1.035   1.634  1.3292 -0.4449  1.9718
38238SOL    HW217094   1.199   0.939   1.522 -0.6682  2.0724  0.2748
38239SOL     OW17095   1.699   4.137   6.447  0.0379  0.1834 -0.5257
38239SOL    HW117096   1.625   4.123   6.387 -0.3629  0.2606 -0.0591
38239SOL    HW217097   1.700   4.231   6.464 -1.1128 -0.0506  1.1339
38240SOL     OW17098   8.669   1.705   3.079 -0.6295  0.0236  0.5817
38240SOL    HW117099   8.610   1.647   3.127 -0.3695 -0.4723  0.3153
38240SOL    HW217100   8.747   1.651   3.063 -1.2450 -0.3354 -1.6534
38241SOL     OW17101   3.059   4.802   6.196 -0.1459  0.0194  0.2446
38241SOL    HW117102   3.146   4.814   6.160  0.4551 -3.6115  0.0581
38241SOL    HW217103   3.008   4.761   6.126 -1.3315  0.0512  1.0357
38242SOL     OW17104   7.752   4.614   0.901  0.9186 -0.0998 -0.4503
38242SOL    HW117105   7.703   4.645   0.825  0.9114  0.3936 -0.2453
38242SOL    HW217106   7.809   4.546   0.865  2.4888  1.5976 -1.3300
38243SOL     OW17107   8.646   8.120   5.068  0.1699  0.0847  0.0424
38243SOL    HW117108   8.569   8.156   5.112 -0.4482 -0.6413 -0.4156
38243SOL    HW217109   8.716   8.183   5.086 -0.6419  1.0019  0.0638
38244SOL     OW17110   9.882   3.676   9.362  0.5264  0.2999 -0.2125
38244SOL    HW117111   9.896   3.584   9.341  1.2742  0.6163 -1.2122
38244SOL    HW217112   9.892   3.682   9.457  0.5363 -0.6307 -0.1490
38245SOL     OW17113   4.208   1.105   0.976  0.4817 -0.2913 -0.7525
38245SOL    HW117114   4.167   1.189   0.996  0.6709 -0.3046 -0.2847
38245SOL    HW217115   4.302   1.121   0.987  0.6442 -0.1866 -2.0823
38246SOL     OW17116  10.252   5.037   9.066  0.4618  0.1545 -0.2746
38246SOL    HW117117  10.309   5.056   9.140 -0.9157  0.3187  0.7807
38246SOL    HW217118  10.163   5.048   9.100 -0.2398 -1.0194 -1.5986
38247SOL     OW17119  10.403   9.207   9.269  0.2147  0.0245 -0.3340
38247SOL    HW117120  10.471   9.274   9.269  1.7258 -1.4145 -0.6960
38247SOL    HW217121  10.435   9.142   9.333 -1.8656  0.2564  1.0389
38248SOL     OW17122   6.213   6.938   0.485  0.4226 -0.1026 -0.4409
38248SOL    HW117123   6.272   7.005   0.451  0.8446 -0.6901 -0.8773
38248SOL    HW217124   6.260   6.855   0.473  0.4416 -0.3689  1.2490
38249SOL     OW17125   3.125   8.783   0.677  0.8655 -0.6730  0.1234
38249SOL    HW117126   3.143   8.869   0.638  1.0098  0.0586  1.7515
38249SOL    HW217127   3.211   8.751   0.703  0.5543 -0.0392  2.0610
38250SOL     OW17128  10.425   7.796   3.593  0.0456 -0.1850  0.0204
38250SOL    HW117129  10.405   7.784   3.500 -0.1656 -0.8900  0.1583
38250SOL    HW217130  10.520   7.786   3.598  0.4197  2.3205 -0.4959
38251SOL     OW17131   0.707  10.761   9.884 -0.1165  0.9033 -0.2262
38251SOL    HW117132   0.687  10.708   9.807 -0.4781 -0.7348  0.9530
38251SOL    HW217133   0.648  10.836   9.877  1.0006  1.6632 -2.3767
38252SOL     OW17134   8.661   1.057   3.401 -0.6770  0.2534 -0.3218
38252SOL    HW117135   8.740   1.095   3.440 -2.0380  1.3214  1.5322
38252SOL    HW217136   8.605   1.132   3.383 -1.2500 -0.4839 -1.7548
38253SOL     OW17137   0.527   7.307   8.038 -0.4612 -0.1459  0.5705
38253SOL    HW117138   0.571   7.370   7.981 -1.2915  0.3793  0.4935
38253SOL    HW217139   0.566   7.321   8.124  1.2386 -1.3577  0.0570
38254SOL     OW17140   7.473   3.331  10.640 -1.1078 -0.1042 -0.6793
38254SOL    HW117141   7.422   3.406  10.612 -1.8485 -0.1484  0.4778
38254SOL    HW217142   7.564   3.355  10.621 -1.4162  0.6670 -1.2214
38255SOL     OW17143   9.820   5.221   8.888  0.0455 -0.4038  0.3608
38255SOL    HW117144   9.784   5.305   8.857 -0.3157 -0.5987  0.2505
38255SOL    HW217145   9.914   5.234   8.886 -0.0076  0.7523  2.3906
38256SOL     OW17146   5.596   8.608   7.857 -0.0069  0.0834  0.0965
38256SOL    HW117147   5.504   8.621   7.836 -0.1556 -0.9616  0.0436
38256SOL    HW217148   5.630   8.555   7.785  0.2274 -0.9269  0.9327
38257SOL     OW17149   3.588   7.019   7.118 -0.1295 -0.9814 -0.3446
38257SOL    HW117150   3.510   7.051   7.072 -1.0015  0.0829  1.7378
38257SOL    HW217151   3.556   6.945   7.171  0.7192 -1.7903 -0.9172
38258SOL     OW17152   4.662   9.973   4.967  0.2193 -0.1436  0.4764
38258SOL    HW117153   4.616   9.919   5.031  0.4943 -0.0135  0.7842
38258SOL    HW217154   4.741   9.922   4.945  1.5680  1.0197  2.3189
38259SOL     OW17155   2.534   7.920   1.483 -0.1171 -0.0809 -0.2502
38259SOL    HW117156   2.539   7.945   1.575 -0.9979  0.4635 -0.3387
38259SOL    HW217157   2.460   7.971   1.448 -0.0217 -0.5502 -1.1672
38260SOL     OW17158   5.674   6.526   3.505  0.4333  0.3515  0.2392
38260SOL    HW117159   5.659   6.491   3.593  0.0773  1.3592  0.5861
38260SOL    HW217160   5.767   6.548   3.503  1.3030 -2.8301 -0.8138
38261SOL     OW17161   2.158   3.504   5.915  0.3417 -0.0141 -0.0933
38261SOL    HW117162   2.225   3.443   5.886  0.9191  1.0993 -1.1929
38261SOL    HW217163   2.193   3.543   5.995  1.8825  1.8573 -1.5928
38262SOL     OW17164   4.837   4.637   1.006  0.1992  0.2325 -0.0309
38262SOL    HW117165   4.929   4.662   1.001 -0.1618  1.4447 -1.0987
38262SOL    HW217166   4.798   4.699   1.067  0.1855 -0.6213  0.8432
38263SOL     OW17167   7.732   3.425   7.757 -0.3311 -0.3500  0.2611
38263SOL    HW117168   7.654   3.422   7.813 -0.0658  2.2119  0.9089
38263SOL    HW217169   7.804   3.443   7.817  0.1069  1.4310 -0.7457
38264SOL     OW17170   1.682   7.731   0.819  0.0344 -0.0406 -0.2404
38264SOL    HW117171   1.715   7.688   0.898 -0.1369 -0.6921 -0.5203
38264SOL    HW217172   1.589   7.744   0.836  0.0931  0.2600 -0.1411
38265SOL     OW17173   6.477   8.998   4.319 -0.3580 -0.2597  0.1370
38265SOL    HW117174   6.483   9.094   4.324  0.3928 -0.3834  2.1906
38265SOL    HW217175   6.421   8.974   4.393  0.9019 -1.5190  0.7138
38266SOL     OW17176   3.649   4.295   6.374  0.5808  0.0284 -0.2024
38266SOL    HW117177   3.715   4.264   6.435  0.3274 -0.2620 -0.0707
38266SOL    HW217178   3.667   4.248   6.292  0.6428  0.0774 -0.2165
38267SOL     OW17179   5.606   3.984  10.339  0.4528  0.2353 -0.6300
38267SOL    HW117180   5.659   3.906  10.324  0.2493  0.0947 -0.6206
38267SOL    HW217181   5.666   4.047  10.379  0.6360  0.1117 -0.7102
38268SOL     OW17182   1.628   5.765   5.925  0.2246 -0.2979  0.1783
38268SOL    HW117183   1.605   5.834   5.987  0.3157  1.3438 -1.5089
38268SOL    HW217184   1.719   5.785   5.900  0.8788 -2.1039  0.9612
38269SOL     OW17185   2.125   4.374   0.170 -0.3599  0.5353 -0.1891
38269SOL    HW117186   2.128   4.468   0.189 -0.9189  0.4088  0.5609
38269SOL    HW217187   2.089   4.335   0.249 -0.0366 -0.3282 -0.4593
38270SOL     OW17188   3.135   9.941   2.998  0.4443  0.6828 -0.1569
38270SOL    HW117189   3.188   9.904   3.069 -0.6264 -1.1488 -0.2563
38270SOL    HW217190   3.085   9.867   2.964 -0.9936  2.0400 -1.1301
38271SOL     OW17191   2.274   8.373   2.501  0.1984  0.2647  0.2951
38271SOL    HW117192   2.238   8.454   2.536  0.4537 -0.4192  2.2407
38271SOL    HW217193   2.355   8.399   2.458  0.3409  1.0418  1.0081
38272SOL     OW17194   2.432   1.981   1.851  0.4636  0.3167 -0.2798
38272SOL    HW117195   2.390   2.050   1.902 -1.0822 -1.1326  0.4965
38272SOL    HW217196   2.365   1.954   1.788  0.5787 -1.2846  0.2459
38273SOL     OW17197   0.146   6.614   5.980  0.3499  0.3265 -0.2766
38273SOL    HW117198   0.133   6.637   5.888  1.1654 -0.4721 -0.6034
38273SOL    HW217199   0.114   6.525   5.988  1.9910 -0.2878 -0.2357
38274SOL     OW17200   1.113   2.176   7.145  0.6192 -0.2626  0.0161
38274SOL    HW117201   1.164   2.241   7.194  1.3164 -0.5184 -0.3542
38274SOL    HW217202   1.080   2.224   7.069  0.4736 -0.1456  0.1527
38275SOL     OW17203   0.636  10.211   6.927 -0.1949 -0.2533  0.2207
38275SOL    HW117204   0.720  10.241   6.962 -1.6458  1.5274  2.4743
38275SOL    HW217205   0.608  10.143   6.988 -1.0258  0.1731  0.3202
38276SOL     OW17206   0.079   0.294   7.173 -0.0397  0.6033 -0.1150
38276SOL    HW117207   0.134   0.372   7.165  0.1954  0.4212 -0.2874
38276SOL    HW217208  -0.009   0.324   7.147  0.0060  0.8610  0.0299
38277SOL     OW17209   4.637   6.346   5.147  0.1594 -0.6145 -0.0439
38277SOL    HW117210   4.611   6.266   5.191 -0.0579 -0.3901  0.2338
38277SOL    HW217211   4.653   6.409   5.217 -0.0885 -0.2869 -0.2767
38278SOL     OW17212   7.030   6.723   7.678 -0.0165  0.6768 -0.4694
38278SOL    HW117213   6.961   6.777   7.717 -1.2084 -0.2036 -1.3002
38278SOL    HW217214   7.108   6.744   7.729 -1.1658  0.7548  1.3387
38279SOL     OW17215   1.360   6.962   8.843 -0.0437 -0.0563 -0.1169
38279SOL    HW117216   1.339   7.052   8.868 -1.0728 -0.7418  1.6669
38279SOL    HW217217   1.284   6.933   8.793  0.4637  0.1708 -1.0410
38280SOL     OW17218   8.813   7.362   3.962  0.9857  0.1890  0.3780
38280SOL    HW117219   8.857   7.294   4.013 -0.6781 -0.9834  0.3284
38280SOL    HW217220   8.735   7.384   4.013  0.5354  0.7151 -0.5136
38281SOL     OW17221  10.344   1.182   2.924 -0.0681 -0.3333 -0.6963
38281SOL    HW117222  10.248   1.188   2.919  0.0321  0.2789 -3.1689
38281SOL    HW217223  10.373   1.270   2.947 -0.0705 -0.0774 -1.6110
38282SOL     OW17224   7.240   7.847   6.103 -0.2847 -0.3213 -0.0511
38282SOL    HW117225   7.268   7.792   6.029 -0.2307 -1.0813  0.5209
38282SOL    HW217226   7.262   7.936   6.077 -1.6908 -0.3788 -1.6422
38283SOL     OW17227   6.427  10.584   3.295  0.5500 -0.3325  0.6505
38283SOL    HW117228   6.480  10.634   3.357  0.9748 -0.2068  0.1888
38283SOL    HW217229   6.407  10.646   3.225 -1.8374  0.2128  1.7116
38284SOL     OW17230   4.159   6.880   1.057 -0.0970  0.2082 -0.2910
38284SOL    HW117231   4.108   6.858   0.979  0.6635 -0.3710 -0.6376
38284SOL    HW217232   4.126   6.820   1.125 -1.7949  1.7073  0.2746
38285SOL     OW17233   2.497   0.141   7.205 -0.3756 -0.4168 -0.0022
38285SOL    HW117234   2.438   0.214   7.185 -0.4621  0.6040  3.3783
38285SOL    HW217235   2.584   0.180   7.206 -0.3008 -0.5875  0.7382
38286SOL     OW17236   0.066   9.247   9.849 -0.0413 -1.0717 -0.0718
38286SOL    HW117237   0.131   9.198   9.799  0.7596 -1.0848  0.9574
38286SOL    HW217238   0.035   9.186   9.915 -0.9401 -0.9898 -0.4027
38287SOL     OW17239   6.092   3.417   0.858 -0.2245  0.2512 -0.3058
38287SOL    HW117240   6.023   3.469   0.899  0.4355  0.5525  0.4560
38287SOL    HW217241   6.081   3.430   0.764 -1.4342 -0.0072 -0.2108
38288SOL     OW17242   0.172   9.588   5.831  0.3412  0.1265  0.3814
38288SOL    HW117243   0.224   9.661   5.795  0.5369 -0.1311  0.1395
38288SOL    HW217244   0.177   9.520   5.764 -1.1993  0.4759 -0.1346
38289SOL     OW17245   5.158   3.192   6.518  0.5777 -0.5145  0.3064
38289SOL    HW117246   5.245   3.157   6.497  0.7182 -0.6502  1.0914
38289SOL    HW217247   5.118   3.126   6.574  0.3504 -0.0072  0.7555
38290SOL     OW17248   1.729   2.955   0.944 -0.2114 -0.0239  0.7052
38290SOL    HW117249   1.770   2.958   0.857  1.5840 -0.6485  1.4851
38290SOL    HW217250   1.719   3.047   0.969 -0.5381  0.1538 -0.0641
38291SOL     OW17251   6.383   5.857   1.862  0.4480  0.0830 -0.1308
38291SOL    HW117252   6.327   5.905   1.801 -0.0199 -0.4617 -0.1403
38291SOL    HW217253   6.415   5.924   1.923 -0.1282  0.4172 -0.1867
38292SOL     OW17254   0.112  10.307   7.030 -0.1217 -0.3611  0.8072
38292SOL    HW117255   0.085  10.398   7.040 -1.2785 -0.6221  0.2558
38292SOL    HW217256   0.046  10.268   6.973  0.1738 -1.6226  1.2801
38293SOL     OW17257  10.173  10.438   6.842  0.3262 -0.4230  0.2459
38293SOL    HW117258  10.108  10.436   6.912  0.7241 -1.1356  0.6071
38293SOL    HW217259  10.127  10.477   6.767 -1.0881 -2.5025 -0.0663
38294SOL     OW17260   5.674   9.864   0.293  0.2916  0.2085  0.4500
38294SOL    HW117261   5.632   9.816   0.365 -0.4772 -0.9767 -0.7583
38294SOL    HW217262   5.612   9.933   0.272  0.1035  0.0081  0.3392
38295SOL     OW17263   4.582   0.724   6.785 -0.3969  0.2592  0.1455
38295SOL    HW117264   4.498   0.721   6.739 -0.3850 -0.6228  0.1553
38295SOL    HW217265   4.624   0.640   6.763 -0.4154 -0.2251  1.8000
38296SOL     OW17266   1.460   8.204   9.124  0.2726  0.2565 -0.4868
38296SOL    HW117267   1.370   8.216   9.094 -0.0162  0.8376  0.5409
38296SOL    HW217268   1.488   8.292   9.151  0.0166 -0.3875  2.1716
38297SOL     OW17269   0.813   6.052   4.080 -0.0475  0.3591  0.2749
38297SOL    HW117270   0.818   6.071   3.986 -0.4255  0.4553  0.2695
38297SOL    HW217271   0.853   5.966   4.089 -0.2427  0.2358 -0.0150
38298SOL     OW17272   9.440   0.800   4.161 -0.6040  0.1592 -0.3605
38298SOL    HW117273   9.449   0.774   4.253 -0.3387  1.7263  0.0981
38298SOL    HW217274   9.357   0.762   4.133 -0.8304 -0.1025  0.6242
38299SOL     OW17275   0.838   6.840   3.884 -0.0605  0.1857  0.1322
38299SOL    HW117276   0.850   6.754   3.843 -0.6338  0.0289  0.2776
38299SOL    HW217277   0.751   6.867   3.855  1.0907  1.8615 -1.9915
38300SOL     OW17278   2.710   1.788   6.322  0.6055 -0.3086  0.4727
38300SOL    HW117279   2.740   1.780   6.231 -0.6511 -1.1882  0.1074
38300SOL    HW217280   2.659   1.709   6.337 -0.7558  0.6934  1.3382
38301SOL     OW17281   5.365   2.725   2.480 -0.2625 -0.3422 -0.2301
38301SOL    HW117282   5.426   2.682   2.421  0.7005  1.4809 -0.6518
38301SOL    HW217283   5.278   2.695   2.452  0.2499 -0.4286 -1.8179
38302SOL     OW17284   0.822   3.598   7.129  0.3764 -0.4168  0.1504
38302SOL    HW117285   0.859   3.510   7.126  0.3602 -0.4336  0.4697
38302SOL    HW217286   0.887   3.650   7.176  1.5015  0.2810 -2.0341
38303SOL     OW17287   2.618   3.790   3.164  0.1463 -0.0594 -0.2536
38303SOL    HW117288   2.617   3.744   3.080  0.7519  2.7422 -1.9183
38303SOL    HW217289   2.525   3.807   3.183  0.0306 -0.2824 -0.6217
38304SOL     OW17290   4.541   1.239   7.739 -0.1657 -0.0161 -0.0917
38304SOL    HW117291   4.622   1.207   7.699  0.0881 -0.5010  0.7873
38304SOL    HW217292   4.483   1.163   7.737 -0.4355  0.1958 -0.2902
38305SOL     OW17293   7.952   4.619   1.130 -0.0613  0.2725  0.7058
38305SOL    HW117294   7.937   4.713   1.123 -3.9050 -0.1773  0.6690
38305SOL    HW217295   7.935   4.585   1.042  0.2135 -0.5856  0.9681
38306SOL     OW17296   9.243   0.718   1.927 -0.0633 -0.6556  0.2396
38306SOL    HW117297   9.175   0.751   1.987  0.3594 -0.6288  0.7164
38306SOL    HW217298   9.214   0.746   1.840 -0.2305  0.0906  0.5285
38307SOL     OW17299  10.126   4.199   0.810 -0.2362  0.1395 -0.4705
38307SOL    HW117300  10.199   4.259   0.793  0.1854 -0.2301 -0.0113
38307SOL    HW217301  10.052   4.257   0.829 -0.4370  0.5434 -2.2891
38308SOL     OW17302   7.578   2.651  10.320 -0.1461 -0.6487  0.3998
38308SOL    HW117303   7.624   2.729  10.350  0.0296 -0.9781  1.0020
38308SOL    HW217304   7.566   2.665  10.226 -3.4246  1.8135  1.0346
38309SOL     OW17305   2.104   2.778   9.175  0.3832 -0.3450 -0.1242
38309SOL    HW117306   2.173   2.805   9.115  0.6845  0.3366  0.5027
38309SOL    HW217307   2.149   2.764   9.258 -0.2187  0.1064  0.2886
38310SOL     OW17308   7.002   9.986   0.198 -0.0624  0.0495 -0.4790
38310SOL    HW117309   7.001  10.070   0.243  1.7272 -0.1179 -0.0325
38310SOL    HW217310   6.915   9.978   0.159 -1.0860  1.0008  1.4697
38311SOL     OW17311   9.636   4.502   2.488 -0.3783  0.0305  0.1061
38311SOL    HW117312   9.678   4.433   2.539  0.2519 -0.2774 -0.7941
38311SOL    HW217313   9.704   4.570   2.479 -1.2930  1.2288  1.7949
38312SOL     OW17314  10.611   0.416   7.122 -0.5006 -0.0766 -0.0469
38312SOL    HW117315  10.558   0.453   7.051  0.2807  0.3512 -0.4231
38312SOL    HW217316  10.548   0.400   7.193 -1.1235  0.4706 -0.4588
38313SOL     OW17317   7.455   6.405   9.968 -0.3014  0.2246  0.0076
38313SOL    HW117318   7.365   6.384   9.991 -0.7450  1.9260 -0.0281
38313SOL    HW217319   7.449   6.440   9.879  0.3234  0.7929  0.1861
38314SOL     OW17320   5.553   5.227   7.160 -0.3253  0.4775 -0.3923
38314SOL    HW117321   5.613   5.154   7.148 -1.8105 -0.9110  0.3091
38314SOL    HW217322   5.610   5.303   7.171  1.2585 -0.5509 -1.0937
38315SOL     OW17323   3.852   2.376   6.643 -0.1451 -0.1116 -0.2581
38315SOL    HW117324   3.887   2.291   6.671  2.5446  0.9735 -0.0423
38315SOL    HW217325   3.850   2.370   6.547  1.3570  0.0061 -0.3224
38316SOL     OW17326   5.887   1.442   1.396 -0.3313 -0.1396 -0.5373
38316SOL    HW117327   5.882   1.375   1.464 -0.8066  0.0688 -0.3675
38316SOL    HW217328   5.817   1.418   1.334 -1.6151  1.1302  0.3650
38317SOL     OW17329   5.621   9.444   6.170  0.3787  0.7702  0.3961
38317SOL    HW117330   5.631   9.444   6.265  2.0206  0.8345  0.2644
38317SOL    HW217331   5.528   9.457   6.155  0.0263  0.2892  1.9976
38318SOL     OW17332  10.516   1.257   5.975  0.4863  0.0696 -0.0231
38318SOL    HW117333  10.605   1.246   5.941  0.5355 -0.9816  0.4235
38318SOL    HW217334  10.460   1.237   5.901  0.6039  0.8184 -0.3319
38319SOL     OW17335  10.122   0.651   5.778 -0.0670 -0.4061 -0.3261
38319SOL    HW117336  10.188   0.694   5.724  1.3968 -0.4471  1.3320
38319SOL    HW217337  10.159   0.565   5.798 -0.2539 -0.1456  1.2605
38320SOL     OW17338   6.845  10.475   3.188 -0.1651 -0.4059  0.1079
38320SOL    HW117339   6.822  10.402   3.246  0.5773 -0.0187  0.9250
38320SOL    HW217340   6.815  10.448   3.102  2.8576 -3.1219 -0.3137
38321SOL     OW17341   7.319   5.910   3.398 -0.0169 -0.7028 -0.3590
38321SOL    HW117342   7.335   5.992   3.351 -1.3106 -0.0548  0.2818
38321SOL    HW217343   7.394   5.855   3.376  0.9125  0.6680 -0.7644
38322SOL     OW17344   7.916   2.065   9.493  0.1961 -0.8532 -0.3599
38322SOL    HW117345   7.829   2.036   9.517  0.5447 -2.0774 -0.5340
38322SOL    HW217346   7.949   1.998   9.433  0.5827  0.4948 -1.7230
38323SOL     OW17347   0.118   9.685   0.910 -0.4195 -0.1776  0.5948
38323SOL    HW117348   0.034   9.688   0.956 -0.2082 -0.7909  1.0354
38323SOL    HW217349   0.138   9.592   0.904  0.6611 -0.0000  1.2967
38324SOL     OW17350  10.319   9.379   6.497  0.7572  0.4938 -0.3839
38324SOL    HW117351  10.277   9.295   6.516  0.4797  0.6095 -0.4692
38324SOL    HW217352  10.304   9.392   6.404 -0.0935  1.1115 -0.1741
38325SOL     OW17353   9.449   3.109   5.330  0.2925 -0.3300  0.1467
38325SOL    HW117354   9.439   3.195   5.289  1.8066  0.6090  1.6198
38325SOL    HW217355   9.468   3.050   5.257  0.6134  0.8543 -0.7619
38326SOL     OW17356   5.047   6.792   9.515 -0.7418  0.3873  0.0008
38326SOL    HW117357   5.031   6.717   9.458  2.4901  1.0991 -2.1220
38326SOL    HW217358   4.982   6.857   9.488 -2.6098 -1.0454  0.8425
38327SOL     OW17359   6.601   6.797   9.863  0.5796 -0.2318  0.4539
38327SOL    HW117360   6.664   6.780   9.933  4.4492  2.3966 -1.9988
38327SOL    HW217361   6.539   6.860   9.901  1.0100 -0.8037  2.1946
38328SOL     OW17362   3.158   1.741   5.758  0.2222 -0.1991 -0.4788
38328SOL    HW117363   3.090   1.674   5.767  1.0556 -0.8722  1.2293
38328SOL    HW217364   3.161   1.784   5.843  0.6700  1.0968 -1.1211
38329SOL     OW17365   6.728   5.626   1.302  0.1547 -0.6236  0.1435
38329SOL    HW117366   6.795   5.607   1.237 -0.5415  0.4101 -0.9119
38329SOL    HW217367   6.748   5.715   1.332 -0.4217 -0.5069  0.2023
38330SOL     OW17368   9.167   8.814   4.259 -0.0197 -0.3821 -0.6697
38330SOL    HW117369   9.256   8.848   4.266 -0.4985  0.8610 -0.3208
38330SOL    HW217370   9.167   8.734   4.312  0.6124  0.2231  0.2729
38331SOL     OW17371   7.659   7.811   9.898 -0.7776 -0.8256  0.2598
38331SOL    HW117372   7.694   7.766   9.975 -1.3072 -1.0597  0.3665
38331SOL    HW217373   7.737   7.844   9.853 -0.5039  2.2862  2.6295
38332SOL     OW17374   0.094   3.130   5.871 -0.2642 -0.3749 -0.0766
38332SOL    HW117375   0.032   3.171   5.931 -1.1614 -1.3456 -0.3254
38332SOL    HW217376   0.124   3.052   5.917  0.9301  0.1587  0.1107
38333SOL     OW17377   2.444   6.991   5.420 -0.2057  0.2579 -0.0894
38333SOL    HW117378   2.530   6.985   5.462 -0.1860  0.8430 -0.0390
38333SOL    HW217379   2.421   7.084   5.427 -0.7676  0.1290 -0.2488
38334SOL     OW17380   0.622   0.087   6.194 -0.2800 -0.2725  0.5831
38334SOL    HW117381   0.604  -0.005   6.177  2.4171 -1.0358  1.3809
38334SOL    HW217382   0.643   0.091   6.287  0.0502  1.0650  0.4795
38335SOL     OW17383   6.405  10.188   7.127  0.1489 -0.0051 -0.3840
38335SOL    HW117384   6.349  10.161   7.199  0.3931  0.0352 -0.1789
38335SOL    HW217385   6.490  10.149   7.147  0.2110 -0.0140 -0.6613
38336SOL     OW17386   9.139   9.958   1.543 -0.5375  0.1970  0.4021
38336SOL    HW117387   9.208   9.896   1.517 -1.1326 -0.5462  0.5698
38336SOL    HW217388   9.174  10.001   1.621 -0.2321 -0.1042  0.4340
38337SOL     OW17389   0.681   6.407  10.775 -0.6116 -0.4827  0.1095
38337SOL    HW117390   0.606   6.349  10.760 -1.1267 -0.1422  1.2470
38337SOL    HW217391   0.668   6.440  10.864  0.6487 -0.0461  0.1454
38338SOL     OW17392   3.016   8.206  10.671 -0.2665  0.2548  0.9709
38338SOL    HW117393   3.047   8.168  10.754 -0.6766 -0.6566  0.7178
38338SOL    HW217394   3.052   8.294  10.671  1.3742 -0.3713  1.2185
38339SOL     OW17395   6.913   7.196   5.310 -0.4836 -0.2278  0.3388
38339SOL    HW117396   6.992   7.202   5.363  0.2025  1.4175 -0.7879
38339SOL    HW217397   6.936   7.135   5.240 -1.4351 -2.5115  1.8908
38340SOL     OW17398   8.360   2.977   8.154  0.6320 -0.3134  0.7787
38340SOL    HW117399   8.341   2.910   8.220 -0.4243  0.6101  1.4480
38340SOL    HW217400   8.293   2.964   8.087  1.2614 -0.7831  0.2268
38341SOL     OW17401   1.073   8.738   1.917  0.3369  0.4337 -0.6862
38341SOL    HW117402   1.097   8.766   1.829 -0.1050  1.6414 -0.4577
38341SOL    HW217403   1.058   8.821   1.964 -2.7666 -0.1676 -0.4222
38342SOL     OW17404   9.970   3.611  10.305  0.1239  0.2451 -0.4000
38342SOL    HW117405   9.991   3.703  10.324  1.4120 -0.4860  2.1517
38342SOL    HW217406  10.019   3.561  10.371 -0.0247 -2.3342 -2.1059
38343SOL     OW17407   4.308   1.410   8.275 -0.7178  0.0357  0.1911
38343SOL    HW117408   4.400   1.391   8.295 -0.0769  2.7984  0.2040
38343SOL    HW217409   4.261   1.384   8.355  0.1897 -0.4743  0.5743
38344SOL     OW17410  10.676   5.978   3.812 -0.1966 -0.2437 -0.2161
38344SOL    HW117411  10.771   5.986   3.813 -0.1773 -0.4123 -0.5477
38344SOL    HW217412  10.647   6.053   3.759 -0.2979  0.2479  0.5252
38345SOL     OW17413  10.697   7.744   6.594  0.3488 -0.0547  0.2296
38345SOL    HW117414  10.719   7.832   6.561  0.6103  0.3131  1.3536
38345SOL    HW217415  10.615   7.757   6.641  0.3801 -0.4265  0.3865
38346SOL     OW17416   2.572   1.929   4.810  0.4286 -0.3863 -0.1251
38346SOL    HW117417   2.561   1.842   4.771  0.8677 -0.4843 -0.0403
38346SOL    HW217418   2.514   1.985   4.759  1.7697 -0.3070 -1.6455
38347SOL     OW17419   3.671   1.347   8.739  0.2142 -0.1175 -0.4425
38347SOL    HW117420   3.762   1.323   8.723 -0.2008 -2.2153  0.0385
38347SOL    HW217421   3.651   1.309   8.825 -1.2430 -0.0874 -0.7491
38348SOL     OW17422   4.117   9.000   2.653 -0.3892  0.3291  0.4264
38348SOL    HW117423   4.042   9.059   2.664  0.1116  0.7835  1.6344
38348SOL    HW217424   4.148   8.984   2.742 -1.2668 -2.7996  0.2861
38349SOL     OW17425   5.556   0.330   3.475 -0.1530  0.1377  0.1433
38349SOL    HW117426   5.542   0.389   3.401 -2.7378 -0.4011  0.1171
38349SOL    HW217427   5.556   0.242   3.437  0.6390 -0.0551  0.5565
38350SOL     OW17428   3.867   1.899   2.541 -0.1168  0.2395 -0.0517
38350SOL    HW117429   3.775   1.876   2.527 -0.1911  1.0241 -1.0197
38350SOL    HW217430   3.864   1.977   2.597  0.0763 -1.1619  1.9931
38351SOL     OW17431   7.895  10.041  10.395 -0.3863 -0.2577  0.3618
38351SOL    HW117432   7.844  10.059  10.474  0.6610  0.4502  0.8923
38351SOL    HW217433   7.854   9.962  10.359 -2.8356  1.0904 -0.0789
38352SOL     OW17434   0.239   4.752   3.601  0.7521 -0.0368  0.4105
38352SOL    HW117435   0.225   4.820   3.667  0.4921  1.9727 -1.5816
38352SOL    HW217436   0.322   4.775   3.560 -0.5583  0.7001 -2.0299
38353SOL     OW17437   8.913   3.135   5.658  0.4354 -0.5858 -0.4105
38353SOL    HW117438   8.821   3.112   5.668  0.5985 -0.9749  0.2279
38353SOL    HW217439   8.941   3.089   5.579 -0.4518  1.2255 -1.8649
38354SOL     OW17440   7.010   5.137   6.502 -0.2864  0.1476 -0.8960
38354SOL    HW117441   7.085   5.115   6.448 -0.4912  1.2934 -1.6820
38354SOL    HW217442   6.947   5.176   6.441 -0.6163  1.2563  0.1194
38355SOL     OW17443   2.186   8.510   1.402 -0.6104  0.3318  0.6096
38355SOL    HW117444   2.263   8.469   1.441 -0.0102  0.3138 -0.5498
38355SOL    HW217445   2.113   8.479   1.455  0.3266  2.0181  3.0917
38356SOL     OW17446   0.158   5.777   7.389  0.5004 -0.1437 -0.3102
38356SOL    HW117447   0.229   5.838   7.368 -1.4206  2.5792  0.5923
38356SOL    HW217448   0.187   5.734   7.469  1.1029  0.9995  0.1105
38357SOL     OW17449   6.602   9.001   9.711  0.2274  0.3435 -0.0194
38357SOL    HW117450   6.611   9.062   9.784  2.2939  0.7672 -0.5433
38357SOL    HW217451   6.617   9.056   9.633 -1.1170 -0.2478 -0.7242
38358SOL     OW17452  10.649   2.726   4.635  0.0808 -0.0554 -0.3414
38358SOL    HW117453  10.595   2.745   4.558 -0.0337 -1.1221 -0.5391
38358SOL    HW217454  10.709   2.799   4.641  1.4143 -0.8712 -2.6141
38359SOL     OW17455   9.221   4.318   1.312 -0.5470 -0.6157 -0.2046
38359SOL    HW117456   9.273   4.252   1.268 -0.1523 -0.1299 -0.4818
38359SOL    HW217457   9.250   4.401   1.273 -0.7986 -0.2560  0.3617
38360SOL     OW17458   9.434   5.229   7.533 -0.6458  0.2807 -0.3849
38360SOL    HW117459   9.395   5.294   7.592 -0.5020 -1.0830  1.2695
38360SOL    HW217460   9.378   5.230   7.456 -0.0103  3.1604 -0.9252
38361SOL     OW17461   2.161   0.428   5.637 -0.1012  0.1757 -0.3484
38361SOL    HW117462   2.207   0.510   5.657 -1.1682  1.3404 -2.3323
38361SOL    HW217463   2.072   0.442   5.670 -0.0910 -0.5078 -0.0085
38362SOL     OW17464   4.860   6.236   6.647  0.2293 -0.6587  0.3203
38362SOL    HW117465   4.873   6.324   6.681  1.0962 -0.8403  0.4928
38362SOL    HW217466   4.938   6.219   6.594  0.2672 -1.4790  0.6274
38363SOL     OW17467   3.669   6.919   9.968 -0.2605  0.2903 -0.2531
38363SOL    HW117468   3.612   6.879  10.034  0.9012  0.1178  0.6866
38363SOL    HW217469   3.725   6.847   9.938 -1.8067 -0.0263 -2.6590
38364SOL     OW17470   2.825   8.069   1.941 -0.0771  0.3494 -0.8482
38364SOL    HW117471   2.780   7.985   1.926 -1.9857  1.2193 -0.2926
38364SOL    HW217472   2.917   8.050   1.924 -0.4755 -1.8305 -0.8658
38365SOL     OW17473   8.056   4.532   9.604 -0.4227 -0.3107  0.3898
38365SOL    HW117474   8.001   4.493   9.673  0.8624 -1.3768  0.8426
38365SOL    HW217475   8.032   4.625   9.605 -1.8227 -0.6420  0.9309
38366SOL     OW17476   7.618   9.308   7.134  0.3355  0.5329  0.1327
38366SOL    HW117477   7.665   9.295   7.217  1.0679 -0.9320 -0.4818
38366SOL    HW217478   7.687   9.329   7.071 -0.1567  1.0783 -0.2335
38367SOL     OW17479   9.196   8.980   9.074 -0.6274 -0.3761  0.0805
38367SOL    HW117480   9.219   9.065   9.111 -1.1088  0.5436 -1.6511
38367SOL    HW217481   9.276   8.928   9.085 -0.8586 -0.3437  2.7425
38368SOL     OW17482   2.468   9.074   2.117 -0.6766  0.2945 -0.4330
38368SOL    HW117483   2.460   9.162   2.154 -1.0268  0.2289 -0.3500
38368SOL    HW217484   2.464   9.086   2.022 -1.8290  0.2635 -0.3985
38369SOL     OW17485   5.380   8.739   0.129 -0.4780  0.7299 -0.0903
38369SOL    HW117486   5.442   8.716   0.060 -0.4381  0.3229  0.0801
38369SOL    HW217487   5.416   8.819   0.168 -0.0775  0.5175 -0.0179
38370SOL     OW17488   2.125   1.876   6.418  0.3636  0.6798  0.0212
38370SOL    HW117489   2.039   1.864   6.458  0.1357 -2.4371 -1.1281
38370SOL    HW217490   2.180   1.912   6.488 -1.5913  1.8416  1.0480
38371SOL     OW17491   4.770   7.106   7.238 -0.5943  0.0235 -0.3124
38371SOL    HW117492   4.674   7.110   7.239 -0.5633  0.7619  0.7167
38371SOL    HW217493   4.798   7.192   7.268  0.3773 -0.7726  1.1487
38372SOL     OW17494   0.778   0.889   7.030  0.0408  0.3503  0.0783
38372SOL    HW117495   0.712   0.959   7.031  1.7983  2.1609 -1.8283
38372SOL    HW217496   0.829   0.903   7.110 -0.9626 -0.1894  0.8397
38373SOL     OW17497  10.578   0.271   8.969 -0.4344 -0.2384  0.4313
38373SOL    HW117498  10.579   0.352   9.019 -0.5910  0.2833 -0.3859
38373SOL    HW217499  10.632   0.210   9.020 -1.7331 -0.1784  1.9374
38374SOL     OW17500   8.615  10.204   4.931 -0.2025  0.0303  0.1202
38374SOL    HW117501   8.574  10.259   4.998 -3.0409 -0.2910 -1.2331
38374SOL    HW217502   8.544  10.181   4.871  2.1032 -0.0406 -2.8207
38375SOL     OW17503   2.513   4.715   4.755  0.0994 -0.4991  0.1760
38375SOL    HW117504   2.606   4.703   4.732  0.1044 -1.2283  0.5335
38375SOL    HW217505   2.513   4.725   4.850 -0.0544  1.1151  0.0360
38376SOL     OW17506   1.913   8.988   9.873 -0.0116 -0.1719  0.2832
38376SOL    HW117507   1.897   9.081   9.892 -0.7580 -0.7835  3.1457
38376SOL    HW217508   1.997   8.988   9.826  0.6369  1.9114  1.2878
38377SOL     OW17509   6.287   1.117   1.079  0.4149 -0.6935 -0.0767
38377SOL    HW117510   6.283   1.090   1.171 -0.5469 -0.2605  0.0199
38377SOL    HW217511   6.315   1.039   1.032  0.9624 -0.9042  0.5883
38378SOL     OW17512   7.370   6.821   8.680  0.3193  0.4263 -0.7501
38378SOL    HW117513   7.350   6.788   8.593  1.7536  0.8372 -1.2592
38378SOL    HW217514   7.405   6.909   8.666  0.9284  0.3580  0.1843
38379SOL     OW17515   2.355   3.557   2.670  0.3201 -0.1496 -0.6227
38379SOL    HW117516   2.310   3.585   2.590 -0.0742  0.8423 -0.0636
38379SOL    HW217517   2.440   3.600   2.665 -0.2220  1.0723  0.1515
38380SOL     OW17518   3.497   4.224   5.516  0.4893  0.2384 -0.0185
38380SOL    HW117519   3.515   4.279   5.592  0.7643  0.9743 -0.5973
38380SOL    HW217520   3.554   4.260   5.448  0.0398 -0.2300 -0.6442
38381SOL     OW17521   3.019   5.552   0.154 -0.4413 -0.4665  0.5837
38381SOL    HW117522   3.001   5.562   0.061 -2.7869 -2.2424  0.7551
38381SOL    HW217523   3.076   5.476   0.160 -1.9117 -1.6103  0.6516
38382SOL     OW17524   8.455   4.929   5.871  0.3169 -0.0576  0.1273
38382SOL    HW117525   8.525   4.933   5.937 -0.2639 -0.1770  0.7609
38382SOL    HW217526   8.423   4.839   5.875 -0.1966  0.1246  0.1832
38383SOL     OW17527   6.931   0.619   0.755 -0.4982  0.1588  0.3299
38383SOL    HW117528   6.983   0.538   0.757 -0.3953  0.1528 -1.3489
38383SOL    HW217529   6.983   0.681   0.806  0.5647 -0.2070 -0.2621
38384SOL     OW17530   4.021   8.560   2.795  0.3151 -0.0234  0.0583
38384SOL    HW117531   4.091   8.497   2.813  0.0671 -0.1213  0.7096
38384SOL    HW217532   4.038   8.633   2.854 -0.7852 -0.5542  1.0754
38385SOL     OW17533   0.806   8.375   9.670 -0.2106 -0.3451 -0.0514
38385SOL    HW117534   0.719   8.392   9.635 -1.0700  0.2047  2.1624
38385SOL    HW217535   0.861   8.444   9.633 -0.2034 -1.7327 -2.9076
38386SOL     OW17536   1.592   8.083   9.668  0.0180 -1.0908 -0.4420
38386SOL    HW117537   1.583   8.179   9.665  1.4445 -0.9616 -1.6239
38386SOL    HW217538   1.505   8.052   9.693 -0.6045  0.4853 -0.5065
38387SOL     OW17539   4.644   0.144   7.279 -0.2734  0.1453  0.1253
38387SOL    HW117540   4.717   0.206   7.274  0.7350 -0.8740  1.4191
38387SOL    HW217541   4.608   0.156   7.367 -1.6209  0.5412 -0.4465
38388SOL     OW17542   2.768   2.117  10.215  0.8688 -0.2893  0.3615
38388SOL    HW117543   2.753   2.079  10.129 -0.2691 -0.7901  0.7619
38388SOL    HW217544   2.793   2.042  10.270  0.8858 -0.0913  0.6276
38389SOL     OW17545   6.413   3.234   1.155 -0.3164 -0.2637  0.3640
38389SOL    HW117546   6.422   3.245   1.249  0.2197 -0.6210  0.3593
38389SOL    HW217547   6.408   3.139   1.142  0.6550 -0.2761 -0.0418
38390SOL     OW17548   4.556   9.220   4.943  0.0097 -0.3262  0.4392
38390SOL    HW117549   4.520   9.158   4.879  1.6941  0.0298 -0.9201
38390SOL    HW217550   4.483   9.237   5.003 -1.1561 -1.8852 -0.4581
38391SOL     OW17551   1.199   0.797  10.729  0.4815  0.5595  0.5086
38391SOL    HW117552   1.205   0.850  10.650 -0.8422 -0.1591 -0.1072
38391SOL    HW217553   1.257   0.722  10.712 -1.3258 -0.6468 -0.6959
38392SOL     OW17554   3.104   9.368   2.244  0.1222 -0.4093  0.6642
38392SOL    HW117555   3.197   9.361   2.264  0.0371  1.9495  2.3441
38392SOL    HW217556   3.063   9.302   2.300  0.7145 -0.7497  0.7046
38393SOL     OW17557   7.276   2.787   7.834  0.3237 -0.2713 -0.3426
38393SOL    HW117558   7.296   2.694   7.833 -0.9772 -0.5745  0.0475
38393SOL    HW217559   7.199   2.795   7.890  0.2920  1.0155 -0.5265
38394SOL     OW17560   2.238  10.365   1.518 -0.7150 -0.4772  0.2755
38394SOL    HW117561   2.159  10.419   1.511 -1.0913 -1.1793 -1.1572
38394SOL    HW217562   2.244  10.345   1.612 -1.0407  1.3163  0.7119
38395SOL     OW17563   0.862   4.840   2.827  0.0771  0.1020  0.0939
38395SOL    HW117564   0.877   4.867   2.736 -0.0409  1.3799  0.4386
38395SOL    HW217565   0.902   4.909   2.879 -1.5193  0.3655  1.0250
38396SOL     OW17566   4.918   4.710   8.846 -0.1012  0.0081  0.1669
38396SOL    HW117567   4.884   4.715   8.757  1.7810  1.4877 -0.5298
38396SOL    HW217568   4.999   4.660   8.839 -1.0513 -1.8328  1.4771
38397SOL     OW17569   5.845   7.124   0.359 -0.6311  0.0537 -0.3903
38397SOL    HW117570   5.764   7.137   0.409 -0.0464  0.3717  0.5024
38397SOL    HW217571   5.847   7.196   0.297  0.5264  1.9968  1.7425
38398SOL     OW17572   5.695   4.562   8.442  0.7355 -0.1417  0.2453
38398SOL    HW117573   5.677   4.655   8.427 -0.1806 -0.3575 -0.0916
38398SOL    HW217574   5.699   4.553   8.537 -3.1292 -0.3918  0.5267
38399SOL     OW17575   4.243   4.561   8.739  0.1289  0.1249 -0.1001
38399SOL    HW117576   4.329   4.591   8.711  0.5490 -1.1775 -0.2649
38399SOL    HW217577   4.261   4.500   8.811 -0.6450 -0.1749 -0.1453
38400SOL     OW17578   2.499  10.712   0.484 -0.2333 -0.1273  0.0864
38400SOL    HW117579   2.462  10.759   0.409 -2.1282 -1.2724  0.2364
38400SOL    HW217580   2.426  10.660   0.518  1.2489 -1.6089  1.1645
38401SOL     OW17581   8.030  10.613   1.148 -0.7915 -0.1353  0.2425
38401SOL    HW117582   8.040  10.686   1.209 -0.3421 -0.0420  0.0565
38401SOL    HW217583   7.935  10.597   1.146 -1.0771  1.4783 -0.9168
38402SOL     OW17584   5.310   8.445   6.139 -0.2607 -0.1415 -0.2854
38402SOL    HW117585   5.338   8.498   6.064 -2.1129 -1.1681 -1.8308
38402SOL    HW217586   5.387   8.437   6.194  1.5862 -0.3883 -2.7516
38403SOL     OW17587   1.388   0.229   4.932 -0.6526 -0.2350  0.1817
38403SOL    HW117588   1.402   0.321   4.955  0.5253  0.0725 -1.5275
38403SOL    HW217589   1.447   0.214   4.858 -0.2818 -2.5848  0.8645
38404SOL     OW17590   1.143   7.645   8.787  0.0634 -0.4727  0.5451
38404SOL    HW117591   1.174   7.632   8.877  0.3273 -0.7302  0.4187
38404SOL    HW217592   1.173   7.567   8.740  2.2755  0.8546 -0.4067
38405SOL     OW17593   0.962   2.721   3.331 -0.3351 -0.5045 -0.1095
38405SOL    HW117594   0.898   2.652   3.318  0.8514 -1.8676  0.8704
38405SOL    HW217595   0.972   2.726   3.427  1.3432 -0.7066 -0.2330
38406SOL     OW17596   6.487   5.747   8.807 -0.0656  0.4102  0.5677
38406SOL    HW117597   6.494   5.730   8.713 -0.0311 -0.7946  0.7781
38406SOL    HW217598   6.394   5.763   8.821  0.0334  1.3699  0.2161
38407SOL     OW17599   3.035   8.386   0.475  0.4344 -0.3926 -0.2421
38407SOL    HW117600   2.947   8.398   0.511  0.6533  0.8834 -0.0837
38407SOL    HW217601   3.047   8.291   0.473 -0.9500 -0.5922 -0.3004
38408SOL     OW17602   4.951   8.321   7.802  0.1256 -0.4877 -0.1200
38408SOL    HW117603   4.951   8.301   7.896 -0.2695  1.7490  0.4008
38408SOL    HW217604   5.042   8.340   7.781 -0.0175  0.5883  0.1964
38409SOL     OW17605  10.431  10.718   5.382  0.2933  0.2615 -0.0726
38409SOL    HW117606  10.469  10.758   5.460 -0.7287 -2.3182  1.8833
38409SOL    HW217607  10.444  10.624   5.395  0.3469 -0.2576 -3.2029
38410SOL     OW17608   9.976   0.733   6.083  0.3128 -0.0636  0.5029
38410SOL    HW117609  10.018   0.648   6.074 -1.1343 -0.6988 -0.6598
38410SOL    HW217610  10.048   0.796   6.081  1.2587 -1.1473 -0.8333
38411SOL     OW17611   0.999   1.347   9.535 -0.1680  0.1427 -0.0755
38411SOL    HW117612   0.950   1.266   9.543 -0.6787  0.6333  2.9881
38411SOL    HW217613   1.091   1.322   9.549 -0.4278  0.1457  1.9183
38412SOL     OW17614   0.996   9.202   3.449  0.0483  0.0827  0.0938
38412SOL    HW117615   0.913   9.156   3.451  0.5184 -0.7946 -0.0162
38412SOL    HW217616   0.973   9.294   3.438 -0.9050 -0.1381  0.2222
38413SOL     OW17617   4.338   9.158   9.315  0.1409 -0.1768  0.0014
38413SOL    HW117618   4.398   9.123   9.381  0.5561 -0.5038 -0.5366
38413SOL    HW217619   4.282   9.085   9.292  0.9182 -0.4796 -1.0231
38414SOL     OW17620   4.310   9.882   5.200 -0.4776 -0.2180 -0.5134
38414SOL    HW117621   4.360   9.937   5.140 -0.3187  0.5424  0.3152
38414SOL    HW217622   4.236   9.936   5.227  0.5367  0.2221  1.5640
38415SOL     OW17623   7.037   2.355   0.475 -0.2688 -0.4896  0.0605
38415SOL    HW117624   7.018   2.296   0.403 -0.6125 -0.4796  0.1427
38415SOL    HW217625   6.981   2.431   0.461 -0.9511 -0.8462  0.7874
38416SOL     OW17626   3.125   9.970  10.531 -0.6507  0.7745 -0.2011
38416SOL    HW117627   3.081  10.055  10.534 -1.4063  0.3690  0.5260
38416SOL    HW217628   3.088   9.921  10.603 -0.0954 -0.1255 -0.5091
38417SOL     OW17629   2.837   6.694   7.608 -0.4109 -0.0259 -0.2894
38417SOL    HW117630   2.878   6.764   7.558  0.3583  0.6246  1.1769
38417SOL    HW217631   2.898   6.620   7.599  0.8316  0.7311  1.3276
38418SOL     OW17632   6.990   1.734   3.403  0.1588 -0.4319 -0.9332
38418SOL    HW117633   6.999   1.662   3.340  0.0767  0.2105 -1.6981
38418SOL    HW217634   6.913   1.711   3.455 -0.1618 -0.6601 -1.4975
38419SOL     OW17635   5.423  10.435   1.351  0.7208  0.4930 -0.3141
38419SOL    HW117636   5.352  10.387   1.394  0.4296  1.5223  0.4055
38419SOL    HW217637   5.444  10.383   1.273 -0.6766  0.0462 -0.4213
38420SOL     OW17638   8.332   6.878   4.724  0.1198  0.3602  0.4675
38420SOL    HW117639   8.378   6.961   4.736 -0.1738  0.2315  2.9836
38420SOL    HW217640   8.400   6.811   4.732 -0.0202  0.2833  1.0590
38421SOL     OW17641   6.263   8.897   2.847  0.1504  0.6493  0.0072
38421SOL    HW117642   6.173   8.874   2.870  0.2861 -1.9186 -1.6266
38421SOL    HW217643   6.315   8.864   2.920 -0.1236  1.4913  0.6089
38422SOL     OW17644   7.106   9.834   9.530  0.4466  0.1073 -0.6124
38422SOL    HW117645   7.158   9.826   9.610 -0.6891  2.5346  0.4699
38422SOL    HW217646   7.120   9.924   9.502 -1.9673  0.3806 -1.1252
38423SOL     OW17647   5.631   3.649   2.901 -0.2584 -0.5140 -0.6570
38423SOL    HW117648   5.619   3.654   2.996 -2.3696 -2.2973 -0.7560
38423SOL    HW217649   5.570   3.713   2.865  0.8374  0.4615 -0.8478
38424SOL     OW17650  10.082   8.133   3.342 -0.1987 -0.4684  0.0249
38424SOL    HW117651  10.081   8.227   3.327 -1.2502 -0.4938 -0.1612
38424SOL    HW217652  10.172   8.113   3.370  0.1329  0.5187 -0.3195
38425SOL     OW17653   7.997   8.074   2.144 -0.4362 -0.5984  0.4632
38425SOL    HW117654   8.037   8.030   2.219  0.4364 -0.3691  0.1388
38425SOL    HW217655   8.066   8.130   2.109 -1.4574  0.8411  0.6990
38426SOL     OW17656   6.343   2.786   6.190  0.3482  0.0283 -0.2002
38426SOL    HW117657   6.319   2.756   6.103 -0.2424 -1.5806  0.4765
38426SOL    HW217658   6.307   2.875   6.196 -1.1876 -0.5027 -0.9733
38427SOL     OW17659   0.316   4.414   8.354  0.3923  0.4165  0.3096
38427SOL    HW117660   0.376   4.435   8.282 -0.6705 -0.5393 -0.9113
38427SOL    HW217661   0.357   4.340   8.398  1.3176  1.3444  1.0663
38428SOL     OW17662   5.210   1.998   3.137 -0.1019 -0.1086 -0.5284
38428SOL    HW117663   5.275   2.025   3.072  0.7287  0.0114  0.3231
38428SOL    HW217664   5.177   1.915   3.105 -0.6632  0.5624 -1.7650
38429SOL     OW17665   6.081   7.883   0.822 -0.2912 -0.4704 -0.4777
38429SOL    HW117666   6.146   7.851   0.760  0.6426  0.9826 -0.2923
38429SOL    HW217667   6.091   7.978   0.821  0.7508 -0.4097  2.9434
38430SOL     OW17668   2.884   2.517   9.599  0.3389  0.3279 -0.4558
38430SOL    HW117669   2.881   2.541   9.506  0.5829 -0.1150 -0.5828
38430SOL    HW217670   2.938   2.584   9.640  0.4365  0.3878 -0.6804
38431SOL     OW17671   6.350   9.827   9.181  0.0940 -0.2571  0.3670
38431SOL    HW117672   6.315   9.769   9.113 -0.2081 -1.2198  1.3034
38431SOL    HW217673   6.276   9.841   9.241  0.0043  1.5817 -0.1321
38432SOL     OW17674   9.296   8.036   5.442 -0.2673 -0.4144 -0.4840
38432SOL    HW117675   9.230   7.978   5.479 -0.2449  0.9869  2.0100
38432SOL    HW217676   9.275   8.041   5.349 -1.0085 -3.3372 -0.5623
38433SOL     OW17677   3.120  10.500   3.884 -0.0079 -0.0617  0.2022
38433SOL    HW117678   3.211  10.492   3.913  0.3894 -0.4957 -1.0936
38433SOL    HW217679   3.121  10.470   3.793 -1.3552  0.4216  0.0039
38434SOL     OW17680   8.316   8.314   1.499  0.1814  0.2017  0.1236
38434SOL    HW117681   8.230   8.273   1.486  1.5395 -2.2746 -1.9238
38434SOL    HW217682   8.306   8.402   1.463 -1.2419 -0.3881 -1.0311
38435SOL     OW17683   9.768  10.524   7.193 -0.2664 -0.7463 -0.0406
38435SOL    HW117684   9.758  10.586   7.265 -1.8289  0.0893 -0.9220
38435SOL    HW217685   9.816  10.574   7.126 -0.0127 -1.0643 -0.0965
38436SOL     OW17686   1.717   1.071   5.704 -0.2003  0.3790  0.6324
38436SOL    HW117687   1.659   1.083   5.779 -0.6845  0.2245  0.2887
38436SOL    HW217688   1.658   1.049   5.632  0.2366  0.7310  0.1607
38437SOL     OW17689   3.317   9.931   4.681  0.2782  0.4194  0.4715
38437SOL    HW117690   3.237   9.947   4.732  1.9220  2.1526  2.7273
38437SOL    HW217691   3.292   9.863   4.619 -2.6279  0.0704  1.8197
38438SOL     OW17692   8.169   0.851   1.015 -0.1025 -0.1094  0.2065
38438SOL    HW117693   8.088   0.804   1.037 -0.7590 -0.1601 -2.1004
38438SOL    HW217694   8.150   0.943   1.033  0.9277 -0.4686  3.9894
38439SOL     OW17695   0.014   9.619   1.259  0.7018  0.4848  0.3831
38439SOL    HW117696  -0.072   9.658   1.275  0.0584 -1.0496  0.9079
38439SOL    HW217697  -0.003   9.551   1.194  1.8964  1.4358 -0.9890
38440SOL     OW17698   5.350   2.778   3.701  0.2454  0.4167  0.0288
38440SOL    HW117699   5.343   2.831   3.780  1.2132  3.2482 -1.6003
38440SOL    HW217700   5.445   2.772   3.684  0.0510  0.1588 -1.0612
38441SOL     OW17701   6.480   8.442   4.678 -0.1859 -0.6690  0.3776
38441SOL    HW117702   6.471   8.526   4.633 -1.6284 -0.8662  0.2253
38441SOL    HW217703   6.425   8.382   4.628  0.2437 -1.5211  0.9074
38442SOL     OW17704   6.635   8.485   8.062 -0.1515  0.3760 -0.3571
38442SOL    HW117705   6.574   8.413   8.045 -0.0066 -0.1081  1.0488
38442SOL    HW217706   6.590   8.562   8.029 -0.8413 -0.1839 -0.7720
38443SOL     OW17707  10.122   1.599   7.925 -0.0583 -0.6725  0.4651
38443SOL    HW117708  10.063   1.618   7.852 -1.2077 -1.6826  1.0950
38443SOL    HW217709  10.070   1.618   8.004  0.4777 -1.4644  1.0295
38444SOL     OW17710   5.424   7.340   3.475  0.0134 -0.0072  0.0663
38444SOL    HW117711   5.384   7.262   3.435 -0.4721  1.7451 -3.2797
38444SOL    HW217712   5.454   7.392   3.400  1.2201  2.5776  2.1787
38445SOL     OW17713   7.976   3.641   1.352  0.4081 -0.2812 -0.1256
38445SOL    HW117714   8.039   3.682   1.411 -2.1151  0.1113  2.5675
38445SOL    HW217715   7.955   3.708   1.287 -0.5872  1.3284  1.7500
38446SOL     OW17716   1.646   6.439   4.290  0.8109 -0.0867  0.2816
38446SOL    HW117717   1.595   6.518   4.274 -3.7051 -2.6040  0.5392
38446SOL    HW217718   1.696   6.426   4.210 -2.0632  0.5957 -1.7890
38447SOL     OW17719   4.628   5.939  10.354 -0.3130  0.0023  0.4197
38447SOL    HW117720   4.670   5.917  10.271 -1.1774  0.6050 -0.1981
38447SOL    HW217721   4.683   6.008  10.391  0.3374 -0.5968  0.5809
38448SOL     OW17722   7.792   6.472   8.023 -0.2547  0.5567 -0.1929
38448SOL    HW117723   7.799   6.436   8.111 -1.4379 -0.5394 -0.5120
38448SOL    HW217724   7.710   6.436   7.989 -0.4122  1.8828 -1.3246
38449SOL     OW17725   2.672   1.054   5.181  0.6421  0.0919 -0.2991
38449SOL    HW117726   2.680   1.088   5.270  0.7005 -1.3483  0.2710
38449SOL    HW217727   2.674   1.132   5.126  1.3150  0.9704  0.9084
38450SOL     OW17728   8.846   6.961   5.762  0.4999 -0.4119 -0.3313
38450SOL    HW117729   8.847   6.977   5.668  0.2651  1.0812 -0.1061
38450SOL    HW217730   8.929   6.995   5.794 -0.9690  2.8397  0.4883
38451SOL     OW17731   0.307  10.451   6.144  0.1114  0.1140 -0.3699
38451SOL    HW117732   0.359  10.482   6.070 -1.4492  2.2811 -0.6689
38451SOL    HW217733   0.308  10.523   6.206 -0.6092 -0.7130  0.6328
38452SOL     OW17734   2.540   9.684   7.024  0.2709  0.0700  0.5283
38452SOL    HW117735   2.605   9.654   6.961 -0.0608 -0.6360  0.5139
38452SOL    HW217736   2.589   9.742   7.083  0.9866 -0.7122  0.7171
38453SOL     OW17737  10.374   1.961   4.266  0.0324  0.3685  0.3079
38453SOL    HW117738  10.342   1.976   4.177 -0.9271  0.1783  0.6125
38453SOL    HW217739  10.374   1.866   4.276  0.7858  0.3615  0.2887
38454SOL     OW17740   3.171  10.688   0.777 -1.0559 -0.3536  0.4344
38454SOL    HW117741   3.261  10.659   0.768 -0.9328 -0.1785  1.0665
38454SOL    HW217742   3.128  10.657   0.697 -0.0674  1.0267 -0.6938
38455SOL     OW17743   3.477   7.999   1.189 -0.3170  0.4089 -0.4487
38455SOL    HW117744   3.543   7.932   1.205  0.4122  1.0885 -0.5233
38455SOL    HW217745   3.473   8.006   1.094 -0.9944 -0.1041 -0.4613
38456SOL     OW17746   6.711   0.222   6.165 -0.0251 -0.1205 -0.3471
38456SOL    HW117747   6.781   0.186   6.220  0.3000  0.9918  0.0028
38456SOL    HW217748   6.750   0.232   6.079 -0.2178 -0.8929 -0.5301
38457SOL     OW17749   3.263   9.505   3.207 -0.2756  0.3056  0.1580
38457SOL    HW117750   3.349   9.469   3.188  0.4391  1.6306  0.7981
38457SOL    HW217751   3.269   9.538   3.297 -1.8539 -0.7284  0.6989
38458SOL     OW17752   7.150   3.188   1.055  0.3339  0.7901  0.6587
38458SOL    HW117753   7.063   3.195   1.094  0.0942  0.1792  0.2374
38458SOL    HW217754   7.143   3.236   0.973 -0.7297 -2.3201 -1.2419
38459SOL     OW17755   8.193  10.120   9.169  0.7691 -0.5777 -0.5853
38459SOL    HW117756   8.274  10.166   9.192 -0.4240  1.8373 -0.8540
38459SOL    HW217757   8.182  10.138   9.075 -0.6936  0.2331 -0.2860
38460SOL     OW17758   5.555   5.482  10.518 -0.2461  0.5390  0.5891
38460SOL    HW117759   5.481   5.431  10.552  1.4052 -1.8733  0.8534
38460SOL    HW217760   5.590   5.429  10.446 -0.1359  2.7460 -1.0908
38461SOL     OW17761   4.390  10.523   6.163  0.1963 -0.3206  0.5802
38461SOL    HW117762   4.315  10.530   6.104  0.1375 -0.0151  0.6876
38461SOL    HW217763   4.352  10.510   6.250  0.1818  1.7282  0.9364
38462SOL     OW17764   4.347   8.297   3.533  0.0657  0.2795  0.3914
38462SOL    HW117765   4.296   8.283   3.613  0.4052 -0.0165  0.5571
38462SOL    HW217766   4.366   8.209   3.501  0.2348  0.3926  0.1786
38463SOL     OW17767   7.057   3.087   3.930 -0.5448  0.4053 -0.3966
38463SOL    HW117768   7.076   3.011   3.985  0.3406  0.6998 -0.2833
38463SOL    HW217769   7.027   3.154   3.992 -1.5159  0.1044 -0.5179
38464SOL     OW17770   6.459   1.478   1.917 -0.5651 -0.1534 -0.1646
38464SOL    HW117771   6.387   1.519   1.965 -0.3071  0.7678 -0.5336
38464SOL    HW217772   6.512   1.552   1.885 -0.0663 -0.7778 -0.8308
38465SOL     OW17773   6.729   3.878   7.167 -0.3321  0.6599  0.2702
38465SOL    HW117774   6.765   3.855   7.081  0.0791 -1.8190  1.0322
38465SOL    HW217775   6.794   3.935   7.206 -0.2822  1.4057 -0.8470
38466SOL     OW17776   4.299   2.444   2.585  0.2305 -0.1546  0.3651
38466SOL    HW117777   4.310   2.368   2.529  1.2232  0.2008  0.0531
38466SOL    HW217778   4.307   2.411   2.674  1.6971 -0.2849  0.2120
38467SOL     OW17779   6.675   5.467   2.068  0.3196 -0.1243 -0.1140
38467SOL    HW117780   6.625   5.396   2.027 -0.5456 -0.8399  2.0323
38467SOL    HW217781   6.662   5.454   2.162 -0.3918  3.2717  0.3662
38468SOL     OW17782   9.748   1.720   0.514 -0.3004 -0.1265 -0.7353
38468SOL    HW117783   9.721   1.643   0.464  0.1361 -0.7265 -0.0766
38468SOL    HW217784   9.794   1.684   0.590  1.4143  0.8082 -1.2721
38469SOL     OW17785   6.477   4.032   1.803 -0.2820 -0.0067 -0.3310
38469SOL    HW117786   6.487   4.126   1.819  1.6748 -0.4250  1.2899
38469SOL    HW217787   6.504   4.021   1.712  1.7388  0.7426  0.1313
38470SOL     OW17788   3.489   5.362   6.552 -0.0428  0.5228  0.1874
38470SOL    HW117789   3.582   5.343   6.568 -0.1821 -0.6384 -0.2672
38470SOL    HW217790   3.458   5.402   6.633  1.0550  1.7564  0.0417
38471SOL     OW17791   4.757   1.452   4.396  0.0778 -0.3138 -0.2229
38471SOL    HW117792   4.759   1.426   4.488  0.2616  0.2267 -0.0682
38471SOL    HW217793   4.697   1.391   4.354 -0.0491 -0.5258  0.2685
38472SOL     OW17794   0.551   8.225   7.844  0.0949  0.1331 -0.3297
38472SOL    HW117795   0.524   8.165   7.914  0.6116 -0.3172 -0.5007
38472SOL    HW217796   0.644   8.240   7.861 -0.1602  1.3707  0.0549
38473SOL     OW17797   0.853   3.170   1.615 -0.3654  0.0264 -0.3388
38473SOL    HW117798   0.942   3.165   1.579 -0.0570  0.4784  0.3389
38473SOL    HW217799   0.822   3.080   1.615  0.1714 -0.1649 -0.3891
38474SOL     OW17800   2.219   5.277   7.702  0.0936 -0.1505 -0.3333
38474SOL    HW117801   2.267   5.194   7.706 -0.7984 -0.6804 -0.4550
38474SOL    HW217802   2.183   5.280   7.614  1.0361  0.9084 -0.7186
38475SOL     OW17803   2.395   9.668  10.363 -0.1736 -0.6326  0.0198
38475SOL    HW117804   2.323   9.705  10.312 -0.2734  0.2829  0.8098
38475SOL    HW217805   2.413   9.733  10.431 -1.5394 -2.6973  2.5999
38476SOL     OW17806   6.689   0.561   6.579 -0.1438 -0.0098 -0.1434
38476SOL    HW117807   6.676   0.591   6.489 -0.0925 -1.4165 -0.6373
38476SOL    HW217808   6.623   0.493   6.593 -0.8561  0.9125  1.2635
38477SOL     OW17809   5.747   4.842   1.748  0.4443 -0.2872  0.2741
38477SOL    HW117810   5.837   4.844   1.782  0.7601 -0.4050 -0.5314
38477SOL    HW217811   5.758   4.846   1.653 -0.3708 -1.1711  0.1355
38478SOL     OW17812   3.548   7.594  10.172 -0.4597 -0.1393  0.4101
38478SOL    HW117813   3.479   7.573  10.109 -0.5062  0.3281  0.3021
38478SOL    HW217814   3.526   7.681  10.204  0.2750  0.1671  0.1114
38479SOL     OW17815   0.995   9.097   0.508  0.0967  0.1272  0.0106
38479SOL    HW117816   1.020   9.152   0.581  0.5996 -1.0028  0.7193
38479SOL    HW217817   1.078   9.065   0.471 -0.1882 -0.8243  0.1567
38480SOL     OW17818   9.246   9.817   2.895  0.5818 -0.0642  0.0688
38480SOL    HW117819   9.247   9.841   2.803 -0.4693 -1.0961 -0.2423
38480SOL    HW217820   9.182   9.746   2.901  0.1874  0.3726  1.6973
38481SOL     OW17821   3.576   8.906   8.455 -0.0376  0.2325  0.0781
38481SOL    HW117822   3.562   8.983   8.401  2.4341 -0.0755 -1.1289
38481SOL    HW217823   3.547   8.833   8.401  0.0658  0.1204  0.1712
38482SOL     OW17824   0.988   7.201   6.941  0.2282  0.3938  0.2501
38482SOL    HW117825   0.932   7.141   6.992 -0.7961  0.7541 -0.4210
38482SOL    HW217826   1.077   7.178   6.967 -0.1580 -1.1708  0.2844
38483SOL     OW17827   2.513   9.727   5.781  0.3841  0.0778 -0.1333
38483SOL    HW117828   2.509   9.722   5.686  0.2234 -2.5557 -0.0650
38483SOL    HW217829   2.607   9.727   5.801  0.4196 -0.7510 -0.2747
38484SOL     OW17830   0.374   7.512   3.096  0.0401  0.4001 -0.0411
38484SOL    HW117831   0.330   7.597   3.097  0.5137  0.6486  1.3034
38484SOL    HW217832   0.374   7.483   3.187 -1.5314 -1.8130 -0.6446
38485SOL     OW17833   6.568   3.239   3.423  0.2103 -0.1473 -0.3337
38485SOL    HW117834   6.562   3.144   3.433 -0.0682 -0.0889  0.0751
38485SOL    HW217835   6.661   3.258   3.428  0.2496 -0.3778 -0.1676
38486SOL     OW17836   7.584   7.552   8.105  0.6730  0.2434 -0.3028
38486SOL    HW117837   7.633   7.631   8.127 -0.4039  0.2506  2.5005
38486SOL    HW217838   7.492   7.579   8.109  0.3228 -0.5636 -1.9952
38487SOL     OW17839   3.899   8.584   1.167  0.6722 -0.0333 -0.3530
38487SOL    HW117840   3.907   8.489   1.176 -0.5632 -0.2635 -1.3880
38487SOL    HW217841   3.866   8.596   1.078  0.5749  1.3630 -0.1418
38488SOL     OW17842   1.252   2.054   1.947 -0.5627  0.4754 -0.2386
38488SOL    HW117843   1.183   1.989   1.934 -0.6736  0.4485  0.4441
38488SOL    HW217844   1.333   2.009   1.924 -0.3816 -0.6306  2.2510
38489SOL     OW17845   8.090   2.729   0.697  0.2147 -0.6931  0.3359
38489SOL    HW117846   8.157   2.798   0.695 -1.3601  0.9167  0.9187
38489SOL    HW217847   8.087   2.696   0.607  1.9360 -0.9973  0.3532
38490SOL     OW17848   5.405   7.325   6.924 -0.2437  0.1723 -1.0132
38490SOL    HW117849   5.417   7.264   6.851 -0.8445  0.1122 -1.0647
38490SOL    HW217850   5.459   7.401   6.902  0.7646 -0.4633 -0.7988
38491SOL     OW17851  10.038   3.642   8.816 -0.5153 -0.0724 -0.3241
38491SOL    HW117852  10.041   3.627   8.910 -0.3920  1.4497 -0.0671
38491SOL    HW217853   9.954   3.686   8.801 -0.5909 -0.4197 -0.9422
38492SOL     OW17854   0.374   4.327   5.362  0.0972  0.4200  0.2751
38492SOL    HW117855   0.400   4.375   5.440 -0.0286  1.1279 -0.1108
38492SOL    HW217856   0.280   4.343   5.354 -0.4501 -1.7911  1.4376
38493SOL     OW17857   6.825   2.439   9.357  0.4797  0.1371  0.0117
38493SOL    HW117858   6.786   2.504   9.416 -0.6705 -0.0810 -0.5058
38493SOL    HW217859   6.842   2.487   9.276 -0.4120 -0.1961 -0.3874
38494SOL     OW17860   6.629   8.757   6.832 -0.0703  0.1532  0.1371
38494SOL    HW117861   6.701   8.794   6.884  0.6926  1.1397 -1.5503
38494SOL    HW217862   6.550   8.793   6.872  0.5583  1.8550 -0.0533
38495SOL     OW17863   1.488   6.674   4.692  0.3796  0.7852 -0.3243
38495SOL    HW117864   1.515   6.703   4.779  0.9596  1.0581 -0.5869
38495SOL    HW217865   1.547   6.601   4.672 -0.9596 -0.4963  0.2624
38496SOL     OW17866   1.081   3.899   7.478  0.0768  0.6947  0.4062
38496SOL    HW117867   1.156   3.896   7.537 -0.5448  0.3613  1.1954
38496SOL    HW217868   1.006   3.915   7.535 -0.6955 -0.8230 -0.1432
38497SOL     OW17869   0.121   4.419   3.440 -0.2817  0.2140 -0.1718
38497SOL    HW117870   0.127   4.503   3.394 -2.4213  0.3212 -0.3498
38497SOL    HW217871   0.126   4.353   3.371 -0.8349  0.2845 -0.2827
38498SOL     OW17872   0.292   1.024   6.958 -0.2674 -0.1353  0.3158
38498SOL    HW117873   0.214   1.068   6.993 -0.4833 -0.2945  0.0386
38498SOL    HW217874   0.292   1.045   6.865  0.2069  0.1358  0.3743
38499SOL     OW17875  10.037   0.864   0.614 -0.4451  0.0379  0.3705
38499SOL    HW117876   9.980   0.806   0.563 -0.2104 -1.7187  1.9832
38499SOL    HW217877   9.977   0.921   0.662 -0.8486 -1.2440  1.4319
38500SOL     OW17878   1.264   2.442   4.200 -0.0531  0.4358 -0.2109
38500SOL    HW117879   1.170   2.456   4.204 -0.2928 -1.2949  1.5987
38500SOL    HW217880   1.285   2.392   4.278  1.8061 -2.3612 -2.2915
38501SOL     OW17881   7.496   1.388   1.017 -0.1969  0.0751  0.1498
38501SOL    HW117882   7.584   1.390   1.055 -0.5673  0.2496  1.0230
38501SOL    HW217883   7.511   1.382   0.922  0.7697  1.1685  0.2103
38502SOL     OW17884   3.358   1.002   3.717  0.3766  0.5260  0.4228
38502SOL    HW117885   3.300   0.927   3.721  0.0251  0.8564  2.5732
38502SOL    HW217886   3.437   0.969   3.673 -0.2658 -0.7286  0.1716
38503SOL     OW17887   0.880   9.814   1.759  0.2568  0.1601 -0.3403
38503SOL    HW117888   0.947   9.786   1.696 -1.1790 -0.7238 -1.5604
38503SOL    HW217889   0.887   9.909   1.760  2.2813  0.0512  0.4646
38504SOL     OW17890   8.223   3.123   8.388 -0.3885 -0.1313 -0.0340
38504SOL    HW117891   8.200   3.182   8.317 -0.2976 -0.6382 -0.4966
38504SOL    HW217892   8.155   3.055   8.386 -0.2995 -0.2307  0.2597
38505SOL     OW17893   7.121   1.313   9.568 -0.1499  0.1397  0.2443
38505SOL    HW117894   7.090   1.332   9.479 -0.0227  1.2726  0.4241
38505SOL    HW217895   7.212   1.287   9.556  0.6051  2.5288  0.1900
38506SOL     OW17896   6.732   7.647   9.536  0.3417  0.3765  0.7849
38506SOL    HW117897   6.725   7.718   9.472  0.0768  0.6877  1.1547
38506SOL    HW217898   6.646   7.643   9.577 -0.7681 -2.3312 -1.4783
38507SOL     OW17899   2.129   2.211   7.632 -0.4840 -0.0567 -0.2214
38507SOL    HW117900   2.118   2.118   7.651 -2.8725  0.0102 -1.0143
38507SOL    HW217901   2.132   2.216   7.537 -1.1440  0.7370 -0.2131
38508SOL     OW17902   6.401   6.831   8.201  0.3799 -0.3629  0.4238
38508SOL    HW117903   6.369   6.884   8.274  1.1209  1.1901 -0.3369
38508SOL    HW217904   6.363   6.744   8.216 -1.7225  0.6234  1.1535
38509SOL     OW17905   1.326   7.875   5.321 -0.3574 -0.4437 -0.5029
38509SOL    HW117906   1.421   7.870   5.311  0.3054  1.5489  3.0884
38509SOL    HW217907   1.310   7.849   5.412 -2.8450  2.2361 -0.0235
38510SOL     OW17908   2.247   6.114   0.083  0.2664 -0.1612 -0.2058
38510SOL    HW117909   2.230   6.194   0.132 -0.8012 -1.5830  1.8375
38510SOL    HW217910   2.161   6.084   0.054  0.5561 -1.0669 -0.1511
38511SOL     OW17911   9.272   1.638   5.480 -0.2081  0.2379  0.1882
38511SOL    HW117912   9.186   1.652   5.519 -0.2279 -0.7872  0.5435
38511SOL    HW217913   9.327   1.706   5.518 -0.3732 -0.3606  1.5569
38512SOL     OW17914   4.165   3.557   0.832  0.2429 -0.4652  0.2758
38512SOL    HW117915   4.110   3.529   0.759 -0.3557  0.5928  0.3017
38512SOL    HW217916   4.238   3.603   0.790  0.1498 -0.2800  0.3133
38513SOL     OW17917   8.803   4.392   3.907  0.2528  0.1202  0.5612
38513SOL    HW117918   8.847   4.371   3.825  1.6506 -1.0748  1.5605
38513SOL    HW217919   8.729   4.332   3.911 -0.1623  0.5731 -0.0607
38514SOL     OW17920   3.893   0.215   5.896  0.0442 -0.2527  0.2301
38514SOL    HW117921   3.816   0.233   5.951  0.4308 -0.3751  0.8233
38514SOL    HW217922   3.892   0.120   5.885 -1.1005 -0.0756 -1.5775
38515SOL     OW17923   2.414  10.225   3.472 -0.1030  0.5132  0.6611
38515SOL    HW117924   2.328  10.187   3.488  0.4070 -0.5665  0.9495
38515SOL    HW217925   2.449  10.243   3.560  0.5406 -0.4084  0.6062
38516SOL     OW17926   2.661  10.475   5.835 -0.1877  0.1737 -0.3083
38516SOL    HW117927   2.723  10.475   5.762  0.1045 -0.0144 -0.0599
38516SOL    HW217928   2.609  10.396   5.821  0.4432 -0.3370  0.1688
38517SOL     OW17929   2.879   7.878   9.151  0.3828  0.3098 -0.4794
38517SOL    HW117930   2.938   7.815   9.192  0.5659  0.0879 -1.0739
38517SOL    HW217931   2.891   7.959   9.201 -1.2819 -0.6167  1.5717
38518SOL     OW17932   6.922   7.072   5.678  0.3227  0.5632 -0.0447
38518SOL    HW117933   6.840   7.103   5.639 -1.2549  0.2075  2.7037
38518SOL    HW217934   6.990   7.102   5.618 -1.7792  0.9287 -2.4355
38519SOL     OW17935   5.000   3.073   3.886  0.0633  0.2711  0.2935
38519SOL    HW117936   4.993   3.074   3.981  1.6318  0.6180  0.4402
38519SOL    HW217937   5.079   3.124   3.867  0.3084 -0.5730 -1.1388
38520SOL     OW17938   6.767   1.815   4.945  0.6506  0.0638 -0.2313
38520SOL    HW117939   6.679   1.779   4.931  0.6682  0.4420 -1.3568
38520SOL    HW217940   6.752   1.902   4.981  0.5150  0.7168 -1.8016
38521SOL     OW17941   6.908   7.920   0.429 -0.1113 -0.4864 -0.3747
38521SOL    HW117942   6.973   7.905   0.497 -0.1484  0.0906 -0.2124
38521SOL    HW217943   6.958   7.920   0.347  0.1902  0.5403 -0.2042
38522SOL     OW17944   9.888   5.892  10.746  0.3037  0.0727 -0.1638
38522SOL    HW117945   9.806   5.940  10.732  1.4299  1.4623 -2.7913
38522SOL    HW217946   9.882   5.817  10.687  0.0955 -1.0243  1.2047
38523SOL     OW17947   2.911   0.774   3.996 -0.0943  0.4335 -0.4645
38523SOL    HW117948   2.967   0.819   4.059 -0.0312  1.1664 -1.0436
38523SOL    HW217949   2.915   0.827   3.917 -0.6686 -0.1471 -0.8931
38524SOL     OW17950   6.367  10.145   5.394 -0.3918  0.7343  0.5497
38524SOL    HW117951   6.309  10.114   5.325 -3.0406  0.9703  2.5077
38524SOL    HW217952   6.389  10.235   5.368 -0.9900  0.6748 -0.1913
38525SOL     OW17953   0.236   2.989   4.466 -0.4435  0.7389  0.1793
38525SOL    HW117954   0.315   2.945   4.437  0.4639  1.9617  0.7132
38525SOL    HW217955   0.194   3.019   4.385 -2.4234 -3.0710 -0.4664
38526SOL     OW17956   9.353   5.517   8.032  0.1374 -0.1910  0.1356
38526SOL    HW117957   9.330   5.609   8.043  1.3317  0.1974 -0.4314
38526SOL    HW217958   9.368   5.506   7.938  0.2647 -0.8896  0.2300
38527SOL     OW17959   3.567   7.321   3.842 -0.7103 -0.4757  0.1891
38527SOL    HW117960   3.644   7.304   3.898 -1.2450  1.3826  1.6033
38527SOL    HW217961   3.602   7.319   3.753  0.7901 -0.6603  0.7437
38528SOL     OW17962   6.870   3.760   3.715 -0.2203 -0.8801 -0.1754
38528SOL    HW117963   6.858   3.665   3.714  2.9609 -1.4434  1.4298
38528SOL    HW217964   6.894   3.781   3.805 -0.8656  1.4844 -0.4796
38529SOL     OW17965   0.127   6.199   0.553  0.8050 -0.1759 -0.4518
38529SOL    HW117966   0.115   6.292   0.567 -1.7036 -0.5446  0.2863
38529SOL    HW217967   0.144   6.163   0.640 -0.0039 -0.6136 -0.4643
38530SOL     OW17968   8.041   3.275   1.152  0.2006  0.0749  0.1870
38530SOL    HW117969   8.100   3.200   1.146 -1.0355 -0.9234  0.0029
38530SOL    HW217970   8.084   3.335   1.213  1.9335 -0.0762 -0.8193
38531SOL     OW17971   8.217   6.410   5.844  0.2275 -0.1722  0.1781
38531SOL    HW117972   8.299   6.458   5.858 -0.6286  0.8494  2.0118
38531SOL    HW217973   8.242   6.318   5.858  0.8933  0.2147  1.7851
38532SOL     OW17974   8.647   8.244   9.876 -0.0762 -0.2957  0.5634
38532SOL    HW117975   8.556   8.221   9.857 -0.0803  0.1623 -0.0081
38532SOL    HW217976   8.694   8.223   9.795  0.5584 -1.6824  1.2494
38533SOL     OW17977   3.691   3.919   1.836 -0.7766 -1.0055  0.4347
38533SOL    HW117978   3.744   3.848   1.799 -0.1219 -0.3667  0.1461
38533SOL    HW217979   3.630   3.874   1.896 -0.2502 -1.7940  0.3903
38534SOL     OW17980   6.376   7.044   5.264 -0.2292  0.0017  0.0899
38534SOL    HW117981   6.464   7.079   5.277 -0.1532 -0.6686  1.5716
38534SOL    HW217982   6.327   7.073   5.341 -1.0268 -0.4674 -0.2271
38535SOL     OW17983   3.540   9.616  10.319  0.3775 -0.4884 -0.0759
38535SOL    HW117984   3.582   9.651  10.398 -0.5981  0.8206 -0.1038
38535SOL    HW217985   3.468   9.676  10.302 -0.8386 -2.0640 -0.6540
38536SOL     OW17986   7.071   4.645   1.617  1.1829 -0.1821  0.1268
38536SOL    HW117987   7.059   4.556   1.583 -1.1506  0.7175 -1.6523
38536SOL    HW217988   7.105   4.633   1.706  2.2595 -2.7813 -0.5454
38537SOL     OW17989   7.114   1.616   9.464 -0.3660 -0.2117  0.0428
38537SOL    HW117990   7.049   1.621   9.535 -0.8256 -1.0890 -0.3050
38537SOL    HW217991   7.079   1.550   9.404 -0.0364  0.5799 -1.0610
38538SOL     OW17992   3.746   2.451   9.127 -0.6545 -0.0769  0.4594
38538SOL    HW117993   3.698   2.462   9.210 -1.1035 -1.7295  0.4550
38538SOL    HW217994   3.723   2.363   9.097  1.6078 -0.5772 -0.0572
38539SOL     OW17995   7.384   5.026   5.145  0.2462 -0.1153 -0.1098
38539SOL    HW117996   7.372   4.957   5.081 -1.7128 -0.2286  0.3190
38539SOL    HW217997   7.385   4.981   5.230  0.3194  0.2543  0.0893
38540SOL     OW17998   2.558   2.014   3.718  0.2481  0.0277 -0.4873
38540SOL    HW117999   2.484   1.997   3.777  0.7649 -2.8316 -0.5198
38540SOL    HW218000   2.573   2.108   3.726 -0.3860 -0.0107  3.1279
38541SOL     OW18001   5.251   5.586   4.308 -0.4767 -0.0100  0.4092
38541SOL    HW118002   5.187   5.518   4.288 -0.8254  0.1966  0.7873
38541SOL    HW218003   5.244   5.648   4.235 -0.6804 -0.0111  0.4273
38542SOL     OW18004   8.362   9.775   8.199  0.0921 -0.3997 -0.0349
38542SOL    HW118005   8.350   9.804   8.109 -1.3439 -0.5340  0.0907
38542SOL    HW218006   8.351   9.680   8.196  0.2320 -0.4294  0.2564
38543SOL     OW18007   0.324   7.482   4.228  0.2445 -0.1651 -0.1896
38543SOL    HW118008   0.361   7.568   4.209  0.4484 -0.3845 -0.8334
38543SOL    HW218009   0.346   7.465   4.319  1.6896 -0.2599 -0.5309
38544SOL     OW18010   4.448   6.027   6.945  0.3931  0.3758 -0.3283
38544SOL    HW118011   4.404   6.078   6.877 -0.5253  1.9808  1.3594
38544SOL    HW218012   4.541   6.035   6.924  0.1765  1.5295 -0.9439
38545SOL     OW18013   5.074   0.651   1.968  0.1718 -0.6157  0.0369
38545SOL    HW118014   5.024   0.724   2.006  0.1635 -0.7693  0.3253
38545SOL    HW218015   5.119   0.690   1.893  1.7223  0.1839  1.3156
38546SOL     OW18016   2.267   4.495   2.712  0.0922 -0.3039  0.5946
38546SOL    HW118017   2.352   4.509   2.754  0.4090 -1.6538  0.4588
38546SOL    HW218018   2.277   4.412   2.666 -1.4317 -0.6853  0.9072
38547SOL     OW18019   8.293   9.737   9.692  0.5117  0.1034  0.5898
38547SOL    HW118020   8.249   9.772   9.769 -1.6395 -0.7091 -0.1700
38547SOL    HW218021   8.266   9.645   9.690  0.6298  0.0779 -1.0319
38548SOL     OW18022   3.498   4.010   8.122 -0.1143  0.9062  0.3903
38548SOL    HW118023   3.452   4.082   8.167 -1.9854  0.8471 -1.2509
38548SOL    HW218024   3.474   4.022   8.030 -0.5732 -1.8758  0.0717
38549SOL     OW18025   3.162   1.965   2.318 -0.0939  0.3754  0.8483
38549SOL    HW118026   3.230   1.906   2.351 -0.1667  1.1732  2.5385
38549SOL    HW218027   3.090   1.955   2.380 -0.7635  1.0098  0.1909
38550SOL     OW18028   9.455   5.566   6.204 -0.4100  0.1500 -0.3247
38550SOL    HW118029   9.499   5.512   6.270 -0.2070  1.1721  0.4091
38550SOL    HW218030   9.524   5.625   6.172 -0.6306 -0.0005 -1.0781
38551SOL     OW18031   7.111   9.958  10.265 -0.1675  0.4945  0.3498
38551SOL    HW118032   7.016   9.954  10.261 -0.1324 -0.6570  0.4795
38551SOL    HW218033   7.133   9.940  10.356  0.2069  0.0718  0.1800
38552SOL     OW18034   5.223   5.553   7.705 -0.3012 -0.1143  0.0835
38552SOL    HW118035   5.159   5.518   7.643  1.1821 -0.8737 -1.0725
38552SOL    HW218036   5.204   5.646   7.708 -1.2744 -0.2768 -0.4526
38553SOL     OW18037   1.048   9.792   9.841 -0.1443  0.4737  0.2576
38553SOL    HW118038   1.078   9.711   9.883  0.6588  1.3631  1.4935
38553SOL    HW218039   1.127   9.827   9.799 -0.1154  1.3472  1.0108
38554SOL     OW18040   6.476   3.438  10.208 -0.5589  0.5311  0.2398
38554SOL    HW118041   6.441   3.498  10.273 -3.3601  1.5993 -2.0726
38554SOL    HW218042   6.532   3.492  10.152 -0.5360  0.2651  0.0023
38555SOL     OW18043   4.951   1.499   3.513  0.1378 -0.5708 -0.5617
38555SOL    HW118044   4.866   1.457   3.508 -0.4661  0.1601  2.0593
38555SOL    HW218045   4.936   1.589   3.482 -0.1938 -0.3177  0.2848
38556SOL     OW18046   4.729   5.327   3.645  0.0503  0.0958 -0.2644
38556SOL    HW118047   4.762   5.334   3.555  0.6585  0.0275 -0.0481
38556SOL    HW218048   4.701   5.415   3.667 -2.4557 -0.3277 -1.4004
38557SOL     OW18049   4.059   0.933   7.028  0.1931 -0.1646 -0.2155
38557SOL    HW118050   4.030   1.003   6.969  2.7897  0.0669 -1.3239
38557SOL    HW218051   4.092   0.864   6.970  0.6717 -0.9272  0.9332
38558SOL     OW18052   2.834   9.376   3.978 -0.2478 -0.0128 -0.5269
38558SOL    HW118053   2.838   9.472   3.969 -1.3086  0.1588  0.6748
38558SOL    HW218054   2.777   9.361   4.053  0.1577 -1.5971 -0.5047
38559SOL     OW18055   6.710   0.948   0.343 -0.3341 -0.3087  0.1876
38559SOL    HW118056   6.800   0.980   0.356  0.5366 -2.0207 -1.1569
38559SOL    HW218057   6.697   0.883   0.412 -0.2772 -0.5452 -0.0220
38560SOL     OW18058   3.899   5.769  10.151 -0.3475  0.0799  0.3825
38560SOL    HW118059   3.845   5.810  10.083 -1.2988  0.1687  1.1750
38560SOL    HW218060   3.989   5.791  10.126 -0.5555 -1.0443 -1.6058
38561SOL     OW18061   8.426   7.686   6.611  0.5677  0.2381  0.1231
38561SOL    HW118062   8.381   7.663   6.692  1.6021 -2.1492  0.0994
38561SOL    HW218063   8.490   7.752   6.638  0.2800  0.1467  1.0781
38562SOL     OW18064   9.905   8.145   6.333 -0.1996  0.0551  0.3189
38562SOL    HW118065   9.987   8.136   6.285  0.1115  0.2203  0.8044
38562SOL    HW218066   9.932   8.167   6.422 -0.7005 -2.0077  1.0284
38563SOL     OW18067   0.830   3.926   8.565 -0.4442 -0.1638  0.2757
38563SOL    HW118068   0.814   3.921   8.660 -0.3253  1.5481  0.4254
38563SOL    HW218069   0.744   3.914   8.526 -0.8782  1.2372  0.7300
38564SOL     OW18070   0.132   6.960   4.472  0.5104 -1.0769  0.3629
38564SOL    HW118071   0.152   6.906   4.395  1.0245 -1.7316  0.9387
38564SOL    HW218072   0.216   6.967   4.518  0.4461  0.1992  0.3184
38565SOL     OW18073   5.208   8.425   7.921 -0.3527 -0.1651  0.0045
38565SOL    HW118074   5.233   8.500   7.867 -0.0079  0.3116  0.8110
38565SOL    HW218075   5.193   8.462   8.008  1.5490 -1.2674  0.8544
38566SOL     OW18076  10.009   6.380   1.464 -0.3542 -0.2421  0.0708
38566SOL    HW118077  10.102   6.361   1.472 -0.5788 -0.8865  1.3973
38566SOL    HW218078  10.005   6.473   1.444  0.6260 -0.6327 -2.3492
38567SOL     OW18079   4.259   0.968   1.246 -0.1731  0.0312  0.1728
38567SOL    HW118080   4.260   1.005   1.158 -0.9569  0.2303  0.2419
38567SOL    HW218081   4.251   1.044   1.304 -1.9587 -0.2165  0.3121
38568SOL     OW18082   5.235   7.151   6.010 -0.0901  0.3326  0.2027
38568SOL    HW118083   5.195   7.137   5.924  1.8211 -0.1235 -0.6567
38568SOL    HW218084   5.262   7.243   6.010  1.3416 -0.0598 -0.3599
38569SOL     OW18085   2.739   9.847   3.060 -0.9863 -0.1737 -0.3191
38569SOL    HW118086   2.664   9.864   3.004 -1.5831  2.2574  1.0910
38569SOL    HW218087   2.772   9.934   3.084  1.0219 -1.1488  0.7597
38570SOL     OW18088  10.364   8.631   5.823  0.3192 -0.1845 -0.2736
38570SOL    HW118089  10.356   8.558   5.885 -1.3354 -0.4080 -0.7211
38570SOL    HW218090  10.358   8.709   5.878  0.1574 -0.3814 -0.0056
38571SOL     OW18091   9.180   3.308   4.572  0.3090  0.1969  0.2675
38571SOL    HW118092   9.251   3.337   4.515 -0.4208  0.8226 -0.3430
38571SOL    HW218093   9.131   3.387   4.592 -0.5503 -0.3060  0.2074
38572SOL     OW18094   9.375   4.690   8.991 -0.4289  0.0019  0.2140
38572SOL    HW118095   9.407   4.664   9.077 -0.0509  0.1524  0.1217
38572SOL    HW218096   9.367   4.785   8.996 -1.4185 -0.0794  0.4187
38573SOL     OW18097   3.779   3.982   0.037  0.5469 -0.5559  0.0186
38573SOL    HW118098   3.784   3.889   0.013 -0.0228 -0.3108 -1.1249
38573SOL    HW218099   3.686   3.999   0.049  0.5492  0.1075 -0.8265
38574SOL     OW18100   8.565   8.023   3.311  0.3541  0.4799 -0.0470
38574SOL    HW118101   8.570   7.985   3.223  0.7480  0.3117  0.0500
38574SOL    HW218102   8.473   8.011   3.336  0.4224 -0.1879 -0.1120
38575SOL     OW18103   6.291  10.108   5.692 -0.0654  0.0158  0.0763
38575SOL    HW118104   6.289  10.109   5.596  0.1101 -0.7882  0.0619
38575SOL    HW218105   6.380  10.080   5.714 -0.2984 -0.4101  0.4752
38576SOL     OW18106   3.319   5.820   2.476  0.1462  0.0216  0.1875
38576SOL    HW118107   3.362   5.903   2.496 -0.2843  0.9890 -2.4572
38576SOL    HW218108   3.362   5.790   2.396 -0.2078 -1.9830  0.7003
38577SOL     OW18109   5.916   5.112   8.945  0.2897 -0.2969 -0.4899
38577SOL    HW118110   5.853   5.040   8.941  0.4589 -0.3937 -2.3060
38577SOL    HW218111   6.001   5.069   8.943  0.4381 -0.1117  0.7745
38578SOL     OW18112   7.813   1.071   1.117 -0.2840  0.3001  0.1141
38578SOL    HW118113   7.839   0.983   1.091 -0.6170  0.5090 -0.9412
38578SOL    HW218114   7.826   1.072   1.212 -1.4469 -1.2806  0.3291
38579SOL     OW18115   8.444   4.427   6.306 -0.1060 -0.0928  0.2366
38579SOL    HW118116   8.378   4.436   6.237  0.3443  0.6134 -0.1132
38579SOL    HW218117   8.420   4.493   6.371  0.1015  0.0003  0.2222
38580SOL     OW18118   2.281   2.169   9.424  0.4176 -0.5394  0.1436
38580SOL    HW118119   2.295   2.142   9.514  0.3065  1.3800  0.7854
38580SOL    HW218120   2.364   2.151   9.380  0.0854 -2.6074  0.2883
38581SOL     OW18121   1.356   3.609   1.638 -0.1325  0.2521 -0.0850
38581SOL    HW118122   1.405   3.561   1.571  0.1011 -0.3388  0.5080
38581SOL    HW218123   1.308   3.542   1.686  0.2343  0.5987  0.7873
38582SOL     OW18124   9.906   4.676   0.065 -0.2219 -0.0430  0.5094
38582SOL    HW118125   9.979   4.728   0.098 -1.3140  1.3206  0.8445
38582SOL    HW218126   9.945   4.591   0.045  1.6595  0.9424 -0.2647
38583SOL     OW18127   3.041   7.330   2.831  0.3280  0.3042 -0.1991
38583SOL    HW118128   2.953   7.351   2.800  0.5005  0.3319 -0.6780
38583SOL    HW218129   3.059   7.243   2.794  0.4577  0.2504 -0.0096
38584SOL     OW18130   7.222   8.292   8.887 -0.3108 -0.1691 -0.0372
38584SOL    HW118131   7.272   8.256   8.814 -0.3006  0.1040 -0.1646
38584SOL    HW218132   7.224   8.387   8.874 -2.0746 -0.1986 -0.8717
38585SOL     OW18133  10.532   0.790   6.870 -0.3148  0.1284 -0.1697
38585SOL    HW118134  10.477   0.868   6.863  0.8378  0.9044 -0.9295
38585SOL    HW218135  10.484   0.723   6.822 -1.8615  0.0130  1.4251
38586SOL     OW18136   1.378   5.526   1.460 -0.3276  0.4480  0.1311
38586SOL    HW118137   1.428   5.556   1.536  0.9250 -0.5968 -0.2414
38586SOL    HW218138   1.445   5.499   1.397 -1.3631 -0.7461 -0.4924
38587SOL     OW18139   7.707  10.386   4.837  0.3138 -0.4536  0.5633
38587SOL    HW118140   7.729  10.478   4.826  0.4050 -0.6383 -1.0461
38587SOL    HW218141   7.612  10.382   4.824  0.1383 -0.4687  1.6867
38588SOL     OW18142   4.273   8.339   5.973  0.0297 -0.1696  0.6045
38588SOL    HW118143   4.238   8.277   5.909 -0.1378  2.4714 -2.0683
38588SOL    HW218144   4.228   8.421   5.955  2.7420  1.6751  1.5551
38589SOL     OW18145  10.254   2.954   7.655 -0.2227 -0.1331  0.1592
38589SOL    HW118146  10.223   3.044   7.649 -0.5509 -0.2828 -0.5805
38589SOL    HW218147  10.348   2.959   7.638 -0.3252  0.0196 -0.3857
38590SOL     OW18148   3.945   4.404   1.343 -0.1757  0.1619 -0.0129
38590SOL    HW118149   3.986   4.387   1.428 -0.5211  0.0450  0.1333
38590SOL    HW218150   3.892   4.326   1.326  0.8392 -0.3505 -0.9149
38591SOL     OW18151   5.757   4.631   6.980 -0.1410  0.4881 -0.0493
38591SOL    HW118152   5.754   4.541   6.946 -0.0827 -0.6306  2.6669
38591SOL    HW218153   5.846   4.661   6.960  0.5712 -0.8983  0.8302
38592SOL     OW18154   1.691   6.349   2.185  0.2794  0.1451  0.2579
38592SOL    HW118155   1.709   6.357   2.279  0.0003  1.7414  0.2020
38592SOL    HW218156   1.741   6.272   2.157  1.3012  0.3389  1.4799
38593SOL     OW18157   7.917   9.465   6.724 -0.0795 -0.4326  0.1192
38593SOL    HW118158   7.840   9.513   6.695 -0.7718 -0.6925  1.4561
38593SOL    HW218159   7.984   9.533   6.737 -0.5732 -0.0114  0.4784
38594SOL     OW18160   1.091   2.868   7.731 -0.0129 -0.1392 -0.0797
38594SOL    HW118161   1.108   2.775   7.713  0.3489 -0.4213  1.5190
38594SOL    HW218162   1.062   2.869   7.822 -2.0892  1.1070 -0.6778
38595SOL     OW18163   5.384   4.844   6.476 -0.8487 -0.3447 -0.5377
38595SOL    HW118164   5.378   4.779   6.406 -2.0695 -1.6682  0.7345
38595SOL    HW218165   5.476   4.841   6.503 -0.6332 -0.6772 -1.2753
38596SOL     OW18166   2.214   1.275   1.385  0.2736 -0.1536 -0.2823
38596SOL    HW118167   2.273   1.350   1.382 -1.5130  1.2977 -1.0246
38596SOL    HW218168   2.252   1.212   1.324  1.6193  0.2721  0.0824
38597SOL     OW18169  10.011   9.581   8.235  0.3657 -0.7755  0.1109
38597SOL    HW118170   9.942   9.609   8.295 -0.0174 -0.7163 -0.3433
38597SOL    HW218171  10.039   9.662   8.191 -0.3088 -0.9884 -0.7570
38598SOL     OW18172   4.358   5.538   8.650  0.0716 -0.0505  0.3166
38598SOL    HW118173   4.377   5.610   8.709 -0.4996  0.8522 -0.5760
38598SOL    HW218174   4.281   5.567   8.600 -0.5216 -1.5031  0.3374
38599SOL     OW18175  10.562   4.324   7.091  0.3937  0.3906 -0.5071
38599SOL    HW118176  10.582   4.418   7.096  0.8555  0.2360  0.9002
38599SOL    HW218177  10.616   4.284   7.160 -2.0970 -0.5025  1.0502
38600SOL     OW18178   7.712   0.336   7.884  0.2621 -0.4019  0.2467
38600SOL    HW118179   7.751   0.380   7.809 -1.7396  1.6237  0.2963
38600SOL    HW218180   7.755   0.374   7.960  0.3193 -0.4040  0.2153
38601SOL     OW18181   6.963   5.377   5.901  0.0646  0.1551 -0.5510
38601SOL    HW118182   7.002   5.315   5.838  0.7058 -0.9267  0.8521
38601SOL    HW218183   6.877   5.339   5.921  0.7098 -0.6681  0.7850
38602SOL     OW18184  10.415   8.203   8.632 -0.0241 -0.3208  0.2377
38602SOL    HW118185  10.440   8.120   8.591  1.6998  0.5156 -0.5093
38602SOL    HW218186  10.496   8.253   8.636 -0.7884  0.8696  1.8122
38603SOL     OW18187   0.394   7.332   4.013  0.4859 -0.0157  0.3633
38603SOL    HW118188   0.373   7.386   4.089 -1.4881  0.4812 -0.4645
38603SOL    HW218189   0.413   7.245   4.049 -0.3222  0.2307  1.4275
38604SOL     OW18190   0.046   7.379   3.906  0.0000  0.3373 -0.3391
38604SOL    HW118191  -0.020   7.353   3.841  1.0288 -1.1991 -0.8005
38604SOL    HW218192   0.127   7.386   3.856  0.5684  0.3242  0.5684
38605SOL     OW18193   5.256   6.409   3.752  0.1605 -0.3375 -0.0233
38605SOL    HW118194   5.161   6.408   3.761  0.2830 -0.8684  1.5897
38605SOL    HW218195   5.281   6.316   3.751  0.7516 -0.2139  1.0961
38606SOL     OW18196   5.734   6.912   2.431 -0.3545  0.0303  0.0560
38606SOL    HW118197   5.689   6.933   2.512 -0.4312  2.0076 -0.4416
38606SOL    HW218198   5.663   6.898   2.367 -0.3082  1.8430 -0.4249
38607SOL     OW18199   5.472   3.484   6.705 -0.0023  0.2632  0.2482
38607SOL    HW118200   5.378   3.483   6.720 -0.0507  0.3116 -0.0334
38607SOL    HW218201   5.482   3.531   6.622  0.3194  0.8521  0.6175
38608SOL     OW18202   9.539   8.677   9.191  0.0934  0.0153 -0.1664
38608SOL    HW118203   9.532   8.741   9.120 -2.5984  1.4739  1.2413
38608SOL    HW218204   9.529   8.592   9.148  0.0936  0.7600 -1.7026
38609SOL     OW18205   7.849   6.219  10.721 -0.2311  0.5544 -0.0590
38609SOL    HW118206   7.934   6.175  10.714 -0.6024 -0.3975  1.2394
38609SOL    HW218207   7.868   6.311  10.699  1.2521  0.4706  0.7566
38610SOL     OW18208   3.890   7.576   0.536 -0.0311 -0.3721 -0.5443
38610SOL    HW118209   3.849   7.568   0.622  1.1285  2.4973  0.4158
38610SOL    HW218210   3.856   7.659   0.501  1.8966  0.1068 -1.4287
38611SOL     OW18211   4.022   6.379   3.453  0.3790 -0.2826  0.4373
38611SOL    HW118212   4.082   6.451   3.435 -0.2643  0.5118  1.3431
38611SOL    HW218213   3.940   6.422   3.477 -0.4628 -1.3332 -0.4528
38612SOL     OW18214   9.362   8.184   6.598 -0.2672 -0.4053  0.3775
38612SOL    HW118215   9.298   8.192   6.528 -0.1761 -0.1307  0.3247
38612SOL    HW218216   9.440   8.229   6.566 -0.4224  0.2509  0.8848
38613SOL     OW18217   0.935   5.927   5.044 -0.3158 -0.4674  0.2339
38613SOL    HW118218   0.898   5.853   5.092  0.9881 -0.8887  0.6188
38613SOL    HW218219   1.017   5.894   5.007 -0.0577  0.5795 -0.1795
38614SOL     OW18220   4.586   3.602   6.633  0.2590  0.1173 -0.1859
38614SOL    HW118221   4.603   3.571   6.544 -0.1096 -1.1428  0.1666
38614SOL    HW218222   4.495   3.632   6.631  0.5549  1.0139 -0.4771
38615SOL     OW18223   8.866   5.783   2.373 -0.1718  0.7825 -0.0933
38615SOL    HW118224   8.783   5.828   2.384 -0.6830  0.3489 -1.7747
38615SOL    HW218225   8.841   5.691   2.360  0.7323  0.2724  1.5377
38616SOL     OW18226   2.713   1.815   5.721 -0.0777  0.0277  0.5945
38616SOL    HW118227   2.753   1.864   5.649 -1.1422  1.0725  0.6752
38616SOL    HW218228   2.636   1.867   5.745  0.7493  0.2080  3.1297
38617SOL     OW18229   3.834   6.437   5.805  0.3528  0.0259  0.1266
38617SOL    HW118230   3.821   6.362   5.747 -1.0598 -1.2431  1.9917
38617SOL    HW218231   3.929   6.443   5.814  0.6774  0.6727 -2.7395
38618SOL     OW18232   5.604   3.182   9.561  0.6525  0.5770 -0.2244
38618SOL    HW118233   5.686   3.136   9.542  0.6983  1.0167 -1.1172
38618SOL    HW218234   5.627   3.243   9.632  0.9886  0.4037 -0.1819
38619SOL     OW18235   9.319   3.345   8.339 -0.0061  0.1519  0.3012
38619SOL    HW118236   9.413   3.325   8.334  0.0718  0.0705  1.8488
38619SOL    HW218237   9.277   3.270   8.295  0.6422  0.3620 -0.7260
38620SOL     OW18238   8.213   5.006   2.612  0.0685  0.0092  0.5312
38620SOL    HW118239   8.239   5.097   2.624  1.6227 -0.2550 -0.4998
38620SOL    HW218240   8.226   4.966   2.699  1.3263  0.3432  0.5201
38621SOL     OW18241   8.638   4.815   1.539 -0.6873  0.0321  0.4912
38621SOL    HW118242   8.544   4.805   1.554 -0.2751 -2.4259  1.8230
38621SOL    HW218243   8.644   4.859   1.453 -3.0506 -2.3546 -1.0266
38622SOL     OW18244   0.384   6.515   3.798 -0.3589 -0.0462 -0.3629
38622SOL    HW118245   0.388   6.590   3.856  1.6288  0.4686 -1.0855
38622SOL    HW218246   0.312   6.535   3.738 -0.8969  0.4953  0.4365
38623SOL     OW18247   1.735  10.099   2.378 -0.5660 -0.5005 -0.0637
38623SOL    HW118248   1.686  10.167   2.424  0.1967  0.9672 -1.3386
38623SOL    HW218249   1.687  10.018   2.398 -2.6164  0.6429 -0.0289
38624SOL     OW18250  10.549   6.633   3.544  0.3162  0.0392  0.1489
38624SOL    HW118251  10.521   6.632   3.453  0.0365  1.1481  0.1967
38624SOL    HW218252  10.498   6.564   3.586  2.7548 -2.7159 -1.1048
38625SOL     OW18253   6.181   0.287   4.595 -0.4003 -0.4672  0.4041
38625SOL    HW118254   6.154   0.367   4.640 -0.5516 -0.4525  0.2864
38625SOL    HW218255   6.277   0.292   4.592 -0.1764 -1.6435  2.9546
38626SOL     OW18256   0.619   5.638   1.876  0.1533  0.1621 -0.1915
38626SOL    HW118257   0.663   5.721   1.860 -3.0407  2.0275 -0.0970
38626SOL    HW218258   0.622   5.627   1.971  1.1842 -0.2625 -0.2540
38627SOL     OW18259   4.935   4.334   5.006 -0.7737  0.9444  0.2808
38627SOL    HW118260   4.979   4.392   5.069 -0.8434  1.3489 -0.0374
38627SOL    HW218261   4.989   4.340   4.927 -0.4051  0.0502  0.4503
38628SOL     OW18262   6.388   9.721   4.857 -0.1409 -0.3510  0.3581
38628SOL    HW118263   6.299   9.754   4.848  0.4874  1.3625  0.1129
38628SOL    HW218264   6.435   9.790   4.904  1.6811 -0.0390 -1.7463
38629SOL     OW18265   7.766   3.721   3.729 -0.5020  0.1664  0.2305
38629SOL    HW118266   7.810   3.773   3.796 -0.6686 -0.3482  0.7499
38629SOL    HW218267   7.690   3.684   3.774 -0.1623 -0.8603  0.0029
38630SOL     OW18268   8.204   7.990   4.217  0.2992 -0.7813  0.1578
38630SOL    HW118269   8.203   8.049   4.292 -0.9944 -0.6168  0.0254
38630SOL    HW218270   8.224   7.904   4.255 -0.8318 -0.7907  0.7853
38631SOL     OW18271   3.127   5.361  10.042  0.4395 -1.0207 -0.1324
38631SOL    HW118272   3.187   5.424  10.003 -1.1486 -0.6986 -2.2140
38631SOL    HW218273   3.185   5.295  10.081  2.1454 -0.3152 -1.3119
38632SOL     OW18274   4.809   5.740   5.742 -0.5167  0.3482 -0.1550
38632SOL    HW118275   4.836   5.685   5.668 -1.5410 -1.2737  0.6085
38632SOL    HW218276   4.729   5.783   5.712 -1.2568 -0.7566  0.1619
38633SOL     OW18277   0.512   2.826   7.757  0.2740 -0.1786  0.1107
38633SOL    HW118278   0.458   2.760   7.712 -0.2418  0.2580  0.0714
38633SOL    HW218279   0.584   2.843   7.697 -0.4482  0.4526 -0.5974
38634SOL     OW18280   1.157   1.999   5.571  0.4397  0.0004  0.1312
38634SOL    HW118281   1.121   2.087   5.585 -0.8035 -0.6707  1.3550
38634SOL    HW218282   1.251   2.014   5.556  0.1688  1.5660 -0.1735
38635SOL     OW18283   8.075   0.927   7.097 -0.0153 -0.1254  0.7098
38635SOL    HW118284   8.040   1.002   7.048 -0.8682  0.2435  1.8630
38635SOL    HW218285   8.077   0.856   7.032 -0.7616  0.4495  0.0326
38636SOL     OW18286   7.824   7.841   7.956  0.0975 -0.0662  0.1957
38636SOL    HW118287   7.782   7.823   8.039 -0.9583  1.3470 -0.0088
38636SOL    HW218288   7.809   7.934   7.940  1.8626  0.1209 -0.7033
38637SOL     OW18289   5.368   5.822   8.472  0.2891  0.2870 -0.4692
38637SOL    HW118290   5.307   5.862   8.410  0.4947 -0.1126 -0.9408
38637SOL    HW218291   5.400   5.744   8.426  0.1419 -0.2317  0.3075
38638SOL     OW18292   4.780   5.168   6.888 -0.0547 -0.1560 -0.3856
38638SOL    HW118293   4.731   5.219   6.823  0.0105 -1.6736 -1.7065
38638SOL    HW218294   4.714   5.137   6.949 -0.0755  1.5739  0.5217
38639SOL     OW18295   5.093   1.779   9.404 -0.3276  0.5162  0.4389
38639SOL    HW118296   5.010   1.751   9.368  0.2602  0.4448 -0.9131
38639SOL    HW218297   5.134   1.699   9.436  0.1421  0.2040 -0.8810
38640SOL     OW18298   7.135   6.941  10.525 -0.3203 -0.2384 -0.3147
38640SOL    HW118299   7.139   6.866  10.585 -0.1769  0.7656  0.9763
38640SOL    HW218300   7.112   7.015  10.581 -0.6756  0.6582 -1.6009
38641SOL     OW18301   9.824   2.338   4.790 -0.0947 -0.0360  0.1041
38641SOL    HW118302   9.842   2.273   4.723  0.3947  0.7581 -0.5459
38641SOL    HW218303   9.730   2.330   4.807 -0.6831  1.1690 -2.2101
38642SOL     OW18304   9.452   9.316   0.490 -0.2160 -0.1525  0.3628
38642SOL    HW118305   9.408   9.293   0.572 -1.3566 -1.7683 -0.6391
38642SOL    HW218306   9.461   9.232   0.444  1.2435  0.5898 -0.7673
38643SOL     OW18307   3.975   7.554   2.868  0.5034 -0.1588  0.1358
38643SOL    HW118308   3.997   7.645   2.885  1.8536 -0.9434  3.3474
38643SOL    HW218309   3.898   7.537   2.923  0.2021 -0.9468 -0.5092
38644SOL     OW18310   6.920   0.422   0.550 -0.4466  0.4712  0.1260
38644SOL    HW118311   6.963   0.504   0.571  1.4619  0.1551 -2.0812
38644SOL    HW218312   6.988   0.369   0.507 -1.9296 -1.7818  0.3419
38645SOL     OW18313   4.090   6.219   6.307  0.2044  0.6492 -0.1326
38645SOL    HW118314   4.085   6.269   6.388 -1.1725  2.3590 -1.2067
38645SOL    HW218315   4.182   6.195   6.299  0.6345  1.7827  1.1485
38646SOL     OW18316   0.218   3.002   8.899 -0.0426 -0.2141 -0.0349
38646SOL    HW118317   0.223   2.973   8.991  1.1440 -1.1185 -0.3517
38646SOL    HW218318   0.150   2.946   8.860 -0.2700 -0.0996  0.1923
38647SOL     OW18319   3.258   5.013   3.966  0.1445 -0.8725  0.2800
38647SOL    HW118320   3.344   5.030   3.929  0.1685 -1.7963 -0.1284
38647SOL    HW218321   3.205   5.088   3.940  1.3850  0.9105  2.5085
38648SOL     OW18322   0.050   5.151   2.982 -0.1735 -0.3511 -0.1251
38648SOL    HW118323   0.023   5.194   2.901 -2.2080 -1.1654  0.0494
38648SOL    HW218324   0.072   5.062   2.955 -2.4576 -1.1314  0.3602
38649SOL     OW18325   6.663   3.603   8.569  0.2276 -0.5358 -0.5161
38649SOL    HW118326   6.578   3.586   8.611  0.4091  1.4752  0.8084
38649SOL    HW218327   6.644   3.672   8.504  0.6187 -1.0561 -1.1982
38650SOL     OW18328   6.124   2.171   7.196  0.0358  0.0369  0.0254
38650SOL    HW118329   6.077   2.115   7.258  0.7579 -0.4922  0.1152
38650SOL    HW218330   6.188   2.112   7.155 -0.4269  0.3717 -1.2234
38651SOL     OW18331   6.978   3.168   9.582 -0.1532  0.4143  0.1165
38651SOL    HW118332   7.021   3.132   9.660 -1.6995 -0.4123  0.6278
38651SOL    HW218333   6.888   3.134   9.587 -1.1035  2.6838 -0.4790
38652SOL     OW18334   9.251   5.705   0.781  0.6441  0.3376  1.2050
38652SOL    HW118335   9.308   5.766   0.828 -1.0686  0.6015  3.0536
38652SOL    HW218336   9.175   5.757   0.755  0.3653 -0.4211  0.4598
38653SOL     OW18337   0.973  10.288   7.451  0.1622 -0.2615  0.8475
38653SOL    HW118338   1.037  10.359   7.452  0.6406 -0.6820  1.8718
38653SOL    HW218339   0.895  10.325   7.492  0.6438 -0.5079  2.0332
38654SOL     OW18340   1.640   8.093   8.948  0.4238  0.2312  0.6236
38654SOL    HW118341   1.599   8.134   9.024 -0.2619  0.9838 -0.1199
38654SOL    HW218342   1.683   8.165   8.902  1.9490 -0.4274  0.9657
38655SOL     OW18343   5.687   5.167   4.737  0.3915  0.5921 -0.1814
38655SOL    HW118344   5.599   5.157   4.775 -0.1279 -1.6011 -1.7753
38655SOL    HW218345   5.738   5.095   4.774  1.5445  1.7716  0.6296
38656SOL     OW18346  10.695   5.127   0.303  0.6531 -0.3401 -0.2643
38656SOL    HW118347  10.715   5.188   0.232  0.7252 -0.0866 -0.0273
38656SOL    HW218348  10.759   5.148   0.371  0.3663 -0.3543  0.0092
38657SOL     OW18349   8.489   7.590   1.259 -0.7931  0.1298  0.4975
38657SOL    HW118350   8.467   7.499   1.236 -0.7127  0.3892 -0.6788
38657SOL    HW218351   8.475   7.639   1.178  0.4900  0.9394  0.7429
38658SOL     OW18352  10.478   0.850   2.395 -0.3046 -0.4709  0.1619
38658SOL    HW118353  10.483   0.940   2.363  0.5525 -0.6339 -0.1869
38658SOL    HW218354  10.468   0.859   2.490  1.6772  0.0226  0.3848
38659SOL     OW18355   0.975   3.104   9.168  0.4829  0.4086  0.7246
38659SOL    HW118356   1.037   3.146   9.228  0.1785  2.3059 -0.2045
38659SOL    HW218357   0.895   3.157   9.177  0.0832  0.0386 -0.5307
38660SOL     OW18358   4.159   5.729   3.584  0.4557 -0.0549  0.4165
38660SOL    HW118359   4.074   5.700   3.551  0.1364  1.6116 -0.3021
38660SOL    HW218360   4.178   5.668   3.656 -2.7592  1.2773  2.6462
38661SOL     OW18361   9.415   6.934   8.617 -0.0117 -0.4680 -0.4629
38661SOL    HW118362   9.501   6.971   8.598  0.9644 -1.0547  2.3136
38661SOL    HW218363   9.364   7.009   8.647 -0.2706 -0.2402 -1.4431
38662SOL     OW18364   5.660   3.099   4.484  0.3739  0.4939  1.0880
38662SOL    HW118365   5.703   3.172   4.529 -1.0593  1.5083  0.8813
38662SOL    HW218366   5.693   3.021   4.527  2.2802  1.2220  1.0402
38663SOL     OW18367   7.730   4.777   4.797 -0.1382  0.0128 -0.0831
38663SOL    HW118368   7.674   4.700   4.800 -0.7099  0.3862 -0.8736
38663SOL    HW218369   7.747   4.790   4.703  1.2875 -0.0989  0.1246
38664SOL     OW18370   0.260   4.126   4.766  0.2294  0.1367  0.1162
38664SOL    HW118371   0.291   4.217   4.767  0.1435  0.1759 -0.3886
38664SOL    HW218372   0.167   4.131   4.785  0.4978  0.0272  1.5416
38665SOL     OW18373   9.967  10.495   4.978 -0.0159  0.6674 -0.2834
38665SOL    HW118374  10.007  10.536   5.054 -0.1500  0.2711  0.0067
38665SOL    HW218375  10.013  10.412   4.968 -1.1967 -0.1017  0.4645
38666SOL     OW18376   5.301   7.848   2.015 -0.5423 -0.6295 -0.3387
38666SOL    HW118377   5.322   7.938   1.988 -3.3718  0.7007  1.3526
38666SOL    HW218378   5.275   7.804   1.934 -2.5340  1.2488 -0.8398
38667SOL     OW18379   4.401   0.160   5.106  0.3430 -0.1302  0.5125
38667SOL    HW118380   4.459   0.086   5.123  1.4324  0.8060  0.9155
38667SOL    HW218381   4.324   0.143   5.161  0.3212 -1.2499  0.1578
38668SOL     OW18382   8.486   7.112   4.715 -0.4798 -0.8678  0.4417
38668SOL    HW118383   8.561   7.129   4.772  0.7480 -2.7231 -0.5285
38668SOL    HW218384   8.514   7.141   4.628 -0.6592 -2.0237 -0.0241
38669SOL     OW18385   4.456   0.445   3.079  0.0791  0.4256 -0.2643
38669SOL    HW118386   4.360   0.446   3.076  0.1005  1.2855 -1.7035
38669SOL    HW218387   4.479   0.353   3.078 -0.7329  0.1701  1.2784
38670SOL     OW18388   2.575   1.560   6.408  0.0882 -0.4014 -0.4913
38670SOL    HW118389   2.565   1.621   6.481  0.0588 -1.0559  0.0643
38670SOL    HW218390   2.485   1.545   6.377 -0.0795 -1.4014  0.4216
38671SOL     OW18391   4.594   8.659   1.788  0.0024 -0.5893  0.0912
38671SOL    HW118392   4.506   8.665   1.827 -0.8306 -2.7447 -1.2043
38671SOL    HW218393   4.649   8.627   1.859 -0.7806 -1.3893  0.3673
38672SOL     OW18394   7.308   5.778   0.940 -0.2156 -0.2339 -0.1204
38672SOL    HW118395   7.237   5.770   1.005 -1.3387  2.1465 -0.9403
38672SOL    HW218396   7.385   5.801   0.992 -0.9644  1.0495  0.4744
38673SOL     OW18397   2.488  10.300   7.739 -0.3831  0.3003  0.1072
38673SOL    HW118398   2.447  10.362   7.679 -0.1359  0.3797  0.0200
38673SOL    HW218399   2.565  10.269   7.692 -0.5273 -0.1011  0.1350
38674SOL     OW18400   4.375   8.419   4.784 -0.0696 -0.5843 -0.5385
38674SOL    HW118401   4.372   8.493   4.724  0.0504  0.5949  0.8755
38674SOL    HW218402   4.447   8.440   4.845 -1.9524 -0.3637  1.7376
38675SOL     OW18403   2.429   2.290   0.957  0.5307 -0.0330  0.2457
38675SOL    HW118404   2.478   2.371   0.944  0.9003 -0.3909 -0.5983
38675SOL    HW218405   2.472   2.248   1.032  0.1506  0.6760  0.8838
38676SOL     OW18406   7.634   6.120   8.542  0.4575 -0.1293  0.0154
38676SOL    HW118407   7.598   6.056   8.481 -1.9050 -0.1304  1.2544
38676SOL    HW218408   7.691   6.070   8.600 -0.6004 -0.9732  0.3636
38677SOL     OW18409  10.770   2.985   7.074  0.6074  0.7952 -1.2460
38677SOL    HW118410  10.722   2.937   7.142  1.7151  1.0884 -0.2162
38677SOL    HW218411  10.770   2.926   6.999  0.0678  0.0994 -0.7189
38678SOL     OW18412   6.548   0.741   5.722 -0.2475  0.4906  0.1134
38678SOL    HW118413   6.534   0.822   5.673 -1.4225  0.1173 -0.2244
38678SOL    HW218414   6.569   0.676   5.655  0.6675  0.5113  0.3800
38679SOL     OW18415   3.339   6.814   5.435  0.0189 -0.1337  0.7211
38679SOL    HW118416   3.366   6.888   5.490 -1.0652  2.5066 -2.0253
38679SOL    HW218417   3.395   6.820   5.358 -0.7145 -1.6387  0.0298
38680SOL     OW18418   9.386  10.710   0.243 -0.6952 -0.0295 -0.6023
38680SOL    HW118419   9.292  10.702   0.261 -0.9974 -0.7295 -2.3415
38680SOL    HW218420   9.393  10.713   0.148  1.1227 -1.0645 -0.5594
38681SOL     OW18421   5.603   5.260   0.554 -0.1064  0.3798 -0.6472
38681SOL    HW118422   5.525   5.263   0.499 -1.3193  1.2270  1.0645
38681SOL    HW218423   5.577   5.211   0.632  1.3234 -0.0289 -0.3844
38682SOL     OW18424   0.528   7.104   3.144 -0.4127  0.0841  0.1199
38682SOL    HW118425   0.582   7.150   3.208 -0.2044  0.1590 -0.1108
38682SOL    HW218426   0.568   7.125   3.059  0.3607 -1.4353  0.0903
38683SOL     OW18427   5.995   6.596   0.893 -0.3298  0.7709  0.0211
38683SOL    HW118428   5.944   6.653   0.950 -0.1119 -0.2780  1.2993
38683SOL    HW218429   5.952   6.511   0.900  0.3585  0.3678 -0.5436
38684SOL     OW18430   5.032   4.830   3.599  0.0190 -0.1815 -0.0758
38684SOL    HW118431   5.085   4.752   3.615 -0.6040 -0.6250 -0.1642
38684SOL    HW218432   4.972   4.834   3.674  0.0177  0.1849 -0.0963
38685SOL     OW18433   0.520  10.385   5.677  0.6389  0.0572  0.4817
38685SOL    HW118434   0.612  10.366   5.698  0.7866  1.1026  0.8490
38685SOL    HW218435   0.524  10.435   5.596  0.4666  0.9819  1.0403
38686SOL     OW18436   1.677   0.204   7.104 -0.2314  0.5744 -0.2962
38686SOL    HW118437   1.657   0.126   7.052  1.3742  0.0826 -0.2123
38686SOL    HW218438   1.639   0.276   7.054 -2.3017 -0.2805 -0.0645
38687SOL     OW18439   4.631   9.883   3.309 -0.2232 -0.1936  0.0022
38687SOL    HW118440   4.554   9.916   3.263 -0.6102 -0.9627  0.0906
38687SOL    HW218441   4.596   9.826   3.378  0.3726  0.3932  0.8145
38688SOL     OW18442   8.669   8.622   4.264 -0.3195  0.2409  0.1370
38688SOL    HW118443   8.610   8.682   4.310 -0.1349 -0.9271  2.0356
38688SOL    HW218444   8.612   8.555   4.227 -0.3563  0.2907  0.1051
38689SOL     OW18445   2.146   4.089   6.072 -0.0998 -0.4714  0.0378
38689SOL    HW118446   2.175   4.140   6.147 -1.2359 -0.0681  0.2246
38689SOL    HW218447   2.055   4.068   6.091 -0.6301  0.2370 -1.5251
38690SOL     OW18448   0.688   2.107   3.197  0.0194 -0.0476 -0.2530
38690SOL    HW118449   0.618   2.042   3.194 -1.3973  1.4131 -3.6421
38690SOL    HW218450   0.752   2.078   3.132  0.7698  0.5528  0.1815
38691SOL     OW18451   9.995   5.162   9.807  0.7596 -0.0471 -0.0265
38691SOL    HW118452  10.006   5.128   9.718  1.8868 -1.8299  0.7623
38691SOL    HW218453   9.955   5.090   9.856 -0.6843  1.2074  0.7591
38692SOL     OW18454   8.189   7.676   7.246 -0.5487 -0.3192 -0.0778
38692SOL    HW118455   8.186   7.762   7.204  0.0461  0.0410  0.5934
38692SOL    HW218456   8.281   7.664   7.269 -0.7972 -0.6794  0.7712
38693SOL     OW18457   4.955   3.849   7.372 -0.1171  0.6003 -0.4093
38693SOL    HW118458   4.873   3.842   7.420 -0.1479  2.1449 -0.1727
38693SOL    HW218459   4.943   3.923   7.313 -0.3423 -1.6890 -3.4512
38694SOL     OW18460   8.879   0.362   7.964  0.0855  0.3468 -0.0721
38694SOL    HW118461   8.818   0.367   7.890 -0.5695  1.9948  0.5284
38694SOL    HW218462   8.827   0.323   8.034 -0.0265  0.9381  0.1817
38695SOL     OW18463   0.118   9.884   1.522 -0.2495 -0.3989 -0.1658
38695SOL    HW118464   0.090   9.870   1.431 -1.6819  0.7049  0.0749
38695SOL    HW218465   0.213   9.898   1.515 -0.4901  0.7670 -1.6347
38696SOL     OW18466   0.495   8.554   9.802 -0.6515  0.1113  0.2612
38696SOL    HW118467   0.519   8.470   9.841  1.8213  0.7419  0.2859
38696SOL    HW218468   0.513   8.543   9.709  3.3542  1.5673  0.6484
38697SOL     OW18469   2.491   7.827   0.676 -0.3685  0.4543  0.0977
38697SOL    HW118470   2.450   7.893   0.620  0.3857  1.8436  1.1274
38697SOL    HW218471   2.468   7.743   0.635 -4.2618  1.0825  0.5993
38698SOL     OW18472   0.858   7.279   0.537  0.1959  0.6573  0.2368
38698SOL    HW118473   0.809   7.351   0.498  0.7071  0.0213 -1.6572
38698SOL    HW218474   0.940   7.318   0.565 -0.3122  1.1862  1.0510
38699SOL     OW18475   7.500   0.681   5.446  0.5283  0.2162 -0.0587
38699SOL    HW118476   7.504   0.762   5.497  1.3723 -0.0790  0.3582
38699SOL    HW218477   7.589   0.647   5.448  0.5771  0.1668 -1.6993
38700SOL     OW18478   5.598   7.158   3.639  0.7777  0.4832  0.2999
38700SOL    HW118479   5.673   7.138   3.583 -0.7213 -0.7035 -1.3914
38700SOL    HW218480   5.534   7.200   3.581 -1.2294 -1.6629  0.7889
38701SOL     OW18481   7.275   6.825   6.837 -0.8011  0.5511  0.0271
38701SOL    HW118482   7.328   6.745   6.842 -1.0668  0.3925  0.3360
38701SOL    HW218483   7.296   6.874   6.916  0.3552  1.4245 -0.7937
38702SOL     OW18484  10.282   3.835   3.249 -0.4024  0.1818 -0.0764
38702SOL    HW118485  10.372   3.845   3.218 -0.7271  0.6971 -0.8900
38702SOL    HW218486  10.266   3.914   3.302  0.2180 -0.7924  1.6143
38703SOL     OW18487   5.453   7.426   2.454  0.2201 -0.1270 -0.4263
38703SOL    HW118488   5.370   7.402   2.413  1.4994 -0.8969 -2.7653
38703SOL    HW218489   5.461   7.367   2.528 -2.1063  1.1890  1.0005
38704SOL     OW18490   3.427   2.850   6.831 -0.1909 -0.4534  0.0400
38704SOL    HW118491   3.393   2.835   6.743 -0.2280 -1.9421  0.2835
38704SOL    HW218492   3.382   2.785   6.885 -0.5330  0.7532  1.2692
38705SOL     OW18493   2.834   3.043   5.506  0.1133 -0.2445 -0.0697
38705SOL    HW118494   2.766   3.080   5.563 -0.2279  1.9711 -1.7701
38705SOL    HW218495   2.785   3.008   5.431  0.7084 -1.0073 -0.1147
38706SOL     OW18496   5.568   3.486   8.007 -0.4564  0.8316 -0.4165
38706SOL    HW118497   5.660   3.461   8.014 -1.4028 -3.6819 -1.1031
38706SOL    HW218498   5.568   3.564   7.951  2.8003 -0.1302 -1.9625
38707SOL     OW18499   6.940   4.401   6.314  0.6843  0.1601 -0.2186
38707SOL    HW118500   7.030   4.392   6.344  0.9617 -0.4212 -1.1776
38707SOL    HW218501   6.936   4.490   6.278  0.6202  0.5019  0.6161
38708SOL     OW18502   1.869   6.177   1.177  0.4358 -0.2237  0.1620
38708SOL    HW118503   1.827   6.144   1.256  0.1913  0.9565  0.5562
38708SOL    HW218504   1.961   6.154   1.187  0.4266  0.0098  0.8547
38709SOL     OW18505   3.181   3.406   4.510 -0.0657  0.1340  0.4341
38709SOL    HW118506   3.089   3.427   4.494  0.6288  1.6912 -2.1222
38709SOL    HW218507   3.182   3.363   4.595 -3.2896 -1.0084  0.0107
38710SOL     OW18508   4.211   9.298   6.085  0.4710  0.0153 -0.3951
38710SOL    HW118509   4.244   9.383   6.055  0.4782  1.3591  2.9520
38710SOL    HW218510   4.246   9.235   6.022  2.2073  2.2740 -1.8646
38711SOL     OW18511   3.514   7.393  10.371  0.6694  0.1539 -0.0709
38711SOL    HW118512   3.513   7.481  10.334 -0.4658  0.4114  0.5279
38711SOL    HW218513   3.488   7.336  10.298 -1.6969  0.6730  0.3126
38712SOL     OW18514  10.382   1.913   1.140  0.4482  0.5522 -0.4036
38712SOL    HW118515  10.383   1.984   1.204 -1.2656  0.3342 -0.1013
38712SOL    HW218516  10.306   1.930   1.085  0.0959 -0.9663 -0.4263
38713SOL     OW18517   7.772   0.380   4.936  0.1825  0.3700  0.7957
38713SOL    HW118518   7.719   0.303   4.959  0.3470  0.2285  0.7026
38713SOL    HW218519   7.840   0.346   4.879  1.5006  0.2200  2.3885
38714SOL     OW18520   2.366   8.859   2.975 -0.1642  0.3102 -0.4144
38714SOL    HW118521   2.376   8.915   2.898  1.5007  0.7583  0.0939
38714SOL    HW218522   2.385   8.916   3.049  0.8049 -0.7112  0.1642
38715SOL     OW18523   3.700   3.267   7.248 -0.3077 -0.1097  0.5862
38715SOL    HW118524   3.742   3.209   7.312 -1.6760 -0.9739  0.7326
38715SOL    HW218525   3.631   3.311   7.297 -0.3723  0.3875  0.0584
38716SOL     OW18526  10.545   6.562   1.849 -0.5103  0.0891  0.4203
38716SOL    HW118527  10.585   6.571   1.936  0.3159 -0.6414  0.1266
38716SOL    HW218528  10.490   6.640   1.840 -2.5944 -1.0136  2.6150
38717SOL     OW18529   8.988   3.219   6.959 -0.3274  0.5165 -0.2066
38717SOL    HW118530   9.065   3.164   6.948 -0.0918  0.7069  0.4499
38717SOL    HW218531   8.985   3.238   7.053 -1.5885 -0.0811 -0.1123
38718SOL     OW18532   0.855   8.153   8.745 -0.2752  0.1581  0.2062
38718SOL    HW118533   0.938   8.148   8.792 -0.0332  1.3878 -0.0600
38718SOL    HW218534   0.800   8.086   8.786  0.5732 -0.1071  0.9341
38719SOL     OW18535   2.158   0.533   7.110  0.0605  0.7048 -0.2840
38719SOL    HW118536   2.079   0.526   7.164 -0.1788 -0.3807 -0.7519
38719SOL    HW218537   2.127   0.524   7.020  0.5481  1.7623 -0.5715
38720SOL     OW18538   1.110  10.128   7.636  0.5658  0.3105 -0.9979
38720SOL    HW118539   1.036  10.138   7.695 -1.2302 -3.1209 -2.3877
38720SOL    HW218540   1.073  10.134   7.548  2.0298 -0.7177 -1.7458
38721SOL     OW18541   8.354   1.092   0.222 -0.0541  0.1792  0.0904
38721SOL    HW118542   8.313   1.006   0.207  0.3669  0.2530 -1.7850
38721SOL    HW218543   8.300   1.153   0.172 -0.4411  1.0662  1.5355
38722SOL     OW18544   2.266   2.071   2.825  0.2626  0.7538  0.5611
38722SOL    HW118545   2.266   2.118   2.741 -0.4753 -0.5854 -0.2343
38722SOL    HW218546   2.179   2.088   2.862  1.0983  2.5945  1.8525
38723SOL     OW18547   6.400   6.991   9.491 -0.1309  0.4978 -0.2258
38723SOL    HW118548   6.382   6.927   9.560  1.4637  1.5760  1.2713
38723SOL    HW218549   6.489   6.971   9.462 -0.7018  0.1908 -1.8873
38724SOL     OW18550  10.105   3.699   3.479 -0.2981  0.4184  0.2964
38724SOL    HW118551  10.133   3.616   3.439 -1.7695 -1.5568  2.9916
38724SOL    HW218552  10.186   3.750   3.487  0.7713 -1.0038 -0.9107
38725SOL     OW18553   9.795   3.094   2.583  0.7233 -0.0160 -0.3614
38725SOL    HW118554   9.740   3.168   2.556 -2.6221 -3.1385 -3.1925
38725SOL    HW218555   9.751   3.057   2.659  0.5484 -0.8226 -0.8348
38726SOL     OW18556   4.402   2.056   6.633  0.4821 -0.3136 -0.0346
38726SOL    HW118557   4.484   2.011   6.654  0.5308 -2.2982 -3.7051
38726SOL    HW218558   4.335   2.008   6.683  1.0264 -1.9062 -0.7746
38727SOL     OW18559  10.733   2.187   3.719  0.3136  0.1426 -0.2865
38727SOL    HW118560  10.745   2.114   3.657 -2.5065 -0.8294  0.1598
38727SOL    HW218561  10.759   2.152   3.804  1.2130  0.4774 -0.4066
38728SOL     OW18562   3.324   8.485  10.434 -0.1457  0.0951 -0.0810
38728SOL    HW118563   3.331   8.503  10.340  2.3006  0.6449  0.1384
38728SOL    HW218564   3.346   8.392  10.442 -0.2169  0.0820 -0.0403
38729SOL     OW18565   6.005   7.206   6.129 -0.2871  0.6047  0.1754
38729SOL    HW118566   6.032   7.164   6.211  1.7646  0.9914 -0.2500
38729SOL    HW218567   6.033   7.297   6.139 -2.4547  1.3415  0.0892
38730SOL     OW18568   9.870   7.377   6.033  0.1382 -0.0336  0.1554
38730SOL    HW118569   9.810   7.449   6.049 -0.6799 -0.8457  0.8470
38730SOL    HW218570   9.829   7.301   6.075  0.3735 -1.1671 -1.5513
38731SOL     OW18571   6.397   4.836   1.019  0.0306 -0.5318  0.2820
38731SOL    HW118572   6.364   4.920   0.987  1.3226  0.7072  1.9565
38731SOL    HW218573   6.379   4.774   0.949 -0.2693  1.3089 -1.3454
38732SOL     OW18574   8.100  10.391   6.325  0.6181  1.1460 -0.4019
38732SOL    HW118575   8.084  10.464   6.384  2.2360  1.4340 -0.2754
38732SOL    HW218576   8.106  10.315   6.383 -0.1732  1.0409 -0.4473
38733SOL     OW18577   6.706   7.513   1.386 -0.7481  0.3608 -0.2789
38733SOL    HW118578   6.699   7.473   1.472  0.1612  1.3072  0.2596
38733SOL    HW218579   6.626   7.565   1.377 -0.0997  1.5936  0.7320
38734SOL     OW18580   4.182   2.425   8.448  0.2348 -0.4509  0.8595
38734SOL    HW118581   4.204   2.340   8.487  1.6605 -0.3418  0.3690
38734SOL    HW218582   4.220   2.489   8.508  1.4888 -0.2542 -0.1014
38735SOL     OW18583   9.406   4.781   0.139  0.0679 -0.0253  0.2584
38735SOL    HW118584   9.489   4.828   0.137 -0.7644  1.5470  0.3740
38735SOL    HW218585   9.423   4.698   0.096  1.3093  0.9372 -1.1769
38736SOL     OW18586   0.810   0.428   4.809  0.3186 -0.0110  0.1570
38736SOL    HW118587   0.857   0.471   4.737  1.5550  0.3905  1.1574
38736SOL    HW218588   0.790   0.499   4.870  0.6227 -0.5491  0.9009
38737SOL     OW18589  10.638   1.809   7.280 -0.7968 -0.6210  0.8410
38737SOL    HW118590  10.616   1.895   7.243  1.2504 -0.5381 -0.3715
38737SOL    HW218591  10.631   1.749   7.207  0.9833 -0.8727  0.8185
38738SOL     OW18592   3.941   5.329   9.726 -0.0359  0.1076 -0.3329
38738SOL    HW118593   3.997   5.323   9.648  1.6214  1.7358  0.6544
38738SOL    HW218594   3.882   5.402   9.707 -1.4586 -1.1552 -1.0718
38739SOL     OW18595   9.208   8.502   3.800  0.3106  0.1547 -0.0898
38739SOL    HW118596   9.186   8.551   3.880  1.7846 -0.0565  0.4739
38739SOL    HW218597   9.134   8.518   3.741 -0.4358  0.9595  1.0265
38740SOL     OW18598   0.517   2.548   6.238 -0.4773 -0.0774 -0.0876
38740SOL    HW118599   0.601   2.565   6.194  0.0142  0.3878  1.0107
38740SOL    HW218600   0.451   2.579   6.176  0.1076 -1.0570 -1.2623
38741SOL     OW18601   3.654   4.681   8.121  0.2508 -0.0953  0.1290
38741SOL    HW118602   3.648   4.758   8.178 -0.8690  0.2880 -0.4951
38741SOL    HW218603   3.745   4.681   8.091 -0.3760  2.6317 -2.1227
38742SOL     OW18604   6.169   2.731   8.912  0.4271  0.0569  0.5224
38742SOL    HW118605   6.263   2.716   8.921  0.6613 -0.2604 -1.9808
38742SOL    HW218606   6.129   2.663   8.966  1.6354 -1.5395 -0.5111
38743SOL     OW18607   8.368   1.581   3.061 -0.5494 -0.3309  0.1702
38743SOL    HW118608   8.407   1.561   3.147  2.0185 -0.4138 -0.9071
38743SOL    HW218609   8.321   1.501   3.037 -1.0146 -0.4286  1.3502
38744SOL     OW18610   9.763  10.058   8.774 -0.2177  0.7242 -0.1815
38744SOL    HW118611   9.788  10.148   8.793  0.0479  0.6749 -0.2865
38744SOL    HW218612   9.811  10.036   8.693 -0.7107  0.6715 -0.4607
38745SOL     OW18613   0.410   4.185   8.548  0.0071  0.5184  0.6491
38745SOL    HW118614   0.380   4.099   8.521 -0.5247  1.2317 -1.1324
38745SOL    HW218615   0.370   4.198   8.634 -2.5396  0.2581 -0.4087
38746SOL     OW18616   7.077   3.819   3.563  0.0715  0.1266 -0.1630
38746SOL    HW118617   7.072   3.914   3.556 -1.2133  0.0991  0.2035
38746SOL    HW218618   6.997   3.793   3.608 -0.0591 -1.2076 -1.0756
38747SOL     OW18619   2.875   5.051   8.013  0.6357 -0.6667 -0.4860
38747SOL    HW118620   2.818   5.123   7.986 -0.4195 -0.6358  1.6013
38747SOL    HW218621   2.963   5.077   7.984  0.2177  1.3098 -0.0762
38748SOL     OW18622   0.857  10.427   0.483 -0.3222 -0.0698  0.1406
38748SOL    HW118623   0.881  10.378   0.562  0.9966  2.0160  1.1305
38748SOL    HW218624   0.859  10.363   0.413 -3.0629 -2.3982  1.9373
38749SOL     OW18625   6.398   3.567   9.685  0.0775  0.2576 -0.0014
38749SOL    HW118626   6.414   3.565   9.779  2.5436  0.6441 -0.3438
38749SOL    HW218627   6.430   3.653   9.656 -0.1506 -0.0566 -1.2776
38750SOL     OW18628   2.270   8.907   0.197 -0.1632 -0.3215 -0.6630
38750SOL    HW118629   2.209   8.834   0.207 -1.4421  0.4872 -2.0960
38750SOL    HW218630   2.318   8.888   0.116 -0.7278  0.5511 -1.2180
38751SOL     OW18631   2.255   2.904   2.227  0.0919 -0.1544  0.0872
38751SOL    HW118632   2.322   2.959   2.267 -0.3956  0.5588 -0.0552
38751SOL    HW218633   2.228   2.844   2.297  0.7450 -0.3248  0.1962
38752SOL     OW18634   6.643   1.858   9.081  0.0954  0.1701  0.0430
38752SOL    HW118635   6.712   1.792   9.080 -0.3130 -0.2627 -0.2342
38752SOL    HW218636   6.566   1.812   9.115  0.0569  0.7700  0.7860
38753SOL     OW18637   4.310   4.001   6.721 -0.3132  0.1634  0.1863
38753SOL    HW118638   4.389   3.948   6.732 -0.5514 -0.2815 -0.2406
38753SOL    HW218639   4.268   3.966   6.643 -1.2176  0.0420  0.7118
38754SOL     OW18640   1.869   2.746   1.663  0.3098  0.0070 -0.4670
38754SOL    HW118641   1.930   2.805   1.618  1.9430  0.5390  2.2101
38754SOL    HW218642   1.919   2.665   1.675 -0.2528 -0.2770 -0.0355
38755SOL     OW18643   4.552   7.235   9.690  0.3275  0.1530 -0.0751
38755SOL    HW118644   4.488   7.166   9.673 -0.5588  0.2685  2.4562
38755SOL    HW218645   4.626   7.189   9.731  0.4447  0.4900  0.0959
38756SOL     OW18646   5.285   3.482   3.176 -0.0767 -0.1537 -0.3194
38756SOL    HW118647   5.281   3.389   3.197  0.3429  0.2248  1.5743
38756SOL    HW218648   5.349   3.519   3.237 -1.0264  1.5634 -0.2708
38757SOL     OW18649   0.108   7.418   0.780  0.4136 -0.2402  0.5990
38757SOL    HW118650   0.121   7.324   0.766  3.5431  0.1857 -0.2324
38757SOL    HW218651   0.192   7.448   0.815 -0.2310  2.3870  0.1119
38758SOL     OW18652   4.144   8.258   5.751  0.3393  0.2186  0.4395
38758SOL    HW118653   4.133   8.341   5.704  3.3524  0.8744  0.6937
38758SOL    HW218654   4.059   8.215   5.744 -1.5007  3.4984  0.6611
38759SOL     OW18655   5.234   7.741   1.765  0.0211  0.6395 -0.6601
38759SOL    HW118656   5.139   7.735   1.764 -0.0188  1.1416 -0.2129
38759SOL    HW218657   5.263   7.670   1.707 -0.6644  1.3537 -1.9303
38760SOL     OW18658   5.497   8.684   8.725  0.0571 -0.2332 -0.0441
38760SOL    HW118659   5.511   8.591   8.709 -0.0574 -0.6152  1.8598
38760SOL    HW218660   5.428   8.709   8.665 -0.4971 -1.5898 -0.0013
38761SOL     OW18661   4.257   4.949   9.450 -0.6728  0.2296 -0.1523
38761SOL    HW118662   4.232   4.944   9.357 -2.6052  1.7467  0.2270
38761SOL    HW218663   4.178   4.923   9.497  0.5480 -1.3257  1.0927
38762SOL     OW18664   5.428   9.373   8.471 -0.5822 -0.2174  0.0929
38762SOL    HW118665   5.415   9.466   8.452 -2.7727 -0.4340  0.2179
38762SOL    HW218666   5.450   9.334   8.387 -2.0241  0.0909 -0.4583
38763SOL     OW18667   6.699   6.855   0.531  0.2214  0.1294 -0.5773
38763SOL    HW118668   6.746   6.841   0.613 -0.5130  0.0993 -0.1513
38763SOL    HW218669   6.635   6.784   0.527 -1.5579  1.5909  0.1564
38764SOL     OW18670   2.886   5.497   5.398  0.5876 -0.8602  0.6200
38764SOL    HW118671   2.813   5.547   5.435 -0.4333 -0.4701 -1.7768
38764SOL    HW218672   2.964   5.547   5.422 -0.2438  0.7690  0.0953
38765SOL     OW18673   3.940   2.884   6.803  0.9178 -0.5051  0.0134
38765SOL    HW118674   3.921   2.801   6.760 -1.3914  0.4135 -0.9156
38765SOL    HW218675   3.998   2.862   6.875  1.6608 -2.6779 -1.1822
38766SOL     OW18676   0.174   9.396   0.835  0.5055  0.2082  0.1085
38766SOL    HW118677   0.104   9.355   0.887 -1.4943  0.1041 -2.4571
38766SOL    HW218678   0.239   9.326   0.824 -0.6749 -0.8703 -0.3381
38767SOL     OW18679   6.026   7.645   7.607 -0.1867 -0.0072 -0.0214
38767SOL    HW118680   5.933   7.656   7.629 -0.3567 -0.8008 -0.3299
38767SOL    HW218681   6.039   7.551   7.605  0.2636  0.0740 -1.4768
38768SOL     OW18682   4.136   7.957   4.702 -0.4365  0.0574 -0.0520
38768SOL    HW118683   4.162   7.885   4.758 -0.7472 -0.1627 -0.1844
38768SOL    HW218684   4.208   8.019   4.707  0.8915 -1.2461 -1.6832
38769SOL     OW18685   1.009   5.275   5.416  0.1113 -0.1193  1.1191
38769SOL    HW118686   1.082   5.333   5.393  0.4031 -0.3580  1.4176
38769SOL    HW218687   1.051   5.201   5.461 -0.2718 -0.4743  0.9011
38770SOL     OW18688   3.620   9.067   3.533  0.0485  0.3237 -0.2645
38770SOL    HW118689   3.603   8.973   3.525 -0.2176  0.3967 -0.6273
38770SOL    HW218690   3.540   9.102   3.572 -0.7254  0.6842 -2.0791
38771SOL     OW18691   5.995  10.634  10.524  0.2312  0.5432  0.3112
38771SOL    HW118692   5.928  10.701  10.512  1.3202  1.8208  1.1312
38771SOL    HW218693   5.991  10.613  10.617  0.5031  0.1131  0.2275
38772SOL     OW18694   8.908   6.263   1.862  0.3921  0.0411  0.0467
38772SOL    HW118695   8.911   6.252   1.767 -0.0430  1.3255 -0.1340
38772SOL    HW218696   8.826   6.310   1.879  1.3265  1.4736  0.8535
38773SOL     OW18697   1.901   6.048   9.480 -0.0213 -0.1040 -0.0345
38773SOL    HW118698   1.827   6.010   9.432  0.1150  0.4387 -0.6885
38773SOL    HW218699   1.972   6.050   9.416 -0.0449  1.3179 -0.0346
38774SOL     OW18700   9.212  10.229   8.200  0.0355 -0.0278  0.4830
38774SOL    HW118701   9.256  10.148   8.227 -0.0131 -0.1832  0.0981
38774SOL    HW218702   9.281  10.284   8.164 -0.2014 -0.6066 -0.9102
38775SOL     OW18703  10.560   8.615   2.514 -0.4843  0.2111  0.5381
38775SOL    HW118704  10.639   8.658   2.548 -0.2712  1.5703 -1.5267
38775SOL    HW218705  10.492   8.637   2.577  0.5222 -0.0646  1.7697
38776SOL     OW18706   5.290  10.391   0.717  0.2179 -0.1041  0.3361
38776SOL    HW118707   5.197  10.402   0.733  0.4755  0.5069  1.5801
38776SOL    HW218708   5.332  10.444   0.785  1.4683  0.6422 -0.9505
38777SOL     OW18709   6.680   8.836   7.629 -0.1696 -0.6187 -0.2098
38777SOL    HW118710   6.643   8.774   7.691 -0.9977  0.8356  0.7924
38777SOL    HW218711   6.743   8.887   7.680  0.1603 -0.2995 -0.9098
38778SOL     OW18712   4.255   0.821   2.456  0.2718  0.5672 -0.2484
38778SOL    HW118713   4.314   0.896   2.448  0.6034  0.2672 -0.6712
38778SOL    HW218714   4.205   0.837   2.536 -0.0279  1.4980 -0.6148
38779SOL     OW18715   3.326   3.584   4.365 -0.3541  0.2095  0.1200
38779SOL    HW118716   3.302   3.523   4.434 -1.9092  1.0985  0.4152
38779SOL    HW218717   3.411   3.619   4.392 -0.5760 -0.0353  1.1921
38780SOL     OW18718   6.752   4.494   8.493  0.0563 -0.1936 -0.1328
38780SOL    HW118719   6.714   4.471   8.578 -0.7397  0.7731 -0.2150
38780SOL    HW218720   6.774   4.587   8.501  2.6728 -0.7304  0.0019
38781SOL     OW18721   0.904   8.834   3.575 -0.5028  0.7739 -0.3356
38781SOL    HW118722   0.963   8.901   3.608 -0.0011  0.9172 -1.4852
38781SOL    HW218723   0.866   8.795   3.654  2.4772 -0.5955  0.5650
38782SOL     OW18724   2.089   5.290   2.231 -0.0593 -0.2938 -0.1417
38782SOL    HW118725   2.084   5.210   2.180 -2.2408 -0.1250 -0.2708
38782SOL    HW218726   2.050   5.357   2.175  0.8754  0.6862  0.3318
38783SOL     OW18727   1.322   4.250   7.835  0.1298  0.2201 -0.0423
38783SOL    HW118728   1.405   4.235   7.791 -0.8150 -2.1117 -1.1923
38783SOL    HW218729   1.343   4.243   7.928  1.2762  0.0896 -0.2912
38784SOL     OW18730   7.962   3.864   1.792 -0.1056 -0.1378 -0.5743
38784SOL    HW118731   7.889   3.925   1.777  0.7122  0.7264 -1.1286
38784SOL    HW218732   7.920   3.778   1.794 -0.9654  0.1861 -2.4912
38785SOL     OW18733   5.832   0.375   1.785 -0.3034  0.3771 -0.4063
38785SOL    HW118734   5.851   0.306   1.848 -0.5159  0.3259 -0.3970
38785SOL    HW218735   5.736   0.378   1.780 -0.3242  1.2832  0.2750
38786SOL     OW18736   1.875   4.309   9.446  0.0944 -0.0752  0.0540
38786SOL    HW118737   1.912   4.397   9.435  0.3539 -0.0241  1.2339
38786SOL    HW218738   1.789   4.315   9.405  0.2924  0.5919 -0.2956
38787SOL     OW18739   3.557   6.733  10.165  0.0060 -0.2898 -0.0154
38787SOL    HW118740   3.508   6.651  10.164  0.6093 -0.6588 -0.2681
38787SOL    HW218741   3.628   6.717  10.227  0.2050 -0.0136 -0.1693
38788SOL     OW18742   7.710   5.020   9.839  0.4810  0.5591  0.0317
38788SOL    HW118743   7.727   5.031   9.745 -2.2782 -1.2014 -0.8014
38788SOL    HW218744   7.743   4.932   9.859 -1.3676 -0.1932 -0.0298
38789SOL     OW18745   8.739   0.484   5.212  0.2472  0.0345 -0.2136
38789SOL    HW118746   8.791   0.528   5.145 -0.1709  0.4720 -0.2554
38789SOL    HW218747   8.675   0.432   5.164  0.3750 -0.1774 -0.1577
38790SOL     OW18748   9.131   8.477   1.603 -0.2787  0.1650  0.4413
38790SOL    HW118749   9.200   8.449   1.663 -0.9800  1.2715  1.8054
38790SOL    HW218750   9.166   8.554   1.559 -1.1506  1.6627  2.2520
38791SOL     OW18751   4.566   3.110   5.617 -0.2192 -0.1811 -0.7497
38791SOL    HW118752   4.624   3.186   5.617 -1.5984  0.9440  1.1150
38791SOL    HW218753   4.613   3.044   5.668  0.8247 -0.5051 -2.0667
38792SOL     OW18754   1.256   2.905   2.749 -0.4316  0.0207  0.3421
38792SOL    HW118755   1.294   2.954   2.822  1.4347 -1.0848  0.1634
38792SOL    HW218756   1.216   2.828   2.790 -0.8340  0.2234  0.3387
38793SOL     OW18757  10.610   0.796   6.444  0.0776  0.0198  0.3044
38793SOL    HW118758  10.555   0.872   6.464  0.8427  0.3029  1.4054
38793SOL    HW218759  10.665   0.785   6.521  1.8825 -0.0062 -0.9228
38794SOL     OW18760   3.204   9.592   6.478  0.0862 -0.5766  0.0223
38794SOL    HW118761   3.232   9.678   6.448 -2.0140  0.0199 -0.4193
38794SOL    HW218762   3.140   9.610   6.547 -1.0812 -1.7121 -0.7045
38795SOL     OW18763   5.074   3.219   2.539 -0.2781 -0.2773  0.3957
38795SOL    HW118764   5.130   3.207   2.616  1.3083 -1.7233 -0.8919
38795SOL    HW218765   5.029   3.302   2.555 -0.1917 -0.6235  2.9609
38796SOL     OW18766   0.921   9.573   7.934  0.1040 -0.3151  0.7380
38796SOL    HW118767   0.996   9.538   7.983  1.5055 -0.5876 -1.4365
38796SOL    HW218768   0.951   9.659   7.903 -0.5623 -0.3133  0.0652
38797SOL     OW18769   5.061   9.810  10.359 -0.3291  0.5562 -0.5046
38797SOL    HW118770   5.021   9.744  10.416 -0.5366  1.5888  0.5882
38797SOL    HW218771   5.137   9.841  10.408  0.4653  0.2856 -1.5373
38798SOL     OW18772   3.003   7.234   4.579  0.1684 -1.0238  0.1912
38798SOL    HW118773   2.983   7.277   4.662 -1.1594  0.5065 -0.8611
38798SOL    HW218774   3.090   7.267   4.555  1.0327 -2.2950  1.4373
38799SOL     OW18775   1.625   0.628   4.731 -0.2056 -0.1006  0.5372
38799SOL    HW118776   1.704   0.681   4.744  0.4111 -0.7085 -0.6259
38799SOL    HW218777   1.642   0.546   4.776 -0.6186  0.1615  1.1897
38800SOL     OW18778   2.092   5.182   9.649  0.3481 -0.2542 -0.2019
38800SOL    HW118779   2.157   5.213   9.587  0.1130  0.7110  0.0227
38800SOL    HW218780   2.108   5.231   9.729 -1.0426  0.4789 -0.3344
38801SOL     OW18781   0.627   3.997   4.414  0.2549 -0.4164 -0.0960
38801SOL    HW118782   0.597   4.066   4.474 -1.4950 -1.3099  0.1111
38801SOL    HW218783   0.722   3.995   4.427  0.1123  0.5539  1.4201
38802SOL     OW18784   8.945   5.437   8.332 -0.1444 -0.4799 -0.0182
38802SOL    HW118785   9.039   5.453   8.322 -0.2144 -0.3727 -0.5239
38802SOL    HW218786   8.915   5.508   8.389  0.3020 -1.2254  1.1966
38803SOL     OW18787   9.969   2.901   4.003 -0.0997  1.0324  0.1286
38803SOL    HW118788   9.978   2.927   4.095 -3.5981 -1.2602  1.3102
38803SOL    HW218789  10.013   2.816   3.998 -0.1108  1.0473 -0.2587
38804SOL     OW18790   2.088   2.598   1.939  0.0756 -0.1988 -0.4320
38804SOL    HW118791   2.047   2.550   1.867 -0.3556 -0.1261 -0.2373
38804SOL    HW218792   2.121   2.530   1.998 -0.3355 -0.2540 -0.2681
38805SOL     OW18793   3.437   0.729   7.524  0.7295 -0.5475  0.2241
38805SOL    HW118794   3.376   0.803   7.517 -0.4325 -1.1705  2.5933
38805SOL    HW218795   3.520   0.763   7.492  0.1972  1.7494  1.0829
38806SOL     OW18796   4.379   8.546   0.668  0.1397 -0.0281 -0.4229
38806SOL    HW118797   4.456   8.584   0.712  0.4451  1.5656 -2.2088
38806SOL    HW218798   4.413   8.468   0.625  1.3493  1.7363 -2.8950
38807SOL     OW18799   5.195   2.539   9.602 -0.3529  0.9917 -0.4986
38807SOL    HW118800   5.191   2.507   9.693  0.3327 -0.0846 -0.8268
38807SOL    HW218801   5.247   2.619   9.607 -0.8158  1.2606  0.1392
38808SOL     OW18802   3.714   5.883   2.805  0.1386 -0.4909  0.2520
38808SOL    HW118803   3.765   5.962   2.825  0.9646 -1.0905  0.5599
38808SOL    HW218804   3.772   5.811   2.829 -1.1092 -1.1970  1.2060
38809SOL     OW18805   0.576   1.118   6.358  0.2895  0.0123  0.3325
38809SOL    HW118806   0.535   1.032   6.344  0.3826  0.0058  0.1015
38809SOL    HW218807   0.652   1.099   6.413  0.1100 -0.0038  0.5812
38810SOL     OW18808   2.991  10.018   1.434 -0.7080 -0.1902  0.6459
38810SOL    HW118809   2.943  10.020   1.517 -1.6503 -2.7156  0.2568
38810SOL    HW218810   3.079   9.988   1.458 -1.2073 -1.7179  0.7222
38811SOL     OW18811  10.464   3.626   2.634  0.0881 -0.2397 -0.4195
38811SOL    HW118812  10.537   3.687   2.648  1.3050 -1.8303  0.5266
38811SOL    HW218813  10.422   3.620   2.720 -0.8985  0.3202 -0.8533
38812SOL     OW18814   9.961   9.169   0.989  0.0538  0.1027  0.1833
38812SOL    HW118815   9.980   9.250   1.036  1.2749 -0.3614  0.5277
38812SOL    HW218816  10.004   9.180   0.904  0.9241 -0.4884  0.5306
38813SOL     OW18817   3.391   9.216   0.353  0.2993 -0.3706  0.2965
38813SOL    HW118818   3.435   9.176   0.278  0.1911  2.5058 -1.4263
38813SOL    HW218819   3.298   9.202   0.336  0.3099 -1.8138  1.2176
38814SOL     OW18820   7.002   4.447   2.848 -0.1182 -0.0154 -0.0352
38814SOL    HW118821   6.914   4.480   2.831 -0.3055 -0.1646  0.6318
38814SOL    HW218822   7.055   4.526   2.860 -0.2864  0.0657  0.1835
38815SOL     OW18823   5.337   4.879   4.707  0.1428  0.0883 -0.1572
38815SOL    HW118824   5.320   4.877   4.613  1.9408 -2.5519 -0.5532
38815SOL    HW218825   5.432   4.873   4.715  0.0285  0.0394  1.8147
38816SOL     OW18826   5.238   7.178   1.881  0.5962 -0.4423 -0.5269
38816SOL    HW118827   5.181   7.108   1.911  1.2968 -0.5026  0.7408
38816SOL    HW218828   5.302   7.189   1.952 -0.3560  2.4728  0.0257
38817SOL     OW18829   8.986   1.298   9.117  0.6441 -0.5361  0.7764
38817SOL    HW118830   9.048   1.287   9.045  0.8955 -2.1434  1.2159
38817SOL    HW218831   9.040   1.295   9.196  0.0709 -1.5541  1.1456
38818SOL     OW18832   5.361   1.896   0.245  0.1657  0.3249 -0.2031
38818SOL    HW118833   5.428   1.963   0.255  0.1932  0.2981 -0.2114
38818SOL    HW218834   5.302   1.930   0.178  0.4545  0.1158 -0.5647
38819SOL     OW18835   4.895   5.600   3.559 -0.6624 -0.1071  0.1854
38819SOL    HW118836   4.981   5.567   3.583 -1.7305 -1.8343  1.9554
38819SOL    HW218837   4.855   5.529   3.508 -0.9932  0.7465 -0.7797
38820SOL     OW18838   1.589   0.102   1.288 -0.2816  0.5742  0.2587
38820SOL    HW118839   1.615   0.192   1.304 -0.5522  0.9249 -1.2053
38820SOL    HW218840   1.541   0.104   1.205  0.0345 -0.9675  0.0013
38821SOL     OW18841   1.373   0.188   9.521  0.4694 -0.4280  0.5911
38821SOL    HW118842   1.335   0.242   9.452  2.5255  1.2147  0.6399
38821SOL    HW218843   1.310   0.193   9.593  0.1819  1.2238  0.2558
38822SOL     OW18844   5.958   4.999   6.311  0.3717  0.6880  0.2823
38822SOL    HW118845   5.895   5.009   6.239  1.1946  0.4213 -0.4981
38822SOL    HW218846   5.955   4.906   6.333  0.4001  0.6981  0.3302
38823SOL     OW18847   6.114   7.136   7.886 -1.0913 -0.3589  0.6729
38823SOL    HW118848   6.180   7.203   7.901  0.2750 -1.6456  0.6407
38823SOL    HW218849   6.064   7.132   7.967 -2.7936  2.2943 -0.0957
38824SOL     OW18850  10.537   2.271   2.515  0.2965 -0.3052  0.6403
38824SOL    HW118851  10.532   2.304   2.425  0.4956 -1.4392  0.2019
38824SOL    HW218852  10.490   2.336   2.567 -1.9006 -0.8131 -0.6038
38825SOL     OW18853  10.194   3.582   3.225 -0.2236  0.0807  0.4741
38825SOL    HW118854  10.224   3.673   3.218  0.1637  0.0069  1.1076
38825SOL    HW218855  10.273   3.532   3.244 -0.1981 -0.5892 -1.2235
38826SOL     OW18856   6.345   4.126   9.058  0.6222  0.7300  0.4333
38826SOL    HW118857   6.382   4.048   9.016 -1.5534 -1.0595  1.5635
38826SOL    HW218858   6.403   4.197   9.032  1.1859 -0.7462 -2.9597
38827SOL     OW18859   8.121   5.561   8.635 -0.3071 -0.4719 -0.2053
38827SOL    HW118860   8.171   5.627   8.684  1.4991 -1.0574 -1.1767
38827SOL    HW218861   8.103   5.602   8.551  0.1107 -0.9075 -0.5116
38828SOL     OW18862   3.332   3.684   0.198 -0.3332 -0.5852  0.2378
38828SOL    HW118863   3.306   3.673   0.289 -1.1817  0.4081  0.1423
38828SOL    HW218864   3.329   3.779   0.184  1.3828 -0.5878 -0.3782
38829SOL     OW18865  10.205   4.192   5.837 -0.0149  0.4375  0.1569
38829SOL    HW118866  10.243   4.162   5.754 -0.5355  0.3423 -0.0484
38829SOL    HW218867  10.261   4.153   5.904 -0.7521 -1.1506 -0.0981
38830SOL     OW18868   9.543   9.384  10.640 -0.3615  0.6328 -0.2106
38830SOL    HW118869   9.483   9.448  10.677 -0.8735 -0.1370  0.3381
38830SOL    HW218870   9.611   9.436  10.597 -1.2738  1.5209 -0.6133
38831SOL     OW18871   7.919   2.743   2.622 -0.5368 -0.4156 -0.1869
38831SOL    HW118872   7.938   2.752   2.529  1.0031 -1.0669  0.0389
38831SOL    HW218873   7.857   2.669   2.626 -1.1947  0.0923 -0.7339
38832SOL     OW18874   2.571   9.101   0.757  0.1671 -0.1399 -0.2719
38832SOL    HW118875   2.544   9.190   0.777 -1.5888 -0.3492 -1.4228
38832SOL    HW218876   2.659   9.109   0.721  0.2509  1.0520  0.1687
38833SOL     OW18877   7.221   7.964  10.195 -0.5306  0.5470  0.4700
38833SOL    HW118878   7.297   7.933  10.146 -0.6832  0.4164  0.3163
38833SOL    HW218879   7.254   7.977  10.284 -0.9015 -1.9720  1.0704
38834SOL     OW18880   9.860   8.986   2.474  0.3156 -0.6880  0.5203
38834SOL    HW118881   9.932   9.022   2.526  1.4438 -1.3649 -0.5025
38834SOL    HW218882   9.788   8.975   2.536  0.1812  2.4008  1.0761
38835SOL     OW18883   9.231  10.555   8.445 -0.1517  0.7173  0.3237
38835SOL    HW118884   9.217  10.462   8.465 -2.6878  0.8189 -0.6698
38835SOL    HW218885   9.167  10.601   8.498  2.1701  2.1348  2.0806
38836SOL     OW18886   3.260   4.328   8.098 -0.1281 -0.0723  0.5040
38836SOL    HW118887   3.265   4.420   8.072  0.0516  0.7780  3.2294
38836SOL    HW218888   3.316   4.283   8.034 -1.2133  1.4487 -1.6694
38837SOL     OW18889   4.971   7.720   6.118 -0.4723 -0.5335  0.2146
38837SOL    HW118890   5.014   7.659   6.178  0.0149  1.0310  1.5377
38837SOL    HW218891   5.040   7.748   6.058  0.5524  1.9092  2.2828
38838SOL     OW18892   1.494   7.419   7.881 -0.0709  0.0175 -0.5802
38838SOL    HW118893   1.504   7.503   7.837  0.1410 -0.2906 -1.1377
38838SOL    HW218894   1.578   7.375   7.869 -0.2505 -0.3618 -0.4896
38839SOL     OW18895   3.409   9.739   6.655  0.0063 -0.1926 -0.0298
38839SOL    HW118896   3.357   9.790   6.593 -0.0993 -1.0121 -0.6279
38839SOL    HW218897   3.407   9.650   6.621  1.7281 -0.2742 -0.0282
38840SOL     OW18898   9.444  10.069   6.202  0.1036  0.1009 -0.4494
38840SOL    HW118899   9.401  10.018   6.134 -1.0129  0.1217  0.2133
38840SOL    HW218900   9.529  10.092   6.165 -0.1637 -0.5583 -1.5162
38841SOL     OW18901   9.906   5.495   4.664  0.3324  0.0565  0.7767
38841SOL    HW118902   9.883   5.496   4.757  1.5470  1.6137  1.0997
38841SOL    HW218903   9.975   5.428   4.656 -0.4619 -0.7839  0.7854
38842SOL     OW18904   2.338   2.051   1.244 -0.5005  0.0485  0.9341
38842SOL    HW118905   2.262   2.108   1.234 -0.6076 -0.1810  0.4138
38842SOL    HW218906   2.321   1.978   1.185  0.3002  0.1908  0.5102
38843SOL     OW18907   8.321   0.268  10.550 -0.2154 -0.0187  0.4102
38843SOL    HW118908   8.385   0.230  10.610  0.0812 -0.2842 -0.0654
38843SOL    HW218909   8.292   0.348  10.594 -0.1016 -0.2748  0.9628
38844SOL     OW18910   3.660   4.540   1.214 -0.3436  0.4589 -0.3607
38844SOL    HW118911   3.721   4.473   1.184  0.6488  0.7199  1.0013
38844SOL    HW218912   3.712   4.596   1.272 -1.5352  1.5068 -0.2545
38845SOL     OW18913   2.543   3.373   8.068  0.5184 -0.5024 -0.0667
38845SOL    HW118914   2.552   3.312   8.141 -1.0004 -0.0487  0.5495
38845SOL    HW218915   2.551   3.318   7.990  1.4867 -1.1011  0.4384
38846SOL     OW18916  10.053   1.825   3.755  0.2730 -0.2492 -0.1976
38846SOL    HW118917  10.139   1.842   3.795  0.3676 -2.1182  0.4876
38846SOL    HW218918  10.074   1.787   3.669  0.3072 -3.3218  1.0250
38847SOL     OW18919   2.598   5.534   0.992 -0.5375  0.4910  0.4572
38847SOL    HW118920   2.690   5.514   0.973 -0.6381  0.9959 -0.6490
38847SOL    HW218921   2.574   5.474   1.062  0.8370  0.8481  1.2527
38848SOL     OW18922   1.613   4.933   3.425  0.0941 -0.1593  0.1135
38848SOL    HW118923   1.531   4.974   3.398  0.4665 -0.4023 -1.5017
38848SOL    HW218924   1.678   5.004   3.420  0.2081 -0.2548  0.2225
38849SOL     OW18925   8.992   8.349   4.602  0.5312 -0.2645 -0.2407
38849SOL    HW118926   8.973   8.367   4.510 -0.8578  0.3122  0.1217
38849SOL    HW218927   8.916   8.300   4.633 -0.5053  2.0755  1.2900
38850SOL     OW18928   5.328  10.158   7.853 -0.4986  0.3978  0.4265
38850SOL    HW118929   5.293  10.169   7.941  1.7521 -2.5422  1.8513
38850SOL    HW218930   5.285  10.080   7.818  1.8376 -1.1920  0.8496
38851SOL     OW18931   3.073   2.790   6.166  0.2011 -0.0300 -0.2363
38851SOL    HW118932   3.018   2.846   6.111 -0.7956 -1.3480 -0.6317
38851SOL    HW218933   3.154   2.780   6.116  0.4373  1.1089 -0.1156
38852SOL     OW18934   5.401   2.354   3.667 -0.0804  0.1901 -0.0995
38852SOL    HW118935   5.357   2.364   3.752  1.5205  0.3603  0.7436
38852SOL    HW218936   5.364   2.424   3.613 -0.8817  0.2882  0.5502
38853SOL     OW18937   9.648   7.271   7.613 -0.1002 -0.2786  0.6665
38853SOL    HW118938   9.636   7.366   7.613  2.0052  0.0309  0.2867
38853SOL    HW218939   9.641   7.246   7.521  2.4851  0.0245  0.3178
38854SOL     OW18940  10.176   3.415   6.314  0.3195  0.3799  0.1789
38854SOL    HW118941  10.171   3.384   6.224 -1.2126 -0.3417  0.4946
38854SOL    HW218942  10.169   3.511   6.307  3.1317  0.6288 -0.6383
38855SOL     OW18943   8.125   2.656   1.214  0.6086 -0.6773 -0.1064
38855SOL    HW118944   8.113   2.674   1.120  1.1125 -2.7191 -0.6117
38855SOL    HW218945   8.051   2.599   1.237 -0.3768  1.0162  1.1629
38856SOL     OW18946   9.571   0.120   9.980 -0.0967  0.0697  0.1569
38856SOL    HW118947   9.485   0.158   9.997 -0.4171 -0.2862 -0.6263
38856SOL    HW218948   9.554   0.026   9.971  0.2316  0.1033 -0.9016
38857SOL     OW18949   6.137   6.839   7.393  0.4514 -0.3884 -0.3868
38857SOL    HW118950   6.149   6.821   7.300  0.2720  0.1930 -0.5230
38857SOL    HW218951   6.145   6.934   7.401  0.8264 -0.4621  0.2436
38858SOL     OW18952   0.987   4.723   5.355  0.4087 -0.4048  0.7804
38858SOL    HW118953   1.070   4.769   5.358  1.2806 -1.9121  0.8204
38858SOL    HW218954   0.965   4.719   5.262 -0.0733  0.7441  0.8336
38859SOL     OW18955   5.617   4.000   4.937 -0.1493 -0.4383 -0.1515
38859SOL    HW118956   5.560   3.924   4.940  0.2870 -0.7771 -0.3643
38859SOL    HW218957   5.572   4.066   4.990  0.3460 -1.4171  1.5593
38860SOL     OW18958   2.976   9.085   5.063 -0.1605 -0.0932  0.3828
38860SOL    HW118959   2.963   9.091   4.968  0.7292  0.9729  0.3061
38860SOL    HW218960   2.921   9.155   5.098 -0.3812 -0.3985  0.6486
38861SOL     OW18961   2.092  10.488   6.825  0.0196 -0.4247  0.4018
38861SOL    HW118962   2.173  10.527   6.792 -0.0771  0.4510  1.1376
38861SOL    HW218963   2.055  10.442   6.750  1.7061 -1.7297  0.3150
38862SOL     OW18964   0.368   3.706   1.209 -0.2421  0.3479 -0.4985
38862SOL    HW118965   0.306   3.635   1.193 -0.1912  0.2685 -0.3457
38862SOL    HW218966   0.333   3.752   1.285  0.6592 -0.5908  0.5236
38863SOL     OW18967   1.297   6.968   4.143 -0.1885 -0.6294 -0.2013
38863SOL    HW118968   1.251   6.923   4.072 -0.3778  0.7487 -0.9973
38863SOL    HW218969   1.227   7.003   4.198 -0.1066  0.6622 -0.8892
38864SOL     OW18970   3.812  10.372   2.911 -0.0208 -0.1178  0.7915
38864SOL    HW118971   3.786  10.436   2.977  1.7663  0.5747  0.8716
38864SOL    HW218972   3.883  10.323   2.951  0.0280 -0.7494 -0.0399
38865SOL     OW18973   6.251   2.049   4.252 -0.0464 -0.2122  0.2249
38865SOL    HW118974   6.340   2.021   4.272  0.9639  1.9773 -0.9440
38865SOL    HW218975   6.237   2.021   4.162 -0.1796  0.2695  0.0933
38866SOL     OW18976   9.720   5.725   7.697  0.0037 -0.4131  0.0622
38866SOL    HW118977   9.697   5.632   7.693 -1.6062 -0.1622  1.9433
38866SOL    HW218978   9.652   5.764   7.751  0.8893  1.8094 -0.3292
38867SOL     OW18979  10.793   1.422   6.126  0.2990  0.2004  0.1281
38867SOL    HW118980  10.774   1.514   6.109  0.2175  0.0499 -0.6446
38867SOL    HW218981  10.883   1.422   6.159  0.1534  0.5909  0.5349
38868SOL     OW18982   7.490   4.168  10.341  0.0954  0.2823 -0.4349
38868SOL    HW118983   7.584   4.183  10.335  0.1021  0.5927  0.2791
38868SOL    HW218984   7.451   4.231  10.281  0.2271  1.8843  1.0724
38869SOL     OW18985   0.760  10.196   2.893 -0.4444 -0.0565 -0.0702
38869SOL    HW118986   0.784  10.238   2.810 -2.3256  0.5853 -0.3287
38869SOL    HW218987   0.767  10.265   2.958  2.7558 -0.9617  0.7187
38870SOL     OW18988   8.533   2.510   2.988  0.2440  0.0086  0.1480
38870SOL    HW118989   8.621   2.494   2.954 -0.1433 -0.3165 -0.7324
38870SOL    HW218990   8.529   2.459   3.069  0.4611 -0.9416 -0.4315
38871SOL     OW18991   8.847   2.887   3.356  0.0408 -0.2355 -0.3044
38871SOL    HW118992   8.919   2.857   3.299  0.7557  1.6386 -0.4542
38871SOL    HW218993   8.890   2.914   3.437 -0.8877 -2.0882  0.8542
38872SOL     OW18994   1.337   7.175   7.598 -0.1592 -0.1118 -0.6357
38872SOL    HW118995   1.419   7.125   7.593 -0.7947 -1.1197 -1.1001
38872SOL    HW218996   1.323   7.189   7.692  0.5274  0.0580 -0.5514
38873SOL     OW18997   8.109   7.095   3.534 -0.0503  0.2826  0.2300
38873SOL    HW118998   8.175   7.164   3.522  0.3156  0.2777  2.0187
38873SOL    HW218999   8.136   7.049   3.613 -0.9775 -1.1554 -0.2547
38874SOL     OW19000   5.585   9.424   6.441 -0.1450 -0.0101 -0.1075
38874SOL    HW119001   5.527   9.363   6.487 -1.9791  1.7029 -0.0271
38874SOL    HW219002   5.556   9.511   6.470  2.6731  0.9464  0.1574
38875SOL     OW19003   0.691   3.455   7.763  0.5388  0.6896  0.2591
38875SOL    HW119004   0.719   3.403   7.838  0.6998 -0.0065 -0.2840
38875SOL    HW219005   0.751   3.432   7.692 -0.2737  0.5301 -0.4001
38876SOL     OW19006   9.271   6.666   9.172  0.1469  0.5708 -0.1101
38876SOL    HW119007   9.296   6.626   9.256 -0.0763  1.0540  0.1892
38876SOL    HW219008   9.230   6.749   9.196  0.3503  0.8517 -0.7182
38877SOL     OW19009   7.599   8.769   7.831  0.1353  0.3217  0.1365
38877SOL    HW119010   7.679   8.759   7.882  0.0369  0.0874  0.2448
38877SOL    HW219011   7.539   8.704   7.867  0.1759 -0.0641 -0.4892
38878SOL     OW19012   8.583   7.436   1.640 -0.4976 -0.1587  0.0062
38878SOL    HW119013   8.627   7.493   1.576 -0.9167  0.1981  0.0338
38878SOL    HW219014   8.539   7.370   1.587  3.3712 -3.1041  0.0038
38879SOL     OW19015   8.905   6.794   2.129 -0.5997 -0.1390  0.2608
38879SOL    HW119016   8.943   6.872   2.088 -1.2298 -0.0219 -0.1181
38879SOL    HW219017   8.865   6.746   2.057 -0.2927 -0.7697  0.5072
38880SOL     OW19018   4.894   4.928   4.920 -0.6868  0.1799 -0.4747
38880SOL    HW119019   4.966   4.973   4.875 -0.2037  0.3422  0.4428
38880SOL    HW219020   4.820   4.937   4.860 -0.1490  0.6972 -1.0808
38881SOL     OW19021   7.806   8.728   9.926  0.0091 -0.7882 -0.7072
38881SOL    HW119022   7.812   8.721   9.831 -0.9436 -0.5109 -0.8027
38881SOL    HW219023   7.713   8.711   9.946 -0.3824  1.6279 -0.0915
38882SOL     OW19024   2.718   8.155   7.713 -0.0274  0.5531 -0.1395
38882SOL    HW119025   2.809   8.174   7.735  0.3753 -0.1821 -1.0941
38882SOL    HW219026   2.699   8.214   7.639 -1.4491  3.2072  2.1390
38883SOL     OW19027   1.645   4.014   0.829  0.4771 -0.0653 -0.3009
38883SOL    HW119028   1.619   3.926   0.856 -0.8294 -0.0019 -1.2528
38883SOL    HW219029   1.566   4.051   0.790  0.5770  2.0704  1.3383
38884SOL     OW19030   6.372   1.833   3.681 -0.1111 -0.4724  0.2142
38884SOL    HW119031   6.343   1.761   3.738  1.2766 -1.2209  0.0132
38884SOL    HW219032   6.306   1.838   3.613  0.7926 -3.0017 -0.9682
38885SOL     OW19033   3.392   7.501   5.107 -0.2897  0.2745  0.2433
38885SOL    HW119034   3.348   7.580   5.138  0.1456 -0.0468  1.7311
38885SOL    HW219035   3.474   7.533   5.069 -0.3233  0.5810  0.4257
38886SOL     OW19036   3.819  10.356  10.652 -0.2194  0.5830  0.1061
38886SOL    HW119037   3.746  10.373  10.713  0.1918 -2.2300  1.5423
38886SOL    HW219038   3.883  10.308  10.704  2.0026  1.5468 -1.5638
38887SOL     OW19039  10.515   6.062   2.764  0.1044  0.1762  0.3998
38887SOL    HW119040  10.419   6.064   2.758  0.0584 -1.5555 -0.0822
38887SOL    HW219041  10.533   6.040   2.855  0.1026  1.9154  0.8408
38888SOL     OW19042   9.065   0.070   9.203 -0.2673  0.2091 -0.5949
38888SOL    HW119043   9.056   0.045   9.111 -0.7217  2.2908 -1.1461
38888SOL    HW219044   8.979   0.053   9.241  0.2330 -1.7658 -0.2036
38889SOL     OW19045   9.533   5.003   9.053 -0.3106  0.0259  0.8507
38889SOL    HW119046   9.565   5.084   9.015  0.7506 -1.4942 -1.7604
38889SOL    HW219047   9.569   4.934   8.996 -2.1632 -2.2068  2.2201
38890SOL     OW19048   2.533   9.223   9.373  0.4468  0.0312 -0.8904
38890SOL    HW119049   2.600   9.265   9.427  1.8400 -2.8096 -0.2483
38890SOL    HW219050   2.577   9.205   9.290 -0.1875 -0.0367 -1.2194
38891SOL     OW19051   0.753  10.646   3.181  0.5487 -0.0633 -0.5505
38891SOL    HW119052   0.766  10.676   3.271  2.8650  1.6064 -1.3480
38891SOL    HW219053   0.688  10.707   3.145 -1.1746 -1.3570  0.1829
38892SOL     OW19054   2.081   5.345   3.354 -0.1543 -0.6186  0.1522
38892SOL    HW119055   2.169   5.378   3.373 -0.2943 -0.8564  1.2645
38892SOL    HW219056   2.068   5.364   3.261  0.1103  1.6617  0.5364
38893SOL     OW19057   1.872   4.249  10.211 -0.5755  0.6766 -0.1271
38893SOL    HW119058   1.904   4.159  10.216  0.4325  0.9650 -1.0437
38893SOL    HW219059   1.854   4.273  10.302  0.5261  0.0305  0.2784
38894SOL     OW19060   5.945  10.756   7.318 -0.0662 -0.4389 -0.7702
38894SOL    HW119061   6.040  10.757   7.332 -0.0725  2.6635 -0.3200
38894SOL    HW219062   5.934  10.741   7.225  1.0087  1.2382 -1.2038
38895SOL     OW19063   5.305  10.091   5.161  0.4987 -0.4160 -0.1528
38895SOL    HW119064   5.337  10.002   5.147  0.3091 -0.3884 -0.8131
38895SOL    HW219065   5.210  10.083   5.159  0.4490  0.0445 -2.0647
38896SOL     OW19066   3.804   1.085   5.112 -1.1041  0.4078 -0.1421
38896SOL    HW119067   3.715   1.104   5.083 -1.0893  1.9961  0.7414
38896SOL    HW219068   3.821   1.149   5.180  0.7785  0.2235 -0.3872
38897SOL     OW19069   4.980   2.080   8.801  0.2369  0.7240 -0.2093
38897SOL    HW119070   5.076   2.081   8.801  0.3599 -0.5588 -3.0787
38897SOL    HW219071   4.956   2.146   8.736 -0.6761 -0.5819 -1.2485
38898SOL     OW19072   5.433   9.280   6.591  0.4532  0.5172  0.7400
38898SOL    HW119073   5.448   9.295   6.685 -1.6014  0.4486  1.1255
38898SOL    HW219074   5.339   9.265   6.584  0.8577 -1.6210 -1.0628
38899SOL     OW19075  10.689  10.393   9.113  0.1611  0.0934 -0.2460
38899SOL    HW119076  10.605  10.414   9.072  0.7849 -1.7785 -2.7616
38899SOL    HW219077  10.667  10.363   9.200 -1.8776 -0.8341 -1.0329
38900SOL     OW19078   0.168   2.806   6.474  0.1802 -0.2539 -0.4056
38900SOL    HW119079   0.096   2.845   6.425  1.6843  2.9371 -0.3562
38900SOL    HW219080   0.125   2.749   6.538 -2.6245  3.3657  1.3130
38901SOL     OW19081   3.129   6.907   6.623 -0.6045  0.4102  0.4077
38901SOL    HW119082   3.073   6.850   6.571 -0.6317 -0.9799  1.8863
38901SOL    HW219083   3.166   6.969   6.560  0.6724 -2.1800 -1.5604
38902SOL     OW19084   9.108   6.885   9.225  0.3467  0.1262  0.3583
38902SOL    HW119085   9.052   6.949   9.181 -1.3044 -0.9934  0.7151
38902SOL    HW219086   9.114   6.916   9.315 -0.2628 -0.0643  0.4746
38903SOL     OW19087   9.931  10.317   5.792 -0.1558 -0.4497 -0.0305
38903SOL    HW119088  10.020  10.330   5.826  0.6479  1.0895 -2.4692
38903SOL    HW219089   9.875  10.324   5.868  1.7102 -0.1217  1.3925
38904SOL     OW19090   9.480   9.481  10.133  0.0776 -0.2550 -0.0623
38904SOL    HW119091   9.471   9.499  10.039 -1.4871 -1.7123 -0.2362
38904SOL    HW219092   9.566   9.440  10.141  0.2401 -0.0914 -0.8587
38905SOL     OW19093   1.287   5.191   8.081  0.5148  0.1617  0.4843
38905SOL    HW119094   1.232   5.269   8.095  1.9896  1.2554  0.4542
38905SOL    HW219095   1.361   5.223   8.029 -0.0744 -1.8179 -1.7510
38906SOL     OW19096   8.905   6.915   7.949 -0.3430  0.5004  0.6349
38906SOL    HW119097   8.916   6.916   7.854 -0.2235 -0.8251  0.6222
38906SOL    HW219098   8.974   6.858   7.981  0.6131  2.1483  1.6825
38907SOL     OW19099   4.343  10.056   0.713  0.0078 -0.3372  0.3544
38907SOL    HW119100   4.303  10.012   0.638  2.7499  0.7434 -1.8888
38907SOL    HW219101   4.427  10.012   0.724  0.3162  0.5631  1.8490
38908SOL     OW19102   3.324   1.052   6.924  0.5978 -0.0814  0.0909
38908SOL    HW119103   3.256   1.031   6.860  1.1947 -2.8690  0.2675
38908SOL    HW219104   3.285   1.031   7.009  0.6372  1.3245  0.4818
38909SOL     OW19105   7.776   2.535   0.638 -0.0210  0.0542  0.0220
38909SOL    HW119106   7.763   2.629   0.629  0.5999  0.1471  0.0628
38909SOL    HW219107   7.694   2.497   0.608 -1.1530  0.6710  2.1164
38910SOL     OW19108   6.237   2.438   8.892  0.2290 -0.1470  0.0825
38910SOL    HW119109   6.275   2.508   8.838 -0.4406  0.2523  0.1174
38910SOL    HW219110   6.209   2.372   8.829  1.1434 -0.5300  0.0688
38911SOL     OW19111   0.025  10.103   2.916 -0.1861  0.2451 -0.4831
38911SOL    HW119112   0.075  10.022   2.918 -1.7116 -0.7569 -1.2429
38911SOL    HW219113   0.041  10.138   2.828 -0.4584  0.1653 -0.5637
38912SOL     OW19114  10.066   8.669   3.290  0.1526  0.3389  0.0085
38912SOL    HW119115  10.040   8.737   3.353 -0.8776  0.1125 -0.1466
38912SOL    HW219116  10.111   8.717   3.221 -0.9813  0.9600 -0.3344
38913SOL     OW19117   5.047   0.521   4.397 -0.1108  0.1335  0.2718
38913SOL    HW119118   5.136   0.544   4.371  0.0862  0.3883  1.1311
38913SOL    HW219119   5.004   0.492   4.316  0.9273 -0.5671 -0.0407
38914SOL     OW19120  10.085   0.070   0.490  0.1798 -0.2653  0.3025
38914SOL    HW119121  10.088   0.068   0.585  1.4627 -1.0084  0.2598
38914SOL    HW219122  10.176   0.077   0.462 -0.0666 -1.2942 -0.8842
38915SOL     OW19123   2.366   5.259   6.018 -0.3376  0.5245 -0.2166
38915SOL    HW119124   2.428   5.324   5.983  0.5949  0.8217  1.8418
38915SOL    HW219125   2.359   5.280   6.111  2.4066 -4.0947  1.3758
38916SOL     OW19126  10.741  10.326   1.595  0.3529  0.0035 -0.3355
38916SOL    HW119127  10.802  10.262   1.558 -1.2698 -1.8186 -0.0540
38916SOL    HW219128  10.687  10.275   1.656  0.1932  2.0520  1.3675
38917SOL     OW19129   8.407   1.181   8.904 -0.0092  0.2995 -0.7296
38917SOL    HW119130   8.483   1.239   8.901 -1.4834  2.4206  0.1115
38917SOL    HW219131   8.442   1.096   8.927  1.9485  1.5778  1.3727
38918SOL     OW19132   6.639   4.755   6.085  0.0898 -0.4285  0.3762
38918SOL    HW119133   6.573   4.807   6.132  1.1601  1.6097 -0.2305
38918SOL    HW219134   6.616   4.767   5.992  0.7244 -0.5206  0.2063
38919SOL     OW19135   6.484   0.079   3.705  0.2268 -0.0805  0.1593
38919SOL    HW119136   6.564   0.026   3.700  0.3627  0.1363  0.0223
38919SOL    HW219137   6.444   0.055   3.789 -0.9643 -2.1913 -0.9196
38920SOL     OW19138   9.597   4.774   8.515 -0.4355 -0.2824  0.1638
38920SOL    HW119139   9.562   4.841   8.457 -0.4370 -0.5856 -0.1876
38920SOL    HW219140   9.689   4.766   8.490 -0.1263  0.4429  1.0182
38921SOL     OW19141   5.343   7.305   9.908  0.1017  0.2672  0.7558
38921SOL    HW119142   5.323   7.294   9.815  1.3038  1.5464  0.3136
38921SOL    HW219143   5.291   7.238   9.952 -0.6541 -0.2163 -0.8172
38922SOL     OW19144   9.515   7.959   0.462 -0.6984  0.0325  0.2775
38922SOL    HW119145   9.424   7.931   0.463 -0.5994 -0.2981  0.0732
38922SOL    HW219146   9.512   8.053   0.481 -0.9115 -0.3943  2.7126
38923SOL     OW19147   9.842   6.688   9.230  0.2495  0.4068  0.3219
38923SOL    HW119148   9.806   6.763   9.182 -1.8567 -0.6027  0.1973
38923SOL    HW219149   9.767   6.650   9.276  0.9309 -2.3552 -0.6237
38924SOL     OW19150   7.965   0.607   4.610  0.7696 -0.0873 -0.3895
38924SOL    HW119151   7.987   0.540   4.546  1.3195 -0.2652 -0.0340
38924SOL    HW219152   8.048   0.653   4.625  1.0235 -1.0004  1.2662
38925SOL     OW19153   9.441  10.513   6.975 -0.2743 -0.6405  0.6404
38925SOL    HW119154   9.526  10.492   7.012  0.8618  1.3781 -0.6198
38925SOL    HW219155   9.439  10.464   6.892 -0.7296 -1.3215  1.0383
38926SOL     OW19156   8.829   5.703   9.499  0.4367  0.1228  0.6167
38926SOL    HW119157   8.846   5.656   9.418  0.7877 -1.5357  1.5957
38926SOL    HW219158   8.828   5.635   9.566 -0.8344  1.3127  1.8786
38927SOL     OW19159   0.170   1.879   4.207  0.1925  0.4856 -0.6363
38927SOL    HW119160   0.170   1.950   4.143  0.3723  1.2065  0.1408
38927SOL    HW219161   0.251   1.831   4.189  1.0849  1.6526  0.0678
38928SOL     OW19162   1.886   4.786   3.566  0.1326 -0.1071  0.2780
38928SOL    HW119163   1.876   4.880   3.579 -0.5937 -0.3429  1.5724
38928SOL    HW219164   1.968   4.764   3.611  0.8557  0.0578 -0.9219
38929SOL     OW19165   8.016   6.909   7.852  0.2144 -0.4976  0.5988
38929SOL    HW119166   8.098   6.901   7.900 -0.5253  0.3765  2.0968
38929SOL    HW219167   7.981   6.820   7.848  0.7270 -0.7139  0.8774
38930SOL     OW19168   1.524  10.073   3.839 -0.2919 -0.2734  0.1577
38930SOL    HW119169   1.449  10.114   3.882  1.0545  4.2288 -1.2596
38930SOL    HW219170   1.504  10.078   3.746  1.7366  1.1895 -0.2591
38931SOL     OW19171   8.701   2.003   1.213 -0.1514  0.0614  0.8256
38931SOL    HW119172   8.739   1.920   1.244 -0.4540 -0.0082  1.0130
38931SOL    HW219173   8.621   1.977   1.169  0.9635  0.0164 -1.2947
38932SOL     OW19174   3.934  10.138   6.146  0.0115 -0.2820 -0.5515
38932SOL    HW119175   3.961  10.164   6.234 -1.2152 -0.8541  0.0157
38932SOL    HW219176   3.982  10.197   6.088 -0.6059  1.3891  0.5684
38933SOL     OW19177   4.818   8.265   0.462  0.2001 -0.1910  0.7191
38933SOL    HW119178   4.728   8.233   0.451  0.9080 -2.4189  1.0057
38933SOL    HW219179   4.859   8.253   0.376  0.2533  0.8242  0.5865
38934SOL     OW19180   3.688   7.559   1.741 -0.6480 -0.4584 -0.1240
38934SOL    HW119181   3.668   7.538   1.650  0.0585 -0.4055 -0.2992
38934SOL    HW219182   3.754   7.494   1.767  0.1532  0.3492 -0.0826
38935SOL     OW19183   1.672   9.588   0.804 -0.7418  0.4636  0.4383
38935SOL    HW119184   1.646   9.501   0.835 -0.0083 -0.1837 -0.6611
38935SOL    HW219185   1.762   9.598   0.834 -0.3336  0.2087 -0.6392
38936SOL     OW19186   2.505   6.957   0.754 -0.1164 -0.1632  0.2468
38936SOL    HW119187   2.569   7.007   0.803  2.3386 -1.2133 -1.6750
38936SOL    HW219188   2.470   7.019   0.690 -0.6944  0.2799  0.9725
38937SOL     OW19189   4.066   1.537   7.368 -0.4245  0.0652  0.2341
38937SOL    HW119190   4.138   1.488   7.408 -1.5285 -2.3498 -0.5582
38937SOL    HW219191   4.009   1.559   7.441 -2.1016 -3.7484  0.2803
38938SOL     OW19192  10.307   4.549   4.730  0.1590  0.1364  0.6786
38938SOL    HW119193  10.283   4.468   4.685 -0.0486 -0.8712  2.5185
38938SOL    HW219194  10.230   4.606   4.720 -0.3307 -0.5043  0.7281
38939SOL     OW19195   1.515   5.757   2.062  0.5562  0.3607 -0.6050
38939SOL    HW119196   1.444   5.723   2.007  1.1440  1.4927 -2.1111
38939SOL    HW219197   1.593   5.710   2.032  1.0450  1.6465 -1.4103
38940SOL     OW19198   0.760  10.419   1.887 -0.2189  0.5413  0.0587
38940SOL    HW119199   0.812  10.474   1.945 -0.4425 -0.3647  1.1351
38940SOL    HW219200   0.669  10.447   1.901 -0.4368 -0.7256  1.3334
38941SOL     OW19201   2.955  10.444   4.942  0.4873  0.0354  0.0188
38941SOL    HW119202   2.926  10.494   4.866  1.6224 -0.0697 -0.5033
38941SOL    HW219203   2.981  10.511   5.006  0.4517  0.1102 -0.0443
38942SOL     OW19204   6.439   0.245   4.059  0.2923  0.0514 -0.5128
38942SOL    HW119205   6.433   0.340   4.048  0.4190  0.0352 -0.7317
38942SOL    HW219206   6.525   0.230   4.099  0.3038  0.0246 -0.5466
38943SOL     OW19207   3.393   7.798   7.972 -0.0303  0.0838 -0.2163
38943SOL    HW119208   3.453   7.834   7.907  0.7751 -2.6718 -1.1384
38943SOL    HW219209   3.430   7.712   7.993 -0.6767  0.5323  3.3601
38944SOL     OW19210   6.192   5.817   3.100 -0.3667 -0.2058  0.1510
38944SOL    HW119211   6.218   5.747   3.161 -1.1094  0.3080  1.0922
38944SOL    HW219212   6.097   5.826   3.114 -0.5065  0.0887 -0.9241
38945SOL     OW19213   4.530  10.312   3.860 -0.4966  0.0774 -0.0537
38945SOL    HW119214   4.496  10.251   3.795 -2.2390  0.0438  0.8294
38945SOL    HW219215   4.459  10.320   3.924  0.0141  2.3665  0.2946
38946SOL     OW19216   1.660   9.281   4.020  0.3071  0.7318 -0.8728
38946SOL    HW119217   1.594   9.345   4.048  0.1534  0.5627 -0.8476
38946SOL    HW219218   1.679   9.305   3.929 -0.3341  0.3258 -1.1166
38947SOL     OW19219   5.320   3.752   9.535 -0.5931 -0.0907  0.7960
38947SOL    HW119220   5.372   3.768   9.613 -0.3743 -0.1267  0.6599
38947SOL    HW219221   5.292   3.661   9.543  0.0489 -0.3222  0.4729
38948SOL     OW19222   3.973   9.527   9.379  0.4016 -0.3237 -0.2116
38948SOL    HW119223   3.979   9.448   9.325 -0.5281  0.1084 -0.9705
38948SOL    HW219224   4.063   9.560   9.382  0.7953 -1.3827  0.0912
38949SOL     OW19225   1.154   8.303   9.720 -0.3942 -0.5845  0.5687
38949SOL    HW119226   1.173   8.252   9.642 -0.1395 -0.3205  0.4584
38949SOL    HW219227   1.236   8.303   9.769  0.3653  1.7085 -0.5567
38950SOL     OW19228   8.665   3.458   1.365  0.1550 -0.0639  0.1665
38950SOL    HW119229   8.705   3.507   1.293 -1.8184  1.0277 -0.2350
38950SOL    HW219230   8.738   3.441   1.425  1.6297 -0.0279 -1.5225
38951SOL     OW19231   8.224   7.465   8.027 -0.4954 -0.0754  0.3032
38951SOL    HW119232   8.239   7.381   8.070  0.3625  0.5727  1.3230
38951SOL    HW219233   8.129   7.470   8.017 -0.7287 -0.3247  2.0125
38952SOL     OW19234   1.310   5.299   0.842  0.0473  0.6505 -0.1925
38952SOL    HW119235   1.342   5.212   0.863 -1.6872 -0.2066 -0.9161
38952SOL    HW219236   1.389   5.349   0.820  0.9724 -1.1032 -1.0773
38953SOL     OW19237   0.263   7.481   6.476 -0.3045 -0.3252  0.4349
38953SOL    HW119238   0.235   7.482   6.385  1.4954  1.5910 -0.1785
38953SOL    HW219239   0.356   7.456   6.473 -0.0697  0.2878  1.6670
38954SOL     OW19240   7.104   3.564   6.598  0.1696 -0.1611  0.0897
38954SOL    HW119241   7.149   3.605   6.524 -0.6819 -1.9129 -1.4800
38954SOL    HW219242   7.065   3.637   6.645 -1.1042  0.9226 -2.4377
38955SOL     OW19243   6.412   7.315   1.334  0.0169 -0.2685  0.5900
38955SOL    HW119244   6.417   7.410   1.345 -0.1193  0.1164 -2.0523
38955SOL    HW219245   6.502   7.287   1.318  0.0740 -0.6295  1.4719
38956SOL     OW19246   7.171   6.057   0.146  0.4275  0.0432  0.6069
38956SOL    HW119247   7.203   6.121   0.082 -2.3579 -0.4763 -1.4917
38956SOL    HW219248   7.163   6.107   0.227 -0.5306  2.1270 -0.6733
38957SOL     OW19249   3.283   1.760   2.486 -0.3389  0.1910 -0.3740
38957SOL    HW119250   3.287   1.668   2.459  1.2112  0.8787 -2.7863
38957SOL    HW219251   3.370   1.795   2.465 -0.3597  1.8919  1.9406
38958SOL     OW19252   3.920  10.478   7.162 -0.3707 -0.9232 -0.0543
38958SOL    HW119253   3.846  10.442   7.114  0.2735 -0.5780 -1.3570
38958SOL    HW219254   3.889  10.562   7.195 -0.7264 -1.0295 -0.1167
38959SOL     OW19255   7.453   7.464   1.832  0.3571 -0.1639  0.0737
38959SOL    HW119256   7.428   7.547   1.871  0.3076  0.1593 -0.6226
38959SOL    HW219257   7.386   7.402   1.861  1.4257 -0.4213  2.1441
38960SOL     OW19258  10.599   6.725   5.115  0.3299 -0.5246  0.1557
38960SOL    HW119259  10.653   6.652   5.085  0.8929 -0.9074  2.0149
38960SOL    HW219260  10.644   6.803   5.084  2.4268 -0.8000  2.3317
38961SOL     OW19261   0.631   3.119   5.887  0.2635  0.1535 -0.2514
38961SOL    HW119262   0.609   3.186   5.952 -1.1288  0.1242 -0.6659
38961SOL    HW219263   0.690   3.059   5.934 -0.6617  0.1657  0.9834
38962SOL     OW19264   2.520  10.215   8.815  0.2283  0.0172  0.3175
38962SOL    HW119265   2.490  10.139   8.864  1.8380 -0.2888  0.9098
38962SOL    HW219266   2.519  10.287   8.878  1.9434 -0.2953  0.7593
38963SOL     OW19267   9.107   7.373  10.473  0.4663 -0.3715  0.6567
38963SOL    HW119268   9.067   7.415  10.549  1.5373  0.9473  0.5362
38963SOL    HW219269   9.053   7.401  10.399  2.0070  2.2063  0.3616
38964SOL     OW19270   5.149   8.495   8.652  0.2795  0.6245  0.2110
38964SOL    HW119271   5.154   8.556   8.725  1.0792 -0.3531  1.0078
38964SOL    HW219272   5.150   8.409   8.693  0.9768  0.0453 -0.9636
38965SOL     OW19273   7.533   4.746   5.674 -0.0909  0.4456 -0.0971
38965SOL    HW119274   7.470   4.702   5.616 -0.1190  0.1950  0.1248
38965SOL    HW219275   7.488   4.753   5.758 -0.2317  1.2335 -0.2224
38966SOL     OW19276   5.927   8.473   0.063  0.0189  0.1979 -0.3740
38966SOL    HW119277   6.018   8.447   0.077 -0.3786 -0.9333  0.1887
38966SOL    HW219278   5.927   8.568   0.078  1.4803  0.5870 -2.4225
38967SOL     OW19279  10.507   4.078   8.761 -0.4955 -0.2901 -0.3010
38967SOL    HW119280  10.520   3.984   8.754 -0.9488 -0.4063  0.3222
38967SOL    HW219281  10.416   4.088   8.787  0.1042  0.1972  1.8894
38968SOL     OW19282   4.364   7.759   7.496 -0.0615 -0.3574  0.1104
38968SOL    HW119283   4.284   7.708   7.488 -0.4948  0.2857  0.2107
38968SOL    HW219284   4.351   7.812   7.575  0.0625  0.4348 -0.3815
38969SOL     OW19285   1.497   9.520   4.025 -0.1614 -0.1435 -0.8265
38969SOL    HW119286   1.515   9.614   4.025  1.5103 -0.3445 -3.2905
38969SOL    HW219287   1.477   9.500   3.933 -2.0628 -1.9719 -0.0953
38970SOL     OW19288  10.471   9.457   5.411  0.0587  0.4746  0.3978
38970SOL    HW119289  10.554   9.480   5.454  0.3335 -1.1645  0.8113
38970SOL    HW219290  10.416   9.422   5.481 -0.0210 -0.8768 -0.3130
38971SOL     OW19291   3.097   1.778   4.734 -0.0247 -0.3559  0.4442
38971SOL    HW119292   3.033   1.803   4.667  2.1220  1.7493 -0.9853
38971SOL    HW219293   3.085   1.843   4.804  1.5108  1.0706 -0.5465
38972SOL     OW19294   4.642   6.565   7.871  0.1707  0.2259 -0.6311
38972SOL    HW119295   4.714   6.616   7.906  0.9476 -1.2190 -0.0647
38972SOL    HW219296   4.678   6.477   7.857 -1.4335 -0.5043 -0.4486
38973SOL     OW19297   5.111   6.676   0.024 -0.2162 -0.5294 -0.0506
38973SOL    HW119298   5.051   6.723   0.081  3.6901  5.2660  0.1795
38973SOL    HW219299   5.162   6.621   0.084 -0.3210  0.5001  1.0320
38974SOL     OW19300  10.281   5.834   0.671 -0.3557  0.1576 -0.1307
38974SOL    HW119301  10.216   5.776   0.632 -1.0047  0.4061  0.5513
38974SOL    HW219302  10.286   5.908   0.611 -0.9356  0.2808 -0.0368
38975SOL     OW19303   5.503   5.447   6.559 -0.4079  0.0982 -0.5194
38975SOL    HW119304   5.506   5.377   6.494  0.7253  1.0204 -1.4944
38975SOL    HW219305   5.465   5.406   6.637 -1.4333 -1.1313 -1.6179
38976SOL     OW19306   4.836   2.271   5.780 -0.2162 -0.1900 -0.1187
38976SOL    HW119307   4.832   2.363   5.754  0.3104 -0.2026 -0.2454
38976SOL    HW219308   4.812   2.223   5.701 -0.8197 -0.1537  0.0380
38977SOL     OW19309   4.836   1.745   6.839 -0.2208 -0.3707  0.4375
38977SOL    HW119310   4.832   1.766   6.932  1.0864  1.3633  0.1551
38977SOL    HW219311   4.902   1.677   6.832  0.4833  0.2724  0.6909
38978SOL     OW19312   3.608   3.468   3.457  0.3301 -0.0246  0.2049
38978SOL    HW119313   3.586   3.550   3.412 -2.6975 -0.4161  0.7675
38978SOL    HW219314   3.630   3.407   3.387 -1.9605  0.0400 -0.6280
38979SOL     OW19315   0.290   3.539   5.459 -0.5782 -0.1325 -0.2569
38979SOL    HW119316   0.227   3.524   5.530  0.9613 -1.5527  0.9010
38979SOL    HW219317   0.272   3.469   5.396  0.1684 -0.8994  0.3549
38980SOL     OW19318   4.799   6.174   5.501  0.0143 -0.7575  0.5583
38980SOL    HW119319   4.759   6.252   5.538  0.8088 -0.7788  1.5135
38980SOL    HW219320   4.754   6.101   5.544  0.8784 -0.7834  1.4587
38981SOL     OW19321   8.766   6.095  10.573 -0.3960  0.8035 -0.2865
38981SOL    HW119322   8.743   6.003  10.559 -2.6472  1.1492  0.7466
38981SOL    HW219323   8.786   6.101  10.666  2.4604  0.8892 -0.8254
38982SOL     OW19324   6.851   5.458   0.588  0.3621 -0.3352 -0.0454
38982SOL    HW119325   6.824   5.387   0.529  0.9713  1.1484 -2.2446
38982SOL    HW219326   6.769   5.502   0.612  0.2635  0.9461 -2.4239
38983SOL     OW19327   7.660   8.952   0.005  0.7465  0.8345  0.1472
38983SOL    HW119328   7.603   8.926   0.078  0.1278  0.2475 -0.5189
38983SOL    HW219329   7.732   8.999   0.046  0.9030 -0.2976  1.2328
38984SOL     OW19330   3.377   2.289   0.517  0.1696  0.6184  0.0037
38984SOL    HW119331   3.454   2.290   0.460 -1.9970  0.6125 -3.1868
38984SOL    HW219332   3.383   2.206   0.564  1.0593 -0.3769 -1.7770
38985SOL     OW19333   3.349   9.895   7.260  0.1711 -0.2743  0.5571
38985SOL    HW119334   3.392   9.874   7.177 -1.0610 -0.4101 -0.0674
38985SOL    HW219335   3.416   9.880   7.326  1.7932  1.7542 -0.5426
38986SOL     OW19336   8.564   3.674   4.015 -0.3889  0.1289 -0.3769
38986SOL    HW119337   8.503   3.615   4.059  1.0379 -0.5200  0.8288
38986SOL    HW219338   8.581   3.632   3.930 -1.7086  0.4110 -0.8066
38987SOL     OW19339   7.772   0.875   3.190  0.0037  0.3813  0.0974
38987SOL    HW119340   7.716   0.905   3.118 -3.5329 -0.1343  2.3998
38987SOL    HW219341   7.756   0.781   3.194  0.3310  0.3718  1.4014
38988SOL     OW19342   5.882   9.140   6.196 -0.5397  0.0453 -0.6620
38988SOL    HW119343   5.856   9.211   6.255 -0.6778 -0.5910  0.0580
38988SOL    HW219344   5.863   9.173   6.109 -1.4647  0.5420 -0.2874
38989SOL     OW19345   8.723   1.917   3.899 -0.3918 -0.2403 -0.5343
38989SOL    HW119346   8.674   1.998   3.885 -0.0228  0.1700  0.4782
38989SOL    HW219347   8.657   1.852   3.921 -0.8410 -0.5636 -2.6250
38990SOL     OW19348   9.872  10.544   6.632  0.7906 -0.5403 -0.4833
38990SOL    HW119349   9.867  10.605   6.706  0.6061 -1.6197  0.4280
38990SOL    HW219350   9.852  10.598   6.555 -1.6181  0.1180  0.5160
38991SOL     OW19351   2.312   1.516   9.725 -0.1607 -0.6637  0.3647
38991SOL    HW119352   2.281   1.577   9.791  1.5216 -0.3233  0.8829
38991SOL    HW219353   2.353   1.445   9.775  0.7424 -0.6231 -0.3032
38992SOL     OW19354   5.767  10.035   9.463 -0.0610 -0.2126  0.2681
38992SOL    HW119355   5.846  10.089   9.474  0.3293 -0.5279 -0.8332
38992SOL    HW219356   5.733  10.025   9.552  0.8063  0.4244  0.6991
38993SOL     OW19357   5.436   6.958   1.379 -0.4161  0.0883 -0.4880
38993SOL    HW119358   5.357   6.966   1.432 -0.3711 -1.4508 -0.1465
38993SOL    HW219359   5.502   6.925   1.440  0.1961  0.2669 -1.0431
38994SOL     OW19360   1.890   5.608   8.716  0.3932  0.4285 -0.4456
38994SOL    HW119361   1.985   5.599   8.717  0.2262 -2.7110 -1.5001
38994SOL    HW219362   1.872   5.665   8.641  1.4259 -0.7521 -1.6473
38995SOL     OW19363   5.029   8.044   8.663 -0.1269 -0.5272 -0.6663
38995SOL    HW119364   5.017   7.954   8.693 -0.4213 -1.3018 -2.9123
38995SOL    HW219365   5.074   8.035   8.579 -1.5842  1.3132 -1.7196
38996SOL     OW19366   3.243   9.215   4.312  0.2761  0.0351  0.2967
38996SOL    HW119367   3.309   9.236   4.246  0.0310 -1.9475 -0.6410
38996SOL    HW219368   3.161   9.214   4.264  0.0779 -1.3125  0.6257
38997SOL     OW19369   0.730   7.057   0.439  0.1411 -0.2160  0.2711
38997SOL    HW119370   0.646   7.075   0.396 -0.0391  0.6340  0.9422
38997SOL    HW219371   0.751   7.138   0.485  1.4345 -0.3564 -0.0379
38998SOL     OW19372   7.649   2.186   0.833  0.8978  0.0531  0.2063
38998SOL    HW119373   7.603   2.178   0.749 -0.7721 -0.0747  1.0959
38998SOL    HW219374   7.719   2.248   0.815  2.0104 -1.6364 -1.8510
38999SOL     OW19375   0.831   1.580   2.625 -0.1880  0.4652 -0.4616
38999SOL    HW119376   0.792   1.619   2.547 -1.0268 -1.1675 -0.8870
38999SOL    HW219377   0.761   1.580   2.690 -0.7982 -1.8968 -1.0308
39000SOL     OW19378   8.577  10.490   8.880  0.1883  0.5513  0.2862
39000SOL    HW119379   8.655  10.541   8.860 -0.8995  1.5368 -1.8132
39000SOL    HW219380   8.504  10.545   8.851 -1.0802 -1.8985 -1.5790
39001SOL     OW19381  10.265   3.588   1.618  0.0937 -0.2529  0.1417
39001SOL    HW119382  10.274   3.640   1.698  0.7820 -0.0898 -0.0317
39001SOL    HW219383  10.280   3.498   1.646  0.6111 -0.1661  0.1554
39002SOL     OW19384   2.864   9.086   6.123  0.4556  0.1351 -0.4672
39002SOL    HW119385   2.863   9.005   6.072 -1.1724  0.6777 -1.3766
39002SOL    HW219386   2.793   9.074   6.187  1.0943  0.3114  0.2862
39003SOL     OW19387   2.476   5.090   5.602 -0.0617  0.0588 -0.4407
39003SOL    HW119388   2.513   5.178   5.609 -1.2903  0.6718 -1.2914
39003SOL    HW219389   2.503   5.059   5.516  0.1696 -0.3106 -0.2368
39004SOL     OW19390   8.938   5.476   9.936  0.2249  0.2195  0.3505
39004SOL    HW119391   8.904   5.403   9.988  1.4768  0.3131  1.3596
39004SOL    HW219392   8.901   5.554   9.977 -0.7769  0.2094 -0.4719
39005SOL     OW19393  10.182   6.322   4.089 -0.2513  0.3937  0.1462
39005SOL    HW119394  10.110   6.384   4.080  0.5979  1.2273 -1.2566
39005SOL    HW219395  10.149   6.255   4.148 -1.9349  1.0989  0.0490
39006SOL     OW19396   0.619   2.459   1.873  0.6709  0.1107 -0.3740
39006SOL    HW119397   0.627   2.472   1.968 -1.4725 -0.5171 -0.0636
39006SOL    HW219398   0.642   2.367   1.860 -1.7300 -0.6120 -0.0091
39007SOL     OW19399   9.122   5.903   3.063  0.2673  0.0056  0.4937
39007SOL    HW119400   9.148   5.858   2.982  0.1260  1.8259 -0.6289
39007SOL    HW219401   9.059   5.844   3.104 -1.1977 -0.1486 -1.7660
39008SOL     OW19402   6.913   6.778   4.957 -0.6935 -0.2113 -0.9608
39008SOL    HW119403   6.962   6.802   4.879 -0.1503  0.1115 -0.5298
39008SOL    HW219404   6.930   6.684   4.968  1.9680  0.3322  0.6029
39009SOL     OW19405  10.186   8.042   6.204  0.4032 -0.2892  0.5101
39009SOL    HW119406  10.245   8.022   6.132  2.0661  1.4276  1.3030
39009SOL    HW219407  10.131   7.964   6.213 -1.8732  0.3637 -4.3915
39010SOL     OW19408  10.658   3.362   6.711  0.6803 -0.4618  0.1189
39010SOL    HW119409  10.579   3.387   6.760 -0.4512 -0.7056 -1.4892
39010SOL    HW219410  10.716   3.324   6.777  0.2594  1.4327  1.6883
39011SOL     OW19411   1.659   7.269   6.547  0.1161 -0.0277  0.6459
39011SOL    HW119412   1.597   7.238   6.613  0.4161 -1.5263  0.2621
39011SOL    HW219413   1.726   7.200   6.543  0.8263  0.6896 -0.2569
39012SOL     OW19414   7.823   9.976   8.533 -0.3760 -0.0576 -0.2183
39012SOL    HW119415   7.901   9.941   8.491  0.1654  0.8477  0.0194
39012SOL    HW219416   7.798   9.908   8.597  0.6366 -0.0294  0.2181
39013SOL     OW19417   8.276   2.112   0.427  0.1096  0.2880  0.1630
39013SOL    HW119418   8.356   2.162   0.411 -0.1871  1.0822  1.0858
39013SOL    HW219419   8.274   2.047   0.357  1.0245  0.9216 -0.4703
39014SOL     OW19420   3.996   4.510   9.575  0.4170 -0.0952  0.2474
39014SOL    HW119421   3.931   4.518   9.644  1.8097 -0.6085  1.6613
39014SOL    HW219422   3.979   4.586   9.518  0.2807  1.3002  2.0498
39015SOL     OW19423   5.419  10.600   0.437  0.3925  0.8688  0.3601
39015SOL    HW119424   5.367  10.608   0.517  0.9349  2.8247  0.5452
39015SOL    HW219425   5.509  10.595   0.466  0.5944  1.5589 -0.1209
39016SOL     OW19426   2.562   3.025   2.772 -0.1636  0.6226 -0.3881
39016SOL    HW119427   2.620   2.971   2.719 -1.1992 -2.3051  1.2158
39016SOL    HW219428   2.493   3.054   2.712  0.0862 -0.3757 -1.1693
39017SOL     OW19429   1.327  10.501   4.276  0.4054 -0.4617  0.2566
39017SOL    HW119430   1.303  10.551   4.355 -1.2804  0.4523 -0.7813
39017SOL    HW219431   1.315  10.410   4.302  1.3539 -0.2623  1.5074
39018SOL     OW19432   1.654   3.544   0.855  0.4315  0.1835 -0.0412
39018SOL    HW119433   1.662   3.637   0.834  0.7917  0.0370 -0.5806
39018SOL    HW219434   1.740   3.519   0.890  0.8648 -0.2936 -1.3590
39019SOL     OW19435   6.499   1.104   0.116 -0.1298 -0.2272 -0.0054
39019SOL    HW119436   6.499   1.026   0.172  1.7800  1.1608  2.1186
39019SOL    HW219437   6.558   1.081   0.044 -0.0312 -0.9373  0.2872
39020SOL     OW19438   1.468   4.411   8.661 -0.1049 -0.1720  0.8231
39020SOL    HW119439   1.480   4.485   8.720 -0.3083  1.7409 -1.3729
39020SOL    HW219440   1.373   4.397   8.659 -0.1506  0.1916  0.4563
39021SOL     OW19441   6.756   0.682   1.243  0.7807  0.0963  0.0085
39021SOL    HW119442   6.748   0.656   1.335 -0.7222 -2.1204 -0.6600
39021SOL    HW219443   6.688   0.748   1.230 -0.3232 -0.9836  0.0944
39022SOL     OW19444   5.387   0.324   4.370 -0.0005  0.2471  0.2802
39022SOL    HW119445   5.317   0.351   4.309  0.0012 -0.7705 -0.1824
39022SOL    HW219446   5.467   0.359   4.331  0.0776 -0.8887 -0.6439
39023SOL     OW19447   3.634   5.147   1.574 -0.3916  0.3540 -0.6628
39023SOL    HW119448   3.605   5.073   1.626  0.7153 -0.6884 -1.4760
39023SOL    HW219449   3.689   5.199   1.634  0.6717 -0.7049 -0.6835
39024SOL     OW19450   4.763  10.624   0.463  0.8878  0.0210 -0.1377
39024SOL    HW119451   4.756  10.718   0.484 -0.5621 -0.5102  2.0726
39024SOL    HW219452   4.692  10.609   0.400 -1.2515 -0.1843  2.1738
39025SOL     OW19453   2.537   3.331   3.993  0.0579  0.1898  0.2815
39025SOL    HW119454   2.608   3.270   3.974  0.2484 -0.3284  2.4675
39025SOL    HW219455   2.461   3.294   3.947  0.7840 -0.1751 -0.6629
39026SOL     OW19456   4.251   5.374   1.770  0.4097  0.5011 -0.8027
39026SOL    HW119457   4.181   5.431   1.800  1.7829  2.5723 -1.3554
39026SOL    HW219458   4.206   5.300   1.729 -1.4801  2.0180 -1.6056
39027SOL     OW19459   8.975   3.493   1.244 -0.7369  0.3529 -0.1875
39027SOL    HW119460   8.901   3.458   1.194 -0.2158 -1.2322  0.1149
39027SOL    HW219461   9.043   3.426   1.238  0.9574  2.0349 -0.9878
39028SOL     OW19462   7.977   6.069   0.170 -0.0283  0.4409  0.0196
39028SOL    HW119463   8.002   6.029   0.087 -0.8168 -0.3151  0.1409
39028SOL    HW219464   8.061   6.090   0.212  0.4174  2.6985 -1.8090
39029SOL     OW19465   7.818   4.390   8.368 -0.1923  0.3730  0.0583
39029SOL    HW119466   7.909   4.378   8.394 -0.3928  0.6162  0.9223
39029SOL    HW219467   7.816   4.475   8.323  0.2042 -0.1573 -0.9770
39030SOL     OW19468   9.648   2.698   8.896  0.2821 -0.0197  0.0496
39030SOL    HW119469   9.560   2.686   8.933  0.3656 -2.1637 -0.2868
39030SOL    HW219470   9.649   2.642   8.818  1.6572  0.6818 -0.4710
39031SOL     OW19471   0.897   4.738   5.079 -0.0374  0.1011 -0.8804
39031SOL    HW119472   0.814   4.714   5.121  0.8010 -2.9338 -0.8049
39031SOL    HW219473   0.918   4.824   5.117 -0.8106 -1.0993  2.6922
39032SOL     OW19474   0.900   6.644   9.120  0.5138  0.5373 -0.3802
39032SOL    HW119475   0.985   6.666   9.158  0.6883  1.0915 -1.0707
39032SOL    HW219476   0.921   6.583   9.049  0.2856  0.3074 -0.2532
39033SOL     OW19477   2.180   2.573   8.835 -0.7326  0.7714  0.4831
39033SOL    HW119478   2.100   2.538   8.874 -0.1863 -1.1288 -0.0243
39033SOL    HW219479   2.250   2.542   8.892 -0.2401  1.1922  0.1146
39034SOL     OW19480   1.691   4.260   4.161 -0.0114  0.0979 -0.0502
39034SOL    HW119481   1.668   4.274   4.252  2.2995  0.0705  0.5965
39034SOL    HW219482   1.755   4.189   4.162 -1.3832 -1.2558 -1.9132
39035SOL     OW19483   7.961  10.346   4.302  0.1463 -0.3167  0.6573
39035SOL    HW119484   7.908  10.424   4.318  1.2852  0.4639  0.7532
39035SOL    HW219485   7.928  10.281   4.365 -0.1896  0.4066  1.2407
39036SOL     OW19486   4.396   0.484   5.651  0.3588 -0.0973 -0.0869
39036SOL    HW119487   4.483   0.448   5.667  0.3212 -0.6293 -1.0301
39036SOL    HW219488   4.362   0.434   5.577 -0.4888  0.5495 -0.1537
39037SOL     OW19489   8.186   0.480   8.106  0.0180 -0.2918  0.2150
39037SOL    HW119490   8.256   0.543   8.088  1.4097 -1.7468  0.2974
39037SOL    HW219491   8.184   0.473   8.201 -2.5249  2.1322  0.4694
39038SOL     OW19492   7.201   3.480   3.234  0.0293  0.3142  0.6609
39038SOL    HW119493   7.147   3.522   3.167 -0.8235 -0.3037  0.9539
39038SOL    HW219494   7.145   3.414   3.273  0.7721  0.1366  1.4644
39039SOL     OW19495   3.249   3.258   0.913  0.1001 -0.0767  0.6513
39039SOL    HW119496   3.213   3.324   0.972  0.0265 -0.6046  1.2110
39039SOL    HW219497   3.253   3.301   0.828 -0.6046  0.4208  0.8588
39040SOL     OW19498   6.510   7.270   9.965  0.1629 -0.2054 -0.2434
39040SOL    HW119499   6.559   7.201  10.010 -2.0323 -1.8949 -0.3248
39040SOL    HW219500   6.489   7.233   9.880  0.9143  1.4885 -1.2188
39041SOL     OW19501   3.030   8.237   9.112 -0.4451  0.3485 -0.1568
39041SOL    HW119502   2.974   8.201   9.181 -0.7745  1.1835  0.0333
39041SOL    HW219503   3.055   8.323   9.146  0.0131  0.4488 -0.7522
39042SOL     OW19504   6.152   1.862   3.119 -0.1391 -0.2259 -0.0192
39042SOL    HW119505   6.244   1.888   3.109  0.2159 -1.1358  0.7540
39042SOL    HW219506   6.111   1.936   3.164  0.3941 -0.1625  0.3706
39043SOL     OW19507   1.688   7.193   8.870  0.1993  0.5350  0.4178
39043SOL    HW119508   1.784   7.196   8.866  0.1473  1.1114 -1.8798
39043SOL    HW219509   1.669   7.158   8.957  2.4891  0.1828  0.8537
39044SOL     OW19510   1.264   7.427   0.820  0.1208 -0.6767  0.6526
39044SOL    HW119511   1.293   7.518   0.824 -0.5966 -0.2625 -2.0522
39044SOL    HW219512   1.344   7.376   0.806  0.1753 -0.0431 -1.6468
39045SOL     OW19513   9.755   0.781   2.170  0.2784 -0.5219  0.1603
39045SOL    HW119514   9.708   0.862   2.193 -0.7589 -1.2990  0.8747
39045SOL    HW219515   9.839   0.811   2.136 -0.2836  0.8772 -0.0692
39046SOL     OW19516   9.324   8.439   3.289 -0.1544 -0.3738 -0.6302
39046SOL    HW119517   9.342   8.362   3.236 -1.3095 -0.5637 -0.7706
39046SOL    HW219518   9.236   8.424   3.326  0.4212 -0.0547  0.9837
39047SOL     OW19519   1.703   6.623  10.277 -0.1978  0.6572  0.0471
39047SOL    HW119520   1.759   6.656  10.347 -1.1962  1.7314  0.3771
39047SOL    HW219521   1.638   6.569  10.321  0.6549 -0.7698 -0.3589
39048SOL     OW19522   7.312   6.316   5.070 -0.8972 -0.1648 -0.9183
39048SOL    HW119523   7.333   6.358   4.987 -1.4921 -1.2374 -1.6458
39048SOL    HW219524   7.300   6.388   5.132 -1.5497  0.7116 -2.0301
39049SOL     OW19525   5.186   9.074   9.224 -0.4340 -0.7450  0.0064
39049SOL    HW119526   5.268   9.124   9.227 -1.1564  0.4175  1.0783
39049SOL    HW219527   5.169   9.049   9.314 -1.7726 -0.1152 -0.0545
39050SOL     OW19528   5.174   2.972   3.581  0.0165 -0.1723  0.4666
39050SOL    HW119529   5.090   2.965   3.627 -0.2162 -1.4830 -0.1145
39050SOL    HW219530   5.223   2.894   3.607  0.3024 -0.3931 -0.6649
39051SOL     OW19531  10.034   8.805   1.753 -0.1333  0.2565  0.2329
39051SOL    HW119532  10.058   8.830   1.664 -1.8320 -0.6278 -0.5290
39051SOL    HW219533  10.095   8.852   1.809 -0.3506  2.5019 -1.2983
39052SOL     OW19534   2.490   2.421   8.649 -0.6173 -0.4914 -0.6716
39052SOL    HW119535   2.574   2.376   8.645 -0.3215  0.0599 -0.8116
39052SOL    HW219536   2.433   2.363   8.699  0.2136 -0.3001  0.5442
39053SOL     OW19537   3.671   6.531   6.044  0.4252 -0.6390  0.2461
39053SOL    HW119538   3.694   6.610   6.093  3.1974 -1.2868  0.1305
39053SOL    HW219539   3.737   6.525   5.975 -0.1064 -2.7120 -0.1558
39054SOL     OW19540   8.621   8.448   6.458  0.3781 -0.4536  0.2881
39054SOL    HW119541   8.660   8.443   6.371  1.0494  2.3716  0.3235
39054SOL    HW219542   8.583   8.536   6.462 -0.6245 -0.9307  2.4519
39055SOL     OW19543   3.947   9.903   3.423 -0.3500 -0.5971  0.1862
39055SOL    HW119544   3.876   9.842   3.406 -1.5110  0.3216  1.5070
39055SOL    HW219545   3.971   9.888   3.515  1.7670 -1.4686 -0.4468
39056SOL     OW19546   1.723   5.530   9.458  0.3417 -0.0447  0.2110
39056SOL    HW119547   1.666   5.455   9.475  0.4542 -0.6039 -1.7141
39056SOL    HW219548   1.806   5.508   9.501  0.1655 -0.7138  0.2130
39057SOL     OW19549   6.503   3.593   9.924  0.1083  0.1936 -1.1455
39057SOL    HW119550   6.595   3.570   9.939 -0.8038 -1.8332  2.4946
39057SOL    HW219551   6.491   3.673   9.975 -0.3920 -0.2099 -0.6225
39058SOL     OW19552   5.696   5.502   4.192  0.1761  0.1556 -0.2169
39058SOL    HW119553   5.781   5.496   4.148  1.9103 -1.6009  2.9956
39058SOL    HW219554   5.698   5.587   4.236 -0.5158  0.8392 -1.4466
39059SOL     OW19555  10.114   5.973   1.856 -0.1490  0.0147  0.1626
39059SOL    HW119556  10.073   5.886   1.857 -0.3130  0.0780 -0.7081
39059SOL    HW219557  10.086   6.012   1.774  0.3132  0.7150  0.3295
39060SOL     OW19558   6.995   1.489  10.342  0.1628  0.4165 -0.7830
39060SOL    HW119559   7.056   1.559  10.366 -0.7475  1.1999 -0.6830
39060SOL    HW219560   6.945   1.525  10.268  0.9553 -0.8623 -1.9911
39061SOL     OW19561   9.135   0.803   0.573  0.5634  0.1606 -0.0538
39061SOL    HW119562   9.067   0.770   0.514  1.4533  0.8997 -1.5209
39061SOL    HW219563   9.143   0.896   0.551  1.4898  0.2608  0.6632
39062SOL     OW19564   0.672   7.765   4.686 -0.0235 -0.5525 -0.0899
39062SOL    HW119565   0.742   7.720   4.639 -1.7298 -2.0538 -1.3473
39062SOL    HW219566   0.617   7.801   4.617  0.7378  2.7571  0.8777
39063SOL     OW19567   4.209   1.022   2.629  0.5451 -0.0659 -0.2493
39063SOL    HW119568   4.250   0.961   2.690  1.9422  1.0629 -0.0133
39063SOL    HW219569   4.130   1.052   2.675 -0.1304 -1.5972 -0.3454
39064SOL     OW19570   5.416   8.129   6.173  0.0855 -0.2896  0.1819
39064SOL    HW119571   5.337   8.096   6.218  0.5702  0.0005  1.2687
39064SOL    HW219572   5.389   8.213   6.137 -0.3002 -0.5070 -0.0495
39065SOL     OW19573   1.807   8.157   7.348  0.5606 -0.2184  0.5068
39065SOL    HW119574   1.749   8.218   7.303 -0.6237 -2.1563 -0.7250
39065SOL    HW219575   1.884   8.151   7.292  0.0437 -0.9392 -0.1430
39066SOL     OW19576   5.046   1.539   0.087 -0.1899  0.3066  0.0692
39066SOL    HW119577   5.133   1.557   0.123  0.0226  0.5229 -0.5382
39066SOL    HW219578   5.030   1.613   0.028 -1.8277  1.6047  1.9946
39067SOL     OW19579   6.452   3.000   2.102  0.0431 -0.6862  0.0776
39067SOL    HW119580   6.536   3.041   2.124  0.3647 -0.9581 -0.6277
39067SOL    HW219581   6.458   2.981   2.009 -0.4471 -1.5215  0.2017
39068SOL     OW19582   3.072   7.145   4.156 -0.0163 -0.1581 -0.1910
39068SOL    HW119583   3.068   7.077   4.224  0.6156  1.4390  1.5162
39068SOL    HW219584   3.021   7.108   4.083 -0.1707 -2.2109  0.8702
39069SOL     OW19585   9.608  10.495   6.682 -0.6245  0.1076  0.2721
39069SOL    HW119586   9.694  10.528   6.655 -0.9176 -0.3528 -1.3211
39069SOL    HW219587   9.625  10.448   6.764  0.4902  0.6819  0.3982
39070SOL     OW19588   3.156   5.701   3.139 -0.0460  0.1493 -0.7165
39070SOL    HW119589   3.141   5.796   3.141 -0.7919  0.0413  1.2555
39070SOL    HW219590   3.078   5.666   3.097  0.2740  0.3998 -1.5385
39071SOL     OW19591   1.317   8.703   9.621 -0.1060  0.0362 -0.4125
39071SOL    HW119592   1.353   8.789   9.643 -0.3080 -0.0951  0.4625
39071SOL    HW219593   1.246   8.690   9.684 -0.6243 -0.4164 -1.0739
39072SOL     OW19594   9.148   1.320   2.671 -0.5904 -0.1167  0.0731
39072SOL    HW119595   9.196   1.403   2.667 -1.2074  0.2201 -0.5019
39072SOL    HW219596   9.146   1.299   2.765  1.2353 -0.4924  0.0585
39073SOL     OW19597   4.742   4.272   7.993  0.3177 -0.5352  0.0457
39073SOL    HW119598   4.824   4.222   7.998  1.3130  1.1360  2.9438
39073SOL    HW219599   4.684   4.218   7.940  2.5303 -2.9172 -0.1379
39074SOL     OW19600   3.749   3.083   7.899  0.1191 -0.3754 -0.1233
39074SOL    HW119601   3.670   3.138   7.902  1.3217  1.4042  0.6791
39074SOL    HW219602   3.744   3.030   7.978 -1.1773 -1.6625 -1.0215
39075SOL     OW19603   8.587  10.345   0.106  0.4061 -0.8313  0.1373
39075SOL    HW119604   8.511  10.324   0.160 -0.5988  0.5770 -0.6861
39075SOL    HW219605   8.629  10.418   0.152  0.5295 -0.7554 -0.0974
39076SOL     OW19606   8.528   1.816   4.678 -0.3789 -0.1615  0.3320
39076SOL    HW119607   8.602   1.757   4.694 -0.8566 -1.5050 -1.8798
39076SOL    HW219608   8.556   1.900   4.714  0.7538 -1.4351  2.7092
39077SOL     OW19609   4.475   1.240   6.770 -0.1799 -0.7073  0.1032
39077SOL    HW119610   4.552   1.183   6.779 -0.3965 -0.7852  1.7656
39077SOL    HW219611   4.413   1.206   6.834 -0.4809  1.1512  0.8500
39078SOL     OW19612   5.784   0.044   1.764 -0.1483  0.2440 -0.5978
39078SOL    HW119613   5.759   0.012   1.850  1.8736  0.3751  0.0856
39078SOL    HW219614   5.804  -0.035   1.714  0.1187  0.2333 -0.4731
39079SOL     OW19615   1.230   0.358   8.061  0.0231 -0.0315  0.4048
39079SOL    HW119616   1.172   0.282   8.065 -1.0201  0.8028  2.6716
39079SOL    HW219617   1.306   0.332   8.112  0.6955 -0.3072 -0.6935
39080SOL     OW19618   6.192   6.219   1.491  0.5979  0.3827 -0.4925
39080SOL    HW119619   6.138   6.235   1.568 -0.5000  0.4300 -1.2458
39080SOL    HW219620   6.203   6.305   1.451  2.5606  0.6398  0.4546
39081SOL     OW19621   1.720   2.320   9.372 -0.3509  0.0995  0.8216
39081SOL    HW119622   1.656   2.280   9.313 -0.5823  0.5273  0.7753
39081SOL    HW219623   1.687   2.301   9.460 -0.5464  0.3248  0.7974
39082SOL     OW19624  10.493   6.431   7.093 -0.6306  0.2861  0.0304
39082SOL    HW119625  10.545   6.375   7.035 -0.3933 -1.2580  1.6419
39082SOL    HW219626  10.508   6.520   7.061 -0.0403 -0.4562 -1.8757
39083SOL     OW19627   3.002   8.983   1.055  0.2277 -0.1663  0.3327
39083SOL    HW119628   2.946   8.924   1.005  0.9472 -0.8644  0.3275
39083SOL    HW219629   2.953   8.999   1.136 -0.3469 -0.0897 -0.0230
39084SOL     OW19630   2.821   4.110   2.607 -0.4514  0.6539  0.4435
39084SOL    HW119631   2.895   4.100   2.548 -2.3584  0.6967 -2.1446
39084SOL    HW219632   2.766   4.176   2.566 -2.0449  0.4683  2.1376
39085SOL     OW19633   4.001   0.297   7.395  0.0874 -0.9196  0.2754
39085SOL    HW119634   4.078   0.245   7.415 -0.6046 -0.8813  3.6608
39085SOL    HW219635   4.019   0.335   7.309  3.3948 -1.6187  0.5293
39086SOL     OW19636   7.370   8.893   2.716  0.0474 -0.1077  0.9032
39086SOL    HW119637   7.277   8.912   2.705  0.1329  0.2196  0.7586
39086SOL    HW219638   7.372   8.822   2.780 -0.3799 -1.1241 -0.1706
39087SOL     OW19639   8.439   5.679   8.072  0.6158 -0.1369 -0.2073
39087SOL    HW119640   8.357   5.658   8.026  0.3447  2.0677 -0.8624
39087SOL    HW219641   8.439   5.774   8.077  3.1165 -0.0841 -0.1403
39088SOL     OW19642   4.214   4.940   6.162 -0.0561  0.1156 -0.7444
39088SOL    HW119643   4.123   4.963   6.178 -0.5205 -3.1012  2.9520
39088SOL    HW219644   4.264   4.999   6.218  0.0075  0.8338 -1.5496
39089SOL     OW19645   9.953   3.495   2.824 -0.2392 -0.7597  0.2153
39089SOL    HW119646   9.973   3.563   2.760 -0.4066 -2.5852 -1.8833
39089SOL    HW219647  10.038   3.461   2.850 -0.2017 -0.7043  0.1655
39090SOL     OW19648   3.193   9.908   3.897  0.4185 -0.0269 -0.5097
39090SOL    HW119649   3.223   9.818   3.910  0.4699  0.2312  1.4586
39090SOL    HW219650   3.255   9.962   3.945 -0.2686  0.9638 -0.6846
39091SOL     OW19651   2.964   7.353   4.847 -0.4631 -0.7756  0.1407
39091SOL    HW119652   3.059   7.345   4.850 -0.3535  0.3615  0.0329
39091SOL    HW219653   2.938   7.361   4.938 -0.1161  2.1149  0.0864
39092SOL     OW19654   9.923   4.923   9.349  0.0663 -0.1032 -0.1168
39092SOL    HW119655   9.982   4.848   9.344  0.5339  0.1903  0.7893
39092SOL    HW219656   9.921   4.958   9.260 -0.3117 -1.2907 -0.5950
39093SOL     OW19657   4.860   1.300   7.962 -0.2939  0.0530  0.5843
39093SOL    HW119658   4.914   1.300   8.041 -1.3360  2.2879  1.3877
39093SOL    HW219659   4.870   1.212   7.926  2.2448 -0.2387  1.7755
39094SOL     OW19660   9.140   4.415   5.653 -0.0399 -0.0911 -0.2164
39094SOL    HW119661   9.233   4.394   5.645 -0.0415 -0.0550 -0.3334
39094SOL    HW219662   9.099   4.331   5.676 -0.0111 -0.1627 -0.4168
39095SOL     OW19663   1.407   9.860   6.256 -0.2592  0.4456  0.3192
39095SOL    HW119664   1.472   9.789   6.258 -1.2784 -0.5004  0.7568
39095SOL    HW219665   1.432   9.913   6.180  0.2814 -0.6128 -0.2667
39096SOL     OW19666   6.471   2.627   2.343  1.0367  0.4607 -0.4771
39096SOL    HW119667   6.430   2.611   2.428 -0.2526 -0.7959 -1.2819
39096SOL    HW219668   6.559   2.656   2.363  0.8821 -0.1920  1.2824
39097SOL     OW19669   0.433   7.335   1.217 -0.3820  0.4156 -0.1349
39097SOL    HW119670   0.371   7.263   1.226 -0.9217  0.7857 -0.8190
39097SOL    HW219671   0.378   7.414   1.217  0.2848  0.9519  2.0435
39098SOL     OW19672   7.115   6.153   8.506  0.6584 -0.4041  0.2521
39098SOL    HW119673   7.045   6.088   8.514  1.5655 -1.5556 -0.6732
39098SOL    HW219674   7.146   6.167   8.595 -0.4546 -0.1993  0.6207
39099SOL     OW19675   2.276   1.884   0.577  0.0247 -0.2567 -0.0620
39099SOL    HW119676   2.315   1.810   0.623  1.4900  0.1183 -0.6383
39099SOL    HW219677   2.252   1.945   0.647  0.2532 -0.6113  0.3331
39100SOL     OW19678   6.075   8.223   4.171 -0.2225 -0.0700  0.2528
39100SOL    HW119679   6.041   8.136   4.191 -0.9543  0.3486  0.8507
39100SOL    HW219680   6.165   8.207   4.141 -1.2906 -1.3551 -2.7305
39101SOL     OW19681   1.838  10.458   5.514 -0.3629 -0.3500 -0.4176
39101SOL    HW119682   1.888  10.451   5.596 -1.4384 -1.3439  0.1840
39101SOL    HW219683   1.827  10.367   5.485 -0.7852 -0.0643 -1.1791
39102SOL     OW19684   6.081   4.768   4.248  0.3890  0.6460  0.1190
39102SOL    HW119685   6.069   4.841   4.187 -0.4184  1.2843  1.0152
39102SOL    HW219686   5.997   4.722   4.248 -0.3257  1.8249  2.2016
39103SOL     OW19687   0.420   6.926   8.558 -0.1493 -0.3402  0.4634
39103SOL    HW119688   0.389   6.897   8.472 -0.7430  2.2533 -0.2875
39103SOL    HW219689   0.339   6.942   8.608 -0.0878  3.0255 -0.2956
39104SOL     OW19690   7.187   3.518   7.961 -0.2730  0.1030 -0.3867
39104SOL    HW119691   7.253   3.550   7.901  0.7291 -0.0348  0.6166
39104SOL    HW219692   7.233   3.457   8.019 -1.1154  0.4825  0.7457
39105SOL     OW19693   9.302   5.775   4.845  0.5668 -0.6359 -0.4958
39105SOL    HW119694   9.325   5.688   4.877  0.0882 -0.8803 -0.8069
39105SOL    HW219695   9.212   5.766   4.813  0.7198 -0.1768 -1.0741
39106SOL     OW19696   7.902   5.107   4.817  0.0658  0.1272 -0.2501
39106SOL    HW119697   7.898   5.187   4.765  0.2860 -0.8973 -1.9261
39106SOL    HW219698   7.989   5.107   4.855 -0.3164  1.1984  0.6782
39107SOL     OW19699  10.795   6.438   5.684 -0.1302 -0.0777  0.3450
39107SOL    HW119700  10.825   6.527   5.665  0.2332 -0.5232 -1.2890
39107SOL    HW219701  10.733   6.449   5.756  0.5492  1.3903  0.7467
39108SOL     OW19702   0.249   1.552  10.269  0.1231  0.4368  0.4234
39108SOL    HW119703   0.289   1.480  10.318 -1.2100 -1.4384 -1.0949
39108SOL    HW219704   0.182   1.510  10.215 -0.2127  2.7447 -1.0947
39109SOL     OW19705  10.720   9.001   9.709  0.0560 -0.1760 -0.0807
39109SOL    HW119706  10.731   8.996   9.614  0.1463 -1.1505 -0.0336
39109SOL    HW219707  10.677   9.085   9.724 -1.4900 -0.7320 -1.1422
39110SOL     OW19708   1.868   6.050   6.953  0.6664 -0.3745  0.3524
39110SOL    HW119709   1.867   6.092   6.867  1.4765 -0.2370  0.3954
39110SOL    HW219710   1.776   6.044   6.978  0.3309 -1.4427 -1.0069
39111SOL     OW19711   3.109   5.391   2.945  0.1461  0.2358  0.5315
39111SOL    HW119712   3.160   5.459   2.902 -0.8186 -1.2149 -3.2396
39111SOL    HW219713   3.150   5.309   2.919 -2.6848 -0.8785 -0.8531
39112SOL     OW19714  10.575   5.173   1.168 -0.2872 -0.8220 -0.4406
39112SOL    HW119715  10.483   5.199   1.172  0.2075  1.8105 -2.9014
39112SOL    HW219716  10.580   5.115   1.091 -0.0793 -2.1689  0.5502
39113SOL     OW19717   2.283   7.558   4.837 -0.0771 -0.2536 -0.4562
39113SOL    HW119718   2.359   7.613   4.852 -0.6470  0.5368 -0.4126
39113SOL    HW219719   2.316   7.485   4.785  0.9619 -0.5663  0.5950
39114SOL     OW19720   8.219   9.624   5.084 -0.6604 -0.0374  0.0540
39114SOL    HW119721   8.202   9.530   5.077 -0.9359  0.1188 -1.5433
39114SOL    HW219722   8.313   9.632   5.070 -0.1666 -0.2683  2.6437
39115SOL     OW19723   5.045   3.405   8.841 -0.3503  0.4210 -0.0158
39115SOL    HW119724   4.968   3.404   8.785 -0.3639  2.5581 -0.1158
39115SOL    HW219725   5.053   3.496   8.870  2.1987  0.3250 -0.1259
39116SOL     OW19726   4.197  10.142   0.969 -0.4050  0.4632 -0.0453
39116SOL    HW119727   4.251  10.140   0.890 -1.3836  1.8775 -0.7990
39116SOL    HW219728   4.259  10.126   1.041  0.5845 -0.3388 -1.0442
39117SOL     OW19729   9.345   0.486   4.732  0.0058 -0.4829  0.0009
39117SOL    HW119730   9.436   0.475   4.760 -0.4755 -0.5338  1.6897
39117SOL    HW219731   9.305   0.400   4.745 -0.4171 -0.3243 -0.2035
39118SOL     OW19732   9.321  10.755   9.269  0.2190  0.8501  0.4047
39118SOL    HW119733   9.286  10.671   9.300 -2.0334  0.5970 -2.3043
39118SOL    HW219734   9.267  10.821   9.312 -0.1452  0.7074  0.1804
39119SOL     OW19735   5.689   3.188   4.190 -0.4136  0.2425  0.5995
39119SOL    HW119736   5.737   3.120   4.143  0.5727  0.6724  0.9703
39119SOL    HW219737   5.651   3.143   4.265 -1.6609 -0.3647 -0.3562
39120SOL     OW19738   7.219   8.269   6.000  0.4476 -0.5956  0.0562
39120SOL    HW119739   7.190   8.235   6.085  2.2654  0.8827  1.3740
39120SOL    HW219740   7.194   8.361   6.002  0.2696 -0.6067 -1.1641
39121SOL     OW19741   5.348   3.758   4.085  0.1049  0.3455  0.0067
39121SOL    HW119742   5.306   3.675   4.108 -0.8428  1.2986  1.9047
39121SOL    HW219743   5.348   3.809   4.166  3.3181  1.1318 -0.3373
39122SOL     OW19744  10.274   3.053   1.745  0.4377 -0.6063  0.1340
39122SOL    HW119745  10.205   2.988   1.730 -0.6738  0.8053 -1.1047
39122SOL    HW219746  10.339   3.036   1.677  0.5605 -0.9474  0.3353
39123SOL     OW19747   8.330   7.205   2.338 -0.0065  1.0006  0.4612
39123SOL    HW119748   8.413   7.252   2.330  0.0411  1.1152  1.4971
39123SOL    HW219749   8.266   7.274   2.358 -0.3338  0.8934 -0.1870
39124SOL     OW19750   6.238   7.232   8.908  0.1061  0.7832  0.5287
39124SOL    HW119751   6.167   7.238   8.972 -1.2879  0.9353 -0.9643
39124SOL    HW219752   6.263   7.322   8.890  1.1129  0.7131  1.4773
39125SOL     OW19753   2.150   4.959   0.303 -0.3038  0.2171 -0.2310
39125SOL    HW119754   2.235   4.923   0.278 -0.9311 -1.5448  0.0698
39125SOL    HW219755   2.123   5.011   0.227  0.0351 -1.0469 -1.2484
39126SOL     OW19756   2.020   9.592   9.552  0.3096 -0.2760  0.2028
39126SOL    HW119757   2.061   9.657   9.495  0.4155 -0.6140 -0.1107
39126SOL    HW219758   1.954   9.550   9.497  1.3723 -1.5915 -0.1348
39127SOL     OW19759   9.157   5.033   9.594 -0.0295  0.4198  0.2986
39127SOL    HW119760   9.250   5.055   9.604 -0.4739  1.8506  1.6601
39127SOL    HW219761   9.148   4.948   9.638  0.5118  0.6133  0.8050
39128SOL     OW19762   1.739   9.787   6.358 -0.0445 -0.6184 -0.1777
39128SOL    HW119763   1.737   9.866   6.412 -1.2160 -0.0196 -1.0539
39128SOL    HW219764   1.828   9.785   6.323 -0.0688  0.4451 -0.3314
39129SOL     OW19765   3.445   1.769   8.843  0.3960  0.3232 -0.2619
39129SOL    HW119766   3.403   1.847   8.805 -1.8671 -1.5541 -1.8868
39129SOL    HW219767   3.405   1.761   8.930 -0.3111  0.2812 -0.5845
39130SOL     OW19768   3.434   7.397   9.136  0.2039  0.4145  1.0222
39130SOL    HW119769   3.382   7.450   9.196  0.7301  0.8395  1.1111
39130SOL    HW219770   3.447   7.454   9.059  1.4828  0.7514  1.4612
39131SOL     OW19771   6.138   2.947   6.352 -0.1270 -0.3781  0.3649
39131SOL    HW119772   6.203   3.017   6.342 -0.6073  0.1778  1.0329
39131SOL    HW219773   6.163   2.882   6.287  0.0265  0.6442 -0.6311
39132SOL     OW19774   6.552   8.427   9.365  0.2016  0.0193 -0.5638
39132SOL    HW119775   6.629   8.411   9.310 -0.6939  0.6333 -2.0571
39132SOL    HW219776   6.540   8.345   9.413  1.8168 -0.0558 -0.2275
39133SOL     OW19777   2.221   6.921   6.873  0.2840  0.8000  0.5814
39133SOL    HW119778   2.300   6.877   6.904 -0.0146  0.2984  0.6438
39133SOL    HW219779   2.181   6.859   6.813 -0.0724  1.0430  0.5644
39134SOL     OW19780   4.624   5.364   0.732  0.1493  0.0746  0.1092
39134SOL    HW119781   4.687   5.428   0.766 -0.0107  0.4493 -0.2928
39134SOL    HW219782   4.598   5.313   0.809 -1.1873  1.7341  0.8166
39135SOL     OW19783   4.285   1.037   5.478 -0.4682 -0.0607  0.4048
39135SOL    HW119784   4.256   1.128   5.482  0.4423  0.2227  0.8616
39135SOL    HW219785   4.279   1.013   5.385  0.9927  1.0459  0.0007
39136SOL     OW19786   7.304   1.019  10.376  0.2958  0.1633 -0.4698
39136SOL    HW119787   7.324   0.960  10.303  4.5321  1.2603 -0.4543
39136SOL    HW219788   7.282   1.102  10.335  2.9753  0.8653 -0.6550
39137SOL     OW19789   4.873   4.985   5.492 -0.2166 -0.1507 -0.2039
39137SOL    HW119790   4.922   5.047   5.439 -0.8197  1.7784  1.3858
39137SOL    HW219791   4.782   5.014   5.487 -0.4311 -0.5413  1.0391
39138SOL     OW19792   8.379  10.172   8.376  0.2623 -0.7512  0.3021
39138SOL    HW119793   8.346  10.085   8.401 -0.2231 -0.1853  1.7309
39138SOL    HW219794   8.319  10.200   8.307  0.3863 -1.5173 -0.1343
39139SOL     OW19795   7.588   5.107   9.526  0.2276  0.2895  0.3934
39139SOL    HW119796   7.561   5.134   9.438  0.8741  0.3116  0.1930
39139SOL    HW219797   7.565   5.014   9.531 -0.2363  0.4053  0.3702
39140SOL     OW19798   6.503   9.939   4.998  0.0656 -0.3032 -0.3746
39140SOL    HW119799   6.479   9.944   5.091  0.5922 -1.3270 -0.1594
39140SOL    HW219800   6.526  10.028   4.974  0.6161 -0.1336  0.6880
39141SOL     OW19801   9.653   8.141   7.990 -0.4852  0.5930  0.4620
39141SOL    HW119802   9.698   8.150   8.073  0.8660 -2.2278  0.1441
39141SOL    HW219803   9.581   8.081   8.008  0.6137 -1.1238 -0.5978
39142SOL     OW19804   7.719  10.026   9.198  0.0796  0.7611 -0.2334
39142SOL    HW119805   7.626  10.006   9.196  0.3962 -0.7296 -0.8151
39142SOL    HW219806   7.750   9.990   9.281  0.8289 -2.2196 -1.6860
39143SOL     OW19807   8.430   2.879   9.244  0.1758 -0.1695  0.1353
39143SOL    HW119808   8.348   2.928   9.249  1.0223  1.1858  1.7106
39143SOL    HW219809   8.421   2.810   9.309  0.2768 -0.0566  0.2675
39144SOL     OW19810   1.750   4.411   2.480 -0.5983 -0.0536  0.0179
39144SOL    HW119811   1.806   4.401   2.403 -1.9043  0.4134 -1.0285
39144SOL    HW219812   1.799   4.370   2.551  1.0033  0.2551 -0.8817
39145SOL     OW19813  10.231   5.530   6.528 -0.2410 -0.1622  0.4384
39145SOL    HW119814  10.230   5.611   6.475  0.8458 -0.0717  0.5163
39145SOL    HW219815  10.314   5.488   6.504 -0.2519 -0.6720  1.2632
39146SOL     OW19816   1.147   5.505   7.838  0.0756 -0.3958  0.1375
39146SOL    HW119817   1.098   5.473   7.914 -0.1086  0.3929  0.3566
39146SOL    HW219818   1.235   5.523   7.872 -0.4499  1.5132  0.5577
39147SOL     OW19819   0.289   7.093   1.259  0.2652 -0.2136 -0.5468
39147SOL    HW119820   0.380   7.073   1.237  0.4829  0.1752 -0.0478
39147SOL    HW219821   0.240   7.015   1.236  0.8506 -0.7255 -0.0963
39148SOL     OW19822   9.515   0.817   4.960  0.1287  0.3522 -0.1332
39148SOL    HW119823   9.597   0.780   4.927 -0.5284 -0.8957 -0.4318
39148SOL    HW219824   9.536   0.847   5.048  1.2998  1.5164 -0.7796
39149SOL     OW19825   5.781   1.490   0.596 -0.1275 -0.6533 -0.0124
39149SOL    HW119826   5.811   1.406   0.631 -0.1735 -0.4767  0.4673
39149SOL    HW219827   5.849   1.553   0.619 -0.7681 -0.2799  0.9560
39150SOL     OW19828   1.756   4.977   1.301 -0.3281 -0.6417  0.2383
39150SOL    HW119829   1.681   4.920   1.317 -1.4262  0.1507 -1.7409
39150SOL    HW219830   1.781   4.960   1.210  1.6569 -0.5819  0.7165
39151SOL     OW19831  10.057   6.530   4.756  0.2509 -0.5323  0.0081
39151SOL    HW119832  10.051   6.540   4.851  1.0423  0.1735 -0.0007
39151SOL    HW219833   9.976   6.486   4.731 -0.1621 -0.3366  0.9588
39152SOL     OW19834   4.998   7.923   1.573 -0.3007 -0.4443  0.1516
39152SOL    HW119835   4.980   7.844   1.625  1.3868 -0.7102  0.3954
39152SOL    HW219836   4.937   7.988   1.607  0.3309 -0.7867  2.0991
39153SOL     OW19837   5.905   0.820   7.474  0.5022  0.1620 -0.1469
39153SOL    HW119838   5.905   0.768   7.394  0.4085  1.1209 -0.7910
39153SOL    HW219839   5.852   0.770   7.535  3.9736 -2.7910  0.8268
39154SOL     OW19840   4.594   6.673   9.191 -0.6898 -0.4821 -0.1393
39154SOL    HW119841   4.657   6.731   9.148 -1.0211  1.4574  1.8331
39154SOL    HW219842   4.626   6.664   9.280 -2.2178 -0.9970  0.3987
39155SOL     OW19843   6.501   7.143   3.241 -0.3323 -0.2327  0.3350
39155SOL    HW119844   6.515   7.235   3.218 -2.2245 -0.0339 -0.2237
39155SOL    HW219845   6.494   7.143   3.336  0.3985  0.0674  0.4008
39156SOL     OW19846   2.163   7.232   3.422  0.5067 -0.1109  0.4737
39156SOL    HW119847   2.172   7.139   3.443  0.7395 -0.6927 -1.8694
39156SOL    HW219848   2.074   7.255   3.449 -0.0564 -1.4133 -0.1867
39157SOL     OW19849   4.620   8.539   9.819  0.3564  0.1930  0.7111
39157SOL    HW119850   4.673   8.551   9.740 -0.5871  1.8964  0.2801
39157SOL    HW219851   4.534   8.574   9.796 -0.8385 -1.9916  1.5686
39158SOL     OW19852   4.501   9.283   3.749  0.0286 -0.4919 -0.2922
39158SOL    HW119853   4.414   9.278   3.790  0.7926 -2.7519  1.1776
39158SOL    HW219854   4.552   9.339   3.807  0.3797 -1.6133  0.5055
39159SOL     OW19855   4.989   6.056   0.388  0.4446  0.3599  0.6756
39159SOL    HW119856   4.937   5.988   0.431 -0.0087  0.1940 -0.1246
39159SOL    HW219857   4.938   6.136   0.400  0.3141  0.3120  0.4456
39160SOL     OW19858   8.950   6.553   4.156  0.2315 -0.2904  0.4287
39160SOL    HW119859   8.895   6.628   4.131 -0.2823 -0.3725  1.2831
39160SOL    HW219860   8.899   6.507   4.223  0.1072 -1.9777 -0.7584
39161SOL     OW19861   9.523   0.041   9.419  0.0054 -0.1798  0.4513
39161SOL    HW119862   9.481   0.054   9.504  1.5671 -0.0175  1.2320
39161SOL    HW219863   9.455   0.000   9.365 -0.9881 -0.3912  1.8037
39162SOL     OW19864   4.002   8.218  10.426  0.0052 -0.0557  0.3144
39162SOL    HW119865   3.974   8.289  10.368  3.3945  0.3346 -1.0752
39162SOL    HW219866   4.026   8.262  10.508 -1.3191 -0.1349  0.7687
39163SOL     OW19867   1.839   1.432   5.004  0.2332 -0.1037 -0.3153
39163SOL    HW119868   1.749   1.400   5.004  0.0912  0.1028 -2.7488
39163SOL    HW219869   1.832   1.526   5.019  0.2582 -0.3552  1.5573
39164SOL     OW19870   3.225   5.219   8.850  0.2223 -0.1158 -0.6485
39164SOL    HW119871   3.182   5.135   8.837 -1.3419  0.3090  1.2821
39164SOL    HW219872   3.158   5.284   8.831 -0.2349  0.5535  2.5882
39165SOL     OW19873   1.314   0.065   2.026 -0.2082 -0.0515 -0.3227
39165SOL    HW119874   1.324   0.045   2.119  1.2745 -0.2799 -0.5011
39165SOL    HW219875   1.259   0.143   2.024  0.1811  0.2664  0.7664
39166SOL     OW19876   7.135   4.107  10.194  0.1756 -0.2700  0.1697
39166SOL    HW119877   7.183   4.156  10.127 -0.3801 -0.6424 -0.5192
39166SOL    HW219878   7.044   4.110  10.165  0.1386 -1.8342  0.0179
39167SOL     OW19879   7.159   9.417   4.805 -0.1143 -0.3374  0.4819
39167SOL    HW119880   7.068   9.427   4.834 -0.4081 -1.1501 -0.1465
39167SOL    HW219881   7.153   9.393   4.713  0.7671  0.4372  0.1997
39168SOL     OW19882   1.583   9.743   2.687  0.1766  0.1032  0.2021
39168SOL    HW119883   1.496   9.763   2.724 -0.3015 -1.0917 -0.2132
39168SOL    HW219884   1.640   9.737   2.763 -0.1192  0.8472  0.4881
39169SOL     OW19885   5.227   1.953  10.343 -0.1452 -0.7326  0.3350
39169SOL    HW119886   5.264   2.019  10.401 -0.4534 -2.1561  2.2914
39169SOL    HW219887   5.277   1.959  10.262  2.1755 -0.4429  1.7166
39170SOL     OW19888  10.002   0.918   8.900 -0.1529  0.7356  0.2823
39170SOL    HW119889   9.924   0.963   8.932 -0.6200  0.7453 -0.8064
39170SOL    HW219890   9.976   0.826   8.894 -0.2615  0.8110 -0.5598
39171SOL     OW19891   3.866   3.196  10.123  0.6078 -0.0389  0.6795
39171SOL    HW119892   3.786   3.211  10.174 -0.2958 -0.3804 -0.5976
39171SOL    HW219893   3.886   3.281  10.084  0.4843 -0.0992  0.4797
39172SOL     OW19894   3.236   5.386   2.292  0.5106  0.5133  0.3296
39172SOL    HW119895   3.319   5.345   2.315  1.7488  2.8286  0.2727
39172SOL    HW219896   3.260   5.472   2.255 -1.9256  1.8383  1.5430
39173SOL     OW19897   4.804   5.742   3.089  0.2692 -0.3589 -0.0644
39173SOL    HW119898   4.739   5.797   3.134  1.7257  0.0111  1.6571
39173SOL    HW219899   4.759   5.658   3.077 -0.2618 -0.4005  1.8871
39174SOL     OW19900   9.886  10.447  10.780 -0.1400  0.3731  0.7651
39174SOL    HW119901   9.881  10.397  10.699 -1.1988  0.6700  0.6391
39174SOL    HW219902   9.884  10.381  10.850 -0.5724  0.1958  0.5836
39175SOL     OW19903   8.153   2.332   4.550 -0.3081 -0.2615 -0.7229
39175SOL    HW119904   8.075   2.277   4.550 -0.9792  0.6752 -0.4840
39175SOL    HW219905   8.224   2.272   4.528 -1.2197 -0.9480 -1.9061
39176SOL     OW19906   3.457   5.865   2.833 -0.0110  0.0142 -0.2149
39176SOL    HW119907   3.442   5.839   2.924 -0.3809 -1.5716 -0.6974
39176SOL    HW219908   3.553   5.862   2.823 -0.0245 -1.2268 -0.2292
39177SOL     OW19909   1.579   0.188   7.970  0.2939 -0.6682  0.1288
39177SOL    HW119910   1.621   0.273   7.981  1.5290 -1.0762 -1.1747
39177SOL    HW219911   1.602   0.140   8.050  1.5488 -0.5401 -0.1297
39178SOL     OW19912   4.979   1.984   7.446  0.2841  0.4522 -0.1707
39178SOL    HW119913   4.942   1.897   7.435 -0.3231  0.7576 -0.6557
39178SOL    HW219914   4.933   2.021   7.521 -0.5445  0.8841 -0.8591
39179SOL     OW19915   4.844   3.860   9.763 -0.0262 -0.3401 -0.6854
39179SOL    HW119916   4.844   3.786   9.824 -0.0251 -0.5390 -0.9272
39179SOL    HW219917   4.754   3.867   9.734 -0.1152  0.0351 -0.3228
39180SOL     OW19918   0.680   9.379   9.180  0.0480 -0.0997  0.7847
39180SOL    HW119919   0.638   9.464   9.170 -0.6207 -0.5983 -1.1175
39180SOL    HW219920   0.611   9.315   9.162  0.6975 -1.0443  1.5026
39181SOL     OW19921   7.341   3.757   8.165 -0.0143 -0.0508 -0.3434
39181SOL    HW119922   7.324   3.840   8.209  1.2682  0.3738 -0.5955
39181SOL    HW219923   7.259   3.736   8.120 -0.1544  1.4217 -0.8185
39182SOL     OW19924   2.960   0.268   3.729  0.2554  0.1354 -0.8643
39182SOL    HW119925   3.004   0.279   3.645  0.6230  1.1659 -0.5458
39182SOL    HW219926   2.951   0.356   3.764 -0.4015 -0.2250 -0.0670
39183SOL     OW19927   4.586   6.477   0.627  0.3812  0.4312 -0.2097
39183SOL    HW119928   4.501   6.520   0.632 -0.7957 -1.4786 -1.9742
39183SOL    HW219929   4.616   6.495   0.537  1.0458 -0.2848 -0.1403
39184SOL     OW19930   7.662   8.657   6.228 -0.0809  0.4575 -0.3876
39184SOL    HW119931   7.618   8.738   6.205  1.0874  0.7800 -1.6518
39184SOL    HW219932   7.740   8.684   6.275  0.0064  0.0320 -0.2793
39185SOL     OW19933   0.823   8.680  10.380 -0.1001  0.2769  0.4262
39185SOL    HW119934   0.863   8.671  10.293 -0.8541 -0.0931  0.1084
39185SOL    HW219935   0.797   8.590  10.403 -0.8990  0.5361  0.5497
39186SOL     OW19936   2.488   0.896   9.460  0.0992  0.6389  0.1994
39186SOL    HW119937   2.518   0.848   9.538  0.7441  0.8301  0.0769
39186SOL    HW219938   2.539   0.857   9.388  0.8668  1.7063  0.1423
39187SOL     OW19939   4.692   4.321   4.421  0.1262 -0.1651  0.7552
39187SOL    HW119940   4.718   4.410   4.446 -1.1907 -0.1098  2.0462
39187SOL    HW219941   4.759   4.265   4.459  0.5033  0.2197  0.6631
39188SOL     OW19942   7.734   5.008   2.710 -0.1417 -0.3209 -0.4303
39188SOL    HW119943   7.662   4.951   2.684  0.5306 -1.3221 -0.1850
39188SOL    HW219944   7.806   4.985   2.650  0.5906 -0.7836  0.5879
39189SOL     OW19945  10.692   3.596   9.475 -0.5690 -0.3550  0.4698
39189SOL    HW119946  10.663   3.536   9.407 -1.2150  2.4508 -1.9792
39189SOL    HW219947  10.654   3.681   9.450  2.0009  1.5539  2.4298
39190SOL     OW19948   1.495   5.331   2.579 -0.1588 -0.1605 -0.1938
39190SOL    HW119949   1.573   5.356   2.530  2.2233  0.7024  3.6320
39190SOL    HW219950   1.503   5.236   2.591  0.4888 -0.0354  0.4116
39191SOL     OW19951   6.848   9.460   9.583 -0.8783  0.0938  0.2973
39191SOL    HW119952   6.824   9.521   9.653 -2.2581  0.6887 -0.6602
39191SOL    HW219953   6.896   9.514   9.520  1.8161 -0.7645  1.4674
39192SOL     OW19954   6.054   9.140   7.204  0.1242  0.0737  0.0056
39192SOL    HW119955   6.024   9.229   7.223 -0.9394 -0.4196  0.7853
39192SOL    HW219956   6.134   9.130   7.255  1.0772  1.0634 -1.2504
39193SOL     OW19957   1.209   0.636   2.816  0.5613 -0.1166  0.1305
39193SOL    HW119958   1.187   0.727   2.794  3.0814  0.4279 -0.5950
39193SOL    HW219959   1.207   0.633   2.911 -1.1397  0.2157  0.1344
39194SOL     OW19960   9.877   6.699   0.688  0.0668  0.4157 -0.4208
39194SOL    HW119961   9.917   6.776   0.647  0.4931  0.3246 -0.1773
39194SOL    HW219962   9.852   6.643   0.615  0.3387  0.4976 -0.5772
39195SOL     OW19963   4.238   6.410   8.190  0.4293 -0.5409  0.7242
39195SOL    HW119964   4.321   6.439   8.154  0.8510  0.7025  2.5845
39195SOL    HW219965   4.261   6.338   8.250 -0.0932 -1.5887 -0.2891
39196SOL     OW19966   9.504   8.404   6.497  0.5651  0.4751  0.2740
39196SOL    HW119967   9.474   8.485   6.455 -1.0346 -0.1682  0.0898
39196SOL    HW219968   9.565   8.365   6.434 -0.9743  0.0544 -1.0210
39197SOL     OW19969   2.507   9.767   9.389  0.2600 -0.2325  0.2063
39197SOL    HW119970   2.483   9.704   9.457 -1.6793  0.2249 -0.0105
39197SOL    HW219971   2.504   9.852   9.432 -1.3448  0.0967 -0.4935
39198SOL     OW19972   1.423  10.551   1.677 -0.2626  0.5315  0.4066
39198SOL    HW119973   1.457  10.610   1.609  1.4398 -0.2299  0.5339
39198SOL    HW219974   1.442  10.598   1.759 -0.5347  0.5946  0.4324
39199SOL     OW19975   6.442   0.373   0.996 -0.1796 -0.5111 -0.3725
39199SOL    HW119976   6.479   0.372   1.085 -1.1260  0.0292  0.0451
39199SOL    HW219977   6.517   0.390   0.940  0.0500  2.2141  0.5925
39200SOL     OW19978   8.494   1.884   3.366  0.3029  0.3328 -0.2321
39200SOL    HW119979   8.499   1.920   3.454 -1.0427  0.1716 -0.0671
39200SOL    HW219980   8.465   1.956   3.311  0.5731  0.2857 -0.4384
39201SOL     OW19981   5.789  10.092   5.877 -0.0734 -0.4463  0.6305
39201SOL    HW119982   5.740  10.138   5.809  0.9286  0.5224  0.5360
39201SOL    HW219983   5.834  10.021   5.832  1.0538  0.5438  0.1429
39202SOL     OW19984   2.572   2.478   3.393  0.5479 -0.0178 -0.1496
39202SOL    HW119985   2.570   2.510   3.483 -1.6776  0.3023 -0.2618
39202SOL    HW219986   2.480   2.474   3.366  1.1710  0.9360 -2.7600
39203SOL     OW19987   0.927   0.202   3.099 -0.3140 -0.6665 -0.2264
39203SOL    HW119988   0.974   0.272   3.145  1.1944  0.2197 -2.8798
39203SOL    HW219989   0.861   0.172   3.161  1.5328  0.4212  2.4507
39204SOL     OW19990   4.253   6.784   2.875  0.6742  0.4040  0.4197
39204SOL    HW119991   4.241   6.843   2.949  0.5259  1.8194 -0.6968
39204SOL    HW219992   4.165   6.756   2.851  0.5214  1.5728 -0.4744
39205SOL     OW19993   2.734   6.635   6.067 -0.0642 -1.1747 -0.3312
39205SOL    HW119994   2.649   6.671   6.040 -0.4271 -0.8133  1.2070
39205SOL    HW219995   2.714   6.548   6.101  0.4302 -1.7503 -1.4550
39206SOL     OW19996   7.983   0.888   8.402  0.1359  0.2859  0.3126
39206SOL    HW119997   8.011   0.979   8.392 -0.7438  0.5439  0.1145
39206SOL    HW219998   7.907   0.891   8.460 -0.2276 -0.2555 -0.1138
39207SOL     OW19999   8.017   9.197   9.036 -0.4477  0.0579  0.5332
39207SOL    HW120000   8.091   9.231   9.086  2.5842  0.4507 -3.6585
39207SOL    HW220001   8.025   9.102   9.042  1.5162  0.0562 -1.0885
39208SOL     OW20002   3.757   2.116   9.885  0.2146  0.2461 -0.4233
39208SOL    HW120003   3.671   2.083   9.859  0.8115 -0.4367 -1.5825
39208SOL    HW220004   3.737   2.193   9.938 -1.1131  0.0266 -0.5523
39209SOL     OW20005   6.395   0.134  10.331  0.7344 -0.0876 -0.0263
39209SOL    HW120006   6.441   0.217  10.344  0.1010  0.0660  1.4088
39209SOL    HW220007   6.338   0.126  10.408  0.6880 -1.7884 -0.2040
39210SOL     OW20008   6.942   3.059   6.800 -0.6480  0.0126  0.0244
39210SOL    HW120009   6.993   3.138   6.818 -0.6828  0.1525 -0.4771
39210SOL    HW220010   6.998   3.007   6.742 -0.4356 -0.5438  0.7080
39211SOL     OW20011   1.181   9.459   8.005  0.7472 -0.0420 -0.1882
39211SOL    HW120012   1.255   9.447   8.064  0.3451 -0.6914  0.1980
39211SOL    HW220013   1.220   9.467   7.918  1.2495 -0.6209 -0.0185
39212SOL     OW20014   0.790   8.305   4.172 -0.5195 -0.3186  0.1748
39212SOL    HW120015   0.886   8.306   4.169 -0.5348 -0.4479 -0.5448
39212SOL    HW220016   0.767   8.390   4.208 -0.1575  0.2807 -0.9518
39213SOL     OW20017   0.329   5.655   0.215  0.3955 -0.0978 -0.0740
39213SOL    HW120018   0.249   5.694   0.250  0.4406 -0.4783  0.4609
39213SOL    HW220019   0.302   5.570   0.182  1.1753 -1.9223  3.4807
39214SOL     OW20020   8.571   2.897   8.967 -0.1408  0.4111 -0.4352
39214SOL    HW120021   8.492   2.950   8.977  0.2102  0.8005  0.4492
39214SOL    HW220022   8.578   2.850   9.050 -1.0657 -1.9362 -1.6062
39215SOL     OW20023   0.202   6.565   8.148 -0.6367 -0.3351 -0.1376
39215SOL    HW120024   0.278   6.508   8.148 -0.7764 -0.5240  0.1730
39215SOL    HW220025   0.231   6.644   8.102 -0.2234 -0.3633  0.0706
39216SOL     OW20026   0.224   0.072   5.175  0.2963 -0.2498  0.7386
39216SOL    HW120027   0.250   0.143   5.235 -0.1787  1.8919 -1.4604
39216SOL    HW220028   0.303   0.017   5.168  1.1937  0.9186  1.3120
39217SOL     OW20029   2.244   9.412   7.805 -0.1487 -0.0262  0.0994
39217SOL    HW120030   2.199   9.486   7.763 -1.5816 -1.2136 -0.5514
39217SOL    HW220031   2.209   9.412   7.894  1.2360  1.1545  0.6805
39218SOL     OW20032   5.886   0.912   6.717  0.0135 -0.7972  0.1679
39218SOL    HW120033   5.846   0.880   6.797  0.1884 -0.4702  0.3866
39218SOL    HW220034   5.859   0.849   6.650  1.1427 -1.9365  0.7651
39219SOL     OW20035   1.132   4.381   8.187 -0.2063 -0.5778  0.2324
39219SOL    HW120036   1.054   4.402   8.136 -0.8300  0.9387  1.7077
39219SOL    HW220037   1.157   4.464   8.228  0.5825 -1.5913  1.9187
39220SOL     OW20038   0.728   9.986   3.763  0.6117  0.1373  1.0001
39220SOL    HW120039   0.666   9.964   3.693  1.4008  0.1413  0.2862
39220SOL    HW220040   0.773   9.904   3.782 -1.1242 -0.4244  3.1028
39221SOL     OW20041   4.925   1.423   5.325  0.3810 -0.7748  0.1418
39221SOL    HW120042   4.851   1.366   5.304  0.6369 -1.6570  1.4903
39221SOL    HW220043   4.973   1.432   5.242 -1.4757  0.2515 -0.8923
39222SOL     OW20044   1.906   7.525   4.465 -0.0372  0.2585  0.1611
39222SOL    HW120045   1.894   7.553   4.375 -0.0903  0.4605  0.2312
39222SOL    HW220046   1.964   7.449   4.459  0.1906  0.4434 -0.0201
39223SOL     OW20047   4.422  10.090   7.341  0.3282 -0.0891  0.3144
39223SOL    HW120048   4.466  10.175   7.338  0.1572 -0.0254 -0.9182
39223SOL    HW220049   4.364  10.095   7.417  0.4057  0.8469  0.3191
39224SOL     OW20050  10.245   5.090   5.130  0.0686  0.3531 -0.1841
39224SOL    HW120051  10.208   5.101   5.043 -1.7048  0.2854  0.5323
39224SOL    HW220052  10.304   5.014   5.121 -0.9675 -0.3801 -1.0616
39225SOL     OW20053   4.877   1.396   4.052  0.2656 -0.1804  0.3224
39225SOL    HW120054   4.898   1.409   3.960 -1.1446 -1.2489 -0.1785
39225SOL    HW220055   4.845   1.306   4.058 -1.9331  0.5912  1.3852
39226SOL     OW20056   9.508   5.237   7.085 -0.2303  0.6963 -0.0487
39226SOL    HW120057   9.560   5.307   7.123 -2.0126  1.7590  0.5686
39226SOL    HW220058   9.563   5.200   7.017  2.4647 -0.1782  2.3912
39227SOL     OW20059   2.765   7.987   8.908  0.1630  0.2982  0.1565
39227SOL    HW120060   2.752   7.957   8.998  0.3891  1.0466  0.4423
39227SOL    HW220061   2.746   8.080   8.910  1.2265  0.5443 -0.3459
39228SOL     OW20062   1.543   8.707   8.957 -0.1206 -0.7654  0.1990
39228SOL    HW120063   1.625   8.723   8.910 -0.5164  1.4692  0.1802
39228SOL    HW220064   1.487   8.664   8.892  0.2925 -0.2669 -0.5031
39229SOL     OW20065   0.686   2.946   9.453  0.7153  0.1278  0.3449
39229SOL    HW120066   0.772   2.989   9.456  1.2479 -0.9503  2.4835
39229SOL    HW220067   0.700   2.871   9.394  0.9330  0.5405 -0.1383
39230SOL     OW20068   2.208   3.993   5.216 -0.4445  0.5376  0.0645
39230SOL    HW120069   2.236   4.078   5.251 -1.2252  1.2564 -0.9952
39230SOL    HW220070   2.120   3.981   5.253 -0.0689 -0.1549  0.7641
39231SOL     OW20071   6.276   6.864   6.415 -0.5666 -0.2680 -0.2081
39231SOL    HW120072   6.270   6.959   6.429 -3.1502 -0.5907  1.5285
39231SOL    HW220073   6.220   6.847   6.339 -1.1026 -0.5069  0.2312
39232SOL     OW20074  10.213   4.295   5.429 -0.2234  0.2350 -0.4518
39232SOL    HW120075  10.133   4.247   5.409 -0.7026  1.1904 -0.9180
39232SOL    HW220076  10.255   4.245   5.500 -0.7898 -0.7385 -0.7897
39233SOL     OW20077   0.002   3.002  10.005  0.4958 -0.2486 -0.1657
39233SOL    HW120078  -0.003   3.028   9.913  1.3376 -1.0164 -0.4476
39233SOL    HW220079  -0.070   3.048  10.048 -1.1529 -1.3713 -1.5806
39234SOL     OW20080   6.059  10.315   8.577  0.0629  0.5473 -0.1175
39234SOL    HW120081   6.018  10.338   8.661  0.2168  1.9557 -0.4177
39234SOL    HW220082   6.114  10.389   8.555  0.7085 -0.1837 -1.0564
39235SOL     OW20083   4.074   8.016   1.734 -0.4572 -0.4651  0.0920
39235SOL    HW120084   4.080   8.036   1.640 -0.7799  0.9025  0.3360
39235SOL    HW220085   3.982   7.990   1.746 -0.5837 -0.0146  0.1292
39236SOL     OW20086   1.280   5.790   8.640  0.2564  0.2771 -0.0204
39236SOL    HW120087   1.216   5.722   8.615 -0.5629  0.6779  0.9310
39236SOL    HW220088   1.251   5.868   8.592  0.0859  0.4355  0.3404
39237SOL     OW20089   2.679   4.602   2.520 -0.2130 -0.1062 -0.1512
39237SOL    HW120090   2.715   4.676   2.472 -1.3856  0.8074  0.3447
39237SOL    HW220091   2.585   4.610   2.509 -0.4380 -0.6463  1.1858
39238SOL     OW20092   3.573   2.715   6.500  0.1105  0.2760  0.1156
39238SOL    HW120093   3.620   2.793   6.530  0.1030 -0.6094  2.6140
39238SOL    HW220094   3.633   2.675   6.437  0.0766  2.2813 -1.3001
39239SOL     OW20095  10.795   4.948   5.518  0.5999 -0.2095  0.0591
39239SOL    HW120096  10.884   4.933   5.549  0.6280 -2.2881 -0.8427
39239SOL    HW220097  10.803   4.952   5.422 -0.2228  0.1432 -0.0132
39240SOL     OW20098   4.307   2.068   7.444  0.2324 -0.2900  0.4847
39240SOL    HW120099   4.315   2.162   7.428  0.8640 -0.3298  0.5490
39240SOL    HW220100   4.373   2.028   7.388  1.3401 -0.5505  1.8922
39241SOL     OW20101   2.291   0.036   7.690 -0.2306  0.1003  0.2387
39241SOL    HW120102   2.322   0.009   7.604 -0.9590  0.6870 -0.2267
39241SOL    HW220103   2.327  -0.028   7.750  1.2576  0.3394 -0.3551
39242SOL     OW20104   1.461   4.863   0.549  0.8271  0.2198  0.0158
39242SOL    HW120105   1.516   4.937   0.525  0.2221  0.5539 -0.3453
39242SOL    HW220106   1.398   4.898   0.611 -0.1005  0.2515 -0.9168
39243SOL     OW20107   7.155   4.627   0.185 -0.6679  0.5324  0.1860
39243SOL    HW120108   7.233   4.634   0.239 -0.6579  0.4532  0.1826
39243SOL    HW220109   7.156   4.537   0.153 -0.5301  0.6529 -0.1625
39244SOL     OW20110   1.715   6.508   5.301 -0.2249  0.2517  0.1703
39244SOL    HW120111   1.780   6.488   5.368  1.3657  0.9296 -1.1047
39244SOL    HW220112   1.703   6.602   5.306 -0.8137  0.1815  0.1297
39245SOL     OW20113   3.707   6.220  10.235 -0.2058 -0.0956  0.0016
39245SOL    HW120114   3.675   6.236  10.146 -0.9655  1.9679  0.5958
39245SOL    HW220115   3.801   6.208  10.224  0.1269  2.5777 -0.9069
39246SOL     OW20116   7.211   8.440   3.060 -0.4930 -0.0997 -0.2492
39246SOL    HW120117   7.133   8.415   3.011 -0.7126  0.3992 -0.1579
39246SOL    HW220118   7.249   8.512   3.010  0.1340 -0.6058 -0.5071
39247SOL     OW20119   5.280   9.583   2.391  0.3994  0.0682 -0.1765
39247SOL    HW120120   5.351   9.597   2.329  0.7788  1.6652  0.5644
39247SOL    HW220121   5.227   9.663   2.385 -1.0887 -0.9000 -0.3848
39248SOL     OW20122   4.998   7.029   1.382 -0.4276  0.3971  0.5952
39248SOL    HW120123   5.067   7.095   1.374 -0.9045  0.8436  0.0109
39248SOL    HW220124   4.937   7.050   1.311  0.3653 -1.8196 -0.8670
39249SOL     OW20125   7.641   9.551   2.480  0.1041 -0.0509  0.3549
39249SOL    HW120126   7.720   9.603   2.467  0.2382 -0.1234  0.8398
39249SOL    HW220127   7.672   9.460   2.484 -0.1969 -0.2476 -1.1189
39250SOL     OW20128   3.570   4.588   2.041  0.0896  0.5023 -0.3275
39250SOL    HW120129   3.536   4.642   1.970 -1.5365 -1.1682 -0.8908
39250SOL    HW220130   3.646   4.545   2.004 -0.1672  0.3947 -0.7315
39251SOL     OW20131   0.641   5.357   2.616 -0.4489 -0.4160 -0.3171
39251SOL    HW120132   0.565   5.356   2.676  0.1584 -0.1626  0.4769
39251SOL    HW220133   0.619   5.293   2.549 -1.1622 -0.7032  0.1737
39252SOL     OW20134   9.762   0.420   0.962 -0.4340 -0.4105 -0.1079
39252SOL    HW120135   9.740   0.446   1.051 -2.3038 -0.1655 -0.5999
39252SOL    HW220136   9.738   0.496   0.908 -1.5715 -1.3872 -1.0483
39253SOL     OW20137   3.597   5.680   3.402  0.2904 -0.3814 -0.1995
39253SOL    HW120138   3.638   5.595   3.391  0.5497 -0.2350 -0.3669
39253SOL    HW220139   3.622   5.708   3.491 -1.1058 -1.1840  0.4783
39254SOL     OW20140   8.739   1.413   8.088  0.3804 -0.0751  0.0498
39254SOL    HW120141   8.685   1.372   8.156  0.8804  0.7585  0.9763
39254SOL    HW220142   8.773   1.492   8.129  1.5080 -0.0643 -0.8554
39255SOL     OW20143   0.086   2.090   9.076  0.1969 -0.2102  0.9592
39255SOL    HW120144   0.129   2.173   9.055  0.5420 -0.4824  0.5839
39255SOL    HW220145   0.060   2.099   9.168  0.1967  0.3263  0.9075
39256SOL     OW20146   2.050   2.938   4.038  0.0778  0.1558  0.5005
39256SOL    HW120147   2.081   2.953   3.949 -2.0818 -0.4914 -0.4429
39256SOL    HW220148   2.114   2.980   4.094  1.0052  1.3996 -1.4028
39257SOL     OW20149  10.130   6.826   7.682  0.0084  0.0265  0.0868
39257SOL    HW120150  10.104   6.791   7.767 -0.0920  0.0555  0.0678
39257SOL    HW220151  10.185   6.901   7.703 -0.8201  0.6351  0.1238
39258SOL     OW20152   5.983   3.245   0.445  0.0951  0.8815 -0.6002
39258SOL    HW120153   6.061   3.298   0.431  0.7653  0.1945  0.4017
39258SOL    HW220154   5.912   3.296   0.406  0.5740  2.9479  1.0301
39259SOL     OW20155   7.500   0.500   5.688 -0.4832 -0.4695  0.1154
39259SOL    HW120156   7.433   0.448   5.644 -1.4746  0.3203  0.6419
39259SOL    HW220157   7.487   0.589   5.653  0.1420 -0.2638  0.3966
39260SOL     OW20158  10.171   6.577  10.118  0.2827  0.3424  0.2557
39260SOL    HW120159  10.145   6.638  10.048 -0.0211  0.9592  0.8857
39260SOL    HW220160  10.233   6.517  10.076 -0.4688  0.2253 -0.7288
39261SOL     OW20161   4.325   2.956  10.698  0.4105  0.4294 -0.4303
39261SOL    HW120162   4.342   3.041  10.740 -0.4034  1.1944 -1.5884
39261SOL    HW220163   4.352   2.891  10.763  0.2103  1.5728  0.8393
39262SOL     OW20164   2.320   8.284  10.445  0.0194  0.3502  0.0691
39262SOL    HW120165   2.245   8.238  10.408  1.0741 -0.3596 -1.2934
39262SOL    HW220166   2.321   8.368  10.399 -0.4941  0.7665  0.8003
39263SOL     OW20167   2.405   9.558  10.748  0.3019 -0.4564  0.5101
39263SOL    HW120168   2.318   9.594  10.729 -0.3764 -2.4285 -0.4279
39263SOL    HW220169   2.466   9.618  10.704 -0.4554  1.5445  2.0576
39264SOL     OW20170   2.037   6.212   6.046 -0.1280 -0.4332 -0.4595
39264SOL    HW120171   2.127   6.215   6.081  0.3832 -0.9530 -1.6685
39264SOL    HW220172   2.013   6.304   6.035  1.6899 -0.1881 -3.5451
39265SOL     OW20173   6.685   3.694   4.288 -0.2572  0.0432  0.2946
39265SOL    HW120174   6.670   3.787   4.271  0.2011 -0.0676 -0.7950
39265SOL    HW220175   6.607   3.666   4.337 -0.6628  0.8628  0.1366
39266SOL     OW20176   3.942   6.343   1.014 -0.1614 -0.3528  0.7276
39266SOL    HW120177   3.911   6.256   1.039 -0.7996 -0.4329 -0.2467
39266SOL    HW220178   4.005   6.327   0.943 -1.3754  0.0056 -0.4871
39267SOL     OW20179   6.187   5.100  10.004 -0.3735  0.1357  0.4519
39267SOL    HW120180   6.272   5.130  10.038  1.9073 -2.3196 -2.4423
39267SOL    HW220181   6.170   5.157   9.929 -1.1814  0.3908  0.8131
39268SOL     OW20182  10.184  10.475   1.526 -0.2146  0.2129  0.7037
39268SOL    HW120183  10.233  10.466   1.608  1.5999  2.6794  0.0371
39268SOL    HW220184  10.210  10.400   1.473 -0.1392 -0.5283  1.7608
39269SOL     OW20185   5.067   6.579   7.233 -0.3970 -0.2122  0.1761
39269SOL    HW120186   5.096   6.648   7.294  0.6191  0.3103 -0.8502
39269SOL    HW220187   4.971   6.582   7.237 -0.3587 -0.0917  1.6136
39270SOL     OW20188   9.349   3.894   8.739 -0.7078  0.4749  0.3243
39270SOL    HW120189   9.272   3.950   8.735 -0.9500  0.0670 -1.2167
39270SOL    HW220190   9.366   3.869   8.648  0.9193  0.1127  0.6919
39271SOL     OW20191   9.777   9.384   2.516  0.4422  0.0834  0.1880
39271SOL    HW120192   9.747   9.295   2.533  2.6235 -0.8185 -0.2810
39271SOL    HW220193   9.851   9.396   2.576  1.7702  0.6085 -1.4838
39272SOL     OW20194   4.322   3.978   6.201  0.2092  0.3560 -0.1623
39272SOL    HW120195   4.280   3.982   6.287 -1.5042  0.8569 -0.9856
39272SOL    HW220196   4.256   4.011   6.140  1.9217  1.4847 -1.4970
39273SOL     OW20197   5.579   9.706   0.520  0.3818 -0.4088  0.0047
39273SOL    HW120198   5.535   9.777   0.568 -0.3945 -0.3261 -0.7763
39273SOL    HW220199   5.657   9.686   0.571  0.2679  0.5676  0.5894
39274SOL     OW20200   3.651   1.804   1.945  0.0497  0.2227 -0.3446
39274SOL    HW120201   3.619   1.894   1.951 -1.0884 -0.1282 -0.7823
39274SOL    HW220202   3.701   1.802   1.863  0.4042  0.5435 -0.1396
39275SOL     OW20203   8.625   9.737   5.926 -0.7385 -0.0583  0.4249
39275SOL    HW120204   8.549   9.679   5.934 -0.4651 -0.1413  3.7306
39275SOL    HW220205   8.601   9.815   5.977 -0.1509  1.7687 -1.9338
39276SOL     OW20206   9.234   4.198   2.700 -0.3782 -0.1916  0.3109
39276SOL    HW120207   9.320   4.164   2.674 -0.4682 -0.3691  0.2404
39276SOL    HW220208   9.179   4.184   2.623 -0.8949 -1.6165  0.9068
39277SOL     OW20209   7.684   6.063   9.787 -0.4615 -0.0293 -0.0482
39277SOL    HW120210   7.593   6.036   9.794 -0.0521 -1.7201 -0.6699
39277SOL    HW220211   7.716   6.063   9.877 -1.2555  1.3729  0.2608
39278SOL     OW20212   4.912  10.489   3.318 -0.3217 -0.4730 -0.4123
39278SOL    HW120213   4.896  10.577   3.283  2.0536  0.2219  0.0987
39278SOL    HW220214   4.918  10.434   3.240 -0.4926  0.0460 -0.8025
39279SOL     OW20215   6.736   1.500  10.457 -0.0046  0.0572 -0.0078
39279SOL    HW120216   6.685   1.439  10.404  0.7763 -2.1441  1.6248
39279SOL    HW220217   6.825   1.494  10.422  0.2074 -0.2397  0.5758
39280SOL     OW20218   2.650   0.473   3.769 -0.8275 -0.4333 -0.2073
39280SOL    HW120219   2.628   0.379   3.766 -0.7375 -0.5399  1.6202
39280SOL    HW220220   2.573   0.514   3.808  0.2251 -0.1634  1.7009
39281SOL     OW20221  10.663   6.004  10.250  0.3939 -0.2428 -0.2371
39281SOL    HW120222  10.722   5.966  10.185  0.0415 -2.0118  0.4095
39281SOL    HW220223  10.709   5.993  10.333  0.0514  0.3136  0.0342
39282SOL     OW20224   4.014   6.808   7.504 -0.1321  0.1440  0.5326
39282SOL    HW120225   4.046   6.820   7.415  2.0940 -0.3662  1.1986
39282SOL    HW220226   4.042   6.887   7.550 -1.9222  0.7575  0.6753
39283SOL     OW20227   0.882   2.156   8.583 -0.2613 -0.1581  0.7064
39283SOL    HW120228   0.932   2.093   8.533 -0.9900 -2.3354  2.5272
39283SOL    HW220229   0.829   2.202   8.518 -0.2752 -1.9924 -0.6703
39284SOL     OW20230   1.808  10.800   3.255  0.5170  0.8135  0.0905
39284SOL    HW120231   1.761  10.736   3.201  2.2927 -0.4886 -0.0165
39284SOL    HW220232   1.766  10.794   3.341 -0.0640  0.3212 -0.2174
39285SOL     OW20233   6.678  10.109   6.560  0.1915 -0.4024  0.1138
39285SOL    HW120234   6.624  10.084   6.635  1.0560 -0.5457  0.7007
39285SOL    HW220235   6.616  10.115   6.488 -1.0591  1.9329  1.2623
39286SOL     OW20236   7.201   8.828   1.769 -0.0024 -0.1720  0.3186
39286SOL    HW120237   7.159   8.914   1.763  1.7892  0.6705 -1.3863
39286SOL    HW220238   7.203   8.796   1.679  0.5302 -1.4102  0.7498
39287SOL     OW20239   1.701   9.870   7.893  0.6331  0.2407  0.1302
39287SOL    HW120240   1.639   9.927   7.849 -1.6890  0.4002  3.2819
39287SOL    HW220241   1.776   9.926   7.914  1.6368  0.2374 -3.0190
39288SOL     OW20242   8.493   2.131   9.700 -0.5523  0.0754  0.0109
39288SOL    HW120243   8.499   2.226   9.712  2.3294  0.1831 -1.2615
39288SOL    HW220244   8.561   2.096   9.758  0.9737 -0.8261 -2.2047
39289SOL     OW20245   3.913   9.269   0.285  1.1576 -1.2039  0.0619
39289SOL    HW120246   3.954   9.268   0.371  0.0658  1.4804  0.6968
39289SOL    HW220247   3.847   9.199   0.289  2.1200 -2.0813  0.8488
39290SOL     OW20248   2.018  10.769   1.424  0.2834 -0.1985 -0.4110
39290SOL    HW120249   2.062  10.710   1.485 -0.2828 -2.0855 -1.7265
39290SOL    HW220250   2.050  10.856   1.447  3.9238 -1.3301 -0.6565
39291SOL     OW20251   9.120   1.721   1.870  0.2506  0.5302  0.3278
39291SOL    HW120252   9.058   1.654   1.842 -0.0962  0.3974  1.3834
39291SOL    HW220253   9.066   1.787   1.915  0.8627  0.4088  1.2597
39292SOL     OW20254   0.869   8.851   8.902 -0.4387 -0.0109  0.1037
39292SOL    HW120255   0.838   8.890   8.984  0.0229 -0.9684  0.7526
39292SOL    HW220256   0.964   8.848   8.911 -0.2100  1.6214 -1.2867
39293SOL     OW20257   4.560   2.803   1.652 -0.2729 -0.1584 -0.2790
39293SOL    HW120258   4.524   2.721   1.685 -0.7471 -0.9565 -2.5862
39293SOL    HW220259   4.654   2.794   1.662 -0.4268 -0.0168  1.5243
39294SOL     OW20260   0.931   3.805   4.236 -0.4643  0.3068  0.6168
39294SOL    HW120261   0.962   3.719   4.263 -1.0814 -0.0508  0.2030
39294SOL    HW220262   0.847   3.789   4.194 -0.0933  0.9904 -0.4396
39295SOL     OW20263  10.770   7.053   6.018 -0.2321 -0.6053  0.5541
39295SOL    HW120264  10.856   7.010   6.022 -0.5717 -1.2518  1.2252
39295SOL    HW220265  10.721   7.000   5.955  0.7812  1.5534 -2.2878
39296SOL     OW20266   8.142   0.399   3.096 -0.1455  0.7492  0.7406
39296SOL    HW120267   8.158   0.369   3.185  0.2659 -0.0980  0.3984
39296SOL    HW220268   8.052   0.433   3.097 -0.5043 -0.1949  1.2416
39297SOL     OW20269   4.184   7.105   1.335  0.4179  0.1443 -0.1536
39297SOL    HW120270   4.129   7.130   1.260  0.0001 -0.3975 -0.0375
39297SOL    HW220271   4.175   7.010   1.340 -1.3187  0.3430  1.9061
39298SOL     OW20272   1.407  10.189   8.390 -0.1192 -0.0052 -0.4260
39298SOL    HW120273   1.338  10.253   8.372 -0.1498  0.3893  0.9960
39298SOL    HW220274   1.475  10.239   8.434 -0.7634 -1.1682  2.0651
39299SOL     OW20275   4.346   3.179   4.967 -0.0826  0.2623  0.1444
39299SOL    HW120276   4.389   3.261   4.991 -2.1752  1.1550  1.0939
39299SOL    HW220277   4.326   3.189   4.874  0.1540  0.5942  0.1259
39300SOL     OW20278   8.101   8.781   7.898  0.9019 -0.0385 -0.1660
39300SOL    HW120279   8.134   8.864   7.864 -0.3893  1.1269  1.3003
39300SOL    HW220280   8.095   8.794   7.993 -0.5569 -1.3491 -0.0346
39301SOL     OW20281   3.079   4.481   8.450  0.3877  0.3574 -0.1475
39301SOL    HW120282   3.092   4.465   8.543 -1.4403 -1.7722 -0.1591
39301SOL    HW220283   3.003   4.539   8.446 -0.5078 -0.7875 -0.2880
39302SOL     OW20284   8.482   2.647   7.484  0.0806  0.4464 -0.5379
39302SOL    HW120285   8.527   2.664   7.566  0.7862  2.0554 -1.2194
39302SOL    HW220286   8.550   2.610   7.427 -0.3559 -0.4728 -0.4859
39303SOL     OW20287   4.097   6.395   5.483  0.7719 -0.2379  0.5283
39303SOL    HW120288   4.059   6.373   5.567 -0.6102  3.1066  0.9055
39303SOL    HW220289   4.024   6.392   5.421  0.7963  1.6050  0.3505
39304SOL     OW20290   5.260   0.691   7.943  0.2270  0.0863  0.2072
39304SOL    HW120291   5.246   0.784   7.924  0.2127  0.0203 -0.1009
39304SOL    HW220292   5.271   0.650   7.858  1.2852 -0.0358  0.3869
39305SOL     OW20293   0.068   5.298   5.807  0.2610  0.3392  0.3876
39305SOL    HW120294   0.137   5.270   5.748  0.4302 -1.8811  1.5275
39305SOL    HW220295   0.114   5.338   5.881  0.1906  0.7329  0.2233
39306SOL     OW20296   5.855   1.897   7.587  0.3465 -0.1239 -0.0073
39306SOL    HW120297   5.765   1.898   7.621  0.0878  0.0655 -0.6807
39306SOL    HW220298   5.845   1.906   7.493  1.1064  0.4512 -0.0393
39307SOL     OW20299   0.097   2.592   7.166 -0.1737 -0.0793  0.2002
39307SOL    HW120300   0.050   2.533   7.107 -0.9611  0.9026 -0.1991
39307SOL    HW220301   0.121   2.537   7.241  0.1933 -1.1758 -0.6943
39308SOL     OW20302   7.345  10.391   2.140 -0.5758  0.4108  0.2079
39308SOL    HW120303   7.272  10.425   2.193  0.6493 -0.8095  2.8664
39308SOL    HW220304   7.360  10.303   2.175 -0.8574 -1.2896 -3.5280
39309SOL     OW20305   0.267   1.032   3.930 -0.5407 -0.1098 -0.0636
39309SOL    HW120306   0.206   0.992   3.868  1.7116 -0.8534 -1.9133
39309SOL    HW220307   0.325   0.960   3.956  0.5724  0.9144  0.3562
39310SOL     OW20308   2.708   5.465   4.315  0.2189 -0.0644  0.6041
39310SOL    HW120309   2.796   5.469   4.351 -0.4559 -0.3873  2.3726
39310SOL    HW220310   2.653   5.508   4.380 -0.7598  1.4332 -1.1449
39311SOL     OW20311   9.573   7.123   9.795 -0.2583  0.3083  0.3617
39311SOL    HW120312   9.581   7.111   9.889  0.3757 -1.7275  0.1025
39311SOL    HW220313   9.620   7.204   9.776  1.1527 -0.1868  1.5878
39312SOL     OW20314  10.797   4.892   0.752  0.1236  0.3827 -0.5767
39312SOL    HW120315  10.804   4.800   0.728  2.3561  0.0320  1.1376
39312SOL    HW220316  10.852   4.901   0.829 -3.3368  2.2840  1.9464
39313SOL     OW20317   1.356   5.619   9.350  0.1266  0.3409  0.6244
39313SOL    HW120318   1.431   5.560   9.347 -0.4986 -0.4231 -0.2947
39313SOL    HW220319   1.395   5.707   9.354  1.0614 -0.0584  0.5709
39314SOL     OW20320   4.038   5.439   4.552  0.2622  0.1223  0.1991
39314SOL    HW120321   3.988   5.420   4.632 -0.1263 -0.1019 -0.0963
39314SOL    HW220322   4.128   5.415   4.574 -0.0537 -1.1598  0.1482
39315SOL     OW20323   7.067   6.980   5.123 -0.4671 -0.2165 -0.2744
39315SOL    HW120324   7.135   6.966   5.189 -0.8457  1.5759  0.5492
39315SOL    HW220325   7.025   6.895   5.114 -0.2291 -0.5751  1.6013
39316SOL     OW20326   9.533   6.965   4.995  0.2282 -0.3806 -0.6071
39316SOL    HW120327   9.607   7.013   5.032 -0.3407  0.2419 -0.2659
39316SOL    HW220328   9.485   6.932   5.071 -1.1520  1.2131 -0.7425
39317SOL     OW20329   9.888   0.137   4.856  0.0578  0.4339 -0.3184
39317SOL    HW120330   9.922   0.204   4.797  0.6029  0.6473  0.2157
39317SOL    HW220331   9.934   0.057   4.831 -0.2843  0.3493 -0.6833
39318SOL     OW20332   6.483   9.551   2.403 -1.0249  0.4366  0.1408
39318SOL    HW120333   6.517   9.630   2.446  0.7993 -0.2569  0.0653
39318SOL    HW220334   6.395   9.541   2.438 -1.0122  2.0649  0.7423
39319SOL     OW20335   8.315   5.093   1.166  0.2416 -0.2719  0.4458
39319SOL    HW120336   8.379   5.164   1.173  0.2699 -0.0747 -1.3705
39319SOL    HW220337   8.261   5.116   1.091  0.7191 -2.4919 -0.6809
39320SOL     OW20338   1.524   7.976  10.797 -0.4682  0.1711  0.1413
39320SOL    HW120339   1.450   7.961  10.856  0.8900 -0.7715  1.7041
39320SOL    HW220340   1.567   8.054  10.833  0.2010 -0.2334  0.2318
39321SOL     OW20341   6.257   5.195   1.603 -0.2733  0.5130  0.1776
39321SOL    HW120342   6.346   5.224   1.621 -0.7912  2.7933 -0.5663
39321SOL    HW220343   6.231   5.146   1.681  1.4256  0.2998  0.6325
39322SOL     OW20344   5.882   4.063   5.772 -0.1595  0.5615  0.2795
39322SOL    HW120345   5.816   3.997   5.790 -1.7220  1.7953 -0.6702
39322SOL    HW220346   5.916   4.039   5.686  1.4473 -0.6661  1.1993
39323SOL     OW20347   3.618   7.929   4.784 -0.5553  0.3716 -0.2096
39323SOL    HW120348   3.615   7.971   4.698  0.6532  0.6375 -0.1397
39323SOL    HW220349   3.685   7.978   4.832 -3.5189  2.5252  2.1341
39324SOL     OW20350   2.330   7.925   5.393 -0.3600  0.1008  0.1491
39324SOL    HW120351   2.422   7.905   5.375 -0.7916 -1.8169 -0.1818
39324SOL    HW220352   2.332   7.977   5.473  1.0971  1.6731 -0.8473
39325SOL     OW20353   7.972   8.714   1.819 -0.2243 -0.0063  0.4658
39325SOL    HW120354   7.944   8.765   1.895 -0.6729 -0.5767  0.6891
39325SOL    HW220355   7.890   8.679   1.783 -0.0405  0.4750 -0.4336
39326SOL     OW20356   3.057   6.092   5.754 -0.1514  0.0704 -0.0622
39326SOL    HW120357   3.105   6.030   5.700 -1.7375 -2.7439  1.4813
39326SOL    HW220358   3.123   6.151   5.789  1.1396  0.8972 -3.4827
39327SOL     OW20359   2.665   3.429   5.689 -0.2152  0.0749  0.6032
39327SOL    HW120360   2.678   3.456   5.780 -0.2223  0.5136  0.4759
39327SOL    HW220361   2.688   3.506   5.638 -0.9165  0.0701  0.2619
39328SOL     OW20362   2.658  10.714  10.607  0.4188  0.0493  0.1582
39328SOL    HW120363   2.578  10.664  10.623 -0.1121  0.8554  0.0704
39328SOL    HW220364   2.727  10.648  10.602 -0.1710 -0.6204  0.6888
39329SOL     OW20365   6.989   7.720  10.082 -0.0666 -0.0332  0.2992
39329SOL    HW120366   7.035   7.704  10.164  1.2239  1.3406 -0.1203
39329SOL    HW220367   6.898   7.733  10.108 -0.2515 -2.4858  1.1758
39330SOL     OW20368  10.261   0.674   6.242  0.0714  0.2827  0.3154
39330SOL    HW120369  10.350   0.663   6.208 -0.3477 -0.3862 -0.6178
39330SOL    HW220370  10.213   0.600   6.206 -0.7512  0.3516  1.2316
39331SOL     OW20371   5.167   9.424   9.350  0.1322  0.0017  0.0515
39331SOL    HW120372   5.125   9.491   9.404  0.2552 -0.4131  0.6755
39331SOL    HW220373   5.227   9.379   9.410  2.3146  1.2855 -1.0494
39332SOL     OW20374  10.642  10.283   5.385 -0.0408 -0.5730 -0.5321
39332SOL    HW120375  10.661  10.194   5.414 -0.2139 -0.8139 -1.1329
39332SOL    HW220376  10.707  10.300   5.317  0.6999  0.1786  0.3495
39333SOL     OW20377   7.033   4.850   0.097 -0.1873  0.6781 -0.0778
39333SOL    HW120378   7.087   4.922   0.065 -1.1175  0.9644 -1.0706
39333SOL    HW220379   7.095   4.790   0.139  0.7695  1.4273 -0.3800
39334SOL     OW20380   7.349   9.249   6.743  0.0101  0.0241 -0.4030
39334SOL    HW120381   7.380   9.334   6.709  0.7539  0.2765  0.8319
39334SOL    HW220382   7.429   9.203   6.767 -0.3267 -1.4573 -1.9339
39335SOL     OW20383  10.775   9.268   8.468 -0.8395  0.1615  0.1762
39335SOL    HW120384  10.840   9.298   8.405 -0.8505 -2.2237 -1.0601
39335SOL    HW220385  10.701   9.238   8.415 -1.2251 -1.0432  1.3412
39336SOL     OW20386   7.492   2.722   0.267  0.0593 -0.2037 -0.0296
39336SOL    HW120387   7.488   2.762   0.180  1.0794 -0.1704 -0.0742
39336SOL    HW220388   7.421   2.762   0.316 -1.1145 -0.8818 -1.1186
39337SOL     OW20389   8.507  10.718   6.946 -0.4147  0.0460  0.1900
39337SOL    HW120390   8.468  10.806   6.943 -0.6433  0.0128  1.4246
39337SOL    HW220391   8.434  10.659   6.929 -0.5771  0.0485  0.8472
39338SOL     OW20392   3.619   7.847   8.237 -0.0073  0.0539  0.4147
39338SOL    HW120393   3.659   7.859   8.150  0.7470  1.1530  0.8924
39338SOL    HW220394   3.548   7.912   8.240 -0.1525 -0.1094  0.5568
39339SOL     OW20395   2.819   2.157   1.841 -0.1359  0.2735  0.0312
39339SOL    HW120396   2.890   2.092   1.839 -0.3502  0.0440 -0.3757
39339SOL    HW220397   2.814   2.184   1.932  1.6565  1.6102 -0.2060
39340SOL     OW20398   6.264   4.882   5.663 -0.4309 -0.1817  0.5763
39340SOL    HW120399   6.292   4.940   5.734  0.1321 -0.2690  0.4329
39340SOL    HW220400   6.343   4.867   5.612 -1.2353  1.6616 -1.3590
39341SOL     OW20401   9.587   8.667   1.247  0.3893  0.0696 -0.3866
39341SOL    HW120402   9.533   8.717   1.185 -0.2113 -0.1808 -0.0711
39341SOL    HW220403   9.676   8.674   1.212  0.1386  0.3923 -0.9772
39342SOL     OW20404   9.269   0.951  10.144 -0.1876 -0.0199  0.3986
39342SOL    HW120405   9.177   0.978  10.138 -0.1656  0.0474  0.3480
39342SOL    HW220406   9.269   0.881  10.209  0.1647  1.9747  2.6579
39343SOL     OW20407   5.592   1.376   8.203 -0.0322 -0.2515 -0.3858
39343SOL    HW120408   5.503   1.351   8.178  0.9152 -2.4040 -1.8817
39343SOL    HW220409   5.648   1.343   8.133  2.1354 -0.5267  1.3365
39344SOL     OW20410   8.954   1.654   2.914  0.2107 -0.3135  0.2624
39344SOL    HW120411   8.982   1.745   2.921 -0.0615 -0.2418  0.4219
39344SOL    HW220412   9.018   1.605   2.964  1.1693 -0.3724 -0.9700
39345SOL     OW20413   3.044   0.575   0.280  0.1871 -0.4673  0.1180
39345SOL    HW120414   3.082   0.582   0.368  1.2387  0.7209 -0.4006
39345SOL    HW220415   3.090   0.500   0.241  0.6945 -0.1631  0.1215
39346SOL     OW20416   9.852   3.122   2.232 -0.0065 -0.2111 -0.0538
39346SOL    HW120417   9.767   3.142   2.272 -0.3440  1.3534 -1.4468
39346SOL    HW220418   9.848   3.028   2.214 -0.8617 -0.4414  1.1526
39347SOL     OW20419   8.699   1.012   7.621  0.2454  0.1388 -0.2335
39347SOL    HW120420   8.697   1.106   7.600  1.3896  0.0238 -0.9721
39347SOL    HW220421   8.624   0.998   7.678 -0.6147  1.2929 -1.0401
39348SOL     OW20422   6.332   1.798   0.530 -0.4969 -0.4895 -0.1652
39348SOL    HW120423   6.328   1.710   0.492 -1.0320 -0.5483  0.0165
39348SOL    HW220424   6.241   1.826   0.535 -0.4462 -0.4782  1.0570
39349SOL     OW20425   3.909  10.134   1.165  0.2167  0.0431  0.1643
39349SOL    HW120426   3.942  10.219   1.135  1.5118 -0.0540  1.2203
39349SOL    HW220427   3.821  10.152   1.198  0.1152  0.7859 -0.5032
39350SOL     OW20428   4.377   2.389   1.995 -0.1368  0.3701  0.2802
39350SOL    HW120429   4.349   2.298   1.983 -1.7232  0.8559  0.1471
39350SOL    HW220430   4.436   2.386   2.070 -0.0350 -0.7822  0.1809
39351SOL     OW20431   0.216   8.817   2.729 -0.7673  0.2609  0.2945
39351SOL    HW120432   0.248   8.871   2.657 -0.4451  0.5590  0.6561
39351SOL    HW220433   0.295   8.790   2.775 -0.8829 -0.9542 -0.1775
39352SOL     OW20434  10.163   1.118   2.043  0.0880  0.2096 -0.0207
39352SOL    HW120435  10.245   1.110   1.994  1.6929  1.8335  2.1508
39352SOL    HW220436  10.186   1.088   2.131 -1.5875  1.0055  0.7197
39353SOL     OW20437  10.430   5.798   6.875  0.0507 -0.0119  0.0997
39353SOL    HW120438  10.341   5.809   6.908  0.9750 -0.2491  2.9890
39353SOL    HW220439  10.458   5.886   6.850 -0.2416  0.4868  1.4299
39354SOL     OW20440   0.899   7.938   5.168  0.5779 -0.2683  0.4521
39354SOL    HW120441   0.887   7.915   5.076  1.3552 -0.2201  0.3369
39354SOL    HW220442   0.953   7.867   5.204  1.1113  0.2276  0.6310
39355SOL     OW20443   4.414   3.979   7.399 -0.2664 -0.3931 -0.3114
39355SOL    HW120444   4.350   3.972   7.469  0.0074  0.6514  0.0563
39355SOL    HW220445   4.481   4.039   7.433 -0.2103  0.2524 -1.5063
39356SOL     OW20446   8.323   3.859   3.731  0.0175  0.1071  0.1856
39356SOL    HW120447   8.255   3.794   3.716  0.4840 -1.4175  3.6782
39356SOL    HW220448   8.403   3.808   3.740  1.4784  1.7355 -2.2396
39357SOL     OW20449   9.616   3.877   7.956  0.6575  0.1617  0.3216
39357SOL    HW120450   9.601   3.849   7.866  1.8496  1.6805 -0.3911
39357SOL    HW220451   9.532   3.914   7.983 -0.1351 -1.5627  0.3689
39358SOL     OW20452   7.981   9.058   4.854 -0.6213 -0.1475 -0.0937
39358SOL    HW120453   7.901   9.111   4.853 -0.0261  0.8025  0.7024
39358SOL    HW220454   7.971   9.001   4.931  0.4427  1.6088  1.4417
39359SOL     OW20455   5.232   2.013   7.604  0.0031  0.6307  0.4835
39359SOL    HW120456   5.172   1.945   7.574  1.0412 -0.3562  0.5700
39359SOL    HW220457   5.224   2.083   7.540 -3.1839  1.7199  1.8940
39360SOL     OW20458   6.549   5.516   7.958  0.1313  0.4436  0.5325
39360SOL    HW120459   6.518   5.425   7.956 -0.1454  0.5526 -0.8599
39360SOL    HW220460   6.491   5.559   8.021  1.9505 -0.8914  3.3084
39361SOL     OW20461   1.952   5.492  10.714  0.5191 -0.5819  0.5461
39361SOL    HW120462   1.866   5.449  10.716  0.7075 -0.9404  1.0672
39361SOL    HW220463   1.933   5.582  10.686  0.1289 -1.0014 -0.5725
39362SOL     OW20464  10.773   9.578   2.373  0.4099 -0.1548  0.4467
39362SOL    HW120465  10.802   9.669   2.366 -0.4236  0.0182 -1.1262
39362SOL    HW220466  10.691   9.582   2.421  0.7066 -0.1542  0.9570
39363SOL     OW20467   3.651   9.984   3.536 -0.7103 -0.1665  0.5145
39363SOL    HW120468   3.704  10.063   3.551  0.4902 -0.7865 -0.2243
39363SOL    HW220469   3.606  10.001   3.453  1.7508 -1.2915 -1.1852
39364SOL     OW20470   7.113   2.197   5.000  0.0378  0.1904  0.1445
39364SOL    HW120471   7.132   2.276   4.949 -1.3111  1.2452  1.1925
39364SOL    HW220472   7.097   2.129   4.934 -1.5095  1.4759 -0.8847
39365SOL     OW20473   7.748   1.024   9.143 -0.3400  0.2636  0.2856
39365SOL    HW120474   7.697   0.963   9.091  1.2297  0.6332 -1.7893
39365SOL    HW220475   7.792   1.080   9.079  0.3529  1.8589  2.0539
39366SOL     OW20476   4.102   4.840   5.938 -0.0019 -0.2470 -0.2705
39366SOL    HW120477   4.145   4.891   6.007 -0.2685  0.2508 -0.4638
39366SOL    HW220478   4.161   4.849   5.863 -0.4875  0.5441 -0.5744
39367SOL     OW20479   4.465   9.113   6.216 -0.2892  0.2249  0.0671
39367SOL    HW120480   4.428   9.074   6.137  1.9365 -0.0674 -0.9146
39367SOL    HW220481   4.474   9.206   6.195 -0.2167  0.2438  0.1836
39368SOL     OW20482   9.179   5.992   5.243 -0.8832  0.6959  0.1031
39368SOL    HW120483   9.265   6.014   5.207  0.2129 -1.4626  1.2214
39368SOL    HW220484   9.152   6.071   5.291  0.4384  1.4301 -0.3092
39369SOL     OW20485   1.314   3.462   2.619  0.1382  0.0293  0.3904
39369SOL    HW120486   1.341   3.378   2.657 -2.2448 -0.8873  0.2216
39369SOL    HW220487   1.276   3.510   2.693  2.3536  1.4329  0.6996
39370SOL     OW20488   8.845   7.635   3.307 -0.0871 -0.0875  0.1475
39370SOL    HW120489   8.923   7.648   3.362 -0.0972  0.4117  0.0454
39370SOL    HW220490   8.778   7.603   3.368 -0.3468  1.2738  0.6079
39371SOL     OW20491   2.510   3.636   8.044  0.1346  0.1392 -0.7399
39371SOL    HW120492   2.530   3.544   8.028 -1.1045  0.0461 -1.9522
39371SOL    HW220493   2.539   3.652   8.134  0.3757 -1.4260 -0.5152
39372SOL     OW20494   1.738   2.578   3.512 -0.5159 -0.1684 -0.1448
39372SOL    HW120495   1.749   2.586   3.607  0.0867 -0.0088 -0.2259
39372SOL    HW220496   1.742   2.484   3.495  1.7876 -0.0911 -0.2835
39373SOL     OW20497   7.481   0.238   2.316 -0.1888 -0.0524 -0.3879
39373SOL    HW120498   7.395   0.280   2.317  0.1725  0.7858 -1.6268
39373SOL    HW220499   7.543   0.310   2.329  0.3749 -0.4470 -0.8415
39374SOL     OW20500   9.348   0.346   8.797  0.8289  0.0659 -0.1887
39374SOL    HW120501   9.365   0.349   8.703  1.9925 -0.5149 -0.0227
39374SOL    HW220502   9.385   0.261   8.825 -0.8435 -0.4558  0.5425
39375SOL     OW20503   8.434   2.800   6.347  0.0352  0.4115  0.3642
39375SOL    HW120504   8.366   2.824   6.409 -1.8379 -0.6159 -1.1862
39375SOL    HW220505   8.425   2.864   6.276 -0.8125 -0.9663 -0.8443
39376SOL     OW20506   6.749   3.954   7.655 -0.2402  0.4307  0.1855
39376SOL    HW120507   6.741   4.024   7.719  2.9486  0.1100  1.1128
39376SOL    HW220508   6.720   3.875   7.701  3.2435 -0.0425  1.9486
39377SOL     OW20509   7.035   3.924   1.038  0.1023 -0.8287  0.0424
39377SOL    HW120510   7.086   3.856   0.995  0.4139  0.6652 -2.1197
39377SOL    HW220511   7.100   3.986   1.070 -0.2465  0.4695 -1.6525
39378SOL     OW20512   4.015   9.454   0.030  0.5644  0.6953  0.5801
39378SOL    HW120513   3.977   9.419  -0.051 -0.0351  1.4248  0.5387
39378SOL    HW220514   3.955   9.426   0.099  1.1495 -0.0423  0.7930
39379SOL     OW20515   7.374   8.682   9.689 -0.0229  0.4125  0.6590
39379SOL    HW120516   7.310   8.673   9.760  0.4554  0.0400  1.0534
39379SOL    HW220517   7.450   8.632   9.719  0.0759  0.0016 -0.2488
39380SOL     OW20518  10.797   0.324   9.499 -0.8884 -0.1922 -0.5369
39380SOL    HW120519  10.815   0.233   9.475  0.1501 -0.0439 -0.3682
39380SOL    HW220520  10.871   0.373   9.463 -0.1874  0.2738  1.4162
39381SOL     OW20521   6.346   7.443   0.199  0.3347 -0.2921  0.0508
39381SOL    HW120522   6.362   7.504   0.127 -0.7559 -0.5512 -0.4488
39381SOL    HW220523   6.410   7.373   0.185  0.8829  0.2097  0.0035
39382SOL     OW20524   2.289   2.035   9.677  0.4261  0.1783 -0.0262
39382SOL    HW120525   2.367   1.981   9.686 -0.3921 -1.3196 -1.2210
39382SOL    HW220526   2.300   2.105   9.741  2.1432 -0.6909  0.7030
39383SOL     OW20527   8.544   0.434   6.604 -0.4015  0.3197 -0.3213
39383SOL    HW120528   8.588   0.369   6.549 -1.6483 -1.4406  0.6636
39383SOL    HW220529   8.539   0.512   6.549  2.3017  0.0622 -1.0851
39384SOL     OW20530   5.051   1.398   0.815  0.1451 -0.1360 -0.5344
39384SOL    HW120531   5.123   1.460   0.806  0.3859 -0.3979 -0.4216
39384SOL    HW220532   5.081   1.336   0.881 -0.0752 -0.3975 -0.6786
39385SOL     OW20533   4.915   0.118   8.758 -0.3103  0.3742  0.2770
39385SOL    HW120534   4.969   0.072   8.823  1.5354  1.6394 -0.2800
39385SOL    HW220535   4.941   0.080   8.674 -1.5337 -0.1554  0.1247
39386SOL     OW20536   7.574   8.984   8.656 -0.2455 -0.0075  0.3506
39386SOL    HW120537   7.562   9.063   8.603  0.0793 -0.0035  0.2814
39386SOL    HW220538   7.666   8.985   8.680 -0.3526 -0.1048  0.7740
39387SOL     OW20539   1.917   2.211   9.774 -0.4541 -0.2822 -0.1354
39387SOL    HW120540   1.959   2.292   9.803 -2.6216  0.3784  1.4703
39387SOL    HW220541   1.953   2.195   9.687  1.2361  1.5097  0.1629
39388SOL     OW20542   5.796   5.131   1.909 -0.8380 -0.1776 -0.1421
39388SOL    HW120543   5.784   5.079   1.830  0.0355 -0.1197 -0.3309
39388SOL    HW220544   5.708   5.151   1.939 -1.1785 -0.5416 -0.8788
39389SOL     OW20545   7.765   5.099   6.809  0.0872  0.1247  0.3215
39389SOL    HW120546   7.747   5.125   6.719 -0.5903 -0.5032  0.2662
39389SOL    HW220547   7.737   5.174   6.862 -0.9035 -0.0775  0.1016
39390SOL     OW20548   4.984   8.406   4.625 -0.5890 -0.2970 -0.2243
39390SOL    HW120549   5.006   8.386   4.715 -0.2296 -2.4301 -0.7406
39390SOL    HW220550   5.007   8.499   4.615 -0.0973 -0.1686  1.6826
39391SOL     OW20551   9.516   6.781   0.910  0.0113  0.2201 -0.4582
39391SOL    HW120552   9.509   6.835   0.989 -1.8285  1.9483 -1.6916
39391SOL    HW220553   9.435   6.730   0.909  0.5876 -0.7252 -0.6285
39392SOL     OW20554   5.752   0.343   5.583  0.3519  0.0576 -0.2988
39392SOL    HW120555   5.825   0.282   5.598  0.3079  0.3532  1.2838
39392SOL    HW220556   5.793   0.419   5.543  1.0353  0.4484  1.0855
39393SOL     OW20557   0.856   6.771   4.759  0.1757  0.6641 -0.5060
39393SOL    HW120558   0.797   6.789   4.832  0.4081 -1.3073  0.2403
39393SOL    HW220559   0.799   6.743   4.688  0.1195 -0.1186 -0.1595
39394SOL     OW20560   3.029   4.558   0.860  0.0368  0.1340 -0.2619
39394SOL    HW120561   3.105   4.567   0.803  0.1548  0.2995 -0.0791
39394SOL    HW220562   3.004   4.648   0.883  0.2494  0.0566  0.2849
39395SOL     OW20563   2.206   5.330   2.860  0.1276  0.6054  0.3371
39395SOL    HW120564   2.265   5.401   2.837  0.6822 -0.1224 -0.5152
39395SOL    HW220565   2.262   5.262   2.897 -0.3705  0.4953  0.9271
39396SOL     OW20566   6.777   6.471   5.602 -0.8588  0.4455  0.0024
39396SOL    HW120567   6.866   6.447   5.577 -0.1251  1.5591  1.3614
39396SOL    HW220568   6.750   6.536   5.537 -0.6422  0.1630 -0.3705
39397SOL     OW20569   3.289   5.711   0.305 -0.3701 -0.3699 -0.4509
39397SOL    HW120570   3.257   5.621   0.299  1.1457 -0.9407 -0.5694
39397SOL    HW220571   3.376   5.708   0.265 -0.6242  1.3426 -1.2197
39398SOL     OW20572   8.808   2.537   5.402 -0.0450 -0.6886 -0.2700
39398SOL    HW120573   8.900   2.528   5.376  0.3223 -0.7244  0.9890
39398SOL    HW220574   8.778   2.447   5.415  0.0640 -0.6426  0.3512
39399SOL     OW20575   5.797   6.213   1.170 -0.5986 -0.1741  0.5684
39399SOL    HW120576   5.777   6.242   1.259  0.3460 -2.9806  1.7999
39399SOL    HW220577   5.888   6.182   1.174 -0.3183  0.2176 -1.5556
39400SOL     OW20578   8.797   1.832   8.775 -0.2067  0.0345  1.0363
39400SOL    HW120579   8.816   1.804   8.865  0.1632  1.2103  1.3419
39400SOL    HW220580   8.703   1.850   8.775 -0.5135 -1.3969  0.7586
39401SOL     OW20581   8.854   0.179   8.430 -0.1196  0.2117 -0.4243
39401SOL    HW120582   8.927   0.185   8.492  0.0863  0.4099 -0.6833
39401SOL    HW220583   8.819   0.091   8.442 -0.7948  0.6254  0.7639
39402SOL     OW20584  10.195   8.789   3.097  0.3890  0.1947 -0.0906
39402SOL    HW120585  10.193   8.747   3.010  1.0010 -0.0041 -0.0195
39402SOL    HW220586  10.168   8.879   3.080 -0.4065 -0.0799 -0.3355
39403SOL     OW20587   6.958  10.703   6.050 -0.4465 -0.0992  0.2925
39403SOL    HW120588   7.000  10.786   6.073  0.8386 -1.0631  1.7152
39403SOL    HW220589   6.986  10.686   5.960  1.3805 -0.1586  0.8277
39404SOL     OW20590   1.566   2.172   6.891 -1.0975 -0.3742 -0.2759
39404SOL    HW120591   1.621   2.106   6.848  1.5167 -0.4063  2.7289
39404SOL    HW220592   1.488   2.123   6.919 -0.6550 -1.4339 -0.8356
39405SOL     OW20593   3.454   2.830   7.585 -0.1849  0.6107  0.0650
39405SOL    HW120594   3.463   2.879   7.667  1.3299 -1.3120  1.1479
39405SOL    HW220595   3.522   2.865   7.529  1.4681 -0.7127  1.1450
39406SOL     OW20596   5.017  10.312   5.164 -0.0779  0.1745  0.0442
39406SOL    HW120597   5.038  10.221   5.142  0.0150  0.1096  0.3953
39406SOL    HW220598   4.988  10.308   5.255 -2.9322  0.0378 -0.7501
39407SOL     OW20599   3.307   3.384   2.514 -0.3801 -0.2014  0.0201
39407SOL    HW120600   3.321   3.457   2.575 -1.3259  0.5101 -0.5787
39407SOL    HW220601   3.212   3.369   2.517 -0.4688 -0.0392 -1.3732
39408SOL     OW20602   6.558   3.440   2.449  0.1448  0.0752 -0.1892
39408SOL    HW120603   6.485   3.438   2.511 -0.6791 -0.3440 -1.1357
39408SOL    HW220604   6.550   3.525   2.406 -0.0046 -0.1194 -0.5478
39409SOL     OW20605   1.126   1.814   4.784  0.6252  0.2336 -0.5614
39409SOL    HW120606   1.077   1.745   4.739 -1.7963  1.9568 -0.7099
39409SOL    HW220607   1.118   1.794   4.877  1.2990 -0.5173 -0.6517
39410SOL     OW20608   2.651   4.883   7.645 -0.2674 -0.1559 -0.2591
39410SOL    HW120609   2.633   4.977   7.652  2.0723  0.5672 -2.4191
39410SOL    HW220610   2.723   4.868   7.706 -0.4547 -0.4662 -0.1167
39411SOL     OW20611   5.591   5.274   3.170  0.8795  0.0661  0.2234
39411SOL    HW120612   5.597   5.365   3.199  2.0453 -0.5988  2.3243
39411SOL    HW220613   5.545   5.230   3.241  0.1721 -0.9645 -0.8571
39412SOL     OW20614   2.299   1.101   1.050 -0.2249  0.6264  0.3974
39412SOL    HW120615   2.320   1.031   0.988 -4.3813 -0.0680 -0.5112
39412SOL    HW220616   2.330   1.068   1.135  0.8478 -0.7888 -0.4997
39413SOL     OW20617   1.870   2.889   6.360 -0.2486  0.5525  0.6556
39413SOL    HW120618   1.878   2.820   6.294 -0.2175  1.2849 -0.1223
39413SOL    HW220619   1.951   2.883   6.411  0.8808  1.5161 -0.9103
39414SOL     OW20620   3.973   0.262   7.917  0.2761 -0.6044  0.3987
39414SOL    HW120621   4.025   0.276   7.997  1.2770 -0.0730 -0.3243
39414SOL    HW220622   3.956   0.168   7.916 -0.5006 -0.4964  1.6885
39415SOL     OW20623   3.913   9.939   8.415 -0.1238 -0.0058  0.7402
39415SOL    HW120624   3.851  10.009   8.438  1.5439  2.2919 -1.2151
39415SOL    HW220625   3.970   9.932   8.491 -1.0236 -0.0984  1.4276
39416SOL     OW20626   5.842  10.548   1.032  0.6237 -0.1915  0.3696
39416SOL    HW120627   5.783  10.483   1.071  0.4135 -0.6752 -0.7112
39416SOL    HW220628   5.824  10.544   0.938  1.3813  0.6682  0.1680
39417SOL     OW20629   6.889  10.417   1.284 -0.1946  0.0198  0.7049
39417SOL    HW120630   6.897  10.367   1.203 -3.1824  1.0994 -0.4001
39417SOL    HW220631   6.907  10.354   1.353 -1.8765 -2.1589 -0.6847
39418SOL     OW20632   9.217   7.336   0.425 -0.5346 -0.6201  0.4640
39418SOL    HW120633   9.151   7.365   0.489 -1.3916 -2.1013  0.3210
39418SOL    HW220634   9.166   7.286   0.361  0.6791 -1.4957  0.1545
39419SOL     OW20635  10.368   2.628   1.595 -0.2603 -0.2850 -0.2447
39419SOL    HW120636  10.422   2.660   1.523  1.4985 -0.0504  1.1073
39419SOL    HW220637  10.378   2.533   1.593  1.3616 -0.1748  0.7992
39420SOL     OW20638   1.266   2.771   6.343  0.0902  0.2180 -0.1311
39420SOL    HW120639   1.255   2.686   6.300 -1.7516 -0.3418  1.3320
39420SOL    HW220640   1.340   2.812   6.297  0.3733 -1.7393 -1.5248
39421SOL     OW20641   7.721   0.141   8.204 -0.9324  0.2491  0.0059
39421SOL    HW120642   7.673   0.159   8.285  0.8410 -1.4503  1.5329
39421SOL    HW220643   7.813   0.144   8.230 -0.3000  0.2054 -2.0888
39422SOL     OW20644   6.672   7.355   1.590 -0.9631 -0.4224 -0.1104
39422SOL    HW120645   6.707   7.288   1.532 -1.5093 -2.2724  1.5812
39422SOL    HW220646   6.598   7.313   1.633 -2.1637  1.7271  0.0730
39423SOL     OW20647   5.246   5.923   1.353 -0.1572  0.0267 -0.2893
39423SOL    HW120648   5.256   5.832   1.327 -0.0612  0.5468 -2.1783
39423SOL    HW220649   5.241   5.920   1.449  2.9791 -1.6679 -0.0552
39424SOL     OW20650   0.249   4.931   5.680 -0.3570 -0.2959  0.2717
39424SOL    HW120651   0.205   4.921   5.764 -0.4885 -0.0765  0.2318
39424SOL    HW220652   0.264   5.025   5.672  2.5854 -0.5712  1.5067
39425SOL     OW20653   4.457   7.455   2.278 -0.7436  0.3740 -0.3933
39425SOL    HW120654   4.393   7.463   2.349 -1.6712  4.0002 -1.4424
39425SOL    HW220655   4.405   7.448   2.198  0.2824 -0.7855 -1.0070
39426SOL     OW20656   4.695   5.961   7.450 -0.4689  0.2630 -0.5310
39426SOL    HW120657   4.676   5.996   7.363 -1.5230  2.7164  0.5930
39426SOL    HW220658   4.621   5.988   7.504  1.1257  0.6639  1.6136
39427SOL     OW20659   9.867  10.354   3.903  0.1523 -0.0050  0.2771
39427SOL    HW120660   9.892  10.293   3.834 -0.5901  0.6358 -0.5678
39427SOL    HW220661   9.893  10.309   3.984  0.1559 -1.1831 -0.3525
39428SOL     OW20662   1.883   4.627   8.213 -0.7269  0.2541 -0.3924
39428SOL    HW120663   1.844   4.613   8.299 -0.1441 -0.7018 -0.2757
39428SOL    HW220664   1.829   4.575   8.153  1.0320 -2.1363 -0.0529
39429SOL     OW20665   7.880   8.152   8.568 -0.4629 -0.0721  0.2854
39429SOL    HW120666   7.905   8.087   8.634  0.9539  0.7385  0.5744
39429SOL    HW220667   7.802   8.114   8.527 -1.3355 -0.6561  2.3251
39430SOL     OW20668   7.919   8.026   4.053 -0.4572  0.5520 -0.0320
39430SOL    HW120669   8.012   8.028   4.029 -0.4534 -0.8419 -0.1901
39430SOL    HW220670   7.898   8.118   4.073  0.9151  0.9088 -0.1004
39431SOL     OW20671   5.792   4.189  10.423 -0.1286  0.5510  0.1365
39431SOL    HW120672   5.869   4.162  10.472 -0.0420  0.9933  0.2459
39431SOL    HW220673   5.745   4.248  10.483 -0.1840  0.8434 -0.1932
39432SOL     OW20674   6.723   0.555   9.773 -0.3213  0.2577 -0.3408
39432SOL    HW120675   6.728   0.488   9.704 -1.7745 -0.2274 -0.0019
39432SOL    HW220676   6.630   0.562   9.793 -0.0091  1.0712  0.9265
39433SOL     OW20677   2.002   9.148   8.974 -0.5221  0.6482 -0.0656
39433SOL    HW120678   1.948   9.069   8.981  0.4830 -0.1455 -0.8396
39433SOL    HW220679   1.990   9.177   8.884 -0.3381  0.9698  0.0144
39434SOL     OW20680   5.611   6.574   0.844  0.6421  0.2000 -0.8094
39434SOL    HW120681   5.666   6.596   0.919  1.7107  1.1437 -1.8118
39434SOL    HW220682   5.528   6.619   0.860  0.8562  0.3817 -0.1961
39435SOL     OW20683   5.779   8.380   7.520 -0.4464  0.1410  0.1649
39435SOL    HW120684   5.783   8.289   7.549  0.5374  0.0575 -0.2020
39435SOL    HW220685   5.686   8.402   7.522 -0.5516 -0.3438  1.8707
39436SOL     OW20686   8.997   0.803   3.900  0.0956 -0.4828 -0.2925
39436SOL    HW120687   9.002   0.779   3.808 -0.0265 -0.7828 -0.2221
39436SOL    HW220688   8.904   0.817   3.917 -0.0188 -1.6254  0.0791
39437SOL     OW20689   9.859  10.789   5.100  0.2305 -0.2537 -0.3655
39437SOL    HW120690   9.848  10.831   5.015  2.2350  0.7687 -0.1691
39437SOL    HW220691   9.942  10.742   5.094  0.3070 -0.3344  0.9478
39438SOL     OW20692   3.622   1.804   4.604 -0.1540  1.0213  1.0017
39438SOL    HW120693   3.569   1.850   4.538 -1.7626 -0.9802  0.7836
39438SOL    HW220694   3.634   1.717   4.567  0.1383  0.2975  2.7405
39439SOL     OW20695   0.454   5.911   3.405 -0.3980 -0.2626 -0.4986
39439SOL    HW120696   0.529   5.860   3.372 -0.8899 -0.8477 -0.7340
39439SOL    HW220697   0.448   5.985   3.345 -0.7225 -0.8417 -1.2067
39440SOL     OW20698   2.498   9.286   0.019  0.2822  0.0300 -0.2765
39440SOL    HW120699   2.456   9.372   0.011  0.1831  0.2474  1.9626
39440SOL    HW220700   2.543   9.289   0.103  1.6032 -1.5891 -0.8625
39441SOL     OW20701   5.385   4.013   9.160 -0.1497  0.1434  0.8090
39441SOL    HW120702   5.339   4.081   9.111 -0.9527 -1.0902 -0.2100
39441SOL    HW220703   5.335   4.004   9.241 -0.2673  0.4843  0.7772
39442SOL     OW20704   4.972   8.546   0.797  0.0406  0.3810 -0.2622
39442SOL    HW120705   5.022   8.601   0.858  0.4674 -0.4270  0.1396
39442SOL    HW220706   4.920   8.489   0.854 -1.3145  1.1690 -0.6783
39443SOL     OW20707  10.673   7.462   5.569  0.2881  1.1484  0.7616
39443SOL    HW120708  10.646   7.396   5.633 -0.0733  3.4509  3.1659
39443SOL    HW220709  10.682   7.414   5.487 -2.1416 -1.4507  1.8651
39444SOL     OW20710   7.722   4.955   5.190  0.3503 -0.3502  0.3890
39444SOL    HW120711   7.719   4.906   5.108  2.0845 -0.0077  0.0920
39444SOL    HW220712   7.714   5.047   5.164 -2.5401 -0.3556  0.9186
39445SOL     OW20713  10.135   0.955   6.190 -0.2497  1.0006  0.4503
39445SOL    HW120714  10.194   0.885   6.217  1.0420  2.3023  1.1687
39445SOL    HW220715  10.079   0.971   6.266 -2.1815 -0.7811 -0.4963
39446SOL     OW20716   7.968   3.628   3.052 -0.7020 -0.0480 -0.0893
39446SOL    HW120717   8.038   3.567   3.027 -1.1296  0.1041 -1.7583
39446SOL    HW220718   7.924   3.649   2.970 -0.7671  2.2749  0.4709
39447SOL     OW20719   7.389  10.478   1.367 -0.2058  0.1301  0.2244
39447SOL    HW120720   7.369  10.403   1.311  1.6410 -0.3274  0.0928
39447SOL    HW220721   7.313  10.535   1.359 -0.9962 -1.0185 -0.8813
39448SOL     OW20722   6.429   3.505   4.280  0.2351 -0.1765  0.1855
39448SOL    HW120723   6.469   3.519   4.366 -2.2654  0.1954  1.3844
39448SOL    HW220724   6.339   3.535   4.291 -0.1881 -0.2331 -2.5637
39449SOL     OW20725   4.681   6.807   9.684 -0.3599  0.1964 -0.3148
39449SOL    HW120726   4.614   6.836   9.746  0.1144 -0.7031  0.6587
39449SOL    HW220727   4.740   6.752   9.736 -0.5638 -1.5306 -1.7998
39450SOL     OW20728   5.779   4.515   2.410  0.1832 -0.3854 -0.0548
39450SOL    HW120729   5.770   4.525   2.315 -2.2849 -0.9543  0.0597
39450SOL    HW220730   5.777   4.421   2.424  1.4972 -0.3465  0.5265
39451SOL     OW20731   5.648   8.577   4.323  0.2660  0.0318  0.4148
39451SOL    HW120732   5.575   8.520   4.347  0.7936 -1.8527 -1.9936
39451SOL    HW220733   5.726   8.524   4.340  0.7103 -1.2703 -4.2592
39452SOL     OW20734   7.570   6.375   1.549 -0.2903 -0.2985  0.3990
39452SOL    HW120735   7.540   6.308   1.487 -0.4132  0.2854 -0.1883
39452SOL    HW220736   7.502   6.378   1.616 -0.5871 -0.3373  0.1042
39453SOL     OW20737   7.822   9.766  10.305 -0.0510 -0.8405 -1.1881
39453SOL    HW120738   7.738   9.793  10.342  0.3036 -1.5975  0.2487
39453SOL    HW220739   7.848   9.690  10.357  0.4120 -2.1014 -3.1425
39454SOL     OW20740   8.840   6.752   3.624  0.2978  0.1386  0.4801
39454SOL    HW120741   8.894   6.818   3.579 -2.4563  2.1951 -0.1018
39454SOL    HW220742   8.817   6.793   3.707 -1.9323  0.2329 -0.1230
39455SOL     OW20743   7.963   2.179   4.140  0.7224 -0.1238  0.5309
39455SOL    HW120744   7.941   2.092   4.174 -0.3926  0.2151  0.7127
39455SOL    HW220745   7.905   2.192   4.065 -0.0891  0.9763  1.3005
39456SOL     OW20746   2.902   3.209   7.437 -0.0805  0.8932  0.3055
39456SOL    HW120747   2.848   3.279   7.400 -0.3714  0.8287  0.6014
39456SOL    HW220748   2.905   3.228   7.530 -0.0963  0.5573  0.3762
39457SOL     OW20749   0.353   3.383   6.751 -0.7537 -0.5122 -0.2508
39457SOL    HW120750   0.295   3.314   6.720 -0.1022 -1.3108  0.2422
39457SOL    HW220751   0.431   3.336   6.782  0.3203  0.5515 -1.2478
39458SOL     OW20752   3.130   8.858   7.358  0.0186 -0.2585  0.1817
39458SOL    HW120753   3.135   8.794   7.287 -0.5417 -0.4938  0.3469
39458SOL    HW220754   3.220   8.888   7.370  0.1790 -0.5201 -0.3500
39459SOL     OW20755   3.026  10.440   7.678 -0.6477  0.1566 -0.3690
39459SOL    HW120756   3.086  10.391   7.735  0.1188  0.1143 -1.1859
39459SOL    HW220757   3.079  10.513   7.646 -1.0229  0.0915 -1.1440
39460SOL     OW20758   3.162   2.665   3.996 -0.0407 -0.1324  0.1954
39460SOL    HW120759   3.230   2.658   3.928  0.0104  0.2073  0.2091
39460SOL    HW220760   3.144   2.758   4.002 -1.2659 -0.3111 -0.5359
39461SOL     OW20761  10.105   0.779   6.600 -0.4997  0.1505  0.3965
39461SOL    HW120762  10.167   0.844   6.568 -0.0599 -0.4680 -0.0102
39461SOL    HW220763  10.021   0.824   6.599 -0.3420  0.4496 -0.7214
39462SOL     OW20764   0.597   7.363   3.578 -0.0948  0.4756  0.6245
39462SOL    HW120765   0.690   7.381   3.564 -0.1309  0.1501 -0.0655
39462SOL    HW220766   0.586   7.366   3.673  0.5531  0.8435  0.6900
39463SOL     OW20767   4.615   8.132   0.348  0.3317 -0.5577  0.1907
39463SOL    HW120768   4.676   8.120   0.275  0.1582  0.3387 -0.1249
39463SOL    HW220769   4.531   8.102   0.315  0.4320 -0.9834  0.3259
39464SOL     OW20770   9.454   6.274   9.027 -0.5822  0.5082 -0.1264
39464SOL    HW120771   9.419   6.189   9.053  0.4274  0.2696  0.5003
39464SOL    HW220772   9.390   6.337   9.059 -1.0439  0.0241 -0.0697
39465SOL     OW20773   1.325   7.388   5.094 -0.2435 -0.1223 -0.9225
39465SOL    HW120774   1.316   7.437   5.177 -0.7520 -1.5438 -0.1021
39465SOL    HW220775   1.401   7.427   5.052  0.8749 -0.2464  0.8608
39466SOL     OW20776   0.317  10.627   1.502  0.1661 -0.0029 -0.4915
39466SOL    HW120777   0.366  10.617   1.420  3.3327  1.5321  1.0147
39466SOL    HW220778   0.231  10.658   1.475  0.5010 -1.2421 -3.2919
39467SOL     OW20779  10.222  10.115   3.234  0.3902  0.1021 -0.1841
39467SOL    HW120780  10.312  10.132   3.208  0.1096 -1.6931 -2.5802
39467SOL    HW220781  10.225  10.031   3.279  0.0592  0.6673  0.9424
39468SOL     OW20782   7.219   6.971   1.930 -0.0292 -0.3111  0.3301
39468SOL    HW120783   7.286   6.914   1.967 -0.4888 -1.2661 -0.2451
39468SOL    HW220784   7.261   7.012   1.855  0.2953  0.0806  0.7262
39469SOL     OW20785   6.051   2.078   1.871 -0.3601  0.3737 -0.1412
39469SOL    HW120786   5.969   2.100   1.828 -0.6594 -0.8831 -0.2483
39469SOL    HW220787   6.052   2.132   1.950 -0.9395  0.9225 -0.5027
39470SOL     OW20788  10.695   4.292   9.800 -0.2815  0.4840  0.5821
39470SOL    HW120789  10.692   4.236   9.877 -1.9936 -0.3527 -0.0450
39470SOL    HW220790  10.604   4.301   9.773  0.1977  1.5111 -0.8060
39471SOL     OW20791   4.094   3.234   0.301  0.1080 -0.1958  0.0808
39471SOL    HW120792   4.166   3.208   0.357 -0.8305 -0.7851  1.0420
39471SOL    HW220793   4.023   3.256   0.361 -1.2894 -1.9059 -0.8725
39472SOL     OW20794   6.751   2.731   3.336 -0.2206  0.2354  0.0262
39472SOL    HW120795   6.749   2.809   3.281 -1.7748 -0.3929 -0.8957
39472SOL    HW220796   6.837   2.692   3.319 -0.6587  0.0267 -2.0674
39473SOL     OW20797   5.483   2.606   9.386 -0.4167  0.4853 -0.3283
39473SOL    HW120798   5.511   2.681   9.438  1.1552 -0.3448  0.0775
39473SOL    HW220799   5.564   2.571   9.349 -1.3384  0.2346 -2.2460
39474SOL     OW20800   4.058   9.956   6.993 -0.4277  0.1824 -0.4060
39474SOL    HW120801   4.011   9.991   6.917  0.4231 -0.3085 -1.1936
39474SOL    HW220802   4.116  10.027   7.020  1.2313 -0.4786 -1.9455
39475SOL     OW20803  10.737   3.809   2.617 -0.1909 -0.0389  0.0112
39475SOL    HW120804  10.683   3.884   2.595 -1.4592 -0.4978  1.3879
39475SOL    HW220805  10.760   3.823   2.710  0.9730 -0.5149 -0.1815
39476SOL     OW20806   8.866   7.153   4.550  0.0695  0.3230  0.0933
39476SOL    HW120807   8.854   7.115   4.463  0.5266 -0.9906  0.5802
39476SOL    HW220808   8.929   7.224   4.537  0.3264 -0.0215 -0.5999
39477SOL     OW20809   2.355   2.268   8.840  0.0626 -0.2052 -0.5722
39477SOL    HW120810   2.275   2.216   8.829 -0.1430  0.0396 -0.2659
39477SOL    HW220811   2.365   2.276   8.935 -0.0307  0.4920 -0.6137
39478SOL     OW20812   1.199  10.290   9.376 -0.1578 -0.0337 -0.1280
39478SOL    HW120813   1.164  10.243   9.452 -1.2653 -0.5433 -0.9347
39478SOL    HW220814   1.134  10.277   9.307  0.1595  1.5503 -0.7778
39479SOL     OW20815   5.581   2.193   2.503 -0.3099  0.0552 -0.3249
39479SOL    HW120816   5.492   2.164   2.519 -0.8370  0.0445 -2.8018
39479SOL    HW220817   5.589   2.276   2.549 -2.1007  0.7721 -1.2290
39480SOL     OW20818  10.126   0.161   7.384 -0.0138 -0.5018  0.5242
39480SOL    HW120819  10.036   0.157   7.350  0.3660 -0.7463 -0.4993
39480SOL    HW220820  10.178   0.116   7.317  0.9258 -0.0176  0.9180
39481SOL     OW20821   8.704  10.638   9.422  0.1290 -0.1457 -0.5057
39481SOL    HW120822   8.612  10.618   9.405 -0.0002  1.9180 -2.8150
39481SOL    HW220823   8.751  10.590   9.353  0.4185  1.5770 -1.5524
39482SOL     OW20824   3.473   6.553   8.267 -0.4993 -0.1893 -0.2094
39482SOL    HW120825   3.553   6.507   8.291  0.6517  0.8402 -1.7876
39482SOL    HW220826   3.493   6.645   8.285 -1.7218 -0.0241  0.3397
39483SOL     OW20827   8.696   6.039   5.725  0.0774 -0.1765 -0.3334
39483SOL    HW120828   8.621   6.097   5.732 -0.0033 -0.3862  0.7885
39483SOL    HW220829   8.766   6.093   5.688 -0.3044  0.3375 -0.3091
39484SOL     OW20830  10.637   4.474  10.297 -0.0897 -0.4475  0.1525
39484SOL    HW120831  10.662   4.404  10.358  0.4823  0.0658  0.5166
39484SOL    HW220832  10.541   4.469  10.294 -0.0603 -1.2081  0.2155
39485SOL     OW20833   0.859   0.621   4.284  0.4480  0.4375 -0.2218
39485SOL    HW120834   0.939   0.663   4.252  0.7497  0.8572  1.0451
39485SOL    HW220835   0.845   0.548   4.223  0.7733  1.4370 -1.5363
39486SOL     OW20836   9.392  10.393   2.026  0.3537 -0.0551 -0.6274
39486SOL    HW120837   9.482  10.423   2.021 -0.1393  1.6281 -0.0762
39486SOL    HW220838   9.365  10.412   2.116 -0.6068 -0.3165 -0.8449
39487SOL     OW20839   2.736   2.596   0.488  0.2695  0.6619  0.3284
39487SOL    HW120840   2.711   2.518   0.439  0.2292  1.6438 -1.3084
39487SOL    HW220841   2.831   2.601   0.479  0.5608 -0.3766  2.3421
39488SOL     OW20842   0.765   0.615   3.657 -0.6088  0.1684 -0.3472
39488SOL    HW120843   0.769   0.594   3.750 -0.4617 -1.1428 -0.6312
39488SOL    HW220844   0.671   0.625   3.639 -0.5707  1.7814  0.2026
39489SOL     OW20845   3.898   5.596   4.344 -0.0501  0.2808  0.0073
39489SOL    HW120846   3.836   5.659   4.381 -0.3807  0.6844 -1.1787
39489SOL    HW220847   3.942   5.558   4.420 -1.0312  0.7242  0.8284
39490SOL     OW20848   2.331   2.858   9.739  0.2416  0.0199 -0.2697
39490SOL    HW120849   2.238   2.833   9.745  0.0808 -0.1110 -2.5034
39490SOL    HW220850   2.343   2.922   9.809 -1.0968 -1.1777  1.1223
39491SOL     OW20851   2.519   6.459   8.148 -0.5219 -0.7548  0.6326
39491SOL    HW120852   2.447   6.453   8.211 -0.4251  1.4879  1.0610
39491SOL    HW220853   2.487   6.520   8.081  1.1422  0.8177  1.1676
39492SOL     OW20854   1.652   2.437   2.533 -0.7221 -0.6130 -0.6842
39492SOL    HW120855   1.612   2.350   2.534 -0.8960 -0.5406  0.6445
39492SOL    HW220856   1.581   2.496   2.561 -0.7938  0.0619 -2.1910
39493SOL     OW20857   2.037   8.691   1.597 -0.4430  0.2023 -0.3220
39493SOL    HW120858   2.075   8.740   1.523  1.2718 -1.3816 -0.5701
39493SOL    HW220859   2.109   8.681   1.659 -1.2568 -0.4162  0.5594
39494SOL     OW20860   0.794   2.979   7.867  0.1855  0.2561  0.1284
39494SOL    HW120861   0.793   3.016   7.955 -2.2366 -1.2379  0.8231
39494SOL    HW220862   0.747   2.896   7.875  1.0747 -0.5848 -2.3280
39495SOL     OW20863   5.467   6.957   6.518 -0.7094 -0.5532 -0.2824
39495SOL    HW120864   5.498   6.947   6.608 -1.7149 -2.0816 -0.0653
39495SOL    HW220865   5.431   7.046   6.514 -0.0241 -0.2271  0.6166
39496SOL     OW20866   3.335   9.656   3.907 -0.3452 -0.4145 -0.2424
39496SOL    HW120867   3.364   9.724   3.968  0.7015 -0.7827 -0.3100
39496SOL    HW220868   3.393   9.666   3.831  0.2141 -1.7526 -0.0084
39497SOL     OW20869  10.494   4.393  10.717 -0.6720  0.1175 -0.0767
39497SOL    HW120870  10.541   4.323  10.761  2.6150  1.8395 -0.5024
39497SOL    HW220871  10.505   4.469  10.774 -2.5999  0.7511 -0.4699
39498SOL     OW20872   8.471   5.878   9.606  0.2001  0.2389  0.2636
39498SOL    HW120873   8.436   5.967   9.593  2.9144  1.5035  0.7777
39498SOL    HW220874   8.471   5.866   9.701  2.2943  0.8834  0.4103
39499SOL     OW20875   7.075   7.532  10.343 -0.1162  0.2188  0.4950
39499SOL    HW120876   7.002   7.479  10.311  0.0566  0.0295  0.4117
39499SOL    HW220877   7.034   7.597  10.400 -0.5291  1.0128 -0.6436
39500SOL     OW20878   7.161   6.477   2.206  0.0375  0.0284  0.5782
39500SOL    HW120879   7.092   6.421   2.241 -0.4954  0.7029  0.6502
39500SOL    HW220880   7.174   6.448   2.116 -0.7266  0.2345  0.3945
39501SOL     OW20881   3.295   0.509   0.006 -0.4076 -0.2555  0.0597
39501SOL    HW120882   3.242   0.589   0.000  1.8489  1.3061 -0.4418
39501SOL    HW220883   3.335   0.513   0.093  2.4612  1.1009 -1.2181
39502SOL     OW20884   8.260   2.908   6.568 -0.5808 -0.0131  0.3244
39502SOL    HW120885   8.254   2.923   6.662 -1.1017 -0.3031  0.3452
39502SOL    HW220886   8.172   2.878   6.543 -0.4626  0.1068 -0.2601
39503SOL     OW20887   1.313   1.221   1.406  0.2700 -0.1841  0.0557
39503SOL    HW120888   1.333   1.312   1.430  0.6198 -0.3775  0.4996
39503SOL    HW220889   1.316   1.173   1.488  1.5938 -0.8768 -0.3800
39504SOL     OW20890   3.535   2.044   1.933  0.1143 -0.1633  0.5497
39504SOL    HW120891   3.585   2.100   1.874 -0.7611 -0.3555 -0.4071
39504SOL    HW220892   3.446   2.043   1.896 -0.6222  0.1881  2.1979
39505SOL     OW20893   0.930   0.107   7.388 -0.1469 -0.3014  0.2626
39505SOL    HW120894   0.961   0.117   7.478 -0.2461  0.8025  0.1939
39505SOL    HW220895   0.912   0.014   7.378 -0.4481 -0.3865  1.4873
39506SOL     OW20896   6.719   5.257   5.968 -0.1167 -0.3143 -0.1374
39506SOL    HW120897   6.737   5.166   5.946 -1.0461 -0.2752 -1.1178
39506SOL    HW220898   6.741   5.264   6.061  1.1287 -1.2134 -0.3456
39507SOL     OW20899   3.436   2.756   4.281  0.1883  0.1901  0.1948
39507SOL    HW120900   3.488   2.769   4.202 -1.9663 -0.4560 -1.4229
39507SOL    HW220901   3.372   2.828   4.281 -0.1188 -0.0661  1.1020
39508SOL     OW20902   5.624   5.021   9.051  0.1046 -0.3454  0.0508
39508SOL    HW120903   5.700   5.079   9.063  0.3876 -0.6217 -0.3927
39508SOL    HW220904   5.607   4.986   9.139  2.2144 -2.4232 -0.2698
39509SOL     OW20905   8.352   2.597   6.142 -0.3913  0.0202  0.0464
39509SOL    HW120906   8.258   2.595   6.124 -0.2300  1.4166 -1.1909
39509SOL    HW220907   8.362   2.668   6.206 -0.3194 -1.1659  1.4021
39510SOL     OW20908   1.515   4.418   0.184  0.6448  0.1879 -0.3037
39510SOL    HW120909   1.474   4.392   0.102 -2.0106 -0.1940  1.0524
39510SOL    HW220910   1.497   4.511   0.192 -2.1924 -0.3910  1.3631
39511SOL     OW20911   1.620   7.415   8.434 -0.2808 -0.4092  0.2426
39511SOL    HW120912   1.663   7.345   8.483 -1.9727 -1.8673 -0.2883
39511SOL    HW220913   1.527   7.406   8.456 -0.5317  1.8913  0.4099
39512SOL     OW20914  10.638   4.091   3.208  0.4785 -0.2601 -0.4096
39512SOL    HW120915  10.566   4.132   3.257  0.0500 -0.2817 -0.9997
39512SOL    HW220916  10.602   4.007   3.179  1.6125 -1.4495  1.4543
39513SOL     OW20917   1.146   1.156   6.104 -0.1653 -0.2137 -0.2187
39513SOL    HW120918   1.171   1.197   6.187 -1.4372 -0.0012  0.0813
39513SOL    HW220919   1.162   1.224   6.038 -2.7390  1.0442  0.3323
39514SOL     OW20920   5.381   0.250  10.756  0.2115 -0.2735 -0.1476
39514SOL    HW120921   5.372   0.345  10.763 -0.7537 -0.4211  1.0832
39514SOL    HW220922   5.291   0.218  10.748  0.2064 -1.2533  2.7165
39515SOL     OW20923   5.418   9.298   9.451 -0.1411  0.5457  0.4323
39515SOL    HW120924   5.379   9.323   9.535  1.4593  0.7654  1.1441
39515SOL    HW220925   5.488   9.361   9.438  0.6144 -0.4272 -0.3142
39516SOL     OW20926  10.105   6.077   6.166 -0.1128  0.0888 -0.1751
39516SOL    HW120927  10.099   6.098   6.259  2.2597 -1.2760  0.3602
39516SOL    HW220928  10.187   6.119   6.138 -0.0594 -0.7319 -1.2908
39517SOL     OW20929   1.060   2.114   3.186 -0.1303  1.1387 -0.4236
39517SOL    HW120930   0.983   2.078   3.141 -0.2578  0.5453  0.2454
39517SOL    HW220931   1.133   2.098   3.126 -0.0038 -1.1710  0.2223
39518SOL     OW20932   0.930   3.422   8.431 -0.0867 -0.3966 -0.2978
39518SOL    HW120933   0.988   3.398   8.358  0.4455 -0.5667  0.1741
39518SOL    HW220934   0.888   3.503   8.402 -1.0273 -1.2613 -1.4180
39519SOL     OW20935   0.134   3.906   1.322  0.1455  0.5004  0.0998
39519SOL    HW120936   0.178   3.851   1.387  0.8642 -1.1258 -1.6827
39519SOL    HW220937   0.206   3.945   1.272 -0.4212  0.6082 -0.6409
39520SOL     OW20938   8.634   7.892   6.245 -0.2151  0.5086 -0.3950
39520SOL    HW120939   8.723   7.857   6.236 -0.0979  0.8616 -0.6558
39520SOL    HW220940   8.577   7.815   6.241  0.0569  0.3164 -0.5946
39521SOL     OW20941  10.485   2.393   3.334 -0.1340 -0.0306 -0.6249
39521SOL    HW120942  10.541   2.449   3.280  1.8211 -1.2618  0.0180
39521SOL    HW220943  10.396   2.421   3.313  0.6523  1.1980 -2.6107
39522SOL     OW20944  10.107  10.580   0.820  0.7609 -0.2739 -0.3173
39522SOL    HW120945  10.147  10.493   0.824  0.2514 -0.5661 -1.1590
39522SOL    HW220946  10.079  10.598   0.909 -2.1056 -2.4271 -0.6196
39523SOL     OW20947  10.466   1.433   0.492 -0.5021  0.2430 -0.1794
39523SOL    HW120948  10.379   1.403   0.519 -0.4522 -1.1673 -1.4971
39523SOL    HW220949  10.524   1.403   0.562 -0.7673 -0.9138 -0.4276
39524SOL     OW20950   7.723   0.078   6.053  0.0427 -0.2830  0.3128
39524SOL    HW120951   7.675   0.148   6.008 -0.5111 -0.9398 -0.1562
39524SOL    HW220952   7.751   0.117   6.136  0.5846  0.7776 -0.3474
39525SOL     OW20953   6.757   7.345   2.027  0.1526 -0.2082  0.0034
39525SOL    HW120954   6.689   7.308   2.083  0.1930  1.0296  0.9075
39525SOL    HW220955   6.787   7.271   1.973  0.4035 -1.5701  1.9065
39526SOL     OW20956   0.186   0.029   7.258  0.2743 -0.0683 -0.5857
39526SOL    HW120957   0.156   0.117   7.233  0.4432  0.1682  0.0438
39526SOL    HW220958   0.134  -0.030   7.203 -3.2104  0.1641  2.1439
39527SOL     OW20959   1.640   6.024   0.747  0.2269 -0.6222  0.2397
39527SOL    HW120960   1.618   6.098   0.803 -0.9175 -0.1035 -0.8627
39527SOL    HW220961   1.569   5.961   0.761  0.7452 -1.1611  0.5193
39528SOL     OW20962   9.900   1.209   2.088 -0.0122 -0.0434  0.3653
39528SOL    HW120963   9.988   1.172   2.081 -0.3378 -0.8953  0.7081
39528SOL    HW220964   9.895   1.273   2.016  0.2014 -1.4245 -0.9349
39529SOL     OW20965   4.843   2.363  10.553  0.1895 -0.0368 -0.4905
39529SOL    HW120966   4.783   2.291  10.575 -0.0787  0.4725  0.5220
39529SOL    HW220967   4.894   2.330  10.479 -1.0141 -0.6698 -1.0688
39530SOL     OW20968  10.092   0.488   5.360  0.0808  0.0492  0.1919
39530SOL    HW120969  10.102   0.485   5.265  1.0653  0.8624  0.2569
39530SOL    HW220970  10.087   0.581   5.381 -0.4215 -0.1291  0.9200
39531SOL     OW20971   4.124   2.221   9.392 -0.6372  0.6867  0.6793
39531SOL    HW120972   4.050   2.197   9.337  0.3561  0.0004 -0.4099
39531SOL    HW220973   4.092   2.210   9.481 -1.5467 -0.5775  0.2279
39532SOL     OW20974   8.891   6.624   6.991 -0.4448  0.2724  0.0932
39532SOL    HW120975   8.984   6.607   6.976 -0.5554  0.1621 -0.4879
39532SOL    HW220976   8.889   6.704   7.042 -0.0245  0.1980  0.2275
39533SOL     OW20977  10.148   8.551  10.711  0.2677 -0.0692  0.1388
39533SOL    HW120978  10.216   8.490  10.740 -0.6374 -0.4995  1.4419
39533SOL    HW220979  10.081   8.495  10.673  0.2126  0.2745 -0.2694
39534SOL     OW20980   4.510   2.521   8.747 -0.5856  0.4076  0.1418
39534SOL    HW120981   4.445   2.576   8.703 -1.5755 -0.0225  1.0306
39534SOL    HW220982   4.502   2.436   8.705 -1.6676 -0.0576  1.2433
39535SOL     OW20983   0.087   0.697   3.081  0.0149 -0.1814 -0.3403
39535SOL    HW120984   0.181   0.699   3.097  0.4082 -0.9400 -2.3385
39535SOL    HW220985   0.054   0.778   3.120  1.7155  0.8206 -0.9051
39536SOL     OW20986   7.336   5.086   1.524 -0.0505 -0.6026  0.4475
39536SOL    HW120987   7.300   5.143   1.591 -1.4176 -1.4535  0.4841
39536SOL    HW220988   7.329   5.136   1.443  0.8143  0.1052  0.8013
39537SOL     OW20989   3.467   8.885   3.716 -0.1565 -0.1132  0.6330
39537SOL    HW120990   3.538   8.826   3.691  0.1492  0.7685 -0.6229
39537SOL    HW220991   3.393   8.826   3.733 -0.7743 -0.8530 -3.5369
39538SOL     OW20992   4.344   6.232   7.251 -0.0654  0.1344  0.1913
39538SOL    HW120993   4.342   6.328   7.248  0.4451  0.1150 -1.4015
39538SOL    HW220994   4.307   6.205   7.167  1.8970 -1.0178 -0.3447
39539SOL     OW20995   3.302   2.101   1.530 -0.2833 -0.1175  0.3126
39539SOL    HW120996   3.388   2.093   1.488  0.9142  1.8158  2.2039
39539SOL    HW220997   3.250   2.153   1.468  0.3978 -0.0179 -0.1924
39540SOL     OW20998  10.641  10.555   1.921  0.3321  0.0195 -0.0279
39540SOL    HW120999  10.726  10.512   1.935  0.2527  0.0195  0.4578
39540SOL    HW221000  10.586  10.488   1.882 -0.4094 -0.9748  2.5469
39541SOL     OW21001   6.016   1.833   6.112  0.2365 -0.0898  0.2184
39541SOL    HW121002   6.067   1.884   6.175 -2.0937  0.6483  1.6297
39541SOL    HW221003   6.019   1.743   6.146  0.4340 -0.0138  0.4040
39542SOL     OW21004   3.675   5.955   7.122 -0.3194 -0.2874 -0.0529
39542SOL    HW121005   3.676   5.879   7.065  0.5458  0.2085 -0.7244
39542SOL    HW221006   3.697   5.921   7.209  0.1472 -0.7942 -0.3644
39543SOL     OW21007   1.573  10.758   3.145  0.5790  0.3387 -0.9225
39543SOL    HW121008   1.506  10.761   3.214  0.6972 -0.4112 -0.7649
39543SOL    HW221009   1.590  10.850   3.124 -2.7854  0.6114 -3.2256
39544SOL     OW21010   3.566   4.458   1.474  0.1426 -0.0155 -0.0685
39544SOL    HW121011   3.472   4.463   1.494 -0.2586 -3.4616 -0.3486
39544SOL    HW221012   3.572   4.484   1.382 -0.4247  0.7734  0.1044
39545SOL     OW21013   0.837   1.815   3.354 -0.0916 -0.0004  0.6084
39545SOL    HW121014   0.932   1.824   3.362 -0.0580  1.4336 -0.8565
39545SOL    HW221015   0.823   1.787   3.263 -0.9905 -2.7277  1.4698
39546SOL     OW21016  10.724   8.645  10.321 -0.3504  0.1072  0.1470
39546SOL    HW121017  10.819   8.642  10.315 -0.3584  1.3441 -1.1258
39546SOL    HW221018  10.706   8.660  10.414  0.7327  0.5143  0.3012
39547SOL     OW21019   6.038   3.565   6.212 -0.0762  0.0247  0.1306
39547SOL    HW121020   6.040   3.505   6.286 -1.5581 -0.6359 -0.3300
39547SOL    HW221021   6.042   3.507   6.135  0.1590  0.6203 -0.3088
39548SOL     OW21022   2.902  10.527   4.396 -0.2774 -0.2005  0.2690
39548SOL    HW121023   2.873  10.446   4.354  0.7694 -0.4806  0.0575
39548SOL    HW221024   2.936  10.580   4.323 -0.2662  0.1179  0.5061
39549SOL     OW21025   7.921   5.417   8.778 -0.1700  0.0112 -0.1160
39549SOL    HW121026   7.910   5.500   8.825 -0.4255 -1.1767  2.0842
39549SOL    HW221027   7.986   5.436   8.711 -0.4427  2.0463  0.1161
39550SOL     OW21028  10.132   3.706   6.330  0.6131 -0.7355  0.4347
39550SOL    HW121029  10.048   3.751   6.327 -0.7791 -2.8997  2.7878
39550SOL    HW221030  10.165   3.722   6.418  1.3404 -2.1410  0.4475
39551SOL     OW21031   7.203   4.810   4.679 -0.0438  0.4043  0.7864
39551SOL    HW121032   7.164   4.743   4.735  0.7693 -0.2785  0.5429
39551SOL    HW221033   7.205   4.888   4.734 -1.3445  0.3474  0.9527
39552SOL     OW21034   7.415   2.225   4.533  0.5020 -0.3904 -0.2173
39552SOL    HW121035   7.410   2.309   4.579  0.9720 -1.2528  1.4913
39552SOL    HW221036   7.326   2.190   4.537  0.5924 -0.5692  0.2543
39553SOL     OW21037   6.336   8.854   3.653  0.1286  0.0576  0.4580
39553SOL    HW121038   6.392   8.812   3.588  0.3154 -1.4867  1.5569
39553SOL    HW221039   6.315   8.784   3.716  0.3027  1.5678  2.2820
39554SOL     OW21040   6.968   1.338   0.702  0.2215 -0.0328 -0.0126
39554SOL    HW121041   6.907   1.367   0.769  1.1711  0.8108  0.5309
39554SOL    HW221042   6.975   1.243   0.714 -0.4536 -0.0361  0.3592
39555SOL     OW21043   5.204   6.458   1.398 -0.2986 -0.0181 -0.3193
39555SOL    HW121044   5.149   6.446   1.321 -0.9891  1.3007 -0.0541
39555SOL    HW221045   5.171   6.393   1.461  0.6946 -1.5646 -1.3059
39556SOL     OW21046   1.515   3.632   5.418  0.3527  0.0692 -0.2943
39556SOL    HW121047   1.428   3.593   5.412  0.7069 -0.7810 -0.0590
39556SOL    HW221048   1.573   3.568   5.376  1.3622 -1.0657  2.5524
39557SOL     OW21049   8.327   1.075   6.028 -0.8463 -0.1280  0.1943
39557SOL    HW121050   8.243   1.036   6.001 -1.6192  1.2224  0.5298
39557SOL    HW221051   8.355   1.022   6.102 -1.8318 -0.1214  0.5895
39558SOL     OW21052   7.464   1.369   8.767  0.0330  0.0106  0.1456
39558SOL    HW121053   7.433   1.281   8.787 -0.0650 -0.1061 -0.4862
39558SOL    HW221054   7.468   1.414   8.851  1.8087 -1.1466  0.7451
39559SOL     OW21055   9.348   0.174   8.241  0.3021  0.1230  0.1315
39559SOL    HW121056   9.440   0.159   8.218  0.4778  0.8135  0.3455
39559SOL    HW221057   9.310   0.086   8.248  1.7933 -0.4075  3.4976
39560SOL     OW21058   3.038   1.999   5.517  0.3405  0.1853 -0.0803
39560SOL    HW121059   3.057   1.908   5.494  0.8690  0.8428 -2.6059
39560SOL    HW221060   3.034   2.044   5.433 -0.1215  2.4754  1.0906
39561SOL     OW21061   9.264   9.391   4.531 -0.0872  0.0299 -0.0580
39561SOL    HW121062   9.228   9.476   4.508 -1.0180 -0.2598  0.2992
39561SOL    HW221063   9.188   9.333   4.536  0.4100 -0.5662  0.8350
39562SOL     OW21064   1.552   9.991   6.059  0.1679 -0.2149 -0.3123
39562SOL    HW121065   1.594  10.069   6.022 -0.8004 -0.4059 -1.9083
39562SOL    HW221066   1.530   9.937   5.983 -0.7474 -1.2476  0.6477
39563SOL     OW21067   0.462  10.288   2.156 -0.8547 -0.4751 -0.0168
39563SOL    HW121068   0.404  10.341   2.211 -0.4229  0.0709 -0.0773
39563SOL    HW221069   0.453  10.327   2.069  1.9605  1.7277  0.5127
39564SOL     OW21070   0.734  10.671   2.868  0.7128 -0.0548  0.6116
39564SOL    HW121071   0.809  10.622   2.835 -0.4649  0.1545 -2.6671
39564SOL    HW221072   0.757  10.763   2.856  0.1877  0.0264  0.2014
39565SOL     OW21073   7.491   4.100   1.577  0.0649 -0.8031 -0.1428
39565SOL    HW121074   7.456   4.037   1.514 -0.8739 -0.0800 -0.3594
39565SOL    HW221075   7.426   4.170   1.580  1.0497  0.1105  0.1734
39566SOL     OW21076   9.014   6.192   9.170 -0.3295  0.0668 -0.0896
39566SOL    HW121077   8.947   6.151   9.115  1.6496 -2.0354 -1.0804
39566SOL    HW221078   8.993   6.163   9.259 -1.3232  0.3052 -0.2367
39567SOL     OW21079   4.054   1.179   5.567 -0.1715 -0.5540  0.3466
39567SOL    HW121080   4.030   1.087   5.583 -0.0922 -0.4432  1.1255
39567SOL    HW221081   4.091   1.209   5.650  1.7317 -0.4222 -0.4975
39568SOL     OW21082   1.661   7.176   8.597  0.5199  0.2977 -0.1216
39568SOL    HW121083   1.644   7.188   8.691  0.0814 -0.8617 -0.0314
39568SOL    HW221084   1.645   7.083   8.582 -2.0896  0.9303 -1.8666
39569SOL     OW21085   7.869   9.546   9.615  0.1302  0.2973  0.7201
39569SOL    HW121086   7.950   9.502   9.589 -0.2481  0.4390 -0.8378
39569SOL    HW221087   7.891   9.594   9.694  1.9307  1.3316 -0.3316
39570SOL     OW21088   0.787   2.251   6.248 -0.3985  0.0028 -0.0980
39570SOL    HW121089   0.837   2.321   6.204 -0.6258  0.7220  0.7605
39570SOL    HW221090   0.748   2.201   6.176  1.0062 -0.1763 -0.7801
39571SOL     OW21091   3.037   9.145   8.070  0.0414 -0.3959  1.0615
39571SOL    HW121092   3.107   9.206   8.044  0.1346 -0.5389  0.9744
39571SOL    HW221093   3.082   9.076   8.118 -0.1150 -0.2061  1.4813
39572SOL     OW21094  10.541   4.488   6.753  0.2949  0.1746 -0.2792
39572SOL    HW121095  10.589   4.514   6.832 -0.3608  1.9166 -0.4070
39572SOL    HW221096  10.464   4.441   6.785  1.3870 -1.5466 -0.0298
39573SOL     OW21097   1.459   1.862   8.757  0.4012 -0.2288 -0.5229
39573SOL    HW121098   1.435   1.769   8.760  1.2999 -0.4527  0.1034
39573SOL    HW221099   1.518   1.869   8.682 -1.6847  0.3664 -2.2104
39574SOL     OW21100   6.893   6.370   1.940  0.2302  0.2115 -0.3375
39574SOL    HW121101   6.832   6.342   1.872 -0.9839  0.3324  0.6693
39574SOL    HW221102   6.858   6.453   1.972 -0.6010 -0.9662  2.0383
39575SOL     OW21103   7.447   3.555   8.365  0.2328 -0.7571  0.3313
39575SOL    HW121104   7.530   3.581   8.404 -0.1477 -0.5975  1.0400
39575SOL    HW221105   7.438   3.610   8.288  0.5049 -0.3619  0.5820
39576SOL     OW21106   2.102   5.898   2.743  0.1933 -0.6879  0.2879
39576SOL    HW121107   2.162   5.835   2.705 -0.2528 -1.9185  1.5458
39576SOL    HW221108   2.060   5.940   2.668  1.0631 -1.3271 -0.5776
39577SOL     OW21109   3.305   3.998   5.360  0.1735 -0.4122  0.4111
39577SOL    HW121110   3.341   4.085   5.340  1.4193 -1.4220 -2.2601
39577SOL    HW221111   3.368   3.960   5.421  1.5763 -0.6376 -1.0883
39578SOL     OW21112   7.743   9.155   4.931 -0.0333  0.8643 -0.0287
39578SOL    HW121113   7.653   9.142   4.900  0.1540 -1.0609  0.0851
39578SOL    HW221114   7.734   9.172   5.025 -0.2293 -2.5387  0.7062
39579SOL     OW21115   3.214   3.796   4.811 -0.4682  0.0301 -0.5323
39579SOL    HW121116   3.271   3.739   4.863 -1.1276  1.2871  1.7227
39579SOL    HW221117   3.274   3.846   4.755  0.3981 -0.5125 -0.1131
39580SOL     OW21118   6.373   0.130   6.618  0.0211 -0.2158 -0.2514
39580SOL    HW121119   6.419   0.046   6.608 -0.2844 -0.6967  1.9413
39580SOL    HW221120   6.349   0.133   6.710 -1.3541  1.6008 -0.6256
39581SOL     OW21121   8.392   2.488   1.709  0.3445 -0.6301 -0.7614
39581SOL    HW121122   8.389   2.541   1.789 -1.7071  1.8210 -2.3048
39581SOL    HW221123   8.312   2.436   1.711  1.0804 -1.7726 -0.4889
39582SOL     OW21124   7.785   2.018   9.044 -0.5799  0.7772  0.1774
39582SOL    HW121125   7.836   1.937   9.052 -1.1102  0.1131 -2.1117
39582SOL    HW221126   7.840   2.085   9.084  0.8567 -0.3612  0.2344
39583SOL     OW21127   8.042   1.555   3.187 -0.1848  0.6964  0.1696
39583SOL    HW121128   7.969   1.613   3.167 -0.4205  0.3356 -0.0321
39583SOL    HW221129   8.070   1.521   3.102 -2.0102 -1.8323  0.4738
39584SOL     OW21130   8.315   4.593  10.190  0.2554  0.1790 -0.1519
39584SOL    HW121131   8.235   4.639  10.218  1.3475  1.3071  1.2502
39584SOL    HW221132   8.384   4.628  10.247  1.7579 -0.7938 -1.3083
39585SOL     OW21133   3.546   0.006   3.432 -0.9276 -0.2821 -0.7226
39585SOL    HW121134   3.466   0.015   3.484 -0.6060 -1.2346 -0.0231
39585SOL    HW221135   3.532   0.062   3.356 -0.9059  2.2085  0.9765
39586SOL     OW21136  10.182   5.368   8.246 -0.5264  0.2186 -0.0466
39586SOL    HW121137  10.148   5.426   8.178  1.7118  2.1203  0.3256
39586SOL    HW221138  10.226   5.427   8.308  0.6718 -1.7743  1.1036
39587SOL     OW21139  10.183   5.036   0.448  0.3421  0.2456 -0.1972
39587SOL    HW121140  10.212   5.042   0.539 -0.9015  1.6724  0.1435
39587SOL    HW221141  10.260   5.061   0.396  0.2826  2.1842  0.5915
39588SOL     OW21142  10.136   0.973   1.750 -0.5000 -0.2212 -0.1407
39588SOL    HW121143  10.194   0.976   1.674 -1.3522 -2.3472 -0.9372
39588SOL    HW221144  10.173   1.038   1.810  1.3176  0.1470 -1.5550
39589SOL     OW21145   2.936   3.195   6.858  0.5281  0.0148 -0.1080
39589SOL    HW121146   2.865   3.146   6.901  1.9927 -1.3175  0.9228
39589SOL    HW221147   2.910   3.287   6.866 -0.6952 -0.3922  0.9610
39590SOL     OW21148   6.813   6.154  10.420 -0.2412 -0.1570  0.1592
39590SOL    HW121149   6.734   6.101  10.432 -0.2042 -0.2615 -0.0532
39590SOL    HW221150   6.780   6.240  10.395 -0.2624 -0.6522 -1.6553
39591SOL     OW21151   1.357   2.691   0.741 -0.2814  0.0707  0.1056
39591SOL    HW121152   1.433   2.633   0.729  0.1358  0.5563  0.3807
39591SOL    HW221153   1.388   2.759   0.800 -0.3775  1.2902 -1.1989
39592SOL     OW21154   6.928   0.590   8.534  0.8081 -0.6128  0.1230
39592SOL    HW121155   6.943   0.546   8.618  0.9572 -0.3820  0.2167
39592SOL    HW221156   7.015   0.614   8.503  0.8067 -1.1972 -0.3711
39593SOL     OW21157   2.242   3.995  10.631 -0.5517 -0.7183 -0.5043
39593SOL    HW121158   2.157   3.984  10.588 -1.3158 -1.6486  1.1370
39593SOL    HW221159   2.237   3.939  10.708  0.4930  1.3893  1.1840
39594SOL     OW21160   3.757   7.984   6.842  0.7975 -0.2655  0.3176
39594SOL    HW121161   3.793   7.966   6.756  1.4873  2.5594 -0.0879
39594SOL    HW221162   3.834   8.001   6.897  0.3291  2.7087  0.2168
39595SOL     OW21163   9.288   7.814  10.630  0.3297  0.3102  0.0086
39595SOL    HW121164   9.273   7.739  10.688 -0.7618 -0.3122 -1.0462
39595SOL    HW221165   9.235   7.796  10.553 -0.8581  2.7066  0.1595
39596SOL     OW21166   2.397   1.856   0.335  0.3302 -0.1933  0.0119
39596SOL    HW121167   2.383   1.933   0.281  1.8801  0.1407  0.0206
39596SOL    HW221168   2.355   1.876   0.419  0.6482  0.6185 -0.0150
39597SOL     OW21169   5.757   9.130   5.466 -0.0289  0.2757 -0.1257
39597SOL    HW121170   5.699   9.063   5.431  0.1823 -0.0637  0.1695
39597SOL    HW221171   5.721   9.212   5.433 -0.1285  0.0010 -0.7105
39598SOL     OW21172   4.797   4.856   8.288 -0.1677 -0.3901 -0.2849
39598SOL    HW121173   4.718   4.895   8.252 -0.7503 -1.5191 -0.2665
39598SOL    HW221174   4.867   4.881   8.227 -0.3104  1.5206  0.2696
39599SOL     OW21175   5.622   4.373   6.659  0.0118  0.3381  0.4895
39599SOL    HW121176   5.582   4.286   6.665  0.1638  0.3310  1.7186
39599SOL    HW221177   5.549   4.434   6.673 -0.2370  0.4530 -1.1483
39600SOL     OW21178   1.747   1.036  10.206 -0.3184 -0.2057 -0.8182
39600SOL    HW121179   1.775   1.015  10.117  0.6082 -0.0680 -0.5704
39600SOL    HW221180   1.676   0.973  10.224  0.9468 -1.7180 -0.8792
39601SOL     OW21181   3.253   1.171   3.882 -0.5028 -0.2149 -0.2570
39601SOL    HW121182   3.275   1.100   3.822 -0.6176  0.2683 -0.8794
39601SOL    HW221183   3.335   1.219   3.894 -0.5897 -0.0315 -0.4004
39602SOL     OW21184   9.204   8.338   5.335  1.2669  0.3954  0.2875
39602SOL    HW121185   9.139   8.292   5.281  1.1671  1.6233 -0.6776
39602SOL    HW221186   9.238   8.408   5.279  2.1478  0.8766  1.3709
39603SOL     OW21187   7.740   6.877   2.453  0.2436  0.1365  0.2122
39603SOL    HW121188   7.747   6.871   2.358 -0.0114  1.0197  0.1324
39603SOL    HW221189   7.648   6.899   2.469  0.6717  1.7967  0.5590
39604SOL     OW21190   6.372   4.654   1.777  0.0060 -0.4596  0.0788
39604SOL    HW121191   6.369   4.737   1.728 -2.3666 -0.9025 -0.6405
39604SOL    HW221192   6.452   4.611   1.746  0.5354  0.9295 -0.5816
39605SOL     OW21193   8.152   4.851   9.254  0.1770  0.4242 -0.1253
39605SOL    HW121194   8.200   4.858   9.337 -0.8738  1.3291  0.4407
39605SOL    HW221195   8.174   4.764   9.220  3.2311  1.2745 -0.5773
39606SOL     OW21196   6.238   2.600   8.213  0.1333 -0.3478 -0.4471
39606SOL    HW121197   6.189   2.523   8.240  0.7218 -0.3349  0.7312
39606SOL    HW221198   6.322   2.566   8.181 -0.7159 -0.3995 -2.8045
39607SOL     OW21199   7.322   2.876  10.073  0.3072 -0.2233 -0.4972
39607SOL    HW121200   7.404   2.831  10.096  0.6017 -0.5479 -2.1068
39607SOL    HW221201   7.350   2.960  10.037 -0.1708  0.4554  0.6395
39608SOL     OW21202  10.436   7.412   5.339  0.0428 -0.5573 -0.7482
39608SOL    HW121203  10.461   7.501   5.312 -1.6513 -0.2977 -1.6067
39608SOL    HW221204  10.443   7.413   5.434 -0.1916  0.5964 -0.7233
39609SOL     OW21205   0.520   0.658   4.595  0.0449 -0.0280 -0.2051
39609SOL    HW121206   0.467   0.627   4.669 -1.1595 -0.3283 -1.1645
39609SOL    HW221207   0.489   0.748   4.581 -0.2439 -0.2153 -0.7856
39610SOL     OW21208   2.372   2.573   0.537  0.0187 -0.0680 -0.3144
39610SOL    HW121209   2.411   2.551   0.452 -0.6366 -0.3371 -0.5505
39610SOL    HW221210   2.395   2.499   0.593  0.1699 -0.0467 -0.3474
39611SOL     OW21211   1.108   4.039   5.795  0.8667 -0.0012 -0.1143
39611SOL    HW121212   1.202   4.022   5.791  0.7803 -0.2477 -1.4698
39611SOL    HW221213   1.092   4.105   5.727  0.3197  1.4282  1.3251
39612SOL     OW21214   4.028   3.511   2.756 -0.2051  0.1979 -1.0176
39612SOL    HW121215   3.992   3.594   2.724 -2.7071 -0.1370  0.6015
39612SOL    HW221216   4.059   3.466   2.677 -2.5940  0.9827 -2.5235
39613SOL     OW21217   4.556   8.158   8.360  0.6789 -0.0852  0.3781
39613SOL    HW121218   4.478   8.212   8.344 -0.4792 -1.8566 -0.1772
39613SOL    HW221219   4.606   8.165   8.279 -1.1027 -2.3945 -1.0302
39614SOL     OW21220   6.340   2.828   7.406 -0.0577 -0.0773 -0.3163
39614SOL    HW121221   6.343   2.736   7.433 -0.6435  0.3300  1.2381
39614SOL    HW221222   6.326   2.877   7.487  0.7307  1.4387 -1.0394
39615SOL     OW21223   0.467   1.621   3.549  0.1800 -0.5708 -0.0159
39615SOL    HW121224   0.508   1.708   3.539  0.3298 -0.6543 -0.1431
39615SOL    HW221225   0.495   1.591   3.636 -1.5478  0.3810  0.9122
39616SOL     OW21226   2.929   6.723   8.097  0.6535  0.5761  0.0105
39616SOL    HW121227   2.906   6.763   8.013  0.0766 -0.1432 -0.1898
39616SOL    HW221228   2.876   6.643   8.100  0.0129  1.0316  1.4517
39617SOL     OW21229   7.370   9.646   8.740 -0.1005 -0.0068 -0.4126
39617SOL    HW121230   7.343   9.643   8.648 -0.6855  0.4669 -0.2594
39617SOL    HW221231   7.365   9.555   8.770  1.6528 -0.4386 -1.2819
39618SOL     OW21232   6.970   0.735   7.312  0.1693 -0.1005  0.3205
39618SOL    HW121233   6.931   0.684   7.241  1.9161 -1.5186  0.2989
39618SOL    HW221234   6.918   0.713   7.389 -1.3917  1.0115 -0.3714
39619SOL     OW21235   9.384   2.432   9.904  0.3721  0.1101 -0.5267
39619SOL    HW121236   9.391   2.390   9.818 -2.2272 -1.3653 -0.1451
39619SOL    HW221237   9.367   2.525   9.884 -1.7066 -0.4560 -1.7510
39620SOL     OW21238   1.248   9.313   2.740 -0.6806  1.0936  0.2416
39620SOL    HW121239   1.268   9.234   2.789  0.7099  1.0991 -0.2662
39620SOL    HW221240   1.165   9.294   2.696 -0.7953  0.2541  0.8079
39621SOL     OW21241   8.776   8.865   8.769  0.2930 -0.1291 -0.3321
39621SOL    HW121242   8.842   8.796   8.777 -1.2036 -1.5460  0.6229
39621SOL    HW221243   8.807   8.934   8.828  1.2076 -0.5189 -0.3356
39622SOL     OW21244   3.904   0.265   0.559 -0.9111  0.2681 -0.1689
39622SOL    HW121245   3.822   0.230   0.594 -0.5415 -0.5635 -0.1058
39622SOL    HW221246   3.941   0.193   0.508 -0.2790  0.6768 -0.3007
39623SOL     OW21247   8.443   9.395   5.684 -0.4076 -0.3017 -0.6622
39623SOL    HW121248   8.488   9.467   5.639 -0.8920  0.5719  0.2069
39623SOL    HW221249   8.500   9.375   5.759 -0.5242 -0.4933 -0.6240
39624SOL     OW21250   6.166   1.858   0.041 -0.1876  0.2056 -0.2823
39624SOL    HW121251   6.240   1.907   0.078 -0.5435 -1.2982  2.7988
39624SOL    HW221252   6.091   1.916   0.051 -0.6832 -0.7770  3.7006
39625SOL     OW21253   3.770   9.659   1.920  0.1588  0.4575 -0.0156
39625SOL    HW121254   3.734   9.596   1.982  0.7487 -0.5446 -0.6502
39625SOL    HW221255   3.855   9.623   1.897 -1.0976 -0.7086 -3.4586
39626SOL     OW21256   4.671   2.348   3.157 -0.1449 -0.3716  0.4763
39626SOL    HW121257   4.708   2.433   3.181 -1.3969 -0.1515  1.7927
39626SOL    HW221258   4.577   2.365   3.149 -0.4369 -1.6659  0.9245
39627SOL     OW21259   2.047   0.350   7.603  0.3278 -0.1846 -0.0816
39627SOL    HW121260   2.066   0.420   7.541  0.2758 -0.0779  0.0225
39627SOL    HW221261   1.962   0.373   7.640 -0.0208 -0.6729 -0.5629
39628SOL     OW21262   3.349  10.448   1.571 -0.0423 -0.3477  0.0825
39628SOL    HW121263   3.331  10.449   1.477 -3.1958 -2.7868  0.4829
39628SOL    HW221264   3.368  10.356   1.591  1.5521  0.2790  1.7344
39629SOL     OW21265   8.948   2.356   1.818  0.1789 -0.2696 -0.2038
39629SOL    HW121266   8.908   2.269   1.822 -0.4723  0.0530  1.1090
39629SOL    HW221267   8.892   2.410   1.874  1.3044  0.6966  0.0315
39630SOL     OW21268   5.054   2.022   8.283 -0.2327  0.4551 -0.3071
39630SOL    HW121269   5.095   2.102   8.316  1.1490 -1.1159  2.0202
39630SOL    HW221270   5.127   1.963   8.264 -1.2528 -0.7973 -0.4692
39631SOL     OW21271   8.770   8.062  10.290 -0.1532  0.4720 -0.6313
39631SOL    HW121272   8.702   8.126  10.270 -0.4684  0.4534  0.3083
39631SOL    HW221273   8.824   8.106  10.357  0.6880  0.4344 -1.2600
39632SOL     OW21274   2.966   3.220   0.791  0.0560 -0.1698 -0.0842
39632SOL    HW121275   2.891   3.184   0.744 -0.2328  0.4803 -0.1336
39632SOL    HW221276   3.040   3.207   0.732 -0.1602 -0.0954 -0.3707
39633SOL     OW21277  10.687   7.632   0.925  0.3350 -0.0527  0.0552
39633SOL    HW121278  10.702   7.590   1.009 -0.7534 -3.0340 -1.1189
39633SOL    HW221279  10.774   7.660   0.896  0.8187  0.3407  1.7754
39634SOL     OW21280   3.416   1.696   4.772  0.4041  0.1362 -0.2078
39634SOL    HW121281   3.450   1.681   4.860 -0.5445 -0.7399  0.0347
39634SOL    HW221282   3.490   1.733   4.723  0.3844  2.6482  1.4830
39635SOL     OW21283   4.040   9.072   0.446 -0.2861 -0.0947 -0.1579
39635SOL    HW121284   4.020   9.131   0.519 -0.5041  0.2808 -0.5141
39635SOL    HW221285   4.101   9.008   0.482 -1.8331 -1.0612  0.8740
39636SOL     OW21286   0.519   7.773   9.274  0.2724  0.3191 -0.3250
39636SOL    HW121287   0.581   7.732   9.213 -0.4458 -0.7437 -0.3777
39636SOL    HW221288   0.434   7.740   9.247 -0.1013  0.0923  1.0319
39637SOL     OW21289   1.396   1.254   0.609  0.5582 -0.1544  0.2994
39637SOL    HW121290   1.360   1.340   0.632 -0.6828 -1.1852  2.5307
39637SOL    HW221291   1.393   1.252   0.513  0.6437  2.2661  0.1824
39638SOL     OW21292   4.011   9.642   0.741  0.0153  0.1274 -0.4098
39638SOL    HW121293   4.053   9.588   0.809  0.2009  0.5466 -0.1846
39638SOL    HW221294   4.073   9.639   0.668 -0.1153 -0.2053 -0.5087
39639SOL     OW21295   9.684   0.415   8.063 -0.0497  0.3744  0.7059
39639SOL    HW121296   9.671   0.337   8.117 -0.9448 -0.7860 -1.0833
39639SOL    HW221297   9.771   0.403   8.025  0.5462  1.1504  1.7769
39640SOL     OW21298   5.219   9.352  10.022  0.4003 -0.4761  0.0640
39640SOL    HW121299   5.165   9.398  10.086  2.2687 -0.8151  1.9744
39640SOL    HW221300   5.275   9.421   9.985 -0.9394 -0.2088 -1.5677
39641SOL     OW21301   3.001   5.164   6.625  0.5259  0.2097  0.5314
39641SOL    HW121302   3.032   5.254   6.617 -1.2981  0.9000  0.8035
39641SOL    HW221303   2.906   5.172   6.638  0.6623 -1.5636  3.6726
39642SOL     OW21304   8.042   5.812   0.006 -0.5091 -0.2839  0.4208
39642SOL    HW121305   7.957   5.789  -0.032 -0.4542 -1.6540  1.0509
39642SOL    HW221306   8.029   5.800   0.100  1.3191 -4.1162  0.3597
39643SOL     OW21307   4.276   7.266   7.686  0.9247 -0.2433  0.6110
39643SOL    HW121308   4.269   7.238   7.777  0.3809 -1.1221  0.3142
39643SOL    HW221309   4.356   7.318   7.683  0.3647  0.7232  1.8107
39644SOL     OW21310   3.548   5.902   4.358  0.1250  0.0704 -0.0626
39644SOL    HW121311   3.615   5.853   4.309 -0.2268  1.0733 -1.6294
39644SOL    HW221312   3.590   5.986   4.379  0.1032 -0.1640  0.9490
39645SOL     OW21313   4.121   0.100   7.111 -0.4856  0.1174 -0.1403
39645SOL    HW121314   4.097   0.046   7.187  0.6357  0.7677  0.7088
39645SOL    HW221315   4.120   0.039   7.037 -2.4604 -0.3494  0.2134
39646SOL     OW21316   6.300   0.537   5.015  0.0102 -0.0645 -0.2965
39646SOL    HW121317   6.368   0.581   5.066  0.5724 -1.3977  0.1465
39646SOL    HW221318   6.286   0.453   5.060  0.2549 -1.1290 -2.1123
39647SOL     OW21319   3.329   2.020  10.432  0.1842 -0.1997  0.8176
39647SOL    HW121320   3.395   2.008  10.364  0.7245  3.7351  0.3839
39647SOL    HW221321   3.248   2.038  10.383  0.2790  1.2875  1.1401
39648SOL     OW21322   6.468   3.829  10.045 -0.3437  0.2840 -0.0284
39648SOL    HW121323   6.552   3.857  10.082 -1.1021  0.0620  1.9659
39648SOL    HW221324   6.406   3.836  10.118 -2.8421  3.5924 -2.1946
39649SOL     OW21325   2.932   7.562   4.653  0.5078  0.1897 -0.0638
39649SOL    HW121326   2.987   7.632   4.687  0.1011  0.9144 -0.8587
39649SOL    HW221327   2.969   7.482   4.690  1.4735  0.7479  0.2125
39650SOL     OW21328  10.672   5.600  10.029  0.0370  0.1281 -0.8270
39650SOL    HW121329  10.754   5.593  10.078 -0.1610  0.0677 -0.5006
39650SOL    HW221330  10.699   5.619   9.939  0.4248 -0.4534 -0.8328
39651SOL     OW21331   2.704   3.028   7.315 -0.6108 -0.2026  0.0335
39651SOL    HW121332   2.775   3.080   7.352 -0.5211  0.4153 -0.9773
39651SOL    HW221333   2.739   2.939   7.313  0.0192  0.0438 -0.1586
39652SOL     OW21334   5.890   7.238   3.654 -0.7142 -0.1617  0.3032
39652SOL    HW121335   5.949   7.172   3.618 -1.8143  0.1860 -2.3044
39652SOL    HW221336   5.949   7.304   3.692  0.5752 -0.3816 -1.1980
39653SOL     OW21337   5.592   7.141  10.101 -0.0622  0.1449 -0.0901
39653SOL    HW121338   5.539   7.218  10.121  0.0096  0.2979 -0.4763
39653SOL    HW221339   5.602   7.096  10.185 -1.8811 -0.5808 -0.2390
39654SOL     OW21340  10.624   3.781   3.464 -0.2414  0.1253  0.2875
39654SOL    HW121341  10.667   3.864   3.482  3.9367 -1.8109  0.5160
39654SOL    HW221342  10.695   3.716   3.468 -2.9314 -3.2705 -1.4702
39655SOL     OW21343   0.211   9.791   7.730 -0.1287  0.3798  0.0512
39655SOL    HW121344   0.227   9.704   7.767  0.8157  0.4835 -0.0739
39655SOL    HW221345   0.130   9.782   7.681 -1.5790  0.2983  2.3204
39656SOL     OW21346   5.069   2.675   3.797  0.6019 -0.3181 -0.0992
39656SOL    HW121347   5.146   2.705   3.749  1.8284  0.1723  2.0544
39656SOL    HW221348   4.999   2.675   3.731  2.0384  0.8660 -1.7364
39657SOL     OW21349   9.996   4.236   4.997 -0.0666 -0.1017  0.6707
39657SOL    HW121350   9.974   4.324   5.027 -0.4006  0.4655 -1.1316
39657SOL    HW221351  10.089   4.227   5.017 -0.0761  0.5768  1.0600
39658SOL     OW21352   3.013   1.975   4.929  0.3730 -0.5614  0.1138
39658SOL    HW121353   3.070   2.018   4.993  0.4346 -1.9588  1.0302
39658SOL    HW221354   2.964   2.047   4.889  0.7767  0.4063  1.2994
39659SOL     OW21355   1.403   4.280   1.108  0.2919 -0.4278 -0.0844
39659SOL    HW121356   1.334   4.224   1.145 -0.7563  1.3335  0.7581
39659SOL    HW221357   1.397   4.361   1.158  1.2030  0.7664 -1.8132
39660SOL     OW21358   9.695   0.249   7.708 -0.1713 -0.6685  0.3334
39660SOL    HW121359   9.641   0.326   7.724 -1.4321 -1.3327 -0.5899
39660SOL    HW221360   9.772   0.283   7.662 -1.9708 -0.2133 -2.6091
39661SOL     OW21361   5.809   2.617   3.884 -0.1148 -0.1669  0.0736
39661SOL    HW121362   5.732   2.649   3.930  0.7121  1.3745  0.4456
39661SOL    HW221363   5.840   2.544   3.937 -0.4365  0.1883  0.7665
39662SOL     OW21364   6.223   4.353   2.074  0.2420 -0.1873 -0.1137
39662SOL    HW121365   6.135   4.315   2.078  0.7226 -1.3732 -0.1969
39662SOL    HW221366   6.231   4.405   2.154 -1.0895  1.2666 -0.8781
39663SOL     OW21367   6.280   8.194   9.697  0.3833  0.3601 -0.8406
39663SOL    HW121368   6.212   8.245   9.654 -1.8865 -2.1256 -0.4741
39663SOL    HW221369   6.314   8.252   9.765 -2.7391  1.2032  0.2031
39664SOL     OW21370   5.746  10.327   1.197  1.0123  0.7529  0.0498
39664SOL    HW121371   5.656  10.315   1.169  0.5632 -0.4165  1.8446
39664SOL    HW221372   5.786  10.240   1.186  1.1045  0.5331  1.9301
39665SOL     OW21373   7.110   0.863   6.677  0.2371  0.7204 -0.2346
39665SOL    HW121374   7.081   0.891   6.591  0.9629 -1.3197 -1.2066
39665SOL    HW221375   7.040   0.806   6.709  0.9775 -0.3532 -0.4873
39666SOL     OW21376   2.847   8.065   2.261 -0.0952 -0.1949 -0.2353
39666SOL    HW121377   2.807   7.979   2.276  1.3818 -0.8414  0.2074
39666SOL    HW221378   2.779   8.115   2.216 -1.5825 -1.0489  0.9339
39667SOL     OW21379   4.070   2.516   2.380  0.0927 -0.2043  0.4935
39667SOL    HW121380   4.107   2.463   2.450  0.8923  1.0734  1.0543
39667SOL    HW221381   4.137   2.516   2.312  0.5961  1.0420  0.9771
39668SOL     OW21382   8.910   2.855   3.000 -0.2309 -0.1008  0.4376
39668SOL    HW121383   8.856   2.816   3.069 -1.1454 -0.7157 -0.5883
39668SOL    HW221384   8.865   2.936   2.977 -0.8385 -0.6863 -0.5205
39669SOL     OW21385   3.520   5.183   9.823  0.3652  0.5500  0.2523
39669SOL    HW121386   3.478   5.102   9.850 -0.5484  1.1645  0.7232
39669SOL    HW221387   3.507   5.243   9.896 -0.2234  1.5543 -0.6452
39670SOL     OW21388   4.786   0.650  10.599 -0.2418 -0.0726  0.0307
39670SOL    HW121389   4.857   0.663  10.536 -1.2918 -1.7193 -1.5906
39670SOL    HW221390   4.830   0.631  10.681  1.1757  0.9775 -0.4463
39671SOL     OW21391   4.132   7.286  10.181 -0.1081 -0.2721 -0.1550
39671SOL    HW121392   4.145   7.380  10.168  0.2878 -0.5255 -1.8433
39671SOL    HW221393   4.206   7.245  10.136  0.3058 -1.3905  1.4646
39672SOL     OW21394   9.830   6.954  10.070  0.0228 -0.0581  0.4010
39672SOL    HW121395   9.811   7.045  10.046  1.0511  0.3157  0.9298
39672SOL    HW221396   9.749   6.922  10.108 -0.4529  0.5311 -0.0849
39673SOL     OW21397   6.701   5.305   0.883 -0.0792  0.2678  0.0114
39673SOL    HW121398   6.648   5.254   0.822  0.5304  0.5704 -0.7900
39673SOL    HW221399   6.791   5.286   0.857  0.2283 -0.3013  1.4016
39674SOL     OW21400   8.090   8.302   3.174 -0.1460 -0.3999 -0.3993
39674SOL    HW121401   8.104   8.397   3.180 -0.7265 -0.2231 -1.4973
39674SOL    HW221402   8.077   8.286   3.080  1.4025 -1.7942 -0.4116
39675SOL     OW21403   4.806   9.060   5.753  0.2990  0.5284  0.4608
39675SOL    HW121404   4.823   9.007   5.676 -0.8309  2.0066 -0.8735
39675SOL    HW221405   4.849   9.144   5.735  0.2444  0.8145  1.5614
39676SOL     OW21406   3.142   8.043   4.776 -0.2122 -0.4465  0.1688
39676SOL    HW121407   3.230   8.064   4.745  0.4555 -1.1112  1.5081
39676SOL    HW221408   3.113   8.122   4.822 -0.8668  0.2357 -1.3434
39677SOL     OW21409   7.565   6.672  10.267 -0.5324  0.1049  0.3052
39677SOL    HW121410   7.489   6.614  10.278  0.2329 -0.5661  2.6986
39677SOL    HW221411   7.625   6.646  10.336  2.5282 -0.2563 -2.2730
39678SOL     OW21412   5.518   4.201   1.500  0.1964 -0.0344  0.0555
39678SOL    HW121413   5.458   4.233   1.433  2.3795 -0.1752 -2.1575
39678SOL    HW221414   5.474   4.125   1.538 -0.9523 -0.2498 -1.5945
39679SOL     OW21415   8.423   4.616   4.294 -0.3192 -0.2034  0.4861
39679SOL    HW121416   8.429   4.549   4.226 -0.7764  1.1727 -0.9813
39679SOL    HW221417   8.465   4.693   4.255  1.3067  0.0402  2.5965
39680SOL     OW21418   1.566   5.667   9.101 -0.2868 -0.6324  0.0080
39680SOL    HW121419   1.502   5.737   9.087  0.2576  0.1834  1.3668
39680SOL    HW221420   1.595   5.643   9.013  0.9900  2.2865 -0.4784
39681SOL     OW21421  10.601   9.390   3.592  0.1905  0.0455  0.0857
39681SOL    HW121422  10.587   9.297   3.572  1.4199 -0.4251  1.2874
39681SOL    HW221423  10.693   9.405   3.574 -0.0607  1.1301 -0.3655
39682SOL     OW21424   7.835   1.455   5.761  0.2635 -0.4972 -0.2787
39682SOL    HW121425   7.786   1.376   5.737 -1.6608  0.7533 -0.7169
39682SOL    HW221426   7.860   1.493   5.677  0.7397 -0.3522 -0.0762
39683SOL     OW21427   3.037   6.105   2.752  0.5955  0.1456 -0.0375
39683SOL    HW121428   3.037   6.037   2.820 -1.3847 -0.1546 -0.2884
39683SOL    HW221429   3.040   6.056   2.670  0.7444  0.4378 -0.2083
39684SOL     OW21430   0.917   5.612   0.733  0.0452  0.4189 -0.0005
39684SOL    HW121431   0.971   5.533   0.734 -0.5464 -0.0022  1.3318
39684SOL    HW221432   0.849   5.594   0.668 -1.2058 -1.0077  1.5965
39685SOL     OW21433   7.753   2.335   4.647  0.6739  0.2145 -0.6039
39685SOL    HW121434   7.761   2.245   4.680  0.4237  0.2601 -0.4127
39685SOL    HW221435   7.757   2.325   4.552  1.0004  0.0391 -0.5739
39686SOL     OW21436   4.642   7.510   9.201  0.4388 -0.0845 -0.3148
39686SOL    HW121437   4.668   7.601   9.184 -1.5859  0.3203 -1.5849
39686SOL    HW221438   4.708   7.458   9.155  0.0974  0.8421 -1.9555
39687SOL     OW21439   3.079   8.922   2.738  0.1878 -0.5503  0.4491
39687SOL    HW121440   3.019   8.947   2.668 -0.7223  0.3958  1.5261
39687SOL    HW221441   3.159   8.896   2.693  0.5085  2.3520 -0.9097
39688SOL     OW21442   8.670   5.391   5.847  0.4454 -0.2026 -0.3834
39688SOL    HW121443   8.696   5.374   5.757  1.3043 -3.8978  0.4209
39688SOL    HW221444   8.580   5.359   5.853 -0.8598  3.0307 -0.5884
39689SOL     OW21445   9.351   0.624   7.882 -0.3802  0.3142 -0.2418
39689SOL    HW121446   9.306   0.673   7.813 -0.3509 -0.1685 -0.6030
39689SOL    HW221447   9.414   0.687   7.918  0.9459  0.0148 -1.9196
39690SOL     OW21448   4.173   5.542   7.018 -0.5584  0.4577  0.2042
39690SOL    HW121449   4.193   5.636   7.017 -0.7988  0.5376 -1.8826
39690SOL    HW221450   4.256   5.500   7.040 -0.1110  1.1098 -0.1862
39691SOL     OW21451   7.048   3.527   0.271 -0.0759  0.0534  0.2669
39691SOL    HW121452   6.981   3.496   0.332  1.7907  0.6690  2.8431
39691SOL    HW221453   7.124   3.544   0.327  1.6948  1.0010 -2.2528
39692SOL     OW21454   2.166   3.340   6.892 -0.3192 -0.6379 -0.0909
39692SOL    HW121455   2.229   3.409   6.874 -2.8961  1.6660 -1.0532
39692SOL    HW221456   2.141   3.308   6.805 -0.2363 -1.7613  0.2837
39693SOL     OW21457   6.421   5.478   6.539 -0.1012  0.3453 -0.4043
39693SOL    HW121458   6.401   5.568   6.564  0.1855 -0.4131  3.0894
39693SOL    HW221459   6.504   5.459   6.582  1.3178 -0.8328 -3.3481
39694SOL     OW21460   4.861   5.561   7.334  0.5220 -0.5332  0.0214
39694SOL    HW121461   4.807   5.551   7.412 -1.4103  1.8473 -0.8750
39694SOL    HW221462   4.825   5.499   7.271 -1.1596  0.8627 -0.4845
39695SOL     OW21463   3.328   9.828   9.429 -0.2972  0.3509  0.2835
39695SOL    HW121464   3.370   9.898   9.480  1.0807 -0.8405  0.8555
39695SOL    HW221465   3.318   9.866   9.342  1.8888  0.7822  0.1555
39696SOL     OW21466   9.406   4.489   0.068 -0.8234 -0.2878  0.2951
39696SOL    HW121467   9.467   4.431   0.113 -1.2524 -2.3345 -1.5802
39696SOL    HW221468   9.324   4.482   0.117 -1.1127 -2.0060 -0.3603
39697SOL     OW21469   2.115   8.997   9.687 -0.1027 -0.1547  0.7057
39697SOL    HW121470   2.076   9.065   9.632 -1.2521  0.3805  2.1135
39697SOL    HW221471   2.199   9.034   9.715  0.4594 -0.4056 -0.5843
39698SOL     OW21472   3.854  10.110   1.808 -0.1581 -0.1780  0.4064
39698SOL    HW121473   3.793  10.171   1.851  1.4596  0.1749  2.3102
39698SOL    HW221474   3.901  10.164   1.745  0.1656  0.1926  0.9614
39699SOL     OW21475   2.225   2.949  10.778 -0.3561  0.3453  0.1851
39699SOL    HW121476   2.298   2.994  10.735  0.7841  0.3685  2.0281
39699SOL    HW221477   2.246   2.953  10.871 -2.4873 -0.1041  0.7385
39700SOL     OW21478   3.536   7.665   6.609 -0.6323  0.3866  0.0713
39700SOL    HW121479   3.531   7.757   6.585 -1.3278  0.8044  1.6453
39700SOL    HW221480   3.602   7.662   6.679  0.6964 -0.6205 -1.1809
39701SOL     OW21481   3.811   1.822   0.451  0.7868  1.0540 -0.7372
39701SOL    HW121482   3.898   1.798   0.419  0.0396 -0.4074 -1.7950
39701SOL    HW221483   3.778   1.741   0.492 -0.3648  1.3441 -1.0536
39702SOL     OW21484   3.142   1.356   8.150 -0.2520 -0.6731 -0.0333
39702SOL    HW121485   3.164   1.289   8.215  0.3541 -1.5643 -1.1295
39702SOL    HW221486   3.224   1.402   8.135 -0.5204 -0.0989  0.2368
39703SOL     OW21487   1.907   6.461   6.003 -1.0030 -0.4021 -0.4263
39703SOL    HW121488   1.959   6.523   5.952  0.5008 -1.3591 -0.1051
39703SOL    HW221489   1.852   6.417   5.939 -0.3811 -0.3852 -0.9791
39704SOL     OW21490   7.976   8.367   0.264 -0.0910 -0.1642 -0.1523
39704SOL    HW121491   8.042   8.388   0.198  0.0099  0.0652  0.0238
39704SOL    HW221492   8.010   8.288   0.307  0.0509 -0.0628 -0.0817
39705SOL     OW21493   1.585   5.577   4.588 -0.6675 -0.2117 -0.9105
39705SOL    HW121494   1.622   5.559   4.502  0.8012  1.0038 -0.5649
39705SOL    HW221495   1.659   5.571   4.649 -1.5507 -0.3967  0.1902
39706SOL     OW21496   6.714   0.025   9.356 -0.0505  0.7111 -0.2596
39706SOL    HW121497   6.698  -0.027   9.435 -0.4338  2.2686  0.7551
39706SOL    HW221498   6.643   0.002   9.296 -1.2492  1.3232  0.8672
39707SOL     OW21499   3.681  10.378   4.824 -0.2755  0.2430  0.2126
39707SOL    HW121500   3.688  10.372   4.728 -0.8954 -3.9713  0.2441
39707SOL    HW221501   3.756  10.330   4.857 -1.7809 -1.2214  1.7076
39708SOL     OW21502   2.766   6.831   1.777  0.1611 -0.0142  0.2176
39708SOL    HW121503   2.837   6.880   1.735 -0.6785  0.3117 -0.8525
39708SOL    HW221504   2.805   6.746   1.798  0.4628 -0.4082 -1.7462
39709SOL     OW21505   1.824   8.781   1.802 -0.0366 -0.0679 -0.5489
39709SOL    HW121506   1.857   8.736   1.880 -1.4169 -1.4229 -0.6999
39709SOL    HW221507   1.885   8.757   1.733  0.2441 -0.2600 -0.2391
39710SOL     OW21508   9.933   0.946   0.907  0.1247 -0.3768  0.3872
39710SOL    HW121509   9.990   0.876   0.939  1.1835 -0.4724 -1.5669
39710SOL    HW221510   9.992   1.014   0.875 -0.8058 -0.3414 -1.4071
39711SOL     OW21511   0.812   8.141   6.784  0.3809 -0.7369 -0.3419
39711SOL    HW121512   0.798   8.216   6.727  2.1752 -0.4763 -0.4904
39711SOL    HW221513   0.907   8.128   6.784  0.1993 -2.3285  0.5450
39712SOL     OW21514   5.640   2.639   5.795 -0.1013  0.0693  0.6692
39712SOL    HW121515   5.661   2.634   5.702 -1.2497  1.7092  0.2820
39712SOL    HW221516   5.709   2.694   5.833 -0.8767  1.3336  0.3171
39713SOL     OW21517   6.966   9.074   6.166 -0.5329  0.3068  0.4905
39713SOL    HW121518   6.983   9.135   6.094  2.4470 -1.2157 -0.2273
39713SOL    HW221519   6.916   9.126   6.229  0.0139  2.8296 -1.0052
39714SOL     OW21520   8.058   3.029   0.206  0.1715 -0.0922 -0.5222
39714SOL    HW121521   8.096   3.019   0.293 -0.6021 -1.0753 -0.2773
39714SOL    HW221522   8.044   2.939   0.175 -2.1184  0.1951 -0.5123
39715SOL     OW21523   3.002   5.680   7.384 -0.1600  0.4528  0.0079
39715SOL    HW121524   3.050   5.756   7.418  0.2806  1.1296 -1.9893
39715SOL    HW221525   2.921   5.717   7.349  0.0942  0.0154 -1.0608
39716SOL     OW21526   4.517   8.326   4.029 -0.4062 -0.2804 -0.1372
39716SOL    HW121527   4.423   8.315   4.043 -0.3467 -1.2825 -0.4467
39716SOL    HW221528   4.529   8.312   3.935 -0.0250  0.4809 -0.2125
39717SOL     OW21529   2.971   1.013   7.291 -0.2612 -0.6995 -0.0723
39717SOL    HW121530   2.891   0.981   7.334  0.0731  0.1807  1.2450
39717SOL    HW221531   2.939   1.052   7.209 -1.3322  0.4673  0.8517
39718SOL     OW21532  10.081   8.163   1.725 -0.3802  0.1009  0.1525
39718SOL    HW121533  10.061   8.250   1.759  1.0919  0.1770  0.9303
39718SOL    HW221534  10.154   8.178   1.664 -0.5619 -0.5044 -0.2171
39719SOL     OW21535   5.306   5.691   6.411  0.2106 -0.3094  0.4929
39719SOL    HW121536   5.297   5.596   6.408 -1.7743 -0.1808  0.6601
39719SOL    HW221537   5.232   5.723   6.359 -0.2439  1.1327  1.9435
39720SOL     OW21538  10.074   1.046   8.646  0.5261 -0.1914  0.3582
39720SOL    HW121539  10.013   1.119   8.632  3.0892  2.1268  0.2453
39720SOL    HW221540  10.054   1.014   8.734  0.4783  1.9490  1.1935
39721SOL     OW21541   3.585   6.110   1.272 -0.5821 -0.4494 -0.1545
39721SOL    HW121542   3.561   6.181   1.332  2.1143  1.6885 -1.3469
39721SOL    HW221543   3.601   6.035   1.329 -1.3841  0.5195  1.4337
39722SOL     OW21544   7.628   9.983   0.772  0.9063  0.0188 -0.2878
39722SOL    HW121545   7.536  10.007   0.777 -0.2141 -3.2226 -2.1095
39722SOL    HW221546   7.665  10.042   0.706  0.5541  2.2535  1.4284
39723SOL     OW21547   4.846   6.168   8.525 -0.1868  0.0385 -0.3800
39723SOL    HW121548   4.894   6.160   8.607 -1.3927  0.7085  0.4358
39723SOL    HW221549   4.846   6.080   8.488  1.0566 -0.1050 -0.0720
39724SOL     OW21550   5.515   3.111   9.842  0.4849  0.3603 -0.1492
39724SOL    HW121551   5.599   3.110   9.887  0.3893 -0.3354  0.0351
39724SOL    HW221552   5.501   3.020   9.817 -0.5286  0.3382  0.4305
39725SOL     OW21553   2.052   4.901   3.999  0.7656  0.1543  0.1082
39725SOL    HW121554   2.014   4.988   4.007 -0.9615 -0.4526 -0.9398
39725SOL    HW221555   2.130   4.904   4.054 -0.5340  1.6393  2.0232
39726SOL     OW21556   3.466   8.061   0.591 -0.5023  0.2946 -0.2501
39726SOL    HW121557   3.390   8.118   0.589 -0.9340 -0.2727 -0.3448
39726SOL    HW221558   3.537   8.113   0.553 -0.8581  0.7997 -0.2257
39727SOL     OW21559   8.592   3.458   4.901 -0.1671 -0.2497 -0.1801
39727SOL    HW121560   8.511   3.483   4.857  0.2706 -0.8923 -1.4023
39727SOL    HW221561   8.644   3.415   4.833  1.8824  1.5747  0.1326
39728SOL     OW21562   4.791   9.133   3.917  0.0112  0.3933  0.1019
39728SOL    HW121563   4.746   9.056   3.880 -0.5403  0.1722  1.2010
39728SOL    HW221564   4.776   9.202   3.853 -1.6425  0.2405  0.2879
39729SOL     OW21565   3.538   4.420   6.021 -0.5032 -0.0014  0.0826
39729SOL    HW121566   3.568   4.330   6.033 -3.2111 -0.8216  1.7095
39729SOL    HW221567   3.575   4.467   6.096 -0.6354 -0.2259  0.2906
39730SOL     OW21568   9.085   5.361  10.656 -0.1910  0.0005  0.3794
39730SOL    HW121569   9.059   5.426  10.591  1.0946 -0.6657 -0.8526
39730SOL    HW221570   9.042   5.280  10.627 -1.5236  0.1829  1.7206
39731SOL     OW21571   9.317   1.071   2.601 -0.3299  0.2014 -0.4780
39731SOL    HW121572   9.251   1.137   2.622  1.1687  1.7124 -0.2196
39731SOL    HW221573   9.339   1.031   2.685 -0.5735  0.0314 -0.4946
39732SOL     OW21574   0.947   8.718   9.531  0.2622 -0.4814 -0.0126
39732SOL    HW121575   0.981   8.628   9.531 -2.3447 -1.5772 -0.8252
39732SOL    HW221576   1.009   8.767   9.477  0.8956 -2.1805 -0.9084
39733SOL     OW21577   7.255   0.596   8.758  0.1787 -0.0763 -0.1113
39733SOL    HW121578   7.238   0.646   8.678  1.3603 -0.1672 -0.4302
39733SOL    HW221579   7.184   0.532   8.762  0.3079 -0.3010 -1.2750
39734SOL     OW21580   9.522   0.164   0.017 -0.2989  0.1909  0.2751
39734SOL    HW121581   9.476   0.081   0.003 -1.2646  0.7130  0.3086
39734SOL    HW221582   9.459   0.231  -0.008 -0.2878  0.9898  2.2361
39735SOL     OW21583   4.553   3.985   3.601 -0.3997  0.3488  0.1488
39735SOL    HW121584   4.525   4.077   3.600 -1.7905 -0.0408  0.1656
39735SOL    HW221585   4.521   3.950   3.517  2.8990  0.5963 -1.3573
39736SOL     OW21586   8.832   0.401   4.197 -0.1214  0.0697 -0.0866
39736SOL    HW121587   8.916   0.432   4.231 -0.0417  1.2988 -1.2995
39736SOL    HW221588   8.855   0.348   4.121 -0.4226 -0.0766 -0.0783
39737SOL     OW21589   6.874   6.785   0.328 -0.1206  0.2823  0.1294
39737SOL    HW121590   6.809   6.794   0.398  0.6723 -0.3106  0.9696
39737SOL    HW221591   6.877   6.692   0.310 -0.4210  0.4468 -0.8141
39738SOL     OW21592   1.277   8.984   4.967 -0.1038 -0.0330  0.5068
39738SOL    HW121593   1.225   9.059   4.939  0.0024 -0.1696 -0.0612
39738SOL    HW221594   1.287   8.931   4.888 -1.6278 -1.5237  1.2358
39739SOL     OW21595   9.149   7.980   4.014 -0.3106  0.0191  0.4844
39739SOL    HW121596   9.107   7.909   3.966 -1.3502  1.0492 -0.1547
39739SOL    HW221597   9.193   8.032   3.947  0.5490 -0.0645  0.9619
39740SOL     OW21598   6.170   4.101   3.757 -0.2886 -0.0338 -0.6176
39740SOL    HW121599   6.083   4.119   3.723 -0.4280  0.0778 -0.2049
39740SOL    HW221600   6.178   4.005   3.756 -0.6147 -0.0656 -0.1599
39741SOL     OW21601   4.185   7.581   0.581  0.2465 -0.5688  0.5233
39741SOL    HW121602   4.096   7.576   0.617  0.6608 -1.8797  1.4717
39741SOL    HW221603   4.214   7.490   0.578  1.1546 -0.2646 -0.8786
39742SOL     OW21604   3.838   0.639   3.854 -1.0656  0.5628  0.1436
39742SOL    HW121605   3.794   0.694   3.919 -2.4391 -0.2437 -0.0606
39742SOL    HW221606   3.870   0.564   3.904  0.8988  1.5393  0.4414
39743SOL     OW21607   9.139   8.169   9.544 -0.0656  0.1683 -0.1611
39743SOL    HW121608   9.134   8.262   9.523 -1.4654  0.2846  0.5463
39743SOL    HW221609   9.231   8.154   9.566 -0.1867  1.8989  1.8433
39744SOL     OW21610   9.724   6.552   0.942 -0.5636 -0.0499  0.0481
39744SOL    HW121611   9.801   6.500   0.918 -0.2709  0.3809  0.0416
39744SOL    HW221612   9.653   6.488   0.951 -0.4835 -0.3184 -1.1384
39745SOL     OW21613   1.805   4.417   7.129  0.6229 -0.2521  0.3998
39745SOL    HW121614   1.780   4.508   7.143 -1.5246 -0.5902 -0.8597
39745SOL    HW221615   1.781   4.399   7.038  1.3474 -1.9840  0.5135
39746SOL     OW21616  10.139   1.076   5.320 -0.6050 -1.1951 -0.3482
39746SOL    HW121617  10.210   1.097   5.259 -1.2292  2.6928 -0.0112
39746SOL    HW221618  10.066   1.048   5.265 -0.3602 -0.2441 -1.1769
39747SOL     OW21619   0.338   0.875   9.858  0.2898 -0.3139  0.2857
39747SOL    HW121620   0.254   0.919   9.841  1.5684  1.0745 -3.2986
39747SOL    HW221621   0.324   0.785   9.828 -0.1026 -0.2687  0.3224
39748SOL     OW21622   9.594  10.266   1.386 -0.0294  0.8476 -0.2696
39748SOL    HW121623   9.656  10.295   1.452 -1.5388  2.2896  0.5889
39748SOL    HW221624   9.554  10.187   1.423 -0.5164  1.3720  0.3435
39749SOL     OW21625   2.107   1.785   9.385 -0.4756  0.1124  0.1452
39749SOL    HW121626   2.095   1.844   9.459  0.4776  1.3914 -0.6803
39749SOL    HW221627   2.036   1.808   9.324 -0.0944  0.4399 -0.1843
39750SOL     OW21628   7.808   7.817  10.605 -0.2340  0.1457 -0.5418
39750SOL    HW121629   7.812   7.770  10.688 -2.3706 -0.9619 -0.9883
39750SOL    HW221630   7.899   7.829  10.579  0.4474 -0.5639  1.3486
39751SOL     OW21631   1.196   2.974   6.707  0.5584 -0.1900 -0.3313
39751SOL    HW121632   1.174   2.996   6.616  2.1355  1.7573 -0.3048
39751SOL    HW221633   1.212   2.880   6.705  0.4902 -0.2009 -2.0453
39752SOL     OW21634   7.688   5.879   2.328 -0.7149 -0.1999  0.6546
39752SOL    HW121635   7.762   5.926   2.367 -1.7846  0.0686  2.4958
39752SOL    HW221636   7.626   5.948   2.306 -0.9974 -0.5289  0.4236
39753SOL     OW21637   2.633  10.304  10.414  0.0665  0.0330  0.3580
39753SOL    HW121638   2.719  10.341  10.393 -0.3684  1.5301  1.0708
39753SOL    HW221639   2.573  10.349  10.354 -0.5243  0.7625  1.4667
39754SOL     OW21640   7.994   5.694   8.125  0.1572 -0.5326 -0.4361
39754SOL    HW121641   8.013   5.782   8.093  2.9617 -0.6286  0.7376
39754SOL    HW221642   8.046   5.637   8.069 -0.1553 -1.2953  0.0426
39755SOL     OW21643   9.246   4.164   9.815 -0.0478 -0.2941 -0.2223
39755SOL    HW121644   9.209   4.090   9.864 -1.2096 -0.5316 -1.4002
39755SOL    HW221645   9.336   4.136   9.794  0.1890 -0.5194  1.0404
39756SOL     OW21646  10.068   1.735   2.993  0.2098 -0.1728  0.3951
39756SOL    HW121647  10.147   1.683   2.983  1.1251  1.3765 -0.9824
39756SOL    HW221648  10.087   1.816   2.946 -1.8255  0.6613  0.9111
39757SOL     OW21649   7.301   7.446   8.215  0.2086  1.1465  0.1976
39757SOL    HW121650   7.220   7.485   8.182 -0.3560  0.8683  1.2439
39757SOL    HW221651   7.306   7.473   8.307  1.7242  1.8523 -0.0499
39758SOL     OW21652   8.154   8.922   3.716 -0.0939  0.0754 -0.2258
39758SOL    HW121653   8.074   8.954   3.673 -0.0473  0.9739  0.3399
39758SOL    HW221654   8.186   8.853   3.658 -2.9101 -2.4621  0.9827
39759SOL     OW21655   2.107   9.055   1.051 -0.5558 -0.7004 -0.2593
39759SOL    HW121656   2.038   8.994   1.028 -1.1842  0.4457 -1.5928
39759SOL    HW221657   2.064   9.141   1.053  0.9909  0.2356 -2.3964
39760SOL     OW21658   2.884   9.730   9.227 -0.2962  0.1986 -0.0485
39760SOL    HW121659   2.956   9.744   9.167  0.7842 -0.8726  0.9489
39760SOL    HW221660   2.805   9.744   9.174  0.6125 -0.3334 -1.5884
39761SOL     OW21661   9.749   8.492   5.069  0.1413  0.4719  0.0468
39761SOL    HW121662   9.788   8.521   4.986 -1.8477  3.2643 -0.0852
39761SOL    HW221663   9.801   8.535   5.136 -0.1864  0.8633  0.0575
39762SOL     OW21664  10.452   7.535   7.179  0.1545  0.2314  0.1319
39762SOL    HW121665  10.375   7.546   7.236  1.2238 -1.3659  2.0237
39762SOL    HW221666  10.467   7.622   7.142 -2.1172  0.7418  0.2626
39763SOL     OW21667   1.055   3.600   9.642  0.3323 -0.2859 -0.8154
39763SOL    HW121668   1.126   3.542   9.668  1.1428  1.3378  0.7892
39763SOL    HW221669   1.008   3.552   9.574  2.1746 -1.9373 -0.9866
39764SOL     OW21670  10.447   5.083   5.706  0.1323 -0.8285  0.0568
39764SOL    HW121671  10.513   5.116   5.766 -0.0291  1.2249 -0.8223
39764SOL    HW221672  10.497   5.035   5.639  0.9206  1.5127 -1.1327
39765SOL     OW21673   6.592   6.912   6.510 -0.1831 -0.1897 -0.5102
39765SOL    HW121674   6.497   6.916   6.514 -0.3901 -3.5064  1.7082
39765SOL    HW221675   6.611   6.865   6.429 -0.5611 -1.0776 -0.0923
39766SOL     OW21676   3.538   1.677  10.183  0.1536  1.3412 -0.2876
39766SOL    HW121677   3.505   1.613  10.245 -1.0185  1.6293 -0.5974
39766SOL    HW221678   3.491   1.758  10.203  2.2237  2.4021  0.6686
39767SOL     OW21679   2.177   7.539   3.387 -0.1152 -0.0061  0.1694
39767SOL    HW121680   2.112   7.573   3.448 -0.7032  1.5984 -1.2793
39767SOL    HW221681   2.168   7.444   3.393 -0.3648  0.1072  2.3016
39768SOL     OW21682   3.705  10.457   4.105 -0.4203  0.0883  0.2452
39768SOL    HW121683   3.662  10.377   4.135  0.0055 -0.3653 -0.3462
39768SOL    HW221684   3.716  10.509   4.185  0.3599 -0.9429  0.8441
39769SOL     OW21685   8.765   7.956   2.157 -0.1146 -0.2524  0.1981
39769SOL    HW121686   8.812   8.037   2.139  0.8469 -1.0183 -0.8804
39769SOL    HW221687   8.722   7.972   2.241 -0.0149  1.3850 -0.0207
39770SOL     OW21688   5.506  10.388   2.092 -0.5127  0.0232  0.1765
39770SOL    HW121689   5.439  10.355   2.032  0.4709  0.2396 -1.0968
39770SOL    HW221690   5.589  10.368   2.048  0.2720 -0.4171  1.8008
39771SOL     OW21691   2.880  10.272   5.705 -0.0678  0.7828  0.3023
39771SOL    HW121692   2.844  10.184   5.696  1.8360  0.1285 -2.2912
39771SOL    HW221693   2.900  10.281   5.798 -1.4123 -1.0141  0.8242
39772SOL     OW21694   3.871   1.597   4.701  0.1482 -0.0123  0.1450
39772SOL    HW121695   3.838   1.682   4.730  0.2267 -0.1476  0.6376
39772SOL    HW221696   3.795   1.554   4.662 -0.3568 -0.4444  1.5561
39773SOL     OW21697   3.781   3.065   8.771  0.1103  0.1477 -0.2854
39773SOL    HW121698   3.793   3.068   8.866  0.3133  0.1645 -0.3105
39773SOL    HW221699   3.686   3.063   8.758  0.0767  0.4602 -0.0920
39774SOL     OW21700   2.908   2.466   8.394 -0.8611 -0.1173  0.4273
39774SOL    HW121701   2.845   2.458   8.322 -0.7134 -3.8418  0.5111
39774SOL    HW221702   2.977   2.402   8.372  1.5724  1.9204  1.6607
39775SOL     OW21703   1.306   5.734   2.625  0.4150 -0.0693  0.0754
39775SOL    HW121704   1.389   5.713   2.582  0.1232 -1.7641  0.3050
39775SOL    HW221705   1.286   5.658   2.679 -0.6657  0.8442  1.0240
39776SOL     OW21706  10.216   3.790   9.269  0.5528  0.1889  0.3298
39776SOL    HW121707  10.194   3.840   9.347 -2.7418  1.6127 -1.2963
39776SOL    HW221708  10.301   3.824   9.240  0.8015  1.1211  2.0689
39777SOL     OW21709   9.920   5.214   6.330  0.1134  0.1690 -0.4937
39777SOL    HW121710   9.940   5.151   6.398 -3.3841 -0.6769 -0.0427
39777SOL    HW221711   9.953   5.297   6.364  0.9466 -0.6923  0.9092
39778SOL     OW21712   4.752   0.852   8.063 -0.1874  0.3802  0.2426
39778SOL    HW121713   4.750   0.809   8.148 -1.8202 -0.5037 -0.1980
39778SOL    HW221714   4.750   0.781   7.999 -1.8638  1.0148 -0.5049
39779SOL     OW21715   7.781   1.528   2.526 -0.0609  0.5633  0.0526
39779SOL    HW121716   7.714   1.462   2.541  0.9463 -0.4453  0.3047
39779SOL    HW221717   7.843   1.485   2.466  0.8314  1.1043  0.5625
39780SOL     OW21718   3.782   3.238   4.777 -0.0334  0.6775 -0.2359
39780SOL    HW121719   3.728   3.215   4.701 -0.2270  0.9059 -0.1669
39780SOL    HW221720   3.729   3.301   4.826  0.1304  0.5990  0.0411
39781SOL     OW21721   5.683   2.314  10.761  0.8984  0.0347 -0.3125
39781SOL    HW121722   5.716   2.339  10.847  0.7194 -0.8643  0.0352
39781SOL    HW221723   5.758   2.274  10.717  1.0113  0.5654 -0.6089
39782SOL     OW21724   7.723   8.103   3.085 -0.0394 -0.4602 -0.3560
39782SOL    HW121725   7.747   8.069   2.999 -1.6025 -0.7237 -0.7161
39782SOL    HW221726   7.643   8.154   3.070  1.0241  1.6333  0.5320
39783SOL     OW21727   3.796   4.399   0.772 -0.0144 -0.2502 -0.3699
39783SOL    HW121728   3.724   4.376   0.714 -0.1867 -0.9653  0.1047
39783SOL    HW221729   3.870   4.416   0.713 -0.1536 -1.0786 -0.8015
39784SOL     OW21730   8.775   6.376   1.334 -0.4128  0.0759  0.7004
39784SOL    HW121731   8.848   6.348   1.280 -0.4559 -1.0620  1.2069
39784SOL    HW221732   8.705   6.313   1.313 -0.8996  0.5115  1.0050
39785SOL     OW21733   9.644   5.231   9.637  0.3470  0.3633  0.5814
39785SOL    HW121734   9.685   5.279   9.708 -0.1539  2.7208 -0.6106
39785SOL    HW221735   9.576   5.290   9.605 -0.3701 -1.2107 -0.9400
39786SOL     OW21736  10.408   9.240   8.204  0.4992 -0.0679  0.3959
39786SOL    HW121737  10.369   9.293   8.274 -0.8864 -0.8396  0.2375
39786SOL    HW221738  10.484   9.199   8.244  0.5843  0.6641  1.0118
39787SOL     OW21739   0.141   0.203   2.493  0.5535  0.1986 -0.9425
39787SOL    HW121740   0.074   0.265   2.522  1.6506  2.0204 -2.1075
39787SOL    HW221741   0.221   0.234   2.534  0.9879 -0.9714 -0.8806
39788SOL     OW21742   8.230   3.756   2.906 -0.0086  0.0452 -0.5101
39788SOL    HW121743   8.312   3.786   2.869  0.1942  1.0390  0.6735
39788SOL    HW221744   8.188   3.706   2.836  0.3392  1.8338 -2.0395
39789SOL     OW21745   0.860   9.168   1.825 -0.2204 -0.6355 -0.1987
39789SOL    HW121746   0.909   9.250   1.822 -1.5262  0.1821  0.0382
39789SOL    HW221747   0.772   9.193   1.852 -0.6835 -2.1088 -0.2244
39790SOL     OW21748   9.674   3.900   5.732 -0.2891  0.1654  0.4925
39790SOL    HW121749   9.756   3.853   5.748  0.2792  1.3279  1.0769
39790SOL    HW221750   9.675   3.918   5.638  0.4322  0.6994  0.5922
39791SOL     OW21751   9.589  10.041   4.540  0.2919  0.5097  0.7452
39791SOL    HW121752   9.627   9.968   4.492  1.3208  1.7684 -0.4511
39791SOL    HW221753   9.597  10.017   4.632  0.9780 -0.6873  0.3901
39792SOL     OW21754   0.429   7.256   0.045 -0.1045  0.3112  0.4243
39792SOL    HW121755   0.469   7.190  -0.011 -2.1994 -0.3905 -0.3301
39792SOL    HW221756   0.412   7.330  -0.014 -0.7589  0.2432  0.5304
39793SOL     OW21757   9.563   8.533   9.970  0.4334  0.4252 -0.2597
39793SOL    HW121758   9.630   8.575   9.916  0.0268 -0.1321 -1.2266
39793SOL    HW221759   9.555   8.445   9.935  0.3058 -0.0334  0.8692
39794SOL     OW21760   5.624   6.890   6.919 -0.2950 -0.1518 -0.1796
39794SOL    HW121761   5.557   6.873   6.986 -0.6098 -0.1878 -0.4981
39794SOL    HW221762   5.591   6.846   6.841 -2.0097  3.2515 -1.5797
39795SOL     OW21763   3.719   6.459   7.540 -0.1028  0.3863 -0.1432
39795SOL    HW121764   3.673   6.461   7.457  0.9615 -1.4063 -0.8285
39795SOL    HW221765   3.657   6.420   7.601  0.1745 -1.2703 -0.8705
39796SOL     OW21766   6.659   7.635   4.839  0.0803  0.3615  0.2082
39796SOL    HW121767   6.604   7.689   4.896 -0.1495 -0.9403  1.2713
39796SOL    HW221768   6.663   7.550   4.884 -1.3534 -1.2319 -2.4257
39797SOL     OW21769   6.338   0.926   2.147  0.0418 -0.0654  0.0064
39797SOL    HW121770   6.333   1.018   2.122 -1.7862 -0.0183  0.4031
39797SOL    HW221771   6.280   0.881   2.086  0.8981 -0.9662 -0.1674
39798SOL     OW21772   7.178   7.184   7.271  0.4224  0.7221 -0.8790
39798SOL    HW121773   7.139   7.242   7.205 -2.6878 -0.3810 -0.1277
39798SOL    HW221774   7.238   7.128   7.221 -0.8545  0.7848 -2.5555
39799SOL     OW21775   4.217   0.370   8.408 -0.0893  0.3271  0.4852
39799SOL    HW121776   4.310   0.349   8.403 -0.2228 -0.0056 -1.1595
39799SOL    HW221777   4.214   0.456   8.449  1.1225  1.4013 -1.5299
39800SOL     OW21778   3.440   6.303   5.710 -0.6732  0.4445 -0.7717
39800SOL    HW121779   3.383   6.311   5.634 -0.8849  0.7651 -0.5825
39800SOL    HW221780   3.388   6.252   5.773 -1.2676  1.8164 -0.1151
39801SOL     OW21781   5.018   7.034   4.021  0.1984  0.0387 -0.3382
39801SOL    HW121782   4.941   6.978   4.029 -0.5131  1.0519  0.1320
39801SOL    HW221783   5.083   6.980   3.977 -0.1495 -1.4543  0.9137
39802SOL     OW21784   4.157   2.464   7.738  0.2752  0.3003  0.4178
39802SOL    HW121785   4.242   2.432   7.708  0.4010  0.4249  0.6356
39802SOL    HW221786   4.141   2.417   7.819 -0.7978 -1.2144 -0.6273
39803SOL     OW21787   8.394   3.471   8.532  0.7554  0.4795 -0.0688
39803SOL    HW121788   8.479   3.481   8.488 -0.2294 -0.8455 -2.4921
39803SOL    HW221789   8.413   3.418   8.609  2.0004 -0.7678 -1.1745
39804SOL     OW21790   9.840   3.257   9.498 -0.5734  0.3484 -0.2009
39804SOL    HW121791   9.864   3.297   9.415 -2.2270 -1.4068 -1.6250
39804SOL    HW221792   9.798   3.328   9.547  0.4221  1.4136 -0.8268
39805SOL     OW21793   3.139   6.547   1.609  0.0320  0.3594 -0.0369
39805SOL    HW121794   3.148   6.452   1.616 -1.3647  0.3169  1.8217
39805SOL    HW221795   3.110   6.575   1.695 -0.8505  2.3319 -0.9075
39806SOL     OW21796   3.405   2.031   0.629  0.1564 -0.2644 -0.1822
39806SOL    HW121797   3.452   1.967   0.683 -2.3020 -3.4968 -1.5302
39806SOL    HW221798   3.314   2.024   0.658 -0.4832  1.3113 -1.6506
39807SOL     OW21799   6.748   2.182   2.251  0.4263 -0.1295  0.0558
39807SOL    HW121800   6.696   2.208   2.327  0.0426 -2.6895  0.7674
39807SOL    HW221801   6.702   2.105   2.216  1.2895  0.2340 -2.0382
39808SOL     OW21802   7.003   4.394   7.913 -1.0463  0.1319 -0.0915
39808SOL    HW121803   6.989   4.307   7.950  1.2059  0.2392  1.2183
39808SOL    HW221804   6.939   4.450   7.958 -0.0584 -0.2178  1.8290
39809SOL     OW21805  10.001   8.683   9.612 -0.5364  0.2196  0.4518
39809SOL    HW121806  10.087   8.719   9.636 -0.0146 -1.0139  0.5132
39809SOL    HW221807   9.946   8.700   9.688  0.7002 -2.2886  2.0768
39810SOL     OW21808   7.885   4.307   1.096  0.6076  0.1861 -0.6830
39810SOL    HW121809   7.866   4.359   1.018 -2.5703 -0.4378 -0.4886
39810SOL    HW221810   7.892   4.371   1.167 -2.1698  0.5844 -0.6369
39811SOL     OW21811   6.548   5.140   7.012  0.7825  0.1375 -0.6017
39811SOL    HW121812   6.641   5.142   6.990  0.9904  3.2861  0.0584
39811SOL    HW221813   6.546   5.132   7.108  0.2034 -2.4312 -0.7456
39812SOL     OW21814   7.384   5.567   1.856 -0.3023  0.0042  0.7415
39812SOL    HW121815   7.313   5.580   1.920 -0.8285  0.8027  0.0198
39812SOL    HW221816   7.395   5.653   1.814 -0.3300 -0.6226 -0.6084
39813SOL     OW21817   5.155   9.754   3.052  0.1720  0.2005  0.4303
39813SOL    HW121818   5.194   9.674   3.086  0.6112  0.4453  0.5045
39813SOL    HW221819   5.063   9.748   3.078 -0.3451 -1.3451 -1.4998
39814SOL     OW21820   1.718   2.972   4.755  0.8947 -0.1921 -0.0777
39814SOL    HW121821   1.807   2.992   4.783  0.6724 -0.5682  0.9243
39814SOL    HW221822   1.712   2.877   4.760 -0.3966 -0.0494  2.5663
39815SOL     OW21823   4.338   6.548   9.518  0.2726 -0.3508  0.6477
39815SOL    HW121824   4.416   6.495   9.531  1.9831  1.9172  0.2173
39815SOL    HW221825   4.280   6.495   9.464  1.5555 -2.0354  0.8814
39816SOL     OW21826  10.035   8.558   9.357 -0.5304 -0.1785  0.0843
39816SOL    HW121827  10.120   8.599   9.370  0.4579 -2.1000  0.0060
39816SOL    HW221828   9.975   8.607   9.414  0.8394  0.4861  1.0004
39817SOL     OW21829   5.199   0.003   6.000 -0.4578  0.0868  0.0502
39817SOL    HW121830   5.135   0.074   6.003  0.4320  0.8880  0.8913
39817SOL    HW221831   5.268   0.036   5.941  0.0059 -0.0228  0.5208
39818SOL     OW21832   0.546   4.243   3.250 -0.4172 -0.2293 -0.5145
39818SOL    HW121833   0.585   4.252   3.337  0.6971  0.6972 -1.0782
39818SOL    HW221834   0.617   4.207   3.196 -0.7213  0.3408 -1.2997
39819SOL     OW21835   8.322   9.123   3.762  0.2395 -0.1964 -0.3572
39819SOL    HW121836   8.394   9.062   3.780 -0.3242 -0.8419 -0.2663
39819SOL    HW221837   8.246   9.067   3.747 -0.0857  0.4616 -1.2079
39820SOL     OW21838   7.341   8.265   3.249  0.4790 -0.2206  0.0160
39820SOL    HW121839   7.290   8.186   3.230  2.3516 -1.5476  0.2561
39820SOL    HW221840   7.328   8.321   3.173 -0.1818 -1.1306 -0.5600
39821SOL     OW21841   0.051   6.728   3.304 -0.7222  0.4186  0.6729
39821SOL    HW121842   0.137   6.733   3.345 -0.0735  2.4478 -0.7430
39821SOL    HW221843   0.068   6.690   3.217 -0.7693  2.9174 -0.5232
39822SOL     OW21844   9.734   1.554   2.340 -0.5073  0.2299 -0.0877
39822SOL    HW121845   9.818   1.576   2.301 -0.3313  0.0402  0.1891
39822SOL    HW221846   9.734   1.598   2.425 -0.9881  0.8402 -0.3881
39823SOL     OW21847   0.035   9.545   3.982 -0.2345 -0.1384 -0.2075
39823SOL    HW121848   0.027   9.630   4.027  0.7071 -0.2734  0.2384
39823SOL    HW221849   0.079   9.566   3.899 -2.5894  0.2132 -1.4377
39824SOL     OW21850   7.719   4.892   2.238 -0.2024  0.3493 -0.4129
39824SOL    HW121851   7.739   4.985   2.235  1.1616  0.1561  1.2755
39824SOL    HW221852   7.648   4.885   2.302  0.7451  0.1168  0.6527
39825SOL     OW21853   8.736   8.622   0.561 -0.8450 -0.8149  0.3980
39825SOL    HW121854   8.670   8.687   0.586 -0.8828 -1.2595  1.5093
39825SOL    HW221855   8.740   8.627   0.465 -0.8310  0.8303  0.4592
39826SOL     OW21856   2.899   2.147   2.793  0.1961  0.4320  0.3877
39826SOL    HW121857   2.883   2.224   2.847 -0.7878 -0.2596  1.1265
39826SOL    HW221858   2.846   2.078   2.834  1.7909 -0.8841  0.3230
39827SOL     OW21859   7.187   4.085   3.833 -0.2851 -0.4922  0.3677
39827SOL    HW121860   7.165   4.043   3.917  1.4698  1.4140  1.8780
39827SOL    HW221861   7.138   4.167   3.834  0.7324  0.1282  0.1386
39828SOL     OW21862   4.977   8.229   2.408 -0.2451 -0.1988 -0.2664
39828SOL    HW121863   5.030   8.200   2.482  1.1091 -0.3674 -1.2629
39828SOL    HW221864   5.019   8.190   2.332 -2.2810 -0.9952 -1.0548
39829SOL     OW21865   1.751   5.715   6.296  0.5154 -0.3591  0.6626
39829SOL    HW121866   1.815   5.694   6.228  1.5860  0.2703  1.4521
39829SOL    HW221867   1.701   5.634   6.308  2.4548 -1.4996  1.4212
39830SOL     OW21868   6.537   0.319   6.518 -0.0470 -0.7906 -0.1653
39830SOL    HW121869   6.627   0.285   6.513  0.2156  0.0499 -1.3180
39830SOL    HW221870   6.492   0.256   6.575  1.6461 -0.3626  1.7818
39831SOL     OW21871   2.401   5.619   5.544 -0.1515 -0.1219  0.5089
39831SOL    HW121872   2.324   5.601   5.491  0.2067  0.3300 -0.1772
39831SOL    HW221873   2.417   5.712   5.532  0.9342 -0.3587  0.0600
39832SOL     OW21874   7.573  10.467   2.029  0.3907 -0.7182 -0.2529
39832SOL    HW121875   7.496  10.514   1.997  1.8064  0.5103 -2.0522
39832SOL    HW221876   7.543  10.422   2.108 -1.9055  0.4827 -0.3737
39833SOL     OW21877   6.277  10.043   2.296 -0.2084  0.2938  0.1168
39833SOL    HW121878   6.279  10.003   2.209 -0.8107 -0.7178  0.5456
39833SOL    HW221879   6.193  10.088   2.300 -0.3632 -0.0038  0.3076
39834SOL     OW21880   0.904   1.086  10.739 -0.0267  0.4148  0.0341
39834SOL    HW121881   0.927   1.015  10.798  0.3130  0.1526 -0.4097
39834SOL    HW221882   0.984   1.139  10.732 -0.3858  1.0658  0.6663
39835SOL     OW21883   4.618   6.908   3.388 -0.0168  0.1615 -0.5580
39835SOL    HW121884   4.538   6.952   3.361  0.5651  1.8481  0.2700
39835SOL    HW221885   4.646   6.858   3.311 -1.0616  0.7621 -1.3498
39836SOL     OW21886   9.176   2.800   3.032 -0.1358 -0.4749 -0.1291
39836SOL    HW121887   9.091   2.806   2.989  0.3725 -0.3947 -1.1571
39836SOL    HW221888   9.193   2.706   3.037 -0.5107 -0.5131  0.5589
39837SOL     OW21889   8.574   8.294   8.730  0.2535  0.3300 -0.7160
39837SOL    HW121890   8.626   8.374   8.731 -0.4415  0.7879 -0.2261
39837SOL    HW221891   8.544   8.286   8.640  0.2352  0.6785 -0.7404
39838SOL     OW21892   6.724  10.792   7.918  0.0861  0.0106 -0.1635
39838SOL    HW121893   6.655  10.805   7.983 -0.3932 -1.8592 -0.2308
39838SOL    HW221894   6.803  10.825   7.960 -0.3924 -0.2526  0.9870
39839SOL     OW21895   1.876   6.168  10.280  0.2629 -0.0030  0.1429
39839SOL    HW121896   1.874   6.251  10.232 -1.6695  0.0187  0.1656
39839SOL    HW221897   1.961   6.130  10.259  0.0014  0.5893 -2.3239
39840SOL     OW21898   5.528  10.301   2.359 -0.4289  0.7031 -0.2868
39840SOL    HW121899   5.439  10.305   2.392 -0.3752 -0.8370  0.1248
39840SOL    HW221900   5.525  10.348   2.276 -1.3519  1.6605  0.2745
39841SOL     OW21901   7.277   1.081   4.923  0.3138  0.1546 -0.1869
39841SOL    HW121902   7.300   1.094   5.015 -2.0310  1.1155  0.3463
39841SOL    HW221903   7.275   0.986   4.911  2.4027  0.0314  0.2250
39842SOL     OW21904   7.028   0.700   0.413 -0.2912 -0.5092 -0.4019
39842SOL    HW121905   7.057   0.768   0.475 -1.9156 -0.6175  0.5248
39842SOL    HW221906   7.105   0.685   0.357  1.3941 -0.6229  1.7745
39843SOL     OW21907   4.545   5.723   7.010 -0.2730 -0.3321  0.2162
39843SOL    HW121908   4.544   5.814   6.980  0.5386 -0.7927 -1.2798
39843SOL    HW221909   4.634   5.710   7.044 -0.2578 -0.6887  0.0463
39844SOL     OW21910   9.212   6.546   5.942 -0.1376 -0.1820  0.0798
39844SOL    HW121911   9.152   6.617   5.968  1.9331  0.9965  1.9729
39844SOL    HW221912   9.228   6.560   5.849 -0.4268  1.3415  0.2411
39845SOL     OW21913   7.557   1.969   8.390 -0.0835  0.0587 -0.3225
39845SOL    HW121914   7.464   1.974   8.411 -0.2813 -1.1356 -0.8661
39845SOL    HW221915   7.563   1.900   8.324  1.2989 -0.4858  0.3399
39846SOL     OW21916   1.204   4.641  10.285 -0.1934 -0.0773  0.4194
39846SOL    HW121917   1.292   4.671  10.306 -0.2507  0.6044 -0.2542
39846SOL    HW221918   1.217   4.556  10.242  0.3451  1.0670 -1.8129
39847SOL     OW21919   9.728   0.023   0.264 -0.0923  0.4501  0.4411
39847SOL    HW121920   9.818   0.013   0.233 -0.5895 -0.6611 -0.7122
39847SOL    HW221921   9.677   0.037   0.185 -0.9039  1.5531  1.1274
39848SOL     OW21922   0.082   6.283   4.027  0.5695  0.3215 -0.4513
39848SOL    HW121923   0.167   6.264   3.987 -0.0981 -0.1542 -1.6938
39848SOL    HW221924   0.104   6.322   4.112  2.0445  1.5112 -1.3211
39849SOL     OW21925   6.525   0.814   0.651  0.7575  0.5622  0.1301
39849SOL    HW121926   6.570   0.892   0.618  0.5946  0.2875 -0.7746
39849SOL    HW221927   6.591   0.744   0.645  1.1195  0.7517  1.5749
39850SOL     OW21928   9.337   3.367   4.390  0.4229  0.5539  0.3356
39850SOL    HW121929   9.414   3.315   4.365 -0.9871 -1.0372 -1.0343
39850SOL    HW221930   9.308   3.406   4.308 -0.2335  1.1219  0.8382
39851SOL     OW21931   0.356   7.327   2.658 -0.3041  0.3069 -0.2598
39851SOL    HW121932   0.368   7.299   2.568 -0.4717  1.9504 -0.8246
39851SOL    HW221933   0.444   7.349   2.689 -0.0646 -1.4828  0.4406
39852SOL     OW21934   6.635   7.448   1.005 -0.2457  0.2514  0.1960
39852SOL    HW121935   6.634   7.530   0.957  1.8217 -0.2603 -0.8813
39852SOL    HW221936   6.545   7.435   1.034 -0.8840  2.2144 -0.7410
39853SOL     OW21937   6.814   8.790   1.188  0.2557  0.0554  0.4264
39853SOL    HW121938   6.786   8.702   1.162  0.1793  0.1796  0.0718
39853SOL    HW221939   6.770   8.806   1.271 -1.0589  0.3919 -0.2980
39854SOL     OW21940   1.030   1.045   3.576 -0.7436 -0.0566  0.0351
39854SOL    HW121941   0.948   1.024   3.622  0.3904 -1.9979  1.3222
39854SOL    HW221942   1.030   0.987   3.500 -0.2261 -0.6327  0.4662
39855SOL     OW21943   0.086   9.705   6.344  0.2192 -0.1180  0.2817
39855SOL    HW121944   0.055   9.623   6.383  0.5570  0.5010  1.9764
39855SOL    HW221945   0.152   9.678   6.280 -0.7286 -1.2237 -0.2621
39856SOL     OW21946   8.176   5.220   6.438 -0.2731 -0.3628  0.6962
39856SOL    HW121947   8.120   5.144   6.450  0.4972 -0.9653  0.5389
39856SOL    HW221948   8.261   5.184   6.412 -0.3371  0.5987 -1.0552
39857SOL     OW21949   5.052   4.488   2.793 -0.2870 -0.3445  0.3347
39857SOL    HW121950   5.084   4.435   2.720 -0.9832  0.2816 -0.4467
39857SOL    HW221951   5.006   4.425   2.850 -0.2494 -0.7429 -0.0667
39858SOL     OW21952   9.998   8.068   3.064  0.6020  0.1621 -0.5978
39858SOL    HW121953   9.954   7.986   3.090  2.6815 -1.0627 -0.7726
39858SOL    HW221954  10.046   8.095   3.142  0.5423  0.8163 -0.7815
39859SOL     OW21955   8.842  10.054   9.222  0.4092 -0.2932 -0.1626
39859SOL    HW121956   8.792   9.997   9.164  0.9811  0.5051 -1.4875
39859SOL    HW221957   8.776  10.094   9.278 -0.4855  0.6318 -1.7797
39860SOL     OW21958   3.965   9.703   7.727 -0.3676 -0.2034  0.2979
39860SOL    HW121959   4.023   9.736   7.659  0.0132  0.5514  0.9694
39860SOL    HW221960   3.891   9.764   7.728 -0.2317 -0.0364  0.7425
39861SOL     OW21961   9.764   6.344   4.895  0.1720 -0.1389 -0.6780
39861SOL    HW121962   9.691   6.295   4.932  0.3181  0.7259  0.8661
39861SOL    HW221963   9.745   6.436   4.918  1.9142  0.0574  0.1228
39862SOL     OW21964   6.503   1.862   9.471 -0.7690  0.0801  0.2737
39862SOL    HW121965   6.496   1.934   9.534  0.5694 -1.6875  2.5951
39862SOL    HW221966   6.460   1.895   9.392 -1.3630  2.9074  1.6568
39863SOL     OW21967   2.184   9.165   2.572 -0.3034  0.1887  0.4055
39863SOL    HW121968   2.277   9.186   2.578  0.1891 -1.6830 -0.0491
39863SOL    HW221969   2.152   9.219   2.499  1.2032 -1.4662 -1.6031
39864SOL     OW21970  10.031   5.546  10.349  0.5188  0.4048  0.4789
39864SOL    HW121971  10.000   5.579  10.265 -1.2600 -2.4419 -0.1457
39864SOL    HW221972  10.120   5.515  10.332  0.2582  0.0716 -0.3260
39865SOL     OW21973   0.989   7.254   1.781 -0.1797 -0.2872  0.3911
39865SOL    HW121974   0.940   7.223   1.704 -1.3439  0.2138  0.9075
39865SOL    HW221975   1.026   7.175   1.819  1.5045 -0.4300 -1.3840
39866SOL     OW21976   4.468   4.184   1.337 -0.1177 -0.1016 -0.5566
39866SOL    HW121977   4.394   4.142   1.380 -0.4301  0.8369 -0.1569
39866SOL    HW221978   4.428   4.246   1.276  0.2991  1.7215  0.9465
39867SOL     OW21979   8.411   4.278   6.516 -0.5821  0.1974  0.4363
39867SOL    HW121980   8.434   4.330   6.439 -0.9115 -0.2584  0.0180
39867SOL    HW221981   8.317   4.266   6.509 -1.0067  2.0608  2.1456
39868SOL     OW21982   4.734  10.449   6.220 -0.2501 -0.0490  0.0962
39868SOL    HW121983   4.704  10.495   6.142 -2.1644 -0.0317  0.7958
39868SOL    HW221984   4.690  10.364   6.216  0.3157 -0.3798  0.7219
39869SOL     OW21985   4.019   1.448  10.197  0.4999 -0.8179  0.3769
39869SOL    HW121986   3.927   1.467  10.219  0.5244 -0.3818  0.1285
39869SOL    HW221987   4.017   1.429  10.103  0.8254  0.3972  0.1043
39870SOL     OW21988   7.874   6.641   6.767 -0.3848 -0.1647 -0.4544
39870SOL    HW121989   7.875   6.737   6.774 -0.9896 -0.1875 -0.0189
39870SOL    HW221990   7.919   6.611   6.846 -1.4150 -0.2666  0.1060
39871SOL     OW21991   0.435   6.045  10.209 -0.3879  0.2925 -0.0775
39871SOL    HW121992   0.355   6.084  10.244  0.0759  0.9684  0.2427
39871SOL    HW221993   0.503   6.110  10.226 -0.1656  0.7945 -2.5131
39872SOL     OW21994   0.288   6.446   0.410  0.1856 -0.6923 -0.3406
39872SOL    HW121995   0.342   6.517   0.443  1.4610 -2.5428  1.8658
39872SOL    HW221996   0.333   6.414   0.332 -0.0236  0.4309 -0.9326
39873SOL     OW21997   2.754   2.311   6.141 -0.5730 -0.0612  0.2767
39873SOL    HW121998   2.779   2.394   6.100  1.8418 -0.8326 -0.0067
39873SOL    HW221999   2.746   2.332   6.234  2.0587  0.1997  0.5389
39874SOL     OW22000   2.956   9.121   5.559 -0.1528 -0.0284  0.2611
39874SOL    HW122001   3.043   9.084   5.545  0.5633  0.8629  2.0863
39874SOL    HW222002   2.950   9.192   5.494  0.6281  0.1258  0.3454
39875SOL     OW22003   5.901   9.510   6.081  0.1609 -0.5280  1.0924
39875SOL    HW122004   5.823   9.476   6.125 -0.7675  0.6456  0.4370
39875SOL    HW222005   5.953   9.433   6.060 -2.6610 -1.8545 -1.9403
39876SOL     OW22006   8.109   5.469   2.096 -0.0536  0.0647  0.2527
39876SOL    HW122007   8.058   5.456   2.016  0.2388 -1.8048  0.3222
39876SOL    HW222008   8.177   5.531   2.072 -2.0213  2.2618  0.0315
39877SOL     OW22009   4.180   2.599   9.979  0.3642  0.3015 -0.1646
39877SOL    HW122010   4.202   2.658  10.052  1.0451  1.7006 -1.4425
39877SOL    HW222011   4.196   2.651   9.901 -2.6812 -0.3070 -1.3391
39878SOL     OW22012   7.027   8.184  10.203  0.0810 -0.1940  0.1529
39878SOL    HW122013   7.090   8.117  10.229  0.1561  0.1549  0.9032
39878SOL    HW222014   7.056   8.212  10.117 -0.4154 -1.6805 -0.5366
39879SOL     OW22015   5.043   5.125   7.026  0.3982 -0.1480 -0.0819
39879SOL    HW122016   5.007   5.118   6.938  0.2483  0.0729 -0.0390
39879SOL    HW222017   5.136   5.145   7.013  0.3492  0.0104 -0.1879
39880SOL     OW22018   1.509   0.721  10.674  0.3708  0.2613  0.2187
39880SOL    HW122019   1.564   0.650  10.707 -1.0772 -0.9181  0.1868
39880SOL    HW222020   1.457   0.681  10.604 -1.8389  0.8188  1.4404
39881SOL     OW22021   9.433   2.993  10.143 -0.5190 -0.0629  0.1784
39881SOL    HW122022   9.488   3.070  10.156  0.7860 -1.1205  1.1538
39881SOL    HW222023   9.430   2.951  10.229 -0.6974 -1.4308 -0.4735
39882SOL     OW22024   6.327   9.925   2.523 -0.0769  0.6409  0.2941
39882SOL    HW122025   6.335   9.992   2.456  0.3181  0.3726  0.0682
39882SOL    HW222026   6.270   9.858   2.483  0.3633  0.3620  0.1258
39883SOL     OW22027   6.373   2.277   2.990 -0.0003  0.2757 -0.4191
39883SOL    HW122028   6.418   2.221   3.053  0.3019 -0.4113 -1.2157
39883SOL    HW222029   6.285   2.286   3.025  0.1207 -0.2084  0.0275
39884SOL     OW22030   2.151   6.955   3.457 -0.4501 -0.0049 -0.6707
39884SOL    HW122031   2.216   6.885   3.465  0.2881  0.5146 -1.8894
39884SOL    HW222032   2.112   6.942   3.371 -1.0335  0.4801 -0.4836
39885SOL     OW22033  10.381   2.455   0.170  0.2249 -0.4609  0.1785
39885SOL    HW122034  10.413   2.535   0.211 -0.4609  0.3347 -0.7993
39885SOL    HW222035  10.327   2.414   0.237  1.1997 -0.5234  0.9550
39886SOL     OW22036   9.332   9.875   5.954 -0.1337  0.2591  0.3312
39886SOL    HW122037   9.314   9.933   5.880 -0.1841  0.8760  0.8222
39886SOL    HW222038   9.427   9.878   5.965 -0.0999 -0.0393  0.1278
39887SOL     OW22039   2.111   2.435   3.470  0.0000  0.1434  0.2238
39887SOL    HW122040   2.058   2.387   3.535  1.6261 -0.0863  1.4252
39887SOL    HW222041   2.139   2.514   3.515 -0.3985  0.9153 -0.8523
39888SOL     OW22042   4.880   0.292   7.611  0.1914  0.3367  0.3719
39888SOL    HW122043   4.953   0.247   7.568  0.4832 -0.5405  1.7008
39888SOL    HW222044   4.909   0.383   7.619  0.0594  0.5666 -1.3695
39889SOL     OW22045  10.096   7.005   8.035  0.1667  0.1152  0.3703
39889SOL    HW122046  10.049   7.083   8.005  0.3815 -0.4745 -1.7224
39889SOL    HW222047  10.182   7.012   7.993  1.0829 -0.0759  2.1198
39890SOL     OW22048   6.023   0.830   3.212  0.3673 -0.1868  0.4572
39890SOL    HW122049   5.968   0.825   3.134 -0.3599  0.0926  0.9402
39890SOL    HW222050   6.107   0.794   3.184  0.1089 -0.1289 -0.4424
39891SOL     OW22051   5.569   7.013   5.585 -0.2923 -0.3441  0.6414
39891SOL    HW122052   5.576   7.021   5.680  0.2498  0.0295  0.5728
39891SOL    HW222053   5.516   7.088   5.558  1.1449  0.6381  0.4584
39892SOL     OW22054   1.490   6.922   0.927 -0.6804 -0.0736 -0.7524
39892SOL    HW122055   1.417   6.951   0.981  1.0009  1.2660  0.9137
39892SOL    HW222056   1.471   6.829   0.910 -2.0639 -0.1257  0.7861
39893SOL     OW22057   5.620   2.214   8.325 -0.6776 -0.2923  0.0966
39893SOL    HW122058   5.677   2.247   8.255 -0.9222  1.4583  0.6763
39893SOL    HW222059   5.538   2.193   8.282 -0.7437  0.5447 -0.2131
39894SOL     OW22060   5.701   7.762   4.590  0.3194  0.3208 -0.0039
39894SOL    HW122061   5.782   7.808   4.564  2.0396 -2.3667  0.2133
39894SOL    HW222062   5.730   7.699   4.656 -2.1706 -0.1160  0.7605
39895SOL     OW22063   8.161   9.534  10.644 -0.2958 -0.4781 -0.2433
39895SOL    HW122064   8.084   9.556  10.591 -1.3458  0.5567  1.5866
39895SOL    HW222065   8.136   9.454  10.690  0.0372 -0.5633 -0.2081
39896SOL     OW22066   3.971   1.170   6.904 -0.2824 -0.1459  0.0857
39896SOL    HW122067   3.958   1.204   6.815 -1.4241 -1.3300 -0.2210
39896SOL    HW222068   3.914   1.224   6.958  0.3199  0.4955  0.0959
39897SOL     OW22069   2.903   0.243   6.554 -0.3368 -0.1119  0.3503
39897SOL    HW122070   2.864   0.327   6.577  1.5015  1.0151 -0.4036
39897SOL    HW222071   2.909   0.195   6.638  1.1918  1.6921  1.3561
39898SOL     OW22072   2.070   4.231   9.267 -0.4644  0.0886  0.7871
39898SOL    HW122073   1.997   4.271   9.314 -0.1293 -0.0314  1.4317
39898SOL    HW222074   2.142   4.230   9.331  0.5510  1.5231 -0.2723
39899SOL     OW22075   1.760  10.429   7.090  0.6238  0.0036 -0.2329
39899SOL    HW122076   1.696  10.498   7.108  1.7550  1.3099 -1.1262
39899SOL    HW222077   1.706  10.353   7.068 -0.6381  1.1178 -1.1509
39900SOL     OW22078   2.246   4.629   8.399  0.0810 -0.0401  0.0927
39900SOL    HW122079   2.274   4.680   8.475  0.4042 -1.5117  1.0023
39900SOL    HW222080   2.316   4.641   8.335  1.1310 -0.8985  1.0452
39901SOL     OW22081   4.006   8.767   1.538  0.1045 -0.7566 -0.0777
39901SOL    HW122082   3.919   8.772   1.497  0.8995 -0.2116 -1.7449
39901SOL    HW222083   4.057   8.710   1.480  1.0009 -0.7267  0.6599
39902SOL     OW22084   8.907   3.143   3.915  0.2275  0.1371  0.1390
39902SOL    HW122085   8.996   3.151   3.878  1.3850 -0.8104  2.5232
39902SOL    HW222086   8.921   3.105   4.002 -2.5812 -0.3897  0.4324
39903SOL     OW22087   2.382  10.545   7.564  0.7980 -0.0352 -0.4017
39903SOL    HW122088   2.385  10.587   7.650  1.1337  1.1652 -0.9810
39903SOL    HW222089   2.370  10.617   7.503  0.8958 -0.8450 -1.3898
39904SOL     OW22090   0.548   5.180   9.902 -0.1459  0.8955  0.0268
39904SOL    HW122091   0.555   5.202   9.995 -0.6487 -0.1102  0.3098
39904SOL    HW222092   0.482   5.111   9.898  1.3329 -0.5450 -0.8390
39905SOL     OW22093  10.078   6.601   6.726  0.1415 -0.3763 -0.1497
39905SOL    HW122094  10.129   6.533   6.681  0.8190 -0.0342  0.0937
39905SOL    HW222095  10.139   6.641   6.787 -0.6501 -0.5590  0.7971
39906SOL     OW22096   3.158   6.538   6.215 -0.4865  0.6009 -0.0580
39906SOL    HW122097   3.120   6.524   6.128 -1.4687  0.3631  0.4041
39906SOL    HW222098   3.236   6.482   6.216  0.6255  2.0439 -1.4699
39907SOL     OW22099   1.711   1.623   3.255 -0.0338  0.5223 -0.6622
39907SOL    HW122100   1.735   1.536   3.223 -2.2212 -0.1865 -0.5351
39907SOL    HW222101   1.740   1.624   3.346  0.7905  0.2633 -0.9167
39908SOL     OW22102   8.202   7.669   1.632  0.0404 -0.0373  0.2658
39908SOL    HW122103   8.127   7.718   1.665 -0.6747 -1.4068  0.7899
39908SOL    HW222104   8.212   7.698   1.541  0.7895  2.3307  1.0495
39909SOL     OW22105   4.697   3.136   1.813  0.6986 -0.2462  0.0778
39909SOL    HW122106   4.660   3.086   1.886  1.7367  0.7162  1.3056
39909SOL    HW222107   4.685   3.227   1.838 -0.1483  0.1618 -1.6135
39910SOL     OW22108   0.373   6.402   0.097  0.8828  0.4770  0.1214
39910SOL    HW122109   0.286   6.423   0.062  1.5777 -0.9390 -2.8144
39910SOL    HW222110   0.414   6.487   0.112  0.7340  1.3455 -3.4614
39911SOL     OW22111   0.592  10.369   2.520 -0.2717  0.2740  0.5127
39911SOL    HW122112   0.512  10.316   2.528 -0.6654  0.7912  0.0746
39911SOL    HW222113   0.578  10.421   2.441  1.3117 -0.9834 -0.6493
39912SOL     OW22114   6.059   7.895   3.851  0.4095  0.6518  0.5609
39912SOL    HW122115   5.966   7.911   3.863  0.4061  0.4385  0.8109
39912SOL    HW222116   6.101   7.977   3.880  0.3598  0.3931  1.4002
39913SOL     OW22117   9.240   7.535   1.873 -0.2462 -0.0651  0.3980
39913SOL    HW122118   9.314   7.533   1.812 -1.3590 -0.1440 -1.0010
39913SOL    HW222119   9.163   7.533   1.817 -1.3453  1.5100  1.7406
39914SOL     OW22120   9.261  10.735   6.035 -0.4201 -0.3778 -0.5653
39914SOL    HW122121   9.220  10.781   5.962  0.1491 -1.1104 -1.3675
39914SOL    HW222122   9.331  10.683   5.995 -0.9758 -1.8601  0.3221
39915SOL     OW22123   1.632   9.491   5.290  0.3434 -0.1125  0.2792
39915SOL    HW122124   1.705   9.542   5.323  0.3405  0.6678 -0.8730
39915SOL    HW222125   1.555   9.547   5.302  0.0325 -0.6476  0.8418
39916SOL     OW22126   0.019   7.823  10.062 -1.3004 -0.2860 -0.0301
39916SOL    HW122127   0.003   7.729  10.068  0.0737 -0.4547  1.8542
39916SOL    HW222128   0.113   7.831  10.049 -1.4734  0.8409 -0.7624
39917SOL     OW22129  10.713   2.554   2.543  0.5306  0.2069 -0.4317
39917SOL    HW122130  10.697   2.571   2.450  1.3281 -0.2331 -0.6561
39917SOL    HW222131  10.759   2.471   2.544  0.7308  0.3268  0.3501
39918SOL     OW22132   3.630   2.476   3.995 -0.2691 -0.4946  0.1188
39918SOL    HW122133   3.723   2.466   4.015  0.3086 -0.4951 -2.3315
39918SOL    HW222134   3.590   2.394   4.025  0.9748 -1.5781 -1.0685
39919SOL     OW22135   6.929   0.840  10.275  0.4091  0.3510 -0.4031
39919SOL    HW122136   6.855   0.820  10.218 -1.1205  0.1486  1.5304
39919SOL    HW222137   6.915   0.931  10.301  1.5213  0.6915 -0.9488
39920SOL     OW22138   8.665   8.306   3.840  0.3217  0.0268 -0.0508
39920SOL    HW122139   8.724   8.238   3.872  1.2853  0.6803 -0.4157
39920SOL    HW222140   8.615   8.264   3.770  1.1749 -0.2106 -0.5300
39921SOL     OW22141   6.397   7.804   9.600 -0.3931 -0.0934  0.5480
39921SOL    HW122142   6.407   7.898   9.613  0.2481 -0.0584 -0.0990
39921SOL    HW222143   6.370   7.770   9.685  0.6729  0.4981  1.1529
39922SOL     OW22144   7.116   4.702   5.909 -0.0873 -0.0585  0.9737
39922SOL    HW122145   7.127   4.783   5.860  0.6601  0.2395  1.6102
39922SOL    HW222146   7.041   4.659   5.868  1.5679 -0.7164 -1.6610
39923SOL     OW22147   9.281   8.711   8.933  0.3385 -0.9331  0.0396
39923SOL    HW122148   9.298   8.648   9.004  0.9643 -0.1322  0.6206
39923SOL    HW222149   9.365   8.756   8.921  0.2094 -0.9795 -1.1523
39924SOL     OW22150   7.854   2.253   6.239 -0.1399 -0.2914 -0.3875
39924SOL    HW122151   7.831   2.328   6.293  0.4165  0.5207 -1.2531
39924SOL    HW222152   7.859   2.288   6.150  3.0663 -0.6917 -0.4630
39925SOL     OW22153   2.768   2.585   2.224  0.0151 -0.5450 -0.2179
39925SOL    HW122154   2.863   2.579   2.226  0.0186 -0.8642 -0.8862
39925SOL    HW222155   2.746   2.579   2.131 -0.6491 -0.3433 -0.0799
39926SOL     OW22156   8.505   9.367   5.152  0.2633  0.3137 -0.7238
39926SOL    HW122157   8.488   9.302   5.084 -0.5812  0.6563 -0.8513
39926SOL    HW222158   8.596   9.351   5.178  0.0596 -0.9439 -0.7157
39927SOL     OW22159   9.956   4.282   0.417 -0.0649 -0.4538 -0.0042
39927SOL    HW122160  10.031   4.341   0.409 -1.3302  1.3194  0.5288
39927SOL    HW222161   9.946   4.244   0.330  0.3053  0.7794 -0.6135
39928SOL     OW22162  10.455   6.190  10.372  0.1381  0.7122  0.2931
39928SOL    HW122163  10.507   6.146  10.304 -1.0611 -0.5646  0.1695
39928SOL    HW222164  10.520   6.240  10.422  1.1068  1.4729 -1.5829
39929SOL     OW22165   1.097   5.585  10.510 -0.3511 -0.2804  0.4512
39929SOL    HW122166   1.109   5.641  10.587 -0.5477  0.4192 -0.0245
39929SOL    HW222167   1.003   5.590  10.491  0.0681  1.7986 -1.4947
39930SOL     OW22168   0.113   5.727   9.254 -0.4377 -0.1375 -0.6009
39930SOL    HW122169   0.137   5.677   9.333  0.3140  0.3559 -0.5056
39930SOL    HW222170   0.156   5.681   9.182  0.1521  0.2889 -0.5280
39931SOL     OW22171   9.712   8.559   1.791  0.2213  0.5645  0.0536
39931SOL    HW122172   9.705   8.549   1.696  0.0369 -0.0215  0.1225
39931SOL    HW222173   9.777   8.493   1.817 -0.0381  0.4415  0.3846
39932SOL     OW22174   4.879   1.793   3.451  0.1558 -0.3895  0.0242
39932SOL    HW122175   4.849   1.758   3.367 -0.1413  1.3561 -0.6299
39932SOL    HW222176   4.800   1.827   3.492  0.2857 -1.3072  1.0827
39933SOL     OW22177   1.654   6.128   1.903  0.4098 -0.1188 -0.2376
39933SOL    HW122178   1.732   6.094   1.948 -1.0323 -1.2804  1.5363
39933SOL    HW222179   1.591   6.145   1.973 -0.7268  1.4441 -1.5616
39934SOL     OW22180   4.275   1.475   4.120  0.0533  0.3153 -0.0539
39934SOL    HW122181   4.295   1.548   4.178  0.3749 -0.2167  0.5171
39934SOL    HW222182   4.285   1.510   4.031 -0.5048  1.1513  0.2066
39935SOL     OW22183   6.349   7.217   4.316  0.9471 -0.7405 -0.3855
39935SOL    HW122184   6.258   7.219   4.286  0.6810 -0.4345  0.4214
39935SOL    HW222185   6.396   7.275   4.256 -0.1484  2.4262  1.6051
39936SOL     OW22186  10.168   3.929   4.799 -0.8276 -0.2924 -0.3119
39936SOL    HW122187  10.213   3.885   4.728  0.8578 -2.0032  1.6746
39936SOL    HW222188  10.121   3.859   4.845  0.4459  0.1672  1.8628
39937SOL     OW22189   1.255   8.709  10.203 -0.0994  0.0050  0.6023
39937SOL    HW122190   1.316   8.754  10.261  0.7227  0.5371 -0.6510
39937SOL    HW222191   1.247   8.621  10.241  1.8360 -0.2442  0.5327
39938SOL     OW22192   3.735  10.448   2.186  0.1706 -0.0194 -0.0387
39938SOL    HW122193   3.803  10.395   2.145  0.8130 -0.0955  1.1047
39938SOL    HW222194   3.781  10.525   2.220 -0.0684 -0.7023  1.9074
39939SOL     OW22195   8.231   7.754   8.330 -0.1009 -0.6124 -0.2822
39939SOL    HW122196   8.281   7.674   8.314  1.8802  0.7587 -1.3254
39939SOL    HW222197   8.211   7.788   8.243 -2.4109 -0.7861  0.1175
39940SOL     OW22198   2.902   0.738   7.151  0.6132  0.0403  0.5409
39940SOL    HW122199   2.829   0.773   7.100  0.2286 -0.2986  0.8505
39940SOL    HW222200   2.932   0.811   7.204  0.9013  0.3483 -0.0342
39941SOL     OW22201   7.975   4.265   0.281 -0.4026 -0.4903 -0.2466
39941SOL    HW122202   7.903   4.302   0.331 -0.2982 -0.1746 -0.3275
39941SOL    HW222203   8.053   4.307   0.317 -0.3551 -0.0161 -0.8899
39942SOL     OW22204   9.710   4.644   3.608 -0.6410  0.3747  0.7282
39942SOL    HW122205   9.745   4.672   3.693 -0.7713  0.1163  0.8704
39942SOL    HW222206   9.626   4.604   3.630 -1.0368  0.9958  0.3940
39943SOL     OW22207   1.538   2.439   5.641  0.0766  0.5120 -0.0985
39943SOL    HW122208   1.610   2.499   5.654  0.6315 -0.3857  1.2252
39943SOL    HW222209   1.513   2.411   5.729 -0.2864 -1.0265 -0.6442
39944SOL     OW22210   1.639   3.637   5.953  0.1359  0.1062 -0.7200
39944SOL    HW122211   1.656   3.718   6.001  0.1521 -0.8981  1.0569
39944SOL    HW222212   1.618   3.573   6.021  1.6572 -1.7832 -1.9303
39945SOL     OW22213   9.089   6.741   2.339 -0.2164  0.0375 -0.3625
39945SOL    HW122214   9.141   6.708   2.266 -1.5329 -1.2770 -0.7546
39945SOL    HW222215   9.004   6.762   2.300 -0.8331 -0.3947  0.7070
39946SOL     OW22216   3.064   5.220   0.796  0.1191 -0.5861  0.1588
39946SOL    HW122217   3.117   5.152   0.838 -1.3293 -0.4780  2.3275
39946SOL    HW222218   3.111   5.301   0.815 -0.5548 -0.5295  1.7400
39947SOL     OW22219   0.586   8.910   4.778 -0.1243  0.7850  0.4756
39947SOL    HW122220   0.620   8.857   4.850  0.3109 -0.1524 -0.3804
39947SOL    HW222221   0.493   8.888   4.774  0.0873 -0.0678  0.0219
39948SOL     OW22222   0.866   9.572  10.750  0.0185  0.7045  0.2311
39948SOL    HW122223   0.851   9.649  10.694 -0.6337  0.5310  0.1618
39948SOL    HW222224   0.819   9.501  10.706 -1.3832  0.7808  1.5109
39949SOL     OW22225  10.685   5.934   1.201  0.2105 -0.7729 -0.1826
39949SOL    HW122226  10.597   5.952   1.168  0.0266 -0.1402  0.6473
39949SOL    HW222227  10.701   5.843   1.176 -1.2142 -1.3325  0.8407
39950SOL     OW22228   1.027   5.842   5.877  0.1350 -0.1851  0.1815
39950SOL    HW122229   1.047   5.770   5.817  0.5717 -0.9952  1.2641
39950SOL    HW222230   0.957   5.808   5.933  0.5070  0.1300  0.8562
39951SOL     OW22231   3.083   1.863   9.164  0.1601 -0.4474 -0.2125
39951SOL    HW122232   3.070   1.817   9.081 -1.8455  0.2950 -0.3543
39951SOL    HW222233   3.015   1.931   9.165  1.3153  0.7565  1.2156
39952SOL     OW22234   9.084   9.521   8.185  0.0502 -0.0277  0.1470
39952SOL    HW122235   9.019   9.522   8.115 -1.7105  0.4476  1.7143
39952SOL    HW222236   9.153   9.581   8.155 -0.4997 -0.0994 -1.3048
39953SOL     OW22237  10.042   6.294   1.732 -0.4486 -0.3484 -0.1727
39953SOL    HW122238  10.038   6.370   1.790 -0.3670 -0.8625  0.5289
39953SOL    HW222239   9.987   6.317   1.658  0.3540  0.7841 -0.4420
39954SOL     OW22240   0.218   1.771   7.020 -0.5864  0.2598 -0.1916
39954SOL    HW122241   0.297   1.803   6.978 -0.9124 -1.7502 -2.6122
39954SOL    HW222242   0.146   1.806   6.967 -1.1420 -0.4222  0.0797
39955SOL     OW22243   5.600   8.187   5.109  0.6186  0.0677 -0.5411
39955SOL    HW122244   5.663   8.169   5.179  1.0530  1.5248 -0.5394
39955SOL    HW222245   5.636   8.142   5.032  0.8166 -0.4291 -0.1656
39956SOL     OW22246   8.803   0.503   0.204 -0.8075  0.2536 -0.0801
39956SOL    HW122247   8.881   0.461   0.240 -1.2485  0.2594  0.9276
39956SOL    HW222248   8.824   0.520   0.113  0.0387 -0.5370 -0.0403
39957SOL     OW22249   6.798   5.089   3.339  0.3323  0.4382  0.0373
39957SOL    HW122250   6.893   5.095   3.329  0.2965 -0.6023 -1.4300
39957SOL    HW222251   6.780   5.123   3.426  1.8241  2.5703 -0.4146
39958SOL     OW22252   4.678  10.572   2.846  0.1586 -0.4158  0.1500
39958SOL    HW122253   4.713  10.500   2.793  0.2152  0.1299 -0.5627
39958SOL    HW222254   4.647  10.636   2.782  0.1619  0.2250  0.7828
39959SOL     OW22255   6.861   4.651   4.685 -0.2036  0.4115  0.0163
39959SOL    HW122256   6.938   4.648   4.743 -0.2237  1.1747  0.0993
39959SOL    HW222257   6.817   4.568   4.699 -0.3512  0.6807  1.3096
39960SOL     OW22258   4.333   3.820   7.856 -0.2821  0.4867 -0.2108
39960SOL    HW122259   4.365   3.737   7.892 -0.7025  0.8791  1.1170
39960SOL    HW222260   4.242   3.824   7.882 -0.1834  1.5118  0.0024
39961SOL     OW22261   1.617   7.424   6.077 -0.0543  0.8372 -0.1902
39961SOL    HW122262   1.597   7.507   6.034 -0.2884  0.7323 -0.2867
39961SOL    HW222263   1.619   7.446   6.170  0.1493  1.0026 -0.2326
39962SOL     OW22264   9.625   7.290  10.799 -0.2156  0.2210  0.0085
39962SOL    HW122265   9.646   7.271  10.891 -1.1818 -0.2251  0.1486
39962SOL    HW222266   9.701   7.259  10.750  0.4836  0.8106  0.6782
39963SOL     OW22267   9.516   8.270   2.990  0.1985 -0.0516  0.1566
39963SOL    HW122268   9.474   8.269   2.904  1.1530  0.3922 -0.3193
39963SOL    HW222269   9.584   8.337   2.983  1.4854 -1.2649  0.6810
39964SOL     OW22270   4.651   7.760   2.471 -0.2590 -0.6511  0.3996
39964SOL    HW122271   4.681   7.809   2.547  1.5221  0.7536 -1.1251
39964SOL    HW222272   4.574   7.809   2.440 -0.0380 -0.3130  0.3815
39965SOL     OW22273  10.061   7.903   2.247 -0.1371 -0.0609  0.2330
39965SOL    HW122274  10.110   7.930   2.325  0.6188 -1.1627  0.1652
39965SOL    HW222275  10.055   7.982   2.194  1.2278  0.2014  0.4348
39966SOL     OW22276   7.243   2.523   3.302 -0.1294  0.0516 -0.0907
39966SOL    HW122277   7.245   2.519   3.206 -0.1337  0.1245 -0.0938
39966SOL    HW222278   7.215   2.436   3.329  2.0239 -0.6707 -0.0827
39967SOL     OW22279   3.308   4.252   1.046  0.3140 -0.5096  0.2755
39967SOL    HW122280   3.219   4.285   1.054  0.1145 -0.4207 -1.6839
39967SOL    HW222281   3.311   4.174   1.101 -1.1878 -0.8843 -0.1393
39968SOL     OW22282   0.893   5.100   7.081  0.2752  0.0634  0.2884
39968SOL    HW122283   0.935   5.181   7.111 -1.7752  0.3800  2.5534
39968SOL    HW222284   0.966   5.043   7.056  1.9275  1.4641  1.6645
39969SOL     OW22285   2.056   0.577   7.857  0.7294  0.1191  0.4087
39969SOL    HW122286   1.988   0.512   7.869  0.9732 -0.3497 -0.6746
39969SOL    HW222287   2.138   0.529   7.871  0.9941 -0.2615 -2.1018
39970SOL     OW22288   4.963   4.070   7.956  0.0686 -0.2338  0.1082
39970SOL    HW122289   4.960   4.009   7.883  1.2945 -0.0545 -0.1238
39970SOL    HW222290   4.980   4.015   8.033  1.8339 -0.1625 -0.1915
39971SOL     OW22291   7.768  10.218   1.969  0.5182 -0.2906 -0.1913
39971SOL    HW122292   7.716  10.176   2.037  0.3445  2.2853  1.3770
39971SOL    HW222293   7.856  10.182   1.981  0.2677 -0.6191  0.7137
39972SOL     OW22294   4.072   9.489   6.304 -0.0038  1.1212  0.4265
39972SOL    HW122295   4.161   9.522   6.315  0.8290 -1.1860  1.0980
39972SOL    HW222296   4.025   9.562   6.262  2.2147  2.3392 -0.1296
39973SOL     OW22297   9.623   4.043   4.810 -0.5224  0.2662  0.0485
39973SOL    HW122298   9.535   4.005   4.808 -0.3854 -0.0936  0.5009
39973SOL    HW222299   9.677   3.981   4.761 -0.4492  0.2744  0.1174
39974SOL     OW22300   3.221   3.528   8.631 -0.6123 -0.7548  0.5839
39974SOL    HW122301   3.204   3.501   8.541 -0.0241  0.5321  0.0571
39974SOL    HW222302   3.314   3.509   8.645 -0.3020  0.4926  0.3573
39975SOL     OW22303   5.318   1.570   6.807  0.1706  0.1441  0.3018
39975SOL    HW122304   5.394   1.576   6.749  0.3153  1.5363  0.6147
39975SOL    HW222305   5.354   1.583   6.895  0.0661 -2.6081  0.8649
39976SOL     OW22306   9.648   1.503   3.934 -0.0086  0.2665  0.3292
39976SOL    HW122307   9.700   1.425   3.954 -0.7200 -0.3896 -0.3243
39976SOL    HW222308   9.677   1.568   3.997  2.2206  0.1886 -0.5101
39977SOL     OW22309   0.338   2.732   3.834 -0.6700  0.2832 -0.9177
39977SOL    HW122310   0.294   2.662   3.882  0.1632 -0.3295 -1.0302
39977SOL    HW222311   0.333   2.705   3.743 -1.2983  0.9127 -1.0744
39978SOL     OW22312   1.822   5.142   1.814 -0.0637  0.3757  0.0224
39978SOL    HW122313   1.739   5.143   1.766 -0.4900  0.5010  0.7633
39978SOL    HW222314   1.830   5.053   1.847 -0.5469  0.7050  1.0561
39979SOL     OW22315   2.049   1.044   1.726  1.1636  0.3876 -0.0780
39979SOL    HW122316   2.013   1.086   1.648  1.3406 -0.1725 -0.4680
39979SOL    HW222317   2.108   1.110   1.764 -1.5401  2.0376  1.5745
39980SOL     OW22318   2.561   0.391   2.064 -0.2196  0.4186  0.2279
39980SOL    HW122319   2.612   0.314   2.088  0.8957  0.4293 -1.8578
39980SOL    HW222320   2.541   0.379   1.971  1.0584  3.1884 -0.5043
39981SOL     OW22321   0.635   2.109  10.751  0.2667  0.0127 -0.0794
39981SOL    HW122322   0.678   2.130  10.834 -0.2072  1.9476 -0.2766
39981SOL    HW222323   0.613   2.194  10.713 -1.9922 -0.8426 -0.8966
39982SOL     OW22324   3.840  10.294  10.231 -0.0200  0.0627 -0.3094
39982SOL    HW122325   3.853  10.199  10.238 -1.2990 -0.1937 -1.1707
39982SOL    HW222326   3.745  10.305  10.236  0.1995  1.5018  1.9010
39983SOL     OW22327  10.728   6.053   9.367 -0.3022  0.1037 -0.2021
39983SOL    HW122328  10.689   6.104   9.439 -1.0081  0.1182 -0.5864
39983SOL    HW222329  10.823   6.059   9.382 -0.4248 -2.3081  2.4456
39984SOL     OW22330   3.059   7.730   2.262 -0.0452 -0.1377  0.0030
39984SOL    HW122331   3.106   7.810   2.285 -0.5230 -0.3113  1.7393
39984SOL    HW222332   2.967   7.750   2.281 -0.3051 -0.7562 -0.5539
39985SOL     OW22333   2.686   7.743  10.082  0.3287 -0.1021 -0.3042
39985SOL    HW122334   2.607   7.758  10.134  0.2165 -0.6163 -0.3218
39985SOL    HW222335   2.755   7.790  10.129  0.1344 -0.1672  0.0497
39986SOL     OW22336   8.060   9.176   5.692 -0.2443 -0.3225 -0.6256
39986SOL    HW122337   8.100   9.259   5.665 -1.2901  0.0524 -1.0649
39986SOL    HW222338   7.971   9.180   5.658 -0.3458 -1.5892 -0.5668
39987SOL     OW22339   8.296   7.603   2.330 -0.0906 -0.3199 -0.1338
39987SOL    HW122340   8.353   7.587   2.255  0.9879  0.3779  0.4919
39987SOL    HW222341   8.275   7.697   2.324 -1.6563 -0.6752 -0.6532
39988SOL     OW22342   7.185   7.380   1.576  0.7695 -0.1670  0.2354
39988SOL    HW122343   7.161   7.361   1.667  3.4446 -0.9331  0.8834
39988SOL    HW222344   7.206   7.474   1.576 -0.0093  0.0165  0.1781
39989SOL     OW22345   3.128   0.137   0.428  0.0984  0.4543  0.3568
39989SOL    HW122346   3.209   0.125   0.478  1.1828 -0.6557 -1.5517
39989SOL    HW222347   3.140   0.220   0.383 -0.4919  1.0069  1.1771
39990SOL     OW22348   2.968   2.744   6.634  0.1240 -0.0183 -0.5040
39990SOL    HW122349   3.001   2.833   6.623  2.5669 -0.3934  2.3423
39990SOL    HW222350   2.905   2.751   6.705 -0.1655 -0.4622 -0.7154
39991SOL     OW22351   3.962   0.748   4.885 -0.3181 -0.3486 -0.0144
39991SOL    HW122352   3.978   0.713   4.797 -1.9847  0.5732 -0.7193
39991SOL    HW222353   3.998   0.681   4.944 -2.8148 -3.0376 -1.3191
39992SOL     OW22354   1.599   4.618   3.658  0.1496  0.0630  0.1386
39992SOL    HW122355   1.622   4.639   3.568 -0.5724 -1.3003 -0.3765
39992SOL    HW222356   1.657   4.546   3.682 -1.0719 -0.9918  0.0305
39993SOL     OW22357   1.436   7.375   7.462 -0.8034 -0.0981  0.2531
39993SOL    HW122358   1.408   7.308   7.525  0.8049 -0.0674  1.0432
39993SOL    HW222359   1.529   7.387   7.480 -0.8298  1.6002 -0.5933
39994SOL     OW22360   2.233   4.273   4.411 -0.1118 -0.4222 -0.0489
39994SOL    HW122361   2.294   4.344   4.426 -0.4429 -0.1710  0.1300
39994SOL    HW222362   2.286   4.203   4.372  0.5323 -0.6375  1.1428
39995SOL     OW22363   8.859   0.484   5.658  0.2999  0.1586  0.1306
39995SOL    HW122364   8.798   0.494   5.585  0.2406  0.8160  0.2604
39995SOL    HW222365   8.815   0.528   5.731  1.7275  2.3130 -0.2331
39996SOL     OW22366   4.307   0.863   2.809 -0.1212  0.3965 -0.3147
39996SOL    HW122367   4.268   0.885   2.894  1.7149  2.2022  0.1249
39996SOL    HW222368   4.399   0.887   2.817  0.2773 -0.1059 -2.5812
39997SOL     OW22369   3.003   9.506   8.058  0.7829 -0.1417 -0.3525
39997SOL    HW122370   3.041   9.421   8.037 -0.0403  0.2422 -4.1391
39997SOL    HW222371   2.922   9.510   8.007 -0.3318  2.0698  1.4278
39998SOL     OW22372   2.324   7.860   1.212 -0.3369 -1.2392 -0.6479
39998SOL    HW122373   2.257   7.884   1.149  0.8950 -0.2067 -1.6278
39998SOL    HW222374   2.378   7.796   1.164  0.7152 -0.3074 -0.7409
39999SOL     OW22375   8.143   6.638   3.223 -0.1513  0.0624  0.1326
39999SOL    HW122376   8.137   6.548   3.254  0.8917 -1.1434 -2.8337
39999SOL    HW222377   8.221   6.673   3.266 -0.2649 -0.6075  0.9030
40000SOL     OW22378   3.358   9.427   4.900  0.0166 -0.0815  0.8853
40000SOL    HW122379   3.432   9.377   4.865  1.2398  1.2144  1.5529
40000SOL    HW222380   3.282   9.370   4.885  0.8360 -0.6961 -1.4914
40001SOL     OW22381   2.481   5.866   8.860 -0.4763  0.5124 -0.0265
40001SOL    HW122382   2.511   5.860   8.951 -1.7155  0.1910  0.3740
40001SOL    HW222383   2.546   5.815   8.810 -2.1282 -3.2605  1.2738
40002SOL     OW22384   5.387   7.794   4.556  0.0219 -0.0880 -0.3520
40002SOL    HW122385   5.481   7.783   4.551 -0.0512 -0.5508 -0.7129
40002SOL    HW222386   5.371   7.882   4.520  0.1888 -0.5408 -1.5674
40003SOL     OW22387   9.128   6.309   6.065  0.4202  0.4059 -0.2305
40003SOL    HW122388   9.057   6.282   6.007 -0.5012 -0.7183  1.3503
40003SOL    HW222389   9.175   6.376   6.015  0.2356 -1.1008 -2.6294
40004SOL     OW22390   5.002   4.415   6.387 -0.4693  0.0055 -0.0371
40004SOL    HW122391   4.911   4.423   6.416 -0.9174  0.7863 -1.5746
40004SOL    HW222392   5.001   4.441   6.295  1.2876 -0.1469 -0.1387
40005SOL     OW22393   2.166   9.876   6.791 -0.0196 -0.0748  0.4750
40005SOL    HW122394   2.087   9.878   6.845  0.8556  0.3492  1.7866
40005SOL    HW222395   2.196   9.967   6.790  0.2819 -0.1806 -0.2653
40006SOL     OW22396   4.992   5.221   1.745 -0.3350 -0.0865  0.2240
40006SOL    HW122397   4.937   5.218   1.666 -1.3190 -1.8753  0.9215
40006SOL    HW222398   4.952   5.290   1.798 -1.6518 -1.0099  0.4953
40007SOL     OW22399   8.792   9.460   3.198  0.3656 -0.0262  0.0835
40007SOL    HW122400   8.871   9.467   3.251  0.5403  0.3097 -0.2185
40007SOL    HW222401   8.752   9.547   3.203  0.4148  0.0274 -0.3817
40008SOL     OW22402   9.057   9.948   3.950 -0.1422  0.2641 -0.1862
40008SOL    HW122403   9.091   9.886   4.015  0.5068  0.6250 -0.1734
40008SOL    HW222404   8.964   9.928   3.944 -0.4458  0.9327  1.6747
40009SOL     OW22405   7.207   5.613   7.497  0.0535 -0.3434 -0.2955
40009SOL    HW122406   7.249   5.660   7.569  2.1402 -1.7354 -0.5124
40009SOL    HW222407   7.154   5.545   7.539 -0.5294  0.2469 -0.0581
40010SOL     OW22408   3.428   3.271   1.601  0.5693  0.3552  0.3930
40010SOL    HW122409   3.453   3.276   1.508  0.8904  0.4306  0.4809
40010SOL    HW222410   3.339   3.236   1.600  0.1477  1.3934  0.0027
40011SOL     OW22411   5.672   9.359   8.081  0.5123 -0.1985  0.2700
40011SOL    HW122412   5.628   9.287   8.037  1.4912  0.0064 -1.1385
40011SOL    HW222413   5.756   9.323   8.108  1.4307  0.6077 -1.3320
40012SOL     OW22414   2.306   8.347   9.779  0.1993  0.3251  0.0115
40012SOL    HW122415   2.314   8.324   9.871 -1.9491 -1.4124 -0.1511
40012SOL    HW222416   2.221   8.390   9.772 -0.4243 -1.0357 -1.3672
40013SOL     OW22417   2.588   6.305   5.686  0.1614  0.3646 -0.0555
40013SOL    HW122418   2.570   6.382   5.633  3.1170  0.0002 -1.7953
40013SOL    HW222419   2.630   6.339   5.765 -1.0846  0.6729  0.4958
40014SOL     OW22420   1.332   3.556   9.798  0.1156 -0.2845 -0.2808
40014SOL    HW122421   1.381   3.637   9.784  0.1475 -0.0008  1.2554
40014SOL    HW222422   1.383   3.509   9.864 -0.6469 -0.9083 -0.1281
40015SOL     OW22423   1.268   1.785   5.729  0.2166 -0.5067  0.2691
40015SOL    HW122424   1.264   1.840   5.807  0.8811 -0.7918  0.5081
40015SOL    HW222425   1.228   1.838   5.660  1.3024  0.4745  0.3746
40016SOL     OW22426   2.408   2.578   8.233  0.3916  0.3704  0.3060
40016SOL    HW122427   2.417   2.511   8.166 -0.3055 -0.9899  1.5038
40016SOL    HW222428   2.460   2.652   8.201  1.1609 -0.7181 -1.0743
40017SOL     OW22429   8.740   8.878  10.597  0.4903 -0.1609  0.1508
40017SOL    HW122430   8.740   8.946  10.664  1.4253  0.8904 -0.8741
40017SOL    HW222431   8.709   8.799  10.642  1.1859  0.4938  1.8207
40018SOL     OW22432   4.603   0.124   8.342  0.1126  0.4314 -0.1171
40018SOL    HW122433   4.547   0.139   8.266  0.8978 -0.0182 -0.8084
40018SOL    HW222434   4.685   0.088   8.305  1.3094  2.1416  0.7435
40019SOL     OW22435   3.723   2.115   5.977  0.1876  0.2697  0.6621
40019SOL    HW122436   3.632   2.141   5.962 -0.1545 -1.2615 -0.1726
40019SOL    HW222437   3.761   2.114   5.889  1.1277  1.2031  1.0349
40020SOL     OW22438   9.552   8.764   5.256 -0.0681 -0.1148 -0.0707
40020SOL    HW122439   9.518   8.678   5.230  0.4697 -0.2039 -0.4954
40020SOL    HW222440   9.515   8.779   5.343  4.0954 -3.2508  2.6252
40021SOL     OW22441  10.389   8.303   9.061 -0.2991 -0.2740  0.4662
40021SOL    HW122442  10.484   8.315   9.063 -0.2651 -0.5003  0.2755
40021SOL    HW222443  10.355   8.376   9.112 -0.0427  0.0333  0.2034
40022SOL     OW22444  10.010   9.395  10.397 -0.0149 -0.0011  0.5588
40022SOL    HW122445  10.052   9.310  10.384  0.1468 -0.0878  1.5405
40022SOL    HW222446  10.057   9.454  10.338 -1.0718 -0.8461 -1.2164
40023SOL     OW22447  10.354   7.328   5.614  0.3092  0.0758 -0.6184
40023SOL    HW122448  10.433   7.299   5.659 -0.3803 -1.0214 -0.0781
40023SOL    HW222449  10.342   7.418   5.643  1.4212  0.3051 -0.8078
40024SOL     OW22450   0.617   1.848   7.181  0.4715  0.4678 -0.0945
40024SOL    HW122451   0.692   1.799   7.148  2.0726  2.3548  0.5096
40024SOL    HW222452   0.606   1.920   7.119 -0.6920  0.3654 -0.0251
40025SOL     OW22453   0.462   3.785   2.028 -0.0168 -0.4629  0.4540
40025SOL    HW122454   0.523   3.810   1.959 -0.5085 -2.3714 -0.7192
40025SOL    HW222455   0.515   3.736   2.091  0.3357  0.8994  1.2797
40026SOL     OW22456   4.803   7.143   1.004  0.1860  0.8618 -0.0985
40026SOL    HW122457   4.841   7.066   1.047  0.6944  1.1447 -0.0442
40026SOL    HW222458   4.764   7.194   1.075 -1.4531 -0.0628 -0.2851
40027SOL     OW22459   8.673   6.813   1.942 -0.3142 -0.0497  0.1700
40027SOL    HW122460   8.662   6.830   1.849 -0.5346 -2.0040 -0.2115
40027SOL    HW222461   8.705   6.896   1.979  0.5582  0.5237 -1.7686
40028SOL     OW22462   1.689   8.577   2.214  0.1059 -0.5460 -0.0157
40028SOL    HW122463   1.680   8.623   2.297 -0.0038 -1.0138  0.2313
40028SOL    HW222464   1.605   8.588   2.170  0.9390  1.9137 -1.2263
40029SOL     OW22465   6.829  10.025   3.046  0.0781  0.0983 -0.3277
40029SOL    HW122466   6.923  10.032   3.033 -0.0143 -1.3857 -2.2368
40029SOL    HW222467   6.811   9.931   3.042 -1.5456  0.3834 -0.5260
40030SOL     OW22468   0.101   4.278   6.810 -0.3161 -0.1077 -0.6111
40030SOL    HW122469   0.028   4.229   6.847  0.5867 -0.6569  0.4864
40030SOL    HW222470   0.063   4.363   6.787 -1.5567 -0.7797 -1.1524
40031SOL     OW22471  10.789   4.615  10.508  0.2194 -0.2542 -0.4542
40031SOL    HW122472  10.719   4.632  10.445 -0.0133  3.3398  0.5595
40031SOL    HW222473  10.846   4.692  10.502  0.5770 -0.0758  3.1622
40032SOL     OW22474   7.890   1.288   3.885  0.1643  0.2916 -0.8994
40032SOL    HW122475   7.799   1.294   3.913  0.4824  0.6188  0.0965
40032SOL    HW222476   7.932   1.233   3.950  1.3723  2.7396  0.5495
40033SOL     OW22477   8.532   4.057   5.844  0.2417  0.0692  0.1007
40033SOL    HW122478   8.471   4.035   5.773 -0.5679  2.9778 -0.2236
40033SOL    HW222479   8.611   4.007   5.823 -0.7046 -0.7914 -1.6534
40034SOL     OW22480   9.734   7.999   0.238  0.0287  0.1477  0.1505
40034SOL    HW122481   9.651   8.020   0.282 -0.9667  1.4069 -2.1661
40034SOL    HW222482   9.759   8.080   0.194  1.5727 -0.7312 -0.6709
40035SOL     OW22483   7.256   4.775  10.442 -0.0380 -0.0078  0.9361
40035SOL    HW122484   7.285   4.692  10.480  0.9600  0.9333  2.3420
40035SOL    HW222485   7.197   4.812  10.507 -1.4342 -0.1381 -0.2216
40036SOL     OW22486   4.422   5.547   1.342  0.4944 -0.1315 -0.7567
40036SOL    HW122487   4.478   5.471   1.329  2.1430  0.9698 -0.4630
40036SOL    HW222488   4.400   5.546   1.435  0.4621 -0.2957 -0.7673
40037SOL     OW22489   5.459   2.180   9.217  0.0348  0.0494 -0.5387
40037SOL    HW122490   5.399   2.106   9.215  0.2782 -0.2398  1.3196
40037SOL    HW222491   5.407   2.252   9.253  0.6145 -0.0553  0.5493
40038SOL     OW22492   7.618   7.543  10.246  0.2805  0.3050 -0.5088
40038SOL    HW122493   7.606   7.628  10.290  0.2650 -0.8730  1.9101
40038SOL    HW222494   7.530   7.518  10.219  0.3720  1.3335 -1.8927
40039SOL     OW22495   0.569   9.917   5.845  0.4604 -0.0185 -0.0979
40039SOL    HW122496   0.547   9.910   5.752  0.5707 -0.1729 -0.1138
40039SOL    HW222497   0.489   9.890   5.891  0.3111  0.3440 -0.1444
40040SOL     OW22498  10.736   5.988   1.475  0.3326 -0.2463 -0.0511
40040SOL    HW122499  10.711   6.006   1.384 -0.2861 -3.0523 -0.5395
40040SOL    HW222500  10.690   5.906   1.496  2.4057 -0.9855  1.9600
40041SOL     OW22501   7.859  10.301   1.377 -0.2333  0.3328  0.5000
40041SOL    HW122502   7.949  10.330   1.359 -0.4407  1.7880  1.6139
40041SOL    HW222503   7.869  10.230   1.440  0.2084 -1.1846 -1.1714
40042SOL     OW22504   0.360   0.759   6.734  0.0675 -0.2283  0.2562
40042SOL    HW122505   0.314   0.732   6.813 -1.1482 -0.1864 -0.4179
40042SOL    HW222506   0.425   0.822   6.765  0.4200 -1.0994  1.3622
40043SOL     OW22507   9.055   8.888   5.610  0.4413  0.0272  0.3594
40043SOL    HW122508   9.120   8.871   5.679  1.9562 -0.1719 -1.0638
40043SOL    HW222509   9.085   8.969   5.568  0.3709 -0.6359 -0.9983
40044SOL     OW22510   5.051   4.463   6.962  0.4333  0.9004  0.3442
40044SOL    HW122511   4.970   4.499   6.925  0.2166  0.7701  0.6890
40044SOL    HW222512   5.074   4.524   7.032  0.6913  0.9941  0.1801
40045SOL     OW22513   1.975   6.956   3.243  0.4175  0.2103  0.0853
40045SOL    HW122514   1.918   6.879   3.252  1.4268 -0.4462  1.0867
40045SOL    HW222515   2.016   6.944   3.157 -0.5466  0.4284 -0.4230
40046SOL     OW22516   7.320  10.494   9.588 -0.4473 -0.2581 -0.1114
40046SOL    HW122517   7.319  10.411   9.637  0.2011  0.1341  0.5830
40046SOL    HW222518   7.333  10.561   9.655 -0.8741  0.4086 -0.6837
40047SOL     OW22519   5.852   4.753   5.200  0.1453  0.2535 -0.2079
40047SOL    HW122520   5.782   4.815   5.220  0.2389 -0.2744  2.0209
40047SOL    HW222521   5.816   4.667   5.222  1.2512 -0.0904  0.3604
40048SOL     OW22522   8.312   3.658   8.016 -0.2080  0.3508  0.9290
40048SOL    HW122523   8.374   3.593   8.050 -2.7425 -1.8208  1.7413
40048SOL    HW222524   8.281   3.620   7.934 -0.6525  1.2601  0.6659
40049SOL     OW22525   1.508   9.804   4.433 -0.3376  0.0762 -0.0962
40049SOL    HW122526   1.553   9.759   4.504 -2.2308 -0.3070  0.9503
40049SOL    HW222527   1.484   9.734   4.371  4.4256  0.7436 -3.1903
40050SOL     OW22528   1.005  10.382   5.242 -0.0568  0.5159 -0.4252
40050SOL    HW122529   1.021  10.466   5.198 -1.1348  1.0764  0.2196
40050SOL    HW222530   1.013  10.401   5.335  1.2755 -0.4665 -0.2959
40051SOL     OW22531   1.812   2.020   8.986  0.3676 -0.2500  0.2783
40051SOL    HW122532   1.873   2.089   8.960  0.0504 -0.5712 -1.4145
40051SOL    HW222533   1.864   1.939   8.984  0.4100 -0.2508  0.9764
40052SOL     OW22534   0.173   8.362  10.470 -0.4332 -0.0717 -0.5435
40052SOL    HW122535   0.178   8.391  10.561  1.6010 -0.5278 -0.4744
40052SOL    HW222536   0.164   8.443  10.419 -1.9791  0.1599  0.0583
40053SOL     OW22537   1.423   3.471   7.060 -0.4549 -0.0163  0.3018
40053SOL    HW122538   1.332   3.488   7.086 -0.3676  0.7346  0.1350
40053SOL    HW222539   1.456   3.556   7.032  0.3706 -0.2423  0.5611
40054SOL     OW22540   5.481   8.572   2.344 -0.9226  0.0532 -0.1890
40054SOL    HW122541   5.401   8.561   2.293 -0.5768  1.6302 -1.1154
40054SOL    HW222542   5.552   8.556   2.282 -0.5077 -0.2324  0.3515
40055SOL     OW22543   5.158   5.579   9.711  0.4585  0.2801  0.1396
40055SOL    HW122544   5.241   5.556   9.753  0.8926  1.5031 -0.0213
40055SOL    HW222545   5.094   5.521   9.753  1.2912 -0.2966  0.6581
40056SOL     OW22546   1.612   2.911   3.083 -0.2797 -0.5662  0.3804
40056SOL    HW122547   1.643   2.852   3.014  2.8214  0.1065  1.0275
40056SOL    HW222548   1.554   2.857   3.136 -1.5732 -1.5178 -1.8635
40057SOL     OW22549   7.737   9.078   3.399  0.0070 -0.5720  0.1633
40057SOL    HW122550   7.785   9.030   3.466  1.3414  1.4460  0.7164
40057SOL    HW222551   7.649   9.089   3.436  0.4364 -0.3548  1.1347
40058SOL     OW22552   3.356   5.233   8.597  0.0914 -0.4584  0.4876
40058SOL    HW122553   3.452   5.229   8.597  0.0409 -3.3667  0.2554
40058SOL    HW222554   3.333   5.243   8.689  0.5897 -0.8866  0.6650
40059SOL     OW22555   1.548   4.174   8.938 -0.1595 -0.0814 -0.5618
40059SOL    HW122556   1.618   4.119   8.973 -1.0455 -0.8521  0.0462
40059SOL    HW222557   1.563   4.174   8.843 -0.5656 -2.0148 -0.6624
40060SOL     OW22558  10.686   1.845   4.962  0.0342  0.0165  0.0061
40060SOL    HW122559  10.699   1.752   4.942 -2.2994  0.3796 -4.3209
40060SOL    HW222560  10.610   1.847   5.020 -1.8166 -0.8165 -2.2531
40061SOL     OW22561   6.915   2.698   8.909 -0.1562 -0.5985  0.1850
40061SOL    HW122562   6.906   2.638   8.834  0.7093  1.3318 -1.5619
40061SOL    HW222563   7.008   2.721   8.910 -0.6931  1.9018 -0.2573
40062SOL     OW22564   0.089   4.090   6.606 -0.3694  0.2061  0.2822
40062SOL    HW122565  -0.000   4.088   6.573 -0.4438 -0.4083  0.5029
40062SOL    HW222566   0.088   4.156   6.676 -0.3654  1.0341 -0.4901
40063SOL     OW22567   2.645   1.262   5.378 -0.0786 -0.4627 -0.4420
40063SOL    HW122568   2.716   1.302   5.328  0.1241 -0.6988 -0.3432
40063SOL    HW222569   2.596   1.337   5.414 -0.2703 -0.2907 -1.0500
40064SOL     OW22570   7.165   2.397   4.818 -0.2100  0.3927  0.0010
40064SOL    HW122571   7.244   2.441   4.785 -0.8718  1.3937 -0.2927
40064SOL    HW222572   7.103   2.400   4.745 -0.5518 -0.3239  0.2544
40065SOL     OW22573   9.808   8.611   6.810 -0.2889 -0.7924  0.0860
40065SOL    HW122574   9.786   8.534   6.863 -1.8964 -1.6069 -1.6536
40065SOL    HW222575   9.771   8.684   6.859  1.4146 -1.0437  1.8574
40066SOL     OW22576   9.737   2.903   4.363 -0.4042 -0.3763  0.0823
40066SOL    HW122577   9.684   2.850   4.303 -0.0569 -0.1915 -0.3949
40066SOL    HW222578   9.795   2.840   4.405  0.4054 -0.3202 -0.9049
40067SOL     OW22579   0.596   7.093   2.829  0.4176 -0.0459  0.1182
40067SOL    HW122580   0.640   7.153   2.769  0.3431 -0.5901 -0.4944
40067SOL    HW222581   0.642   7.010   2.818  1.0595  0.0821  1.5669
40068SOL     OW22582   9.112   5.880   8.552  0.4828 -0.1711  0.5781
40068SOL    HW122583   9.122   5.917   8.640 -0.1899  0.2850  0.4675
40068SOL    HW222584   9.030   5.831   8.556  1.4970 -1.9283  0.8093
40069SOL     OW22585   2.546   4.930   6.864  0.5922  0.1926 -0.1579
40069SOL    HW122586   2.457   4.912   6.894  0.7673  0.8196  0.7888
40069SOL    HW222587   2.550   5.025   6.856  0.8925  0.1080 -1.1417
40070SOL     OW22588   1.260   1.494   0.606 -0.8805  0.4668  1.1608
40070SOL    HW122589   1.234   1.555   0.675 -1.0179  2.1482 -0.3142
40070SOL    HW222590   1.331   1.538   0.560 -0.8960 -0.5524  0.1045
40071SOL     OW22591   7.192  10.319   4.618 -0.2867 -0.4656  0.6070
40071SOL    HW122592   7.106  10.354   4.593 -0.9968 -1.8843  0.9638
40071SOL    HW222593   7.211  10.252   4.552  0.0717 -0.8502  1.0927
40072SOL     OW22594  10.194   3.311   8.641 -0.4569  0.3127 -0.3768
40072SOL    HW122595  10.135   3.364   8.587 -1.6151  0.0382  0.5786
40072SOL    HW222596  10.281   3.335   8.611 -1.0345 -0.8246 -3.3605
40073SOL     OW22597   1.329   2.707   4.561 -0.5600 -0.2221  0.1071
40073SOL    HW122598   1.386   2.690   4.486  2.5721  0.6682  2.1094
40073SOL    HW222599   1.304   2.620   4.591  2.2387 -0.8942  0.8357
40074SOL     OW22600   4.701   4.842   1.160 -0.0082  0.1666 -0.2404
40074SOL    HW122601   4.735   4.875   1.243 -1.5319 -0.2147  0.5782
40074SOL    HW222602   4.606   4.857   1.165 -0.1511  0.0073 -1.8581
40075SOL     OW22603   1.954   4.291   5.255  0.1852 -0.5282  0.3747
40075SOL    HW122604   2.011   4.311   5.181  0.6020 -0.2089  0.7797
40075SOL    HW222605   1.985   4.348   5.325 -1.6773  0.8806  0.1431
40076SOL     OW22606   7.670   7.113   2.730  0.4776  0.1023 -0.1942
40076SOL    HW122607   7.618   7.070   2.663 -0.3025  0.1510  0.3572
40076SOL    HW222608   7.712   7.042   2.778 -2.7588 -0.3781  2.3231
40077SOL     OW22609  10.463  10.426   1.309  0.1594 -0.1021  0.4826
40077SOL    HW122610  10.388  10.367   1.317 -0.3059  0.6475  2.2958
40077SOL    HW222611  10.459  10.459   1.220 -0.8143 -1.1886  0.1057
40078SOL     OW22612   6.542   7.999   4.667 -0.4717 -0.2433 -0.4701
40078SOL    HW122613   6.558   8.064   4.735  1.7381  1.0791 -2.1251
40078SOL    HW222614   6.487   7.933   4.709 -0.1539  1.0827  2.2168
40079SOL     OW22615   7.192  10.039   5.588  0.8770 -0.0776 -0.0155
40079SOL    HW122616   7.226   9.994   5.510  0.0570 -1.5273  0.4089
40079SOL    HW222617   7.235   9.994   5.661  0.1413 -0.0841  0.4207
40080SOL     OW22618   0.800   8.247   3.875 -0.1810  0.2978  0.0940
40080SOL    HW122619   0.719   8.213   3.837 -1.0179  1.3657  0.8840
40080SOL    HW222620   0.835   8.306   3.808  0.2404 -0.5756 -0.4675
40081SOL     OW22621   2.819   0.246   1.645 -0.4927  0.0985  0.1573
40081SOL    HW122622   2.778   0.330   1.666  1.1720  0.6174  1.5900
40081SOL    HW222623   2.879   0.266   1.573 -0.2587  0.1002  0.3505
40082SOL     OW22624   0.013  10.611   3.267 -0.6577  0.6177  0.2608
40082SOL    HW122625   0.065  10.538   3.235 -0.1955  1.1920 -0.3144
40082SOL    HW222626   0.076  10.680   3.286 -1.1898  1.3535 -0.5250
40083SOL     OW22627   3.803   4.565   9.770  0.4619 -0.4915 -0.1110
40083SOL    HW122628   3.791   4.657   9.748  1.4071 -0.6365 -1.3711
40083SOL    HW222629   3.715   4.532   9.784  0.0359  0.3819 -0.6119
40084SOL     OW22630   3.703   6.755   6.190 -0.0854  0.0636  0.2628
40084SOL    HW122631   3.620   6.763   6.237  0.9669  0.0346  2.2521
40084SOL    HW222632   3.708   6.834   6.137  0.8509  2.8444  4.0300
40085SOL     OW22633   5.350   9.480   4.375 -0.5785 -0.7329 -0.5399
40085SOL    HW122634   5.441   9.467   4.349 -0.4428  0.0912 -0.4897
40085SOL    HW222635   5.303   9.406   4.336  0.1367 -1.2803 -0.3960
40086SOL     OW22636   9.314  10.199   2.607 -0.1260  0.4039 -0.4066
40086SOL    HW122637   9.358  10.230   2.527 -0.3073  1.2764 -0.1712
40086SOL    HW222638   9.275  10.277   2.645  0.6259  0.1316  0.9749
40087SOL     OW22639   0.094   1.316   0.186 -0.4708 -0.0297  0.0627
40087SOL    HW122640   0.048   1.355   0.111  0.9059  0.5830 -0.4902
40087SOL    HW222641   0.139   1.390   0.227 -0.1749 -0.5800  0.7446
40088SOL     OW22642   8.641   3.318   5.153  0.2756  0.5202 -1.0683
40088SOL    HW122643   8.635   3.332   5.058 -0.6318  2.0089 -0.8244
40088SOL    HW222644   8.619   3.403   5.191 -1.0853 -0.4921  0.5184
40089SOL     OW22645   6.578   7.535   5.818 -0.8765 -0.1240  0.3732
40089SOL    HW122646   6.524   7.610   5.846 -1.3461 -0.9443  1.7712
40089SOL    HW222647   6.624   7.508   5.897 -0.8421 -1.4157 -0.0630
40090SOL     OW22648   6.268   3.870   2.129 -0.2234 -0.5472 -0.4763
40090SOL    HW122649   6.361   3.890   2.138  0.3134 -2.5086 -1.2054
40090SOL    HW222650   6.248   3.889   2.037 -0.8297  0.8475 -0.0811
40091SOL     OW22651   5.618   5.899   1.817 -0.3813  0.4280 -0.1459
40091SOL    HW122652   5.672   5.976   1.838 -0.0407  0.1226  0.1226
40091SOL    HW222653   5.646   5.833   1.881 -0.4005 -0.0396 -0.6178
40092SOL     OW22654   8.150   9.600   2.438 -0.0782  0.1360  0.4662
40092SOL    HW122655   8.106   9.526   2.480  0.8749 -0.9234 -0.3727
40092SOL    HW222656   8.117   9.601   2.349  1.7028 -0.8071 -0.2460
40093SOL     OW22657   7.376   6.821  10.122  0.1406 -0.1436  0.0728
40093SOL    HW122658   7.458   6.814  10.170 -0.3156 -0.0147  0.9012
40093SOL    HW222659   7.324   6.883  10.174 -0.1057  0.5490 -0.9703
40094SOL     OW22660   2.219   4.688   9.999 -0.0733 -0.9618 -0.6148
40094SOL    HW122661   2.131   4.696  10.037 -0.6192  2.2985 -2.2170
40094SOL    HW222662   2.278   4.695  10.074 -1.1514 -2.0717  0.3738
40095SOL     OW22663   7.444   4.990   2.394 -0.1582  0.2179  0.2122
40095SOL    HW122664   7.354   4.960   2.386 -0.6596  1.7624 -0.2230
40095SOL    HW222665   7.437   5.083   2.415  1.3223  0.5690 -0.6577
40096SOL     OW22666   2.439   7.380   8.144 -0.5295 -0.0015  0.3812
40096SOL    HW122667   2.522   7.375   8.098 -0.0208  3.0239  0.7216
40096SOL    HW222668   2.459   7.350   8.233  1.1815  3.6174  1.4059
40097SOL     OW22669   6.866   1.589   0.776 -0.1948 -0.2266  0.3962
40097SOL    HW122670   6.951   1.619   0.808 -0.3704 -0.1597  0.8033
40097SOL    HW222671   6.842   1.653   0.709 -0.4821  0.4473  1.1336
40098SOL     OW22672   8.456   9.298   4.889 -0.3407  0.3377 -0.1475
40098SOL    HW122673   8.421   9.264   4.807  1.3112 -0.5166 -0.5168
40098SOL    HW222674   8.453   9.393   4.878 -0.3823  0.2373 -1.0971
40099SOL     OW22675   5.362   9.556   1.962 -0.5681  0.4489  0.5660
40099SOL    HW122676   5.347   9.549   1.868 -1.4336  0.0967  0.7254
40099SOL    HW222677   5.295   9.617   1.993 -0.7788 -0.0279  1.0697
40100SOL     OW22678   0.273   2.584   5.047  0.1957 -0.1855 -0.1254
40100SOL    HW122679   0.343   2.581   5.113  0.7735 -1.7782 -0.7496
40100SOL    HW222680   0.250   2.492   5.033 -0.0894  0.1246 -1.9378
40101SOL     OW22681   8.312   9.137   2.990 -0.0538 -0.4106 -0.3098
40101SOL    HW122682   8.277   9.110   3.075  0.1552 -1.0054 -0.4076
40101SOL    HW222683   8.371   9.210   3.010  0.6056 -1.0555  0.1607
40102SOL     OW22684   4.687   9.345  10.043  0.1483  0.2236 -0.0503
40102SOL    HW122685   4.640   9.287  10.103  0.1523  1.2542  1.0000
40102SOL    HW222686   4.777   9.313  10.042 -0.1889 -0.7189 -0.7106
40103SOL     OW22687   3.266   8.752   9.140  0.4364  0.0107  0.2107
40103SOL    HW122688   3.302   8.821   9.196 -0.8303  1.9262 -1.2328
40103SOL    HW222689   3.340   8.692   9.125  1.3709  0.6176  2.0921
40104SOL     OW22690   8.572   9.661   4.558 -0.1766 -0.6705  0.1683
40104SOL    HW122691   8.535   9.710   4.484  0.5853  1.8206  1.3380
40104SOL    HW222692   8.640   9.607   4.519  0.8433  1.2853 -0.9007
40105SOL     OW22693   0.134   4.955   3.741  0.7147 -0.0209  0.2286
40105SOL    HW122694   0.049   4.975   3.703  0.2389  0.9909  1.6996
40105SOL    HW222695   0.171   5.041   3.762  1.6072 -0.4860  0.6171
40106SOL     OW22696   6.558   5.677   3.166  0.0588  0.2959  0.5165
40106SOL    HW122697   6.646   5.646   3.145 -0.3578 -1.0962  0.7248
40106SOL    HW222698   6.501   5.603   3.145 -1.2351  1.6191 -0.9007
40107SOL     OW22699   1.239   6.197   9.498 -0.2042  0.7512 -0.0444
40107SOL    HW122700   1.289   6.136   9.552 -0.6145 -1.5219 -2.0543
40107SOL    HW222701   1.289   6.279   9.502  0.3638  0.3730  2.7676
40108SOL     OW22702   7.674   3.063   1.424 -0.5403  0.2749  0.3084
40108SOL    HW122703   7.714   3.126   1.365  0.9277 -0.6742  0.2490
40108SOL    HW222704   7.656   3.113   1.504 -0.4788  1.0247 -0.1348
40109SOL     OW22705   4.451   4.737   2.476 -0.3735  0.5152 -0.0855
40109SOL    HW122706   4.531   4.740   2.424 -1.2744 -1.2028 -1.6986
40109SOL    HW222707   4.380   4.744   2.411 -1.5745  2.6910  1.3498
40110SOL     OW22708   5.217   7.283   7.865  0.5005  0.6043  0.6444
40110SOL    HW122709   5.285   7.342   7.897  1.1998 -0.4740  1.1764
40110SOL    HW222710   5.264   7.209   7.827 -0.3681  0.3260  0.0801
40111SOL     OW22711   5.701   8.585   9.994  0.0460  0.1969 -0.2541
40111SOL    HW122712   5.738   8.500   9.969  1.5025 -0.1068  2.4876
40111SOL    HW222713   5.611   8.564  10.022 -1.5701  0.5321 -4.5361
40112SOL     OW22714   0.618   4.019  10.352  0.0050  0.2080  0.1676
40112SOL    HW122715   0.542   4.070  10.324  0.5533  2.0329  1.7762
40112SOL    HW222716   0.671   4.081  10.402  0.5406 -2.0239  2.5779
40113SOL     OW22717   6.434   2.144   0.146 -0.0578 -0.2762  0.4183
40113SOL    HW122718   6.352   2.184   0.175 -1.1537 -2.3926  0.4614
40113SOL    HW222719   6.431   2.055   0.181  1.3007 -1.0744 -1.3261
40114SOL     OW22720   3.438   7.291   2.362  0.5026 -0.3551 -0.1067
40114SOL    HW122721   3.353   7.324   2.392  0.3232 -1.1190  0.2578
40114SOL    HW222722   3.451   7.211   2.413  1.0560 -0.6828 -0.7566
40115SOL     OW22723   0.206   3.305   1.368 -0.1015 -0.1856 -0.1191
40115SOL    HW122724   0.260   3.326   1.291 -0.8369  2.5025  0.0089
40115SOL    HW222725   0.116   3.317   1.338 -0.4051  0.6801  1.0732
40116SOL     OW22726   3.641   3.628   2.549  0.1252 -0.5877 -0.7090
40116SOL    HW122727   3.687   3.684   2.487  0.1729  0.9990  0.6753
40116SOL    HW222728   3.707   3.602   2.613 -0.7708  2.0735  1.5511
40117SOL     OW22729   6.225   8.506   2.928  0.0637 -0.1569  0.7340
40117SOL    HW122730   6.245   8.546   3.013  1.1356  2.2255 -0.5444
40117SOL    HW222731   6.307   8.513   2.879 -1.1673  0.7477 -1.3188
40118SOL     OW22732   0.340   3.987   8.196 -0.1633 -0.4300 -0.7785
40118SOL    HW122733   0.413   4.050   8.191 -0.4807 -0.0926 -1.2617
40118SOL    HW222734   0.350   3.946   8.281 -1.8271  2.5832  1.0405
40119SOL     OW22735   0.349   3.566   7.230  0.0868 -0.3331 -0.0416
40119SOL    HW122736   0.289   3.604   7.167  2.3712  1.8686 -1.0443
40119SOL    HW222737   0.419   3.528   7.177  1.5461  0.6649  1.0795
40120SOL     OW22738   1.861   7.393   0.954  0.3551  0.1810  0.2972
40120SOL    HW122739   1.935   7.387   0.893  0.1264  1.3575 -0.1152
40120SOL    HW222740   1.819   7.307   0.949 -0.0546  0.4600 -1.7226
40121SOL     OW22741   8.832   3.546   1.984 -0.0223  0.7405 -0.7880
40121SOL    HW122742   8.823   3.615   2.049 -0.8033 -0.5922  0.6079
40121SOL    HW222743   8.907   3.495   2.014  0.0490  0.5166 -1.3392
40122SOL     OW22744   4.722   1.827   9.068 -0.1630 -0.5374 -0.3029
40122SOL    HW122745   4.749   1.820   9.160 -1.1544 -0.1964  0.0261
40122SOL    HW222746   4.652   1.892   9.069 -1.4276 -1.8412 -1.0369
40123SOL     OW22747   3.257   2.143   3.594  0.4732  0.3295 -0.2598
40123SOL    HW122748   3.221   2.055   3.580 -0.2202  0.3950  0.9204
40123SOL    HW222749   3.336   2.128   3.646  1.1121  0.3231 -1.2132
40124SOL     OW22750   4.388   9.059   0.370 -0.1674 -0.7575 -0.0758
40124SOL    HW122751   4.470   9.012   0.360 -0.8081 -1.6891 -1.1628
40124SOL    HW222752   4.367   9.091   0.282  0.0920  1.3575  0.5712
40125SOL     OW22753   2.140   9.886   4.773  0.3048  0.3601 -0.5672
40125SOL    HW122754   2.209   9.927   4.721  1.6592 -2.0027 -0.7838
40125SOL    HW222755   2.112   9.811   4.721 -1.2857  0.3112  0.2860
40126SOL     OW22756   5.849   2.978   5.709 -0.0147  0.0820  0.2143
40126SOL    HW122757   5.785   2.968   5.639 -1.0671 -0.1025  1.1823
40126SOL    HW222758   5.880   2.889   5.726 -1.8127 -0.2877  1.8398
40127SOL     OW22759  10.403   1.008   9.049  0.0250  0.0262  0.0727
40127SOL    HW122760  10.391   0.986   9.141 -0.1842 -0.7990 -0.1474
40127SOL    HW222761  10.490   1.046   9.045  0.3299 -0.6166  0.4911
40128SOL     OW22762   4.783   7.104   9.780 -0.3938 -0.3320 -0.5156
40128SOL    HW122763   4.868   7.114   9.738  0.2930  0.1507  0.9643
40128SOL    HW222764   4.773   7.009   9.790  0.5639 -0.3478  0.4588
40129SOL     OW22765   0.081   2.004   7.475  0.8518  0.8839 -0.2020
40129SOL    HW122766   0.081   1.963   7.389  1.7662 -0.0483  0.2158
40129SOL    HW222767   0.023   2.080   7.466 -2.1248 -1.2568 -0.6134
40130SOL     OW22768  10.058   1.075   5.964 -0.1945  0.6158 -0.5535
40130SOL    HW122769  10.047   1.017   5.888  0.4244  0.3354 -0.4372
40130SOL    HW222770  10.098   1.019   6.030 -0.4262  0.9476 -0.1314
40131SOL     OW22771   3.985   4.226   9.197 -0.2980  0.0090  0.3527
40131SOL    HW122772   3.982   4.151   9.256 -3.0302  0.1593  0.5121
40131SOL    HW222773   4.016   4.189   9.114 -0.3196 -1.0116  0.7791
40132SOL     OW22774   1.447   5.293   9.700 -0.1021  0.0023 -0.3100
40132SOL    HW122775   1.510   5.348   9.747  0.1292 -0.4410 -0.0889
40132SOL    HW222776   1.366   5.301   9.749 -0.1174  0.2917 -0.3847
40133SOL     OW22777   6.161   0.313   3.884  0.0838 -0.3561  0.2700
40133SOL    HW122778   6.093   0.259   3.923 -0.0004 -2.1554 -2.1493
40133SOL    HW222779   6.243   0.271   3.912  0.0256 -3.2717 -3.2306
40134SOL     OW22780   0.412   7.848   6.136 -0.2305 -0.1028  0.0857
40134SOL    HW122781   0.499   7.814   6.111 -0.1828  0.4892 -0.5738
40134SOL    HW222782   0.351   7.784   6.100 -0.0440 -1.2756  1.7546
40135SOL     OW22783   2.933   9.675   0.484  0.4855  0.0497 -0.3027
40135SOL    HW122784   3.007   9.706   0.431  0.4276 -0.2952 -0.5927
40135SOL    HW222785   2.875   9.633   0.421 -0.5608  1.4067 -0.2581
40136SOL     OW22786   5.193   4.178   2.014  0.0722 -0.1223  0.2279
40136SOL    HW122787   5.137   4.104   2.035 -1.1585 -0.0570 -2.3988
40136SOL    HW222788   5.190   4.233   2.093 -0.8055 -1.7480  1.3995
40137SOL     OW22789   2.769   6.316   2.547 -0.7480  0.0015 -0.3387
40137SOL    HW122790   2.805   6.322   2.459 -1.2013  1.4000 -0.4438
40137SOL    HW222791   2.815   6.385   2.596 -1.7756  0.4193  0.0518
40138SOL     OW22792   3.110   0.871   5.689 -0.1723  0.0716  0.5467
40138SOL    HW122793   3.056   0.902   5.617 -1.5778 -3.3424 -0.0584
40138SOL    HW222794   3.057   0.884   5.767 -0.7107 -0.7012  0.3136
40139SOL     OW22795   1.018   8.821   3.330  0.0591  0.3660 -0.9283
40139SOL    HW122796   1.109   8.794   3.341  0.6569  1.6548 -2.3973
40139SOL    HW222797   0.980   8.812   3.417  1.5895 -0.1463 -0.2757
40140SOL     OW22798   1.068   9.708   6.575  0.2419 -0.0136  0.0238
40140SOL    HW122799   1.110   9.739   6.495 -0.4860  2.2545  0.4253
40140SOL    HW222800   1.001   9.646   6.545 -0.1139  0.8949 -1.1534
40141SOL     OW22801   9.011   5.645   3.097  0.7927 -0.1012  0.2494
40141SOL    HW122802   9.071   5.580   3.059  0.9435 -0.5360  1.1958
40141SOL    HW222803   8.925   5.602   3.095  1.0386 -0.6996  1.6809
40142SOL     OW22804   7.481   5.906   7.577 -0.2128  0.1965 -0.6720
40142SOL    HW122805   7.545   5.839   7.603 -0.7464 -0.1469 -0.2264
40142SOL    HW222806   7.534   5.983   7.558  0.3935 -0.2790 -0.9500
40143SOL     OW22807   7.972   1.935   4.279 -0.0589  0.5774  0.2948
40143SOL    HW122808   7.957   1.960   4.370  2.2278  0.1923  0.8222
40143SOL    HW222809   8.059   1.895   4.278  0.2649  1.1432 -2.1799
40144SOL     OW22810   5.576   6.294   0.856 -0.1852 -0.1094  0.0311
40144SOL    HW122811   5.562   6.338   0.940  0.5469 -0.9136  0.6070
40144SOL    HW222812   5.590   6.365   0.793 -1.1731  0.5181  0.5023
40145SOL     OW22813   4.292   6.540   2.016  0.1288  0.1503  0.5461
40145SOL    HW122814   4.256   6.558   1.929  1.0613 -0.3461  0.0440
40145SOL    HW222815   4.374   6.589   2.018  0.1324  0.1176  1.1249
40146SOL     OW22816   5.731   0.016   0.949  0.5812  0.1220 -0.3250
40146SOL    HW122817   5.668  -0.051   0.974 -0.2471  0.0277 -2.5170
40146SOL    HW222818   5.808  -0.032   0.920  1.9154  0.2347  2.6004
40147SOL     OW22819   5.452   4.381   3.999 -0.6988  0.0317  0.0680
40147SOL    HW122820   5.397   4.426   4.063 -1.2625 -0.3785 -0.1173
40147SOL    HW222821   5.458   4.443   3.926 -2.2102 -0.5161 -0.5609
40148SOL     OW22822   1.118   4.011   7.891 -0.2118 -0.9056 -0.1729
40148SOL    HW122823   1.148   4.102   7.892 -2.8238  0.0334  1.7561
40148SOL    HW222824   1.179   3.966   7.949 -0.7100  0.3167  1.3551
40149SOL     OW22825  10.784   9.278   2.706  0.3057  0.1052  0.4834
40149SOL    HW122826  10.801   9.193   2.665  0.8002 -0.2420  1.3620
40149SOL    HW222827  10.689   9.284   2.710  0.2217  0.3779 -1.1336
40150SOL     OW22828   6.479   8.333   7.294  0.2213 -0.6451  0.2332
40150SOL    HW122829   6.410   8.298   7.350  1.1868 -2.5820  0.3121
40150SOL    HW222830   6.434   8.363   7.215 -1.1003  1.5785  1.7013
40151SOL     OW22831   5.619   0.672   3.581 -0.3343  0.1191  0.1815
40151SOL    HW122832   5.542   0.621   3.605  0.3702 -0.1478  2.0372
40151SOL    HW222833   5.693   0.613   3.598  0.2989  0.1880 -2.0533
40152SOL     OW22834   5.152   2.124   0.497 -0.0921 -0.3041 -0.5048
40152SOL    HW122835   5.071   2.125   0.446 -1.3589 -1.6867  1.3457
40152SOL    HW222836   5.187   2.212   0.487 -1.7030  0.2705 -1.5481
40153SOL     OW22837   4.953   6.852   9.795  0.1143 -0.1115 -0.5863
40153SOL    HW122838   5.016   6.924   9.804 -0.4156  0.5265 -1.8050
40153SOL    HW222839   4.966   6.820   9.705 -1.1423 -0.1153 -0.7841
40154SOL     OW22840   2.920   9.562   2.176  0.1063  0.3437 -0.4908
40154SOL    HW122841   2.924   9.625   2.248  0.1459  0.4459 -0.5832
40154SOL    HW222842   2.975   9.489   2.205  1.0244  0.8578 -0.8787
40155SOL     OW22843   1.050   1.033  10.257 -0.1300  0.6080 -0.2999
40155SOL    HW122844   0.997   0.976  10.201  1.4907 -1.3925  0.0907
40155SOL    HW222845   0.997   1.113  10.267 -1.7868 -0.1741 -2.1664
40156SOL     OW22846   0.293   0.303   4.601 -0.3501  1.0262  0.0879
40156SOL    HW122847   0.281   0.208   4.610 -0.6276  1.1745  1.6506
40156SOL    HW222848   0.264   0.323   4.512 -1.4721 -0.1807  0.1578
40157SOL     OW22849   5.368   7.640   8.250  0.1941  0.1449  0.0062
40157SOL    HW122850   5.288   7.596   8.221  1.0827 -1.8273  0.3941
40157SOL    HW222851   5.340   7.729   8.271 -1.9562 -0.5896  0.4901
40158SOL     OW22852  10.671   7.062   3.576  0.1865 -0.4943  0.0957
40158SOL    HW122853  10.643   7.003   3.645 -0.4971 -0.5829 -0.2490
40158SOL    HW222854  10.692   7.004   3.502  0.1948 -0.3516 -0.0144
40159SOL     OW22855   8.174  10.162   3.057 -0.6136 -0.3807  0.8278
40159SOL    HW122856   8.232  10.178   3.132  0.7090 -0.8735 -0.0531
40159SOL    HW222857   8.156  10.069   3.060  0.4244 -0.6363 -0.1167
40160SOL     OW22858   7.927  10.525   7.312 -0.3420  0.2832  0.7316
40160SOL    HW122859   7.976  10.504   7.391  0.2067  0.5879  0.4731
40160SOL    HW222860   7.924  10.443   7.263 -0.7308  0.0803  1.0894
40161SOL     OW22861   7.383   8.348   5.088 -0.0578  0.1801  0.1765
40161SOL    HW122862   7.414   8.424   5.137  0.5020  0.7890 -1.0724
40161SOL    HW222863   7.459   8.290   5.082 -0.1068  0.1308 -0.0030
40162SOL     OW22864   2.155   3.275   1.434  0.3132  0.0713  0.2672
40162SOL    HW122865   2.070   3.311   1.460  0.0692 -0.3441  0.0494
40162SOL    HW222866   2.158   3.288   1.339  1.2975  1.7877  0.4961
40163SOL     OW22867   4.841   0.129   2.079  0.1450  0.5409 -0.8672
40163SOL    HW122868   4.881   0.212   2.106 -1.4791  0.7575  1.0119
40163SOL    HW222869   4.835   0.136   1.983  1.9276  1.6776 -0.9461
40164SOL     OW22870   4.827   0.255   3.997 -0.1007  0.3985 -0.0201
40164SOL    HW122871   4.802   0.263   3.905 -0.0059 -1.8969 -0.3133
40164SOL    HW222872   4.916   0.221   3.995 -0.1867  0.0796  0.9187
40165SOL     OW22873  10.478   8.583   3.512 -0.6562  0.2643  0.5425
40165SOL    HW122874  10.571   8.563   3.502 -1.0385 -2.3460  1.5218
40165SOL    HW222875  10.438   8.555   3.430 -0.9456 -1.5718  1.2589
40166SOL     OW22876  10.051   2.844   3.292 -0.3924 -0.0798 -0.5016
40166SOL    HW122877  10.038   2.849   3.386  0.6866  1.0506 -0.3896
40166SOL    HW222878   9.967   2.815   3.257 -0.1412 -2.9029  0.9823
40167SOL     OW22879   9.323   0.602   2.473 -1.0434  0.6003  0.7139
40167SOL    HW122880   9.255   0.536   2.487  0.1889 -0.7096  0.6959
40167SOL    HW222881   9.399   0.570   2.521  0.9474 -0.2373 -2.6353
40168SOL     OW22882  10.684   5.057   8.239 -0.8330  1.0542  0.3965
40168SOL    HW122883  10.666   4.975   8.284 -0.6026  1.3641  1.0603
40168SOL    HW222884  10.758   5.037   8.182 -0.8561  0.7767  0.4610
40169SOL     OW22885   3.192   8.285   2.566 -0.1612 -0.6900  0.1856
40169SOL    HW122886   3.233   8.227   2.630 -1.4182  0.5113  2.2054
40169SOL    HW222887   3.099   8.263   2.570 -0.5922  1.0184  0.6227
40170SOL     OW22888   2.763   8.872   6.674 -0.0005 -0.5996 -0.0608
40170SOL    HW122889   2.703   8.936   6.635 -0.5013 -1.3440 -0.5563
40170SOL    HW222890   2.822   8.924   6.728 -1.4608  0.1100  0.9109
40171SOL     OW22891   1.874   1.079  10.463 -0.1069  0.3367 -0.4243
40171SOL    HW122892   1.816   1.031  10.403 -0.3937 -2.1182  1.6510
40171SOL    HW222893   1.821   1.092  10.541  1.2837  0.5695  0.5051
40172SOL     OW22894   3.133   3.987   4.347 -0.1367  0.2461 -0.1355
40172SOL    HW122895   3.140   4.025   4.260 -1.8536 -2.0065 -1.3615
40172SOL    HW222896   3.039   3.973   4.361  0.1729 -0.4694  1.5982
40173SOL     OW22897   0.299   7.163   1.722  0.2248 -0.3754 -0.1105
40173SOL    HW122898   0.240   7.090   1.702 -0.6792  0.1925  0.4134
40173SOL    HW222899   0.351   7.173   1.642 -0.7327 -0.5725 -0.7820
40174SOL     OW22900   7.279   0.366   5.534  0.0277 -0.2651 -0.2475
40174SOL    HW122901   7.247   0.447   5.573  0.4076 -0.5748  0.7486
40174SOL    HW222902   7.201   0.317   5.511 -0.2067  0.3838 -0.8825
40175SOL     OW22903   5.545   4.866   0.726  0.0886 -0.6883  0.1594
40175SOL    HW122904   5.545   4.951   0.770  1.4375 -0.4559 -0.2557
40175SOL    HW222905   5.605   4.877   0.652 -2.1341 -1.0416 -1.8263
40176SOL     OW22906   6.592   5.020   8.820 -0.3751 -0.2398 -0.7916
40176SOL    HW122907   6.625   5.080   8.886 -1.9260  0.2857 -0.4532
40176SOL    HW222908   6.646   4.942   8.829  0.2387  0.2905  0.2634
40177SOL     OW22909  10.692   5.931   0.878 -0.1044 -0.2873 -1.0951
40177SOL    HW122910  10.642   5.850   0.865  0.0290 -0.4646 -0.5354
40177SOL    HW222911  10.644   5.997   0.827 -0.8666 -0.4701 -0.6336
40178SOL     OW22912   6.935   9.010   4.853  0.0688  0.1854 -0.1107
40178SOL    HW122913   6.989   9.088   4.839 -2.8839  2.4863  0.2192
40178SOL    HW222914   6.951   8.986   4.944  2.1488 -0.6145 -0.6394
40179SOL     OW22915   1.354   3.629   7.478 -0.0516  0.7628 -0.1115
40179SOL    HW122916   1.367   3.609   7.385 -0.0564 -0.4993  0.1414
40179SOL    HW222917   1.315   3.550   7.515  0.0762  1.1948  1.0018
40180SOL     OW22918   4.639   6.732   6.074  0.3367  0.1604 -0.5934
40180SOL    HW122919   4.666   6.818   6.043  0.2205  0.5164  0.2722
40180SOL    HW222920   4.566   6.750   6.133 -0.8718 -0.6672 -1.7673
40181SOL     OW22921  10.787   6.374   6.683  0.1073  0.1377  0.0985
40181SOL    HW122922  10.767   6.332   6.600 -0.7516  1.0865 -0.1926
40181SOL    HW222923  10.882   6.384   6.683  0.1357 -0.1014 -0.6473
40182SOL     OW22924   5.934   5.835   1.898 -0.6976 -0.1807 -0.4212
40182SOL    HW122925   5.995   5.908   1.909  0.1277 -0.9140 -0.0320
40182SOL    HW222926   5.989   5.757   1.893 -1.5018 -0.7141 -1.7156
40183SOL     OW22927   6.348   6.879   6.827 -0.0950 -0.3938  0.3317
40183SOL    HW122928   6.271   6.824   6.813 -0.1594 -0.1380 -0.3435
40183SOL    HW222929   6.399   6.832   6.894 -1.0120 -0.3626  1.0639
40184SOL     OW22930   9.294   6.079   6.576  0.3476 -0.3764  0.1648
40184SOL    HW122931   9.361   6.145   6.597  1.2371 -1.1205 -0.2663
40184SOL    HW222932   9.296   6.073   6.481 -0.7490  0.0019  0.1132
40185SOL     OW22933   4.825   0.704   6.986 -0.1797  0.2882 -0.4460
40185SOL    HW122934   4.792   0.650   6.914  1.2375 -0.1315 -0.8169
40185SOL    HW222935   4.799   0.656   7.065  0.6717 -0.7349 -0.7640
40186SOL     OW22936   9.536   8.750   1.929 -0.2875 -0.1832 -0.0007
40186SOL    HW122937   9.624   8.739   1.965  0.8619  0.8523 -2.2923
40186SOL    HW222938   9.538   8.706   1.844 -2.7690 -2.1779  0.8517
40187SOL     OW22939   0.843   0.691  10.104 -0.1381 -0.2973  0.0120
40187SOL    HW122940   0.911   0.624  10.106  0.6560  0.4978  0.9379
40187SOL    HW222941   0.772   0.654  10.156  0.9191  0.1590  1.8798
40188SOL     OW22942   0.720   0.615   9.508 -0.7183 -0.2014  0.1876
40188SOL    HW122943   0.794   0.611   9.569 -0.2170  0.5523 -0.3496
40188SOL    HW222944   0.646   0.579   9.557  0.0260 -1.0781  0.6935
40189SOL     OW22945   1.101   3.826   0.088  0.6583 -0.2419 -0.5714
40189SOL    HW122946   1.157   3.751   0.068  2.7228  0.4123  2.1220
40189SOL    HW222947   1.143   3.900   0.045  1.3370  0.0835  0.6108
40190SOL     OW22948   4.102  10.216   1.981 -0.2889  0.2932 -0.5881
40190SOL    HW122949   4.075  10.184   1.895  0.6646  0.7941 -1.0911
40190SOL    HW222950   4.185  10.262   1.965  0.5099 -0.5984  0.7853
40191SOL     OW22951  10.210   4.261   2.897 -0.1735  0.1623  0.1131
40191SOL    HW122952  10.228   4.213   2.817  0.5658  0.3818  0.1427
40191SOL    HW222953  10.165   4.341   2.869 -1.6683 -0.6603  0.0876
40192SOL     OW22954   9.836   7.317   0.226  0.1171 -0.3345 -0.8509
40192SOL    HW122955   9.879   7.346   0.307  0.2324 -1.1219 -0.6206
40192SOL    HW222956   9.908   7.303   0.165 -0.0322  1.2115 -1.4264
40193SOL     OW22957   8.902   7.339   1.546 -0.2344  0.2333 -0.3460
40193SOL    HW122958   8.819   7.379   1.521 -0.2867 -0.2042 -0.8835
40193SOL    HW222959   8.892   7.246   1.525  0.6464  0.2888 -1.1072
40194SOL     OW22960   2.998   4.966   4.101 -0.3144 -0.4132  0.3863
40194SOL    HW122961   2.998   4.923   4.187  0.6505  0.0501  0.6397
40194SOL    HW222962   3.088   4.957   4.070 -0.3575  0.4573 -0.0339
40195SOL     OW22963   1.193   7.027   3.218 -0.0299  0.1531 -0.3204
40195SOL    HW122964   1.172   7.098   3.157  0.6672 -0.0752 -0.8450
40195SOL    HW222965   1.226   7.071   3.296 -0.7846  0.4447 -0.1645
40196SOL     OW22966   5.747   7.708   9.791 -0.4404  0.1770 -0.5466
40196SOL    HW122967   5.684   7.671   9.729 -1.7355 -0.3770  1.0454
40196SOL    HW222968   5.765   7.636   9.852  0.2090  0.9378  0.1840
40197SOL     OW22969   9.693   3.233   0.287 -0.0725 -0.1781  0.2405
40197SOL    HW122970   9.738   3.161   0.333  1.5337 -0.9923 -2.3996
40197SOL    HW222971   9.608   3.197   0.264  0.0640 -0.6330  0.4280
40198SOL     OW22972   4.546   2.026   8.011  0.1154  0.2908 -0.2556
40198SOL    HW122973   4.488   1.971   7.957  0.3509  0.1837 -0.4020
40198SOL    HW222974   4.595   1.964   8.065  0.1307  0.3781 -0.1686
40199SOL     OW22975   0.077   0.353   7.488 -0.1976  0.2757 -0.4687
40199SOL    HW122976   0.138   0.349   7.561 -0.5630  0.4548 -0.1541
40199SOL    HW222977   0.112   0.423   7.432 -0.0885  0.3414 -0.3175
40200SOL     OW22978   0.538   7.689   0.501  0.5865 -0.3171  0.2809
40200SOL    HW122979   0.502   7.778   0.498 -0.6262 -0.6259  2.8094
40200SOL    HW222980   0.607   7.689   0.435  0.9477  2.6537  0.5130
40201SOL     OW22981   3.793   4.161  10.169  0.4986  0.5517  0.1009
40201SOL    HW122982   3.805   4.116  10.085 -0.2518  0.3213  0.1126
40201SOL    HW222983   3.882   4.169  10.204  0.8103  0.5269 -0.6482
40202SOL     OW22984   3.917  10.377   7.621  0.1076 -0.5049 -0.4349
40202SOL    HW122985   3.939  10.454   7.569 -0.1272 -0.2121 -0.1049
40202SOL    HW222986   3.948  10.303   7.569  0.1056 -0.2026 -0.8687
40203SOL     OW22987   8.981   5.810   5.351  0.7181  0.2035  0.0549
40203SOL    HW122988   8.984   5.859   5.433 -0.7152  2.3279 -1.0574
40203SOL    HW222989   9.068   5.819   5.314  1.4402 -0.9377  1.3714
40204SOL     OW22990   7.721   6.453   4.885 -0.2116 -0.5118  1.0720
40204SOL    HW122991   7.817   6.456   4.883 -0.2195 -0.2393  1.0729
40204SOL    HW222992   7.699   6.470   4.976 -0.2384 -1.2995  1.2193
40205SOL     OW22993   6.149   8.273   7.103 -0.4352 -0.1908  0.5273
40205SOL    HW122994   6.076   8.335   7.099  0.2295  0.6290  0.8801
40205SOL    HW222995   6.208   8.300   7.033 -1.3547 -2.0480 -1.0590
40206SOL     OW22996   3.440   2.980   3.754  0.2382  0.5219 -0.5488
40206SOL    HW122997   3.371   3.046   3.756  0.4852  1.1364 -4.4582
40206SOL    HW222998   3.522   3.030   3.755  0.6854 -0.1105  1.9052
40207SOL     OW22999   8.618   5.239   2.811  0.1601 -0.4629  0.9942
40207SOL    HW123000   8.683   5.291   2.858  0.0440  0.1997  0.4356
40207SOL    HW223001   8.554   5.304   2.779  0.2264 -0.8948 -0.0562
40208SOL     OW23002   4.591   2.571   4.997  0.5829  0.1697  0.2476
40208SOL    HW123003   4.641   2.504   4.950  0.7392  0.2182  0.3425
40208SOL    HW223004   4.500   2.549   4.981  0.6261 -0.4617  0.8334
40209SOL     OW23005   0.391   2.120   1.512  0.3805 -0.0385  0.0064
40209SOL    HW123006   0.399   2.141   1.605  0.4318 -0.6255  0.1342
40209SOL    HW223007   0.381   2.025   1.509 -0.7451  0.0829 -0.5203
40210SOL     OW23008   9.692   7.546   0.155 -0.4756  0.5001 -0.1882
40210SOL    HW123009   9.613   7.495   0.140 -1.3215  1.1715  1.6936
40210SOL    HW223010   9.757   7.482   0.183 -0.9249  0.1732  0.1175
40211SOL     OW23011   3.292   7.869   2.888  0.1956 -0.2217 -0.1427
40211SOL    HW123012   3.282   7.807   2.961  0.4689  0.8195  0.8067
40211SOL    HW223013   3.206   7.872   2.847 -1.0559  1.8133  2.3292
40212SOL     OW23014   1.998  10.387   2.000  0.3868  0.7561 -0.4654
40212SOL    HW123015   2.071  10.422   2.051  0.3510  0.7183 -0.3889
40212SOL    HW223016   1.978  10.303   2.042  0.5068  0.6184 -0.6801
40213SOL     OW23017  10.668   7.932   3.087 -0.1536 -0.0682  0.2384
40213SOL    HW123018  10.699   7.855   3.039 -1.7570  0.3798 -1.6523
40213SOL    HW223019  10.667   8.002   3.022 -2.4294  0.5678  0.8637
40214SOL     OW23020   8.159   3.369   7.042  0.3411 -0.5378  0.0089
40214SOL    HW123021   8.134   3.278   7.031 -0.3667 -0.3129 -0.3095
40214SOL    HW223022   8.121   3.414   6.966  1.5080 -0.1370 -0.3486
40215SOL     OW23023   0.281   3.715   3.624  0.2492  0.2709 -0.1173
40215SOL    HW123024   0.366   3.748   3.594  0.8541  0.0949  1.3052
40215SOL    HW223025   0.269   3.755   3.710 -0.6231 -0.5218  0.1436
40216SOL     OW23026   3.658   3.008   3.001 -0.2497 -0.3331  0.1014
40216SOL    HW123027   3.666   2.997   2.906  1.3106  0.3840  0.1235
40216SOL    HW223028   3.682   2.922   3.037  3.3237  0.4636 -0.0475
40217SOL     OW23029   9.503  10.524   3.566  0.3958 -0.4130 -0.6022
40217SOL    HW123030   9.485  10.453   3.504 -1.3944  0.5117 -1.1908
40217SOL    HW223031   9.436  10.516   3.633  0.8901  0.0298 -0.0385
40218SOL     OW23032   6.964   0.057   8.058 -0.0722  0.1957  0.1134
40218SOL    HW123033   7.031   0.035   7.993  0.9345  1.6637  0.5853
40218SOL    HW223034   7.006   0.041   8.142 -0.2503  1.2347  0.4156
40219SOL     OW23035   8.801   0.504   2.845  0.5420 -0.1225 -0.4637
40219SOL    HW123036   8.769   0.548   2.923  0.7979  0.8539 -0.9002
40219SOL    HW223037   8.844   0.425   2.878 -1.1929 -0.8399  0.2272
40220SOL     OW23038   1.058   3.314   7.311 -0.0334  0.1727 -0.2620
40220SOL    HW123039   1.015   3.229   7.315 -2.7627  1.3324 -1.9471
40220SOL    HW223040   1.073   3.330   7.218 -1.4365  2.3321 -0.1853
40221SOL     OW23041   9.678   5.735   8.780 -0.6746  0.3685  0.0013
40221SOL    HW123042   9.611   5.745   8.848  0.5899  3.6510  0.9693
40221SOL    HW223043   9.639   5.775   8.702  0.0581  2.2824  0.5657
40222SOL     OW23044   7.634   6.870   9.036 -0.6972 -0.3686 -0.3577
40222SOL    HW123045   7.686   6.861   9.116  1.6775  0.3477 -1.7104
40222SOL    HW223046   7.588   6.787   9.027 -0.9114 -0.5117  1.6376
40223SOL     OW23047  10.389   1.196   3.221 -0.5764  0.0172  0.1867
40223SOL    HW123048  10.400   1.157   3.134  1.7038  1.0020 -0.0633
40223SOL    HW223049  10.372   1.122   3.279  2.0103 -1.2701 -0.5065
40224SOL     OW23050   7.837   6.050   7.750  0.1415 -0.2553 -0.3881
40224SOL    HW123051   7.814   6.116   7.685 -0.0423 -0.9362 -1.0166
40224SOL    HW223052   7.866   5.974   7.699  2.8204  0.1704  0.3021
40225SOL     OW23053   0.715   7.465   7.517 -0.6239  0.1250 -0.5347
40225SOL    HW123054   0.671   7.542   7.480  1.5679  2.3979  1.3184
40225SOL    HW223055   0.691   7.466   7.610 -0.6149 -1.5332 -0.4828
40226SOL     OW23056  10.158   8.113   7.369  0.4159  0.7645 -0.3270
40226SOL    HW123057  10.098   8.183   7.342  0.2625  0.6469 -0.2923
40226SOL    HW223058  10.104   8.054   7.421 -0.3323 -1.1662 -3.0604
40227SOL     OW23059   2.098   3.189   7.858  0.1150 -0.0751  0.5537
40227SOL    HW123060   2.169   3.247   7.883  0.6413 -0.5554  0.1966
40227SOL    HW223061   2.028   3.247   7.828  2.1335  0.3853 -4.0625
40228SOL     OW23062   4.786   0.822   6.531 -0.3568  0.0891 -0.5158
40228SOL    HW123063   4.816   0.818   6.440  1.0806  2.0201 -0.1805
40228SOL    HW223064   4.832   0.750   6.575  1.3211  0.9951 -0.7179
40229SOL     OW23065   7.622   8.316   5.910  0.1047 -1.2244 -0.0202
40229SOL    HW123066   7.633   8.221   5.907 -0.4406 -1.4093  2.0276
40229SOL    HW223067   7.562   8.331   5.983 -1.9182  0.5590 -1.8777
40230SOL     OW23068   8.463   0.198   6.899 -0.2591 -0.4308 -1.0530
40230SOL    HW123069   8.394   0.262   6.916  1.5573  1.6938 -1.1233
40230SOL    HW223070   8.462   0.186   6.804 -0.5629 -0.4813 -1.0452
40231SOL     OW23071  10.268   9.911   7.440  0.9290 -0.2788 -0.2221
40231SOL    HW123072  10.209   9.853   7.392  0.7913 -0.7349  0.4814
40231SOL    HW223073  10.308   9.966   7.373 -1.4607  1.1400 -0.5830
40232SOL     OW23074   2.233   8.248   1.084  0.2630 -0.5786 -0.2506
40232SOL    HW123075   2.207   8.327   1.131  0.3909 -0.8219  0.2311
40232SOL    HW223076   2.233   8.179   1.150  1.1422 -0.7843 -0.4461
40233SOL     OW23077   1.017   7.731   8.019 -0.2028  0.4083 -0.6643
40233SOL    HW123078   1.052   7.655   7.973 -1.0253 -0.4488  0.0991
40233SOL    HW223079   1.094   7.772   8.060  0.1600 -0.3601 -0.5680
40234SOL     OW23080   7.337   2.844   1.822  0.1874 -0.1148 -0.1447
40234SOL    HW123081   7.323   2.861   1.915  0.0547  0.1934 -0.2186
40234SOL    HW223082   7.413   2.786   1.820  1.6079  1.6324  0.0713
40235SOL     OW23083   2.769   8.579   0.432  0.7454  0.5069  0.2552
40235SOL    HW123084   2.842   8.584   0.370 -0.6927 -0.9277 -1.6569
40235SOL    HW223085   2.736   8.669   0.437  0.7390  0.6216 -1.3025
40236SOL     OW23086   1.569   0.186   2.683  0.1739 -0.4416 -0.2658
40236SOL    HW123087   1.620   0.195   2.602  1.4558  0.2033  0.5737
40236SOL    HW223088   1.590   0.265   2.733 -0.5976 -0.8313  0.6957
40237SOL     OW23089   4.539   3.167   2.998 -0.2679  0.6524 -0.0744
40237SOL    HW123090   4.531   3.093   2.938 -0.5889  0.0628  0.6883
40237SOL    HW223091   4.477   3.232   2.964 -0.0618  0.5377 -0.6809
40238SOL     OW23092   1.864   4.585  10.371  0.1122 -0.1448  0.3389
40238SOL    HW123093   1.769   4.574  10.371  0.3620 -3.1247 -0.3240
40238SOL    HW223094   1.896   4.523  10.437  1.6233  0.6612  0.4079
40239SOL     OW23095   3.862   1.890   5.994 -0.3022  0.1777 -0.4466
40239SOL    HW123096   3.936   1.901   5.935 -1.0919 -0.5982 -1.6180
40239SOL    HW223097   3.826   1.978   6.003  0.4805  0.4837 -0.2304
40240SOL     OW23098  10.545   4.877   5.531 -0.1085 -0.4444 -0.0777
40240SOL    HW123099  10.515   4.792   5.564  0.1597 -0.7511 -0.5983
40240SOL    HW223100  10.639   4.877   5.549  0.2469 -1.0713 -1.7534
40241SOL     OW23101   5.447   6.371   1.568  0.3815  0.4864 -0.2691
40241SOL    HW123102   5.368   6.352   1.517 -0.1531  3.2538 -0.5860
40241SOL    HW223103   5.472   6.286   1.604 -2.1412 -0.6649 -0.9871
40242SOL     OW23104   7.695   3.925  10.431 -0.0829 -0.1157  0.4654
40242SOL    HW123105   7.758   3.867  10.474 -0.6176 -0.8540  0.2726
40242SOL    HW223106   7.624   3.936  10.495 -0.3061 -0.2323  0.2401
40243SOL     OW23107   7.262   3.140   3.733 -0.4841 -0.2049 -0.0341
40243SOL    HW123108   7.281   3.046   3.737 -0.6123 -0.2787 -0.9800
40243SOL    HW223109   7.185   3.151   3.788  0.5858 -0.3474  1.5907
40244SOL     OW23110   9.687   8.277   6.315  0.1398  0.5026 -0.2627
40244SOL    HW123111   9.617   8.215   6.336  0.5037  0.6430  1.4278
40244SOL    HW223112   9.765   8.224   6.307  0.5219  0.7568  1.5522
40245SOL     OW23113   1.400   8.695   3.098  0.3297  0.0996 -0.0050
40245SOL    HW123114   1.454   8.621   3.069  0.3044 -0.1930  0.6777
40245SOL    HW223115   1.461   8.769   3.102 -0.0288  0.6320 -2.6078
40246SOL     OW23116   8.239   4.470   5.195 -0.4723 -0.1949  0.7390
40246SOL    HW123117   8.212   4.560   5.178 -1.3195 -0.5482  0.1291
40246SOL    HW223118   8.284   4.443   5.114 -1.0064 -0.6023  0.5725
40247SOL     OW23119   4.030   3.784  10.116  0.5327  0.0390  0.2073
40247SOL    HW123120   3.967   3.748  10.179  0.8374 -0.2127  0.3666
40247SOL    HW223121   4.062   3.708  10.067 -0.2719  0.3121 -0.7872
40248SOL     OW23122   1.661   5.401  10.761  0.4668 -0.1955  0.3945
40248SOL    HW123123   1.624   5.383  10.674 -1.7298  1.4168  0.9035
40248SOL    HW223124   1.629   5.330  10.816 -2.1979  1.2335  0.8538
40249SOL     OW23125   3.907   7.725  10.646  0.1922  0.1223  0.2323
40249SOL    HW123126   3.857   7.672  10.584  0.4991 -0.7454  0.7097
40249SOL    HW223127   3.899   7.814  10.614 -0.2427 -0.2301 -0.6540
40250SOL     OW23128   8.554   0.343   8.903 -0.1763  0.4864  0.2570
40250SOL    HW123129   8.596   0.290   8.836  0.5617 -0.6419  1.5639
40250SOL    HW223130   8.469   0.302   8.917 -0.1065  0.3866  0.3908
40251SOL     OW23131   4.754   3.866   1.874 -0.4582 -0.1261 -0.1756
40251SOL    HW123132   4.742   3.909   1.789 -0.0313  1.7666  0.6808
40251SOL    HW223133   4.835   3.816   1.864  0.5458  1.4887 -0.3535
40252SOL     OW23134   6.718   3.262   9.151 -0.1064 -0.2737 -0.5912
40252SOL    HW123135   6.642   3.254   9.094 -1.4875  0.2968  1.0766
40252SOL    HW223136   6.692   3.218   9.232  0.4741  1.8027  0.8019
40253SOL     OW23137  10.375   4.055   4.193 -0.4037  0.3285 -0.0324
40253SOL    HW123138  10.336   4.132   4.152 -0.0427 -0.2903 -1.6086
40253SOL    HW223139  10.465   4.080   4.212 -0.2960  0.3170 -0.5130
40254SOL     OW23140   7.284   4.539   7.169 -0.3274 -0.4570  0.1663
40254SOL    HW123141   7.274   4.454   7.126 -3.1371 -1.5987  2.7478
40254SOL    HW223142   7.228   4.598   7.119 -1.2477 -1.0489  0.4782
40255SOL     OW23143   0.998   5.681   5.652  0.2642  0.0259  0.2457
40255SOL    HW123144   0.946   5.748   5.609  0.3995  0.6050  0.9625
40255SOL    HW223145   0.957   5.598   5.625 -0.0383  0.3972 -0.4657
40256SOL     OW23146   2.010   3.642   1.955  0.4196  0.3962  0.2734
40256SOL    HW123147   2.071   3.669   1.886  1.4560  1.5914  1.5929
40256SOL    HW223148   1.961   3.721   1.977 -0.5675 -0.1991  0.2839
40257SOL     OW23149   9.318   1.037   0.020 -0.2196  0.1287  0.0892
40257SOL    HW123150   9.295   1.122  -0.017  1.1538  0.2632 -0.5208
40257SOL    HW223151   9.268   1.032   0.102 -3.1983 -0.0802 -1.6019
40258SOL     OW23152   2.380   0.078   8.696  0.4034  0.2682 -1.2143
40258SOL    HW123153   2.309   0.028   8.657  0.3641 -0.9880  0.3860
40258SOL    HW223154   2.348   0.103   8.782  1.6315  0.2626 -0.7263
40259SOL     OW23155   9.753   8.001   9.467  0.2213  0.3465  0.3817
40259SOL    HW123156   9.715   7.914   9.461 -0.1632  0.6061 -1.3359
40259SOL    HW223157   9.682   8.060   9.441  1.0056  1.0222 -0.2805
40260SOL     OW23158   1.529  10.323   1.854 -0.3784  0.0382 -0.6605
40260SOL    HW123159   1.608  10.276   1.880 -1.6133 -2.5904 -1.3706
40260SOL    HW223160   1.472  10.319   1.931  0.3427  2.5164  0.0870
40261SOL     OW23161   3.744   3.109   0.211  0.3604  0.1535  0.3138
40261SOL    HW123162   3.751   3.030   0.157  2.7436  0.8718 -0.5566
40261SOL    HW223163   3.814   3.101   0.275  1.8674  2.3226 -0.9250
40262SOL     OW23164   1.154   4.939  10.297 -0.4223  0.1379 -0.7360
40262SOL    HW123165   1.148   4.975  10.208 -3.5540 -0.9746 -1.0959
40262SOL    HW223166   1.174   4.846  10.283 -0.0500  0.1389 -0.2260
40263SOL     OW23167   4.172   0.276  10.130 -0.1076  0.9801  0.3025
40263SOL    HW123168   4.254   0.325  10.119  0.6831 -0.4880 -0.6082
40263SOL    HW223169   4.104   0.339  10.109  0.8972  1.5226 -1.5395
40264SOL     OW23170  10.178   7.622   2.483  0.2854 -0.5311 -0.0054
40264SOL    HW123171  10.242   7.594   2.549 -0.2284 -2.2420 -0.1842
40264SOL    HW223172  10.164   7.544   2.429 -2.3982 -0.3848  0.3804
40265SOL     OW23173   8.177   4.318   1.807  0.0766  0.1040 -0.2587
40265SOL    HW123174   8.251   4.324   1.746  2.0753 -0.1069  2.0046
40265SOL    HW223175   8.166   4.407   1.841 -0.3603  0.0206 -0.1739
40266SOL     OW23176   2.409   1.008   0.502 -0.8710 -0.0215 -0.6778
40266SOL    HW123177   2.496   0.986   0.470 -0.5870  0.9054 -0.5724
40266SOL    HW223178   2.393   1.096   0.468 -1.0322  0.5325  0.7731
40267SOL     OW23179   6.279   5.843   6.301 -0.4680  0.1570 -0.5291
40267SOL    HW123180   6.228   5.923   6.313 -0.6334  0.3763 -2.3580
40267SOL    HW223181   6.217   5.772   6.318  0.1576  0.2978  3.0580
40268SOL     OW23182   5.149   1.012  10.125 -0.0798 -0.0471  0.6847
40268SOL    HW123183   5.055   0.993  10.124 -0.3515  1.0701  1.8359
40268SOL    HW223184   5.171   1.016  10.218  1.2485 -0.8663  0.4350
40269SOL     OW23185  10.064   6.541   8.640 -0.3378  0.7040 -0.1618
40269SOL    HW123186  10.045   6.597   8.714 -0.7286 -0.4189  0.6207
40269SOL    HW223187  10.064   6.599   8.564 -0.6309  1.7533  0.6291
40270SOL     OW23188   3.196  10.266  10.708  0.4231 -0.4171 -0.0946
40270SOL    HW123189   3.283  10.253  10.668  0.5592  0.5323 -0.1266
40270SOL    HW223190   3.202  10.221  10.792  1.3859  0.7062  0.4646
40271SOL     OW23191  10.149   2.419   4.275  0.1169 -0.1902  0.1877
40271SOL    HW123192  10.110   2.344   4.228 -3.0292  1.0635  0.5381
40271SOL    HW223193  10.166   2.484   4.207  0.7344 -0.3723  0.1608
40272SOL     OW23194   2.869   4.115   8.457  0.2672  0.0893 -0.0894
40272SOL    HW123195   2.781   4.134   8.489  0.0125  0.8686 -1.1726
40272SOL    HW223196   2.909   4.202   8.443  0.7909 -0.2357 -0.6799
40273SOL     OW23197   3.454   8.988  10.120 -0.0659  0.3467  0.0065
40273SOL    HW123198   3.366   8.979  10.157 -0.4723 -1.0790 -1.2118
40273SOL    HW223199   3.512   8.946  10.184 -0.3642  0.6103  0.4496
40274SOL     OW23200   7.836   7.835  10.279  0.0384  0.4913  0.3174
40274SOL    HW123201   7.897   7.819  10.351  0.1675 -0.1790  0.0733
40274SOL    HW223202   7.837   7.753  10.229 -2.0090  0.0172  0.9848
40275SOL     OW23203   6.229   3.938   1.872 -0.3338  0.1665  0.3110
40275SOL    HW123204   6.156   3.953   1.812  0.4052 -0.3860 -0.7764
40275SOL    HW223205   6.306   3.964   1.822  0.3063 -0.3517  1.0093
40276SOL     OW23206   8.396  10.363   0.288 -0.5410  0.1922  0.2370
40276SOL    HW123207   8.304  10.361   0.260 -0.3524  0.8911 -0.4522
40276SOL    HW223208   8.413  10.455   0.309 -0.3524 -0.1267  1.6238
40277SOL     OW23209   7.759   5.127   6.269  0.3848  0.2439 -0.3901
40277SOL    HW123210   7.741   5.140   6.176 -1.5328 -0.4298 -0.1688
40277SOL    HW223211   7.721   5.204   6.311  0.3564  0.0739 -0.1024
40278SOL     OW23212   9.009   3.330   0.620 -0.1247  0.9473 -0.1261
40278SOL    HW123213   9.069   3.328   0.546  0.1940 -0.7888  0.1386
40278SOL    HW223214   8.974   3.241   0.625  0.5125  0.7457  2.3048
40279SOL     OW23215   5.241   8.030   1.815 -0.0365  0.0247 -0.1886
40279SOL    HW123216   5.193   8.086   1.754  1.4924  0.5980 -0.9035
40279SOL    HW223217   5.251   7.947   1.769  0.5071  0.2278 -0.4402
40280SOL     OW23218   8.548   8.184  10.138 -0.3042 -0.0846 -0.5326
40280SOL    HW123219   8.582   8.224  10.058  2.0963 -1.3388 -0.2066
40280SOL    HW223220   8.542   8.257  10.200 -1.7631  0.8112 -1.6458
40281SOL     OW23221   4.417   9.353   0.235  0.5988  0.3032  0.0419
40281SOL    HW123222   4.367   9.337   0.155  1.0086 -0.8068 -0.0057
40281SOL    HW223223   4.352   9.351   0.305  0.4376 -0.1616 -0.1188
40282SOL     OW23224   9.728   8.760   2.170 -0.0012  0.0717 -0.5401
40282SOL    HW123225   9.739   8.677   2.218 -0.6457  0.4060  0.2085
40282SOL    HW223226   9.798   8.759   2.105  1.9193  0.2978  1.4022
40283SOL     OW23227   7.313   8.254   6.653 -0.0125 -0.0182  0.1794
40283SOL    HW123228   7.257   8.319   6.697 -1.5398 -2.0325  1.3898
40283SOL    HW223229   7.314   8.282   6.561 -2.0182  0.8101  0.3529
40284SOL     OW23230  10.101   9.930   0.185 -0.1594 -0.2515 -0.0940
40284SOL    HW123231  10.126   9.928   0.277 -2.7739 -2.0447  0.7207
40284SOL    HW223232  10.142   9.852   0.147 -1.2245 -1.0398  0.2969
40285SOL     OW23233   5.399   8.755   0.491  0.2545 -0.0444 -0.3097
40285SOL    HW123234   5.345   8.699   0.546 -1.1367  1.8073  0.3278
40285SOL    HW223235   5.470   8.698   0.461 -0.6024 -1.8882  0.9471
40286SOL     OW23236   3.518   5.485   1.874 -0.2627 -0.5951  0.4757
40286SOL    HW123237   3.525   5.447   1.787  2.0614 -1.3014  0.9032
40286SOL    HW223238   3.500   5.411   1.931 -1.1461 -0.2244  0.7003
40287SOL     OW23239   4.983   7.298   4.116  0.4990 -0.2607  0.2397
40287SOL    HW123240   5.001   7.220   4.064 -0.4497 -0.2945 -0.0693
40287SOL    HW223241   5.035   7.367   4.075 -1.4595  0.1081 -1.8631
40288SOL     OW23242   6.483   5.779   4.498  0.1708 -0.1666 -0.0571
40288SOL    HW123243   6.534   5.730   4.563 -0.9842 -1.0787  0.1901
40288SOL    HW223244   6.414   5.822   4.549 -0.5002 -0.5636 -0.6109
40289SOL     OW23245   1.498   8.621   3.830  0.3582  0.4794  0.1393
40289SOL    HW123246   1.513   8.668   3.747 -0.1034  2.4884  1.1325
40289SOL    HW223247   1.424   8.562   3.811  1.1895 -0.1687 -1.2492
40290SOL     OW23248   0.463   4.390   5.977  0.6946  0.7176  0.4141
40290SOL    HW123249   0.480   4.449   6.051 -0.1943  0.7193  0.6285
40290SOL    HW223250   0.398   4.437   5.924  0.1372  0.0292  0.4764
40291SOL     OW23251   0.945   9.058   1.595  0.1051  0.1641 -0.2759
40291SOL    HW123252   0.930   9.085   1.686  1.6696 -0.5814  0.2403
40291SOL    HW223253   0.875   9.101   1.546 -1.1232  0.1351  1.3489
40292SOL     OW23254   1.391   2.548   9.980  0.1606 -0.1832  0.2974
40292SOL    HW123255   1.305   2.573   9.947 -0.5647 -2.0260  0.6741
40292SOL    HW223256   1.389   2.453   9.985  0.9907 -0.1547  3.4933
40293SOL     OW23257   4.576   1.371   2.038 -0.3881  0.4640  0.1670
40293SOL    HW123258   4.634   1.295   2.038  0.4018  1.0399 -1.1397
40293SOL    HW223259   4.503   1.346   2.095 -0.6890 -1.6880 -1.0869
40294SOL     OW23260  10.330   1.153   6.281  0.3798 -0.1762 -0.4877
40294SOL    HW123261  10.283   1.161   6.198  3.4474 -1.6542 -2.5679
40294SOL    HW223262  10.403   1.215   6.274 -0.9675  2.0648  2.6217
40295SOL     OW23263   4.675  10.490   0.170  0.1050  0.2371 -0.7545
40295SOL    HW123264   4.635  10.432   0.236  1.2941  1.6417  1.3050
40295SOL    HW223265   4.653  10.578   0.200  1.6999  0.9409 -1.5518
40296SOL     OW23266   5.011   6.251   3.273  0.0729 -0.5771  0.1684
40296SOL    HW123267   5.022   6.264   3.367 -0.8284 -0.0567  0.2135
40296SOL    HW223268   4.950   6.177   3.267  0.2807 -0.7351 -0.0137
40297SOL     OW23269   3.368   4.278   6.305  0.1861 -0.7302  0.0486
40297SOL    HW123270   3.459   4.301   6.323 -0.0975 -1.5185  3.0450
40297SOL    HW223271   3.319   4.358   6.320  0.2330 -0.7271  0.1919
40298SOL     OW23272   3.158   7.012   0.665  0.1364  0.1224 -0.1100
40298SOL    HW123273   3.204   7.002   0.582  0.3083 -0.0255  0.0040
40298SOL    HW223274   3.075   6.966   0.652  0.2827 -0.1406 -0.1032
40299SOL     OW23275   0.116   0.645   8.165  0.0094  0.1180 -0.2068
40299SOL    HW123276   0.171   0.577   8.125 -0.6853 -0.4978 -0.1326
40299SOL    HW223277   0.027   0.620   8.141 -0.3152  0.4995  0.5993
40300SOL     OW23278   3.169   9.953   0.568 -0.0839 -0.5095 -0.1031
40300SOL    HW123279   3.202   9.916   0.650 -0.7851  0.4912  0.6452
40300SOL    HW223280   3.077   9.928   0.566 -0.7452  1.6520  0.7287
40301SOL     OW23281   1.321   1.035   3.739  0.0114 -0.2408 -0.3429
40301SOL    HW123282   1.237   1.055   3.697  0.0641 -0.4503 -0.5533
40301SOL    HW223283   1.386   1.074   3.680  0.1115 -0.9642 -0.7233
40302SOL     OW23284   1.293   3.851   1.763 -0.2335  0.7166 -0.9195
40302SOL    HW123285   1.362   3.903   1.722  0.5536  0.0780 -0.4463
40302SOL    HW223286   1.326   3.761   1.760 -0.2058  0.6256  0.9463
40303SOL     OW23287   8.201   4.526   6.180  0.0065  0.4285  0.8893
40303SOL    HW123288   8.167   4.555   6.265 -1.6739 -0.6042  0.6250
40303SOL    HW223289   8.210   4.606   6.128  0.9681  1.0607  1.9820
40304SOL     OW23290   8.724   5.688   9.009 -0.4333  0.5166 -0.4615
40304SOL    HW123291   8.732   5.778   8.979  0.7200  0.3552 -0.6906
40304SOL    HW223292   8.653   5.651   8.955 -1.7349  1.5826  0.4459
40305SOL     OW23293  10.300   8.740   2.489 -0.4268 -0.1889  0.2565
40305SOL    HW123294  10.216   8.726   2.444 -0.5294 -0.3978  0.5144
40305SOL    HW223295  10.302   8.834   2.506  0.3918  0.1941 -1.7311
40306SOL     OW23296   1.718   1.149   7.151 -0.4856 -0.1975  0.4263
40306SOL    HW123297   1.813   1.138   7.158 -0.6142 -1.8020  0.0522
40306SOL    HW223298   1.706   1.211   7.078  0.2623 -0.5427  0.0010
40307SOL     OW23299   0.685   5.183   6.925  0.1934  0.1917 -0.0232
40307SOL    HW123300   0.677   5.103   6.874  2.7795 -0.0785 -0.1065
40307SOL    HW223301   0.758   5.168   6.984 -1.1356  1.4322  2.0768
40308SOL     OW23302   1.334  10.664   0.159  0.2601 -0.4996  0.1062
40308SOL    HW123303   1.358  10.746   0.116  0.1358 -1.0870 -1.1099
40308SOL    HW223304   1.345  10.597   0.092 -0.4551 -1.3755  0.8353
40309SOL     OW23305   2.506  10.209   8.009 -0.3126 -0.0023  0.2128
40309SOL    HW123306   2.463  10.283   8.053  0.4772  0.3628  0.3904
40309SOL    HW223307   2.516  10.237   7.918 -0.4019 -0.0688  0.1823
40310SOL     OW23308   3.352  10.745   4.458  0.2581  0.5365  0.0483
40310SOL    HW123309   3.360  10.833   4.495  0.9002  0.2778  0.5359
40310SOL    HW223310   3.268  10.747   4.410 -0.8060  0.7705  1.8280
40311SOL     OW23311   4.530   9.927   7.173  0.2570 -0.7065  0.3988
40311SOL    HW123312   4.489   9.997   7.225 -0.2027 -0.5514 -0.1668
40311SOL    HW223313   4.457   9.883   7.130  0.6678 -0.4194 -0.6291
40312SOL     OW23314   9.875   1.313   5.733  0.2728  0.0296 -0.6996
40312SOL    HW123315   9.962   1.272   5.736  1.0261  1.5116 -1.1740
40312SOL    HW223316   9.869   1.364   5.813  1.6510  3.2726 -2.4604
40313SOL     OW23317   8.684   0.253   5.881 -0.2812  0.1858  0.1237
40313SOL    HW123318   8.729   0.194   5.821  0.1287  2.4272 -1.9127
40313SOL    HW223319   8.600   0.209   5.898  1.3981 -2.7429  1.8172
40314SOL     OW23320   4.011   3.579   4.940  0.4730 -0.3162  0.0867
40314SOL    HW123321   4.008   3.593   4.845 -1.0756 -0.6516  0.0587
40314SOL    HW223322   4.028   3.665   4.977 -0.0386  0.0221 -0.4593
40315SOL     OW23323   9.696   2.898   5.022  0.1306  0.2708  0.1502
40315SOL    HW123324   9.638   2.974   5.011 -0.1429 -0.2564 -2.7887
40315SOL    HW223325   9.643   2.823   4.994  1.0705 -0.7303  0.9920
40316SOL     OW23326   5.582   7.816  10.032  0.1585 -0.0646  0.1753
40316SOL    HW123327   5.637   7.859  10.097 -0.2055 -1.1194  1.2123
40316SOL    HW223328   5.536   7.887   9.988  1.2353  0.7366  0.2949
40317SOL     OW23329   2.616   8.470   7.005  0.2198 -0.1562 -0.0419
40317SOL    HW123330   2.648   8.493   7.093 -1.3000  0.3008  0.4187
40317SOL    HW223331   2.617   8.374   7.005 -1.0123 -0.1967  0.9858
40318SOL     OW23332   8.807   9.611   3.483 -0.1095  0.6147  0.4911
40318SOL    HW123333   8.759   9.591   3.563  0.6044  2.6423  1.5267
40318SOL    HW223334   8.897   9.628   3.513  0.9015 -1.3853 -1.1561
40319SOL     OW23335   8.527   3.729   6.496 -0.1606  0.3866  0.0059
40319SOL    HW123336   8.436   3.710   6.473 -0.1130 -0.1215  0.2207
40319SOL    HW223337   8.552   3.800   6.437 -0.7156  0.5738 -0.0082
40320SOL     OW23338   3.567   2.443   5.010  0.4702 -0.0045 -0.1766
40320SOL    HW123339   3.497   2.424   5.071  0.5476 -1.2923 -0.4730
40320SOL    HW223340   3.563   2.538   4.998 -0.0095  0.1735  1.2416
40321SOL     OW23341   0.100   7.868   9.250 -0.5170 -0.0259  1.0683
40321SOL    HW123342   0.129   7.800   9.189 -1.0917  1.3647 -0.8391
40321SOL    HW223343   0.005   7.856   9.257 -0.6579  0.7325  0.5128
40322SOL     OW23344   3.919   4.497   7.331 -0.5557 -0.7881  0.1610
40322SOL    HW123345   3.938   4.405   7.313  0.5727 -0.5082 -0.1112
40322SOL    HW223346   3.889   4.532   7.246  1.2278 -0.3656 -0.3324
40323SOL     OW23347   3.097   5.552   9.021 -0.0737 -0.3044  0.0344
40323SOL    HW123348   3.028   5.500   8.980  0.9034 -0.8636 -0.9242
40323SOL    HW223349   3.136   5.601   8.949 -0.1388  0.8017  0.7335
40324SOL     OW23350   0.874   0.582   3.373  0.5779 -0.3595 -0.0975
40324SOL    HW123351   0.789   0.597   3.332  1.5036 -2.1200 -2.9647
40324SOL    HW223352   0.858   0.592   3.467 -2.0376  2.5865 -0.6967
40325SOL     OW23353   1.644   7.243   3.619 -0.1403 -0.2743  0.2970
40325SOL    HW123354   1.626   7.167   3.563  0.1200  1.5870 -2.4420
40325SOL    HW223355   1.565   7.297   3.612  1.5222  2.0838 -1.9420
40326SOL     OW23356  10.239   7.296   7.042  0.1447  0.3177  0.5568
40326SOL    HW123357  10.333   7.310   7.032  0.0768  0.3532 -0.0881
40326SOL    HW223358  10.208   7.276   6.953 -0.5290  0.7667  0.6822
40327SOL     OW23359   7.999  10.260   9.598 -0.3599 -0.1823  0.0341
40327SOL    HW123360   7.926  10.215   9.641  0.7404 -2.3548 -0.2469
40327SOL    HW223361   7.959  10.338   9.560 -2.1635 -0.3270  1.4679
40328SOL     OW23362   3.798   1.160   8.246 -0.0108  0.6235 -0.0214
40328SOL    HW123363   3.845   1.163   8.163  1.3576  0.4931  0.7036
40328SOL    HW223364   3.750   1.243   8.250  1.4790  1.5316 -0.0917
40329SOL     OW23365   0.698   9.210   1.519  0.2404  0.0740  0.3148
40329SOL    HW123366   0.620   9.243   1.474 -1.1815 -2.1876  0.9023
40329SOL    HW223367   0.681   9.226   1.612  0.1121 -1.0319  0.5037
40330SOL     OW23368   6.813   4.674   3.995 -0.5845  0.1009 -0.2514
40330SOL    HW123369   6.814   4.763   3.961 -2.5944 -0.3147 -1.5905
40330SOL    HW223370   6.905   4.649   3.999 -0.0102  2.0243 -0.3807
40331SOL     OW23371   3.875   8.812   4.548 -0.1776  0.4613 -0.8285
40331SOL    HW123372   3.865   8.752   4.474  2.2759 -1.4918  0.2540
40331SOL    HW223373   3.835   8.765   4.622 -1.3729  1.7737 -0.6043
40332SOL     OW23374   9.107   2.981   1.872 -0.4174 -0.1856 -0.4067
40332SOL    HW123375   9.200   2.996   1.891  0.0236  0.4510 -2.8082
40332SOL    HW223376   9.098   2.998   1.778 -2.7169 -1.4988 -0.5041
40333SOL     OW23377   0.018   4.082   8.866 -0.0672  0.3087  0.4546
40333SOL    HW123378   0.092   4.096   8.807  1.2200  3.4522  2.5386
40333SOL    HW223379  -0.059   4.087   8.809  1.1635  0.0722 -1.3389
40334SOL     OW23380   4.724   7.976   2.139 -0.0860 -0.2263  0.2264
40334SOL    HW123381   4.687   8.061   2.163  0.0203 -0.5435  1.5982
40334SOL    HW223382   4.657   7.912   2.162  0.0140 -0.5552 -0.3678
40335SOL     OW23383   9.246   0.324   1.473  0.1256  0.4698  0.0322
40335SOL    HW123384   9.294   0.254   1.516 -1.3967 -1.3859 -1.1278
40335SOL    HW223385   9.304   0.354   1.403  1.4174  1.5070  1.4869
40336SOL     OW23386   2.763   5.765   4.687 -0.6195  0.0779  0.1736
40336SOL    HW123387   2.720   5.680   4.696 -1.3847  0.3543 -0.6599
40336SOL    HW223388   2.854   5.744   4.667 -0.3625 -0.5192  1.8548
40337SOL     OW23389   7.894   9.040  10.053  0.1648 -0.1700 -0.1636
40337SOL    HW123390   7.805   9.005  10.050 -0.9309  2.2706  1.2290
40337SOL    HW223391   7.922   9.041   9.961 -1.6539 -0.0056 -0.7535
40338SOL     OW23392   3.489   3.795   9.819 -0.0025 -0.2668 -0.1303
40338SOL    HW123393   3.531   3.879   9.839  0.4316 -0.5277  0.0549
40338SOL    HW223394   3.500   3.785   9.725 -1.2773  0.5432 -0.3928
40339SOL     OW23395   6.884  10.226  10.016 -0.4850  0.2150  0.2992
40339SOL    HW123396   6.911  10.312  10.049 -0.8019  0.5881 -0.3943
40339SOL    HW223397   6.828  10.246   9.941 -0.2638 -0.6022 -0.0908
40340SOL     OW23398   6.080   5.687   6.631  0.1945  0.3081  0.6356
40340SOL    HW123399   5.996   5.665   6.672  0.5276  0.3031  1.3386
40340SOL    HW223400   6.074   5.782   6.616  0.5218  0.5481  1.8349
40341SOL     OW23401  10.313   3.271   2.092 -0.2511 -0.3454  0.9769
40341SOL    HW123402  10.348   3.345   2.042 -1.7131  0.3308  0.8859
40341SOL    HW223403  10.342   3.287   2.182  0.5695 -0.4065  0.7350
40342SOL     OW23404   8.711   1.439   1.250 -0.0316 -0.2376  0.3048
40342SOL    HW123405   8.721   1.531   1.224 -2.6382 -0.0154 -0.2443
40342SOL    HW223406   8.769   1.428   1.326  1.0560  1.5622 -0.2081
40343SOL     OW23407   3.657   9.713   5.207  0.0881  0.4006 -0.0579
40343SOL    HW123408   3.700   9.671   5.132  0.9775 -0.8421  1.0943
40343SOL    HW223409   3.595   9.774   5.168  0.1285 -0.6094 -1.8127
40344SOL     OW23410   3.418   3.193   2.359 -0.1701 -0.1672  0.3600
40344SOL    HW123411   3.368   3.250   2.418 -0.0912  3.4957 -2.7161
40344SOL    HW223412   3.364   3.187   2.280  0.8801 -2.6859 -0.2631
40345SOL     OW23413   6.505   4.362  10.364 -0.1153 -0.4965 -0.6618
40345SOL    HW123414   6.527   4.329  10.277  0.6205  0.5473 -0.8892
40345SOL    HW223415   6.491   4.455  10.352 -3.7561 -0.8776 -0.3149
40346SOL     OW23416   0.873   0.055   9.556 -0.3807 -0.2989 -0.1690
40346SOL    HW123417   0.894   0.117   9.486  0.1818 -0.5539 -0.2322
40346SOL    HW223418   0.847   0.110   9.630 -0.0769  0.0071 -0.2866
40347SOL     OW23419   8.672   6.597   1.070 -0.7190 -0.6945 -0.4210
40347SOL    HW123420   8.652   6.507   1.046  1.0149 -1.1770 -0.1796
40347SOL    HW223421   8.686   6.642   0.987  0.9846 -1.3039 -0.4884
40348SOL     OW23422   0.132   9.866   1.261  0.5415 -0.1711  0.0853
40348SOL    HW123423   0.120   9.773   1.245  1.2502 -0.2256 -0.1454
40348SOL    HW223424   0.164   9.901   1.179  1.8576 -0.0216  0.6456
40349SOL     OW23425   0.419   1.612   6.732 -0.1701 -0.0475 -0.1361
40349SOL    HW123426   0.495   1.630   6.788  0.1594  2.9543 -1.3660
40349SOL    HW223427   0.457   1.586   6.648 -0.4780  0.8689 -0.5723
40350SOL     OW23428   3.476   0.333   8.362  0.5084  0.0513  0.3416
40350SOL    HW123429   3.479   0.271   8.435 -1.6806 -0.4336  0.0749
40350SOL    HW223430   3.466   0.418   8.404 -1.3082 -0.2792  0.6315
40351SOL     OW23431   9.345   8.077   9.226 -0.0176  0.3781  0.4467
40351SOL    HW123432   9.285   8.099   9.154 -0.0941  2.5510  1.0831
40351SOL    HW223433   9.357   7.983   9.220 -4.5140 -0.4752  1.0215
40352SOL     OW23434   3.828   7.232   2.797  0.5230 -0.0984  0.5806
40352SOL    HW123435   3.792   7.321   2.795 -1.8080 -0.9355  1.6704
40352SOL    HW223436   3.827   7.204   2.706  0.2933  0.6376  0.3481
40353SOL     OW23437   4.974   0.625   2.537 -0.5833  0.3244  0.2939
40353SOL    HW123438   4.887   0.627   2.576 -1.1988  0.6565 -1.0242
40353SOL    HW223439   5.004   0.716   2.539 -0.9705  0.4839 -0.7277
40354SOL     OW23440   2.687   2.206   5.408  0.7132  0.3167 -0.0800
40354SOL    HW123441   2.714   2.294   5.436 -0.4731  0.2240  1.5093
40354SOL    HW223442   2.761   2.150   5.431  1.3062  0.8284 -0.7098
40355SOL     OW23443   1.614   7.512   1.012 -0.0844 -0.5313 -0.1378
40355SOL    HW123444   1.546   7.443   1.009 -0.4626 -0.1878 -4.0566
40355SOL    HW223445   1.696   7.465   0.999 -0.1493 -0.4489 -0.8767
40356SOL     OW23446   0.761   3.553   5.527 -0.2379  0.1579 -0.3394
40356SOL    HW123447   0.743   3.576   5.618 -1.4608 -1.0474 -0.2361
40356SOL    HW223448   0.779   3.636   5.483  0.8791  0.7027  1.0945
40357SOL     OW23449   3.149   9.506   0.912  0.3158 -0.4596 -0.0230
40357SOL    HW123450   3.088   9.489   0.841 -1.1961  0.8865  0.8801
40357SOL    HW223451   3.177   9.419   0.942  0.5359 -1.0478 -1.8511
40358SOL     OW23452   9.160   3.124   8.297 -0.2242  0.0833  0.2083
40358SOL    HW123453   9.078   3.088   8.332  0.3188 -0.4894  0.9172
40358SOL    HW223454   9.179   3.069   8.221  0.7220 -1.3242  1.4190
40359SOL     OW23455   3.683  10.151   8.236  0.2690 -0.5159  0.2217
40359SOL    HW123456   3.775  10.131   8.221  0.7944  1.8391 -0.0201
40359SOL    HW223457   3.652  10.188   8.154  0.0386  1.7192  1.2362
40360SOL     OW23458   4.272   3.100   2.127  0.1549 -0.2795 -0.2602
40360SOL    HW123459   4.248   3.008   2.120 -0.3892 -0.2302  0.7465
40360SOL    HW223460   4.188   3.146   2.126  0.4771  0.4889 -3.7857
40361SOL     OW23461   2.353   9.841   6.015 -0.2542 -0.3087 -0.1348
40361SOL    HW123462   2.274   9.891   5.998  0.2917  0.5086 -0.3032
40361SOL    HW223463   2.413   9.865   5.944  0.1276 -0.9652 -0.0494
40362SOL     OW23464   6.852   0.078  10.370 -0.2533 -0.0470 -0.5693
40362SOL    HW123465   6.942   0.055  10.395 -0.7249  0.0611  1.3647
40362SOL    HW223466   6.798   0.008  10.407 -1.1208  0.7943 -0.2256
40363SOL     OW23467   1.356   2.876   4.784  0.0911 -0.3345 -0.2780
40363SOL    HW123468   1.367   2.815   4.857 -1.5503 -0.7459 -0.3348
40363SOL    HW223469   1.356   2.820   4.706  1.7743  0.0953 -0.6466
40364SOL     OW23470   1.174   6.882   9.606  0.1230 -0.3293 -0.0087
40364SOL    HW123471   1.204   6.793   9.587 -1.4750 -0.6520 -1.2130
40364SOL    HW223472   1.123   6.873   9.687  0.5615 -0.3715  0.2643
40365SOL     OW23473   0.856   8.691   8.123  0.1613  0.3070  1.1230
40365SOL    HW123474   0.801   8.740   8.185  0.2064  1.6758  0.1406
40365SOL    HW223475   0.931   8.749   8.107 -0.7297  0.8645 -1.5682
40366SOL     OW23476   1.367  10.598  10.299  0.3489 -0.5805 -0.5341
40366SOL    HW123477   1.286  10.639  10.329  0.5912 -0.9584  0.6985
40366SOL    HW223478   1.395  10.652  10.225  0.0479  0.7784  0.2999
40367SOL     OW23479   5.914   7.508   4.939 -0.1666  0.3911 -0.1819
40367SOL    HW123480   5.990   7.558   4.909  0.9363 -1.9931 -1.6543
40367SOL    HW223481   5.864   7.570   4.992  1.8580  2.5708 -0.6512
40368SOL     OW23482   8.903   1.954   9.277  0.1703 -0.9512  0.3270
40368SOL    HW123483   8.874   1.862   9.269 -0.1241 -0.8991  0.7553
40368SOL    HW223484   8.895   1.973   9.370  0.5999 -0.6038  0.2936
40369SOL     OW23485   0.524   4.234   1.901 -0.0918 -0.3572 -0.0722
40369SOL    HW123486   0.444   4.186   1.880 -0.2001  0.0128 -0.5056
40369SOL    HW223487   0.528   4.233   1.997 -1.5963  1.2128  0.0391
40370SOL     OW23488   1.557   6.665   9.748  0.4798 -0.5298  0.1696
40370SOL    HW123489   1.534   6.758   9.744  0.2212 -0.6281 -0.9715
40370SOL    HW223490   1.611   6.658   9.827 -1.3014  0.1735  1.5608
40371SOL     OW23491   6.204   5.859  10.299  0.3165 -0.1678 -0.3197
40371SOL    HW123492   6.269   5.791  10.317  0.9196  0.1716 -1.0978
40371SOL    HW223493   6.252   5.923  10.246 -0.3276  0.6985  0.1151
40372SOL     OW23494   9.802   2.678   5.122  0.1676 -0.2156  0.1971
40372SOL    HW123495   9.778   2.768   5.098  3.3451  0.6787 -0.1835
40372SOL    HW223496   9.789   2.674   5.217 -2.5699 -0.3301 -0.1039
40373SOL     OW23497   4.741   7.674   4.223 -0.2043  0.4334  0.1983
40373SOL    HW123498   4.833   7.693   4.202  1.0738 -0.4779  4.1188
40373SOL    HW223499   4.711   7.617   4.151  1.6648  2.1312 -2.0769
40374SOL     OW23500   6.038  10.291   5.170  0.0685 -0.1726  1.2255
40374SOL    HW123501   6.000  10.321   5.088  0.0037 -1.7425  0.6509
40374SOL    HW223502   6.132  10.309   5.161  0.0410 -0.2089  0.8646
40375SOL     OW23503   0.423   0.967   6.123 -0.3469 -1.0819  0.7511
40375SOL    HW123504   0.387   1.031   6.063  1.2866  0.3236  1.1846
40375SOL    HW223505   0.493   0.924   6.074  0.4595 -0.4955  1.3617
40376SOL     OW23506   6.640   5.853   2.957 -0.5036  0.0903  1.0163
40376SOL    HW123507   6.607   5.808   3.034 -0.1958 -0.5708  0.7718
40376SOL    HW223508   6.566   5.854   2.897 -1.2486  2.0534  1.9129
40377SOL     OW23509   4.935   5.492  10.283  0.6461  0.1124  0.8182
40377SOL    HW123510   4.907   5.490  10.374 -0.2954  1.3015  0.5731
40377SOL    HW223511   5.030   5.503  10.288  0.4227  2.0122  1.6765
40378SOL     OW23512   2.839   5.575   7.142 -0.2703 -0.2476 -0.7246
40378SOL    HW123513   2.897   5.651   7.144 -0.2964 -0.2388 -0.0244
40378SOL    HW223514   2.898   5.500   7.133 -0.3302 -0.0734 -3.7766
40379SOL     OW23515   3.489   2.266   8.058 -0.6413  0.2582  0.3189
40379SOL    HW123516   3.497   2.263   8.154  0.1058  0.2430  0.2586
40379SOL    HW223517   3.578   2.253   8.026 -0.5225  2.3744 -0.3399
40380SOL     OW23518   0.581   7.153   7.228  0.1674 -0.3836  0.2017
40380SOL    HW123519   0.568   7.228   7.169  1.0448  0.5845  1.2011
40380SOL    HW223520   0.675   7.150   7.242  0.1828 -1.9156 -0.0823
40381SOL     OW23521   4.591   5.185  10.723 -0.3622 -0.2158  0.2218
40381SOL    HW123522   4.586   5.239  10.644 -0.3631 -0.8901 -0.2448
40381SOL    HW223523   4.550   5.102  10.699 -0.7890 -0.2684  1.0751
40382SOL     OW23524   6.387   1.958   1.830  0.0692 -0.2929 -0.0257
40382SOL    HW123525   6.402   2.011   1.751 -0.3456 -2.0482 -1.3502
40382SOL    HW223526   6.373   2.022   1.900  1.8716  1.3501 -1.0627
40383SOL     OW23527   1.224   3.136   5.676 -0.1747 -0.0206 -0.0721
40383SOL    HW123528   1.150   3.179   5.719 -0.7277 -0.6284 -0.3952
40383SOL    HW223529   1.187   3.056   5.638  0.8724 -0.9303  0.7470
40384SOL     OW23530   1.897   7.707   5.597 -0.3132 -0.3425 -0.4430
40384SOL    HW123531   1.936   7.667   5.519  2.0492  1.4199 -0.2916
40384SOL    HW223532   1.961   7.691   5.666 -1.6751 -0.5710  0.8164
40385SOL     OW23533   3.035   4.402   5.943 -0.7283  0.0467  0.2461
40385SOL    HW123534   3.119   4.425   5.902 -0.1670 -1.2453  0.6133
40385SOL    HW223535   2.981   4.480   5.932  0.9358  1.3862  1.1041
40386SOL     OW23536   3.836   5.121   8.229 -0.0687 -0.1702 -0.2991
40386SOL    HW123537   3.918   5.116   8.278 -0.8534  1.3171  1.2821
40386SOL    HW223538   3.855   5.077   8.146  2.2297 -0.0953  0.1173
40387SOL     OW23539   9.602   1.138   2.696  0.5792 -0.6187  0.2957
40387SOL    HW123540   9.516   1.109   2.729  0.8684 -0.7674  0.9307
40387SOL    HW223541   9.582   1.180   2.613 -0.3402  0.8680  1.2182
40388SOL     OW23542   5.751   9.659   6.957  0.4567 -0.2239 -0.2555
40388SOL    HW123543   5.792   9.655   7.044  0.0990 -3.0461 -0.1453
40388SOL    HW223544   5.741   9.753   6.941  3.0138  0.4897  1.5476
40389SOL     OW23545   7.383   9.041   4.078  0.0785  0.1068  0.1696
40389SOL    HW123546   7.363   9.124   4.122 -0.3489 -0.9772  2.1132
40389SOL    HW223547   7.477   9.029   4.092  0.1446  0.2601 -0.1301
40390SOL     OW23548   1.015   0.897   0.094  0.2899 -0.1282 -0.4685
40390SOL    HW123549   1.070   0.942   0.157 -0.2668 -1.5716  1.1415
40390SOL    HW223550   1.076   0.848   0.038  0.8139  1.5550 -1.4305
40391SOL     OW23551  10.379   6.161   5.867 -0.2047 -0.0399 -0.1027
40391SOL    HW123552  10.420   6.090   5.818  0.6064  0.4077 -0.0928
40391SOL    HW223553  10.290   6.166   5.833 -0.0329 -0.5540 -0.6421
40392SOL     OW23554   7.668   3.392   2.661 -0.1427 -0.0379 -0.3839
40392SOL    HW123555   7.598   3.341   2.620  0.0010 -0.8637  0.3582
40392SOL    HW223556   7.748   3.359   2.620 -0.1113  0.1784 -0.4964
40393SOL     OW23557   7.160   7.145   4.158  0.3205 -0.1084  0.3961
40393SOL    HW123558   7.227   7.114   4.219 -0.6573 -0.7829  1.1857
40393SOL    HW223559   7.186   7.234   4.136  0.8388  0.0652  1.6198
40394SOL     OW23560   2.738  10.373   9.372 -0.3084 -0.4688 -0.0341
40394SOL    HW123561   2.679  10.318   9.321 -0.5443  0.4904 -0.8269
40394SOL    HW223562   2.745  10.329   9.456  0.4031 -2.2961 -1.0167
40395SOL     OW23563   3.891   1.337   4.932 -0.3053 -0.0103  0.2440
40395SOL    HW123564   3.921   1.425   4.909 -0.2794  0.2045  1.0367
40395SOL    HW223565   3.891   1.337   5.028  1.3870 -1.4262  0.3127
40396SOL     OW23566   7.100   0.447   4.009  0.5992 -0.6967  0.1644
40396SOL    HW123567   7.129   0.468   3.920 -1.5471  0.5016 -0.3328
40396SOL    HW223568   7.048   0.367   3.999 -1.6151  0.6946 -0.1576
40397SOL     OW23569   7.847   9.130   3.675  0.8272  0.1876  0.0042
40397SOL    HW123570   7.789   9.054   3.677 -0.2158  0.9482 -0.3790
40397SOL    HW223571   7.915   9.107   3.612  1.2464 -0.9121  0.8221
40398SOL     OW23572   6.595   0.129   6.851  0.0862 -0.2148  0.2769
40398SOL    HW123573   6.595   0.033   6.853  1.0840 -0.2357 -0.0703
40398SOL    HW223574   6.661   0.151   6.786  0.5411  0.7112  1.0329
40399SOL     OW23575   8.057   5.758   0.939  0.1422 -0.5967  1.0375
40399SOL    HW123576   8.088   5.847   0.957  0.6109 -0.4367 -0.4478
40399SOL    HW223577   7.964   5.768   0.918  0.1986 -0.4534  0.8588
40400SOL     OW23578   3.608   3.827   3.136  0.0013  0.3392 -0.2816
40400SOL    HW123579   3.587   3.750   3.082 -0.6493 -0.9479  1.7215
40400SOL    HW223580   3.526   3.850   3.178  0.4022  1.6131 -0.1732
40401SOL     OW23581   0.697   4.139   6.540 -0.0547  0.1490 -0.3630
40401SOL    HW123582   0.603   4.154   6.529 -0.4661 -1.2189  0.9163
40401SOL    HW223583   0.711   4.052   6.504  0.2900 -0.5352  1.3360
40402SOL     OW23584   4.303   1.733   9.459  0.3869 -0.1461 -0.6664
40402SOL    HW123585   4.265   1.792   9.394 -1.4149  0.1443  0.5639
40402SOL    HW223586   4.325   1.790   9.533 -0.4680 -0.8304  0.1507
40403SOL     OW23587   2.569   7.679   7.559 -0.0636  0.0294  0.0794
40403SOL    HW123588   2.644   7.643   7.512  0.4658 -0.4209  1.2235
40403SOL    HW223589   2.608   7.733   7.628 -0.8205  2.7388 -1.4789
40404SOL     OW23590   3.918   2.134   7.186  0.2561  0.1553  0.1932
40404SOL    HW123591   3.839   2.097   7.226 -0.5700  0.3502 -1.1902
40404SOL    HW223592   3.913   2.107   7.094 -0.7254  4.0849 -1.0973
40405SOL     OW23593   3.156   8.173   1.765 -0.4119  0.8942  0.6120
40405SOL    HW123594   3.154   8.180   1.669 -1.9035 -0.4144  0.4993
40405SOL    HW223595   3.199   8.253   1.794 -1.2176  2.0181 -1.0995
40406SOL     OW23596   5.062   3.267   6.219 -0.0759 -0.0791 -0.2637
40406SOL    HW123597   5.128   3.326   6.184  0.9231 -1.2383 -0.3850
40406SOL    HW223598   5.082   3.261   6.313 -0.2086 -0.1771 -0.2410
40407SOL     OW23599   3.541   6.684   7.727  0.4143 -0.0183  0.2530
40407SOL    HW123600   3.614   6.693   7.666 -0.0480  1.3791 -0.1184
40407SOL    HW223601   3.552   6.755   7.790 -0.7323  0.3282  0.0822
40408SOL     OW23602   2.157   6.373   0.140 -0.2736  0.3702 -0.1966
40408SOL    HW123603   2.083   6.360   0.200  0.9907  1.0806  1.6347
40408SOL    HW223604   2.225   6.411   0.195  1.6697 -0.7790 -1.6782
40409SOL     OW23605   9.855   6.919   6.381 -0.4995  0.0461  0.2552
40409SOL    HW123606   9.809   6.879   6.308  2.0519  1.4725 -2.3702
40409SOL    HW223607   9.862   6.850   6.447 -2.5773 -1.4253 -0.9678
40410SOL     OW23608  10.538   3.643   3.933  0.2795 -0.3270 -0.0884
40410SOL    HW123609  10.558   3.736   3.931  1.1193 -0.4658  1.1433
40410SOL    HW223610  10.599   3.604   3.870 -0.2721 -0.0286 -0.8234
40411SOL     OW23611   1.721   2.282   0.679 -0.0353 -0.3179 -0.1955
40411SOL    HW123612   1.759   2.195   0.675  1.4521  0.1701  1.7332
40411SOL    HW223613   1.644   2.277   0.623  2.5551 -1.4884 -4.1147
40412SOL     OW23614   9.082   5.188   8.411 -0.0795  0.0564  0.5795
40412SOL    HW123615   9.099   5.238   8.491  1.0453  1.6095 -0.5589
40412SOL    HW223616   9.168   5.156   8.384 -0.5447 -1.0576  0.3397
40413SOL     OW23617   4.520   5.118  10.170 -0.2096 -0.2119 -0.0723
40413SOL    HW123618   4.524   5.078  10.257 -0.9034  0.8309  0.4522
40413SOL    HW223619   4.592   5.181  10.169  1.7053 -2.2867 -1.3626
40414SOL     OW23620   3.662   4.220   1.623  0.0815 -0.0153  0.5060
40414SOL    HW123621   3.578   4.178   1.641 -1.4484  0.6477 -3.7617
40414SOL    HW223622   3.639   4.310   1.598  2.1077  0.3208 -0.3211
40415SOL     OW23623   6.906   3.252   5.854  0.0852 -0.4540  0.2379
40415SOL    HW123624   6.932   3.341   5.828  1.9158 -0.5856  1.4218
40415SOL    HW223625   6.830   3.265   5.910  0.0626  0.3452  0.0313
40416SOL     OW23626  10.760   8.011   4.132  0.1849  0.2149 -0.0318
40416SOL    HW123627  10.796   8.098   4.115  2.2421 -0.6241 -0.3061
40416SOL    HW223628  10.701   7.995   4.058  1.3451  0.5994 -1.0775
40417SOL     OW23629   8.719   0.251   8.185  0.0186  0.2877  0.0218
40417SOL    HW123630   8.636   0.208   8.165  0.1010  1.0924 -2.3319
40417SOL    HW223631   8.751   0.205   8.263 -2.1763 -0.6382  0.4674
40418SOL     OW23632   9.769   2.748   1.557  0.2300 -0.1818  0.2490
40418SOL    HW123633   9.825   2.789   1.491  0.0926  0.5483  0.5722
40418SOL    HW223634   9.808   2.774   1.640 -0.9305  0.8702  0.4983
40419SOL     OW23635   4.339   2.095   1.985 -0.0446 -0.2570  0.1656
40419SOL    HW123636   4.321   2.035   2.058 -0.1610 -2.9304 -1.8884
40419SOL    HW223637   4.431   2.118   1.996  0.6938 -2.7194 -0.1477
40420SOL     OW23638   0.937   5.641   9.864 -0.0492 -0.0152  0.0831
40420SOL    HW123639   0.886   5.597   9.932  1.6520 -1.8128  0.3130
40420SOL    HW223640   0.932   5.582   9.789  1.4963 -0.1728  0.0704
40421SOL     OW23641   0.211   5.660   9.500  0.2764 -1.0877 -0.2288
40421SOL    HW123642   0.223   5.729   9.566 -2.1012 -0.2547 -0.5885
40421SOL    HW223643   0.220   5.579   9.550 -2.7340 -0.5017  1.5356
40422SOL     OW23644   2.445   8.695   7.202  0.0883  0.1961  0.8331
40422SOL    HW123645   2.509   8.757   7.237 -0.4416 -0.5592  3.3143
40422SOL    HW223646   2.493   8.613   7.194 -0.5630 -0.4547  3.0035
40423SOL     OW23647   0.491   7.989   8.658  0.3775 -0.0188  0.4552
40423SOL    HW123648   0.491   8.044   8.736  0.2048  1.7193 -0.7301
40423SOL    HW223649   0.399   7.968   8.642  0.3255  0.3713  0.2259
40424SOL     OW23650   6.934   1.019   3.067  0.1173 -0.4177 -0.3866
40424SOL    HW123651   6.973   1.026   3.154  0.2829  1.2622 -0.5514
40424SOL    HW223652   6.948   0.928   3.041  1.9100 -0.4320  0.4882
40425SOL     OW23653   7.637   7.373   0.681  0.1248  0.1548 -0.1199
40425SOL    HW123654   7.666   7.464   0.688 -2.0747  0.9522 -0.3862
40425SOL    HW223655   7.623   7.346   0.771  0.4977  0.1916 -0.0514
40426SOL     OW23656   7.353   7.449   6.384 -0.5915 -0.0303 -0.6109
40426SOL    HW123657   7.290   7.517   6.359  0.4398  0.5893 -1.6294
40426SOL    HW223658   7.319   7.369   6.344 -1.3910  0.0336 -0.0806
40427SOL     OW23659   9.625   1.253   1.518  0.2215 -0.0227 -0.5136
40427SOL    HW123660   9.624   1.202   1.599 -2.1613  1.0661  0.2358
40427SOL    HW223661   9.640   1.343   1.546 -2.4521  0.6663 -0.9568
40428SOL     OW23662   9.990   2.021   2.271 -0.5355  0.0931 -0.3659
40428SOL    HW123663   9.929   1.960   2.229 -0.7542 -0.0864  0.1965
40428SOL    HW223664   9.934   2.085   2.314 -0.3202  1.4656 -1.9909
40429SOL     OW23665   0.990   3.739   5.813  0.7695 -0.2369 -0.6317
40429SOL    HW123666   0.986   3.646   5.789  1.1743 -0.2224 -0.7648
40429SOL    HW223667   1.078   3.750   5.849  0.1693 -0.2634  0.9113
40430SOL     OW23668   1.607   9.873   2.448 -0.6251 -0.2535 -0.3528
40430SOL    HW123669   1.532   9.933   2.451  1.3711  2.3706  1.2680
40430SOL    HW223670   1.600   9.822   2.528  0.0233  0.9735  0.5084
40431SOL     OW23671   7.416   0.002   2.573  0.2319 -0.0202 -0.6368
40431SOL    HW123672   7.468   0.066   2.622  0.5002 -0.3339 -0.5144
40431SOL    HW223673   7.333  -0.002   2.621  0.0295  0.6042 -0.9283
40432SOL     OW23674   5.330   7.591   9.263 -0.1423 -0.3244 -0.3229
40432SOL    HW123675   5.329   7.621   9.354 -0.2558  1.0447 -0.7521
40432SOL    HW223676   5.304   7.499   9.268 -5.3332  0.8799  0.6286
40433SOL     OW23677   8.821   5.245   8.502 -0.3391 -0.2739 -0.1523
40433SOL    HW123678   8.771   5.301   8.561 -1.0384  0.5792 -1.4976
40433SOL    HW223679   8.905   5.289   8.491 -0.6242  0.1578 -0.6480
40434SOL     OW23680   2.814  10.666   1.482  0.1942  0.3787 -0.4381
40434SOL    HW123681   2.885  10.708   1.530  0.3956  1.4208 -1.5987
40434SOL    HW223682   2.737  10.719   1.502  0.3740  1.1163 -1.6088
40435SOL     OW23683   7.921   5.641   1.596 -0.6784 -0.3873 -0.2651
40435SOL    HW123684   7.829   5.663   1.582 -0.4048  0.1419 -1.3042
40435SOL    HW223685   7.918   5.559   1.647 -1.7195 -1.0817 -1.3836
40436SOL     OW23686  10.334   8.899  10.562  0.4930 -0.2736 -0.1564
40436SOL    HW123687  10.375   8.983  10.584  1.7643 -0.6822 -0.8481
40436SOL    HW223688  10.350   8.888  10.468 -0.0775 -1.0738 -0.1763
40437SOL     OW23689  10.244   9.481   4.915 -0.0522  0.6746 -0.1823
40437SOL    HW123690  10.171   9.543   4.910 -0.7416 -0.0293  0.8174
40437SOL    HW223691  10.217   9.407   4.860  0.1349  0.6426 -0.2319
40438SOL     OW23692   0.338  10.766   9.860 -0.4738  0.4771  0.1734
40438SOL    HW123693   0.362  10.810   9.778 -0.9174  1.6436  0.6466
40438SOL    HW223694   0.251  10.731   9.844  0.7553 -2.2928 -0.9753
40439SOL     OW23695   5.849   0.556   3.621 -0.3050 -0.1834 -0.1565
40439SOL    HW123696   5.886   0.592   3.702 -0.5264 -0.3973  0.0399
40439SOL    HW223697   5.871   0.620   3.554 -1.9652  1.0714  0.4312
40440SOL     OW23698   1.642   3.219   8.486 -0.1296  0.0156 -0.1202
40440SOL    HW123699   1.639   3.123   8.479 -0.4413  0.0429 -0.3949
40440SOL    HW223700   1.733   3.241   8.464 -0.1483 -0.1911 -0.4136
40441SOL     OW23701   6.901   1.956   5.213 -0.4145 -0.4714 -0.6710
40441SOL    HW123702   6.869   1.998   5.133  0.9463  1.0262 -0.4858
40441SOL    HW223703   6.861   2.006   5.284 -1.8349 -1.9651 -0.3569
40442SOL     OW23704   6.667   0.282   4.200 -0.3586  0.0780  0.2538
40442SOL    HW123705   6.631   0.215   4.259  0.0523  0.7189  1.2464
40442SOL    HW223706   6.701   0.350   4.258  2.3123 -0.4001 -0.6213
40443SOL     OW23707   3.193   7.812  10.068  0.1008  0.1328 -0.0270
40443SOL    HW123708   3.240   7.743  10.020  0.1662  0.4779 -0.4659
40443SOL    HW223709   3.179   7.880  10.003  0.8535  0.9277  0.6235
40444SOL     OW23710   1.443   9.041   8.559 -0.1402  0.3506 -0.5200
40444SOL    HW123711   1.482   8.961   8.524  1.8725  0.7003  0.7562
40444SOL    HW223712   1.391   9.010   8.634  0.6915  0.2269  0.0161
40445SOL     OW23713   3.680   7.608   2.151  0.1821 -0.6478 -0.4298
40445SOL    HW123714   3.599   7.658   2.133 -0.3334 -0.9286  0.9967
40445SOL    HW223715   3.726   7.608   2.067 -0.8431  0.3463 -1.0376
40446SOL     OW23716   6.659   4.568   8.848  0.2404  0.0064  0.2306
40446SOL    HW123717   6.656   4.568   8.944  1.6395 -0.2038  0.3045
40446SOL    HW223718   6.723   4.500   8.826 -0.5506 -0.4027 -0.8887
40447SOL     OW23719   1.285   8.786   6.297 -0.3783 -0.2365 -0.3679
40447SOL    HW123720   1.312   8.878   6.303 -0.3394 -0.2258 -0.7151
40447SOL    HW223721   1.214   8.778   6.361  0.7956 -0.3992  0.9486
40448SOL     OW23722   2.272   6.755   5.743 -0.0580 -0.1162  0.0414
40448SOL    HW123723   2.281   6.741   5.649 -1.9459 -0.1002 -0.1705
40448SOL    HW223724   2.202   6.820   5.751 -0.5696 -0.8062  1.4708
40449SOL     OW23725   6.853   0.795   1.560  0.1850  0.1371 -0.7852
40449SOL    HW123726   6.843   0.719   1.618 -0.3429  0.6031 -0.2376
40449SOL    HW223727   6.823   0.869   1.614 -1.2781  0.4543 -1.9833
40450SOL     OW23728  10.426   7.581   0.799 -0.2679  0.0764 -0.2802
40450SOL    HW123729  10.339   7.592   0.838 -0.4324  1.2240 -0.9348
40450SOL    HW223730  10.479   7.650   0.838  0.6681 -1.2971  0.9407
40451SOL     OW23731   1.859   3.317   7.767 -0.1157  0.2083  0.2403
40451SOL    HW123732   1.842   3.335   7.675 -0.8926 -0.7052  0.1977
40451SOL    HW223733   1.785   3.264   7.796  0.9080 -0.8833  0.9690
40452SOL     OW23734   2.466   2.793   3.962 -0.0285  0.4761  0.3977
40452SOL    HW123735   2.449   2.821   3.872  0.6499  1.2766  0.5068
40452SOL    HW223736   2.384   2.753   3.991  0.2162 -1.2841 -1.1111
40453SOL     OW23737   9.661   9.328   3.281 -0.8625  0.1018  0.4037
40453SOL    HW123738   9.586   9.311   3.224 -1.1035  0.8185  0.4969
40453SOL    HW223739   9.628   9.311   3.370 -1.1128  1.0253  0.5001
40454SOL     OW23740   8.690   3.386   4.236 -0.0983 -0.7216 -0.2542
40454SOL    HW123741   8.667   3.374   4.144  1.4533 -2.1498 -0.5191
40454SOL    HW223742   8.786   3.378   4.238 -0.0981 -0.7310  1.4761
40455SOL     OW23743   8.942   6.499   9.559 -0.8624 -0.3056 -0.0484
40455SOL    HW123744   8.964   6.489   9.467  1.1490 -1.4326  0.4994
40455SOL    HW223745   8.908   6.413   9.585 -1.4012  0.0004  0.2827
40456SOL     OW23746   4.520   7.740   8.617 -0.6480  0.5566  0.0112
40456SOL    HW123747   4.523   7.733   8.522 -0.5614 -1.9200  0.1207
40456SOL    HW223748   4.431   7.713   8.640  0.0263 -1.1956  0.7162
40457SOL     OW23749   1.713   9.625  10.441  0.2358  0.3867  1.3712
40457SOL    HW123750   1.632   9.597  10.482  0.2418 -0.1906  1.0005
40457SOL    HW223751   1.724   9.566  10.366 -1.0203  2.8176 -0.9183
40458SOL     OW23752   0.744   9.840   9.419  0.0605  0.6397 -0.3894
40458SOL    HW123753   0.786   9.813   9.501  1.1563  0.8840 -0.8599
40458SOL    HW223754   0.696   9.919   9.442 -1.2926 -0.3715  0.4663
40459SOL     OW23755   2.466   4.650   0.964  0.4864 -0.0195 -0.1772
40459SOL    HW123756   2.558   4.655   0.938  0.2634  2.6870 -0.7123
40459SOL    HW223757   2.468   4.650   1.060  1.0306  1.6474 -0.1660
40460SOL     OW23758   7.428   3.023   5.290  0.0451  0.0968 -0.3681
40460SOL    HW123759   7.494   2.955   5.278  1.9881  1.7918  0.0994
40460SOL    HW223760   7.344   2.977   5.288  1.3256 -2.5426  1.6478
40461SOL     OW23761   7.733   7.776   8.189 -0.1061 -0.1714 -0.1462
40461SOL    HW123762   7.715   7.846   8.252 -2.6110  0.0257 -0.9628
40461SOL    HW223763   7.794   7.718   8.234  0.6383  1.5911  1.2340
40462SOL     OW23764   1.561   0.368   8.747 -0.4869  0.2903  0.2099
40462SOL    HW123765   1.632   0.422   8.781  1.8784 -1.6850 -1.2413
40462SOL    HW223766   1.521   0.328   8.824 -0.1805  1.5723  1.0609
40463SOL     OW23767   1.890   4.406   1.878  0.2482 -0.1270 -0.0651
40463SOL    HW123768   1.896   4.452   1.794  1.5771 -0.7927 -0.3585
40463SOL    HW223769   1.796   4.389   1.889  0.2546 -3.2949 -3.2521
40464SOL     OW23770   4.615  10.326  10.750  0.3415  0.1292 -0.0620
40464SOL    HW123771   4.673  10.368  10.814 -0.0561 -0.9802  1.0674
40464SOL    HW223772   4.535  10.378  10.752  0.2447 -0.0339  0.5360
40465SOL     OW23773   9.214   5.108   2.529 -0.0998  0.2706  0.4405
40465SOL    HW123774   9.171   5.047   2.469  3.2283 -0.1854 -1.7093
40465SOL    HW223775   9.291   5.061   2.560  2.2307  2.9829 -0.7488
40466SOL     OW23776   6.015   6.833   3.351  0.1723 -0.0273  0.2034
40466SOL    HW123777   6.088   6.829   3.289  0.4115 -1.3654  0.5226
40466SOL    HW223778   6.048   6.787   3.429 -0.9939 -0.6623  0.3470
40467SOL     OW23779   5.060  10.419   8.376  0.1709 -0.7150 -0.1261
40467SOL    HW123780   4.987  10.373   8.334  0.5478  0.1240 -1.8019
40467SOL    HW223781   5.047  10.511   8.351  0.2773 -0.1033  1.8678
40468SOL     OW23782   0.345   7.868   7.644  0.6223 -0.3054 -0.2791
40468SOL    HW123783   0.345   7.948   7.591 -1.1885 -0.9265 -1.3147
40468SOL    HW223784   0.409   7.885   7.713  0.9936  1.6502 -1.0309
40469SOL     OW23785   5.292   1.763   7.380 -0.1249  0.5458  0.5509
40469SOL    HW123786   5.237   1.794   7.307 -1.4848 -2.1796  0.2853
40469SOL    HW223787   5.364   1.716   7.338 -1.4869 -1.9742  0.8237
40470SOL     OW23788   3.326   4.445   7.792 -0.2220 -0.3875 -0.7699
40470SOL    HW123789   3.402   4.482   7.747  1.8725 -1.9910  1.1824
40470SOL    HW223790   3.312   4.361   7.749 -1.9648  0.5444 -2.1315
40471SOL     OW23791   1.893   3.654   2.769 -0.7394 -0.3335  0.1252
40471SOL    HW123792   1.800   3.653   2.791 -0.5985 -0.1004  0.7542
40471SOL    HW223793   1.925   3.567   2.796 -0.8499 -0.5600 -0.4544
40472SOL     OW23794   3.736  10.151   6.735  0.4769  0.2729  0.4029
40472SOL    HW123795   3.692  10.208   6.671 -1.1045 -1.2982  0.0204
40472SOL    HW223796   3.692  10.067   6.726  1.0377 -0.3295  2.7272
40473SOL     OW23797   6.908   9.028   5.374 -0.0631 -0.7465  0.1915
40473SOL    HW123798   6.871   9.116   5.387 -0.2744 -1.0882  2.1714
40473SOL    HW223799   6.844   8.969   5.414  1.1553 -1.6080  0.9376
40474SOL     OW23800   6.214   1.985   4.705  0.6118 -0.0682 -0.6699
40474SOL    HW123801   6.168   1.979   4.621 -0.5263 -2.3903  0.0300
40474SOL    HW223802   6.154   1.945   4.767  2.1375  0.0913  0.9714
40475SOL     OW23803   4.053   8.569   7.809  0.2395  0.6802  0.3342
40475SOL    HW123804   3.972   8.616   7.790  0.0082  0.4984  0.8606
40475SOL    HW223805   4.094   8.556   7.723 -0.4438  0.4824  0.0318
40476SOL     OW23806   0.242   3.458   1.585  0.2798  0.0674  0.3157
40476SOL    HW123807   0.257   3.401   1.510 -0.2296  0.8892 -0.4352
40476SOL    HW223808   0.204   3.401   1.652  1.3873 -0.8214  0.2165
40477SOL     OW23809   2.388   3.500   6.767  0.0140 -0.2190  0.0932
40477SOL    HW123810   2.464   3.529   6.716 -1.1494  2.5490 -0.2688
40477SOL    HW223811   2.422   3.488   6.856  0.8327  1.4709  0.0567
40478SOL     OW23812   0.579   3.598   0.991 -0.2538  0.6992  0.5194
40478SOL    HW123813   0.643   3.652   1.037  0.2785  1.6190 -1.1814
40478SOL    HW223814   0.499   3.605   1.043  0.5700  0.8645  1.8094
40479SOL     OW23815   3.946   4.615   8.832 -0.5765  0.1423 -0.6014
40479SOL    HW123816   4.004   4.627   8.757  0.1984  1.1637  0.1311
40479SOL    HW223817   3.934   4.704   8.867 -0.9499 -0.3081  0.4588
40480SOL     OW23818   7.324   8.383   0.956  0.9067  0.5143  0.8670
40480SOL    HW123819   7.278   8.395   0.873  0.5076  1.9555  1.2806
40480SOL    HW223820   7.390   8.315   0.937  0.5324  0.5094 -0.4984
40481SOL     OW23821   8.156   9.136   9.407  0.7117 -0.5923 -0.0627
40481SOL    HW123822   8.063   9.135   9.430  0.9976  0.1985  1.2992
40481SOL    HW223823   8.191   9.055   9.444  0.9398  0.1105  1.3298
40482SOL     OW23824   8.378   9.867   4.754  0.1478  0.2233  0.1011
40482SOL    HW123825   8.370   9.894   4.845  1.1204 -0.4172  0.3985
40482SOL    HW223826   8.301   9.814   4.737 -0.1603  0.5460  0.4802
40483SOL     OW23827   3.389   8.403   8.496 -0.5564  0.0667 -0.2039
40483SOL    HW123828   3.434   8.388   8.579  0.3761 -0.6542 -0.8185
40483SOL    HW223829   3.296   8.405   8.519 -0.2403  1.7530  1.1182
40484SOL     OW23830   4.157   1.719   9.913  0.4935 -0.0495  0.0765
40484SOL    HW123831   4.215   1.774   9.965  1.1112 -1.2583  0.7019
40484SOL    HW223832   4.125   1.777   9.843  1.5599  0.9384  0.3781
40485SOL     OW23833   9.675   1.230   9.641  0.4060 -0.6245  0.4926
40485SOL    HW123834   9.761   1.188   9.632  0.4267 -0.2242 -1.5654
40485SOL    HW223835   9.668   1.287   9.565  0.1501  2.7811  2.8669
40486SOL     OW23836   7.186   1.975  10.636  0.1001  0.3063 -0.0307
40486SOL    HW123837   7.178   1.992  10.730  1.6428  1.3968 -0.0431
40486SOL    HW223838   7.164   2.059  10.594  0.1426  0.0461 -0.5817
40487SOL     OW23839   0.556   3.273   2.809  0.1223  0.2004  0.3895
40487SOL    HW123840   0.596   3.302   2.728  0.0873 -1.6186 -0.3280
40487SOL    HW223841   0.498   3.202   2.783  0.1944 -0.5082  2.0265
40488SOL     OW23842   1.686   7.505  10.247 -0.2369 -0.0746 -0.5089
40488SOL    HW123843   1.611   7.485  10.191 -1.0283 -0.5312  0.6740
40488SOL    HW223844   1.752   7.540  10.187 -1.1467 -0.2905 -1.6749
40489SOL     OW23845   4.654   3.520   1.351 -0.5681  0.1093  0.1286
40489SOL    HW123846   4.650   3.571   1.432  0.5932 -1.8068  1.4650
40489SOL    HW223847   4.563   3.498   1.332 -0.7117 -1.9569  2.6863
40490SOL     OW23848   3.096   5.101   4.438 -0.8835 -0.0475  0.1258
40490SOL    HW123849   3.005   5.098   4.407 -0.8644 -0.0450  0.0690
40490SOL    HW223850   3.132   5.180   4.398 -1.8892  2.0245  2.9988
40491SOL     OW23851   4.549   6.795  10.743 -0.2341  0.2229 -0.0986
40491SOL    HW123852   4.521   6.724  10.685 -0.3213  0.1104  0.0815
40491SOL    HW223853   4.637   6.818  10.712  0.2195 -0.6705  0.4982
40492SOL     OW23854   9.462   9.344   1.025  0.6748 -0.5853  0.5167
40492SOL    HW123855   9.385   9.364   0.971  0.1066 -3.0136  0.3260
40492SOL    HW223856   9.532   9.328   0.961  1.3793  1.4651  0.6871
40493SOL     OW23857   5.358   2.889   8.726 -0.1809 -0.6381 -0.3444
40493SOL    HW123858   5.314   2.973   8.736 -0.8745 -0.7806 -1.8855
40493SOL    HW223859   5.288   2.824   8.734 -0.5748 -0.8241 -3.9139
40494SOL     OW23860   2.237   4.321   3.028 -0.1593 -0.1564 -0.1865
40494SOL    HW123861   2.225   4.413   3.005  0.3049 -0.3975 -1.4792
40494SOL    HW223862   2.187   4.273   2.963 -0.7645 -0.8225  0.7432
40495SOL     OW23863   1.394  10.504   1.259  0.4541 -0.3347 -0.5957
40495SOL    HW123864   1.354  10.417   1.266  0.6190 -0.4134 -0.6210
40495SOL    HW223865   1.355  10.554   1.330  0.0196 -0.2955 -0.8540
40496SOL     OW23866   8.658   8.159   0.950  0.2972 -0.6206  0.1186
40496SOL    HW123867   8.640   8.252   0.937  3.4174  0.1559  0.4982
40496SOL    HW223868   8.679   8.151   1.043  0.6382 -1.5813 -0.0233
40497SOL     OW23869   5.791   1.551   6.785 -0.0527  0.3496 -0.0843
40497SOL    HW123870   5.852   1.508   6.725 -1.4167 -0.2109 -1.0905
40497SOL    HW223871   5.738   1.480   6.822  0.5863  0.7086  1.6334
40498SOL     OW23872   7.849   4.967   0.882 -0.4212  0.2394  0.4172
40498SOL    HW123873   7.774   4.973   0.941 -0.9912 -1.3804 -0.0861
40498SOL    HW223874   7.817   4.916   0.807  0.3805  1.9435 -1.1508
40499SOL     OW23875   9.613  10.752   5.490  0.5891 -0.0353  0.3137
40499SOL    HW123876   9.563  10.830   5.514  1.3699  0.9675 -1.1122
40499SOL    HW223877   9.695  10.787   5.453  1.4878 -1.5742  0.7631
40500SOL     OW23878   0.849   0.354  10.678  0.6226  0.2486 -0.4117
40500SOL    HW123879   0.821   0.271  10.717 -1.5535  0.3553 -1.5757
40500SOL    HW223880   0.823   0.421  10.742  0.2543  0.1840 -0.4924
40501SOL     OW23881   6.044   4.932   0.968  0.6400  0.1896  0.2344
40501SOL    HW123882   5.978   4.957   0.903 -0.2033 -1.5627  0.3589
40501SOL    HW223883   6.115   4.894   0.917  0.2922 -0.5264  0.2728
40502SOL     OW23884   7.158   5.814   1.186 -0.6741  0.2751 -0.0875
40502SOL    HW123885   7.210   5.798   1.265 -1.0175 -1.6252 -0.2101
40502SOL    HW223886   7.097   5.883   1.213  0.5307  1.0858  0.6760
40503SOL     OW23887   1.494   7.526   9.166  0.3092 -0.4591  0.3954
40503SOL    HW123888   1.401   7.527   9.142  0.7154  3.2063 -1.7103
40503SOL    HW223889   1.540   7.507   9.085  1.4567  0.7007  0.7327
40504SOL     OW23890   7.650  10.272   6.158  0.2066  0.0568 -0.0520
40504SOL    HW123891   7.657  10.305   6.068  0.5469 -0.7388 -0.3210
40504SOL    HW223892   7.727  10.217   6.169 -0.7498 -1.2773  0.1245
40505SOL     OW23893   8.127  10.237   0.593 -0.2647 -0.2702  0.5319
40505SOL    HW123894   8.217  10.269   0.600 -0.0718 -0.1486 -1.7128
40505SOL    HW223895   8.133  10.165   0.531 -1.5615 -1.0281  1.2594
40506SOL     OW23896   4.085   2.110   8.301  0.0437  0.3861 -0.3917
40506SOL    HW123897   4.064   2.018   8.312  2.8541 -0.2875  0.1323
40506SOL    HW223898   4.096   2.143   8.390  0.4271  0.8350 -0.5994
40507SOL     OW23899   3.622   3.263   2.944 -0.1893 -0.6524 -0.2720
40507SOL    HW123900   3.650   3.172   2.955 -0.4731 -0.6306  0.7669
40507SOL    HW223901   3.530   3.256   2.915  0.1671 -0.6969 -1.4424
40508SOL     OW23902   9.176   2.543   3.084 -0.7806 -0.6228 -0.1618
40508SOL    HW123903   9.111   2.512   3.147  0.6357 -1.5100  0.9368
40508SOL    HW223904   9.256   2.554   3.136  0.4535 -1.4429 -1.7999
40509SOL     OW23905   9.381   7.274   2.285 -0.0570  0.0381 -0.9334
40509SOL    HW123906   9.319   7.323   2.230 -0.7351  0.2143 -0.0395
40509SOL    HW223907   9.325   7.228   2.348  0.5658 -1.7588 -1.6175
40510SOL     OW23908   0.861   5.958   8.449  0.2361  0.4151  0.0541
40510SOL    HW123909   0.805   5.882   8.466  0.8998 -0.3931 -1.1927
40510SOL    HW223910   0.800   6.029   8.433 -0.5983 -0.7514 -2.7085
40511SOL     OW23911   5.337   0.079   9.458  0.1511  0.0737  0.0402
40511SOL    HW123912   5.398   0.005   9.462 -0.5744 -0.5225  0.4572
40511SOL    HW223913   5.380   0.149   9.506  1.2524  0.2419 -1.1365
40512SOL     OW23914   8.349   2.155   2.151 -0.3369  0.6311  0.8624
40512SOL    HW123915   8.270   2.197   2.184 -0.2016  0.1227  1.8921
40512SOL    HW223916   8.395   2.126   2.230 -0.5379 -1.6203  0.2379
40513SOL     OW23917   2.686   2.798   0.304 -0.3170  0.3009 -0.5275
40513SOL    HW123918   2.680   2.729   0.370  0.0487  0.7912  0.0325
40513SOL    HW223919   2.705   2.753   0.222 -1.4338 -0.3794 -0.4356
40514SOL     OW23920   3.606   5.011   0.270 -0.2171 -0.2589 -0.0998
40514SOL    HW123921   3.684   4.962   0.243 -1.6035 -2.0345 -1.1635
40514SOL    HW223922   3.637   5.068   0.341  2.1068 -0.5863 -0.7497
40515SOL     OW23923   4.546   0.904   7.062  0.2435  0.2529 -0.7461
40515SOL    HW123924   4.509   0.889   6.974 -0.2532  0.8763 -0.6570
40515SOL    HW223925   4.470   0.928   7.115  0.6829  0.9198 -0.4013
40516SOL     OW23926   8.893   8.933   2.388 -0.3438  0.2906  0.0448
40516SOL    HW123927   8.923   8.871   2.455 -0.3006  0.4970  0.2166
40516SOL    HW223928   8.945   8.912   2.311 -0.4870 -0.0377  0.0357
40517SOL     OW23929   7.789   2.800   3.310 -0.0137  0.2841  0.5336
40517SOL    HW123930   7.777   2.860   3.383 -0.8394 -0.6679  1.2077
40517SOL    HW223931   7.701   2.776   3.283  0.2913 -0.1283 -0.1331
40518SOL     OW23932   6.365   3.607   8.091  0.5217 -0.0139  0.0500
40518SOL    HW123933   6.291   3.658   8.057 -0.6501 -0.9370  1.1403
40518SOL    HW223934   6.431   3.673   8.113  0.7281  0.7416 -2.4308
40519SOL     OW23935   1.295  10.563   9.452 -0.1942 -0.1822  0.0945
40519SOL    HW123936   1.239  10.489   9.475 -1.2442  0.6857  0.3950
40519SOL    HW223937   1.235  10.632   9.424  0.7155  0.7874  0.4455
40520SOL     OW23938   0.654   7.916   3.761  0.8460 -0.0256 -0.8894
40520SOL    HW123939   0.617   7.873   3.683  0.7344  0.2260 -0.9766
40520SOL    HW223940   0.647   8.009   3.742 -0.5501  0.0908  0.0289
40521SOL     OW23941   7.061   7.341   5.964 -0.1753  0.6396  0.3226
40521SOL    HW123942   7.120   7.267   5.949 -0.3634  0.4485  0.5226
40521SOL    HW223943   7.042   7.338   6.058 -0.5704  0.6543  0.2423
40522SOL     OW23944   3.122   1.291   0.247  0.0413 -0.0563 -0.2364
40522SOL    HW123945   3.205   1.291   0.294  0.3662  0.4130 -0.7884
40522SOL    HW223946   3.055   1.296   0.315  0.4084 -1.7178  0.2820
40523SOL     OW23947   3.961   2.394   2.103  0.1396 -0.0314  0.3489
40523SOL    HW123948   4.013   2.464   2.142 -0.9102  1.9190 -1.5245
40523SOL    HW223949   4.001   2.379   2.018 -1.4458  0.4945 -0.5276
40524SOL     OW23950   9.956   0.906   3.408 -0.0507  0.1622 -0.3234
40524SOL    HW123951   9.997   0.928   3.491  0.0553  0.9648 -0.5785
40524SOL    HW223952   9.864   0.891   3.430 -0.0368  0.4362 -0.0641
40525SOL     OW23953   3.292   4.720   6.453 -0.4800  0.9341 -0.3860
40525SOL    HW123954   3.291   4.812   6.480  2.0804  1.0419 -0.3942
40525SOL    HW223955   3.340   4.675   6.522 -1.2138 -0.3316 -0.6577
40526SOL     OW23956   7.099   2.728   5.533  0.3673 -0.4001  0.4050
40526SOL    HW123957   7.141   2.807   5.500  0.9071 -0.3101  1.2495
40526SOL    HW223958   7.131   2.658   5.476  0.6607 -0.1456  0.2548
40527SOL     OW23959  10.069  10.014   2.918 -0.4935 -0.4782  0.1903
40527SOL    HW123960  10.064  10.098   2.964  2.3399 -0.5808  0.8767
40527SOL    HW223961   9.988   9.969   2.942 -0.5088  0.6729  2.6542
40528SOL     OW23962   4.443   3.804   2.590  0.4524  0.0991  0.2870
40528SOL    HW123963   4.435   3.761   2.505 -0.8069 -0.4538  0.6549
40528SOL    HW223964   4.462   3.895   2.569  0.8375 -0.1609 -0.5611
40529SOL     OW23965   7.308   7.803   8.249  0.3435  0.1480  0.1803
40529SOL    HW123966   7.341   7.891   8.230  0.9698  0.3408  2.0365
40529SOL    HW223967   7.335   7.751   8.173  0.9421  1.2879 -0.4221
40530SOL     OW23968   5.670   3.847   6.667 -0.3454 -0.5633  0.3522
40530SOL    HW123969   5.658   3.803   6.751 -1.6843 -0.5206  0.2094
40530SOL    HW223970   5.617   3.795   6.606 -1.5365  0.9048  0.0721
40531SOL     OW23971   4.789   2.649   1.963 -0.5349 -0.5040  0.6284
40531SOL    HW123972   4.822   2.606   1.884  0.4965  0.2144  0.6520
40531SOL    HW223973   4.694   2.647   1.953 -0.4545 -1.4172 -0.0957
40532SOL     OW23974   5.727   2.536   7.715  0.1272 -0.3765 -0.2155
40532SOL    HW123975   5.755   2.608   7.659  0.2054 -0.8222 -0.7533
40532SOL    HW223976   5.791   2.467   7.702  0.0735 -0.5395  0.3248
40533SOL     OW23977   4.222   3.411   6.478 -0.7913  0.3758 -0.1279
40533SOL    HW123978   4.282   3.477   6.513 -1.4802  1.1861 -0.4263
40533SOL    HW223979   4.156   3.462   6.430  0.2792 -0.6618 -2.8945
40534SOL     OW23980   3.706   4.898   5.102 -0.0273 -0.1431  0.1457
40534SOL    HW123981   3.796   4.916   5.129  0.4900 -1.0179 -0.9238
40534SOL    HW223982   3.709   4.809   5.066 -1.5941 -0.7285  1.3089
40535SOL     OW23983   8.815   0.689   7.272 -0.1141  0.9488 -0.0131
40535SOL    HW123984   8.843   0.745   7.199  1.5227  1.9604  1.3197
40535SOL    HW223985   8.896   0.650   7.304 -0.9088 -0.0296  0.8363
40536SOL     OW23986   8.462   4.168   2.941  0.4319 -0.7407 -0.1601
40536SOL    HW123987   8.506   4.141   3.022  0.7143  0.1379 -0.0123
40536SOL    HW223988   8.533   4.178   2.878  0.1836 -1.6975 -0.6074
40537SOL     OW23989   5.098   5.431   4.925  0.9219 -0.0244  0.3557
40537SOL    HW123990   5.123   5.413   4.835 -1.0169 -0.4574 -0.1282
40537SOL    HW223991   5.125   5.522   4.940  0.7930  0.2177 -0.8290
40538SOL     OW23992   3.219   2.794   3.326 -0.4539 -0.1150 -0.0946
40538SOL    HW123993   3.180   2.800   3.414 -1.9641 -0.6753 -0.6958
40538SOL    HW223994   3.192   2.874   3.282 -3.4927 -1.7653 -1.4641
40539SOL     OW23995   8.034   2.548   7.131 -0.0198  0.1006 -0.1165
40539SOL    HW123996   8.070   2.625   7.087 -0.3606 -0.0111 -0.6051
40539SOL    HW223997   7.975   2.509   7.066 -3.1399  1.7688  1.4768
40540SOL     OW23998   9.650   3.426   6.993  0.2650  0.4728  0.4558
40540SOL    HW123999   9.737   3.462   6.977  0.7061 -0.4809  0.6136
40540SOL    HW224000   9.651   3.402   7.086 -0.4867  1.2585  0.6856
40541SOL     OW24001   2.408   0.525   8.735  0.0094  0.0752 -0.2472
40541SOL    HW124002   2.395   0.469   8.658 -1.9561 -1.3652  1.0378
40541SOL    HW224003   2.483   0.486   8.780  0.3691  0.1568 -0.7648
40542SOL     OW24004   5.306   5.320   3.414  0.3250  0.2458 -0.3601
40542SOL    HW124005   5.344   5.245   3.368  2.0605  1.0280 -0.2754
40542SOL    HW224006   5.238   5.282   3.469  1.8402 -1.4362  0.4742
40543SOL     OW24007   8.999   8.749   3.051  0.5911 -0.3448 -0.6098
40543SOL    HW124008   8.918   8.799   3.048  0.3337 -0.8133 -2.3580
40543SOL    HW224009   9.053   8.796   3.115  0.6083  2.6213 -2.5819
40544SOL     OW24010   3.841   3.401   6.511  0.5419  0.5951  0.2346
40544SOL    HW124011   3.911   3.406   6.576 -0.9327 -1.7191  2.1842
40544SOL    HW224012   3.819   3.308   6.506 -2.2987  1.1987 -0.3472
40545SOL     OW24013   3.227   6.813   1.238 -0.0791  0.0525 -0.0084
40545SOL    HW124014   3.201   6.852   1.155  0.3163 -0.5424 -0.4226
40545SOL    HW224015   3.162   6.744   1.254 -0.4165  0.4614  0.4075
40546SOL     OW24016   8.449   7.964   0.244  0.1212 -0.0655  0.3652
40546SOL    HW124017   8.494   8.023   0.304 -0.1325 -1.4640  2.0259
40546SOL    HW224018   8.386   7.917   0.299 -1.8111  0.2293 -1.4553
40547SOL     OW24019   5.145   6.295   2.852  0.0148 -0.0839  0.3320
40547SOL    HW124020   5.074   6.254   2.900  0.1391  0.6133  1.1356
40547SOL    HW224021   5.224   6.270   2.900  0.1894  0.1894  0.1932
40548SOL     OW24022   7.196   3.340   6.148 -0.6153 -0.0313  0.2802
40548SOL    HW124023   7.253   3.415   6.130 -0.5486 -0.3945 -1.0818
40548SOL    HW224024   7.250   3.282   6.202 -0.2719  0.3782  0.3880
40549SOL     OW24025   9.224   9.569   1.692 -0.0975 -0.1899 -0.0139
40549SOL    HW124026   9.276   9.491   1.672  0.1946 -0.6715  2.3628
40549SOL    HW224027   9.285   9.642   1.680 -0.0736 -0.3743 -1.1941
40550SOL     OW24028   0.740   7.521   2.576  0.2410  0.3932 -0.4444
40550SOL    HW124029   0.812   7.582   2.589  0.4823 -0.1125  0.6882
40550SOL    HW224030   0.668   7.557   2.629 -0.0075  0.3396 -0.7400
40551SOL     OW24031   1.971   2.605   3.014 -0.2495  0.1700  0.0516
40551SOL    HW124032   1.975   2.700   3.023 -1.5433  0.0786  2.4407
40551SOL    HW224033   1.877   2.585   3.012 -0.1708 -1.1960  3.1094
40552SOL     OW24034   9.426   1.676  10.672  0.6965  0.0561  0.5786
40552SOL    HW124035   9.483   1.703  10.744  2.5740  0.0780 -0.8491
40552SOL    HW224036   9.466   1.596  10.638  0.2521  0.4222 -0.8851
40553SOL     OW24037   7.816  10.581   4.317 -0.4557  0.2842  0.1108
40553SOL    HW124038   7.868  10.631   4.254  0.6401 -1.8140 -0.7711
40553SOL    HW224039   7.815  10.635   4.395 -2.2749  3.2329 -1.7554
40554SOL     OW24040   5.289   4.103   5.224 -0.4882 -0.2694 -0.5387
40554SOL    HW124041   5.308   4.022   5.272 -0.6160  0.4081  0.7156
40554SOL    HW224042   5.215   4.082   5.168 -0.0088 -1.2370 -0.8176
40555SOL     OW24043   6.891  10.364   8.467 -0.3025  0.0296  0.0843
40555SOL    HW124044   6.840  10.283   8.466  0.1613 -0.2868 -1.9446
40555SOL    HW224045   6.970  10.344   8.416  1.4902  0.7749  2.3655
40556SOL     OW24046   0.981   8.293   1.426 -0.0543  0.7819  0.0392
40556SOL    HW124047   1.035   8.369   1.406 -0.8907  1.3824  0.0087
40556SOL    HW224048   1.024   8.220   1.380 -0.5395  1.6609 -1.9131
40557SOL     OW24049   8.870   0.065   9.405 -0.1099  0.3057 -0.1107
40557SOL    HW124050   8.806   0.129   9.374 -0.3348 -0.1569 -0.6166
40557SOL    HW224051   8.818  -0.007   9.440  0.1377  0.0275 -0.3076
40558SOL     OW24052   7.938   3.915   4.869  0.0246  0.7389  0.2482
40558SOL    HW124053   7.984   3.999   4.871 -2.1382  2.0749  3.2195
40558SOL    HW224054   7.848   3.937   4.894 -0.5177 -2.5376  1.7265
40559SOL     OW24055   3.013   2.473   3.735  0.4495 -0.3250  0.1525
40559SOL    HW124056   3.105   2.496   3.747  0.6634 -0.6786 -0.7710
40559SOL    HW224057   3.004   2.388   3.778  1.2752 -1.7108 -2.2097
40560SOL     OW24058   9.866   0.649   6.820  0.3815  0.4519  0.2158
40560SOL    HW124059   9.835   0.567   6.781 -0.3106 -0.0199  1.6813
40560SOL    HW224060   9.848   0.715   6.753 -0.0374 -0.4204 -0.5724
40561SOL     OW24061   0.721   9.967   0.309  0.5382  0.6399 -0.1672
40561SOL    HW124062   0.768  10.048   0.290  2.5907 -0.4310  0.0893
40561SOL    HW224063   0.628   9.992   0.307  1.1164  3.2098  0.9263
40562SOL     OW24064   3.018   8.524   2.610 -0.0745 -0.0217 -0.2693
40562SOL    HW124065   3.086   8.568   2.660  0.8273  2.4536 -3.3222
40562SOL    HW224066   3.066   8.475   2.542 -1.2732 -0.7768 -0.6107
40563SOL     OW24067  10.676   5.380   9.218  0.8706  0.3462  0.5488
40563SOL    HW124068  10.754   5.401   9.270  1.0823 -1.3758  0.9971
40563SOL    HW224069  10.605   5.425   9.262  1.5306  1.5875  0.3923
40564SOL     OW24070   8.318   0.206   3.352 -1.0431 -0.0095 -0.3347
40564SOL    HW124071   8.353   0.291   3.325 -1.1978  0.1977  0.1051
40564SOL    HW224072   8.385   0.169   3.408 -0.6464 -0.5174 -1.1211
40565SOL     OW24073   6.126   4.580   6.034  0.3688  0.2739  0.8052
40565SOL    HW124074   6.110   4.562   5.941  0.7577  0.7075  0.6470
40565SOL    HW224075   6.041   4.565   6.076  0.0611  0.5461  0.3040
40566SOL     OW24076   3.157   9.411   6.730  0.1712 -0.9812  0.0982
40566SOL    HW124077   3.130   9.494   6.692  1.2596  0.1323  1.5963
40566SOL    HW224078   3.232   9.383   6.677 -0.1752 -0.9934 -0.3859
40567SOL     OW24079   0.884   7.195   7.553 -0.3674  0.0054  0.3788
40567SOL    HW124080   0.869   7.288   7.570  0.0044 -0.1699  1.8300
40567SOL    HW224081   0.957   7.193   7.491 -1.9974  0.6996 -1.6743
40568SOL     OW24082   1.213   2.858   1.242  0.0137  0.2387 -0.2114
40568SOL    HW124083   1.132   2.904   1.265 -0.8291 -1.5007  0.4760
40568SOL    HW224084   1.281   2.925   1.246 -1.5508  2.0875 -2.2753
40569SOL     OW24085   4.439   8.538   7.752  0.1122 -0.0168  0.0636
40569SOL    HW124086   4.397   8.621   7.731 -1.4777 -0.3618  1.6139
40569SOL    HW224087   4.383   8.471   7.712  0.9969 -0.3987 -0.5878
40570SOL     OW24088   3.824   3.775   5.656 -0.1783  0.6919  0.0030
40570SOL    HW124089   3.774   3.842   5.609  1.6504  0.7089 -2.0864
40570SOL    HW224090   3.807   3.694   5.607  0.2908  0.3203  0.4470
40571SOL     OW24091   2.697   4.339   2.543  0.1356  0.3108 -0.1270
40571SOL    HW124092   2.708   4.432   2.525 -0.1591  0.3042 -0.3573
40571SOL    HW224093   2.673   4.301   2.459  1.0330 -0.1068 -0.2119
40572SOL     OW24094  10.511   3.543   8.323  0.2855  0.2129  0.3671
40572SOL    HW124095  10.431   3.510   8.282  0.3074 -1.1696  1.3714
40572SOL    HW224096  10.481   3.598   8.395  0.2375 -0.3763  0.7972
40573SOL     OW24097   6.810   4.378   4.758 -0.1013  0.3657  0.0635
40573SOL    HW124098   6.726   4.346   4.791  0.1550 -0.2841  0.0929
40573SOL    HW224099   6.819   4.337   4.672  0.7293 -0.5218  0.5538
40574SOL     OW24100   4.960   1.899   2.307  0.0897  0.3902  0.1025
40574SOL    HW124101   4.874   1.883   2.347  0.3209  0.6506  0.7047
40574SOL    HW224102   4.989   1.981   2.345  1.1323 -0.2776  0.7913
40575SOL     OW24103   4.523   6.770   8.734  0.4515 -0.2098 -0.0804
40575SOL    HW124104   4.496   6.745   8.646  1.3466  0.5942 -0.6014
40575SOL    HW224105   4.458   6.835   8.762 -0.7594 -1.6233  0.5133
40576SOL     OW24106   9.736   5.332  10.401  0.7310 -0.1861 -0.5563
40576SOL    HW124107   9.721   5.425  10.417 -0.9905 -0.2631 -1.5092
40576SOL    HW224108   9.787   5.329  10.320  1.5677 -0.0766 -0.0506
40577SOL     OW24109   0.189   3.531   6.567 -0.3931 -0.1252 -0.3791
40577SOL    HW124110   0.261   3.519   6.629 -0.5923 -0.5020 -0.2160
40577SOL    HW224111   0.231   3.524   6.481 -0.3798 -1.3943 -0.2960
40578SOL     OW24112   2.525   1.757   2.016  0.6868  0.5040  0.4997
40578SOL    HW124113   2.563   1.699   1.950  1.7793  0.8600  0.7903
40578SOL    HW224114   2.506   1.838   1.968 -0.1146  0.1814  0.2620
40579SOL     OW24115   0.044   3.728   8.590 -0.0159  0.1264  0.2307
40579SOL    HW124116   0.103   3.799   8.563  0.6351  0.4565  2.3065
40579SOL    HW224117   0.076   3.651   8.543  1.3742  0.5441  0.4432
40580SOL     OW24118   8.232   9.981   6.679 -0.0122  0.3951 -0.4775
40580SOL    HW124119   8.317   9.938   6.681  0.2800  0.9585  0.9314
40580SOL    HW224120   8.221  10.016   6.768 -1.3097  1.1066 -0.8874
40581SOL     OW24121   4.523   9.733   3.535 -0.0334  0.3458 -0.0430
40581SOL    HW124122   4.464   9.778   3.596  0.3844  1.4657 -0.4357
40581SOL    HW224123   4.472   9.658   3.503  0.4560 -1.5250  3.1955
40582SOL     OW24124   9.322   0.922   6.942 -0.2989  0.3171  0.0215
40582SOL    HW124125   9.404   0.881   6.914 -0.7377  0.4097 -1.4319
40582SOL    HW224126   9.254   0.861   6.914 -0.9000  1.5350 -1.2489
40583SOL     OW24127  10.035  10.722   3.027  0.0204  0.1996 -0.5473
40583SOL    HW124128   9.953  10.694   2.986 -0.5083  0.3637  0.3882
40583SOL    HW224129  10.024  10.702   3.120  0.9869  0.3617 -0.3877
40584SOL     OW24130   4.496   1.346  10.483  0.4835 -0.0958 -0.5250
40584SOL    HW124131   4.403   1.349  10.460  0.3144 -1.8516 -0.2385
40584SOL    HW224132   4.497   1.351  10.578  0.7199  0.2971 -0.5452
40585SOL     OW24133   1.425   7.422   9.514 -0.0923 -0.0514  0.2669
40585SOL    HW124134   1.421   7.327   9.517  2.5441 -0.2790 -0.7815
40585SOL    HW224135   1.434   7.443   9.421 -2.2229  1.3918  0.3037
40586SOL     OW24136   3.219   1.415   7.524  0.1358 -0.3140  0.1253
40586SOL    HW124137   3.307   1.425   7.487  0.0176 -1.0025 -0.3478
40586SOL    HW224138   3.231   1.433   7.618  0.5094  1.0408 -0.1546
40587SOL     OW24139   2.454   0.685   2.570 -0.2301  0.1173  0.6375
40587SOL    HW124140   2.454   0.635   2.652  1.0168  1.4306  1.4854
40587SOL    HW224141   2.547   0.704   2.554 -0.4715  0.0401 -1.0073
40588SOL     OW24142   8.254   8.517   6.793 -0.3104  0.4107  0.2592
40588SOL    HW124143   8.164   8.529   6.762  0.0945 -1.4461 -1.8697
40588SOL    HW224144   8.304   8.586   6.749  0.1063 -1.6789 -2.8443
40589SOL     OW24145   7.377   3.234   7.964  0.2913  0.1235 -0.1964
40589SOL    HW124146   7.342   3.238   8.053 -0.0945 -1.9311 -0.1998
40589SOL    HW224147   7.301   3.225   7.908  0.5156  1.6979 -0.8071
40590SOL     OW24148   1.804   3.070   7.315  0.1353  0.2629 -0.1025
40590SOL    HW124149   1.886   3.021   7.304  0.3730  0.6191  0.0535
40590SOL    HW224150   1.778   3.093   7.226  1.0605  1.5313 -0.0694
40591SOL     OW24151   2.007   1.111   5.516 -0.1204  0.6533 -0.2238
40591SOL    HW124152   1.969   1.188   5.474 -1.3412 -0.1408 -0.5977
40591SOL    HW224153   1.936   1.074   5.568  0.2665 -0.5742 -0.5391
40592SOL     OW24154   3.342   4.277   9.968 -0.0950  0.0916  0.1432
40592SOL    HW124155   3.334   4.203   9.908  1.2192  0.6348 -0.7421
40592SOL    HW224156   3.399   4.246  10.038  1.5077  0.6093 -0.8760
40593SOL     OW24157   4.497   0.974   5.635 -0.2271 -0.3929 -0.7582
40593SOL    HW124158   4.540   0.892   5.613  0.4595  0.2654 -1.9980
40593SOL    HW224159   4.416   0.974   5.585 -1.0236 -1.0155  0.4998
40594SOL     OW24160   6.607   5.597   3.499  0.1932  0.0671  0.0775
40594SOL    HW124161   6.607   5.502   3.510 -0.3779 -0.1473 -1.5326
40594SOL    HW224162   6.688   5.615   3.452 -0.3600  0.1999 -0.8401
40595SOL     OW24163   2.193   1.068   3.685 -0.0204 -0.1095 -0.0825
40595SOL    HW124164   2.133   1.068   3.760 -0.6203 -0.7834 -0.5402
40595SOL    HW224165   2.252   1.141   3.701 -0.8364  0.4429  0.4973
40596SOL     OW24166   7.327   5.213   8.270  0.0159 -0.2694 -0.1685
40596SOL    HW124167   7.337   5.137   8.328  0.6382  0.0474  0.1537
40596SOL    HW224168   7.289   5.281   8.326 -0.1127 -0.2005 -0.3383
40597SOL     OW24169   5.294   7.915   2.764  0.2326  0.1911 -0.6381
40597SOL    HW124170   5.316   7.988   2.822 -0.1204 -1.0058  1.0367
40597SOL    HW224171   5.200   7.924   2.749 -0.4358 -1.5741  2.0160
40598SOL     OW24172   2.332   1.237   1.813 -0.4611 -0.4330  0.2520
40598SOL    HW124173   2.248   1.281   1.800 -0.6775 -0.8101  0.3417
40598SOL    HW224174   2.349   1.246   1.907 -0.5121 -0.5531  0.2726
40599SOL     OW24175   1.657   0.870   2.186 -0.6121 -0.6068 -0.1045
40599SOL    HW124176   1.672   0.835   2.274  0.6701 -2.1007 -0.8618
40599SOL    HW224177   1.602   0.804   2.143 -2.5463  0.8459  0.0030
40600SOL     OW24178   5.828   1.410   4.624 -0.2154  0.4714  0.3179
40600SOL    HW124179   5.828   1.351   4.548  0.3060 -0.9108  1.3467
40600SOL    HW224180   5.777   1.486   4.595 -1.3356 -0.6839 -0.9132
40601SOL     OW24181   1.989   7.185   7.757 -0.5655 -0.4189  0.1361
40601SOL    HW124182   1.933   7.196   7.834  0.4225 -3.0396  1.3729
40601SOL    HW224183   2.071   7.149   7.793  0.1893 -1.0199 -2.0553
40602SOL     OW24184   4.769   6.278   7.056 -0.1688 -0.1059  0.6225
40602SOL    HW124185   4.826   6.204   7.076  0.1973 -0.0717 -0.2386
40602SOL    HW224186   4.812   6.323   6.983  0.3684  1.7913  2.0148
40603SOL     OW24187  10.016   1.058   0.016 -0.2152  0.3767  0.1968
40603SOL    HW124188  10.002   1.133   0.074 -0.2129  0.6523 -0.1554
40603SOL    HW224189  10.002   1.093  -0.072  2.0672  0.5356 -0.1675
40604SOL     OW24190   8.015   6.031   1.683 -0.3280  0.0730  0.1759
40604SOL    HW124191   8.076   6.103   1.697  1.2200 -0.8466 -1.4761
40604SOL    HW224192   7.962   6.059   1.608 -0.6747  0.0635  0.4125
40605SOL     OW24193   4.932   0.297   2.780  0.0066  0.1291  0.1778
40605SOL    HW124194   4.860   0.317   2.720 -1.2642 -0.6563  1.3769
40605SOL    HW224195   4.901   0.327   2.865 -0.2153 -2.9021  1.2772
40606SOL     OW24196   3.431   8.390   2.496  0.2036  0.2992  0.1905
40606SOL    HW124197   3.398   8.443   2.425  0.5443  0.0998 -0.1216
40606SOL    HW224198   3.358   8.334   2.522  0.6326 -1.0426 -1.3336
40607SOL     OW24199  10.269   4.226   9.449  0.1416 -0.5445  0.5123
40607SOL    HW124200  10.241   4.181   9.369  1.0264  0.3430 -0.3242
40607SOL    HW224201  10.342   4.173   9.482  2.2354  1.0101 -1.3343
40608SOL     OW24202   2.151   1.228   4.465  0.3789  0.4869  0.2132
40608SOL    HW124203   2.239   1.246   4.497 -0.0240  0.6439  1.2758
40608SOL    HW224204   2.146   1.277   4.382  0.9990  1.1799  0.5693
40609SOL     OW24205   5.668   2.351   7.095  0.2835 -0.3490  0.0998
40609SOL    HW124206   5.713   2.349   7.179 -1.4140  1.7593  1.1644
40609SOL    HW224207   5.617   2.271   7.093  0.0357 -0.2419  1.2929
40610SOL     OW24208   0.078   0.857   1.960  0.0449 -0.3348 -0.5267
40610SOL    HW124209  -0.004   0.885   2.002  0.9215  0.7658  0.5339
40610SOL    HW224210   0.106   0.934   1.910 -0.0212 -1.0164 -1.6245
40611SOL     OW24211   4.023   3.510   7.356  0.0255  0.1906  0.3093
40611SOL    HW124212   4.078   3.586   7.371  0.3232 -0.3078  1.9993
40611SOL    HW224213   4.002   3.513   7.263  0.8937  1.7367  0.1338
40612SOL     OW24214   7.982   1.949   6.181  0.1498  0.0952  0.1846
40612SOL    HW124215   7.934   2.025   6.216  0.8323  0.3229  0.6520
40612SOL    HW224216   7.946   1.874   6.229  0.1635  0.2502  0.4401
40613SOL     OW24217   1.952   3.032   8.846 -0.1769 -0.1799  0.2746
40613SOL    HW124218   2.009   3.081   8.786  0.9853  0.9273  2.1973
40613SOL    HW224219   1.920   2.958   8.793  0.8070  0.7158 -1.6800
40614SOL     OW24220   8.893   0.423   9.604 -0.2445  0.1905  0.0881
40614SOL    HW124221   8.977   0.394   9.639  0.5988  2.7781  0.3931
40614SOL    HW224222   8.837   0.433   9.681 -0.5979 -0.7431 -0.0357
40615SOL     OW24223   8.383   8.393   0.623 -0.0761 -0.0348 -0.0185
40615SOL    HW124224   8.415   8.481   0.644 -0.5388  0.2553 -0.5012
40615SOL    HW224225   8.365   8.353   0.709  0.4399  0.2205  0.2117
40616SOL     OW24226   8.422   9.298   8.067  0.7145 -0.3391 -0.2119
40616SOL    HW124227   8.366   9.360   8.114 -0.2237 -1.0661 -0.3156
40616SOL    HW224228   8.495   9.280   8.126  0.3482 -0.0680  0.3258
40617SOL     OW24229   1.030   2.430   8.050  0.0709  0.0750  0.2822
40617SOL    HW124230   0.997   2.405   7.963 -1.3018  0.7972  0.5524
40617SOL    HW224231   0.964   2.492   8.082  1.8400  1.7671  0.8056
40618SOL     OW24232   9.282   1.353   5.950  0.4012 -0.1057  0.1910
40618SOL    HW124233   9.294   1.351   5.855  2.3368  0.0251  0.3929
40618SOL    HW224234   9.199   1.399   5.963 -0.0484 -0.3867 -1.4316
40619SOL     OW24235   1.630   5.713  10.777  0.2118  0.0674 -0.5578
40619SOL    HW124236   1.549   5.757  10.751 -0.4069 -1.3917 -1.1738
40619SOL    HW224237   1.609   5.620  10.776  1.7902 -0.3282 -0.3172
40620SOL     OW24238   2.670   9.534   9.787 -0.6128 -0.6919  0.1056
40620SOL    HW124239   2.630   9.588   9.855 -0.4862  0.2208 -0.5366
40620SOL    HW224240   2.758   9.571   9.777 -0.3681 -1.3031 -0.0286
40621SOL     OW24241   7.273   9.197   6.219  0.0334  0.3416 -0.4859
40621SOL    HW124242   7.367   9.199   6.236 -0.0102 -1.5222  0.2316
40621SOL    HW224243   7.244   9.287   6.233  1.3735  0.5442  1.3820
40622SOL     OW24244   4.478   8.856   2.675 -0.0928  0.0013  0.0604
40622SOL    HW124245   4.562   8.824   2.707 -0.8539 -0.7476  1.3920
40622SOL    HW224246   4.422   8.778   2.673 -0.6085  0.3835 -1.3576
40623SOL     OW24247   4.686   0.140   1.408  0.1279 -0.1759 -0.5216
40623SOL    HW124248   4.744   0.158   1.333 -1.1431  0.5781 -1.3725
40623SOL    HW224249   4.732   0.177   1.483  1.9532 -1.9048 -0.6872
40624SOL     OW24250   8.441   3.558   0.880  0.7305  0.3387  0.2920
40624SOL    HW124251   8.533   3.531   0.870  0.3972 -0.1058 -2.2324
40624SOL    HW224252   8.398   3.484   0.920  1.2076 -0.0165  0.1580
40625SOL     OW24253  10.238   6.906  10.685  0.6311 -0.0819 -0.2996
40625SOL    HW124254  10.266   6.923  10.775 -0.7203 -0.3508  0.1963
40625SOL    HW224255  10.319   6.897  10.636  1.3959  0.8405  0.7432
40626SOL     OW24256   4.788   7.389   1.160 -0.3567  0.1222 -0.1575
40626SOL    HW124257   4.758   7.466   1.208 -1.2451 -0.5656  0.4422
40626SOL    HW224258   4.784   7.318   1.224  3.0317  0.0093  0.0900
40627SOL     OW24259   9.835   4.072   6.719  0.3509 -0.1653  0.1005
40627SOL    HW124260   9.798   4.037   6.800 -0.4448  1.6810  0.5900
40627SOL    HW224261   9.861   4.161   6.741 -1.7602  1.1229 -2.1474
40628SOL     OW24262   8.328   1.546   6.179 -0.0679 -0.0245  0.5949
40628SOL    HW124263   8.343   1.604   6.105  1.2857  0.4641  1.2123
40628SOL    HW224264   8.246   1.502   6.159  0.5189 -0.2956 -1.4312
40629SOL     OW24265   2.146   2.376   8.070  0.8659 -0.0633 -0.2991
40629SOL    HW124266   2.232   2.412   8.049  1.0693  0.3536  1.1715
40629SOL    HW224267   2.135   2.304   8.007  2.0221  0.2506 -0.8959
40630SOL     OW24268   9.651   6.182   7.682  0.0848 -0.3486  0.1252
40630SOL    HW124269   9.640   6.116   7.614  1.2605 -1.7760  1.2601
40630SOL    HW224270   9.562   6.206   7.707 -0.3599 -0.5020 -1.2134
40631SOL     OW24271   3.608   5.745   9.656  0.2703 -0.0830 -0.1742
40631SOL    HW124272   3.692   5.791   9.648  0.9287 -1.4607 -1.6905
40631SOL    HW224273   3.555   5.780   9.584 -0.0709 -0.0044  0.1155
40632SOL     OW24274   6.210   3.149   2.054 -0.2315 -0.6557  0.1615
40632SOL    HW124275   6.259   3.083   2.102 -0.4447 -0.7751  0.2143
40632SOL    HW224276   6.268   3.175   1.983  0.3759  0.0489  0.9004
40633SOL     OW24277   9.150   5.591   9.051  0.5924 -0.3502  0.4184
40633SOL    HW124278   9.190   5.535   8.985  0.0727  0.1256 -0.3263
40633SOL    HW224279   9.220   5.652   9.076  0.1681  1.0232 -1.4916
40634SOL     OW24280   4.273   6.712   6.670  0.4569 -0.0846 -0.5531
40634SOL    HW124281   4.182   6.701   6.643  0.4634 -1.5804 -0.0323
40634SOL    HW224282   4.287   6.645   6.736  1.7446  0.5911 -0.1065
40635SOL     OW24283   0.700   9.189   3.416  0.2499 -0.2374  0.3680
40635SOL    HW124284   0.669   9.276   3.441 -0.7990 -0.3693 -0.4070
40635SOL    HW224285   0.666   9.131   3.484  1.1621 -0.0350  1.0246
40636SOL     OW24286   7.227   2.810   6.832 -0.2674  0.4999  0.0809
40636SOL    HW124287   7.263   2.726   6.803  0.8426  1.2651 -0.8116
40636SOL    HW224288   7.175   2.840   6.758 -0.2345  0.8464  0.1981
40637SOL     OW24289   7.259   3.361   8.180 -0.1981 -0.0738 -0.3571
40637SOL    HW124290   7.181   3.321   8.220 -0.3755  0.2265 -0.3980
40637SOL    HW224291   7.300   3.409   8.252 -0.9652  1.1430 -0.7163
40638SOL     OW24292   2.336   3.645   4.617 -0.2651  0.0946  0.4517
40638SOL    HW124293   2.420   3.630   4.661 -0.7851  1.1288  1.8845
40638SOL    HW224294   2.300   3.558   4.601  0.3686 -0.3211  1.2663
40639SOL     OW24295   3.419   6.403   7.027  0.0547 -0.0787  0.1017
40639SOL    HW124296   3.324   6.396   7.020  0.1407 -1.6256 -0.0087
40639SOL    HW224297   3.446   6.322   7.071  1.1857  1.1012  1.7035
40640SOL     OW24298   2.015   9.069   1.676  0.3856 -0.3770 -0.3248
40640SOL    HW124299   1.928   9.049   1.710  1.4640  0.5794  3.3761
40640SOL    HW224300   2.002   9.146   1.620 -1.0291  0.3993  1.0174
40641SOL     OW24301   4.254   8.070   4.044  0.0581 -0.0482 -0.1627
40641SOL    HW124302   4.190   8.123   4.091 -0.0269 -0.9963  0.8319
40641SOL    HW224303   4.202   8.024   3.977 -0.4037 -1.0975  0.8767
40642SOL     OW24304   7.642   1.669   8.387 -0.0586 -0.5427 -0.4897
40642SOL    HW124305   7.593   1.640   8.464 -2.7412  2.1121 -1.0362
40642SOL    HW224306   7.594   1.633   8.313 -0.2923  0.7526 -0.9976
40643SOL     OW24307  10.479   3.348   5.999  0.1690  0.0106 -0.0062
40643SOL    HW124308  10.487   3.355   5.904 -0.1477 -0.3083 -0.0593
40643SOL    HW224309  10.549   3.404   6.033  0.9579 -0.6712 -0.4348
40644SOL     OW24310   4.916   7.486   8.018 -0.5457 -0.2193 -0.0494
40644SOL    HW124311   4.826   7.482   7.987 -0.3110 -1.2525 -0.6479
40644SOL    HW224312   4.935   7.396   8.047  0.9400 -0.5650 -1.8751
40645SOL     OW24313   7.473   3.632  10.456 -0.1882 -0.4049 -0.2397
40645SOL    HW124314   7.391   3.599  10.494 -0.7830 -0.6353 -1.6841
40645SOL    HW224315   7.541   3.595  10.513 -0.9775 -1.9125 -0.2149
40646SOL     OW24316   5.851   8.929   7.723  0.4022 -0.3013  0.0448
40646SOL    HW124317   5.785   8.907   7.657 -0.4240 -0.0016  0.7485
40646SOL    HW224318   5.827   9.016   7.754  2.3195  0.7044 -1.0916
40647SOL     OW24319   9.479   4.514   6.654 -0.2406  0.4195 -0.0539
40647SOL    HW124320   9.503   4.462   6.577  0.1769  0.3024  0.1513
40647SOL    HW224321   9.401   4.562   6.627 -1.5453 -1.4407  0.2265
40648SOL     OW24322  10.076   5.204   2.808 -0.4824  0.3856 -0.0720
40648SOL    HW124323  10.011   5.200   2.738  0.4772 -2.7095 -0.9402
40648SOL    HW224324  10.116   5.291   2.798 -2.3564  1.1449 -1.4658
40649SOL     OW24325   9.219   9.844   7.028  0.1932  0.2298  0.0043
40649SOL    HW124326   9.311   9.857   7.050  0.4971  0.0251 -1.0586
40649SOL    HW224327   9.199   9.755   7.057  0.5977 -0.0571 -0.5815
40650SOL     OW24328  10.044   8.854   1.365  0.6647 -0.2965 -0.0685
40650SOL    HW124329  10.095   8.906   1.427  0.5284 -0.2554  0.0084
40650SOL    HW224330   9.953   8.867   1.392  0.6887 -1.5945  0.7605
40651SOL     OW24331   5.847   7.891   0.581 -0.0939 -0.0392 -0.2766
40651SOL    HW124332   5.871   7.829   0.513 -0.6106 -0.4069 -0.1314
40651SOL    HW224333   5.836   7.838   0.660 -2.2346 -0.0576 -0.5211
40652SOL     OW24334   1.360   3.163   5.357  0.5360 -0.6760  0.0192
40652SOL    HW124335   1.353   3.218   5.436  0.8998  0.6889 -0.8766
40652SOL    HW224336   1.452   3.166   5.333  0.3965 -0.9474 -0.5711
40653SOL     OW24337   6.917   4.848   9.445 -0.0474  0.2424 -0.2062
40653SOL    HW124338   6.976   4.842   9.520 -0.3519  0.5623  0.0622
40653SOL    HW224339   6.874   4.762   9.441  0.5079 -0.0268 -0.4677
40654SOL     OW24340   4.685   5.613  10.231 -0.0159 -0.7783  0.0620
40654SOL    HW124341   4.662   5.599  10.323  1.9216  0.6942  0.8493
40654SOL    HW224342   4.778   5.588  10.225  0.2034  0.1954 -1.2152
40655SOL     OW24343   9.059   8.860   6.254  0.4891 -0.3280  0.0165
40655SOL    HW124344   9.147   8.839   6.223 -0.2568 -2.9451 -0.6120
40655SOL    HW224345   9.055   8.822   6.342  0.5477  1.4577  0.8280
40656SOL     OW24346   0.612   9.014   7.581 -0.0748  0.5526 -0.0772
40656SOL    HW124347   0.524   9.051   7.589 -0.3166 -0.1966  0.8804
40656SOL    HW224348   0.607   8.929   7.624  0.8380 -0.0047 -1.0021
40657SOL     OW24349   8.541   7.193   4.471  0.0865 -0.5802 -0.1162
40657SOL    HW124350   8.612   7.251   4.444 -1.5501  1.3551 -0.4648
40657SOL    HW224351   8.473   7.205   4.404 -1.0995 -1.3653  0.9049
40658SOL     OW24352   5.538  10.649   1.181 -0.6472 -0.3196 -0.1753
40658SOL    HW124353   5.591  10.702   1.240  1.7587 -1.4757 -1.1979
40658SOL    HW224354   5.518  10.570   1.231 -0.8443 -0.1766 -0.0252
40659SOL     OW24355   0.136   3.500   5.039  0.0145 -0.0926  0.1801
40659SOL    HW124356   0.214   3.545   5.007  2.2694 -2.1024  2.4463
40659SOL    HW224357   0.151   3.408   5.018 -0.3360 -0.9085  3.1632
40660SOL     OW24358  10.280   5.346   3.987 -0.0242  0.4562 -0.1774
40660SOL    HW124359  10.363   5.390   3.969 -0.0609  1.0778  1.0876
40660SOL    HW224360  10.214   5.399   3.941 -0.1201  2.0225  1.6723
40661SOL     OW24361   5.301   5.129   1.164 -0.2194  0.1291  0.2325
40661SOL    HW124362   5.244   5.092   1.231  0.4918 -0.7386  0.3685
40661SOL    HW224363   5.256   5.209   1.136 -1.3304 -0.3616  0.5681
40662SOL     OW24364   4.149   3.323   6.138  0.2152 -0.3032 -0.3124
40662SOL    HW124365   4.227   3.270   6.123  0.3843  0.3946 -2.0862
40662SOL    HW224366   4.182   3.405   6.175  0.1105 -0.7610  0.8317
40663SOL     OW24367   7.227   3.846  10.559  0.2894 -0.4903  0.7938
40663SOL    HW124368   7.185   3.838  10.645  0.3123 -1.1714  0.7489
40663SOL    HW224369   7.235   3.940  10.545 -0.2596 -0.3660  1.2745
40664SOL     OW24370   5.542   9.110   1.059 -0.2801 -0.1634 -0.2954
40664SOL    HW124371   5.570   9.201   1.061 -0.9907  0.0513  0.5763
40664SOL    HW224372   5.598   9.065   1.121  0.8043 -0.5672 -1.5172
40665SOL     OW24373   9.812   8.876   1.877 -0.5347  0.8214 -0.1498
40665SOL    HW124374   9.750   8.809   1.849  0.9452 -0.0286 -1.5606
40665SOL    HW224375   9.893   8.855   1.830  1.4598  0.7385  3.0111
40666SOL     OW24376   8.121   6.550   3.704 -0.3102 -0.0012 -0.1389
40666SOL    HW124377   8.157   6.583   3.787  0.4574  2.6021 -1.3838
40666SOL    HW224378   8.198   6.525   3.653 -0.7222 -0.7108 -0.4202
40667SOL     OW24379   8.634   6.364   3.265 -0.4860 -0.4136 -0.1260
40667SOL    HW124380   8.600   6.336   3.350 -1.3817 -1.5291 -0.8387
40667SOL    HW224381   8.648   6.283   3.216 -0.4445  0.2363 -1.2316
40668SOL     OW24382   5.937   6.718   6.030  0.4296  0.0781  0.2742
40668SOL    HW124383   5.978   6.802   6.008  1.4860 -0.3433  0.5983
40668SOL    HW224384   5.847   6.742   6.055  0.6158  1.0700  0.0522
40669SOL     OW24385   8.061  10.591   9.441 -0.6864  0.0560 -0.6308
40669SOL    HW124386   8.068  10.536   9.363  0.7578 -1.0382  0.2231
40669SOL    HW224387   7.987  10.554   9.490 -0.1614 -0.7127 -0.3986
40670SOL     OW24388   6.246   0.437   3.644 -0.0173  0.2245  0.3442
40670SOL    HW124389   6.203   0.417   3.727  0.8571 -2.6864  0.2230
40670SOL    HW224390   6.245   0.354   3.596  1.1297  1.3531 -1.7980
40671SOL     OW24391   9.930   1.076   6.355 -0.5859  0.0757 -0.0586
40671SOL    HW124392   9.860   1.141   6.360 -1.8177 -1.0679 -1.5228
40671SOL    HW224393   9.887   0.994   6.379  0.5391 -0.4845  0.0936
40672SOL     OW24394   8.040   8.882   1.473  0.2227  0.0094  0.0002
40672SOL    HW124395   7.953   8.921   1.465  0.5320  0.9327  0.8699
40672SOL    HW224396   8.086   8.940   1.533  1.1277 -1.0068  0.3226
40673SOL     OW24397   1.418   4.110   0.655 -0.3129 -0.7727  0.8052
40673SOL    HW124398   1.471   4.162   0.595  0.2665 -1.4924  0.6811
40673SOL    HW224399   1.403   4.167   0.730 -0.3345 -0.1610  0.3466
40674SOL     OW24400   7.112   2.511   3.809 -0.1985 -0.5050  0.3446
40674SOL    HW124401   7.183   2.524   3.747  0.9985 -0.3551  1.6954
40674SOL    HW224402   7.142   2.553   3.890 -1.4131 -1.2664  1.2357
40675SOL     OW24403   5.589   2.553  10.639 -0.2307 -0.3069 -0.2483
40675SOL    HW124404   5.611   2.637  10.598 -0.0849 -0.8919 -1.4412
40675SOL    HW224405   5.674   2.518  10.668  0.0159 -0.9661 -1.6592
40676SOL     OW24406   5.185   0.171   2.792 -0.5910 -0.0119 -0.2978
40676SOL    HW124407   5.250   0.225   2.838 -1.0595 -0.0559  0.4391
40676SOL    HW224408   5.105   0.223   2.793 -0.9318 -0.5280  0.0369
40677SOL     OW24409   4.010   7.008   9.991 -0.3465 -0.0991 -0.0197
40677SOL    HW124410   3.999   6.967   9.905 -0.1736 -1.1516  0.4442
40677SOL    HW224411   3.979   7.097   9.979  0.0090 -0.1245 -1.2728
40678SOL     OW24412   6.063   6.333   9.877  0.0310  0.4970  0.4659
40678SOL    HW124413   6.139   6.340   9.936  0.9966  1.8793 -0.8663
40678SOL    HW224414   6.000   6.396   9.913  0.5668  1.2459  0.1270
40679SOL     OW24415   2.275   6.845   8.039  0.0751 -0.0293 -0.0846
40679SOL    HW124416   2.257   6.751   8.035 -1.1767  0.2081 -0.3926
40679SOL    HW224417   2.294   6.861   8.131 -0.7047 -0.4230  0.1595
40680SOL     OW24418   7.052   2.028   2.853  0.0389 -0.3923 -0.2751
40680SOL    HW124419   7.099   2.089   2.796  0.2805 -1.8827 -1.7491
40680SOL    HW224420   7.093   1.943   2.837 -0.3668 -0.9962  1.6216
40681SOL     OW24421   5.694   0.616   1.174 -0.1890 -0.0021  0.4103
40681SOL    HW124422   5.654   0.565   1.103  0.5476  0.3905 -0.3065
40681SOL    HW224423   5.788   0.613   1.155 -0.0966  1.2281  0.6264
40682SOL     OW24424  10.213   3.347   8.921 -0.2668 -0.1454  0.5635
40682SOL    HW124425  10.199   3.339   8.826  0.2858 -2.2771  0.6092
40682SOL    HW224426  10.147   3.410   8.949 -1.3210 -0.4337 -1.0674
40683SOL     OW24427   1.705   3.696   9.657 -0.1134 -0.1617  0.3466
40683SOL    HW124428   1.661   3.652   9.584 -0.8280  1.6178 -0.3692
40683SOL    HW224429   1.669   3.785   9.655  1.1384  0.4064  1.8141
40684SOL     OW24430   3.268   7.211   0.836  0.3045 -0.3519  0.1538
40684SOL    HW124431   3.275   7.192   0.930 -0.0342 -0.6051  0.1287
40684SOL    HW224432   3.235   7.130   0.798 -0.9676  0.2082  0.0148
40685SOL     OW24433  10.511   2.979   1.103  0.1416  0.5217  0.5760
40685SOL    HW124434  10.607   2.988   1.104  0.1990  0.9414 -2.2653
40685SOL    HW224435  10.496   2.887   1.083 -0.0688  0.5383  0.6601
40686SOL     OW24436   1.185   5.978   0.181  0.7065  0.5057  0.4212
40686SOL    HW124437   1.192   6.061   0.228 -0.6407  1.6940 -1.3305
40686SOL    HW224438   1.132   5.999   0.104 -1.1085 -2.3354  0.7451
40687SOL     OW24439   6.534   1.559   2.460  0.2864 -1.0735  0.2499
40687SOL    HW124440   6.544   1.600   2.546  0.3021 -0.3615 -0.0763
40687SOL    HW224441   6.445   1.523   2.461 -0.8793  1.4896 -0.4325
40688SOL     OW24442   6.266   4.102   4.049 -0.3789  0.0015 -0.3441
40688SOL    HW124443   6.308   4.188   4.054 -0.9176  0.2762 -0.4315
40688SOL    HW224444   6.220   4.103   3.965 -0.9645 -0.1033 -0.0278
40689SOL     OW24445   0.119   7.412   2.571 -0.1033 -0.1599  0.1628
40689SOL    HW124446   0.201   7.407   2.620 -1.3738  0.0059  2.4621
40689SOL    HW224447   0.141   7.462   2.493  1.8667  0.3546  0.9821
40690SOL     OW24448   6.359   1.541   7.810  0.2072 -0.0577  0.1415
40690SOL    HW124449   6.418   1.488   7.757 -0.9950 -3.0154  1.5406
40690SOL    HW224450   6.417   1.592   7.868  1.4440 -1.9818  0.6758
40691SOL     OW24451   6.724   5.877   9.269  0.4328  0.1410  0.0215
40691SOL    HW124452   6.793   5.832   9.220  0.7267  1.1822 -0.5495
40691SOL    HW224453   6.657   5.810   9.283 -0.0986  0.0054 -2.6607
40692SOL     OW24454   6.471   2.140   6.860  0.6109  0.1082 -0.0018
40692SOL    HW124455   6.464   2.236   6.864  2.5006  0.2797  0.0312
40692SOL    HW224456   6.519   2.116   6.940 -0.3918 -0.9488  0.3112
40693SOL     OW24457   9.357  10.463  10.360 -0.1804 -0.2750 -0.2108
40693SOL    HW124458   9.266  10.437  10.372 -0.6721  1.3094 -0.3194
40693SOL    HW224459   9.353  10.555  10.336  1.3910 -0.4917 -1.4536
40694SOL     OW24460  10.638   8.159   0.168 -0.1528  0.2811  0.1166
40694SOL    HW124461  10.548   8.193   0.169 -0.1743  0.2280  0.0117
40694SOL    HW224462  10.642   8.106   0.089 -0.5028 -0.9976  0.9239
40695SOL     OW24463   6.460   4.665  10.097 -0.6753  0.4315 -0.1405
40695SOL    HW124464   6.491   4.646  10.185  2.5325  2.5195 -0.6338
40695SOL    HW224465   6.452   4.579  10.055  0.5371 -0.4708  1.3741
40696SOL     OW24466   9.375   1.208   1.667  0.0175  0.2596 -0.0631
40696SOL    HW124467   9.446   1.146   1.647 -1.8090 -1.0657 -3.2265
40696SOL    HW224468   9.304   1.153   1.700 -0.6722  1.0808 -0.1532
40697SOL     OW24469   0.135   0.119   8.393  0.0904  0.1232 -0.0849
40697SOL    HW124470   0.073   0.178   8.350  0.8244  0.8058 -0.2212
40697SOL    HW224471   0.210   0.174   8.414  0.1749 -0.4294  1.1486
40698SOL     OW24472   6.249   3.500   4.692  0.0507  0.6954  0.4424
40698SOL    HW124473   6.255   3.560   4.766 -0.7207 -1.1306  2.0800
40698SOL    HW224474   6.185   3.435   4.719 -1.2264  0.6236 -2.3665
40699SOL     OW24475   1.989   7.102   9.142  1.1911  0.2878 -0.6323
40699SOL    HW124476   1.926   7.168   9.172  1.7077 -0.1502  1.6378
40699SOL    HW224477   2.049   7.091   9.216  3.2257 -0.2045 -2.2699
40700SOL     OW24478   9.494   9.942   9.602  0.1545 -0.5438  0.4040
40700SOL    HW124479   9.568  10.002   9.598  0.1633 -0.5341  0.6857
40700SOL    HW224480   9.465   9.933   9.512 -0.3502  0.5037  0.4526
40701SOL     OW24481   9.315   3.947   3.076 -0.7325 -0.0254  0.1560
40701SOL    HW124482   9.291   4.019   3.134 -1.2300 -0.0107 -0.0648
40701SOL    HW224483   9.410   3.939   3.085 -0.6602  0.7275  0.1036
40702SOL     OW24484   9.020   0.410   7.602 -0.4360  0.3102  0.2571
40702SOL    HW124485   8.994   0.326   7.566  1.7715 -0.2860 -0.0611
40702SOL    HW224486   9.005   0.473   7.531  0.4446 -0.2743 -0.4671
40703SOL     OW24487   6.420   2.684   8.936 -0.3828  0.1903 -0.2882
40703SOL    HW124488   6.437   2.652   8.847 -1.0445  0.3127 -0.4688
40703SOL    HW224489   6.484   2.754   8.949 -1.3568  1.3109 -1.3131
40704SOL     OW24490   2.725   2.886   3.618  0.4661  0.1746 -0.2370
40704SOL    HW124491   2.632   2.870   3.638  0.4183 -0.1780 -0.7187
40704SOL    HW224492   2.753   2.807   3.571 -0.2463  2.1149 -4.3235
40705SOL     OW24493  10.034   6.353  10.719 -0.4002  0.1114 -0.1155
40705SOL    HW124494  10.025   6.280  10.657  1.1999  0.4330 -0.7701
40705SOL    HW224495  10.082   6.315  10.793  1.6139  0.7554 -1.0236
40706SOL     OW24496   8.271   6.059   6.316 -0.6227 -0.4065  0.0047
40706SOL    HW124497   8.259   6.149   6.289  2.5248  0.0687 -0.1653
40706SOL    HW224498   8.274   6.009   6.235  1.1484 -0.1008 -0.1495
40707SOL     OW24499   8.631   8.662   5.705 -0.2935  0.0917  0.7533
40707SOL    HW124500   8.595   8.648   5.617  0.3660 -0.2691  0.5383
40707SOL    HW224501   8.556   8.649   5.763 -0.9089  1.0750  0.2064
40708SOL     OW24502   3.090   0.180   5.007  0.0643  0.2142 -0.1939
40708SOL    HW124503   3.063   0.128   4.932  0.9162  1.2441 -1.2726
40708SOL    HW224504   3.138   0.254   4.968  1.0760  0.4423  1.3976
40709SOL     OW24505   8.693   1.743   9.577  0.1147 -0.3140 -0.2381
40709SOL    HW124506   8.740   1.716   9.499 -0.9379  0.9132 -1.3496
40709SOL    HW224507   8.760   1.781   9.634  0.3228  4.0948 -2.9506
40710SOL     OW24508   3.784   7.384   7.982 -0.0910  0.5311  0.2615
40710SOL    HW124509   3.821   7.297   7.965  1.4204  0.9000  1.4305
40710SOL    HW224510   3.742   7.375   8.067 -1.8913  0.4005 -0.5932
40711SOL     OW24511   3.955   0.721   4.338 -0.9009  0.3121  0.0018
40711SOL    HW124512   4.013   0.797   4.336  0.8184 -0.9445  0.0995
40711SOL    HW224513   3.868   0.757   4.319  0.3567  1.8109 -3.7743
40712SOL     OW24514   2.142   3.972   5.694 -0.0801  0.2990 -0.1442
40712SOL    HW124515   2.160   3.936   5.781  0.1397  1.3390  0.2554
40712SOL    HW224516   2.195   4.051   5.690 -0.9174  0.8328 -0.8222
40713SOL     OW24517   7.930   1.342   7.892 -0.1288 -0.5406 -0.1573
40713SOL    HW124518   7.965   1.293   7.817 -0.0055 -1.3475  0.4142
40713SOL    HW224519   7.990   1.321   7.964  0.3020  0.9708 -0.0429
40714SOL     OW24520   7.360  10.268  10.441  0.8232  0.1409  0.7521
40714SOL    HW124521   7.371  10.243  10.533  0.8447  0.8373  0.9432
40714SOL    HW224522   7.426  10.216  10.394 -0.6174 -1.8891  0.8150
40715SOL     OW24523   4.984   9.087  10.667  0.7821  0.5191  0.3470
40715SOL    HW124524   4.892   9.112  10.657  0.9607  1.0768  0.0165
40715SOL    HW224525   4.991   9.056  10.757  0.4125  1.1262  0.5931
40716SOL     OW24526   8.737   8.742   4.007 -0.2733 -0.3423  0.0657
40716SOL    HW124527   8.719   8.701   4.092 -1.3340  0.5693  0.3017
40716SOL    HW224528   8.804   8.807   4.025  0.0829 -0.6955  0.0385
40717SOL     OW24529   1.577   5.201   4.106  0.7434 -0.0231 -0.5655
40717SOL    HW124530   1.634   5.158   4.170  0.4887 -1.0917 -1.0370
40717SOL    HW224531   1.491   5.205   4.149  0.6037 -0.6241 -0.7700
40718SOL     OW24532   3.950   6.817   2.510  0.4155  0.3906 -0.0546
40718SOL    HW124533   3.994   6.820   2.425 -2.2721 -0.9549 -1.6361
40718SOL    HW224534   3.924   6.726   2.521 -0.7064  0.8404  1.4623
40719SOL     OW24535   7.721   9.561   8.745 -0.1207  0.5319 -0.2135
40719SOL    HW124536   7.690   9.649   8.765  0.2301  0.3462  1.2161
40719SOL    HW224537   7.701   9.509   8.822 -0.0732 -0.5938 -0.9260
40720SOL     OW24538   8.989   3.394   6.062 -0.2078  0.3555 -0.3127
40720SOL    HW124539   8.961   3.416   6.150 -1.3936  2.8399 -1.2251
40720SOL    HW224540   9.074   3.437   6.052 -0.1604  0.2327 -0.4561
40721SOL     OW24541   0.432   1.009   1.936 -0.4541 -0.3371 -0.2170
40721SOL    HW124542   0.365   1.040   1.874 -0.0265 -0.5982 -0.8175
40721SOL    HW224543   0.510   0.995   1.882  0.2235  0.3887  0.5472
40722SOL     OW24544   2.697  10.723  10.203  0.0422  0.1427 -0.1061
40722SOL    HW124545   2.657  10.717  10.116  1.2767  1.5425 -0.8234
40722SOL    HW224546   2.720  10.633  10.225 -2.3065 -0.5338 -0.1945
40723SOL     OW24547   3.123   8.369   7.161  0.0914  0.3678 -1.1702
40723SOL    HW124548   3.052   8.396   7.220  0.5291 -0.3213 -0.3104
40723SOL    HW224549   3.081   8.308   7.100  0.3614 -1.8534  0.7433
40724SOL     OW24550   9.096   1.970   2.469 -0.0552  0.4725  0.4570
40724SOL    HW124551   9.067   1.904   2.532  3.7031  0.7830  2.8015
40724SOL    HW224552   9.072   2.054   2.508  0.4199  0.6162  0.4498
40725SOL     OW24553   3.109   3.585   1.957 -0.0320 -0.5980  0.3985
40725SOL    HW124554   3.133   3.575   1.865 -1.4333 -0.9713  0.0412
40725SOL    HW224555   3.149   3.511   2.001 -0.6871 -1.3380 -0.2159
40726SOL     OW24556   2.283   3.994   0.483 -0.1549 -0.1119 -0.3063
40726SOL    HW124557   2.216   3.930   0.510  0.8082 -0.0222  2.6931
40726SOL    HW224558   2.363   3.942   0.477  0.4341  0.5962  1.1345
40727SOL     OW24559   9.630   4.028   2.751  0.2477  0.1517  0.5080
40727SOL    HW124560   9.629   3.976   2.831  0.4607 -0.7143 -0.0503
40727SOL    HW224561   9.681   3.977   2.688  2.3655  1.9938  0.5863
40728SOL     OW24562   8.435   1.909   1.491 -0.3812  0.1684 -0.0077
40728SOL    HW124563   8.349   1.951   1.478 -1.0405 -1.1312 -0.0202
40728SOL    HW224564   8.422   1.854   1.569  0.1323 -0.8154 -0.6058
40729SOL     OW24565   3.886   4.164   5.244  0.2900  0.0696  0.6053
40729SOL    HW124566   3.827   4.143   5.317 -0.7141 -0.1495 -0.2336
40729SOL    HW224567   3.893   4.259   5.245 -0.3275  0.1205  0.5386
40730SOL     OW24568   3.365   2.850   0.502 -0.2501 -0.8071  0.0441
40730SOL    HW124569   3.278   2.888   0.494 -0.6918 -1.3993  1.6007
40730SOL    HW224570   3.379   2.842   0.597  0.3715 -3.2250 -0.1888
40731SOL     OW24571   9.281   4.463   2.133  0.0198 -0.6707 -0.4719
40731SOL    HW124572   9.193   4.500   2.135 -0.2554 -1.3263  0.1023
40731SOL    HW224573   9.302   4.449   2.226  0.7580 -0.4508 -0.6033
40732SOL     OW24574   9.452   3.327   9.515 -0.1146  0.0662  0.8870
40732SOL    HW124575   9.450   3.346   9.421 -2.5300 -1.4703  0.5433
40732SOL    HW224576   9.388   3.387   9.553 -1.1101 -1.1164  1.1199
40733SOL     OW24577   6.359   5.708   8.041 -0.4665  0.0542  0.0713
40733SOL    HW124578   6.313   5.639   7.994  0.1752 -0.3021 -0.0506
40733SOL    HW224579   6.295   5.741   8.104 -0.9567 -0.2680 -0.2535
40734SOL     OW24580   6.638   7.307   0.215  0.4476  0.1553  0.3062
40734SOL    HW124581   6.692   7.347   0.147  0.6864 -0.5939  0.0419
40734SOL    HW224582   6.685   7.227   0.239 -0.7585 -0.7649 -0.2684
40735SOL     OW24583   6.665   6.254   4.609 -0.1880 -0.4865 -0.2414
40735SOL    HW124584   6.716   6.212   4.540  0.4461 -0.6406  0.3108
40735SOL    HW224585   6.631   6.181   4.661 -1.0512 -0.3895 -0.6518
40736SOL     OW24586   8.386   2.877   3.054  0.5261  0.0922 -0.0041
40736SOL    HW124587   8.314   2.837   3.006  0.6560  0.7187 -0.7471
40736SOL    HW224588   8.374   2.849   3.144 -1.8318  1.7967  0.2869
40737SOL     OW24589   4.580   2.908   7.997  0.1793 -0.0048  0.0216
40737SOL    HW124590   4.566   2.946   8.084 -1.6525 -0.2707 -0.1127
40737SOL    HW224591   4.500   2.929   7.949  0.6567 -0.9208 -1.2152
40738SOL     OW24592   7.973   4.430   0.825  0.3822 -0.0400 -0.3641
40738SOL    HW124593   8.038   4.500   0.831 -0.7794  0.9894  0.9428
40738SOL    HW224594   8.003   4.375   0.752  2.3285  0.7617 -0.2261
40739SOL     OW24595  10.611   1.368   6.740  0.6303 -0.7827 -0.1627
40739SOL    HW124596  10.616   1.446   6.795  1.2511 -1.8577  1.3467
40739SOL    HW224597  10.682   1.380   6.676 -1.0556  1.2095 -1.8551
40740SOL     OW24598   2.197   8.705   7.335 -0.3587 -0.7371  0.0869
40740SOL    HW124599   2.201   8.786   7.386 -2.6460  0.8444 -1.9831
40740SOL    HW224600   2.274   8.711   7.277  0.7574 -1.2411  1.4608
40741SOL     OW24601  10.595   0.243   6.818  0.3072  0.1108  0.0728
40741SOL    HW124602  10.514   0.285   6.845  0.3401 -0.6198  1.3940
40741SOL    HW224603  10.661   0.313   6.822 -0.3160  0.8617 -1.6017
40742SOL     OW24604  10.694   3.615   7.282 -0.5513  0.1405 -0.2129
40742SOL    HW124605  10.618   3.658   7.244 -0.3420  0.6999 -0.0068
40742SOL    HW224606  10.757   3.686   7.298 -0.0196 -0.3028 -0.3059
40743SOL     OW24607   8.200   6.249   2.382  0.0359 -0.0592 -0.5274
40743SOL    HW124608   8.288   6.263   2.418 -0.1171 -1.3720  0.4633
40743SOL    HW224609   8.142   6.288   2.447 -0.2403 -2.3760  0.7419
40744SOL     OW24610  10.000   8.891   3.430  0.0786  0.2476 -0.1043
40744SOL    HW124611  10.019   8.871   3.522 -0.5027 -2.0384 -0.4210
40744SOL    HW224612  10.004   8.987   3.425  0.9732  0.3880  2.0949
40745SOL     OW24613   9.129   0.048   4.502 -0.5593  0.1835  0.5345
40745SOL    HW124614   9.086   0.032   4.587 -0.2733  1.2093  0.8796
40745SOL    HW224615   9.113   0.140   4.484 -0.6157 -0.0230 -0.5467
40746SOL     OW24616   6.747  10.788   7.091  0.4089  0.0133 -0.1223
40746SOL    HW124617   6.803  10.757   7.020  0.6141  1.0160 -0.4161
40746SOL    HW224618   6.671  10.826   7.048 -0.4240 -1.1451  0.2699
40747SOL     OW24619   8.498   0.827   1.749  0.1368  0.3197 -0.4554
40747SOL    HW124620   8.558   0.881   1.800  0.9507 -0.5899 -0.4057
40747SOL    HW224621   8.555   0.765   1.703 -0.7287 -0.2385 -0.8122
40748SOL     OW24622   0.142   7.496   3.347  0.3709  0.3370 -0.4330
40748SOL    HW124623   0.218   7.441   3.367 -0.2504 -0.0570  0.9115
40748SOL    HW224624   0.123   7.477   3.255  0.2660 -1.6202 -0.0580
40749SOL     OW24625   3.983   7.313   8.757  0.2083  0.0854 -0.1033
40749SOL    HW124626   4.077   7.298   8.747  0.5126  1.4584  0.4757
40749SOL    HW224627   3.975   7.364   8.838 -0.8639  1.5445 -1.0848
40750SOL     OW24628   5.264   3.223   9.783 -0.5477 -0.3498  0.2771
40750SOL    HW124629   5.354   3.194   9.801 -1.2438 -2.5237  0.6462
40750SOL    HW224630   5.224   3.230   9.870 -0.4078  1.9889  0.2106
40751SOL     OW24631   1.700   8.394   8.428  0.6327 -0.0486  0.3843
40751SOL    HW124632   1.663   8.452   8.361  0.3334 -0.3468  0.2900
40751SOL    HW224633   1.674   8.435   8.511  1.7628  0.8115  0.3387
40752SOL     OW24634   8.347   7.335  10.338  0.2129  0.0674  0.7180
40752SOL    HW124635   8.293   7.267  10.297  0.5477  0.2155  0.0213
40752SOL    HW224636   8.435   7.297  10.342  0.2172  0.1137  1.1727
40753SOL     OW24637  10.112   3.037  10.400 -0.4163  0.2908  0.0401
40753SOL    HW124638  10.135   3.022  10.308  3.1132  1.3526  0.5936
40753SOL    HW224639  10.107   2.949  10.438 -0.2045 -0.1098 -0.8365
40754SOL     OW24640   9.530   5.035   5.364  0.3618  0.6132  0.5319
40754SOL    HW124641   9.465   5.085   5.314 -0.9019 -2.0763 -0.7512
40754SOL    HW224642   9.478   4.982   5.425  1.3516 -1.1048 -0.0375
40755SOL     OW24643   2.861   2.180   5.691 -0.1525 -0.0141  0.0994
40755SOL    HW124644   2.933   2.242   5.702  0.9360 -0.9452 -1.4200
40755SOL    HW224645   2.904   2.096   5.672 -1.6235 -0.6546 -0.5410
40756SOL     OW24646   4.288   2.627   8.617  0.1866  0.1580  0.6707
40756SOL    HW124647   4.304   2.717   8.589  0.3279  0.8802  2.8707
40756SOL    HW224648   4.223   2.635   8.687 -1.5088 -1.7070 -0.5827
40757SOL     OW24649   2.411   0.998   5.234 -0.5623 -0.2275 -0.3495
40757SOL    HW124650   2.414   0.950   5.316 -0.5903 -0.2025 -0.3337
40757SOL    HW224651   2.503   1.012   5.211 -0.4287  2.7837  1.4451
40758SOL     OW24652   1.883  10.631   0.970  0.2012  0.3196 -0.2127
40758SOL    HW124653   1.800  10.592   0.943  0.4662  0.9105 -2.0310
40758SOL    HW224654   1.861  10.681   1.048 -1.8394  2.7081 -2.1307
40759SOL     OW24655   2.915   4.970   5.928 -0.1430 -0.4835 -0.1356
40759SOL    HW124656   2.862   5.050   5.934 -1.5736 -1.4125  0.1055
40759SOL    HW224657   2.972   4.984   5.853  1.5950  1.8648  1.4716
40760SOL     OW24658  10.525   2.808   7.907  0.2853 -0.6168  0.5229
40760SOL    HW124659  10.528   2.847   7.820 -0.5637 -0.8317  0.3942
40760SOL    HW224660  10.617   2.807   7.935  0.3641  1.2610  0.4469
40761SOL     OW24661  10.507   9.153   7.460 -0.1214 -0.2585  0.0145
40761SOL    HW124662  10.532   9.068   7.498  2.5390  1.1316  1.6531
40761SOL    HW224663  10.529   9.145   7.367 -2.2662 -2.1272 -0.4149
40762SOL     OW24664   5.085   8.734   1.238  0.3505  0.2923  0.1249
40762SOL    HW124665   5.153   8.668   1.240 -1.1307 -1.3105  0.0793
40762SOL    HW224666   5.018   8.702   1.299 -0.2833  1.9252  0.3651
40763SOL     OW24667   9.615   4.334   4.232 -0.1075 -0.3954 -0.0877
40763SOL    HW124668   9.659   4.384   4.163  1.1284 -2.2123 -0.6996
40763SOL    HW224669   9.677   4.337   4.306 -0.3313 -0.4702  0.1025
40764SOL     OW24670   7.537   8.357   4.669  0.2696  0.2570  0.1187
40764SOL    HW124671   7.579   8.298   4.732  0.0114 -0.6613 -0.5386
40764SOL    HW224672   7.574   8.332   4.584  2.5714  3.2212  0.1134
40765SOL     OW24673   1.149   4.738   6.055 -0.1746  0.3998  0.2772
40765SOL    HW124674   1.166   4.723   6.148 -1.2805 -1.8752  0.1831
40765SOL    HW224675   1.172   4.830   6.041  0.3682  0.7070  2.6984
40766SOL     OW24676   7.459  10.269   5.711 -0.4869  0.0122 -0.5012
40766SOL    HW124677   7.472  10.177   5.689  0.6752  0.3486 -1.3235
40766SOL    HW224678   7.536  10.293   5.763 -1.1915  0.3140  0.4388
40767SOL     OW24679   5.584   3.645   3.683 -0.0243 -0.0389 -0.7967
40767SOL    HW124680   5.520   3.693   3.736  2.0541 -0.3040  2.1686
40767SOL    HW224681   5.643   3.713   3.650 -1.0075  0.0621 -2.5215
40768SOL     OW24682   3.143   5.013   9.886 -0.4051  0.4510  0.0637
40768SOL    HW124683   3.210   5.006   9.818 -0.5759  0.5455 -0.1152
40768SOL    HW224684   3.185   5.067   9.954  0.4858 -1.2363  0.9333
40769SOL     OW24685   8.605   1.417   3.798  0.0448  0.1703 -0.6777
40769SOL    HW124686   8.544   1.442   3.867  0.6658 -0.4481  0.1181
40769SOL    HW224687   8.579   1.470   3.722 -1.4257 -0.0410 -0.3460
40770SOL     OW24688   1.814   4.920   3.000  0.0357  0.0885 -0.1973
40770SOL    HW124689   1.864   4.941   2.922  0.5131 -0.2122  0.0257
40770SOL    HW224690   1.794   5.005   3.039 -1.0102  0.2955 -1.1320
40771SOL     OW24691   8.353   3.295   9.059 -0.1090  0.0449 -0.7870
40771SOL    HW124692   8.367   3.231   9.129  0.9007  1.7596  0.6967
40771SOL    HW224693   8.265   3.330   9.076  0.5625  1.2690  0.4170
40772SOL     OW24694   6.420   8.830   3.078  0.1872  0.3696 -0.0937
40772SOL    HW124695   6.501   8.864   3.116 -0.5382  1.9581  0.0955
40772SOL    HW224696   6.377   8.783   3.150  0.7742 -0.2034 -0.1106
40773SOL     OW24697   0.227   1.009   2.182 -0.3830 -0.0520 -0.2259
40773SOL    HW124698   0.162   1.038   2.117 -0.2446  0.1711 -0.2671
40773SOL    HW224699   0.216   0.914   2.186  0.7571 -0.3024 -1.8306
40774SOL     OW24700   1.085   6.010   6.364 -0.1079 -0.5739 -0.8025
40774SOL    HW124701   1.175   6.043   6.374  0.4679 -2.3648  0.5635
40774SOL    HW224702   1.030   6.076   6.406  0.6104  0.3531 -1.3038
40775SOL     OW24703   6.364  10.594   5.982 -0.0632  0.1973  0.0174
40775SOL    HW124704   6.376  10.536   6.057 -1.0767 -1.6610 -1.1838
40775SOL    HW224705   6.438  10.576   5.925 -1.3095 -1.3701 -1.2076
40776SOL     OW24706   1.929   9.493   4.920 -0.7133 -0.0800  0.6214
40776SOL    HW124707   1.868   9.434   4.964 -1.8552 -1.3886 -2.4464
40776SOL    HW224708   1.930   9.464   4.828  1.6868  2.2661 -0.2525
40777SOL     OW24709   9.189  10.560   6.574 -0.0124  0.0499  0.3524
40777SOL    HW124710   9.282  10.563   6.551 -0.1786  2.3476 -0.2185
40777SOL    HW224711   9.144  10.542   6.491 -0.1473  0.4215  0.3415
40778SOL     OW24712   3.942   7.995   2.496  0.3370  0.2861  0.6347
40778SOL    HW124713   3.989   7.990   2.579  0.0715  2.3137  0.9584
40778SOL    HW224714   3.849   7.997   2.521  0.1121 -1.5278  0.1139
40779SOL     OW24715   1.753   3.978   1.113  0.4751  0.0489  0.2436
40779SOL    HW124716   1.765   3.918   1.186  1.2620 -0.8926 -0.6288
40779SOL    HW224717   1.772   3.925   1.035  3.5316  1.9509 -0.4652
40780SOL     OW24718   6.892   7.823   3.765  0.2888  0.4889 -0.2944
40780SOL    HW124719   6.809   7.781   3.740 -2.1720  3.2155  2.4963
40780SOL    HW224720   6.919   7.779   3.845  1.4639 -0.1585 -1.0076
40781SOL     OW24721   0.756   2.768   1.959 -0.0497 -0.6584  0.2817
40781SOL    HW124722   0.801   2.757   1.875 -1.5651  0.7696 -0.7857
40781SOL    HW224723   0.757   2.681   1.999  2.1843 -1.0130 -0.4084
40782SOL     OW24724  10.394   2.228   9.344 -0.2885  0.6853  0.7340
40782SOL    HW124725  10.490   2.234   9.347 -0.1657 -0.8428  0.5347
40782SOL    HW224726  10.373   2.153   9.400 -1.2669  0.1859 -0.2575
40783SOL     OW24727   8.244   9.859   2.487  0.5555 -0.1308 -0.1481
40783SOL    HW124728   8.189   9.782   2.472  0.2711  0.3307 -1.6809
40783SOL    HW224729   8.312   9.852   2.420  0.4584  1.0039 -0.3820
40784SOL     OW24730   5.430   0.422   6.415  0.6145 -0.4643 -0.5856
40784SOL    HW124731   5.442   0.352   6.479 -2.7205 -1.3905 -0.7943
40784SOL    HW224732   5.443   0.503   6.465  1.3159 -1.1845  0.4368
40785SOL     OW24733   5.027   3.015   6.697  0.1070 -0.3571  0.0388
40785SOL    HW124734   5.106   2.990   6.747  0.9979 -0.1069 -1.1966
40785SOL    HW224735   4.967   3.049   6.763  0.3236 -2.1890  1.2723
40786SOL     OW24736   3.112   4.261   3.015 -0.1115 -0.5517  0.1697
40786SOL    HW124737   3.061   4.254   3.096  0.9550  2.1170  1.1668
40786SOL    HW224738   3.199   4.230   3.039 -0.0425 -0.7025 -0.2647
40787SOL     OW24739   4.183   1.774   0.450  0.2577 -0.1096  0.1108
40787SOL    HW124740   4.206   1.682   0.435 -0.4033 -0.6412  1.9841
40787SOL    HW224741   4.186   1.814   0.364  2.8857 -1.3328 -0.4729
40788SOL     OW24742   2.633   8.985  10.457  0.4024  0.2503 -0.3679
40788SOL    HW124743   2.589   8.999  10.374  0.6741  0.6178 -0.4501
40788SOL    HW224744   2.569   9.011  10.523  0.1863 -0.0444 -0.4618
40789SOL     OW24745   9.691   9.749   7.269  0.1492  0.3577  0.1061
40789SOL    HW124746   9.760   9.723   7.208 -0.7116 -1.5384 -0.1343
40789SOL    HW224747   9.737   9.768   7.351  0.9768 -0.7722 -0.0787
40790SOL     OW24748   6.448   8.964   2.636 -0.1600  0.0570 -0.0927
40790SOL    HW124749   6.403   9.030   2.583  0.4764  1.3817  0.9549
40790SOL    HW224750   6.397   8.958   2.716  0.0414 -0.3980  0.0070
40791SOL     OW24751   0.216   9.471   3.076 -0.0550  0.3743  0.1990
40791SOL    HW124752   0.276   9.412   3.030  0.0802  0.1399  0.6752
40791SOL    HW224753   0.129   9.441   3.050  0.0219  1.3376 -1.2901
40792SOL     OW24754   9.129   1.838   9.406  0.0020  0.1078  0.1977
40792SOL    HW124755   9.209   1.862   9.453  0.6688 -0.2057 -0.7559
40792SOL    HW224756   9.062   1.897   9.441  0.9369  1.2728  0.0708
40793SOL     OW24757   3.044   8.061   3.614  0.2905 -0.2181  0.1081
40793SOL    HW124758   3.129   8.019   3.620 -0.1304 -1.0504  0.4354
40793SOL    HW224759   3.047   8.111   3.532  0.7933 -0.9189 -0.3111
40794SOL     OW24760   0.059   8.224   8.891 -0.6748 -0.3156  0.0221
40794SOL    HW124761  -0.029   8.198   8.918 -0.4322 -0.5659  0.6057
40794SOL    HW224762   0.117   8.177   8.952 -0.1021 -0.9372 -0.9862
40795SOL     OW24763   3.253   2.723   5.976  0.3905  0.1976 -0.1669
40795SOL    HW124764   3.217   2.700   5.890  1.0261 -1.4194 -0.0318
40795SOL    HW224765   3.304   2.646   6.002 -0.8796  0.0643  2.2585
40796SOL     OW24766  10.461   8.406   0.941 -0.3083  0.3941 -0.5496
40796SOL    HW124767  10.526   8.339   0.962 -0.1801  0.4226 -0.8466
40796SOL    HW224768  10.443   8.393   0.847 -1.0380  0.1122 -0.3833
40797SOL     OW24769   2.984   8.483   1.331  0.8027 -0.6489  0.1912
40797SOL    HW124770   2.891   8.470   1.349  0.1673  1.8021 -0.8926
40797SOL    HW224771   3.009   8.559   1.383  2.0893 -0.9606  0.0864
40798SOL     OW24772   7.323   2.306   6.049 -0.2596 -0.3823 -0.6239
40798SOL    HW124773   7.401   2.272   6.006  0.2650 -0.5062  0.4011
40798SOL    HW224774   7.257   2.238   6.037 -0.3137 -0.1634 -1.7238
40799SOL     OW24775   2.571  10.224   3.673 -0.0233  0.4920 -0.2205
40799SOL    HW124776   2.573  10.160   3.745 -1.9688  0.8147  0.1728
40799SOL    HW224777   2.663  10.246   3.658  0.6721 -2.0868 -0.1135
40800SOL     OW24778   0.925   8.175   9.800 -0.4152  0.0476 -0.1607
40800SOL    HW124779   0.868   8.223   9.741  1.5583  1.8967 -0.7095
40800SOL    HW224780   1.002   8.231   9.809 -0.4553 -0.2674  3.9186
40801SOL     OW24781   6.724   4.279   3.007 -0.1378 -0.2239 -0.3672
40801SOL    HW124782   6.702   4.368   2.979 -1.4388 -0.2659  0.4252
40801SOL    HW224783   6.741   4.286   3.101  2.1695 -0.4303 -0.7180
40802SOL     OW24784   5.036   2.621   0.279  0.4276  0.1404  0.5318
40802SOL    HW124785   4.992   2.539   0.255 -1.3252  1.2384 -0.1784
40802SOL    HW224786   5.068   2.606   0.368  0.3560 -1.3919  0.3260
40803SOL     OW24787   2.848   2.309   9.959 -0.1580  0.9483  0.0948
40803SOL    HW124788   2.862   2.238   9.897  0.6155  0.7200  0.5203
40803SOL    HW224789   2.826   2.266  10.041 -2.8432  1.2771 -0.3722
40804SOL     OW24790   3.734   9.690   0.726 -0.2285 -0.2785  0.2879
40804SOL    HW124791   3.716   9.771   0.773 -1.9887 -0.2840 -0.2844
40804SOL    HW224792   3.824   9.667   0.750 -0.4982  0.5813  2.3219
40805SOL     OW24793   6.197   8.351   3.474  1.3869 -0.2536  0.1472
40805SOL    HW124794   6.121   8.407   3.491  1.0168 -0.8398  0.4619
40805SOL    HW224795   6.207   8.352   3.379  0.7305 -0.4916  0.0684
40806SOL     OW24796   8.020   4.498  10.487 -0.0317  0.2797  1.0182
40806SOL    HW124797   8.034   4.577  10.435 -1.6341  1.1627  1.8485
40806SOL    HW224798   7.932   4.469  10.464  0.0555 -0.5242  1.6661
40807SOL     OW24799   1.113   9.164   5.546  0.4137 -0.1624  0.2779
40807SOL    HW124800   1.050   9.145   5.476  0.0831  0.1107  0.4983
40807SOL    HW224801   1.188   9.203   5.502  0.4248 -0.4802  0.0129
40808SOL     OW24802   1.244   5.258   5.684 -0.0242  0.0663 -0.4945
40808SOL    HW124803   1.312   5.318   5.714 -0.7570  1.1460 -0.9445
40808SOL    HW224804   1.194   5.236   5.763  0.2952 -0.0103 -0.3144
40809SOL     OW24805   4.795   1.615   3.890  0.8568  0.2166  0.3064
40809SOL    HW124806   4.743   1.535   3.885  1.2248 -0.0101  0.0210
40809SOL    HW224807   4.740   1.676   3.939 -0.1974  0.3970 -1.0372
40810SOL     OW24808   9.476   0.704   4.425  0.4751 -0.2131 -0.0554
40810SOL    HW124809   9.495   0.612   4.405  1.3986  0.1816 -1.1049
40810SOL    HW224810   9.465   0.706   4.520 -0.1369 -1.5047 -0.0754
40811SOL     OW24811   3.628   2.314   1.189  0.5734  0.4811  0.7331
40811SOL    HW124812   3.577   2.363   1.253  0.2073  0.6118  0.3447
40811SOL    HW224813   3.716   2.351   1.195  0.5413  0.4923  1.1578
40812SOL     OW24814   6.133   7.609  10.099  0.0474  0.6543  0.1760
40812SOL    HW124815   6.206   7.550  10.121  2.4440  3.9053  1.7407
40812SOL    HW224816   6.149   7.634  10.008  1.4715  1.9653  0.7426
40813SOL     OW24817  10.165  10.779   7.851 -0.2444 -0.3346 -0.5005
40813SOL    HW124818  10.239  10.720   7.858 -0.2982 -0.4271 -0.7099
40813SOL    HW224819  10.188  10.837   7.779 -0.1017  0.0289 -0.1680
40814SOL     OW24820   9.299   7.827   5.103  0.2374 -0.4939  0.0897
40814SOL    HW124821   9.296   7.748   5.049  2.0297  0.2765 -1.2375
40814SOL    HW224822   9.316   7.796   5.191  1.2815 -1.5765 -0.4720
40815SOL     OW24823   9.583   9.359   2.995  0.4493 -0.5881 -0.0105
40815SOL    HW124824   9.501   9.406   2.982  0.5541  1.1946  4.2697
40815SOL    HW224825   9.642   9.395   2.928 -2.1160 -2.1824 -3.4412
40816SOL     OW24826  10.291   7.716  10.491  0.0387 -0.4051 -0.6717
40816SOL    HW124827  10.251   7.788  10.443 -0.8654 -0.7655 -0.4707
40816SOL    HW224828  10.378   7.706  10.451 -0.0560  0.3949 -1.0966
40817SOL     OW24829   5.323   6.068   9.512 -0.6689 -0.3094 -0.6414
40817SOL    HW124830   5.281   6.087   9.596  0.4005  1.2486 -0.4115
40817SOL    HW224831   5.365   5.983   9.526 -1.2217 -0.4751  0.1071
40818SOL     OW24832  10.775   6.992   1.002  0.1213 -0.7054  0.0482
40818SOL    HW124833  10.682   7.000   1.023  0.4770 -1.8881  2.4185
40818SOL    HW224834  10.810   7.081   1.013 -0.6625 -0.3119 -0.5697
40819SOL     OW24835   2.346   4.962   4.872 -0.4448  0.2864  0.1957
40819SOL    HW124836   2.390   4.922   4.947 -1.4707  1.1840  1.3185
40819SOL    HW224837   2.349   5.056   4.890 -1.0413  0.4877 -0.6995
40820SOL     OW24838   0.395   4.099   7.733  0.0848 -0.0848  0.0533
40820SOL    HW124839   0.465   4.082   7.796  0.9397  1.1842 -0.5036
40820SOL    HW224840   0.439   4.137   7.657 -1.1373  0.1777 -0.5584
40821SOL     OW24841   6.808   1.715   7.370 -0.3052  0.2196 -1.3359
40821SOL    HW124842   6.784   1.680   7.456  0.9899  2.3558  0.0007
40821SOL    HW224843   6.882   1.663   7.342 -0.1287  0.1193 -0.6847
40822SOL     OW24844   1.448   2.452   5.898  0.1090 -0.2699 -0.2658
40822SOL    HW124845   1.532   2.497   5.905 -0.3819  0.6328  0.0138
40822SOL    HW224846   1.428   2.426   5.988 -1.1591  1.9065  0.1551
40823SOL     OW24847   3.258   1.779   2.938 -0.4282 -0.0586 -0.0296
40823SOL    HW124848   3.195   1.749   2.872 -0.2578  1.5118 -0.9521
40823SOL    HW224849   3.309   1.847   2.894  2.7931 -2.0646  0.2744
40824SOL     OW24850   1.204   0.242   8.820 -0.1184  0.8053  0.0844
40824SOL    HW124851   1.173   0.325   8.855  1.2476  1.6743 -0.6488
40824SOL    HW224852   1.287   0.225   8.866 -2.0490 -2.0892  2.9356
40825SOL     OW24853   4.660   4.232   7.231  0.2739 -0.1168 -0.2017
40825SOL    HW124854   4.717   4.242   7.307  0.5021 -0.1389 -0.3708
40825SOL    HW224855   4.573   4.255   7.264  0.3389 -0.3060  0.1137
40826SOL     OW24856   3.225   9.868   3.250 -0.1079  0.3847 -0.3397
40826SOL    HW124857   3.196   9.794   3.303  0.5443  0.2015 -0.2274
40826SOL    HW224858   3.243   9.937   3.314  0.7043  0.1559 -0.3007
40827SOL     OW24859   8.071   7.431   3.150 -0.4341  0.2612 -0.7084
40827SOL    HW124860   7.984   7.423   3.189 -0.3106  3.3517  0.5339
40827SOL    HW224861   8.064   7.507   3.092  1.3980  0.5278 -0.6353
40828SOL     OW24862   1.808  10.742   2.437  0.0595 -0.0011 -0.1627
40828SOL    HW124863   1.841  10.788   2.515 -0.7272 -0.6087  0.5559
40828SOL    HW224864   1.872  10.760   2.369  0.8208  0.4714  0.6590
40829SOL     OW24865   9.337   9.099   6.845  0.6308 -0.3837 -0.2229
40829SOL    HW124866   9.400   9.138   6.785  0.5842  0.2165  0.1210
40829SOL    HW224867   9.390   9.056   6.912  0.6724 -0.0541 -0.0462
40830SOL     OW24868   0.999   2.960   4.268  0.1607  0.5951  0.2197
40830SOL    HW124869   1.015   2.866   4.279 -1.1154  0.2742 -0.4093
40830SOL    HW224870   1.080   2.994   4.230  1.3745  0.1492  2.2366
40831SOL     OW24871   7.686   9.519   6.584 -0.4830 -0.4529  0.2940
40831SOL    HW124872   7.670   9.425   6.584  0.2276 -0.6813 -2.9101
40831SOL    HW224873   7.599   9.558   6.577 -0.6703 -0.9475 -0.1871
40832SOL     OW24874   2.973   3.695   7.042  0.1702 -0.1519  1.0402
40832SOL    HW124875   2.885   3.732   7.038  0.7812  1.3182  0.5132
40832SOL    HW224876   3.023   3.745   6.978  1.4870 -0.6845  1.6136
40833SOL     OW24877   5.213   1.074   5.560  0.2047  0.3321  0.7736
40833SOL    HW124878   5.247   1.023   5.486  1.5029 -0.4813  1.8833
40833SOL    HW224879   5.270   1.150   5.566 -0.3929  0.8145  0.4638
40834SOL     OW24880   4.794   2.610   1.117 -0.4682 -0.0139  0.5861
40834SOL    HW124881   4.715   2.582   1.164 -0.4632  1.2022  1.3834
40834SOL    HW224882   4.860   2.544   1.140 -1.1761 -0.9151  0.0970
40835SOL     OW24883   0.535   3.845   9.203  0.1293 -0.4015 -0.2762
40835SOL    HW124884   0.464   3.830   9.265  0.3556 -0.2873  0.0126
40835SOL    HW224885   0.515   3.788   9.129 -0.1743 -0.4916 -0.1243
40836SOL     OW24886  10.280   8.432   3.702 -0.3406  0.3201 -0.2005
40836SOL    HW124887  10.326   8.485   3.637  1.3838 -1.0387 -0.1786
40836SOL    HW224888  10.342   8.424   3.775 -1.8498  1.0018  1.2342
40837SOL     OW24889   0.330   9.301   3.474 -0.2286  0.3368  0.3344
40837SOL    HW124890   0.298   9.387   3.448  1.6129  1.3255  1.1610
40837SOL    HW224891   0.357   9.260   3.391 -2.5353 -0.1392 -0.2585
40838SOL     OW24892   3.481   8.674   1.066 -0.0053  0.2770  0.0759
40838SOL    HW124893   3.393   8.707   1.083  0.3365 -0.2878  3.8520
40838SOL    HW224894   3.471   8.615   0.992 -2.7842  0.3731  0.2832
40839SOL     OW24895   6.603   8.881   6.110  0.7818 -0.6009  0.6843
40839SOL    HW124896   6.645   8.870   6.025 -0.5933  0.4975 -0.1866
40839SOL    HW224897   6.543   8.807   6.117  0.0591 -0.0817  0.1489
40840SOL     OW24898   8.912   9.414   5.458  0.2615 -0.6926 -0.0923
40840SOL    HW124899   8.911   9.359   5.537 -0.5223 -0.6704 -0.0734
40840SOL    HW224900   8.910   9.351   5.385  2.1372 -0.7505 -0.1455
40841SOL     OW24901   0.994   3.626   0.883  0.2592  0.3693 -0.1868
40841SOL    HW124902   0.931   3.694   0.857  0.4816  0.8296  0.4307
40841SOL    HW224903   1.001   3.569   0.808 -0.7764  0.4098 -0.3211
40842SOL     OW24904   9.200   3.616   8.888 -0.1602 -0.0537 -0.4880
40842SOL    HW124905   9.182   3.670   8.964  0.4164 -1.3499  0.6106
40842SOL    HW224906   9.132   3.640   8.825 -0.1798  1.6039  0.1045
40843SOL     OW24907  10.550   0.454   3.866 -0.2269  0.3455  0.0202
40843SOL    HW124908  10.627   0.466   3.811  0.6350  0.3706  1.2158
40843SOL    HW224909  10.511   0.541   3.873  0.6184  0.6758  0.8143
40844SOL     OW24910   3.222  10.726   1.136 -0.1766  0.1683 -0.2452
40844SOL    HW124911   3.173  10.764   1.209  0.3174  0.6174 -0.1393
40844SOL    HW224912   3.303  10.695   1.176 -1.2688 -2.6525  0.0127
40845SOL     OW24913  10.492   3.991  10.625 -0.3252  0.1115 -0.1028
40845SOL    HW124914  10.526   4.064  10.574 -0.9006  1.8234  1.8046
40845SOL    HW224915  10.556   3.921  10.614  0.8683  1.3009 -1.0383
40846SOL     OW24916   8.376   3.950  10.753  0.0666 -0.2486 -0.6341
40846SOL    HW124917   8.464   3.916  10.769  0.0289 -0.1875 -0.2957
40846SOL    HW224918   8.375   4.035  10.798  0.0473  0.0450 -1.1807
40847SOL     OW24919   0.090   4.386   9.339 -0.4354 -0.4766  0.8388
40847SOL    HW124920   0.071   4.311   9.282 -2.4070  0.1211  0.6093
40847SOL    HW224921   0.008   4.437   9.338  0.2552  0.7318  2.4182
40848SOL     OW24922   1.161   1.527   3.215 -0.1429  0.6199 -0.3439
40848SOL    HW124923   1.111   1.549   3.137 -0.3314  0.5113 -0.2548
40848SOL    HW224924   1.252   1.524   3.185 -0.3913 -1.5022 -1.0600
40849SOL     OW24925   1.350   6.972   7.236  0.4631 -0.0261  0.0874
40849SOL    HW124926   1.401   7.054   7.234  0.3318  0.0468 -0.4579
40849SOL    HW224927   1.416   6.903   7.242  0.5827  0.1123  0.3876
40850SOL     OW24928   6.329   3.100   5.166  0.3689  0.2279  0.0608
40850SOL    HW124929   6.362   3.170   5.110  2.0335 -0.0034  0.6761
40850SOL    HW224930   6.304   3.145   5.247 -2.1333  0.5771 -0.8126
40851SOL     OW24931   1.545   2.024   7.940  0.1835  0.2605 -0.2654
40851SOL    HW124932   1.524   1.944   7.989  1.5427 -0.4657 -0.8346
40851SOL    HW224933   1.484   2.089   7.975  1.2255 -0.1347  2.5950
40852SOL     OW24934   4.393   5.440   7.261 -0.8919  0.4118 -0.3271
40852SOL    HW124935   4.428   5.446   7.172  0.8350  0.5185  0.3330
40852SOL    HW224936   4.437   5.364   7.299 -3.1068 -0.8824 -0.1680
40853SOL     OW24937   0.590   6.651   3.574  0.7260 -0.4180  0.0641
40853SOL    HW124938   0.535   6.582   3.610  1.2071 -1.2579 -0.7863
40853SOL    HW224939   0.603   6.627   3.483 -0.1506  1.4777 -0.6124
40854SOL     OW24940   0.340  10.341   3.832  0.1025  0.1728 -0.2035
40854SOL    HW124941   0.350  10.309   3.922  0.0552  1.0335  0.1156
40854SOL    HW224942   0.345  10.262   3.778 -3.9032 -0.9953  0.7655
40855SOL     OW24943  10.691   5.656   3.977 -0.1307  0.1464 -0.3155
40855SOL    HW124944  10.678   5.660   4.071 -0.8264  0.1743 -0.4013
40855SOL    HW224945  10.776   5.697   3.962  0.4666 -0.8062  0.3905
40856SOL     OW24946   2.700   2.276   0.780 -0.4080  0.8304  0.0580
40856SOL    HW124947   2.741   2.247   0.862  0.4605  0.6535 -0.4369
40856SOL    HW224948   2.640   2.205   0.757  0.9024 -0.1149 -0.5667
40857SOL     OW24949   4.946   3.832   7.055  0.2898 -0.3564 -0.4291
40857SOL    HW124950   4.965   3.851   6.963 -0.6998 -1.2072 -0.8314
40857SOL    HW224951   4.972   3.912   7.101  0.1308  0.3697 -1.5365
40858SOL     OW24952   5.595   8.848   2.227 -0.3570 -0.0757  0.1395
40858SOL    HW124953   5.609   8.754   2.240 -0.2261 -0.0639  0.0737
40858SOL    HW224954   5.512   8.852   2.180  0.9863 -0.3054 -2.4068
40859SOL     OW24955   5.186   8.892   3.255  0.1840 -0.2514 -0.2414
40859SOL    HW124956   5.182   8.819   3.317  0.4142  1.1746  1.5684
40859SOL    HW224957   5.101   8.935   3.264  0.3621  0.1863 -0.6219
40860SOL     OW24958   4.656   5.329   1.288  0.8830 -0.1350 -0.8454
40860SOL    HW124959   4.737   5.282   1.265  0.5692 -1.4804  0.6652
40860SOL    HW224960   4.592   5.260   1.306  0.5926  0.7958  2.1788
40861SOL     OW24961   1.225   4.389   9.294 -0.1008  0.2434  0.1004
40861SOL    HW124962   1.286   4.344   9.353  0.4283  1.2822  0.3863
40861SOL    HW224963   1.281   4.425   9.225 -0.3754  1.1463  0.3252
40862SOL     OW24964   3.943   6.541   3.133  0.3549  0.3197 -0.3920
40862SOL    HW124965   3.870   6.595   3.103 -0.4586 -0.6799 -0.2448
40862SOL    HW224966   3.976   6.587   3.210 -0.7592  0.2769  0.1317
40863SOL     OW24967   7.771   1.985   5.290  0.2148 -0.3957 -0.1222
40863SOL    HW124968   7.802   1.948   5.373 -1.2856  2.3787  1.8370
40863SOL    HW224969   7.676   1.981   5.296  0.0669 -0.6331 -2.0131
40864SOL     OW24970  10.016   2.181   4.264  0.0188 -0.1469  0.0978
40864SOL    HW124971   9.989   2.101   4.308  0.9031 -0.6037 -0.1481
40864SOL    HW224972  10.048   2.151   4.178 -0.5191  0.5757 -0.3658
40865SOL     OW24973   2.321   0.950   3.280 -0.2764  0.2170 -0.0735
40865SOL    HW124974   2.389   0.955   3.213 -1.8156  0.0646 -1.7605
40865SOL    HW224975   2.359   0.899   3.351  1.8331  1.3717 -0.2951
40866SOL     OW24976   1.099   1.477   9.789  0.2013  0.0306  0.3992
40866SOL    HW124977   1.135   1.442   9.708 -1.7476 -0.4119 -0.3294
40866SOL    HW224978   1.154   1.439   9.858  1.4580 -0.1304 -0.6528
40867SOL     OW24979   4.482   9.498   2.835 -0.0606  0.4302 -0.1128
40867SOL    HW124980   4.558   9.451   2.871 -0.0852 -1.4036 -2.2247
40867SOL    HW224981   4.409   9.470   2.890  0.4264  0.5233  0.6061
40868SOL     OW24982   3.659  10.071   3.154 -0.4142  0.2164  0.4598
40868SOL    HW124983   3.569  10.063   3.119 -0.1689  0.2795 -0.2038
40868SOL    HW224984   3.714  10.034   3.085 -0.0446 -1.4542  1.5741
40869SOL     OW24985   3.723   6.307   6.938  0.7118  0.0326 -0.3099
40869SOL    HW124986   3.738   6.385   6.992  1.1416  0.3399 -0.8598
40869SOL    HW224987   3.801   6.301   6.883  0.1087 -0.0524 -1.1680
40870SOL     OW24988   4.517   7.462   6.758  0.2007 -0.4594 -0.6518
40870SOL    HW124989   4.575   7.386   6.746 -0.6296 -1.2492  0.1656
40870SOL    HW224990   4.431   7.424   6.775  0.1527  0.5909  1.9687
40871SOL     OW24991   8.519   8.914   9.511 -0.0514  0.0395  0.6701
40871SOL    HW124992   8.471   8.832   9.519 -1.5223  0.8992  1.0500
40871SOL    HW224993   8.596   8.892   9.458 -1.7797 -1.0468 -1.5624
40872SOL     OW24994   5.946   2.064   9.314 -0.0327  0.7884  0.3673
40872SOL    HW124995   5.867   2.063   9.260  1.0188  1.1515 -1.2721
40872SOL    HW224996   5.917   2.036   9.400 -1.0777 -4.8684 -1.4267
40873SOL     OW24997   1.883   0.357   0.211  0.3430 -0.2715 -0.2157
40873SOL    HW124998   1.970   0.397   0.205  0.6965 -1.1167 -1.1615
40873SOL    HW224999   1.892   0.290   0.279  0.0321  0.5456  0.6527
40874SOL     OW25000  10.502   6.246  10.072 -0.7959  0.8739  0.6164
40874SOL    HW125001  10.598   6.250  10.067 -0.8434  0.9280 -0.4914
40874SOL    HW225002  10.481   6.297  10.150  0.1540 -0.5721  1.9030
40875SOL     OW25003   3.149   6.099   4.693 -0.1264  0.1688 -0.3661
40875SOL    HW125004   3.167   6.072   4.603 -0.3217  0.2116 -0.4193
40875SOL    HW225005   3.183   6.188   4.698 -0.6166  0.3700 -0.5643
40876SOL     OW25006   1.711   6.027   9.296  0.6030 -0.4599  0.1291
40876SOL    HW125007   1.658   5.998   9.222  0.7877  0.3677 -0.3424
40876SOL    HW225008   1.746   6.111   9.268  1.3468 -0.5261  0.8367
40877SOL     OW25009   3.135  10.637   6.384  1.2167 -0.4969 -0.2050
40877SOL    HW125010   3.043  10.659   6.371  1.4045  0.5896  0.1891
40877SOL    HW225011   3.165  10.606   6.298  0.9180  0.8138 -0.8029
40878SOL     OW25012   2.527   3.977   4.855  0.2563 -0.3408  0.7714
40878SOL    HW125013   2.443   3.974   4.900  0.1679 -1.0471  0.5710
40878SOL    HW225014   2.579   3.906   4.893  0.4803 -0.4104  0.3556
40879SOL     OW25015   8.667   6.737   5.675  0.1395 -0.0961 -0.5434
40879SOL    HW125016   8.752   6.774   5.697  0.4953 -0.4769 -1.2253
40879SOL    HW225017   8.605   6.782   5.731  0.4786  1.9313 -1.7091
40880SOL     OW25018   2.999   3.702   6.749 -0.1728  0.2015 -0.1631
40880SOL    HW125019   3.063   3.721   6.681 -1.1251  0.6281 -0.9431
40880SOL    HW225020   2.917   3.740   6.718 -0.7097  0.0764  1.0432
40881SOL     OW25021   5.935   3.342   8.405  0.3830  0.1155 -0.9597
40881SOL    HW125022   5.950   3.255   8.368 -1.4594 -0.6277 -0.0856
40881SOL    HW225023   5.855   3.373   8.363  0.5033  0.9834 -0.5733
40882NA      NA25024   0.111   9.522   6.699 -0.1423 -0.3695  0.2086
40883NA      NA25025   4.961   3.670   8.161  0.2090 -0.1055  0.2288
40884NA      NA25026   1.991   5.375   9.075  0.0688  0.2712 -0.2077
40885NA      NA25027   5.527   7.677   6.938  0.1580 -0.6588  0.2827
40886NA      NA25028   3.354   7.572   7.021 -0.3372  0.4316  0.0068
40887NA      NA25029   4.456   0.444   4.477  0.5705  0.3527  0.9036
40888NA      NA25030   2.479   5.668   0.037 -0.4415 -0.2551 -0.3888
40889NA      NA25031   1.121   1.139   8.848 -0.1537 -0.0079 -0.1165
40890NA      NA25032   0.565   7.013   7.652 -0.0161  0.5364 -0.2117
40891NA      NA25033   2.854  10.471   1.357 -0.2219  0.0255  0.6306
40892NA      NA25034   0.940   5.293  10.420 -0.2421  0.3963  0.3259
40893NA      NA25035   2.100   4.600   2.804  0.3068  0.4333 -0.2572
40894NA      NA25036   6.812   4.218   6.283 -0.4182 -0.3711  0.0651
40895NA      NA25037   9.439   0.994   9.255 -0.2115  0.0779  0.4641
40896NA      NA25038   3.050   1.532   4.028  0.3029 -0.1070  0.7794
40897NA      NA25039   7.798   6.528   6.591 -0.0101  0.6556 -0.1930
40898NA      NA25040   6.351   9.302   2.801 -0.0418 -0.4956 -0.1344
40899NA      NA25041   9.035   0.059  10.721 -0.4034  0.1216 -0.2957
40900NA      NA25042   5.432  10.532   3.674  0.1401  0.5583  0.5046
40901NA      NA25043   2.879   6.588   5.155 -0.2484 -0.4549  0.0694
40902NA      NA25044   0.187   4.055   2.312 -0.2740  0.6591 -0.3136
40903NA      NA25045   8.335   8.047   2.140 -0.3572  0.2015  0.3954
40904NA      NA25046   7.978   8.976   8.578 -0.2006 -0.4285  0.1192
40905NA      NA25047   5.607   4.005   9.146  0.4334  0.0890  0.2514
40906NA      NA25048   8.756  10.468   7.822  0.7311  0.1100 -0.0997
40907NA      NA25049   6.552   7.314   9.268  0.1485  0.0998 -0.0467
40908NA      NA25050   2.743   8.497   0.646 -0.0006  0.3318 -0.3566
40909NA      NA25051   9.609   9.177   4.400  0.1609  0.1231 -0.1244
40910NA      NA25052   9.328   1.426   2.052 -0.1037 -0.1401 -0.3428
40911NA      NA25053   8.029   5.671   1.407 -0.2754 -0.5088  0.0670
40912NA      NA25054   7.014   0.748  10.452 -0.0711 -0.2208 -0.0190
40913NA      NA25055   4.926   2.821   0.174  0.2601  0.0640 -0.3731
40914NA      NA25056  10.141   9.396   0.247  0.7444  0.0247  0.7632
40915NA      NA25057  10.227  10.575   2.677  0.0258 -0.0721 -0.2416
40916NA      NA25058   8.773   9.187  10.305  0.3252  0.3169 -0.0499
40917NA      NA25059   0.437   0.467   6.217  0.0670  0.1518 -0.1182
40918NA      NA25060   8.232   6.837  10.649  0.0680 -0.0355 -0.3679
40919NA      NA25061   0.520   9.657   1.595 -0.1872 -0.2274  0.4381
40920NA      NA25062   9.850   7.332   2.452 -0.3633  0.0141 -0.4087
40921NA      NA25063   0.675  10.729   2.126 -0.0157  0.4931  0.0876
40922NA      NA25064   2.322   3.146   1.523  0.1999  0.1646 -0.6062
40923NA      NA25065   5.967   2.850   6.450 -0.0717 -0.5173 -0.0707
40924NA      NA25066   9.453   0.188   0.600  0.1522  0.5380 -0.0803
40925NA      NA25067   0.897   9.843   0.348 -0.1640  0.2603 -0.5709
40926NA      NA25068   2.734   0.114  10.607 -0.0280 -0.0174 -0.4081
40927NA      NA25069   2.107   2.766  10.717  0.6615  0.0360  0.0279
40928NA      NA25070   2.872   6.219   1.272 -0.3413  0.0177 -0.0427
40929NA      NA25071   0.627  10.131   4.705  0.4565  0.0553 -0.2138
40930NA      NA25072   1.622   7.834   9.329 -0.4823 -0.8461  0.2630
40931NA      NA25073   4.800   7.948   7.392 -0.0243 -0.0773  0.2461
40932NA      NA25074   6.202   2.362   9.101 -0.2392 -0.5578 -0.8503
40933NA      NA25075   7.727  10.403   1.889 -0.0787 -0.3155 -0.2616
40934NA      NA25076   0.589   3.637   7.758  0.2347 -0.7688  0.1812
40935NA      NA25077   3.375   6.224   2.494  0.5385 -0.7124 -0.1780
40936NA      NA25078   7.393   7.172   7.896  0.0736  0.1534 -0.0791
40937NA      NA25079   5.685   0.336   2.486  0.1308 -0.1293  0.2061
40938NA      NA25080   6.132   8.041  10.198  0.2728  0.0592  0.4884
40939NA      NA25081   1.218   6.582   6.965 -0.5117 -0.2130 -0.0203
40940NA      NA25082   0.346   9.061   5.399  0.2271 -0.1861  0.3248
40941NA      NA25083   1.367   0.966   5.702 -0.2844 -0.2130  0.2167
40942NA      NA25084   9.950   1.365   7.655 -0.2641 -0.0290 -0.0455
40943NA      NA25085   9.857   2.723   8.985 -0.3071 -0.3326  0.2323
40944NA      NA25086   3.629  10.542  10.413  0.5979  0.3024 -0.1533
40945NA      NA25087   2.990  10.319   1.910  0.0865  0.1445 -0.3064
40946NA      NA25088   5.410   6.567   7.777  0.2099  0.2762 -0.1073
40947NA      NA25089   4.411   6.958  10.781 -0.0143 -0.2111 -0.2717
40948NA      NA25090   8.299   7.892   9.302  0.2154  0.5087 -0.1591
40949NA      NA25091   1.981   6.464   7.640  0.3845 -0.1893  0.1520
40950NA      NA25092   0.430   2.214   2.833 -0.3884  0.5645 -0.0687
40951NA      NA25093   9.650   6.703   0.787 -0.0450  0.2202  0.0733
40952NA      NA25094  10.647   7.408  10.765  0.1178  0.0063 -0.3912
40953NA      NA25095   1.978   7.083   2.842  0.1005  0.0143  0.6773
40954NA      NA25096   6.029   7.023   0.428  0.2282 -0.1639 -0.1869
40955NA      NA25097   6.774   6.728   9.452  0.0097 -0.0578  0.3063
40956NA      NA25098  10.736   4.737   4.619  0.1482 -0.3108  0.1053
40957NA      NA25099   3.525   7.998   9.689 -0.0984 -0.0994 -0.5936
40958NA      NA25100   8.811   4.347   1.391  0.0453 -0.0592  0.3490
40959NA      NA25101   8.577   2.703   1.332  0.2223 -0.1181 -0.0382
40960NA      NA25102   2.491   6.985  10.421  0.3832 -0.4369  0.3327
40961NA      NA25103   6.138   4.889  10.008  0.2169  0.1246 -0.0754
40962NA      NA25104   2.665   4.076   4.704 -0.0818 -0.4101  0.4717
40963NA      NA25105   4.220   3.103   5.127 -0.0494  0.4861 -0.1075
40964NA      NA25106   8.325   1.959   9.083  0.0206  0.1864 -0.0680
40965NA      NA25107   1.265   5.123   9.091 -0.2445  0.1003  0.5717
40966NA      NA25108   9.535  10.561   5.583  0.1081 -0.0761 -0.2740
40967NA      NA25109   5.101  10.311  10.215  0.0842  0.3184  0.0690
40968NA      NA25110   8.893   2.510   1.637  0.4346 -0.0636  0.4006
40969NA      NA25111   0.646   1.783   8.414 -0.1423 -0.2474 -0.0225
40970NA      NA25112   4.724   2.877  10.133  0.0252  0.0706 -0.1431
40971NA      NA25113   6.183  10.254   5.798  1.0636  0.0422 -0.0881
40972NA      NA25114   9.280   9.735   7.924  0.3232  0.0310  0.1703
40973NA      NA25115   5.505   7.295   3.891  0.1980  0.5443  0.0605
40974NA      NA25116   3.230   9.532   5.049  0.1340 -0.1542 -0.3885
40975NA      NA25117   2.583   3.587   8.858 -0.1444 -0.1371 -0.2196
40976NA      NA25118   5.015   1.594   7.647  0.4792 -0.9224 -0.6788
40977NA      NA25119   2.410   6.288   4.490 -0.1784 -0.2189  0.7088
40978NA      NA25120   9.035   0.300   1.503  0.0670 -0.3120  0.2072
40979NA      NA25121   0.202   7.461   6.706  0.0180 -0.1822  0.2725
40980NA      NA25122   8.493   0.969   0.745  0.1375  0.1417 -0.1078
40981NA      NA25123   9.204   5.492   1.252  0.3584 -0.3294  0.1859
40982NA      NA25124   6.486  10.399   0.741  0.0121 -0.1894 -0.1149
40983NA      NA25125   2.046   1.650   2.885 -0.4449  0.0922 -0.1428
40984NA      NA25126   4.453   2.487   6.694 -0.2698  0.5218 -0.3821
40985NA      NA25127  10.190   0.823   8.011  0.5149  0.0513 -0.3024
40986NA      NA25128   8.365  10.434   5.963  0.1924 -0.0577  0.5832
40987NA      NA25129   1.547  10.348   1.638  0.3956  0.3057 -0.2763
40988NA      NA25130   2.428   9.764   6.490 -0.3657  0.0147 -0.0315
40989NA      NA25131   1.827   7.160   8.121 -0.4702  0.0442 -0.1164
40990NA      NA25132   5.787   3.542   2.830  0.0284  0.1082  0.1247
40991NA      NA25133   7.327   3.551   5.520  0.3521 -0.0997 -0.0948
40992NA      NA25134   5.036   9.818   8.997  0.0739  0.3318  0.6578
40993NA      NA25135   6.246   2.720   4.886 -0.2476  0.4088  0.0819
40994NA      NA25136   2.281   2.611   8.400  0.2129  0.0286 -0.0329
40995NA      NA25137   5.558   0.354   6.224 -0.0828 -0.0141 -0.3373
40996NA      NA25138   5.814  10.664   7.460 -0.5259 -0.1656  0.2985
40997NA      NA25139   6.853   8.926   9.105 -0.0728 -0.2912  0.0763
40998CL      CL25140   9.675   0.883  10.508  0.1437 -0.1424 -0.3168
40999CL      CL25141   5.492   6.803   4.040  0.1009  0.5618 -0.1579
41000CL      CL25142   9.065   3.274   9.189 -0.1347  0.4610  0.2971
41001CL      CL25143   4.540   2.105   1.572  0.3573 -0.3899 -0.1343
41002CL      CL25144   8.181   5.606   2.655 -0.1939 -0.1499 -0.3707
41003CL      CL25145   3.614   8.550   0.393 -0.1383  0.3021  0.3178
41004CL      CL25146   9.382   5.242   5.146  0.3476 -0.5032  0.2929
41005CL      CL25147   8.038   4.758  10.286  0.1779  0.2374 -0.1307
41006CL      CL25148   8.350   6.581   7.026 -0.2581  0.2471 -0.2192
41007CL      CL25149   7.356   7.010   7.105 -0.0581  0.5361  0.1544
41008CL      CL25150   4.627   5.178   5.513  0.1537 -0.4213 -0.3478
41009CL      CL25151   6.735   4.822   8.180  0.2946  0.2317  0.0219
41010CL      CL25152   7.012   0.254   5.460  0.1356  0.2481 -0.1375
41011CL      CL25153   4.372   8.076   7.626  0.0436 -0.5522  0.3541
41012CL      CL25154   8.241   4.735   5.564 -0.0733  0.1603  0.1457
41013CL      CL25155   8.333   8.944   8.247  0.3648 -0.1278 -0.2260
41014CL      CL25156   5.785   3.687  10.718 -0.3481  0.1801  0.0372
41015CL      CL25157   8.214   7.907   2.317  0.4600  0.6182 -0.2072
41016CL      CL25158   8.488   5.174   6.262  0.4417  0.2551 -0.3211
41017CL      CL25159   9.945   3.380   9.254  0.4109  0.0465 -0.2602
41018CL      CL25160   2.425   2.840   3.675 -0.0698  0.3165 -0.2637
41019CL      CL25161   6.543   7.914   5.284 -0.9023  0.3236 -0.3335
41020CL      CL25162   3.801   6.623   0.735  0.1549 -0.1394  0.0333
41021CL      CL25163   8.384   8.641   5.921 -0.2218  0.1583 -0.3958
41022CL      CL25164   6.876   6.495   6.412  0.0821 -0.0587 -0.2184
41023CL      CL25165   6.428   5.689   7.191  0.0510 -0.2538  0.0107
41024CL      CL25166   9.234   1.931   5.313  0.0932  0.2545  0.5141
41025CL      CL25167   1.621   4.885   7.694  0.3777  0.1303 -0.1110
41026CL      CL25168   2.220   5.452   1.363  0.3349 -0.2813  0.0108
41027CL      CL25169   6.421   2.838   6.760 -0.1939 -0.3484  0.0865
41028CL      CL25170   6.562   5.747   3.981  0.0122 -0.0599  0.3119
41029CL      CL25171   3.808   9.514   2.371  0.2194 -0.3082  0.3356
41030CL      CL25172  10.377   4.059   5.587 -0.1619  0.1223 -0.3439
41031CL      CL25173   7.107   5.254   9.724  0.2297 -0.3244  0.0185
41032CL      CL25174   8.460   7.486   0.941 -0.1670  0.1547  0.7824
41033CL      CL25175  10.095   8.962   5.158 -0.5662  0.0639  0.3746
41034CL      CL25176   8.468  10.131   2.325  0.4435 -0.3603  0.2817
41035CL      CL25177   6.868   5.123   6.953 -0.4301 -0.0357 -0.0715
41036CL      CL25178   0.209   6.116   6.261  0.0943  0.1192 -0.0440
41037CL      CL25179   4.845   5.230   2.623  0.0253 -0.0458  0.1059
41038CL      CL25180   7.727   9.631   8.028  0.0427 -0.0498  0.0357
41039CL      CL25181   8.931   7.810   6.227  0.2813  0.0322  0.1528
41040CL      CL25182   8.476   5.750  10.286  0.1535 -0.3304  0.0142
41041CL      CL25183   0.289   0.651   3.554 -0.2631  0.0845 -0.0272
41042CL      CL25184   8.705   6.276   4.928  0.4913  0.1289 -0.0863
41043CL      CL25185   2.560   4.213   2.291  0.1803  0.2546  0.4125
41044CL      CL25186   7.199   8.552   6.678 -0.2330  0.1192 -0.0806
41045CL      CL25187   9.020   7.321   3.592 -0.3100  0.1062  0.4276
41046CL      CL25188   5.360   9.586   6.900 -0.0654 -0.1640 -0.7001
41047CL      CL25189   0.721   9.382  10.552  0.5861 -0.3822 -0.2402
41048CL      CL25190   9.355   2.619   3.820  0.0875 -0.2033 -0.3456
41049CL      CL25191   0.648   6.551   0.247 -0.1998 -0.2135 -0.4873
41050CL      CL25192  10.433   9.633   0.787  0.4382  0.0447 -0.4239
41051CL      CL25193   5.229   6.163   7.224 -0.4800 -0.3413  0.2890
41052CL      CL25194   0.577   8.486   9.500  0.2072  0.2323 -0.1197
41053CL      CL25195  10.467   2.667   1.075 -0.3930 -0.1950 -0.1402
41054CL      CL25196   9.003   2.505  10.280  0.3934  0.1060 -0.3246
41055CL      CL25197   5.658   4.771   9.894  0.1705  0.0692  0.3136
41056CL      CL25198   9.680   6.454   4.436  0.1889 -0.0091 -0.0264
41057CL      CL25199   2.326  10.645   6.713  0.4622  0.1607 -0.7287
41058CL      CL25200   3.992   0.402   4.013  0.2600  0.0278  0.2019
41059CL      CL25201  10.054   0.885   3.754 -0.1527 -0.0075 -0.1385
41060CL      CL25202   8.432   4.823   7.817  0.1981 -0.0557 -0.1005
41061CL      CL25203   7.521   6.681   5.329 -0.5374  0.0008 -0.1248
41062CL      CL25204   8.774  10.715   8.612 -0.0179 -0.1133  0.0678
41063CL      CL25205   4.649   0.133   0.444 -0.3563 -0.1454  0.0663
41064CL      CL25206  10.524   6.026   3.454  0.1527 -0.3348 -0.2252
41065CL      CL25207   0.961   5.383   7.174  0.0635  0.3102  0.1741
41066CL      CL25208   2.796   8.634   4.126 -0.2709  0.3271 -0.2441
41067CL      CL25209   2.958   6.106   7.372 -0.3144  0.1471 -0.1908
41068CL      CL25210   9.797   5.429   3.986 -0.3409 -0.5399 -0.1028
41069CL      CL25211  10.066   7.335   8.909 -0.0598 -0.4356  0.0761
41070CL      CL25212   1.208   7.522   6.838 -0.2000  0.0010 -0.1209
41071CL      CL25213   8.046  10.233   5.674  0.3856 -0.3810  0.0574
41072CL      CL25214   4.841   7.101   5.680 -0.2359  0.1583  0.4223
41073CL      CL25215   2.811   1.485   3.978 -0.1470 -0.4495 -0.1658
41074CL      CL25216   4.527   8.419   2.921 -0.1281 -0.1773 -0.2310
41075CL      CL25217   5.266   8.453   4.117  0.0694  0.3398  0.5128
41076CL      CL25218   0.209   8.870   5.881 -0.0267  0.1562 -0.0001
41077CL      CL25219   0.592   5.172   8.105  0.2224  0.0450  0.1702
41078CL      CL25220   9.469  10.552   5.813 -0.3001 -0.3957  0.1632
41079CL      CL25221   1.015   4.777   4.366 -0.0660  0.3586  0.0515
41080CL      CL25222   6.220   4.369   5.590  0.0885  0.0834 -0.0243
41081CL      CL25223   9.510  10.343   2.362  0.3922 -0.1001 -0.2167
41082CL      CL25224   2.244   6.536   7.998  0.3045  0.3688  0.2522
41083CL      CL25225   2.494   6.545   3.582  0.3436 -0.0858  0.3030
41084CL      CL25226   6.839   7.548  10.790  0.0664 -0.1841 -0.0713
41085CL      CL25227   0.076   4.733   7.647 -0.1678  0.1406 -0.4157
41086CL      CL25228   0.338   5.410   5.977 -0.4864 -0.1367 -0.0937
41087CL      CL25229   3.819   7.089   7.948 -0.2125  0.3722 -0.0604
41088CL      CL25230   0.160   0.706  10.204  0.6255 -0.0932  0.0059
41089CL      CL25231   9.067   3.826   3.797  0.1159 -0.0783  0.3076
41090CL      CL25232   3.072   8.324   0.872  0.1892 -0.3770 -0.0446
41091CL      CL25233   6.374   6.828   6.013 -0.0728 -0.0276 -0.0845
41092CL      CL25234   9.170   4.103   5.227  0.2063  0.0834 -0.1153
41093CL      CL25235   0.919   5.438   9.610 -0.2601 -0.5006  0.0378
41094CL      CL25236   8.739   5.809   4.125 -0.4921 -0.2313  0.1986
41095CL      CL25237   7.903   5.845   7.530 -0.1681 -0.2222 -0.0844
41096CL      CL25238   0.688   8.427  10.467 -0.0577 -0.0256 -0.0264
41097CL      CL25239   7.154   7.201   5.498  0.2210  0.1434  0.1208
41098CL      CL25240   7.284   4.737   6.882  0.1939 -0.4425  0.0657
41099CL      CL25241  10.315   2.608   4.100  0.1742 -0.0394  0.0934
41100CL      CL25242   5.056   0.903   2.444 -0.0672 -0.5098 -0.4759
41101CL      CL25243   5.061   8.913   6.666  0.0130  0.1894  0.4231
41102CL      CL25244   6.417   4.410   9.895 -0.7115  0.0118  0.1763
41103CL      CL25245   1.278   4.782   6.369 -0.4810  0.0229  0.3191
41104CL      CL25246  10.641   5.041   3.648  0.1818  0.0806 -0.3238
41105CL      CL25247  10.336  10.587   4.051 -0.0008 -0.0085  0.1717
41106CL      CL25248   7.407   7.834   9.172  0.0262 -0.0428  0.1050
41107CL      CL25249   4.032   1.475   3.514  0.2438  0.0905  0.3561
41108CL      CL25250   9.787   4.994   7.795  0.0287  0.3397 -0.0533
41109CL      CL25251   5.827   2.203   4.525 -0.4010 -0.0142  0.2686
41110CL      CL25252   2.063   0.569   1.354  0.1349  0.6119  0.0401
41111CL      CL25253   8.860   9.200   8.013  0.0248 -0.3667 -0.1011
41112CL      CL25254   8.760   0.296  10.109  0.3378  0.0520  0.2031
41113CL      CL25255  10.089   3.277   6.908  0.0867 -0.1157 -0.0574
41114CL      CL25256   6.757   9.454   2.942 -0.0155 -0.0145  0.1078
41115CL      CL25257   7.457   4.496   2.067  0.0636 -0.1313  0.2369
41116CL      CL25258   1.913   6.140   2.065  0.0504 -0.0913  0.5046
41117CL      CL25259   8.323   3.587   4.781  0.1027  0.2297 -0.0429
41118CL      CL25260   1.685   1.313   4.165  0.0542  0.2566  0.6149
41119CL      CL25261   9.038   6.762   6.022 -0.1293  0.0626 -0.2435
41120CL      CL25262   5.979   7.869   4.518 -0.2214 -0.0802  0.2888
41121CL      CL25263   6.636   6.759   4.483 -0.3331  0.0541  0.5264
41122CL      CL25264   8.323   9.773   7.886 -0.2487 -0.0742 -0.4121
41123CL      CL25265   5.530   0.377   9.942  0.0649  0.6257 -0.0386
41124CL      CL25266   6.129   7.777   6.407  0.0051  0.1585 -0.1121
41125CL      CL25267   7.974   6.131   1.245  0.2266 -0.0725  0.4279
41126CL      CL25268   8.732   3.087   1.119  0.1729 -0.0247  0.2582
41127CL      CL25269   9.507   4.257   6.457 -0.4409 -0.0253  0.3155
41128CL      CL25270   0.883   1.013   5.372  0.0818  0.0967  0.0702
41129CL      CL25271   2.183   5.235   7.341 -0.0007 -0.2771  0.1520
41130CL      CL25272   3.091   7.323   0.113 -0.0214  0.1859  0.1776
41131CL      CL25273   0.740   9.372   5.313  0.3900 -0.1707  0.3433
41132CL      CL25274   7.310   3.600   4.323 -0.1765 -0.1397 -0.1531
41133CL      CL25275  10.148   4.834   4.604  0.5041  0.0925 -0.1977
41134CL      CL25276   0.908   9.742   3.686 -0.1060 -0.0844  0.0588
41135CL      CL25277   9.189   9.474   0.869  0.5583  0.6562  0.1126
41136CL      CL25278   2.003   4.946   9.158 -0.5698  0.0460  0.1727
41137CL      CL25279   6.854   4.909   3.813  0.4386 -0.0992 -0.0314
41138CL      CL25280   8.502   5.408   3.608  0.2754  0.0280  0.4491
41139CL      CL25281   7.100  10.149   3.520  0.1664 -0.1510  0.1507
41140CL      CL25282   0.457   2.786   9.122  0.2490  0.1994 -0.3782
41141CL      CL25283   7.987   8.175   5.453 -0.5501 -0.0489 -0.1598
41142CL      CL25284   4.700   3.433   8.777  0.1335  0.1661 -0.0361
41143CL      CL25285  10.474   6.091   6.762  0.0385 -0.1605 -0.1239
41144CL      CL25286   5.563   4.769   2.660  0.2902  0.1400  0.2352
41145CL      CL25287   4.964   6.053   7.741  0.1083 -0.1826  0.0577
41146CL      CL25288   8.825  10.506   3.639  0.0263  0.1370 -0.2391
41147CL      CL25289   0.422   6.834   7.734  0.3286  0.2852  0.6205
41148CL      CL25290   3.423   3.250   5.511 -0.1061 -0.2148 -0.0953
41149CL      CL25291   6.234   6.397   6.779 -0.4308  0.1234  0.1589
41150CL      CL25292   7.669   7.977   8.404 -0.1065  0.3324  0.1580
41151CL      CL25293   7.035   3.838   6.759  0.0498 -0.4446  0.0513
41152CL      CL25294   0.112   6.931   5.273  0.2333 -0.3807 -0.2422
41153CL      CL25295   7.525   3.454   5.113  0.4130  0.0960  0.0815
41154CL      CL25296   5.370   7.038   7.759  0.0873 -0.2151 -0.4527
41155CL      CL25297   7.521   7.042   2.207  0.4424 -0.5232 -0.0006
41156CL      CL25298  10.185   4.098   2.597  0.0555  0.3183 -0.2521
41157CL      CL25299   8.883   5.956   0.965 -0.0546 -0.1314  0.6171
41158CL      CL25300   9.124   1.013   0.251  0.1427 -0.1208 -0.1337
41159CL      CL25301   1.966   2.008   7.351 -0.4891  0.1516 -0.1163
41160CL      CL25302   9.508   8.861  10.278  0.1170  0.2323  0.0905
41161CL      CL25303   3.055   7.234   6.896 -0.3240 -0.3733  0.0394
41162CL      CL25304   3.787  10.026   9.677 -0.1216 -0.0546 -0.0518
41163CL      CL25305   7.840   2.555   5.718  0.0094 -0.2610  0.2206
41164CL      CL25306   4.317   3.516   5.406  0.5747  0.3199 -0.3923
41165CL      CL25307   0.292   3.891   8.506 -0.4642  0.3083 -0.2737
41166CL      CL25308   0.698   5.582   5.505  0.4227  0.3164  0.5026
41167CL      CL25309   4.454   6.744   6.307  0.0873 -0.3581 -0.4985
41168CL      CL25310   7.316   6.750   2.535 -0.2238  0.2769  0.6091
41169CL      CL25311   5.191   2.264   8.445  0.1133 -0.1757 -0.1275
41170CL      CL25312   8.300   9.021   3.304 -0.0584 -0.1837  0.0163
41171CL      CL25313   6.974  10.218   1.034  0.0720  0.0435  0.1103
41172CL      CL25314   2.428   4.476   5.192 -0.0532 -0.2053 -0.2072
41173CL      CL25315   7.476   8.195   7.677  0.4092 -0.2082  0.2368
41174CL      CL25316   3.050  10.645   9.597  0.1356  0.0815  0.0815
41175CL      CL25317   2.414   3.104  10.575 -0.1920 -0.1327 -0.0377
41176CL      CL25318   7.637   0.798  10.111 -0.0171 -0.0280 -0.1588
41177CL      CL25319   1.190   7.493   9.053 -0.0067 -0.3726  0.0277
41178CL      CL25320   2.087   1.245   0.644 -0.2767 -0.0466 -0.0000
41179CL      CL25321   0.756   2.945   5.004 -0.2930 -0.2834  0.0907
41180CL      CL25322   7.907   7.700   5.710  0.1721  0.1322 -0.0657
41181CL      CL25323   8.304   4.470   4.872  0.1292  0.1540 -0.8154
41182CL      CL25324  10.631   4.011   1.007 -0.4676 -0.1228  0.4849
41183CL      CL25325  10.750   5.332   0.077 -0.0795 -0.6232 -0.2198
41184CL      CL25326  10.170   3.991   7.050  0.1905  0.0716 -0.2826
41185CL      CL25327  10.594   5.611   7.721  0.0608  0.3103  0.2270
41186CL      CL25328   7.788   6.631   9.387  0.0968 -0.1522  0.3431
41187CL      CL25329   8.834   8.448   6.125  0.0267  0.1148  0.0561
41188CL      CL25330   6.676   5.305   3.578  0.0725  0.3297 -0.1390
41189CL      CL25331   2.449   2.081   4.545  0.2830 -0.1879 -0.4069
41190CL      CL25332  10.295   4.920   8.491  0.2953  0.2246 -0.1951
41191CL      CL25333   6.965   5.868   4.978 -0.0095 -0.3752  0.0372
41192CL      CL25334   7.327   1.769   6.340 -0.1546  0.0604  0.3241
41193CL      CL25335   8.110   0.561   6.423 -0.3896  0.2915 -0.2088
41194CL      CL25336   8.832   1.972   5.534 -0.0264  0.4324 -0.2120
41195CL      CL25337   6.147   7.637   2.420 -0.0809  0.0678  0.0260
41196CL      CL25338   0.178   5.947   2.863 -0.0852  0.1115 -0.3026
41197CL      CL25339   6.699   7.369   6.704  0.1909  0.0787  0.3824
41198CL      CL25340   8.392   3.686   5.477  0.1601 -0.1272  0.0386
41199CL      CL25341   0.467   4.479   8.089  0.1262  0.6635  0.3164
41200CL      CL25342   2.947   9.946   4.729 -0.1691 -0.2525 -0.1544
41201CL      CL25343   5.726   7.241   9.383 -0.2505 -0.5741  0.1496
41202CL      CL25344   7.296   6.196   2.364 -0.1329  0.1524 -0.7931
41203CL      CL25345   4.794   1.102   4.130  0.2503 -0.3000  0.2343
41204CL      CL25346  10.334   5.854   4.563 -0.1274 -0.2546  0.2891
41205CL      CL25347   6.054   9.032   4.660 -0.0065  0.0301 -0.0204
41206CL      CL25348   1.716   2.557   5.977  0.0252  0.0190 -0.2670
41207CL      CL25349   0.194   7.230   6.701 -0.3613  0.5468 -0.1826
41208CL      CL25350   9.873   6.793   5.915  0.0175 -0.1848 -0.2189
41209CL      CL25351   5.764   5.944   5.095  0.0133 -0.3809  0.0694
41210CL      CL25352   3.347   4.980   2.607 -0.1731  0.0595 -0.6009
41211CL      CL25353   9.338   1.009   2.894  0.1614 -0.1301 -0.1151
41212CL      CL25354   7.280   8.427   2.569  0.7460  0.0726  0.1202
41213CL      CL25355   9.593   3.555   4.692  0.2547  0.2312  0.1292
41214CL      CL25356   0.005   3.041   1.160 -0.4199  0.1464  0.0217
41215CL      CL25357   2.559   5.848   5.372  0.1859 -0.3143  0.1911
41216CL      CL25358  10.320   4.483   6.281 -0.2846  0.4390  0.0196
41217CL      CL25359   7.489   4.004   6.855 -0.0284 -0.0994  0.2240
41218CL      CL25360   9.319   5.447   7.711 -0.0838  0.0617 -0.0462
41219CL      CL25361   9.274   3.530   6.055  0.5461  0.1433  0.1859
41220CL      CL25362   9.176   7.570   8.187  0.4211 -0.3464 -0.5356
41221CL      CL25363   3.683   1.891   5.455  0.1139 -0.6805 -0.2189
41222CL      CL25364   7.096   3.245   0.513  0.0262 -0.0177  0.4452
41223CL      CL25365   0.282   8.304   1.914 -0.1729 -0.0483 -0.3122
41224CL      CL25366   9.362   0.411   1.164 -0.1473  0.4616  0.0076
41225CL      CL25367   0.523   9.255   1.915 -0.0253 -0.4657  0.5954
41226CL      CL25368   0.640   6.789   4.502  0.1692 -0.0289  0.1892
41227CL      CL25369   4.222   1.100   7.497  0.0467  0.1735 -0.4093
41228CL      CL25370   1.189   5.723   4.980 -0.5968  0.0324 -0.2174
41229CL      CL25371   6.668   0.703   4.968 -0.0004 -0.1767 -0.2281
41230CL      CL25372   3.068   4.938   5.388  0.0387  0.0867  0.1243
41231CL      CL25373   6.726   3.356   1.827 -0.1134  0.2773  0.4755
41232CL      CL25374   7.142   4.966   5.799 -0.1730  0.1236  0.0102
41233CL      CL25375  10.584   2.512   5.480 -0.4187 -0.2203 -0.2596
41234CL      CL25376   6.489   1.959  10.245 -0.3080 -0.0308 -0.0835
41235CL      CL25377   7.110   5.371   2.854  0.1226  0.0846 -0.6617
41236CL      CL25378   8.932   4.154   7.806 -0.1712  0.1311  0.1625
41237CL      CL25379   9.778   4.403   5.839 -0.4101  0.2089 -0.1387
41238CL      CL25380   0.399   0.990   1.460  0.1407  0.2256 -0.3557
41239CL      CL25381   6.826   5.225   6.250 -0.1939 -0.4109 -0.2298
  10.80113  10.80113  10.80113
