G1.5-PAMAM in water
15698
    1aaa     N1    1   2.681   0.855   4.505 -0.4993 -0.7239 -0.2614
    1aaa     C1    2   2.655   0.842   4.653  0.2376  0.6194 -0.1506
    1aaa     C2    3   2.726   0.716   4.712 -0.0171  0.1940 -0.6914
    1aaa     N2    4   2.698   0.678   4.861 -0.0235  0.4743 -0.2801
    1aaa     C3    5   2.755   0.787   4.952 -0.7711 -0.0238 -0.3991
    1aaa     C4    6   2.757   0.536   4.891 -0.2262 -0.1167 -0.0423
    1aaa     C5    7   2.824   0.898   4.482 -0.3630 -0.4555  0.2533
    1aaa     C6    8   2.581   0.954   4.460  0.4720  0.3606  0.4367
    1aaa     C7    9   2.914   0.525   4.897  0.1690  0.9262 -0.0452
    1aaa     C8   10   2.955   0.389   4.934 -0.3948 -0.6500 -0.1704
    1aaa     C9   11   2.719   0.773   5.101 -0.8755 -0.1905 -0.1688
    1aaa    C10   12   2.805   0.859   5.194 -0.3452  0.5831 -0.0909
    1aaa    C11   13   2.875   0.885   4.335 -0.5821 -0.0834 -0.3490
    1aaa    C12   14   2.898   0.740   4.285  0.2266 -0.7521 -0.3110
    1aaa    C13   15   2.449   0.891   4.411  0.2277 -0.2251 -0.0847
    1aaa    C14   16   2.464   0.811   4.284  0.2538  0.0924 -0.3941
    1aaa     O1   17   2.919   0.818   5.221  0.8077  0.3566  0.7122
    1aaa     O2   18   2.899   0.297   4.878 -0.0175  0.5393 -0.1717
    1aaa     O3   19   2.577   0.784   4.234  0.5466  0.2112  0.0408
    1aaa     O4   20   2.856   0.647   4.350  0.6187  0.2210 -0.0789
    1aaa     H1   21   2.547   0.843   4.672 -0.0777 -0.7557 -1.7080
    1aaa     H2   22   2.690   0.935   4.699  1.3722  1.0083 -1.7337
    1aaa     H3   23   2.834   0.730   4.701  0.0540 -0.3901 -0.7609
    1aaa     H4   24   2.705   0.628   4.650  0.6760  0.4037 -1.2456
    1aaa     H5   25   2.738   0.889   4.916  1.0013 -0.2057 -1.9318
    1aaa     H6   26   2.863   0.778   4.942 -0.9469 -1.2766 -1.4745
    1aaa     H7   27   2.722   0.519   4.993 -0.4170  1.0882  0.1086
    1aaa     H8   28   2.706   0.465   4.825 -1.6393 -0.5339  1.4266
    1aaa     H9   29   2.839   0.999   4.520 -1.9179  1.0960 -2.8778
    1aaa    H10   30   2.890   0.835   4.542  0.0581  0.8450  1.2104
    1aaa    H11   31   2.556   1.019   4.544 -0.8945  2.7451 -1.6375
    1aaa    H12   32   2.623   1.017   4.381  1.6766 -0.7429  0.1761
    1aaa    H13   33   2.955   0.547   4.798  0.5761 -1.6185 -0.5043
    1aaa    H14   34   2.954   0.595   4.972  0.0055 -0.0523  0.9790
    1aaa    H15   35   2.728   0.670   5.137  0.7024  0.6599  2.0693
    1aaa    H16   36   2.612   0.799   5.101 -0.4219  2.0237 -2.2722
    1aaa    H17   37   2.797   0.920   4.266 -1.2994 -0.4579  0.2407
    1aaa    H18   38   2.967   0.941   4.320  0.2756 -1.2603  0.3520
    1aaa    H19   39   2.388   0.839   4.486 -0.6775 -0.4403 -0.9487
    1aaa    H20   40   2.383   0.974   4.384 -0.6592 -1.8963 -3.6630
    1aaa    H37   41   2.671   0.767   4.452 -0.1318 -0.8956 -0.0490
    1aaa    H38   42   2.596   0.664   4.868 -0.0117  0.6250  0.2028
    2bbb     N1   43   2.997   0.099   5.203 -1.0344 -0.7741  0.3394
    2bbb     C1   44   2.858   0.140   5.149  0.2234  0.3352  1.1233
    2bbb     C2   45   2.995   0.045   5.343 -0.3002 -0.7647  0.8029
    2bbb     C3   46   2.792   0.059   5.031 -0.2425  0.3564 -0.3817
    2bbb     C4   47   2.666   0.113   4.973  0.2935  0.1402  0.1577
    2bbb     C5   48   2.912  -0.083   5.370 -0.8335 -0.1796  0.3663
    2bbb     C6   49   2.950  -0.158   5.496 -0.6595  0.0769  0.3183
    2bbb     C7   50   3.120   0.198   5.176 -0.0307 -0.0932  0.2641
    2bbb     C8   51   3.134   0.250   5.034  0.3086 -0.4135 -0.1204
    2bbb     N2   52   3.055   0.376   5.026  0.3547  0.0377 -0.1576
    2bbb     O1   53   2.634   0.230   4.980  0.3377 -0.1083  0.8275
    2bbb     O2   54   2.870  -0.168   5.586 -0.3852  0.5965  0.2420
    2bbb     H1   55   2.785   0.141   5.229 -2.7121 -0.9464 -1.3682
    2bbb     H2   56   2.869   0.246   5.122 -0.5768  0.1282 -0.0654
    2bbb     H3   57   2.980   0.125   5.415  0.9401 -0.0383  0.2808
    2bbb     H4   58   3.099   0.016   5.355 -0.2508 -1.2060 -0.5308
    2bbb     H5   59   2.849   0.035   4.941 -0.1221 -2.4767  0.3277
    2bbb     H6   60   2.762  -0.029   5.091  3.5290 -0.1228  1.1156
    2bbb     H7   61   2.916  -0.156   5.288 -0.5938  1.1434 -0.8449
    2bbb     H8   62   2.809  -0.050   5.390 -0.8382  1.7102 -2.2958
    2bbb     H9   63   3.208   0.141   5.204  0.1497 -0.4942 -1.0278
    2bbb    H10   64   3.120   0.291   5.234  4.3614  0.1981  0.1415
    2bbb    H11   65   3.095   0.178   4.961  0.9557 -0.3234 -0.5588
    2bbb    H12   66   3.234   0.278   4.999  0.5033 -3.0338 -1.9532
    2bbb    H13   67   3.082   0.461   5.074 -0.8079  0.4574 -0.2153
    2bbb    H25   68   3.005   0.017   5.140 -0.1776 -0.8737  0.5670
    3bbb     N1   69   2.602   1.060   5.522 -0.3162 -0.4030  0.6512
    3bbb     C1   70   2.584   1.209   5.485 -0.2128 -0.1284 -0.3142
    3bbb     C2   71   2.575   1.043   5.668 -0.3464 -0.3892  0.5376
    3bbb     C3   72   2.437   1.257   5.454 -0.6615  0.9025  0.4992
    3bbb     C4   73   2.372   1.198   5.328  0.4067  0.0910 -0.0697
    3bbb     C5   74   2.552   0.898   5.720 -0.0174  0.5082  0.0048
    3bbb     C6   75   2.535   0.904   5.875  0.0501 -0.3972 -0.2260
    3bbb     C7   76   2.742   1.010   5.498 -0.5026 -0.2530  0.1559
    3bbb     C8   77   2.815   1.036   5.366 -0.1586 -0.4941 -0.0515
    3bbb     N2   78   2.747   0.971   5.250  0.1045  0.0620  0.3588
    3bbb     O1   79   2.408   1.086   5.286  0.3270 -0.0039 -0.6540
    3bbb     O2   80   2.612   0.963   5.943 -0.1756  0.4333  0.1278
    3bbb     H1   81   2.618   1.259   5.575  1.5067 -0.0338 -0.9749
    3bbb     H2   82   2.653   1.237   5.405  2.2785  2.3727  2.4750
    3bbb     H3   83   2.486   1.095   5.704  0.2855 -1.0103  3.2393
    3bbb     H4   84   2.665   1.080   5.718  2.4618 -0.7504 -3.7068
    3bbb     H5   85   2.377   1.237   5.544 -0.2657  2.0757  1.0527
    3bbb     H6   86   2.448   1.365   5.433  3.1253  0.4065 -0.8787
    3bbb     H7   87   2.633   0.829   5.694 -3.7723 -4.3831 -0.1900
    3bbb     H8   88   2.460   0.858   5.676  0.5933  0.1566 -0.9762
    3bbb     H9   89   2.732   0.902   5.511 -0.0087 -0.2931  0.2239
    3bbb    H10   90   2.802   1.050   5.579 -0.1107 -0.8487  0.1688
    3bbb    H11   91   2.921   1.008   5.378  0.3683  1.9087  1.6106
    3bbb    H12   92   2.817   1.144   5.346 -1.3143 -0.2448  1.0510
    3bbb    H13   93   2.649   0.988   5.233 -0.4769 -0.7981  2.4768
    3bbb    H25   94   2.538   0.995   5.475 -2.3723  1.7283  0.3612
    4bbb     N1   95   3.055   0.687   3.859 -0.2621 -0.4377  0.3611
    4bbb     C1   96   2.920   0.641   3.805  0.1872  0.2830  0.2921
    4bbb     C2   97   3.165   0.649   3.752  0.0028 -0.1244  0.3003
    4bbb     C3   98   2.863   0.686   3.665 -0.1730 -0.0989 -0.3481
    4bbb     C4   99   2.831   0.837   3.652 -0.3315 -0.1283 -0.2282
    4bbb     C5  100   3.310   0.690   3.794  0.1042  0.2459 -0.3466
    4bbb     C6  101   3.332   0.846   3.807  0.2495 -0.1794 -0.0410
    4bbb     C7  102   3.090   0.607   3.983  0.7171  0.0293 -0.4952
    4bbb     C8  103   2.981   0.599   4.094 -0.3668  0.7920  0.2590
    4bbb     N2  104   2.958   0.728   4.163  0.0523 -0.0188  0.0193
    4bbb     O1  105   2.888   0.916   3.726 -0.2541 -0.0229  0.1492
    4bbb     O2  106   3.253   0.917   3.740 -0.4523  0.3947 -0.1055
    4bbb     H1  107   2.931   0.533   3.811  0.6299  0.2362 -0.9436
    4bbb     H2  108   2.837   0.666   3.872 -0.7672 -1.7483 -0.0659
    4bbb     H3  109   3.145   0.696   3.656  0.7396 -2.1121 -0.9038
    4bbb     H4  110   3.157   0.542   3.729  0.5915 -0.2831  0.8088
    4bbb     H5  111   2.944   0.677   3.592 -0.0794 -3.6867 -0.0092
    4bbb     H6  112   2.776   0.631   3.626 -0.5865  0.3193 -0.0254
    4bbb     H7  113   3.383   0.657   3.719 -0.6255 -1.2274 -0.4509
    4bbb     H8  114   3.327   0.639   3.890 -3.4073 -0.3959  0.0680
    4bbb     H9  115   3.172   0.659   4.034 -0.5469  1.0149  0.5958
    4bbb    H10  116   3.109   0.504   3.952 -1.4552 -0.3263 -0.8035
    4bbb    H11  117   3.012   0.521   4.164 -1.3434 -0.2034 -0.3940
    4bbb    H12  118   2.885   0.570   4.049  0.2687  0.0606 -0.6820
    4bbb    H13  119   2.984   0.811   4.112  1.6204 -0.3004  0.3147
    4bbb    H25  120   3.055   0.790   3.858  0.8154 -0.4161  0.8862
    5bbb     N1  121   1.987   0.613   3.952 -0.1963  0.3666  0.7286
    5bbb     C1  122   1.945   0.534   3.832 -0.3442 -0.4707  0.0830
    5bbb     C2  123   1.887   0.735   3.955 -0.5455  0.1105 -0.4989
    5bbb     C3  124   1.812   0.455   3.843  0.0822  0.7951  0.6699
    5bbb     C4  125   1.780   0.380   3.717  0.3856  0.5279  0.3515
    5bbb     C5  126   1.834   0.782   4.094 -0.1382  0.7347 -0.0946
    5bbb     C6  127   1.814   0.671   4.197 -0.8839 -0.4998 -0.5544
    5bbb     C7  128   2.143   0.651   3.936  0.0963  0.1542 -0.7033
    5bbb     C8  129   2.342   0.691   4.097 -0.7098 -0.5067 -0.1818
    5bbb     N2  130   2.345   0.766   4.232 -0.5760  0.0884  0.8631
    5bbb     O1  131   1.833   0.406   3.616  0.4164  0.2820 -0.1684
    5bbb     O2  132   1.823   0.554   4.177  0.3977  0.4753 -0.1645
    5bbb     H1  133   1.946   0.596   3.743  1.5586 -0.9153 -0.2411
    5bbb     H2  134   2.026   0.465   3.811  0.7353  0.4679  1.0103
    5bbb     H3  135   1.807   0.693   3.893 -0.7095 -2.3027  1.2149
    5bbb     H4  136   1.934   0.824   3.913  1.0678  0.3023  1.5801
    5bbb     H5  137   1.806   0.383   3.926 -0.3594  0.1517  0.0957
    5bbb     H6  138   1.724   0.519   3.858 -1.6769 -1.5000  0.8019
    5bbb     H7  139   1.735   0.825   4.073 -0.5431 -0.6917 -1.3423
    5bbb     H8  140   1.909   0.850   4.135  3.3930 -3.2602  0.7645
    5bbb     H9  141   2.118   0.739   3.876  0.7727  1.3696  0.7158
    5bbb    H10  142   2.163   0.588   3.849  0.1348  0.4121 -0.8833
    5bbb    H11  143   2.434   0.730   4.054 -0.4872  0.1840  0.8948
    5bbb    H12  144   2.396   0.607   4.143 -0.2641  0.2383  0.6841
    5bbb    H13  145   2.254   0.790   4.270  0.0761  1.4390  1.6489
    5bbb    H25  146   1.966   0.547   4.029 -2.2473  0.7055  0.4966
    6ccc     N1  147   2.583   0.022   4.906  0.4878  0.5531  0.6704
    6ccc     H4  148   2.606  -0.076   4.916 -0.3904  0.1965 -0.6010
    6ccc     C3  149   2.472   0.064   4.823  0.2577  0.4817 -0.0998
    6ccc     H5  150   2.451   0.169   4.850  1.0890  0.7873 -0.5915
    6ccc     C4  151   2.343  -0.021   4.847 -0.2304 -0.2097  0.0041
    6ccc     H6  152   2.503   0.063   4.718  0.9358 -0.3398  0.1049
    6ccc     H7  153   2.335  -0.041   4.955  0.8939 -1.0062 -0.0342
    6ccc     H8  154   2.361  -0.120   4.803 -1.3222 -0.7564  0.7391
    6ccc     N2  155   2.209   0.033   4.810  0.2258 -0.1187  0.3384
    6ccc     C5  156   2.208   0.045   4.653  0.2258  0.1249  0.2347
    6ccc     C6  157   2.183   0.172   4.864  0.3963 -0.3138 -0.5869
    6ccc     H9  158   2.267   0.235   4.831 -0.6198  1.4148 -0.0124
    6ccc     C7  159   2.167   0.185   5.021  0.1744 -0.1958 -0.2742
    6ccc    H10  160   2.088   0.209   4.824  0.7135 -2.0149 -3.1615
    6ccc    H11  161   2.254   0.140   5.070  0.0713  1.0101  1.0771
    6ccc    H12  162   2.082   0.131   5.063  0.4065 -0.5336 -0.2349
    6ccc     C8  163   2.165   0.327   5.078  0.7889  0.3768 -1.1514
    6ccc     O2  164   2.135   0.428   5.018 -0.0197  0.4950 -0.4629
    6ccc    H13  165   2.257  -0.047   4.620 -0.6178  0.1380 -1.1582
    6ccc    H14  166   2.270   0.131   4.624 -2.3159  2.4610  1.2916
    6ccc     C9  167   2.064   0.049   4.584  0.1839 -0.0689  0.4743
    6ccc    H15  168   1.991   0.103   4.646 -1.3544 -1.2449 -0.2429
    6ccc    H16  169   2.024  -0.053   4.583  1.3281 -0.5352  0.4981
    6ccc    C10  170   2.054   0.112   4.447 -0.5551 -0.0725 -0.0670
    6ccc     O4  171   2.127   0.198   4.411  0.2048 -0.3002  0.3536
    6ccc    C11  172   2.505   0.516   5.430 -0.2658  0.7880 -0.3451
    6ccc    C12  173   2.544   0.472   5.286  0.9948 -0.7020 -0.4054
    6ccc    H17  174   2.525   0.434   5.500 -0.3255  1.8338  0.9349
    6ccc    C13  175   2.428   0.381   5.222  0.4474 -0.5134 -0.0151
    6ccc    C14  176   2.287   0.428   5.255  0.0351 -0.1383 -0.0626
    6ccc    C15  177   2.277   0.456   5.404 -0.2893  0.3331  0.3398
    6ccc    H18  178   2.279   0.524   5.202  0.5696 -0.5565 -0.9292
    6ccc    H19  179   2.439   0.281   5.264  2.0622 -0.8028 -1.0575
    6ccc    H20  180   2.294   0.365   5.463  1.6889  0.6482  0.2989
    6ccc     O1  181   2.161   0.525   5.427  0.2851  0.0592 -0.2130
    6ccc     O6  182   2.438   0.381   5.077  0.1293  0.1168 -0.0883
    6ccc    C16  183   2.587   0.630   5.485 -0.8851 -0.7316  0.0244
    6ccc    H21  184   2.526   0.343   5.058 -0.8738 -2.7608  0.5548
    6ccc    H22  185   2.200   0.251   5.257 -3.1137  0.7275  2.2782
    6ccc    H23  186   2.693   0.604   5.477 -1.4564 -2.7943 -2.2554
    6ccc    H24  187   2.557   0.640   5.590 -0.1467 -0.2053  0.1917
    6ccc     O7  188   2.559   0.752   5.411 -0.1393 -0.3225  0.2467
    6ccc    H25  189   2.465   0.756   5.385  0.1002  0.8392 -0.4911
    6ccc     O8  190   2.370   0.561   5.437 -0.8698  0.1183  0.2738
    6ccc    H26  191   2.196   0.583   5.496 -0.3274  0.5096 -0.2653
    6ccc    H27  192   2.539   0.568   5.231 -0.9407  0.4594  1.6208
    6ccc     O9  193   2.673   0.406   5.265 -0.2184 -0.2064 -0.3734
    6ccc    H28  194   2.683   0.341   5.336  1.9955  2.0192  1.5416
    6ccc     N3  195   2.178   0.338   5.210 -0.7385 -0.2259 -0.9283
    6ccc    C17  196   2.086   0.127   3.959  0.0016 -0.2214 -0.2605
    6ccc    C18  197   2.103  -0.020   4.009 -0.8962 -0.8587  0.3054
    6ccc    H29  198   2.165   0.185   4.008 -1.8672  2.4623 -0.2559
    6ccc    C19  199   2.108  -0.021   4.163 -0.3094  0.7131  0.3986
    6ccc    C20  200   1.975   0.046   4.216  0.5211  0.1730 -0.5470
    6ccc    C21  201   1.950   0.191   4.153  0.3655 -0.4972  0.5319
    6ccc    H30  202   1.898  -0.024   4.182  1.5626 -0.7690 -1.0573
    6ccc    H31  203   2.193   0.041   4.193  1.1471 -0.3221 -1.3375
    6ccc    H32  204   2.005   0.268   4.210  1.2653 -0.1683 -0.7301
    6ccc    O10  205   1.814   0.227   4.159 -0.0523  0.0575  0.3306
    6ccc    O11  206   2.125  -0.153   4.216  0.0202  0.0207  0.3027
    6ccc    C22  207   2.079   0.138   3.800 -1.1955  0.2934 -0.7514
    6ccc    H33  208   2.048  -0.206   4.187 -0.0129  0.6281 -0.7618
    6ccc    H34  209   1.930  -0.039   4.407  0.1201  1.5762  2.9785
    6ccc    H35  210   2.163   0.085   3.753 -1.4252  0.3903 -1.2740
    6ccc    H36  211   2.095   0.241   3.767 -0.9175  0.9856  1.3464
    6ccc    O12  212   1.953   0.092   3.747  0.1967 -0.2192  0.0806
    6ccc    H37  213   1.955   0.005   3.791  1.2467 -0.6351 -0.7503
    6ccc    O13  214   1.971   0.193   4.011  0.7700  0.2750  0.7681
    6ccc    H38  215   1.765   0.184   4.087 -0.9925 -1.2648  1.7186
    6ccc    H39  216   2.024  -0.092   3.986 -0.6805 -0.8997 -0.3356
    6ccc     O5  217   2.223  -0.086   3.958 -0.2985  0.3705  0.2218
    6ccc    H40  218   2.225  -0.178   3.988  0.2297  0.1698 -0.4131
    6ccc     N4  219   1.976   0.043   4.367  0.7298  0.1757  0.5590
    6ccc    H41  220   2.133  -0.029   4.841  0.6743 -0.4536  0.7982
    7ccc     N1  221   3.071  -0.225   5.486 -0.8240 -0.0520 -0.1494
    7ccc     H4  222   3.117  -0.213   5.396  0.1995 -0.7190  0.2656
    7ccc     C3  223   3.130  -0.305   5.596 -0.1270  0.8364  0.5575
    7ccc     H5  224   3.151  -0.237   5.679  1.0093  1.7354 -0.4306
    7ccc     C4  225   3.263  -0.371   5.546 -0.6280 -0.3371 -0.1337
    7ccc     H6  226   3.059  -0.383   5.624  0.0146 -0.1786 -1.6491
    7ccc     H7  227   3.239  -0.434   5.460  1.4808 -0.6513 -0.5504
    7ccc     H8  228   3.311  -0.436   5.620 -1.1537 -0.5715  0.0085
    7ccc     N2  229   3.366  -0.268   5.498  0.6548 -0.0615 -0.3882
    7ccc     C5  230   3.469  -0.335   5.409  0.7780 -0.3001  1.4047
    7ccc     C6  231   3.430  -0.183   5.606  0.4893 -0.7778  0.1074
    7ccc     H9  232   3.352  -0.142   5.670  3.8315  2.0610  2.7454
    7ccc     C7  233   3.509  -0.064   5.558 -0.5037  0.6055 -0.6289
    7ccc    H10  234   3.487  -0.248   5.674 -1.4685 -2.6608  0.0796
    7ccc    H11  235   3.591  -0.094   5.491  0.1285  0.1727  0.3152
    7ccc    H12  236   3.548  -0.018   5.649 -0.9436  2.1374 -1.1875
    7ccc     C8  237   3.425   0.038   5.500  0.7762  0.4565  0.4322
    7ccc     O2  238   3.305   0.042   5.485 -0.3561  0.4991 -0.3833
    7ccc    H13  239   3.526  -0.255   5.361 -1.5685 -0.8774 -2.8152
    7ccc    H14  240   3.411  -0.364   5.321  1.5862  2.6479 -0.2482
    7ccc     C9  241   3.557  -0.456   5.447  0.5238  0.4416 -0.4501
    7ccc    H15  242   3.491  -0.525   5.500 -0.6510  1.1228 -0.9817
    7ccc    H16  243   3.642  -0.430   5.510  0.5457 -2.7127  1.0083
    7ccc    C10  244   3.605  -0.524   5.324 -0.0333  0.1012 -0.2245
    7ccc     O4  245   3.631  -0.474   5.217  0.1682  0.1067 -0.1954
    7ccc    C11  246   3.540   0.482   5.216 -0.4099  0.6756 -0.1113
    7ccc    C12  247   3.495   0.356   5.128 -0.3329  0.4041  0.1417
    7ccc    H17  248   3.650   0.489   5.208 -0.1139 -2.7313 -0.3251
    7ccc    C13  249   3.514   0.228   5.214  0.7497 -0.1877 -0.6880
    7ccc    C14  250   3.459   0.242   5.354  0.6165 -0.1377  0.1066
    7ccc    C15  251   3.510   0.369   5.422  0.0759 -0.1326 -0.4619
    7ccc    H18  252   3.352   0.265   5.351  0.5226  0.0902  2.8032
    7ccc    H19  253   3.622   0.210   5.222  0.7270  0.2763  1.0975
    7ccc    H20  254   3.618   0.361   5.437  0.3410 -1.4156 -2.5214
    7ccc     O1  255   3.443   0.395   5.545  0.1306  0.0596  0.4965
    7ccc     O6  256   3.442   0.118   5.148  0.2758 -0.1445 -0.2046
    7ccc    C16  257   3.474   0.613   5.151  0.6265  0.5077 -0.1415
    7ccc    H21  258   3.506   0.044   5.141  1.1647  0.6266 -0.4107
    7ccc    H22  259   3.602   0.107   5.444 -0.5899  0.9481  2.9077
    7ccc    H23  260   3.545   0.650   5.076  2.8095 -0.1649  1.4856
    7ccc    H24  261   3.466   0.699   5.218  0.4870 -0.5056  1.1839
    7ccc     O7  262   3.341   0.592   5.089  0.6982 -0.0850 -0.4485
    7ccc    H25  263   3.297   0.677   5.071 -0.8541 -0.9436 -0.9170
    7ccc     O8  264   3.478   0.483   5.336 -0.1722  1.0799 -0.2780
    7ccc    H26  265   3.510   0.359   5.606  0.9639 -0.9841 -0.9766
    7ccc    H27  266   3.388   0.367   5.108 -0.2131  1.0059 -0.2083
    7ccc     O9  267   3.559   0.347   5.003  0.5249 -0.3353  0.0684
    7ccc    H28  268   3.518   0.269   4.963  1.8806 -0.6218 -0.8114
    7ccc     N3  269   3.502   0.122   5.430 -0.4915 -0.3217 -0.0047
    7ccc    C17  270   3.879  -0.950   5.145 -0.4349  0.8119 -0.3936
    7ccc    C18  271   3.728  -0.963   5.134 -0.4292  0.0469  0.3924
    7ccc    H29  272   3.916  -0.989   5.241 -0.6085  0.7428 -0.3557
    7ccc    C19  273   3.646  -0.882   5.241  0.4104 -0.3395  0.0734
    7ccc    C20  274   3.693  -0.737   5.242 -0.1711  0.3582 -0.6679
    7ccc    C21  275   3.851  -0.735   5.242  0.7558 -0.5573 -0.5435
    7ccc    H30  276   3.659  -0.688   5.150 -1.9610 -1.5220 -1.0750
    7ccc    H31  277   3.663  -0.914   5.344 -0.1338 -2.1405 -0.3656
    7ccc    H32  278   3.888  -0.773   5.338 -1.6091 -4.1161 -0.8568
    7ccc    O10  279   3.895  -0.606   5.216  0.3150  0.4824 -0.1180
    7ccc    O11  280   3.514  -0.890   5.205 -0.0826  0.0282  0.4661
    7ccc    C22  281   3.954  -1.023   5.037 -0.1181 -0.6024  0.0641
    7ccc    H33  282   3.491  -0.984   5.192 -0.8715  0.2452  0.1937
    7ccc    H34  283   3.650  -0.683   5.439 -0.4441 -0.7759  0.4148
    7ccc    H35  284   3.904  -1.001   4.942  1.9019 -0.6268 -1.0671
    7ccc    H36  285   3.943  -1.131   5.053 -0.0257 -0.5142  0.7399
    7ccc    O12  286   4.096  -0.992   5.035  0.1912 -0.0164  0.0632
    7ccc    H37  287   4.098  -0.897   5.054  1.2408  0.1904 -0.9686
    7ccc    O13  288   3.905  -0.806   5.132 -0.1265  0.1926 -0.5395
    7ccc    H38  289   3.846  -0.584   5.135  1.1766 -0.4289 -0.9126
    7ccc    H39  290   3.704  -0.920   5.036  1.6105 -0.3583 -0.3393
    7ccc     O5  291   3.690  -1.102   5.127 -0.0071 -0.2036 -0.2799
    7ccc    H40  292   3.642  -1.130   5.207  1.4175 -0.4608  0.5212
    7ccc     N4  293   3.623  -0.653   5.346  0.1892 -0.7408  0.2331
    7ccc    H41  294   3.317  -0.199   5.439  1.7231 -0.5107 -1.8669
    8ccc     N1  295   2.278   1.280   5.274  0.4416 -0.4763  0.1231
    8ccc     H4  296   2.254   1.362   5.328  0.2809  1.1112 -2.2263
    8ccc     C3  297   2.224   1.268   5.138 -0.0711  0.5211  0.4087
    8ccc     H5  298   2.247   1.364   5.090 -0.6945  0.9035  0.8616
    8ccc     C4  299   2.072   1.233   5.128  0.0243  0.4878 -0.1495
    8ccc     H6  300   2.281   1.190   5.086 -1.9963 -0.7458  0.1106
    8ccc     H7  301   2.019   1.321   5.168  1.5306  0.9998  0.8204
    8ccc     H8  302   2.053   1.149   5.196  0.5793  1.5254  1.3384
    8ccc     N2  303   2.030   1.221   4.986 -0.5254  0.1048  0.4029
    8ccc     C5  304   1.988   1.352   4.921 -0.0189  0.4056 -0.9724
    8ccc     C6  305   1.914   1.114   4.993 -0.4838  0.4527  0.0986
    8ccc     H9  306   1.839   1.141   5.069 -0.2777 -0.4925  0.6539
    8ccc     C7  307   1.960   0.962   5.016 -0.6940  0.0667  0.4282
    8ccc    H10  308   1.859   1.114   4.898  0.4172 -1.5646 -0.4638
    8ccc    H11  309   1.879   0.895   4.985 -0.7954  0.5527 -0.3706
    8ccc    H12  310   1.974   0.940   5.123 -1.2940 -1.2007  0.2685
    8ccc     C8  311   2.082   0.916   4.936 -0.5549  0.1827 -0.2543
    8ccc     O2  312   2.168   0.986   4.888 -0.1381  0.6918 -0.5795
    8ccc    H13  313   2.040   1.439   4.962 -2.2475  0.9831  0.8104
    8ccc    H14  314   1.884   1.369   4.952  0.7386  2.1655  0.7192
    8ccc     C9  315   1.993   1.360   4.765 -0.3520  0.2887  0.4970
    8ccc    H15  316   1.931   1.446   4.737 -2.1350 -1.6664 -2.1123
    8ccc    H16  317   1.952   1.275   4.709  0.5044  0.1496  0.0692
    8ccc    C10  318   2.137   1.389   4.726  0.0309 -0.3937 -0.1498
    8ccc     O4  319   2.239   1.356   4.788  0.5068 -0.3282 -0.5038
    8ccc    C11  320   2.368   0.529   4.714  0.3599  0.0437  0.5693
    8ccc    C12  321   2.226   0.546   4.650  0.4517  0.3733  0.1561
    8ccc    H17  322   2.369   0.444   4.783 -1.3553  0.5256  1.2140
    8ccc    C13  323   2.121   0.614   4.749 -0.2378  0.0497 -0.1828
    8ccc    C14  324   2.190   0.730   4.826 -0.2135  0.9024 -0.1741
    8ccc    C15  325   2.327   0.687   4.888 -0.2540 -0.8404 -0.0543
    8ccc    H18  326   2.221   0.803   4.750 -1.1930  1.1205 -0.3870
    8ccc    H19  327   2.083   0.548   4.828  2.3079 -0.7905  0.4435
    8ccc    H20  328   2.315   0.607   4.962  1.3491 -0.6897  0.4094
    8ccc     O1  329   2.394   0.799   4.947 -0.1787 -0.0112 -0.0382
    8ccc     O6  330   2.027   0.685   4.665 -0.0284  0.0484 -0.3733
    8ccc    C16  331   2.474   0.492   4.606 -0.5583 -0.0609  0.2490
    8ccc    H21  332   1.938   0.661   4.696  0.7364 -0.5549  1.4334
    8ccc    H22  333   2.044   0.714   4.974 -0.4429 -0.5510 -0.9552
    8ccc    H23  334   2.440   0.398   4.561 -3.3513  0.9933 -0.0946
    8ccc    H24  335   2.568   0.482   4.662 -1.1640 -0.0364  1.2961
    8ccc     O7  336   2.490   0.583   4.497 -0.1212  0.3722  0.0662
    8ccc    H25  337   2.562   0.547   4.443  0.0401 -0.0379  0.5478
    8ccc     O8  338   2.416   0.644   4.782 -0.3746 -0.5213 -0.2530
    8ccc    H26  339   2.359   0.794   5.038 -1.8111 -3.8071 -0.6654
    8ccc    H27  340   2.229   0.610   4.561 -1.4477 -0.8731 -0.8789
    8ccc     O9  341   2.175   0.419   4.608 -0.1056  0.3404 -0.4739
    8ccc    H28  342   2.084   0.406   4.641  0.8960 -1.4665  1.8423
    8ccc     N3  343   2.092   0.784   4.918  0.3734 -0.5785 -0.2963
    8ccc    C17  344   2.438   1.596   4.331 -0.0468 -0.6356  0.2235
    8ccc    C18  345   2.478   1.607   4.482 -0.3999 -0.7341 -0.4470
    8ccc    H29  346   2.377   1.685   4.313 -0.1488 -0.7106  0.2003
    8ccc    C19  347   2.346   1.594   4.567  0.0233  0.2525  0.1785
    8ccc    C20  348   2.281   1.456   4.530  1.0437 -0.6543 -0.2299
    8ccc    C21  349   2.244   1.461   4.379  0.5994  0.4673  0.4052
    8ccc    H30  350   2.349   1.372   4.546  2.2671  0.4202  0.3966
    8ccc    H31  351   2.280   1.671   4.525 -0.8062 -1.6604 -2.3117
    8ccc    H32  352   2.176   1.543   4.354  1.2266  0.5104 -1.3437
    8ccc    O10  353   2.196   1.331   4.332  0.1073 -0.5916  0.4516
    8ccc    O11  354   2.366   1.613   4.703  0.0659 -0.0064 -0.3497
    8ccc    C22  355   2.555   1.604   4.231 -0.7405  0.1113  0.5145
    8ccc    H33  356   2.351   1.707   4.723  0.4396  0.0343 -0.2507
    8ccc    H34  357   2.062   1.458   4.545 -0.0693 -1.1818 -0.8862
    8ccc    H35  358   2.589   1.708   4.233 -2.5311  0.8117 -1.3174
    8ccc    H36  359   2.510   1.593   4.131  0.8792 -0.4411 -0.1887
    8ccc    O12  360   2.656   1.511   4.257  0.5293 -0.2314 -0.2097
    8ccc    H37  361   2.699   1.561   4.328 -1.5977  3.5308 -1.3062
    8ccc    O13  362   2.364   1.477   4.304 -0.1322 -0.4395 -0.4275
    8ccc    H38  363   2.278   1.302   4.287  0.5824  2.1578 -0.6425
    8ccc    H39  364   2.541   1.518   4.489  0.8115  0.1177 -0.1044
    8ccc     O5  365   2.560   1.722   4.505  0.1400  0.0310 -0.1335
    8ccc    H40  366   2.624   1.687   4.569  2.6965 -0.7517 -2.8433
    8ccc     N4  367   2.147   1.435   4.597 -0.7787 -0.5618  0.5831
    8ccc    H41  368   2.102   1.189   4.920 -0.7761  1.7239 -0.7113
    9ccc     N1  369   2.420   0.854   5.928 -0.5665 -0.8988  0.5930
    9ccc     H4  370   2.344   0.844   5.862  0.1679 -0.0812 -0.4100
    9ccc     C3  371   2.391   0.837   6.073  0.1016  0.0118 -0.9860
    9ccc     H5  372   2.467   0.887   6.135 -0.4283 -0.0879 -0.2412
    9ccc     C4  373   2.387   0.688   6.111  0.0213 -0.4809 -0.3431
    9ccc     H6  374   2.294   0.887   6.086 -0.4130 -0.8916 -1.3069
    9ccc     H7  375   2.290   0.655   6.072 -1.0520  0.3829  1.4499
    9ccc     H8  376   2.379   0.684   6.220  0.6093  2.0217 -0.1389
    9ccc     N2  377   2.496   0.599   6.055  1.5253  0.1248  0.1789
    9ccc     C5  378   2.463   0.454   6.094 -0.1140  0.2820 -0.0551
    9ccc     C6  379   2.636   0.647   6.100 -0.2258 -0.1754 -0.1833
    9ccc     H9  380   2.641   0.756   6.086 -0.2307 -0.3174 -1.4012
    9ccc     C7  381   2.765   0.570   6.046 -0.2595 -0.5956 -0.4193
    9ccc    H10  382   2.630   0.633   6.209 -3.4327 -2.1072 -0.5124
    9ccc    H11  383   2.757   0.470   6.090  0.0738 -0.3299  0.2603
    9ccc    H12  384   2.853   0.623   6.086 -2.4630  2.2227  1.1120
    9ccc     C8  385   2.767   0.569   5.894  0.4546 -0.3960 -0.3991
    9ccc     O2  386   2.672   0.603   5.820 -0.3743 -0.4548  0.2275
    9ccc    H13  387   2.471   0.450   6.203  0.9132  1.7849 -0.0502
    9ccc    H14  388   2.536   0.384   6.052  1.0799  0.1424  2.0999
    9ccc     C9  389   2.327   0.400   6.057 -1.0422  0.2314  0.1539
    9ccc    H15  390   2.247   0.453   6.111 -0.4388  1.9089 -0.5479
    9ccc    H16  391   2.318   0.292   6.079  0.5394 -0.0832 -0.5727
    9ccc    C10  392   2.292   0.411   5.908 -0.2040  0.5603  0.0442
    9ccc     O4  393   2.359   0.470   5.822  0.2418  0.7538  0.1114
    9ccc    C11  394   3.133   0.547   5.503 -0.4621  0.5600  0.0266
    9ccc    C12  395   3.073   0.409   5.525  0.1602  0.2383 -0.8042
    9ccc    H17  396   3.222   0.561   5.566 -1.1591 -1.7019  1.6454
    9ccc    C13  397   3.003   0.393   5.663 -0.0490 -0.0207  0.1181
    9ccc    C14  398   2.911   0.516   5.696 -0.1907  0.5462 -0.1862
    9ccc    C15  399   2.984   0.650   5.656  0.8710  0.1248 -0.9752
    9ccc    H18  400   2.827   0.500   5.628  0.5897 -1.6130 -0.7100
    9ccc    H19  401   3.082   0.378   5.737 -0.9148  1.6670  1.4689
    9ccc    H20  402   3.066   0.653   5.729  1.7977  3.3380 -1.9587
    9ccc     O1  403   2.904   0.765   5.665 -0.7467  0.2209 -0.2506
    9ccc     O6  404   2.931   0.267   5.670 -0.1673 -0.1453  0.5531
    9ccc    C16  405   3.171   0.564   5.359 -0.0719 -0.0449  0.8362
    9ccc    H21  406   2.838   0.283   5.692 -0.2362  0.9619 -0.4475
    9ccc    H22  407   2.958   0.512   5.892 -0.7493 -0.7373  0.5349
    9ccc    H23  408   3.246   0.489   5.335  0.0154 -0.5654  2.5756
    9ccc    H24  409   3.217   0.663   5.348 -0.4820 -0.1202 -2.6121
    9ccc     O7  410   3.052   0.552   5.262 -0.6567  0.2088  0.0056
    9ccc    H25  411   2.985   0.615   5.294 -1.2317  0.8309 -2.2452
    9ccc     O8  412   3.036   0.649   5.528  0.6441 -0.1860 -0.0151
    9ccc    H26  413   2.972   0.835   5.673 -0.6830  0.1098  0.1857
    9ccc    H27  414   2.998   0.391   5.447  1.1780 -0.5076 -1.6443
    9ccc     O9  415   3.165   0.307   5.510 -0.1378  0.8621  0.3272
    9ccc    H28  416   3.244   0.340   5.555  1.0953  2.8911 -2.9389
    9ccc     N3  417   2.875   0.511   5.833 -0.0653  0.3793 -0.4925
    9ccc    C17  418   1.884   0.214   5.605 -0.8431  0.3608  0.3292
    9ccc    C18  419   1.901   0.371   5.602 -0.4511 -0.2084 -0.4374
    9ccc    H29  420   1.847   0.177   5.701 -3.1732  0.5330 -0.4458
    9ccc    C19  421   1.992   0.422   5.722  1.0034 -0.2555  0.3887
    9ccc    C20  422   2.124   0.353   5.731 -0.8167 -0.0559 -0.7809
    9ccc    C21  423   2.108   0.194   5.704  0.1096  0.3584  0.0359
    9ccc    H30  424   2.195   0.392   5.657 -1.1398 -0.2892 -1.2240
    9ccc    H31  425   1.936   0.399   5.813 -1.0697  0.9113 -0.4989
    9ccc    H32  426   2.078   0.145   5.797  0.0810  0.0021 -0.1612
    9ccc    O10  427   2.236   0.147   5.671  0.0358 -0.3415  0.2761
    9ccc    O11  428   2.015   0.564   5.689  0.1256  0.3212  0.5299
    9ccc    C22  429   1.809   0.148   5.489  0.4938 -0.4068  0.6557
    9ccc    H33  430   1.954   0.591   5.617 -0.5257 -1.0059  0.5542
    9ccc    H34  431   2.116   0.336   5.950 -1.6861  1.5698  0.7300
    9ccc    H35  432   1.715   0.201   5.469  0.8554 -0.3823 -1.2640
    9ccc    H36  433   1.772   0.050   5.522 -3.6680  0.2908 -1.2928
    9ccc    O12  434   1.885   0.135   5.370 -0.3919 -0.3034 -1.0783
    9ccc    H37  435   1.974   0.155   5.404 -0.8875 -1.3980  1.0750
    9ccc    O13  436   2.023   0.165   5.591  0.2507  0.3259  0.5617
    9ccc    H38  437   2.286   0.127   5.753  0.7455  1.3500  0.2807
    9ccc    H39  438   1.932   0.396   5.500  1.6767 -0.9167 -0.0221
    9ccc     O5  439   1.773   0.423   5.623  0.1225  0.2678 -0.0793
    9ccc    H40  440   1.746   0.408   5.715  1.5356  2.8732  0.8525
    9ccc     N4  441   2.175   0.376   5.878 -0.2871 -0.4182  0.7073
    9ccc    H41  442   2.492   0.614   5.953  1.7070  2.3645  0.4517
   10ccc     N1  443   2.733   0.877   3.553 -0.0007  0.4691  0.3528
   10ccc     H4  444   2.695   0.795   3.509  1.3601  0.1411 -0.2841
   10ccc     C3  445   2.697   1.017   3.514  0.2975  0.1493  0.4427
   10ccc     H5  446   2.632   1.063   3.589  0.5689 -0.7231  1.2468
   10ccc     C4  447   2.629   1.015   3.376 -0.2967 -0.0105  0.9260
   10ccc     H6  448   2.790   1.073   3.504  1.8967 -2.4363 -0.2529
   10ccc     H7  449   2.698   0.974   3.301 -0.4879 -1.2149  1.3714
   10ccc     H8  450   2.620   1.114   3.330  2.7674 -0.7928 -1.7462
   10ccc     N2  451   2.501   0.933   3.388 -1.1227 -0.0182 -0.0311
   10ccc     C5  452   2.481   0.866   3.256  0.2952 -0.5530  0.1578
   10ccc     C6  453   2.384   1.024   3.433  0.3033  0.0771  0.1975
   10ccc     H9  454   2.420   1.115   3.484 -2.2909  1.0827  0.3711
   10ccc     C7  455   2.289   0.958   3.538  0.1037 -0.3175 -0.3722
   10ccc    H10  456   2.330   1.067   3.348  2.6987  0.1499 -1.4091
   10ccc    H11  457   2.239   0.871   3.494  2.4004 -0.7886 -2.2604
   10ccc    H12  458   2.218   1.030   3.580  1.6128  1.3056 -0.4747
   10ccc     C8  459   2.359   0.903   3.666 -0.3096 -0.5860  0.0237
   10ccc     O2  460   2.477   0.902   3.684  0.2890 -0.3267  0.5808
   10ccc    H13  461   2.576   0.823   3.222  0.3786  0.9642 -1.6995
   10ccc    H14  462   2.460   0.952   3.191 -0.3763  0.2575  1.3987
   10ccc     C9  463   2.358   0.775   3.242 -0.0266  0.0105 -0.2438
   10ccc    H15  464   2.344   0.738   3.140  0.4490  1.7038 -0.9613
   10ccc    H16  465   2.267   0.835   3.254 -0.5666 -0.0030 -3.5412
   10ccc    C10  466   2.360   0.658   3.342  1.0840  0.0567 -0.4116
   10ccc     O4  467   2.430   0.641   3.437  0.4634  0.3970 -0.6073
   10ccc    C11  468   2.175   0.528   4.136 -0.1491 -0.7036  0.0401
   10ccc    C12  469   2.302   0.481   3.989  0.2394  0.1140  0.1785
   10ccc    H17  470   2.086   0.469   4.112 -1.2113  0.1655  1.6723
   10ccc    C13  471   2.366   0.623   3.868 -0.4598 -1.1585 -0.4729
   10ccc    C14  472   2.305   0.813   3.889 -0.1365  0.1470 -0.5113
   10ccc    C15  473   2.179   0.854   4.037  0.2834 -0.5352  0.1818
   10ccc    H18  474   2.402   0.856   3.915  1.5550 -2.3661 -2.2191
   10ccc    H19  475   2.345   0.587   3.766  0.5516 -0.0439 -1.1056
   10ccc    H20  476   2.090   0.878   3.977 -0.0481  0.0834  0.8999
   10ccc     O1  477   2.205   0.975   4.108  0.3997 -0.1393  0.3550
   10ccc     O6  478   2.505   0.623   3.872 -0.2760 -0.5951 -0.1156
   10ccc    C16  479   2.210   0.475   4.274 -0.0103 -0.1381  0.7304
   10ccc    H21  480   2.529   0.544   3.820 -0.0244 -0.4862 -0.1676
   10ccc    H22  481   2.170   0.870   3.737  0.2977  1.7071  0.1049
   10ccc    H23  482   2.309   0.508   4.308 -0.2865  0.7247  0.7044
   10ccc    H24  483   2.209   0.366   4.261  0.1497  0.1005 -1.5343
   10ccc     O7  484   2.103   0.515   4.365 -0.2408 -0.1243 -0.1803
   10ccc    H25  485   2.116   0.463   4.446 -3.0104 -1.0187 -0.2373
   10ccc     O8  486   2.119   0.708   4.151  0.2051  0.2739 -0.0483
   10ccc    H26  487   2.119   0.998   4.146 -1.2571 -1.6392 -2.2229
   10ccc    H27  488   2.378   0.431   4.049 -2.4990 -2.4400  1.8257
   10ccc     O9  489   2.249   0.379   3.905  0.2708  0.3120  0.4849
   10ccc    H28  490   2.326   0.336   3.864  1.6591  1.8317  1.3519
   10ccc     N3  491   2.270   0.873   3.759  0.3427  0.3090  0.2109
   10ccc    C17  492   2.107   0.185   3.381  0.3548  0.4244  0.3220
   10ccc    C18  493   2.253   0.188   3.335  0.4614  0.1291  0.2359
   10ccc    H29  494   2.050   0.191   3.287  0.1419  1.7060  0.5166
   10ccc    C19  495   2.281   0.327   3.280 -0.4002  0.2549 -0.2479
   10ccc    C20  496   2.241   0.436   3.380  0.5202 -0.2771 -0.1081
   10ccc    C21  497   2.092   0.419   3.416 -0.0226  0.4109  0.5361
   10ccc    H30  498   2.301   0.426   3.471  1.3479  3.2803 -0.1106
   10ccc    H31  499   2.234   0.352   3.184  0.1271  3.6782  0.2611
   10ccc    H32  500   2.032   0.441   3.327  1.1185  1.2777 -0.0453
   10ccc    O10  501   2.050   0.509   3.514 -0.1281 -0.3128  0.3586
   10ccc    O11  502   2.417   0.331   3.257 -0.1500  0.1477 -0.2970
   10ccc    C22  503   2.066   0.047   3.444  0.0962 -0.7007  0.0060
   10ccc    H33  504   2.440   0.242   3.226 -0.3024  0.4812 -1.3997
   10ccc    H34  505   2.204   0.576   3.232  1.2751 -0.4046 -1.2497
   10ccc    H35  506   2.128   0.030   3.533  0.2272  0.9139  0.2536
   10ccc    H36  507   2.084  -0.033   3.371 -0.9905 -0.4551 -0.5415
   10ccc    O12  508   1.928   0.058   3.479 -0.1996  0.0817 -0.2921
   10ccc    H37  509   1.922   0.094   3.570 -2.4296 -1.7369  0.3621
   10ccc    O13  510   2.067   0.295   3.465 -0.2127  0.1919 -0.0798
   10ccc    H38  511   1.966   0.466   3.539 -2.0429  2.6511 -0.4639
   10ccc    H39  512   2.308   0.172   3.428  0.2322 -1.1871  0.1555
   10ccc     O5  513   2.274   0.082   3.241  0.2152  0.2442  0.0928
   10ccc    H40  514   2.221   0.089   3.159  0.4143 -0.6302 -0.1169
   10ccc     N4  515   2.257   0.573   3.318 -0.1641  0.8879 -0.2539
   10ccc    H41  516   2.514   0.860   3.460  1.3292  1.8633  1.6328
   11ccc     N1  517   3.428   0.902   3.884 -0.0722 -0.2084  0.0299
   11ccc     H4  518   3.479   0.837   3.943 -0.3882 -0.0203  0.5251
   11ccc     C3  519   3.460   1.042   3.889 -0.2909 -0.3111 -0.4276
   11ccc     H5  520   3.566   1.061   3.866 -0.5490  3.5314  0.7350
   11ccc     C4  521   3.419   1.103   4.020 -0.0097 -0.4959 -0.0863
   11ccc     H6  522   3.407   1.095   3.809 -0.7214  1.0393  0.7181
   11ccc     H7  523   3.456   1.206   4.024  2.7675 -1.1442 -3.5483
   11ccc     H8  524   3.458   1.040   4.100 -0.2523  0.0901  0.5048
   11ccc     N2  525   3.269   1.115   4.049 -0.4364 -0.4433 -0.0586
   11ccc     C5  526   3.187   1.186   3.943 -0.7435 -0.9316 -0.3208
   11ccc     C6  527   3.246   1.171   4.192  0.2772 -0.1981  0.7492
   11ccc     H9  528   3.291   1.271   4.178  1.0328 -0.7458 -1.0429
   11ccc     C7  529   3.317   1.095   4.303 -0.1015 -0.0646  0.0129
   11ccc    H10  530   3.141   1.182   4.223 -0.0617  0.2410 -0.4663
   11ccc    H11  531   3.294   1.134   4.402  3.0017 -1.5200  1.4698
   11ccc    H12  532   3.427   1.098   4.301 -0.0322  0.0613  2.1717
   11ccc     C8  533   3.263   0.955   4.307  0.0177  0.7608  0.7168
   11ccc     O2  534   3.193   0.905   4.221  0.1548  0.7629 -0.4968
   11ccc    H13  535   3.207   1.133   3.849  3.4157  0.1767 -0.2244
   11ccc    H14  536   3.224   1.287   3.922 -0.8478 -1.2122 -1.9617
   11ccc     C9  537   3.034   1.192   3.980  0.2244  0.3281  0.1473
   11ccc    H15  538   2.989   1.253   3.902 -0.5114 -1.1380 -0.6147
   11ccc    H16  539   3.014   1.225   4.083  0.9547  0.6332  0.1921
   11ccc    C10  540   2.973   1.053   3.990  0.5084 -0.4550 -0.1922
   11ccc     O4  541   3.029   0.946   3.975 -0.4075  0.4963 -0.2272
   11ccc    C11  542   3.327   0.516   4.610  0.3957  0.0743 -0.1304
   11ccc    C12  543   3.217   0.602   4.665 -0.0829 -0.7115 -0.2641
   11ccc    H17  544   3.423   0.563   4.635 -0.2835  1.1505  0.5385
   11ccc    C13  545   3.221   0.747   4.612 -0.3704  0.7185 -0.0932
   11ccc    C14  546   3.245   0.755   4.458 -0.0710  0.6549  0.9105
   11ccc    C15  547   3.336   0.633   4.403  0.6503  0.7496 -0.8956
   11ccc    H18  548   3.147   0.729   4.416  0.2494  0.5924  0.1861
   11ccc    H19  549   3.308   0.782   4.669  0.2779 -1.0104  0.0284
   11ccc    H20  550   3.442   0.660   4.412  0.8636  0.7638 -2.9171
   11ccc     O1  551   3.313   0.612   4.264  0.3943  0.5948  0.4757
   11ccc     O6  552   3.099   0.819   4.645  0.1780  0.4073  0.1391
   11ccc    C16  553   3.328   0.368   4.656 -0.5741 -0.0249 -0.0080
   11ccc    H21  554   3.098   0.832   4.741  0.8157  0.0508  0.2020
   11ccc    H22  555   3.366   0.919   4.487  0.6788  0.2096  0.0595
   11ccc    H23  556   3.334   0.373   4.766 -3.7949 -0.3283  0.2995
   11ccc    H24  557   3.421   0.327   4.617 -0.0926 -1.7098  2.6336
   11ccc     O7  558   3.213   0.295   4.611  0.1072  0.2394 -0.0560
   11ccc    H25  559   3.217   0.209   4.657 -2.6649  0.8232  1.5114
   11ccc     O8  560   3.306   0.515   4.468  0.0250  0.4511  0.3197
   11ccc    H26  561   3.337   0.520   4.245 -1.0304  0.2538  0.2629
   11ccc    H27  562   3.120   0.568   4.626  0.7346 -0.7219 -2.4401
   11ccc     O9  563   3.221   0.605   4.812  0.0413  0.2227 -0.3939
   11ccc    H28  564   3.311   0.613   4.847 -0.2190 -1.0762  0.6489
   11ccc     N3  565   3.296   0.887   4.419  0.2936  0.3470  0.3890
   11ccc    C17  566   2.459   1.192   4.000  0.2938  0.1731 -0.2661
   11ccc    C18  567   2.525   1.223   4.133 -0.1316  0.0980 -0.5444
   11ccc    H29  568   2.437   1.085   3.988  0.5572  0.2475 -1.4835
   11ccc    C19  569   2.657   1.144   4.142  0.6852 -0.0917  0.2523
   11ccc    C20  570   2.745   1.156   4.018  1.1925  0.1557 -0.2559
   11ccc    C21  571   2.670   1.164   3.884  0.0909 -0.1977  0.8892
   11ccc    H30  572   2.784   1.259   4.027 -0.9008  0.8986  1.2463
   11ccc    H31  573   2.624   1.040   4.156 -0.3807  0.2246  0.1360
   11ccc    H32  574   2.648   1.066   3.841 -0.1469 -0.0640  0.6998
   11ccc    O10  575   2.749   1.228   3.791 -0.0144 -0.2109  0.3407
   11ccc    O11  576   2.730   1.180   4.251 -0.1056 -0.3675  0.0938
   11ccc    C22  577   2.315   1.259   3.983  0.3009 -0.0185 -0.6832
   11ccc    H33  578   2.727   1.277   4.258  0.3922 -0.4467  1.8269
   11ccc    H34  579   2.801   0.957   3.999  1.3750 -1.1748  0.8686
   11ccc    H35  580   2.250   1.227   4.065  0.5130  1.9958  0.3455
   11ccc    H36  581   2.282   1.212   3.890 -0.0928  1.9815 -1.5991
   11ccc    O12  582   2.306   1.402   3.977 -0.1560 -0.2108  0.7549
   11ccc    H37  583   2.215   1.424   3.951 -0.6666 -0.8052  1.9409
   11ccc    O13  584   2.547   1.238   3.897  0.1258 -0.3039 -0.4716
   11ccc    H38  585   2.689   1.265   3.724 -0.4249  0.6005  1.1448
   11ccc    H39  586   2.530   1.333   4.136  0.3086  0.0685  0.0365
   11ccc     O5  587   2.442   1.187   4.244  0.1896 -0.1791  0.3051
   11ccc    H40  588   2.490   1.218   4.323  1.8414  0.9716 -1.0777
   11ccc     N4  589   2.845   1.047   4.016  0.0863 -0.2352 -0.4849
   11ccc    H41  590   3.233   1.020   4.062  1.5493 -0.9613  2.2859
   12ccc     N1  591   1.672   0.289   3.719  0.3371 -0.4885  0.0213
   12ccc     H4  592   1.625   0.279   3.808 -0.0973  0.0551 -0.1475
   12ccc     C3  593   1.622   0.212   3.596 -0.3984  0.6497  0.0980
   12ccc     H5  594   1.708   0.160   3.552 -1.2845 -0.9629  0.1701
   12ccc     C4  595   1.567   0.312   3.487 -0.0824 -0.0669 -0.0650
   12ccc     H6  596   1.558   0.130   3.632  0.4496  0.0553  0.2973
   12ccc     H7  597   1.518   0.261   3.403 -1.9243  2.0392 -0.3770
   12ccc     H8  598   1.643   0.371   3.436 -1.8849  0.1194 -2.7246
   12ccc     N2  599   1.462   0.419   3.547  0.3536 -0.2636 -0.0091
   12ccc     C5  600   1.333   0.348   3.589 -0.2808 -0.0131  0.0225
   12ccc     C6  601   1.441   0.538   3.451 -0.4403  0.1342  0.0763
   12ccc     H9  602   1.392   0.497   3.361 -1.7090  0.4430  0.6007
   12ccc     C7  603   1.555   0.639   3.422  0.3594  0.6848  0.0313
   12ccc    H10  604   1.358   0.600   3.487 -1.2283  1.1240 -3.1201
   12ccc    H11  605   1.510   0.722   3.367 -1.1657 -0.8327 -1.1145
   12ccc    H12  606   1.637   0.600   3.359 -1.4251 -1.0769 -1.3225
   12ccc     C8  607   1.627   0.686   3.547 -0.1771  0.0056 -0.8777
   12ccc     O2  608   1.628   0.626   3.652  0.3881  0.4773  0.4452
   12ccc    H13  609   1.372   0.267   3.653  1.4812 -0.4871 -1.5622
   12ccc    H14  610   1.279   0.308   3.502 -1.8816 -0.2138  1.0694
   12ccc     C9  611   1.236   0.420   3.687  0.8525 -0.0482  0.8072
   12ccc    H15  612   1.156   0.350   3.714  1.0405 -0.6195 -0.0735
   12ccc    H16  613   1.186   0.506   3.642  0.9873  0.3136  1.3431
   12ccc    C10  614   1.306   0.459   3.818 -1.4070  0.1577  0.2545
   12ccc     O4  615   1.416   0.410   3.845  0.1284  0.2196  0.1995
   12ccc    C11  616   1.895   1.117   3.739 -0.6741  0.6453 -0.2484
   12ccc    C12  617   1.748   1.089   3.784  0.0217  0.0903  0.9552
   12ccc    H17  618   1.901   1.177   3.647 -1.6342 -0.2756 -0.9393
   12ccc    C13  619   1.670   0.991   3.698  0.1765  0.2565  0.5947
   12ccc    C14  620   1.758   0.874   3.653  0.6094  0.2227  0.6497
   12ccc    C15  621   1.906   0.912   3.611  0.0061  0.9024  0.4563
   12ccc    H18  622   1.762   0.804   3.737  1.2997  0.6110  0.9557
   12ccc    H19  623   1.652   1.048   3.607  0.0024 -1.9443 -0.8424
   12ccc    H20  624   1.919   0.969   3.519  2.5577 -1.2079 -0.6437
   12ccc     O1  625   1.983   0.792   3.599  0.1367  0.2824  0.0631
   12ccc     O6  626   1.551   0.945   3.771  0.1061 -0.1415  0.2536
   12ccc    C16  627   1.984   1.176   3.851  0.5186 -0.2443  0.0916
   12ccc    H21  628   1.521   1.026   3.817 -1.8026 -0.2271 -0.7461
   12ccc    H22  629   1.677   0.861   3.449 -1.3370 -1.6888 -0.4724
   12ccc    H23  630   1.966   1.282   3.872 -1.2333 -0.7197  1.2592
   12ccc    H24  631   2.091   1.165   3.828  0.1145 -3.8046 -0.7037
   12ccc     O7  632   1.953   1.108   3.976 -0.7430  0.7560 -0.4938
   12ccc    H25  633   1.982   1.168   4.046 -0.1981 -0.6395  0.5321
   12ccc     O8  634   1.959   0.991   3.714 -0.2053 -0.3430 -0.3514
   12ccc    H26  635   1.993   0.764   3.506  2.8381  0.5565  0.2007
   12ccc    H27  636   1.755   1.035   3.879 -1.3872  1.4269  1.8724
   12ccc     O9  637   1.668   1.206   3.813 -0.0190 -0.7855  0.2667
   12ccc    H28  638   1.617   1.187   3.894  0.7507  1.3513  1.3351
   12ccc     N3  639   1.682   0.807   3.536  0.0002 -0.5719  0.1798
   12ccc    C17  640   1.407   0.855   4.171 -0.3729 -0.8815  0.3413
   12ccc    C18  641   1.260   0.815   4.189 -0.1481  0.3342 -0.5667
   12ccc    H29  642   1.422   0.907   4.075  0.8159  0.7863  1.3817
   12ccc    C19  643   1.206   0.741   4.063  0.0366  0.5355 -0.0104
   12ccc    C20  644   1.306   0.619   4.022 -0.0624  0.5288 -0.1315
   12ccc    C21  645   1.457   0.659   4.044  0.1860  0.2074 -0.3128
   12ccc    H30  646   1.294   0.543   4.100 -1.3687  2.0921  1.2613
   12ccc    H31  647   1.200   0.811   3.980 -0.8559 -0.9140 -1.2077
   12ccc    H32  648   1.479   0.721   3.956  0.3297 -0.7382 -0.9606
   12ccc    O10  649   1.540   0.539   4.051  0.6663  0.5036  0.0257
   12ccc    O11  650   1.073   0.696   4.095 -0.8712  0.1926 -0.6546
   12ccc    C22  651   1.467   0.936   4.296 -0.2290 -0.8150 -0.5091
   12ccc    H33  652   1.013   0.770   4.115 -1.1183 -0.6494  2.1222
   12ccc    H34  653   1.160   0.579   3.875  0.3260 -1.7690 -0.7954
   12ccc    H35  654   1.449   0.877   4.387  1.6978  0.4187  0.7341
   12ccc    H36  655   1.416   1.033   4.298  0.5501 -0.3949  1.3500
   12ccc    O12  656   1.604   0.969   4.283  0.6049 -0.2170 -0.6623
   12ccc    H37  657   1.633   1.043   4.338 -0.5536  2.8457 -3.8413
   12ccc    O13  658   1.480   0.728   4.165  0.1012 -0.7008  0.2111
   12ccc    H38  659   1.495   0.483   3.985 -4.3778  1.3663  2.2580
   12ccc    H39  660   1.253   0.757   4.282  0.4274  0.0997 -0.6629
   12ccc     O5  661   1.185   0.935   4.192 -0.6336 -0.3629  0.6171
   12ccc    H40  662   1.100   0.914   4.235 -0.4699 -2.8946 -0.1778
   12ccc     N4  663   1.256   0.551   3.894  0.5228 -0.5766  0.0968
   12ccc    H41  664   1.511   0.444   3.634 -1.8573 -1.7730  1.7796
   13ccc     N1  665   1.785   0.722   4.323  0.5136 -0.3526  0.3253
   13ccc     H4  666   1.768   0.822   4.319  1.4808 -0.1941 -0.0336
   13ccc     C3  667   1.774   0.648   4.448 -0.6561 -0.1064  0.2505
   13ccc     H5  668   1.865   0.588   4.456  0.1682  0.9069 -1.1331
   13ccc     C4  669   1.643   0.572   4.473 -0.3082 -0.0331  0.1307
   13ccc     H6  670   1.768   0.719   4.532 -0.5889  0.8969 -0.5740
   13ccc     H7  671   1.557   0.633   4.444 -1.1810 -1.3572 -0.1259
   13ccc     H8  672   1.633   0.538   4.577 -1.8660  0.6334  0.2264
   13ccc     N2  673   1.639   0.446   4.387  0.2918  0.5485 -0.1467
   13ccc     C5  674   1.495   0.391   4.379  0.5782  0.6399  0.8094
   13ccc     C6  675   1.725   0.331   4.443 -0.3036 -0.3742  1.0174
   13ccc     H9  676   1.706   0.241   4.383 -2.4829  1.0545 -0.6082
   13ccc     C7  677   1.708   0.289   4.587  0.3329 -0.0167  0.2254
   13ccc    H10  678   1.825   0.353   4.404 -1.4242 -0.1453 -2.0627
   13ccc    H11  679   1.731   0.182   4.593 -0.5333 -0.3500 -1.8384
   13ccc    H12  680   1.604   0.294   4.620  0.6367 -1.2061  1.4784
   13ccc     C8  681   1.804   0.349   4.693  0.6855  0.1392 -0.5512
   13ccc     O2  682   1.922   0.374   4.680  0.8590 -1.2855 -0.0621
   13ccc    H13  683   1.424   0.472   4.359 -1.0222 -0.5106  1.6472
   13ccc    H14  684   1.455   0.350   4.472 -2.9446 -0.8698 -1.1724
   13ccc     C9  685   1.459   0.297   4.263 -0.3466  0.6952  0.4335
   13ccc    H15  686   1.506   0.335   4.171 -0.7181  0.5866  0.1970
   13ccc    H16  687   1.351   0.297   4.243 -0.3782  3.9622  0.0060
   13ccc    C10  688   1.504   0.153   4.282  1.0322 -0.1961  0.5191
   13ccc     O4  689   1.491   0.097   4.389 -0.5651 -0.1194 -0.8711
   13ccc    C11  690   1.814   0.598   5.175  0.0524 -0.6166 -0.1740
   13ccc    C12  691   1.839   0.453   5.184 -0.3688 -0.2140  0.1418
   13ccc    H17  692   1.710   0.615   5.206  0.6513  0.3419  1.4698
   13ccc    C13  693   1.786   0.375   5.055 -0.4634 -0.1059 -0.0921
   13ccc    C14  694   1.809   0.451   4.929  0.1794  0.0034  0.0044
   13ccc    C15  695   1.747   0.592   4.936 -0.0082 -0.5257 -0.3933
   13ccc    H18  696   1.917   0.463   4.913  0.4122 -1.3460  0.3788
   13ccc    H19  697   1.678   0.376   5.072 -0.8461  2.5856 -2.0650
   13ccc    H20  698   1.643   0.583   4.969  0.6145 -3.7878  1.1372
   13ccc     O1  699   1.772   0.661   4.815 -0.0308  0.2686 -0.0078
   13ccc     O6  700   1.840   0.242   5.055 -0.1417 -0.1264 -0.6736
   13ccc    C16  701   1.900   0.679   5.273  0.5976 -0.2296  0.4096
   13ccc    H21  702   1.811   0.201   4.972 -0.4526 -1.3273  0.0103
   13ccc    H22  703   1.654   0.331   4.822  0.4086 -0.8253 -2.8917
   13ccc    H23  704   1.888   0.630   5.371 -1.5866 -2.0440 -0.6803
   13ccc    H24  705   1.861   0.781   5.279 -1.4153 -0.9216 -0.1303
   13ccc     O7  706   2.042   0.682   5.238 -0.1247  0.1793  0.6167
   13ccc    H25  707   2.082   0.606   5.285 -0.6242  0.1965  1.0858
   13ccc     O8  708   1.819   0.657   5.041  0.7083 -0.0380 -0.4653
   13ccc    H26  709   1.711   0.737   4.821  0.5892  0.7446  0.4391
   13ccc    H27  710   1.948   0.441   5.196  0.3005 -0.4235 -4.3393
   13ccc     O9  711   1.769   0.392   5.289  0.3170 -0.2591  0.9446
   13ccc    H28  712   1.777   0.295   5.286 -0.3950 -0.3031 -0.0751
   13ccc     N3  713   1.749   0.367   4.813  0.3609  0.1522 -0.2636
   13ccc    C17  714   1.383  -0.116   3.837 -0.2440 -0.0387  0.3780
   13ccc    C18  715   1.281  -0.081   3.946  0.0983 -0.6409  0.0449
   13ccc    H29  716   1.430  -0.213   3.857  0.5329  0.3807  0.5898
   13ccc    C19  717   1.353  -0.037   4.076 -0.2583 -0.1023 -0.6928
   13ccc    C20  718   1.476   0.061   4.053  1.0217 -0.9563 -0.5979
   13ccc    C21  719   1.569   0.005   3.943  0.0387  0.5613  0.3083
   13ccc    H30  720   1.440   0.160   4.023  3.3035  0.6712  1.6748
   13ccc    H31  721   1.392  -0.127   4.125 -0.1263  0.1721 -0.2862
   13ccc    H32  722   1.607  -0.085   3.993 -0.4439  0.6419  0.8338
   13ccc    O10  723   1.678   0.091   3.914  0.2082 -0.1575 -0.4523
   13ccc    O11  724   1.251   0.035   4.154 -0.4060 -0.4014  0.1459
   13ccc    C22  725   1.316  -0.122   3.700  0.2137 -0.5683 -0.6199
   13ccc    H33  726   1.190  -0.033   4.186 -0.0444 -0.7890  0.0235
   13ccc    H34  727   1.587  -0.004   4.214 -0.0105  1.3981  3.4082
   13ccc    H35  728   1.261  -0.216   3.684  1.1405 -1.4988  1.2773
   13ccc    H36  729   1.390  -0.127   3.619 -0.2744 -2.0411 -1.0025
   13ccc    O12  730   1.231  -0.008   3.679  0.3524  0.2924 -0.3614
   13ccc    H37  731   1.210  -0.012   3.584 -0.2471  3.7477 -0.5241
   13ccc    O13  732   1.485  -0.010   3.827  0.4474 -0.0210  0.1558
   13ccc    H38  733   1.748   0.028   3.888  0.5333  0.2908 -0.6700
   13ccc    H39  734   1.226   0.007   3.911  0.0138 -1.1486 -1.1663
   13ccc     O5  735   1.190  -0.181   3.978  0.7501 -0.0884 -0.0658
   13ccc    H40  736   1.246  -0.258   3.995 -0.0010 -0.3112  1.7063
   13ccc     N4  737   1.547   0.084   4.181 -0.7691  0.1285  0.6376
   13ccc    H41  738   1.676   0.468   4.294  1.1762 -2.2985 -0.5527
   14SOL     OW  739   1.952   3.394   4.197  0.2696 -0.5157  0.2676
   14SOL    HW1  740   2.034   3.429   4.234 -0.5983  1.4144  0.5237
   14SOL    HW2  741   1.980   3.333   4.130  1.9338 -0.1022  0.5348
   15SOL     OW  742   3.208   3.291   0.787 -0.0336 -0.4063 -0.4087
   15SOL    HW1  743   3.171   3.372   0.753  0.2622  0.2462  0.7544
   15SOL    HW2  744   3.141   3.225   0.771 -1.1311  0.4775  0.3955
   16SOL     OW  745   2.151   4.114   4.700 -0.1396 -0.3406 -0.1413
   16SOL    HW1  746   2.221   4.179   4.702 -0.6327  0.1917  0.0608
   16SOL    HW2  747   2.099   4.137   4.623 -1.5217  0.8132  1.0740
   17SOL     OW  748   0.560   5.117   0.587  0.2110  0.1218 -0.1623
   17SOL    HW1  749   0.581   5.122   0.494 -0.8908 -1.9462 -0.5741
   17SOL    HW2  750   0.633   5.161   0.631  0.3932  1.8024 -2.0019
   18SOL     OW  751   3.732   4.350   1.993 -0.0986 -0.1669 -0.2748
   18SOL    HW1  752   3.666   4.329   2.059 -0.2322  0.2728 -0.2657
   18SOL    HW2  753   3.808   4.378   2.044 -0.4287  0.8260 -0.3202
   19SOL     OW  754   5.199   4.093   3.676 -0.2059  0.4764 -0.0400
   19SOL    HW1  755   5.162   4.007   3.659  0.8937  0.1365 -0.8361
   19SOL    HW2  756   5.126   4.145   3.711 -0.8517 -0.7929  0.5517
   20SOL     OW  757   3.376   2.715   1.841  0.6549 -0.4529 -0.0168
   20SOL    HW1  758   3.339   2.727   1.753 -0.7386  1.0811  0.7330
   20SOL    HW2  759   3.467   2.688   1.825  1.2003  2.1707 -1.9579
   21SOL     OW  760   4.481   2.577   4.005 -0.9014 -0.0484 -0.2378
   21SOL    HW1  761   4.481   2.481   4.013 -0.4258 -0.0441 -0.1510
   21SOL    HW2  762   4.403   2.605   4.053 -1.6705 -0.4597 -1.2183
   22SOL     OW  763   0.577   0.967   0.835 -0.3790 -0.0708  0.4884
   22SOL    HW1  764   0.667   0.989   0.855 -0.4457  0.7765 -0.0911
   22SOL    HW2  765   0.580   0.928   0.747 -0.8782  2.7234 -0.8886
   23SOL     OW  766   1.527   4.690   1.077  0.6790  0.3168  0.0804
   23SOL    HW1  767   1.589   4.665   1.146 -2.0551 -0.3548  2.5174
   23SOL    HW2  768   1.514   4.609   1.027  1.4270  0.3603 -0.2005
   24SOL     OW  769   4.670   3.551   2.898  0.5169  0.4831  0.8521
   24SOL    HW1  770   4.622   3.632   2.881  1.5595  0.8238 -0.6188
   24SOL    HW2  771   4.739   3.577   2.959  2.3611  1.3007 -1.4720
   25SOL     OW  772   0.209   3.130   1.915  0.8813  0.0268 -0.6888
   25SOL    HW1  773   0.243   3.132   2.005 -3.7655 -0.6139  1.3506
   25SOL    HW2  774   0.198   3.222   1.892  0.3414  0.1956  0.1958
   26SOL     OW  775   4.869   1.134   1.630  0.2416 -1.0245  0.1634
   26SOL    HW1  776   4.848   1.151   1.722 -1.0292  1.3640 -0.4913
   26SOL    HW2  777   4.822   1.054   1.608  0.2988 -1.4422  1.4810
   27SOL     OW  778   2.874   3.048   0.338  0.7236  0.1958  0.5288
   27SOL    HW1  779   2.845   3.024   0.426 -1.8210 -0.6985 -0.4566
   27SOL    HW2  780   2.944   2.986   0.318 -0.0182 -0.8805  1.2025
   28SOL     OW  781   2.812   4.949   4.677  0.0055  0.0821 -0.8511
   28SOL    HW1  782   2.796   4.945   4.583 -1.1356  1.4950 -0.7588
   28SOL    HW2  783   2.795   4.861   4.709 -0.2465 -0.2488 -1.8816
   29SOL     OW  784   1.754   2.261   2.326  0.2652  0.1861 -0.3162
   29SOL    HW1  785   1.742   2.355   2.339 -2.6039  0.0672 -1.3224
   29SOL    HW2  786   1.848   2.247   2.334  0.7220  3.0472  0.3468
   30SOL     OW  787   3.069   0.829   0.708 -0.2177 -0.0232 -0.4465
   30SOL    HW1  788   3.063   0.923   0.690 -0.7721  0.0998  0.3546
   30SOL    HW2  789   3.149   0.802   0.663  0.0990  0.8830 -0.4547
   31SOL     OW  790   2.706   4.469   2.003  0.0177  0.9347  0.1251
   31SOL    HW1  791   2.631   4.528   1.998  0.2645  1.1490 -1.6741
   31SOL    HW2  792   2.765   4.499   1.934  0.5976 -0.8184 -0.1813
   32SOL     OW  793   3.369   3.436   1.658  0.6510  0.1740 -0.0490
   32SOL    HW1  794   3.290   3.481   1.627 -0.0088 -1.2021 -0.4554
   32SOL    HW2  795   3.336   3.357   1.701  1.7551  0.2339  0.9454
   33SOL     OW  796   4.393   1.905   1.675 -0.3511  0.4410 -0.2342
   33SOL    HW1  797   4.436   1.959   1.608 -1.2579 -1.5422 -2.5966
   33SOL    HW2  798   4.300   1.925   1.665 -0.5122 -0.0433  0.2654
   34SOL     OW  799   2.745   1.872   4.823  0.0738 -0.0858 -0.0326
   34SOL    HW1  800   2.790   1.898   4.904 -0.6473 -0.5258  0.5192
   34SOL    HW2  801   2.801   1.905   4.753  0.6176  0.4644  0.6471
   35SOL     OW  802   1.105   1.296   0.657 -0.0980  1.1636  0.3871
   35SOL    HW1  803   1.081   1.213   0.698  0.8340  1.5625  1.7991
   35SOL    HW2  804   1.117   1.357   0.730 -1.4284  2.7470 -0.6496
   36SOL     OW  805   0.337   0.413   2.237  0.1218  0.0448  0.6049
   36SOL    HW1  806   0.393   0.339   2.214  0.0490  0.1055  0.2224
   36SOL    HW2  807   0.323   0.404   2.331 -1.4252 -1.5300  0.2818
   37SOL     OW  808   1.724   0.016   0.826 -0.4083 -0.0555 -0.1957
   37SOL    HW1  809   1.755  -0.041   0.897 -0.4498 -0.2754 -0.3520
   37SOL    HW2  810   1.800   0.025   0.768 -0.0269  1.0423  0.4505
   38SOL     OW  811   0.891   4.659   3.062 -0.4203  0.2804 -0.3658
   38SOL    HW1  812   0.836   4.586   3.088  0.0364 -0.0315 -0.2586
   38SOL    HW2  813   0.976   4.641   3.103 -0.5817  1.3839  0.5069
   39SOL     OW  814   2.312   0.845   5.192  0.1985  0.2580 -0.6242
   39SOL    HW1  815   2.358   0.912   5.241  2.6304 -1.5589 -0.2057
   39SOL    HW2  816   2.248   0.809   5.253 -0.6578  1.6852 -0.6481
   40SOL     OW  817   3.069   4.665   0.310 -0.6022 -0.0352 -0.4919
   40SOL    HW1  818   3.123   4.586   0.303 -0.8944 -0.1433 -2.0591
   40SOL    HW2  819   2.996   4.640   0.366  0.0145 -0.4559  0.1299
   41SOL     OW  820   0.182   3.797   1.177 -0.4803  0.4551 -0.3831
   41SOL    HW1  821   0.235   3.873   1.201 -0.2486 -0.0792  0.8880
   41SOL    HW2  822   0.145   3.767   1.260  0.9816 -1.9814 -0.5373
   42SOL     OW  823   2.361   5.172   0.063 -0.0221  0.1895 -0.0706
   42SOL    HW1  824   2.346   5.185   0.157  1.0570 -0.5770  0.2163
   42SOL    HW2  825   2.273   5.173   0.026 -1.0287 -4.2596  1.5737
   43SOL     OW  826   2.148   3.293   0.209 -0.1085 -0.2521  0.0163
   43SOL    HW1  827   2.069   3.346   0.210 -0.2069 -0.3286 -1.4076
   43SOL    HW2  828   2.119   3.207   0.178  0.7618  0.2145 -2.3211
   44SOL     OW  829   2.461   0.112   2.464  0.0301  0.0614  0.7488
   44SOL    HW1  830   2.521   0.041   2.442 -1.5087 -1.5425  1.4708
   44SOL    HW2  831   2.374   0.078   2.443 -0.6574  2.6508 -1.1980
   45SOL     OW  832   5.149   0.667   4.084  0.0872 -0.5348  0.3360
   45SOL    HW1  833   5.241   0.641   4.094 -0.4443 -1.9230  2.0405
   45SOL    HW2  834   5.132   0.722   4.161  0.3679  2.7296 -1.7109
   46SOL     OW  835   4.068   1.024   1.958  0.3225  0.5354 -0.4383
   46SOL    HW1  836   4.067   1.110   1.916 -0.6584  0.2236 -1.0990
   46SOL    HW2  837   4.036   1.039   2.046 -0.1751  0.8080 -0.6595
   47SOL     OW  838   0.713   0.655   1.842  0.1155 -0.3511 -0.1484
   47SOL    HW1  839   0.730   0.747   1.824  1.8042 -0.4263  0.7995
   47SOL    HW2  840   0.620   0.643   1.824 -0.0521  1.4428 -0.6343
   48SOL     OW  841   5.144   1.519   2.047  0.1107 -0.2220  0.1028
   48SOL    HW1  842   5.141   1.465   1.968 -0.7183  0.2826 -0.2220
   48SOL    HW2  843   5.234   1.512   2.077  0.5469 -0.0781 -1.1278
   49SOL     OW  844   0.204   1.135   2.826  0.3856  0.2668 -0.2398
   49SOL    HW1  845   0.153   1.173   2.755 -0.8457  0.4812  0.7137
   49SOL    HW2  846   0.139   1.087   2.878  1.2206  0.2503  0.8100
   50SOL     OW  847   4.180   5.020   4.835 -0.0243  0.9874 -0.6173
   50SOL    HW1  848   4.214   5.104   4.804 -0.5656  1.2250 -0.5686
   50SOL    HW2  849   4.253   4.982   4.885  0.8187  0.6572 -2.0241
   51SOL     OW  850   0.891   0.568   1.362  0.7115  0.1045 -0.0788
   51SOL    HW1  851   0.796   0.562   1.351  0.4150 -1.7128  2.6799
   51SOL    HW2  852   0.921   0.616   1.284 -2.5204  1.5155 -0.5998
   52SOL     OW  853   2.370   3.781   2.276 -0.2139  0.3543 -0.6675
   52SOL    HW1  854   2.316   3.855   2.247  0.7460  0.8365 -1.2728
   52SOL    HW2  855   2.379   3.794   2.371  0.3607  1.3167 -0.8400
   53SOL     OW  856   0.980   4.266   3.100  0.4577 -0.1165  0.5827
   53SOL    HW1  857   1.066   4.250   3.060  1.1331  1.9630  1.0691
   53SOL    HW2  858   0.997   4.333   3.166 -1.4770 -0.0125  1.0177
   54SOL     OW  859   4.033   2.997   5.308  0.5482 -0.1909  0.2010
   54SOL    HW1  860   4.046   3.075   5.254 -0.2273 -0.7695 -0.8635
   54SOL    HW2  861   4.110   2.943   5.291  2.5115  1.4424  3.0523
   55SOL     OW  862   3.545   4.781   4.475 -0.7891 -0.3736 -0.0243
   55SOL    HW1  863   3.573   4.789   4.384  0.1889 -0.3486  0.2646
   55SOL    HW2  864   3.479   4.849   4.486 -0.9219 -0.3847 -0.7146
   56SOL     OW  865   0.646   5.212   4.467  0.2490 -0.5209  0.0023
   56SOL    HW1  866   0.554   5.233   4.457  0.7295  1.0579 -1.4658
   56SOL    HW2  867   0.648   5.147   4.538 -1.8589  0.2245  0.8171
   57SOL     OW  868   2.355   3.181   4.637  0.5837 -0.0490 -0.1984
   57SOL    HW1  869   2.442   3.163   4.601  0.5916  1.4955 -1.0584
   57SOL    HW2  870   2.370   3.192   4.731  1.4010  0.5451 -0.3816
   58SOL     OW  871   4.053   0.434   4.113  0.2132  0.1929  0.1790
   58SOL    HW1  872   4.056   0.470   4.202  0.6687  0.3263  0.1106
   58SOL    HW2  873   4.140   0.450   4.078 -0.2255  0.9322 -0.6027
   59SOL     OW  874   3.251   1.294   5.152 -0.1052 -0.2268 -0.5887
   59SOL    HW1  875   3.239   1.207   5.189 -0.5055  0.8097  1.9613
   59SOL    HW2  876   3.331   1.327   5.194 -0.0082  0.6683 -1.4319
   60SOL     OW  877   4.593   4.831   1.773 -0.3652 -0.1183  0.1720
   60SOL    HW1  878   4.544   4.813   1.693 -0.0678 -2.1205  0.3945
   60SOL    HW2  879   4.671   4.879   1.744 -1.4702  1.4189 -0.3906
   61SOL     OW  880   1.889   2.733   0.059 -0.0776  0.6421  0.0202
   61SOL    HW1  881   1.968   2.720   0.112 -0.1031  1.3256  0.2434
   61SOL    HW2  882   1.859   2.645   0.038  2.8994  0.2113 -3.3874
   62SOL     OW  883   1.803   2.642   5.048 -0.2745 -0.0690 -0.2718
   62SOL    HW1  884   1.865   2.573   5.024 -0.7731  0.0499 -2.0683
   62SOL    HW2  885   1.770   2.616   5.134  1.1532 -0.8980  0.0605
   63SOL     OW  886   0.689   5.058   0.102 -0.3755 -0.0952 -0.1236
   63SOL    HW1  887   0.779   5.050   0.068 -0.1849  0.9407  0.1008
   63SOL    HW2  888   0.700   5.073   0.196 -0.7685  0.3001 -0.1369
   64SOL     OW  889   1.173   0.174   1.661  0.0819 -0.1166  0.3649
   64SOL    HW1  890   1.251   0.138   1.703  1.7003  0.1216 -2.2292
   64SOL    HW2  891   1.153   0.113   1.591 -0.2746  1.3516 -0.8624
   65SOL     OW  892   1.622   2.167   2.687  0.0420  0.1826  0.0035
   65SOL    HW1  893   1.592   2.152   2.777  1.3153  0.2620  0.4725
   65SOL    HW2  894   1.588   2.092   2.638 -0.0893 -0.2232  0.7001
   66SOL     OW  895   0.611   5.001   3.178  0.2605 -0.6303 -0.1913
   66SOL    HW1  896   0.692   5.050   3.189  0.2592 -0.6705  0.0093
   66SOL    HW2  897   0.597   4.998   3.083  1.0828 -1.5767 -0.2973
   67SOL     OW  898   4.090   1.644   4.900 -0.3819  0.0327 -0.3184
   67SOL    HW1  899   4.122   1.641   4.810 -0.4302 -1.3525 -0.2966
   67SOL    HW2  900   3.996   1.632   4.893 -0.2381 -1.4171 -0.0113
   68SOL     OW  901   1.550   4.076   1.848  0.0048  0.1185 -0.1938
   68SOL    HW1  902   1.511   4.123   1.922 -0.2565  2.6483 -1.8158
   68SOL    HW2  903   1.549   3.984   1.875 -0.1164  0.9231  2.8884
   69SOL     OW  904   4.549   5.301   0.957  0.8912 -0.1050  0.4548
   69SOL    HW1  905   4.644   5.306   0.970  0.8428  0.0811  0.7615
   69SOL    HW2  906   4.528   5.208   0.968  1.1832 -0.3149 -0.7115
   70SOL     OW  907   2.887   1.406   2.449  0.5463 -0.2826  0.2557
   70SOL    HW1  908   2.814   1.466   2.464 -1.3840 -2.5390  0.6242
   70SOL    HW2  909   2.940   1.413   2.528 -0.1245  0.3209  0.6648
   71SOL     OW  910   3.528   0.928   1.194 -0.2840  0.2483 -0.2170
   71SOL    HW1  911   3.585   0.885   1.130 -0.1465  2.1420 -1.4506
   71SOL    HW2  912   3.581   0.934   1.273  0.1695 -0.6114 -0.4419
   72SOL     OW  913   1.577   2.026   3.900  0.1815 -0.0131  0.5102
   72SOL    HW1  914   1.613   2.103   3.943  2.4366 -0.6209 -0.0968
   72SOL    HW2  915   1.564   1.963   3.970  0.4395  0.1977  0.7480
   73SOL     OW  916   3.859   3.979   1.918 -0.1929 -0.1409 -0.5732
   73SOL    HW1  917   3.853   3.905   1.858 -0.0322 -0.1259 -0.6077
   73SOL    HW2  918   3.817   4.052   1.872  0.6094  0.0721 -0.9848
   74SOL     OW  919   0.834   4.076   2.883 -1.1165 -0.1865  0.3016
   74SOL    HW1  920   0.825   4.148   2.946 -2.2395 -0.7389  0.8010
   74SOL    HW2  921   0.768   4.095   2.816 -0.1052  0.2569 -0.5934
   75SOL     OW  922   2.125   3.653   2.536  0.1008  0.0262  0.4579
   75SOL    HW1  923   2.089   3.671   2.623 -0.6192 -1.7870  0.5782
   75SOL    HW2  924   2.196   3.592   2.551  1.4530  1.4132 -0.0639
   76SOL     OW  925   4.185   4.643   5.156 -0.0909 -0.1880 -0.0993
   76SOL    HW1  926   4.091   4.662   5.152  0.1593  1.0363 -0.9905
   76SOL    HW2  927   4.224   4.721   5.197  0.5936 -0.4093 -0.3054
   77SOL     OW  928   2.537   1.199   1.470 -0.4835 -0.1883  0.2564
   77SOL    HW1  929   2.464   1.194   1.532  0.2487  3.2115  1.6150
   77SOL    HW2  930   2.613   1.221   1.524  0.7486  0.1794 -1.5410
   78SOL     OW  931   4.540   4.547   3.725 -0.5526 -0.1513 -0.0049
   78SOL    HW1  932   4.545   4.523   3.818  1.7231  1.1492  0.2786
   78SOL    HW2  933   4.472   4.614   3.721 -0.6010 -0.1527  0.7352
   79SOL     OW  934   0.780   1.976   2.049 -0.0742 -0.0310  0.3176
   79SOL    HW1  935   0.725   2.019   1.984  0.0100  0.6593  0.6832
   79SOL    HW2  936   0.865   2.019   2.040  0.1668 -0.5065  0.3225
   80SOL     OW  937   1.034   4.928   2.632  0.2838  0.1018  0.1718
   80SOL    HW1  938   0.945   4.933   2.599  0.9784  2.3995 -1.6543
   80SOL    HW2  939   1.056   5.018   2.655  2.2899 -0.3412  0.1576
   81SOL     OW  940   0.143   4.221   0.652 -0.2142  0.4691  0.1526
   81SOL    HW1  941   0.064   4.168   0.651 -0.6822  1.1606 -0.0836
   81SOL    HW2  942   0.117   4.305   0.612  1.3010 -0.2603 -2.6617
   82SOL     OW  943   4.581   3.067   2.308 -0.3994 -0.6558 -0.1259
   82SOL    HW1  944   4.491   3.092   2.329 -1.0438 -2.6298 -0.3312
   82SOL    HW2  945   4.577   3.042   2.215  0.5337 -0.0604 -0.3348
   83SOL     OW  946   1.300   0.946   1.262 -0.2184  0.2258  0.0035
   83SOL    HW1  947   1.334   1.033   1.242  0.5964 -0.5434 -2.2223
   83SOL    HW2  948   1.224   0.963   1.318  0.2057  2.3262  0.0373
   84SOL     OW  949   0.010   3.505   3.727  0.2674 -0.3803 -0.4942
   84SOL    HW1  950  -0.085   3.500   3.713  0.2723  0.6139 -1.0027
   84SOL    HW2  951   0.047   3.514   3.640  0.5957  2.0732 -0.1982
   85SOL     OW  952   4.358   2.844   3.682  0.4901 -0.1466  0.3474
   85SOL    HW1  953   4.431   2.899   3.711  0.4963  1.3185 -2.1220
   85SOL    HW2  954   4.280   2.900   3.693  0.5966  0.9074 -3.0117
   86SOL     OW  955   4.399   2.694   2.614  0.4972 -0.2927  0.3350
   86SOL    HW1  956   4.339   2.723   2.682 -0.9858 -1.3233 -0.4845
   86SOL    HW2  957   4.455   2.629   2.656 -0.6806 -1.2273  0.5114
   87SOL     OW  958   2.476   4.807   1.017  0.1553 -0.0482  0.3980
   87SOL    HW1  959   2.449   4.748   0.946 -1.8075 -0.0416  1.0853
   87SOL    HW2  960   2.564   4.834   0.992  0.0415 -1.0888 -1.3608
   88SOL     OW  961   2.475   2.004   0.498 -0.3025  0.4283  0.5003
   88SOL    HW1  962   2.472   2.052   0.415 -0.9668  0.5093  0.5670
   88SOL    HW2  963   2.421   2.056   0.557 -0.2625  0.0859  0.8352
   89SOL     OW  964   1.527   3.224   0.885  0.1052  0.0198 -0.0213
   89SOL    HW1  965   1.564   3.259   0.804 -0.0144  0.1939 -0.0029
   89SOL    HW2  966   1.538   3.295   0.948 -0.3242  0.1031 -0.0353
   90SOL     OW  967   1.611   2.697   1.998 -0.1819 -0.0106  0.1721
   90SOL    HW1  968   1.575   2.698   1.910 -0.2271 -1.7727  0.1518
   90SOL    HW2  969   1.690   2.751   1.992 -0.5083  0.3715 -0.7893
   91SOL     OW  970   3.512   1.143   0.349 -0.1252  0.0942  0.0849
   91SOL    HW1  971   3.514   1.217   0.410  0.0373 -0.7045  1.0587
   91SOL    HW2  972   3.512   1.185   0.262  1.6315  1.2364  0.5700
   92SOL     OW  973   4.667   3.934   3.046 -0.0888  0.3357 -0.1699
   92SOL    HW1  974   4.631   3.875   2.980 -2.5643 -0.4183  1.6732
   92SOL    HW2  975   4.679   3.879   3.123 -1.1873  1.9066  1.2056
   93SOL     OW  976   0.165   3.008   1.284  0.5306 -0.1330  0.1013
   93SOL    HW1  977   0.223   2.932   1.275 -1.1413 -1.8615  2.4640
   93SOL    HW2  978   0.098   2.994   1.218  0.5114 -0.4301  0.1807
   94SOL     OW  979   3.730   1.525   5.046 -0.1818  0.8605 -0.2061
   94SOL    HW1  980   3.813   1.492   5.082  0.2797  2.6790  0.5358
   94SOL    HW2  981   3.755   1.562   4.961 -0.8565 -1.3445 -1.4575
   95SOL     OW  982   1.450   4.922   4.679 -0.3352  0.1236 -0.0452
   95SOL    HW1  983   1.536   4.905   4.718  0.0603 -0.8132 -1.2630
   95SOL    HW2  984   1.453   5.015   4.654 -1.0600  1.1120  3.1622
   96SOL     OW  985   3.837   3.723   4.216  0.0624 -0.1798  0.0625
   96SOL    HW1  986   3.817   3.643   4.266  2.1569  0.1825  1.6385
   96SOL    HW2  987   3.902   3.694   4.152 -1.3153 -0.2679 -1.3636
   97SOL     OW  988   2.718   5.300   4.543  0.0676  0.1863  0.3890
   97SOL    HW1  989   2.787   5.323   4.482  1.5038  0.0953  1.9154
   97SOL    HW2  990   2.638   5.337   4.504  1.2053  1.6678 -0.6462
   98SOL     OW  991   3.475   3.708   2.339 -0.0681 -0.3649  0.3395
   98SOL    HW1  992   3.420   3.785   2.350 -0.2491 -0.5913  1.0927
   98SOL    HW2  993   3.423   3.636   2.375 -0.2069 -0.9777 -1.0131
   99SOL     OW  994   3.777   0.151   0.053 -0.1030  0.0264 -0.1161
   99SOL    HW1  995   3.860   0.189   0.025 -0.1245  1.3924  1.4748
   99SOL    HW2  996   3.800   0.091   0.123 -0.0865 -3.0287 -2.5354
  100SOL     OW  997   1.756   2.943   0.447  0.5578  0.0626  0.2154
  100SOL    HW1  998   1.676   2.912   0.405  0.1815  1.4104 -0.1017
  100SOL    HW2  999   1.727   2.974   0.533  0.4302  2.0273 -0.4973
  101SOL     OW 1000   0.396   2.603   3.102 -0.3456  0.5300  0.0764
  101SOL    HW1 1001   0.391   2.559   3.017 -0.0979 -0.9471  0.7959
  101SOL    HW2 1002   0.317   2.657   3.107 -0.6541  0.1733 -0.8397
  102SOL     OW 1003   4.220   0.428   2.574  1.0105 -0.1710  0.3812
  102SOL    HW1 1004   4.194   0.452   2.485 -0.6766 -1.5566  0.4395
  102SOL    HW2 1005   4.301   0.378   2.564  0.1432 -1.4519 -0.5538
  103SOL     OW 1006   4.272   0.539   2.085 -0.1997  0.1342  0.1549
  103SOL    HW1 1007   4.207   0.569   2.021 -0.0818 -0.1664 -0.1092
  103SOL    HW2 1008   4.347   0.513   2.031  0.4393  1.2010  0.4882
  104SOL     OW 1009   1.587   1.666   1.157  0.2029  0.3335  0.3506
  104SOL    HW1 1010   1.494   1.658   1.180  0.3148  0.8708  1.0377
  104SOL    HW2 1011   1.589   1.658   1.062 -0.3221 -1.6189  0.4596
  105SOL     OW 1012   0.064   1.636   4.773 -0.2772  0.3496 -0.2980
  105SOL    HW1 1013   0.056   1.543   4.749  0.2407  0.3960 -0.6578
  105SOL    HW2 1014   0.114   1.675   4.701  3.0875  0.0973  1.7206
  106SOL     OW 1015   0.739   4.626   0.364  0.0092 -0.0789  0.3858
  106SOL    HW1 1016   0.645   4.636   0.346  0.5254  1.3005 -1.8669
  106SOL    HW2 1017   0.762   4.542   0.325  0.4359  1.3998 -2.8808
  107SOL     OW 1018   4.733   1.142   3.089  0.8635 -0.0856  0.3486
  107SOL    HW1 1019   4.811   1.146   3.034 -0.0978  1.4008 -1.0113
  107SOL    HW2 1020   4.668   1.096   3.036 -0.4586  2.4149 -0.3958
  108SOL     OW 1021   0.317   1.125   4.679 -0.0815 -0.7637  0.1081
  108SOL    HW1 1022   0.342   1.039   4.715 -0.8955 -0.5583  1.1903
  108SOL    HW2 1023   0.401   1.168   4.661  0.5890 -3.2714 -4.4223
  109SOL     OW 1024   1.281   4.969   4.900  0.1820 -0.3231  0.0352
  109SOL    HW1 1025   1.350   4.948   4.838 -0.7665 -1.6567 -0.6219
  109SOL    HW2 1026   1.222   5.027   4.852  0.9512  1.0500  0.6875
  110SOL     OW 1027   0.442   5.136   2.905  0.0845 -0.1113  0.7696
  110SOL    HW1 1028   0.377   5.126   2.974 -0.5181  0.1738  0.2514
  110SOL    HW2 1029   0.472   5.227   2.913 -0.4188  0.1012  0.2855
  111SOL     OW 1030   0.811   4.751   2.126  0.2522 -0.8861 -0.1531
  111SOL    HW1 1031   0.802   4.741   2.031  3.0814  1.5454 -0.8305
  111SOL    HW2 1032   0.906   4.749   2.141  0.0712  1.8669  2.1687
  112SOL     OW 1033   0.327   0.845   1.229  0.1743 -0.1669 -0.4099
  112SOL    HW1 1034   0.364   0.762   1.199 -0.4050 -0.2849 -0.8172
  112SOL    HW2 1035   0.234   0.839   1.209 -0.0861  0.1092  0.6350
  113SOL     OW 1036   0.306   5.076   3.961 -0.4528  0.1673 -0.1986
  113SOL    HW1 1037   0.280   4.984   3.970  0.7108 -0.4522 -2.3220
  113SOL    HW2 1038   0.299   5.093   3.867  0.4218  1.9146  0.0178
  114SOL     OW 1039   4.608   0.838   4.876  0.0716  0.3526  0.4362
  114SOL    HW1 1040   4.601   0.903   4.807  0.5952  1.4620  1.3951
  114SOL    HW2 1041   4.671   0.875   4.938  0.2298 -0.9734  1.1125
  115SOL     OW 1042   4.056   2.895   4.226  0.0923 -0.1360 -0.7535
  115SOL    HW1 1043   4.085   2.838   4.297  0.2980 -0.8063 -1.3646
  115SOL    HW2 1044   4.061   2.841   4.147 -0.3713  0.5175 -1.2500
  116SOL     OW 1045   0.695   4.975   2.254  0.2294  0.2058  0.1460
  116SOL    HW1 1046   0.717   4.895   2.206 -1.3709  0.2987 -0.8095
  116SOL    HW2 1047   0.601   4.986   2.241 -0.0622  0.8445  2.4309
  117SOL     OW 1048   4.371   1.882   0.555 -0.5688  0.3659  0.2402
  117SOL    HW1 1049   4.298   1.911   0.609 -1.4183 -0.2339 -0.5640
  117SOL    HW2 1050   4.341   1.894   0.465  0.8882  1.5175 -0.1470
  118SOL     OW 1051   4.490   1.907   2.756  0.3074  0.1843 -0.1506
  118SOL    HW1 1052   4.549   1.922   2.829 -1.6114  0.7523  1.3554
  118SOL    HW2 1053   4.414   1.962   2.774 -0.7928 -0.6424 -1.9175
  119SOL     OW 1054   1.437   2.954   4.509 -0.2693  0.1978 -0.8858
  119SOL    HW1 1055   1.385   3.020   4.463 -1.3711  0.7909  1.1198
  119SOL    HW2 1056   1.480   3.002   4.579  0.0886 -0.9602 -0.2934
  120SOL     OW 1057   4.152   0.731   1.037 -0.0155  0.1340  0.0489
  120SOL    HW1 1058   4.203   0.793   0.985  2.0098  0.0060  1.7627
  120SOL    HW2 1059   4.128   0.779   1.116  0.1682 -0.7648  0.6652
  121SOL     OW 1060   5.278   0.010   1.415  0.3865 -0.4911  0.4201
  121SOL    HW1 1061   5.211  -0.009   1.481  0.2048  0.1702  0.4284
  121SOL    HW2 1062   5.284   0.106   1.413 -1.8847 -0.2681 -2.7598
  122SOL     OW 1063   3.668   1.128   4.884  0.4761 -0.4354  0.3340
  122SOL    HW1 1064   3.656   1.212   4.839  1.4556 -0.4533  0.0069
  122SOL    HW2 1065   3.739   1.086   4.836 -1.5535 -2.5330 -1.0747
  123SOL     OW 1066   2.070   3.835   1.282 -0.1939  0.2243 -0.0242
  123SOL    HW1 1067   2.156   3.804   1.254 -0.2800  0.6235 -0.7440
  123SOL    HW2 1068   2.008   3.772   1.246 -0.2986  0.6995 -0.6957
  124SOL     OW 1069   0.799   1.874   1.481  0.1271  0.2784 -0.0882
  124SOL    HW1 1070   0.787   1.785   1.514  0.8329  0.6595  1.2902
  124SOL    HW2 1071   0.720   1.892   1.431  0.1148 -1.2374 -0.6703
  125SOL     OW 1072   3.690   2.331   5.336  0.4917 -0.4601 -0.4489
  125SOL    HW1 1073   3.671   2.351   5.245  0.7393 -2.1337 -0.8978
  125SOL    HW2 1074   3.785   2.346   5.345  0.2782  0.7993 -0.1466
  126SOL     OW 1075   0.968   0.216   0.303  0.7413 -0.4996 -0.1592
  126SOL    HW1 1076   1.032   0.189   0.368  2.5329  0.1548 -1.5701
  126SOL    HW2 1077   0.976   0.151   0.233 -1.7486 -1.6792  0.5424
  127SOL     OW 1078   2.590   2.411   4.956 -0.3570  0.5311  0.5234
  127SOL    HW1 1079   2.662   2.453   4.909 -0.1300  0.8384  1.1472
  127SOL    HW2 1080   2.571   2.332   4.905  0.8159  0.1295  0.6915
  128SOL     OW 1081   0.995   1.497   4.123 -1.0174 -0.0693  0.3087
  128SOL    HW1 1082   0.942   1.545   4.060 -0.3297  1.8526  1.1149
  128SOL    HW2 1083   0.973   1.535   4.208 -1.0202 -1.7592  1.1188
  129SOL     OW 1084   4.692   2.244   1.004 -0.0228  0.1530  0.0979
  129SOL    HW1 1085   4.642   2.171   1.039  1.2202 -0.1427  1.3738
  129SOL    HW2 1086   4.687   2.312   1.072 -0.7091  1.0648 -0.8324
  130SOL     OW 1087   3.995   4.935   1.925  0.6317 -0.7838  0.1827
  130SOL    HW1 1088   3.916   4.896   1.963  0.5472 -1.0439 -0.2633
  130SOL    HW2 1089   3.967   4.969   1.840  0.4770  1.0676  0.9313
  131SOL     OW 1090   4.704   4.588   1.236  0.6222  0.1181  0.4065
  131SOL    HW1 1091   4.725   4.545   1.153  0.7915 -2.3148  1.6159
  131SOL    HW2 1092   4.760   4.544   1.300  0.5041  1.9497  1.8375
  132SOL     OW 1093   5.157   0.205   1.723  0.1338  0.0613  0.4489
  132SOL    HW1 1094   5.247   0.179   1.741  0.2886  0.3504  0.1254
  132SOL    HW2 1095   5.108   0.183   1.802  0.6795  0.8042  1.0135
  133SOL     OW 1096   1.443   0.997   0.471 -0.6939 -0.0784 -0.2042
  133SOL    HW1 1097   1.432   0.904   0.453  2.0638 -0.1016 -2.5278
  133SOL    HW2 1098   1.430   1.039   0.386 -2.2923  1.7829  0.8746
  134SOL     OW 1099   3.169   2.579   3.695 -0.3765  0.0388 -0.1475
  134SOL    HW1 1100   3.169   2.504   3.634  0.6142 -1.1226  1.2169
  134SOL    HW2 1101   3.093   2.564   3.750 -0.8769  0.7206 -0.6412
  135SOL     OW 1102   4.158   2.022   1.299 -0.5226  0.1898  0.7523
  135SOL    HW1 1103   4.125   2.103   1.337  0.0640  0.1388  1.3747
  135SOL    HW2 1104   4.243   2.045   1.262 -0.6898  0.0283  0.2504
  136SOL     OW 1105   4.019   1.676   2.593  0.3353 -0.1918 -0.0905
  136SOL    HW1 1106   4.064   1.605   2.639  0.4482 -0.1136 -0.0795
  136SOL    HW2 1107   3.937   1.687   2.642 -0.8467 -1.9716 -1.5485
  137SOL     OW 1108   0.088   3.171   3.161  0.1274  0.0355 -0.3462
  137SOL    HW1 1109   0.057   3.176   3.251  2.8201  1.7122  0.5958
  137SOL    HW2 1110   0.062   3.083   3.132 -0.6578 -0.6255  2.1093
  138SOL     OW 1111   3.004   4.429   0.021  0.3750  0.5235 -0.1825
  138SOL    HW1 1112   3.068   4.358   0.031 -1.2578 -0.8995  0.8681
  138SOL    HW2 1113   3.001   4.470   0.107  0.8606  1.4929 -0.6182
  139SOL     OW 1114   4.187   1.555   4.172 -1.1587  0.0794 -0.0994
  139SOL    HW1 1115   4.263   1.558   4.230 -1.0375 -1.9112 -0.0635
  139SOL    HW2 1116   4.202   1.477   4.117 -0.8581  2.2868 -3.4375
  140SOL     OW 1117   1.852   3.166   2.355  0.3926 -0.2711 -0.2503
  140SOL    HW1 1118   1.829   3.087   2.306 -0.1820  1.0076 -2.1271
  140SOL    HW2 1119   1.944   3.180   2.335 -0.0857  0.8041 -1.8544
  141SOL     OW 1120   4.503   0.895   5.355 -0.1854 -0.6739  0.2931
  141SOL    HW1 1121   4.417   0.919   5.321  0.3458 -0.2416 -0.8037
  141SOL    HW2 1122   4.498   0.801   5.368 -1.0025 -0.5738  0.7712
  142SOL     OW 1123   0.601   3.161   2.120  0.3953 -0.5159 -0.0293
  142SOL    HW1 1124   0.657   3.092   2.087 -0.0349 -0.2994 -1.2742
  142SOL    HW2 1125   0.562   3.200   2.042 -0.8380 -0.1143  0.7502
  143SOL     OW 1126   0.604   5.078   1.266  0.3756 -0.2151 -0.6878
  143SOL    HW1 1127   0.602   5.170   1.238  0.7653 -0.1646 -0.5618
  143SOL    HW2 1128   0.648   5.081   1.352 -1.0660 -0.3327  0.0773
  144SOL     OW 1129   0.162   3.301   3.890  0.5517 -0.0755 -0.4961
  144SOL    HW1 1130   0.187   3.379   3.939 -1.7602  1.1127 -1.0750
  144SOL    HW2 1131   0.095   3.331   3.828 -0.0537 -2.4088 -1.0854
  145SOL     OW 1132   0.092   1.494   0.757  0.0336  0.0611 -0.0722
  145SOL    HW1 1133   0.175   1.457   0.728 -0.3649 -1.3499  0.4979
  145SOL    HW2 1134   0.102   1.589   0.746  2.0076 -0.0122  0.7595
  146SOL     OW 1135   4.130   0.733   4.880  0.5291 -0.2102  0.5053
  146SOL    HW1 1136   4.058   0.705   4.824  0.2363 -3.1663  2.1616
  146SOL    HW2 1137   4.207   0.729   4.823 -0.2484  0.9638 -0.7166
  147SOL     OW 1138   3.025   3.634   2.400  0.1420  0.0436 -0.1532
  147SOL    HW1 1139   2.939   3.660   2.367  0.3842  1.5448  0.3545
  147SOL    HW2 1140   3.025   3.660   2.492 -0.1622 -3.2341  0.9181
  148SOL     OW 1141   0.423   0.106   4.102  0.8056 -0.4081  0.1814
  148SOL    HW1 1142   0.423   0.179   4.163  1.8006 -1.0646  1.0064
  148SOL    HW2 1143   0.511   0.068   4.109  0.5131 -1.3060 -0.6747
  149SOL     OW 1144   5.092   1.619   3.409 -0.1482 -0.1301  0.1429
  149SOL    HW1 1145   5.156   1.689   3.402 -0.0875 -0.1222  0.7317
  149SOL    HW2 1146   5.055   1.611   3.321 -0.8132  1.2567  0.2701
  150SOL     OW 1147   3.023   5.392   2.158 -0.4250  0.1783 -0.6572
  150SOL    HW1 1148   2.973   5.445   2.220 -1.1334 -1.6336  0.3754
  150SOL    HW2 1149   2.964   5.321   2.133  1.3322 -1.6490  0.0771
  151SOL     OW 1150   3.820   3.714   0.454  0.4979  0.5317  0.0110
  151SOL    HW1 1151   3.767   3.635   0.466 -1.0950  1.6704  0.7684
  151SOL    HW2 1152   3.911   3.682   0.455 -0.1227 -1.5132 -1.5766
  152SOL     OW 1153   2.463   0.135   1.861  0.8111 -0.2931  0.2455
  152SOL    HW1 1154   2.485   0.224   1.886  0.4653  0.3691 -1.6274
  152SOL    HW2 1155   2.528   0.081   1.905 -0.0896  0.6482  2.9213
  153SOL     OW 1156   0.555   2.756   2.059  0.0603  0.3471 -0.1398
  153SOL    HW1 1157   0.508   2.783   2.138  0.2722  2.0729 -0.5675
  153SOL    HW2 1158   0.647   2.763   2.082  0.1255  1.0927 -0.5983
  154SOL     OW 1159   0.615   2.749   3.248 -0.6027 -0.2405  0.1206
  154SOL    HW1 1160   0.581   2.754   3.337  0.5026 -1.6750  0.6700
  154SOL    HW2 1161   0.551   2.695   3.201 -1.0527  0.3024  0.0937
  155SOL     OW 1162   4.320   4.182   0.877 -0.1218 -0.0151  0.0859
  155SOL    HW1 1163   4.340   4.093   0.905  0.1111 -0.6512 -1.9020
  155SOL    HW2 1164   4.402   4.230   0.888 -0.5608  0.3258  2.2988
  156SOL     OW 1165   4.222   0.922   3.711  0.0895 -0.0200  0.0356
  156SOL    HW1 1166   4.140   0.876   3.690  0.0407 -0.0155  0.2086
  156SOL    HW2 1167   4.287   0.852   3.721 -0.0784 -0.0843  0.7158
  157SOL     OW 1168   1.540   1.503   4.139  0.6903 -0.0674  0.1826
  157SOL    HW1 1169   1.460   1.452   4.130 -0.0187  1.3759 -3.2253
  157SOL    HW2 1170   1.608   1.438   4.156 -0.9012 -1.4998  1.4197
  158SOL     OW 1171   0.425   1.591   1.457 -0.8388 -0.5891  0.0592
  158SOL    HW1 1172   0.341   1.608   1.499 -0.5353  1.0116  0.0798
  158SOL    HW2 1173   0.438   1.665   1.398  0.2758 -1.1222 -0.3958
  159SOL     OW 1174   0.435   4.072   4.068  0.5347  0.3974  0.0146
  159SOL    HW1 1175   0.436   4.109   3.979 -1.5557  3.6037  1.1515
  159SOL    HW2 1176   0.429   4.148   4.125  1.2818 -1.5972  2.9363
  160SOL     OW 1177   0.273   0.211   3.907  0.0835  0.2065  0.4941
  160SOL    HW1 1178   0.335   0.168   3.966 -0.3023  0.0248  0.7786
  160SOL    HW2 1179   0.215   0.260   3.966 -1.7282 -1.7763  0.4862
  161SOL     OW 1180   2.601   3.097   1.529  1.0070  0.0376 -0.4575
  161SOL    HW1 1181   2.567   3.128   1.613  0.5110  1.1917 -1.0770
  161SOL    HW2 1182   2.601   3.001   1.538  0.0115  0.1063  0.4857
  162SOL     OW 1183   2.890   1.942   5.237  0.1639  0.1182  0.5554
  162SOL    HW1 1184   2.880   2.036   5.224  0.1402  0.1486  0.7818
  162SOL    HW2 1185   2.847   1.925   5.321 -0.2393 -0.1717  0.2965
  163SOL     OW 1186   4.677   4.819   2.030  0.0228  0.3566 -0.4909
  163SOL    HW1 1187   4.651   4.800   1.940  0.7440  1.8861 -1.0635
  163SOL    HW2 1188   4.639   4.905   2.048 -0.5521 -0.1606  0.8612
  164SOL     OW 1189   2.979   2.039   4.031  0.1717 -0.6638  0.0112
  164SOL    HW1 1190   2.913   2.067   4.094  1.4035 -0.7437  1.4141
  164SOL    HW2 1191   3.012   2.120   3.993 -0.1731 -0.5735 -0.0929
  165SOL     OW 1192   2.587   4.630   1.479  0.4037 -0.0258  0.1084
  165SOL    HW1 1193   2.678   4.633   1.510  0.2798  0.2512  0.4544
  165SOL    HW2 1194   2.544   4.700   1.527  0.4919  1.2730 -1.6097
  166SOL     OW 1195   2.468   1.476   2.447  0.0762 -0.8685  0.3817
  166SOL    HW1 1196   2.505   1.411   2.388 -0.1760 -0.8271  0.1727
  166SOL    HW2 1197   2.414   1.532   2.390  0.1456 -0.5892  0.5872
  167SOL     OW 1198   0.128   4.598   0.119 -0.2595  0.0576 -0.4658
  167SOL    HW1 1199   0.223   4.600   0.126 -0.2545  0.0157 -0.5267
  167SOL    HW2 1200   0.110   4.607   0.026 -0.2995 -0.6533 -0.5307
  168SOL     OW 1201   2.841   4.818   4.110 -0.4367  0.1162  0.4822
  168SOL    HW1 1202   2.764   4.802   4.055 -1.5854 -1.4515  2.3906
  168SOL    HW2 1203   2.842   4.913   4.123 -0.8892  0.3654 -1.1269
  169SOL     OW 1204   3.121   1.603   2.854  0.6163  0.2996  0.2795
  169SOL    HW1 1205   3.196   1.621   2.911  0.5633 -0.1085  0.4753
  169SOL    HW2 1206   3.045   1.629   2.906  0.5876  0.2283  0.2726
  170SOL     OW 1207   2.075   1.946   3.255  0.0535 -0.5156  0.2997
  170SOL    HW1 1208   2.047   1.854   3.250  1.0064 -0.7842 -0.4601
  170SOL    HW2 1209   2.025   1.990   3.187  0.1127 -0.6099  0.1960
  171SOL     OW 1210   5.090   3.262   3.380 -0.1031 -0.2764 -0.5507
  171SOL    HW1 1211   5.082   3.232   3.289 -1.0902 -1.8599  0.0204
  171SOL    HW2 1212   5.078   3.357   3.375 -0.4549 -0.3718 -2.0381
  172SOL     OW 1213   1.190   2.801   1.477 -0.0910  0.5667  0.1955
  172SOL    HW1 1214   1.101   2.800   1.513 -0.3810 -0.0128 -0.5310
  172SOL    HW2 1215   1.217   2.709   1.477  0.7382  0.7853  0.9394
  173SOL     OW 1216   4.676   1.947   4.378  0.4730 -0.2005  0.2220
  173SOL    HW1 1217   4.686   2.015   4.311  3.6137  0.8987  1.6066
  173SOL    HW2 1218   4.724   1.872   4.343  0.8651 -0.1282  0.5955
  174SOL     OW 1219   3.218   0.025   1.295  0.8635  0.1065 -0.4736
  174SOL    HW1 1220   3.178   0.094   1.243  0.0078 -0.2853 -0.3558
  174SOL    HW2 1221   3.202   0.050   1.386  2.3418  0.7817 -0.3680
  175SOL     OW 1222   3.909   0.608   3.804  0.4571  0.1505 -0.0546
  175SOL    HW1 1223   3.930   0.516   3.812  2.5873  0.5477 -0.6187
  175SOL    HW2 1224   3.894   0.637   3.894  1.4188 -0.3918  0.2894
  176SOL     OW 1225   3.877   0.433   5.307 -0.2168 -0.7362 -0.0048
  176SOL    HW1 1226   3.871   0.355   5.251  1.5543  0.6747 -2.3262
  176SOL    HW2 1227   3.944   0.411   5.371 -1.3548 -1.9073  0.8426
  177SOL     OW 1228   4.240   0.289   1.276  0.4713  0.7025  0.7425
  177SOL    HW1 1229   4.321   0.250   1.307  1.3372 -0.0767 -2.1570
  177SOL    HW2 1230   4.172   0.247   1.328  1.6530 -2.1182  0.2137
  178SOL     OW 1231   3.048   3.417   0.576 -0.7871 -0.1314  0.5315
  178SOL    HW1 1232   3.080   3.495   0.530 -0.3652 -0.8950 -0.4866
  178SOL    HW2 1233   3.016   3.360   0.507  0.3850 -1.5526  1.1298
  179SOL     OW 1234   4.231   1.375   0.886 -0.1656 -0.8443  0.3095
  179SOL    HW1 1235   4.279   1.292   0.884 -0.0498 -0.7692 -1.2913
  179SOL    HW2 1236   4.152   1.356   0.936 -0.8632 -2.3701 -1.2723
  180SOL     OW 1237   4.793   2.030   2.567 -0.0384  0.0877  0.0054
  180SOL    HW1 1238   4.850   2.004   2.494 -0.2441  0.6360 -0.3595
  180SOL    HW2 1239   4.723   2.080   2.525 -0.0004  0.6587  0.6116
  181SOL     OW 1240   5.304   0.858   0.077 -0.1560  0.1621 -0.1101
  181SOL    HW1 1241   5.246   0.793   0.037  0.7634 -0.5334 -0.3598
  181SOL    HW2 1242   5.260   0.883   0.158  0.1884 -1.9591  0.8080
  182SOL     OW 1243   4.404   1.136   3.715 -0.0034 -0.2203 -0.1963
  182SOL    HW1 1244   4.355   1.063   3.679  0.1841  0.0345 -0.9746
  182SOL    HW2 1245   4.441   1.181   3.639  0.8325  0.0186  0.3392
  183SOL     OW 1246   3.703   2.721   0.882 -0.1975 -0.1581  0.4611
  183SOL    HW1 1247   3.765   2.791   0.862  1.1646 -0.5497  2.9486
  183SOL    HW2 1248   3.678   2.686   0.796  3.9787 -0.7787 -0.7164
  184SOL     OW 1249   3.280   4.212   4.967  0.2396 -0.5917  0.5186
  184SOL    HW1 1250   3.246   4.213   4.877 -0.6202 -0.4081  0.8372
  184SOL    HW2 1251   3.283   4.119   4.990  0.8390 -0.6679  0.1729
  185SOL     OW 1252   2.638   5.357   0.345  0.4155  0.5485  0.4354
  185SOL    HW1 1253   2.640   5.324   0.255  2.3777  0.9676  0.2788
  185SOL    HW2 1254   2.723   5.333   0.381  0.1440  1.5040  1.7883
  186SOL     OW 1255   4.100   1.522   0.203  0.3212 -0.5273  0.1993
  186SOL    HW1 1256   4.014   1.514   0.243  0.2806 -0.9780  0.0322
  186SOL    HW2 1257   4.161   1.487   0.268  0.6159  1.5691  1.1181
  187SOL     OW 1258   4.681   3.186   3.809  0.7500  0.5637 -0.3336
  187SOL    HW1 1259   4.761   3.177   3.861 -0.0323  0.2904  0.8449
  187SOL    HW2 1260   4.644   3.270   3.835  0.7970  0.8327 -1.1031
  188SOL     OW 1261   2.106   5.038   5.020  0.2322 -0.7850 -0.4148
  188SOL    HW1 1262   2.081   4.973   5.085  0.0336 -0.3892 -0.0923
  188SOL    HW2 1263   2.199   5.055   5.036 -0.0600  0.0923  0.4699
  189SOL     OW 1264   4.330   3.193   5.274  0.3622 -0.4252  0.0964
  189SOL    HW1 1265   4.347   3.100   5.292 -0.2904 -0.6339 -0.3538
  189SOL    HW2 1266   4.245   3.194   5.230  1.1905  0.2185 -1.5766
  190SOL     OW 1267   0.155   1.114   0.073  0.3319 -0.1552  0.0472
  190SOL    HW1 1268   0.245   1.122   0.041  0.9383 -2.4829  0.9158
  190SOL    HW2 1269   0.113   1.057   0.009  0.0600 -0.6423  0.6491
  191SOL     OW 1270   1.169   3.250   2.543  0.1388  0.0140  0.3669
  191SOL    HW1 1271   1.184   3.216   2.455  3.3544 -1.5675  1.3390
  191SOL    HW2 1272   1.159   3.171   2.598 -0.4130  0.9101  1.5973
  192SOL     OW 1273   3.469   5.283   1.848 -0.5091  0.0848 -0.6173
  192SOL    HW1 1274   3.380   5.291   1.881 -0.2463 -0.0257  0.1698
  192SOL    HW2 1275   3.524   5.293   1.927  0.1236 -1.0052 -0.9001
  193SOL     OW 1276   4.573   1.339   3.201  0.3138  0.2882  0.1486
  193SOL    HW1 1277   4.626   1.260   3.197 -0.2034 -0.0870  0.5625
  193SOL    HW2 1278   4.532   1.344   3.114  1.6355  1.0335 -0.4677
  194SOL     OW 1279   0.978   1.507   4.752 -0.2413 -0.3287  0.0284
  194SOL    HW1 1280   0.986   1.538   4.841  2.7074 -0.8372  0.0368
  194SOL    HW2 1281   1.063   1.523   4.712 -1.7030  0.7053 -3.0239
  195SOL     OW 1282   2.904   0.288   3.776  0.1359  0.0499 -0.2441
  195SOL    HW1 1283   2.903   0.212   3.717  0.6675 -0.3147  0.2134
  195SOL    HW2 1284   2.968   0.266   3.843  0.2236  0.8668 -0.0510
  196SOL     OW 1285   0.002   2.739   3.882  0.3603  0.4131  0.4780
  196SOL    HW1 1286  -0.032   2.683   3.812 -0.2412  0.2572  0.8948
  196SOL    HW2 1287  -0.075   2.770   3.928  0.7162  1.1640  0.5820
  197SOL     OW 1288   4.089   3.696   0.439  0.4510  0.6534 -0.0588
  197SOL    HW1 1289   4.149   3.769   0.454  1.4549 -0.2138  0.2124
  197SOL    HW2 1290   4.141   3.618   0.454  0.5924 -0.2932 -4.2215
  198SOL     OW 1291   1.467   5.283   0.726  0.5378  0.0535 -0.5038
  198SOL    HW1 1292   1.548   5.287   0.676  1.0878  0.4768  0.3940
  198SOL    HW2 1293   1.492   5.311   0.814 -1.0143  2.4197 -0.7359
  199SOL     OW 1294   0.148   1.815   3.297  0.4116  0.3438 -0.0308
  199SOL    HW1 1295   0.158   1.731   3.343  2.5475 -0.9122 -2.5164
  199SOL    HW2 1296   0.223   1.867   3.327 -2.0737  2.4647  3.2279
  200SOL     OW 1297   0.668   0.823   2.268  0.0038  0.3322 -0.1144
  200SOL    HW1 1298   0.721   0.861   2.338 -0.4101  0.8370 -0.0716
  200SOL    HW2 1299   0.732   0.792   2.204  0.4642 -1.3700  1.0846
  201SOL     OW 1300   5.055   2.570   1.671  0.0950 -0.3482 -0.4725
  201SOL    HW1 1301   5.020   2.487   1.638 -0.3006 -0.5147  0.3657
  201SOL    HW2 1302   5.139   2.580   1.624  0.6467 -1.7341  0.1667
  202SOL     OW 1303   3.096   2.172   2.382  0.2429  0.1253  0.7542
  202SOL    HW1 1304   3.186   2.194   2.357 -0.4601  1.2790 -1.0093
  202SOL    HW2 1305   3.100   2.081   2.411  1.9637  0.1536  0.7125
  203SOL     OW 1306   5.349   2.293   5.197 -0.6763 -0.1542  0.3305
  203SOL    HW1 1307   5.329   2.229   5.129  0.3670  2.1455 -2.3414
  203SOL    HW2 1308   5.435   2.268   5.230 -0.4855 -0.3745 -0.3384
  204SOL     OW 1309   3.994   3.959   2.618  0.2699  0.2072  0.1360
  204SOL    HW1 1310   3.935   3.886   2.638  0.0769  0.3539  0.1102
  204SOL    HW2 1311   3.949   4.007   2.548  1.3030 -0.7508 -1.2308
  205SOL     OW 1312   4.269   0.025   2.332 -0.0875 -0.5913  0.5131
  205SOL    HW1 1313   4.248  -0.050   2.387  0.0701 -0.3391  0.9220
  205SOL    HW2 1314   4.217   0.097   2.368 -0.5919 -0.6142 -0.1685
  206SOL     OW 1315   0.411   4.840   4.223  0.6858  0.1952 -0.3424
  206SOL    HW1 1316   0.398   4.827   4.129  0.5310 -1.3260 -0.1408
  206SOL    HW2 1317   0.480   4.778   4.246  1.2180  1.0538  0.4332
  207SOL     OW 1318   0.481   4.911   1.853  0.0486  0.1857 -0.0304
  207SOL    HW1 1319   0.464   5.006   1.856  2.3065  0.6645 -0.5479
  207SOL    HW2 1320   0.427   4.875   1.923  1.4441  2.2872  2.2722
  208SOL     OW 1321   3.209   3.122   0.219  0.2734 -0.2123 -0.1412
  208SOL    HW1 1322   3.163   3.194   0.176 -2.1581 -0.5378  1.6828
  208SOL    HW2 1323   3.156   3.044   0.199 -0.3559 -0.5334  2.4278
  209SOL     OW 1324   0.730   2.372   3.615 -0.3754  0.0197 -0.0990
  209SOL    HW1 1325   0.823   2.362   3.593 -0.5242 -1.0637 -0.3003
  209SOL    HW2 1326   0.697   2.437   3.553 -0.2150 -1.1331 -1.4288
  210SOL     OW 1327   3.511   2.963   1.539  0.4874  0.3209  0.2016
  210SOL    HW1 1328   3.462   3.004   1.610  0.4177 -0.6193  0.7105
  210SOL    HW2 1329   3.444   2.938   1.474  0.2792 -0.9043  0.8664
  211SOL     OW 1330   4.406   3.305   2.354  0.4269 -0.0095  0.6798
  211SOL    HW1 1331   4.417   3.297   2.260 -1.4247 -0.1976  0.4556
  211SOL    HW2 1332   4.476   3.365   2.381  1.5980 -0.7291 -0.6435
  212SOL     OW 1333   0.550   1.945   2.555 -0.5265 -0.3039 -0.3924
  212SOL    HW1 1334   0.515   1.953   2.643  0.1904 -0.6969 -0.0674
  212SOL    HW2 1335   0.636   1.985   2.559 -0.3042 -0.7240 -0.7975
  213SOL     OW 1336   1.771   5.317   3.208  0.0426 -0.2868 -0.0045
  213SOL    HW1 1337   1.742   5.293   3.297 -0.8010 -0.3799 -0.2907
  213SOL    HW2 1338   1.716   5.392   3.185  0.9636  0.3785 -0.0626
  214SOL     OW 1339   0.457   2.159   2.295  0.1861 -0.6029  0.1317
  214SOL    HW1 1340   0.535   2.183   2.345 -0.2593  0.4960  0.3222
  214SOL    HW2 1341   0.389   2.217   2.328 -0.6179 -1.2616 -0.3312
  215SOL     OW 1342   3.653   2.547   4.659  0.4000 -0.0899  0.5803
  215SOL    HW1 1343   3.656   2.623   4.600 -1.1201 -1.7128 -1.7643
  215SOL    HW2 1344   3.609   2.479   4.608  0.7162 -2.2356  2.9780
  216SOL     OW 1345   3.663   4.309   4.093  0.3243 -0.3998 -0.5909
  216SOL    HW1 1346   3.641   4.373   4.161 -2.9163 -0.5405 -1.3386
  216SOL    HW2 1347   3.751   4.334   4.065  0.2712  2.0209  1.0389
  217SOL     OW 1348   1.794   3.268   3.260 -0.5244 -0.5710 -0.3298
  217SOL    HW1 1349   1.866   3.328   3.239  0.7258 -1.9904 -0.3214
  217SOL    HW2 1350   1.724   3.325   3.293  1.0925  0.7648  1.0220
  218SOL     OW 1351   2.859   1.544   3.501  0.2556  1.3497 -0.3734
  218SOL    HW1 1352   2.785   1.565   3.557 -1.6371  1.3189 -2.7236
  218SOL    HW2 1353   2.929   1.602   3.531 -0.6151  1.3071  1.9662
  219SOL     OW 1354   0.113   1.698   4.313 -0.2599  0.1106  0.4112
  219SOL    HW1 1355   0.072   1.769   4.263 -0.4420  0.4578  1.0375
  219SOL    HW2 1356   0.206   1.724   4.317 -0.3561  0.4100  0.7877
  220SOL     OW 1357   1.504   1.424   1.787 -0.4886 -0.5002 -0.5045
  220SOL    HW1 1358   1.590   1.446   1.750  0.4580 -1.3489  1.0974
  220SOL    HW2 1359   1.441   1.451   1.719  0.9972  0.5665 -1.5231
  221SOL     OW 1360   2.012   2.943   1.739 -0.1299 -0.1089 -1.1117
  221SOL    HW1 1361   2.042   2.893   1.663  1.1328  1.3404 -1.6241
  221SOL    HW2 1362   2.028   2.887   1.814  0.7837 -0.6648 -1.7129
  222SOL     OW 1363   2.312   2.447   4.960 -0.0164 -0.6981  0.1608
  222SOL    HW1 1364   2.272   2.420   4.878 -0.8197 -1.4278  0.7805
  222SOL    HW2 1365   2.406   2.443   4.943 -0.1648 -1.4090 -0.5406
  223SOL     OW 1366   0.790   4.483   1.220 -0.3914  0.0670  0.2191
  223SOL    HW1 1367   0.712   4.537   1.208  0.2869  1.2933  1.1564
  223SOL    HW2 1368   0.789   4.458   1.312  0.1567 -0.1766  0.1639
  224SOL     OW 1369   1.692   3.625   5.027  0.1682 -0.1072  0.2112
  224SOL    HW1 1370   1.641   3.597   5.103  0.4003 -1.8066 -0.2236
  224SOL    HW2 1371   1.782   3.605   5.050  0.5110  1.5282  0.3879
  225SOL     OW 1372   2.828   3.858   3.598 -0.6471  0.2608  0.0230
  225SOL    HW1 1373   2.834   3.771   3.558  0.6829 -0.9476  2.6024
  225SOL    HW2 1374   2.846   3.843   3.691  1.1956  3.4833  0.3447
  226SOL     OW 1375   4.423   0.733   3.695 -0.2401 -0.2415  0.3778
  226SOL    HW1 1376   4.367   0.696   3.764  0.6486 -0.9148  0.7631
  226SOL    HW2 1377   4.400   0.683   3.617 -0.4461 -0.2661  0.4540
  227SOL     OW 1378   3.378   1.463   2.675 -0.6483  0.3477 -0.6395
  227SOL    HW1 1379   3.407   1.373   2.667  3.5052  1.5348 -1.2533
  227SOL    HW2 1380   3.350   1.471   2.766  1.2469 -1.0580  0.1437
  228SOL     OW 1381   2.983   0.221   0.656 -0.7060  0.0107  0.3924
  228SOL    HW1 1382   3.030   0.298   0.625  0.9281 -0.9947  0.2490
  228SOL    HW2 1383   2.944   0.248   0.739 -0.4430  1.0732  0.1843
  229SOL     OW 1384   3.572   3.871   0.293 -0.2114  0.5875  0.3170
  229SOL    HW1 1385   3.497   3.831   0.249  0.7243  0.4883 -1.2752
  229SOL    HW2 1386   3.623   3.796   0.324  0.4973  0.5630 -0.8538
  230SOL     OW 1387   2.699   3.838   2.580  0.3920  0.3613  0.2554
  230SOL    HW1 1388   2.717   3.864   2.489  0.3751  0.7760  0.3740
  230SOL    HW2 1389   2.711   3.917   2.631 -0.4444  0.3291  0.5149
  231SOL     OW 1390   2.767   0.318   2.217 -0.2059 -0.4551  0.0327
  231SOL    HW1 1391   2.859   0.345   2.214 -0.1799 -0.4257  0.8421
  231SOL    HW2 1392   2.765   0.245   2.278 -0.3494 -2.0882 -1.8404
  232SOL     OW 1393   2.603   1.352   0.804  0.6736 -0.2695  0.3967
  232SOL    HW1 1394   2.550   1.378   0.729 -1.9121 -0.7943  1.9188
  232SOL    HW2 1395   2.639   1.435   0.838 -0.0697  0.2406 -0.0441
  233SOL     OW 1396   0.625   3.067   4.782 -0.0854 -0.4272 -0.4173
  233SOL    HW1 1397   0.683   3.143   4.788  2.5469 -2.3624  1.0329
  233SOL    HW2 1398   0.663   3.014   4.711 -0.0571 -1.7062  0.5187
  234SOL     OW 1399   2.675   4.839   2.513 -0.2965 -0.0010  0.4345
  234SOL    HW1 1400   2.723   4.920   2.533  0.5746 -0.0847 -1.1092
  234SOL    HW2 1401   2.731   4.769   2.544  0.8104 -0.1105 -1.6213
  235SOL     OW 1402   0.964   2.397   2.196 -0.2676 -0.0878 -0.1225
  235SOL    HW1 1403   0.936   2.476   2.150  0.1034  0.7823  1.1027
  235SOL    HW2 1404   1.051   2.418   2.229 -0.8970 -0.2920  1.8143
  236SOL     OW 1405   3.773   4.024   1.000 -0.3499 -0.0207  0.1663
  236SOL    HW1 1406   3.850   4.036   0.943 -0.4907 -0.1003 -0.0437
  236SOL    HW2 1407   3.776   4.099   1.060 -1.0436  0.9104 -0.9238
  237SOL     OW 1408   5.264   1.355   3.809 -0.6072 -0.1079  0.3506
  237SOL    HW1 1409   5.318   1.352   3.888 -1.0488  1.4273  0.7443
  237SOL    HW2 1410   5.208   1.278   3.816  0.4581 -0.8805  0.7065
  238SOL     OW 1411   1.552   4.455   2.147 -0.2675  0.6663  0.4383
  238SOL    HW1 1412   1.472   4.479   2.099  0.3010 -1.2647 -1.6240
  238SOL    HW2 1413   1.613   4.426   2.080  0.1279 -3.5580  2.2971
  239SOL     OW 1414   3.423   4.636   1.618  0.3998  0.6132 -0.4169
  239SOL    HW1 1415   3.399   4.575   1.688 -0.8282  0.9631 -0.5100
  239SOL    HW2 1416   3.471   4.582   1.555 -0.8029 -0.2992 -0.5797
  240SOL     OW 1417   0.956   1.999   4.859 -0.2856  0.1017 -0.1636
  240SOL    HW1 1418   0.983   1.973   4.947 -1.6871 -0.2955  0.1763
  240SOL    HW2 1419   1.038   2.005   4.809  0.6430  1.2830  1.3911
  241SOL     OW 1420   3.345   0.486   3.189 -0.0207  0.2092  0.0832
  241SOL    HW1 1421   3.333   0.522   3.276 -2.1959 -1.9036  0.7815
  241SOL    HW2 1422   3.285   0.535   3.133  0.0726  0.3894  0.1423
  242SOL     OW 1423   2.993   4.934   0.940  0.6933 -0.4514 -0.7816
  242SOL    HW1 1424   2.991   5.019   0.983  0.7794 -1.1427  0.6475
  242SOL    HW2 1425   2.990   4.954   0.847 -1.8023  1.0593 -0.4752
  243SOL     OW 1426   3.151   0.469   0.602 -0.0183 -0.2171 -0.0070
  243SOL    HW1 1427   3.199   0.522   0.540 -0.8519 -0.8245 -1.2168
  243SOL    HW2 1428   3.198   0.479   0.685  0.4321  1.5528 -0.4377
  244SOL     OW 1429   4.372   3.258   2.081 -0.1772  0.0645 -0.1766
  244SOL    HW1 1430   4.428   3.259   2.004 -0.6752 -0.5404 -0.5490
  244SOL    HW2 1431   4.338   3.169   2.086 -0.8555  0.3347  0.2249
  245SOL     OW 1432   1.647   4.288   1.712 -0.3946  0.4788 -0.3400
  245SOL    HW1 1433   1.694   4.256   1.635 -2.1659  1.1976 -1.7849
  245SOL    HW2 1434   1.608   4.209   1.750  1.6937 -0.1024  0.7743
  246SOL     OW 1435   3.344   2.510   0.543 -0.0856 -0.1600  0.1593
  246SOL    HW1 1436   3.294   2.448   0.491 -0.4857 -0.1814  0.5612
  246SOL    HW2 1437   3.290   2.526   0.621 -0.9968  2.3412 -0.8916
  247SOL     OW 1438   2.455   1.965   1.931 -0.2051 -0.1466  0.8728
  247SOL    HW1 1439   2.390   1.935   1.868  1.8845 -0.7389 -1.1273
  247SOL    HW2 1440   2.453   1.900   2.001 -0.0110 -1.5928 -0.4185
  248SOL     OW 1441   4.326   3.357   1.416  0.0334  0.6794  0.1710
  248SOL    HW1 1442   4.265   3.426   1.442 -3.2611 -2.5428  2.1005
  248SOL    HW2 1443   4.373   3.335   1.496 -1.7603 -1.6762  0.6897
  249SOL     OW 1444   3.337   2.042   0.228  0.0314 -0.1336  0.0494
  249SOL    HW1 1445   3.265   2.008   0.175  0.2977  0.4356 -0.6885
  249SOL    HW2 1446   3.373   2.115   0.177  0.5660  0.1574  0.8142
  250SOL     OW 1447   2.122   4.441   4.461  0.2931  0.1296  0.1233
  250SOL    HW1 1448   2.098   4.355   4.426 -0.7581  1.4065 -2.5718
  250SOL    HW2 1449   2.113   4.431   4.556  0.3784 -2.7474 -0.0711
  251SOL     OW 1450   0.975   0.832   2.846  0.1633  0.0235 -0.2691
  251SOL    HW1 1451   0.899   0.794   2.891  0.3775 -1.2058 -0.8996
  251SOL    HW2 1452   0.981   0.784   2.763  1.0504  0.7752 -0.6648
  252SOL     OW 1453   3.607   4.514   0.679  0.3120 -0.0364 -0.1477
  252SOL    HW1 1454   3.513   4.498   0.677  0.3094  0.0220 -0.6506
  252SOL    HW2 1455   3.637   4.475   0.762  0.2390 -2.2122 -1.0741
  253SOL     OW 1456   2.293   4.413   0.035 -0.1862 -0.3102  0.2886
  253SOL    HW1 1457   2.303   4.319   0.019 -0.8467 -0.1084 -1.5317
  253SOL    HW2 1458   2.319   4.455  -0.047 -1.7771  0.9697  0.3812
  254SOL     OW 1459   4.201   3.315   1.782 -0.2497 -0.0591  0.1415
  254SOL    HW1 1460   4.294   3.328   1.804 -0.2644  1.2540 -0.4312
  254SOL    HW2 1461   4.198   3.230   1.739  1.0224  0.6057 -1.3884
  255SOL     OW 1462   4.514   1.844   3.329 -0.5018 -0.7437  0.2930
  255SOL    HW1 1463   4.515   1.914   3.263  1.4148 -0.4103  0.6147
  255SOL    HW2 1464   4.565   1.773   3.289  0.0417 -0.8215  1.0977
  256SOL     OW 1465   3.344   4.185   3.283 -0.4625 -0.0569 -0.0869
  256SOL    HW1 1466   3.439   4.187   3.295  0.0107  0.9282 -3.1803
  256SOL    HW2 1467   3.309   4.234   3.358  1.5023  0.1487  0.7504
  257SOL     OW 1468   2.746   1.641   5.326  0.2341 -0.1135 -0.2078
  257SOL    HW1 1469   2.839   1.643   5.304  0.2314 -0.8897 -0.3133
  257SOL    HW2 1470   2.734   1.714   5.386  0.6387  0.8065 -1.2284
  258SOL     OW 1471   3.447   3.162   0.779 -0.0495  0.2059 -0.1538
  258SOL    HW1 1472   3.380   3.226   0.802  0.7597  0.6220  1.1827
  258SOL    HW2 1473   3.437   3.149   0.684 -2.3637 -0.1984  0.1045
  259SOL     OW 1474   1.062   4.792   2.081  0.5604  0.2398 -0.2624
  259SOL    HW1 1475   1.104   4.847   2.015 -1.7649  0.9217 -1.2663
  259SOL    HW2 1476   1.093   4.828   2.164 -0.7844  3.0940 -0.8766
  260SOL     OW 1477   0.991   0.452   4.553  0.6191  0.4414  0.3564
  260SOL    HW1 1478   1.083   0.433   4.535  0.4764 -0.3895  0.4534
  260SOL    HW2 1479   0.960   0.377   4.604 -0.4772  0.0142 -0.8710
  261SOL     OW 1480   1.703   4.457   3.954 -0.2689  0.3566 -0.0210
  261SOL    HW1 1481   1.770   4.428   3.892 -1.5493 -1.3484 -0.6834
  261SOL    HW2 1482   1.740   4.437   4.040  1.5300  2.7636 -0.1133
  262SOL     OW 1483   5.244   2.865   3.159  0.6144 -0.2813  0.1107
  262SOL    HW1 1484   5.194   2.854   3.078 -0.6570 -0.3860  0.8774
  262SOL    HW2 1485   5.269   2.777   3.184  1.5017 -0.2030 -0.4417
  263SOL     OW 1486   3.937   3.318   4.366  0.1351 -0.1055 -0.3544
  263SOL    HW1 1487   3.848   3.348   4.348 -0.4463 -1.1178  0.6747
  263SOL    HW2 1488   3.968   3.373   4.438  0.7886  0.9855 -1.4299
  264SOL     OW 1489   3.575   5.288   5.137 -0.1695  0.8715 -0.1403
  264SOL    HW1 1490   3.658   5.266   5.181 -1.8072 -0.2186  2.6631
  264SOL    HW2 1491   3.551   5.209   5.089  0.0034  0.9241 -0.3177
  265SOL     OW 1492   4.282   1.238   4.844 -0.1791  0.4923 -0.1785
  265SOL    HW1 1493   4.354   1.285   4.886 -0.6985 -0.6059  2.1142
  265SOL    HW2 1494   4.324   1.190   4.772  1.3032  0.3068  0.7546
  266SOL     OW 1495   1.290   5.216   3.191  0.0613  0.0291  0.0042
  266SOL    HW1 1496   1.208   5.265   3.192 -0.1371 -0.3042  0.0647
  266SOL    HW2 1497   1.352   5.274   3.147 -0.0491  0.5371  0.5004
  267SOL     OW 1498   4.574   2.556   5.168 -0.1157  0.0170 -0.0104
  267SOL    HW1 1499   4.661   2.559   5.207 -0.0470 -1.2726 -0.0233
  267SOL    HW2 1500   4.585   2.504   5.088 -1.0687 -1.0260  0.5001
  268SOL     OW 1501   0.805   4.221   0.686 -0.3222  0.7091  0.0582
  268SOL    HW1 1502   0.725   4.199   0.640 -1.6247  2.7974  1.1441
  268SOL    HW2 1503   0.850   4.283   0.628  0.4931 -0.3942 -0.5121
  269SOL     OW 1504   3.459   0.495   1.523 -0.2163  0.3855  0.0643
  269SOL    HW1 1505   3.546   0.506   1.482  0.3598  0.4683  1.2658
  269SOL    HW2 1506   3.448   0.400   1.530 -2.0916  0.1175 -3.8481
  270SOL     OW 1507   1.027   2.786   3.110 -0.0961 -0.0593  0.4772
  270SOL    HW1 1508   1.015   2.877   3.083  1.1277  0.7760  2.4786
  270SOL    HW2 1509   1.112   2.761   3.073  0.0592 -0.0210  0.8048
  271SOL     OW 1510   4.121   3.391   5.366 -0.1676  0.0159 -0.0009
  271SOL    HW1 1511   4.187   3.461   5.358 -0.1434 -0.0207 -0.1276
  271SOL    HW2 1512   4.069   3.398   5.286 -0.3194  0.0449  0.0995
  272SOL     OW 1513   2.132   3.276   4.877 -0.2394  0.0890 -0.5416
  272SOL    HW1 1514   2.058   3.235   4.920 -0.3321 -0.8371 -1.5428
  272SOL    HW2 1515   2.114   3.267   4.783  0.1537  1.6628 -0.8022
  273SOL     OW 1516   3.265   1.403   2.385 -0.2551 -0.3732 -0.1205
  273SOL    HW1 1517   3.291   1.360   2.467  0.8899  2.0557  0.8828
  273SOL    HW2 1518   3.173   1.425   2.399  0.4003  1.7433  1.4325
  274SOL     OW 1519   2.775   2.971   4.753 -0.7438  0.1033 -0.1719
  274SOL    HW1 1520   2.769   2.876   4.751 -0.2153  0.0191 -3.4471
  274SOL    HW2 1521   2.867   2.988   4.776 -0.1079 -0.3409 -2.1758
  275SOL     OW 1522   4.323   0.381   5.103  0.5671  0.3361 -0.1811
  275SOL    HW1 1523   4.279   0.442   5.163  1.9914 -0.1783  1.4709
  275SOL    HW2 1524   4.327   0.428   5.020 -0.9270  1.3239  0.2593
  276SOL     OW 1525   1.088   4.852   3.003  0.6529 -0.5006  0.5203
  276SOL    HW1 1526   1.088   4.835   3.097 -0.2541  0.0225  0.6239
  276SOL    HW2 1527   1.014   4.800   2.969 -0.3799  0.9688  0.4332
  277SOL     OW 1528   4.361   3.570   2.763  0.0176 -0.3970  0.4262
  277SOL    HW1 1529   4.397   3.482   2.768  0.1711 -0.4378 -0.9663
  277SOL    HW2 1530   4.334   3.580   2.672 -0.2061  0.9165  0.6084
  278SOL     OW 1531   4.853   4.565   2.074 -1.0209  0.0541  0.1419
  278SOL    HW1 1532   4.896   4.496   2.025 -1.8938 -0.7310  0.4584
  278SOL    HW2 1533   4.837   4.635   2.010 -0.2545 -0.0843 -0.2029
  279SOL     OW 1534   1.850   4.739   4.120 -0.2419  0.3844  0.4802
  279SOL    HW1 1535   1.942   4.712   4.129 -0.2052  1.0527  2.7966
  279SOL    HW2 1536   1.854   4.835   4.123 -0.8503  0.5545 -1.9964
  280SOL     OW 1537   1.371   4.602   1.990 -0.6250 -0.3752 -0.0509
  280SOL    HW1 1538   1.303   4.589   1.924 -1.7964  2.2342  0.5214
  280SOL    HW2 1539   1.453   4.593   1.941 -1.4313 -0.4156 -1.4610
  281SOL     OW 1540   1.076   1.105   2.261  0.1874  0.5663 -0.3992
  281SOL    HW1 1541   1.138   1.134   2.195  0.6972  2.6689  0.9088
  281SOL    HW2 1542   1.106   1.018   2.286  2.6531  1.5074  0.1830
  282SOL     OW 1543   2.761   5.071   2.601  0.1382  0.3941  0.4315
  282SOL    HW1 1544   2.695   5.064   2.669 -0.7744  0.0599 -0.4595
  282SOL    HW2 1545   2.844   5.060   2.646 -0.2951  2.3522  1.8227
  283SOL     OW 1546   2.523   0.798   2.324  0.2320  0.0881  0.1430
  283SOL    HW1 1547   2.540   0.890   2.303  1.5506 -0.4003 -1.0691
  283SOL    HW2 1548   2.523   0.754   2.239 -0.7214 -1.0069  0.6769
  284SOL     OW 1549   0.745   1.661   3.427  0.4950  0.1872  0.0361
  284SOL    HW1 1550   0.760   1.732   3.364  1.0943  1.1386  1.1977
  284SOL    HW2 1551   0.783   1.694   3.509  1.2234 -1.6825  0.4978
  285SOL     OW 1552   2.703   3.042   2.582 -0.0808  0.6753  0.1788
  285SOL    HW1 1553   2.695   3.091   2.664  2.5595 -0.6542  1.3644
  285SOL    HW2 1554   2.797   3.032   2.569 -0.4504 -2.3279 -1.0112
  286SOL     OW 1555   5.211   3.954   2.259 -0.2234  0.1362 -0.0322
  286SOL    HW1 1556   5.282   3.912   2.308  0.3358  1.8351  0.6920
  286SOL    HW2 1557   5.154   3.882   2.232  2.1261 -1.3598 -1.2533
  287SOL     OW 1558   4.073   3.766   4.518  0.1307  0.7196 -0.0600
  287SOL    HW1 1559   4.002   3.809   4.470  0.4022  0.6449 -0.5356
  287SOL    HW2 1560   4.152   3.787   4.468  0.3247  0.0401 -0.0478
  288SOL     OW 1561   0.323   2.170   3.137 -0.3815 -0.2506  0.5582
  288SOL    HW1 1562   0.343   2.146   3.228 -0.0332  1.4018  0.9516
  288SOL    HW2 1563   0.245   2.225   3.143  0.1098  0.5292 -0.0527
  289SOL     OW 1564   4.905   4.922   3.296  0.4767 -0.3613 -0.4486
  289SOL    HW1 1565   4.964   4.928   3.371 -0.4562 -1.0640  0.3828
  289SOL    HW2 1566   4.960   4.936   3.219  1.7851 -1.3711  0.2772
  290SOL     OW 1567   1.071   1.686   0.306  0.1898 -0.0310 -0.1965
  290SOL    HW1 1568   1.060   1.668   0.399  1.2281  0.9186  0.1337
  290SOL    HW2 1569   1.010   1.758   0.288  0.8908  0.6458  0.0633
  291SOL     OW 1570   2.244   1.670   5.009 -0.1649  0.2927  0.1413
  291SOL    HW1 1571   2.338   1.662   5.028 -0.1068 -0.4567 -0.4067
  291SOL    HW2 1572   2.241   1.723   4.929 -0.2070  0.3649  0.1916
  292SOL     OW 1573   2.794   5.395   1.541  0.0939  0.2377  0.1038
  292SOL    HW1 1574   2.756   5.321   1.493 -3.8329  0.2014  2.7932
  292SOL    HW2 1575   2.722   5.457   1.552  1.9896  2.3306  1.9301
  293SOL     OW 1576   4.857   5.023   0.269  0.1827  0.2191  0.6145
  293SOL    HW1 1577   4.774   5.009   0.222 -0.4359  1.4549  1.2864
  293SOL    HW2 1578   4.912   5.070   0.206  1.6646 -3.4283 -1.0454
  294SOL     OW 1579   4.330   1.295   0.622 -0.2755 -0.4095 -0.3400
  294SOL    HW1 1580   4.285   1.319   0.703 -0.7763 -0.1131 -0.6943
  294SOL    HW2 1581   4.418   1.269   0.649  0.0200  1.0239  0.1635
  295SOL     OW 1582   0.402   2.107   0.408  0.3900  0.1681  0.0712
  295SOL    HW1 1583   0.412   2.134   0.316 -0.1478 -1.8313 -0.6299
  295SOL    HW2 1584   0.490   2.116   0.445  0.7826  0.2516 -0.8463
  296SOL     OW 1585   0.720   4.226   3.928 -0.4616  0.3649 -0.3085
  296SOL    HW1 1586   0.743   4.136   3.949  0.5868  0.7056  0.0909
  296SOL    HW2 1587   0.643   4.219   3.872 -0.1126 -0.7985 -0.6668
  297SOL     OW 1588   5.289   2.865   2.224 -0.1526 -0.2282 -0.0352
  297SOL    HW1 1589   5.301   2.921   2.148 -1.7268  0.2077  0.0105
  297SOL    HW2 1590   5.207   2.895   2.264  0.7401 -0.2738  1.9784
  298SOL     OW 1591   3.377   3.628   0.795  0.4792  0.3811  0.1955
  298SOL    HW1 1592   3.451   3.687   0.778  0.2561  0.4656 -0.5198
  298SOL    HW2 1593   3.390   3.556   0.733  1.0438 -0.6115  1.4099
  299SOL     OW 1594   2.515   4.842   1.980 -0.4153 -0.2762  0.2030
  299SOL    HW1 1595   2.494   4.897   2.055  0.3437 -1.5431  1.3890
  299SOL    HW2 1596   2.591   4.884   1.940 -0.6785  0.2729  0.2703
  300SOL     OW 1597   4.241   2.108   5.310 -0.4524  0.0925  0.4128
  300SOL    HW1 1598   4.312   2.172   5.317 -2.6817  3.0744 -1.5995
  300SOL    HW2 1599   4.182   2.129   5.382 -0.3778 -0.9650  0.8073
  301SOL     OW 1600   2.045   0.936   1.753 -0.7651  0.6579  0.3483
  301SOL    HW1 1601   1.951   0.938   1.774 -0.4682 -1.9774  2.4132
  301SOL    HW2 1602   2.088   0.915   1.835  1.4558 -0.4191 -0.9826
  302SOL     OW 1603   3.848   1.625   0.451 -0.9884  0.2040  0.3111
  302SOL    HW1 1604   3.797   1.618   0.370 -0.3083  0.5051 -0.1485
  302SOL    HW2 1605   3.861   1.719   0.463 -0.5423  0.1270  0.4304
  303SOL     OW 1606   3.155   4.384   2.043  0.6037 -0.0192 -0.9209
  303SOL    HW1 1607   3.201   4.446   2.100  2.9881 -1.2899 -1.3243
  303SOL    HW2 1608   3.187   4.298   2.071 -0.2657 -0.8582 -2.3775
  304SOL     OW 1609   3.892   4.492   1.260  0.0963 -0.2787 -0.4456
  304SOL    HW1 1610   3.893   4.482   1.355 -0.6425  0.4580 -0.3504
  304SOL    HW2 1611   3.984   4.501   1.236  0.3933 -1.6560  0.0483
  305SOL     OW 1612   2.934   4.213   3.269 -0.9900 -0.9332 -0.0343
  305SOL    HW1 1613   3.025   4.190   3.254 -1.0499 -0.9368 -0.4002
  305SOL    HW2 1614   2.914   4.176   3.355  0.7933  3.2355  2.4888
  306SOL     OW 1615   4.363   0.974   3.114  0.1871 -0.3029 -0.2539
  306SOL    HW1 1616   4.342   0.892   3.070  0.0587 -1.3673  1.6930
  306SOL    HW2 1617   4.428   1.015   3.057  0.3167 -1.7798 -1.2293
  307SOL     OW 1618   1.465   5.022   3.566  0.1281  0.6020  0.0013
  307SOL    HW1 1619   1.512   5.050   3.645  1.0752 -0.2980 -0.2077
  307SOL    HW2 1620   1.533   5.020   3.498 -0.0535 -1.2791 -0.1875
  308SOL     OW 1621   3.002   2.654   3.442  0.1422 -0.0728  0.7163
  308SOL    HW1 1622   3.096   2.647   3.431 -0.1152 -0.9915 -1.5762
  308SOL    HW2 1623   2.971   2.563   3.440 -0.7118  0.1059  2.9254
  309SOL     OW 1624   2.806   3.392   1.644  0.0277  0.3565  0.0491
  309SOL    HW1 1625   2.770   3.447   1.575 -1.5299  0.0652  0.5835
  309SOL    HW2 1626   2.855   3.324   1.598  0.9430  1.4672 -0.6543
  310SOL     OW 1627   1.824   2.861   1.175  0.1810 -0.5387  0.2917
  310SOL    HW1 1628   1.775   2.922   1.120 -0.0500  0.1088  1.1883
  310SOL    HW2 1629   1.863   2.916   1.243  3.6691 -0.7591 -1.3439
  311SOL     OW 1630   4.721   4.389   2.846 -0.0659 -0.5104 -0.0459
  311SOL    HW1 1631   4.675   4.387   2.762 -1.2364 -0.7233  0.5705
  311SOL    HW2 1632   4.796   4.331   2.834  0.6975  0.7199 -1.4347
  312SOL     OW 1633   0.596   0.867   2.849 -0.2189  0.4269 -0.6172
  312SOL    HW1 1634   0.537   0.937   2.876 -0.7356 -0.5460  0.9703
  312SOL    HW2 1635   0.625   0.892   2.761 -2.0351  1.5505 -0.9612
  313SOL     OW 1636   0.788   1.325   0.225  0.5882  0.0561  0.0489
  313SOL    HW1 1637   0.751   1.241   0.250 -1.1834  0.4003 -1.2172
  313SOL    HW2 1638   0.842   1.351   0.299 -1.3546 -0.7194  1.8052
  314SOL     OW 1639   4.940   1.905   0.818 -0.2517  0.0371  0.3015
  314SOL    HW1 1640   5.000   1.969   0.857  1.0514  0.0245 -1.5203
  314SOL    HW2 1641   4.974   1.820   0.847  1.4529 -0.0384 -1.6530
  315SOL     OW 1642   1.025   4.451   0.970  0.1647  0.5776  0.0769
  315SOL    HW1 1643   0.998   4.515   1.035 -2.0246 -0.4350  0.2625
  315SOL    HW2 1644   0.973   4.472   0.892  0.2501 -0.2679 -0.2211
  316SOL     OW 1645   1.580   2.067   1.746  1.4527  0.1824  0.0429
  316SOL    HW1 1646   1.543   2.039   1.663  2.9049 -0.0341 -0.5660
  316SOL    HW2 1647   1.564   1.994   1.806 -0.7553  0.8569  0.3678
  317SOL     OW 1648   2.196   2.250   0.994 -1.2576 -0.0238 -0.1868
  317SOL    HW1 1649   2.252   2.290   0.928  0.4667  0.7562  1.6453
  317SOL    HW2 1650   2.173   2.322   1.053  1.8262 -1.4393  3.1467
  318SOL     OW 1651   2.446   4.302   0.756 -0.7471  0.1612  0.2793
  318SOL    HW1 1652   2.392   4.247   0.698  0.1692 -0.1892 -0.2616
  318SOL    HW2 1653   2.415   4.281   0.844 -0.7395 -0.8817  0.0497
  319SOL     OW 1654   0.863   4.487   2.287 -0.6702  0.0852 -0.7061
  319SOL    HW1 1655   0.939   4.486   2.345 -1.9605 -0.9251  1.0461
  319SOL    HW2 1656   0.845   4.581   2.274 -0.8610  0.3443  1.2411
  320SOL     OW 1657   1.538   1.720   2.300  0.1955  0.6842  0.1537
  320SOL    HW1 1658   1.553   1.646   2.242 -0.5513 -0.3182  1.1925
  320SOL    HW2 1659   1.482   1.780   2.250 -0.2631 -0.0566 -0.2299
  321SOL     OW 1660   0.577   0.702   1.461 -0.1456 -0.1002 -0.5998
  321SOL    HW1 1661   0.602   0.754   1.385  0.3680 -1.7010 -1.5640
  321SOL    HW2 1662   0.482   0.714   1.468 -0.1936  0.0909 -1.4733
  322SOL     OW 1663   2.435   1.379   2.919  0.1213  0.5836 -0.3945
  322SOL    HW1 1664   2.489   1.435   2.976 -1.1324  1.1783  0.2574
  322SOL    HW2 1665   2.399   1.439   2.854 -0.0797  0.2674 -0.5766
  323SOL     OW 1666   1.393   2.493   5.365  0.1699 -0.8828  0.2685
  323SOL    HW1 1667   1.325   2.532   5.421  1.2968 -0.6912  1.5483
  323SOL    HW2 1668   1.388   2.543   5.284 -0.0478  0.3060  0.9911
  324SOL     OW 1669   4.725   5.305   3.394  0.1709  0.0362 -0.4153
  324SOL    HW1 1670   4.772   5.337   3.471 -0.2747 -0.7124  0.1706
  324SOL    HW2 1671   4.766   5.221   3.374 -0.6491 -0.4461 -0.1271
  325SOL     OW 1672   3.901   0.782   1.451  0.4543  0.5694 -0.2179
  325SOL    HW1 1673   3.985   0.751   1.484  0.9790  2.2383  0.1164
  325SOL    HW2 1674   3.923   0.842   1.380 -0.5073  0.1844 -0.8584
  326SOL     OW 1675   2.855   4.433   0.884 -0.1215  0.0806 -0.7833
  326SOL    HW1 1676   2.779   4.467   0.836 -1.3436 -1.1486  0.2147
  326SOL    HW2 1677   2.860   4.487   0.963  0.0848  0.1830 -0.8641
  327SOL     OW 1678   4.276   0.416   3.925 -0.1346 -0.1818  0.0572
  327SOL    HW1 1679   4.372   0.417   3.933 -0.2222  1.5168  1.8378
  327SOL    HW2 1680   4.254   0.506   3.902 -1.4555  0.6109  3.7301
  328SOL     OW 1681   2.064   0.849   2.966 -0.0326  0.3407  0.1300
  328SOL    HW1 1682   1.974   0.820   2.958 -0.5357  1.9949 -0.7347
  328SOL    HW2 1683   2.112   0.799   2.900 -0.5240  0.2546 -0.1597
  329SOL     OW 1684   2.722   3.982   2.330  0.2466 -0.0587 -0.1154
  329SOL    HW1 1685   2.646   4.039   2.341  0.5457  0.3252 -0.0001
  329SOL    HW2 1686   2.785   4.035   2.280  0.4616 -0.3491 -0.1560
  330SOL     OW 1687   1.168   1.676   2.317  0.2826 -0.6704 -0.4949
  330SOL    HW1 1688   1.179   1.762   2.358 -0.3462 -0.9940  0.3860
  330SOL    HW2 1689   1.091   1.686   2.261  0.2512 -0.6396 -0.4466
  331SOL     OW 1690   3.023   4.621   3.791 -0.4862  0.4566 -0.1903
  331SOL    HW1 1691   2.963   4.691   3.764 -1.8126 -0.0942  1.1873
  331SOL    HW2 1692   3.072   4.659   3.864  0.9210  0.9098 -1.3198
  332SOL     OW 1693   2.990   3.831   0.108  0.0509  0.0874  0.7280
  332SOL    HW1 1694   2.947   3.896   0.052  0.7443 -0.5519 -0.5828
  332SOL    HW2 1695   2.925   3.762   0.120  0.4882 -0.6538 -0.8610
  333SOL     OW 1696   3.609   0.269   0.310  0.1547  0.0338  0.4099
  333SOL    HW1 1697   3.566   0.252   0.394 -0.1111  0.6887  0.4106
  333SOL    HW2 1698   3.687   0.214   0.312 -0.0063 -0.1852  0.9606
  334SOL     OW 1699   3.539   1.772   1.350  0.2201 -0.4316 -0.7767
  334SOL    HW1 1700   3.484   1.823   1.290 -2.1712  2.2098  3.1933
  334SOL    HW2 1701   3.626   1.810   1.342 -0.0394 -0.1312 -2.4657
  335SOL     OW 1702   5.186   3.151   0.002  0.4010 -0.1380 -0.0744
  335SOL    HW1 1703   5.170   3.212  -0.070  0.3790 -1.2317 -1.0320
  335SOL    HW2 1704   5.173   3.203   0.081  0.8496  1.2079 -0.8522
  336SOL     OW 1705   1.312   2.404   0.379  0.2199  0.6467  0.2627
  336SOL    HW1 1706   1.364   2.324   0.384  0.7168  0.9634  0.2614
  336SOL    HW2 1707   1.375   2.474   0.393  0.2781  1.1839 -2.1420
  337SOL     OW 1708   2.025   2.456   1.073 -0.5398 -0.0226  0.3959
  337SOL    HW1 1709   1.939   2.446   1.030 -0.8227  1.3881  0.5773
  337SOL    HW2 1710   2.013   2.418   1.160 -1.1998  0.7455  0.6547
  338SOL     OW 1711   2.776   4.176   2.120  0.5642 -0.1299  0.1828
  338SOL    HW1 1712   2.738   4.255   2.084  0.3078 -0.1226  0.4729
  338SOL    HW2 1713   2.870   4.184   2.101  0.2819 -0.8054 -1.8077
  339SOL     OW 1714   5.270   2.069   3.700 -0.8606  0.4361  0.0393
  339SOL    HW1 1715   5.336   2.058   3.767  1.3881  0.5857 -2.0280
  339SOL    HW2 1716   5.193   2.102   3.747  1.2352  2.5307  2.2304
  340SOL     OW 1717   3.002   3.779   1.493  0.0964 -0.5684  0.1972
  340SOL    HW1 1718   3.054   3.758   1.570 -1.4071 -1.2516  1.0656
  340SOL    HW2 1719   2.937   3.843   1.524  0.1757  0.0147 -0.7765
  341SOL     OW 1720   0.470   0.105   4.883  1.0115  0.0297  0.0117
  341SOL    HW1 1721   0.527   0.088   4.958  0.4305  0.3630  0.5270
  341SOL    HW2 1722   0.530   0.103   4.808  1.6301 -0.0961  0.4974
  342SOL     OW 1723   2.078   3.963   3.437  0.0118 -0.1065  0.7565
  342SOL    HW1 1724   2.005   3.902   3.423  1.4548 -1.6202 -0.7916
  342SOL    HW2 1725   2.077   4.019   3.359  0.3265  0.0447  0.8610
  343SOL     OW 1726   1.794   2.475   5.270 -0.2262 -0.1521  0.1514
  343SOL    HW1 1727   1.810   2.419   5.194 -0.0145 -1.1267  0.8989
  343SOL    HW2 1728   1.730   2.427   5.322 -0.3200  0.4770  0.6362
  344SOL     OW 1729   0.984   1.362   0.429  0.1668  0.3266 -0.3796
  344SOL    HW1 1730   1.039   1.323   0.497  0.0725  1.2727  0.2604
  344SOL    HW2 1731   0.961   1.449   0.464  0.9407  1.2419 -2.0593
  345SOL     OW 1732   2.123   1.450   0.345 -0.6053  0.2535 -0.0582
  345SOL    HW1 1733   2.098   1.540   0.369 -0.2440  0.2364  0.4078
  345SOL    HW2 1734   2.102   1.398   0.423 -0.0683  0.0711 -0.0316
  346SOL     OW 1735   5.262   3.000   3.898  0.2390  0.2625 -0.3068
  346SOL    HW1 1736   5.349   3.021   3.863  0.0373  0.8487 -0.4670
  346SOL    HW2 1737   5.223   2.944   3.831  0.8376 -0.7882  0.1924
  347SOL     OW 1738   1.624   4.509   3.225 -0.3201 -0.1609 -0.6119
  347SOL    HW1 1739   1.546   4.478   3.271 -2.0897  1.7944 -2.0929
  347SOL    HW2 1740   1.627   4.457   3.145  1.5989 -2.1487  0.6176
  348SOL     OW 1741   2.241   1.339   3.676 -0.1555 -0.2863 -0.2238
  348SOL    HW1 1742   2.319   1.328   3.731 -0.1722  1.6700  0.2583
  348SOL    HW2 1743   2.188   1.403   3.724 -0.8565  0.3518 -1.8046
  349SOL     OW 1744   0.945   1.530   1.739  0.6252  0.3152 -0.1312
  349SOL    HW1 1745   0.973   1.605   1.791  1.0687  0.2912 -0.3344
  349SOL    HW2 1746   0.878   1.488   1.793  0.4071  0.8261  0.0018
  350SOL     OW 1747   2.731   2.303   4.575 -0.1068 -0.1923 -0.6073
  350SOL    HW1 1748   2.688   2.265   4.652  2.0894  0.4050  0.9742
  350SOL    HW2 1749   2.804   2.353   4.609  1.3969 -0.4811 -3.1406
  351SOL     OW 1750   4.224   5.022   2.975 -0.1090  0.3582  0.1958
  351SOL    HW1 1751   4.186   5.108   2.991 -0.8070 -0.0940  1.0923
  351SOL    HW2 1752   4.219   5.011   2.880  1.2163  1.8323 -0.0800
  352SOL     OW 1753   1.819   1.180   3.080  0.4994 -0.2616 -0.4038
  352SOL    HW1 1754   1.725   1.161   3.082  0.1476  1.3305  1.5547
  352SOL    HW2 1755   1.850   1.137   3.000 -1.7806 -1.2438 -0.8614
  353SOL     OW 1756   1.523   4.458   0.908  0.0287  0.9912 -0.3740
  353SOL    HW1 1757   1.442   4.415   0.935  0.3396  0.1665 -0.7151
  353SOL    HW2 1758   1.576   4.388   0.869  1.1714  1.3928  0.4109
  354SOL     OW 1759   4.875   2.327   1.373  0.3192 -0.1566 -0.0704
  354SOL    HW1 1760   4.833   2.411   1.355  0.2249  0.0110  0.8734
  354SOL    HW2 1761   4.952   2.326   1.316  1.4917  1.4985  1.3814
  355SOL     OW 1762   4.895   1.545   4.070 -0.2730  0.0017  0.1039
  355SOL    HW1 1763   4.879   1.540   3.975 -1.6611 -1.8139  0.3644
  355SOL    HW2 1764   4.954   1.472   4.088  0.4026  0.6566  0.5756
  356SOL     OW 1765   3.723   0.669   2.924  0.0063 -0.4208 -0.0127
  356SOL    HW1 1766   3.736   0.764   2.929 -2.4992  0.0997 -1.4157
  356SOL    HW2 1767   3.629   0.659   2.908  0.0484 -3.2035  0.9718
  357SOL     OW 1768   5.349   1.009   2.113  0.2115 -0.5374  0.6723
  357SOL    HW1 1769   5.337   0.915   2.099  1.2081 -0.7573  1.2043
  357SOL    HW2 1770   5.378   1.043   2.028 -0.2621 -0.6823  0.4489
  358SOL     OW 1771   2.250   5.102   2.751  0.6155  0.1532  0.5038
  358SOL    HW1 1772   2.220   5.012   2.738  0.6117 -0.0454  1.7343
  358SOL    HW2 1773   2.249   5.141   2.663 -1.4442 -0.4002  0.2120
  359SOL     OW 1774   4.486   5.372   3.239 -0.1553 -0.0623  0.0772
  359SOL    HW1 1775   4.576   5.342   3.255  0.5239  2.0199  0.5547
  359SOL    HW2 1776   4.470   5.435   3.309 -2.3881 -1.0802  0.5774
  360SOL     OW 1777   0.769   1.066   0.414  0.0923 -0.1479  0.3687
  360SOL    HW1 1778   0.753   0.985   0.462 -0.7481 -0.6371 -0.7055
  360SOL    HW2 1779   0.864   1.065   0.398  0.1830 -0.6094  0.8934
  361SOL     OW 1780   1.352   4.492   3.020 -0.5655  0.5336 -0.5275
  361SOL    HW1 1781   1.313   4.404   3.017  0.0705  0.2634 -1.5511
  361SOL    HW2 1782   1.444   4.477   2.995 -0.5795  1.5586 -1.2239
  362SOL     OW 1783   2.450   1.116   2.999 -0.2271 -0.2566  0.1364
  362SOL    HW1 1784   2.451   1.212   2.991  0.4756 -0.2780 -0.1386
  362SOL    HW2 1785   2.541   1.090   2.985 -0.0195 -0.8185  2.2325
  363SOL     OW 1786   4.435   1.185   2.293 -0.0094  0.4170 -0.1391
  363SOL    HW1 1787   4.341   1.198   2.279 -0.1663  0.5667  0.9991
  363SOL    HW2 1788   4.472   1.273   2.290  0.0290  0.4012 -0.1207
  364SOL     OW 1789   4.277   3.883   3.780 -0.3825  0.5798  0.0833
  364SOL    HW1 1790   4.209   3.911   3.840 -0.1627 -1.5457  1.4278
  364SOL    HW2 1791   4.244   3.907   3.693 -1.8356  1.5043  0.8517
  365SOL     OW 1792   2.240   4.471   4.008 -0.1465 -0.4938 -0.3124
  365SOL    HW1 1793   2.173   4.507   4.066 -1.0892  0.2617 -1.8084
  365SOL    HW2 1794   2.262   4.543   3.949  0.5708 -1.3052 -1.0642
  366SOL     OW 1795   4.435   3.798   1.430 -0.1145  0.2334  0.3905
  366SOL    HW1 1796   4.393   3.752   1.357  0.6049  0.3702 -0.1169
  366SOL    HW2 1797   4.377   3.872   1.449  0.3182  0.9139 -0.8691
  367SOL     OW 1798   3.748   4.268   0.096  0.7331 -0.0518  0.1071
  367SOL    HW1 1799   3.767   4.192   0.152 -0.8769  0.8335  1.9741
  367SOL    HW2 1800   3.802   4.338   0.133  0.2683  0.3352  0.0614
  368SOL     OW 1801   2.678   3.086   3.975  0.0507  0.4628  0.1525
  368SOL    HW1 1802   2.629   3.139   3.912 -0.0491  0.9349  0.6260
  368SOL    HW2 1803   2.766   3.078   3.938 -0.2554 -0.0328 -0.4942
  369SOL     OW 1804   0.900   5.179   3.459 -0.3954  0.6037 -0.6368
  369SOL    HW1 1805   0.949   5.127   3.396 -2.4379  0.0239 -1.8361
  369SOL    HW2 1806   0.808   5.156   3.444 -1.2107  2.9228  0.3001
  370SOL     OW 1807   5.322   0.870   1.841 -0.8781 -0.3475 -0.4290
  370SOL    HW1 1808   5.338   0.777   1.857 -0.4592 -0.1826  0.1220
  370SOL    HW2 1809   5.409   0.907   1.826 -0.9122  0.1967  0.6521
  371SOL     OW 1810   0.097   3.742   0.930 -0.4078 -0.2860  0.5250
  371SOL    HW1 1811   0.163   3.767   0.866 -1.9145  0.2817 -0.8872
  371SOL    HW2 1812   0.128   3.778   1.012 -0.0546  1.9637 -0.5265
  372SOL     OW 1813   2.394   0.946   2.110 -0.1280 -0.3853 -0.4437
  372SOL    HW1 1814   2.374   1.028   2.156  0.7962 -1.2664  1.6408
  372SOL    HW2 1815   2.477   0.962   2.066 -1.0793  0.5067 -2.0014
  373SOL     OW 1816   0.348   0.278   4.472  0.0620 -0.1662  0.0358
  373SOL    HW1 1817   0.379   0.316   4.390  2.9402 -3.6904 -0.7225
  373SOL    HW2 1818   0.401   0.321   4.540  0.8139 -0.3700 -0.4154
  374SOL     OW 1819   3.465   3.905   3.938  0.5749  0.2210  0.4396
  374SOL    HW1 1820   3.548   3.857   3.929  0.3225 -0.2549  0.5929
  374SOL    HW2 1821   3.474   3.954   4.019  0.2430 -0.7968  1.1193
  375SOL     OW 1822   4.374   0.092   1.411  0.2613  0.1987  0.4476
  375SOL    HW1 1823   4.441   0.093   1.342  1.6667 -0.6859  1.7459
  375SOL    HW2 1824   4.361  -0.001   1.430  0.0620  0.4350  1.5247
  376SOL     OW 1825   5.368   3.999   0.656  0.2736 -0.1574  0.7832
  376SOL    HW1 1826   5.410   3.914   0.667  0.7325  0.0774  0.8846
  376SOL    HW2 1827   5.351   4.029   0.745  0.2378 -0.0848  0.7523
  377SOL     OW 1828   0.463   0.480   4.946 -0.0905 -0.2252 -0.3656
  377SOL    HW1 1829   0.550   0.444   4.963  1.1085  2.0671 -1.2130
  377SOL    HW2 1830   0.462   0.501   4.853 -0.9347  1.1928 -0.0849
  378SOL     OW 1831   1.895   3.392   0.198  0.0321  0.1330 -0.9465
  378SOL    HW1 1832   1.814   3.378   0.247  1.5033 -0.3942  1.5267
  378SOL    HW2 1833   1.893   3.485   0.173 -1.3439  0.1000 -1.0222
  379SOL     OW 1834   4.550   0.486   3.901  0.7031 -0.0535 -0.6905
  379SOL    HW1 1835   4.599   0.562   3.870  2.8255 -0.5827  1.1544
  379SOL    HW2 1836   4.547   0.427   3.826  2.7874  0.0697 -0.9107
  380SOL     OW 1837   4.952   4.145   1.385  0.0090  0.0573  0.2394
  380SOL    HW1 1838   5.037   4.173   1.418  0.5235 -0.0641 -0.9213
  380SOL    HW2 1839   4.925   4.074   1.444  0.1597  0.8673  1.3013
  381SOL     OW 1840   3.072   5.226   2.565 -0.4706  1.0804 -0.2441
  381SOL    HW1 1841   3.093   5.291   2.632  1.8188  1.9416 -1.6696
  381SOL    HW2 1842   3.083   5.141   2.609 -1.9708  1.5812  1.2149
  382SOL     OW 1843   0.411   4.901   5.154  0.0424 -0.2954  0.1766
  382SOL    HW1 1844   0.449   4.964   5.215 -1.0498  1.0784 -0.4886
  382SOL    HW2 1845   0.431   4.937   5.067 -1.8592 -0.0278 -0.2051
  383SOL     OW 1846   0.338   5.347   3.260 -0.4186  0.3558 -0.0037
  383SOL    HW1 1847   0.334   5.368   3.353 -0.9456 -0.1902  0.1084
  383SOL    HW2 1848   0.408   5.402   3.225 -1.4933  2.0053  0.3265
  384SOL     OW 1849   0.103   3.097   0.415  0.2861 -0.3296 -0.2045
  384SOL    HW1 1850   0.193   3.101   0.448  0.3640  1.7541 -0.5400
  384SOL    HW2 1851   0.110   3.052   0.331  1.3238  1.3518 -1.0619
  385SOL     OW 1852   0.414   4.494   1.035  0.2025 -0.0225 -0.0797
  385SOL    HW1 1853   0.478   4.509   0.966  0.8052  2.2756  0.9002
  385SOL    HW2 1854   0.435   4.559   1.102 -2.8970  0.5934  0.4466
  386SOL     OW 1855   1.728   1.578   0.597  0.1289  0.3636 -0.0084
  386SOL    HW1 1856   1.810   1.561   0.550  0.3022  0.7406  0.1551
  386SOL    HW2 1857   1.747   1.557   0.688 -1.2261 -3.9500 -0.5108
  387SOL     OW 1858   2.168   2.508   0.626  0.3812  0.0281  1.0020
  387SOL    HW1 1859   2.205   2.431   0.670 -0.3351 -1.0882 -0.2825
  387SOL    HW2 1860   2.244   2.561   0.602  0.9995 -1.0138  0.5890
  388SOL     OW 1861   2.057   5.005   3.449  0.6685  0.2467 -0.0856
  388SOL    HW1 1862   2.132   5.046   3.408 -1.1229  1.8428 -2.0029
  388SOL    HW2 1863   2.034   4.932   3.392 -1.2295  1.8799 -1.6058
  389SOL     OW 1864   3.553   2.744   3.602 -0.0004  0.5072 -0.1090
  389SOL    HW1 1865   3.523   2.714   3.516  0.0214 -0.0066  0.0618
  389SOL    HW2 1866   3.523   2.835   3.607 -1.3946  0.0685 -0.0079
  390SOL     OW 1867   0.072   3.167   5.128 -0.3837 -0.8258  0.4420
  390SOL    HW1 1868   0.043   3.096   5.186 -1.5338 -1.8838 -1.3347
  390SOL    HW2 1869  -0.009   3.205   5.095  0.2159  1.3454  1.3001
  391SOL     OW 1870   0.874   5.123   0.474  0.0743 -0.0372 -0.3410
  391SOL    HW1 1871   0.924   5.044   0.455 -0.2431 -0.3709  0.1730
  391SOL    HW2 1872   0.861   5.121   0.569 -2.2246 -0.8041 -0.5886
  392SOL     OW 1873   4.115   2.827   3.146  0.0747 -0.4478  0.0136
  392SOL    HW1 1874   4.089   2.763   3.212 -1.0194 -0.9468 -0.8707
  392SOL    HW2 1875   4.067   2.801   3.068  2.4071 -0.7193 -1.4163
  393SOL     OW 1876   0.174   1.615   1.624  0.3566  0.1197 -0.0487
  393SOL    HW1 1877   0.161   1.682   1.556  0.5007  1.2147  0.9609
  393SOL    HW2 1878   0.093   1.564   1.623 -1.1054  2.2063  1.1430
  394SOL     OW 1879   5.177   4.291   2.883 -0.0906  0.3015  0.0027
  394SOL    HW1 1880   5.171   4.380   2.917  1.6606  0.7063 -0.6414
  394SOL    HW2 1881   5.271   4.273   2.878 -0.4041 -1.5238 -0.0639
  395SOL     OW 1882   3.435   4.722   4.011  0.3369 -0.4213 -0.1876
  395SOL    HW1 1883   3.385   4.799   4.040  0.6294 -0.6134  0.8756
  395SOL    HW2 1884   3.477   4.750   3.930  1.4819  1.0037  0.8399
  396SOL     OW 1885   5.006   2.911   3.671 -0.2089  0.1407 -0.1305
  396SOL    HW1 1886   5.050   2.845   3.617  0.3785  1.1123 -0.8779
  396SOL    HW2 1887   4.914   2.907   3.644 -0.2284 -0.5439  0.0225
  397SOL     OW 1888   3.623   4.277   4.747 -0.6401 -0.5125 -0.5822
  397SOL    HW1 1889   3.533   4.254   4.723 -1.7192  1.7447  0.9048
  397SOL    HW2 1890   3.624   4.273   4.843  0.4364  0.8270 -0.5105
  398SOL     OW 1891   3.778   1.295   0.475  0.8070 -0.8283  0.1239
  398SOL    HW1 1892   3.804   1.373   0.524 -0.2256 -0.0536 -0.5354
  398SOL    HW2 1893   3.690   1.275   0.506  0.6932 -1.1700 -0.4135
  399SOL     OW 1894   2.869   4.550   4.174  0.6337  0.5324  0.1858
  399SOL    HW1 1895   2.831   4.632   4.141  1.4920  0.7737 -0.2388
  399SOL    HW2 1896   2.799   4.485   4.163  0.3095  0.9786 -0.4796
  400SOL     OW 1897   4.552   1.140   0.509  0.2102 -0.2303  0.4738
  400SOL    HW1 1898   4.574   1.232   0.522  0.1884 -0.4655  2.5248
  400SOL    HW2 1899   4.633   1.100   0.478  0.2882  0.4139 -0.1780
  401SOL     OW 1900   1.917   4.938   4.426 -0.3095  0.3486  0.2868
  401SOL    HW1 1901   1.932   4.960   4.334 -0.0574 -0.2188  0.1866
  401SOL    HW2 1902   1.998   4.895   4.454 -0.4168  0.4422  0.7490
  402SOL     OW 1903   0.155   2.468   3.386 -0.0431  0.4770  0.1829
  402SOL    HW1 1904   0.163   2.408   3.460 -0.9561 -0.4707 -0.4497
  402SOL    HW2 1905   0.210   2.430   3.317 -0.8215  0.2065 -0.3069
  403SOL     OW 1906   0.406   3.694   3.714 -0.0759 -0.2166 -0.1272
  403SOL    HW1 1907   0.499   3.713   3.728 -0.3342  2.0869 -1.1665
  403SOL    HW2 1908   0.400   3.672   3.621 -0.3346 -2.3031  0.3316
  404SOL     OW 1909   0.507   1.845   1.655 -0.0395  0.7801  0.0708
  404SOL    HW1 1910   0.463   1.890   1.583 -0.1815 -0.1195 -0.4275
  404SOL    HW2 1911   0.561   1.779   1.612  0.1922  0.5060  0.7752
  405SOL     OW 1912   3.593   3.530   2.673  0.3956 -0.0483  0.3671
  405SOL    HW1 1913   3.522   3.466   2.667 -1.3366  1.6884  0.9941
  405SOL    HW2 1914   3.617   3.531   2.765 -2.2999  2.7709  1.2273
  406SOL     OW 1915   3.809   2.266   3.908  0.0509  0.0286  0.1579
  406SOL    HW1 1916   3.831   2.359   3.913 -0.0805 -0.0288  3.1655
  406SOL    HW2 1917   3.749   2.251   3.981  0.6811 -2.5752  0.2344
  407SOL     OW 1918   0.269   1.417   1.763  0.5923 -0.6856  0.1890
  407SOL    HW1 1919   0.235   1.503   1.738  2.5798  0.2906  0.6788
  407SOL    HW2 1920   0.251   1.361   1.688 -0.4460  0.2215 -0.2697
  408SOL     OW 1921   4.681   2.514   2.690  0.0065  0.1933 -0.3432
  408SOL    HW1 1922   4.771   2.546   2.693 -0.2466  0.9705 -0.7552
  408SOL    HW2 1923   4.648   2.525   2.780  0.4441 -0.4749 -0.0960
  409SOL     OW 1924   1.229   3.823   4.809 -0.6407 -0.3268  0.1819
  409SOL    HW1 1925   1.146   3.829   4.857 -0.7339 -1.5578  0.1940
  409SOL    HW2 1926   1.223   3.893   4.744 -1.0865  0.4943  1.0715
  410SOL     OW 1927   2.314   2.649   1.274 -0.3909  0.0421 -0.6457
  410SOL    HW1 1928   2.315   2.697   1.357 -1.0907  0.5167 -0.9052
  410SOL    HW2 1929   2.385   2.688   1.223 -0.0342 -0.1728 -0.3211
  411SOL     OW 1930   3.909   3.816   4.716  0.1177  0.3319 -0.0854
  411SOL    HW1 1931   3.937   3.900   4.751 -1.1872  1.2459 -1.1224
  411SOL    HW2 1932   3.970   3.797   4.644  0.2144  0.5548 -0.0606
  412SOL     OW 1933   2.508   2.894   3.180 -0.0065 -0.1504  0.0866
  412SOL    HW1 1934   2.454   2.867   3.255 -2.2107  0.0656 -1.3284
  412SOL    HW2 1935   2.547   2.977   3.208 -2.5092  1.0594  0.2991
  413SOL     OW 1936   1.368   4.367   5.177 -0.5657  0.1036  0.3417
  413SOL    HW1 1937   1.311   4.357   5.254  1.8859  0.5849  2.3697
  413SOL    HW2 1938   1.342   4.450   5.138 -0.2417  1.1212  2.1918
  414SOL     OW 1939   2.376   2.718   4.491  0.3425  0.4914  0.9921
  414SOL    HW1 1940   2.329   2.756   4.417 -1.1689  0.0030  1.6612
  414SOL    HW2 1941   2.448   2.668   4.452  1.5071  2.8004  0.0401
  415SOL     OW 1942   2.472   4.712   2.666  0.6959 -0.0391  0.4731
  415SOL    HW1 1943   2.497   4.635   2.615 -0.6109 -0.2553  0.1230
  415SOL    HW2 1944   2.518   4.785   2.624 -0.3074 -0.2233 -0.9856
  416SOL     OW 1945   4.570   3.679   4.403  0.4345  0.0852 -0.2291
  416SOL    HW1 1946   4.508   3.729   4.457  0.3177  0.4863 -0.7279
  416SOL    HW2 1947   4.638   3.651   4.464  0.1427  0.2709  0.1855
  417SOL     OW 1948   1.316   0.620   1.839  0.4590  0.2842  0.1832
  417SOL    HW1 1949   1.361   0.538   1.822 -0.6443 -0.2367 -0.2969
  417SOL    HW2 1950   1.316   0.628   1.934 -1.2883 -1.3719  0.3796
  418SOL     OW 1951   4.848   2.940   3.119  0.9806  0.4134 -0.0851
  418SOL    HW1 1952   4.940   2.966   3.120  0.9328  0.6178 -0.8771
  418SOL    HW2 1953   4.842   2.873   3.051  0.8977 -0.9740  1.2199
  419SOL     OW 1954   3.007   2.230   3.367 -0.5697  0.0013 -0.9057
  419SOL    HW1 1955   2.958   2.281   3.431  0.1948 -0.5933  0.1835
  419SOL    HW2 1956   2.998   2.279   3.285  0.0294  1.8281  0.0635
  420SOL     OW 1957   0.099   3.937   3.925 -0.1167 -0.8987 -0.3872
  420SOL    HW1 1958   0.110   3.861   3.867  2.3058 -1.5822  0.8387
  420SOL    HW2 1959   0.178   3.990   3.911 -0.5641  0.0927  0.6346
  421SOL     OW 1960   3.725   5.033   2.902 -0.4780 -0.0455 -0.0375
  421SOL    HW1 1961   3.800   4.976   2.884 -0.9613 -0.2973 -1.4323
  421SOL    HW2 1962   3.672   4.984   2.964 -1.0342 -1.3051 -1.4409
  422SOL     OW 1963   1.964   2.058   3.747 -0.3663 -0.3868  0.4565
  422SOL    HW1 1964   1.927   2.146   3.760 -2.0423 -0.9327 -0.4300
  422SOL    HW2 1965   2.016   2.066   3.667 -1.0101 -0.3367  0.0363
  423SOL     OW 1966   2.988   3.246   3.446 -0.1291  0.6122 -0.7299
  423SOL    HW1 1967   3.028   3.192   3.514  0.3444 -0.6938 -2.0093
  423SOL    HW2 1968   2.896   3.219   3.445  0.0659 -0.0321 -1.2383
  424SOL     OW 1969   1.715   0.407   1.228  0.1355 -0.3631 -0.5858
  424SOL    HW1 1970   1.676   0.407   1.141  1.4579 -0.5085 -1.2091
  424SOL    HW2 1971   1.664   0.471   1.278 -0.7960 -0.4674 -1.3846
  425SOL     OW 1972   2.064   1.122   4.566  0.5131  0.0711 -0.3248
  425SOL    HW1 1973   2.131   1.085   4.508  0.6093  0.4861 -0.4827
  425SOL    HW2 1974   2.000   1.161   4.506  0.1252 -0.3281 -0.1729
  426SOL     OW 1975   0.517   1.460   2.323  0.5123  0.0580  0.3703
  426SOL    HW1 1976   0.432   1.497   2.298 -0.7744 -2.3891  0.8118
  426SOL    HW2 1977   0.518   1.466   2.419 -0.5656 -2.5276  0.6293
  427SOL     OW 1978   0.060   0.426   5.011 -0.0944 -0.1578 -0.2333
  427SOL    HW1 1979   0.146   0.390   4.991  0.5937  0.5952  1.2740
  427SOL    HW2 1980   0.014   0.356   5.057  0.6443  0.2613  1.2009
  428SOL     OW 1981   5.169   1.634   4.574  0.4063  0.1380 -0.1857
  428SOL    HW1 1982   5.099   1.688   4.537  0.3992  1.8018  1.9794
  428SOL    HW2 1983   5.240   1.696   4.592  1.0408 -0.8589  0.9250
  429SOL     OW 1984   0.718   3.695   0.382  0.1981 -0.0557 -0.4335
  429SOL    HW1 1985   0.687   3.638   0.452 -0.7600  0.7321 -0.1997
  429SOL    HW2 1986   0.770   3.762   0.426  0.0224  0.1484 -0.5389
  430SOL     OW 1987   4.830   1.477   5.176  0.2042  0.0939 -0.0999
  430SOL    HW1 1988   4.897   1.418   5.210  0.9201  0.2696 -1.1379
  430SOL    HW2 1989   4.747   1.434   5.196  0.7010 -1.1475 -0.6050
  431SOL     OW 1990   2.917   4.631   1.533  0.6049  0.0225  0.3771
  431SOL    HW1 1991   2.908   4.542   1.497 -2.6921 -0.0931  1.1292
  431SOL    HW2 1992   2.999   4.664   1.496  2.0679 -3.3742  0.2355
  432SOL     OW 1993   3.735   4.859   0.331 -0.0079 -0.5287  0.2949
  432SOL    HW1 1994   3.640   4.869   0.331 -0.1521 -1.5984  1.4571
  432SOL    HW2 1995   3.750   4.779   0.382  1.3972 -1.5771 -1.6152
  433SOL     OW 1996   0.323   0.533   4.698  0.2598  0.3039 -0.4271
  433SOL    HW1 1997   0.278   0.591   4.638 -0.3127 -0.6709 -0.9568
  433SOL    HW2 1998   0.405   0.510   4.653  0.4773  0.6703 -0.2259
  434SOL     OW 1999   0.136   2.058   4.679 -0.5487  0.3014  1.0212
  434SOL    HW1 2000   0.094   2.004   4.746 -0.2286 -1.0720  0.1429
  434SOL    HW2 2001   0.229   2.041   4.689 -0.4517  0.6447  0.6976
  435SOL     OW 2002   3.903   4.309   2.224  0.0971 -0.1281  0.0164
  435SOL    HW1 2003   3.898   4.223   2.265  0.1317  0.1222  0.5506
  435SOL    HW2 2004   3.973   4.354   2.271  0.9110 -0.2255 -1.0511
  436SOL     OW 2005   0.218   0.056   2.388  0.7098  0.6804  0.5410
  436SOL    HW1 2006   0.212   0.135   2.442  0.2628 -1.0599  3.1808
  436SOL    HW2 2007   0.260  -0.009   2.444  3.7059 -0.2755 -2.4752
  437SOL     OW 2008   1.200   3.599   1.891  0.2683  0.2042  0.1966
  437SOL    HW1 2009   1.175   3.627   1.979  0.4568  1.2058 -0.0541
  437SOL    HW2 2010   1.246   3.516   1.905 -0.2556  0.0298  0.9717
  438SOL     OW 2011   2.093   3.265   3.703  0.2683 -0.1902  0.3595
  438SOL    HW1 2012   2.035   3.341   3.706  1.9431  1.1270  0.9528
  438SOL    HW2 2013   2.078   3.220   3.786  1.4813  1.2821  1.4442
  439SOL     OW 2014   0.990   2.623   5.147  0.5491 -0.1010  0.5661
  439SOL    HW1 2015   1.041   2.692   5.104  1.1298 -0.4355  0.7123
  439SOL    HW2 2016   0.979   2.556   5.080  0.8355 -0.3041  0.7222
  440SOL     OW 2017   0.389   3.150   0.821 -0.4046 -0.2625 -0.4893
  440SOL    HW1 2018   0.411   3.068   0.779  0.1228  0.5077 -1.7758
  440SOL    HW2 2019   0.472   3.184   0.855 -0.7655 -0.6987  0.9145
  441SOL     OW 2020   2.372   1.936   4.039 -0.0934 -0.2018 -0.0723
  441SOL    HW1 2021   2.295   1.929   4.096 -1.2340 -0.4303 -1.5754
  441SOL    HW2 2022   2.370   1.856   3.986 -1.4819  1.7325 -3.2300
  442SOL     OW 2023   0.369   0.817   3.512  0.1317  0.2286 -0.5236
  442SOL    HW1 2024   0.328   0.784   3.432  0.3195 -0.0939 -0.4860
  442SOL    HW2 2025   0.308   0.884   3.544 -1.1595 -1.3245  0.3722
  443SOL     OW 2026   0.325   0.293   0.031  0.6396  0.1492  0.0258
  443SOL    HW1 2027   0.421   0.294   0.041  1.0104 -2.4157 -2.2295
  443SOL    HW2 2028   0.307   0.366  -0.028  1.5896 -0.8691 -1.6128
  444SOL     OW 2029   1.789   3.718   1.411 -0.3700 -0.2569 -0.2837
  444SOL    HW1 2030   1.755   3.662   1.480 -1.7499 -1.9544 -2.2153
  444SOL    HW2 2031   1.730   3.703   1.337  1.5120  0.8244 -2.1048
  445SOL     OW 2032   5.119   0.085   5.265 -0.0946 -0.1120  0.0873
  445SOL    HW1 2033   5.046   0.100   5.206  0.7315  0.1088 -0.9036
  445SOL    HW2 2034   5.119  -0.010   5.279 -2.6091  0.1420  2.8408
  446SOL     OW 2035   2.430   5.225   0.907 -0.3242 -0.1185  0.4776
  446SOL    HW1 2036   2.421   5.235   1.002  2.7244  0.0533  0.8466
  446SOL    HW2 2037   2.514   5.179   0.895 -0.2630  0.5031 -2.1435
  447SOL     OW 2038   2.464   1.547   2.030  0.1941 -0.4403  0.4171
  447SOL    HW1 2039   2.502   1.514   1.948  1.0847 -0.0844  0.6693
  447SOL    HW2 2040   2.376   1.576   2.007  0.7722  0.5537 -0.6423
  448SOL     OW 2041   4.882   2.243   2.961 -0.0569 -0.4261 -0.2693
  448SOL    HW1 2042   4.957   2.301   2.973  0.4059 -1.2197  0.7764
  448SOL    HW2 2043   4.918   2.167   2.916 -0.1855 -0.8865  0.3912
  449SOL     OW 2044   3.502   2.781   2.240 -0.3008 -0.2854  0.0150
  449SOL    HW1 2045   3.442   2.840   2.286 -0.2865  0.6801 -1.1504
  449SOL    HW2 2046   3.534   2.833   2.166  3.4320 -0.0803  1.5421
  450SOL     OW 2047   1.134   3.479   0.098 -1.2895  0.8788 -0.0519
  450SOL    HW1 2048   1.047   3.512   0.121 -1.1396  1.4647 -0.3136
  450SOL    HW2 2049   1.116   3.410   0.033 -1.5778  0.7329  0.1769
  451SOL     OW 2050   1.997   1.363   0.553  0.1633 -0.5020 -0.8415
  451SOL    HW1 2051   1.906   1.340   0.571  0.6555 -2.0285 -0.0632
  451SOL    HW2 2052   2.046   1.326   0.627  1.3339  1.0672 -0.7803
  452SOL     OW 2053   0.319   5.350   3.754 -0.9688  0.3323  0.4747
  452SOL    HW1 2054   0.388   5.411   3.779 -0.9578 -0.1209  1.6245
  452SOL    HW2 2055   0.365   5.277   3.712 -0.9084  0.7320 -0.1666
  453SOL     OW 2056   2.976   4.932   3.553  0.0993  0.8044 -0.5666
  453SOL    HW1 2057   3.061   4.930   3.596 -0.6905  1.7874  1.1381
  453SOL    HW2 2058   2.973   5.016   3.507  0.0426  0.7810 -0.6067
  454SOL     OW 2059   4.224   4.037   1.433 -0.2822  0.2466 -0.3140
  454SOL    HW1 2060   4.140   3.992   1.447  0.6782 -1.5677  0.0179
  454SOL    HW2 2061   4.251   4.008   1.346  1.1330 -1.2174  0.5671
  455SOL     OW 2062   1.635   5.130   3.738  0.2828 -0.6313  0.5077
  455SOL    HW1 2063   1.646   5.211   3.788 -0.2233 -0.7138  0.7658
  455SOL    HW2 2064   1.706   5.130   3.675 -1.2782  1.4241 -1.4164
  456SOL     OW 2065   4.448   1.721   4.075  0.0793  0.0896 -0.4501
  456SOL    HW1 2066   4.518   1.781   4.049 -0.0429  0.0824 -0.7950
  456SOL    HW2 2067   4.422   1.677   3.994  1.3369 -1.6818  0.0311
  457SOL     OW 2068   1.546   0.223   0.786 -0.6008  0.1277 -0.4602
  457SOL    HW1 2069   1.515   0.247   0.873 -0.7611  0.7779 -0.6951
  457SOL    HW2 2070   1.599   0.145   0.800 -0.3945  0.3962  0.2578
  458SOL     OW 2071   1.992   2.998   1.325 -0.2718  0.0177 -0.4727
  458SOL    HW1 2072   2.050   3.064   1.363 -0.7507  0.3297 -0.2871
  458SOL    HW2 2073   1.993   2.927   1.389 -0.4324  0.2023 -0.2630
  459SOL     OW 2074   1.837   1.728   0.918  0.2680 -0.2940 -0.3317
  459SOL    HW1 2075   1.754   1.715   0.871 -0.0694  0.6006 -0.0022
  459SOL    HW2 2076   1.836   1.662   0.987 -0.9177  0.7085  0.6545
  460SOL     OW 2077   3.666   4.139   2.903 -0.3166  0.0997  0.2220
  460SOL    HW1 2078   3.752   4.175   2.881 -0.0169  0.1628  1.4124
  460SOL    HW2 2079   3.683   4.049   2.928 -0.4290  0.4071  1.4724
  461SOL     OW 2080   4.290   3.943   1.184 -0.0491 -0.2771 -0.2685
  461SOL    HW1 2081   4.246   3.868   1.143  0.3786  0.4483 -2.1342
  461SOL    HW2 2082   4.359   3.967   1.123  0.4892  1.0154  0.7932
  462SOL     OW 2083   2.544   1.684   4.983 -0.2083  0.1728 -0.1097
  462SOL    HW1 2084   2.581   1.717   4.901 -0.5516  0.4080 -0.1691
  462SOL    HW2 2085   2.524   1.592   4.966 -1.2204  0.4781 -0.6095
  463SOL     OW 2086   2.007   3.255   2.804 -0.1254 -0.8163 -0.2029
  463SOL    HW1 2087   2.040   3.170   2.777  0.2662 -0.2457 -1.6218
  463SOL    HW2 2088   1.977   3.296   2.723  2.6834  1.6743 -0.1695
  464SOL     OW 2089   5.371   0.803   4.435 -0.1264 -0.7581  0.1752
  464SOL    HW1 2090   5.288   0.822   4.391  0.3697 -1.4111 -1.1046
  464SOL    HW2 2091   5.429   0.875   4.410 -0.3786 -0.1615  1.2882
  465SOL     OW 2092   2.843   1.260   4.541  0.0927  0.0109  0.3254
  465SOL    HW1 2093   2.920   1.217   4.578  0.0058  0.7577  1.4114
  465SOL    HW2 2094   2.872   1.292   4.455  0.8175 -0.2125  0.4815
  466SOL     OW 2095   2.727   0.425   2.701  0.4764  0.2748  0.0507
  466SOL    HW1 2096   2.697   0.471   2.622 -0.6336  1.0713  0.9062
  466SOL    HW2 2097   2.806   0.471   2.728 -0.2440  1.2702  0.5075
  467SOL     OW 2098   4.658   1.299   4.534  0.4104 -0.3875  0.5429
  467SOL    HW1 2099   4.674   1.372   4.593 -2.8037 -0.0597  1.1532
  467SOL    HW2 2100   4.671   1.221   4.588 -0.4633 -0.1316  1.1443
  468SOL     OW 2101   1.985   2.800   3.021 -0.1954 -0.2207 -0.4235
  468SOL    HW1 2102   1.933   2.767   2.948  0.7316 -0.4937 -0.9890
  468SOL    HW2 2103   1.953   2.889   3.035 -1.9675 -0.9555  0.3889
  469SOL     OW 2104   5.179   5.190   4.367  0.2323  0.3988 -0.0016
  469SOL    HW1 2105   5.226   5.155   4.291  0.1360 -0.4686  0.3353
  469SOL    HW2 2106   5.247   5.234   4.419  0.1134  2.0443 -1.1564
  470SOL     OW 2107   3.092   4.696   4.041  0.0339 -0.1103  0.0755
  470SOL    HW1 2108   3.019   4.740   4.086  0.2722 -0.7093  1.0777
  470SOL    HW2 2109   3.094   4.608   4.080 -0.6742 -1.1826 -2.1417
  471SOL     OW 2110   4.562   2.919   1.823  0.0182 -0.3118 -0.1132
  471SOL    HW1 2111   4.647   2.940   1.784  0.2903 -0.4049  0.4226
  471SOL    HW2 2112   4.569   2.949   1.913 -0.5197 -0.3226 -0.0654
  472SOL     OW 2113   4.835   4.242   4.815 -0.2164 -0.3240  0.1441
  472SOL    HW1 2114   4.764   4.187   4.849 -0.2137 -0.2121  0.3334
  472SOL    HW2 2115   4.791   4.316   4.774 -0.2281 -0.6151 -0.3745
  473SOL     OW 2116   0.974   1.636   0.069  0.0422 -0.6646 -0.5422
  473SOL    HW1 2117   1.049   1.657   0.124 -0.1364 -0.2024 -0.4695
  473SOL    HW2 2118   0.904   1.616   0.131 -0.5349  1.1503 -0.5508
  474SOL     OW 2119   0.004   0.798   1.244 -0.2700  0.0387  0.1492
  474SOL    HW1 2120  -0.028   0.732   1.183 -1.0104  0.3266  0.2055
  474SOL    HW2 2121  -0.035   0.774   1.328 -0.2136  0.3112  0.2562
  475SOL     OW 2122   4.957   4.916   2.074 -0.0674  0.1511 -0.8175
  475SOL    HW1 2123   4.985   4.912   1.983 -0.7961  0.9507 -1.0887
  475SOL    HW2 2124   4.861   4.911   2.070 -0.6460  5.4618 -0.5706
  476SOL     OW 2125   1.811   1.857   3.852  0.2288  0.2015  0.4822
  476SOL    HW1 2126   1.854   1.922   3.796  0.4314 -0.4529 -0.1353
  476SOL    HW2 2127   1.718   1.867   3.832  0.4037 -1.1770 -1.2909
  477SOL     OW 2128   4.361   2.902   2.445  0.1553 -0.5343  0.5255
  477SOL    HW1 2129   4.388   2.883   2.356  2.5731  2.3681  0.4859
  477SOL    HW2 2130   4.378   2.821   2.494 -0.9664 -2.0797 -1.5074
  478SOL     OW 2131   0.037   2.307   4.791 -0.2738 -0.3400 -0.1266
  478SOL    HW1 2132   0.092   2.379   4.759  1.2081 -1.2013  0.3860
  478SOL    HW2 2133   0.064   2.231   4.739 -1.0347 -0.7822  0.1025
  479SOL     OW 2134   5.119   3.234   0.280 -0.6232  0.2049 -0.2293
  479SOL    HW1 2135   5.050   3.223   0.346 -1.9011  0.6866 -1.4272
  479SOL    HW2 2136   5.098   3.318   0.239  2.3475  1.7991  1.2387
  480SOL     OW 2137   5.078   4.325   4.875 -0.1044  0.0332 -0.7448
  480SOL    HW1 2138   5.097   4.261   4.943  2.2558  2.2492  0.8837
  480SOL    HW2 2139   4.998   4.293   4.833  1.1109 -4.0897 -0.3493
  481SOL     OW 2140   4.610   3.307   2.827 -0.6543  0.0454  0.5336
  481SOL    HW1 2141   4.626   3.400   2.844 -1.4166  0.1469  0.7531
  481SOL    HW2 2142   4.692   3.275   2.791 -1.0779  1.3877 -1.9501
  482SOL     OW 2143   2.095   4.577   2.804 -0.1328  0.6214  0.2340
  482SOL    HW1 2144   2.142   4.494   2.813  0.3598  0.5539 -2.1641
  482SOL    HW2 2145   2.018   4.567   2.860 -0.4117 -1.7502 -0.4240
  483SOL     OW 2146   2.559   2.583   2.455  0.2113  0.2841 -0.1753
  483SOL    HW1 2147   2.519   2.669   2.463  0.6236  0.3206  3.7282
  483SOL    HW2 2148   2.650   2.600   2.431  0.1584  0.8933  0.0529
  484SOL     OW 2149   0.649   4.793   5.395  0.5955 -0.1409 -0.2002
  484SOL    HW1 2150   0.653   4.878   5.439 -2.3875  0.2838 -0.5722
  484SOL    HW2 2151   0.716   4.740   5.439 -0.7407  0.8958  3.4180
  485SOL     OW 2152   0.910   5.097   3.747  0.1431  0.1356  0.0127
  485SOL    HW1 2153   0.992   5.048   3.750  0.0171 -0.2485 -1.7263
  485SOL    HW2 2154   0.894   5.111   3.654 -1.0517  1.4392  0.3791
  486SOL     OW 2155   2.400   2.592   3.787  0.4050 -0.2191 -0.4760
  486SOL    HW1 2156   2.307   2.602   3.809  0.9383  1.6696  1.2740
  486SOL    HW2 2157   2.409   2.636   3.702 -0.2880 -0.3015 -0.5991
  487SOL     OW 2158   0.846   0.515   1.651  0.1911 -0.2063 -0.0385
  487SOL    HW1 2159   0.865   0.428   1.685 -0.6704 -0.7431 -0.8918
  487SOL    HW2 2160   0.796   0.558   1.720 -2.0479 -1.4865 -0.7518
  488SOL     OW 2161   0.313   2.815   0.960  0.0414 -0.2050 -0.1181
  488SOL    HW1 2162   0.360   2.855   0.887  0.1646  0.2144  0.1807
  488SOL    HW2 2163   0.376   2.753   0.997  0.6033  0.7777  0.6430
  489SOL     OW 2164   0.870   0.388   0.127  0.5472 -0.0865  0.0287
  489SOL    HW1 2165   0.886   0.387   0.221  1.4178 -0.1368 -0.1161
  489SOL    HW2 2166   0.944   0.341   0.089  0.5843  0.5581 -0.7292
  490SOL     OW 2167   3.882   1.237   2.374  0.4713  0.3302 -0.3914
  490SOL    HW1 2168   3.892   1.238   2.469  0.9639 -1.1827 -0.4053
  490SOL    HW2 2169   3.795   1.275   2.359 -0.1787 -0.6258  0.7612
  491SOL     OW 2170   0.278   2.647   0.017  0.7776  0.3861 -0.6519
  491SOL    HW1 2171   0.322   2.562   0.026  2.4667  1.1778 -1.0429
  491SOL    HW2 2172   0.336   2.698  -0.038  0.8522  2.5244  1.2770
  492SOL     OW 2173   1.744   0.986   1.866 -0.2009 -0.0050  0.2887
  492SOL    HW1 2174   1.655   1.019   1.882  0.6160  1.2328  2.6561
  492SOL    HW2 2175   1.769   0.944   1.948  1.4951 -0.1346 -0.2657
  493SOL     OW 2176   3.124   1.455   3.168 -0.2201 -0.2789  0.0312
  493SOL    HW1 2177   3.113   1.427   3.259 -0.3714 -2.6115 -0.6239
  493SOL    HW2 2178   3.038   1.441   3.129  0.4763 -1.8902 -1.0477
  494SOL     OW 2179   0.143   2.309   4.061 -0.5772  0.6854 -0.4576
  494SOL    HW1 2180   0.053   2.295   4.033 -0.5423  0.7429 -0.6020
  494SOL    HW2 2181   0.151   2.405   4.067 -0.5900  0.6731 -0.2300
  495SOL     OW 2182   0.350   4.265   4.233 -0.5194 -0.1479 -0.0403
  495SOL    HW1 2183   0.398   4.337   4.274 -0.9344  1.4161 -2.1356
  495SOL    HW2 2184   0.303   4.223   4.305  0.7084  0.8865  1.4205
  496SOL     OW 2185   0.075   1.099   2.337  0.2013  0.6616  0.6007
  496SOL    HW1 2186   0.047   1.190   2.339  1.4627  1.1893 -1.8109
  496SOL    HW2 2187   0.012   1.055   2.280  1.6546  0.9266 -1.3283
  497SOL     OW 2188   1.337   2.488   4.779  0.0603  0.0100 -0.2832
  497SOL    HW1 2189   1.404   2.539   4.825  0.6621 -0.6911 -0.3623
  497SOL    HW2 2190   1.256   2.535   4.796  0.3274  0.0031  1.1596
  498SOL     OW 2191   3.941   2.668   0.008 -0.4092  0.1412 -0.2237
  498SOL    HW1 2192   3.904   2.579   0.010 -1.7087  0.6424 -0.6116
  498SOL    HW2 2193   3.954   2.687  -0.085  0.8828 -0.0286 -0.0898
  499SOL     OW 2194   3.626   1.390   0.834  0.1565  0.3663 -0.0533
  499SOL    HW1 2195   3.625   1.486   0.838  2.1120  0.4025  0.3614
  499SOL    HW2 2196   3.614   1.362   0.924 -1.8184  0.1426 -0.3380
  500SOL     OW 2197   5.071   4.981   3.062  0.4207  0.4378  0.1976
  500SOL    HW1 2198   5.066   5.074   3.083  2.1254 -0.2982  5.3613
  500SOL    HW2 2199   5.162   4.966   3.036 -0.1146  0.2546 -1.7640
  501SOL     OW 2200   1.349   1.123   3.574  0.1504  0.0178  0.0834
  501SOL    HW1 2201   1.437   1.087   3.571 -0.4338 -1.4313 -0.2387
  501SOL    HW2 2202   1.294   1.059   3.529 -0.9563  1.2527 -0.4043
  502SOL     OW 2203   1.201   3.572   1.085 -0.0839 -0.2024 -0.5061
  502SOL    HW1 2204   1.167   3.604   1.168 -1.4533 -0.4945 -0.9260
  502SOL    HW2 2205   1.146   3.496   1.064  0.5959 -0.4648 -1.4013
  503SOL     OW 2206   4.268   2.262   4.608  0.4913  0.2456 -0.5129
  503SOL    HW1 2207   4.304   2.195   4.549  0.4746  0.7665 -1.1319
  503SOL    HW2 2208   4.204   2.215   4.661  0.8992 -0.3491 -0.5294
  504SOL     OW 2209   2.382   0.408   1.916 -0.2548 -0.1773 -0.3860
  504SOL    HW1 2210   2.373   0.476   1.851 -1.3903 -1.8066 -2.0205
  504SOL    HW2 2211   2.296   0.402   1.958  0.3599  0.6117  1.0622
  505SOL     OW 2212   0.722   4.276   3.591  0.2339  0.2734 -0.4328
  505SOL    HW1 2213   0.727   4.371   3.598 -0.6305  0.3872 -1.2131
  505SOL    HW2 2214   0.794   4.244   3.646  0.9721  1.3914 -0.7172
  506SOL     OW 2215   5.189   0.279   1.364 -0.2812 -0.1516 -0.0188
  506SOL    HW1 2216   5.123   0.349   1.353 -0.7976 -0.7514 -0.8049
  506SOL    HW2 2217   5.273   0.325   1.362 -0.5708  0.3560 -1.4417
  507SOL     OW 2218   5.053   0.213   4.444  0.7894  0.8989 -0.1040
  507SOL    HW1 2219   5.048   0.137   4.385 -0.5667 -0.4148  1.6091
  507SOL    HW2 2220   5.106   0.183   4.517 -0.7756  1.1548  1.1848
  508SOL     OW 2221   3.648   2.205   4.359 -0.4316  0.1004  0.2226
  508SOL    HW1 2222   3.669   2.138   4.424 -1.0049  0.1050  0.4177
  508SOL    HW2 2223   3.659   2.161   4.275 -0.4073 -0.1163  0.3379
  509SOL     OW 2224   4.401   2.093   4.437  0.2240 -0.3401  0.2672
  509SOL    HW1 2225   4.344   2.052   4.372 -0.6855 -2.5043  2.2833
  509SOL    HW2 2226   4.489   2.058   4.419 -0.0792 -1.1576  0.3474
  510SOL     OW 2227   1.637   2.583   1.395  0.0177  0.0027 -0.2154
  510SOL    HW1 2228   1.618   2.676   1.409  0.6295  0.2197 -0.7698
  510SOL    HW2 2229   1.551   2.544   1.379 -0.2800  0.4131  0.3088
  511SOL     OW 2230   0.329   4.691   5.014 -0.1741  0.7971  0.3304
  511SOL    HW1 2231   0.391   4.714   4.944  1.9119 -2.3706  0.9368
  511SOL    HW2 2232   0.333   4.765   5.075  2.1202  1.2356 -0.2586
  512SOL     OW 2233   3.145   1.183   0.985 -0.7603  0.0375  0.5995
  512SOL    HW1 2234   3.139   1.087   0.985 -0.1116 -0.0407 -1.2936
  512SOL    HW2 2235   3.237   1.202   1.002 -0.9272  0.3406  1.1829
  513SOL     OW 2236   2.794   0.651   3.349  0.0121  0.2580 -0.6906
  513SOL    HW1 2237   2.849   0.597   3.406  0.8305 -0.3681 -2.0240
  513SOL    HW2 2238   2.745   0.588   3.297 -0.1886  0.8163 -1.1793
  514SOL     OW 2239   0.774   4.711   4.030  0.0739  0.2907  0.2131
  514SOL    HW1 2240   0.821   4.636   3.995  0.8906  0.4065  1.0128
  514SOL    HW2 2241   0.841   4.778   4.042 -0.6450  1.1656 -0.5006
  515SOL     OW 2242   4.945   3.012   3.945 -0.2988 -0.5561 -0.0359
  515SOL    HW1 2243   5.023   3.066   3.955  0.9952 -2.7797  4.0067
  515SOL    HW2 2244   4.965   2.956   3.870  1.0290  0.3098 -0.3760
  516SOL     OW 2245   4.689   5.008   4.605 -0.5265  0.8623 -0.3720
  516SOL    HW1 2246   4.635   5.003   4.526  0.6584 -0.4023 -1.1483
  516SOL    HW2 2247   4.768   5.055   4.577  0.0618  0.0797 -0.0586
  517SOL     OW 2248   3.229   3.595   2.742  0.0076  0.4719 -0.1509
  517SOL    HW1 2249   3.229   3.587   2.838 -0.0864  0.1728 -0.1755
  517SOL    HW2 2250   3.185   3.678   2.725 -0.9527  0.0139  0.0232
  518SOL     OW 2251   1.618   3.602   0.604  0.2073 -0.5646 -0.2722
  518SOL    HW1 2252   1.588   3.511   0.600 -0.3454 -0.3778 -0.4524
  518SOL    HW2 2253   1.685   3.602   0.673 -0.0913 -1.0188  0.0221
  519SOL     OW 2254   0.608   0.044   5.121 -0.1217  0.6905  0.0181
  519SOL    HW1 2255   0.536   0.053   5.184 -0.2035  1.3430 -0.1635
  519SOL    HW2 2256   0.629  -0.049   5.122 -1.6105  0.3239 -0.6252
  520SOL     OW 2257   1.114   5.178   1.719 -0.3902  0.3167  0.1294
  520SOL    HW1 2258   1.190   5.121   1.732 -0.1937  0.6752  0.5835
  520SOL    HW2 2259   1.110   5.192   1.624 -1.1778 -1.4487 -0.1428
  521SOL     OW 2260   1.954   0.113   1.127 -0.1140 -0.7621  0.3631
  521SOL    HW1 2261   1.964   0.186   1.188 -3.9854  0.5316 -0.2660
  521SOL    HW2 2262   2.004   0.140   1.049 -1.6460  1.4466  0.0521
  522SOL     OW 2263   3.655   5.101   3.315 -0.2516 -0.0329  0.6609
  522SOL    HW1 2264   3.750   5.113   3.319 -0.4528  1.3429  2.6452
  522SOL    HW2 2265   3.627   5.096   3.406 -2.0138 -1.3447  0.1116
  523SOL     OW 2266   3.182   3.252   3.237 -0.0181  1.0469  0.3516
  523SOL    HW1 2267   3.149   3.162   3.234  0.5290  0.7137  2.3858
  523SOL    HW2 2268   3.120   3.298   3.294  0.3372  1.6607  0.2533
  524SOL     OW 2269   1.613   3.764   1.192 -0.0797 -0.1198 -0.0326
  524SOL    HW1 2270   1.625   3.758   1.097  3.6651 -3.1547  0.3848
  524SOL    HW2 2271   1.526   3.727   1.206 -0.4779 -0.1938 -2.2400
  525SOL     OW 2272   4.063   4.387   1.072 -0.2146  0.1765  0.3380
  525SOL    HW1 2273   4.098   4.299   1.058 -0.0683  0.4381 -1.1298
  525SOL    HW2 2274   3.969   4.377   1.058 -0.1403  0.3219 -0.3368
  526SOL     OW 2275   3.087   0.785   1.426  0.4021  0.4143 -0.4278
  526SOL    HW1 2276   2.992   0.786   1.411  0.2179 -0.0624  0.5797
  526SOL    HW2 2277   3.120   0.857   1.374 -0.6332  1.1349 -0.1269
  527SOL     OW 2278   3.893   3.892   3.545 -0.3845 -0.4280 -0.4451
  527SOL    HW1 2279   3.914   3.970   3.494 -0.6586  0.1492  0.3092
  527SOL    HW2 2280   3.857   3.926   3.627 -0.9871 -1.3553 -0.3128
  528SOL     OW 2281   2.637   3.833   5.366 -0.0481 -0.6479 -0.1174
  528SOL    HW1 2282   2.579   3.763   5.394 -0.6659 -0.7459 -1.5479
  528SOL    HW2 2283   2.613   3.849   5.274 -0.2684  1.7439  0.2792
  529SOL     OW 2284   4.185   0.579   0.648 -0.0480 -0.1838  0.0233
  529SOL    HW1 2285   4.208   0.497   0.692  0.9668  0.0143 -0.1271
  529SOL    HW2 2286   4.135   0.628   0.713 -2.4172 -1.7229 -0.5174
  530SOL     OW 2287   0.457   1.192   0.105 -0.5090 -0.2761  0.9428
  530SOL    HW1 2288   0.467   1.234   0.190 -0.2217  0.7761  0.4053
  530SOL    HW2 2289   0.511   1.113   0.110  0.0937  0.1633  1.4860
  531SOL     OW 2290   4.122   3.650   3.170  0.4626 -0.6611 -0.3509
  531SOL    HW1 2291   4.216   3.635   3.166  0.5584 -0.5506  1.0131
  531SOL    HW2 2292   4.113   3.745   3.177  0.1386 -0.4939 -2.4951
  532SOL     OW 2293   5.199   3.692   2.521  0.3924  0.4927  0.7935
  532SOL    HW1 2294   5.162   3.733   2.599 -0.8418  0.8479  0.0511
  532SOL    HW2 2295   5.188   3.598   2.536 -3.2193  0.5656 -0.4234
  533SOL     OW 2296   4.925   4.599   0.453  0.3313  0.0601  0.7498
  533SOL    HW1 2297   4.863   4.630   0.518 -1.6735 -0.2177 -0.8995
  533SOL    HW2 2298   4.912   4.504   0.450 -0.3452  0.1679 -0.6930
  534SOL     OW 2299   5.076   3.588   4.378  0.4346  0.2890 -0.0869
  534SOL    HW1 2300   5.016   3.654   4.342  0.8135  0.8465  0.2846
  534SOL    HW2 2301   5.025   3.542   4.444  0.3911  0.7191  0.1825
  535SOL     OW 2302   4.203   3.956   3.529  0.4688 -0.0646  0.0770
  535SOL    HW1 2303   4.107   3.952   3.527  0.4298  0.6113  0.1468
  535SOL    HW2 2304   4.227   4.003   3.449  0.7990 -0.9848 -0.3714
  536SOL     OW 2305   1.537   1.273   2.836 -0.2319 -0.3500  0.1321
  536SOL    HW1 2306   1.454   1.261   2.882 -1.1751 -1.3629 -1.7072
  536SOL    HW2 2307   1.580   1.188   2.842 -0.7959 -0.7882 -1.5790
  537SOL     OW 2308   4.375   4.681   2.160  0.7238  0.3864  0.3827
  537SOL    HW1 2309   4.359   4.619   2.090  0.1646  0.6699  0.2515
  537SOL    HW2 2310   4.468   4.670   2.182  1.2625  1.2080 -1.2899
  538SOL     OW 2311   1.175   2.763   4.518  0.6209  0.3025 -0.2015
  538SOL    HW1 2312   1.182   2.751   4.423  0.5960 -0.9829 -0.0506
  538SOL    HW2 2313   1.261   2.798   4.543  0.9951 -0.3390 -0.5578
  539SOL     OW 2314   4.150   2.155   5.049 -0.1631  0.0404 -0.3992
  539SOL    HW1 2315   4.194   2.083   5.004 -1.9089 -0.8721 -0.7147
  539SOL    HW2 2316   4.165   2.139   5.142  1.8928  0.9157 -0.5187
  540SOL     OW 2317   2.096   2.765   1.534  0.4357  0.0089  0.5196
  540SOL    HW1 2318   2.173   2.819   1.515  1.1380 -0.7705  1.0922
  540SOL    HW2 2319   2.130   2.690   1.583 -0.7643 -0.0551  1.3115
  541SOL     OW 2320   0.799   4.538   3.679  0.3292  0.0369 -0.5980
  541SOL    HW1 2321   0.711   4.564   3.708  0.7306  0.2328  0.5146
  541SOL    HW2 2322   0.855   4.611   3.704  1.1433 -0.9656  0.6982
  542SOL     OW 2323   5.166   5.054   0.670  0.5954  0.3348 -0.1354
  542SOL    HW1 2324   5.168   5.112   0.746 -0.3982 -0.0263  0.1858
  542SOL    HW2 2325   5.076   5.019   0.669  1.2509 -1.4750 -0.1027
  543SOL     OW 2326   3.602   3.883   2.682 -0.3601  0.0634 -0.1215
  543SOL    HW1 2327   3.520   3.837   2.666  0.0489 -0.4970 -0.6302
  543SOL    HW2 2328   3.628   3.856   2.770 -0.4878 -0.1041 -0.1354
  544SOL     OW 2329   4.753   4.439   3.380 -0.0755  0.0265 -0.5861
  544SOL    HW1 2330   4.759   4.360   3.326 -0.5507 -0.7814  0.5082
  544SOL    HW2 2331   4.739   4.510   3.317  0.9475 -0.6709 -1.6308
  545SOL     OW 2332   3.981   5.189   2.056  0.2060  0.5533  0.0417
  545SOL    HW1 2333   3.993   5.105   2.012 -2.7904  0.3809 -0.6251
  545SOL    HW2 2334   4.070   5.214   2.084  1.8565 -0.7226 -3.4715
  546SOL     OW 2335   3.696   2.631   4.255  0.2588 -0.0307 -0.1148
  546SOL    HW1 2336   3.723   2.552   4.303 -0.1107 -0.5375 -0.7218
  546SOL    HW2 2337   3.604   2.616   4.235  0.2186  0.5081 -0.3428
  547SOL     OW 2338   0.375   5.178   2.557 -0.0460  0.1277  0.3051
  547SOL    HW1 2339   0.450   5.125   2.584 -0.6028 -0.0629  1.5463
  547SOL    HW2 2340   0.325   5.121   2.499 -0.3238 -0.5096  1.1528
  548SOL     OW 2341   2.866   2.286   2.807 -0.6743  0.1367 -0.6087
  548SOL    HW1 2342   2.947   2.265   2.853 -1.3574  1.2535  1.1916
  548SOL    HW2 2343   2.893   2.300   2.716  1.1530  0.5104 -0.0425
  549SOL     OW 2344   0.313   4.185   0.323 -0.2284 -0.9220 -0.2622
  549SOL    HW1 2345   0.288   4.211   0.412 -1.1356 -0.3698 -0.6725
  549SOL    HW2 2346   0.321   4.267   0.275  2.2072 -1.0555 -0.2297
  550SOL     OW 2347   1.483   2.960   1.266  0.4807  0.1540 -0.9448
  550SOL    HW1 2348   1.563   2.973   1.317  0.7834  0.8153 -1.5816
  550SOL    HW2 2349   1.454   3.049   1.243  0.5253 -0.1436 -2.2021
  551SOL     OW 2350   5.226   3.644   4.798 -0.4635  0.2633 -0.7681
  551SOL    HW1 2351   5.220   3.557   4.757 -0.4899  0.4670 -1.2040
  551SOL    HW2 2352   5.135   3.675   4.802 -0.6412 -0.3588  0.7972
  552SOL     OW 2353   2.595   3.507   1.414 -0.0449 -0.2519 -0.4019
  552SOL    HW1 2354   2.684   3.530   1.386  0.8776 -2.6180  0.3619
  552SOL    HW2 2355   2.555   3.591   1.436  1.9890  0.8881 -0.7439
  553SOL     OW 2356   0.725   3.377   1.584 -0.5632 -0.1269  0.6108
  553SOL    HW1 2357   0.662   3.446   1.566 -0.7695 -0.2544  0.8319
  553SOL    HW2 2358   0.672   3.299   1.599 -0.4224 -0.0129  1.8102
  554SOL     OW 2359   2.089   1.487   2.907 -0.1961 -0.3416  0.2193
  554SOL    HW1 2360   2.067   1.418   2.845 -0.4249 -0.1437  0.0813
  554SOL    HW2 2361   2.024   1.479   2.976 -0.7607  0.2985 -0.2314
  555SOL     OW 2362   5.270   0.489   2.759 -0.1111 -0.0514 -0.2200
  555SOL    HW1 2363   5.241   0.580   2.764 -0.1722 -0.1196  1.4873
  555SOL    HW2 2364   5.350   0.491   2.706  0.0681  1.0477  0.0740
  556SOL     OW 2365   1.019   1.637   4.359 -0.6578 -0.1203  0.2068
  556SOL    HW1 2366   1.020   1.711   4.420 -0.5671 -0.7661  1.0008
  556SOL    HW2 2367   1.063   1.567   4.405 -1.0751 -0.7976 -0.3947
  557SOL     OW 2368   1.651   1.865   0.605 -0.0425 -0.1866 -0.5529
  557SOL    HW1 2369   1.606   1.894   0.526 -1.1123 -1.2129 -0.3405
  557SOL    HW2 2370   1.670   1.773   0.589  0.7616 -0.1199 -0.0573
  558SOL     OW 2371   1.890   2.307   5.054 -0.2233 -0.1643  0.1044
  558SOL    HW1 2372   1.977   2.337   5.076 -0.0112 -0.5457 -0.1941
  558SOL    HW2 2373   1.902   2.252   4.976 -0.5619 -1.2146  0.7728
  559SOL     OW 2374   4.917   4.177   2.817 -0.5110  1.3293 -0.5081
  559SOL    HW1 2375   4.936   4.128   2.738 -0.3788  2.8722 -1.4800
  559SOL    HW2 2376   5.000   4.219   2.840 -0.7640  1.5968 -0.0653
  560SOL     OW 2377   3.396   2.928   2.484 -0.3632 -0.0658  0.1661
  560SOL    HW1 2378   3.333   2.858   2.498 -1.4777  1.2341  2.2024
  560SOL    HW2 2379   3.343   3.005   2.461  0.6605  0.5649 -0.1944
  561SOL     OW 2380   4.874   3.626   2.373 -0.1365 -0.2999 -0.1935
  561SOL    HW1 2381   4.865   3.609   2.466  0.4028  0.7965  0.0815
  561SOL    HW2 2382   4.955   3.582   2.347  2.1837  2.9583  0.8720
  562SOL     OW 2383   5.152   4.104   5.050  0.0290  0.0080  0.6645
  562SOL    HW1 2384   5.156   4.067   5.138  1.8974 -0.1859  0.5435
  562SOL    HW2 2385   5.243   4.126   5.029 -0.4723  0.7368 -0.9341
  563SOL     OW 2386   1.095   3.154   3.709 -0.0963 -0.4138  0.5882
  563SOL    HW1 2387   1.091   3.128   3.801 -1.8018 -2.2267  0.0783
  563SOL    HW2 2388   1.013   3.121   3.671 -0.7502  2.6881 -1.0125
  564SOL     OW 2389   4.330   3.438   4.618 -0.1712  0.2269  0.7297
  564SOL    HW1 2390   4.238   3.463   4.604 -0.5439 -0.8829  1.0539
  564SOL    HW2 2391   4.359   3.405   4.533 -0.3565 -0.2418  0.8427
  565SOL     OW 2392   0.943   0.596   2.301  0.3694 -0.0875  0.0539
  565SOL    HW1 2393   0.873   0.534   2.322 -0.3773  0.4611 -0.7379
  565SOL    HW2 2394   0.904   0.655   2.236  1.8493 -0.3561 -1.1382
  566SOL     OW 2395   4.315   0.429   1.711 -0.1417 -0.4935 -0.2554
  566SOL    HW1 2396   4.247   0.484   1.751  1.3360  0.0066  1.6896
  566SOL    HW2 2397   4.320   0.353   1.769 -0.6162 -1.6817 -1.7007
  567SOL     OW 2398   4.596   2.919   3.780 -0.2703  0.1246 -0.1329
  567SOL    HW1 2399   4.613   2.856   3.850  0.1489  0.9248  0.5051
  567SOL    HW2 2400   4.614   3.004   3.819 -1.0245  0.6655 -0.9188
  568SOL     OW 2401   1.365   1.558   3.405 -0.3381  0.4685  0.3877
  568SOL    HW1 2402   1.374   1.557   3.500  1.1481 -0.0681  0.2738
  568SOL    HW2 2403   1.348   1.466   3.382 -1.1652  0.6721  0.1690
  569SOL     OW 2404   4.927   1.162   2.908 -0.3045  0.5409 -0.3589
  569SOL    HW1 2405   5.004   1.219   2.904 -1.2663  2.1659  1.8520
  569SOL    HW2 2406   4.875   1.186   2.831  1.3148 -0.5492 -1.8539
  570SOL     OW 2407   2.726   4.899   4.412 -0.3355  0.6717 -0.2386
  570SOL    HW1 2408   2.632   4.909   4.425 -0.5405 -0.3478 -0.8267
  570SOL    HW2 2409   2.751   4.973   4.358 -0.7612  1.0491  0.0730
  571SOL     OW 2410   2.324   3.825   0.465 -0.1251 -0.0517  0.2129
  571SOL    HW1 2411   2.296   3.899   0.411 -1.5103 -0.5913  0.1327
  571SOL    HW2 2412   2.379   3.772   0.407  0.0351  0.3937 -0.0449
  572SOL     OW 2413   0.393   4.549   2.229 -0.5049 -0.0111  0.7240
  572SOL    HW1 2414   0.424   4.601   2.302 -0.8892 -0.2773  1.0782
  572SOL    HW2 2415   0.387   4.459   2.263 -1.2651 -0.0349  0.5545
  573SOL     OW 2416   2.987   5.021   2.763 -0.1609 -0.3360 -0.1714
  573SOL    HW1 2417   3.052   5.068   2.815 -0.5308  1.0907 -0.9489
  573SOL    HW2 2418   2.962   4.946   2.817  0.3620  0.4299  1.1595
  574SOL     OW 2419   3.405   3.666   1.127  0.1732 -0.0533 -0.0105
  574SOL    HW1 2420   3.430   3.682   1.036 -0.0910 -0.1907 -0.1114
  574SOL    HW2 2421   3.485   3.636   1.169  0.3352  0.1720 -0.1588
  575SOL     OW 2422   0.201   4.597   2.042 -0.0080 -0.9490 -0.4100
  575SOL    HW1 2423   0.244   4.582   2.126 -0.0935  0.3560 -0.1084
  575SOL    HW2 2424   0.179   4.510   2.010 -0.6370 -1.4509  1.2831
  576SOL     OW 2425   1.351   4.177   4.946  0.5837  0.5198 -0.0204
  576SOL    HW1 2426   1.291   4.213   5.011 -0.5527 -0.0336 -0.7407
  576SOL    HW2 2427   1.417   4.246   4.935 -0.6999  1.7694 -0.2647
  577SOL     OW 2428   4.083   0.269   1.564 -0.4181  0.2769 -0.3366
  577SOL    HW1 2429   4.175   0.292   1.572 -0.7953  1.4422  1.1435
  577SOL    HW2 2430   4.076   0.183   1.607 -0.0223  0.1232 -0.5714
  578SOL     OW 2431   3.810   1.201   1.978  0.1140  0.0803  0.1022
  578SOL    HW1 2432   3.738   1.142   2.000 -0.1075 -0.2211 -1.3182
  578SOL    HW2 2433   3.790   1.282   2.024 -0.7959 -0.2060  0.2312
  579SOL     OW 2434   2.249   2.905   2.458  0.8741  0.0419 -0.2301
  579SOL    HW1 2435   2.186   2.919   2.387  1.5108 -2.2254 -1.3240
  579SOL    HW2 2436   2.271   2.994   2.487 -2.4989  0.9688 -0.0026
  580SOL     OW 2437   3.484   0.116   4.862 -0.0602  0.1304  0.0067
  580SOL    HW1 2438   3.441   0.083   4.941  1.0296  0.7194  0.8802
  580SOL    HW2 2439   3.477   0.044   4.799 -0.7608 -0.4310  0.6944
  581SOL     OW 2440   2.834   2.976   0.579 -0.2321  0.2807 -0.7799
  581SOL    HW1 2441   2.862   3.062   0.613  0.8869  0.2263 -1.4958
  581SOL    HW2 2442   2.796   2.932   0.654  0.1385  1.0201 -0.1410
  582SOL     OW 2443   0.262   0.659   1.857  0.1588  0.1935  0.3178
  582SOL    HW1 2444   0.241   0.708   1.936  1.0428  1.9848 -0.4940
  582SOL    HW2 2445   0.353   0.680   1.838  0.0416 -0.3702 -1.0503
  583SOL     OW 2446   2.756   4.238   2.947  0.1773  0.1787  0.2366
  583SOL    HW1 2447   2.708   4.170   2.993  0.3285 -0.3236 -0.3382
  583SOL    HW2 2448   2.848   4.212   2.954  0.2088  0.1438 -0.2757
  584SOL     OW 2449   4.458   4.328   2.677  0.0284  0.1172 -0.4034
  584SOL    HW1 2450   4.507   4.249   2.656  0.5892  0.6914 -1.3229
  584SOL    HW2 2451   4.462   4.381   2.598 -1.6569  0.4132 -0.3308
  585SOL     OW 2452   2.259   0.074   5.376 -0.1469 -0.3623 -0.6015
  585SOL    HW1 2453   2.238   0.006   5.312 -1.0753 -0.2966 -0.3843
  585SOL    HW2 2454   2.231   0.038   5.460 -1.0389  0.4294 -0.5335
  586SOL     OW 2455   4.455   4.942   2.781 -0.3167 -0.0307 -0.0471
  586SOL    HW1 2456   4.432   4.849   2.782  0.0395 -0.1208  1.1296
  586SOL    HW2 2457   4.408   4.977   2.706  1.4603 -1.6200 -2.0231
  587SOL     OW 2458   3.049   1.087   0.645  0.7242 -0.1639  0.5054
  587SOL    HW1 2459   2.986   1.132   0.589  1.0642 -2.4549 -1.9229
  587SOL    HW2 2460   3.113   1.154   0.669 -0.3308  1.2528 -0.4784
  588SOL     OW 2461   1.871   2.524   1.521  0.4394 -0.0229  0.3388
  588SOL    HW1 2462   1.786   2.542   1.481  0.5590  1.4776  0.7249
  588SOL    HW2 2463   1.854   2.528   1.616  1.5571  3.8980  0.5270
  589SOL     OW 2464   0.068   2.252   3.181  0.3002  0.1788  0.2641
  589SOL    HW1 2465   0.042   2.274   3.091  0.5414  1.1629  0.4217
  589SOL    HW2 2466  -0.014   2.231   3.226 -0.2032  2.5768  0.5820
  590SOL     OW 2467   0.683   2.087   0.199 -0.2797 -0.2042  0.2451
  590SOL    HW1 2468   0.754   2.147   0.221  0.1293 -0.0503 -1.3983
  590SOL    HW2 2469   0.604   2.132   0.227 -0.0179  1.3276 -1.3455
  591SOL     OW 2470   2.184   2.574   4.609  0.3459 -0.1255 -0.0956
  591SOL    HW1 2471   2.120   2.628   4.657  1.1766 -1.6959  3.0856
  591SOL    HW2 2472   2.244   2.638   4.570 -1.6981  1.3104 -1.0644
  592SOL     OW 2473   4.584   4.996   5.256  0.4168  0.1401  0.2854
  592SOL    HW1 2474   4.580   4.911   5.300  1.6087  0.4622  1.0596
  592SOL    HW2 2475   4.665   4.993   5.205 -0.2325  0.3129 -0.7937
  593SOL     OW 2476   2.281   2.156   5.030 -0.4828  0.9367 -0.6652
  593SOL    HW1 2477   2.283   2.248   5.001 -2.2757  1.7169  1.3981
  593SOL    HW2 2478   2.294   2.161   5.125  1.5483 -1.1831 -0.7520
  594SOL     OW 2479   0.262   4.263   4.732 -0.4788  0.3770 -0.3548
  594SOL    HW1 2480   0.171   4.280   4.756  0.0344  0.0189  2.0746
  594SOL    HW2 2481   0.313   4.322   4.789  0.8572 -0.6916 -0.4001
  595SOL     OW 2482   5.230   4.039   2.606 -0.3398 -0.1997  0.0525
  595SOL    HW1 2483   5.295   3.969   2.613 -0.1410  0.0450  0.7842
  595SOL    HW2 2484   5.275   4.116   2.641 -0.7013  0.1936 -0.3500
  596SOL     OW 2485   2.020   2.240   0.590 -0.4521 -0.2215  0.5084
  596SOL    HW1 2486   1.971   2.296   0.650  1.2765  0.9251  0.9179
  596SOL    HW2 2487   2.108   2.277   0.589 -0.2926 -0.4227 -2.4338
  597SOL     OW 2488   3.793   4.854   3.552 -0.5930  0.2858  0.1487
  597SOL    HW1 2489   3.807   4.876   3.644 -1.4436  0.2316  0.2948
  597SOL    HW2 2490   3.809   4.760   3.548 -0.6996  0.2625  0.2682
  598SOL     OW 2491   4.077   2.124   3.802 -0.1106 -0.0857 -0.2442
  598SOL    HW1 2492   3.984   2.148   3.797 -0.2278 -0.6207 -0.6908
  598SOL    HW2 2493   4.114   2.158   3.721  0.0859  0.1272 -0.0654
  599SOL     OW 2494   2.079   0.871   2.620  0.0909 -0.0134  0.0572
  599SOL    HW1 2495   2.043   0.953   2.587  1.1057  0.5754  0.3677
  599SOL    HW2 2496   2.088   0.816   2.543  0.1001  0.4375 -0.2685
  600SOL     OW 2497   3.111   1.725   3.276  0.1537 -0.0605  0.3394
  600SOL    HW1 2498   3.180   1.675   3.319 -1.4963 -3.0240 -0.2215
  600SOL    HW2 2499   3.073   1.778   3.346  1.5877  0.0351  1.0904
  601SOL     OW 2500   2.260   1.265   1.949  0.1396  0.0013  0.1160
  601SOL    HW1 2501   2.299   1.224   2.026 -1.1879 -0.8803  0.3434
  601SOL    HW2 2502   2.168   1.239   1.952 -0.8467  3.0739  0.3461
  602SOL     OW 2503   0.080   2.956   1.027 -0.6928 -0.3082 -0.6813
  602SOL    HW1 2504   0.084   3.044   0.989 -0.8587 -0.6138 -1.4219
  602SOL    HW2 2505   0.171   2.925   1.026 -0.3240  0.5633  1.3329
  603SOL     OW 2506   0.765   1.025   2.985 -0.5500  0.2440  0.5014
  603SOL    HW1 2507   0.778   1.027   2.890  1.1461 -0.7158  0.6894
  603SOL    HW2 2508   0.722   0.942   3.002 -0.8231  0.4011  0.5918
  604SOL     OW 2509   4.498   1.222   3.477 -0.1528  0.0406  0.2398
  604SOL    HW1 2510   4.579   1.200   3.431  0.7725 -2.1814  2.6593
  604SOL    HW2 2511   4.436   1.154   3.451 -0.5557  0.4669  0.0702
  605SOL     OW 2512   0.237   0.164   2.023 -0.2116 -0.3874 -0.0215
  605SOL    HW1 2513   0.182   0.109   1.968 -1.1972  0.5496 -0.0120
  605SOL    HW2 2514   0.267   0.234   1.964  0.1515 -0.3360  0.2196
  606SOL     OW 2515   3.729   3.077   2.100  0.2017 -0.3977 -0.0869
  606SOL    HW1 2516   3.666   3.066   2.171  0.5456 -0.5313  0.1995
  606SOL    HW2 2517   3.698   3.153   2.052 -0.2920 -0.5837 -0.0685
  607SOL     OW 2518   0.606   2.916   1.827  0.5545 -0.1090  0.4144
  607SOL    HW1 2519   0.636   2.839   1.778  0.4782  0.2943 -0.2736
  607SOL    HW2 2520   0.585   2.882   1.913  1.6276 -0.6604  0.4798
  608SOL     OW 2521   0.964   1.238   4.077  0.2210  0.6255 -0.1017
  608SOL    HW1 2522   0.982   1.327   4.109  0.0145  0.6298  0.0085
  608SOL    HW2 2523   0.932   1.191   4.154 -0.0653  0.5738 -0.2484
  609SOL     OW 2524   4.795   2.749   2.945  0.1763  0.2576  0.1402
  609SOL    HW1 2525   4.711   2.792   2.926  0.9316  2.2485  1.0203
  609SOL    HW2 2526   4.771   2.661   2.972 -1.4284 -0.2267 -2.4732
  610SOL     OW 2527   5.180   0.476   1.615 -0.5082  0.3993  0.2517
  610SOL    HW1 2528   5.240   0.468   1.541 -1.8676  0.6201 -0.9110
  610SOL    HW2 2529   5.162   0.385   1.641  0.6967  0.3377  0.9518
  611SOL     OW 2530   0.814   4.894   5.156  0.0883 -0.2498 -0.1656
  611SOL    HW1 2531   0.747   4.826   5.167  0.3675 -0.4910  0.0591
  611SOL    HW2 2532   0.881   4.872   5.220 -0.2589  0.7909  0.5919
  612SOL     OW 2533   2.150   4.450   0.900  0.2557  0.1556  0.1768
  612SOL    HW1 2534   2.103   4.409   0.973  0.3288 -1.1544 -0.4751
  612SOL    HW2 2535   2.090   4.518   0.868 -0.2204  0.0300  0.7868
  613SOL     OW 2536   1.727   1.207   1.477  0.0732  0.4251 -0.0141
  613SOL    HW1 2537   1.723   1.128   1.530 -1.1915 -0.1012 -0.8426
  613SOL    HW2 2538   1.649   1.203   1.422  2.0094  0.1565 -2.9819
  614SOL     OW 2539   0.019   3.188   3.418 -0.6705 -0.2736 -0.0929
  614SOL    HW1 2540  -0.044   3.259   3.403  0.0590  1.0097  2.3173
  614SOL    HW2 2541  -0.032   3.119   3.460 -1.1652 -0.7683 -1.4656
  615SOL     OW 2542   2.258   2.206   2.877  0.3595 -0.4935 -0.6651
  615SOL    HW1 2543   2.276   2.163   2.961  0.7501 -0.3081 -0.6550
  615SOL    HW2 2544   2.334   2.188   2.823  0.3881 -0.0790 -0.7671
  616SOL     OW 2545   1.039   0.278   3.988 -0.3205  0.5540  0.3700
  616SOL    HW1 2546   1.007   0.222   3.917 -1.6248  0.7410  0.7710
  616SOL    HW2 2547   1.103   0.224   4.034 -1.0473 -0.3746  0.3273
  617SOL     OW 2548   4.478   5.209   0.266 -0.3716  0.1060 -0.1052
  617SOL    HW1 2549   4.415   5.274   0.236 -0.1529 -0.7756 -2.7501
  617SOL    HW2 2550   4.425   5.143   0.311 -0.7925  1.2639  1.1368
  618SOL     OW 2551   0.470   2.654   3.885  0.0968 -0.2822  0.3406
  618SOL    HW1 2552   0.535   2.584   3.876 -0.8977 -1.2788  0.6659
  618SOL    HW2 2553   0.508   2.728   3.836  1.3668 -0.8935  0.3481
  619SOL     OW 2554   2.587   2.565   1.725  0.4399 -0.8280 -0.6883
  619SOL    HW1 2555   2.653   2.630   1.749 -0.2303  0.3277 -1.8367
  619SOL    HW2 2556   2.600   2.494   1.787  0.6676  0.7565  1.1926
  620SOL     OW 2557   4.648   3.820   2.580 -0.4625 -0.2528 -0.1341
  620SOL    HW1 2558   4.705   3.837   2.506  0.0584 -1.6272 -0.0751
  620SOL    HW2 2559   4.707   3.793   2.650 -0.9925  0.5578  0.6467
  621SOL     OW 2560   0.521   4.142   4.778  0.6116  0.3727 -0.2894
  621SOL    HW1 2561   0.451   4.078   4.787 -0.1502  1.2804  0.5985
  621SOL    HW2 2562   0.475   4.224   4.759  1.2267  1.4364  2.4367
  622SOL     OW 2563   2.862   4.055   4.425 -0.1526  0.4640  0.3779
  622SOL    HW1 2564   2.773   4.033   4.397 -0.1227 -0.9133  1.2652
  622SOL    HW2 2565   2.907   3.970   4.431  1.2631  1.1497 -0.1884
  623SOL     OW 2566   0.567   0.401   4.635  0.3093 -0.4740 -0.1963
  623SOL    HW1 2567   0.622   0.372   4.708  1.3451 -1.4045 -1.2841
  623SOL    HW2 2568   0.629   0.416   4.564 -0.6950  0.2129 -0.9478
  624SOL     OW 2569   3.586   2.017   3.578 -0.0198  0.2241 -0.2607
  624SOL    HW1 2570   3.605   2.110   3.568  0.4159 -0.0010 -1.9275
  624SOL    HW2 2571   3.630   1.992   3.659  0.6405  1.2788 -0.2738
  625SOL     OW 2572   3.305   1.160   4.736 -0.0194 -0.2216  0.0713
  625SOL    HW1 2573   3.274   1.230   4.794  0.2014  0.1170 -0.2132
  625SOL    HW2 2574   3.343   1.206   4.662 -0.5304 -0.6556 -0.4655
  626SOL     OW 2575   4.168   1.950   0.716 -0.3040 -0.1782 -0.2096
  626SOL    HW1 2576   4.087   1.899   0.718 -0.9941  0.8706 -0.7200
  626SOL    HW2 2577   4.193   1.959   0.808 -0.0111 -1.6503 -0.1173
  627SOL     OW 2578   4.892   3.277   2.013  0.1667 -0.6464  0.5504
  627SOL    HW1 2579   4.887   3.341   1.942 -1.7960 -1.7030 -0.3484
  627SOL    HW2 2580   4.847   3.318   2.086  1.4786  0.1154  0.9706
  628SOL     OW 2581   4.921   0.023   3.877  0.2876 -0.2702  0.3321
  628SOL    HW1 2582   4.978   0.095   3.904 -0.0721  1.2082 -2.4975
  628SOL    HW2 2583   4.837   0.043   3.917  0.3549  0.5665  0.0738
  629SOL     OW 2584   2.083   4.933   1.296 -0.0230  0.2685  0.1902
  629SOL    HW1 2585   2.138   4.863   1.262 -0.7525 -0.9550  1.4134
  629SOL    HW2 2586   2.137   4.976   1.363  0.6066  1.2368 -0.9076
  630SOL     OW 2587   0.530   4.870   1.119  0.4137 -0.3361 -0.0211
  630SOL    HW1 2588   0.532   4.951   1.170 -0.6399 -0.6662  0.5973
  630SOL    HW2 2589   0.562   4.894   1.033  1.2314  0.4752  0.4932
  631SOL     OW 2590   3.045   0.983   0.330  0.0774 -0.3402  0.0867
  631SOL    HW1 2591   3.037   1.069   0.289 -2.4557 -0.4141  0.2876
  631SOL    HW2 2592   3.066   1.001   0.422  0.1172  0.0300  0.0045
  632SOL     OW 2593   3.573   3.499   3.320 -0.0068  0.0057  0.8872
  632SOL    HW1 2594   3.563   3.587   3.356 -1.1697  0.4761 -0.5143
  632SOL    HW2 2595   3.550   3.441   3.392 -0.0061  0.8640  1.5903
  633SOL     OW 2596   1.623   1.918   1.258 -0.2144  0.1450  0.0846
  633SOL    HW1 2597   1.602   1.825   1.252  0.3967 -0.0072  0.2574
  633SOL    HW2 2598   1.707   1.927   1.214  0.3992  0.3733  1.2557
  634SOL     OW 2599   0.524   4.273   0.644  0.3215  0.3109  0.0432
  634SOL    HW1 2600   0.470   4.299   0.569  0.4749 -0.5110 -0.3658
  634SOL    HW2 2601   0.587   4.345   0.653  0.2389  0.4707 -0.5559
  635SOL     OW 2602   4.858   0.728   2.991  0.9006  0.2892  0.4043
  635SOL    HW1 2603   4.770   0.728   2.952  1.0165 -0.2948  0.1443
  635SOL    HW2 2604   4.842   0.731   3.085  0.6186  1.6103  0.3403
  636SOL     OW 2605   2.355   1.177   2.241  0.4881 -0.3919 -0.3103
  636SOL    HW1 2606   2.324   1.184   2.332  1.0829 -0.4643 -0.0963
  636SOL    HW2 2607   2.418   1.248   2.232  0.0159 -0.0268 -0.8520
  637SOL     OW 2608   4.490   4.409   4.369  0.0826  0.3886 -0.3737
  637SOL    HW1 2609   4.482   4.439   4.278  0.4234 -0.7626 -0.8051
  637SOL    HW2 2610   4.405   4.428   4.408  0.2809  1.8629 -0.6286
  638SOL     OW 2611   1.403   2.959   1.571  0.1429  0.2503 -0.1868
  638SOL    HW1 2612   1.396   3.009   1.489  0.6094 -1.0458 -1.0449
  638SOL    HW2 2613   1.334   2.892   1.563  1.0519 -0.7129 -0.1373
  639SOL     OW 2614   0.736   1.630   0.217 -0.1168  0.1939  0.4304
  639SOL    HW1 2615   0.727   1.614   0.311  1.2112 -0.0061  0.5414
  639SOL    HW2 2616   0.722   1.545   0.176  2.1727 -0.3601  0.6792
  640SOL     OW 2617   4.883   0.809   4.768 -0.7150  0.0200  0.6565
  640SOL    HW1 2618   4.907   0.867   4.840 -3.2680  2.3403 -0.1937
  640SOL    HW2 2619   4.793   0.782   4.788 -1.1168 -0.0788 -1.1631
  641SOL     OW 2620   3.109   4.939   3.906 -0.2044  0.0686 -1.0351
  641SOL    HW1 2621   3.019   4.971   3.899 -0.7724 -1.5589 -1.5345
  641SOL    HW2 2622   3.103   4.861   3.961  1.5117  2.0846  2.3865
  642SOL     OW 2623   2.109   2.095   2.009  0.0875 -0.0036  0.0114
  642SOL    HW1 2624   2.081   2.040   2.082  2.0338 -0.4082  0.5206
  642SOL    HW2 2625   2.121   2.034   1.936 -1.2443  0.3086 -0.4874
  643SOL     OW 2626   4.681   0.268   3.076  0.5036 -0.5440  0.1329
  643SOL    HW1 2627   4.604   0.244   3.024 -1.0741  1.4952  1.3598
  643SOL    HW2 2628   4.732   0.325   3.018 -0.7929  1.0026  0.4487
  644SOL     OW 2629   0.321   1.062   2.151  0.2702 -0.7493 -0.6591
  644SOL    HW1 2630   0.402   1.093   2.193 -0.4852 -0.0609  0.3420
  644SOL    HW2 2631   0.258   1.057   2.223 -0.4895 -1.6252 -1.3662
  645SOL     OW 2632   5.212   0.454   0.523  0.2474 -0.5530 -0.8541
  645SOL    HW1 2633   5.289   0.451   0.580 -0.1499  0.4811 -0.2186
  645SOL    HW2 2634   5.245   0.485   0.439  0.3993  0.9932 -0.2764
  646SOL     OW 2635   0.859   3.426   0.803  0.1848  0.1088  0.3692
  646SOL    HW1 2636   0.929   3.416   0.868 -0.4306 -0.1204  1.0117
  646SOL    HW2 2637   0.837   3.519   0.804 -0.5901 -0.0687  1.3242
  647SOL     OW 2638   1.142   0.561   2.992  0.3980 -0.1741  0.2751
  647SOL    HW1 2639   1.166   0.571   2.899 -2.8593 -0.5050 -0.7212
  647SOL    HW2 2640   1.186   0.481   3.019  2.1489  0.4134 -0.6852
  648SOL     OW 2641   3.126   2.193   1.884  0.4142 -0.5536  0.8281
  648SOL    HW1 2642   3.086   2.161   1.966 -0.0844 -0.3754  0.6578
  648SOL    HW2 2643   3.220   2.188   1.900  0.3778 -2.2246  0.7856
  649SOL     OW 2644   0.463   3.864   4.270 -0.0101 -0.5688 -0.0024
  649SOL    HW1 2645   0.469   3.913   4.188  2.6444 -0.5349  0.0988
  649SOL    HW2 2646   0.453   3.931   4.338 -0.9253 -0.5138 -0.1797
  650SOL     OW 2647   4.158   4.364   0.091  0.5155 -0.7661 -0.1752
  650SOL    HW1 2648   4.244   4.324   0.100 -0.2944 -2.4781  0.2540
  650SOL    HW2 2649   4.116   4.316   0.019 -0.0587  0.1106 -0.4480
  651SOL     OW 2650   1.976   2.352   1.821  0.4064 -0.0807 -0.0820
  651SOL    HW1 2651   1.976   2.357   1.916  1.4223 -0.6326 -0.0436
  651SOL    HW2 2652   2.064   2.323   1.798  0.0130 -0.4764 -1.1593
  652SOL     OW 2653   1.579   0.601   1.352 -0.3606 -0.2996  0.1230
  652SOL    HW1 2654   1.492   0.606   1.391 -0.4095  0.5577 -0.0600
  652SOL    HW2 2655   1.585   0.679   1.297  1.0973  0.5322  1.3594
  653SOL     OW 2656   1.863   1.040   2.598 -0.4089 -0.2226 -0.3729
  653SOL    HW1 2657   1.874   1.092   2.677 -2.0695 -0.8402  0.3105
  653SOL    HW2 2658   1.773   1.008   2.602 -0.0102 -1.6718 -1.6632
  654SOL     OW 2659   4.723   4.702   1.475  0.2102  0.1137 -0.7882
  654SOL    HW1 2660   4.725   4.699   1.379  0.1076 -0.6496 -0.7707
  654SOL    HW2 2661   4.642   4.657   1.499 -2.7296  4.9136 -0.4897
  655SOL     OW 2662   0.372   3.915   1.545 -0.2595 -0.2485  0.6041
  655SOL    HW1 2663   0.456   3.883   1.579 -0.9232 -1.4025  1.2096
  655SOL    HW2 2664   0.317   3.925   1.622 -1.2240 -1.1890  0.0614
  656SOL     OW 2665   0.658   0.986   0.078  0.0680 -0.2786  0.3882
  656SOL    HW1 2666   0.618   0.934   0.008  0.1484 -0.2602  0.3286
  656SOL    HW2 2667   0.700   0.922   0.135 -1.8972 -0.5104  1.6698
  657SOL     OW 2668   1.735   5.105   2.874  0.1089  0.0900 -0.6773
  657SOL    HW1 2669   1.790   5.067   2.943 -2.5831 -1.6887  0.6895
  657SOL    HW2 2670   1.761   5.059   2.794 -0.6427 -2.1990  0.3085
  658SOL     OW 2671   2.891   1.249   1.283 -0.2721 -0.0588  0.0538
  658SOL    HW1 2672   2.914   1.177   1.226  1.1839  0.0672  0.4510
  658SOL    HW2 2673   2.934   1.229   1.366  2.1021  2.2945 -0.4540
  659SOL     OW 2674   0.060   0.576   2.576 -0.3812 -0.2467  0.0735
  659SOL    HW1 2675   0.086   0.510   2.513  0.2826 -1.6763  1.7585
  659SOL    HW2 2676   0.125   0.646   2.565 -0.9290  0.0438 -1.5371
  660SOL     OW 2677   5.047   0.328   0.756  0.1556  0.0857  0.9239
  660SOL    HW1 2678   5.079   0.345   0.667 -0.6737 -1.9549  0.1814
  660SOL    HW2 2679   5.042   0.415   0.796  1.9437  0.9341 -0.5033
  661SOL     OW 2680   3.918   3.751   2.390 -0.0917  0.3604 -0.0675
  661SOL    HW1 2681   3.974   3.745   2.313  0.6642 -0.3827  0.5186
  661SOL    HW2 2682   3.833   3.781   2.357 -0.4097 -1.8973 -1.4884
  662SOL     OW 2683   5.040   0.742   3.241  0.4230 -0.6181  0.2338
  662SOL    HW1 2684   4.975   0.757   3.309  0.6489  0.5914  0.2064
  662SOL    HW2 2685   5.058   0.829   3.205  1.4858 -1.0289 -0.2793
  663SOL     OW 2686   0.918   2.829   5.358  0.8198 -0.0119 -0.2438
  663SOL    HW1 2687   0.874   2.905   5.395  1.7384  0.3612  0.0998
  663SOL    HW2 2688   0.896   2.832   5.265  1.8317  1.3735 -0.4627
  664SOL     OW 2689   5.011   2.871   4.209  0.0577  0.2525 -0.0960
  664SOL    HW1 2690   5.103   2.897   4.216 -0.5681  2.2238  2.3199
  664SOL    HW2 2691   4.968   2.947   4.169 -0.4818 -0.8637 -1.7117
  665SOL     OW 2692   4.634   3.985   4.127  0.1824  0.0752 -0.7617
  665SOL    HW1 2693   4.544   3.957   4.112 -0.0007 -0.0158  0.4106
  665SOL    HW2 2694   4.637   4.076   4.095  0.2604 -0.5710 -2.7499
  666SOL     OW 2695   0.556   0.502   3.343  0.6606 -0.4610 -0.2246
  666SOL    HW1 2696   0.525   0.494   3.252 -0.3979 -0.2482  0.1067
  666SOL    HW2 2697   0.477   0.490   3.396  1.4422 -1.6503  0.7143
  667SOL     OW 2698   2.937   3.988   0.946  0.5035  0.1750 -0.2643
  667SOL    HW1 2699   2.919   3.974   1.038 -0.5010  0.2559 -0.4366
  667SOL    HW2 2700   2.901   3.910   0.902  2.9856 -0.9890 -0.4131
  668SOL     OW 2701   0.421   2.279   5.195  0.2943  0.3351  0.1803
  668SOL    HW1 2702   0.370   2.357   5.175 -1.1122 -0.8890 -1.3778
  668SOL    HW2 2703   0.438   2.239   5.110  1.2290 -0.9013  0.9153
  669SOL     OW 2704   1.438   3.617   2.132  0.7119  0.0832 -0.1406
  669SOL    HW1 2705   1.417   3.627   2.225  0.4329 -1.2943 -0.0422
  669SOL    HW2 2706   1.374   3.553   2.100  0.8132  0.5344 -1.2849
  670SOL     OW 2707   4.280   4.508   3.289  0.0459  0.0332 -0.2649
  670SOL    HW1 2708   4.232   4.573   3.339  0.8750 -0.4626  1.2312
  670SOL    HW2 2709   4.356   4.555   3.255 -0.7723  0.4962 -1.5601
  671SOL     OW 2710   0.168   1.589   2.733  0.5952  0.4835 -0.6686
  671SOL    HW1 2711   0.108   1.661   2.711  1.0850  0.7136 -1.2601
  671SOL    HW2 2712   0.167   1.532   2.657 -1.8242 -1.5949  0.7487
  672SOL     OW 2713   0.591   3.625   4.136 -0.3726  0.0219 -0.0413
  672SOL    HW1 2714   0.542   3.708   4.137 -3.0886 -1.4534  0.2453
  672SOL    HW2 2715   0.605   3.604   4.228 -1.0873 -0.5737 -0.0626
  673SOL     OW 2716   2.698   4.382   5.291 -0.0690  0.3403  0.3847
  673SOL    HW1 2717   2.631   4.431   5.339  0.2537  0.6996  0.4750
  673SOL    HW2 2718   2.781   4.412   5.329  0.0971 -1.5971  1.7325
  674SOL     OW 2719   1.355   3.624   3.709  0.2473 -0.4155  0.8118
  674SOL    HW1 2720   1.388   3.697   3.761  1.2778 -0.9070  0.8807
  674SOL    HW2 2721   1.267   3.608   3.743 -0.5685  1.7083 -0.1905
  675SOL     OW 2722   0.599   4.850   0.608 -0.5259  0.1493 -0.7509
  675SOL    HW1 2723   0.695   4.855   0.608 -0.3504 -2.3777 -0.7549
  675SOL    HW2 2724   0.572   4.941   0.597  1.8543  0.9956 -0.3814
  676SOL     OW 2725   4.096   2.501   4.759  0.0761  0.5488  0.1545
  676SOL    HW1 2726   4.131   2.456   4.683  0.2637 -1.9265  1.6229
  676SOL    HW2 2727   4.045   2.574   4.722  0.7992 -0.0914 -2.2656
  677SOL     OW 2728   5.330   4.091   0.918 -0.2327 -0.2205 -0.2568
  677SOL    HW1 2729   5.268   4.097   0.990 -0.0780  0.6896 -0.1830
  677SOL    HW2 2730   5.412   4.126   0.954  0.4896 -1.8956 -0.1864
  678SOL     OW 2731   1.032   0.338   5.080 -0.0447 -0.9938  0.1984
  678SOL    HW1 2732   0.984   0.272   5.031 -1.3280 -0.3751  0.5949
  678SOL    HW2 2733   1.059   0.402   5.015  0.5231 -1.4856 -0.0657
  679SOL     OW 2734   5.226   0.776   3.561  0.1705  0.3182 -0.1795
  679SOL    HW1 2735   5.178   0.859   3.558 -0.2486  0.1164  0.6385
  679SOL    HW2 2736   5.171   0.715   3.513 -1.3779 -0.3721  2.2766
  680SOL     OW 2737   1.543   4.987   2.418  0.2047  0.4879  0.0121
  680SOL    HW1 2738   1.575   4.971   2.329  1.0145 -2.3107  0.7036
  680SOL    HW2 2739   1.581   4.916   2.470 -0.3210  1.9818  2.5980
  681SOL     OW 2740   3.480   1.390   3.859 -0.0335 -0.1171  0.2232
  681SOL    HW1 2741   3.519   1.341   3.787 -2.3530 -1.3167 -0.2765
  681SOL    HW2 2742   3.429   1.459   3.817 -1.0198 -0.5302  0.7040
  682SOL     OW 2743   3.566   2.557   0.711  0.4238 -0.1796  0.3294
  682SOL    HW1 2744   3.537   2.489   0.771 -0.3602 -1.2826 -1.2554
  682SOL    HW2 2745   3.499   2.560   0.642  2.9103 -1.3429 -2.3393
  683SOL     OW 2746   5.030   3.450   2.858 -0.3098  0.0275 -0.0553
  683SOL    HW1 2747   4.982   3.368   2.850 -0.4853  0.1964 -0.8704
  683SOL    HW2 2748   5.015   3.478   2.948 -0.8430 -0.4723  0.0181
  684SOL     OW 2749   4.120   4.386   2.879  0.0125  0.2336  0.0598
  684SOL    HW1 2750   4.201   4.357   2.920 -1.4459 -1.8037  1.6564
  684SOL    HW2 2751   4.080   4.445   2.943  0.0336  0.9557 -0.5755
  685SOL     OW 2752   5.140   0.445   4.324 -0.1764  0.1857 -0.4684
  685SOL    HW1 2753   5.059   0.492   4.302 -0.7189  0.0301  1.0857
  685SOL    HW2 2754   5.113   0.383   4.391  0.8110 -1.4347 -1.5268
  686SOL     OW 2755   1.092   3.353   2.916  0.4761 -0.6610 -0.3465
  686SOL    HW1 2756   1.075   3.261   2.899  0.5443 -0.7519  0.0637
  686SOL    HW2 2757   1.006   3.394   2.916  0.3906 -0.8321  0.0709
  687SOL     OW 2758   1.814   0.311   2.363  0.4088 -0.2296 -0.2424
  687SOL    HW1 2759   1.796   0.253   2.437 -1.3900 -0.5836 -0.8928
  687SOL    HW2 2760   1.732   0.360   2.352  0.9000  0.3231 -1.5437
  688SOL     OW 2761   2.835   1.485   2.094  0.4744  0.0312  0.4060
  688SOL    HW1 2762   2.850   1.553   2.159  1.1480 -0.0145  0.3096
  688SOL    HW2 2763   2.912   1.489   2.037  0.2446 -0.4221  0.0579
  689SOL     OW 2764   0.317   2.722   0.559  0.5979 -0.3931 -0.6324
  689SOL    HW1 2765   0.312   2.801   0.505  0.8538  0.3635  0.4367
  689SOL    HW2 2766   0.406   2.689   0.543  1.0243  0.3794  0.0614
  690SOL     OW 2767   2.458   4.156   2.913  0.5800  0.1138  0.7717
  690SOL    HW1 2768   2.496   4.242   2.898 -0.4429  0.2697 -1.3939
  690SOL    HW2 2769   2.365   4.173   2.929  0.1493 -0.6011 -0.7872
  691SOL     OW 2770   0.211   0.436   3.131 -0.0798 -0.3532  0.0391
  691SOL    HW1 2771   0.181   0.508   3.076  1.3462  0.5840  0.4386
  691SOL    HW2 2772   0.184   0.357   3.084 -0.4380  0.4308 -1.1077
  692SOL     OW 2773   2.187   3.144   1.473  0.4375 -0.1637 -0.0683
  692SOL    HW1 2774   2.138   3.173   1.550 -1.3885 -1.0150 -0.8495
  692SOL    HW2 2775   2.241   3.219   1.449  0.9215  0.1601  1.9428
  693SOL     OW 2776   1.678   1.690   0.044  0.2345  0.4061  0.1506
  693SOL    HW1 2777   1.584   1.706   0.053 -0.2789 -2.1314 -0.1149
  693SOL    HW2 2778   1.712   1.772   0.009 -2.2247  0.7518 -1.7744
  694SOL     OW 2779   2.021   4.948   2.473  0.4955 -0.0645 -0.5366
  694SOL    HW1 2780   2.080   4.883   2.435  0.9190  0.3264 -0.5582
  694SOL    HW2 2781   1.961   4.971   2.402  0.5009 -0.2512 -0.6012
  695SOL     OW 2782   1.140   4.442   4.874 -0.2142  1.1575 -0.2215
  695SOL    HW1 2783   1.178   4.389   4.804  0.8515 -0.5279  1.5441
  695SOL    HW2 2784   1.136   4.531   4.837 -0.0831  0.2712 -2.5325
  696SOL     OW 2785   1.772   1.476   0.191 -0.2471 -0.4006 -0.5082
  696SOL    HW1 2786   1.729   1.554   0.156  0.6504  0.6719  0.6768
  696SOL    HW2 2787   1.820   1.507   0.268  1.0603 -1.9072 -0.6538
  697SOL     OW 2788   4.240   2.441   5.195  0.1982  0.2684  0.3130
  697SOL    HW1 2789   4.277   2.475   5.114  0.5160  0.7504  0.6479
  697SOL    HW2 2790   4.300   2.372   5.223  0.2671  0.3266  0.3081
  698SOL     OW 2791   3.216   3.542   3.813  0.0242 -0.0180  0.1569
  698SOL    HW1 2792   3.154   3.473   3.838  0.2379 -0.7360 -1.2279
  698SOL    HW2 2793   3.206   3.550   3.718  1.7781  0.1208 -0.0399
  699SOL     OW 2794   0.374   3.940   4.852 -0.0767  0.3947  0.4298
  699SOL    HW1 2795   0.326   3.965   4.930 -1.7455 -1.4611  0.0843
  699SOL    HW2 2796   0.457   3.904   4.886  0.8170  2.8588  1.0711
  700SOL     OW 2797   1.843   5.254   3.870  0.3579  0.2286 -0.1928
  700SOL    HW1 2798   1.906   5.220   3.807  0.0468 -0.8044  0.0414
  700SOL    HW2 2799   1.841   5.189   3.940 -1.7211 -0.3218 -0.6871
  701SOL     OW 2800   3.912   2.625   1.970  0.6421  0.3416  0.0494
  701SOL    HW1 2801   3.904   2.606   2.063  1.0058  2.3195  0.5158
  701SOL    HW2 2802   4.005   2.644   1.957  0.4096  1.1483 -0.4946
  702SOL     OW 2803   4.629   2.976   2.894 -0.1079  0.2430 -0.3215
  702SOL    HW1 2804   4.578   2.984   2.814 -0.6524  1.3599  0.1200
  702SOL    HW2 2805   4.595   3.044   2.952  0.3850 -0.4295  0.8033
  703SOL     OW 2806   3.543   1.027   5.286 -0.3671 -0.2366  0.1729
  703SOL    HW1 2807   3.488   0.977   5.346  0.4271 -1.5015 -0.1182
  703SOL    HW2 2808   3.628   1.032   5.328 -0.4812  1.0859  0.2901
  704SOL     OW 2809   1.127   2.415   1.198 -0.3860  0.5228  0.2237
  704SOL    HW1 2810   1.083   2.499   1.184 -0.5264  0.2841 -0.8139
  704SOL    HW2 2811   1.060   2.360   1.239 -1.5114 -0.2237 -2.4533
  705SOL     OW 2812   5.274   2.357   3.944 -0.6669 -1.0054  0.1524
  705SOL    HW1 2813   5.184   2.334   3.921 -0.7379 -0.4777 -0.1155
  705SOL    HW2 2814   5.283   2.448   3.917 -0.9062 -0.1512  2.7201
  706SOL     OW 2815   2.454   3.696   0.272  0.1332  0.1478 -0.5614
  706SOL    HW1 2816   2.474   3.675   0.181  1.0031  0.6622 -0.4972
  706SOL    HW2 2817   2.531   3.669   0.320  0.8022  2.3008 -0.3149
  707SOL     OW 2818   4.960   1.094   0.306  0.1990 -0.0348 -0.2640
  707SOL    HW1 2819   5.043   1.053   0.331 -0.0796 -1.8589 -2.0724
  707SOL    HW2 2820   4.894   1.046   0.356  0.0698 -0.0358 -0.4371
  708SOL     OW 2821   2.946   1.647   3.048 -0.1224 -0.0923 -0.5674
  708SOL    HW1 2822   2.869   1.655   3.104 -1.6420 -2.5148 -2.1021
  708SOL    HW2 2823   3.019   1.636   3.109 -1.6809 -2.5084  1.0465
  709SOL     OW 2824   1.648   3.074   4.684 -0.1490 -0.4277 -0.2427
  709SOL    HW1 2825   1.623   3.163   4.706 -0.6808 -0.7406  0.4593
  709SOL    HW2 2826   1.741   3.069   4.703  0.0855  0.2249 -1.1417
  710SOL     OW 2827   4.912   0.718   3.651 -0.1133 -0.7818  0.2430
  710SOL    HW1 2828   4.900   0.795   3.595 -0.1965 -1.3622 -0.5544
  710SOL    HW2 2829   4.977   0.665   3.605  0.3340 -0.9477  1.0496
  711SOL     OW 2830   3.294   4.291   4.695  0.6375 -0.0108 -0.4012
  711SOL    HW1 2831   3.335   4.368   4.655  0.1200  0.2418 -0.4508
  711SOL    HW2 2832   3.239   4.255   4.625 -0.3944  0.5230  0.1104
  712SOL     OW 2833   2.850   2.578   2.814  0.7584  0.7498 -0.6033
  712SOL    HW1 2834   2.755   2.592   2.816  0.8700  1.4338  0.1008
  712SOL    HW2 2835   2.861   2.486   2.839  0.2189  0.3029 -1.9164
  713SOL     OW 2836   2.313   1.599   2.277  0.0028  0.0602 -0.1330
  713SOL    HW1 2837   2.226   1.610   2.315  0.1251 -0.3584  0.2753
  713SOL    HW2 2838   2.307   1.640   2.191 -0.1978  1.2558  0.4376
  714SOL     OW 2839   0.872   2.368   2.835  0.2234  0.4717 -0.2486
  714SOL    HW1 2840   0.864   2.300   2.902 -0.7460  0.2964 -0.5371
  714SOL    HW2 2841   0.782   2.389   2.811  0.5599 -0.1673 -2.2107
  715SOL     OW 2842   0.098   4.508   0.386 -0.4954 -0.3907  0.4114
  715SOL    HW1 2843   0.018   4.459   0.403 -1.3819  0.3810 -1.3042
  715SOL    HW2 2844   0.099   4.522   0.291  1.5468 -0.1367  0.4120
  716SOL     OW 2845   2.629   1.502   3.922  0.1080  0.2311  0.1504
  716SOL    HW1 2846   2.576   1.423   3.935 -2.0837  0.8873 -3.4412
  716SOL    HW2 2847   2.664   1.493   3.833 -0.4058  3.3166 -0.4704
  717SOL     OW 2848   3.310   1.920   3.391 -0.1812  0.1057  0.0752
  717SOL    HW1 2849   3.291   1.902   3.298  0.8589  1.1359 -0.3573
  717SOL    HW2 2850   3.231   1.964   3.423 -0.8032 -0.8143 -0.1274
  718SOL     OW 2851   1.166   1.254   0.205  0.1181 -0.1086 -0.3284
  718SOL    HW1 2852   1.088   1.256   0.149 -1.3005  1.5982  1.5312
  718SOL    HW2 2853   1.218   1.329   0.177  0.7692 -0.8405 -1.1106
  719SOL     OW 2854   3.117   1.075   2.002 -0.1566  0.4148  0.3598
  719SOL    HW1 2855   3.132   1.158   2.046  0.6234  0.2476  0.4265
  719SOL    HW2 2856   3.134   1.009   2.070  0.1661  0.1814  0.0546
  720SOL     OW 2857   0.472   0.675   3.713  0.1041  0.0628 -0.0600
  720SOL    HW1 2858   0.400   0.641   3.765  0.0057 -1.5723 -1.1869
  720SOL    HW2 2859   0.437   0.683   3.624  0.7291  1.2369 -0.2303
  721SOL     OW 2860   0.531   0.983   3.670  0.0814 -0.2510 -0.2037
  721SOL    HW1 2861   0.460   0.961   3.730 -1.2941  0.9956 -1.2832
  721SOL    HW2 2862   0.518   0.926   3.595 -0.5228  0.7629 -0.8991
  722SOL     OW 2863   3.304   4.742   1.256 -0.2003 -0.2668  0.6374
  722SOL    HW1 2864   3.396   4.760   1.237 -0.6097  0.6867 -0.6011
  722SOL    HW2 2865   3.296   4.647   1.249  0.4590 -0.2571 -0.3882
  723SOL     OW 2866   3.833   0.033   4.592  0.0695 -0.1565  0.3316
  723SOL    HW1 2867   3.797  -0.051   4.564  1.1633 -0.4834 -0.1775
  723SOL    HW2 2868   3.758   0.093   4.593 -0.3826 -0.6329 -1.3514
  724SOL     OW 2869   3.394   3.998   0.828 -0.4377  0.2575  0.1561
  724SOL    HW1 2870   3.428   3.989   0.739 -0.2232  1.9903  0.0185
  724SOL    HW2 2871   3.317   3.942   0.830 -0.0324 -0.3714 -0.8893
  725SOL     OW 2872   4.787   4.413   1.052  0.0095  0.2176 -0.2100
  725SOL    HW1 2873   4.872   4.414   1.007  1.5341  1.6627  2.4652
  725SOL    HW2 2874   4.784   4.329   1.097  1.5121  1.2990  2.1017
  726SOL     OW 2875   1.102   0.609   0.676  0.9448  0.5488 -0.0739
  726SOL    HW1 2876   1.182   0.661   0.685 -0.1132  2.2422 -0.0006
  726SOL    HW2 2877   1.089   0.600   0.581  0.8666  0.8569 -0.0928
  727SOL     OW 2878   1.733   2.927   1.889 -0.2876  0.1135  0.5952
  727SOL    HW1 2879   1.776   2.939   1.804 -0.9088  0.3930  0.3123
  727SOL    HW2 2880   1.640   2.933   1.869 -0.4601 -0.4089  1.2093
  728SOL     OW 2881   4.858   4.884   5.097 -0.3662 -0.1789  0.1580
  728SOL    HW1 2882   4.925   4.913   5.035 -0.6393  2.1623  0.8501
  728SOL    HW2 2883   4.904   4.874   5.180 -0.6118  0.0633  0.3264
  729SOL     OW 2884   2.854   1.365   0.067  0.2839  0.2638 -0.5480
  729SOL    HW1 2885   2.844   1.460   0.076 -0.0717  0.2699 -1.0014
  729SOL    HW2 2886   2.917   1.354  -0.004  2.0087  0.1861  0.9072
  730SOL     OW 2887   0.630   0.367   4.017 -0.0764  0.3745  0.7190
  730SOL    HW1 2888   0.712   0.403   4.051  0.4488  0.3006 -0.4009
  730SOL    HW2 2889   0.636   0.380   3.922  1.7388 -5.4694 -0.3822
  731SOL     OW 2890   1.508   0.349   1.911  0.0539  0.1497  0.2312
  731SOL    HW1 2891   1.593   0.393   1.902  0.2043 -0.0695  0.5501
  731SOL    HW2 2892   1.523   0.282   1.978  0.3634 -1.6911 -1.5891
  732SOL     OW 2893   3.078   1.502   1.955  0.6765  0.2406  0.4206
  732SOL    HW1 2894   3.110   1.463   1.873 -0.3361  1.2007 -0.4532
  732SOL    HW2 2895   3.115   1.590   1.955  0.6237  0.2621  0.9806
  733SOL     OW 2896   4.282   1.161   1.680  0.2918  0.0380  0.5105
  733SOL    HW1 2897   4.354   1.200   1.729 -0.6694 -1.0129  2.9060
  733SOL    HW2 2898   4.203   1.194   1.723 -0.5713 -2.1029  0.7076
  734SOL     OW 2899   4.151   5.248   1.215 -0.4330  0.5564 -0.0526
  734SOL    HW1 2900   4.221   5.204   1.263 -1.4157 -1.3041 -0.2297
  734SOL    HW2 2901   4.193   5.325   1.177  1.5248 -0.4884 -0.1355
  735SOL     OW 2902   1.380   0.437   5.187  0.3104 -0.3386 -0.1265
  735SOL    HW1 2903   1.401   0.445   5.280  2.3209 -1.2873 -0.4507
  735SOL    HW2 2904   1.391   0.525   5.151  1.2168 -0.3024  0.2264
  736SOL     OW 2905   3.217   4.438   0.288 -0.8878  0.3857 -0.3312
  736SOL    HW1 2906   3.206   4.372   0.356  0.1757  0.6458  0.1162
  736SOL    HW2 2907   3.258   4.391   0.215  0.5743  0.6780  0.2669
  737SOL     OW 2908   5.266   4.800   4.452  0.1888 -0.4354 -0.5639
  737SOL    HW1 2909   5.254   4.889   4.484  0.6437 -0.1984 -1.0419
  737SOL    HW2 2910   5.249   4.805   4.358 -0.0730 -0.9134 -0.5479
  738SOL     OW 2911   0.134   1.370   4.702 -0.5502  0.0109 -0.0552
  738SOL    HW1 2912   0.044   1.338   4.701 -0.6292  0.2258 -1.3542
  738SOL    HW2 2913   0.187   1.296   4.673 -0.2073 -0.3122  1.2951
  739SOL     OW 2914   1.066   1.806   1.856  0.6066 -0.2092 -0.0164
  739SOL    HW1 2915   1.042   1.899   1.863 -0.2969 -0.5644  2.3525
  739SOL    HW2 2916   1.152   1.807   1.814  0.8470  1.7369  0.4269
  740SOL     OW 2917   4.829   2.990   1.800 -0.3800  0.2909 -0.0434
  740SOL    HW1 2918   4.844   2.896   1.794 -0.0562  0.4197 -3.2727
  740SOL    HW2 2919   4.914   3.029   1.779 -0.7256  1.2976  0.3540
  741SOL     OW 2920   0.659   0.652   4.211  0.5494  0.0408  0.2776
  741SOL    HW1 2921   0.742   0.670   4.254  0.0385  0.1140  1.2659
  741SOL    HW2 2922   0.660   0.557   4.197  0.5282 -0.0597  0.8994
  742SOL     OW 2923   5.197   2.417   4.697  0.0947  0.2726  0.4819
  742SOL    HW1 2924   5.280   2.413   4.744 -0.0025 -0.9351  0.5794
  742SOL    HW2 2925   5.196   2.338   4.643 -0.0040  1.3940 -1.2305
  743SOL     OW 2926   1.888   3.572   0.474 -0.1418  0.0479  0.1277
  743SOL    HW1 2927   1.844   3.657   0.464  0.8737  0.6836  0.8535
  743SOL    HW2 2928   1.851   3.517   0.405 -1.6796  0.7124  0.3842
  744SOL     OW 2929   2.281   4.269   2.225  0.2513 -0.2774 -0.3005
  744SOL    HW1 2930   2.310   4.306   2.141 -0.8144 -0.6503 -0.8446
  744SOL    HW2 2931   2.203   4.218   2.203 -0.5866  0.3598  1.0460
  745SOL     OW 2932   4.910   2.470   4.792 -0.2275  0.2164 -0.6589
  745SOL    HW1 2933   4.976   2.422   4.841 -0.1628 -1.5003 -2.3076
  745SOL    HW2 2934   4.829   2.454   4.840 -0.2442 -1.7834 -1.2402
  746SOL     OW 2935   3.430   2.763   0.437  0.7240  0.4530 -0.2380
  746SOL    HW1 2936   3.370   2.809   0.496  1.0354  1.1804 -0.4677
  746SOL    HW2 2937   3.414   2.670   0.452 -0.4922  0.6394 -0.3278
  747SOL     OW 2938   1.406   3.864   2.000 -0.7908 -0.4893 -0.3354
  747SOL    HW1 2939   1.421   3.778   2.039 -1.3033  0.2183  1.5146
  747SOL    HW2 2940   1.484   3.914   2.022 -0.6181 -0.3712 -1.1681
  748SOL     OW 2941   0.682   4.138   2.449 -0.7120 -0.2036  0.7220
  748SOL    HW1 2942   0.625   4.113   2.522 -0.9542 -0.8845  0.3026
  748SOL    HW2 2943   0.762   4.169   2.491 -1.3683  0.7441  1.3240
  749SOL     OW 2944   4.614   3.452   2.435 -0.1153 -0.2812 -0.7923
  749SOL    HW1 2945   4.700   3.460   2.476  0.7945  1.8069 -2.9123
  749SOL    HW2 2946   4.577   3.540   2.440 -1.4394 -0.7803 -1.3615
  750SOL     OW 2947   3.823   1.762   3.568  0.0264  0.4762  0.5357
  750SOL    HW1 2948   3.855   1.672   3.565 -1.6276 -0.1538  0.7322
  750SOL    HW2 2949   3.751   1.760   3.631 -1.5638  1.4085 -1.1622
  751SOL     OW 2950   3.490   1.910   4.267 -0.2921  0.0431  0.3007
  751SOL    HW1 2951   3.401   1.946   4.272  0.2002  1.4112 -0.1954
  751SOL    HW2 2952   3.527   1.950   4.189  1.0544  0.1936  0.9891
  752SOL     OW 2953   1.568   3.325   0.626 -0.4353 -0.1009 -0.3145
  752SOL    HW1 2954   1.507   3.298   0.557 -0.1151  1.2607 -1.1725
  752SOL    HW2 2955   1.653   3.294   0.595 -0.3487  0.1417 -0.3145
  753SOL     OW 2956   0.104   5.029   4.897  0.4638 -0.5205 -0.0751
  753SOL    HW1 2957   0.192   4.998   4.876 -0.4151 -3.0632 -0.4134
  753SOL    HW2 2958   0.111   5.062   4.987  2.0190  0.6877 -0.5930
  754SOL     OW 2959   2.632   0.279   3.470  0.2502 -0.2051  0.5012
  754SOL    HW1 2960   2.715   0.323   3.449  0.2869 -0.8993 -0.9517
  754SOL    HW2 2961   2.641   0.192   3.432 -1.1561 -0.2793  0.3058
  755SOL     OW 2962   4.208   4.548   3.599 -0.6765  0.5636 -0.0929
  755SOL    HW1 2963   4.164   4.540   3.684 -0.8613  2.5462  0.0461
  755SOL    HW2 2964   4.269   4.621   3.610  0.1512  0.1035 -1.3346
  756SOL     OW 2965   3.164   1.848   2.222 -0.2832 -0.2681  0.2067
  756SOL    HW1 2966   3.113   1.875   2.299 -0.3911 -0.8507  0.3435
  756SOL    HW2 2967   3.214   1.926   2.198  1.4897 -0.6884  2.2337
  757SOL     OW 2968   4.478   1.494   0.024 -0.0880 -0.2010  0.3945
  757SOL    HW1 2969   4.568   1.470   0.045 -0.5148 -1.2541  1.1307
  757SOL    HW2 2970   4.435   1.410   0.008 -0.7213  0.3478 -0.8842
  758SOL     OW 2971   1.389   1.091   4.627 -0.0191 -0.0527 -0.0088
  758SOL    HW1 2972   1.466   1.119   4.677  0.3004  0.6221 -0.8536
  758SOL    HW2 2973   1.375   1.000   4.654  0.5835  0.0646  0.7526
  759SOL     OW 2974   4.830   5.377   1.026 -0.1455  0.4143  0.5237
  759SOL    HW1 2975   4.914   5.398   1.067  0.6119  0.2603 -0.8904
  759SOL    HW2 2976   4.793   5.462   1.003  0.6657  0.4323 -0.8186
  760SOL     OW 2977   3.643   3.365   1.490 -0.4654  0.5166  0.2044
  760SOL    HW1 2978   3.730   3.366   1.530 -0.2539  2.4635 -0.2199
  760SOL    HW2 2979   3.637   3.279   1.448  0.3562 -0.5207  2.0844
  761SOL     OW 2980   1.870   1.178   2.349  0.2858  0.2456  0.1932
  761SOL    HW1 2981   1.889   1.150   2.439 -0.3233  0.4809  0.4034
  761SOL    HW2 2982   1.846   1.270   2.358 -2.6295 -0.4251  0.2122
  762SOL     OW 2983   4.456   4.079   3.007  0.0683 -0.0597  0.3136
  762SOL    HW1 2984   4.535   4.027   3.016  0.3657  0.3081 -0.1619
  762SOL    HW2 2985   4.421   4.084   3.096 -0.0634 -1.2101  0.3432
  763SOL     OW 2986   1.937   4.465   4.864  0.7327  0.1063  0.1881
  763SOL    HW1 2987   1.897   4.503   4.941  0.0967 -0.7345  0.2952
  763SOL    HW2 2988   1.906   4.374   4.863  0.4790  0.1719 -1.2041
  764SOL     OW 2989   4.763   0.191   2.689 -0.1002 -0.0242  0.6026
  764SOL    HW1 2990   4.733   0.202   2.599 -2.1929  0.3674  1.2986
  764SOL    HW2 2991   4.828   0.261   2.701 -0.5419  0.5563 -0.3015
  765SOL     OW 2992   4.227   0.587   4.258 -1.2348 -0.3921 -0.4797
  765SOL    HW1 2993   4.294   0.655   4.256 -1.2360 -0.4001 -1.4404
  765SOL    HW2 2994   4.277   0.505   4.265 -1.1805 -0.3550 -0.4333
  766SOL     OW 2995   2.532   1.668   0.225  0.5570  0.0677 -0.5624
  766SOL    HW1 2996   2.489   1.696   0.145 -3.1257  1.7387  1.7349
  766SOL    HW2 2997   2.593   1.739   0.246 -1.8334  1.9920  0.3336
  767SOL     OW 2998   0.504   3.513   1.576 -0.0465  0.9495  0.4546
  767SOL    HW1 2999   0.412   3.488   1.560  0.4348 -0.2918 -0.5733
  767SOL    HW2 3000   0.499   3.579   1.645 -1.6621  0.3515  0.9625
  768SOL     OW 3001   4.453   2.339   4.103 -0.0776  0.0297  0.1866
  768SOL    HW1 3002   4.414   2.303   4.024  1.2234  1.5480 -1.2109
  768SOL    HW2 3003   4.531   2.285   4.118  0.5049  0.6746 -0.4653
  769SOL     OW 3004   3.771   5.173   2.253  0.1788  0.0294 -0.1418
  769SOL    HW1 3005   3.853   5.184   2.206  0.5790  1.1955  0.7838
  769SOL    HW2 3006   3.764   5.251   2.309 -0.5172 -1.0512  1.3535
  770SOL     OW 3007   4.654   0.311   0.339  0.1516  0.6260  0.0747
  770SOL    HW1 3008   4.586   0.373   0.364  0.3001  0.0823  1.9377
  770SOL    HW2 3009   4.679   0.267   0.420 -0.1275 -2.0948 -1.1833
  771SOL     OW 3010   4.776   0.373   1.313 -0.1399  0.7765 -0.3613
  771SOL    HW1 3011   4.681   0.368   1.300 -0.1020 -1.2601 -0.1358
  771SOL    HW2 3012   4.801   0.286   1.343  1.3621  2.1153  2.7611
  772SOL     OW 3013   3.524   1.794   4.631  0.5144 -0.1555  0.0848
  772SOL    HW1 3014   3.454   1.732   4.654  0.6014 -0.4750 -0.4920
  772SOL    HW2 3015   3.585   1.789   4.704  0.7545 -1.1086 -0.1670
  773SOL     OW 3016   1.782   1.781   2.996 -0.6080  0.2229 -0.1790
  773SOL    HW1 3017   1.838   1.709   2.967  0.4428 -0.2977  2.7595
  773SOL    HW2 3018   1.694   1.744   2.995 -0.3530 -0.3972 -0.6884
  774SOL     OW 3019   1.519   2.428   4.607 -0.0477  0.0322 -0.0671
  774SOL    HW1 3020   1.474   2.465   4.531  0.3054  0.4052 -0.0975
  774SOL    HW2 3021   1.454   2.431   4.677 -0.2791 -0.0411 -0.2758
  775SOL     OW 3022   1.062   1.016   0.669 -0.1263 -0.1786  0.2389
  775SOL    HW1 3023   1.150   1.026   0.634 -0.4774  2.9319 -0.0220
  775SOL    HW2 3024   1.015   0.966   0.601  0.7368  0.5688 -0.9431
  776SOL     OW 3025   1.941   3.537   3.684 -0.2054 -0.4886 -0.2157
  776SOL    HW1 3026   1.998   3.613   3.683 -0.9341  0.0791  0.3471
  776SOL    HW2 3027   1.853   3.573   3.694 -0.7944 -1.2791 -2.2068
  777SOL     OW 3028   3.602   4.702   4.210  0.3646  0.2060 -0.1277
  777SOL    HW1 3029   3.535   4.703   4.141  1.1039 -2.2790 -0.9740
  777SOL    HW2 3030   3.679   4.741   4.169 -0.1394  1.8818  0.4410
  778SOL     OW 3031   2.593   1.423   5.219 -0.0395  0.7565 -0.1565
  778SOL    HW1 3032   2.658   1.488   5.245 -0.7953  1.6146 -0.3893
  778SOL    HW2 3033   2.521   1.474   5.181 -0.7495 -0.1927 -0.1215
  779SOL     OW 3034   2.041   5.187   3.693 -0.0242  0.0475  0.1601
  779SOL    HW1 3035   2.052   5.097   3.723 -0.5215 -0.0006  0.1947
  779SOL    HW2 3036   2.018   5.180   3.601  0.2646  0.1515  0.0801
  780SOL     OW 3037   0.047   0.192   1.680 -0.3994  0.5605  0.0085
  780SOL    HW1 3038   0.111   0.246   1.727 -1.3052  2.1238 -0.4760
  780SOL    HW2 3039   0.084   0.182   1.592 -0.8458  1.5885 -0.3162
  781SOL     OW 3040   2.203   1.547   0.919 -0.0195 -0.4377  0.4030
  781SOL    HW1 3041   2.195   1.452   0.934  1.6746 -0.8404 -0.8722
  781SOL    HW2 3042   2.218   1.555   0.825 -1.1184  1.2024  0.3466
  782SOL     OW 3043   3.349   2.109   2.365  0.0095 -0.0085 -0.3158
  782SOL    HW1 3044   3.426   2.088   2.419 -0.9099  0.7100  1.3676
  782SOL    HW2 3045   3.365   2.065   2.282  2.9233  1.2877 -0.5774
  783SOL     OW 3046   2.143   2.771   4.220  0.2097  0.5775 -0.4460
  783SOL    HW1 3047   2.061   2.822   4.212  0.6062  1.4116  0.5902
  783SOL    HW2 3048   2.115   2.685   4.251 -0.6293 -0.3979 -3.5522
  784SOL     OW 3049   0.668   0.501   2.638 -0.0464 -0.4553  1.2783
  784SOL    HW1 3050   0.727   0.469   2.570 -0.3368 -0.1612  0.8824
  784SOL    HW2 3051   0.721   0.501   2.718  0.4743 -0.2401  0.9389
  785SOL     OW 3052   0.392   4.481   3.426 -0.3744  0.2944 -0.4511
  785SOL    HW1 3053   0.432   4.537   3.492 -0.2487 -0.3057 -0.0089
  785SOL    HW2 3054   0.379   4.538   3.350  1.6936  0.4216 -0.7638
  786SOL     OW 3055   5.228   0.645   4.621 -0.6386 -0.2255  0.0651
  786SOL    HW1 3056   5.275   0.712   4.571 -0.6694 -0.8289 -0.7972
  786SOL    HW2 3057   5.292   0.575   4.632 -1.1430 -0.8020 -0.6001
  787SOL     OW 3058   4.744   1.529   1.618  0.2193 -0.2885 -0.1459
  787SOL    HW1 3059   4.789   1.613   1.617  0.5358 -0.4501  0.2556
  787SOL    HW2 3060   4.680   1.536   1.689 -1.1907  0.3466 -1.4420
  788SOL     OW 3061   4.579   1.511   2.542 -0.1480  0.3333 -0.2008
  788SOL    HW1 3062   4.609   1.602   2.531  0.2965  0.2850  0.5175
  788SOL    HW2 3063   4.658   1.462   2.560 -0.0721 -0.6227 -2.7695
  789SOL     OW 3064   1.045   0.081   1.049 -0.0360 -0.1268  0.3939
  789SOL    HW1 3065   1.118   0.088   1.109  0.8732  0.5403 -0.7570
  789SOL    HW2 3066   1.083   0.052   0.966 -0.9254  0.9614 -0.4482
  790SOL     OW 3067   3.988   5.096   5.391 -0.0502  0.5785 -0.2480
  790SOL    HW1 3068   4.082   5.106   5.408 -0.3735  1.4535  1.2547
  790SOL    HW2 3069   3.955   5.049   5.469 -0.5409 -1.7175 -1.7373
  791SOL     OW 3070   4.536   2.563   2.905  0.3408 -0.2221  0.2612
  791SOL    HW1 3071   4.544   2.601   2.993 -1.4033  0.6438  0.0908
  791SOL    HW2 3072   4.492   2.479   2.919  0.3901 -0.2506  0.2461
  792SOL     OW 3073   1.211   0.009   2.275 -0.4173 -0.4315  0.2472
  792SOL    HW1 3074   1.239  -0.082   2.267 -0.6286 -0.4870  0.1187
  792SOL    HW2 3075   1.142   0.018   2.209  0.3311  0.1119 -0.4638
  793SOL     OW 3076   4.262   3.228   0.402 -0.0005 -0.5022  0.4728
  793SOL    HW1 3077   4.268   3.321   0.426  1.3412 -0.3487 -0.3510
  793SOL    HW2 3078   4.213   3.228   0.320  2.3029 -0.1827 -1.0139
  794SOL     OW 3079   4.258   4.377   0.350 -0.4253 -0.4475 -0.1226
  794SOL    HW1 3080   4.200   4.387   0.426  0.5059  0.1576  0.5317
  794SOL    HW2 3081   4.205   4.331   0.285 -1.5912 -0.0260  0.5035
  795SOL     OW 3082   0.490   0.259   1.134  0.1463 -0.0085  0.8194
  795SOL    HW1 3083   0.536   0.322   1.190  0.1652 -0.9039  1.8569
  795SOL    HW2 3084   0.441   0.312   1.072 -0.4118  1.0593  2.1288
  796SOL     OW 3085   1.424   2.336   2.355 -0.3844 -0.0288  0.6723
  796SOL    HW1 3086   1.445   2.257   2.403 -2.3946 -0.6679  0.6013
  796SOL    HW2 3087   1.338   2.319   2.317  0.1402  1.3051 -1.2872
  797SOL     OW 3088   0.108   4.027   0.170  0.6048  0.3510 -0.4477
  797SOL    HW1 3089   0.147   3.980   0.097  1.2794  0.5594 -0.2365
  797SOL    HW2 3090   0.178   4.085   0.201  0.6642 -0.4144  0.9604
  798SOL     OW 3091   1.849   2.536   0.414  1.0691 -0.2641  0.1153
  798SOL    HW1 3092   1.916   2.590   0.458 -0.5784  0.6409  1.6639
  798SOL    HW2 3093   1.895   2.454   0.393  2.5839  0.1776  1.4319
  799SOL     OW 3094   0.604   0.896   1.251 -0.2555 -0.1665  0.2000
  799SOL    HW1 3095   0.509   0.880   1.254 -0.2354 -0.2030  0.9565
  799SOL    HW2 3096   0.611   0.991   1.247 -0.3256 -0.1404  0.6089
  800SOL     OW 3097   4.705   2.406   0.771 -0.3148  0.0961  0.1507
  800SOL    HW1 3098   4.700   2.350   0.848 -0.4176 -0.6081 -0.3606
  800SOL    HW2 3099   4.656   2.485   0.795 -0.5033 -0.1937  0.7323
  801SOL     OW 3100   4.598   4.167   4.463  0.1662  0.4423 -0.5777
  801SOL    HW1 3101   4.558   4.242   4.419 -2.1544 -0.3132  0.0726
  801SOL    HW2 3102   4.686   4.197   4.487  0.2289  2.0546 -2.5326
  802SOL     OW 3103   0.876   3.574   0.169  0.6799 -0.0557  0.4475
  802SOL    HW1 3104   0.830   3.612   0.244  3.2801  0.7408  1.7631
  802SOL    HW2 3105   0.859   3.634   0.097  0.7448  0.9540  1.2543
  803SOL     OW 3106   4.314   3.986   2.789 -0.1000 -0.0966  0.0269
  803SOL    HW1 3107   4.220   4.003   2.790 -0.5720 -2.4049  0.5944
  803SOL    HW2 3108   4.343   4.008   2.878 -0.1633  0.2826 -0.0447
  804SOL     OW 3109   2.823   2.045   2.548  0.2111  0.4468 -0.0598
  804SOL    HW1 3110   2.779   2.126   2.524 -0.2928  0.3177  0.4089
  804SOL    HW2 3111   2.761   2.000   2.606  0.7916  0.0809  0.2890
  805SOL     OW 3112   2.045   3.601   1.148 -0.6165  0.1080 -0.1369
  805SOL    HW1 3113   2.119   3.540   1.154 -0.5931  0.1161 -0.3436
  805SOL    HW2 3114   2.046   3.631   1.057 -1.9538 -1.2507 -0.6435
  806SOL     OW 3115   3.903   5.018   4.807  0.0284  0.0748  1.2159
  806SOL    HW1 3116   3.998   5.019   4.815 -0.0571  3.1478  4.3426
  806SOL    HW2 3117   3.873   4.965   4.880 -0.6005  1.3653  1.9450
  807SOL     OW 3118   1.493   2.445   3.102  0.3396 -0.5155  0.7108
  807SOL    HW1 3119   1.496   2.408   3.014  0.3238  0.1734  0.4199
  807SOL    HW2 3120   1.401   2.435   3.129  0.0504  0.4852  0.1236
  808SOL     OW 3121   0.485   3.463   2.855 -0.2513  0.0231  0.1778
  808SOL    HW1 3122   0.543   3.539   2.861 -0.8772  0.5082  0.1185
  808SOL    HW2 3123   0.402   3.498   2.822 -0.2764 -0.8295 -0.6985
  809SOL     OW 3124   2.456   0.279   2.965  0.0869  0.3545  0.2060
  809SOL    HW1 3125   2.495   0.226   3.035 -0.7401 -1.2984 -0.5176
  809SOL    HW2 3126   2.382   0.227   2.935 -0.7063  1.9129 -0.6416
  810SOL     OW 3127   1.569   4.062   5.248  0.0840 -0.3350  0.6879
  810SOL    HW1 3128   1.629   4.023   5.312  2.1159  1.0787 -0.2191
  810SOL    HW2 3129   1.585   4.013   5.167 -1.4121 -1.1673  0.8585
  811SOL     OW 3130   3.097   0.047   0.250 -0.2296  0.0961 -0.4379
  811SOL    HW1 3131   3.050   0.129   0.236 -1.3788 -0.6165 -0.8996
  811SOL    HW2 3132   3.176   0.055   0.199 -0.9673  0.4005 -1.5615
  812SOL     OW 3133   0.330   3.168   5.085  0.1235  0.0211  0.2140
  812SOL    HW1 3134   0.235   3.168   5.101 -0.0635 -0.7552 -0.7531
  812SOL    HW2 3135   0.339   3.133   4.996  1.1792  2.5342 -0.7486
  813SOL     OW 3136   3.351   1.869   5.147  0.0418  0.0646 -0.0265
  813SOL    HW1 3137   3.386   1.808   5.082  0.3150 -0.8257  0.9364
  813SOL    HW2 3138   3.413   1.942   5.148  0.3934 -0.2301 -0.2871
  814SOL     OW 3139   5.272   4.606   1.941  0.3057  0.2839  0.2380
  814SOL    HW1 3140   5.365   4.629   1.943 -0.5098  5.1239 -1.9967
  814SOL    HW2 3141   5.233   4.657   2.012 -0.9612  0.6963 -0.7163
  815SOL     OW 3142   2.703   0.420   1.736 -0.6573  0.4099  0.1813
  815SOL    HW1 3143   2.765   0.395   1.667 -0.4758  0.9046  0.1562
  815SOL    HW2 3144   2.703   0.516   1.733 -1.5457  0.4095  0.0765
  816SOL     OW 3145   4.370   4.553   1.463  0.6019 -0.9566  0.0974
  816SOL    HW1 3146   4.275   4.556   1.451  0.4074 -1.1105  1.4465
  816SOL    HW2 3147   4.393   4.462   1.445  0.7589 -0.5938 -1.7910
  817SOL     OW 3148   3.083   4.903   5.108 -0.3143  0.0227  0.0749
  817SOL    HW1 3149   3.081   4.884   5.014  0.0046  0.8141 -0.0915
  817SOL    HW2 3150   3.135   4.831   5.145 -0.3855 -0.2570 -0.3578
  818SOL     OW 3151   4.354   1.387   4.360 -0.0018  0.6171  0.3170
  818SOL    HW1 3152   4.304   1.352   4.286 -0.9371  0.4780  0.9983
  818SOL    HW2 3153   4.436   1.417   4.321  0.0787 -0.6611 -0.5699
  819SOL     OW 3154   4.046   4.242   4.415  0.2110 -0.5621 -0.1544
  819SOL    HW1 3155   4.012   4.240   4.505 -0.2974 -0.9147 -0.3477
  819SOL    HW2 3156   4.123   4.299   4.420 -0.4620  0.3303  0.2779
  820SOL     OW 3157   1.007   4.375   1.954  0.1170 -0.2413 -0.2595
  820SOL    HW1 3158   0.993   4.469   1.938 -3.6861  0.0746  3.2316
  820SOL    HW2 3159   0.930   4.333   1.916  1.3741 -1.9435 -1.0474
  821SOL     OW 3160   3.943   3.435   5.152 -0.1769  0.2505 -0.2721
  821SOL    HW1 3161   3.878   3.488   5.198  1.6458  1.7544  0.6806
  821SOL    HW2 3162   3.957   3.480   5.069 -0.9529 -0.5523 -0.8515
  822SOL     OW 3163   2.246   1.155   2.796 -0.3823 -0.3939 -0.1937
  822SOL    HW1 3164   2.322   1.185   2.846 -2.8104  3.6110  1.6140
  822SOL    HW2 3165   2.246   1.210   2.717 -0.5684 -1.4664 -0.9597
  823SOL     OW 3166   3.737   1.235   2.942  0.2909 -0.0573  0.0890
  823SOL    HW1 3167   3.745   1.140   2.940  1.0291  0.0088 -0.5914
  823SOL    HW2 3168   3.826   1.267   2.957 -0.0418  0.5185  0.9375
  824SOL     OW 3169   1.856   0.760   2.820 -0.1563 -0.3778  0.1192
  824SOL    HW1 3170   1.890   0.785   2.735 -1.3574 -0.5542 -0.4318
  824SOL    HW2 3171   1.848   0.664   2.816  0.9511 -0.5260  0.8940
  825SOL     OW 3172   1.946   3.365   2.559 -0.7314 -0.8824  0.0690
  825SOL    HW1 3173   1.871   3.424   2.564 -1.0003 -1.1070 -1.0583
  825SOL    HW2 3174   1.968   3.361   2.466  0.2626 -1.3450  0.3054
  826SOL     OW 3175   2.098   0.801   4.411  0.4808  0.0741  0.2757
  826SOL    HW1 3176   2.087   0.737   4.341  0.4459 -0.3305  0.6493
  826SOL    HW2 3177   2.073   0.754   4.491  0.1917  0.6278  0.5214
  827SOL     OW 3178   2.940   4.152   0.051 -0.0109  0.4237 -0.1879
  827SOL    HW1 3179   2.981   4.113  -0.026  1.1110 -0.0355  0.6066
  827SOL    HW2 3180   2.937   4.246   0.032  0.5002  0.3436 -0.6796
  828SOL     OW 3181   1.591   4.598   5.308 -0.5554  0.3647  0.7002
  828SOL    HW1 3182   1.526   4.654   5.266 -0.6412  0.2640  0.6982
  828SOL    HW2 3183   1.641   4.658   5.364 -0.7279  0.4228  0.7938
  829SOL     OW 3184   3.014   2.800   2.248  0.2168  0.2081  0.3598
  829SOL    HW1 3185   2.937   2.856   2.244  0.0881  0.2084  2.0605
  829SOL    HW2 3186   3.045   2.795   2.157 -1.0909  1.1506 -0.1706
  830SOL     OW 3187   1.752   4.614   4.663 -0.2523  0.3535  0.3227
  830SOL    HW1 3188   1.835   4.569   4.676  0.0684  0.2740 -1.6652
  830SOL    HW2 3189   1.692   4.545   4.633 -0.7146  0.6314  0.5907
  831SOL     OW 3190   2.147   5.208   1.462 -0.7865 -0.9914 -0.0188
  831SOL    HW1 3191   2.100   5.150   1.523 -2.3401 -1.0791 -1.2341
  831SOL    HW2 3192   2.092   5.287   1.459  0.2754 -0.2353  0.1155
  832SOL     OW 3193   0.396   1.011   2.963 -0.4648 -0.9593 -0.0860
  832SOL    HW1 3194   0.327   1.057   2.916 -0.0617  0.3479  0.5501
  832SOL    HW2 3195   0.355   0.982   3.045  0.0365  0.9753  0.8938
  833SOL     OW 3196   1.463   4.701   0.748  0.1918  0.5082 -0.4251
  833SOL    HW1 3197   1.465   4.658   0.663  0.2257  0.3018 -0.3213
  833SOL    HW2 3198   1.478   4.630   0.811 -1.3228  0.3956 -0.1508
  834SOL     OW 3199   4.229   0.576   1.346  0.5623  0.2406  0.0066
  834SOL    HW1 3200   4.227   0.482   1.365  0.3646 -0.0245 -1.2849
  834SOL    HW2 3201   4.187   0.616   1.423  1.2843 -0.6566  0.8893
  835SOL     OW 3202   1.224   4.738   2.641 -0.5749 -0.2734  0.0102
  835SOL    HW1 3203   1.270   4.747   2.724  0.6468 -2.1287 -0.3991
  835SOL    HW2 3204   1.147   4.794   2.650  0.6901  1.3392  1.5033
  836SOL     OW 3205   4.273   2.120   1.928  0.1513  0.4785  0.0457
  836SOL    HW1 3206   4.226   2.203   1.940 -0.5971 -0.0735  1.1288
  836SOL    HW2 3207   4.242   2.087   1.843 -0.8861  0.4812  0.4057
  837SOL     OW 3208   1.569   3.525   5.247 -0.3497  0.1297 -0.1387
  837SOL    HW1 3209   1.517   3.456   5.288 -0.9197  1.4733  1.5062
  837SOL    HW2 3210   1.638   3.545   5.311 -0.3859  1.2942 -0.4401
  838SOL     OW 3211   3.848   1.897   0.570 -0.4965 -0.5093  0.1523
  838SOL    HW1 3212   3.776   1.952   0.602 -1.4299 -0.5335 -1.7663
  838SOL    HW2 3213   3.870   1.841   0.644 -2.7411 -0.7880  0.6997
  839SOL     OW 3214   3.789   4.646   0.522  0.1173 -0.2936  0.1293
  839SOL    HW1 3215   3.822   4.708   0.588 -0.2516  0.9437 -0.7945
  839SOL    HW2 3216   3.717   4.601   0.566 -0.3557  0.7683  0.4894
  840SOL     OW 3217   2.002   0.038   1.557 -0.0311 -0.3357 -0.3296
  840SOL    HW1 3218   2.093   0.052   1.582 -0.1968  0.5345 -0.1988
  840SOL    HW2 3219   1.958   0.119   1.580 -1.0204 -1.0615  0.4349
  841SOL     OW 3220   1.390   0.192   4.798 -0.0705  0.0175  0.0989
  841SOL    HW1 3221   1.404   0.284   4.777 -0.4669  0.1760  0.5187
  841SOL    HW2 3222   1.371   0.191   4.891  2.7687 -0.7818  0.7682
  842SOL     OW 3223   4.604   2.893   0.907 -0.2388  0.4849 -0.4239
  842SOL    HW1 3224   4.518   2.875   0.944  0.0356  0.8200  0.3895
  842SOL    HW2 3225   4.624   2.983   0.934  0.6183  0.2071 -0.1002
  843SOL     OW 3226   3.766   3.039   3.417 -0.5638 -0.3990 -0.3413
  843SOL    HW1 3227   3.790   2.990   3.338  0.6593 -0.2628 -0.0729
  843SOL    HW2 3228   3.799   3.128   3.400  0.6103 -0.6112  0.7201
  844SOL     OW 3229   0.856   1.057   0.856 -0.3064  0.1335  0.0496
  844SOL    HW1 3230   0.847   1.152   0.870 -2.3417 -0.1086  0.8646
  844SOL    HW2 3231   0.911   1.049   0.779  0.2218  1.9764  0.1767
  845SOL     OW 3232   2.636   4.444   1.663 -0.4875  0.2595 -0.4765
  845SOL    HW1 3233   2.576   4.484   1.727  0.2062  2.5553 -1.1684
  845SOL    HW2 3234   2.596   4.463   1.578  0.5581  0.6670 -0.8880
  846SOL     OW 3235   5.194   2.651   4.491 -0.6142 -0.5153 -0.1145
  846SOL    HW1 3236   5.196   2.626   4.398 -0.7585 -0.3119 -0.1732
  846SOL    HW2 3237   5.262   2.718   4.499  0.9923 -2.1337  0.4053
  847SOL     OW 3238   3.390   4.852   4.964  0.4521  0.2871 -0.6384
  847SOL    HW1 3239   3.474   4.851   4.918  1.5954 -0.4702  1.3241
  847SOL    HW2 3240   3.378   4.944   4.989  1.7237  0.1211  0.7342
  848SOL     OW 3241   1.534   4.948   1.024  0.0169  0.2461  0.2699
  848SOL    HW1 3242   1.555   4.857   1.044  1.7786  0.7328  0.8409
  848SOL    HW2 3243   1.611   4.981   0.977 -0.0487  1.7728  1.1584
  849SOL     OW 3244   3.079   0.599   0.875  0.5441  0.0930  0.4146
  849SOL    HW1 3245   3.037   0.675   0.835 -0.7470 -0.5090  0.5450
  849SOL    HW2 3246   3.169   0.601   0.844  0.5404  1.6852  0.4492
  850SOL     OW 3247   1.500   2.564   3.616  0.0501  0.2771 -0.0677
  850SOL    HW1 3248   1.439   2.628   3.578  1.3320  1.6452  0.0548
  850SOL    HW2 3249   1.539   2.521   3.540 -1.5433 -1.1371 -0.1383
  851SOL     OW 3250   1.466   0.835   2.982  0.1808  0.0131 -0.0797
  851SOL    HW1 3251   1.427   0.780   3.050 -1.1961 -0.3975 -1.1538
  851SOL    HW2 3252   1.395   0.851   2.921  1.3224  0.5657 -1.3065
  852SOL     OW 3253   0.401   3.893   0.447  0.1981 -0.1452  0.5687
  852SOL    HW1 3254   0.396   3.944   0.528 -1.9764  0.2093  0.2593
  852SOL    HW2 3255   0.383   3.955   0.377  0.1724 -0.8105 -0.0311
  853SOL     OW 3256   1.262   2.016   2.229 -0.3915  0.5641  0.0106
  853SOL    HW1 3257   1.167   2.022   2.235 -0.4659 -0.5418  0.1948
  853SOL    HW2 3258   1.293   2.043   2.316 -0.5447  0.8018 -0.0094
  854SOL     OW 3259   3.224   3.457   5.178 -0.5740  0.5237 -0.1263
  854SOL    HW1 3260   3.213   3.364   5.198 -1.2140  0.8706  1.2765
  854SOL    HW2 3261   3.271   3.458   5.095  0.7431 -1.0591  0.5362
  855SOL     OW 3262   4.072   2.233   1.454  0.5096 -0.7745  0.3351
  855SOL    HW1 3263   4.015   2.292   1.503 -0.8261 -1.7101 -0.0258
  855SOL    HW2 3264   4.127   2.291   1.402 -1.0062  0.1786 -0.2775
  856SOL     OW 3265   4.116   0.841   3.368 -0.2076  0.2332 -0.0273
  856SOL    HW1 3266   4.118   0.758   3.321  0.9391  0.7510 -0.9568
  856SOL    HW2 3267   4.067   0.823   3.448 -0.0516 -1.3043 -0.2555
  857SOL     OW 3268   0.419   3.790   3.202  0.1688  0.3516  0.3181
  857SOL    HW1 3269   0.405   3.885   3.206 -0.8441  0.2895 -0.9547
  857SOL    HW2 3270   0.501   3.779   3.155  0.5852  0.6067  0.9843
  858SOL     OW 3271   0.152   3.418   1.886  0.3152  0.3140  0.2084
  858SOL    HW1 3272   0.147   3.455   1.798 -0.7347  0.4591  0.3235
  858SOL    HW2 3273   0.219   3.471   1.930 -0.3640  1.3456  0.0196
  859SOL     OW 3274   4.974   5.182   3.793  0.6041  0.3019  0.4054
  859SOL    HW1 3275   4.947   5.269   3.823 -0.9202 -0.4239  1.2506
  859SOL    HW2 3276   4.895   5.144   3.755  0.9921 -1.0765  0.9251
  860SOL     OW 3277   0.063   3.860   2.881 -0.3812  0.7766 -0.4075
  860SOL    HW1 3278   0.061   3.953   2.907  4.5521  1.4099 -1.2857
  860SOL    HW2 3279   0.043   3.861   2.788 -2.1593  0.6569 -0.0477
  861SOL     OW 3280   2.669   0.293   0.287  0.0749  0.0559 -0.2405
  861SOL    HW1 3281   2.667   0.328   0.376 -0.8051  2.1040 -1.0184
  861SOL    HW2 3282   2.664   0.198   0.299 -2.9333  0.3385  1.8496
  862SOL     OW 3283   4.059   5.306   4.564  0.1763  0.2535  0.5828
  862SOL    HW1 3284   3.989   5.360   4.599 -0.1111 -0.8556  1.7795
  862SOL    HW2 3285   4.108   5.276   4.641 -0.0838 -1.7229  0.0528
  863SOL     OW 3286   2.066   4.013   4.939 -0.5517  0.2637  0.0404
  863SOL    HW1 3287   2.089   4.050   4.854  1.1606  2.3615  1.2850
  863SOL    HW2 3288   2.148   3.978   4.973 -0.6431  1.5263  1.7163
  864SOL     OW 3289   0.959   2.458   2.564 -0.5234  0.5274 -0.4650
  864SOL    HW1 3290   0.933   2.489   2.651 -0.7911  1.1417 -0.7580
  864SOL    HW2 3291   0.912   2.515   2.503 -1.3230 -0.6882 -1.0325
  865SOL     OW 3292   3.494   0.992   4.601  0.6410 -0.0875 -0.8747
  865SOL    HW1 3293   3.567   1.045   4.571  0.6332  0.3786 -0.1129
  865SOL    HW2 3294   3.438   1.054   4.648 -0.7125 -0.2407 -2.2133
  866SOL     OW 3295   4.727   4.287   5.265 -0.1611 -0.3202  0.2592
  866SOL    HW1 3296   4.796   4.321   5.322 -0.4307 -1.6080  1.4299
  866SOL    HW2 3297   4.671   4.362   5.247  1.3381  0.6756 -0.4398
  867SOL     OW 3298   0.369   4.429   2.598  0.6603  0.6638 -0.0838
  867SOL    HW1 3299   0.363   4.355   2.538  0.2280 -0.2658  1.0661
  867SOL    HW2 3300   0.403   4.500   2.544  0.7032 -0.2476 -1.3193
  868SOL     OW 3301   4.990   5.062   4.562 -0.0718 -0.3135 -0.0034
  868SOL    HW1 3302   4.978   4.968   4.570 -1.0640 -0.2650 -0.7671
  868SOL    HW2 3303   5.057   5.072   4.494  0.2849 -0.4670  0.3212
  869SOL     OW 3304   5.190   4.692   3.674  0.2254 -0.7300  0.4248
  869SOL    HW1 3305   5.208   4.598   3.665  2.0256 -0.3476 -0.3458
  869SOL    HW2 3306   5.173   4.721   3.584 -1.2150 -0.4650  0.7692
  870SOL     OW 3307   4.401   4.581   2.963  0.5741 -0.3550 -0.2864
  870SOL    HW1 3308   4.453   4.602   3.040  1.0390 -0.6130 -0.5278
  870SOL    HW2 3309   4.411   4.487   2.951 -0.5236 -0.5385  0.0774
  871SOL     OW 3310   1.007   4.979   4.436 -0.0396  0.5344 -0.2995
  871SOL    HW1 3311   0.915   4.993   4.413 -0.0034  0.0816 -0.7440
  871SOL    HW2 3312   1.004   4.931   4.519 -0.1893  0.9808 -0.0389
  872SOL     OW 3313   4.473   0.631   0.066  0.0145  0.3003 -0.1494
  872SOL    HW1 3314   4.498   0.572  -0.006  0.9387 -0.1479  0.5217
  872SOL    HW2 3315   4.413   0.578   0.120  0.9355 -0.0858  0.5170
  873SOL     OW 3316   0.837   2.275   0.269  0.1252  0.4023  0.2808
  873SOL    HW1 3317   0.855   2.351   0.213 -0.2722 -0.8464 -1.6206
  873SOL    HW2 3318   0.808   2.313   0.352 -1.1003  2.3493 -0.9665
  874SOL     OW 3319   1.291   2.276   3.830  0.3396  0.5576  0.4720
  874SOL    HW1 3320   1.319   2.302   3.917  1.2763 -0.2062  0.4063
  874SOL    HW2 3321   1.198   2.255   3.840  0.6911 -0.5735  1.5177
  875SOL     OW 3322   0.354   1.637   1.081 -0.0033  0.0446  0.2186
  875SOL    HW1 3323   0.283   1.592   1.127  1.0601 -0.0487  1.8907
  875SOL    HW2 3324   0.311   1.695   1.020 -1.4963 -0.5004  0.7093
  876SOL     OW 3325   5.368   1.804   3.629 -0.0596  0.2473 -0.0370
  876SOL    HW1 3326   5.312   1.758   3.690  2.2570  0.9557  2.8505
  876SOL    HW2 3327   5.326   1.889   3.617 -1.0721 -0.2801 -0.3277
  877SOL     OW 3328   0.034   4.608   3.477 -0.8554 -1.2812 -0.0624
  877SOL    HW1 3329  -0.028   4.553   3.526 -2.3593 -0.9650 -1.5598
  877SOL    HW2 3330   0.014   4.591   3.385 -1.9046  2.3169 -0.6251
  878SOL     OW 3331   1.899   2.289   0.308  0.0446  0.1681  0.1556
  878SOL    HW1 3332   1.864   2.228   0.243 -2.5808  1.0108  0.6927
  878SOL    HW2 3333   1.940   2.233   0.374 -0.4762 -0.8874 -0.3921
  879SOL     OW 3334   1.113   2.201   0.245 -0.5884  0.3057 -0.4842
  879SOL    HW1 3335   1.110   2.261   0.319  0.6018 -0.3843  0.1388
  879SOL    HW2 3336   1.021   2.175   0.233 -0.6560 -0.7773  1.7676
  880SOL     OW 3337   4.356   0.984   2.030 -0.2262  0.3735 -0.2479
  880SOL    HW1 3338   4.317   0.979   2.117 -1.7781  0.8697 -0.8859
  880SOL    HW2 3339   4.297   1.039   1.980  0.4806 -0.1385 -1.7120
  881SOL     OW 3340   2.840   5.219   4.775 -0.0779 -0.1913  0.2713
  881SOL    HW1 3341   2.808   5.155   4.711 -1.7042  0.8493 -0.0046
  881SOL    HW2 3342   2.842   5.302   4.728  0.9623  0.1774  0.9282
  882SOL     OW 3343   2.754   2.881   5.256 -0.4973 -0.3937  0.2133
  882SOL    HW1 3344   2.678   2.897   5.313  0.1623  1.9208  0.5765
  882SOL    HW2 3345   2.720   2.891   5.167 -0.9080 -0.8075  0.3247
  883SOL     OW 3346   1.030   5.175   5.226 -0.4128  0.0607 -0.2563
  883SOL    HW1 3347   1.077   5.258   5.218  0.2064 -0.3072 -0.4540
  883SOL    HW2 3348   1.073   5.116   5.164 -0.0056 -0.7900  0.7942
  884SOL     OW 3349   2.377   2.641   0.529 -0.0380 -0.4037  0.1072
  884SOL    HW1 3350   2.455   2.696   0.525  0.1170 -0.6413 -0.1981
  884SOL    HW2 3351   2.356   2.621   0.437 -1.5162  1.1166  0.0771
  885SOL     OW 3352   2.640   3.191   3.276  0.1804 -0.0990 -0.0352
  885SOL    HW1 3353   2.549   3.213   3.298  0.4837 -0.0726  1.3142
  885SOL    HW2 3354   2.688   3.272   3.290  0.4519 -0.1872 -0.4664
  886SOL     OW 3355   0.996   4.664   3.831 -0.6339 -0.2445  0.1584
  886SOL    HW1 3356   1.032   4.702   3.911 -1.4322  0.0838  0.3656
  886SOL    HW2 3357   1.047   4.704   3.761 -0.7930  0.4568  0.4313
  887SOL     OW 3358   1.349   2.176   4.464  0.3115 -0.8139 -0.0634
  887SOL    HW1 3359   1.280   2.158   4.400  1.4504 -0.8228 -1.3224
  887SOL    HW2 3360   1.355   2.272   4.466 -0.3125 -0.7815  0.6976
  888SOL     OW 3361   1.320   0.811   2.202  0.9015  0.8293 -0.0071
  888SOL    HW1 3362   1.352   0.722   2.189 -0.2435  0.1560  1.4774
  888SOL    HW2 3363   1.320   0.850   2.115  0.5822 -0.9232 -0.8273
  889SOL     OW 3364   4.044   1.570   3.245 -0.2622 -0.2349  0.8476
  889SOL    HW1 3365   3.965   1.519   3.229  0.0286 -0.4320 -0.0176
  889SOL    HW2 3366   4.065   1.554   3.338  0.1323 -2.1657  0.4755
  890SOL     OW 3367   1.850   2.004   4.119 -0.0091  0.0159  0.2167
  890SOL    HW1 3368   1.933   1.973   4.157 -0.9787 -2.2669  0.6426
  890SOL    HW2 3369   1.845   1.960   4.034 -0.5908  0.5221 -0.0183
  891SOL     OW 3370   1.402   0.157   2.732 -0.7105 -0.3595  0.5486
  891SOL    HW1 3371   1.327   0.211   2.709  0.8296  1.8976  0.5013
  891SOL    HW2 3372   1.413   0.096   2.659 -2.0203 -0.2264  0.2284
  892SOL     OW 3373   0.307   0.870   4.108  0.0813 -0.0374  0.4558
  892SOL    HW1 3374   0.322   0.880   4.014  0.1617  0.0506  0.4786
  892SOL    HW2 3375   0.389   0.896   4.149 -0.3877  1.2570  0.6177
  893SOL     OW 3376   4.991   0.801   0.924  0.5118 -0.1032  0.2681
  893SOL    HW1 3377   5.087   0.800   0.928  0.5676 -0.5243 -0.7349
  893SOL    HW2 3378   4.963   0.769   1.009  1.2445  0.6264  0.8086
  894SOL     OW 3379   2.301   0.379   1.558  0.1227  0.0800 -0.4432
  894SOL    HW1 3380   2.326   0.453   1.614  0.2003  0.2252 -0.6688
  894SOL    HW2 3381   2.249   0.418   1.488 -0.7373 -0.2184  0.0106
  895SOL     OW 3382   4.182   4.775   1.786  0.2340  0.1456  0.3912
  895SOL    HW1 3383   4.165   4.837   1.857  1.7653 -0.4615  1.3359
  895SOL    HW2 3384   4.096   4.754   1.751 -0.6251  0.0476  2.4501
  896SOL     OW 3385   3.576   3.037   4.278  0.6358 -0.1392 -0.4566
  896SOL    HW1 3386   3.523   3.046   4.198  1.0310  2.7949 -0.4981
  896SOL    HW2 3387   3.657   3.084   4.258  1.2415 -0.4013  1.2709
  897SOL     OW 3388   4.894   5.079   0.782  0.1054 -0.0183 -0.1686
  897SOL    HW1 3389   4.856   5.138   0.718 -0.7437 -1.1916 -0.7840
  897SOL    HW2 3390   4.854   5.104   0.865 -0.0475  0.4349 -0.3757
  898SOL     OW 3391   0.875   3.200   3.375  0.1670  0.0560 -0.1790
  898SOL    HW1 3392   0.848   3.115   3.340  1.5620 -0.6303  0.3230
  898SOL    HW2 3393   0.827   3.264   3.323  1.4682 -0.9306 -2.8099
  899SOL     OW 3394   0.334   2.296   4.507 -0.2342 -0.0309  0.4066
  899SOL    HW1 3395   0.295   2.380   4.482  2.1493  0.9842 -0.2499
  899SOL    HW2 3396   0.352   2.305   4.601  0.2164  0.3022  0.2925
  900SOL     OW 3397   4.643   0.478   0.887 -0.4692 -0.7624  0.0150
  900SOL    HW1 3398   4.727   0.513   0.857 -0.5195  1.0516  1.7402
  900SOL    HW2 3399   4.579   0.518   0.828 -0.3274  0.1950  0.4934
  901SOL     OW 3400   0.576   5.094   4.054  0.2741  0.3429  0.1083
  901SOL    HW1 3401   0.483   5.098   4.032  0.1765 -1.8545 -0.0526
  901SOL    HW2 3402   0.619   5.076   3.970  0.7957  0.7059  0.2956
  902SOL     OW 3403   2.744   4.859   0.237 -0.1713 -0.2484  0.1021
  902SOL    HW1 3404   2.801   4.823   0.169  0.7447  0.3739  0.5151
  902SOL    HW2 3405   2.671   4.897   0.189 -0.7850 -1.9584 -0.3788
  903SOL     OW 3406   1.299   0.005   2.521 -0.4389 -0.6160 -0.0164
  903SOL    HW1 3407   1.272  -0.081   2.552 -0.9688 -0.8040 -0.9680
  903SOL    HW2 3408   1.259   0.014   2.434 -1.4313  1.1047  0.5700
  904SOL     OW 3409   4.446   1.302   2.944 -0.4762 -0.3168 -0.0662
  904SOL    HW1 3410   4.402   1.380   2.910  0.4919 -0.2796 -1.3209
  904SOL    HW2 3411   4.519   1.288   2.883  1.6469 -0.0045  2.2606
  905SOL     OW 3412   3.521   0.783   3.208 -0.2356  0.3285  0.2662
  905SOL    HW1 3413   3.610   0.767   3.239 -0.3872  1.1397  1.1818
  905SOL    HW2 3414   3.530   0.852   3.142  0.0400 -1.1156 -1.2765
  906SOL     OW 3415   2.135   4.488   3.219  0.7283  0.2241  0.2254
  906SOL    HW1 3416   2.083   4.428   3.273 -0.0187  0.8373  0.2056
  906SOL    HW2 3417   2.161   4.436   3.144  1.1404 -0.4238  0.8064
  907SOL     OW 3418   1.586   2.883   0.754  0.0610 -0.4980 -0.0928
  907SOL    HW1 3419   1.534   2.921   0.825  1.6078  2.5832 -0.4061
  907SOL    HW2 3420   1.534   2.810   0.722 -3.0262  1.0221  1.0234
  908SOL     OW 3421   2.102   2.399   4.409 -0.0273 -0.0294 -0.6606
  908SOL    HW1 3422   2.011   2.427   4.417  0.0086  0.3089 -1.3584
  908SOL    HW2 3423   2.150   2.458   4.468 -0.1519  0.3863 -0.9685
  909SOL     OW 3424   2.472   0.165   1.145 -0.2777  0.3797 -0.0970
  909SOL    HW1 3425   2.483   0.136   1.055 -1.5333 -1.3489  0.2415
  909SOL    HW2 3426   2.381   0.142   1.167 -0.2205  1.3990  1.3782
  910SOL     OW 3427   3.627   2.364   4.864  0.0414  0.4228  0.0725
  910SOL    HW1 3428   3.649   2.445   4.819  0.3831  0.9455  1.1437
  910SOL    HW2 3429   3.668   2.295   4.811 -0.0451  0.9616 -0.7084
  911SOL     OW 3430   4.669   4.746   4.674 -1.0480 -0.4405  0.0503
  911SOL    HW1 3431   4.734   4.723   4.740  1.2134 -0.0679 -1.9279
  911SOL    HW2 3432   4.673   4.841   4.669 -1.0295 -0.4801 -0.7670
  912SOL     OW 3433   3.494   3.190   4.868  0.2160 -0.1366 -0.0052
  912SOL    HW1 3434   3.545   3.193   4.787  0.4361 -0.0883  0.1339
  912SOL    HW2 3435   3.560   3.191   4.938  0.0500 -0.7465  0.1671
  913SOL     OW 3436   3.158   2.601   0.283 -0.4949 -0.0505 -0.1390
  913SOL    HW1 3437   3.170   2.546   0.360 -2.3413 -0.8381 -0.3431
  913SOL    HW2 3438   3.080   2.565   0.240  0.0872  0.7819 -2.0161
  914SOL     OW 3439   4.878   3.031   3.378 -0.1398  0.3078  0.2362
  914SOL    HW1 3440   4.810   2.973   3.411  0.3046  0.3026  1.1803
  914SOL    HW2 3441   4.883   3.011   3.285 -1.3982  0.2876  0.1491
  915SOL     OW 3442   0.886   4.882   1.607 -0.0867  0.2290  0.8009
  915SOL    HW1 3443   0.838   4.952   1.651 -1.7620 -1.1514  1.3090
  915SOL    HW2 3444   0.847   4.878   1.519  0.3396  0.2536  0.6106
  916SOL     OW 3445   1.813   1.957   3.417 -0.1645 -0.0610 -0.5728
  916SOL    HW1 3446   1.807   1.870   3.455 -2.3192 -0.3494 -1.4336
  916SOL    HW2 3447   1.907   1.978   3.419  0.0760 -0.9117  2.8342
  917SOL     OW 3448   0.429   0.031   1.279  0.6672  0.1221  0.3013
  917SOL    HW1 3449   0.437   0.114   1.232  0.4986  0.5355  0.9813
  917SOL    HW2 3450   0.511  -0.014   1.264  0.5633  0.1877 -0.4948
  918SOL     OW 3451   1.929   1.596   2.509 -0.7880  0.1859 -0.3354
  918SOL    HW1 3452   1.908   1.619   2.599 -0.9550  0.4032 -0.4280
  918SOL    HW2 3453   1.998   1.658   2.484  0.2567 -0.7728  0.0936
  919SOL     OW 3454   3.066   2.450   0.509 -0.0039 -0.0353  0.2186
  919SOL    HW1 3455   3.118   2.374   0.486 -0.6632 -0.3782 -0.1773
  919SOL    HW2 3456   2.991   2.415   0.557 -1.4765  0.0799 -1.8644
  920SOL     OW 3457   1.234   2.728   1.856  0.5284 -0.4216 -0.3569
  920SOL    HW1 3458   1.216   2.800   1.796 -1.7124 -0.7817 -0.1998
  920SOL    HW2 3459   1.201   2.758   1.941  0.2725 -1.3129 -0.1250
  921SOL     OW 3460   0.507   1.975   2.827 -0.1367  0.3730  0.2282
  921SOL    HW1 3461   0.548   1.984   2.913 -1.4182  1.1352  0.7774
  921SOL    HW2 3462   0.417   1.948   2.845  0.4965 -3.1131 -1.0159
  922SOL     OW 3463   1.187   1.153   2.661 -0.4158 -0.1141 -0.0243
  922SOL    HW1 3464   1.114   1.212   2.678  0.3142  0.8925 -0.3316
  922SOL    HW2 3465   1.262   1.210   2.647 -0.0718 -1.0288 -2.2732
  923SOL     OW 3466   2.275   4.181   0.585 -0.1097  0.2466 -0.4898
  923SOL    HW1 3467   2.180   4.182   0.582 -0.1671 -0.9793  0.2969
  923SOL    HW2 3468   2.302   4.183   0.493 -0.9750 -2.1135 -0.8709
  924SOL     OW 3469   4.618   5.004   0.139  0.2645 -0.1041 -0.3571
  924SOL    HW1 3470   4.597   5.078   0.196 -1.5733 -0.2769 -0.7576
  924SOL    HW2 3471   4.642   5.044   0.056 -0.9128  0.0648 -0.6311
  925SOL     OW 3472   0.973   4.170   3.392  0.2864 -0.0333 -0.3687
  925SOL    HW1 3473   0.911   4.144   3.325 -0.0623 -3.1243  0.9842
  925SOL    HW2 3474   1.040   4.220   3.345 -0.2045 -1.6113 -2.9241
  926SOL     OW 3475   0.820   2.975   2.112 -0.7642  0.6980  0.9244
  926SOL    HW1 3476   0.905   2.933   2.123 -0.4935  1.2512  0.9788
  926SOL    HW2 3477   0.833   3.039   2.043 -0.8992  1.3914  1.5226
  927SOL     OW 3478   1.026   3.921   4.981  0.0470 -0.1191  0.1986
  927SOL    HW1 3479   1.104   3.913   5.037  2.1159  0.0009 -2.4670
  927SOL    HW2 3480   1.016   4.015   4.967  2.2793 -0.1774 -2.9411
  928SOL     OW 3481   4.357   1.931   2.120  0.5431 -0.1583 -0.3724
  928SOL    HW1 3482   4.443   1.951   2.158  1.0174 -0.3821 -1.3067
  928SOL    HW2 3483   4.353   1.985   2.041  0.4870 -1.3279 -1.1856
  929SOL     OW 3484   1.632   3.335   4.713 -0.0309  0.6201 -0.1286
  929SOL    HW1 3485   1.724   3.338   4.685 -0.0180  2.6839 -0.0237
  929SOL    HW2 3486   1.617   3.419   4.756 -1.9311  0.2499  0.0377
  930SOL     OW 3487   5.073   0.145   1.980 -0.1357  0.0642  0.5798
  930SOL    HW1 3488   5.026   0.075   2.024  2.6915 -2.9618 -0.7746
  930SOL    HW2 3489   5.150   0.161   2.035  0.5292  0.2614 -0.3741
  931SOL     OW 3490   4.091   3.217   0.163 -0.0499 -0.4193  0.0930
  931SOL    HW1 3491   4.102   3.283   0.095 -1.2713  0.5671  0.8052
  931SOL    HW2 3492   4.060   3.139   0.116 -0.4547  0.1108 -0.5375
  932SOL     OW 3493   1.352   1.760   0.075 -0.1726  0.6651  0.3728
  932SOL    HW1 3494   1.318   1.845   0.102  0.6609  1.0064  0.3699
  932SOL    HW2 3495   1.365   1.768  -0.019 -1.3249  0.0850  0.1388
  933SOL     OW 3496   3.244   5.200   1.149 -0.4643  0.0857 -0.0550
  933SOL    HW1 3497   3.156   5.208   1.111 -0.9046  0.0906  0.9148
  933SOL    HW2 3498   3.248   5.272   1.212 -0.4611 -0.9747  1.2023
  934SOL     OW 3499   2.246   2.759   3.262  0.3042 -0.4284 -0.3935
  934SOL    HW1 3500   2.303   2.688   3.234  0.1505 -1.0912  0.9233
  934SOL    HW2 3501   2.158   2.722   3.259  0.1952 -0.2076  0.0429
  935SOL     OW 3502   2.272   0.725   0.317 -0.0814 -0.2352  0.0289
  935SOL    HW1 3503   2.300   0.635   0.331 -1.2729 -0.7464 -0.6685
  935SOL    HW2 3504   2.177   0.723   0.333  0.1266  1.2682  1.7045
  936SOL     OW 3505   3.268   4.683   0.654  0.4230  0.2668  0.5486
  936SOL    HW1 3506   3.304   4.594   0.661  2.3327  0.9189 -0.1189
  936SOL    HW2 3507   3.242   4.705   0.743  0.5149 -0.7327  0.8394
  937SOL     OW 3508   2.691   4.902   5.008 -0.1089 -0.4751 -0.2006
  937SOL    HW1 3509   2.720   4.855   5.086  0.1606  0.0743  0.0404
  937SOL    HW2 3510   2.699   4.839   4.937 -0.3882 -0.9898  0.2214
  938SOL     OW 3511   1.811   5.214   1.807 -0.4189  0.6991  0.4382
  938SOL    HW1 3512   1.741   5.277   1.793 -0.1449  0.7785 -0.6558
  938SOL    HW2 3513   1.809   5.158   1.730 -0.5624 -0.5527  1.3221
  939SOL     OW 3514   3.823   3.060   0.361 -0.2472  0.6983 -0.2765
  939SOL    HW1 3515   3.766   3.032   0.290  0.8042  0.1720 -0.9378
  939SOL    HW2 3516   3.830   3.155   0.349  0.7132  0.5030 -1.5203
  940SOL     OW 3517   1.317   3.625   5.150 -0.2866 -0.0251 -0.0234
  940SOL    HW1 3518   1.405   3.604   5.181  0.0876  1.8142  0.2822
  940SOL    HW2 3519   1.322   3.718   5.127 -1.4954 -0.4429 -2.3085
  941SOL     OW 3520   2.164   4.042   1.629 -0.2436  0.5975  0.0860
  941SOL    HW1 3521   2.257   4.042   1.652 -0.0295 -1.1956 -0.6516
  941SOL    HW2 3522   2.149   3.957   1.588 -1.6017  1.8792 -2.2613
  942SOL     OW 3523   5.094   4.002   0.476  0.3918  0.0233  0.3338
  942SOL    HW1 3524   5.158   4.047   0.532  0.5586 -0.4886  0.5696
  942SOL    HW2 3525   5.015   4.056   0.481  1.1690  1.3466 -0.9647
  943SOL     OW 3526   0.288   1.707   0.657 -0.1820 -0.4530 -0.0658
  943SOL    HW1 3527   0.233   1.746   0.589  0.0248 -0.5225 -0.2749
  943SOL    HW2 3528   0.376   1.704   0.618 -0.0360 -0.3678  0.2548
  944SOL     OW 3529   0.291   4.799   3.959 -0.1660  0.3929  0.5774
  944SOL    HW1 3530   0.273   4.721   4.011  1.7089 -0.8317 -0.4974
  944SOL    HW2 3531   0.311   4.766   3.871 -0.5721  2.1937 -0.2460
  945SOL     OW 3532   1.146   5.360   0.797  0.4373  0.8460 -0.0533
  945SOL    HW1 3533   1.193   5.421   0.741  0.0432  0.7091 -0.5393
  945SOL    HW2 3534   1.082   5.318   0.739 -0.0716  0.8056  0.5271
  946SOL     OW 3535   4.642   1.335   3.967  0.0535  0.3244 -0.0893
  946SOL    HW1 3536   4.625   1.357   3.875 -1.0321  1.5566  0.3781
  946SOL    HW2 3537   4.707   1.265   3.963  0.9169  1.1554 -1.7673
  947SOL     OW 3538   2.848   3.018   0.966 -0.1120 -0.6562  0.5916
  947SOL    HW1 3539   2.797   3.098   0.953 -0.2261 -0.9984 -1.5169
  947SOL    HW2 3540   2.808   2.955   0.907  1.8233 -1.3603 -0.0329
  948SOL     OW 3541   0.845   0.954   2.454 -0.4451 -0.4359 -0.5224
  948SOL    HW1 3542   0.911   0.892   2.485  1.3556  1.2979 -0.7227
  948SOL    HW2 3543   0.889   1.005   2.386 -1.6731  1.4591  0.0221
  949SOL     OW 3544   0.084   2.747   3.434  0.2109  0.3238 -0.2400
  949SOL    HW1 3545   0.150   2.811   3.462  0.2068  0.0760  0.3399
  949SOL    HW2 3546   0.130   2.663   3.438 -0.1223  0.1578  0.1000
  950SOL     OW 3547   3.169   2.250   2.867  0.6359 -0.1943 -0.5378
  950SOL    HW1 3548   3.177   2.180   2.803 -1.3680 -1.0243  0.0732
  950SOL    HW2 3549   3.137   2.208   2.947  3.2799  0.7535  1.1845
  951SOL     OW 3550   4.940   3.505   1.177  0.3869 -0.2500 -0.6284
  951SOL    HW1 3551   4.860   3.514   1.228  1.6988  1.5395  1.2798
  951SOL    HW2 3552   4.969   3.595   1.162  0.7135 -0.7358 -3.6054
  952SOL     OW 3553   4.975   0.406   2.669  0.1450 -0.1113 -0.0250
  952SOL    HW1 3554   5.062   0.426   2.704  0.3830 -0.9770 -0.1064
  952SOL    HW2 3555   4.987   0.400   2.575  0.1448 -0.9044  0.0159
  953SOL     OW 3556   3.895   3.006   1.400 -0.2055 -0.3465  0.5197
  953SOL    HW1 3557   3.975   3.057   1.414 -0.2017 -0.8095  2.6528
  953SOL    HW2 3558   3.827   3.071   1.386  0.5667  0.0472 -1.7849
  954SOL     OW 3559   0.625   3.860   1.399 -0.3942 -0.3219 -0.7799
  954SOL    HW1 3560   0.616   3.952   1.424 -0.3549 -0.1877 -1.2647
  954SOL    HW2 3561   0.719   3.843   1.403 -0.4540 -0.5231 -0.0517
  955SOL     OW 3562   0.422   0.107   2.209 -0.0848 -0.5442 -0.4438
  955SOL    HW1 3563   0.375   0.149   2.136  0.6707 -0.5841 -0.9682
  955SOL    HW2 3564   0.354   0.083   2.271 -0.5559  1.5222 -0.0927
  956SOL     OW 3565   4.177   0.991   1.147  0.5901  0.1410 -0.2040
  956SOL    HW1 3566   4.212   0.986   1.236  1.3908 -0.7755 -0.5548
  956SOL    HW2 3567   4.084   1.013   1.159  0.3829 -1.1702  0.9225
  957SOL     OW 3568   5.190   1.644   1.634 -0.1384  0.0846  0.0900
  957SOL    HW1 3569   5.216   1.568   1.687  2.1499 -0.6692 -1.9380
  957SOL    HW2 3570   5.232   1.718   1.678  0.1238 -0.2508  0.4174
  958SOL     OW 3571   1.621   0.821   0.764  0.2616 -0.5471 -0.3890
  958SOL    HW1 3572   1.710   0.857   0.759  0.9060 -1.7438  1.4055
  958SOL    HW2 3573   1.616   0.759   0.691 -0.8386  2.8091 -3.4885
  959SOL     OW 3574   3.700   2.003   4.566  0.1014 -0.2745 -0.9713
  959SOL    HW1 3575   3.768   1.936   4.573  0.7709  0.5445  2.6687
  959SOL    HW2 3576   3.618   1.954   4.563  0.4758 -1.4861  2.9548
  960SOL     OW 3577   1.796   3.818   3.945 -0.0301  0.3104  0.6120
  960SOL    HW1 3578   1.849   3.863   3.880  0.0993 -0.6449  0.0393
  960SOL    HW2 3579   1.740   3.760   3.894  1.4714 -1.9463  1.4114
  961SOL     OW 3580   3.797   4.454   2.838 -0.4067 -0.3615  0.0791
  961SOL    HW1 3581   3.870   4.498   2.794 -1.4409 -3.8017 -6.4522
  961SOL    HW2 3582   3.832   4.368   2.862 -1.0983 -0.1385  2.0509
  962SOL     OW 3583   1.183   0.477   2.336 -0.2666 -0.6229 -0.0745
  962SOL    HW1 3584   1.187   0.480   2.432 -1.1254 -0.5741 -0.0397
  962SOL    HW2 3585   1.093   0.501   2.315 -0.2290 -1.1712 -0.8793
  963SOL     OW 3586   0.104   0.090   3.145  0.4629 -0.0108 -0.4690
  963SOL    HW1 3587   0.193   0.060   3.166  0.3643 -0.9068 -1.2826
  963SOL    HW2 3588   0.057   0.083   3.228  1.2783  0.9931  0.0999
  964SOL     OW 3589   0.995   4.971   3.299  0.5949  0.3844  0.1691
  964SOL    HW1 3590   1.085   4.975   3.268  0.0957  0.7074 -1.3268
  964SOL    HW2 3591   0.977   4.878   3.311  1.0428  0.3041  0.2150
  965SOL     OW 3592   2.099   5.261   2.084  0.1846  0.0867 -0.2822
  965SOL    HW1 3593   2.074   5.325   2.017 -0.9288 -0.0867 -0.0671
  965SOL    HW2 3594   2.194   5.257   2.081  0.1770  0.5327 -1.4360
  966SOL     OW 3595   4.588   3.446   3.861 -1.2216  0.1929  0.0268
  966SOL    HW1 3596   4.538   3.524   3.837 -1.1235  0.3430  0.3061
  966SOL    HW2 3597   4.638   3.473   3.938 -0.4088  0.1634 -0.4842
  967SOL     OW 3598   1.038   1.027   1.424  0.5540  0.4577  0.3788
  967SOL    HW1 3599   0.996   1.068   1.348  0.5515  0.2653  0.2774
  967SOL    HW2 3600   0.976   0.961   1.454  1.5613 -1.1640 -0.9229
  968SOL     OW 3601   1.231   2.233   1.445 -0.3477  0.2228 -0.0776
  968SOL    HW1 3602   1.156   2.245   1.386 -0.6051  0.0320  0.2055
  968SOL    HW2 3603   1.208   2.156   1.497  0.5170 -0.4765 -0.6977
  969SOL     OW 3604   3.242   0.854   5.104 -0.1171  0.5272  0.1406
  969SOL    HW1 3605   3.207   0.877   5.191 -1.9856  2.0145 -0.9209
  969SOL    HW2 3606   3.296   0.929   5.079 -0.6882  0.7336 -0.5170
  970SOL     OW 3607   2.875   3.664   1.122 -0.6717 -0.0758  0.4444
  970SOL    HW1 3608   2.890   3.644   1.214 -2.0770  2.5036  1.3556
  970SOL    HW2 3609   2.960   3.693   1.089  0.7312 -4.3165 -0.1942
  971SOL     OW 3610   4.304   0.416   0.193  0.1017 -0.0756 -0.5481
  971SOL    HW1 3611   4.344   0.443   0.276 -3.3150 -0.8164  1.5810
  971SOL    HW2 3612   4.351   0.337   0.168  0.7197 -0.2969  1.1623
  972SOL     OW 3613   3.682   5.013   1.724 -0.3483 -0.8537 -0.7812
  972SOL    HW1 3614   3.597   4.985   1.691 -0.8876 -1.2663  0.8482
  972SOL    HW2 3615   3.686   5.107   1.707 -1.8728 -0.4940  0.6008
  973SOL     OW 3616   1.228   4.222   4.121  0.4179 -0.0907 -0.0766
  973SOL    HW1 3617   1.322   4.224   4.139  0.5816  1.2456 -0.8866
  973SOL    HW2 3618   1.222   4.202   4.028 -0.1260 -0.5252  0.0479
  974SOL     OW 3619   4.200   5.102   3.748  0.0163 -0.3905  0.1264
  974SOL    HW1 3620   4.263   5.067   3.685  1.4940  0.5424  1.0172
  974SOL    HW2 3621   4.226   5.065   3.832 -1.5007 -1.0677  0.3349
  975SOL     OW 3622   1.169   2.315   2.622 -0.2493 -0.3407 -0.1206
  975SOL    HW1 3623   1.079   2.346   2.618 -0.1231  0.0961  0.2692
  975SOL    HW2 3624   1.222   2.395   2.626  0.2310 -0.5656 -1.4535
  976SOL     OW 3625   0.780   1.852   5.343 -0.1466  0.2481  0.3379
  976SOL    HW1 3626   0.837   1.791   5.390  0.7339 -0.0304 -1.0429
  976SOL    HW2 3627   0.693   1.833   5.376  0.0697 -1.9242 -0.1782
  977SOL     OW 3628   1.809   2.736   0.716 -0.5941 -0.1133 -0.2621
  977SOL    HW1 3629   1.808   2.712   0.809  0.0902  0.7478 -0.0227
  977SOL    HW2 3630   1.727   2.784   0.704 -0.3372  0.4262  0.0852
  978SOL     OW 3631   4.797   3.884   1.063  0.3848 -0.3530 -0.1347
  978SOL    HW1 3632   4.717   3.833   1.071 -0.1588  0.5538  0.3828
  978SOL    HW2 3633   4.866   3.825   1.095 -0.3339 -0.5097  1.2007
  979SOL     OW 3634   4.435   2.215   0.888  0.1806  0.5833 -0.4381
  979SOL    HW1 3635   4.520   2.246   0.920 -0.5933  0.3832  2.0235
  979SOL    HW2 3636   4.457   2.143   0.828  1.7600  0.9678 -0.3591
  980SOL     OW 3637   4.634   3.684   1.594  0.2411  0.6007 -0.2863
  980SOL    HW1 3638   4.580   3.744   1.542  0.2077  0.5502 -0.3090
  980SOL    HW2 3639   4.599   3.690   1.683 -0.1093  0.1992 -0.3989
  981SOL     OW 3640   1.910   2.557   3.724  0.1701  0.3144 -0.1982
  981SOL    HW1 3641   1.885   2.647   3.704 -1.2494 -0.1247 -0.4662
  981SOL    HW2 3642   1.930   2.518   3.639 -1.6640 -0.3190 -0.3721
  982SOL     OW 3643   1.375   0.968   0.902  0.1746  0.1214 -0.0748
  982SOL    HW1 3644   1.467   0.973   0.874 -0.4087  1.1439 -1.9720
  982SOL    HW2 3645   1.356   1.055   0.936 -0.9098  0.9395 -2.5889
  983SOL     OW 3646   2.788   2.925   2.208  0.0945 -0.0295  0.2346
  983SOL    HW1 3647   2.789   3.014   2.173  1.0549  0.4676  1.4488
  983SOL    HW2 3648   2.708   2.921   2.261 -1.1314 -0.6458 -1.5594
  984SOL     OW 3649   2.089   0.867   0.798 -0.1578  0.6897 -0.2472
  984SOL    HW1 3650   2.053   0.779   0.804 -1.1815  1.1980  2.2981
  984SOL    HW2 3651   2.022   0.917   0.750 -0.3401  0.4379 -0.2561
  985SOL     OW 3652   1.083   0.276   2.905  0.1080  0.0581  0.2386
  985SOL    HW1 3653   1.049   0.206   2.849  0.3798 -0.1286  0.3018
  985SOL    HW2 3654   1.130   0.334   2.845 -0.1906  0.2325  0.1738
  986SOL     OW 3655   5.203   1.641   3.852  0.1683  0.0824 -0.3272
  986SOL    HW1 3656   5.213   1.548   3.870 -2.7550 -0.1776  0.3689
  986SOL    HW2 3657   5.266   1.683   3.910 -0.0323 -1.3840  1.0246
  987SOL     OW 3658   3.805   2.551   3.949  0.4668  0.4867  0.3912
  987SOL    HW1 3659   3.883   2.531   4.001  0.8021 -0.2669 -0.3760
  987SOL    HW2 3660   3.837   2.604   3.876  0.0647  1.1666  0.6929
  988SOL     OW 3661   4.454   4.946   3.083  0.3397 -0.0310  0.4957
  988SOL    HW1 3662   4.512   4.941   3.007  0.1794  2.6489  0.0868
  988SOL    HW2 3663   4.366   4.944   3.046  0.2592  0.9516  0.6084
  989SOL     OW 3664   1.916   3.891   2.973 -0.3081 -0.4186 -0.2332
  989SOL    HW1 3665   2.010   3.911   2.975 -0.3485 -0.2436  0.1689
  989SOL    HW2 3666   1.878   3.960   2.919 -0.4222  0.5325  1.0068
  990SOL     OW 3667   2.827   4.227   1.607 -0.1675 -0.4951  0.0144
  990SOL    HW1 3668   2.758   4.286   1.639 -0.7361 -0.8990 -0.4434
  990SOL    HW2 3669   2.905   4.253   1.656 -0.6581 -0.0694  0.5915
  991SOL     OW 3670   1.267   1.564   1.902 -0.0002 -0.3836 -0.3336
  991SOL    HW1 3671   1.341   1.506   1.882  0.5374  0.2795 -0.3317
  991SOL    HW2 3672   1.268   1.629   1.832  0.3698  0.5177  0.4758
  992SOL     OW 3673   1.035   0.253   0.647 -0.1751 -0.1815  0.3751
  992SOL    HW1 3674   1.027   0.170   0.601 -0.6453  0.5542 -0.9298
  992SOL    HW2 3675   1.129   0.264   0.660 -0.0226 -0.3622 -0.5112
  993SOL     OW 3676   0.694   3.238   5.043  0.3403 -0.1913 -0.1654
  993SOL    HW1 3677   0.631   3.274   4.980  0.7356  0.8111 -0.0191
  993SOL    HW2 3678   0.779   3.249   5.000  0.4445 -1.3527 -0.2775
  994SOL     OW 3679   5.185   1.135   3.182 -0.2591  0.0533 -0.5794
  994SOL    HW1 3680   5.132   1.065   3.143 -0.2237  0.1609 -0.8214
  994SOL    HW2 3681   5.163   1.213   3.131 -0.8260  0.3767  0.1371
  995SOL     OW 3682   3.976   3.455   3.051 -0.2996  0.1165  0.0438
  995SOL    HW1 3683   4.023   3.530   3.089  0.9740 -1.1006  1.0024
  995SOL    HW2 3684   4.005   3.452   2.960  0.9642 -0.1673  0.4298
  996SOL     OW 3685   2.293   3.086   1.174 -0.1096 -0.2368 -0.6761
  996SOL    HW1 3686   2.354   3.071   1.102  2.9666 -0.9360  1.8354
  996SOL    HW2 3687   2.280   2.999   1.212 -1.8720  0.0745 -0.4698
  997SOL     OW 3688   2.312   2.574   0.277 -0.3340  0.6353 -0.4897
  997SOL    HW1 3689   2.393   2.586   0.227  0.8487  0.5243  1.3166
  997SOL    HW2 3690   2.276   2.491   0.245  0.7720  0.1996 -0.6419
  998SOL     OW 3691   4.236   1.104   2.515 -0.3344  0.0230  0.1346
  998SOL    HW1 3692   4.212   1.176   2.457 -1.3355 -0.7296 -0.4289
  998SOL    HW2 3693   4.152   1.067   2.543  0.1176 -2.0631 -1.0710
  999SOL     OW 3694   1.479   2.767   5.359  0.2560 -0.5906 -0.3331
  999SOL    HW1 3695   1.413   2.831   5.333  0.5308 -0.3005 -0.3201
  999SOL    HW2 3696   1.453   2.686   5.315  2.5859  0.6259 -4.4653
 1000SOL     OW 3697   4.723   2.354   3.844 -0.5531  0.0707 -0.2834
 1000SOL    HW1 3698   4.756   2.267   3.821 -0.2155  0.1580 -0.1384
 1000SOL    HW2 3699   4.697   2.346   3.936 -0.2264  0.2083 -0.1790
 1001SOL     OW 3700   0.991   2.248   3.965 -0.4013  0.3089 -0.3079
 1001SOL    HW1 3701   0.939   2.218   3.891 -2.2423  0.5075  0.8482
 1001SOL    HW2 3702   0.954   2.203   4.041 -0.9821  2.8194  0.9973
 1002SOL     OW 3703   0.136   4.237   2.206 -0.0065 -0.7136 -0.4973
 1002SOL    HW1 3704   0.150   4.251   2.112  1.2502 -0.1898 -0.2469
 1002SOL    HW2 3705   0.056   4.285   2.225 -0.2558 -0.7952 -1.2877
 1003SOL     OW 3706   4.588   2.940   3.260 -0.1548 -0.1609 -0.4985
 1003SOL    HW1 3707   4.665   2.951   3.203  0.8532  0.0141  0.8484
 1003SOL    HW2 3708   4.595   2.850   3.291  1.5635  0.8191  2.3867
 1004SOL     OW 3709   2.416   4.603   0.299  0.3971  0.0591 -0.0100
 1004SOL    HW1 3710   2.369   4.566   0.374 -0.8526 -0.1229 -0.8652
 1004SOL    HW2 3711   2.425   4.696   0.320  1.0728 -0.1899  0.8689
 1005SOL     OW 3712   4.074   0.613   3.191 -0.7035 -0.3624  0.3127
 1005SOL    HW1 3713   3.985   0.596   3.221 -1.0756 -0.2304 -0.7000
 1005SOL    HW2 3714   4.100   0.532   3.147 -0.9481  0.1999 -0.8780
 1006SOL     OW 3715   4.317   0.199   1.857  0.0039 -0.1237  0.3788
 1006SOL    HW1 3716   4.391   0.169   1.909 -0.2918 -1.5893 -0.0096
 1006SOL    HW2 3717   4.262   0.121   1.845 -1.3453  0.8118  0.2238
 1007SOL     OW 3718   5.341   2.141   1.232 -0.2710  0.5888 -0.5787
 1007SOL    HW1 3719   5.406   2.198   1.190  0.1832  0.2143 -0.4002
 1007SOL    HW2 3720   5.338   2.063   1.177 -0.3484  0.4778 -0.4168
 1008SOL     OW 3721   4.226   4.606   4.770 -0.4118  0.0004  0.3046
 1008SOL    HW1 3722   4.314   4.594   4.806 -0.0194  1.2826 -0.1751
 1008SOL    HW2 3723   4.215   4.701   4.763 -1.4583 -0.1588 -0.5567
 1009SOL     OW 3724   1.006   4.050   0.715  0.0105  0.2236 -0.2136
 1009SOL    HW1 3725   0.930   4.105   0.738 -0.8603 -1.3551  0.8941
 1009SOL    HW2 3726   1.076   4.082   0.771 -0.1703  0.8961 -0.3560
 1010SOL     OW 3727   2.647   2.319   0.613  0.7220 -0.1183 -0.2433
 1010SOL    HW1 3728   2.602   2.254   0.667  0.0514  0.7336  0.2456
 1010SOL    HW2 3729   2.582   2.346   0.548  0.8813  0.3153 -0.2282
 1011SOL     OW 3730   2.396   3.945   3.233  0.7439  0.0555  0.0323
 1011SOL    HW1 3731   2.448   3.915   3.159 -0.5103 -1.6476 -0.2171
 1011SOL    HW2 3732   2.380   3.867   3.286  2.8429  1.4371  3.0208
 1012SOL     OW 3733   4.826   1.766   4.252 -0.1261  0.4030 -0.2552
 1012SOL    HW1 3734   4.904   1.792   4.301 -1.6886  2.8953  1.1205
 1012SOL    HW2 3735   4.856   1.697   4.193  2.6028 -0.3576  1.8198
 1013SOL     OW 3736   4.687   4.685   5.175 -0.4670 -0.0147 -0.1607
 1013SOL    HW1 3737   4.753   4.619   5.197 -0.5076 -0.4373 -1.2630
 1013SOL    HW2 3738   4.737   4.755   5.133 -0.5599  0.2433  0.1479
 1014SOL     OW 3739   2.812   2.727   3.164 -0.1560  0.1200  0.3511
 1014SOL    HW1 3740   2.884   2.677   3.202  1.2778  0.3998 -1.8123
 1014SOL    HW2 3741   2.792   2.682   3.082 -2.1257  0.3635  0.6473
 1015SOL     OW 3742   1.254   1.984   0.468  0.4788  0.3890  0.3590
 1015SOL    HW1 3743   1.239   1.903   0.517  0.0655 -0.4584 -1.1108
 1015SOL    HW2 3744   1.167   2.011   0.440  0.6848  1.0123  0.3011
 1016SOL     OW 3745   2.831   4.829   3.760 -0.1958 -0.3184 -0.3672
 1016SOL    HW1 3746   2.856   4.914   3.796 -0.0229 -0.2522 -0.6426
 1016SOL    HW2 3747   2.847   4.837   3.666  1.7533 -1.3354 -0.1538
 1017SOL     OW 3748   4.330   1.405   3.359 -0.3318  0.0028  0.3755
 1017SOL    HW1 3749   4.389   1.359   3.420 -0.0356 -0.7317 -0.4487
 1017SOL    HW2 3750   4.370   1.392   3.273 -0.5702  1.3203  0.0585
 1018SOL     OW 3751   1.967   5.232   3.009  0.6682  0.5807 -0.2037
 1018SOL    HW1 3752   1.955   5.302   2.945  0.0078  0.4246 -0.2630
 1018SOL    HW2 3753   1.908   5.255   3.081 -1.1518 -0.9265 -1.1022
 1019SOL     OW 3754   4.040   0.905   2.654  0.2080 -0.2722  0.3970
 1019SOL    HW1 3755   4.015   0.923   2.744  2.3828 -2.4283  1.5498
 1019SOL    HW2 3756   3.978   0.838   2.625  0.4575 -0.7012  0.8468
 1020SOL     OW 3757   0.931   0.205   4.688 -0.0332  0.0152 -0.5318
 1020SOL    HW1 3758   0.956   0.165   4.771  1.6027  0.1532 -0.9369
 1020SOL    HW2 3759   0.855   0.154   4.659  2.7664 -3.9446 -1.7644
 1021SOL     OW 3760   2.483   1.425   4.921  0.3312 -0.0372  0.1217
 1021SOL    HW1 3761   2.530   1.366   4.862  0.0636  0.4144 -0.5545
 1021SOL    HW2 3762   2.402   1.447   4.874  0.1721  0.4381  0.6001
 1022SOL     OW 3763   0.498   1.909   3.319 -0.0987  0.3983 -0.5555
 1022SOL    HW1 3764   0.475   1.862   3.399 -1.7392  1.7134 -0.1948
 1022SOL    HW2 3765   0.483   2.001   3.341  1.1394  0.9490 -1.8505
 1023SOL     OW 3766   4.100   4.547   1.507  0.3066 -0.7113  0.1294
 1023SOL    HW1 3767   4.041   4.598   1.564 -0.3505 -2.1431  0.7853
 1023SOL    HW2 3768   4.093   4.458   1.540 -1.4225 -1.9835 -3.2395
 1024SOL     OW 3769   0.756   5.180   5.131  0.5090 -0.5308 -0.0537
 1024SOL    HW1 3770   0.835   5.176   5.185 -0.1420 -0.0468  0.9579
 1024SOL    HW2 3771   0.711   5.097   5.148  0.4037 -0.4663 -0.0160
 1025SOL     OW 3772   4.416   4.742   1.121  0.3226 -0.3177 -0.2564
 1025SOL    HW1 3773   4.508   4.749   1.095  0.3086 -0.8699 -0.4720
 1025SOL    HW2 3774   4.403   4.649   1.139 -0.2997 -0.3122 -0.6409
 1026SOL     OW 3775   0.265   1.535   2.243 -0.2591  0.3691 -0.2981
 1026SOL    HW1 3776   0.254   1.621   2.203 -1.5200  1.7913  2.7302
 1026SOL    HW2 3777   0.224   1.474   2.182  0.0775  1.9636 -2.2206
 1027SOL     OW 3778   1.368   2.871   3.840  0.5910  0.1720 -0.0933
 1027SOL    HW1 3779   1.421   2.936   3.794  0.4461  0.8780  0.7204
 1027SOL    HW2 3780   1.285   2.869   3.791  0.6682  0.4580 -0.2348
 1028SOL     OW 3781   2.106   2.049   3.513  0.1638  0.2643 -0.0319
 1028SOL    HW1 3782   2.101   2.007   3.428  0.8930 -0.1937  0.1427
 1028SOL    HW2 3783   2.139   2.137   3.495  0.0021  0.2794 -0.2508
 1029SOL     OW 3784   5.198   4.955   2.254  0.2939  0.0084 -0.2234
 1029SOL    HW1 3785   5.118   4.928   2.210 -0.3677  1.6761 -0.1156
 1029SOL    HW2 3786   5.178   5.042   2.289  1.3373 -0.5542  1.9312
 1030SOL     OW 3787   0.110   3.723   3.251  0.3207  0.4511  0.0789
 1030SOL    HW1 3788   0.025   3.708   3.208 -0.1675  1.5817  0.6130
 1030SOL    HW2 3789   0.174   3.707   3.182 -0.4033  1.1005 -0.7777
 1031SOL     OW 3790   1.275   1.613   4.876 -0.0803 -0.2284 -0.3326
 1031SOL    HW1 3791   1.238   1.647   4.795 -0.2391  1.1370  0.2849
 1031SOL    HW2 3792   1.346   1.672   4.897  1.1211 -1.5953 -0.3774
 1032SOL     OW 3793   3.618   2.537   2.063  0.2283 -0.1036 -0.4239
 1032SOL    HW1 3794   3.577   2.503   2.142  0.2048 -1.6346 -1.0496
 1032SOL    HW2 3795   3.712   2.539   2.083  0.2103 -0.3744 -0.3114
 1033SOL     OW 3796   0.720   2.704   2.300  0.0761 -0.6542  0.7361
 1033SOL    HW1 3797   0.783   2.684   2.231 -0.0894  1.4290 -0.0837
 1033SOL    HW2 3798   0.772   2.743   2.370 -0.0902 -0.4869  0.7654
 1034SOL     OW 3799   3.145   5.226   0.607  0.2245 -0.0181  0.1864
 1034SOL    HW1 3800   3.118   5.135   0.595  0.8759 -0.2680  0.5696
 1034SOL    HW2 3801   3.240   5.225   0.593  0.1514  0.7213 -0.4782
 1035SOL     OW 3802   5.240   4.451   0.002  0.3638 -0.2067  0.0328
 1035SOL    HW1 3803   5.241   4.540   0.038  0.4393 -0.5060  0.7838
 1035SOL    HW2 3804   5.322   4.412   0.032  0.8012 -0.2113 -1.1307
 1036SOL     OW 3805   4.827   0.072   1.806 -0.0502  0.1146 -0.2380
 1036SOL    HW1 3806   4.745   0.076   1.756 -0.1271  0.8213 -0.0640
 1036SOL    HW2 3807   4.804   0.106   1.893  0.2969 -0.2380 -0.0020
 1037SOL     OW 3808   4.094   4.006   3.925  0.1284 -0.1212  0.1598
 1037SOL    HW1 3809   4.124   4.096   3.918  0.4891 -0.2322  0.2527
 1037SOL    HW2 3810   4.009   4.011   3.970  1.1919 -0.0139  2.2581
 1038SOL     OW 3811   4.141   1.660   3.017 -0.3468 -0.0595 -0.1826
 1038SOL    HW1 3812   4.202   1.724   3.054 -1.2624 -0.2105  1.7329
 1038SOL    HW2 3813   4.109   1.612   3.093 -2.2157 -0.5310 -1.2144
 1039SOL     OW 3814   0.996   4.407   5.293 -0.1518  0.0572  0.1123
 1039SOL    HW1 3815   1.033   4.474   5.236  0.0567  0.4423  0.6938
 1039SOL    HW2 3816   0.924   4.370   5.242  1.2513 -0.9892 -1.2009
 1040SOL     OW 3817   0.750   5.203   4.842 -0.1522 -0.4582  0.2011
 1040SOL    HW1 3818   0.710   5.116   4.845 -1.6520  0.2019 -0.0295
 1040SOL    HW2 3819   0.781   5.218   4.931 -1.8577 -0.3586  0.8101
 1041SOL     OW 3820   0.183   3.517   4.055 -0.3600 -0.6733 -0.4155
 1041SOL    HW1 3821   0.094   3.539   4.028 -0.4867 -0.2508  0.3338
 1041SOL    HW2 3822   0.218   3.598   4.091  1.2314 -0.0993 -2.9719
 1042SOL     OW 3823   1.029   0.859   4.487 -0.4332 -0.4288 -1.1388
 1042SOL    HW1 3824   1.061   0.949   4.492  0.6327 -0.8213 -0.6291
 1042SOL    HW2 3825   1.028   0.828   4.577 -1.5105 -0.7008 -1.2249
 1043SOL     OW 3826   3.302   1.604   5.259  0.0129  0.2681  0.2152
 1043SOL    HW1 3827   3.288   1.572   5.170  1.0946 -0.6074  0.3400
 1043SOL    HW2 3828   3.274   1.695   5.257 -2.2369 -0.3839 -0.3986
 1044SOL     OW 3829   2.160   4.505   4.723 -0.5334 -0.6945 -0.0626
 1044SOL    HW1 3830   2.075   4.508   4.767 -0.5939 -0.2282 -0.2041
 1044SOL    HW2 3831   2.223   4.485   4.793 -0.3835  1.8621  0.6399
 1045SOL     OW 3832   2.583   1.349   2.206 -0.3296  0.3395  0.7645
 1045SOL    HW1 3833   2.674   1.357   2.178 -0.6089 -0.3974 -0.4281
 1045SOL    HW2 3834   2.535   1.410   2.150 -1.1019 -2.1949 -1.6016
 1046SOL     OW 3835   0.616   5.223   2.009  0.5382 -0.2129  0.2362
 1046SOL    HW1 3836   0.631   5.181   1.925 -0.2451  0.3251 -0.1854
 1046SOL    HW2 3837   0.704   5.239   2.044  0.8587 -1.6835  0.1693
 1047SOL     OW 3838   0.595   0.066   0.977  0.1120  0.0974 -0.5165
 1047SOL    HW1 3839   0.644   0.107   0.905 -0.1452 -0.3670 -0.9656
 1047SOL    HW2 3840   0.564   0.139   1.030 -0.7073  0.5073 -1.5409
 1048SOL     OW 3841   0.747   2.261   2.337  0.2081 -0.1395  0.5268
 1048SOL    HW1 3842   0.825   2.293   2.292  0.4323 -1.1142  0.2105
 1048SOL    HW2 3843   0.698   2.340   2.358  1.0933  0.4585  0.3888
 1049SOL     OW 3844   2.338   3.505   2.222  0.1838  0.6521 -0.5140
 1049SOL    HW1 3845   2.253   3.481   2.261  0.3495 -0.0055 -0.5507
 1049SOL    HW2 3846   2.359   3.590   2.263  0.0164  0.3112  0.3059
 1050SOL     OW 3847   0.048   5.095   4.415  0.7294 -0.0878  0.7811
 1050SOL    HW1 3848   0.076   5.181   4.384  0.2131 -0.9010 -2.2236
 1050SOL    HW2 3849   0.111   5.034   4.377 -2.3217 -1.5455 -2.5031
 1051SOL     OW 3850   0.991   3.398   2.402 -0.0778 -0.4919  0.0096
 1051SOL    HW1 3851   1.051   3.356   2.463 -0.8937 -0.0566  1.1428
 1051SOL    HW2 3852   0.912   3.414   2.453 -0.6637  0.1943 -1.0694
 1052SOL     OW 3853   4.322   0.692   3.035 -0.2161 -0.2264 -0.2750
 1052SOL    HW1 3854   4.254   0.683   3.102 -0.9909  0.5752 -0.9339
 1052SOL    HW2 3855   4.281   0.660   2.954  0.6923 -1.1361 -0.4069
 1053SOL     OW 3856   1.676   0.066   4.896 -0.3415 -0.0333  0.3000
 1053SOL    HW1 3857   1.584   0.043   4.879 -0.4049  0.1125  0.4378
 1053SOL    HW2 3858   1.726   0.003   4.845 -0.5147 -0.3166  0.4758
 1054SOL     OW 3859   4.905   4.164   1.102  0.8705  0.2777  0.2076
 1054SOL    HW1 3860   4.883   4.075   1.075  0.1105  0.4087  0.3814
 1054SOL    HW2 3861   4.906   4.160   1.198  2.5375  0.0605  0.2230
 1055SOL     OW 3862   1.508   4.991   4.356 -0.1938 -0.2734 -0.1405
 1055SOL    HW1 3863   1.546   4.926   4.415  0.0031 -0.0216  0.0080
 1055SOL    HW2 3864   1.416   4.963   4.347  0.1072 -1.0904 -0.7914
 1056SOL     OW 3865   1.785   4.047   0.030 -0.1386  0.2340  0.1161
 1056SOL    HW1 3866   1.875   4.081   0.026  0.6989 -1.8051  0.3187
 1056SOL    HW2 3867   1.758   4.063   0.121  1.0999 -1.6043  0.8546
 1057SOL     OW 3868   3.502   1.299   5.275 -0.5384  0.0079  0.5164
 1057SOL    HW1 3869   3.499   1.204   5.279  0.5303 -0.1307 -1.0271
 1057SOL    HW2 3870   3.590   1.322   5.303 -0.2993  0.4186 -0.5141
 1058SOL     OW 3871   0.074   3.184   0.099  0.4140  0.4001  0.2308
 1058SOL    HW1 3872   0.107   3.094   0.103  0.0405  0.2159 -0.6464
 1058SOL    HW2 3873  -0.011   3.176   0.056  0.3403  1.1707  0.2228
 1059SOL     OW 3874   0.843   4.691   0.856  0.3750  0.7313 -0.3463
 1059SOL    HW1 3875   0.829   4.776   0.897  0.9018  0.1399  1.1522
 1059SOL    HW2 3876   0.831   4.707   0.763  0.4988  2.4503 -0.1054
 1060SOL     OW 3877   1.059   3.952   2.254 -0.3042  0.3886  0.6860
 1060SOL    HW1 3878   1.034   3.887   2.320  1.1916  1.3905  2.3420
 1060SOL    HW2 3879   0.975   3.990   2.225 -1.2157 -2.3024 -0.4680
 1061SOL     OW 3880   0.234   3.466   0.886  0.0445  0.0467 -0.1428
 1061SOL    HW1 3881   0.286   3.495   0.961  1.8674  2.2892 -2.1097
 1061SOL    HW2 3882   0.152   3.515   0.894  0.9174  1.6331 -0.4671
 1062SOL     OW 3883   3.941   2.491   0.820  0.4028  0.3135 -0.2347
 1062SOL    HW1 3884   3.927   2.516   0.912 -1.3843  0.3205 -0.4862
 1062SOL    HW2 3885   4.034   2.507   0.806  0.6205  0.7702  1.4392
 1063SOL     OW 3886   4.511   1.121   4.160 -0.1243  0.0611 -0.2756
 1063SOL    HW1 3887   4.437   1.181   4.165  0.7210  1.1149  0.0830
 1063SOL    HW2 3888   4.588   1.178   4.165  0.7145 -0.9688 -0.9781
 1064SOL     OW 3889   3.822   4.021   5.157 -0.1989 -0.0456 -0.7127
 1064SOL    HW1 3890   3.788   4.106   5.184 -0.3717 -0.6130  1.0164
 1064SOL    HW2 3891   3.765   3.994   5.085 -0.0086  1.3677 -1.4279
 1065SOL     OW 3892   2.628   4.937   3.454 -0.3849 -0.1479  0.3452
 1065SOL    HW1 3893   2.678   4.882   3.394  0.8622  1.1072  0.1882
 1065SOL    HW2 3894   2.628   4.889   3.537  1.1560 -0.1523  0.3619
 1066SOL     OW 3895   0.677   1.110   3.940  0.3177 -0.0273 -0.0053
 1066SOL    HW1 3896   0.650   1.018   3.944  2.0743 -0.5845 -0.1263
 1066SOL    HW2 3897   0.596   1.158   3.925 -0.5859 -1.5955 -0.3831
 1067SOL     OW 3898   1.965   0.309   1.302  0.6745  0.3504  0.1749
 1067SOL    HW1 3899   1.936   0.292   1.392  1.4741 -0.5981  0.2685
 1067SOL    HW2 3900   1.901   0.372   1.268 -0.5717 -0.4712  0.8869
 1068SOL     OW 3901   2.818   2.571   5.364  0.6427  0.2516 -0.7474
 1068SOL    HW1 3902   2.751   2.639   5.375 -0.4208 -1.0073  1.2818
 1068SOL    HW2 3903   2.770   2.498   5.325  0.2437 -1.3080  2.3545
 1069SOL     OW 3904   2.876   1.987   1.474  0.0134  0.5677  0.3088
 1069SOL    HW1 3905   2.900   1.908   1.523  1.4781  0.4046 -0.6354
 1069SOL    HW2 3906   2.791   2.012   1.511  0.3239 -0.4557  1.8058
 1070SOL     OW 3907   2.874   4.845   2.228  0.4311  0.0105 -0.0865
 1070SOL    HW1 3908   2.798   4.807   2.271  1.1782 -1.1159  0.2889
 1070SOL    HW2 3909   2.885   4.931   2.268  0.8232 -0.8143  1.6603
 1071SOL     OW 3910   1.577   2.425   3.367  0.2499  0.0970  0.4385
 1071SOL    HW1 3911   1.666   2.391   3.366  1.4711  2.9908 -0.8214
 1071SOL    HW2 3912   1.555   2.437   3.274 -1.1523  0.1530  0.7608
 1072SOL     OW 3913   4.568   2.653   3.302  0.4939 -0.2076 -0.0993
 1072SOL    HW1 3914   4.488   2.615   3.265 -0.0351 -1.1942  1.9196
 1072SOL    HW2 3915   4.630   2.580   3.303  0.5797 -0.1267  0.7012
 1073SOL     OW 3916   5.149   3.706   0.508  0.0698 -0.5945  0.3455
 1073SOL    HW1 3917   5.157   3.799   0.530  1.3722 -0.7564  0.6216
 1073SOL    HW2 3918   5.223   3.665   0.552  0.8652 -1.4292 -1.6574
 1074SOL     OW 3919   4.226   0.070   1.096 -0.1892 -0.5411  0.2256
 1074SOL    HW1 3920   4.311   0.069   1.052 -0.4336  0.2186 -0.2884
 1074SOL    HW2 3921   4.227   0.152   1.147 -1.0936  0.1234 -0.7735
 1075SOL     OW 3922   1.960   5.255   2.326  0.0450  0.3799  0.5134
 1075SOL    HW1 3923   1.994   5.214   2.247  0.0587  2.6350 -0.7183
 1075SOL    HW2 3924   2.033   5.306   2.361  0.1144 -0.7505  2.1662
 1076SOL     OW 3925   2.536   5.016   2.796  0.1706 -0.3499  0.6825
 1076SOL    HW1 3926   2.556   4.958   2.869  0.9630 -0.0462  0.7193
 1076SOL    HW2 3927   2.453   4.984   2.762  1.4087 -2.6732 -0.4257
 1077SOL     OW 3928   4.765   0.665   1.410  0.1624  0.0250 -0.0287
 1077SOL    HW1 3929   4.720   0.582   1.422  2.1118 -0.9336  1.0868
 1077SOL    HW2 3930   4.785   0.668   1.316 -0.0047 -0.7081 -0.0916
 1078SOL     OW 3931   1.021   3.740   2.471 -0.4081  0.1916 -0.3002
 1078SOL    HW1 3932   0.973   3.672   2.423  0.5716 -1.2453  0.6819
 1078SOL    HW2 3933   1.107   3.702   2.486  0.5551  2.1281 -0.6912
 1079SOL     OW 3934   3.115   1.929   4.570 -0.2758 -0.6609  0.5107
 1079SOL    HW1 3935   3.040   1.879   4.603  0.4300  0.2363  3.9273
 1079SOL    HW2 3936   3.101   2.018   4.603  1.2048  0.0769 -0.6949
 1080SOL     OW 3937   2.707   3.467   1.961  0.3041 -0.1313  0.6710
 1080SOL    HW1 3938   2.661   3.550   1.978 -1.9643 -0.9308 -1.0206
 1080SOL    HW2 3939   2.695   3.416   2.041 -2.0013 -0.3436  0.2790
 1081SOL     OW 3940   0.050   4.836   1.879 -0.1825 -0.2216  0.5209
 1081SOL    HW1 3941   0.122   4.821   1.817 -1.0194 -0.3692 -0.4379
 1081SOL    HW2 3942  -0.017   4.881   1.827 -0.8502 -0.2445  1.3580
 1082SOL     OW 3943   0.543   3.216   3.866 -0.3303  0.1112  0.3386
 1082SOL    HW1 3944   0.504   3.300   3.891 -0.4720  0.2264 -0.2669
 1082SOL    HW2 3945   0.600   3.236   3.793 -1.3591 -0.5153 -0.6676
 1083SOL     OW 3946   1.160   2.857   5.041  0.2002 -0.3590 -0.0455
 1083SOL    HW1 3947   1.080   2.897   5.008  0.2373 -0.0236  0.2600
 1083SOL    HW2 3948   1.231   2.910   5.003  0.2334  0.2667  0.8523
 1084SOL     OW 3949   3.770   3.134   4.044  0.0642  0.4665 -0.1924
 1084SOL    HW1 3950   3.755   3.039   4.040 -1.8098  0.7674 -2.9229
 1084SOL    HW2 3951   3.840   3.150   3.981 -0.1517  0.9973 -0.3004
 1085SOL     OW 3952   0.844   0.152   2.364 -0.0740  0.2969 -0.2396
 1085SOL    HW1 3953   0.830   0.138   2.270  1.5561  1.2137 -0.6683
 1085SOL    HW2 3954   0.837   0.065   2.403 -0.9314 -0.0734 -1.1854
 1086SOL     OW 3955   3.566   0.743   4.769 -0.1970  0.2728  0.2010
 1086SOL    HW1 3956   3.519   0.825   4.754 -2.2066 -0.7935  0.2905
 1086SOL    HW2 3957   3.653   0.770   4.797 -1.1697  2.3763  1.4421
 1087SOL     OW 3958   0.435   0.371   4.216  0.7486 -0.4723  0.2300
 1087SOL    HW1 3959   0.517   0.373   4.165  1.4516 -0.6330  1.3342
 1087SOL    HW2 3960   0.378   0.434   4.171  1.6217 -0.0476 -0.3145
 1088SOL     OW 3961   0.915   5.252   1.155  0.5556  0.1672  1.3710
 1088SOL    HW1 3962   0.980   5.191   1.118  0.5258  1.0244 -0.1861
 1088SOL    HW2 3963   0.955   5.338   1.145 -1.3384  0.8852 -1.0082
 1089SOL     OW 3964   4.453   4.449   5.236 -0.3840 -0.2611 -0.3044
 1089SOL    HW1 3965   4.437   4.412   5.323 -1.6722 -1.1312 -0.8773
 1089SOL    HW2 3966   4.371   4.494   5.215 -0.0541  0.0031 -1.0471
 1090SOL     OW 3967   3.001   1.147   3.628  0.1351  0.5578 -0.2363
 1090SOL    HW1 3968   2.995   1.057   3.659  0.7280  0.4757 -0.3384
 1090SOL    HW2 3969   2.933   1.195   3.676  0.4968  0.2687  0.5708
 1091SOL     OW 3970   2.000   2.055   4.470 -0.3758  0.4308  0.1912
 1091SOL    HW1 3971   2.054   2.134   4.461 -1.0427  0.6939 -1.9193
 1091SOL    HW2 3972   2.002   2.015   4.384 -2.4846 -0.2591  0.4263
 1092SOL     OW 3973   4.775   1.494   3.000 -0.0898  0.7077 -0.0597
 1092SOL    HW1 3974   4.769   1.420   3.060 -1.1895 -0.2721 -1.3093
 1092SOL    HW2 3975   4.830   1.462   2.929 -0.4688  1.1226 -0.5505
 1093SOL     OW 3976   5.034   4.720   3.071 -0.1199 -1.3290 -1.1666
 1093SOL    HW1 3977   4.956   4.702   3.018 -0.9913  0.2976 -0.4938
 1093SOL    HW2 3978   5.052   4.812   3.056 -0.0259 -0.9667  0.8619
 1094SOL     OW 3979   5.269   0.873   0.954 -0.3278 -0.0719 -0.3439
 1094SOL    HW1 3980   5.337   0.845   1.015  0.6449  0.2595 -1.2383
 1094SOL    HW2 3981   5.274   0.968   0.954 -1.9899  0.0449  0.8756
 1095SOL     OW 3982   3.393   0.950   1.739 -0.1548  0.1676  0.1789
 1095SOL    HW1 3983   3.446   1.028   1.753 -0.7499  1.1276 -2.3876
 1095SOL    HW2 3984   3.304   0.978   1.761 -0.2812  0.0328 -0.1578
 1096SOL     OW 3985   3.410   0.236   1.484  0.0630 -0.4268 -0.3723
 1096SOL    HW1 3986   3.481   0.231   1.420  1.0028 -1.3189  0.7030
 1096SOL    HW2 3987   3.439   0.181   1.557 -1.0904  0.3485  0.7160
 1097SOL     OW 3988   0.698   5.215   0.956 -0.3123 -0.2518 -0.3390
 1097SOL    HW1 3989   0.750   5.229   1.035  2.6147  0.0089 -2.1264
 1097SOL    HW2 3990   0.647   5.296   0.946  0.5732  0.4309  0.4172
 1098SOL     OW 3991   4.415   3.479   5.251  0.3281  0.5793 -0.3397
 1098SOL    HW1 3992   4.360   3.403   5.229  0.8671  0.1574 -0.2396
 1098SOL    HW2 3993   4.502   3.443   5.266 -0.0483  0.7337  3.0338
 1099SOL     OW 3994   4.353   4.698   3.962 -0.0629  0.2292  0.3624
 1099SOL    HW1 3995   4.268   4.682   4.001 -1.2039  2.2942 -1.0614
 1099SOL    HW2 3996   4.334   4.737   3.876  2.3007  0.4334 -0.1620
 1100SOL     OW 3997   2.592   2.542   4.127  0.1934 -0.2724  0.2725
 1100SOL    HW1 3998   2.584   2.511   4.218 -2.5686 -0.0298  0.2131
 1100SOL    HW2 3999   2.513   2.595   4.114  1.1880  0.7647 -1.8861
 1101SOL     OW 4000   0.729   1.783   2.822 -0.0099 -0.0783  0.1268
 1101SOL    HW1 4001   0.713   1.877   2.831 -0.1043  0.2080 -2.3480
 1101SOL    HW2 4002   0.779   1.775   2.741 -1.0924 -2.2598 -0.3931
 1102SOL     OW 4003   4.359   2.728   0.494  0.1444  0.3601  0.4210
 1102SOL    HW1 4004   4.370   2.667   0.421  1.3688  1.4519 -0.3524
 1102SOL    HW2 4005   4.332   2.810   0.453  2.6876  1.5417  0.9180
 1103SOL     OW 4006   4.242   4.383   4.090 -0.2514  0.6052  0.0609
 1103SOL    HW1 4007   4.192   4.439   4.150  0.8844 -0.5992  2.2461
 1103SOL    HW2 4008   4.324   4.366   4.136  0.5451 -0.6750 -1.7233
 1104SOL     OW 4009   4.643   5.019   3.342 -0.0099 -0.2528  0.5794
 1104SOL    HW1 4010   4.723   4.970   3.324 -0.1449 -0.6609  1.0808
 1104SOL    HW2 4011   4.600   5.028   3.257  1.4050  1.4672 -0.0204
 1105SOL     OW 4012   3.537   0.589   0.514 -0.0815  0.2849  0.5060
 1105SOL    HW1 4013   3.571   0.530   0.581 -1.1545 -0.4057  0.4609
 1105SOL    HW2 4014   3.588   0.568   0.436 -0.5451 -0.6981  0.4526
 1106SOL     OW 4015   1.825   5.095   3.550  0.3240 -0.1440 -0.0598
 1106SOL    HW1 4016   1.909   5.071   3.509  0.4267 -0.6437  0.4302
 1106SOL    HW2 4017   1.766   5.108   3.476  0.2107 -2.1460 -0.3845
 1107SOL     OW 4018   4.848   1.844   0.577 -0.1689  0.2698 -0.5701
 1107SOL    HW1 4019   4.887   1.757   0.572  0.9758  0.8427 -2.4234
 1107SOL    HW2 4020   4.872   1.877   0.664  2.4417  0.0777 -1.1439
 1108SOL     OW 4021   3.764   2.894   3.162 -0.7759  0.3517 -0.3103
 1108SOL    HW1 4022   3.759   2.800   3.144  0.1488  0.1192  0.5788
 1108SOL    HW2 4023   3.702   2.933   3.100  0.0100 -0.6885 -1.8237
 1109SOL     OW 4024   4.763   4.646   4.089  0.8456  0.3126 -0.6085
 1109SOL    HW1 4025   4.829   4.603   4.143 -0.2448 -2.0379 -1.0250
 1109SOL    HW2 4026   4.797   4.639   4.000 -0.7853 -2.8467 -1.1121
 1110SOL     OW 4027   3.744   1.871   0.998 -0.2448  0.1245 -0.2317
 1110SOL    HW1 4028   3.795   1.864   1.078  0.7318 -4.3450 -0.9668
 1110SOL    HW2 4029   3.653   1.874   1.027  0.0613 -2.0336  1.1403
 1111SOL     OW 4030   5.242   4.441   0.499 -0.2335 -0.0465 -0.0333
 1111SOL    HW1 4031   5.217   4.373   0.562 -0.3835 -0.0943 -0.1436
 1111SOL    HW2 4032   5.188   4.423   0.422 -1.3961  1.1177  0.4846
 1112SOL     OW 4033   3.790   1.707   1.605  0.0184 -0.4500  0.5874
 1112SOL    HW1 4034   3.867   1.682   1.554 -1.0332 -1.6087 -0.5217
 1112SOL    HW2 4035   3.766   1.628   1.654  0.3413  0.3191  2.0412
 1113SOL     OW 4036   0.937   4.904   4.711 -0.5572  0.1329 -0.5182
 1113SOL    HW1 4037   0.869   4.900   4.779  0.9460 -1.3296  0.9914
 1113SOL    HW2 4038   0.988   4.982   4.734 -0.9070  0.4600 -0.8431
 1114SOL     OW 4039   4.547   1.980   0.750  0.5076  0.4223 -0.5898
 1114SOL    HW1 4040   4.617   2.032   0.711  0.9183 -0.0840 -0.5424
 1114SOL    HW2 4041   4.508   1.933   0.677  0.2167  0.7053 -0.6162
 1115SOL     OW 4042   2.012   3.724   4.657  0.0380  0.0205 -0.0821
 1115SOL    HW1 4043   1.919   3.726   4.635 -0.1402 -1.8352  0.3226
 1115SOL    HW2 4044   2.056   3.726   4.572 -0.3794  0.4426 -0.2965
 1116SOL     OW 4045   2.000   1.919   2.189 -0.0177  0.0125  0.0847
 1116SOL    HW1 4046   1.985   1.838   2.140  1.4905 -0.5953  0.5974
 1116SOL    HW2 4047   1.917   1.934   2.235 -0.1299 -1.5894  0.4749
 1117SOL     OW 4048   0.871   0.833   0.570 -0.3214  0.1241  0.7896
 1117SOL    HW1 4049   0.814   0.757   0.552  1.4764 -1.0298 -0.3007
 1117SOL    HW2 4050   0.942   0.797   0.624  0.6102  1.0023  0.1807
 1118SOL     OW 4051   4.825   2.210   0.208 -0.6342 -0.2747 -0.1639
 1118SOL    HW1 4052   4.854   2.235   0.296 -1.0831 -0.6699  0.1078
 1118SOL    HW2 4053   4.783   2.125   0.221  2.9624 -2.4743 -1.4069
 1119SOL     OW 4054   1.242   4.800   1.069  0.0079  0.0165 -0.3823
 1119SOL    HW1 4055   1.337   4.793   1.068 -0.0920 -2.0469 -1.0534
 1119SOL    HW2 4056   1.218   4.798   1.162  0.5809  0.1111 -0.2304
 1120SOL     OW 4057   5.269   1.843   0.164  0.3351 -0.1240 -0.2118
 1120SOL    HW1 4058   5.174   1.851   0.165  0.2692 -0.6469 -1.0153
 1120SOL    HW2 4059   5.291   1.804   0.248 -0.0684  0.8045  0.3440
 1121SOL     OW 4060   0.261   0.588   0.491 -0.3618 -0.3970 -0.9447
 1121SOL    HW1 4061   0.204   0.582   0.414  0.8285  0.7182 -1.9569
 1121SOL    HW2 4062   0.348   0.603   0.455 -0.0607  2.3356  0.6441
 1122SOL     OW 4063   2.156   1.917   2.824  0.0446 -0.8349  0.5506
 1122SOL    HW1 4064   2.121   1.998   2.861 -1.8657 -0.7216 -1.3577
 1122SOL    HW2 4065   2.181   1.940   2.735  3.1559 -1.4622  1.1264
 1123SOL     OW 4066   3.601   3.772   0.731 -0.7680  0.2850 -0.8967
 1123SOL    HW1 4067   3.622   3.771   0.825 -1.6028  0.2008 -0.6975
 1123SOL    HW2 4068   3.680   3.740   0.688 -0.9719 -1.4962 -0.0717
 1124SOL     OW 4069   2.380   3.498   4.819 -0.3062  0.1416  0.3252
 1124SOL    HW1 4070   2.466   3.474   4.784 -1.3316 -0.6065 -1.8155
 1124SOL    HW2 4071   2.342   3.415   4.847 -0.4057  0.4578  1.1604
 1125SOL     OW 4072   3.180   3.452   1.112  0.2234  0.2660 -0.2636
 1125SOL    HW1 4073   3.201   3.533   1.159  0.0491  0.5550 -0.6754
 1125SOL    HW2 4074   3.246   3.448   1.042  1.8596 -1.2735  1.2566
 1126SOL     OW 4075   1.907   1.870   4.632 -0.3099 -0.4803  0.0238
 1126SOL    HW1 4076   1.935   1.793   4.583  0.0683  0.4019 -1.1978
 1126SOL    HW2 4077   1.949   1.944   4.587 -1.2248  0.5057  0.7272
 1127SOL     OW 4078   2.891   5.330   3.849 -0.4432 -0.2865  0.1029
 1127SOL    HW1 4079   2.811   5.292   3.812 -2.2027  2.7056  0.4750
 1127SOL    HW2 4080   2.937   5.367   3.773 -2.0974  2.4536  0.3207
 1128SOL     OW 4081   0.618   2.865   3.784  0.0478 -0.4921 -0.0150
 1128SOL    HW1 4082   0.680   2.852   3.713  0.3844  0.1486  0.1541
 1128SOL    HW2 4083   0.630   2.957   3.810 -0.3723 -0.5992  0.5754
 1129SOL     OW 4084   2.071   3.748   4.415 -0.6913  0.1716  0.4014
 1129SOL    HW1 4085   2.043   3.831   4.376  0.3069  0.3687  0.0703
 1129SOL    HW2 4086   2.043   3.682   4.352  1.2485  0.5172 -0.9088
 1130SOL     OW 4087   0.717   3.001   3.228 -0.0780 -0.1157 -0.3771
 1130SOL    HW1 4088   0.638   3.054   3.218  0.2958  0.7712  1.0933
 1130SOL    HW2 4089   0.689   2.912   3.204 -0.8590  0.5899 -2.2999
 1131SOL     OW 4090   4.470   4.059   0.619  0.1310  0.7835 -0.5411
 1131SOL    HW1 4091   4.524   3.993   0.576  0.1268  1.0976 -1.0259
 1131SOL    HW2 4092   4.517   4.080   0.700 -0.2635 -0.3994  0.0286
 1132SOL     OW 4093   1.860   3.673   3.120  0.1417  0.1260 -0.0710
 1132SOL    HW1 4094   1.858   3.753   3.067 -0.6820 -0.5090 -1.0231
 1132SOL    HW2 4095   1.818   3.607   3.065 -3.0016 -0.0106  2.2659
 1133SOL     OW 4096   1.261   3.595   2.428 -0.3324 -0.1898  0.2584
 1133SOL    HW1 4097   1.352   3.624   2.442  0.4074 -0.7511 -2.7177
 1133SOL    HW2 4098   1.254   3.515   2.481  0.7886  0.0687  0.8413
 1134SOL     OW 4099   4.664   5.302   4.855  0.9750 -0.2714  0.3417
 1134SOL    HW1 4100   4.662   5.392   4.820  1.2556 -0.2427  0.4016
 1134SOL    HW2 4101   4.747   5.266   4.825  0.6468 -0.6766 -0.0868
 1135SOL     OW 4102   3.151   3.129   2.665  0.6067  0.2769 -0.5418
 1135SOL    HW1 4103   3.080   3.080   2.624  0.3808 -1.2039  1.4931
 1135SOL    HW2 4104   3.107   3.205   2.705 -0.1244 -1.1439  1.5764
 1136SOL     OW 4105   4.794   2.143   0.658 -0.2067 -0.1726 -0.8174
 1136SOL    HW1 4106   4.782   2.236   0.677  0.2349 -0.3656  0.4772
 1136SOL    HW2 4107   4.859   2.113   0.722 -0.1961 -1.3340 -1.3400
 1137SOL     OW 4108   4.837   3.062   1.149 -0.0933 -0.4441 -0.0798
 1137SOL    HW1 4109   4.872   3.140   1.193  1.1723 -0.7508 -0.4974
 1137SOL    HW2 4110   4.753   3.091   1.114 -0.3637  0.2841  1.0978
 1138SOL     OW 4111   0.704   3.327   4.189  0.8068  0.5117  0.4170
 1138SOL    HW1 4112   0.676   3.372   4.109 -0.9350  1.1849  1.3724
 1138SOL    HW2 4113   0.651   3.365   4.258 -0.0605 -2.3445  1.4275
 1139SOL     OW 4114   1.744   4.812   3.293 -0.0248 -0.0849  0.8167
 1139SOL    HW1 4115   1.692   4.733   3.305  0.8483 -0.5475  1.7219
 1139SOL    HW2 4116   1.799   4.816   3.371  0.1712  1.2485  0.6346
 1140SOL     OW 4117   0.597   1.424   1.365 -0.0977  0.1459  0.1664
 1140SOL    HW1 4118   0.637   1.403   1.449 -0.6541  2.1594  0.9793
 1140SOL    HW2 4119   0.524   1.481   1.386 -0.9041 -0.1520 -1.6229
 1141SOL     OW 4120   3.173   0.288   1.215  0.8739 -0.0075  0.1384
 1141SOL    HW1 4121   3.253   0.333   1.188 -0.4143  1.3167 -1.7985
 1141SOL    HW2 4122   3.105   0.355   1.206 -0.5045 -1.1538  1.5139
 1142SOL     OW 4123   3.378   1.869   2.657  0.0474  0.1554 -0.0750
 1142SOL    HW1 4124   3.429   1.935   2.612 -0.8052 -0.2782 -1.7394
 1142SOL    HW2 4125   3.443   1.813   2.700  0.7717  2.0174  1.3709
 1143SOL     OW 4126   0.472   3.321   1.948 -0.3895  0.3332 -0.4154
 1143SOL    HW1 4127   0.464   3.318   1.853  0.3049 -0.4239 -0.4605
 1143SOL    HW2 4128   0.382   3.310   1.980 -0.7367  1.3851 -0.9742
 1144SOL     OW 4129   4.626   0.412   1.730  0.3024 -0.8333  0.2926
 1144SOL    HW1 4130   4.722   0.408   1.723  0.3278 -0.6748  0.5234
 1144SOL    HW2 4131   4.595   0.345   1.670  0.5283 -0.2340 -0.5061
 1145SOL     OW 4132   1.798   2.195   0.838  0.5635 -0.2320  0.0487
 1145SOL    HW1 4133   1.867   2.144   0.795  1.6896 -0.2960  1.8274
 1145SOL    HW2 4134   1.833   2.284   0.840  0.0208 -0.0111 -0.1626
 1146SOL     OW 4135   4.437   5.228   2.263  0.0795 -0.4820 -0.0163
 1146SOL    HW1 4136   4.420   5.322   2.258  3.0677  0.0959 -1.8180
 1146SOL    HW2 4137   4.501   5.218   2.333 -0.6965 -1.3166  0.6049
 1147SOL     OW 4138   1.775   3.865   2.140  0.2783  0.2052  0.4227
 1147SOL    HW1 4139   1.805   3.955   2.153 -0.7245  0.6116  0.0736
 1147SOL    HW2 4140   1.796   3.820   2.221  1.0325  0.6841  0.5025
 1148SOL     OW 4141   2.763   4.632   5.122  0.4467 -0.6094 -0.7655
 1148SOL    HW1 4142   2.694   4.569   5.103  1.9509 -2.3495 -0.7301
 1148SOL    HW2 4143   2.844   4.591   5.090  1.5332  1.2178 -0.5564
 1149SOL     OW 4144   0.777   1.668   2.385 -0.3305  0.8187  0.5977
 1149SOL    HW1 4145   0.772   1.750   2.337  1.2079 -0.0729 -1.2185
 1149SOL    HW2 4146   0.688   1.653   2.417 -1.0931  2.1595 -0.7927
 1150SOL     OW 4147   1.180   1.854   1.154  0.3789  0.3240 -1.0148
 1150SOL    HW1 4148   1.207   1.915   1.084 -0.2711  0.2946 -1.2980
 1150SOL    HW2 4149   1.085   1.857   1.152  0.3533  0.4809  0.0251
 1151SOL     OW 4150   3.344   1.675   2.998  0.4379  0.0038 -0.2555
 1151SOL    HW1 4151   3.353   1.583   3.022 -0.3556  0.3004  1.3146
 1151SOL    HW2 4152   3.431   1.702   2.971  1.2558 -0.5857  1.6622
 1152SOL     OW 4153   0.833   1.613   0.858  0.7872 -0.1538  0.2503
 1152SOL    HW1 4154   0.886   1.620   0.779 -0.0082 -1.6478 -0.4804
 1152SOL    HW2 4155   0.743   1.607   0.825  0.3762 -0.0296  1.3171
 1153SOL     OW 4156   2.775   2.770   1.879  0.1468 -0.0754 -0.0102
 1153SOL    HW1 4157   2.730   2.700   1.927  0.8747 -0.2959  0.3662
 1153SOL    HW2 4158   2.750   2.851   1.924 -0.8951 -0.0592 -0.5973
 1154SOL     OW 4159   1.568   1.516   2.097  0.3503 -0.1487  0.0035
 1154SOL    HW1 4160   1.544   1.527   2.005 -1.6088 -0.6636  0.4133
 1154SOL    HW2 4161   1.598   1.425   2.104  1.4702  0.1763 -0.2880
 1155SOL     OW 4162   4.383   4.994   1.896  0.0849 -0.2613  0.3507
 1155SOL    HW1 4163   4.410   4.991   1.988 -0.2124  1.0024  0.5017
 1155SOL    HW2 4164   4.455   4.953   1.849  1.4149  1.2537  0.9326
 1156SOL     OW 4165   0.629   3.855   4.922  0.3139  0.7083 -0.4550
 1156SOL    HW1 4166   0.707   3.824   4.876  0.4784  1.6822 -0.8530
 1156SOL    HW2 4167   0.660   3.879   5.009 -0.0113 -1.2079  0.2246
 1157SOL     OW 4168   1.012   0.264   1.377  0.4287 -0.0420 -0.2958
 1157SOL    HW1 4169   1.018   0.184   1.324 -1.1436 -0.2043 -0.2918
 1157SOL    HW2 4170   0.995   0.334   1.313  1.2858  0.2272 -0.2470
 1158SOL     OW 4171   1.513   0.043   2.057  0.4413 -0.3158  0.3340
 1158SOL    HW1 4172   1.596   0.033   2.103  0.7505  2.3759  0.5169
 1158SOL    HW2 4173   1.460  -0.031   2.087  1.8139 -0.5607  2.3284
 1159SOL     OW 4174   3.912   5.142   1.231  0.5229 -0.4662 -0.7352
 1159SOL    HW1 4175   3.998   5.184   1.235 -1.2488  3.3896  1.3106
 1159SOL    HW2 4176   3.865   5.189   1.162 -0.3737 -1.7753 -1.0642
 1160SOL     OW 4177   5.086   5.043   0.091  0.4775  0.3984  0.3085
 1160SOL    HW1 4178   5.126   5.001   0.167  2.9032 -1.0648 -1.6280
 1160SOL    HW2 4179   5.040   4.972   0.046 -1.9656  1.4859  0.9486
 1161SOL     OW 4180   4.487   1.390   1.363  0.1153  0.5796 -0.1179
 1161SOL    HW1 4181   4.555   1.416   1.301 -0.5609  0.3047 -1.0020
 1161SOL    HW2 4182   4.507   1.299   1.385 -0.3607  0.2748 -0.9268
 1162SOL     OW 4183   3.606   1.350   2.286  0.0118 -0.0097  0.2282
 1162SOL    HW1 4184   3.514   1.370   2.269  0.1871  1.3914  0.7804
 1162SOL    HW2 4185   3.604   1.275   2.345 -0.7489 -0.4914 -0.3899
 1163SOL     OW 4186   2.552   3.212   1.284  0.6142 -0.3687  0.6552
 1163SOL    HW1 4187   2.537   3.186   1.375  0.4857 -0.4243  0.6176
 1163SOL    HW2 4188   2.556   3.129   1.236  0.4618 -0.3296  0.5753
 1164SOL     OW 4189   2.153   2.569   3.871 -0.3775  0.2363 -0.0712
 1164SOL    HW1 4190   2.066   2.572   3.832 -1.1180  0.6124  1.5549
 1164SOL    HW2 4191   2.139   2.586   3.964  1.1896 -1.9154  0.6209
 1165SOL     OW 4192   4.129   3.308   4.829 -0.2503 -0.2367  0.2388
 1165SOL    HW1 4193   4.210   3.326   4.877 -1.3390 -0.8505  2.4075
 1165SOL    HW2 4194   4.078   3.388   4.838 -0.1058 -0.0294 -0.7072
 1166SOL     OW 4195   3.536   4.386   0.413 -0.1093  0.1018  0.2452
 1166SOL    HW1 4196   3.485   4.404   0.491 -0.1776 -1.6792  0.6601
 1166SOL    HW2 4197   3.478   4.333   0.357  0.5297 -0.1317 -0.2167
 1167SOL     OW 4198   5.259   3.679   1.092 -0.8832 -0.3625  0.8056
 1167SOL    HW1 4199   5.246   3.589   1.063 -1.6629  0.6031 -2.1939
 1167SOL    HW2 4200   5.341   3.706   1.051 -0.9325  0.4621  1.2300
 1168SOL     OW 4201   3.357   4.459   1.842  0.0786  0.3331  0.1850
 1168SOL    HW1 4202   3.333   4.372   1.809 -0.0876  1.4178 -2.8323
 1168SOL    HW2 4203   3.372   4.445   1.936 -0.2981 -2.8523 -0.1024
 1169SOL     OW 4204   1.174   4.061   1.745  0.0155  0.1693 -0.1257
 1169SOL    HW1 4205   1.236   4.133   1.754  1.0723 -0.8596  1.7001
 1169SOL    HW2 4206   1.164   4.027   1.835 -1.0544 -1.4318 -0.7942
 1170SOL     OW 4207   5.018   3.763   1.195 -0.3167 -0.1227  0.1078
 1170SOL    HW1 4208   5.093   3.712   1.166  0.6227  1.3345 -0.1527
 1170SOL    HW2 4209   5.039   3.787   1.285  1.1321  2.9530 -0.9173
 1171SOL     OW 4210   3.540   4.372   2.682  0.0658 -0.7824 -0.0986
 1171SOL    HW1 4211   3.471   4.329   2.732  1.2626  1.2386  3.6732
 1171SOL    HW2 4212   3.620   4.352   2.729  1.5158  0.2807 -1.9813
 1172SOL     OW 4213   5.207   2.050   5.071  0.8223 -0.3624 -0.5426
 1172SOL    HW1 4214   5.170   1.970   5.034 -1.0896  0.3641 -0.3253
 1172SOL    HW2 4215   5.202   2.037   5.166  0.4539  0.0080 -0.5055
 1173SOL     OW 4216   3.155   4.280   5.209  0.4785 -0.4272  0.0467
 1173SOL    HW1 4217   3.200   4.280   5.124 -1.0991 -1.5892 -0.8471
 1173SOL    HW2 4218   3.109   4.196   5.211  1.0853 -0.7596  2.4074
 1174SOL     OW 4219   3.278   1.514   1.351 -0.2421 -0.5780  0.7975
 1174SOL    HW1 4220   3.250   1.603   1.327 -0.4804 -0.6294  0.8816
 1174SOL    HW2 4221   3.248   1.460   1.278 -0.0472 -0.5814  0.7197
 1175SOL     OW 4222   4.010   4.330   1.735 -0.2872  0.4679 -0.0389
 1175SOL    HW1 4223   4.090   4.374   1.763  0.3613  0.1341 -1.2879
 1175SOL    HW2 4224   4.011   4.246   1.780 -0.0941  0.5963  0.1937
 1176SOL     OW 4225   0.062   4.181   3.657  0.2258 -0.3542  0.3692
 1176SOL    HW1 4226   0.137   4.128   3.682  0.3948  0.4638  1.7350
 1176SOL    HW2 4227  -0.014   4.129   3.681  0.2971 -1.4600 -1.6063
 1177SOL     OW 4228   3.932   3.157   1.110  0.0375  0.4928 -0.2211
 1177SOL    HW1 4229   3.895   3.069   1.110  0.0969  0.4381  1.2327
 1177SOL    HW2 4230   4.026   3.143   1.119  0.1794  0.6905 -1.2756
 1178SOL     OW 4231   1.561   1.134   0.037  0.2138  0.1922  0.3073
 1178SOL    HW1 4232   1.505   1.082  -0.021  1.4849 -1.4833  0.5209
 1178SOL    HW2 4233   1.578   1.214  -0.013  0.7193 -0.9107 -1.3699
 1179SOL     OW 4234   0.266   4.867   4.740  0.3686  0.6286 -0.0630
 1179SOL    HW1 4235   0.335   4.853   4.675  0.9093 -0.3629  0.7070
 1179SOL    HW2 4236   0.207   4.793   4.729 -0.1388  1.0401 -0.1573
 1180SOL     OW 4237   2.920   0.437   1.310  0.0779 -0.0631  0.3083
 1180SOL    HW1 4238   2.836   0.395   1.329  0.2473 -0.4597  0.2051
 1180SOL    HW2 4239   2.902   0.497   1.238 -0.3954  0.8377  1.1509
 1181SOL     OW 4240   0.306   0.928   3.837  0.2370 -0.1731  0.8594
 1181SOL    HW1 4241   0.258   0.877   3.773 -0.4889  1.4219  0.0821
 1181SOL    HW2 4242   0.293   1.019   3.811  2.2878  0.4010  1.6091
 1182SOL     OW 4243   4.550   0.872   0.840  0.6708  0.1355  0.3372
 1182SOL    HW1 4244   4.540   0.867   0.935  0.4293 -0.3434  0.2929
 1182SOL    HW2 4245   4.635   0.915   0.827  0.5049  0.6020  0.7620
 1183SOL     OW 4246   1.289   1.287   3.347  0.4507 -0.1084 -0.2053
 1183SOL    HW1 4247   1.200   1.281   3.382  0.7627 -0.0716  0.6215
 1183SOL    HW2 4248   1.341   1.230   3.403  0.7937 -0.8398 -1.2489
 1184SOL     OW 4249   3.774   3.960   3.771  0.2778 -0.4590 -0.6025
 1184SOL    HW1 4250   3.701   3.914   3.811  0.2481 -2.4041 -2.7047
 1184SOL    HW2 4251   3.742   4.049   3.757 -1.8415 -1.3547 -1.7904
 1185SOL     OW 4252   4.836   4.338   1.778  0.0872 -0.0950  0.0070
 1185SOL    HW1 4253   4.763   4.394   1.806  1.5719  0.8586  2.3258
 1185SOL    HW2 4254   4.915   4.387   1.802  1.4820 -2.0479 -0.2876
 1186SOL     OW 4255   4.289   2.652   4.158 -0.1160  0.4718  0.3600
 1186SOL    HW1 4256   4.272   2.584   4.223  1.0086 -0.7691 -0.6049
 1186SOL    HW2 4257   4.207   2.658   4.108  0.6275 -2.2599 -1.3785
 1187SOL     OW 4258   4.925   2.400   4.217 -0.2040  0.7488  0.0155
 1187SOL    HW1 4259   4.881   2.480   4.189  1.0605  1.0877 -1.1332
 1187SOL    HW2 4260   4.862   2.330   4.197 -1.6369  1.4797  1.7779
 1188SOL     OW 4261   3.815   0.888   3.920  0.6606  0.6138  0.0201
 1188SOL    HW1 4262   3.809   0.927   3.833 -1.7274  3.1945  1.1507
 1188SOL    HW2 4263   3.762   0.809   3.914  1.0289  0.4352 -1.0220
 1189SOL     OW 4264   4.862   3.129   2.304 -0.8889 -0.4790  0.1177
 1189SOL    HW1 4265   4.852   3.218   2.338 -0.3593 -0.8587  1.3333
 1189SOL    HW2 4266   4.773   3.096   2.295 -1.1140 -1.1136  3.3217
 1190SOL     OW 4267   0.935   2.285   1.348  0.3700  0.0226 -0.7393
 1190SOL    HW1 4268   0.878   2.225   1.300  0.2144 -0.2223 -0.2536
 1190SOL    HW2 4269   0.881   2.363   1.361 -0.3128 -0.6641  0.8001
 1191SOL     OW 4270   0.920   1.556   3.744  0.1239 -0.4736 -0.2961
 1191SOL    HW1 4271   0.976   1.530   3.671 -0.1551  0.8498 -1.0125
 1191SOL    HW2 4272   0.963   1.633   3.781 -1.1701  0.5346 -0.8286
 1192SOL     OW 4273   5.196   0.971   0.366 -0.5323 -0.1468 -0.0640
 1192SOL    HW1 4274   5.218   0.910   0.436 -0.8012  2.4250  2.4114
 1192SOL    HW2 4275   5.281   1.004   0.336 -0.4804  0.8654  1.1186
 1193SOL     OW 4276   1.465   3.297   5.383 -0.2194 -0.5185  0.1472
 1193SOL    HW1 4277   1.450   3.254   5.468 -0.3203  0.7839  0.8193
 1193SOL    HW2 4278   1.438   3.232   5.318 -0.9453 -1.2317  1.1312
 1194SOL     OW 4279   0.252   5.260   4.607 -0.1471  0.0796 -0.0109
 1194SOL    HW1 4280   0.245   5.197   4.679 -0.0534 -0.7674 -0.7313
 1194SOL    HW2 4281   0.261   5.206   4.528  2.6068  0.9702 -0.4115
 1195SOL     OW 4282   0.263   4.989   0.893 -0.2718  0.1228 -0.3057
 1195SOL    HW1 4283   0.323   5.006   0.966 -1.2456  1.3326  0.2492
 1195SOL    HW2 4284   0.219   4.908   0.916  0.8858 -0.5940 -0.5545
 1196SOL     OW 4285   3.595   0.025   0.671 -0.6891 -0.4165 -0.2132
 1196SOL    HW1 4286   3.572   0.092   0.608 -0.7600 -1.2418 -1.0912
 1196SOL    HW2 4287   3.648   0.070   0.737 -0.3669  0.3967 -1.0145
 1197SOL     OW 4288   5.215   3.507   5.302  0.0250 -0.1810 -0.4607
 1197SOL    HW1 4289   5.306   3.494   5.277 -0.2367 -1.2764 -0.9109
 1197SOL    HW2 4290   5.219   3.543   5.391  0.8700 -1.5147  0.0651
 1198SOL     OW 4291   0.302   4.819   3.019  0.1165 -0.6381  0.1926
 1198SOL    HW1 4292   0.304   4.914   3.035 -1.6812 -0.7499  1.4637
 1198SOL    HW2 4293   0.337   4.809   2.931 -0.0173  1.2605 -0.1245
 1199SOL     OW 4294   2.446   4.591   1.914  0.2052  0.2790 -0.2432
 1199SOL    HW1 4295   2.460   4.676   1.956 -2.0210  0.9322 -0.6527
 1199SOL    HW2 4296   2.370   4.605   1.857 -1.0664 -2.3143  0.6622
 1200SOL     OW 4297   3.931   4.857   2.937 -0.1396 -0.1015 -0.0051
 1200SOL    HW1 4298   3.937   4.910   3.016 -0.1266  1.6946 -1.1687
 1200SOL    HW2 4299   4.020   4.827   2.922 -0.0518 -0.0438  0.3899
 1201SOL     OW 4300   1.158   3.944   1.993 -0.4968  0.3522  0.2539
 1201SOL    HW1 4301   1.250   3.918   2.002 -0.1012  1.2721 -0.9680
 1201SOL    HW2 4302   1.129   3.958   2.083  1.5318  3.2744  0.6019
 1202SOL     OW 4303   3.630   4.799   1.911 -0.3076  0.5013 -0.1036
 1202SOL    HW1 4304   3.650   4.719   1.862 -0.5948  0.5294 -0.2744
 1202SOL    HW2 4305   3.635   4.869   1.845  1.5475  0.8487  0.3691
 1203SOL     OW 4306   4.635   0.748   4.457  0.4098 -0.0318 -0.2752
 1203SOL    HW1 4307   4.632   0.659   4.423 -0.7700  0.2668 -1.0315
 1203SOL    HW2 4308   4.569   0.795   4.406  1.1967  1.3426 -0.0797
 1204SOL     OW 4309   5.203   4.472   4.395  0.0977 -0.5546  0.6739
 1204SOL    HW1 4310   5.286   4.425   4.386  0.2634 -0.2063  0.3149
 1204SOL    HW2 4311   5.214   4.525   4.474  0.6217  0.2691  0.0708
 1205SOL     OW 4312   1.642   0.583   2.538 -0.1987 -0.2666 -0.1316
 1205SOL    HW1 4313   1.583   0.655   2.515  2.1920  1.1087 -2.3868
 1205SOL    HW2 4314   1.638   0.524   2.463 -1.3963 -2.1053  1.2858
 1206SOL     OW 4315   0.727   3.515   1.087  0.3447 -0.1772  0.8049
 1206SOL    HW1 4316   0.673   3.446   1.050  0.6520 -0.2618  0.5055
 1206SOL    HW2 4317   0.669   3.561   1.148 -0.0554 -0.2755  0.5027
 1207SOL     OW 4318   0.397   1.611   3.981  0.0726 -0.1523 -0.3214
 1207SOL    HW1 4319   0.396   1.706   3.994 -0.3457  0.0530 -1.6632
 1207SOL    HW2 4320   0.472   1.596   3.924  0.6758 -0.7539  0.6112
 1208SOL     OW 4321   3.592   0.089   2.649  0.2588  0.3141  0.7183
 1208SOL    HW1 4322   3.524   0.048   2.595 -1.2987  0.1628  2.6646
 1208SOL    HW2 4323   3.646   0.016   2.679  0.8064  0.3412 -0.1684
 1209SOL     OW 4324   0.594   3.848   2.516  0.2362  0.0873  0.2776
 1209SOL    HW1 4325   0.580   3.842   2.421 -0.1977 -0.3667  0.3646
 1209SOL    HW2 4326   0.687   3.869   2.525  0.4156 -0.4485 -0.2324
 1210SOL     OW 4327   2.417   2.107   4.628  0.4715  0.3216 -0.2300
 1210SOL    HW1 4328   2.434   2.130   4.537 -0.0909  1.4574 -0.0662
 1210SOL    HW2 4329   2.358   2.032   4.623 -0.5751  1.1504 -0.8257
 1211SOL     OW 4330   3.961   2.813   0.415 -0.0730  0.5054  0.3883
 1211SOL    HW1 4331   3.889   2.876   0.404 -1.1904 -0.4152  1.9568
 1211SOL    HW2 4332   4.002   2.837   0.498  1.5222  1.0487 -0.5150
 1212SOL     OW 4333   0.764   2.624   2.961 -0.4796 -0.6756 -0.0682
 1212SOL    HW1 4334   0.794   2.563   3.028 -1.2546 -1.6838 -0.6109
 1212SOL    HW2 4335   0.682   2.659   2.996 -0.1370 -0.0845  0.1533
 1213SOL     OW 4336   2.229   0.158   1.720  0.2806  0.2174 -0.0514
 1213SOL    HW1 4337   2.304   0.160   1.779 -0.2461  0.0462  0.6340
 1213SOL    HW2 4338   2.245   0.230   1.659  0.2150  1.2224  1.0667
 1214SOL     OW 4339   0.794   5.034   1.869  0.7810 -0.4859  0.1701
 1214SOL    HW1 4340   0.867   5.091   1.893  1.5125 -1.1009 -0.5590
 1214SOL    HW2 4341   0.823   4.946   1.893  0.6457 -0.8431 -0.9100
 1215SOL     OW 4342   1.772   1.700   3.535 -0.1436  0.2371 -0.0630
 1215SOL    HW1 4343   1.737   1.651   3.460  1.9330  0.9439 -1.6055
 1215SOL    HW2 4344   1.695   1.736   3.578 -1.4458 -0.3371 -1.7889
 1216SOL     OW 4345   3.308   1.262   3.646  0.0857 -0.3919 -0.3262
 1216SOL    HW1 4346   3.276   1.191   3.591 -0.0234  1.0026 -2.1511
 1216SOL    HW2 4347   3.309   1.339   3.589  3.2290  0.4270  0.6131
 1217SOL     OW 4348   0.036   4.701   5.293  0.1680  0.2188  0.0273
 1217SOL    HW1 4349   0.083   4.784   5.301 -0.1057  0.3610  0.1688
 1217SOL    HW2 4350  -0.021   4.713   5.217  1.3218 -0.4278 -0.9668
 1218SOL     OW 4351   3.333   2.426   1.533  0.1080 -0.3332  0.3644
 1218SOL    HW1 4352   3.399   2.407   1.601  0.3574 -1.8923 -0.2741
 1218SOL    HW2 4353   3.384   2.461   1.460 -0.0552  0.5242  0.6531
 1219SOL     OW 4354   3.056   4.798   3.044 -0.3704 -0.7299 -0.5477
 1219SOL    HW1 4355   3.052   4.754   2.960  1.3359 -2.2022  0.0747
 1219SOL    HW2 4356   3.078   4.729   3.107 -2.3191  0.1610  1.2605
 1220SOL     OW 4357   2.661   0.452   4.334 -0.1590  0.1666 -0.0274
 1220SOL    HW1 4358   2.731   0.517   4.345 -1.1501  1.3240 -0.3579
 1220SOL    HW2 4359   2.708   0.368   4.324  1.2070  0.9827 -0.8614
 1221SOL     OW 4360   1.072   3.119   3.975 -0.6622 -0.2286  0.7801
 1221SOL    HW1 4361   1.148   3.089   4.025 -0.4967  0.3698  0.8987
 1221SOL    HW2 4362   1.032   3.187   4.030 -0.5949  0.2969  0.1901
 1222SOL     OW 4363   2.609   1.066   4.923 -0.5799  0.2085 -0.0626
 1222SOL    HW1 4364   2.520   1.100   4.911 -0.4074  0.9916  0.7218
 1222SOL    HW2 4365   2.661   1.144   4.944  0.6686  0.0326 -2.2241
 1223SOL     OW 4366   3.667   1.006   2.748 -0.5280 -0.0913 -0.1486
 1223SOL    HW1 4367   3.608   0.949   2.698  1.1949  0.0606 -2.5356
 1223SOL    HW2 4368   3.740   1.023   2.688  1.9433 -0.2189  2.6113
 1224SOL     OW 4369   4.888   1.875   4.763  0.2791 -0.4432 -0.2799
 1224SOL    HW1 4370   4.860   1.900   4.851 -0.7766 -0.6433 -0.5514
 1224SOL    HW2 4371   4.878   1.780   4.760 -1.6858 -0.2582 -1.2626
 1225SOL     OW 4372   1.165   1.212   5.129  0.3814 -1.0940 -0.0835
 1225SOL    HW1 4373   1.083   1.214   5.179  0.8831 -0.4636  0.7325
 1225SOL    HW2 4374   1.197   1.302   5.132  1.5081 -1.4953  0.2874
 1226SOL     OW 4375   3.647   4.560   1.458 -0.5998 -0.1204 -0.3276
 1226SOL    HW1 4376   3.705   4.498   1.502 -0.0837 -0.9787 -2.1337
 1226SOL    HW2 4377   3.693   4.643   1.462 -0.0481 -0.4285 -0.2129
 1227SOL     OW 4378   3.758   1.725   5.218 -0.6291 -0.3520 -0.2188
 1227SOL    HW1 4379   3.830   1.687   5.269  1.7966 -0.2541 -3.2656
 1227SOL    HW2 4380   3.738   1.659   5.152  0.8951  1.8273 -3.0973
 1228SOL     OW 4381   3.036   2.104   3.055 -0.0088  0.8151  0.4603
 1228SOL    HW1 4382   3.105   2.038   3.065  0.4378  1.4720  2.1060
 1228SOL    HW2 4383   2.958   2.063   3.093  0.3132  1.2669  1.6514
 1229SOL     OW 4384   3.477   1.697   0.604  0.0239 -0.1609 -0.3190
 1229SOL    HW1 4385   3.423   1.732   0.533 -0.8239 -2.4605 -0.8973
 1229SOL    HW2 4386   3.544   1.645   0.559 -0.2307 -1.2494  0.5146
 1230SOL     OW 4387   1.266   2.270   3.053  0.3830 -0.3699  0.0386
 1230SOL    HW1 4388   1.210   2.346   3.037 -0.9356 -1.3221 -0.0749
 1230SOL    HW2 4389   1.256   2.216   2.974  1.4976 -0.5506  0.0081
 1231SOL     OW 4390   5.328   0.383   4.698  0.2418  0.3348  0.4499
 1231SOL    HW1 4391   5.315   0.324   4.772  0.9558  0.1013  0.3960
 1231SOL    HW2 4392   5.374   0.330   4.633  2.2998  1.3508  0.9935
 1232SOL     OW 4393   0.829   2.600   3.841 -0.4412 -0.0587  0.5482
 1232SOL    HW1 4394   0.835   2.695   3.834  0.3982 -0.1098  0.5268
 1232SOL    HW2 4395   0.807   2.570   3.752 -1.6268  0.1732  0.7484
 1233SOL     OW 4396   5.144   1.846   0.525 -0.3006  0.8081 -0.0805
 1233SOL    HW1 4397   5.168   1.938   0.513 -2.5204  1.4495  0.0081
 1233SOL    HW2 4398   5.050   1.843   0.510 -0.2182 -1.5704 -0.5995
 1234SOL     OW 4399   5.183   4.019   2.938 -0.2110  0.6463  0.1366
 1234SOL    HW1 4400   5.275   4.035   2.959  0.3570 -0.3025 -1.4574
 1234SOL    HW2 4401   5.145   4.106   2.930  0.6726  1.0627  0.3238
 1235SOL     OW 4402   2.110   3.667   4.023  0.1326  0.0042  0.1057
 1235SOL    HW1 4403   2.144   3.647   3.936  0.8461 -0.1665  0.4163
 1235SOL    HW2 4404   2.145   3.597   4.079 -0.0175  0.3184  0.6012
 1236SOL     OW 4405   5.014   4.365   3.652  0.5112 -0.4349  0.1157
 1236SOL    HW1 4406   4.970   4.294   3.698  3.2053 -0.7136  2.6023
 1236SOL    HW2 4407   4.948   4.433   3.643 -1.2374 -1.9826  0.7195
 1237SOL     OW 4408   3.286   3.235   3.878  0.1396  0.5308  0.3538
 1237SOL    HW1 4409   3.298   3.251   3.784 -2.3890  0.2643 -0.0701
 1237SOL    HW2 4410   3.220   3.298   3.905  1.2474  1.0051  2.1418
 1238SOL     OW 4411   4.746   4.900   1.256 -0.1160  0.6874  0.2612
 1238SOL    HW1 4412   4.814   4.898   1.322 -1.1700 -0.2376  1.3571
 1238SOL    HW2 4413   4.768   4.828   1.197  0.3417  0.9638  0.0877
 1239SOL     OW 4414   2.100   2.010   1.638 -0.4178  0.1673  0.7364
 1239SOL    HW1 4415   2.053   1.964   1.568  1.6583 -0.3597 -0.3954
 1239SOL    HW2 4416   2.100   2.102   1.609 -2.0487  0.4669  1.5495
 1240SOL     OW 4417   4.831   2.666   4.188 -0.0647 -0.3113 -0.1161
 1240SOL    HW1 4418   4.892   2.735   4.213  1.3165 -2.0198  1.5223
 1240SOL    HW2 4419   4.757   2.676   4.248  0.1747 -0.3124  0.1810
 1241SOL     OW 4420   1.146   1.890   2.567  0.6612 -0.3197 -0.2624
 1241SOL    HW1 4421   1.217   1.953   2.576  1.4580 -1.3715  1.1805
 1241SOL    HW2 4422   1.151   1.837   2.646 -1.3697 -0.8057 -0.3982
 1242SOL     OW 4423   4.906   5.211   4.774  0.4985  0.0386  0.4781
 1242SOL    HW1 4424   4.940   5.168   4.696  1.0250 -0.3160  0.8987
 1242SOL    HW2 4425   4.957   5.174   4.847  0.5911  0.9701  0.9045
 1243SOL     OW 4426   5.226   0.188   4.189  0.0611  0.5826 -0.2095
 1243SOL    HW1 4427   5.186   0.237   4.260  0.1853  1.6797 -0.8797
 1243SOL    HW2 4428   5.179   0.216   4.110  0.0778 -0.4391 -0.6058
 1244SOL     OW 4429   5.295   2.111   0.088 -0.1197  0.3433 -0.1054
 1244SOL    HW1 4430   5.289   2.016   0.079  0.3085  0.1620  1.2237
 1244SOL    HW2 4431   5.215   2.144   0.047  0.1290 -0.5121 -1.3479
 1245SOL     OW 4432   4.299   2.391   3.431  0.0137 -0.8486  0.3452
 1245SOL    HW1 4433   4.272   2.390   3.523 -0.1017 -2.1593  0.3262
 1245SOL    HW2 4434   4.355   2.313   3.422  0.3407 -0.5198 -0.6029
 1246SOL     OW 4435   4.512   2.824   5.069 -0.0065  0.0473 -0.0848
 1246SOL    HW1 4436   4.583   2.817   5.005  1.2648  0.2909  1.2494
 1246SOL    HW2 4437   4.488   2.733   5.088  0.2430 -0.0455 -0.2063
 1247SOL     OW 4438   3.206   0.984   1.304  0.0393  0.0462  0.1902
 1247SOL    HW1 4439   3.296   0.963   1.278  0.9392  1.7801  1.6938
 1247SOL    HW2 4440   3.188   1.068   1.261 -0.4449  0.2601  0.8018
 1248SOL     OW 4441   4.102   5.194   5.081 -0.3074 -0.0470  0.4824
 1248SOL    HW1 4442   4.145   5.210   4.997  1.0871  0.3379  1.2335
 1248SOL    HW2 4443   4.146   5.117   5.117 -0.4385  0.1726  1.1415
 1249SOL     OW 4444   2.999   3.988   3.052 -0.3066 -0.4421 -0.8726
 1249SOL    HW1 4445   3.054   3.912   3.072 -2.5213 -1.9093  0.0627
 1249SOL    HW2 4446   3.061   4.060   3.039  1.8280 -2.1268 -0.5796
 1250SOL     OW 4447   0.517   1.211   5.202 -0.2961  0.4142 -0.6427
 1250SOL    HW1 4448   0.527   1.205   5.297  2.5605  1.4596 -0.7721
 1250SOL    HW2 4449   0.426   1.187   5.186 -0.4831 -1.2705  2.2023
 1251SOL     OW 4450   4.383   3.733   4.734 -0.4545  0.3579  0.4232
 1251SOL    HW1 4451   4.355   3.772   4.651  0.0361  1.4824  0.7627
 1251SOL    HW2 4452   4.368   3.803   4.798  2.0747  0.6264  0.7903
 1252SOL     OW 4453   2.105   3.494   2.990 -0.0379 -0.1096  0.3340
 1252SOL    HW1 4454   2.068   3.550   2.922  1.1102 -1.0833 -1.1539
 1252SOL    HW2 4455   2.106   3.407   2.952 -0.0544 -0.8227  1.8946
 1253SOL     OW 4456   4.990   0.080   4.854 -0.6803 -0.7760 -0.4229
 1253SOL    HW1 4457   4.972   0.007   4.795  1.5385 -1.0911 -0.7947
 1253SOL    HW2 4458   4.980   0.043   4.942  1.2593 -1.8243 -0.5977
 1254SOL     OW 4459   4.882   3.948   1.548  0.0090  0.4137  0.6118
 1254SOL    HW1 4460   4.832   3.891   1.489 -0.7371  1.4710  0.1995
 1254SOL    HW2 4461   4.819   3.975   1.615  0.0207  1.7410  0.1029
 1255SOL     OW 4462   0.414   3.548   2.270 -0.4408 -0.2102 -0.0667
 1255SOL    HW1 4463   0.469   3.542   2.192 -2.3334 -1.9445 -1.3728
 1255SOL    HW2 4464   0.353   3.474   2.262 -1.8521  0.6200  2.1437
 1256SOL     OW 4465   4.251   2.034   2.811 -0.4485  0.4352  0.0336
 1256SOL    HW1 4466   4.159   2.037   2.838 -0.9058  2.2410 -1.5529
 1256SOL    HW2 4467   4.254   2.084   2.730  2.2248  1.8362  0.8853
 1257SOL     OW 4468   0.819   3.610   2.284  0.2043 -0.2883 -0.0206
 1257SOL    HW1 4469   0.787   3.556   2.212 -1.2378  1.5994 -0.9005
 1257SOL    HW2 4470   0.812   3.555   2.361 -2.1569 -1.0526 -0.7065
 1258SOL     OW 4471   3.422   4.317   1.401  0.5400 -0.2281 -0.0474
 1258SOL    HW1 4472   3.437   4.393   1.344  0.7264 -0.0605  0.2266
 1258SOL    HW2 4473   3.364   4.260   1.349  0.2449  0.1855 -0.1797
 1259SOL     OW 4474   5.252   4.287   1.746 -0.2893 -0.4479  0.3482
 1259SOL    HW1 4475   5.289   4.362   1.698  0.5230 -0.2008  1.3215
 1259SOL    HW2 4476   5.173   4.321   1.786 -0.5380 -0.4329 -0.1466
 1260SOL     OW 4477   3.508   4.381   2.411 -0.3372  0.7633 -0.6144
 1260SOL    HW1 4478   3.518   4.407   2.503 -2.0697 -2.0152  0.4913
 1260SOL    HW2 4479   3.596   4.388   2.374  0.7058  0.5493  1.6814
 1261SOL     OW 4480   1.397   5.179   1.044  0.1296  0.1829  0.4211
 1261SOL    HW1 4481   1.482   5.214   1.071  0.6969 -0.2300 -0.7643
 1261SOL    HW2 4482   1.413   5.086   1.030 -0.7437 -0.0720  1.0076
 1262SOL     OW 4483   4.683   1.713   2.197 -0.1104 -0.6281  0.5993
 1262SOL    HW1 4484   4.721   1.690   2.113  1.3746  0.8459  0.8054
 1262SOL    HW2 4485   4.591   1.730   2.178 -0.0591 -1.4611 -0.4852
 1263SOL     OW 4486   3.070   3.563   1.723 -0.4674  0.3809 -0.1707
 1263SOL    HW1 4487   3.090   3.511   1.644 -2.1849  0.1926 -0.5095
 1263SOL    HW2 4488   3.139   3.630   1.725  2.2552 -2.1982  0.6464
 1264SOL     OW 4489   1.297   3.105   4.329  0.3347 -0.3835  0.0673
 1264SOL    HW1 4490   1.337   3.185   4.295  2.1024 -1.0590  0.4566
 1264SOL    HW2 4491   1.257   3.064   4.252  1.4619 -0.2788 -0.6048
 1265SOL     OW 4492   4.070   2.497   3.129  0.2748  0.3331  0.5834
 1265SOL    HW1 4493   4.155   2.540   3.135  1.0070 -0.8608 -0.8036
 1265SOL    HW2 4494   4.035   2.523   3.044  0.2769 -0.9571  0.1641
 1266SOL     OW 4495   2.752   4.707   4.819  0.1752  0.2334  0.0542
 1266SOL    HW1 4496   2.795   4.649   4.756 -2.1104 -0.2082 -1.2307
 1266SOL    HW2 4497   2.718   4.648   4.886  0.8486  0.4945  0.6364
 1267SOL     OW 4498   3.911   4.459   0.199  0.4369  0.4133  0.3224
 1267SOL    HW1 4499   3.946   4.488   0.283 -0.0553  0.3470  0.5518
 1267SOL    HW2 4500   3.975   4.396   0.166  0.4915  0.2325  0.7780
 1268SOL     OW 4501   1.638   5.293   1.106  0.3643  0.2691  0.0515
 1268SOL    HW1 4502   1.723   5.276   1.146  0.9496  1.7166 -0.5125
 1268SOL    HW2 4503   1.611   5.377   1.142 -0.6338  0.0405 -0.1299
 1269SOL     OW 4504   5.394   4.300   3.378 -0.1024  0.1147  0.3051
 1269SOL    HW1 4505   5.310   4.332   3.411 -0.7482 -0.5173 -0.6641
 1269SOL    HW2 4506   5.401   4.212   3.415 -0.7736 -0.5509 -1.0785
 1270SOL     OW 4507   1.346   2.122   2.510  0.0268 -0.0875 -0.1900
 1270SOL    HW1 4508   1.380   2.075   2.586  0.1273  0.7598  0.3027
 1270SOL    HW2 4509   1.274   2.175   2.544  0.2632  0.5262 -0.6273
 1271SOL     OW 4510   5.105   0.727   1.715  0.1733  0.1100 -0.0587
 1271SOL    HW1 4511   5.167   0.797   1.739 -0.9537  1.0470  0.2127
 1271SOL    HW2 4512   5.160   0.651   1.697  1.3220  0.4927  1.6184
 1272SOL     OW 4513   0.383   2.118   2.038 -0.1022 -0.0411  0.1246
 1272SOL    HW1 4514   0.293   2.099   2.063  0.0982  0.6202  1.4879
 1272SOL    HW2 4515   0.427   2.136   2.121  1.6061 -1.5899 -0.3784
 1273SOL     OW 4516   2.653   5.271   2.433  0.0950 -0.2931 -0.0683
 1273SOL    HW1 4517   2.588   5.234   2.372 -0.0826 -0.7177  0.3721
 1273SOL    HW2 4518   2.689   5.194   2.477 -0.3414  0.0643  0.9279
 1274SOL     OW 4519   1.844   1.501   4.438  0.2692 -0.3981 -0.1241
 1274SOL    HW1 4520   1.765   1.546   4.469  0.6873  0.2892 -0.0452
 1274SOL    HW2 4521   1.816   1.410   4.426 -0.1326 -0.5267  1.4730
 1275SOL     OW 4522   2.579   5.358   0.009 -0.0271  0.5406  0.3632
 1275SOL    HW1 4523   2.613   5.275  -0.024 -0.3432  0.2940  0.6421
 1275SOL    HW2 4524   2.487   5.340   0.028  0.2894  0.4677  1.9909
 1276SOL     OW 4525   1.311   2.023   3.644 -0.1582 -0.0829  0.4217
 1276SOL    HW1 4526   1.364   2.039   3.565 -0.9809 -0.7294 -0.2690
 1276SOL    HW2 4527   1.299   2.111   3.681  2.7914 -0.0315  1.5626
 1277SOL     OW 4528   1.847   3.675   0.193  0.3303  0.2254  0.9075
 1277SOL    HW1 4529   1.919   3.730   0.224  1.0676 -0.6484  0.7891
 1277SOL    HW2 4530   1.770   3.730   0.201  0.8441  0.8065  2.0959
 1278SOL     OW 4531   1.320   0.231   0.624 -0.4946  0.1494  0.4296
 1278SOL    HW1 4532   1.373   0.261   0.698  1.1716  0.7698 -0.9433
 1278SOL    HW2 4533   1.370   0.158   0.588 -0.6068  0.6641 -0.8217
 1279SOL     OW 4534   4.598   5.340   0.460  0.2163 -0.6088 -0.4496
 1279SOL    HW1 4535   4.514   5.383   0.473 -0.8146 -2.9369  1.1904
 1279SOL    HW2 4536   4.586   5.286   0.382  0.2741 -0.7699 -0.3476
 1280SOL     OW 4537   3.860   3.385   4.728 -0.3246 -0.3375  0.1415
 1280SOL    HW1 4538   3.785   3.418   4.679  0.1752 -0.3265 -0.6254
 1280SOL    HW2 4539   3.821   3.339   4.803 -1.0756  1.8424  1.2071
 1281SOL     OW 4540   0.572   3.611   1.307 -0.0523 -0.0497 -0.0137
 1281SOL    HW1 4541   0.546   3.560   1.384  0.5710 -0.9701 -0.3988
 1281SOL    HW2 4542   0.574   3.702   1.338 -0.7578 -0.2929  0.7954
 1282SOL     OW 4543   4.277   5.230   0.558 -0.1547  0.0487  0.1159
 1282SOL    HW1 4544   4.262   5.324   0.563  0.2602  0.2102 -1.1766
 1282SOL    HW2 4545   4.214   5.198   0.493  0.3907 -0.3940 -0.2072
 1283SOL     OW 4546   1.928   0.583   2.604 -0.0656  0.4344 -0.1294
 1283SOL    HW1 4547   1.943   0.585   2.510  1.6027  2.4085  0.1130
 1283SOL    HW2 4548   1.833   0.575   2.613 -0.3588  1.2721 -1.9918
 1284SOL     OW 4549   1.848   1.241   5.370 -0.2805 -0.5614 -0.2008
 1284SOL    HW1 4550   1.757   1.222   5.395 -0.5671  1.2690  0.2770
 1284SOL    HW2 4551   1.845   1.331   5.337  1.0006 -1.2063 -2.2023
 1285SOL     OW 4552   1.717   1.307   4.175  0.2999 -0.0714  0.1888
 1285SOL    HW1 4553   1.710   1.273   4.264 -1.1566 -1.1481 -0.3099
 1285SOL    HW2 4554   1.803   1.277   4.145  0.7193  0.1353  1.1497
 1286SOL     OW 4555   1.339   4.198   3.101  0.1068  0.1333 -0.3175
 1286SOL    HW1 4556   1.426   4.176   3.135  0.0302 -0.5324 -0.5387
 1286SOL    HW2 4557   1.337   4.158   3.014  0.1688  1.5243 -0.9744
 1287SOL     OW 4558   2.270   1.722   3.024 -0.0294 -0.9594 -0.4326
 1287SOL    HW1 4559   2.237   1.646   2.977 -1.8396 -0.4941 -0.0312
 1287SOL    HW2 4560   2.234   1.797   2.977  0.5072 -0.3992  0.0271
 1288SOL     OW 4561   3.324   1.362   1.736 -0.6578 -0.3017  0.0922
 1288SOL    HW1 4562   3.275   1.400   1.663 -0.1747  0.4806  0.1609
 1288SOL    HW2 4563   3.412   1.399   1.727  0.0836 -2.0744 -0.3330
 1289SOL     OW 4564   0.604   3.522   4.393  0.5368  0.6048  0.5658
 1289SOL    HW1 4565   0.549   3.587   4.437  1.4654  1.8704 -0.0901
 1289SOL    HW2 4566   0.593   3.442   4.446  0.3805  1.6397  2.1700
 1290SOL     OW 4567   4.965   2.214   2.271 -0.4510 -1.0547  0.2041
 1290SOL    HW1 4568   4.895   2.150   2.262 -0.7310 -0.5607 -1.5964
 1290SOL    HW2 4569   5.007   2.216   2.186  0.2433  0.3664  0.5412
 1291SOL     OW 4570   3.562   1.143   2.430 -0.3766  0.1096 -0.0078
 1291SOL    HW1 4571   3.555   1.051   2.405  0.4270 -0.4941  1.7900
 1291SOL    HW2 4572   3.500   1.153   2.503 -0.2913  0.9367 -0.0329
 1292SOL     OW 4573   4.412   1.895   4.743  0.1810  0.1052 -0.3480
 1292SOL    HW1 4574   4.421   1.842   4.664 -0.7431 -0.0033 -0.3900
 1292SOL    HW2 4575   4.442   1.982   4.717  2.1428 -0.4625 -0.1598
 1293SOL     OW 4576   2.092   4.756   2.006 -0.2206  0.2996  0.5882
 1293SOL    HW1 4577   2.096   4.723   1.916  1.9469 -0.1510  0.7838
 1293SOL    HW2 4578   2.031   4.830   2.001  0.6257  0.9565 -1.5051
 1294SOL     OW 4579   3.456   0.225   3.271  0.4329  0.1515  0.1621
 1294SOL    HW1 4580   3.547   0.221   3.242 -0.3424 -0.8399 -2.3721
 1294SOL    HW2 4581   3.420   0.302   3.227 -0.5407 -0.8269 -0.8119
 1295SOL     OW 4582   4.239   0.972   5.317  0.2383  0.1031  0.5357
 1295SOL    HW1 4583   4.208   0.923   5.394  0.3045  0.5651  0.8613
 1295SOL    HW2 4584   4.201   0.926   5.242  0.7369 -0.7727  0.8031
 1296SOL     OW 4585   2.138   2.821   1.969 -0.3544 -0.1903 -0.0794
 1296SOL    HW1 4586   2.194   2.780   1.902  1.7943  0.2801  1.3204
 1296SOL    HW2 4587   2.097   2.748   2.014 -0.7291 -0.5584 -0.9890
 1297SOL     OW 4588   3.075   4.644   2.419 -0.1387 -0.0778 -0.1025
 1297SOL    HW1 4589   3.133   4.711   2.384  1.1828 -0.9008  0.4287
 1297SOL    HW2 4590   3.057   4.587   2.345  0.6203 -0.4140 -0.0408
 1298SOL     OW 4591   2.250   4.031   0.290 -0.2483  0.2443  0.3701
 1298SOL    HW1 4592   2.260   4.108   0.346  1.8566  0.0662  0.3226
 1298SOL    HW2 4593   2.297   4.054   0.209  1.2677 -1.3907  0.7259
 1299SOL     OW 4594   1.553   3.990   2.212  0.2715 -0.8065 -0.0194
 1299SOL    HW1 4595   1.533   3.960   2.301  0.8285  0.5866  0.5971
 1299SOL    HW2 4596   1.628   3.936   2.185 -0.5144 -1.9252 -0.0621
 1300SOL     OW 4597   3.046   1.091   1.506 -0.4151 -0.4564 -0.2578
 1300SOL    HW1 4598   3.081   1.111   1.593 -1.1749  2.0994 -0.4598
 1300SOL    HW2 4599   3.124   1.082   1.451  0.0512 -1.5073  0.5360
 1301SOL     OW 4600   3.968   2.707   3.735  0.3694  0.3072  0.1270
 1301SOL    HW1 4601   3.943   2.789   3.693 -0.6848 -0.4930 -0.8696
 1301SOL    HW2 4602   3.999   2.652   3.663  1.2139 -0.1323  0.8089
 1302SOL     OW 4603   0.649   3.980   1.792 -0.2400 -0.3840 -0.0766
 1302SOL    HW1 4604   0.736   3.950   1.819  0.3025 -1.6979 -2.8783
 1302SOL    HW2 4605   0.667   4.050   1.729 -1.1752 -0.6439 -0.6563
 1303SOL     OW 4606   0.897   3.661   1.269  0.0060 -0.4258 -0.4384
 1303SOL    HW1 4607   0.962   3.610   1.318  0.1073  1.8713  2.0500
 1303SOL    HW2 4608   0.860   3.598   1.206  2.4139 -2.6260  0.1474
 1304SOL     OW 4609   3.016   1.328   3.396  0.6612  0.1085 -0.0712
 1304SOL    HW1 4610   3.000   1.252   3.452 -0.3885  0.8227  0.6288
 1304SOL    HW2 4611   2.959   1.396   3.431 -0.7160  0.3345 -2.4827
 1305SOL     OW 4612   0.922   2.572   1.871 -0.7643 -0.2273  0.4426
 1305SOL    HW1 4613   1.010   2.535   1.869 -0.9624 -0.7181  0.6008
 1305SOL    HW2 4614   0.866   2.503   1.833 -0.6621  1.2935 -2.8535
 1306SOL     OW 4615   0.515   2.671   1.500 -0.5418  0.3037  0.0254
 1306SOL    HW1 4616   0.599   2.653   1.541 -0.6990 -0.3636  0.0609
 1306SOL    HW2 4617   0.489   2.589   1.459 -0.1023  1.0807 -1.9431
 1307SOL     OW 4618   5.166   4.834   4.171 -0.2521 -0.5643  0.5610
 1307SOL    HW1 4619   5.227   4.762   4.182  1.0347  0.5493  0.9364
 1307SOL    HW2 4620   5.121   4.815   4.089  2.4718 -0.1049 -1.1535
 1308SOL     OW 4621   3.725   2.222   0.712  0.4297 -0.3512  0.0034
 1308SOL    HW1 4622   3.793   2.232   0.779  1.3120  1.0682 -1.0574
 1308SOL    HW2 4623   3.738   2.295   0.652 -2.0381 -0.0271 -0.2721
 1309SOL     OW 4624   3.608   3.216   4.602  0.6277  0.9111 -0.1713
 1309SOL    HW1 4625   3.544   3.223   4.531  0.4874 -0.6120 -0.2315
 1309SOL    HW2 4626   3.667   3.290   4.588  0.0146  1.2166 -1.2771
 1310SOL     OW 4627   4.989   4.875   1.429  0.4744 -0.3490 -0.4730
 1310SOL    HW1 4628   4.995   4.781   1.446 -0.5942 -0.4655 -0.6637
 1310SOL    HW2 4629   5.068   4.896   1.380  1.1502 -0.9731  0.3215
 1311SOL     OW 4630   1.140   1.462   4.521 -0.4566 -0.6883 -0.3182
 1311SOL    HW1 4631   1.118   1.389   4.463 -2.6463 -0.8461  0.6277
 1311SOL    HW2 4632   1.194   1.423   4.590  1.3379 -0.6826 -1.6418
 1312SOL     OW 4633   2.973   5.094   2.331  0.7310  0.7358 -0.1514
 1312SOL    HW1 4634   3.062   5.066   2.309  1.3182  1.8032  0.8067
 1312SOL    HW2 4635   2.984   5.154   2.404 -0.7473  1.2332 -0.3113
 1313SOL     OW 4636   0.827   2.154   4.159  0.4857 -0.2359  0.1003
 1313SOL    HW1 4637   0.795   2.084   4.102 -1.4497  0.2265  0.5686
 1313SOL    HW2 4638   0.749   2.189   4.201  1.5586  1.3383  0.8842
 1314SOL     OW 4639   0.489   4.213   3.781  0.2118 -0.4106  0.2911
 1314SOL    HW1 4640   0.489   4.199   3.686 -0.2636  0.9611  0.0702
 1314SOL    HW2 4641   0.419   4.275   3.796  2.8387  2.6506  1.0149
 1315SOL     OW 4642   0.181   2.572   4.057 -1.0917  0.2486  0.3346
 1315SOL    HW1 4643   0.212   2.634   3.991 -2.1176 -1.1882 -1.5722
 1315SOL    HW2 4644   0.192   2.619   4.140 -1.7819  2.9888 -1.0059
 1316SOL     OW 4645   3.254   0.709   1.874  0.1855  0.0780  0.6788
 1316SOL    HW1 4646   3.313   0.778   1.844  0.4944 -0.5913 -0.3210
 1316SOL    HW2 4647   3.210   0.679   1.794 -0.0321 -0.7860  1.1154
 1317SOL     OW 4648   3.876   3.420   0.614  0.7321  0.1935 -0.0278
 1317SOL    HW1 4649   3.912   3.384   0.533  1.9662 -2.3164  1.5009
 1317SOL    HW2 4650   3.781   3.413   0.603  0.8771  0.0495 -1.3168
 1318SOL     OW 4651   1.424   2.374   4.054 -0.3414  0.6066 -0.1945
 1318SOL    HW1 4652   1.492   2.308   4.071 -1.0127 -0.9940 -3.0879
 1318SOL    HW2 4653   1.467   2.438   3.998 -0.9945 -0.0754 -1.5080
 1319SOL     OW 4654   3.828   3.815   1.692  0.6049  0.3626 -0.1639
 1319SOL    HW1 4655   3.876   3.748   1.742  0.6073  0.4561 -0.0417
 1319SOL    HW2 4656   3.777   3.765   1.628  1.5012  0.3004 -0.8563
 1320SOL     OW 4657   5.393   4.819   3.837 -0.1123 -0.0513 -0.5033
 1320SOL    HW1 4658   5.484   4.795   3.823  0.0328  2.1008 -5.1299
 1320SOL    HW2 4659   5.343   4.747   3.798 -0.1780  0.5392 -1.5465
 1321SOL     OW 4660   4.447   4.756   5.308  0.4426 -0.5527  0.4239
 1321SOL    HW1 4661   4.429   4.697   5.381  1.9454 -0.5353  0.8416
 1321SOL    HW2 4662   4.522   4.717   5.263 -0.7829 -0.8572 -1.4790
 1322SOL     OW 4663   0.055   2.586   4.743 -0.0773 -0.1221 -0.2987
 1322SOL    HW1 4664   0.091   2.646   4.677 -2.2661  0.6300 -0.9006
 1322SOL    HW2 4665   0.008   2.643   4.804  0.6865 -0.9557  1.1339
 1323SOL     OW 4666   2.039   0.557   3.114 -0.5293 -0.1220  0.1602
 1323SOL    HW1 4667   2.098   0.556   3.038 -0.0250  0.8527  0.5248
 1323SOL    HW2 4668   1.956   0.523   3.080 -0.0011 -0.7302 -0.5633
 1324SOL     OW 4669   3.109   0.029   0.803  0.3846  0.1357  0.1374
 1324SOL    HW1 4670   3.052   0.079   0.744 -1.5420 -0.7085  1.2284
 1324SOL    HW2 4671   3.121  -0.055   0.759 -2.0892 -0.9769  1.4015
 1325SOL     OW 4672   1.133   2.036   1.611 -0.8976  0.1091  0.0926
 1325SOL    HW1 4673   1.159   1.952   1.574  1.8313  0.3006  1.3184
 1325SOL    HW2 4674   1.048   2.020   1.651 -1.0631 -1.6846 -0.8901
 1326SOL     OW 4675   2.911   2.470   0.208  0.5751 -0.0001 -0.1209
 1326SOL    HW1 4676   2.857   2.391   0.205  0.6010 -0.1066  1.5473
 1326SOL    HW2 4677   2.894   2.514   0.124 -2.1126 -0.0195  0.3347
 1327SOL     OW 4678   0.600   0.608   0.989 -0.3175  0.0420  0.2227
 1327SOL    HW1 4679   0.522   0.624   0.935 -0.4395 -1.9324 -0.2661
 1327SOL    HW2 4680   0.672   0.640   0.935 -0.6338  0.2811 -0.0717
 1328SOL     OW 4681   3.912   0.401   0.748 -0.7439 -0.2991  0.1654
 1328SOL    HW1 4682   3.937   0.489   0.776 -2.6890 -0.1561  1.5832
 1328SOL    HW2 4683   3.996   0.357   0.733  0.2958  1.3003  0.9422
 1329SOL     OW 4684   2.632   5.095   5.255  0.2677 -0.5551  0.1288
 1329SOL    HW1 4685   2.639   5.083   5.160  1.3586  0.7228  0.0128
 1329SOL    HW2 4686   2.703   5.043   5.292 -0.6603 -1.7123  0.3278
 1330SOL     OW 4687   4.549   0.256   1.534 -0.5896  0.2313  0.0611
 1330SOL    HW1 4688   4.479   0.200   1.501  0.3122 -0.2030 -1.1714
 1330SOL    HW2 4689   4.625   0.198   1.538 -0.0435  0.9620  0.3850
 1331SOL     OW 4690   1.294   0.582   4.548 -0.1580 -0.1477 -0.2907
 1331SOL    HW1 4691   1.262   0.652   4.604  0.2995 -0.9692  1.0334
 1331SOL    HW2 4692   1.234   0.582   4.473 -1.5166  0.2116  0.7528
 1332SOL     OW 4693   5.164   1.950   2.775  0.3031 -0.1039  0.2124
 1332SOL    HW1 4694   5.198   1.983   2.857 -1.5707 -0.0973  1.0334
 1332SOL    HW2 4695   5.069   1.952   2.785  0.0100 -3.7922 -0.4305
 1333SOL     OW 4696   4.031   3.222   3.929 -0.1236 -0.2465 -0.5582
 1333SOL    HW1 4697   4.000   3.250   3.842  0.7921  1.2192 -0.4451
 1333SOL    HW2 4698   4.049   3.304   3.975 -0.6366 -1.0003  1.0528
 1334SOL     OW 4699   1.396   4.328   1.544 -0.0047  0.5806  0.0789
 1334SOL    HW1 4700   1.484   4.358   1.567 -0.0016  0.2457  0.5082
 1334SOL    HW2 4701   1.358   4.299   1.627 -0.3689  0.3234 -0.1748
 1335SOL     OW 4702   4.407   3.708   3.172  0.0530  0.0909 -0.1128
 1335SOL    HW1 4703   4.502   3.709   3.187  0.1798 -0.3300 -0.8264
 1335SOL    HW2 4704   4.393   3.770   3.101 -0.1749 -0.0281 -0.1739
 1336SOL     OW 4705   5.037   1.512   0.135  0.3041 -0.3415  0.3403
 1336SOL    HW1 4706   5.098   1.548   0.070 -0.0915  2.1240  1.2427
 1336SOL    HW2 4707   5.087   1.510   0.216 -0.2463 -0.0523  0.6929
 1337SOL     OW 4708   0.432   4.888   2.317 -0.2688  0.2821  0.3129
 1337SOL    HW1 4709   0.433   4.839   2.234 -0.6252 -0.5118  0.7675
 1337SOL    HW2 4710   0.367   4.958   2.302 -0.7282 -0.1825  0.0954
 1338SOL     OW 4711   4.810   4.374   1.374  0.2357 -0.0493  0.2208
 1338SOL    HW1 4712   4.866   4.296   1.370 -1.7428 -1.6014  0.8610
 1338SOL    HW2 4713   4.736   4.347   1.429  0.1965  2.8025  1.7070
 1339SOL     OW 4714   1.936   2.455   0.746 -0.3767  0.3729 -0.0279
 1339SOL    HW1 4715   2.022   2.483   0.713 -0.9501  0.9026 -1.1038
 1339SOL    HW2 4716   1.903   2.531   0.793  0.0623 -0.0960  1.0916
 1340SOL     OW 4717   4.135   5.375   0.805 -0.7084  0.2944 -0.3201
 1340SOL    HW1 4718   4.122   5.365   0.900  1.7172 -1.1322 -0.0496
 1340SOL    HW2 4719   4.228   5.356   0.792 -0.8457  1.1082 -2.9317
 1341SOL     OW 4720   0.987   0.086   3.778 -0.2129  0.7422 -0.1108
 1341SOL    HW1 4721   0.955   0.144   3.708 -1.6115 -1.4024 -1.3759
 1341SOL    HW2 4722   1.048   0.027   3.734  0.3647  0.5528  0.9147
 1342SOL     OW 4723   3.558   1.496   3.316 -0.1597 -0.0837 -0.2826
 1342SOL    HW1 4724   3.636   1.480   3.262 -0.4465  0.8111 -0.9843
 1342SOL    HW2 4725   3.593   1.520   3.402  0.2989 -2.6107  0.3162
 1343SOL     OW 4726   3.657   0.476   3.119  0.4997  0.0534 -0.1335
 1343SOL    HW1 4727   3.693   0.535   3.053 -0.8250  0.8501 -0.1894
 1343SOL    HW2 4728   3.564   0.497   3.121 -0.2415 -2.7079 -0.8587
 1344SOL     OW 4729   4.790   1.605   4.694  0.3064 -0.0615  0.5754
 1344SOL    HW1 4730   4.774   1.599   4.600  1.0674 -3.1114  0.5394
 1344SOL    HW2 4731   4.707   1.634   4.731 -0.7650 -1.1711 -0.8405
 1345SOL     OW 4732   4.752   0.454   3.546 -0.2563 -0.1196 -0.1829
 1345SOL    HW1 4733   4.828   0.399   3.529  0.0067  0.2478 -0.2161
 1345SOL    HW2 4734   4.789   0.536   3.579 -0.7087 -0.6722  1.8571
 1346SOL     OW 4735   0.437   4.491   1.763 -0.0687 -0.0042 -0.1754
 1346SOL    HW1 4736   0.409   4.400   1.752 -0.2525  0.1769 -1.3788
 1346SOL    HW2 4737   0.470   4.495   1.853 -0.2090 -1.2154 -0.0452
 1347SOL     OW 4738   4.162   2.437   3.697 -0.3044  0.1181 -0.2076
 1347SOL    HW1 4739   4.159   2.510   3.635 -0.9250  0.1036 -0.2045
 1347SOL    HW2 4740   4.130   2.474   3.779 -1.7176 -0.4175 -0.4869
 1348SOL     OW 4741   0.646   4.780   2.958  0.3059  0.4971  0.2489
 1348SOL    HW1 4742   0.697   4.774   3.039 -0.7559 -1.0648  0.8394
 1348SOL    HW2 4743   0.665   4.698   2.912  0.7174  1.2665 -1.0170
 1349SOL     OW 4744   4.079   3.387   4.156 -0.4563  0.0038 -0.4620
 1349SOL    HW1 4745   4.168   3.354   4.142  0.5727  2.4380 -0.1755
 1349SOL    HW2 4746   4.045   3.335   4.229  1.1401 -0.2867  0.1149
 1350SOL     OW 4747   4.771   3.255   3.213 -0.1785 -0.0708 -0.1103
 1350SOL    HW1 4748   4.788   3.204   3.292  1.7437  0.4823 -0.1080
 1350SOL    HW2 4749   4.858   3.277   3.180 -0.9523  0.7540 -1.7072
 1351SOL     OW 4750   4.058   1.591   3.556 -0.3631 -0.1356  0.1335
 1351SOL    HW1 4751   4.144   1.632   3.540 -1.5788  2.7742  0.3824
 1351SOL    HW2 4752   4.069   1.545   3.639  0.9277  0.3153  0.2360
 1352SOL     OW 4753   3.811   1.511   1.798 -0.0066 -0.2081 -0.3751
 1352SOL    HW1 4754   3.869   1.584   1.819 -0.6790  0.5347 -1.0549
 1352SOL    HW2 4755   3.779   1.481   1.883  2.2547 -1.4044  0.1197
 1353SOL     OW 4756   2.870   5.349   1.813  0.0153 -0.1504 -0.6071
 1353SOL    HW1 4757   2.871   5.343   1.717 -2.9668  0.7101 -0.8040
 1353SOL    HW2 4758   2.909   5.435   1.832 -0.6492  0.2906 -1.1775
 1354SOL     OW 4759   0.734   3.289   4.520 -0.0057 -0.5739 -0.1440
 1354SOL    HW1 4760   0.825   3.307   4.498 -0.1185  0.1599 -0.0488
 1354SOL    HW2 4761   0.717   3.201   4.485  0.2691 -0.0670 -1.6343
 1355SOL     OW 4762   3.775   2.358   3.467 -0.0413  0.1140  0.5012
 1355SOL    HW1 4763   3.711   2.330   3.532 -0.3639 -0.1088  0.0894
 1355SOL    HW2 4764   3.774   2.453   3.472  1.3860  0.1011  2.2308
 1356SOL     OW 4765   2.375   5.269   1.191  0.9136 -0.2177 -0.0074
 1356SOL    HW1 4766   2.463   5.283   1.225  0.2590 -0.3079  1.8689
 1356SOL    HW2 4767   2.323   5.340   1.229 -0.2302 -1.3982  0.7202
 1357SOL     OW 4768   3.428   1.517   2.067  0.1975 -0.8913 -0.2678
 1357SOL    HW1 4769   3.422   1.540   1.974 -1.7646 -0.1170 -0.0014
 1357SOL    HW2 4770   3.427   1.601   2.113 -0.9390 -1.3114  0.5178
 1358SOL     OW 4771   0.220   4.243   2.732  0.5412  0.8260 -0.3201
 1358SOL    HW1 4772   0.138   4.237   2.684 -0.5670  1.3762  1.4255
 1358SOL    HW2 4773   0.257   4.327   2.705 -0.3196  1.3646  0.1406
 1359SOL     OW 4774   0.329   4.005   1.263 -0.2343  0.0395 -0.3658
 1359SOL    HW1 4775   0.281   4.077   1.304  1.5027  1.5731 -0.8710
 1359SOL    HW2 4776   0.377   3.965   1.336  0.2094  0.5757 -0.3589
 1360SOL     OW 4777   2.315   3.588   3.137 -0.0066 -0.1935  0.3628
 1360SOL    HW1 4778   2.334   3.521   3.203 -1.8264  1.2961  2.5493
 1360SOL    HW2 4779   2.242   3.553   3.087  0.0123 -0.4602  0.5218
 1361SOL     OW 4780   4.917   3.029   0.092 -0.2734 -0.1005 -0.1251
 1361SOL    HW1 4781   4.859   2.954   0.086 -1.6511  0.7229  1.7431
 1361SOL    HW2 4782   4.956   3.022   0.180  2.1413 -0.3611 -1.1388
 1362SOL     OW 4783   0.136   0.651   4.855  0.0627 -0.4572 -0.2125
 1362SOL    HW1 4784   0.209   0.605   4.815  0.5273 -1.3687  1.5856
 1362SOL    HW2 4785   0.069   0.583   4.867  0.4783 -0.5530  1.8096
 1363SOL     OW 4786   0.155   2.288   3.582 -0.4373 -0.0278 -0.4109
 1363SOL    HW1 4787   0.153   2.337   3.664 -0.6871 -0.4081 -0.1865
 1363SOL    HW2 4788   0.218   2.217   3.597  0.1292  0.3685 -0.8261
 1364SOL     OW 4789   2.666   4.060   2.735 -0.4635 -0.4697 -0.0330
 1364SOL    HW1 4790   2.737   4.116   2.767 -1.7119  0.7183  0.7631
 1364SOL    HW2 4791   2.590   4.086   2.786 -1.5456 -1.5271 -1.0471
 1365SOL     OW 4792   2.667   0.716   3.049  0.0794  0.4628  0.0942
 1365SOL    HW1 4793   2.615   0.652   3.001 -0.2522  1.7607 -1.3683
 1365SOL    HW2 4794   2.730   0.664   3.099 -0.2860 -0.9986 -0.9181
 1366SOL     OW 4795   3.000   4.321   1.814 -0.5700 -0.3411  0.2452
 1366SOL    HW1 4796   2.943   4.390   1.780 -1.3051  0.5533  2.9810
 1366SOL    HW2 4797   3.051   4.365   1.883  1.0623 -1.9132  0.1179
 1367SOL     OW 4798   4.056   3.413   3.537  0.0559 -0.0856  0.5201
 1367SOL    HW1 4799   4.006   3.483   3.494  0.3387 -0.3956 -0.3364
 1367SOL    HW2 4800   4.142   3.452   3.554 -0.5149  0.5360  2.2381
 1368SOL     OW 4801   2.374   1.783   0.029  0.0213 -0.4620 -0.2210
 1368SOL    HW1 4802   2.416   1.801  -0.055 -2.4711  2.1149 -1.0987
 1368SOL    HW2 4803   2.364   1.870   0.069 -3.1262 -1.0306  0.4814
 1369SOL     OW 4804   3.644   3.749   4.611 -0.0924 -0.6114 -0.4512
 1369SOL    HW1 4805   3.633   3.793   4.527 -2.1580 -0.7406 -0.2825
 1369SOL    HW2 4806   3.706   3.804   4.659 -1.2986  1.1882 -0.8851
 1370SOL     OW 4807   2.484   1.829   1.004 -0.5939  0.3728 -0.3194
 1370SOL    HW1 4808   2.390   1.836   0.992 -0.7227 -0.2372  0.2849
 1370SOL    HW2 4809   2.497   1.746   1.050  0.3389 -0.2092 -1.5528
 1371SOL     OW 4810   1.761   0.101   2.561  0.3287 -0.2051 -0.1758
 1371SOL    HW1 4811   1.678   0.067   2.527 -0.4216  0.8492  0.5328
 1371SOL    HW2 4812   1.805   0.024   2.598 -0.3694 -0.7668 -0.4861
 1372SOL     OW 4813   4.128   0.224   0.685 -0.0949  0.4341  0.4969
 1372SOL    HW1 4814   4.191   0.272   0.738 -1.4440  2.4044  0.4147
 1372SOL    HW2 4815   4.116   0.141   0.731  1.7355  0.4579  1.0646
 1373SOL     OW 4816   2.771   2.713   4.344 -0.0772 -0.1156 -0.1561
 1373SOL    HW1 4817   2.740   2.659   4.271 -1.2005  0.5709 -0.2157
 1373SOL    HW2 4818   2.770   2.802   4.310  0.2758  0.1129  0.4206
 1374SOL     OW 4819   0.679   1.299   1.112 -0.2766 -0.7775  0.0975
 1374SOL    HW1 4820   0.669   1.389   1.143 -1.7736 -1.6385  2.2738
 1374SOL    HW2 4821   0.620   1.247   1.166  2.1266 -3.4260  0.4424
 1375SOL     OW 4822   1.688   1.977   5.010  0.3308 -0.0252  0.1085
 1375SOL    HW1 4823   1.775   1.973   5.051  0.1361 -0.7869  0.4661
 1375SOL    HW2 4824   1.706   1.981   4.916  0.7503 -0.3270  0.1742
 1376SOL     OW 4825   3.859   3.628   0.823  0.7973 -0.4889  0.1226
 1376SOL    HW1 4826   3.898   3.566   0.761  1.1481  0.5900 -0.8020
 1376SOL    HW2 4827   3.778   3.587   0.851  0.6997 -1.0882 -0.9632
 1377SOL     OW 4828   0.109   2.960   2.365  0.0352  0.6685 -0.5011
 1377SOL    HW1 4829   0.039   2.911   2.322  0.8960 -1.9593  0.8757
 1377SOL    HW2 4830   0.186   2.902   2.360  1.4118  2.3158  0.3507
 1378SOL     OW 4831   1.327   1.581   1.160 -0.7548 -0.3143  0.4747
 1378SOL    HW1 4832   1.244   1.535   1.171 -1.8282  1.9894  3.3331
 1378SOL    HW2 4833   1.312   1.641   1.087 -0.8468 -1.3417 -0.3724
 1379SOL     OW 4834   0.270   0.799   2.115 -0.4833  0.8147 -0.2497
 1379SOL    HW1 4835   0.187   0.792   2.162  0.6263  1.1410  1.8862
 1379SOL    HW2 4836   0.295   0.891   2.125  0.9851  0.3396  0.7213
 1380SOL     OW 4837   5.068   4.821   3.887 -0.0730  0.2225  0.3337
 1380SOL    HW1 4838   5.106   4.769   3.816 -0.2644  0.9601 -0.3204
 1380SOL    HW2 4839   5.127   4.896   3.895  0.2455 -0.1144  1.3244
 1381SOL     OW 4840   0.550   4.110   0.221 -0.0098 -0.2082 -0.0206
 1381SOL    HW1 4841   0.478   4.152   0.267 -0.0288 -1.0798  0.7736
 1381SOL    HW2 4842   0.531   4.124   0.128 -0.7360  0.3212  0.2015
 1382SOL     OW 4843   2.320   1.306   2.566 -0.0463  0.1808  0.1638
 1382SOL    HW1 4844   2.358   1.381   2.521 -1.2154  1.1525  0.7273
 1382SOL    HW2 4845   2.391   1.242   2.573  0.5274  0.5512 -1.8110
 1383SOL     OW 4846   1.072   3.342   0.983 -0.1717  0.3272 -0.3422
 1383SOL    HW1 4847   1.118   3.283   0.924  2.2506 -0.6949  2.3353
 1383SOL    HW2 4848   1.031   3.284   1.048  0.2601  1.4583  1.0002
 1384SOL     OW 4849   4.636   3.184   1.659  0.1698  0.7224 -0.1898
 1384SOL    HW1 4850   4.609   3.152   1.574  1.4983  2.4664 -1.3484
 1384SOL    HW2 4851   4.690   3.114   1.696  2.4977  1.2316 -2.3666
 1385SOL     OW 4852   3.702   0.849   1.008  0.3178 -0.3817 -0.1312
 1385SOL    HW1 4853   3.731   0.758   1.015  1.1089 -0.2054 -0.9820
 1385SOL    HW2 4854   3.721   0.873   0.918 -0.3513  0.4774 -0.0515
 1386SOL     OW 4855   0.871   1.911   3.713  0.6579 -0.1367 -0.1011
 1386SOL    HW1 4856   0.909   1.847   3.773 -2.1116 -0.6819  1.2319
 1386SOL    HW2 4857   0.865   1.991   3.765 -1.4411 -0.5167  0.3191
 1387SOL     OW 4858   4.980   1.779   0.129  0.0194 -0.1238 -0.0653
 1387SOL    HW1 4859   4.887   1.757   0.133 -0.1667  0.4751 -0.9142
 1387SOL    HW2 4860   5.015   1.723   0.059  0.3678 -0.5483  0.4356
 1388SOL     OW 4861   3.233   2.575   4.454 -0.2247 -0.6711  0.0725
 1388SOL    HW1 4862   3.221   2.564   4.548  2.8446 -0.8512  0.5538
 1388SOL    HW2 4863   3.197   2.661   4.435  1.7311  0.7315  2.0954
 1389SOL     OW 4864   0.768   2.100   0.772  0.5615 -0.0453  0.4031
 1389SOL    HW1 4865   0.836   2.032   0.771 -1.2407 -1.9547  0.5554
 1389SOL    HW2 4866   0.711   2.075   0.845  0.0458  1.9211  0.7438
 1390SOL     OW 4867   0.960   5.032   0.064 -0.5546  0.1879 -0.5699
 1390SOL    HW1 4868   0.975   4.955   0.010 -2.8250 -0.1903 -0.7876
 1390SOL    HW2 4869   0.981   5.106   0.007  0.2990 -0.2524 -0.8274
 1391SOL     OW 4870   5.055   4.990   1.019  0.0653  0.3038  0.5158
 1391SOL    HW1 4871   4.964   4.968   1.041 -0.2966  1.0673 -0.1818
 1391SOL    HW2 4872   5.051   5.081   0.990  1.0565  0.3281  0.4532
 1392SOL     OW 4873   0.119   3.543   3.458  0.1449  0.0402 -0.8465
 1392SOL    HW1 4874   0.110   3.572   3.367  1.2916  0.1525 -0.9418
 1392SOL    HW2 4875   0.205   3.577   3.486 -0.1526 -0.0647  0.2515
 1393SOL     OW 4876   5.176   0.507   3.080  0.4393 -0.4842  0.0299
 1393SOL    HW1 4877   5.188   0.590   3.126  0.4642 -0.5515  0.1437
 1393SOL    HW2 4878   5.224   0.518   2.998 -1.0892  0.3248 -0.8105
 1394SOL     OW 4879   4.723   0.880   2.700  0.0401  0.3969 -0.7709
 1394SOL    HW1 4880   4.745   0.799   2.745 -1.2014  1.1183  1.2925
 1394SOL    HW2 4881   4.684   0.853   2.617  1.7234 -1.0162 -1.1372
 1395SOL     OW 4882   3.544   2.290   1.726 -0.0396 -0.5719  0.4030
 1395SOL    HW1 4883   3.556   2.197   1.743  1.0937  0.0107  3.4652
 1395SOL    HW2 4884   3.620   2.316   1.675 -0.2094 -1.2369 -0.2044
 1396SOL     OW 4885   4.218   2.908   1.249 -0.0245 -0.2050  0.0902
 1396SOL    HW1 4886   4.246   2.877   1.336  1.1455  1.6761  0.4242
 1396SOL    HW2 4887   4.162   2.983   1.268  0.7100  0.5777 -0.7977
 1397SOL     OW 4888   2.870   4.482   3.305 -0.2651  0.1274 -0.3508
 1397SOL    HW1 4889   2.953   4.528   3.289 -0.3339 -0.2427 -2.0271
 1397SOL    HW2 4890   2.883   4.395   3.266 -1.5522  0.2001 -0.9993
 1398SOL     OW 4891   0.099   2.082   0.362 -0.0895 -0.1562 -0.5690
 1398SOL    HW1 4892   0.180   2.133   0.365 -0.2558  0.0633  0.8512
 1398SOL    HW2 4893   0.061   2.102   0.276  1.0542  0.1963 -1.0130
 1399SOL     OW 4894   4.501   3.692   3.793  0.3948  0.1868 -0.0967
 1399SOL    HW1 4895   4.423   3.747   3.795  0.8932  1.0067 -1.5839
 1399SOL    HW2 4896   4.560   3.733   3.857  0.4157  0.8862 -0.5429
 1400SOL     OW 4897   3.271   3.909   3.240  0.4248  0.0920  0.1926
 1400SOL    HW1 4898   3.320   3.898   3.158 -0.1064  1.5966 -0.3742
 1400SOL    HW2 4899   3.267   4.004   3.253 -3.3135  0.2053 -0.4563
 1401SOL     OW 4900   3.249   2.707   4.050 -0.1299 -0.6400 -0.2990
 1401SOL    HW1 4901   3.299   2.649   3.992  0.6871 -0.2855  0.0263
 1401SOL    HW2 4902   3.181   2.745   3.993  0.5824 -0.3855 -1.0100
 1402SOL     OW 4903   1.239   2.275   3.482  0.4175 -0.0421  0.2235
 1402SOL    HW1 4904   1.300   2.263   3.409  0.3054 -0.3716  0.1822
 1402SOL    HW2 4905   1.291   2.318   3.550  0.4492  0.5134 -0.1489
 1403SOL     OW 4906   2.929   5.327   0.451 -0.7988  0.9443 -0.1670
 1403SOL    HW1 4907   2.994   5.321   0.521 -1.6543 -0.0040  0.5867
 1403SOL    HW2 4908   2.980   5.344   0.372  0.5741 -1.2515  0.1447
 1404SOL     OW 4909   3.357   3.088   4.105 -0.0654  0.5695  0.0936
 1404SOL    HW1 4910   3.287   3.070   4.168 -0.7430 -3.5129 -1.5294
 1404SOL    HW2 4911   3.312   3.121   4.028  0.4597  2.6446  0.5967
 1405SOL     OW 4912   2.060   4.975   0.443 -0.2920 -0.5127  0.1655
 1405SOL    HW1 4913   2.113   5.051   0.420 -0.3027 -0.4127  0.4705
 1405SOL    HW2 4914   2.063   4.919   0.365  0.2063 -0.4763  0.1568
 1406SOL     OW 4915   3.267   0.625   0.419  0.2868  0.1533 -0.7416
 1406SOL    HW1 4916   3.279   0.714   0.386 -2.2726  0.1951 -1.7656
 1406SOL    HW2 4917   3.352   0.602   0.457  0.6034  3.6418  1.1109
 1407SOL     OW 4918   0.562   1.596   5.161  0.2064  0.5987  0.2804
 1407SOL    HW1 4919   0.512   1.532   5.110 -0.2921  0.2213  1.2248
 1407SOL    HW2 4920   0.581   1.666   5.098  0.6332 -0.3858 -0.7373
 1408SOL     OW 4921   1.353   0.522   0.053  0.0702  0.2153  0.5124
 1408SOL    HW1 4922   1.290   0.450   0.043  1.3373 -0.7160 -1.4421
 1408SOL    HW2 4923   1.299   0.601   0.044 -0.8901 -0.5473 -1.0241
 1409SOL     OW 4924   4.805   5.098   1.042  0.1185 -0.5073  0.3794
 1409SOL    HW1 4925   4.771   5.051   1.118 -0.0940  0.1711  0.7104
 1409SOL    HW2 4926   4.822   5.187   1.074 -2.0476  0.4399 -0.8652
 1410SOL     OW 4927   1.131   2.783   3.732  0.0134  0.0135 -0.2777
 1410SOL    HW1 4928   1.124   2.722   3.658  1.2161 -0.3098 -0.1401
 1410SOL    HW2 4929   1.058   2.759   3.789  1.1747 -2.1670  0.3873
 1411SOL     OW 4930   0.906   1.127   1.169  1.0360 -0.2475 -0.9868
 1411SOL    HW1 4931   0.819   1.166   1.159  0.4687 -0.9886  0.6997
 1411SOL    HW2 4932   0.931   1.102   1.080 -1.2245 -1.5450 -1.3453
 1412SOL     OW 4933   3.788   1.776   3.181  0.2251 -0.5228 -0.0353
 1412SOL    HW1 4934   3.717   1.818   3.229  0.6494 -1.5292  1.5659
 1412SOL    HW2 4935   3.831   1.720   3.246  2.1263 -0.3851 -1.0975
 1413SOL     OW 4936   2.672   2.067   2.818  0.2641 -0.2177 -0.2594
 1413SOL    HW1 4937   2.743   2.129   2.801  2.0560 -2.1553 -0.3333
 1413SOL    HW2 4938   2.654   2.076   2.912  0.9483 -0.0314 -0.1406
 1414SOL     OW 4939   1.767   4.094   4.049 -0.2038  0.3294 -0.0731
 1414SOL    HW1 4940   1.735   4.133   3.968  2.6177  0.5533 -1.1946
 1414SOL    HW2 4941   1.769   4.000   4.032 -1.3126  0.1936  0.4433
 1415SOL     OW 4942   4.093   1.275   1.849  0.1520 -0.2502  0.1434
 1415SOL    HW1 4943   4.123   1.366   1.849 -0.3135 -0.0450  2.2327
 1415SOL    HW2 4944   4.013   1.276   1.797  0.6896  0.3125 -0.7055
 1416SOL     OW 4945   0.043   3.944   5.119 -0.1850  0.2994  0.1934
 1416SOL    HW1 4946   0.003   3.857   5.121 -1.2705  0.6516 -2.2535
 1416SOL    HW2 4947   0.001   3.991   5.191 -1.5969 -0.4078 -0.1314
 1417SOL     OW 4948   2.143   0.476   0.987  0.0361 -0.9809 -0.2483
 1417SOL    HW1 4949   2.184   0.545   1.039  0.4256 -0.5857 -1.0622
 1417SOL    HW2 4950   2.053   0.472   1.020 -0.3853  0.8283 -1.0441
 1418SOL     OW 4951   5.218   2.240   4.193 -0.3367  0.3971 -0.1565
 1418SOL    HW1 4952   5.202   2.277   4.279  0.3400 -0.2231  0.2522
 1418SOL    HW2 4953   5.264   2.309   4.145  2.1428 -0.2842  1.0376
 1419SOL     OW 4954   1.286   1.661   2.777  0.2996  0.4522 -0.6792
 1419SOL    HW1 4955   1.228   1.652   2.852 -1.8092  1.9218 -2.0425
 1419SOL    HW2 4956   1.256   1.594   2.716  1.3807 -0.0989 -0.6286
 1420SOL     OW 4957   0.444   4.485   2.912  0.3534  0.3392 -0.3508
 1420SOL    HW1 4958   0.384   4.420   2.948  1.4584 -0.1253  0.7372
 1420SOL    HW2 4959   0.508   4.434   2.862  0.8595  0.6407 -0.0208
 1421SOL     OW 4960   5.332   4.707   2.414  0.2197 -0.0580  0.2715
 1421SOL    HW1 4961   5.390   4.774   2.450  0.1699 -0.5603  1.3167
 1421SOL    HW2 4962   5.379   4.624   2.429  0.9129 -0.2008 -2.2212
 1422SOL     OW 4963   4.096   4.843   1.454 -0.4283 -0.6272 -0.2454
 1422SOL    HW1 4964   4.107   4.754   1.490 -0.2075 -0.6546 -0.3834
 1422SOL    HW2 4965   4.107   4.833   1.360  1.0018 -0.2276 -0.1376
 1423SOL     OW 4966   1.613   0.610   0.095  0.2348  0.2362  0.4237
 1423SOL    HW1 4967   1.518   0.601   0.090  0.1482  0.7586  0.9731
 1423SOL    HW2 4968   1.647   0.529   0.058 -0.3800  0.8218 -1.5843
 1424SOL     OW 4969   3.661   3.649   1.531 -0.4458 -0.6247  0.0123
 1424SOL    HW1 4970   3.661   3.559   1.498 -0.1051 -0.9755  0.9575
 1424SOL    HW2 4971   3.674   3.703   1.452 -2.6579 -1.2651 -0.8740
 1425SOL     OW 4972   0.035   0.842   3.953  0.5793  0.2668 -0.1681
 1425SOL    HW1 4973   0.010   0.777   4.018 -1.9074 -0.5292 -1.7959
 1425SOL    HW2 4974   0.109   0.803   3.907  1.3570  0.1675  1.1230
 1426SOL     OW 4975   2.148   2.864   3.712 -0.5715 -0.3640 -0.2498
 1426SOL    HW1 4976   2.162   2.920   3.788 -1.2623  0.7613 -0.9214
 1426SOL    HW2 4977   2.056   2.876   3.690 -0.5103 -1.0951 -0.9383
 1427SOL     OW 4978   1.044   1.032   0.371  0.0662 -0.6407  0.2612
 1427SOL    HW1 4979   1.096   0.954   0.354  0.1525 -0.1747 -1.9234
 1427SOL    HW2 4980   1.084   1.101   0.317 -1.0835  0.4526  0.7346
 1428SOL     OW 4981   4.860   5.200   5.181  0.1419  0.0406  0.0912
 1428SOL    HW1 4982   4.825   5.120   5.141  1.1717  0.2717 -1.3178
 1428SOL    HW2 4983   4.803   5.215   5.257 -1.5183 -0.7332 -0.9383
 1429SOL     OW 4984   4.100   4.888   3.607  0.3082  0.2187  0.0704
 1429SOL    HW1 4985   4.029   4.875   3.670  0.0302 -0.4379 -0.3762
 1429SOL    HW2 4986   4.094   4.980   3.582 -0.4528  0.1384 -0.0490
 1430SOL     OW 4987   3.386   1.846   3.657 -0.6620  0.3145 -0.1848
 1430SOL    HW1 4988   3.358   1.844   3.565 -0.5487  0.5890 -0.2260
 1430SOL    HW2 4989   3.463   1.902   3.657  0.6487 -1.4103 -0.2666
 1431SOL     OW 4990   2.720   3.902   4.699  0.0944  0.0939 -0.0361
 1431SOL    HW1 4991   2.724   3.980   4.755  0.5403  0.8077 -1.0339
 1431SOL    HW2 4992   2.627   3.880   4.696  0.0224  0.2565  0.6910
 1432SOL     OW 4993   2.245   4.764   2.247 -0.0332  0.4312 -0.2402
 1432SOL    HW1 4994   2.209   4.736   2.163  0.1718 -0.4065 -0.0626
 1432SOL    HW2 4995   2.238   4.686   2.302 -0.5839  1.0887  0.6588
 1433SOL     OW 4996   4.728   0.910   1.536  0.2140 -0.6220 -0.2291
 1433SOL    HW1 4997   4.646   0.867   1.559  0.7668 -1.4597  0.2358
 1433SOL    HW2 4998   4.781   0.840   1.497  1.1779 -0.3995  0.6557
 1434SOL     OW 4999   3.576   4.825   1.225 -0.0243  0.1967  0.5190
 1434SOL    HW1 5000   3.533   4.910   1.224  1.1128  0.7967 -0.6004
 1434SOL    HW2 5001   3.658   4.839   1.271 -0.0336 -0.4034  0.7314
 1435SOL     OW 5002   0.660   1.534   3.890  0.1818  0.4788  0.3444
 1435SOL    HW1 5003   0.632   1.460   3.836 -2.4273  1.0845  0.7353
 1435SOL    HW2 5004   0.745   1.560   3.854  0.1384 -1.3137 -1.1747
 1436SOL     OW 5005   1.292   2.442   4.391 -0.2252 -0.1521 -0.5883
 1436SOL    HW1 5006   1.234   2.478   4.459  1.1479 -0.4083  0.7686
 1436SOL    HW2 5007   1.250   2.467   4.309 -1.8141  0.3921  0.3328
 1437SOL     OW 5008   2.648   1.005   1.962  0.0263  0.5915  0.3873
 1437SOL    HW1 5009   2.701   1.085   1.973 -0.1253  0.4148  2.7814
 1437SOL    HW2 5010   2.713   0.934   1.959  0.1626  0.7430 -1.7655
 1438SOL     OW 5011   4.673   4.973   2.502 -0.2752  0.1349 -0.3716
 1438SOL    HW1 5012   4.732   4.924   2.444  0.5884  0.2707  0.3646
 1438SOL    HW2 5013   4.586   4.936   2.485  0.2622 -1.2322 -0.2992
 1439SOL     OW 5014   1.581   0.136   1.205 -0.5215 -0.4692 -0.1652
 1439SOL    HW1 5015   1.575   0.099   1.293 -0.0021 -0.9472 -0.3340
 1439SOL    HW2 5016   1.636   0.213   1.215 -1.3274  0.0921  0.1197
 1440SOL     OW 5017   5.071   2.255   3.792  0.1658 -0.3193 -0.0613
 1440SOL    HW1 5018   5.051   2.263   3.699 -0.4304 -0.3605  0.0549
 1440SOL    HW2 5019   5.007   2.192   3.825 -0.7953  0.9931  0.7108
 1441SOL     OW 5020   4.170   1.824   5.312  0.0884 -0.5347  0.1258
 1441SOL    HW1 5021   4.241   1.868   5.358  0.4270 -0.2425 -0.6734
 1441SOL    HW2 5022   4.119   1.895   5.272  1.3466 -0.8704 -2.2187
 1442SOL     OW 5023   0.524   0.153   3.219 -0.4836  0.2563 -0.1387
 1442SOL    HW1 5024   0.585   0.087   3.187 -0.2871  0.5787 -0.4390
 1442SOL    HW2 5025   0.546   0.232   3.170 -1.9711  0.0676 -1.1972
 1443SOL     OW 5026   3.468   4.901   2.655  0.2670 -0.1392  0.9844
 1443SOL    HW1 5027   3.509   4.827   2.700  0.4351 -1.0284 -0.5550
 1443SOL    HW2 5028   3.380   4.870   2.635  1.0313 -0.8841 -1.6660
 1444SOL     OW 5029   3.951   2.907   1.027 -0.2843 -0.4798 -0.1028
 1444SOL    HW1 5030   3.909   2.842   1.085 -1.1036 -2.7288 -2.9940
 1444SOL    HW2 5031   4.030   2.863   0.995 -0.2082  0.4235 -1.1941
 1445SOL     OW 5032   3.426   5.020   4.642 -0.5044  0.2234  0.0575
 1445SOL    HW1 5033   3.355   4.961   4.617 -0.2812  0.0327 -0.1282
 1445SOL    HW2 5034   3.411   5.099   4.590 -1.8913  1.0791  1.6597
 1446SOL     OW 5035   3.846   4.572   3.504 -0.0253 -0.4235 -0.0558
 1446SOL    HW1 5036   3.941   4.578   3.509  0.0500 -1.8540  1.0393
 1446SOL    HW2 5037   3.828   4.534   3.419  0.3161  0.5459 -0.5771
 1447SOL     OW 5038   4.947   2.215   5.214  0.7498 -0.0957  0.7088
 1447SOL    HW1 5039   4.910   2.218   5.126 -2.4155  0.8529  1.9463
 1447SOL    HW2 5040   4.978   2.125   5.224  3.0536  0.2459 -1.9503
 1448SOL     OW 5041   1.509   1.357   3.188 -0.0933 -0.2174 -0.4509
 1448SOL    HW1 5042   1.471   1.344   3.102 -0.4167 -2.0539 -0.0782
 1448SOL    HW2 5043   1.437   1.342   3.249  0.2411  0.5821  0.1559
 1449SOL     OW 5044   4.917   3.871   0.144 -0.3310  0.0579  0.5559
 1449SOL    HW1 5045   4.973   3.936   0.187  0.6761  0.8559 -1.7934
 1449SOL    HW2 5046   4.860   3.922   0.087 -1.2098 -0.9876  0.4563
 1450SOL     OW 5047   5.237   0.608   5.055  0.4631 -0.5299 -0.2187
 1450SOL    HW1 5048   5.300   0.543   5.025 -1.0919 -1.3580 -1.9006
 1450SOL    HW2 5049   5.167   0.605   4.990  0.0024  2.3672  0.0046
 1451SOL     OW 5050   2.198   2.034   0.692 -0.2191  0.5021 -0.1553
 1451SOL    HW1 5051   2.160   1.962   0.743 -0.7716  1.1460  0.3640
 1451SOL    HW2 5052   2.122   2.079   0.654  0.1029  0.9563 -0.2684
 1452SOL     OW 5053   5.073   1.328   0.594 -0.3623  0.2136 -0.6763
 1452SOL    HW1 5054   5.077   1.265   0.523  3.4390 -0.6285  0.0653
 1452SOL    HW2 5055   5.097   1.411   0.553  1.2401 -0.1575 -0.5331
 1453SOL     OW 5056   5.071   3.734   0.885  0.1913 -0.2664 -0.5893
 1453SOL    HW1 5057   5.124   3.723   0.964 -1.5769  0.7660  0.8171
 1453SOL    HW2 5058   5.031   3.649   0.870 -2.4043  0.3443  1.9395
 1454SOL     OW 5059   4.956   1.438   2.248 -0.3458 -0.3070  0.0040
 1454SOL    HW1 5060   4.913   1.353   2.243 -1.2607  0.2116 -1.2667
 1454SOL    HW2 5061   4.969   1.465   2.157 -1.1921  1.4472  0.3547
 1455SOL     OW 5062   4.732   5.315   2.717  0.5801  0.1321  0.3993
 1455SOL    HW1 5063   4.795   5.261   2.764  0.4619  1.1034  1.7054
 1455SOL    HW2 5064   4.759   5.405   2.735  0.3094  0.5405 -1.0976
 1456SOL     OW 5065   1.470   2.091   3.439 -0.5996 -0.0490  0.0587
 1456SOL    HW1 5066   1.527   2.140   3.499 -0.2219  0.7086 -0.8816
 1456SOL    HW2 5067   1.521   2.084   3.358 -1.3871 -0.4003 -0.4222
 1457SOL     OW 5068   4.003   0.290   2.683 -0.1808 -0.1839 -0.0657
 1457SOL    HW1 5069   3.960   0.336   2.755 -0.7424 -0.0814 -0.4558
 1457SOL    HW2 5070   4.088   0.333   2.675 -0.3368  0.1773  0.1730
 1458SOL     OW 5071   0.638   3.836   2.249  0.4871 -0.0648  0.3363
 1458SOL    HW1 5072   0.693   3.905   2.214 -0.9975  0.2640 -1.4855
 1458SOL    HW2 5073   0.699   3.764   2.268  1.5638  0.2963 -1.5352
 1459SOL     OW 5074   3.246   1.366   0.324  0.4002  0.1416  0.2535
 1459SOL    HW1 5075   3.310   1.357   0.253 -0.7776 -3.1205 -0.5593
 1459SOL    HW2 5076   3.217   1.457   0.319  2.6600  0.8578 -1.3616
 1460SOL     OW 5077   0.458   1.724   1.914 -0.4753  0.3859  0.2718
 1460SOL    HW1 5078   0.486   1.768   1.833  0.7430 -0.9575 -0.0883
 1460SOL    HW2 5079   0.540   1.693   1.953 -1.0279  1.2112  2.1735
 1461SOL     OW 5080   0.386   3.654   3.445 -0.2888  0.2868  0.5784
 1461SOL    HW1 5081   0.363   3.704   3.366  1.2348  1.1954  0.6774
 1461SOL    HW2 5082   0.462   3.602   3.419  1.5301  2.1071  1.9296
 1462SOL     OW 5083   0.192   4.034   2.373  0.4712  0.2866  0.3066
 1462SOL    HW1 5084   0.251   3.993   2.309  0.5436  0.0962  0.4921
 1462SOL    HW2 5085   0.142   4.098   2.322 -1.4219 -1.7362 -0.5547
 1463SOL     OW 5086   1.338   3.392   4.649 -0.8403  0.1396  0.0206
 1463SOL    HW1 5087   1.429   3.364   4.636 -0.5404  0.6740  0.8561
 1463SOL    HW2 5088   1.344   3.462   4.714 -1.9327 -0.3453  0.6594
 1464SOL     OW 5089   2.740   1.882   0.076 -0.4356  0.0490  0.3486
 1464SOL    HW1 5090   2.659   1.929   0.096  0.1184  0.9800  0.4237
 1464SOL    HW2 5091   2.805   1.918   0.136  0.2218 -0.1620 -0.2209
 1465SOL     OW 5092   5.349   2.854   4.842  0.6684  0.2206  0.3700
 1465SOL    HW1 5093   5.291   2.891   4.909  2.7105  1.6208  1.4677
 1465SOL    HW2 5094   5.372   2.928   4.786  2.1384 -0.0666  0.5563
 1466SOL     OW 5095   5.155   3.366   1.723 -0.1104 -0.3588  0.0917
 1466SOL    HW1 5096   5.209   3.310   1.668 -1.1733  1.4162 -3.0193
 1466SOL    HW2 5097   5.180   3.455   1.697 -1.4038  0.5592  1.8166
 1467SOL     OW 5098   0.745   4.970   4.253 -0.3115 -0.0972  0.0289
 1467SOL    HW1 5099   0.675   5.012   4.204 -0.8563 -0.7475  0.2167
 1467SOL    HW2 5100   0.811   4.946   4.188 -1.1348 -1.1699 -0.4444
 1468SOL     OW 5101   3.093   1.093   2.596 -0.0349 -0.3732 -0.3290
 1468SOL    HW1 5102   3.057   1.117   2.510 -1.4743  1.2658  0.6566
 1468SOL    HW2 5103   3.151   1.166   2.619  0.9571 -1.1767 -0.2136
 1469SOL     OW 5104   0.046   5.072   5.340 -0.2151  0.7422 -0.1687
 1469SOL    HW1 5105   0.022   5.104   5.427  2.2712  0.4461  0.7354
 1469SOL    HW2 5106   0.087   4.987   5.357  0.5359  0.7904 -1.5856
 1470SOL     OW 5107   2.915   1.628   1.400  0.2590 -0.3638 -0.1476
 1470SOL    HW1 5108   2.828   1.651   1.433  0.4019 -0.3046  0.1967
 1470SOL    HW2 5109   2.973   1.694   1.438  0.6883 -1.3354  0.9255
 1471SOL     OW 5110   0.886   2.198   3.391 -0.4088 -0.2209  0.0147
 1471SOL    HW1 5111   0.927   2.242   3.466 -2.2844  0.2103  0.8558
 1471SOL    HW2 5112   0.901   2.105   3.407  0.7571 -0.0604 -0.0490
 1472SOL     OW 5113   0.331   1.004   0.923  0.0804  0.6243 -0.6750
 1472SOL    HW1 5114   0.329   0.965   1.010  1.1714  1.9778 -0.0054
 1472SOL    HW2 5115   0.418   0.985   0.890 -0.1197  0.6422 -1.2306
 1473SOL     OW 5116   2.860   5.342   1.222  0.3008  0.1014 -0.1802
 1473SOL    HW1 5117   2.828   5.422   1.264  0.6456  0.8018 -1.2175
 1473SOL    HW2 5118   2.800   5.274   1.252 -0.1164  0.7823  0.5630
 1474SOL     OW 5119   5.277   4.623   1.059 -0.4606  0.2219 -0.3419
 1474SOL    HW1 5120   5.190   4.595   1.086 -1.3618  0.8695 -2.3580
 1474SOL    HW2 5121   5.263   4.704   1.011  1.6050  1.8634  1.6143
 1475SOL     OW 5122   0.316   0.383   0.965  0.0104 -0.0317 -0.4336
 1475SOL    HW1 5123   0.223   0.365   0.974 -0.0403  0.0694 -0.7745
 1475SOL    HW2 5124   0.329   0.402   0.872  0.6827 -1.8452 -0.7417
 1476SOL     OW 5125   3.284   3.403   4.653 -1.0668 -0.0980 -0.5965
 1476SOL    HW1 5126   3.296   3.384   4.746 -1.5506  1.0353 -0.2852
 1476SOL    HW2 5127   3.195   3.374   4.634 -1.6012  1.2704 -0.2598
 1477SOL     OW 5128   4.633   0.240   4.754  0.4600  0.0809  0.9396
 1477SOL    HW1 5129   4.651   0.314   4.697  1.7788 -0.0800  1.1314
 1477SOL    HW2 5130   4.697   0.247   4.824 -0.7686 -0.0456  2.1268
 1478SOL     OW 5131   2.531   4.750   3.092  0.9669 -0.2919 -0.1552
 1478SOL    HW1 5132   2.608   4.807   3.088  3.0450 -2.8922 -1.0293
 1478SOL    HW2 5133   2.567   4.662   3.081 -2.1460 -1.6952 -0.1502
 1479SOL     OW 5134   0.440   0.605   0.152  0.2278 -0.1000 -0.7704
 1479SOL    HW1 5135   0.415   0.685   0.106 -1.1412  0.0345  0.1642
 1479SOL    HW2 5136   0.509   0.567   0.097  0.2824  1.2474 -1.6907
 1480SOL     OW 5137   5.048   0.066   0.791  0.5880  0.1441 -0.9972
 1480SOL    HW1 5138   5.033   0.160   0.791 -0.0479  0.0469 -0.4934
 1480SOL    HW2 5139   4.976   0.030   0.739  0.3577 -0.1292 -0.4963
 1481SOL     OW 5140   4.067   3.626   1.846  0.0719 -0.4364  0.1048
 1481SOL    HW1 5141   4.115   3.544   1.840 -0.8233 -1.0021  0.4253
 1481SOL    HW2 5142   3.995   3.607   1.907  0.2921  0.7978  0.7766
 1482SOL     OW 5143   3.963   1.477   0.666  0.2714  0.0063  0.0595
 1482SOL    HW1 5144   3.905   1.538   0.621  0.9748  1.8799  1.5839
 1482SOL    HW2 5145   4.051   1.498   0.633  0.5135 -0.2933  0.5025
 1483SOL     OW 5146   2.070   3.990   4.257  0.3968 -0.8356  0.6888
 1483SOL    HW1 5147   2.152   4.006   4.211 -0.4641  0.5127 -0.4528
 1483SOL    HW2 5148   2.032   3.915   4.212  0.3958 -0.6375  0.3553
 1484SOL     OW 5149   0.740   0.660   5.136 -0.4596 -0.2257  0.4499
 1484SOL    HW1 5150   0.667   0.688   5.081  1.0085  1.4771 -0.7409
 1484SOL    HW2 5151   0.797   0.737   5.143  2.8777 -2.2398 -1.4249
 1485SOL     OW 5152   4.185   3.131   4.601 -0.2962  0.2585 -0.2736
 1485SOL    HW1 5153   4.143   3.179   4.529  2.7912  0.9995 -1.7480
 1485SOL    HW2 5154   4.220   3.200   4.658  0.9998 -0.2613 -0.4205
 1486SOL     OW 5155   0.276   4.448   3.820  0.3144 -0.4444  0.0900
 1486SOL    HW1 5156   0.199   4.422   3.870  1.9191 -0.0611  3.0331
 1486SOL    HW2 5157   0.242   4.504   3.750 -2.1051 -0.6801  0.9797
 1487SOL     OW 5158   3.443   3.913   1.629  0.1161 -0.2083  0.8090
 1487SOL    HW1 5159   3.527   3.889   1.668 -0.0690 -1.0789  0.6776
 1487SOL    HW2 5160   3.424   3.843   1.567  1.1051  1.8067 -1.9872
 1488SOL     OW 5161   1.260   3.038   3.104  0.3598  0.2176 -0.3968
 1488SOL    HW1 5162   1.277   2.944   3.101  0.2649  0.2098 -0.6566
 1488SOL    HW2 5163   1.168   3.046   3.127  1.0620  0.2680  2.8711
 1489SOL     OW 5164   3.930   1.063   4.760 -0.2839  0.1965 -0.5767
 1489SOL    HW1 5165   3.946   1.002   4.831  0.0033  1.4943  0.5282
 1489SOL    HW2 5166   3.950   1.149   4.798  0.9000  0.8464 -2.5418
 1490SOL     OW 5167   4.742   0.070   4.066  0.1203  0.2337  0.0607
 1490SOL    HW1 5168   4.722  -0.023   4.056  1.7605  0.0795 -2.7605
 1490SOL    HW2 5169   4.788   0.075   4.150 -1.2552 -1.2027  0.9631
 1491SOL     OW 5170   1.284   0.838   3.649  0.6052  0.3169 -0.3907
 1491SOL    HW1 5171   1.201   0.862   3.691 -0.1162  0.6722 -1.9338
 1491SOL    HW2 5172   1.352   0.874   3.706 -0.3588  1.5756  0.0070
 1492SOL     OW 5173   3.330   2.527   2.034 -0.2940  0.2293  0.0375
 1492SOL    HW1 5174   3.255   2.540   1.975 -0.4346  1.3541  0.4239
 1492SOL    HW2 5175   3.401   2.576   1.993  0.1694 -0.6220 -0.1933
 1493SOL     OW 5176   3.821   5.015   4.370  0.1763  0.2904  0.3243
 1493SOL    HW1 5177   3.885   5.087   4.368  0.6564 -0.1397  0.2086
 1493SOL    HW2 5178   3.847   4.957   4.298  0.7303 -0.8046  1.3780
 1494SOL     OW 5179   3.261   0.014   3.823  0.4128 -0.4956  0.1522
 1494SOL    HW1 5180   3.354   0.010   3.843  0.9676  0.7603 -1.9273
 1494SOL    HW2 5181   3.225  -0.068   3.859  2.4750 -1.4965  0.0765
 1495SOL     OW 5182   1.223   3.090   1.870 -0.0816 -0.4540 -0.5595
 1495SOL    HW1 5183   1.216   3.055   1.959 -0.7242 -2.5648 -1.3629
 1495SOL    HW2 5184   1.175   3.027   1.816 -0.6335  1.3366 -2.2826
 1496SOL     OW 5185   0.158   4.461   5.128 -0.1972 -0.2572  0.2459
 1496SOL    HW1 5186   0.168   4.554   5.111 -0.1963 -0.1780  0.6711
 1496SOL    HW2 5187   0.116   4.426   5.049  0.6681 -0.0663 -0.3093
 1497SOL     OW 5188   5.118   5.071   2.595  0.2622 -0.1693 -0.1173
 1497SOL    HW1 5189   5.100   5.135   2.664 -0.4287 -0.7530  0.2682
 1497SOL    HW2 5190   5.064   5.099   2.521 -0.3820 -0.5247  0.1990
 1498SOL     OW 5191   2.163   0.247   2.084 -0.0263 -0.4432  0.2167
 1498SOL    HW1 5192   2.251   0.227   2.052 -0.1424 -2.4502  0.9917
 1498SOL    HW2 5193   2.105   0.219   2.013 -0.0536  2.6855 -1.1275
 1499SOL     OW 5194   3.097   1.950   5.044 -0.2473 -0.9488 -0.5325
 1499SOL    HW1 5195   3.045   1.948   5.124 -1.1026  0.9943 -0.9907
 1499SOL    HW2 5196   3.187   1.937   5.074 -0.6982 -1.5670  0.5843
 1500SOL     OW 5197   3.977   3.605   4.951  0.0936  0.2378  0.0867
 1500SOL    HW1 5198   4.008   3.673   5.011 -2.1094  0.3228  1.2124
 1500SOL    HW2 5199   3.988   3.643   4.864  1.0138  1.0930  0.5510
 1501SOL     OW 5200   4.134   2.159   3.537 -0.9345 -0.0227 -0.0242
 1501SOL    HW1 5201   4.084   2.224   3.488 -2.9519 -1.1315  0.4127
 1501SOL    HW2 5202   4.101   2.075   3.505  3.2951 -1.0630 -2.3459
 1502SOL     OW 5203   4.033   4.579   0.443 -0.3230  0.3502 -0.6244
 1502SOL    HW1 5204   3.940   4.595   0.459 -0.4153 -0.7030 -0.0049
 1502SOL    HW2 5205   4.072   4.576   0.531  0.0811 -0.3761 -0.8223
 1503SOL     OW 5206   4.041   3.488   3.824  0.3262 -0.4970  0.0072
 1503SOL    HW1 5207   4.125   3.509   3.783  0.6811 -3.0467 -0.7285
 1503SOL    HW2 5208   3.977   3.538   3.775  1.1234 -0.8590 -1.4584
 1504SOL     OW 5209   5.289   4.543   1.627  0.5268 -0.2733 -0.1225
 1504SOL    HW1 5210   5.328   4.588   1.702  0.4968 -1.6659  0.7721
 1504SOL    HW2 5211   5.283   4.610   1.559  0.2141  1.1294  1.2330
 1505SOL     OW 5212   5.217   2.360   1.795  0.2662  0.1964  0.3219
 1505SOL    HW1 5213   5.196   2.450   1.768  1.6672  0.7008  0.8340
 1505SOL    HW2 5214   5.162   2.305   1.739 -1.3878  1.3821  0.6989
 1506SOL     OW 5215   1.224   2.801   0.541  0.0228  0.3726 -1.0612
 1506SOL    HW1 5216   1.296   2.751   0.578 -0.3209  0.6101 -0.0482
 1506SOL    HW2 5217   1.263   2.886   0.518  0.7504 -0.4944 -3.3473
 1507SOL     OW 5218   2.860   2.898   1.179  0.0505 -0.4916  0.3048
 1507SOL    HW1 5219   2.893   2.809   1.167  0.6171 -0.4906  1.6197
 1507SOL    HW2 5220   2.874   2.941   1.095  0.1637 -1.5248 -0.2132
 1508SOL     OW 5221   0.023   4.320   3.920 -0.3222 -0.0314  0.3399
 1508SOL    HW1 5222  -0.069   4.343   3.937 -0.6203 -0.1620 -0.9538
 1508SOL    HW2 5223   0.023   4.289   3.829  1.1307  0.6433  0.0773
 1509SOL     OW 5224   5.325   1.658   3.050 -0.1207  0.3616  0.1298
 1509SOL    HW1 5225   5.342   1.752   3.052 -2.7176  1.0938 -2.7488
 1509SOL    HW2 5226   5.239   1.651   3.007 -0.5940 -3.2975  1.3230
 1510SOL     OW 5227   0.312   4.843   2.060 -0.6215 -0.4650 -0.2389
 1510SOL    HW1 5228   0.248   4.893   2.111  0.2461 -0.5387  0.9925
 1510SOL    HW2 5229   0.278   4.754   2.058 -0.0715 -0.7511  1.3672
 1511SOL     OW 5230   2.333   5.254   0.319  0.0198 -0.1899  0.1999
 1511SOL    HW1 5231   2.386   5.328   0.349  0.3578 -0.2183 -0.3199
 1511SOL    HW2 5232   2.284   5.228   0.396 -1.0285  1.3530  0.1080
 1512SOL     OW 5233   1.793   1.496   5.247 -0.0033  0.0599  0.3168
 1512SOL    HW1 5234   1.863   1.549   5.210 -1.9903  2.3871 -0.3254
 1512SOL    HW2 5235   1.770   1.540   5.329  0.3227 -1.6292  1.3715
 1513SOL     OW 5236   2.055   3.365   1.613  0.2121 -0.0968  0.3084
 1513SOL    HW1 5237   2.126   3.422   1.642 -1.1430  0.2624  3.2211
 1513SOL    HW2 5238   2.042   3.388   1.521  1.5427  2.3171  0.6451
 1514SOL     OW 5239   5.382   2.703   0.518  0.2584 -0.3324  0.2190
 1514SOL    HW1 5240   5.425   2.695   0.604  1.2201 -1.0526 -0.3156
 1514SOL    HW2 5241   5.453   2.723   0.458 -0.4187  0.1951 -0.4210
 1515SOL     OW 5242   1.426   3.236   3.190  0.1584  0.0729 -0.1861
 1515SOL    HW1 5243   1.359   3.168   3.175 -0.4408  0.5873  0.0958
 1515SOL    HW2 5244   1.397   3.310   3.138 -0.2550  0.7858  1.0180
 1516SOL     OW 5245   0.238   1.601   5.315 -0.3502 -0.3075 -0.0865
 1516SOL    HW1 5246   0.219   1.665   5.245  2.2077 -0.3620 -0.9289
 1516SOL    HW2 5247   0.225   1.516   5.273 -0.4843 -0.3433  0.0276
 1517SOL     OW 5248   2.144   4.622   0.094 -0.1865 -0.5640 -0.6457
 1517SOL    HW1 5249   2.206   4.549   0.098  1.0367  0.3867 -1.5154
 1517SOL    HW2 5250   2.060   4.581   0.073  0.6382 -1.6575 -2.0008
 1518SOL     OW 5251   2.179   1.557   3.369 -0.5781  0.6795  0.4363
 1518SOL    HW1 5252   2.125   1.606   3.307 -1.7917  0.8038  1.5675
 1518SOL    HW2 5253   2.154   1.590   3.455  1.7272  1.1655  0.9937
 1519SOL     OW 5254   1.209   0.839   0.292 -0.1925  0.0992 -0.1073
 1519SOL    HW1 5255   1.205   0.819   0.198 -0.1555  0.9599 -0.3032
 1519SOL    HW2 5256   1.287   0.895   0.301 -0.4042  0.3179  0.3735
 1520SOL     OW 5257   4.031   0.627   0.431  0.0754  0.0757 -0.0971
 1520SOL    HW1 5258   3.978   0.555   0.395  1.2964 -0.6918 -0.4364
 1520SOL    HW2 5259   4.089   0.584   0.494  0.8300  0.7565 -0.3085
 1521SOL     OW 5260   1.743   4.667   0.267 -0.2691  0.3532  0.1622
 1521SOL    HW1 5261   1.703   4.611   0.201 -1.1008  1.0769  0.0449
 1521SOL    HW2 5262   1.790   4.606   0.325 -0.8105 -0.4216 -0.2024
 1522SOL     OW 5263   2.452   3.506   4.398  0.1140  0.3185 -0.0242
 1522SOL    HW1 5264   2.427   3.560   4.473  0.2375 -0.5598  0.6597
 1522SOL    HW2 5265   2.450   3.567   4.323  1.5534  1.5966  0.9132
 1523SOL     OW 5266   1.963   4.085   1.230  0.2441  0.2340 -0.1947
 1523SOL    HW1 5267   1.913   4.063   1.152 -1.7516  0.1193  1.0390
 1523SOL    HW2 5268   1.992   4.000   1.265  1.3071  0.2977 -0.8857
 1524SOL     OW 5269   1.909   3.054   3.048  0.0692 -0.7520  0.0284
 1524SOL    HW1 5270   1.981   3.100   3.091  0.1408 -1.1333  0.3253
 1524SOL    HW2 5271   1.830   3.094   3.084  0.1314 -0.6816  0.0869
 1525SOL     OW 5272   0.045   0.427   0.641  0.1869 -0.7788  0.1292
 1525SOL    HW1 5273   0.100   0.394   0.712  0.1949 -1.4929 -0.2059
 1525SOL    HW2 5274   0.105   0.473   0.583  0.2529 -0.5950  0.3428
 1526SOL     OW 5275   4.124   5.258   4.009 -0.0092 -0.1519  0.4556
 1526SOL    HW1 5276   4.094   5.187   3.951 -1.4036  0.0308  0.9273
 1526SOL    HW2 5277   4.170   5.318   3.950  1.6658 -1.6778  0.1325
 1527SOL     OW 5278   3.373   4.364   3.705  0.2562  0.1595  0.1495
 1527SOL    HW1 5279   3.361   4.270   3.720 -2.6159  0.4989  0.5099
 1527SOL    HW2 5280   3.383   4.401   3.792 -1.3522  0.4368  0.2522
 1528SOL     OW 5281   5.070   2.245   0.047 -0.1871 -0.7944  0.2259
 1528SOL    HW1 5282   4.994   2.210   0.093  1.6434 -1.6716  2.8695
 1528SOL    HW2 5283   5.039   2.263  -0.041 -3.0878 -2.3782  0.7892
 1529SOL     OW 5284   1.976   4.856   5.215  0.2755  0.0243 -0.3402
 1529SOL    HW1 5285   2.001   4.764   5.218  0.1778  0.0036 -0.1716
 1529SOL    HW2 5286   1.893   4.861   5.261  0.7526  0.3452  0.5140
 1530SOL     OW 5287   3.880   3.029   1.696  0.7223 -0.1102  0.1586
 1530SOL    HW1 5288   3.855   2.987   1.778  2.4643 -0.7675  0.4095
 1530SOL    HW2 5289   3.846   2.971   1.628  1.8004 -1.1660  0.4863
 1531SOL     OW 5290   1.719   3.303   2.913 -0.2123 -0.2208  0.5880
 1531SOL    HW1 5291   1.812   3.297   2.889  0.5046  0.8695  2.8940
 1531SOL    HW2 5292   1.698   3.396   2.906 -0.6947 -0.2485  1.5267
 1532SOL     OW 5293   4.737   0.689   2.405  0.4756  0.9653 -0.1023
 1532SOL    HW1 5294   4.675   0.629   2.446  0.5510  1.3835  0.6448
 1532SOL    HW2 5295   4.737   0.665   2.312 -0.5648  0.7512 -0.0571
 1533SOL     OW 5296   2.479   3.277   0.686  0.3266  0.3825 -0.1462
 1533SOL    HW1 5297   2.522   3.196   0.660  2.5464  1.2490  0.6040
 1533SOL    HW2 5298   2.549   3.343   0.688 -0.9360  1.7855  1.5667
 1534SOL     OW 5299   2.279   4.772   1.211  0.5891  0.0537  0.2121
 1534SOL    HW1 5300   2.343   4.771   1.140 -0.2331  1.4226 -0.5746
 1534SOL    HW2 5301   2.321   4.825   1.280 -0.1043  1.9104 -0.7388
 1535SOL     OW 5302   1.758   3.241   1.264 -0.1223 -0.0133 -0.1490
 1535SOL    HW1 5303   1.736   3.192   1.343  1.9742 -1.8884 -0.6378
 1535SOL    HW2 5304   1.825   3.304   1.293  0.8773 -0.9130 -0.4381
 1536SOL     OW 5305   3.227   1.893   3.122 -0.2564 -0.5221  0.9683
 1536SOL    HW1 5306   3.262   1.835   3.054  2.7742 -0.9893  2.7336
 1536SOL    HW2 5307   3.173   1.836   3.176  0.6853 -1.1637  1.2650
 1537SOL     OW 5308   3.372   2.026   2.126 -0.1824 -0.4624 -0.3540
 1537SOL    HW1 5309   3.385   2.110   2.084 -0.1406 -0.2526  0.0727
 1537SOL    HW2 5310   3.453   1.977   2.109 -0.6047 -0.8120 -1.4859
 1538SOL     OW 5311   0.764   0.341   0.588 -0.0122  0.1591 -0.2240
 1538SOL    HW1 5312   0.852   0.308   0.609 -0.6622 -0.1851  2.2662
 1538SOL    HW2 5313   0.707   0.301   0.653 -1.7067  1.9794 -0.4924
 1539SOL     OW 5314   0.620   4.549   0.598 -0.3927 -0.5461  0.5237
 1539SOL    HW1 5315   0.585   4.633   0.570 -1.5344 -1.9525 -2.6496
 1539SOL    HW2 5316   0.711   4.550   0.569 -0.9650 -1.1215 -1.4409
 1540SOL     OW 5317   1.862   1.570   1.155  0.1488  0.5547 -0.5357
 1540SOL    HW1 5318   1.778   1.609   1.177 -1.3513 -2.0971 -1.2204
 1540SOL    HW2 5319   1.883   1.515   1.230  0.8580  0.5155 -0.7558
 1541SOL     OW 5320   0.290   3.350   1.113 -0.4896  0.1133  0.0364
 1541SOL    HW1 5321   0.331   3.437   1.116 -0.9718  0.3720 -0.6559
 1541SOL    HW2 5322   0.359   3.290   1.140 -0.1298  0.7048  0.4534
 1542SOL     OW 5323   2.609   4.216   0.322  0.2140 -0.2313  0.1000
 1542SOL    HW1 5324   2.650   4.195   0.406 -0.2146  0.7082  0.5578
 1542SOL    HW2 5325   2.640   4.148   0.262  0.8398 -0.6813  0.9215
 1543SOL     OW 5326   2.827   4.245   4.217  0.2698 -0.3519  0.2136
 1543SOL    HW1 5327   2.814   4.312   4.284  1.3345  0.8580 -0.7526
 1543SOL    HW2 5328   2.877   4.176   4.262  0.5223  0.2086  0.8153
 1544SOL     OW 5329   5.332   0.141   0.205  0.1553 -0.5891 -0.0359
 1544SOL    HW1 5330   5.262   0.200   0.179 -0.5072 -0.9952  0.7985
 1544SOL    HW2 5331   5.294   0.054   0.197  0.3489 -0.7808  1.0437
 1545SOL     OW 5332   1.859   3.882   0.433  0.7983 -0.4560 -0.3913
 1545SOL    HW1 5333   1.933   3.861   0.377 -0.5670 -1.8379 -1.8109
 1545SOL    HW2 5334   1.806   3.943   0.382  0.9708  0.5635  0.6202
 1546SOL     OW 5335   2.468   4.736   4.856  0.1284 -0.2277  0.2035
 1546SOL    HW1 5336   2.497   4.647   4.876 -0.5728 -0.2088  1.3976
 1546SOL    HW2 5337   2.526   4.765   4.786 -0.0958 -1.8859 -0.7097
 1547SOL     OW 5338   5.364   1.882   4.868  0.3256  0.8623 -0.0080
 1547SOL    HW1 5339   5.411   1.815   4.819 -0.2336  0.3217  0.1724
 1547SOL    HW2 5340   5.334   1.837   4.947 -1.0438  0.9971 -0.4162
 1548SOL     OW 5341   3.784   4.589   3.915  0.8235  0.2975  0.4397
 1548SOL    HW1 5342   3.704   4.615   3.869  0.5733 -1.3753 -0.1593
 1548SOL    HW2 5343   3.809   4.666   3.966  0.5265  1.8652 -1.6754
 1549SOL     OW 5344   0.209   2.770   4.615 -0.4628  0.2521 -0.4844
 1549SOL    HW1 5345   0.204   2.805   4.704  0.7018 -0.4662 -0.1101
 1549SOL    HW2 5346   0.296   2.797   4.584  0.8338 -2.8451  0.1071
 1550SOL     OW 5347   4.807   4.343   4.326  0.2647  0.3315  0.2990
 1550SOL    HW1 5348   4.740   4.321   4.263  0.2547 -0.5237  0.5886
 1550SOL    HW2 5349   4.765   4.405   4.386  0.3077  1.2195 -0.5743
 1551SOL     OW 5350   5.361   3.119   0.638 -0.0057  0.3909  0.2818
 1551SOL    HW1 5351   5.428   3.114   0.706  0.5283 -0.8256 -0.2910
 1551SOL    HW2 5352   5.409   3.104   0.556 -1.0966 -1.6624 -0.0476
 1552SOL     OW 5353   3.804   2.636   3.435 -0.0037  0.1890 -0.0583
 1552SOL    HW1 5354   3.772   2.624   3.345  0.7081  0.8037 -0.4024
 1552SOL    HW2 5355   3.726   2.652   3.487 -0.7139 -2.4727 -0.1327
 1553SOL     OW 5356   1.513   2.213   0.339 -0.2281 -0.6670  0.1802
 1553SOL    HW1 5357   1.563   2.247   0.264  0.1552  1.2931  1.2506
 1553SOL    HW2 5358   1.570   2.227   0.414 -1.3692 -0.7690  1.0949
 1554SOL     OW 5359   1.188   4.579   1.769  0.0881 -0.2292 -0.2085
 1554SOL    HW1 5360   1.187   4.674   1.762  0.4095 -0.2841 -1.0917
 1554SOL    HW2 5361   1.103   4.551   1.735  0.6402 -0.3446 -1.5448
 1555SOL     OW 5362   4.888   2.189   3.264 -0.0909  0.4288  0.3512
 1555SOL    HW1 5363   4.828   2.194   3.189 -0.7896 -0.2545  0.8501
 1555SOL    HW2 5364   4.888   2.097   3.289  0.7203  0.5219  0.7360
 1556SOL     OW 5365   5.273   3.609   1.572 -0.7344 -0.7704  0.5233
 1556SOL    HW1 5366   5.304   3.641   1.657  2.1120  0.1664 -0.7370
 1556SOL    HW2 5367   5.224   3.682   1.535 -0.2117 -0.3960  0.5478
 1557SOL     OW 5368   2.148   3.733   3.729  0.2833  0.1938  0.0519
 1557SOL    HW1 5369   2.224   3.758   3.675  0.7457 -0.0989  0.5569
 1557SOL    HW2 5370   2.086   3.805   3.717  0.1428 -0.1148 -1.3124
 1558SOL     OW 5371   4.378   1.639   2.200 -0.2581  0.4256 -0.0406
 1558SOL    HW1 5372   4.325   1.678   2.269 -0.6202 -0.0453 -0.0468
 1558SOL    HW2 5373   4.332   1.662   2.119 -0.1513  0.4841 -0.0843
 1559SOL     OW 5374   5.292   2.611   1.157  0.3317 -0.2411  0.7413
 1559SOL    HW1 5375   5.388   2.612   1.149  0.2612 -1.7386 -1.0600
 1559SOL    HW2 5376   5.276   2.603   1.251  1.9725  0.0401  1.0730
 1560SOL     OW 5377   1.323   2.771   3.080  0.4661  0.7738  0.6344
 1560SOL    HW1 5378   1.404   2.752   3.126 -0.9230  0.2968  3.0544
 1560SOL    HW2 5379   1.349   2.783   2.989  2.9927 -1.2918  0.9644
 1561SOL     OW 5380   0.943   3.024   2.423  0.3429 -0.2065 -0.2089
 1561SOL    HW1 5381   0.872   3.089   2.423 -0.1783 -0.7636 -0.3664
 1561SOL    HW2 5382   0.977   3.027   2.333  1.1776  0.7479  0.1177
 1562SOL     OW 5383   4.869   1.900   1.117  0.1349 -0.0650  0.6887
 1562SOL    HW1 5384   4.837   1.857   1.037  1.0831 -1.6372  1.1175
 1562SOL    HW2 5385   4.918   1.976   1.085  0.1672 -0.4540 -0.2115
 1563SOL     OW 5386   0.861   3.719   4.875  0.5718  0.1381 -0.0034
 1563SOL    HW1 5387   0.796   3.667   4.922 -0.1196  0.4904 -0.5459
 1563SOL    HW2 5388   0.889   3.785   4.938  0.7632 -0.3176  0.3896
 1564SOL     OW 5389   2.849   2.409   3.504 -0.1477 -0.3337  0.2226
 1564SOL    HW1 5390   2.810   2.368   3.581 -0.8436 -0.3407 -0.1168
 1564SOL    HW2 5391   2.807   2.495   3.499 -0.9010 -0.7305 -0.7256
 1565SOL     OW 5392   4.274   3.670   5.367 -0.2018 -0.1257  0.6223
 1565SOL    HW1 5393   4.330   3.602   5.328 -1.0835  0.1356 -1.1647
 1565SOL    HW2 5394   4.335   3.737   5.396  0.4851 -0.0834 -0.8264
 1566SOL     OW 5395   2.351   3.385   1.726 -0.2809  0.4129  0.1161
 1566SOL    HW1 5396   2.369   3.391   1.633 -2.5616  1.4992 -0.3176
 1566SOL    HW2 5397   2.380   3.469   1.762 -0.4001  0.4246  0.1873
 1567SOL     OW 5398   3.727   2.031   4.157 -0.4885 -0.1251  0.1902
 1567SOL    HW1 5399   3.736   1.944   4.196 -1.0503  0.9386  2.9619
 1567SOL    HW2 5400   3.817   2.063   4.149 -0.2750 -0.9782 -0.9622
 1568SOL     OW 5401   1.364   1.317   0.425 -0.2119 -0.3880  0.2624
 1568SOL    HW1 5402   1.339   1.236   0.380  1.0786  0.3775 -1.9827
 1568SOL    HW2 5403   1.332   1.387   0.369  0.4092  0.6380  1.1514
 1569SOL     OW 5404   3.415   5.215   3.231 -0.5561 -0.6663  0.5657
 1569SOL    HW1 5405   3.507   5.190   3.241 -0.3940 -0.4610 -0.2694
 1569SOL    HW2 5406   3.373   5.136   3.198 -0.4398 -0.4369 -0.1580
 1570SOL     OW 5407   0.405   0.268   0.396 -0.8529 -0.2335  0.0881
 1570SOL    HW1 5408   0.456   0.280   0.316 -1.7288 -0.1211 -0.4784
 1570SOL    HW2 5409   0.314   0.266   0.365 -1.2566  0.5512  1.1584
 1571SOL     OW 5410   3.177   2.055   2.697 -0.3801 -0.0071 -0.0421
 1571SOL    HW1 5411   3.242   1.985   2.692 -1.1703 -0.9239  1.7065
 1571SOL    HW2 5412   3.096   2.015   2.665 -0.3319  0.8757 -1.3772
 1572SOL     OW 5413   3.916   1.754   2.867  0.1239  0.1086 -0.2561
 1572SOL    HW1 5414   3.993   1.714   2.907 -0.8673 -3.1547 -1.3271
 1572SOL    HW2 5415   3.851   1.757   2.937  0.5854  1.0245  0.1418
 1573SOL     OW 5416   4.432   2.781   2.152 -0.0664  0.0126  0.8622
 1573SOL    HW1 5417   4.508   2.754   2.100  1.1649 -0.2147  2.6836
 1573SOL    HW2 5418   4.412   2.705   2.207 -0.3952  0.7250  1.7509
 1574SOL     OW 5419   1.297   3.425   3.073 -0.2395  0.0538 -0.2006
 1574SOL    HW1 5420   1.296   3.520   3.073 -0.5711  0.1054  1.9690
 1574SOL    HW2 5421   1.212   3.400   3.036 -2.2948  0.7974  3.4875
 1575SOL     OW 5422   3.096   0.803   2.913 -0.0311  0.1987 -0.3335
 1575SOL    HW1 5423   3.063   0.822   3.001  1.7916 -1.1814  0.7067
 1575SOL    HW2 5424   3.066   0.878   2.861 -1.9896  0.5874  1.1949
 1576SOL     OW 5425   3.056   2.174   4.724  0.2794  0.5126 -0.3120
 1576SOL    HW1 5426   3.115   2.248   4.738  0.7740 -0.1145  1.0323
 1576SOL    HW2 5427   3.012   2.161   4.808  0.1753 -0.6960 -0.5373
 1577SOL     OW 5428   3.840   0.943   4.178  0.5085  0.7167  0.0928
 1577SOL    HW1 5429   3.836   0.918   4.086  2.0760  0.9958 -0.0783
 1577SOL    HW2 5430   3.827   0.861   4.226  0.9681  0.3531 -0.3951
 1578SOL     OW 5431   2.850   3.011   1.679 -0.6463  0.3224  0.0861
 1578SOL    HW1 5432   2.763   3.039   1.708 -0.1488  1.8450  0.2317
 1578SOL    HW2 5433   2.872   3.071   1.607 -0.0485 -0.5723 -0.5042
 1579SOL     OW 5434   2.173   2.994   4.439  0.3680  0.6209  0.4678
 1579SOL    HW1 5435   2.180   2.916   4.384 -0.3831  1.1856 -0.4659
 1579SOL    HW2 5436   2.166   2.960   4.528 -0.9754 -0.4383 -0.0103
 1580SOL     OW 5437   1.537   4.621   0.508 -0.5388  0.3520 -0.0781
 1580SOL    HW1 5438   1.470   4.577   0.456  0.7074  0.4013 -1.7994
 1580SOL    HW2 5439   1.609   4.559   0.511 -0.0736  0.9068  0.4505
 1581SOL     OW 5440   0.575   2.672   0.501  0.1391  0.1756 -0.6308
 1581SOL    HW1 5441   0.585   2.633   0.414  0.3770 -1.4168  0.0820
 1581SOL    HW2 5442   0.664   2.675   0.537 -0.2229 -1.9082  0.6486
 1582SOL     OW 5443   4.441   4.387   1.691 -0.5084  0.3034  0.8174
 1582SOL    HW1 5444   4.383   4.310   1.689  0.7904 -0.7117  0.8059
 1582SOL    HW2 5445   4.388   4.456   1.732 -1.6277 -0.6658  1.0548
 1583SOL     OW 5446   3.450   4.888   1.685 -0.1856 -0.2814  0.0760
 1583SOL    HW1 5447   3.369   4.892   1.736  0.6754 -0.5982  1.5162
 1583SOL    HW2 5448   3.455   4.797   1.655  0.0223 -0.4721  0.6698
 1584SOL     OW 5449   2.465   4.321   4.493  0.5680 -0.1481 -0.4312
 1584SOL    HW1 5450   2.527   4.379   4.538  0.6655 -0.1691 -0.5394
 1584SOL    HW2 5451   2.454   4.360   4.406 -1.4983  1.2898  0.3923
 1585SOL     OW 5452   5.222   4.897   5.180 -0.0725 -0.3025  0.1339
 1585SOL    HW1 5453   5.245   4.865   5.093  1.3747 -0.3191  0.4899
 1585SOL    HW2 5454   5.232   4.992   5.175 -2.4850 -0.0253 -0.3899
 1586SOL     OW 5455   2.593   2.988   1.140  0.0346  0.1225 -0.6812
 1586SOL    HW1 5456   2.683   2.999   1.171 -0.0251 -1.7291  0.3127
 1586SOL    HW2 5457   2.601   2.991   1.044  1.0368  0.7416 -0.5908
 1587SOL     OW 5458   3.251   3.108   0.508  0.0686 -0.1807 -0.3064
 1587SOL    HW1 5459   3.260   3.141   0.419  2.1996  3.0251  0.9297
 1587SOL    HW2 5460   3.166   3.142   0.538 -0.8524 -1.6180 -1.1438
 1588SOL     OW 5461   1.043   0.432   0.871  0.1910  0.0014 -0.0731
 1588SOL    HW1 5462   1.017   0.366   0.806  1.1229 -1.1243  0.6520
 1588SOL    HW2 5463   1.048   0.513   0.821 -3.3944  0.0999 -0.5118
 1589SOL     OW 5464   3.331   4.739   3.364  0.3829  0.2547  0.2549
 1589SOL    HW1 5465   3.421   4.704   3.363  0.2586 -0.0611 -0.8465
 1589SOL    HW2 5466   3.289   4.692   3.436  0.3545 -1.6028 -0.8991
 1590SOL     OW 5467   0.216   3.982   4.649 -0.1755  0.7374  0.1302
 1590SOL    HW1 5468   0.266   3.965   4.728 -0.4302  1.4409  0.4452
 1590SOL    HW2 5469   0.218   4.077   4.638 -0.0235  0.6402 -0.7877
 1591SOL     OW 5470   3.322   1.171   2.961  0.0353  0.1459 -0.1426
 1591SOL    HW1 5471   3.248   1.128   3.004 -0.6893  0.5441 -0.9578
 1591SOL    HW2 5472   3.318   1.261   2.991  0.8494 -0.0800  0.6552
 1592SOL     OW 5473   0.958   3.250   4.947  0.1637 -0.0631  0.3295
 1592SOL    HW1 5474   1.014   3.268   5.022 -1.1265 -0.0433  1.3320
 1592SOL    HW2 5475   0.980   3.319   4.883  1.1480  0.0228  0.7448
 1593SOL     OW 5476   1.761   2.145   0.133  0.0126 -0.0864 -0.3474
 1593SOL    HW1 5477   1.743   2.091   0.056  0.5312  0.1621 -0.6447
 1593SOL    HW2 5478   1.708   2.224   0.121  0.0901 -0.0498 -0.4465
 1594SOL     OW 5479   1.269   1.752   4.384  0.2128 -0.0515  0.2650
 1594SOL    HW1 5480   1.186   1.705   4.374  0.6187 -0.7727  0.1628
 1594SOL    HW2 5481   1.271   1.813   4.310 -0.2110 -0.0584  0.2461
 1595SOL     OW 5482   3.990   0.767   3.601 -0.2830 -0.1318 -0.6557
 1595SOL    HW1 5483   3.926   0.838   3.601 -0.5315 -0.3535  0.0246
 1595SOL    HW2 5484   3.956   0.703   3.663  1.1986  0.3116  0.6760
 1596SOL     OW 5485   2.478   3.564   2.897  0.1078 -0.5612  0.0912
 1596SOL    HW1 5486   2.415   3.588   2.965  1.5378  0.1135  1.2238
 1596SOL    HW2 5487   2.546   3.516   2.944  2.0896  1.5324 -0.4917
 1597SOL     OW 5488   3.110   4.798   2.131  0.5823 -0.0736 -0.5017
 1597SOL    HW1 5489   3.021   4.802   2.167  0.8844  0.6135  0.1904
 1597SOL    HW2 5490   3.107   4.724   2.070 -0.8180  0.7366 -1.4802
 1598SOL     OW 5491   0.587   3.709   1.778  0.3961  0.7523 -0.2818
 1598SOL    HW1 5492   0.593   3.803   1.794  2.9733  0.1921  3.4481
 1598SOL    HW2 5493   0.669   3.686   1.735 -0.1437  0.1827 -1.0218
 1599SOL     OW 5494   2.460   3.883   4.668 -0.1940  0.5103 -0.0319
 1599SOL    HW1 5495   2.420   3.805   4.631 -0.0681 -0.6139  2.0393
 1599SOL    HW2 5496   2.389   3.925   4.717  0.5371 -0.3722  1.9180
 1600SOL     OW 5497   0.054   3.986   4.381  0.0011 -0.1285 -0.1330
 1600SOL    HW1 5498  -0.004   3.946   4.316 -0.0738  0.0006 -0.1442
 1600SOL    HW2 5499   0.096   3.911   4.424 -0.7557 -0.2473  0.4170
 1601SOL     OW 5500   3.374   4.543   4.538 -0.1009 -0.7533  0.3729
 1601SOL    HW1 5501   3.430   4.594   4.480  0.6112 -0.9514  0.8601
 1601SOL    HW2 5502   3.365   4.597   4.617 -0.6351 -0.7061  0.2838
 1602SOL     OW 5503   0.619   1.567   1.073 -0.2066  0.0230 -0.1423
 1602SOL    HW1 5504   0.527   1.595   1.082 -1.2218 -3.0623  0.0551
 1602SOL    HW2 5505   0.626   1.541   0.981  0.6973  0.7905 -0.3040
 1603SOL     OW 5506   1.557   2.585   4.325  0.3448 -0.3376 -0.1636
 1603SOL    HW1 5507   1.543   2.664   4.273 -0.4421 -0.4725 -0.1650
 1603SOL    HW2 5508   1.469   2.552   4.343  0.6738 -2.3772 -1.9107
 1604SOL     OW 5509   1.649   0.284   0.472 -0.0583 -0.0582 -0.6163
 1604SOL    HW1 5510   1.616   0.264   0.559 -0.0631 -0.0016 -0.6047
 1604SOL    HW2 5511   1.598   0.229   0.413 -0.3622  0.2246 -0.6222
 1605SOL     OW 5512   3.953   3.419   1.175  0.1727  0.0812  0.1910
 1605SOL    HW1 5513   3.921   3.330   1.160 -2.2709  0.6468  1.4697
 1605SOL    HW2 5514   3.979   3.420   1.268  1.4601  0.3875 -0.1472
 1606SOL     OW 5515   2.128   2.923   4.690  0.1139  0.3252 -0.0478
 1606SOL    HW1 5516   2.197   2.937   4.755 -1.3899  0.9579  1.5025
 1606SOL    HW2 5517   2.088   2.840   4.716  0.9441 -0.6196 -1.6131
 1607SOL     OW 5518   5.005   1.848   1.874 -0.2431  0.1789  0.1980
 1607SOL    HW1 5519   5.097   1.838   1.897 -0.0137  1.2198 -0.2126
 1607SOL    HW2 5520   5.002   1.837   1.779 -0.6645 -0.6185  0.2959
 1608SOL     OW 5521   4.433   3.594   4.142  0.1646  0.0589  0.0250
 1608SOL    HW1 5522   4.347   3.632   4.120  0.4650  0.2687 -0.8148
 1608SOL    HW2 5523   4.449   3.622   4.232 -0.6260  0.0658  0.1717
 1609SOL     OW 5524   0.102   3.510   5.306  0.3355  0.1342 -0.1216
 1609SOL    HW1 5525   0.104   3.521   5.401  0.3927  0.2580 -0.1364
 1609SOL    HW2 5526   0.187   3.471   5.285 -0.1151 -0.9446  0.0002
 1610SOL     OW 5527   5.089   3.686   3.844  0.3749 -0.1415 -0.2002
 1610SOL    HW1 5528   5.027   3.642   3.902 -0.3058 -0.7580 -1.3725
 1610SOL    HW2 5529   5.074   3.647   3.758 -0.3447  2.4318 -1.3473
 1611SOL     OW 5530   2.189   0.053   2.377 -0.0460  0.0834 -0.0834
 1611SOL    HW1 5531   2.166   0.146   2.379 -0.2582  0.0553 -0.9035
 1611SOL    HW2 5532   2.212   0.036   2.286  2.0119 -0.1890  0.4388
 1612SOL     OW 5533   1.722   3.451   4.308 -0.1978 -0.4505  0.0252
 1612SOL    HW1 5534   1.793   3.423   4.250 -0.0134  0.7192 -0.3553
 1612SOL    HW2 5535   1.762   3.519   4.362 -1.3783  1.3618 -1.2632
 1613SOL     OW 5536   3.621   0.023   3.146  0.2221  0.1313  0.7516
 1613SOL    HW1 5537   3.627   0.003   3.052  0.5644  1.0903  0.5571
 1613SOL    HW2 5538   3.547  -0.029   3.177 -1.8969  2.0831 -0.7028
 1614SOL     OW 5539   3.667   3.909   4.961 -0.4088  0.0217 -0.2714
 1614SOL    HW1 5540   3.721   3.881   4.887 -0.3466  0.3958 -0.3720
 1614SOL    HW2 5541   3.579   3.915   4.925 -0.3264  0.5155 -0.4037
 1615SOL     OW 5542   3.676   0.258   3.669 -0.1365 -0.0180  0.2530
 1615SOL    HW1 5543   3.676   0.201   3.592 -0.0222  1.9807 -1.2875
 1615SOL    HW2 5544   3.726   0.209   3.735  1.2191 -1.0735 -1.4894
 1616SOL     OW 5545   0.260   1.761   4.635  0.3051  0.2238  0.3845
 1616SOL    HW1 5546   0.283   1.786   4.545 -2.0626  2.4399  0.2673
 1616SOL    HW2 5547   0.296   1.832   4.689  1.7639 -1.1247  1.2555
 1617SOL     OW 5548   2.581   3.440   4.644  0.1658 -0.7500 -0.2712
 1617SOL    HW1 5549   2.648   3.371   4.643 -2.5319 -3.5764 -0.4107
 1617SOL    HW2 5550   2.546   3.440   4.555 -0.3310  0.4124 -0.0891
 1618SOL     OW 5551   4.371   2.619   4.512 -0.1279 -0.1247 -0.2933
 1618SOL    HW1 5552   4.444   2.597   4.571  1.2126  2.0665 -1.0412
 1618SOL    HW2 5553   4.360   2.540   4.460  2.2059 -0.3345 -0.6071
 1619SOL     OW 5554   3.592   2.667   2.495 -0.1113  0.0952 -0.1507
 1619SOL    HW1 5555   3.579   2.719   2.575  0.6875  0.5934 -0.3439
 1619SOL    HW2 5556   3.542   2.713   2.428  1.3166  1.1467 -0.5320
 1620SOL     OW 5557   5.314   0.059   0.625  0.7362 -0.0120 -0.6344
 1620SOL    HW1 5558   5.298   0.054   0.531  0.3700 -1.6357 -0.5095
 1620SOL    HW2 5559   5.228   0.081   0.662  1.0000  1.2116 -0.6934
 1621SOL     OW 5560   0.001   0.725   2.198  0.1295 -0.2294 -0.4054
 1621SOL    HW1 5561   0.026   0.637   2.170 -0.3303 -0.4194 -0.2270
 1621SOL    HW2 5562  -0.081   0.712   2.246 -0.4553  0.4102 -1.2044
 1622SOL     OW 5563   3.075   2.491   3.171  0.1593  0.2568 -0.6637
 1622SOL    HW1 5564   3.165   2.521   3.183 -0.0077  0.6588 -0.4140
 1622SOL    HW2 5565   3.059   2.500   3.077  0.3021  0.3915 -0.6747
 1623SOL     OW 5566   0.981   4.913   0.334  0.5502 -0.1872 -0.0978
 1623SOL    HW1 5567   1.068   4.937   0.366  0.6182  0.7980 -0.9696
 1623SOL    HW2 5568   0.975   4.954   0.248 -0.3770 -1.1380 -0.5093
 1624SOL     OW 5569   4.611   3.530   3.462 -0.2150 -0.1641  0.5144
 1624SOL    HW1 5570   4.621   3.437   3.484  0.0782  0.0699  1.4141
 1624SOL    HW2 5571   4.597   3.573   3.546  3.1648  1.0882  0.5832
 1625SOL     OW 5572   0.794   4.695   4.577 -1.1016  0.6303  0.2738
 1625SOL    HW1 5573   0.826   4.765   4.634 -0.1264  0.2629  0.2037
 1625SOL    HW2 5574   0.730   4.738   4.520 -1.7449  1.1029  1.3222
 1626SOL     OW 5575   2.093   3.345   0.942  0.0460 -0.0080  0.0813
 1626SOL    HW1 5576   2.055   3.353   0.855  0.6146 -2.8760 -0.5487
 1626SOL    HW2 5577   2.059   3.261   0.975  1.5915 -0.0638  1.6791
 1627SOL     OW 5578   1.691   3.969   1.356  0.6989  0.7322 -0.2223
 1627SOL    HW1 5579   1.672   3.891   1.304 -0.4770  0.3001  0.7963
 1627SOL    HW2 5580   1.762   3.941   1.415 -0.4375  0.0610  0.8704
 1628SOL     OW 5581   3.466   5.333   2.866  0.5458 -0.4246 -0.1223
 1628SOL    HW1 5582   3.561   5.345   2.864  0.8903 -2.5062  0.9884
 1628SOL    HW2 5583   3.453   5.241   2.888 -1.7376 -0.0033  0.6514
 1629SOL     OW 5584   0.916   2.903   4.184 -0.7569  0.2277  0.2688
 1629SOL    HW1 5585   0.898   2.996   4.196 -1.8375  0.1979 -0.8562
 1629SOL    HW2 5586   0.858   2.858   4.247  1.4112  0.3277  2.4607
 1630SOL     OW 5587   3.913   3.695   2.856 -0.5325 -0.1076  0.4098
 1630SOL    HW1 5588   3.974   3.769   2.849 -0.8291  0.0106 -1.8264
 1630SOL    HW2 5589   3.966   3.618   2.837  0.4005 -1.0100  5.2813
 1631SOL     OW 5590   4.705   2.413   0.414 -0.0083  0.8446 -0.0605
 1631SOL    HW1 5591   4.788   2.366   0.427 -0.4539  0.1288  0.3276
 1631SOL    HW2 5592   4.661   2.406   0.499 -0.0300  2.1077  0.0407
 1632SOL     OW 5593   4.623   2.101   4.822  0.4821 -0.3219 -0.7259
 1632SOL    HW1 5594   4.658   2.036   4.882  0.6107 -0.1982 -0.6641
 1632SOL    HW2 5595   4.689   2.107   4.752  1.3678  1.0204  0.1593
 1633SOL     OW 5596   4.267   0.374   0.854 -0.7001  0.3481 -0.1634
 1633SOL    HW1 5597   4.247   0.424   0.933 -0.3705 -1.1251  0.8920
 1633SOL    HW2 5598   4.310   0.295   0.886  0.5493  0.2643 -1.9029
 1634SOL     OW 5599   1.889   0.440   2.900  0.7158 -0.5384  0.0274
 1634SOL    HW1 5600   1.941   0.381   2.845  1.7416 -1.0030  1.4190
 1634SOL    HW2 5601   1.808   0.392   2.916  0.1996 -0.2011 -1.4185
 1635SOL     OW 5602   3.282   4.321   0.046 -0.4318 -0.0515 -0.7953
 1635SOL    HW1 5603   3.372   4.345   0.023 -0.2499  0.6538  0.5525
 1635SOL    HW2 5604   3.245   4.287  -0.035  1.1758 -0.7487 -1.2789
 1636SOL     OW 5605   0.576   1.311   4.667  0.1780  0.2305  0.0724
 1636SOL    HW1 5606   0.520   1.388   4.675 -0.5332 -0.3487  0.8471
 1636SOL    HW2 5607   0.580   1.274   4.755 -0.3184 -1.1671 -0.4545
 1637SOL     OW 5608   2.686   2.317   3.262  0.5096  0.3148 -0.0586
 1637SOL    HW1 5609   2.703   2.358   3.178  1.4867 -1.7907 -0.9607
 1637SOL    HW2 5610   2.713   2.382   3.327 -1.1387  2.3597 -1.2725
 1638SOL     OW 5611   4.940   4.587   4.313 -0.1872  0.0664  0.0662
 1638SOL    HW1 5612   5.017   4.540   4.345 -0.4890 -1.3076 -1.1656
 1638SOL    HW2 5613   4.881   4.589   4.389  0.3713 -0.3760  0.5238
 1639SOL     OW 5614   3.417   5.234   0.600  0.0954 -0.0922  0.3212
 1639SOL    HW1 5615   3.478   5.162   0.619  0.2897  0.2763  1.1667
 1639SOL    HW2 5616   3.457   5.310   0.641  1.2917  1.1607 -2.8794
 1640SOL     OW 5617   1.000   1.328   2.762  0.4427 -0.0359 -0.0235
 1640SOL    HW1 5618   1.022   1.417   2.792  0.3355  0.4265 -1.2851
 1640SOL    HW2 5619   0.945   1.341   2.685 -0.2248 -1.2055  0.2291
 1641SOL     OW 5620   1.824   3.111   0.828  0.2594 -0.6881 -0.2201
 1641SOL    HW1 5621   1.870   3.150   0.902  0.6289  0.7288 -1.1467
 1641SOL    HW2 5622   1.778   3.036   0.865  3.0360 -2.0242  0.8251
 1642SOL     OW 5623   2.085   1.989   0.017 -0.3777  0.5713 -0.5054
 1642SOL    HW1 5624   2.171   1.999  -0.023  0.9988 -0.4317  1.9574
 1642SOL    HW2 5625   2.085   2.051   0.090 -1.5288  0.1460 -0.1222
 1643SOL     OW 5626   1.572   3.955   2.497  0.0386  0.6718  0.5794
 1643SOL    HW1 5627   1.665   3.974   2.510  0.0403  0.3241  1.1228
 1643SOL    HW2 5628   1.530   3.984   2.578 -0.1106 -0.5726  0.9684
 1644SOL     OW 5629   2.241   1.656   0.668 -0.3308 -0.0258 -0.4891
 1644SOL    HW1 5630   2.320   1.688   0.625  0.3655  0.7478  1.3010
 1644SOL    HW2 5631   2.170   1.678   0.607  0.6232  0.9760 -1.2625
 1645SOL     OW 5632   1.998   0.631   2.326 -0.2189 -0.8331 -0.4244
 1645SOL    HW1 5633   2.042   0.584   2.255  1.1033 -0.1270 -0.1035
 1645SOL    HW2 5634   2.017   0.723   2.310 -2.6236 -0.3563 -0.9350
 1646SOL     OW 5635   0.631   3.522   0.557 -0.1651 -0.1173  0.2931
 1646SOL    HW1 5636   0.597   3.494   0.642 -1.2535 -0.2834 -0.1830
 1646SOL    HW2 5637   0.567   3.489   0.493 -0.1077  1.2088 -0.4898
 1647SOL     OW 5638   3.913   0.912   0.829  0.1524  0.3118 -0.1090
 1647SOL    HW1 5639   3.940   0.996   0.867  1.7929  0.0332 -0.5719
 1647SOL    HW2 5640   3.971   0.900   0.754 -0.6543 -0.8273 -0.5737
 1648SOL     OW 5641   1.144   4.177   2.362  0.3617  0.7892 -0.2218
 1648SOL    HW1 5642   1.113   4.090   2.337  0.2966  0.9294 -0.6251
 1648SOL    HW2 5643   1.182   4.214   2.282  0.9426  0.8954  0.0918
 1649SOL     OW 5644   1.330   1.487   1.567 -0.3933 -0.2419 -0.1587
 1649SOL    HW1 5645   1.377   1.465   1.486  0.6727  1.5901 -0.0986
 1649SOL    HW2 5646   1.242   1.455   1.553 -0.7064  1.4546 -2.7879
 1650SOL     OW 5647   3.516   0.233   0.889  0.1776  0.1552  0.1056
 1650SOL    HW1 5648   3.605   0.226   0.923  0.1806  2.6299  0.8022
 1650SOL    HW2 5649   3.471   0.155   0.922  1.9719 -0.9741 -0.0145
 1651SOL     OW 5650   1.739   4.009   4.463  0.2719 -0.1878  0.4337
 1651SOL    HW1 5651   1.644   4.023   4.471  0.4185  0.1702  1.6371
 1651SOL    HW2 5652   1.770   4.002   4.553  1.7441  2.0548  0.1618
 1652SOL     OW 5653   2.114   2.774   0.993 -0.0268  0.1829  0.0082
 1652SOL    HW1 5654   2.020   2.773   0.976  0.2458 -0.8434 -1.6192
 1652SOL    HW2 5655   2.150   2.832   0.926  0.5764  0.0473  0.2053
 1653SOL     OW 5656   1.865   3.137   1.628  0.0980  0.0670 -0.2172
 1653SOL    HW1 5657   1.920   3.081   1.683  1.4268  1.1064 -0.4243
 1653SOL    HW2 5658   1.922   3.211   1.605 -1.1122  0.7251 -1.2183
 1654SOL     OW 5659   3.096   4.621   3.267 -0.2722 -0.3515  0.0965
 1654SOL    HW1 5660   3.156   4.647   3.337  0.0291 -0.8429  0.0244
 1654SOL    HW2 5661   3.145   4.558   3.215 -0.2713  0.4820 -0.9338
 1655SOL     OW 5662   3.686   0.580   4.544 -0.3512 -0.5172 -0.4180
 1655SOL    HW1 5663   3.728   0.666   4.549 -0.7632 -0.2563 -1.3488
 1655SOL    HW2 5664   3.687   0.549   4.635  0.1869  0.2756 -0.1324
 1656SOL     OW 5665   3.035   2.831   0.266 -1.0075 -0.0549  0.3791
 1656SOL    HW1 5666   3.043   2.830   0.170 -0.6482  1.2889  0.3668
 1656SOL    HW2 5667   3.089   2.758   0.295 -0.7553 -0.2035 -0.4278
 1657SOL     OW 5668   3.541   4.989   0.697 -0.1016  0.0326  0.1317
 1657SOL    HW1 5669   3.463   5.021   0.743  1.6297  1.3083  2.4079
 1657SOL    HW2 5670   3.567   4.910   0.745  0.4776  0.1007 -0.0609
 1658SOL     OW 5671   4.217   3.122   1.054  0.8580  0.0318  0.3500
 1658SOL    HW1 5672   4.201   3.132   0.960 -0.3539  0.6280  0.5965
 1658SOL    HW2 5673   4.260   3.037   1.062  4.3625  1.4869 -1.0708
 1659SOL     OW 5674   2.890   3.906   4.122 -0.3042 -0.2779  0.0366
 1659SOL    HW1 5675   2.904   3.843   4.052 -0.8710  0.2993 -0.6186
 1659SOL    HW2 5676   2.970   3.958   4.124  0.0595 -0.8375  0.4063
 1660SOL     OW 5677   3.803   4.798   4.935 -0.5663  0.6227  0.0015
 1660SOL    HW1 5678   3.715   4.811   4.900 -1.3843 -0.8415  1.3673
 1660SOL    HW2 5679   3.843   4.732   4.878 -0.7156  0.5744 -0.0464
 1661SOL     OW 5680   3.053   2.995   3.253  0.0865 -0.0982 -0.5923
 1661SOL    HW1 5681   3.078   2.944   3.330 -0.1066  3.0871  1.7947
 1661SOL    HW2 5682   2.964   3.025   3.272 -0.3531 -0.0127 -2.5472
 1662SOL     OW 5683   1.807   4.787   3.559 -0.0422 -0.5010 -0.1505
 1662SOL    HW1 5684   1.747   4.742   3.619 -1.8491  0.5707 -1.0616
 1662SOL    HW2 5685   1.827   4.870   3.603 -1.3574  0.2792 -0.9681
 1663SOL     OW 5686   4.174   3.230   2.484 -0.6642 -0.0705  0.5348
 1663SOL    HW1 5687   4.245   3.268   2.431 -0.2365 -1.0770  0.3581
 1663SOL    HW2 5688   4.097   3.283   2.463 -0.1086  0.6431  0.2423
 1664SOL     OW 5689   4.381   4.319   2.933  0.2005  0.2995  0.0949
 1664SOL    HW1 5690   4.415   4.235   2.962  0.8652  0.0735 -1.2684
 1664SOL    HW2 5691   4.391   4.318   2.838 -2.0958  0.9065 -0.2199
 1665SOL     OW 5692   3.282   3.531   2.481  0.4862  0.1035  1.0682
 1665SOL    HW1 5693   3.195   3.555   2.448  1.5533  0.7228 -1.6051
 1665SOL    HW2 5694   3.289   3.575   2.565 -0.7626  2.4370  0.0528
 1666SOL     OW 5695   1.258   4.147   3.875 -0.5967 -0.2623  0.1924
 1666SOL    HW1 5696   1.211   4.198   3.810 -0.5462 -2.7447 -1.9476
 1666SOL    HW2 5697   1.350   4.173   3.864 -0.6788 -0.1293 -0.1717
 1667SOL     OW 5698   1.467   2.638   0.603  0.1224  0.2048  0.6014
 1667SOL    HW1 5699   1.421   2.588   0.671 -0.5769 -0.0509 -0.0458
 1667SOL    HW2 5700   1.519   2.572   0.556  2.3524  0.6836  2.2214
 1668SOL     OW 5701   4.151   1.123   3.907 -1.2190 -0.1788 -0.2623
 1668SOL    HW1 5702   4.209   1.070   3.851  0.4213  0.7226  0.4960
 1668SOL    HW2 5703   4.108   1.184   3.846 -0.4026 -0.0335 -0.7100
 1669SOL     OW 5704   4.011   0.370   1.107 -0.3935  0.0200 -0.1651
 1669SOL    HW1 5705   3.953   0.358   1.183 -0.3146  2.7447  0.4228
 1669SOL    HW2 5706   4.099   0.364   1.143 -0.2875 -1.4210 -0.5882
 1670SOL     OW 5707   5.140   2.145   2.475  0.0790 -0.2103 -0.0580
 1670SOL    HW1 5708   5.122   2.190   2.557  1.9881 -0.4150  0.5222
 1670SOL    HW2 5709   5.060   2.156   2.424 -0.8564  0.6303  1.4910
 1671SOL     OW 5710   0.883   4.381   0.482 -0.0892 -0.3684  0.0858
 1671SOL    HW1 5711   0.961   4.436   0.478  0.4899 -1.2130 -2.0953
 1671SOL    HW2 5712   0.849   4.382   0.392 -1.4528 -1.6002  0.5513
 1672SOL     OW 5713   0.471   5.009   3.739 -0.2965  0.2538  0.0279
 1672SOL    HW1 5714   0.476   5.024   3.644  0.0022 -2.5606 -0.4924
 1672SOL    HW2 5715   0.562   4.998   3.766 -0.4575 -0.0719  0.4373
 1673SOL     OW 5716   0.672   5.347   4.113 -0.1680 -0.1279  0.1665
 1673SOL    HW1 5717   0.641   5.257   4.104  3.0003 -1.3575  0.4012
 1673SOL    HW2 5718   0.694   5.374   4.024 -0.8926  0.3857  0.1281
 1674SOL     OW 5719   4.311   2.860   5.276 -0.2417  0.4144  0.0255
 1674SOL    HW1 5720   4.299   2.790   5.340  1.4171 -0.2980 -0.4097
 1674SOL    HW2 5721   4.404   2.859   5.256 -0.1245  2.9121  0.1640
 1675SOL     OW 5722   3.686   1.711   3.794 -0.5584  0.3131  0.1315
 1675SOL    HW1 5723   3.749   1.698   3.865 -0.8859  1.6046  0.6828
 1675SOL    HW2 5724   3.631   1.633   3.797  0.3131 -0.3122  0.3604
 1676SOL     OW 5725   3.871   2.231   1.794 -0.6872  0.1791 -0.2374
 1676SOL    HW1 5726   3.820   2.311   1.780  1.7608  1.4704 -2.8343
 1676SOL    HW2 5727   3.950   2.260   1.840 -0.8290 -1.1860  0.9216
 1677SOL     OW 5728   1.319   3.784   1.495  0.1206 -0.7527 -0.2001
 1677SOL    HW1 5729   1.237   3.791   1.544  1.0208  0.3858  1.2383
 1677SOL    HW2 5730   1.387   3.780   1.563  1.2411 -2.5039 -1.3348
 1678SOL     OW 5731   2.321   2.514   1.017 -0.0993 -0.4266 -0.3130
 1678SOL    HW1 5732   2.407   2.476   1.031  0.0502  0.4376  1.2664
 1678SOL    HW2 5733   2.327   2.556   0.931  0.4581 -1.9098 -1.0224
 1679SOL     OW 5734   2.336   4.653   4.476 -0.2955  0.2532  0.4460
 1679SOL    HW1 5735   2.421   4.624   4.510  0.0745 -0.1831 -0.8275
 1679SOL    HW2 5736   2.288   4.572   4.461 -0.7692  0.4846  0.6986
 1680SOL     OW 5737   0.012   2.368   2.926 -0.1972 -0.5529  0.0779
 1680SOL    HW1 5738  -0.012   2.350   2.835  1.7612  0.1816 -0.6187
 1680SOL    HW2 5739  -0.005   2.462   2.937  1.0371 -0.3067 -0.0275
 1681SOL     OW 5740   1.582   1.460   3.765 -0.4605 -0.1385  0.1533
 1681SOL    HW1 5741   1.664   1.507   3.782 -0.3957 -0.1149 -0.2164
 1681SOL    HW2 5742   1.608   1.368   3.761 -0.2932 -0.0523 -0.9122
 1682SOL     OW 5743   1.537   2.079   2.923 -0.1400 -0.4327 -0.1788
 1682SOL    HW1 5744   1.447   2.051   2.937 -0.4921  0.7270  0.0584
 1682SOL    HW2 5745   1.586   2.041   2.996 -0.4290 -1.0980 -0.3328
 1683SOL     OW 5746   2.495   5.382   4.003  0.5233 -0.5707  0.0795
 1683SOL    HW1 5747   2.538   5.305   4.041  1.0861  0.2270  1.1194
 1683SOL    HW2 5748   2.411   5.350   3.971  0.8672 -1.6699  0.2572
 1684SOL     OW 5749   4.321   1.979   4.148  0.3369  0.6278  0.5473
 1684SOL    HW1 5750   4.413   1.968   4.128  0.2341  0.8945 -0.0872
 1684SOL    HW2 5751   4.279   1.899   4.117 -0.2180  2.0651 -2.8835
 1685SOL     OW 5752   1.514   1.316   0.889 -0.0365  0.3816 -0.4093
 1685SOL    HW1 5753   1.452   1.272   0.947  0.7499 -0.3136 -0.0701
 1685SOL    HW2 5754   1.490   1.288   0.801  0.3777 -0.6302 -0.2055
 1686SOL     OW 5755   2.694   0.215   4.556 -0.0125  0.1772  0.1889
 1686SOL    HW1 5756   2.613   0.169   4.534 -0.0398 -0.1703  0.9761
 1686SOL    HW2 5757   2.745   0.151   4.605  1.0064  0.1926 -0.8151
 1687SOL     OW 5758   2.518   3.046   2.034  0.0744  0.0549 -0.0919
 1687SOL    HW1 5759   2.545   3.115   2.095 -2.4793  1.0431  0.0291
 1687SOL    HW2 5760   2.532   3.085   1.947  0.7100 -0.1305 -0.0753
 1688SOL     OW 5761   1.573   3.415   3.347  1.1406  0.3096  0.2604
 1688SOL    HW1 5762   1.519   3.372   3.281  1.3904 -0.8905  0.8070
 1688SOL    HW2 5763   1.523   3.409   3.428  1.4798  0.4504  0.4854
 1689SOL     OW 5764   1.093   4.533   2.419  0.1258  0.1917  0.0243
 1689SOL    HW1 5765   1.097   4.576   2.504 -0.0924 -0.9178  0.6155
 1689SOL    HW2 5766   1.174   4.559   2.375  0.9759 -0.4430  1.1737
 1690SOL     OW 5767   3.617   2.890   1.166 -0.0609  0.1476 -0.0493
 1690SOL    HW1 5768   3.537   2.841   1.186  1.1201 -1.8386  0.0364
 1690SOL    HW2 5769   3.588   2.958   1.105 -1.7675 -0.7057 -0.2549
 1691SOL     OW 5770   3.774   0.119   3.872  0.0140  0.3131  0.0482
 1691SOL    HW1 5771   3.843   0.184   3.888  1.2616 -0.6467 -1.2106
 1691SOL    HW2 5772   3.803   0.041   3.918 -0.5408  0.0808  0.0077
 1692SOL     OW 5773   2.898   3.110   5.221  0.0444  0.2339 -0.5485
 1692SOL    HW1 5774   2.873   3.141   5.133  0.3339 -0.6177 -0.9453
 1692SOL    HW2 5775   2.847   3.029   5.232 -0.9798  1.0078  0.6147
 1693SOL     OW 5776   1.357   0.248   2.183 -0.6279 -0.3234 -0.6767
 1693SOL    HW1 5777   1.392   0.181   2.124 -0.0417  0.6559 -1.4585
 1693SOL    HW2 5778   1.271   0.214   2.209 -0.5626 -1.1410 -1.4721
 1694SOL     OW 5779   3.938   3.020   0.606  0.4958  0.2547 -0.0613
 1694SOL    HW1 5780   3.894   3.056   0.529  0.8183 -1.1648 -0.9576
 1694SOL    HW2 5781   3.878   3.036   0.678  0.1178  1.4822 -0.6203
 1695SOL     OW 5782   4.082   4.978   0.967  0.1753 -0.3856 -0.3766
 1695SOL    HW1 5783   4.135   5.046   1.008 -0.2947  0.0606 -0.4885
 1695SOL    HW2 5784   4.035   5.023   0.897 -0.5176 -0.7109 -0.1405
 1696SOL     OW 5785   0.064   4.097   1.305  0.5299  0.3077 -0.4517
 1696SOL    HW1 5786   0.028   4.060   1.224 -0.6693  0.0963  0.1562
 1696SOL    HW2 5787   0.073   4.191   1.287  0.5451  0.2196 -0.9155
 1697SOL     OW 5788   0.314   1.316   3.052  0.1296  0.1691  0.3996
 1697SOL    HW1 5789   0.328   1.250   3.120 -1.2335 -0.4208  0.1401
 1697SOL    HW2 5790   0.298   1.266   2.973  1.1678  0.8508 -0.2701
 1698SOL     OW 5791   2.835   3.394   5.317 -0.1341  0.0950  0.1633
 1698SOL    HW1 5792   2.834   3.344   5.235  1.8321  0.2828 -0.0292
 1698SOL    HW2 5793   2.828   3.328   5.386  0.8953 -0.3322 -0.1219
 1699SOL     OW 5794   1.667   2.874   3.041  0.5613  0.4192  0.0795
 1699SOL    HW1 5795   1.673   2.933   3.116  2.1227 -0.7354  0.9116
 1699SOL    HW2 5796   1.628   2.928   2.972 -0.9341  1.5095  1.6926
 1700SOL     OW 5797   3.439   0.881   3.454 -0.2292  0.6727  0.3744
 1700SOL    HW1 5798   3.472   0.859   3.367  0.4278  0.8095  0.5880
 1700SOL    HW2 5799   3.516   0.878   3.511 -0.8052 -0.4017  1.1461
 1701SOL     OW 5800   2.003   4.163   0.445  0.3708 -0.1064 -0.5730
 1701SOL    HW1 5801   2.015   4.231   0.379 -0.6343 -0.0412 -0.6913
 1701SOL    HW2 5802   1.922   4.119   0.420  0.7542 -1.0393 -0.2215
 1702SOL     OW 5803   4.202   2.637   0.011 -0.3822  0.2266  0.3270
 1702SOL    HW1 5804   4.106   2.632   0.017 -0.4306  0.1819 -0.4158
 1702SOL    HW2 5805   4.225   2.575  -0.058 -0.0173  1.7921 -1.0260
 1703SOL     OW 5806   0.706   4.946   3.846 -0.0836 -0.2299 -0.0602
 1703SOL    HW1 5807   0.728   4.866   3.895 -0.4197  0.4261  1.1955
 1703SOL    HW2 5808   0.790   4.977   3.813  0.1292 -0.7888 -0.0657
 1704SOL     OW 5809   0.169   1.022   4.406 -0.6269  0.4923 -0.0096
 1704SOL    HW1 5810   0.197   1.057   4.321  0.0783  0.0656  0.0452
 1704SOL    HW2 5811   0.233   1.055   4.468 -2.4811  2.8411  0.7958
 1705SOL     OW 5812   3.033   3.335   2.781 -0.5371 -0.0019  0.2589
 1705SOL    HW1 5813   2.946   3.371   2.801 -0.6350  0.5662 -1.1035
 1705SOL    HW2 5814   3.092   3.383   2.838 -0.5781  2.8828 -1.8992
 1706SOL     OW 5815   2.178   2.202   4.036 -0.1513  0.0733  0.3281
 1706SOL    HW1 5816   2.223   2.227   3.955 -0.2468 -0.1235  0.2138
 1706SOL    HW2 5817   2.180   2.107   4.037  1.6496  0.0734  1.5737
 1707SOL     OW 5818   0.814   1.139   3.660 -0.5148 -0.3987 -0.5262
 1707SOL    HW1 5819   0.833   1.202   3.730 -0.9441 -1.1614  0.3062
 1707SOL    HW2 5820   0.737   1.091   3.692 -2.0949  0.6726 -2.5019
 1708SOL     OW 5821   0.253   4.569   4.138  0.2340 -0.2873 -0.1317
 1708SOL    HW1 5822   0.296   4.580   4.223  1.5561 -0.9564 -0.6942
 1708SOL    HW2 5823   0.237   4.475   4.131 -0.6277 -0.1423 -0.2912
 1709SOL     OW 5824   4.647   1.376   3.689  0.0076 -0.2299 -0.0415
 1709SOL    HW1 5825   4.640   1.470   3.672  1.1615  0.0756  1.0282
 1709SOL    HW2 5826   4.641   1.335   3.602 -0.1951  0.8489 -0.5473
 1710SOL     OW 5827   5.211   0.605   0.064  0.2414  0.5332  0.0020
 1710SOL    HW1 5828   5.130   0.592   0.014 -0.0077 -1.4242  0.8272
 1710SOL    HW2 5829   5.279   0.565   0.011  0.3044  0.2160  0.3204
 1711SOL     OW 5830   0.512   1.777   5.394  0.0894  0.2017  0.4207
 1711SOL    HW1 5831   0.510   1.723   5.315 -1.3439 -0.4774  0.8652
 1711SOL    HW2 5832   0.487   1.864   5.365  1.8243  0.5184 -0.2135
 1712SOL     OW 5833   1.491   1.756   3.223  0.4473 -0.3099  0.0086
 1712SOL    HW1 5834   1.437   1.677   3.232  0.3915 -0.1297  1.6271
 1712SOL    HW2 5835   1.517   1.757   3.131 -0.6724 -1.4751 -0.3583
 1713SOL     OW 5836   3.857   0.961   3.107 -0.0275  0.7055 -0.2994
 1713SOL    HW1 5837   3.804   1.017   3.163  1.0016  0.6618  0.7640
 1713SOL    HW2 5838   3.888   0.891   3.166 -1.1275 -0.8922 -1.5371
 1714SOL     OW 5839   3.763   2.437   4.425  0.0659 -0.1643  0.2106
 1714SOL    HW1 5840   3.720   2.364   4.380  1.0177  0.3702 -1.7000
 1714SOL    HW2 5841   3.839   2.398   4.467  1.8914 -0.0609 -2.7025
 1715SOL     OW 5842   2.761   2.278   3.715  0.0867  0.0762  0.2693
 1715SOL    HW1 5843   2.705   2.338   3.765 -0.4697  1.3476 -1.7499
 1715SOL    HW2 5844   2.702   2.207   3.689 -0.5084  1.0958 -1.3188
 1716SOL     OW 5845   3.547   0.672   1.730  0.0930  0.0797  0.1755
 1716SOL    HW1 5846   3.481   0.630   1.675 -0.7847  1.5495  0.0428
 1716SOL    HW2 5847   3.513   0.760   1.745  1.7925  0.7202  0.5268
 1717SOL     OW 5848   4.704   5.250   2.007 -0.0614  0.7778  0.4770
 1717SOL    HW1 5849   4.683   5.272   1.917 -1.7562 -0.7358  0.4408
 1717SOL    HW2 5850   4.699   5.332   2.055 -1.1867  1.2766 -0.4642
 1718SOL     OW 5851   0.729   0.003   2.614 -0.0881  0.3668  0.2253
 1718SOL    HW1 5852   0.794  -0.058   2.578 -0.5173 -0.2185  0.4414
 1718SOL    HW2 5853   0.781   0.063   2.668  0.2362 -0.2883  0.6458
 1719SOL     OW 5854   1.994   4.822   0.201 -0.6612  0.2100  0.3255
 1719SOL    HW1 5855   2.028   4.746   0.153  0.0430  1.0086 -0.4742
 1719SOL    HW2 5856   1.926   4.786   0.258  0.4932 -1.2122  0.8633
 1720SOL     OW 5857   0.779   2.574   1.314 -0.4324  0.2721 -0.5974
 1720SOL    HW1 5858   0.703   2.585   1.257 -0.2256  0.2543 -0.8778
 1720SOL    HW2 5859   0.854   2.600   1.261 -0.4324  2.4287  0.3722
 1721SOL     OW 5860   5.029   2.890   2.318  0.4852  0.2398  0.2082
 1721SOL    HW1 5861   4.993   2.978   2.329 -0.4781 -0.3935  2.5234
 1721SOL    HW2 5862   4.961   2.842   2.271  0.0589  0.1717  0.8774
 1722SOL     OW 5863   0.106   0.741   3.655 -0.2325  0.2396 -0.0896
 1722SOL    HW1 5864   0.013   0.720   3.642 -0.8216  3.1126 -1.1682
 1722SOL    HW2 5865   0.122   0.817   3.600  3.0877 -0.7444 -0.7425
 1723SOL     OW 5866   1.360   0.698   2.572 -0.0296  0.0117 -0.0597
 1723SOL    HW1 5867   1.333   0.756   2.643 -1.1141 -0.4163 -0.1046
 1723SOL    HW2 5868   1.316   0.615   2.591  1.5603 -0.8485  0.0473
 1724SOL     OW 5869   0.187   1.436   2.493 -0.1162 -0.8885  0.1181
 1724SOL    HW1 5870   0.121   1.392   2.439  0.0081 -0.2603 -0.5609
 1724SOL    HW2 5871   0.240   1.486   2.430  1.0609 -1.4445  0.6462
 1725SOL     OW 5872   4.119   0.890   0.637  0.1347 -0.2436 -0.1718
 1725SOL    HW1 5873   4.206   0.920   0.611 -0.5099 -1.1578 -3.9670
 1725SOL    HW2 5874   4.059   0.950   0.593 -1.1460 -1.0754  0.3841
 1726SOL     OW 5875   0.019   4.971   0.663  0.1316  0.0580 -0.2656
 1726SOL    HW1 5876  -0.069   5.008   0.663  0.6781  1.4370  1.0505
 1726SOL    HW2 5877   0.054   4.990   0.750  2.0022  0.2163 -0.9928
 1727SOL     OW 5878   3.742   1.139   4.555  0.2563 -0.0831  0.5456
 1727SOL    HW1 5879   3.798   1.140   4.633  0.9481 -1.4027  0.1034
 1727SOL    HW2 5880   3.779   1.206   4.497  0.7505 -0.2403  0.6784
 1728SOL     OW 5881   0.327   2.741   5.085  0.1235  0.3309 -0.3585
 1728SOL    HW1 5882   0.402   2.767   5.138  0.1148 -0.8764  0.2682
 1728SOL    HW2 5883   0.310   2.817   5.029  1.3588  0.8865 -0.0123
 1729SOL     OW 5884   1.299   1.376   4.714 -0.2042 -0.2988  0.5633
 1729SOL    HW1 5885   1.312   1.310   4.782  1.1378 -0.4520  0.1975
 1729SOL    HW2 5886   1.324   1.458   4.756 -0.1872 -0.2735  0.5030
 1730SOL     OW 5887   0.238   1.295   1.528  0.2204  0.0287 -0.2300
 1730SOL    HW1 5888   0.276   1.277   1.441  0.0369  0.4814 -0.4025
 1730SOL    HW2 5889   0.176   1.223   1.541  0.3255 -0.1013 -0.4286
 1731SOL     OW 5890   3.662   2.078   3.128  0.6415 -0.1363  0.0584
 1731SOL    HW1 5891   3.649   2.024   3.050 -0.7261  0.7383 -0.3645
 1731SOL    HW2 5892   3.634   2.023   3.201  0.2074 -0.3589 -0.2684
 1732SOL     OW 5893   3.598   0.486   3.490 -0.2989  0.0598 -0.4471
 1732SOL    HW1 5894   3.606   0.413   3.552  0.2597 -0.4735 -1.1340
 1732SOL    HW2 5895   3.618   0.564   3.543 -0.9498 -0.2611  0.3039
 1733SOL     OW 5896   3.164   3.940   4.208  0.2377 -0.0902 -0.0258
 1733SOL    HW1 5897   3.206   3.881   4.271 -0.6497 -0.9937 -0.2465
 1733SOL    HW2 5898   3.184   3.901   4.122 -0.8342 -0.4230 -0.1442
 1734SOL     OW 5899   2.423   3.574   1.034  0.3208  0.8605 -0.1054
 1734SOL    HW1 5900   2.366   3.501   1.059 -0.2076  1.0147 -0.8065
 1734SOL    HW2 5901   2.485   3.583   1.106 -0.6048  0.7433  0.7227
 1735SOL     OW 5902   1.762   4.351   1.971  0.7629 -0.5452 -0.3599
 1735SOL    HW1 5903   1.716   4.327   1.891 -0.1698 -0.1358  0.0443
 1735SOL    HW2 5904   1.850   4.377   1.941  1.0335 -2.1696 -1.0309
 1736SOL     OW 5905   0.128   1.398   1.099  0.9151  0.6554  0.0463
 1736SOL    HW1 5906   0.128   1.325   1.160 -2.7843 -0.1457 -0.6569
 1736SOL    HW2 5907   0.128   1.356   1.012  1.2123  1.5878 -0.4173
 1737SOL     OW 5908   4.178   0.161   4.945 -0.0986 -0.6277 -0.4462
 1737SOL    HW1 5909   4.233   0.240   4.939  0.1214 -0.7546 -0.1169
 1737SOL    HW2 5910   4.095   0.187   4.905 -0.3928  0.0998  0.5774
 1738SOL     OW 5911   3.470   1.199   2.680  0.3599  0.4406  0.1549
 1738SOL    HW1 5912   3.558   1.172   2.707  0.7439  2.7589  1.5467
 1738SOL    HW2 5913   3.411   1.150   2.737  0.9516  1.3356  1.5960
 1739SOL     OW 5914   4.173   3.813   4.231 -0.0946  0.1247  0.2464
 1739SOL    HW1 5915   4.106   3.873   4.265  0.7718  0.3209  1.6820
 1739SOL    HW2 5916   4.123   3.745   4.185 -1.5423 -1.0075  3.2065
 1740SOL     OW 5917   4.595   3.470   0.290  0.2294 -0.8244 -0.0494
 1740SOL    HW1 5918   4.551   3.404   0.237  1.6828 -1.1152 -0.9292
 1740SOL    HW2 5919   4.685   3.471   0.259  0.5428  0.7157  0.7837
 1741SOL     OW 5920   0.331   0.590   4.099 -0.0119  0.1684  0.4128
 1741SOL    HW1 5921   0.307   0.561   4.011  1.6619 -0.5544  0.1513
 1741SOL    HW2 5922   0.352   0.683   4.089  1.6731 -0.2606 -0.3107
 1742SOL     OW 5923   0.099   2.014   2.519  0.0554 -0.7611 -0.0947
 1742SOL    HW1 5924   0.189   2.012   2.487  0.6824 -0.3891  1.5763
 1742SOL    HW2 5925   0.046   1.991   2.442  1.3569  1.6287 -1.8559
 1743SOL     OW 5926   0.371   4.715   0.369  0.0797 -0.5685  0.1352
 1743SOL    HW1 5927   0.342   4.636   0.415 -1.6424  0.5857  1.1341
 1743SOL    HW2 5928   0.326   4.787   0.413 -0.9163  0.7095 -2.7343
 1744SOL     OW 5929   0.086   3.821   2.067  0.4954 -0.0778  0.0329
 1744SOL    HW1 5930   0.157   3.877   2.096 -1.1888  1.4090  1.5798
 1744SOL    HW2 5931   0.050   3.783   2.148  0.4705 -2.0426 -0.8256
 1745SOL     OW 5932   2.330   4.279   0.338  0.2024  0.1490  0.2234
 1745SOL    HW1 5933   2.426   4.283   0.332  0.2428  3.2122  1.2495
 1745SOL    HW2 5934   2.300   4.329   0.262 -0.5339  0.1214  0.4907
 1746SOL     OW 5935   1.409   5.372   2.983  0.1850 -0.6030  0.4422
 1746SOL    HW1 5936   1.449   5.334   2.905 -0.1523 -2.2607  1.0321
 1746SOL    HW2 5937   1.315   5.364   2.967  0.1137 -0.9276  0.9932
 1747SOL     OW 5938   1.922   3.260   1.974 -0.4700 -0.4842  0.1671
 1747SOL    HW1 5939   1.985   3.226   1.911  0.1186  1.9497 -0.6567
 1747SOL    HW2 5940   1.958   3.236   2.059  3.6723  3.6005 -0.0053
 1748SOL     OW 5941   4.720   2.682   0.313 -0.6854 -0.3578 -0.2069
 1748SOL    HW1 5942   4.782   2.677   0.385 -0.8703  2.3244  0.2472
 1748SOL    HW2 5943   4.685   2.593   0.304  1.1475 -1.2902  1.3553
 1749SOL     OW 5944   2.239   4.502   2.354  0.2708  0.7309 -0.4327
 1749SOL    HW1 5945   2.328   4.517   2.384 -0.1375  0.8437  0.8082
 1749SOL    HW2 5946   2.245   4.423   2.300  1.1710  0.9347 -0.6439
 1750SOL     OW 5947   4.689   1.831   4.023  0.2074  0.6980  0.1144
 1750SOL    HW1 5948   4.763   1.830   3.962  0.4553  0.0456  0.4193
 1750SOL    HW2 5949   4.725   1.799   4.106 -0.3437  0.6618  0.3493
 1751SOL     OW 5950   0.293   2.980   3.622 -0.2225 -0.7290  0.4297
 1751SOL    HW1 5951   0.372   3.011   3.577  0.0570  0.3752  1.6212
 1751SOL    HW2 5952   0.313   2.890   3.646  0.8390 -0.3436  1.0534
 1752SOL     OW 5953   5.163   0.747   0.513  0.0044  0.5484 -0.1540
 1752SOL    HW1 5954   5.184   0.712   0.600 -0.7235 -0.9973 -0.5713
 1752SOL    HW2 5955   5.198   0.682   0.452  0.2568  1.4805 -1.0227
 1753SOL     OW 5956   4.862   0.827   4.119  0.1817  0.1434  0.5239
 1753SOL    HW1 5957   4.896   0.848   4.032 -1.8460 -0.5347 -0.5059
 1753SOL    HW2 5958   4.934   0.847   4.179  1.6417  0.6224 -1.2994
 1754SOL     OW 5959   5.348   2.120   2.276  0.9700  0.4907 -0.1334
 1754SOL    HW1 5960   5.258   2.137   2.304  0.3914  2.7770 -2.9421
 1754SOL    HW2 5961   5.397   2.195   2.308  0.6934  2.0738 -3.1150
 1755SOL     OW 5962   1.204   1.285   4.300  0.1001  0.6599  0.3049
 1755SOL    HW1 5963   1.224   1.320   4.214  1.7919 -0.6773  0.1073
 1755SOL    HW2 5964   1.282   1.304   4.353 -0.6998  0.9981  1.4033
 1756SOL     OW 5965   4.357   4.760   3.664  0.1479  0.5482  0.5847
 1756SOL    HW1 5966   4.284   4.822   3.660 -0.8847 -0.6878 -1.6220
 1756SOL    HW2 5967   4.434   4.811   3.637 -0.4244  1.1739  0.1115
 1757SOL     OW 5968   0.669   4.702   4.293  0.1130 -0.4438  0.2849
 1757SOL    HW1 5969   0.690   4.682   4.202 -1.9284  0.8018 -0.5238
 1757SOL    HW2 5970   0.678   4.797   4.299 -1.2970 -0.3304  0.9294
 1758SOL     OW 5971   5.103   2.313   1.217 -0.2015 -0.1771 -0.0632
 1758SOL    HW1 5972   5.140   2.342   1.134 -1.8875  0.7595 -0.5448
 1758SOL    HW2 5973   5.133   2.223   1.227  1.6084  0.3211 -0.7067
 1759SOL     OW 5974   5.333   0.567   1.889  0.1856 -0.3849 -0.7481
 1759SOL    HW1 5975   5.261   0.507   1.869  0.4664 -0.9373 -0.1229
 1759SOL    HW2 5976   5.385   0.521   1.955 -0.8666  1.4943  1.5278
 1760SOL     OW 5977   2.316   0.666   1.504 -0.1038 -0.1980  0.3979
 1760SOL    HW1 5978   2.275   0.650   1.589 -2.5350  0.6316 -0.5396
 1760SOL    HW2 5979   2.253   0.634   1.440  1.2683  0.0253 -1.1332
 1761SOL     OW 5980   2.027   5.281   0.880 -0.2165 -0.4885  0.1539
 1761SOL    HW1 5981   1.998   5.191   0.863  0.8675 -0.5904 -1.3322
 1761SOL    HW2 5982   2.054   5.280   0.972 -1.2372 -1.3810  0.4700
 1762SOL     OW 5983   4.332   3.401   3.304  0.0946  0.9830 -0.0806
 1762SOL    HW1 5984   4.410   3.375   3.254  0.7386 -0.8319  1.7256
 1762SOL    HW2 5985   4.355   3.485   3.343  1.8587 -0.1857  1.6401
 1763SOL     OW 5986   2.047   1.239   2.118  0.0413 -0.3814  0.0332
 1763SOL    HW1 5987   2.070   1.285   2.198 -0.0651  0.6467 -0.5189
 1763SOL    HW2 5988   1.961   1.200   2.137 -1.0318  1.6736 -0.2723
 1764SOL     OW 5989   4.941   1.366   1.515 -0.2451 -0.6323 -0.2177
 1764SOL    HW1 5990   4.938   1.283   1.562 -1.3702 -1.7815 -2.1570
 1764SOL    HW2 5991   4.860   1.411   1.540 -0.0501 -0.4960  0.1752
 1765SOL     OW 5992   4.511   4.443   2.430  0.3879  0.1977  0.4508
 1765SOL    HW1 5993   4.575   4.514   2.427 -0.1469  0.6909 -2.5561
 1765SOL    HW2 5994   4.516   4.402   2.343 -2.5136 -0.5188  0.5141
 1766SOL     OW 5995   0.038   4.597   3.178 -0.4882  0.0989 -0.0737
 1766SOL    HW1 5996   0.101   4.525   3.180 -1.1982 -0.5507 -0.4335
 1766SOL    HW2 5997   0.091   4.676   3.189  0.2402 -0.5065  0.9356
 1767SOL     OW 5998   3.423   1.393   0.132 -0.1962  0.2696 -0.0109
 1767SOL    HW1 5999   3.461   1.381   0.044  0.9315  0.0260  0.4880
 1767SOL    HW2 6000   3.434   1.486   0.150 -0.3235  0.2984 -0.0815
 1768SOL     OW 6001   0.608   1.083   2.155 -0.2627  0.0262  0.1627
 1768SOL    HW1 6002   0.621   1.028   2.233  0.5635 -0.5871 -0.3839
 1768SOL    HW2 6003   0.682   1.144   2.156  0.2698 -0.5765 -0.6053
 1769SOL     OW 6004   0.255   2.481   4.995 -0.0125 -0.9636 -0.3304
 1769SOL    HW1 6005   0.160   2.475   4.997  0.0109 -1.4861 -0.5844
 1769SOL    HW2 6006   0.275   2.567   5.033 -0.5532 -1.0752  0.2111
 1770SOL     OW 6007   1.923   2.033   3.033  0.0286  0.6751 -0.1261
 1770SOL    HW1 6008   1.903   2.074   2.949 -0.5095  0.0881 -0.2894
 1770SOL    HW2 6009   1.876   1.950   3.031 -1.9010  1.6551  1.7228
 1771SOL     OW 6010   4.491   3.784   2.886  0.4340  0.2447  0.2835
 1771SOL    HW1 6011   4.455   3.849   2.826  0.0056 -0.3945 -0.1643
 1771SOL    HW2 6012   4.438   3.705   2.870  2.2610 -0.8431 -0.6520
 1772SOL     OW 6013   0.261   0.725   2.505 -0.3412  0.0192  0.2077
 1772SOL    HW1 6014   0.343   0.693   2.467  0.1511  1.0411  0.3788
 1772SOL    HW2 6015   0.276   0.724   2.599 -0.5640  0.1079  0.2452
 1773SOL     OW 6016   0.726   2.679   1.707  0.2842  0.4068  0.1778
 1773SOL    HW1 6017   0.790   2.675   1.778 -0.4647 -0.9099  0.8259
 1773SOL    HW2 6018   0.687   2.592   1.705  0.9719  0.0641 -2.5595
 1774SOL     OW 6019   1.440   2.818   2.236 -0.1271 -0.0808  0.0540
 1774SOL    HW1 6020   1.361   2.818   2.182  1.1226  1.2958 -1.9577
 1774SOL    HW2 6021   1.503   2.767   2.185  0.9718  0.8696  0.4186
 1775SOL     OW 6022   5.035   4.479   1.890  0.3145  0.0474 -0.0595
 1775SOL    HW1 6023   5.012   4.537   1.817 -0.9082 -0.0817  0.2128
 1775SOL    HW2 6024   5.121   4.510   1.919 -0.5386  2.0653  0.4185
 1776SOL     OW 6025   4.236   3.768   1.674 -0.7952  0.2806 -0.0837
 1776SOL    HW1 6026   4.188   3.834   1.624 -0.6174  0.2245 -0.3287
 1776SOL    HW2 6027   4.168   3.719   1.720 -0.9687  0.2248 -0.4008
 1777SOL     OW 6028   1.676   3.064   1.458 -0.2995  0.0585  0.0336
 1777SOL    HW1 6029   1.733   3.108   1.521  1.4396 -1.3860 -0.4111
 1777SOL    HW2 6030   1.695   2.970   1.470 -3.2669 -0.5879  0.4263
 1778SOL     OW 6031   2.922   3.453   5.027 -0.0245  0.0760  0.2168
 1778SOL    HW1 6032   2.931   3.473   5.120 -3.5027 -0.1632  0.7356
 1778SOL    HW2 6033   2.889   3.534   4.988  1.0884  0.0705 -0.7789
 1779SOL     OW 6034   1.548   3.443   4.011  0.5688  0.8106  0.4336
 1779SOL    HW1 6035   1.502   3.388   3.948  0.4729  0.4548  0.8095
 1779SOL    HW2 6036   1.638   3.444   3.981  0.4000  1.1768 -0.0773
 1780SOL     OW 6037   4.461   2.663   1.814  0.1865  0.2554  0.3367
 1780SOL    HW1 6038   4.510   2.744   1.802  2.3722 -1.3115 -3.0307
 1780SOL    HW2 6039   4.503   2.620   1.888 -0.2130  1.5811  1.3792
 1781SOL     OW 6040   0.371   2.315   0.878 -0.3468 -0.1263  0.4297
 1781SOL    HW1 6041   0.379   2.409   0.857 -0.1908 -0.1043  0.5816
 1781SOL    HW2 6042   0.461   2.284   0.880 -0.4735 -1.0190 -2.8552
 1782SOL     OW 6043   1.332   4.639   2.249 -0.9259  0.6119 -0.2366
 1782SOL    HW1 6044   1.353   4.634   2.156 -0.1686 -1.2002 -0.0059
 1782SOL    HW2 6045   1.415   4.623   2.294 -1.1570  2.0075  0.7920
 1783SOL     OW 6046   3.649   3.757   3.470 -0.6744  0.0235  0.0059
 1783SOL    HW1 6047   3.581   3.815   3.505 -0.9807 -0.4448  0.1998
 1783SOL    HW2 6048   3.729   3.809   3.472 -0.5026 -0.2661  2.1836
 1784SOL     OW 6049   0.511   4.162   5.339  0.3393  0.4057 -0.2450
 1784SOL    HW1 6050   0.573   4.184   5.271  0.2136  0.7361 -0.2530
 1784SOL    HW2 6051   0.431   4.136   5.292  0.8404 -1.2133 -0.2734
 1785SOL     OW 6052   0.872   0.660   4.383  0.2853  0.3134 -0.2388
 1785SOL    HW1 6053   0.911   0.740   4.418  0.8515 -0.9733  2.3264
 1785SOL    HW2 6054   0.921   0.589   4.424  0.2057 -1.4085 -2.9076
 1786SOL     OW 6055   2.150   3.569   1.791  0.0992  0.2486  0.2616
 1786SOL    HW1 6056   2.073   3.576   1.847 -0.6146 -1.7718 -0.3493
 1786SOL    HW2 6057   2.195   3.491   1.822  0.3481 -0.2033 -1.1463
 1787SOL     OW 6058   3.690   5.047   3.970 -0.6077 -0.1331 -0.3752
 1787SOL    HW1 6059   3.723   4.975   4.024 -0.8878  0.7958  1.0875
 1787SOL    HW2 6060   3.630   5.005   3.908 -0.0921 -1.2573 -0.1452
 1788SOL     OW 6061   3.250   4.977   3.179  0.1422 -0.3086 -0.2540
 1788SOL    HW1 6062   3.179   4.935   3.131 -2.0651  0.3275  2.1802
 1788SOL    HW2 6063   3.276   4.912   3.245 -0.2857  0.5007  0.7450
 1789SOL     OW 6064   2.534   4.849   2.270  0.0887  0.3211  0.3935
 1789SOL    HW1 6065   2.568   4.820   2.355  1.7512 -1.1413 -0.6955
 1789SOL    HW2 6066   2.525   4.769   2.219  0.5815  1.3046 -1.3098
 1790SOL     OW 6067   1.565   1.644   2.580  0.9874 -0.0271 -0.0577
 1790SOL    HW1 6068   1.630   1.713   2.596  2.2707 -1.0139 -0.8014
 1790SOL    HW2 6069   1.549   1.649   2.485  0.7230 -0.4235 -0.0341
 1791SOL     OW 6070   3.982   1.654   5.382  0.7049 -0.0479  0.3985
 1791SOL    HW1 6071   4.052   1.716   5.364  0.0228  0.5052 -0.4149
 1791SOL    HW2 6072   4.002   1.620   5.469  1.8450  0.2734  0.2819
 1792SOL     OW 6073   2.259   4.019   2.753 -0.2310  0.0845 -0.3375
 1792SOL    HW1 6074   2.220   3.994   2.836 -0.4535 -0.2135 -0.5329
 1792SOL    HW2 6075   2.323   4.087   2.776 -0.2445 -0.0457  0.0807
 1793SOL     OW 6076   0.251   1.028   3.200 -0.1387 -0.3675  0.0776
 1793SOL    HW1 6077   0.236   0.943   3.240 -0.7543 -0.5604 -0.5511
 1793SOL    HW2 6078   0.301   1.077   3.266  2.6099 -2.0920 -0.5484
 1794SOL     OW 6079   3.774   5.163   5.247 -0.1716 -0.5389  0.1076
 1794SOL    HW1 6080   3.847   5.156   5.307 -0.4699  1.2068  0.7299
 1794SOL    HW2 6081   3.764   5.075   5.211  1.4115 -1.0993  0.9471
 1795SOL     OW 6082   1.254   2.387   2.072  0.0288  0.0108 -0.2285
 1795SOL    HW1 6083   1.219   2.439   2.001  2.8413  1.7713 -0.4883
 1795SOL    HW2 6084   1.319   2.330   2.031 -0.6072 -1.3175  0.5255
 1796SOL     OW 6085   3.889   5.357   1.851 -0.2021 -0.0128 -0.2573
 1796SOL    HW1 6086   3.918   5.289   1.912  0.6305  0.4466 -0.1174
 1796SOL    HW2 6087   3.816   5.400   1.896 -0.8577 -0.9226 -0.4308
 1797SOL     OW 6088   4.686   2.433   4.933  0.3821  0.0593  0.0253
 1797SOL    HW1 6089   4.660   2.343   4.911 -0.3989 -0.0657  1.2996
 1797SOL    HW2 6090   4.756   2.422   4.997  1.5670  0.3911 -1.1803
 1798SOL     OW 6091   2.335   5.293   3.582  0.8444 -0.0775 -0.0654
 1798SOL    HW1 6092   2.290   5.290   3.666  0.7420 -0.7196 -0.1419
 1798SOL    HW2 6093   2.364   5.384   3.574  0.1547  0.1789  0.2899
 1799SOL     OW 6094   0.048   2.768   0.799  0.1967 -0.2689  0.6500
 1799SOL    HW1 6095  -0.043   2.799   0.807  0.2344 -0.2679  1.1603
 1799SOL    HW2 6096   0.093   2.811   0.872  0.3415 -1.2018  1.1266
 1800SOL     OW 6097   3.619   4.745   3.367 -0.5570 -0.2255  0.3318
 1800SOL    HW1 6098   3.684   4.682   3.335 -0.4642  1.2306 -2.6147
 1800SOL    HW2 6099   3.671   4.818   3.400 -0.6364  0.3406 -0.7461
 1801SOL     OW 6100   0.754   2.997   1.417 -0.0683  0.0213 -0.3493
 1801SOL    HW1 6101   0.701   2.964   1.344  0.7111  0.5270 -1.1651
 1801SOL    HW2 6102   0.782   3.084   1.389  0.7108 -0.0005  0.3101
 1802SOL     OW 6103   2.581   2.194   4.807 -0.1123 -0.3017  0.3536
 1802SOL    HW1 6104   2.531   2.149   4.739 -1.0559 -1.0440  1.4888
 1802SOL    HW2 6105   2.631   2.125   4.849  2.3838  0.4979 -1.0960
 1803SOL     OW 6106   4.283   4.961   5.134  0.3798 -0.1539 -0.1663
 1803SOL    HW1 6107   4.343   4.915   5.076 -1.7077 -0.8409 -1.9304
 1803SOL    HW2 6108   4.312   4.939   5.222  3.1425  0.2008 -0.8884
 1804SOL     OW 6109   0.809   2.045   2.966 -0.1756 -0.2971  0.0758
 1804SOL    HW1 6110   0.878   2.078   3.024 -0.3587 -0.6588  0.5108
 1804SOL    HW2 6111   0.728   2.065   3.012 -0.3048 -0.9966  0.1702
 1805SOL     OW 6112   4.847   3.332   0.914  0.2510  0.3199  0.4204
 1805SOL    HW1 6113   4.873   3.360   1.001 -0.9802 -0.1067  0.9537
 1805SOL    HW2 6114   4.778   3.267   0.929 -0.2379  0.5004 -0.8714
 1806SOL     OW 6115   2.665   1.771   3.983 -0.3978 -0.0966 -0.3948
 1806SOL    HW1 6116   2.634   1.682   3.971 -0.4106 -0.2953  0.9020
 1806SOL    HW2 6117   2.591   1.816   4.026  0.7080 -0.3507  1.9495
 1807SOL     OW 6118   3.587   1.530   3.586 -0.4572 -0.6921 -0.0794
 1807SOL    HW1 6119   3.615   1.442   3.613 -0.5211 -0.0856  2.0963
 1807SOL    HW2 6120   3.497   1.537   3.617  0.2346  0.8894  1.7095
 1808SOL     OW 6121   1.892   5.286   5.184  0.1166 -0.0687  0.2951
 1808SOL    HW1 6122   1.878   5.364   5.237 -1.8898  0.0566 -0.3587
 1808SOL    HW2 6123   1.820   5.228   5.206 -0.0703 -0.5221 -1.3673
 1809SOL     OW 6124   1.596   2.838   3.631 -0.5023 -0.2727  0.5445
 1809SOL    HW1 6125   1.688   2.864   3.632 -0.3863 -0.6666  1.4421
 1809SOL    HW2 6126   1.596   2.748   3.662 -1.1994 -0.2295  0.6857
 1810SOL     OW 6127   3.536   5.346   4.634 -0.3989 -0.4850 -0.1694
 1810SOL    HW1 6128   3.595   5.272   4.618 -0.1279 -0.0405 -1.3208
 1810SOL    HW2 6129   3.452   5.319   4.597 -0.0549  0.1240 -1.4539
 1811SOL     OW 6130   0.156   5.286   2.897 -0.0179 -0.6081  0.3229
 1811SOL    HW1 6131   0.150   5.330   2.982 -0.1157  0.1349 -0.0570
 1811SOL    HW2 6132   0.247   5.299   2.870  0.2972 -1.7593  0.7851
 1812SOL     OW 6133   2.009   1.236   1.140 -0.3372 -0.1917  0.3596
 1812SOL    HW1 6134   2.101   1.245   1.116 -0.2760  1.3315  1.0411
 1812SOL    HW2 6135   1.994   1.307   1.203 -1.5961 -1.3560  1.4280
 1813SOL     OW 6136   2.930   0.991   1.190 -0.1080  0.0602  0.1026
 1813SOL    HW1 6137   2.984   0.956   1.119 -2.4686  1.1975 -2.4554
 1813SOL    HW2 6138   2.889   0.914   1.230  1.6081 -0.6348  0.6106
 1814SOL     OW 6139   2.111   1.772   2.417  0.5158  0.0058 -0.4030
 1814SOL    HW1 6140   2.175   1.837   2.447 -0.2309  0.4832  0.1929
 1814SOL    HW2 6141   2.059   1.819   2.352  0.2531 -0.1240 -0.2863
 1815SOL     OW 6142   3.860   5.342   0.262 -0.5233  0.1767 -0.2192
 1815SOL    HW1 6143   3.945   5.307   0.289 -1.5877 -0.8284  2.0909
 1815SOL    HW2 6144   3.800   5.269   0.272 -1.4545  0.3956 -3.4410
 1816SOL     OW 6145   3.197   5.146   5.201  0.4549  0.0320  0.1913
 1816SOL    HW1 6146   3.151   5.063   5.186  0.6015  0.1083 -0.7301
 1816SOL    HW2 6147   3.260   5.151   5.129  1.2212  0.4057  0.8842
 1817SOL     OW 6148   0.755   2.578   5.303 -0.2126  0.0465  0.0814
 1817SOL    HW1 6149   0.821   2.581   5.372  0.0437 -2.3099  0.0139
 1817SOL    HW2 6150   0.803   2.603   5.224  0.1677  0.0424  0.3073
 1818SOL     OW 6151   4.523   2.095   3.686  0.3778 -0.7008 -0.6593
 1818SOL    HW1 6152   4.495   2.179   3.723 -0.4901 -1.3099  0.1205
 1818SOL    HW2 6153   4.460   2.031   3.721 -0.7864 -1.2863 -3.5528
 1819SOL     OW 6154   0.386   0.599   1.148  0.7394  0.0032  0.3948
 1819SOL    HW1 6155   0.457   0.577   1.088  0.9581  0.0910  0.6189
 1819SOL    HW2 6156   0.324   0.527   1.139  0.7716  0.0149  0.0658
 1820SOL     OW 6157   4.418   5.062   3.558  0.1913  0.1376 -0.1382
 1820SOL    HW1 6158   4.505   5.044   3.522 -0.3653 -0.3630 -1.3110
 1820SOL    HW2 6159   4.422   5.152   3.588  1.2313 -0.0028  0.1700
 1821SOL     OW 6160   1.055   0.056   0.109  0.1228 -0.1489 -0.2425
 1821SOL    HW1 6161   1.124   0.001   0.147 -0.5229 -1.1893 -0.5266
 1821SOL    HW2 6162   1.090   0.082   0.023  0.8949  0.8306  0.3528
 1822SOL     OW 6163   4.569   0.955   2.923  0.0692 -0.0349  0.3309
 1822SOL    HW1 6164   4.588   0.861   2.921 -0.7924 -0.2229  0.3037
 1822SOL    HW2 6165   4.578   0.983   2.832  1.2976  0.1252  0.4919
 1823SOL     OW 6166   0.945   2.966   4.838 -0.1971 -0.1413  0.0805
 1823SOL    HW1 6167   0.954   2.965   4.743 -0.9340  0.4887 -0.0062
 1823SOL    HW2 6168   0.938   3.059   4.861 -0.6957 -0.3163  0.6714
 1824SOL     OW 6169   0.163   3.784   0.612  0.1840 -0.6040  0.7845
 1824SOL    HW1 6170   0.231   3.807   0.675  1.3365  0.2398 -0.6830
 1824SOL    HW2 6171   0.203   3.716   0.557 -0.5856 -0.9356  0.6253
 1825SOL     OW 6172   1.582   0.224   1.657  0.4263 -0.1881  0.5233
 1825SOL    HW1 6173   1.575   0.299   1.716 -0.8607 -1.2616  1.7957
 1825SOL    HW2 6174   1.544   0.151   1.705  0.5930 -1.4283 -1.1224
 1826SOL     OW 6175   3.855   5.287   3.990 -0.2789 -0.3012 -0.1315
 1826SOL    HW1 6176   3.819   5.206   4.026  1.7099  0.0100  3.0011
 1826SOL    HW2 6177   3.947   5.286   4.017  0.4573  1.8140 -2.2447
 1827SOL     OW 6178   3.277   4.709   4.744  0.0064 -0.1945 -0.1352
 1827SOL    HW1 6179   3.321   4.766   4.807  0.0426  1.2318 -1.3849
 1827SOL    HW2 6180   3.185   4.711   4.771  0.1029 -0.0079  0.1853
 1828SOL     OW 6181   3.329   0.702   2.459  0.5510  0.3845 -0.3446
 1828SOL    HW1 6182   3.323   0.607   2.467  0.3781  0.2227 -2.0573
 1828SOL    HW2 6183   3.239   0.731   2.444  0.7089  0.7306 -0.6463
 1829SOL     OW 6184   3.542   0.368   2.061 -0.2871  0.7613 -0.1788
 1829SOL    HW1 6185   3.586   0.448   2.032 -0.2434  0.5269 -0.7693
 1829SOL    HW2 6186   3.603   0.297   2.037 -0.1205  0.5781  0.7392
 1830SOL     OW 6187   3.859   0.553   5.006 -0.0854 -0.1861 -0.2932
 1830SOL    HW1 6188   3.839   0.479   5.063 -0.6623  1.0061  1.1037
 1830SOL    HW2 6189   3.944   0.585   5.036 -0.3847  0.4359 -0.0930
 1831SOL     OW 6190   3.471   0.830   2.644 -0.4568  0.4849 -0.0752
 1831SOL    HW1 6191   3.493   0.770   2.715 -0.9828  0.4139  0.0279
 1831SOL    HW2 6192   3.408   0.782   2.590  1.5758 -0.3496 -1.8549
 1832SOL     OW 6193   0.120   1.407   2.022  0.1274 -0.3977 -0.6095
 1832SOL    HW1 6194   0.191   1.423   1.960  0.7623  1.9176  0.5964
 1832SOL    HW2 6195   0.065   1.485   2.015 -1.0680 -1.1515  0.0915
 1833SOL     OW 6196   1.619   4.931   3.983  0.1355  0.1995  0.1319
 1833SOL    HW1 6197   1.685   4.951   4.048  2.8755 -0.7623 -2.1421
 1833SOL    HW2 6198   1.646   4.980   3.905 -0.8046 -1.5268 -1.3767
 1834SOL     OW 6199   1.772   2.461   3.145 -0.9366  0.0282 -0.4507
 1834SOL    HW1 6200   1.683   2.428   3.143 -1.3580  1.1008  0.0300
 1834SOL    HW2 6201   1.781   2.513   3.065 -1.1875  1.0060  0.1405
 1835SOL     OW 6202   5.195   4.767   4.723  0.1197  0.3131  0.4265
 1835SOL    HW1 6203   5.147   4.734   4.647  1.4772  0.8874 -0.7303
 1835SOL    HW2 6204   5.237   4.847   4.692  2.1348 -0.3605  1.2351
 1836SOL     OW 6205   3.709   1.785   2.516  0.3440  0.0755  0.0267
 1836SOL    HW1 6206   3.653   1.725   2.467  0.1581  0.4910 -0.2819
 1836SOL    HW2 6207   3.774   1.814   2.452  0.3401  0.3181  0.1327
 1837SOL     OW 6208   4.703   3.056   4.069  0.0431 -0.0722  0.7209
 1837SOL    HW1 6209   4.762   3.027   4.000 -1.9556  2.8723 -2.6039
 1837SOL    HW2 6210   4.631   2.993   4.068 -0.1800  0.1874 -0.2648
 1838SOL     OW 6211   3.635   3.866   4.369  0.1011 -0.1607  0.1525
 1838SOL    HW1 6212   3.612   3.955   4.340 -0.5740 -0.5318 -0.4636
 1838SOL    HW2 6213   3.722   3.851   4.333  0.2121  0.2348  0.2430
 1839SOL     OW 6214   1.703   1.945   5.348  0.0753  0.4580 -0.1283
 1839SOL    HW1 6215   1.629   1.994   5.314 -0.1696  0.0051 -0.2416
 1839SOL    HW2 6216   1.767   1.944   5.277  0.0650  0.5782 -0.1388
 1840SOL     OW 6217   2.306   4.499   0.561 -0.5662 -0.2334 -0.5093
 1840SOL    HW1 6218   2.383   4.441   0.565 -1.0227 -0.8253 -0.1655
 1840SOL    HW2 6219   2.231   4.439   0.562 -1.0385  0.3523 -0.5804
 1841SOL     OW 6220   2.042   1.352   2.646  1.0103 -0.1486  0.0520
 1841SOL    HW1 6221   2.129   1.342   2.608  1.3399 -0.2012  0.7926
 1841SOL    HW2 6222   1.994   1.406   2.584  1.8609  0.6463  0.0652
 1842SOL     OW 6223   2.735   3.515   4.344  0.2596 -0.1996  0.1950
 1842SOL    HW1 6224   2.800   3.559   4.399 -0.2193  0.0028  0.6077
 1842SOL    HW2 6225   2.651   3.543   4.380 -0.0567 -0.4425 -0.3474
 1843SOL     OW 6226   1.245   4.847   0.783  0.7772 -0.0147  0.2302
 1843SOL    HW1 6227   1.250   4.843   0.879  0.1678  1.1140  0.3374
 1843SOL    HW2 6228   1.318   4.793   0.753  1.2396 -0.0481  1.3360
 1844SOL     OW 6229   0.167   3.048   1.556 -0.2779  0.0942  0.3147
 1844SOL    HW1 6230   0.173   2.961   1.596 -0.1689  1.2080  2.9448
 1844SOL    HW2 6231   0.154   3.031   1.463  1.2501 -2.7218  0.4957
 1845SOL     OW 6232   1.833   0.615   1.484 -0.4391 -0.4727 -0.0733
 1845SOL    HW1 6233   1.849   0.701   1.445 -1.6985  0.2268  0.8446
 1845SOL    HW2 6234   1.747   0.590   1.451 -1.7888  0.3811  2.5082
 1846SOL     OW 6235   2.273   3.359   1.116  0.3337 -0.1603 -0.0174
 1846SOL    HW1 6236   2.194   3.367   1.062 -0.5899  1.2973  1.4752
 1846SOL    HW2 6237   2.274   3.268   1.145  0.9359 -1.0388 -2.5190
 1847SOL     OW 6238   4.018   5.346   3.658  0.7101  0.2156  0.0624
 1847SOL    HW1 6239   4.077   5.420   3.642  2.1734 -0.7909  0.5963
 1847SOL    HW2 6240   4.073   5.281   3.702 -0.8705 -0.6869  0.7777
 1848SOL     OW 6241   2.523   4.489   2.508 -0.1302 -0.6752  0.3495
 1848SOL    HW1 6242   2.608   4.446   2.501 -0.7622 -1.6790 -1.9883
 1848SOL    HW2 6243   2.472   4.432   2.565  0.1953 -1.0215  0.2969
 1849SOL     OW 6244   2.876   1.638   1.129 -0.1626  0.7346  0.7601
 1849SOL    HW1 6245   2.896   1.598   1.214 -0.0910  0.1664  0.4784
 1849SOL    HW2 6246   2.939   1.709   1.121 -0.5289  1.1482  1.4336
 1850SOL     OW 6247   3.268   4.928   4.438  0.4262  0.7943  0.0053
 1850SOL    HW1 6248   3.185   4.879   4.433  0.3824  0.9468 -0.9758
 1850SOL    HW2 6249   3.241   5.019   4.430  0.7275  0.8117 -0.9016
 1851SOL     OW 6250   4.516   1.472   4.162  0.0730 -0.3973 -0.4467
 1851SOL    HW1 6251   4.558   1.426   4.090 -0.3090 -1.3991 -0.0517
 1851SOL    HW2 6252   4.494   1.558   4.126  2.7950  0.3499 -0.5437
 1852SOL     OW 6253   0.905   3.871   0.529  0.1589 -0.0558 -0.0291
 1852SOL    HW1 6254   0.929   3.928   0.603  2.4339 -0.4587 -0.3903
 1852SOL    HW2 6255   0.956   3.904   0.455 -1.0405 -0.5141 -1.1016
 1853SOL     OW 6256   4.654   2.378   2.190 -0.3082 -0.1827  0.6260
 1853SOL    HW1 6257   4.695   2.294   2.211  0.0011 -0.1982  0.0080
 1853SOL    HW2 6258   4.669   2.432   2.267 -1.8717 -1.1631  1.6697
 1854SOL     OW 6259   3.990   2.402   5.358  0.5556  0.0762 -0.3975
 1854SOL    HW1 6260   4.027   2.346   5.427 -0.0583 -0.8449 -0.7997
 1854SOL    HW2 6261   4.044   2.385   5.281  0.4710  0.1711 -0.4788
 1855SOL     OW 6262   5.248   1.848   3.344  0.0784  0.1129 -0.2958
 1855SOL    HW1 6263   5.228   1.941   3.335 -0.7368  0.0103  0.2996
 1855SOL    HW2 6264   5.337   1.839   3.311 -0.4917  0.7770 -2.0936
 1856SOL     OW 6265   0.548   4.869   1.565  0.1353 -0.8683  0.0854
 1856SOL    HW1 6266   0.563   4.878   1.659  1.5150 -2.8177  0.1237
 1856SOL    HW2 6267   0.578   4.951   1.527 -1.1056  0.2200  1.3906
 1857SOL     OW 6268   2.095   2.500   5.111 -0.2711  0.1169 -0.0954
 1857SOL    HW1 6269   2.102   2.593   5.132 -1.7404 -0.1039  1.6386
 1857SOL    HW2 6270   2.161   2.485   5.043 -0.5130  2.5599 -0.9564
 1858SOL     OW 6271   5.315   2.080   0.595  0.4891  0.1345 -0.4706
 1858SOL    HW1 6272   5.371   2.132   0.652 -1.4997  1.9542 -0.0632
 1858SOL    HW2 6273   5.353   2.089   0.508  1.5795  0.1909 -0.0053
 1859SOL     OW 6274   0.734   0.370   4.432 -0.5340 -0.0061 -0.2761
 1859SOL    HW1 6275   0.824   0.403   4.430 -0.4590  0.1894  2.8313
 1859SOL    HW2 6276   0.743   0.275   4.421 -0.0956  0.1283 -1.2144
 1860SOL     OW 6277   4.969   4.076   2.559  0.2228 -0.7127 -0.0173
 1860SOL    HW1 6278   5.061   4.061   2.582  0.6359  0.8494 -0.4963
 1860SOL    HW2 6279   4.955   4.026   2.479  0.7385 -0.7216 -0.1048
 1861SOL     OW 6280   5.170   1.547   2.356 -0.4361 -0.3797  0.1937
 1861SOL    HW1 6281   5.145   1.639   2.353 -1.2738 -0.6292 -0.9774
 1861SOL    HW2 6282   5.101   1.502   2.308  0.8576 -1.4150 -0.7588
 1862SOL     OW 6283   5.305   2.660   1.787 -0.0782 -0.4287 -0.0180
 1862SOL    HW1 6284   5.312   2.756   1.789  1.8584 -0.5355  0.3941
 1862SOL    HW2 6285   5.283   2.636   1.876 -0.8735 -0.3615 -0.1910
 1863SOL     OW 6286   1.735   2.036   4.746 -0.2253 -0.0377  0.0548
 1863SOL    HW1 6287   1.783   1.961   4.710 -1.1755 -0.3981 -0.5235
 1863SOL    HW2 6288   1.748   2.106   4.681 -2.8048 -0.9971 -1.6834
 1864SOL     OW 6289   3.724   0.681   4.259 -0.2438  0.7222  0.0745
 1864SOL    HW1 6290   3.810   0.646   4.235 -1.0203 -1.2995  0.0350
 1864SOL    HW2 6291   3.727   0.689   4.354  0.2381  1.4236  0.0082
 1865SOL     OW 6292   1.265   4.951   3.250  0.4060  0.2101  0.5702
 1865SOL    HW1 6293   1.301   5.039   3.264  0.0600  0.7030 -1.2668
 1865SOL    HW2 6294   1.322   4.913   3.183 -1.1628  0.2097 -0.8349
 1866SOL     OW 6295   1.749   4.751   2.985 -0.1081 -0.4879  0.0951
 1866SOL    HW1 6296   1.749   4.830   2.930  1.5260 -0.3446  0.2469
 1866SOL    HW2 6297   1.725   4.783   3.072 -0.6289 -0.3690 -0.0858
 1867SOL     OW 6298   2.973   1.122   4.983 -0.2140 -0.2948 -0.2692
 1867SOL    HW1 6299   2.955   1.114   5.077 -2.2967 -2.9451 -0.7691
 1867SOL    HW2 6300   2.895   1.164   4.947  0.2238 -0.0404 -0.9457
 1868SOL     OW 6301   3.652   4.080   2.514  0.0582 -0.0164  0.0350
 1868SOL    HW1 6302   3.569   4.126   2.527 -0.2130 -0.5200  0.1363
 1868SOL    HW2 6303   3.643   4.000   2.566  1.0436  0.4433  0.9432
 1869SOL     OW 6304   4.830   0.919   5.035  0.0361 -0.3798  0.2619
 1869SOL    HW1 6305   4.909   0.974   5.033 -0.0555 -0.2183  0.8696
 1869SOL    HW2 6306   4.781   0.951   5.110  0.4115 -1.8642  1.1864
 1870SOL     OW 6307   4.151   0.450   2.309  0.4646  0.0262 -0.5047
 1870SOL    HW1 6308   4.074   0.483   2.264 -0.3057 -0.9969  0.0354
 1870SOL    HW2 6309   4.225   0.482   2.256 -0.3854 -0.9948 -2.4042
 1871SOL     OW 6310   0.882   2.376   0.806 -0.5261  0.0123  0.1436
 1871SOL    HW1 6311   0.865   2.311   0.738 -0.3723 -1.7542  1.7128
 1871SOL    HW2 6312   0.892   2.325   0.887 -0.3660  1.9881  1.4550
 1872SOL     OW 6313   0.118   0.903   0.555 -0.1703  0.5196 -0.2737
 1872SOL    HW1 6314   0.198   0.870   0.513 -0.4675 -0.3679 -0.1688
 1872SOL    HW2 6315   0.058   0.828   0.552 -1.3430  1.4678 -1.2392
 1873SOL     OW 6316   1.337   4.988   4.050 -0.5839 -0.3368 -0.0235
 1873SOL    HW1 6317   1.306   4.946   4.130  0.6040  0.3064  0.7929
 1873SOL    HW2 6318   1.429   4.961   4.043 -0.1717  1.0425 -0.1918
 1874SOL     OW 6319   1.408   2.104   1.140  0.5310 -0.5139  0.0514
 1874SOL    HW1 6320   1.400   2.090   1.234  0.8513  1.6204  0.4460
 1874SOL    HW2 6321   1.494   2.068   1.118  1.3285  0.7398  0.9889
 1875SOL     OW 6322   4.190   2.817   5.019 -0.3710  0.4121 -0.4787
 1875SOL    HW1 6323   4.239   2.829   5.101  0.0868  0.6180 -0.7759
 1875SOL    HW2 6324   4.243   2.756   4.968 -0.9999 -0.2541 -0.3525
 1876SOL     OW 6325   0.781   3.258   5.306 -0.3703  0.0072 -0.1723
 1876SOL    HW1 6326   0.735   3.341   5.313  0.1768  0.2228  0.9724
 1876SOL    HW2 6327   0.774   3.235   5.213 -1.2969  0.8723 -0.3378
 1877SOL     OW 6328   3.318   4.489   3.965  0.2771 -0.1939 -0.8890
 1877SOL    HW1 6329   3.360   4.574   3.976  2.4114 -1.0533 -1.8686
 1877SOL    HW2 6330   3.247   4.489   4.029  0.8409  1.9292 -0.1862
 1878SOL     OW 6331   0.481   0.692   4.420 -0.0894 -0.0565  0.3786
 1878SOL    HW1 6332   0.515   0.682   4.331  0.5897 -0.2048  0.6458
 1878SOL    HW2 6333   0.404   0.635   4.423 -0.7866  0.8119 -0.4486
 1879SOL     OW 6334   1.791   3.608   3.374 -0.6838  0.2952 -0.2442
 1879SOL    HW1 6335   1.734   3.534   3.358 -1.4192  0.3559  1.8808
 1879SOL    HW2 6336   1.834   3.624   3.289 -1.2861 -1.8511 -1.0048
 1880SOL     OW 6337   0.520   5.323   3.534 -0.1933  0.0622 -0.1948
 1880SOL    HW1 6338   0.578   5.260   3.492 -0.7712 -0.1129 -0.7426
 1880SOL    HW2 6339   0.562   5.343   3.618 -0.1047 -1.2006  0.0722
 1881SOL     OW 6340   4.315   1.127   0.907 -0.7960  0.1219  0.0356
 1881SOL    HW1 6341   4.376   1.071   0.859  0.2232  0.7386  0.5624
 1881SOL    HW2 6342   4.265   1.067   0.962  0.3716 -0.2992  0.6949
 1882SOL     OW 6343   0.307   1.442   3.417  0.6203 -0.1088  0.2618
 1882SOL    HW1 6344   0.213   1.443   3.399  0.9049 -1.5017 -1.7199
 1882SOL    HW2 6345   0.318   1.497   3.494 -1.7361  0.6023  0.1637
 1883SOL     OW 6346   0.465   2.818   4.581 -0.3641 -0.1718 -0.3985
 1883SOL    HW1 6347   0.519   2.767   4.641 -0.2489  1.3700  0.8581
 1883SOL    HW2 6348   0.521   2.832   4.504 -0.0486 -1.0699 -0.3410
 1884SOL     OW 6349   4.994   2.955   5.227  0.1556 -0.0807  0.4599
 1884SOL    HW1 6350   5.027   2.871   5.258  0.7656 -0.2412 -0.5787
 1884SOL    HW2 6351   4.972   3.003   5.306  2.6094 -0.0846  1.2309
 1885SOL     OW 6352   2.712   1.250   2.721  0.6463 -0.0454  0.0239
 1885SOL    HW1 6353   2.677   1.291   2.800  0.0629  0.3899 -0.4555
 1885SOL    HW2 6354   2.755   1.321   2.674  2.1552 -0.5570  0.5698
 1886SOL     OW 6355   2.316   2.277   0.710 -0.3972 -0.3235  0.8266
 1886SOL    HW1 6356   2.319   2.181   0.720 -0.2872 -0.6532 -1.6518
 1886SOL    HW2 6357   2.406   2.302   0.691 -0.6728  0.0096 -0.1369
 1887SOL     OW 6358   4.230   0.838   4.540 -0.3664 -0.7659  0.7577
 1887SOL    HW1 6359   4.298   0.815   4.603  1.2350 -1.3882 -1.0885
 1887SOL    HW2 6360   4.266   0.812   4.455 -2.4120  0.0466 -0.4399
 1888SOL     OW 6361   2.685   2.466   0.972 -0.2563  0.3639  0.0609
 1888SOL    HW1 6362   2.763   2.509   0.937  1.2062 -1.5392  0.8026
 1888SOL    HW2 6363   2.612   2.506   0.924  1.2521  1.3018 -1.5769
 1889SOL     OW 6364   2.692   3.234   0.912  0.0165  0.6062 -0.1272
 1889SOL    HW1 6365   2.680   3.293   0.987 -0.3613  3.2687 -2.1219
 1889SOL    HW2 6366   2.609   3.187   0.905 -0.4801  1.3922  0.3035
 1890SOL     OW 6367   2.896   1.766   1.647  0.2381 -0.2654 -0.0066
 1890SOL    HW1 6368   2.976   1.756   1.699  0.1057  0.1185  0.2772
 1890SOL    HW2 6369   2.835   1.811   1.705  0.3720  0.9706 -0.7833
 1891SOL     OW 6370   1.377   3.175   3.802  0.0868  0.8050 -0.0356
 1891SOL    HW1 6371   1.471   3.163   3.816 -0.2029 -0.9791  0.6179
 1891SOL    HW2 6372   1.348   3.226   3.878  0.3569  0.4801  0.2892
 1892SOL     OW 6373   2.091   1.992   4.984 -0.6730  0.5851  0.8571
 1892SOL    HW1 6374   2.072   2.037   4.902 -0.7220 -0.7376  0.1198
 1892SOL    HW2 6375   2.151   2.051   5.030  0.2830  0.8376 -0.6319
 1893SOL     OW 6376   0.611   4.245   1.652 -0.6079 -0.0088 -0.2147
 1893SOL    HW1 6377   0.546   4.271   1.586  0.9268 -0.6838 -2.0781
 1893SOL    HW2 6378   0.686   4.301   1.633 -0.3504  0.2265  1.4166
 1894SOL     OW 6379   0.209   5.223   0.383  0.2268  0.3809 -0.6487
 1894SOL    HW1 6380   0.205   5.184   0.470  3.1945  0.4306 -0.3823
 1894SOL    HW2 6381   0.204   5.317   0.398  0.5477  0.3806 -0.5191
 1895SOL     OW 6382   1.839   0.741   0.181  0.7431 -0.2357  0.9974
 1895SOL    HW1 6383   1.761   0.686   0.178  1.2501 -1.0807  2.3925
 1895SOL    HW2 6384   1.806   0.830   0.186 -0.1187 -0.5207  0.5271
 1896SOL     OW 6385   3.746   0.445   4.786  0.9657  0.0586 -0.6605
 1896SOL    HW1 6386   3.799   0.500   4.844 -2.1120  1.8680  0.6453
 1896SOL    HW2 6387   3.719   0.371   4.840  0.6794  0.0906 -0.7584
 1897SOL     OW 6388   0.151   0.259   0.279 -0.1241 -0.4689  0.0951
 1897SOL    HW1 6389   0.065   0.227   0.251 -0.2530 -0.3336  0.3328
 1897SOL    HW2 6390   0.200   0.271   0.198 -0.0355 -1.3792  0.0052
 1898SOL     OW 6391   3.734   1.385   5.348  0.2118  0.0101 -0.2724
 1898SOL    HW1 6392   3.808   1.356   5.402 -0.4448 -1.7211 -0.2269
 1898SOL    HW2 6393   3.774   1.411   5.265  0.9129 -0.5787 -0.1348
 1899SOL     OW 6394   0.472   4.225   0.911  1.2337  0.3537 -0.3370
 1899SOL    HW1 6395   0.480   4.307   0.959  0.3405 -0.0378  0.5232
 1899SOL    HW2 6396   0.484   4.250   0.820 -0.3564  1.7004 -0.2416
 1900SOL     OW 6397   3.541   1.011   3.021 -0.0115  0.1672  0.2925
 1900SOL    HW1 6398   3.593   1.003   2.940 -0.3315  0.9990 -0.0013
 1900SOL    HW2 6399   3.462   1.058   2.994  0.1986  1.0904  1.2337
 1901SOL     OW 6400   3.042   2.102   0.434 -0.5425  0.5397  0.2300
 1901SOL    HW1 6401   2.950   2.088   0.456 -0.5783 -0.6044 -0.5474
 1901SOL    HW2 6402   3.087   2.103   0.519 -1.0683 -0.5515  0.5440
 1902SOL     OW 6403   3.502   4.006   3.521  0.5193  0.5492 -0.3830
 1902SOL    HW1 6404   3.443   4.052   3.580 -0.9001  2.0149 -2.7535
 1902SOL    HW2 6405   3.563   4.074   3.490  2.2250 -0.5108  0.4925
 1903SOL     OW 6406   5.042   1.569   3.146  0.3177  0.0132 -0.3398
 1903SOL    HW1 6407   4.969   1.559   3.085 -0.5660  0.9103  0.5090
 1903SOL    HW2 6408   5.118   1.589   3.091 -0.2379 -0.1942 -1.1944
 1904SOL     OW 6409   5.230   3.973   1.185  0.3146 -0.1119  0.3307
 1904SOL    HW1 6410   5.230   3.882   1.156  1.1408 -0.3885  1.1229
 1904SOL    HW2 6411   5.162   3.977   1.252  0.3216 -0.1685  0.3412
 1905SOL     OW 6412   2.716   4.838   0.903 -0.0860 -0.0838  0.3652
 1905SOL    HW1 6413   2.751   4.797   0.824  0.3535  1.3335 -0.2091
 1905SOL    HW2 6414   2.784   4.824   0.969  0.1280 -0.1503  0.1329
 1906SOL     OW 6415   0.718   5.357   3.150 -1.0654  0.1450  0.9246
 1906SOL    HW1 6416   0.784   5.288   3.139 -1.2624  0.3202 -2.5453
 1906SOL    HW2 6417   0.763   5.438   3.128 -2.2283  0.3105 -1.1357
 1907SOL     OW 6418   2.855   4.968   5.320  0.5809  0.1957 -0.2360
 1907SOL    HW1 6419   2.857   4.906   5.393  0.4900 -0.0170 -0.4141
 1907SOL    HW2 6420   2.906   4.926   5.251  0.9421  0.5397 -0.1833
 1908SOL     OW 6421   0.714   1.844   1.133  0.2985  0.4414 -0.3468
 1908SOL    HW1 6422   0.708   1.751   1.110  1.4648  0.3100 -0.1542
 1908SOL    HW2 6423   0.652   1.887   1.073 -2.3567 -0.7241  1.3838
 1909SOL     OW 6424   4.315   1.531   1.523 -0.0235 -0.1117 -0.1420
 1909SOL    HW1 6425   4.271   1.602   1.476 -2.7143 -2.8671 -2.1977
 1909SOL    HW2 6426   4.377   1.496   1.459  0.3032 -0.4489  0.3607
 1910SOL     OW 6427   3.090   1.369   2.700  0.1315  0.0618 -0.3825
 1910SOL    HW1 6428   3.125   1.452   2.731 -0.5050  0.5306 -0.8994
 1910SOL    HW2 6429   3.060   1.325   2.780 -1.5588  1.2846 -0.2899
 1911SOL     OW 6430   2.428   1.580   1.115  0.0878 -0.0218  0.1118
 1911SOL    HW1 6431   2.440   1.512   1.182  1.9506 -0.8987 -1.0312
 1911SOL    HW2 6432   2.363   1.544   1.055  0.0304 -0.1677  0.2604
 1912SOL     OW 6433   4.459   4.626   4.951 -0.3881  0.5022  0.0012
 1912SOL    HW1 6434   4.379   4.629   5.003  0.9127  1.3633  2.0759
 1912SOL    HW2 6435   4.530   4.631   5.016  1.3489  0.0789 -1.7745
 1913SOL     OW 6436   2.849   4.663   2.564 -0.2676  0.3433  0.7627
 1913SOL    HW1 6437   2.940   4.667   2.532 -0.2669  0.5599  0.7923
 1913SOL    HW2 6438   2.842   4.577   2.605  0.4888  1.0529  2.4671
 1914SOL     OW 6439   0.448   2.937   2.916 -0.4224  0.4434  0.1463
 1914SOL    HW1 6440   0.452   3.028   2.884 -0.3388  0.6623  0.7582
 1914SOL    HW2 6441   0.466   2.945   3.010 -0.7018 -0.1808  0.2519
 1915SOL     OW 6442   2.303   0.955   1.642 -0.0499  0.0146 -0.3401
 1915SOL    HW1 6443   2.212   0.939   1.668 -0.2957  0.4430 -0.9135
 1915SOL    HW2 6444   2.319   0.890   1.573  0.5274 -0.9713  0.6905
 1916SOL     OW 6445   2.536   3.398   3.984 -0.1711 -0.0436  0.0975
 1916SOL    HW1 6446   2.481   3.399   3.906  1.9209 -0.2946 -1.4747
 1916SOL    HW2 6447   2.474   3.400   4.057 -2.2423 -0.6361 -1.5358
 1917SOL     OW 6448   4.220   3.030   3.927 -0.1242  0.0249 -0.0169
 1917SOL    HW1 6449   4.267   3.077   3.859  0.3381 -1.3461 -0.6754
 1917SOL    HW2 6450   4.141   3.083   3.943  0.0238  0.6359 -1.2364
 1918SOL     OW 6451   4.070   0.014   1.667  0.4604  0.7712 -0.4620
 1918SOL    HW1 6452   4.125  -0.064   1.672 -1.1693 -0.7657 -3.4326
 1918SOL    HW2 6453   4.003   0.000   1.734  0.9106  0.2515 -0.1090
 1919SOL     OW 6454   2.370   0.052   2.837 -0.2261  0.4905 -0.4738
 1919SOL    HW1 6455   2.439   0.017   2.780  0.3051 -0.4747  0.7322
 1919SOL    HW2 6456   2.337  -0.024   2.885  0.0484  1.4042  1.2475
 1920SOL     OW 6457   3.589   4.047   4.131  0.1481  0.4832 -0.3386
 1920SOL    HW1 6458   3.558   4.091   4.210  0.3702  1.7953 -0.9531
 1920SOL    HW2 6459   3.632   4.116   4.081  0.0373 -0.3325 -1.5953
 1921SOL     OW 6460   2.391   4.430   2.867 -0.1885 -0.6354 -0.2263
 1921SOL    HW1 6461   2.423   4.510   2.908 -1.1868 -0.2632 -0.1393
 1921SOL    HW2 6462   2.333   4.390   2.932 -0.7524 -0.7240 -0.7698
 1922SOL     OW 6463   0.636   0.498   5.372 -0.5267  0.3324 -0.0846
 1922SOL    HW1 6464   0.687   0.560   5.320 -0.6422 -0.2405 -0.9066
 1922SOL    HW2 6465   0.701   0.450   5.423 -0.0368 -1.3279 -2.1243
 1923SOL     OW 6466   3.613   0.613   2.300 -0.1539  0.8023  0.1247
 1923SOL    HW1 6467   3.663   0.549   2.350 -0.3337  2.1611  2.1531
 1923SOL    HW2 6468   3.532   0.567   2.278  1.0453 -0.7264 -1.3940
 1924SOL     OW 6469   1.228   3.447   4.411  0.1920 -0.3690 -0.9568
 1924SOL    HW1 6470   1.271   3.446   4.496 -1.9120 -2.8737  0.2085
 1924SOL    HW2 6471   1.291   3.404   4.352 -0.1491 -3.0650  0.4870
 1925SOL     OW 6472   4.374   2.294   2.688 -0.7331 -0.1291  0.2998
 1925SOL    HW1 6473   4.327   2.357   2.741 -1.7961 -1.1460  0.6021
 1925SOL    HW2 6474   4.441   2.258   2.747 -2.9098 -2.4183  1.5866
 1926SOL     OW 6475   5.122   1.410   4.165  0.3716  0.0257  0.1624
 1926SOL    HW1 6476   5.177   1.371   4.097  0.0169 -0.5029  0.1717
 1926SOL    HW2 6477   5.184   1.454   4.223  0.6365  0.9525 -0.7854
 1927SOL     OW 6478   1.974   3.793   5.301 -0.3308  0.5151 -0.2790
 1927SOL    HW1 6479   1.963   3.870   5.244 -0.5200  0.4778 -0.2927
 1927SOL    HW2 6480   1.923   3.814   5.379  2.5996  2.0761  1.4198
 1928SOL     OW 6481   4.671   4.118   0.826 -0.2335  0.0195 -0.7002
 1928SOL    HW1 6482   4.652   4.212   0.817 -0.0739  0.2799  1.2484
 1928SOL    HW2 6483   4.760   4.109   0.793  0.0945  0.7433 -0.0504
 1929SOL     OW 6484   2.439   3.609   5.384  0.2351 -0.0089 -0.2809
 1929SOL    HW1 6485   2.409   3.529   5.425 -1.2238 -0.4962 -2.1728
 1929SOL    HW2 6486   2.475   3.581   5.300 -1.8168  1.4160 -1.7173
 1930SOL     OW 6487   4.401   0.296   3.239 -0.4523  0.1683 -0.3057
 1930SOL    HW1 6488   4.351   0.302   3.157  0.1468  0.5647 -0.6576
 1930SOL    HW2 6489   4.449   0.379   3.243 -0.2878  0.0462  0.3276
 1931SOL     OW 6490   3.960   2.668   4.596  0.0408  0.3329 -0.7501
 1931SOL    HW1 6491   3.878   2.621   4.611  0.1920  0.5556  1.0457
 1931SOL    HW2 6492   3.937   2.761   4.607  0.2664  0.4962 -1.6164
 1932SOL     OW 6493   3.649   3.417   3.666 -0.1358  0.1978  0.0523
 1932SOL    HW1 6494   3.705   3.494   3.662 -1.2518  0.9707 -3.1740
 1932SOL    HW2 6495   3.567   3.449   3.705  0.2646 -0.0419  1.1485
 1933SOL     OW 6496   1.686   4.834   0.642 -0.3698  0.6405  0.1055
 1933SOL    HW1 6497   1.612   4.833   0.702  0.3687 -1.8336  1.0999
 1933SOL    HW2 6498   1.673   4.757   0.586  1.4967  0.0481  0.4108
 1934SOL     OW 6499   2.676   4.982   1.778  0.1358  0.3176  0.0177
 1934SOL    HW1 6500   2.737   4.993   1.852  1.3783 -0.2148 -0.8873
 1934SOL    HW2 6501   2.733   4.968   1.703 -1.1043  1.2929 -1.1383
 1935SOL     OW 6502   3.397   3.226   4.390  0.0483 -0.3369  0.5908
 1935SOL    HW1 6503   3.428   3.150   4.341 -0.7979  0.7128 -1.7388
 1935SOL    HW2 6504   3.346   3.190   4.462  2.1144 -1.9660  1.3449
 1936SOL     OW 6505   0.042   4.954   2.128  0.1754  0.2024  0.1321
 1936SOL    HW1 6506  -0.033   4.939   2.187  1.6777 -2.3437  1.5879
 1936SOL    HW2 6507   0.021   4.903   2.050  0.6102 -1.0398  0.7977
 1937SOL     OW 6508   3.589   3.358   0.232  0.2782 -0.3158 -0.1058
 1937SOL    HW1 6509   3.668   3.342   0.180  1.0192  0.3050  0.7959
 1937SOL    HW2 6510   3.519   3.370   0.167  0.6257 -2.2105 -0.9075
 1938SOL     OW 6511   5.375   3.094   2.762 -0.6216 -0.1555 -0.6330
 1938SOL    HW1 6512   5.293   3.134   2.791  0.9140  2.8012  0.0137
 1938SOL    HW2 6513   5.386   3.125   2.672 -0.7798 -1.6335 -1.2031
 1939SOL     OW 6514   2.679   0.799   3.987 -0.2154 -0.4212  0.6260
 1939SOL    HW1 6515   2.617   0.748   3.935 -1.9351  0.8729  1.3056
 1939SOL    HW2 6516   2.645   0.794   4.076 -0.7653  2.2818  0.6397
 1940SOL     OW 6517   4.620   2.746   4.349 -0.5640  0.0522  0.1846
 1940SOL    HW1 6518   4.555   2.731   4.418 -0.1229  1.3175  0.9223
 1940SOL    HW2 6519   4.568   2.780   4.276 -0.9398 -0.5252  0.1797
 1941SOL     OW 6520   1.654   1.845   2.048  0.5401  0.6047  0.2707
 1941SOL    HW1 6521   1.571   1.807   2.078  1.3097 -0.5266  1.0302
 1941SOL    HW2 6522   1.655   1.932   2.086 -0.3701  0.6933  0.1283
 1942SOL     OW 6523   4.156   1.332   2.360 -0.4305  0.1318 -0.0477
 1942SOL    HW1 6524   4.172   1.333   2.266 -2.0568  4.0966 -0.5010
 1942SOL    HW2 6525   4.061   1.341   2.369 -0.1558  2.4230  1.7814
 1943SOL     OW 6526   2.329   3.492   3.778  0.0682 -0.0808  0.1958
 1943SOL    HW1 6527   2.249   3.536   3.749  1.1975  1.1558 -1.2866
 1943SOL    HW2 6528   2.346   3.427   3.710  0.8627  0.4023 -0.0844
 1944SOL     OW 6529   0.491   4.652   2.464  0.2934 -0.3543  0.0458
 1944SOL    HW1 6530   0.576   4.633   2.505 -0.3738 -2.7818  0.4188
 1944SOL    HW2 6531   0.495   4.746   2.446  3.6056 -0.5785 -1.2131
 1945SOL     OW 6532   2.282   4.363   1.959  0.3863 -0.3476  0.0492
 1945SOL    HW1 6533   2.354   4.427   1.956  1.0112 -0.9996  0.6869
 1945SOL    HW2 6534   2.204   4.416   1.972  0.9100  0.2877  0.6961
 1946SOL     OW 6535   3.367   3.111   3.629 -0.1875 -0.8201 -0.3717
 1946SOL    HW1 6536   3.378   3.069   3.543  2.0258  1.6397 -1.4184
 1946SOL    HW2 6537   3.415   3.055   3.689 -0.6670 -1.8789 -0.9380
 1947SOL     OW 6538   4.543   1.448   2.262  0.4009 -0.0052 -0.3067
 1947SOL    HW1 6539   4.553   1.473   2.354 -0.0088 -0.1027 -0.2366
 1947SOL    HW2 6540   4.467   1.497   2.231 -0.4987 -1.2439 -0.1261
 1948SOL     OW 6541   4.314   3.770   5.110 -0.2330  0.3946  0.9024
 1948SOL    HW1 6542   4.295   3.706   5.178  0.8911  0.3597  1.1958
 1948SOL    HW2 6543   4.232   3.818   5.099 -0.8349 -0.5180  1.2852
 1949SOL     OW 6544   5.353   1.916   4.222 -0.0729  0.5811 -0.3563
 1949SOL    HW1 6545   5.347   1.947   4.312 -0.9297 -1.7854  0.4854
 1949SOL    HW2 6546   5.272   1.867   4.208  1.5250 -2.0675 -1.1519
 1950SOL     OW 6547   5.199   4.234   1.445 -0.3679 -0.3690 -0.0463
 1950SOL    HW1 6548   5.258   4.202   1.513 -0.8608  0.2842  0.7050
 1950SOL    HW2 6549   5.257   4.272   1.379  0.0641  0.2258  0.6551
 1951SOL     OW 6550   1.723   0.909   2.159  0.1947 -0.2985 -0.2591
 1951SOL    HW1 6551   1.641   0.953   2.181  0.7321  1.1187 -0.9632
 1951SOL    HW2 6552   1.717   0.824   2.202 -1.8049 -0.3847 -0.6052
 1952SOL     OW 6553   1.303   0.042   1.103 -0.4275  0.5862 -0.3782
 1952SOL    HW1 6554   1.380   0.099   1.106 -0.0732  0.1516  2.9472
 1952SOL    HW2 6555   1.337  -0.044   1.081 -0.2898  0.8080 -1.0379
 1953SOL     OW 6556   4.650   1.910   3.000  0.6291 -0.3537 -0.6241
 1953SOL    HW1 6557   4.576   1.859   3.033  1.2148 -0.1902  1.0621
 1953SOL    HW2 6558   4.708   1.846   2.960 -0.2002 -0.5419 -1.5357
 1954SOL     OW 6559   4.757   4.678   2.972  0.2925 -0.1675 -0.3905
 1954SOL    HW1 6560   4.735   4.591   2.939 -0.5833  0.0593 -0.4308
 1954SOL    HW2 6561   4.775   4.730   2.894 -1.0853  0.1821 -0.5052
 1955SOL     OW 6562   0.455   2.901   0.726 -0.2471 -0.5695 -0.5009
 1955SOL    HW1 6563   0.544   2.908   0.691 -0.2456  0.4619 -0.3152
 1955SOL    HW2 6564   0.402   2.872   0.652 -0.1284  0.9423 -1.2084
 1956SOL     OW 6565   2.175   5.288   5.209  0.4283  0.0564 -0.1553
 1956SOL    HW1 6566   2.206   5.200   5.188 -1.4892 -1.1067  1.4496
 1956SOL    HW2 6567   2.082   5.286   5.185  0.6667  2.1804 -1.4930
 1957SOL     OW 6568   1.196   0.285   4.592 -0.2286  0.7145 -0.1390
 1957SOL    HW1 6569   1.121   0.251   4.641 -2.5334  0.8326 -3.2491
 1957SOL    HW2 6570   1.273   0.255   4.641 -2.2486 -1.2827  2.0788
 1958SOL     OW 6571   0.892   3.944   1.306  0.0972 -0.1281 -0.2646
 1958SOL    HW1 6572   0.827   3.981   1.245  0.5049  1.2015  0.0721
 1958SOL    HW2 6573   0.887   3.850   1.291 -2.0334 -0.0895 -0.1256
 1959SOL     OW 6574   3.212   0.025   4.375  0.1605  0.2558 -0.4715
 1959SOL    HW1 6575   3.263   0.099   4.407  1.2241 -0.3467 -0.7169
 1959SOL    HW2 6576   3.259  -0.004   4.297 -1.5811  0.8106 -1.7970
 1960SOL     OW 6577   0.502   2.040   5.344 -0.5692 -0.1787 -0.0435
 1960SOL    HW1 6578   0.499   2.114   5.283  0.2583 -0.9725 -1.0796
 1960SOL    HW2 6579   0.557   2.071   5.416  0.8170 -0.1964 -1.0624
 1961SOL     OW 6580   5.033   4.697   2.759 -0.2821 -0.1527  0.0628
 1961SOL    HW1 6581   5.113   4.680   2.808  0.2597  1.6965 -0.1270
 1961SOL    HW2 6582   5.063   4.732   2.675 -1.2693 -0.7875 -0.5823
 1962SOL     OW 6583   4.248   1.244   4.132 -0.4897  0.1481 -0.3507
 1962SOL    HW1 6584   4.233   1.229   4.038 -2.4817  1.4382 -0.3133
 1962SOL    HW2 6585   4.184   1.187   4.175 -0.8064  0.8596  0.1420
 1963SOL     OW 6586   0.426   1.449   4.964  0.2877  0.1994  0.1089
 1963SOL    HW1 6587   0.388   1.459   4.877  1.1638  1.4279 -0.1578
 1963SOL    HW2 6588   0.477   1.369   4.959 -2.3853 -1.6707  0.5656
 1964SOL     OW 6589   4.894   2.720   0.534 -1.0523 -0.4247 -0.5176
 1964SOL    HW1 6590   4.839   2.747   0.608  0.4276  0.3077  0.3558
 1964SOL    HW2 6591   4.951   2.651   0.570 -0.6531 -0.4144 -1.1071
 1965SOL     OW 6592   1.912   3.953   1.841  0.0334 -0.1745 -0.3638
 1965SOL    HW1 6593   1.897   3.960   1.747  1.9428  1.0366 -0.6261
 1965SOL    HW2 6594   1.984   3.891   1.850 -0.6182 -0.8494  0.3703
 1966SOL     OW 6595   0.428   0.060   4.582  0.2442 -0.1887  0.9239
 1966SOL    HW1 6596   0.391   0.129   4.526  1.8121 -1.5506 -1.9859
 1966SOL    HW2 6597   0.355  -0.000   4.595  0.4109 -1.2696 -2.1635
 1967SOL     OW 6598   4.923   1.565   0.533 -0.2911 -0.3989 -0.2731
 1967SOL    HW1 6599   5.017   1.576   0.521 -0.3912  1.9863  0.7215
 1967SOL    HW2 6600   4.916   1.493   0.597  0.8411 -0.4756 -0.2152
 1968SOL     OW 6601   4.703   3.052   2.029  0.7156  0.0506 -0.5586
 1968SOL    HW1 6602   4.750   3.126   2.067  2.1043 -1.2935  0.5086
 1968SOL    HW2 6603   4.738   3.046   1.940 -0.2553  1.3342 -1.0533
 1969SOL     OW 6604   3.315   5.123   4.939  0.4972  0.5486  0.1736
 1969SOL    HW1 6605   3.400   5.121   4.897  1.4093 -1.8784  1.8810
 1969SOL    HW2 6606   3.252   5.116   4.867  1.6367  2.9899 -1.1572
 1970SOL     OW 6607   4.938   1.100   2.632 -0.1985 -0.1319  0.3519
 1970SOL    HW1 6608   4.995   1.061   2.697 -0.9979 -0.6370  0.7726
 1970SOL    HW2 6609   4.852   1.059   2.648 -0.6595  0.5554 -0.2936
 1971SOL     OW 6610   4.943   2.528   0.956  0.3953 -0.0919  0.4724
 1971SOL    HW1 6611   5.026   2.479   0.960 -0.2427 -1.1102  2.2838
 1971SOL    HW2 6612   4.880   2.464   0.924 -0.0516  0.1337  0.9030
 1972SOL     OW 6613   2.107   1.245   0.133  0.0346  0.1803  0.5027
 1972SOL    HW1 6614   2.045   1.252   0.060  0.2035 -0.1756  0.3254
 1972SOL    HW2 6615   2.119   1.336   0.162  2.2382  0.7706 -1.8339
 1973SOL     OW 6616   2.342   5.049   2.280  0.6732  0.5461 -0.5230
 1973SOL    HW1 6617   2.407   4.979   2.273  1.3628  0.9505  1.3699
 1973SOL    HW2 6618   2.259   5.006   2.259  0.7752 -1.4441  2.5286
 1974SOL     OW 6619   2.535   2.409   4.376 -0.2287  0.7744 -0.0649
 1974SOL    HW1 6620   2.472   2.338   4.363  1.0719 -0.7617  1.5826
 1974SOL    HW2 6621   2.577   2.389   4.459  2.5846  1.6358 -1.1740
 1975SOL     OW 6622   1.734   0.001   2.200 -0.4980 -0.7812 -0.2531
 1975SOL    HW1 6623   1.814  -0.049   2.218  1.2908  1.6205 -1.0584
 1975SOL    HW2 6624   1.712   0.043   2.283 -0.2028 -0.4448 -0.3478
 1976SOL     OW 6625   1.158   3.474   1.629  0.4984  0.2268 -0.2796
 1976SOL    HW1 6626   1.247   3.439   1.627  0.6303  0.5745 -1.1639
 1976SOL    HW2 6627   1.163   3.551   1.687  0.6650 -0.0203  0.0363
 1977SOL     OW 6628   3.369   2.262   1.962 -0.2390  0.3997  0.0168
 1977SOL    HW1 6629   3.338   2.345   2.000 -0.0201  0.7947 -0.6465
 1977SOL    HW2 6630   3.444   2.287   1.908  0.8507 -0.4672  1.0940
 1978SOL     OW 6631   0.612   1.163   4.409 -0.9262  0.2897 -0.3138
 1978SOL    HW1 6632   0.685   1.172   4.471 -0.9590 -0.3364 -0.1750
 1978SOL    HW2 6633   0.537   1.202   4.455 -0.8224  0.3457 -0.1910
 1979SOL     OW 6634   2.677   1.062   0.810 -0.2407 -0.3110 -0.5798
 1979SOL    HW1 6635   2.680   1.081   0.716 -0.4482  1.2595 -0.2970
 1979SOL    HW2 6636   2.665   1.147   0.851 -2.1791 -1.1792  0.7804
 1980SOL     OW 6637   2.713   3.215   4.642 -0.3401  0.7154  0.1072
 1980SOL    HW1 6638   2.724   3.150   4.712  0.5616  1.2815  0.5248
 1980SOL    HW2 6639   2.705   3.163   4.562  1.3632  0.0794  0.3051
 1981SOL     OW 6640   2.404   4.088   0.023 -0.4441 -0.1670 -0.1628
 1981SOL    HW1 6641   2.486   4.076   0.070 -0.0271 -2.8421 -1.4098
 1981SOL    HW2 6642   2.430   4.103  -0.068 -1.3128  1.4246 -0.1822
 1982SOL     OW 6643   3.350   2.298   3.709 -0.2795 -0.0431  0.5136
 1982SOL    HW1 6644   3.267   2.258   3.683 -1.5626  2.5126  0.3656
 1982SOL    HW2 6645   3.360   2.373   3.650  0.7083  1.3460  2.3429
 1983SOL     OW 6646   5.150   5.232   0.957  0.4508  0.1140  0.8977
 1983SOL    HW1 6647   5.175   5.276   0.876 -1.5547 -0.7454 -0.2777
 1983SOL    HW2 6648   5.122   5.303   1.015 -1.7796  0.5832 -0.6120
 1984SOL     OW 6649   5.187   3.396   4.160 -0.1297  0.5338  0.0727
 1984SOL    HW1 6650   5.173   3.439   4.244 -3.0207  0.3115 -0.1813
 1984SOL    HW2 6651   5.216   3.466   4.101  0.1685  1.0492  0.8278
 1985SOL     OW 6652   0.745   2.693   3.575 -0.6325 -0.3851 -0.0888
 1985SOL    HW1 6653   0.655   2.713   3.551 -0.7634  0.3275  0.9238
 1985SOL    HW2 6654   0.797   2.732   3.504 -1.1018 -0.6275 -0.5766
 1986SOL     OW 6655   5.232   2.629   2.053  0.4064 -0.5288 -0.1440
 1986SOL    HW1 6656   5.249   2.712   2.096 -2.4752 -0.1872  0.5652
 1986SOL    HW2 6657   5.169   2.585   2.110  0.8141 -2.6060 -1.1879
 1987SOL     OW 6658   1.110   5.354   3.440  0.0277 -0.4726 -0.8258
 1987SOL    HW1 6659   1.018   5.325   3.441  0.5130 -2.2182 -1.9837
 1987SOL    HW2 6660   1.121   5.395   3.354 -0.0832  1.3613 -0.0093
 1988SOL     OW 6661   1.095   5.138   4.768 -0.1943  0.3756  0.7273
 1988SOL    HW1 6662   1.089   5.180   4.683  0.2394  1.3000  1.1438
 1988SOL    HW2 6663   1.070   5.205   4.831  1.2664  0.2906  1.4636
 1989SOL     OW 6664   0.023   5.072   3.193  0.4713 -0.0194  0.0329
 1989SOL    HW1 6665   0.029   5.011   3.266  0.4845 -0.2208 -0.1367
 1989SOL    HW2 6666  -0.028   5.145   3.227  2.3917  0.9584  0.9745
 1990SOL     OW 6667   4.439   5.251   5.318 -0.6673 -0.0887  0.1717
 1990SOL    HW1 6668   4.439   5.164   5.279 -0.5618 -0.0516  0.0873
 1990SOL    HW2 6669   4.481   5.307   5.252  0.1087 -0.1440  0.5962
 1991SOL     OW 6670   0.000   1.425   2.941 -0.3797  0.1888 -0.9498
 1991SOL    HW1 6671   0.050   1.433   2.860 -0.8366 -1.6037 -1.4604
 1991SOL    HW2 6672  -0.013   1.515   2.971  3.5947  0.7799 -0.4707
 1992SOL     OW 6673   0.063   3.460   0.187  0.0116  0.0565 -0.1167
 1992SOL    HW1 6674   0.078   3.369   0.159  2.1569  0.1296  0.6288
 1992SOL    HW2 6675   0.015   3.452   0.269  0.2125 -0.3986 -0.0415
 1993SOL     OW 6676   5.199   5.209   5.309 -0.1781 -0.1840 -0.2318
 1993SOL    HW1 6677   5.290   5.182   5.300 -0.3190 -0.7666  0.0492
 1993SOL    HW2 6678   5.162   5.150   5.375 -0.9851 -0.5323 -0.9665
 1994SOL     OW 6679   3.679   0.172   1.913 -0.2324 -0.6814 -0.0884
 1994SOL    HW1 6680   3.606   0.149   1.855  0.8522 -1.1065 -1.3240
 1994SOL    HW2 6681   3.748   0.203   1.854 -0.5081  3.0086  1.2243
 1995SOL     OW 6682   0.194   3.141   4.169 -0.0120  0.0396  0.0994
 1995SOL    HW1 6683   0.133   3.075   4.134  0.2497  0.6692 -1.6257
 1995SOL    HW2 6684   0.185   3.216   4.110  1.9307  0.4083  0.2167
 1996SOL     OW 6685   1.423   4.167   0.736  0.9365 -0.0290  0.1810
 1996SOL    HW1 6686   1.485   4.167   0.663  0.1673 -0.8638 -0.4968
 1996SOL    HW2 6687   1.355   4.228   0.709  0.8726 -0.0030  0.4012
 1997SOL     OW 6688   0.285   3.703   2.460  0.1138  0.4170  0.5548
 1997SOL    HW1 6689   0.327   3.658   2.387  0.8437  0.6127  0.8452
 1997SOL    HW2 6690   0.357   3.746   2.506 -0.3620  0.4496  1.2782
 1998SOL     OW 6691   0.553   1.973   0.948  0.1716  0.2440 -0.1038
 1998SOL    HW1 6692   0.527   2.061   0.975 -1.2985  0.2067 -1.2593
 1998SOL    HW2 6693   0.470   1.927   0.936  0.8791 -0.8127 -1.1066
 1999SOL     OW 6694   4.095   1.839   2.161 -0.4475 -0.1737  0.8616
 1999SOL    HW1 6695   4.113   1.824   2.254  2.1780 -0.8280  0.3189
 1999SOL    HW2 6696   4.158   1.906   2.134 -0.8896 -0.2753 -0.5282
 2000SOL     OW 6697   2.559   2.975   0.238 -0.3042  0.0271  0.5332
 2000SOL    HW1 6698   2.639   2.950   0.284 -0.4745  1.3562  1.6111
 2000SOL    HW2 6699   2.540   2.900   0.181  1.2268 -0.6624  0.8744
 2001SOL     OW 6700   3.203   0.047   4.741 -0.1123  0.1704 -0.2899
 2001SOL    HW1 6701   3.248  -0.025   4.785 -0.3312  0.8630  1.1501
 2001SOL    HW2 6702   3.111   0.020   4.738 -0.1484  0.2506 -0.0054
 2002SOL     OW 6703   2.782   0.244   2.971  0.1949 -0.2316  0.2939
 2002SOL    HW1 6704   2.802   0.151   2.975 -2.3961 -0.9072 -0.3141
 2002SOL    HW2 6705   2.748   0.257   2.883 -0.5781  1.0277  0.7578
 2003SOL     OW 6706   0.621   2.701   0.843 -0.0752 -0.4000 -0.1072
 2003SOL    HW1 6707   0.607   2.796   0.839  0.8992 -0.2673 -0.9320
 2003SOL    HW2 6708   0.605   2.678   0.934  0.1499  0.6463  0.2144
 2004SOL     OW 6709   4.031   1.217   3.660  0.0146 -0.2529  0.3228
 2004SOL    HW1 6710   3.966   1.148   3.675  0.2602 -1.0637 -1.8831
 2004SOL    HW2 6711   4.035   1.225   3.564  2.9299 -0.0355  0.3832
 2005SOL     OW 6712   0.598   1.427   3.370 -0.1413  0.2450  0.2171
 2005SOL    HW1 6713   0.503   1.444   3.370 -0.1492  0.2030  0.3503
 2005SOL    HW2 6714   0.636   1.512   3.394 -0.1105  0.4377 -0.4962
 2006SOL     OW 6715   4.992   4.673   0.163  0.2580  0.1989 -0.0579
 2006SOL    HW1 6716   4.969   4.666   0.256  1.1469  0.1492  0.1681
 2006SOL    HW2 6717   5.087   4.685   0.163  0.4541 -1.1080 -1.0086
 2007SOL     OW 6718   3.899   0.801   1.941  0.1318 -0.7182 -0.2619
 2007SOL    HW1 6719   3.971   0.863   1.930 -1.7554  1.3199 -2.2712
 2007SOL    HW2 6720   3.826   0.855   1.971 -0.6449 -2.7145  1.7656
 2008SOL     OW 6721   1.547   2.468   2.830 -0.0440 -0.2071 -0.2409
 2008SOL    HW1 6722   1.557   2.400   2.764 -2.2700 -1.5019  0.6359
 2008SOL    HW2 6723   1.455   2.494   2.824 -0.2011 -0.0525  2.0093
 2009SOL     OW 6724   4.352   3.324   4.386  0.2262  0.8071 -0.0739
 2009SOL    HW1 6725   4.329   3.240   4.347  0.2921  1.0014 -0.5428
 2009SOL    HW2 6726   4.383   3.377   4.312  1.5763  0.7572  0.4349
 2010SOL     OW 6727   0.215   3.909   5.345 -0.6199 -0.1061 -0.3826
 2010SOL    HW1 6728   0.176   3.862   5.272 -1.3180 -0.2979  0.1020
 2010SOL    HW2 6729   0.266   3.842   5.392 -1.6950 -0.4179  0.3639
 2011SOL     OW 6730   4.251   5.175   0.076  0.1512 -0.3409 -0.0759
 2011SOL    HW1 6731   4.309   5.120   0.129  1.6938  2.4739  1.4418
 2011SOL    HW2 6732   4.311   5.222   0.017 -0.7105  1.4509  0.3995
 2012SOL     OW 6733   3.821   4.106   3.149  0.4498  0.4734  0.7508
 2012SOL    HW1 6734   3.908   4.141   3.131  0.7152  0.6145  2.1501
 2012SOL    HW2 6735   3.787   4.161   3.220 -0.7415  0.3496  0.2979
 2013SOL     OW 6736   2.002   4.295   0.216  0.3178  0.1421 -0.3160
 2013SOL    HW1 6737   2.051   4.223   0.177 -0.1759 -0.1705 -0.3710
 2013SOL    HW2 6738   1.932   4.313   0.154  0.1322  0.3183 -0.0586
 2014SOL     OW 6739   2.910   4.742   0.072 -0.5085  0.4057  0.0055
 2014SOL    HW1 6740   2.971   4.739   0.146  1.1015  0.3470 -1.2594
 2014SOL    HW2 6741   2.957   4.697   0.001 -2.2403 -0.0616 -0.8911
 2015SOL     OW 6742   4.196   3.585   2.535 -0.0304  0.0357  0.1552
 2015SOL    HW1 6743   4.209   3.680   2.532  0.5754 -0.0646 -1.1261
 2015SOL    HW2 6744   4.146   3.566   2.456  0.7711 -0.8448 -0.1518
 2016SOL     OW 6745   3.387   3.454   1.373 -0.0601  0.8570  0.0105
 2016SOL    HW1 6746   3.445   3.440   1.448  0.8521 -2.0989 -1.1213
 2016SOL    HW2 6747   3.443   3.498   1.308 -0.2869  1.6301  0.3251
 2017SOL     OW 6748   4.534   0.489   1.356  0.0959  0.1242  0.3891
 2017SOL    HW1 6749   4.515   0.575   1.394 -3.1001 -0.5248  0.5620
 2017SOL    HW2 6750   4.516   0.427   1.427 -1.7822 -0.8634 -0.8789
 2018SOL     OW 6751   3.711   0.267   4.549 -0.8890 -0.4199  0.3038
 2018SOL    HW1 6752   3.739   0.322   4.622  0.2741 -0.5360 -0.0285
 2018SOL    HW2 6753   3.676   0.328   4.484 -0.0890 -0.0983  0.1539
 2019SOL     OW 6754   3.160   3.733   5.219 -0.4414 -0.4782 -0.7050
 2019SOL    HW1 6755   3.065   3.718   5.216 -0.4263 -0.4104 -1.6072
 2019SOL    HW2 6756   3.198   3.646   5.230 -0.6131 -0.4624  0.1508
 2020SOL     OW 6757   4.761   2.359   5.375 -0.3512  0.0505  0.8028
 2020SOL    HW1 6758   4.808   2.294   5.323 -1.3814 -0.1328  0.0793
 2020SOL    HW2 6759   4.773   2.330   5.466  1.4785  0.3856  0.7031
 2021SOL     OW 6760   2.461   3.693   4.217  0.0567 -0.1754  0.1284
 2021SOL    HW1 6761   2.530   3.706   4.152  0.3203 -0.6790  0.3055
 2021SOL    HW2 6762   2.404   3.770   4.207  1.2875  0.8746  0.8004
 2022SOL     OW 6763   0.831   3.707   4.107  0.6959 -0.0220  0.6781
 2022SOL    HW1 6764   0.739   3.683   4.107  0.7438 -0.2122  0.5224
 2022SOL    HW2 6765   0.875   3.632   4.148  0.9208 -0.5121 -0.4082
 2023SOL     OW 6766   3.154   0.855   2.182  0.0598 -0.2570  0.5723
 2023SOL    HW1 6767   3.119   0.883   2.267  0.5515 -0.1756  0.7501
 2023SOL    HW2 6768   3.112   0.771   2.165  2.0870 -1.7192  2.2706
 2024SOL     OW 6769   0.149   2.885   4.061 -0.2865 -0.0515 -0.2631
 2024SOL    HW1 6770   0.230   2.921   4.026  0.4809 -1.3459  0.1160
 2024SOL    HW2 6771   0.104   2.848   3.985 -0.8662  1.2757 -0.5804
 2025SOL     OW 6772   4.796   1.197   0.115 -0.1015 -0.3343 -0.2221
 2025SOL    HW1 6773   4.854   1.197   0.191 -1.5636  0.6645  0.9582
 2025SOL    HW2 6774   4.786   1.290   0.092 -1.3371 -0.4654 -0.2815
 2026SOL     OW 6775   3.563   4.929   3.109 -0.4797  0.3250 -0.1083
 2026SOL    HW1 6776   3.606   4.987   3.172  1.8399  0.3754 -1.6092
 2026SOL    HW2 6777   3.538   4.853   3.160 -0.6928  1.2978  1.2924
 2027SOL     OW 6778   2.209   1.058   0.295 -0.2969 -0.5121  0.5664
 2027SOL    HW1 6779   2.182   1.117   0.226 -0.3673  0.7765  1.6554
 2027SOL    HW2 6780   2.132   1.004   0.313 -0.5395 -0.2781  0.2314
 2028SOL     OW 6781   3.748   0.867   2.213  0.4049 -0.2920  0.2369
 2028SOL    HW1 6782   3.687   0.804   2.252  0.7695 -0.9554 -0.2307
 2028SOL    HW2 6783   3.693   0.926   2.161  0.1174 -0.6609  0.1166
 2029SOL     OW 6784   4.004   2.659   2.482  0.0379 -0.0164  0.5319
 2029SOL    HW1 6785   4.070   2.592   2.502 -1.0336 -1.1002  0.5806
 2029SOL    HW2 6786   3.955   2.669   2.564  0.0610  0.6846  0.4623
 2030SOL     OW 6787   1.836   4.062   4.742  0.5976  0.4277 -0.1971
 2030SOL    HW1 6788   1.913   4.022   4.782  1.3617  3.2262  1.3823
 2030SOL    HW2 6789   1.810   4.131   4.803 -1.7868  1.0703 -1.7972
 2031SOL     OW 6790   0.855   1.317   0.906  0.1166  0.6492 -0.2801
 2031SOL    HW1 6791   0.786   1.320   0.972 -1.1456 -0.1465 -1.5063
 2031SOL    HW2 6792   0.873   1.409   0.887  0.9902  0.9084  1.6180
 2032SOL     OW 6793   3.465   3.707   5.186 -0.1466 -0.2313 -0.0226
 2032SOL    HW1 6794   3.489   3.633   5.130 -1.5947  0.0407 -1.0718
 2032SOL    HW2 6795   3.495   3.784   5.137 -0.0610 -0.0456  0.3166
 2033SOL     OW 6796   1.448   1.402   1.340 -0.0921 -0.3534 -0.6724
 2033SOL    HW1 6797   1.513   1.463   1.375  0.3994 -1.3680  0.2243
 2033SOL    HW2 6798   1.405   1.451   1.271 -1.2641  1.8715  1.4586
 2034SOL     OW 6799   2.178   3.190   1.848  0.2669 -0.4555 -0.4498
 2034SOL    HW1 6800   2.245   3.249   1.813  1.2335  0.9158  3.2659
 2034SOL    HW2 6801   2.220   3.104   1.846  1.2566  0.0023 -0.3026
 2035SOL     OW 6802   3.026   1.214   2.926 -0.4929  0.4883  0.5225
 2035SOL    HW1 6803   2.949   1.160   2.904 -0.1321 -0.3428  1.2486
 2035SOL    HW2 6804   3.051   1.185   3.013  1.0339  0.3057  0.0503
 2036SOL     OW 6805   0.274   3.981   3.657  0.7519  0.1662  0.5729
 2036SOL    HW1 6806   0.241   3.898   3.690 -1.5070  0.8742  0.2539
 2036SOL    HW2 6807   0.273   3.971   3.561  0.3346  0.5818  0.5271
 2037SOL     OW 6808   4.867   2.852   4.473 -0.0654 -0.0113 -0.1384
 2037SOL    HW1 6809   4.924   2.835   4.398  0.7834  1.4173  0.1598
 2037SOL    HW2 6810   4.783   2.813   4.448  0.9829 -2.0901 -0.6068
 2038SOL     OW 6811   2.318   5.171   4.432  0.6098 -0.7299  0.4315
 2038SOL    HW1 6812   2.254   5.148   4.500  1.3944  1.1903  1.9142
 2038SOL    HW2 6813   2.277   5.144   4.350 -3.0148  2.0156  1.0784
 2039SOL     OW 6814   0.408   4.634   3.160  0.4209  0.1575 -0.1039
 2039SOL    HW1 6815   0.432   4.596   3.076  1.0834  3.3674 -1.4832
 2039SOL    HW2 6816   0.360   4.714   3.138  1.0167  1.3462  2.5408
 2040SOL     OW 6817   0.239   3.933   1.771 -0.3167  0.2309  0.2060
 2040SOL    HW1 6818   0.298   3.960   1.842 -0.8665 -0.9359  1.1343
 2040SOL    HW2 6819   0.153   3.966   1.798 -0.3792  0.5626 -0.3752
 2041SOL     OW 6820   2.647   2.084   3.103  0.1048 -0.1480 -0.0499
 2041SOL    HW1 6821   2.657   2.173   3.137  0.1443 -0.1885  0.0456
 2041SOL    HW2 6822   2.599   2.037   3.171 -0.7251  0.0362 -0.4989
 2042SOL     OW 6823   2.809   4.775   3.271 -0.0160  0.2208 -0.0772
 2042SOL    HW1 6824   2.883   4.781   3.212 -0.6032  0.7052 -0.7876
 2042SOL    HW2 6825   2.815   4.688   3.310  1.7460  0.7785  1.0134
 2043SOL     OW 6826   1.950   0.250   0.620  0.2778 -0.0724  0.0476
 2043SOL    HW1 6827   1.925   0.159   0.609 -0.7919  0.1502  0.4627
 2043SOL    HW2 6828   1.869   0.294   0.649  0.7065  1.0478 -0.3837
 2044SOL     OW 6829   3.962   0.109   1.042  0.2634  0.4312 -0.0290
 2044SOL    HW1 6830   3.974   0.203   1.056  0.7993  0.3890 -0.1796
 2044SOL    HW2 6831   4.045   0.070   1.070  0.1172  0.0249 -0.1581
 2045SOL     OW 6832   4.145   4.915   0.575  0.3368  0.0377 -0.4155
 2045SOL    HW1 6833   4.093   4.986   0.614 -1.9267 -1.5155 -0.4279
 2045SOL    HW2 6834   4.173   4.862   0.649 -0.8707 -0.8941 -0.5990
 2046SOL     OW 6835   2.909   2.299   0.686  0.4028 -0.4947  0.1254
 2046SOL    HW1 6836   2.816   2.305   0.664 -0.0205 -1.5036  1.4998
 2046SOL    HW2 6837   2.919   2.358   0.761  0.4745 -1.6672  1.0673
 2047SOL     OW 6838   4.089   2.177   0.611 -0.0884  0.1650 -0.1423
 2047SOL    HW1 6839   4.108   2.151   0.520  2.8678 -0.9233  0.6787
 2047SOL    HW2 6840   4.114   2.101   0.663 -0.2932  1.3007  1.6921
 2048SOL     OW 6841   4.049   4.569   2.360 -0.0445  0.1125 -0.2410
 2048SOL    HW1 6842   4.138   4.547   2.388  0.3467 -0.5383 -1.8529
 2048SOL    HW2 6843   4.061   4.638   2.295 -0.7014 -0.0325 -0.5194
 2049SOL     OW 6844   4.332   2.143   1.147  0.6305  0.1559 -0.0477
 2049SOL    HW1 6845   4.396   2.203   1.186  1.2150 -0.1416 -0.5448
 2049SOL    HW2 6846   4.364   2.127   1.059  0.4929 -0.9140  0.0876
 2050SOL     OW 6847   0.676   4.299   4.543  0.2492 -0.0922 -0.4488
 2050SOL    HW1 6848   0.760   4.309   4.499 -0.5048  0.0813 -1.9215
 2050SOL    HW2 6849   0.616   4.352   4.492 -0.7242 -0.0038  0.7290
 2051SOL     OW 6850   1.007   5.314   4.934 -0.2220  0.6075  0.0842
 2051SOL    HW1 6851   1.059   5.330   5.013 -0.1724  2.0798 -0.2163
 2051SOL    HW2 6852   0.927   5.364   4.948 -1.7983 -1.9318  0.7069
 2052SOL     OW 6853   4.966   4.790   4.538  0.5334 -0.1458 -0.0057
 2052SOL    HW1 6854   4.932   4.715   4.586  1.3067 -0.5355 -0.0456
 2052SOL    HW2 6855   4.979   4.758   4.449  3.2562 -0.7668  0.5267
 2053SOL     OW 6856   1.067   0.930   1.941  0.2420  0.1117 -0.2981
 2053SOL    HW1 6857   1.161   0.931   1.964 -0.2004  0.7365  1.7483
 2053SOL    HW2 6858   1.043   1.022   1.936 -0.4882 -0.0433  0.2592
 2054SOL     OW 6859   4.683   3.905   0.502 -0.8070 -0.7403  0.2636
 2054SOL    HW1 6860   4.736   3.832   0.470 -0.7629 -0.8880  0.6777
 2054SOL    HW2 6861   4.669   3.887   0.595 -0.6658 -0.1418  0.4035
 2055SOL     OW 6862   2.278   1.908   4.473 -0.1686  0.1024  1.0450
 2055SOL    HW1 6863   2.200   1.870   4.513 -1.0381  0.4587 -0.2556
 2055SOL    HW2 6864   2.262   1.904   4.379  0.4604  2.0706  0.7985
 2056SOL     OW 6865   4.555   4.048   0.250  0.1894  0.5201 -0.1520
 2056SOL    HW1 6866   4.524   4.118   0.308 -0.5872 -0.2550  0.4026
 2056SOL    HW2 6867   4.629   4.009   0.297  0.3528  0.7013 -0.2615
 2057SOL     OW 6868   1.820   0.159   1.929  0.7002 -0.1590  0.0035
 2057SOL    HW1 6869   1.812   0.115   2.013 -0.0755 -2.4708 -1.1850
 2057SOL    HW2 6870   1.903   0.127   1.893  1.4011  1.3885  0.1626
 2058SOL     OW 6871   0.893   4.029   5.337  0.1051 -0.1021  0.1547
 2058SOL    HW1 6872   0.953   4.070   5.398  2.1226 -1.8707 -0.5155
 2058SOL    HW2 6873   0.858   4.101   5.285  0.8813  1.0770  1.2256
 2059SOL     OW 6874   4.189   3.748   0.967  0.5724 -0.4100 -0.2248
 2059SOL    HW1 6875   4.172   3.655   0.985 -1.0488 -0.0560  0.2498
 2059SOL    HW2 6876   4.154   3.762   0.879 -2.7582  0.5424  1.1186
 2060SOL     OW 6877   1.036   2.591   0.416 -0.1349 -0.1271 -0.0861
 2060SOL    HW1 6878   1.080   2.509   0.392 -0.7234 -0.4514 -0.0964
 2060SOL    HW2 6879   1.094   2.632   0.479 -1.2195 -2.0420  2.3193
 2061SOL     OW 6880   0.740   2.798   4.373 -0.0960  0.0972 -0.3565
 2061SOL    HW1 6881   0.753   2.739   4.447  0.4616 -0.1566 -0.6545
 2061SOL    HW2 6882   0.695   2.744   4.308  0.6070 -0.0668 -0.7121
 2062SOL     OW 6883   1.317   1.774   1.711 -0.4379  0.0256  0.0281
 2062SOL    HW1 6884   1.406   1.775   1.747  0.4259  0.1220 -1.9845
 2062SOL    HW2 6885   1.326   1.730   1.626 -2.2912  0.2069 -0.3027
 2063SOL     OW 6886   2.005   5.084   0.049 -0.1029  0.5755  0.2201
 2063SOL    HW1 6887   2.013   5.001   0.096 -2.4720  0.4327  0.5064
 2063SOL    HW2 6888   2.043   5.067  -0.037 -1.2669 -1.1099 -0.0118
 2064SOL     OW 6889   0.528   1.804   0.296 -0.3119 -0.2847 -0.5350
 2064SOL    HW1 6890   0.457   1.846   0.248 -0.3758 -0.7079 -0.8172
 2064SOL    HW2 6891   0.566   1.743   0.233  0.2758 -0.0907 -0.3691
 2065SOL     OW 6892   1.342   0.188   0.040  0.1923  0.1502 -0.0054
 2065SOL    HW1 6893   1.381   0.172   0.126 -0.4997  0.6734  0.4225
 2065SOL    HW2 6894   1.390   0.131  -0.020 -0.6997 -1.8164  1.0544
 2066SOL     OW 6895   2.177   3.965   3.014 -0.3250 -0.5468 -0.2795
 2066SOL    HW1 6896   2.190   4.058   3.027 -0.8951 -0.4953 -0.0308
 2066SOL    HW2 6897   2.230   3.923   3.081 -0.4919 -0.3822 -0.0434
 2067SOL     OW 6898   2.529   0.182   4.232  0.2295 -0.0708 -0.0159
 2067SOL    HW1 6899   2.542   0.147   4.144 -1.5136  1.5250 -0.9690
 2067SOL    HW2 6900   2.586   0.259   4.235 -0.2642  0.2996 -0.0317
 2068SOL     OW 6901   1.314   3.328   1.945 -0.1722 -0.3893 -0.3572
 2068SOL    HW1 6902   1.361   3.300   2.023  1.2075 -0.5817 -1.2293
 2068SOL    HW2 6903   1.292   3.246   1.900  1.0586 -0.2135 -1.3073
 2069SOL     OW 6904   1.522   0.044   1.463  0.2122  0.1948 -0.4641
 2069SOL    HW1 6905   1.555   0.118   1.514 -0.4450  1.1475 -1.3728
 2069SOL    HW2 6906   1.491  -0.019   1.528  1.2049  0.5072  0.3335
 2070SOL     OW 6907   1.155   5.357   2.891  0.1140 -0.4977 -0.2218
 2070SOL    HW1 6908   1.165   5.383   2.799 -1.2694  1.6500  0.1681
 2070SOL    HW2 6909   1.100   5.279   2.887 -2.0928  1.0058 -1.1645
 2071SOL     OW 6910   3.099   2.465   5.078  0.0625  0.0513 -1.2749
 2071SOL    HW1 6911   3.086   2.557   5.052 -1.1011  0.3893  0.3252
 2071SOL    HW2 6912   3.172   2.435   5.024  0.6557  2.0015 -1.6472
 2072SOL     OW 6913   0.577   0.261   0.789  0.3156  0.2153 -0.1831
 2072SOL    HW1 6914   0.525   0.336   0.818  0.1175 -0.8622  2.5403
 2072SOL    HW2 6915   0.512   0.198   0.756  0.0395 -0.3062  1.2878
 2073SOL     OW 6916   0.914   2.860   3.890  0.5051 -0.0265  0.1972
 2073SOL    HW1 6917   0.941   2.941   3.846  0.6607 -0.8341 -1.2218
 2073SOL    HW2 6918   0.911   2.884   3.983  0.7573  1.5503 -0.1733
 2074SOL     OW 6919   0.698   0.744   0.188 -0.2255 -0.0446  0.1471
 2074SOL    HW1 6920   0.718   0.723   0.279  0.0403  1.1657  0.3772
 2074SOL    HW2 6921   0.765   0.697   0.138  0.3499  0.2334  0.6464
 2075SOL     OW 6922   1.933   2.311   4.055  0.1310  0.2565  0.0618
 2075SOL    HW1 6923   1.901   2.339   4.142  1.2398 -0.3525  0.6802
 2075SOL    HW2 6924   2.028   2.308   4.064  0.1867 -1.2413 -0.7445
 2076SOL     OW 6925   2.434   3.961   1.511  0.2549 -0.4216  0.2295
 2076SOL    HW1 6926   2.420   4.055   1.504 -4.5780 -0.8392  0.7666
 2076SOL    HW2 6927   2.449   3.946   1.604 -0.3427 -0.2392  0.3634
 2077SOL     OW 6928   2.472   0.839   1.813 -0.7103  0.2063 -0.0882
 2077SOL    HW1 6929   2.412   0.896   1.765 -1.4425  0.9385  1.6234
 2077SOL    HW2 6930   2.539   0.898   1.847 -0.6260 -0.1875  0.4322
 2078SOL     OW 6931   0.007   3.758   2.324  0.3357  0.5770  0.0905
 2078SOL    HW1 6932   0.095   3.761   2.362  0.9698 -2.5789 -0.8408
 2078SOL    HW2 6933  -0.051   3.746   2.399  0.9103  0.5403  0.5347
 2079SOL     OW 6934   3.719   1.171   1.299  0.0264 -0.1150 -0.2008
 2079SOL    HW1 6935   3.791   1.208   1.351 -1.0338  3.4786 -1.0039
 2079SOL    HW2 6936   3.671   1.116   1.361  1.7827 -0.2536  1.1197
 2080SOL     OW 6937   4.458   2.564   3.690 -0.2152  0.4981  0.1468
 2080SOL    HW1 6938   4.416   2.650   3.688  2.6787  2.0441  0.4876
 2080SOL    HW2 6939   4.461   2.542   3.783  1.0303  1.1370  0.2769
 2081SOL     OW 6940   3.481   0.222   2.340 -0.1853 -0.1607 -0.1072
 2081SOL    HW1 6941   3.400   0.172   2.328  1.7904 -3.7416  0.1007
 2081SOL    HW2 6942   3.500   0.257   2.253 -2.0429  1.0695 -0.0858
 2082SOL     OW 6943   0.680   0.436   2.038 -0.6814  0.2365  0.1145
 2082SOL    HW1 6944   0.600   0.487   2.049 -0.6113  0.5511 -0.7549
 2082SOL    HW2 6945   0.723   0.474   1.962  0.6971  0.5908  1.0246
 2083SOL     OW 6946   4.824   4.623   2.496  0.0044  0.1420  0.3712
 2083SOL    HW1 6947   4.894   4.677   2.532 -0.8091  0.6991  1.1529
 2083SOL    HW2 6948   4.814   4.552   2.560  1.9966 -1.8016 -1.2987
 2084SOL     OW 6949   4.839   3.510   5.088 -0.0056  0.1835  0.5928
 2084SOL    HW1 6950   4.848   3.585   5.147  1.3258 -0.2505  0.9892
 2084SOL    HW2 6951   4.878   3.539   5.006  4.7057 -1.3268  1.9757
 2085SOL     OW 6952   0.630   4.434   5.374 -0.3418 -0.5077  0.4960
 2085SOL    HW1 6953   0.561   4.476   5.323  0.7480  0.6990 -0.0294
 2085SOL    HW2 6954   0.669   4.371   5.313  0.0502 -0.0601  0.2823
 2086SOL     OW 6955   5.352   4.359   1.242  0.2611  0.1170 -0.0404
 2086SOL    HW1 6956   5.291   4.354   1.169  0.0445 -0.1880  0.1551
 2086SOL    HW2 6957   5.401   4.440   1.228  1.1878 -0.6098 -1.2757
 2087SOL     OW 6958   2.945   2.252   4.398  0.5135  0.3873  0.3695
 2087SOL    HW1 6959   2.868   2.256   4.454 -0.0896 -0.5648 -0.3491
 2087SOL    HW2 6960   2.920   2.300   4.319  1.6872  2.5453  1.2374
 2088SOL     OW 6961   3.906   1.946   5.190 -0.4438  0.0327  0.4178
 2088SOL    HW1 6962   3.846   1.871   5.185  0.5353 -0.7447  0.1070
 2088SOL    HW2 6963   3.938   1.957   5.100  0.5403 -0.1188  0.7403
 2089SOL     OW 6964   0.584   2.180   4.562 -0.1651 -0.1083 -0.2806
 2089SOL    HW1 6965   0.615   2.250   4.620 -0.8362 -0.2761  0.3014
 2089SOL    HW2 6966   0.488   2.190   4.562 -0.2989 -1.2725  0.1269
 2090SOL     OW 6967   4.757   2.082   2.190  0.4154 -0.2904 -0.3896
 2090SOL    HW1 6968   4.706   2.041   2.260  1.2210  0.8721  0.9351
 2090SOL    HW2 6969   4.728   2.038   2.110 -0.6545 -1.5484  0.6449
 2091SOL     OW 6970   4.720   1.309   2.042 -0.0889 -0.0273  0.0532
 2091SOL    HW1 6971   4.680   1.345   2.122 -1.4135  1.0002 -1.0336
 2091SOL    HW2 6972   4.702   1.374   1.975  0.2353 -1.2854 -1.2950
 2092SOL     OW 6973   1.603   3.887   5.036 -0.8166  0.4653 -0.2376
 2092SOL    HW1 6974   1.635   3.797   5.038  1.2135  1.1192  0.8270
 2092SOL    HW2 6975   1.581   3.903   4.945  0.0421 -0.7303 -0.6849
 2093SOL     OW 6976   4.647   2.611   0.031 -0.3011 -0.0847 -0.0530
 2093SOL    HW1 6977   4.577   2.579  -0.026  0.3612 -0.4968 -0.6463
 2093SOL    HW2 6978   4.716   2.544   0.025  0.6220  0.8685 -0.4008
 2094SOL     OW 6979   0.789   4.199   4.808 -0.6952  0.5288 -0.0086
 2094SOL    HW1 6980   0.696   4.179   4.797 -0.7224  0.7840 -0.2724
 2094SOL    HW2 6981   0.826   4.190   4.719  0.0571 -2.1488  0.4843
 2095SOL     OW 6982   4.612   1.596   3.284  0.6260  0.0255  0.2656
 2095SOL    HW1 6983   4.583   1.584   3.375 -0.7493  0.9308 -0.0130
 2095SOL    HW2 6984   4.595   1.512   3.242  0.2822 -0.0710  0.5912
 2096SOL     OW 6985   1.350   4.077   3.425  0.4762  0.4673 -0.4994
 2096SOL    HW1 6986   1.415   4.047   3.489 -0.5209 -1.8720 -0.4970
 2096SOL    HW2 6987   1.401   4.127   3.361  1.9893  0.1734  0.4291
 2097SOL     OW 6988   3.833   3.300   3.259 -0.1629 -0.2841  0.0376
 2097SOL    HW1 6989   3.887   3.357   3.205 -0.3763 -0.0463  0.0693
 2097SOL    HW2 6990   3.761   3.356   3.289 -1.3875 -0.9919 -1.3958
 2098SOL     OW 6991   0.958   4.126   4.588 -0.1266  0.0699 -0.2971
 2098SOL    HW1 6992   0.997   4.132   4.500  0.7603  0.1808  0.0878
 2098SOL    HW2 6993   1.034   4.126   4.647 -0.7540  1.3425  0.5483
 2099SOL     OW 6994   3.566   2.979   3.799 -0.5521 -0.1604 -0.2448
 2099SOL    HW1 6995   3.592   2.897   3.841  2.3799 -0.1175 -1.7434
 2099SOL    HW2 6996   3.637   3.040   3.819 -0.1845  0.5248 -3.1780
 2100SOL     OW 6997   0.809   2.417   3.198 -0.2611 -0.0554 -0.0890
 2100SOL    HW1 6998   0.850   2.441   3.281  0.2862  0.0656 -0.3893
 2100SOL    HW2 6999   0.814   2.322   3.196 -0.2485 -0.0574  0.0017
 2101SOL     OW 7000   4.497   2.344   0.197  0.0979  0.0371  0.0474
 2101SOL    HW1 7001   4.443   2.422   0.210 -0.6910 -0.0527 -2.2190
 2101SOL    HW2 7002   4.582   2.368   0.234 -0.5903  1.3436  0.8808
 2102SOL     OW 7003   1.524   0.458   2.766 -0.1765  0.1414  0.4074
 2102SOL    HW1 7004   1.543   0.489   2.677  1.4265 -1.2602  0.2007
 2102SOL    HW2 7005   1.433   0.427   2.763  0.3702 -1.4900 -1.2776
 2103SOL     OW 7006   1.046   5.105   2.874  0.7419 -0.4925 -0.0109
 2103SOL    HW1 7007   0.954   5.102   2.849  0.8436 -0.1430 -0.4514
 2103SOL    HW2 7008   1.063   5.020   2.914 -0.1265 -0.0270  1.3900
 2104SOL     OW 7009   0.336   3.715   0.079  0.1921  0.3198  0.0065
 2104SOL    HW1 7010   0.407   3.759   0.125 -0.4491  0.5578  0.7784
 2104SOL    HW2 7011   0.300   3.654   0.143 -0.0210 -0.1198 -0.5245
 2105SOL     OW 7012   3.947   4.902   3.811 -0.4641  0.2261  0.0087
 2105SOL    HW1 7013   4.023   4.953   3.838  0.9511 -1.6361 -0.2758
 2105SOL    HW2 7014   3.904   4.877   3.893 -0.0998  0.3038  0.2243
 2106SOL     OW 7015   3.617   4.570   0.224  0.4854  0.1574 -0.3911
 2106SOL    HW1 7016   3.706   4.547   0.198  0.0817 -1.0883 -0.7863
 2106SOL    HW2 7017   3.605   4.528   0.309 -0.0979 -0.6957 -0.8780
 2107SOL     OW 7018   4.357   5.200   1.390 -0.4099 -0.1315  0.5496
 2107SOL    HW1 7019   4.315   5.165   1.469 -2.1497  0.3457 -0.1002
 2107SOL    HW2 7020   4.420   5.133   1.364 -0.3513 -0.6318  1.9120
 2108SOL     OW 7021   4.763   3.712   5.290  0.3927 -0.5899  0.3979
 2108SOL    HW1 7022   4.689   3.770   5.311  0.1689 -0.6385 -0.2262
 2108SOL    HW2 7023   4.841   3.762   5.312  0.1802 -0.5247  1.0372
 2109SOL     OW 7024   2.348   4.315   2.630  0.0508 -0.6289 -0.2898
 2109SOL    HW1 7025   2.346   4.334   2.724 -1.2687  3.2037 -0.8967
 2109SOL    HW2 7026   2.256   4.310   2.605  0.3274  0.4894 -1.6403
 2110SOL     OW 7027   3.275   0.639   1.295  0.0807 -0.2431 -0.5315
 2110SOL    HW1 7028   3.215   0.672   1.362  0.0512  1.2565 -1.2488
 2110SOL    HW2 7029   3.354   0.615   1.344 -1.4134 -3.4024  0.6047
 2111SOL     OW 7030   4.010   2.085   4.428  0.0407  0.2468  0.6227
 2111SOL    HW1 7031   4.040   2.074   4.337  0.7959 -0.0103  0.8910
 2111SOL    HW2 7032   4.016   1.997   4.465 -2.9844 -0.2808  0.1576
 2112SOL     OW 7033   1.409   4.398   3.399  0.0805  0.2503  0.0717
 2112SOL    HW1 7034   1.451   4.347   3.467 -3.5380 -0.9278  1.6705
 2112SOL    HW2 7035   1.392   4.483   3.440  0.4303  0.5630 -0.4105
 2113SOL     OW 7036   3.062   3.288   4.862 -0.4807 -0.2130  0.0273
 2113SOL    HW1 7037   3.042   3.323   4.776 -1.0466 -1.5088 -0.3947
 2113SOL    HW2 7038   3.005   3.336   4.922  0.9697  1.7369 -0.0801
 2114SOL     OW 7039   0.145   0.702   0.995 -0.3391  0.0974 -0.2893
 2114SOL    HW1 7040   0.137   0.607   1.005  0.8572 -0.0202 -0.2636
 2114SOL    HW2 7041   0.203   0.713   0.920  1.7804  0.7213  1.3454
 2115SOL     OW 7042   5.232   2.797   1.466 -0.5256  0.7188  0.4708
 2115SOL    HW1 7043   5.226   2.703   1.486  2.7175  0.4483  0.7677
 2115SOL    HW2 7044   5.297   2.830   1.529  0.3373  2.6036 -1.3068
 2116SOL     OW 7045   3.936   1.184   1.480 -0.3665 -0.2267  0.1703
 2116SOL    HW1 7046   3.973   1.272   1.483 -1.6660  0.4037 -1.0588
 2116SOL    HW2 7047   3.892   1.173   1.564 -0.4926  0.4354  0.1905
 2117SOL     OW 7048   0.299   1.367   0.619 -0.5197 -0.4876  0.4435
 2117SOL    HW1 7049   0.382   1.363   0.571  1.0514  1.0655  2.7766
 2117SOL    HW2 7050   0.272   1.276   0.627  2.1127 -1.2980  1.3601
 2118SOL     OW 7051   3.158   2.240   1.608 -0.2680  0.2540  0.1068
 2118SOL    HW1 7052   3.222   2.308   1.587 -2.6153  2.8522  0.6328
 2118SOL    HW2 7053   3.165   2.228   1.702  0.2470 -0.3566 -0.0076
 2119SOL     OW 7054   4.319   2.558   0.244 -0.0253 -0.6805 -0.2648
 2119SOL    HW1 7055   4.242   2.534   0.295 -0.9142  3.8789  0.9374
 2119SOL    HW2 7056   4.285   2.604   0.168  1.5096 -1.9755 -1.8285
 2120SOL     OW 7057   3.841   3.643   3.693  0.0058 -0.5875  0.0373
 2120SOL    HW1 7058   3.834   3.738   3.683 -2.5020 -0.7454 -0.3410
 2120SOL    HW2 7059   3.858   3.611   3.605  0.8979 -0.5018  0.1723
 2121SOL     OW 7060   0.523   2.185   1.135 -0.2554  0.1415  0.2278
 2121SOL    HW1 7061   0.546   2.265   1.088  0.6672 -1.1617 -1.6900
 2121SOL    HW2 7062   0.462   2.214   1.203  1.3981  2.7032  0.7687
 2122SOL     OW 7063   4.882   0.751   0.606  0.0538 -0.6898 -0.0172
 2122SOL    HW1 7064   4.968   0.762   0.566  0.7052 -1.8538  0.9557
 2122SOL    HW2 7065   4.886   0.803   0.686 -0.8309  0.7257 -0.8648
 2123SOL     OW 7066   0.318   0.287   3.374  0.1475  0.1362 -0.3280
 2123SOL    HW1 7067   0.285   0.358   3.319 -0.2489 -0.4821 -0.9014
 2123SOL    HW2 7068   0.358   0.226   3.313  2.1836  0.7461  0.3301
 2124SOL     OW 7069   1.980   1.703   0.024  0.3075  0.0623 -0.2656
 2124SOL    HW1 7070   2.003   1.786   0.066  0.7009 -0.3963  0.4327
 2124SOL    HW2 7071   1.899   1.676   0.066  0.3267 -0.0475 -0.2981
 2125SOL     OW 7072   5.023   3.280   3.103 -0.0556 -0.0426  0.0431
 2125SOL    HW1 7073   5.110   3.320   3.112  0.3238 -0.8185 -0.0641
 2125SOL    HW2 7074   5.040   3.198   3.055 -1.0296  0.4698 -1.2178
 2126SOL     OW 7075   2.707   1.880   1.799 -0.1332  0.2952 -0.6000
 2126SOL    HW1 7076   2.687   1.876   1.892 -2.1957 -0.0293 -1.0151
 2126SOL    HW2 7077   2.655   1.953   1.767 -1.3092 -1.0513 -1.8919
 2127SOL     OW 7078   2.963   4.756   4.378  0.1842  0.0749 -0.4307
 2127SOL    HW1 7079   2.894   4.822   4.385 -0.9816 -1.2568  1.2420
 2127SOL    HW2 7080   2.953   4.720   4.290 -0.8212  0.3772 -0.4505
 2128SOL     OW 7081   0.518   0.848   0.587  0.2192 -0.3149  0.5705
 2128SOL    HW1 7082   0.495   0.904   0.513  1.5531  0.0024  0.3735
 2128SOL    HW2 7083   0.518   0.759   0.550 -0.7739 -0.3402  0.6090
 2129SOL     OW 7084   0.356   5.257   2.097  0.7709 -0.2204 -0.4879
 2129SOL    HW1 7085   0.439   5.229   2.057  1.9558  0.6430  1.2679
 2129SOL    HW2 7086   0.373   5.345   2.129 -1.1100  0.2983 -0.7893
 2130SOL     OW 7087   1.030   2.122   3.116  0.4116 -0.2019  0.2031
 2130SOL    HW1 7088   1.110   2.173   3.133  2.4383 -2.9407 -0.3035
 2130SOL    HW2 7089   1.029   2.056   3.186 -0.2749 -1.4560 -0.9527
 2131SOL     OW 7090   3.447   0.154   4.409  0.2445  0.1489 -0.3801
 2131SOL    HW1 7091   3.485   0.127   4.493  2.6360  0.6218 -1.2536
 2131SOL    HW2 7092   3.456   0.250   4.409  0.2128  0.1525 -1.1590
 2132SOL     OW 7093   0.691   1.623   4.352 -0.4808 -0.2647 -0.0847
 2132SOL    HW1 7094   0.690   1.569   4.431 -0.6692 -2.3083 -1.4220
 2132SOL    HW2 7095   0.759   1.688   4.368 -0.3298 -0.8048  1.6455
 2133SOL     OW 7096   5.139   5.261   0.280 -0.4371 -0.0306 -0.4937
 2133SOL    HW1 7097   5.100   5.239   0.195 -0.7924 -0.7423 -0.1569
 2133SOL    HW2 7098   5.200   5.190   0.297 -1.0878 -0.4200  0.2930
 2134SOL     OW 7099   5.081   5.186   1.497 -0.0663 -0.4233  0.4640
 2134SOL    HW1 7100   5.163   5.140   1.512 -0.3504 -0.6426  1.4024
 2134SOL    HW2 7101   5.049   5.207   1.585 -1.0854 -0.4747  0.1186
 2135SOL     OW 7102   4.349   1.237   5.290  0.4767  0.7736  0.2115
 2135SOL    HW1 7103   4.313   1.153   5.318  1.6111  0.7784  1.8694
 2135SOL    HW2 7104   4.280   1.301   5.309 -0.4443  0.2242 -1.1931
 2136SOL     OW 7105   2.576   5.210   3.459 -0.2040 -0.6223  0.0278
 2136SOL    HW1 7106   2.485   5.228   3.484  0.3557  1.9941  0.4738
 2136SOL    HW2 7107   2.579   5.115   3.447 -3.0598 -0.7533 -0.3433
 2137SOL     OW 7108   2.084   4.309   2.587  0.0243  0.8036  0.0622
 2137SOL    HW1 7109   2.017   4.330   2.521 -1.5227 -1.9780  0.6002
 2137SOL    HW2 7110   2.036   4.307   2.670  1.2700  1.0066  0.8042
 2138SOL     OW 7111   3.811   4.268   0.798  0.1482  0.0710 -0.3311
 2138SOL    HW1 7112   3.818   4.355   0.836  0.8110  0.5785 -1.5468
 2138SOL    HW2 7113   3.881   4.217   0.841  0.1251  0.2978 -0.0258
 2139SOL     OW 7114   4.542   3.526   1.216  0.3433  0.7370 -0.0386
 2139SOL    HW1 7115   4.528   3.432   1.203  1.9936  0.7488 -2.7974
 2139SOL    HW2 7116   4.615   3.530   1.278 -0.1516  0.2506  0.5954
 2140SOL     OW 7117   1.226   2.522   4.121  0.4330 -0.3971 -0.5870
 2140SOL    HW1 7118   1.160   2.511   4.053  1.6673  3.3041 -2.7380
 2140SOL    HW2 7119   1.293   2.457   4.100 -1.1460 -2.2117 -0.1752
 2141SOL     OW 7120   3.721   1.589   0.193 -0.0743 -0.0753 -0.1625
 2141SOL    HW1 7121   3.637   1.634   0.180 -0.6363 -0.6961  1.2063
 2141SOL    HW2 7122   3.740   1.549   0.107 -0.3683  1.3700 -0.9353
 2142SOL     OW 7123   0.045   1.054   0.322  0.1952 -0.0768 -0.1191
 2142SOL    HW1 7124   0.083   1.107   0.253 -2.3252  2.4452  0.2561
 2142SOL    HW2 7125   0.121   1.016   0.368  2.0088  0.9725 -2.1011
 2143SOL     OW 7126   2.929   3.218   0.702 -0.1774  0.1369 -0.2130
 2143SOL    HW1 7127   2.869   3.248   0.770 -0.1799  0.9935 -0.5731
 2143SOL    HW2 7128   2.982   3.295   0.682  2.4422 -1.0549  1.4886
 2144SOL     OW 7129   0.535   2.432   3.286  0.3993 -0.5893 -0.1105
 2144SOL    HW1 7130   0.627   2.435   3.258  0.1378 -0.4728 -0.9574
 2144SOL    HW2 7131   0.486   2.471   3.215 -0.4640 -1.9584 -0.3118
 2145SOL     OW 7132   2.011   2.144   4.797 -0.1220 -0.2803  0.2860
 2145SOL    HW1 7133   2.073   2.215   4.780  0.8021 -1.4140 -1.3684
 2145SOL    HW2 7134   1.945   2.154   4.729 -0.9784  0.0231  1.1367
 2146SOL     OW 7135   4.623   3.261   3.549 -0.5688  0.2681 -0.2533
 2146SOL    HW1 7136   4.573   3.179   3.537 -0.3051 -0.0692  0.8593
 2146SOL    HW2 7137   4.650   3.259   3.640  0.0642  1.2666 -0.4112
 2147SOL     OW 7138   2.775   3.555   4.054 -0.0270  0.6757 -0.0051
 2147SOL    HW1 7139   2.812   3.537   4.141 -0.5089 -0.6226 -0.0405
 2147SOL    HW2 7140   2.692   3.508   4.054 -0.8282  2.0550 -0.5766
 2148SOL     OW 7141   3.429   5.051   2.882  0.2115 -0.0634 -0.4951
 2148SOL    HW1 7142   3.459   5.007   2.803  1.1573 -0.8790  0.2897
 2148SOL    HW2 7143   3.479   5.010   2.953 -2.0783 -0.8359  0.7824
 2149SOL     OW 7144   2.161   4.408   1.652 -0.0941 -0.4102  0.0356
 2149SOL    HW1 7145   2.137   4.338   1.591  0.6497 -1.6512  1.1405
 2149SOL    HW2 7146   2.219   4.367   1.715  1.3434  1.4883  0.0440
 2150SOL     OW 7147   3.918   2.028   0.048 -0.1038  0.4082  0.1239
 2150SOL    HW1 7148   3.828   2.042   0.076 -0.6140 -0.1403 -1.1701
 2150SOL    HW2 7149   3.911   2.006  -0.045  1.1335 -2.1721  0.5629
 2151SOL     OW 7150   0.357   1.241   4.298  0.3508  0.1457 -0.3151
 2151SOL    HW1 7151   0.447   1.271   4.282  0.4535  0.8952  1.3993
 2151SOL    HW2 7152   0.307   1.321   4.312  0.1557 -0.3142  2.1042
 2152SOL     OW 7153   3.265   1.584   4.961  0.3257  0.2766 -0.3423
 2152SOL    HW1 7154   3.354   1.567   4.930  0.0062  1.4934 -2.0025
 2152SOL    HW2 7155   3.219   1.501   4.948  1.4494 -0.7286  1.6047
 2153SOL     OW 7156   0.978   4.488   4.573  0.3970 -0.2710 -0.4976
 2153SOL    HW1 7157   0.925   4.476   4.494  1.0423 -1.4363 -0.7691
 2153SOL    HW2 7158   0.948   4.572   4.609 -1.4965 -0.8084 -0.7370
 2154SOL     OW 7159   3.520   2.048   1.228  0.3929  0.0956  0.0082
 2154SOL    HW1 7160   3.424   2.041   1.221  0.3417  0.2810  0.5031
 2154SOL    HW2 7161   3.544   2.115   1.163  0.2465 -0.3211 -0.4846
 2155SOL     OW 7162   0.429   4.357   4.923  0.3595 -0.0733 -0.2993
 2155SOL    HW1 7163   0.408   4.377   5.014  0.7163  0.4366 -0.3223
 2155SOL    HW2 7164   0.524   4.370   4.917  0.1836  1.0150 -1.0127
 2156SOL     OW 7165   4.458   0.684   1.611 -0.0264  0.4134  0.2235
 2156SOL    HW1 7166   4.428   0.595   1.630  0.3257  0.4204  0.8315
 2156SOL    HW2 7167   4.464   0.726   1.697 -0.6436  1.1777 -0.0970
 2157SOL     OW 7168   3.223   1.700   4.415  0.0357 -0.1964 -0.1108
 2157SOL    HW1 7169   3.227   1.783   4.462 -0.0688 -0.6779  0.7617
 2157SOL    HW2 7170   3.283   1.711   4.341  1.1844  0.1352  0.8380
 2158SOL     OW 7171   5.137   3.851   1.437  0.2228 -0.5944 -0.0945
 2158SOL    HW1 7172   5.080   3.902   1.494  1.4170 -0.9960  1.5454
 2158SOL    HW2 7173   5.220   3.899   1.435  0.2172 -0.5935 -1.5268
 2159SOL     OW 7174   5.352   4.140   4.113 -0.8177 -0.0083 -0.4909
 2159SOL    HW1 7175   5.384   4.050   4.106 -2.0636 -0.4654 -0.6675
 2159SOL    HW2 7176   5.400   4.188   4.046  1.6328  0.0423  1.1589
 2160SOL     OW 7177   2.912   4.404   1.354 -0.1372 -0.1805 -0.3742
 2160SOL    HW1 7178   2.853   4.341   1.396 -0.2833 -0.2893 -0.7360
 2160SOL    HW2 7179   2.966   4.352   1.295  0.3969 -0.0939  0.0320
 2161SOL     OW 7180   0.601   4.949   0.875  0.3715 -0.2255  0.6139
 2161SOL    HW1 7181   0.669   4.988   0.820 -1.1604  1.3846 -0.2335
 2161SOL    HW2 7182   0.541   4.906   0.814  0.3964 -1.2905  1.3130
 2162SOL     OW 7183   1.268   3.098   0.516 -0.2194 -0.0611  0.7469
 2162SOL    HW1 7184   1.279   3.149   0.596  2.8952  0.1670  0.2814
 2162SOL    HW2 7185   1.336   3.131   0.457 -0.4696 -2.2790 -0.8883
 2163SOL     OW 7186   4.896   0.046   5.095  0.1085  0.0538 -0.3579
 2163SOL    HW1 7187   4.898  -0.042   5.133  0.3099  0.1756 -0.0825
 2163SOL    HW2 7188   4.814   0.084   5.125  0.1606  0.0663 -0.2307
 2164SOL     OW 7189   4.254   1.389   3.765  0.7693 -0.0843 -0.3358
 2164SOL    HW1 7190   4.346   1.368   3.783  0.7295  1.0956  1.5707
 2164SOL    HW2 7191   4.215   1.305   3.741  2.0386 -0.9004  0.2916
 2165SOL     OW 7192   0.723   3.231   2.388 -0.2323 -0.6115 -0.1254
 2165SOL    HW1 7193   0.629   3.244   2.398 -0.4930 -2.9599  1.1732
 2165SOL    HW2 7194   0.736   3.222   2.293 -0.6482  3.3672 -0.7477
 2166SOL     OW 7195   4.240   3.837   2.572 -0.5723 -0.0613  0.7422
 2166SOL    HW1 7196   4.158   3.887   2.576 -0.1307  0.7239  0.1341
 2166SOL    HW2 7197   4.290   3.866   2.649  0.6818  2.2611 -0.8238
 2167SOL     OW 7198   0.013   4.025   1.919 -0.0430 -0.0456  0.0863
 2167SOL    HW1 7199  -0.075   4.055   1.942 -0.8222 -0.9949 -1.4692
 2167SOL    HW2 7200   0.027   3.948   1.973 -0.7233 -0.6445 -0.5658
 2168SOL     OW 7201   2.997   1.227   0.247  0.3310  0.5604  0.4141
 2168SOL    HW1 7202   3.060   1.289   0.285 -0.0278  0.8036  0.6179
 2168SOL    HW2 7203   2.942   1.282   0.191 -0.7470  0.6397  1.5226
 2169SOL     OW 7204   0.563   1.808   0.561  0.2213  0.4677  0.2268
 2169SOL    HW1 7205   0.598   1.896   0.574 -0.7336  0.6963  1.4612
 2169SOL    HW2 7206   0.555   1.799   0.466  0.1768  1.7658  0.0913
 2170SOL     OW 7207   4.359   5.316   1.794 -0.6919 -0.0490  0.8508
 2170SOL    HW1 7208   4.347   5.230   1.754  0.7645 -0.3467  0.9953
 2170SOL    HW2 7209   4.298   5.318   1.868 -1.0124 -0.7902  0.6136
 2171SOL     OW 7210   1.934   4.299   2.823  0.6585  0.2709  0.0820
 2171SOL    HW1 7211   1.994   4.266   2.890  0.9403 -0.1803 -0.3879
 2171SOL    HW2 7212   1.909   4.386   2.855 -1.3371 -0.9425  2.1399
 2172SOL     OW 7213   4.548   0.158   1.204  0.1912  0.4957 -0.3608
 2172SOL    HW1 7214   4.556   0.088   1.140 -0.9911 -2.9244  2.8929
 2172SOL    HW2 7215   4.628   0.153   1.256 -0.0391  1.4216  0.1139
 2173SOL     OW 7216   0.540   2.915   0.049 -0.1614  0.0795 -0.2996
 2173SOL    HW1 7217   0.618   2.971   0.041 -1.1437  1.3895 -1.2001
 2173SOL    HW2 7218   0.467   2.975   0.034 -1.3299 -1.2029  0.1366
 2174SOL     OW 7219   0.515   2.799   3.496  0.2864  0.6339  0.2303
 2174SOL    HW1 7220   0.460   2.763   3.565 -0.4305 -0.2923 -0.8013
 2174SOL    HW2 7221   0.454   2.839   3.434  0.8002  0.1439 -0.6181
 2175SOL     OW 7222   1.931   3.452   1.377 -0.2044 -0.5601 -0.1658
 2175SOL    HW1 7223   1.883   3.515   1.430 -3.0781 -0.9293 -2.0911
 2175SOL    HW2 7224   1.966   3.503   1.304  0.3432 -0.6592  0.0281
 2176SOL     OW 7225   4.010   2.339   4.491  0.3533  0.0428 -0.0182
 2176SOL    HW1 7226   4.105   2.339   4.505  0.2328 -0.7494  0.9723
 2176SOL    HW2 7227   3.990   2.247   4.471 -0.0183  0.4737 -1.7771
 2177SOL     OW 7228   5.235   1.062   4.187 -0.3453 -1.0995  0.0857
 2177SOL    HW1 7229   5.326   1.032   4.185 -0.5780 -2.0071  1.4941
 2177SOL    HW2 7230   5.229   1.127   4.117  1.6630 -0.2303  0.6511
 2178SOL     OW 7231   1.064   2.955   1.688 -0.5611 -0.3062 -0.3310
 2178SOL    HW1 7232   0.978   2.917   1.670  0.0227 -0.8810 -2.1187
 2178SOL    HW2 7233   1.061   3.041   1.648 -1.0642  0.6483  1.6497
 2179SOL     OW 7234   2.027   2.329   2.827  0.6656  0.3384 -0.0788
 2179SOL    HW1 7235   2.031   2.423   2.846  0.6143  0.1568  0.8772
 2179SOL    HW2 7236   2.118   2.300   2.832  0.6348  0.2620  0.0521
 2180SOL     OW 7237   3.519   2.607   1.390  0.7460  0.0977 -0.0859
 2180SOL    HW1 7238   3.471   2.668   1.335 -2.9428 -1.5611  0.9756
 2180SOL    HW2 7239   3.556   2.544   1.329 -0.3719  0.1989 -0.8955
 2181SOL     OW 7240   4.004   4.128   0.915  0.3390 -0.4806 -0.4110
 2181SOL    HW1 7241   4.036   4.081   0.992  0.0989 -1.4815 -0.8982
 2181SOL    HW2 7242   4.049   4.086   0.842  1.1617  0.9790 -0.7670
 2182SOL     OW 7243   3.211   1.964   0.001  0.0921 -0.5849  0.4862
 2182SOL    HW1 7244   3.261   1.930  -0.074  0.6666  0.1687  0.5153
 2182SOL    HW2 7245   3.200   2.058  -0.018 -0.8754 -0.6359  0.7305
 2183SOL     OW 7246   2.009   2.254   3.165 -0.4539  0.0073  0.1916
 2183SOL    HW1 7247   1.944   2.322   3.147  0.1407  0.6337  0.3674
 2183SOL    HW2 7248   1.983   2.180   3.110  0.2440  1.2060 -1.8614
 2184SOL     OW 7249   2.616   0.181   1.586  0.0672  0.1225 -0.4225
 2184SOL    HW1 7250   2.624   0.262   1.637 -0.1351  0.6167 -1.1548
 2184SOL    HW2 7251   2.524   0.157   1.595  0.4405 -0.8727  1.0291
 2185SOL     OW 7252   3.572   2.467   4.006  0.3203 -0.3958  0.0710
 2185SOL    HW1 7253   3.521   2.516   3.943 -0.2675 -1.9616 -0.7333
 2185SOL    HW2 7254   3.663   2.487   3.984  0.1042  1.2227  0.5424
 2186SOL     OW 7255   2.972   3.849   4.628 -0.5365  0.2222 -0.6487
 2186SOL    HW1 7256   2.988   3.858   4.722 -0.4738  0.4668 -0.6804
 2186SOL    HW2 7257   2.879   3.868   4.616 -0.4535  0.6126 -0.6865
 2187SOL     OW 7258   2.279   4.981   1.650  0.0517  0.2782 -0.9382
 2187SOL    HW1 7259   2.331   5.061   1.658  1.3934 -0.6707  0.5042
 2187SOL    HW2 7260   2.191   5.005   1.680  0.8692  0.8509  1.1400
 2188SOL     OW 7261   1.210   3.959   2.780 -0.7120 -0.1342  0.3054
 2188SOL    HW1 7262   1.199   3.875   2.736  0.9978 -0.9311  1.3057
 2188SOL    HW2 7263   1.302   3.982   2.765 -0.9540  1.1746  0.7160
 2189SOL     OW 7264   0.282   1.743   0.148 -0.2598  0.1877 -0.4789
 2189SOL    HW1 7265   0.354   1.746   0.084 -1.0911  1.2412 -1.4268
 2189SOL    HW2 7266   0.206   1.716   0.096 -1.1616  2.0095 -0.1932
 2190SOL     OW 7267   1.212   3.599   2.758 -0.0095 -0.1935 -0.0811
 2190SOL    HW1 7268   1.261   3.533   2.709 -0.2252  0.2187 -0.8677
 2190SOL    HW2 7269   1.252   3.597   2.845  0.3787 -0.9432 -0.2567
 2191SOL     OW 7270   4.088   4.775   1.163  0.0181 -0.1606  1.3428
 2191SOL    HW1 7271   4.085   4.843   1.096 -0.7845 -1.7088 -0.2688
 2191SOL    HW2 7272   4.180   4.749   1.167  0.2356  0.5974  1.5817
 2192SOL     OW 7273   1.880   0.481   1.009  0.0233 -0.4203  0.4217
 2192SOL    HW1 7274   1.798   0.514   1.046 -0.1180  2.2671 -1.9325
 2192SOL    HW2 7275   1.854   0.434   0.930  0.6911  0.4507 -0.3484
 2193SOL     OW 7276   4.687   3.980   3.376 -0.8209  0.4934  0.7109
 2193SOL    HW1 7277   4.754   4.035   3.417 -0.5367  1.3307 -0.8267
 2193SOL    HW2 7278   4.713   3.891   3.399  0.6608  0.8139  0.4020
 2194SOL     OW 7279   3.720   5.134   4.608  0.0071  0.0864 -0.7648
 2194SOL    HW1 7280   3.745   5.110   4.519  0.0719 -0.4178 -0.6177
 2194SOL    HW2 7281   3.770   5.074   4.663 -0.0859  0.3485 -0.3917
 2195SOL     OW 7282   4.865   4.116   3.071  0.5881 -0.1239 -0.5182
 2195SOL    HW1 7283   4.790   4.057   3.062 -0.3832  1.2353 -1.6896
 2195SOL    HW2 7284   4.899   4.124   2.982  1.5346  0.0584 -0.1498
 2196SOL     OW 7285   3.090   2.471   2.318  0.0508  0.2242  0.2380
 2196SOL    HW1 7286   3.099   2.379   2.294 -0.0463  0.6854 -1.7346
 2196SOL    HW2 7287   3.175   2.510   2.295 -0.4155  0.9032 -0.3817
 2197SOL     OW 7288   4.751   0.088   1.364 -0.1518 -0.2845 -0.0919
 2197SOL    HW1 7289   4.764  -0.005   1.348  3.0652 -0.0687  0.5632
 2197SOL    HW2 7290   4.824   0.113   1.420 -2.4659  2.1035  2.1554
 2198SOL     OW 7291   4.846   0.064   3.608  0.4040  0.1870  0.1097
 2198SOL    HW1 7292   4.871   0.028   3.693  2.8365 -0.0760 -0.6584
 2198SOL    HW2 7293   4.810   0.151   3.628  4.2853  1.7317  1.2424
 2199SOL     OW 7294   4.095   1.408   2.751 -0.1241  0.1628 -0.4094
 2199SOL    HW1 7295   4.177   1.440   2.713 -0.5102 -1.2241 -2.5900
 2199SOL    HW2 7296   4.082   1.321   2.712 -2.3286  0.0826  0.3416
 2200SOL     OW 7297   0.882   1.799   2.591 -0.6936 -0.0313 -0.4653
 2200SOL    HW1 7298   0.957   1.850   2.562 -0.9792  0.7514  0.1400
 2200SOL    HW2 7299   0.848   1.759   2.511 -0.7081  1.0652 -1.0271
 2201SOL     OW 7300   2.193   3.716   4.882  0.3963  0.9150 -0.4618
 2201SOL    HW1 7301   2.140   3.717   4.803  2.0963 -0.0758 -1.6893
 2201SOL    HW2 7302   2.252   3.641   4.871  1.6115  1.5631  1.1092
 2202SOL     OW 7303   1.698   2.910   0.029 -0.1584 -0.4462 -0.4713
 2202SOL    HW1 7304   1.763   2.850   0.065  0.1065  1.3599  2.3269
 2202SOL    HW2 7305   1.621   2.856   0.013  0.2962 -1.6846  1.2953
 2203SOL     OW 7306   4.833   0.174   3.320  0.2827 -0.0061  0.3422
 2203SOL    HW1 7307   4.802   0.099   3.370  0.9289 -0.2581  0.3783
 2203SOL    HW2 7308   4.773   0.182   3.247  1.0542 -1.4775 -0.4933
 2204SOL     OW 7309   3.070   1.709   3.622  0.2515 -0.5288 -0.1787
 2204SOL    HW1 7310   3.067   1.657   3.702  1.1202 -0.2008  0.0735
 2204SOL    HW2 7311   3.115   1.789   3.647 -1.2253  0.4493 -0.5226
 2205SOL     OW 7312   1.616   0.637   2.010  0.3977 -0.6090  0.4882
 2205SOL    HW1 7313   1.527   0.605   2.028  0.2637 -0.9754 -0.7578
 2205SOL    HW2 7314   1.652   0.657   2.097  0.1082 -3.0828  1.2420
 2206SOL     OW 7315   5.136   4.686   3.366 -0.5294  0.6922  0.3402
 2206SOL    HW1 7316   5.092   4.674   3.282  0.0975 -0.8283  0.1954
 2206SOL    HW2 7317   5.163   4.777   3.366 -1.3370  0.9580 -0.7107
 2207SOL     OW 7318   2.994   2.645   1.195  0.2633 -0.1512  0.2616
 2207SOL    HW1 7319   2.980   2.590   1.118  1.1090  0.0397 -0.0406
 2207SOL    HW2 7320   3.020   2.584   1.264 -2.6392 -0.6278  1.0680
 2208SOL     OW 7321   2.536   5.129   4.057 -0.2881 -0.0542  0.3552
 2208SOL    HW1 7322   2.604   5.122   4.124 -0.5909  1.0008  0.7978
 2208SOL    HW2 7323   2.472   5.061   4.080  0.5398 -0.9690  0.0065
 2209SOL     OW 7324   1.750   4.186   3.777  0.1987 -0.3294 -0.0413
 2209SOL    HW1 7325   1.709   4.107   3.741  2.2768 -2.0059  1.0424
 2209SOL    HW2 7326   1.843   4.175   3.758  0.8112  0.7721  2.0575
 2210SOL     OW 7327   3.992   1.540   4.385 -0.0270  0.2130 -0.0692
 2210SOL    HW1 7328   4.030   1.463   4.429  0.5528 -0.0816 -1.0477
 2210SOL    HW2 7329   4.054   1.559   4.315  0.0757  1.8818  0.4437
 2211SOL     OW 7330   2.985   5.201   1.018  0.3490 -0.5778 -0.3364
 2211SOL    HW1 7331   2.955   5.254   1.092 -1.0286 -2.5011  0.6063
 2211SOL    HW2 7332   2.925   5.223   0.947  0.1169 -0.4850 -0.1158
 2212SOL     OW 7333   5.141   3.365   0.622 -0.2320  0.3303  0.6125
 2212SOL    HW1 7334   5.213   3.392   0.565  0.6105  0.7673  1.8386
 2212SOL    HW2 7335   5.183   3.331   0.701 -1.3525 -1.0370  0.6621
 2213SOL     OW 7336   2.136   4.524   1.220 -0.3484  0.1070  0.4900
 2213SOL    HW1 7337   2.044   4.502   1.203 -0.8210  0.2720  2.5676
 2213SOL    HW2 7338   2.146   4.612   1.185 -1.0989  0.2526  0.6157
 2214SOL     OW 7339   4.365   0.733   4.746 -0.0628  0.4613  0.1178
 2214SOL    HW1 7340   4.417   0.665   4.703 -1.4014  0.7447 -2.0677
 2214SOL    HW2 7341   4.428   0.777   4.804  1.4052 -1.0600 -0.2326
 2215SOL     OW 7342   3.270   3.199   1.240  0.1294 -0.3523 -0.2139
 2215SOL    HW1 7343   3.288   3.293   1.248 -0.3065 -0.4040  2.6575
 2215SOL    HW2 7344   3.174   3.193   1.234  0.1675 -0.6098 -0.5888
 2216SOL     OW 7345   1.218   2.035   0.935 -0.0716 -0.5473 -0.0483
 2216SOL    HW1 7346   1.274   2.106   0.966 -1.4068  0.1081  0.9974
 2216SOL    HW2 7347   1.146   2.080   0.890 -1.1223 -1.1893  0.9283
 2217SOL     OW 7348   2.442   2.142   2.633 -0.0840  0.7214 -0.3415
 2217SOL    HW1 7349   2.482   2.225   2.608  0.8005  0.4057 -0.0176
 2217SOL    HW2 7350   2.513   2.092   2.674 -0.4848 -0.3655 -0.9146
 2218SOL     OW 7351   0.794   3.257   2.706 -0.0609  0.4001  0.0457
 2218SOL    HW1 7352   0.716   3.223   2.663 -2.0606  1.8240  2.3098
 2218SOL    HW2 7353   0.799   3.349   2.679  0.5338  0.4561  0.3302
 2219SOL     OW 7354   5.364   5.028   1.687 -0.0940 -0.0662 -0.0939
 2219SOL    HW1 7355   5.377   5.120   1.711  0.8113 -0.7005  2.0832
 2219SOL    HW2 7356   5.447   5.002   1.647  0.7226 -0.6267  1.8492
 2220SOL     OW 7357   1.349   1.395   3.656 -0.4063  0.7893  0.3605
 2220SOL    HW1 7358   1.362   1.304   3.633 -0.6351  0.4774  1.3939
 2220SOL    HW2 7359   1.434   1.425   3.689 -0.2869  1.0012 -0.1328
 2221SOL     OW 7360   3.091   4.247   3.919 -0.2594 -0.3850 -0.2078
 2221SOL    HW1 7361   3.175   4.282   3.949 -0.4642 -0.6726  0.7223
 2221SOL    HW2 7362   3.040   4.234   3.999 -0.7254 -1.4190 -0.6519
 2222SOL     OW 7363   4.434   0.230   0.054 -0.0646 -0.1712  0.2189
 2222SOL    HW1 7364   4.516   0.264   0.019 -1.5345  2.5625 -0.8366
 2222SOL    HW2 7365   4.386   0.197  -0.023 -1.0371  0.7527  0.4042
 2223SOL     OW 7366   2.597   3.561   2.473  0.3707 -0.5246  0.8634
 2223SOL    HW1 7367   2.510   3.526   2.491  0.4715 -1.0557  0.3553
 2223SOL    HW2 7368   2.591   3.654   2.495 -0.3451 -0.5447  0.7630
 2224SOL     OW 7369   0.621   3.761   2.872  0.2241 -0.4551 -0.5715
 2224SOL    HW1 7370   0.708   3.774   2.833  1.2329 -1.7751  1.1033
 2224SOL    HW2 7371   0.618   3.824   2.944  0.3782 -1.3781  0.2535
 2225SOL     OW 7372   3.809   0.153   0.809 -0.0572 -0.5690  0.0224
 2225SOL    HW1 7373   3.838   0.242   0.791 -1.3113 -0.3910 -1.3181
 2225SOL    HW2 7374   3.852   0.130   0.892  0.6577  1.0922  0.1546
 2226SOL     OW 7375   2.591   3.664   3.776 -0.0533  0.0000  0.6628
 2226SOL    HW1 7376   2.505   3.634   3.804 -0.9249  0.3197 -1.5016
 2226SOL    HW2 7377   2.627   3.591   3.726  1.4060 -0.5167  2.3835
 2227SOL     OW 7378   2.091   2.800   2.707  0.1959  0.0401  0.4924
 2227SOL    HW1 7379   2.015   2.857   2.717  0.9461  1.0062  0.8863
 2227SOL    HW2 7380   2.144   2.844   2.640  0.2180 -0.8414 -0.0765
 2228SOL     OW 7381   0.504   2.127   4.986  0.2646  0.0826 -0.2040
 2228SOL    HW1 7382   0.462   2.041   4.993 -2.1790  1.2647  0.8242
 2228SOL    HW2 7383   0.592   2.114   5.020  0.2552 -2.1755 -0.8674
 2229SOL     OW 7384   3.110   4.487   2.764  0.3975 -0.7880 -0.0965
 2229SOL    HW1 7385   3.178   4.512   2.701 -1.4027  1.3669 -1.3517
 2229SOL    HW2 7386   3.033   4.467   2.710 -0.9774  0.3453  1.3379
 2230SOL     OW 7387   4.889   3.032   0.833 -0.3151  0.1158 -0.5152
 2230SOL    HW1 7388   4.943   3.108   0.854  1.7628 -1.3243 -0.2904
 2230SOL    HW2 7389   4.881   2.985   0.917 -1.6405  0.1274 -0.6253
 2231SOL     OW 7390   4.521   1.122   1.488  0.1249 -0.2904  0.0354
 2231SOL    HW1 7391   4.431   1.131   1.517 -1.2521 -0.6178 -3.6239
 2231SOL    HW2 7392   4.550   1.037   1.523 -1.5990 -0.9625 -0.1070
 2232SOL     OW 7393   0.680   4.368   4.141 -0.4871 -0.3960 -0.0845
 2232SOL    HW1 7394   0.707   4.342   4.053  0.0785  0.1752 -0.0903
 2232SOL    HW2 7395   0.673   4.286   4.190  0.6197 -0.6201 -0.2738
 2233SOL     OW 7396   2.863   3.741   3.882 -0.3264  0.6425  0.3085
 2233SOL    HW1 7397   2.771   3.726   3.859  0.3183 -1.0958 -1.4167
 2233SOL    HW2 7398   2.880   3.680   3.954 -0.4716  0.8471  0.5176
 2234SOL     OW 7399   0.364   3.715   2.731  0.4256  0.1449 -0.1158
 2234SOL    HW1 7400   0.438   3.752   2.778 -0.3466 -1.6164  2.8168
 2234SOL    HW2 7401   0.402   3.671   2.655  2.3828 -0.4982  1.1697
 2235SOL     OW 7402   1.646   3.003   2.690 -0.3163  0.4559 -0.0976
 2235SOL    HW1 7403   1.604   3.042   2.766 -2.0434 -0.3141 -0.6067
 2235SOL    HW2 7404   1.580   2.945   2.653  1.3848 -1.2571 -0.6428
 2236SOL     OW 7405   4.375   5.017   1.003 -0.0401  0.0779  0.1189
 2236SOL    HW1 7406   4.414   4.976   0.926 -0.2840  0.8588 -0.4402
 2236SOL    HW2 7407   4.366   4.946   1.067  2.2944 -0.1228  0.2912
 2237SOL     OW 7408   0.392   2.177   3.395  0.2504  0.3984  0.6574
 2237SOL    HW1 7409   0.417   2.269   3.394 -0.9897  0.8124  2.8166
 2237SOL    HW2 7410   0.371   2.158   3.486 -0.2116 -1.8450  0.1544
 2238SOL     OW 7411   0.700   1.971   4.732  0.4421  0.0458 -0.7323
 2238SOL    HW1 7412   0.691   2.042   4.669  0.9949  1.1352  0.3775
 2238SOL    HW2 7413   0.793   1.967   4.752  0.5059 -1.3701 -1.1796
 2239SOL     OW 7414   1.893   2.008   1.202  0.6544 -0.1698  0.2495
 2239SOL    HW1 7415   1.856   2.075   1.145  0.5176 -0.6127 -0.1824
 2239SOL    HW2 7416   1.977   1.985   1.162  0.4566 -0.6434  0.0971
 2240SOL     OW 7417   0.032   1.769   3.932  0.3028  0.1664  0.1099
 2240SOL    HW1 7418   0.124   1.754   3.909  1.1132  1.6578  2.0002
 2240SOL    HW2 7419   0.019   1.862   3.914 -0.2884  0.3641  1.4570
 2241SOL     OW 7420   4.602   4.489   0.231 -0.4897  0.1690  0.2757
 2241SOL    HW1 7421   4.526   4.476   0.175 -0.9008 -0.2917  0.9355
 2241SOL    HW2 7422   4.583   4.570   0.279 -0.7068 -0.1019  0.6556
 2242SOL     OW 7423   0.019   4.331   4.326 -0.0574 -0.3254 -0.0832
 2242SOL    HW1 7424   0.077   4.294   4.393  0.4376  0.0044 -0.3198
 2242SOL    HW2 7425   0.009   4.261   4.262  1.3181  0.0969 -0.8073
 2243SOL     OW 7426   0.663   3.868   0.903 -0.0571 -0.1396  0.1368
 2243SOL    HW1 7427   0.670   3.917   0.821  0.9329 -0.7460 -0.1699
 2243SOL    HW2 7428   0.595   3.913   0.953  0.2745  1.0579 -0.4531
 2244SOL     OW 7429   3.813   3.346   0.058  0.4279 -0.6748 -0.0618
 2244SOL    HW1 7430   3.780   3.425   0.015 -0.5575 -1.6000 -1.0781
 2244SOL    HW2 7431   3.906   3.363   0.072  0.1998  0.7271 -0.0830
 2245SOL     OW 7432   3.047   5.289   5.025  0.0610  0.4187 -0.1007
 2245SOL    HW1 7433   3.106   5.243   5.085 -1.0554  0.2863  0.9378
 2245SOL    HW2 7434   3.030   5.225   4.955 -0.0639 -0.1024  0.4000
 2246SOL     OW 7435   5.330   2.180   3.459  0.1846 -0.0387 -0.6148
 2246SOL    HW1 7436   5.309   2.147   3.546  0.1289 -0.8596 -0.9311
 2246SOL    HW2 7437   5.416   2.220   3.469 -0.2991  0.8815  0.0653
 2247SOL     OW 7438   4.317   1.716   0.135 -0.2997 -0.0667  0.4313
 2247SOL    HW1 7439   4.354   1.647   0.081  1.0769  1.3707 -0.5846
 2247SOL    HW2 7440   4.240   1.677   0.175 -0.3823 -1.7394 -1.2011
 2248SOL     OW 7441   4.725   0.692   1.791 -0.2447  1.0508  0.3544
 2248SOL    HW1 7442   4.811   0.702   1.752  0.4476  0.1296  1.5597
 2248SOL    HW2 7443   4.688   0.615   1.748  0.4339  0.1581  1.3280
 2249SOL     OW 7444   3.746   4.825   1.517  0.2084  0.4782 -0.2429
 2249SOL    HW1 7445   3.737   4.910   1.561 -1.4455  1.0260 -1.5494
 2249SOL    HW2 7446   3.796   4.845   1.438  0.2745  0.1347 -0.2880
 2250SOL     OW 7447   3.463   1.193   3.255 -0.0818 -0.0444  0.5170
 2250SOL    HW1 7448   3.524   1.262   3.281  0.3574  0.1178 -0.8591
 2250SOL    HW2 7449   3.504   1.153   3.179 -0.0667 -2.2040  1.6062
 2251SOL     OW 7450   3.474   5.082   1.207  0.3513  0.1237  0.4482
 2251SOL    HW1 7451   3.516   5.127   1.281 -1.8532 -0.3874  2.0990
 2251SOL    HW2 7452   3.398   5.136   1.186  1.0881  0.4196 -1.7178
 2252SOL     OW 7453   4.237   4.078   2.345  0.2969  0.0061  0.6301
 2252SOL    HW1 7454   4.239   4.170   2.318 -1.6587 -0.4110 -1.2112
 2252SOL    HW2 7455   4.206   4.081   2.436  0.6545  1.1803  0.7337
 2253SOL     OW 7456   4.340   2.271   2.253  0.1840 -0.2872  0.5975
 2253SOL    HW1 7457   4.405   2.221   2.302  0.1824 -1.9782 -1.0161
 2253SOL    HW2 7458   4.267   2.210   2.241  0.1804  0.0590 -1.4418
 2254SOL     OW 7459   2.707   3.496   0.335  0.3350 -0.3333  0.2074
 2254SOL    HW1 7460   2.635   3.451   0.379  0.8638 -1.0071  0.3934
 2254SOL    HW2 7461   2.742   3.556   0.400  1.1867 -1.4059  0.7576
 2255SOL     OW 7462   2.906   2.622   3.810 -0.0032  0.1515 -0.0220
 2255SOL    HW1 7463   2.825   2.581   3.839  0.9451 -2.0423 -0.2371
 2255SOL    HW2 7464   2.929   2.683   3.880 -1.7071  0.6511  0.1290
 2256SOL     OW 7465   2.365   4.013   3.898  0.1090 -0.2363  0.3594
 2256SOL    HW1 7466   2.407   3.997   3.814  0.4973 -0.4347  0.5847
 2256SOL    HW2 7467   2.437   4.040   3.956 -0.1299 -0.2240  0.6550
 2257SOL     OW 7468   0.650   4.134   4.269 -0.5585  0.1132  0.4151
 2257SOL    HW1 7469   0.658   4.112   4.361 -0.7751 -0.0128  0.4037
 2257SOL    HW2 7470   0.592   4.067   4.233 -0.6974  0.3217  0.2460
 2258SOL     OW 7471   1.717   3.094   4.182 -0.2135  0.1030  0.2064
 2258SOL    HW1 7472   1.672   3.144   4.250  0.4990  0.0049  0.7718
 2258SOL    HW2 7473   1.752   3.160   4.122  0.7186  0.3129  0.9456
 2259SOL     OW 7474   4.487   4.293   2.121  0.3108 -0.5585  0.8528
 2259SOL    HW1 7475   4.581   4.303   2.132  0.7267 -2.4143 -0.4853
 2259SOL    HW2 7476   4.477   4.229   2.051 -1.9489 -0.7450  1.2423
 2260SOL     OW 7477   3.362   5.092   0.869 -0.5108 -0.5032  0.7758
 2260SOL    HW1 7478   3.364   5.186   0.885 -1.0105 -0.4671  0.6323
 2260SOL    HW2 7479   3.286   5.061   0.919 -1.2471 -0.6011 -0.3867
 2261SOL     OW 7480   2.103   4.627   1.501 -0.4421 -0.3737 -0.1334
 2261SOL    HW1 7481   2.128   4.610   1.410 -0.8037 -0.8413 -0.1517
 2261SOL    HW2 7482   2.116   4.543   1.546  1.4111  0.2947  0.6466
 2262SOL     OW 7483   1.824   2.831   1.506  0.2040  0.1582  0.0489
 2262SOL    HW1 7484   1.908   2.787   1.517 -0.3142 -0.5215  1.6917
 2262SOL    HW2 7485   1.767   2.790   1.571 -1.2735  0.9181 -0.7154
 2263SOL     OW 7486   4.947   1.685   3.655 -0.3797 -0.1548 -0.1995
 2263SOL    HW1 7487   4.923   1.598   3.686 -1.3385  0.4269  0.7612
 2263SOL    HW2 7488   5.006   1.669   3.582 -1.0598 -1.6164 -0.4664
 2264SOL     OW 7489   4.919   1.723   5.218  0.1811 -0.3554 -0.0235
 2264SOL    HW1 7490   4.836   1.766   5.241  0.6931  1.7661 -1.8055
 2264SOL    HW2 7491   4.894   1.632   5.199 -1.8795  0.3484 -1.0619
 2265SOL     OW 7492   5.029   3.932   3.194  0.4314  0.1557  0.0386
 2265SOL    HW1 7493   4.987   4.014   3.167 -0.2247 -0.6006 -1.3146
 2265SOL    HW2 7494   4.996   3.867   3.133  2.9325 -0.6592 -0.5346
 2266SOL     OW 7495   0.213   1.110   0.697  0.2675 -0.2220  0.6238
 2266SOL    HW1 7496   0.241   1.065   0.777 -1.1316 -1.3000  0.5430
 2266SOL    HW2 7497   0.204   1.040   0.633 -0.0643  0.4423 -0.0615
 2267SOL     OW 7498   4.978   5.287   2.080  0.0725  0.5373 -0.5470
 2267SOL    HW1 7499   4.939   5.306   2.165  0.8010 -0.3542  0.0114
 2267SOL    HW2 7500   4.934   5.207   2.051  1.3673 -0.4519  0.0690
 2268SOL     OW 7501   1.789   2.247   3.437 -0.0321 -0.2198 -0.4034
 2268SOL    HW1 7502   1.794   2.169   3.382  0.2654 -0.5104  0.0311
 2268SOL    HW2 7503   1.758   2.215   3.521  0.4667  0.0682 -0.1072
 2269SOL     OW 7504   3.531   1.540   4.086  0.0743  0.1515 -0.8881
 2269SOL    HW1 7505   3.496   1.491   4.011 -2.2050  1.1521 -0.5730
 2269SOL    HW2 7506   3.482   1.622   4.085  0.9978  0.7684  0.9007
 2270SOL     OW 7507   3.094   0.205   3.989 -0.0766 -0.3460 -0.2109
 2270SOL    HW1 7508   3.174   0.248   3.960  0.0657 -0.9635 -0.7712
 2270SOL    HW2 7509   3.123   0.118   4.019 -0.1129  0.4731  2.4538
 2271SOL     OW 7510   2.089   4.072   0.065  0.2535 -0.0235  0.3514
 2271SOL    HW1 7511   2.075   3.978   0.075 -0.9074  0.0957 -0.0851
 2271SOL    HW2 7512   2.163   4.078   0.004 -0.7442 -0.6580 -0.9696
 2272SOL     OW 7513   2.567   2.553   2.830 -0.0620  0.2158  0.3271
 2272SOL    HW1 7514   2.518   2.516   2.756  0.7428  0.6966 -0.4665
 2272SOL    HW2 7515   2.502   2.603   2.879 -0.4099  0.7330 -0.6341
 2273SOL     OW 7516   2.924   4.959   1.655  0.3417  0.3372 -0.4203
 2273SOL    HW1 7517   2.987   5.030   1.649 -0.3567  0.9724 -0.4669
 2273SOL    HW2 7518   2.973   4.880   1.631  1.5311  0.5583  1.1357
 2274SOL     OW 7519   3.810   4.504   0.926 -0.2842 -0.8309  0.6469
 2274SOL    HW1 7520   3.741   4.529   0.988 -0.4178  0.2732  0.0747
 2274SOL    HW2 7521   3.845   4.587   0.894 -0.5742 -1.3621 -1.1653
 2275SOL     OW 7522   0.135   4.452   1.511 -0.0255 -0.0572 -0.1733
 2275SOL    HW1 7523   0.040   4.442   1.524  0.0452 -1.4248 -0.6266
 2275SOL    HW2 7524   0.170   4.364   1.521  1.4505  0.6638  1.7949
 2276SOL     OW 7525   1.727   4.651   2.135 -0.5356  0.1796 -0.5451
 2276SOL    HW1 7526   1.663   4.580   2.143 -1.2718  0.9295  0.5792
 2276SOL    HW2 7527   1.792   4.633   2.203 -0.6570  0.5083 -0.3402
 2277SOL     OW 7528   2.603   1.320   3.586  0.8147 -0.4691 -0.3259
 2277SOL    HW1 7529   2.519   1.333   3.540  1.2676 -0.3621 -1.1377
 2277SOL    HW2 7530   2.665   1.375   3.538  1.5052 -1.1138 -0.1795
 2278SOL     OW 7531   2.258   5.137   3.312 -0.2203  0.1322  0.1283
 2278SOL    HW1 7532   2.343   5.131   3.268  0.7580 -1.5490  2.0653
 2278SOL    HW2 7533   2.271   5.202   3.380 -0.7570  0.4793 -0.0986
 2279SOL     OW 7534   1.095   0.305   5.357  0.3854  0.4379  0.1563
 2279SOL    HW1 7535   1.175   0.255   5.370  0.2432 -0.2082 -1.2950
 2279SOL    HW2 7536   1.089   0.318   5.263 -1.2087  0.4753  0.2354
 2280SOL     OW 7537   3.236   2.845   3.679 -0.7625 -0.0053 -0.6462
 2280SOL    HW1 7538   3.303   2.798   3.728 -0.5190  0.7084 -0.2966
 2280SOL    HW2 7539   3.165   2.781   3.671  0.1431 -0.9551 -1.4792
 2281SOL     OW 7540   2.027   0.232   2.754 -0.0299  0.1057 -0.3773
 2281SOL    HW1 7541   1.960   0.179   2.711  0.0591  0.7051 -1.2818
 2281SOL    HW2 7542   2.067   0.283   2.683  0.4176  0.8006  0.3530
 2282SOL     OW 7543   3.724   4.543   3.225 -0.6667 -0.2420 -0.3860
 2282SOL    HW1 7544   3.688   4.464   3.265  0.5579 -1.3528 -1.3780
 2282SOL    HW2 7545   3.684   4.545   3.138 -1.6999  0.9917  0.0892
 2283SOL     OW 7546   2.447   0.130   3.617 -0.1797 -0.3239 -0.0598
 2283SOL    HW1 7547   2.465   0.156   3.707  1.1417 -0.7635 -0.1811
 2283SOL    HW2 7548   2.488   0.197   3.563  1.4735 -1.5121 -0.3457
 2284SOL     OW 7549   4.865   4.890   2.343  0.5147 -0.0702  0.7624
 2284SOL    HW1 7550   4.937   4.863   2.400  1.2331 -0.7300 -0.4362
 2284SOL    HW2 7551   4.896   4.873   2.254 -0.7519  0.5400  0.1755
 2285SOL     OW 7552   4.424   3.057   3.444  0.0879  0.2261  0.5486
 2285SOL    HW1 7553   4.348   3.067   3.387 -0.2257 -1.2195  0.6940
 2285SOL    HW2 7554   4.491   3.018   3.389  0.3239  0.3345  0.7538
 2286SOL     OW 7555   1.739   1.181   0.596 -0.0819 -0.0901 -0.3282
 2286SOL    HW1 7556   1.762   1.161   0.505  0.1970  1.0090 -0.5086
 2286SOL    HW2 7557   1.643   1.189   0.596 -0.3511 -2.4402 -0.0208
 2287SOL     OW 7558   3.622   4.805   0.935 -0.0729 -0.3681  0.5839
 2287SOL    HW1 7559   3.557   4.738   0.916 -0.1925  0.0907 -0.6990
 2287SOL    HW2 7560   3.626   4.809   1.031 -0.8852 -1.3968  0.6674
 2288SOL     OW 7561   1.478   5.383   1.771 -0.1219 -0.0538 -0.2717
 2288SOL    HW1 7562   1.510   5.410   1.858  0.9419 -1.4019 -0.2186
 2288SOL    HW2 7563   1.480   5.288   1.774 -0.4992 -0.1124 -1.6403
 2289SOL     OW 7564   2.573   0.651   1.316 -0.4872  0.4685  0.3338
 2289SOL    HW1 7565   2.563   0.556   1.314 -0.0815  0.3430  2.1594
 2289SOL    HW2 7566   2.508   0.680   1.380 -1.1011  1.5208 -0.7288
 2290SOL     OW 7567   4.142   4.269   3.547 -0.5174  0.1543  0.4793
 2290SOL    HW1 7568   4.163   4.361   3.562  0.9657 -0.3041  1.3603
 2290SOL    HW2 7569   4.174   4.223   3.624 -1.4068 -1.0965  0.1513
 2291SOL     OW 7570   3.913   1.941   4.901 -0.3398  0.2127 -0.2383
 2291SOL    HW1 7571   3.885   1.855   4.870  0.4711 -0.4912  0.9150
 2291SOL    HW2 7572   3.834   1.995   4.897 -0.6266 -0.2842 -1.9363
 2292SOL     OW 7573   1.027   1.257   3.447  0.2604 -0.0038  0.5773
 2292SOL    HW1 7574   0.971   1.258   3.369  1.5503 -2.8301 -0.5118
 2292SOL    HW2 7575   0.970   1.225   3.517 -0.1199 -0.5024  0.0506
 2293SOL     OW 7576   5.331   3.672   1.857  0.2160  0.1559  0.0151
 2293SOL    HW1 7577   5.356   3.753   1.900 -0.4330  0.9646 -1.0675
 2293SOL    HW2 7578   5.323   3.608   1.928  3.1374  0.3699  0.6449
 2294SOL     OW 7579   3.654   3.109   1.361  0.3226  0.2411 -0.0970
 2294SOL    HW1 7580   3.593   3.068   1.422  2.1595 -0.4839  1.3814
 2294SOL    HW2 7581   3.650   3.054   1.283  0.1509 -0.6981  0.5470
 2295SOL     OW 7582   4.939   1.730   2.675  0.2665 -0.4505 -0.5518
 2295SOL    HW1 7583   4.889   1.702   2.598  1.9179 -2.0385 -1.1442
 2295SOL    HW2 7584   5.018   1.769   2.638 -0.1324  1.2672  0.3554
 2296SOL     OW 7585   0.036   2.276   1.897  0.2901  0.7372  0.2421
 2296SOL    HW1 7586  -0.046   2.313   1.865 -0.6477  0.1022  1.7860
 2296SOL    HW2 7587   0.056   2.327   1.976  0.0455 -0.6631  1.2579
 2297SOL     OW 7588   3.602   2.028   1.789 -0.1227  0.0333  0.1717
 2297SOL    HW1 7589   3.528   1.968   1.777 -0.0745 -0.4951  2.1644
 2297SOL    HW2 7590   3.651   1.991   1.862  0.3203  2.1120  0.9993
 2298SOL     OW 7591   3.567   1.917   3.308  0.2359  0.3636  0.3304
 2298SOL    HW1 7592   3.477   1.949   3.316  1.3733  4.4487 -0.4783
 2298SOL    HW2 7593   3.602   1.922   3.396  0.1569  0.5772  0.3510
 2299SOL     OW 7594   2.376   1.724   3.261 -0.3279 -0.0698 -0.2234
 2299SOL    HW1 7595   2.333   1.726   3.175  0.2647  0.2687 -0.5193
 2299SOL    HW2 7596   2.321   1.667   3.314 -0.9952  0.1449 -0.6718
 2300SOL     OW 7597   4.764   1.202   4.262  0.1054 -0.2203 -0.7263
 2300SOL    HW1 7598   4.715   1.232   4.338  0.3066  0.0371 -0.6971
 2300SOL    HW2 7599   4.853   1.186   4.295  0.0817 -0.5326 -0.8105
 2301SOL     OW 7600   2.499   2.731   4.828  0.0506 -0.0452  0.1305
 2301SOL    HW1 7601   2.424   2.776   4.790 -0.1009  1.0263  1.6159
 2301SOL    HW2 7602   2.550   2.702   4.753 -1.0128  0.6256 -0.8863
 2302SOL     OW 7603   1.422   3.533   1.321  0.2855  0.0422 -0.2652
 2302SOL    HW1 7604   1.405   3.604   1.382 -0.3098  0.1419 -0.5396
 2302SOL    HW2 7605   1.383   3.456   1.361  0.4408 -0.0196 -0.2306
 2303SOL     OW 7606   3.477   0.628   2.824 -0.4447  0.3508  0.4078
 2303SOL    HW1 7607   3.468   0.559   2.758  0.7591 -2.5761  3.0158
 2303SOL    HW2 7608   3.405   0.611   2.886  0.3017  0.9332  1.4720
 2304SOL     OW 7609   4.271   3.879   0.511 -0.4726 -0.5771 -0.5999
 2304SOL    HW1 7610   4.318   3.812   0.561 -0.1740 -0.5705 -0.8679
 2304SOL    HW2 7611   4.312   3.961   0.537 -1.8829 -0.3078  0.9331
 2305SOL     OW 7612   5.227   3.355   4.931 -0.0104  0.0105 -0.2742
 2305SOL    HW1 7613   5.304   3.378   4.878  0.6933  1.5708  1.3155
 2305SOL    HW2 7614   5.153   3.367   4.872  0.8031  0.8836 -1.1546
 2306SOL     OW 7615   2.878   4.584   1.821 -0.2061  0.1181  0.3620
 2306SOL    HW1 7616   2.879   4.602   1.727  0.8842 -1.0689  0.1200
 2306SOL    HW2 7617   2.951   4.636   1.857  2.0794 -2.5006 -0.1372
 2307SOL     OW 7618   3.374   4.115   2.425 -0.5168 -0.0950 -0.3664
 2307SOL    HW1 7619   3.399   4.208   2.423 -2.3770  0.4315 -1.0643
 2307SOL    HW2 7620   3.340   4.098   2.337  0.6688 -1.7220 -0.5535
 2308SOL     OW 7621   3.333   0.617   3.440  0.5132  0.2668 -0.5710
 2308SOL    HW1 7622   3.334   0.712   3.444 -0.0417  0.2530  0.0346
 2308SOL    HW2 7623   3.424   0.592   3.454  0.4261  0.6682  0.9560
 2309SOL     OW 7624   0.423   2.229   0.141  0.4302  0.0701  0.0531
 2309SOL    HW1 7625   0.330   2.249   0.134  0.2985  0.1481  1.6582
 2309SOL    HW2 7626   0.467   2.304   0.100 -0.1648  1.6952  2.2202
 2310SOL     OW 7627   4.197   3.975   3.163 -0.4787 -0.3671 -1.0770
 2310SOL    HW1 7628   4.165   4.065   3.161  0.0619 -0.0663  1.2308
 2310SOL    HW2 7629   4.261   3.974   3.235 -1.1850 -2.8041 -0.4004
 2311SOL     OW 7630   1.272   3.107   0.161 -0.2384 -0.3937 -0.2964
 2311SOL    HW1 7631   1.238   3.140   0.078  0.1219 -1.7941 -1.0236
 2311SOL    HW2 7632   1.253   3.014   0.160 -0.8272 -0.3309  1.5179
 2312SOL     OW 7633   1.947   0.702   0.512 -0.2763 -0.1150 -0.1724
 2312SOL    HW1 7634   1.961   0.669   0.423  0.5123  0.5962 -0.3366
 2312SOL    HW2 7635   2.003   0.648   0.567  0.1920  0.2381 -0.2919
 2313SOL     OW 7636   3.726   5.174   0.670 -0.0588  0.4422  0.0377
 2313SOL    HW1 7637   3.678   5.257   0.664  0.8734  1.2227  2.1707
 2313SOL    HW2 7638   3.659   5.108   0.684 -0.8279  0.7729 -1.7929
 2314SOL     OW 7639   2.630   1.694   1.407 -0.6097  0.3053  0.3510
 2314SOL    HW1 7640   2.600   1.663   1.321  2.5220  0.5777 -0.9541
 2314SOL    HW2 7641   2.582   1.775   1.421 -1.7330 -0.1268 -0.7516
 2315SOL     OW 7642   1.049   2.758   2.594  0.6255  0.3485  0.6576
 2315SOL    HW1 7643   1.129   2.743   2.543 -0.8276 -0.9735 -1.3828
 2315SOL    HW2 7644   0.999   2.820   2.542 -1.0785 -1.3271  0.2064
 2316SOL     OW 7645   2.483   3.634   1.656 -0.3816  0.4034 -0.3280
 2316SOL    HW1 7646   2.439   3.645   1.572  0.9789  0.1052 -1.1085
 2316SOL    HW2 7647   2.442   3.699   1.714  0.4042  2.4498 -1.9436
 2317SOL     OW 7648   2.079   1.721   3.568  0.1560 -0.3741  0.0607
 2317SOL    HW1 7649   2.087   1.769   3.651  0.7585  0.2842 -0.3662
 2317SOL    HW2 7650   2.002   1.665   3.580 -0.0514  0.0691  0.8884
 2318SOL     OW 7651   3.518   4.686   2.138  0.0438 -0.4301  0.5746
 2318SOL    HW1 7652   3.540   4.599   2.106  0.4220 -0.7070  1.5331
 2318SOL    HW2 7653   3.539   4.745   2.066 -1.0681 -1.1984 -0.4218
 2319SOL     OW 7654   4.193   4.117   5.041  0.1016  0.1360 -0.0044
 2319SOL    HW1 7655   4.155   4.204   5.026  1.0101  0.3056 -1.5547
 2319SOL    HW2 7656   4.271   4.115   4.986  0.0021 -1.7434 -0.1393
 2320SOL     OW 7657   2.294   5.223   2.974 -0.1259  0.0094 -0.2917
 2320SOL    HW1 7658   2.282   5.170   2.895 -0.9294 -0.8787  0.4087
 2320SOL    HW2 7659   2.207   5.227   3.014  0.4476 -0.3159  1.0252
 2321SOL     OW 7660   2.676   2.274   2.513 -0.6066 -0.2454  0.0034
 2321SOL    HW1 7661   2.760   2.319   2.509 -0.2815 -0.8710 -0.3266
 2321SOL    HW2 7662   2.611   2.344   2.517 -0.0217  0.2402  1.3905
 2322SOL     OW 7663   0.697   0.045   4.710 -0.3944 -0.0562 -0.3832
 2322SOL    HW1 7664   0.727  -0.035   4.754  1.3672  0.1134 -1.2145
 2322SOL    HW2 7665   0.652   0.014   4.631 -0.3819 -0.2436 -0.3158
 2323SOL     OW 7666   4.619   4.432   4.762 -0.3056 -0.5479  0.5563
 2323SOL    HW1 7667   4.630   4.527   4.761 -2.4954 -0.2364 -0.1862
 2323SOL    HW2 7668   4.580   4.413   4.847 -0.9812 -0.5924  0.2490
 2324SOL     OW 7669   4.654   4.924   0.543  0.0199 -0.5675 -0.0603
 2324SOL    HW1 7670   4.740   4.963   0.560  1.0873 -1.9073 -1.9920
 2324SOL    HW2 7671   4.591   4.987   0.578  1.7402  1.3085 -0.2091
 2325SOL     OW 7672   0.918   1.828   4.123  0.0037 -0.6612  0.0727
 2325SOL    HW1 7673   0.825   1.827   4.102 -0.1134  1.6255  0.2742
 2325SOL    HW2 7674   0.924   1.783   4.207 -0.7154 -1.9419 -0.5346
 2326SOL     OW 7675   2.664   2.144   3.469 -0.1278 -0.3829  0.6179
 2326SOL    HW1 7676   2.596   2.086   3.437 -1.0713  0.7222  0.5494
 2326SOL    HW2 7677   2.679   2.206   3.397  1.4937 -1.0299  0.3377
 2327SOL     OW 7678   0.779   0.949   1.811  0.3993  0.0423 -0.3048
 2327SOL    HW1 7679   0.693   0.990   1.804  0.6592  0.3575 -1.8768
 2327SOL    HW2 7680   0.826   1.003   1.874  0.1204  1.0774 -0.9705
 2328SOL     OW 7681   1.394   0.832   4.704 -0.2951 -0.2748 -0.1227
 2328SOL    HW1 7682   1.489   0.837   4.717 -0.3425 -1.4840  0.8132
 2328SOL    HW2 7683   1.363   0.777   4.776 -1.7663  0.4484 -0.1760
 2329SOL     OW 7684   1.806   4.473   4.375  0.1037 -0.2921  0.0526
 2329SOL    HW1 7685   1.787   4.564   4.350  1.2000  0.8780  3.0572
 2329SOL    HW2 7686   1.883   4.450   4.323 -0.5021  0.2670 -1.1325
 2330SOL     OW 7687   0.281   2.881   1.792 -0.6008 -0.2978 -0.0376
 2330SOL    HW1 7688   0.351   2.825   1.825  1.2022  1.1116 -1.2107
 2330SOL    HW2 7689   0.304   2.969   1.823 -2.1311  0.1446 -0.0663
 2331SOL     OW 7690   3.617   2.678   1.625 -0.5272 -0.2516 -0.4185
 2331SOL    HW1 7691   3.577   2.656   1.540 -3.2584  0.4726  0.5888
 2331SOL    HW2 7692   3.595   2.770   1.639  0.4046 -0.1929  0.8178
 2332SOL     OW 7693   5.232   5.363   4.035  0.1856  0.0133 -0.3778
 2332SOL    HW1 7694   5.283   5.436   4.070 -0.1047  0.2032 -0.3427
 2332SOL    HW2 7695   5.286   5.286   4.051  0.4660  0.2130 -0.3531
 2333SOL     OW 7696   0.175   2.743   1.517 -0.2468  0.1361  0.1565
 2333SOL    HW1 7697   0.257   2.737   1.568  0.0037  3.5570  0.3845
 2333SOL    HW2 7698   0.203   2.737   1.426  0.0092 -0.6569  0.2851
 2334SOL     OW 7699   5.058   0.869   3.893 -0.0145 -0.0280 -0.1225
 2334SOL    HW1 7700   5.069   0.814   3.816 -0.0243 -1.3862  0.8133
 2334SOL    HW2 7701   5.093   0.817   3.965  1.1317  1.7003  0.6388
 2335SOL     OW 7702   3.692   3.454   4.285  0.1589  0.1143 -0.3391
 2335SOL    HW1 7703   3.664   3.408   4.206 -1.4505  0.2596  0.1122
 2335SOL    HW2 7704   3.612   3.466   4.336  0.2359  4.1788 -0.7952
 2336SOL     OW 7705   3.549   1.762   5.000 -0.7716  0.4160  0.4186
 2336SOL    HW1 7706   3.590   1.838   4.957 -1.0039  0.8752  0.9952
 2336SOL    HW2 7707   3.607   1.689   4.979  0.2873  1.0330  1.1132
 2337SOL     OW 7708   5.305   4.704   4.990  0.7148 -0.4705  0.5804
 2337SOL    HW1 7709   5.263   4.744   4.914  1.3210  1.0857  1.0364
 2337SOL    HW2 7710   5.386   4.667   4.955  1.1590  0.5431  0.5195
 2338SOL     OW 7711   1.325   5.143   2.320 -0.4191  0.2018  0.1941
 2338SOL    HW1 7712   1.337   5.143   2.225 -2.9237 -1.3401 -0.2037
 2338SOL    HW2 7713   1.402   5.096   2.354 -0.7568 -1.5495 -1.3195
 2339SOL     OW 7714   5.100   3.640   2.090 -0.3942 -0.2348 -0.1614
 2339SOL    HW1 7715   5.055   3.592   2.021 -1.7670 -1.8113  1.7129
 2339SOL    HW2 7716   5.098   3.581   2.166  1.7000  1.1073  1.0422
 2340SOL     OW 7717   2.299   3.202   2.827 -0.0903 -0.1035  0.0234
 2340SOL    HW1 7718   2.353   3.236   2.898 -0.4562  0.3514  0.0872
 2340SOL    HW2 7719   2.267   3.118   2.860 -0.2558  0.1037  0.3980
 2341SOL     OW 7720   3.469   4.613   3.096 -0.3733  0.1075 -0.0003
 2341SOL    HW1 7721   3.447   4.521   3.081  0.1054  0.1431 -0.9917
 2341SOL    HW2 7722   3.454   4.626   3.190 -0.0504 -1.0935  0.2352
 2342SOL     OW 7723   2.650   5.328   1.990  0.1600  0.2441  0.0994
 2342SOL    HW1 7724   2.727   5.339   1.933  0.5340  0.9106  0.7103
 2342SOL    HW2 7725   2.683   5.279   2.065 -0.7271 -2.1892 -1.0091
 2343SOL     OW 7726   3.437   2.822   4.708  0.7240 -0.7834 -0.2849
 2343SOL    HW1 7727   3.431   2.834   4.613  0.3748  1.0479 -0.0723
 2343SOL    HW2 7728   3.514   2.768   4.721  0.5738 -1.3589 -1.6305
 2344SOL     OW 7729   0.336   3.298   0.608  0.0130  0.3381  0.3895
 2344SOL    HW1 7730   0.262   3.348   0.642 -1.9216 -2.1821  0.1269
 2344SOL    HW2 7731   0.379   3.263   0.686 -0.6752 -0.3627  0.4565
 2345SOL     OW 7732   0.872   4.796   0.553 -0.5285 -0.2550  0.6209
 2345SOL    HW1 7733   0.916   4.856   0.492  0.1667 -0.6576  0.7198
 2345SOL    HW2 7734   0.829   4.732   0.496 -0.3658 -0.2907  0.5361
 2346SOL     OW 7735   2.929   0.064   4.414  0.1283  0.2906 -0.3488
 2346SOL    HW1 7736   2.891   0.035   4.331 -0.6272 -2.3543  0.8232
 2346SOL    HW2 7737   3.023   0.057   4.401  0.0048 -2.0509 -0.4475
 2347SOL     OW 7738   0.403   4.305   2.366 -0.4380 -0.4350 -0.1018
 2347SOL    HW1 7739   0.331   4.242   2.359 -1.8102  0.7929  1.8627
 2347SOL    HW2 7740   0.482   4.250   2.372 -1.4851 -1.9550  0.4922
 2348SOL     OW 7741   0.959   0.667   2.595 -0.5009 -0.8913 -0.1537
 2348SOL    HW1 7742   0.922   0.600   2.537 -1.4798 -2.3195  1.9821
 2348SOL    HW2 7743   1.038   0.627   2.631  0.1847  0.0356 -0.6188
 2349SOL     OW 7744   2.831   4.267   4.804  0.3648  0.4798 -0.7601
 2349SOL    HW1 7745   2.745   4.309   4.801 -0.1059 -0.4678 -1.3581
 2349SOL    HW2 7746   2.894   4.337   4.787 -0.2152  1.3669  0.6384
 2350SOL     OW 7747   2.636   2.784   3.844  0.2326  0.3655 -0.6988
 2350SOL    HW1 7748   2.625   2.876   3.867  2.9331  0.5908  0.0433
 2350SOL    HW2 7749   2.549   2.755   3.817 -0.7881  2.9904 -0.4936
 2351SOL     OW 7750   2.079   0.294   2.342  0.3691  0.2643 -0.4690
 2351SOL    HW1 7751   1.986   0.280   2.357  0.8119 -1.0285  1.3686
 2351SOL    HW2 7752   2.088   0.296   2.246 -1.4428 -0.1491 -0.6759
 2352SOL     OW 7753   1.129   0.430   1.554  0.1825  0.2659  0.0769
 2352SOL    HW1 7754   1.179   0.386   1.623 -0.7874  0.8827  1.2290
 2352SOL    HW2 7755   1.082   0.359   1.510  0.5121 -0.1042  0.3137
 2353SOL     OW 7756   3.626   2.652   5.394 -0.2531 -0.2565 -0.0276
 2353SOL    HW1 7757   3.649   2.562   5.372 -0.7759 -0.1850 -0.9270
 2353SOL    HW2 7758   3.544   2.668   5.347  0.0093  0.8011 -0.1469
 2354SOL     OW 7759   1.086   0.496   4.855  0.2224  0.4555  0.3223
 2354SOL    HW1 7760   1.104   0.522   4.765 -0.2398 -0.3557 -0.0222
 2354SOL    HW2 7761   1.004   0.540   4.877  1.1926  2.0287  0.9675
 2355SOL     OW 7762   4.351   1.645   3.807 -0.6326 -0.5126 -0.6256
 2355SOL    HW1 7763   4.308   1.568   3.769 -1.3270 -0.3184 -0.2400
 2355SOL    HW2 7764   4.342   1.712   3.739  1.2741 -1.1520 -1.5956
 2356SOL     OW 7765   5.049   4.312   0.338 -0.7253 -0.3189  0.5528
 2356SOL    HW1 7766   4.991   4.322   0.413 -1.2483 -0.5904  0.1915
 2356SOL    HW2 7767   4.990   4.292   0.265 -0.2310  0.0134  0.0580
 2357SOL     OW 7768   0.404   1.986   4.752  0.5365 -0.1016 -0.4061
 2357SOL    HW1 7769   0.414   2.071   4.793 -0.9890  0.4627 -1.1348
 2357SOL    HW2 7770   0.493   1.962   4.725  0.8627  1.7402 -1.1230
 2358SOL     OW 7771   1.834   5.229   1.502  0.2363  0.6938 -0.3425
 2358SOL    HW1 7772   1.856   5.219   1.409 -0.2159 -1.7567 -0.2520
 2358SOL    HW2 7773   1.867   5.315   1.525 -0.6824  1.8856 -3.0601
 2359SOL     OW 7774   3.765   5.168   3.691 -0.1832  0.1895 -0.2381
 2359SOL    HW1 7775   3.850   5.213   3.693 -0.2386  0.3897 -1.3597
 2359SOL    HW2 7776   3.767   5.109   3.766  1.8410 -1.3828 -1.4119
 2360SOL     OW 7777   4.214   2.363   0.777 -0.3470  0.2496 -0.1370
 2360SOL    HW1 7778   4.177   2.296   0.718 -0.8698  0.9670 -0.6454
 2360SOL    HW2 7779   4.282   2.317   0.826 -0.9117 -0.7335 -0.2528
 2361SOL     OW 7780   4.815   5.090   4.087  0.2046 -0.3938 -0.1796
 2361SOL    HW1 7781   4.909   5.072   4.079  0.1550 -0.2654 -1.1518
 2361SOL    HW2 7782   4.784   5.098   3.996 -0.8915 -1.2160  0.0982
 2362SOL     OW 7783   0.349   0.401   0.686  0.2170  0.4058  0.5803
 2362SOL    HW1 7784   0.339   0.469   0.619  3.6739  0.4090 -0.1583
 2362SOL    HW2 7785   0.371   0.322   0.636 -2.7269 -1.0958  1.4935
 2363SOL     OW 7786   2.830   0.836   2.031  0.4588  0.3998  0.0281
 2363SOL    HW1 7787   2.864   0.772   2.094  0.0288 -0.6883 -0.8170
 2363SOL    HW2 7788   2.883   0.822   1.952 -0.0630  0.6702 -0.3722
 2364SOL     OW 7789   0.643   0.829   3.937 -0.1483  0.3728  0.6232
 2364SOL    HW1 7790   0.637   0.757   3.999  2.0256 -0.0484  0.3936
 2364SOL    HW2 7791   0.613   0.792   3.854 -0.5259  0.1891  0.8407
 2365SOL     OW 7792   2.402   5.014   4.847 -0.3249  0.3055  0.2524
 2365SOL    HW1 7793   2.397   4.919   4.850  1.9264  0.1296  0.0135
 2365SOL    HW2 7794   2.461   5.038   4.918 -0.8483  1.5477  0.3081
 2366SOL     OW 7795   4.819   4.312   2.528 -0.3757  0.4328 -0.0689
 2366SOL    HW1 7796   4.751   4.246   2.517 -0.5253  0.0434  2.5940
 2366SOL    HW2 7797   4.896   4.263   2.556  0.9569  0.9290 -2.5578
 2367SOL     OW 7798   0.023   1.083   1.181 -0.1957  0.2660  0.2258
 2367SOL    HW1 7799  -0.013   0.995   1.191  1.6737 -0.7434 -1.1538
 2367SOL    HW2 7800  -0.043   1.132   1.133 -0.8929 -0.6511  0.2342
 2368SOL     OW 7801   4.641   1.129   4.753 -0.3547 -0.2030 -0.1540
 2368SOL    HW1 7802   4.664   1.199   4.815 -0.7140 -0.9006  0.7869
 2368SOL    HW2 7803   4.724   1.084   4.736 -0.5530 -1.2097  1.3529
 2369SOL     OW 7804   4.287   5.333   2.603  0.4743 -0.2264  0.1821
 2369SOL    HW1 7805   4.349   5.365   2.668  1.5877  0.1121 -1.0013
 2369SOL    HW2 7806   4.201   5.343   2.644  1.1720 -0.3707  1.7193
 2370SOL     OW 7807   2.818   2.622   2.363 -0.4275 -0.5411  0.5210
 2370SOL    HW1 7808   2.870   2.701   2.349 -1.5254  0.4313  1.6996
 2370SOL    HW2 7809   2.854   2.559   2.301 -0.4575  1.3216 -1.5476
 2371SOL     OW 7810   3.151   0.660   1.642  0.5162 -0.3145 -0.5923
 2371SOL    HW1 7811   3.187   0.583   1.599  1.1514 -0.0881 -0.4741
 2371SOL    HW2 7812   3.152   0.728   1.574  0.9174 -0.1330 -0.4068
 2372SOL     OW 7813   0.945   5.149   1.454  0.4595  0.0179 -0.0085
 2372SOL    HW1 7814   0.930   5.171   1.362  0.3327  0.9080  0.2214
 2372SOL    HW2 7815   0.919   5.227   1.502  0.4206 -0.4804  0.7972
 2373SOL     OW 7816   4.114   3.467   2.300 -0.2822 -0.1953  0.1453
 2373SOL    HW1 7817   4.069   3.393   2.258 -2.3773  0.9683  0.1753
 2373SOL    HW2 7818   4.179   3.495   2.236  0.3262 -1.8225 -0.0007
 2374SOL     OW 7819   2.647   1.617   3.667  0.7055 -0.5323  0.0762
 2374SOL    HW1 7820   2.653   1.679   3.739 -0.3603  0.6244 -0.7849
 2374SOL    HW2 7821   2.554   1.617   3.644  1.2742  0.6132 -2.5407
 2375SOL     OW 7822   2.503   4.369   3.767 -0.2542 -0.4289 -0.0736
 2375SOL    HW1 7823   2.584   4.420   3.772  0.3257 -1.2220 -0.9715
 2375SOL    HW2 7824   2.520   4.291   3.819 -0.8857 -0.0631  0.7102
 2376SOL     OW 7825   4.896   4.485   5.043 -0.1340  0.5450  0.8479
 2376SOL    HW1 7826   4.925   4.420   4.979  0.0609 -0.3232  1.7968
 2376SOL    HW2 7827   4.972   4.501   5.098 -0.2800  1.3382  0.8351
 2377SOL     OW 7828   2.273   2.306   0.163 -0.3258 -0.2687 -0.2416
 2377SOL    HW1 7829   2.244   2.292   0.073 -1.0947 -3.5655  0.4158
 2377SOL    HW2 7830   2.326   2.229   0.185  2.4457  1.8350  1.2315
 2378SOL     OW 7831   1.489   4.821   1.471  0.5948 -0.2106 -0.2193
 2378SOL    HW1 7832   1.454   4.769   1.544 -1.4626  0.8979 -0.3630
 2378SOL    HW2 7833   1.522   4.755   1.409 -1.2362 -1.3481 -0.0561
 2379SOL     OW 7834   3.484   2.218   3.935 -0.2739  0.3619  0.7078
 2379SOL    HW1 7835   3.411   2.251   3.882 -0.5722 -0.1446  0.7938
 2379SOL    HW2 7836   3.525   2.297   3.971 -0.2607  0.6978 -0.0232
 2380SOL     OW 7837   1.070   0.384   3.335  0.4956  0.0007  0.8796
 2380SOL    HW1 7838   0.993   0.406   3.283 -0.7071 -0.9740  2.1810
 2380SOL    HW2 7839   1.137   0.362   3.270 -0.0285  1.6299 -0.3029
 2381SOL     OW 7840   3.983   2.592   4.248  0.2764 -0.1229  0.3720
 2381SOL    HW1 7841   3.893   2.626   4.254 -0.2578 -1.5034  0.6496
 2381SOL    HW2 7842   4.004   2.564   4.338  1.9995  2.5410  0.8927
 2382SOL     OW 7843   0.808   0.061   4.367 -0.1265 -0.5822  0.1813
 2382SOL    HW1 7844   0.767   0.051   4.282  0.6900 -0.9011 -0.1867
 2382SOL    HW2 7845   0.779  -0.015   4.417 -1.2497  0.0115  0.4824
 2383SOL     OW 7846   0.527   4.451   4.359  0.1461  0.0255  0.0379
 2383SOL    HW1 7847   0.570   4.533   4.383 -2.0759  1.5801 -0.9418
 2383SOL    HW2 7848   0.568   4.426   4.276  0.7425  0.2066  0.2702
 2384SOL     OW 7849   2.614   4.177   5.156 -0.4882 -0.0823 -0.1839
 2384SOL    HW1 7850   2.556   4.213   5.090  1.3893  1.4767 -1.0817
 2384SOL    HW2 7851   2.661   4.253   5.192  1.8939 -1.3274 -0.4236
 2385SOL     OW 7852   2.858   5.048   3.892  0.4299 -0.2620 -0.6301
 2385SOL    HW1 7853   2.814   5.096   3.821  0.8805  0.6310 -0.3171
 2385SOL    HW2 7854   2.838   5.097   3.971 -0.1180 -1.2912 -0.1098
 2386SOL     OW 7855   1.551   5.328   2.495  0.2016 -0.7995  0.2904
 2386SOL    HW1 7856   1.469   5.375   2.483  1.2027  1.2694  1.0135
 2386SOL    HW2 7857   1.542   5.250   2.441 -2.3691 -0.8476  0.6425
 2387SOL     OW 7858   1.529   2.105   5.172  0.1149 -0.1391 -0.3862
 2387SOL    HW1 7859   1.472   2.170   5.130  2.1642  1.5348 -0.7593
 2387SOL    HW2 7860   1.584   2.071   5.102 -1.1529 -2.6690 -0.2689
 2388SOL     OW 7861   5.079   0.604   4.849  0.1347 -0.6736 -0.0289
 2388SOL    HW1 7862   5.000   0.620   4.797  0.1598  0.5730  0.3000
 2388SOL    HW2 7863   5.151   0.613   4.786  0.2344  1.8137  0.3421
 2389SOL     OW 7864   3.200   4.222   4.301  0.8801 -0.1878  0.2361
 2389SOL    HW1 7865   3.179   4.198   4.392 -1.4388  1.0793  0.1267
 2389SOL    HW2 7866   3.193   4.140   4.252 -0.5924 -0.4351  0.8180
 2390SOL     OW 7867   0.469   4.958   4.888 -0.3604  0.0049  0.1322
 2390SOL    HW1 7868   0.415   4.924   4.816  0.0519 -2.9764  1.0884
 2390SOL    HW2 7869   0.451   5.052   4.889 -3.1868 -0.4058 -1.5016
 2391SOL     OW 7870   1.253   1.530   0.191  0.3513  0.1317 -0.1169
 2391SOL    HW1 7871   1.176   1.571   0.230 -0.8893 -1.0136 -1.2602
 2391SOL    HW2 7872   1.303   1.603   0.153  0.7007  1.0664  1.9850
 2392SOL     OW 7873   5.168   4.742   0.483  0.5301  0.7062 -0.7315
 2392SOL    HW1 7874   5.201   4.725   0.571 -0.6112  1.2421 -0.1837
 2392SOL    HW2 7875   5.106   4.672   0.465  0.7462  0.6057 -1.1147
 2393SOL     OW 7876   2.336   3.231   5.215  0.0291 -0.7403  0.0156
 2393SOL    HW1 7877   2.383   3.247   5.297  1.2518 -2.7667 -0.2307
 2393SOL    HW2 7878   2.282   3.309   5.203  3.1466  1.7047  0.4617
 2394SOL     OW 7879   4.540   3.094   1.392  0.0636  0.6677  0.1295
 2394SOL    HW1 7880   4.477   3.086   1.320 -0.0496  1.2836  0.1521
 2394SOL    HW2 7881   4.594   3.170   1.368 -0.3790  1.2632  0.9986
 2395SOL     OW 7882   0.558   3.832   0.185  0.0999 -0.5749 -0.7986
 2395SOL    HW1 7883   0.554   3.926   0.202 -0.3913 -0.1154 -3.0873
 2395SOL    HW2 7884   0.630   3.801   0.239  0.7057  1.2386 -0.5007
 2396SOL     OW 7885   4.795   2.067   4.587 -0.0065  0.8336  0.4422
 2396SOL    HW1 7886   4.843   1.994   4.626  1.0423  0.5533 -1.2877
 2396SOL    HW2 7887   4.752   2.029   4.511 -1.8721  1.4104  1.1650
 2397SOL     OW 7888   0.748   4.927   4.900 -0.3135  0.4429 -0.6937
 2397SOL    HW1 7889   0.656   4.923   4.927 -0.7162 -2.1235 -2.0770
 2397SOL    HW2 7890   0.798   4.905   4.978 -0.8160  2.2888  0.1797
 2398SOL     OW 7891   4.895   4.384   0.054 -0.4637 -0.5334  0.0521
 2398SOL    HW1 7892   4.986   4.414   0.053  0.0037 -1.8323 -1.8969
 2398SOL    HW2 7893   4.847   4.453   0.100  1.4038  0.4412  0.6285
 2399SOL     OW 7894   2.144   2.750   5.198 -0.2188 -0.4019  0.4178
 2399SOL    HW1 7895   2.171   2.841   5.185  2.2416 -1.2156 -1.0216
 2399SOL    HW2 7896   2.134   2.740   5.292 -0.4802  1.3296  0.5910
 2400SOL     OW 7897   3.174   4.610   3.573  0.3921  0.2810  0.2638
 2400SOL    HW1 7898   3.208   4.697   3.594  2.0554 -0.3396  0.2816
 2400SOL    HW2 7899   3.132   4.582   3.654  0.3898  0.8181  0.4594
 2401SOL     OW 7900   1.032   0.824   5.112 -0.2169 -0.5600 -0.0880
 2401SOL    HW1 7901   1.076   0.792   5.191 -0.9247  0.8867  0.9265
 2401SOL    HW2 7902   0.947   0.855   5.143 -0.1406  0.9047 -1.2736
 2402SOL     OW 7903   3.529   1.385   4.959 -0.1415  0.2581  0.0642
 2402SOL    HW1 7904   3.594   1.430   5.014 -0.2332  0.4277  0.0337
 2402SOL    HW2 7905   3.503   1.309   5.010  0.3767 -0.0305 -0.0903
 2403SOL     OW 7906   5.082   4.802   2.478  0.5597 -0.9573 -0.3453
 2403SOL    HW1 7907   5.110   4.892   2.495  0.1388 -1.4071  3.7196
 2403SOL    HW2 7908   5.164   4.754   2.466  0.9077 -0.4474 -0.0726
 2404SOL     OW 7909   1.195   2.267   4.893 -0.2458 -0.2695  0.7291
 2404SOL    HW1 7910   1.258   2.334   4.866  0.4461 -0.4306  1.8334
 2404SOL    HW2 7911   1.229   2.236   4.977 -2.0854 -0.0016  1.6258
 2405SOL     OW 7912   2.616   2.410   5.247 -0.0139 -0.4908 -0.4746
 2405SOL    HW1 7913   2.541   2.446   5.294  0.3570  1.3813 -1.2368
 2405SOL    HW2 7914   2.606   2.441   5.157  1.5459 -0.3508 -0.6346
 2406SOL     OW 7915   2.721   1.288   1.932 -0.4520 -0.4324  0.1483
 2406SOL    HW1 7916   2.662   1.360   1.911 -1.6708 -0.9384  1.6800
 2406SOL    HW2 7917   2.785   1.326   1.992  0.5020 -0.0204 -1.0850
 2407SOL     OW 7918   2.582   4.454   1.237  0.0532  0.0527 -0.2433
 2407SOL    HW1 7919   2.575   4.489   1.326 -0.5504 -1.8308  0.5072
 2407SOL    HW2 7920   2.650   4.507   1.195 -0.8826  2.1468  0.7262
 2408SOL     OW 7921   1.466   4.034   4.465 -0.0094  0.3463  0.3529
 2408SOL    HW1 7922   1.371   4.034   4.475  0.0799 -0.7093  1.4648
 2408SOL    HW2 7923   1.481   3.987   4.383 -0.4376 -0.0632  0.4993
 2409SOL     OW 7924   2.195   5.044   3.980  0.3008  0.3685 -0.5014
 2409SOL    HW1 7925   2.153   5.039   4.066 -0.3857  0.9705 -0.7902
 2409SOL    HW2 7926   2.266   4.980   3.984 -0.5926 -0.6301  0.0404
 2410SOL     OW 7927   0.749   1.055   2.694 -0.0496 -0.4053  0.1449
 2410SOL    HW1 7928   0.791   1.018   2.617  1.6597  2.0950 -0.2312
 2410SOL    HW2 7929   0.683   1.115   2.659 -1.0061 -1.1068  0.6972
 2411SOL     OW 7930   3.599   3.551   0.431  0.0981  0.7686 -0.2278
 2411SOL    HW1 7931   3.600   3.496   0.352 -1.9662  1.6022 -0.9018
 2411SOL    HW2 7932   3.531   3.511   0.486 -0.8995  2.1750 -0.4034
 2412SOL     OW 7933   0.072   0.015   3.675 -1.0675 -0.0159  0.4905
 2412SOL    HW1 7934   0.030  -0.037   3.743 -2.7146  1.5109  0.7081
 2412SOL    HW2 7935   0.166   0.001   3.689 -1.4083 -0.8741  2.1617
 2413SOL     OW 7936   0.995   3.017   0.959  0.1779 -0.2022  0.0929
 2413SOL    HW1 7937   1.046   2.936   0.957  0.9202  0.2145  1.0404
 2413SOL    HW2 7938   0.984   3.042   0.867 -0.6799 -1.7339 -0.2569
 2414SOL     OW 7939   0.259   4.211   1.516  0.4172  0.0005 -0.4496
 2414SOL    HW1 7940   0.326   4.244   1.456 -0.0627  0.3288 -0.8191
 2414SOL    HW2 7941   0.280   4.118   1.526  1.3113  0.2380 -0.0338
 2415SOL     OW 7942   4.075   3.478   4.573 -0.0631 -0.1498  0.5625
 2415SOL    HW1 7943   4.059   3.571   4.558  0.2467 -0.3562 -1.2719
 2415SOL    HW2 7944   4.011   3.452   4.639 -1.2403  0.9997 -0.1013
 2416SOL     OW 7945   0.727   0.450   2.299 -0.0172  0.2352  0.1294
 2416SOL    HW1 7946   0.707   0.423   2.209  0.9087  2.2094 -0.7307
 2416SOL    HW2 7947   0.689   0.382   2.354  0.0225 -1.4144 -1.7857
 2417SOL     OW 7948   4.828   0.623   2.144 -0.0724 -0.1267 -0.0382
 2417SOL    HW1 7949   4.770   0.668   2.082 -1.3553 -1.1660  0.3611
 2417SOL    HW2 7950   4.917   0.647   2.115 -0.6046  3.5031  0.7892
 2418SOL     OW 7951   4.131   1.868   4.578  0.1782 -0.0501  0.0036
 2418SOL    HW1 7952   4.061   1.810   4.550  0.8447 -0.9638  0.2001
 2418SOL    HW2 7953   4.211   1.815   4.573  0.6094  0.3880  1.5516
 2419SOL     OW 7954   0.514   3.009   2.364  0.0683 -0.2728 -0.7577
 2419SOL    HW1 7955   0.574   3.047   2.300  0.6642  0.8207  0.4101
 2419SOL    HW2 7956   0.570   2.981   2.436 -0.6726 -0.6781 -0.3333
 2420SOL     OW 7957   1.243   4.943   1.917  0.1652 -0.1883 -0.3201
 2420SOL    HW1 7958   1.242   4.914   1.825  0.0714 -0.1314 -0.3374
 2420SOL    HW2 7959   1.335   4.936   1.943  0.6576  2.1853 -1.1879
 2421SOL     OW 7960   4.160   4.354   4.682 -0.0064  0.2907  0.3824
 2421SOL    HW1 7961   4.186   4.430   4.735 -0.3211  0.2863  0.5418
 2421SOL    HW2 7962   4.191   4.279   4.732  0.0483  0.3008  0.3644
 2422SOL     OW 7963   4.652   1.279   5.197  0.3151 -0.3854  0.1194
 2422SOL    HW1 7964   4.561   1.251   5.209  0.4038 -0.6809  0.0950
 2422SOL    HW2 7965   4.704   1.216   5.246  0.6635 -1.5327 -1.6427
 2423SOL     OW 7966   3.130   4.466   3.032 -0.5322  0.2906 -0.9987
 2423SOL    HW1 7967   3.125   4.494   2.940 -0.1089  0.4021 -0.9889
 2423SOL    HW2 7968   3.143   4.372   3.028  1.6239  0.5468 -1.1058
 2424SOL     OW 7969   2.078   0.840   1.424  0.0779  0.0549 -0.4776
 2424SOL    HW1 7970   2.142   0.874   1.361 -0.7310 -0.1812 -1.4442
 2424SOL    HW2 7971   2.011   0.908   1.429  0.3623  0.2819  0.5033
 2425SOL     OW 7972   3.387   3.387   0.043 -0.1517  0.0920  0.0961
 2425SOL    HW1 7973   3.301   3.356   0.071 -0.1596 -0.8395 -0.8895
 2425SOL    HW2 7974   3.375   3.480   0.024 -1.0748 -0.1438 -0.5321
 2426SOL     OW 7975   0.216   4.724   3.684 -0.0096 -0.3623  0.0016
 2426SOL    HW1 7976   0.301   4.744   3.645 -0.3328  1.5275  0.1911
 2426SOL    HW2 7977   0.163   4.693   3.610 -0.3078  2.1987 -0.9484
 2427SOL     OW 7978   3.886   1.839   2.298  0.5496 -0.3960 -0.1175
 2427SOL    HW1 7979   3.952   1.806   2.237  0.5645  0.2800 -0.4768
 2427SOL    HW2 7980   3.885   1.934   2.284 -0.7870 -0.4352 -0.4061
 2428SOL     OW 7981   2.093   2.441   5.394  0.5702 -0.8182 -0.7597
 2428SOL    HW1 7982   2.028   2.416   5.461  0.0376  0.5246 -0.7436
 2428SOL    HW2 7983   2.049   2.423   5.311  1.4153 -2.9609 -0.8135
 2429SOL     OW 7984   0.783   4.974   2.526 -0.0024  0.6284  0.0605
 2429SOL    HW1 7985   0.775   4.963   2.432  0.0822  2.2105 -0.1534
 2429SOL    HW2 7986   0.693   4.978   2.558 -0.0327  0.5143 -0.0111
 2430SOL     OW 7987   5.345   5.362   4.981  0.3896  0.2226  0.1046
 2430SOL    HW1 7988   5.404   5.311   5.037 -0.2119  1.0808  1.5660
 2430SOL    HW2 7989   5.393   5.370   4.898  1.7894 -0.1595  0.8349
 2431SOL     OW 7990   2.750   2.378   1.896  0.2397  0.0788 -0.2069
 2431SOL    HW1 7991   2.695   2.307   1.929 -0.7614  0.5810 -0.7517
 2431SOL    HW2 7992   2.800   2.339   1.825  0.9401 -0.4953  0.5832
 2432SOL     OW 7993   4.165   2.606   1.885 -0.4658  0.1348 -0.0240
 2432SOL    HW1 7994   4.259   2.624   1.890  0.1497 -2.9153  1.2288
 2432SOL    HW2 7995   4.152   2.572   1.796  0.2778 -2.2587  0.7112
 2433SOL     OW 7996   4.007   4.532   3.110 -0.3550  0.0485 -0.1036
 2433SOL    HW1 7997   4.024   4.560   3.200 -1.8775  1.2612 -0.1596
 2433SOL    HW2 7998   3.913   4.517   3.106 -0.1097 -1.4845 -1.1186
 2434SOL     OW 7999   1.613   5.058   3.336 -0.7561 -0.4284  0.2877
 2434SOL    HW1 8000   1.661   4.982   3.306  1.7498  1.6949 -1.5830
 2434SOL    HW2 8001   1.557   5.083   3.262 -0.8239  0.1122  0.5092
 2435SOL     OW 8002   0.912   1.935   3.456 -0.2354 -0.8137 -0.0235
 2435SOL    HW1 8003   0.901   1.916   3.549  2.6336  1.2555  0.8860
 2435SOL    HW2 8004   0.975   1.870   3.425  1.0032  0.2259  0.2518
 2436SOL     OW 8005   4.505   1.669   0.378 -0.0809 -0.2593 -0.3247
 2436SOL    HW1 8006   4.439   1.676   0.308 -0.0188 -1.4486 -0.5377
 2436SOL    HW2 8007   4.458   1.693   0.457 -1.3186 -2.6824 -0.2194
 2437SOL     OW 8008   5.034   0.123   2.462  0.0273 -0.4453  0.2047
 2437SOL    HW1 8009   5.012   0.167   2.380 -0.8715  1.5964  1.4441
 2437SOL    HW2 8010   4.952   0.081   2.488  0.8175 -2.8266 -0.8507
 2438SOL     OW 8011   3.166   5.198   3.957 -0.8976  0.1952  0.5974
 2438SOL    HW1 8012   3.073   5.214   3.974 -0.8921  0.8457  0.0779
 2438SOL    HW2 8013   3.169   5.112   3.917 -1.3441  0.4364  0.0379
 2439SOL     OW 8014   1.668   0.619   0.595 -0.3653 -0.3825 -0.4842
 2439SOL    HW1 8015   1.730   0.653   0.531 -0.5264 -0.2813 -0.5865
 2439SOL    HW2 8016   1.602   0.574   0.542 -0.7460  0.0994 -0.4177
 2440SOL     OW 8017   2.384   3.706   1.423 -0.4018 -0.1277 -0.5342
 2440SOL    HW1 8018   2.379   3.799   1.447 -1.0255 -0.3293  0.1524
 2440SOL    HW2 8019   2.387   3.706   1.328 -0.0690  0.6083 -0.5323
 2441SOL     OW 8020   3.829   3.589   1.992  0.1487 -0.0024 -0.1973
 2441SOL    HW1 8021   3.759   3.589   1.927 -0.1576 -0.4979  0.1187
 2441SOL    HW2 8022   3.783   3.580   2.076  0.6524 -4.1724 -0.1357
 2442SOL     OW 8023   2.760   3.625   2.977 -0.1384 -0.4508  0.6860
 2442SOL    HW1 8024   2.729   3.643   3.066 -1.4136 -0.9758  0.3787
 2442SOL    HW2 8025   2.684   3.640   2.922  0.3586 -1.0903 -0.2061
 2443SOL     OW 8026   3.226   2.715   2.492 -0.1618  0.6627  0.0662
 2443SOL    HW1 8027   3.212   2.670   2.409  0.3243 -0.2959  0.4815
 2443SOL    HW2 8028   3.139   2.745   2.518 -0.2520  1.3567 -0.9852
 2444SOL     OW 8029   3.735   5.317   2.862 -0.0223 -0.0985 -0.1869
 2444SOL    HW1 8030   3.740   5.222   2.856 -0.7670 -0.0616 -3.0416
 2444SOL    HW2 8031   3.822   5.344   2.891  0.0171 -1.6376  1.2538
 2445SOL     OW 8032   2.415   2.417   2.631 -0.2312 -0.0336 -0.1410
 2445SOL    HW1 8033   2.451   2.463   2.556 -0.9911  0.7550 -0.0377
 2445SOL    HW2 8034   2.320   2.428   2.622 -0.3384 -0.1531  0.7913
 2446SOL     OW 8035   0.921   4.002   1.575 -0.4563  0.0818  0.1083
 2446SOL    HW1 8036   1.014   4.020   1.587 -0.5300  1.2498 -0.8744
 2446SOL    HW2 8037   0.912   3.983   1.482 -1.3044  0.7322  0.0456
 2447SOL     OW 8038   3.284   0.003   3.055  0.1524  0.3011 -0.1683
 2447SOL    HW1 8039   3.347  -0.004   2.984 -0.8136  0.3034 -1.0411
 2447SOL    HW2 8040   3.326  -0.042   3.129  1.9668  1.9279 -0.1406
 2448SOL     OW 8041   3.852   0.543   3.324 -0.1113 -0.4837  0.4305
 2448SOL    HW1 8042   3.791   0.518   3.393 -0.2452  0.3234  0.6044
 2448SOL    HW2 8043   3.818   0.500   3.245 -1.1643  0.3223  0.4280
 2449SOL     OW 8044   3.529   0.714   0.119 -0.3948  0.4991 -0.6672
 2449SOL    HW1 8045   3.582   0.666   0.182  2.2912  0.3899 -2.8238
 2449SOL    HW2 8046   3.470   0.649   0.082 -0.5777  0.1255  0.2555
 2450SOL     OW 8047   1.646   1.137   4.735 -0.2718  0.0736 -0.0784
 2450SOL    HW1 8048   1.699   1.193   4.793 -1.0829  2.5576 -1.5984
 2450SOL    HW2 8049   1.676   1.158   4.647 -0.5462 -2.0523 -0.7343
 2451SOL     OW 8050   4.385   3.857   1.913 -0.0365 -0.2952  0.4695
 2451SOL    HW1 8051   4.332   3.849   1.834  0.8000  0.6495 -0.2175
 2451SOL    HW2 8052   4.332   3.908   1.974 -0.1914  0.0501  0.0459
 2452SOL     OW 8053   3.997   3.826   0.036  0.0313  0.2099  0.2625
 2452SOL    HW1 8054   4.068   3.764   0.025 -0.3108 -0.0245 -0.7319
 2452SOL    HW2 8055   4.028   3.887   0.103  1.5616  0.6908 -0.8438
 2453SOL     OW 8056   3.629   1.986   2.838  0.0993  0.3098 -0.5399
 2453SOL    HW1 8057   3.600   1.896   2.822  0.4664  0.0382  0.2621
 2453SOL    HW2 8058   3.563   2.041   2.795 -2.8154 -0.1974  2.8173
 2454SOL     OW 8059   5.024   3.846   5.270 -0.1028  0.1521  0.0696
 2454SOL    HW1 8060   5.068   3.825   5.352 -1.7794 -0.2026  0.9101
 2454SOL    HW2 8061   4.996   3.937   5.281  0.7249  0.5017 -0.6166
 2455SOL     OW 8062   0.013   4.110   4.859  0.5542  0.1333  0.6627
 2455SOL    HW1 8063  -0.022   4.050   4.793 -1.3046  1.0835  0.7052
 2455SOL    HW2 8064   0.025   4.055   4.937  1.5130 -0.7166 -0.0560
 2456SOL     OW 8065   1.960   3.398   0.708  0.1352 -0.3468  0.2619
 2456SOL    HW1 8066   1.955   3.451   0.628  2.2413  0.0579  0.3550
 2456SOL    HW2 8067   1.900   3.325   0.691 -0.9652  0.7559 -0.8600
 2457SOL     OW 8068   0.130   4.857   2.543  0.0356  0.1267 -0.2466
 2457SOL    HW1 8069   0.217   4.840   2.507 -0.4985 -0.6451 -1.2289
 2457SOL    HW2 8070   0.146   4.906   2.624  1.5100 -1.8537  0.7623
 2458SOL     OW 8071   4.845   4.964   1.660  0.3733 -0.8010  0.1985
 2458SOL    HW1 8072   4.872   4.932   1.574  0.4700 -0.8878  0.2620
 2458SOL    HW2 8073   4.926   4.994   1.702  0.0832  1.2336 -0.5727
 2459SOL     OW 8074   4.158   3.498   0.986  0.0010 -0.4399  0.2022
 2459SOL    HW1 8075   4.197   3.437   0.923  0.7699  0.7612 -0.5048
 2459SOL    HW2 8076   4.081   3.451   1.018  0.4683 -1.7211 -0.4492
 2460SOL     OW 8077   2.935   1.394   4.348 -0.3324 -0.4198  0.6276
 2460SOL    HW1 8078   2.918   1.480   4.311 -1.5757 -0.6644  0.5648
 2460SOL    HW2 8079   3.028   1.394   4.369 -0.0079  0.3914 -0.7392
 2461SOL     OW 8080   4.601   1.323   0.834 -0.0592 -0.4588 -0.2115
 2461SOL    HW1 8081   4.569   1.362   0.916  1.9752 -0.6782  0.7485
 2461SOL    HW2 8082   4.608   1.230   0.853  0.0151 -0.5763 -0.7917
 2462SOL     OW 8083   0.339   5.352   0.969 -0.3991  0.1488  0.2829
 2462SOL    HW1 8084   0.415   5.402   0.940 -0.5835  1.2117  1.5463
 2462SOL    HW2 8085   0.285   5.343   0.891  0.6705 -0.0018 -0.4671
 2463SOL     OW 8086   2.540   1.869   2.410 -0.1709 -0.1428  0.0655
 2463SOL    HW1 8087   2.450   1.838   2.422  0.0913 -0.8659  0.1947
 2463SOL    HW2 8088   2.577   1.870   2.498  0.1521 -0.4762 -0.0644
 2464SOL     OW 8089   3.852   2.784   1.261 -0.1163  0.0045  0.0963
 2464SOL    HW1 8090   3.889   2.856   1.312 -0.4769 -0.6445  1.3252
 2464SOL    HW2 8091   3.761   2.809   1.246 -0.4650 -0.5188  1.2124
 2465SOL     OW 8092   2.142   1.241   3.435 -0.3381  0.6367  0.2552
 2465SOL    HW1 8093   2.070   1.297   3.405 -0.7886  0.1403  0.3968
 2465SOL    HW2 8094   2.180   1.290   3.508 -0.9064  0.6348  0.5579
 2466SOL     OW 8095   2.809   2.844   1.423  0.5591  0.5980  0.8261
 2466SOL    HW1 8096   2.887   2.805   1.461 -0.3541 -0.6951  1.4277
 2466SOL    HW2 8097   2.833   2.862   1.332  0.9315 -1.7094  0.4096
 2467SOL     OW 8098   3.129   1.853   4.159  0.3238  0.6539 -0.0943
 2467SOL    HW1 8099   3.058   1.905   4.122  0.8699  1.1737 -0.4494
 2467SOL    HW2 8100   3.183   1.916   4.207  0.8525  0.3849 -0.3146
 2468SOL     OW 8101   1.055   4.591   1.220  0.0075 -0.2630 -0.0138
 2468SOL    HW1 8102   0.979   4.542   1.253 -0.6263  1.2826  0.9015
 2468SOL    HW2 8103   1.130   4.535   1.241 -0.6473 -0.6393  1.5000
 2469SOL     OW 8104   5.201   4.144   2.051  0.1419 -0.0504  0.2073
 2469SOL    HW1 8105   5.182   4.075   2.114 -1.2722 -0.5436 -0.7003
 2469SOL    HW2 8106   5.157   4.222   2.086  1.3431  0.2941  0.9940
 2470SOL     OW 8107   0.364   5.175   1.823  0.2849 -0.0253  0.2429
 2470SOL    HW1 8108   0.329   5.211   1.741  0.8761  1.0227  0.4279
 2470SOL    HW2 8109   0.286   5.149   1.873 -0.0925 -0.3860 -0.5248
 2471SOL     OW 8110   2.303   0.656   1.143  0.0597  0.6587 -0.8890
 2471SOL    HW1 8111   2.394   0.636   1.121  0.3701  0.3101  0.6071
 2471SOL    HW2 8112   2.308   0.733   1.199 -0.3769 -0.4059  0.6857
 2472SOL     OW 8113   1.760   5.267   4.708 -0.1236  0.2429 -0.2125
 2472SOL    HW1 8114   1.794   5.263   4.618 -0.1119 -1.3982 -0.1551
 2472SOL    HW2 8115   1.700   5.193   4.715 -2.2653  1.9313  0.3145
 2473SOL     OW 8116   3.618   2.823   0.268 -0.1934 -0.3777  0.2048
 2473SOL    HW1 8117   3.581   2.908   0.245  0.7559  0.8363  2.8804
 2473SOL    HW2 8118   3.551   2.781   0.321  0.2154 -0.3418  0.7573
 2474SOL     OW 8119   0.377   1.497   4.684  0.4030  0.1367 -0.3572
 2474SOL    HW1 8120   0.335   1.582   4.672  0.9699  0.3494 -0.8924
 2474SOL    HW2 8121   0.304   1.435   4.687 -0.0020  0.6110 -0.2188
 2475SOL     OW 8122   0.025   1.249   0.829  0.0117 -0.3363  0.3376
 2475SOL    HW1 8123   0.037   1.340   0.801 -0.2409 -0.2370  0.5463
 2475SOL    HW2 8124   0.085   1.199   0.775 -1.6526 -0.3568 -1.6267
 2476SOL     OW 8125   4.210   0.289   3.708 -0.0229  0.2954  0.6102
 2476SOL    HW1 8126   4.227   0.328   3.623 -3.0674 -0.7901 -0.6485
 2476SOL    HW2 8127   4.251   0.349   3.771  0.5960  2.2076 -1.4922
 2477SOL     OW 8128   1.183   2.465   1.824 -0.0524 -0.2641  0.3747
 2477SOL    HW1 8129   1.214   2.556   1.826  0.4882 -0.4030 -0.7971
 2477SOL    HW2 8130   1.216   2.431   1.740 -2.8000 -0.6385 -0.6330
 2478SOL     OW 8131   0.667   5.229   0.339  0.2928  0.3689  0.3188
 2478SOL    HW1 8132   0.655   5.323   0.353  0.6173  0.5178 -0.3475
 2478SOL    HW2 8133   0.754   5.211   0.373 -0.6111 -0.1507  2.5233
 2479SOL     OW 8134   0.854   1.227   2.174 -0.1881 -0.2962 -0.6421
 2479SOL    HW1 8135   0.920   1.167   2.210 -1.0891 -1.0311 -0.1551
 2479SOL    HW2 8136   0.867   1.308   2.222  0.6544 -0.2789 -0.8764
 2480SOL     OW 8137   1.633   2.230   1.277 -0.0995 -0.1792  0.0968
 2480SOL    HW1 8138   1.722   2.214   1.310  0.2476  1.1520 -0.1284
 2480SOL    HW2 8139   1.644   2.300   1.213 -1.4784  1.0368  1.1150
 2481SOL     OW 8140   3.992   3.311   0.850 -0.2212  0.0543 -0.9545
 2481SOL    HW1 8141   3.936   3.257   0.906  0.3395  0.8085  0.3819
 2481SOL    HW2 8142   3.933   3.348   0.785 -1.0562 -0.1095 -0.3055
 2482SOL     OW 8143   0.020   2.704   5.393 -0.4273  0.2492 -0.1590
 2482SOL    HW1 8144  -0.037   2.631   5.420  0.5355 -0.1285  0.9568
 2482SOL    HW2 8145   0.107   2.679   5.426  0.5254  0.5414 -2.3012
 2483SOL     OW 8146   1.905   2.337   1.306 -0.0141 -0.3110  0.1247
 2483SOL    HW1 8147   1.882   2.397   1.377 -0.0644  2.4537 -2.0534
 2483SOL    HW2 8148   1.925   2.254   1.350 -0.0248  1.2324  3.3287
 2484SOL     OW 8149   2.712   1.018   2.980 -0.5939  0.0646  0.2714
 2484SOL    HW1 8150   2.681   0.930   3.001 -0.5783 -0.3152 -1.1603
 2484SOL    HW2 8151   2.757   1.007   2.896 -0.4538  1.4121  0.1601
 2485SOL     OW 8152   0.795   0.937   5.175 -0.3399  0.0295  0.0924
 2485SOL    HW1 8153   0.809   1.031   5.167  1.4188 -0.2397 -0.5100
 2485SOL    HW2 8154   0.703   0.924   5.153 -1.5988  1.9400  3.4263
 2486SOL     OW 8155   1.363   0.542   2.118  1.1734  0.0335 -0.5725
 2486SOL    HW1 8156   1.295   0.541   2.185  1.3085  1.0195 -0.4065
 2486SOL    HW2 8157   1.394   0.451   2.113  0.7716 -0.1560  0.2970
 2487SOL     OW 8158   0.675   3.508   5.312 -0.2619 -0.3267 -0.8677
 2487SOL    HW1 8159   0.650   3.600   5.319  0.6549 -0.0788 -0.6937
 2487SOL    HW2 8160   0.610   3.461   5.364 -1.6982  0.0326 -2.2769
 2488SOL     OW 8161   4.552   4.334   5.015  0.0027  0.4297 -0.0686
 2488SOL    HW1 8162   4.494   4.365   5.084 -0.0129 -0.3786  0.2882
 2488SOL    HW2 8163   4.597   4.259   5.053  0.5893  0.4758 -0.6618
 2489SOL     OW 8164   1.225   4.097   4.705  0.6344  0.0881  0.2247
 2489SOL    HW1 8165   1.281   4.110   4.782 -0.0036  1.0297  0.5386
 2489SOL    HW2 8166   1.222   4.182   4.662  1.4889 -0.5588 -1.2343
 2490SOL     OW 8167   0.203   4.937   1.605 -0.3282  0.4520  0.1597
 2490SOL    HW1 8168   0.292   4.930   1.640 -1.1250  0.2251  2.2349
 2490SOL    HW2 8169   0.178   4.846   1.587 -0.3093  0.4819 -0.0210
 2491SOL     OW 8170   1.663   5.157   5.252  0.3686  0.3005  0.2538
 2491SOL    HW1 8171   1.627   5.146   5.340 -2.6386  0.3479 -0.8688
 2491SOL    HW2 8172   1.588   5.181   5.197  2.2615  1.0585 -2.2108
 2492SOL     OW 8173   3.432   2.252   4.546  0.5007  0.5050 -0.3272
 2492SOL    HW1 8174   3.359   2.281   4.491  0.3962  1.6836  0.4010
 2492SOL    HW2 8175   3.506   2.249   4.485  0.1883  0.8964 -0.7419
 2493SOL     OW 8176   1.815   2.894   5.015 -0.1337 -0.4252 -0.0506
 2493SOL    HW1 8177   1.799   2.929   5.102  1.7602  0.0688  0.1253
 2493SOL    HW2 8178   1.799   2.800   5.023  0.3036 -0.4202  0.8878
 2494SOL     OW 8179   1.274   0.721   1.063  0.2552  0.0251 -0.0140
 2494SOL    HW1 8180   1.319   0.774   1.129  2.5451 -0.0504 -1.4186
 2494SOL    HW2 8181   1.263   0.780   0.988 -1.6694 -0.1026  0.0995
 2495SOL     OW 8182   4.905   0.951   3.505 -0.1640  0.0178 -0.0484
 2495SOL    HW1 8183   4.847   1.021   3.534 -0.1433  0.1418 -0.2958
 2495SOL    HW2 8184   4.994   0.984   3.522 -0.1624 -0.7857  1.7410
 2496SOL     OW 8185   4.914   3.588   4.030  0.4034  0.1238 -0.5195
 2496SOL    HW1 8186   4.913   3.660   4.093 -1.0226  0.5606 -1.0113
 2496SOL    HW2 8187   4.828   3.547   4.037  0.8407 -0.9200 -0.9593
 2497SOL     OW 8188   1.084   4.714   4.846  0.2433 -0.3470 -0.3122
 2497SOL    HW1 8189   1.035   4.772   4.788  0.6140 -0.8192 -1.1160
 2497SOL    HW2 8190   1.155   4.768   4.881  0.4792 -0.2605 -0.9144
 2498SOL     OW 8191   5.098   1.802   5.036  0.2780  0.0360 -0.8530
 2498SOL    HW1 8192   5.039   1.773   5.106  0.0611 -0.4810 -1.2404
 2498SOL    HW2 8193   5.088   1.735   4.968  1.1038  0.0979 -1.0390
 2499SOL     OW 8194   2.406   3.851   2.543 -0.7930  0.5129  0.2219
 2499SOL    HW1 8195   2.499   3.868   2.556 -0.3461 -0.9942 -0.7878
 2499SOL    HW2 8196   2.364   3.890   2.620  0.7565  0.3824  1.1807
 2500SOL     OW 8197   3.898   1.971   1.770  0.4526 -0.0143 -0.1779
 2500SOL    HW1 8198   3.872   2.059   1.797  0.0267  0.3951 -1.7915
 2500SOL    HW2 8199   3.853   1.957   1.686 -0.6331 -2.3401  0.7042
 2501SOL     OW 8200   4.246   4.359   2.387  0.0918 -0.2780 -0.0853
 2501SOL    HW1 8201   4.210   4.339   2.473 -0.6457  0.1448 -0.2783
 2501SOL    HW2 8202   4.341   4.361   2.400 -0.0506  1.0514  1.0117
 2502SOL     OW 8203   3.400   2.622   3.817  0.7877 -0.3317  0.3049
 2502SOL    HW1 8204   3.460   2.635   3.744 -0.2468  2.2712 -0.2157
 2502SOL    HW2 8205   3.315   2.610   3.776  0.5015 -0.9804  1.0656
 2503SOL     OW 8206   4.243   4.210   1.641  0.6559 -0.1877 -0.4019
 2503SOL    HW1 8207   4.223   4.169   1.725 -3.2318  0.7945 -0.6237
 2503SOL    HW2 8208   4.214   4.146   1.576 -3.4947  1.7062 -0.7511
 2504SOL     OW 8209   1.735   3.973   3.261  0.2483 -0.4310 -0.2495
 2504SOL    HW1 8210   1.770   3.916   3.330 -0.0351  0.0171  0.2669
 2504SOL    HW2 8211   1.810   3.987   3.202  0.3777 -1.1608 -0.2758
 2505SOL     OW 8212   2.847   2.692   4.976 -0.1065  0.1334 -0.1788
 2505SOL    HW1 8213   2.784   2.761   4.996 -0.9350 -0.8522  0.7205
 2505SOL    HW2 8214   2.919   2.707   5.037  0.4383  1.0884 -1.0139
 2506SOL     OW 8215   1.329   1.779   0.901  0.1346 -0.1975  0.2324
 2506SOL    HW1 8216   1.305   1.869   0.924  0.4053 -0.1334  0.2599
 2506SOL    HW2 8217   1.276   1.760   0.823 -2.7506 -1.2846  2.2676
 2507SOL     OW 8218   4.905   3.225   2.727  0.7700 -0.1206 -0.2662
 2507SOL    HW1 8219   4.830   3.195   2.676 -0.2617 -0.4752  1.4250
 2507SOL    HW2 8220   4.954   3.146   2.747  0.6556 -0.0959  0.1093
 2508SOL     OW 8221   0.693   2.986   0.888 -0.2028  0.1156  0.1219
 2508SOL    HW1 8222   0.687   3.010   0.796 -0.5331  0.6034  0.2661
 2508SOL    HW2 8223   0.782   3.011   0.913 -0.0292 -0.2530 -0.1294
 2509SOL     OW 8224   3.457   2.157   0.658 -0.1987  0.1269  0.3369
 2509SOL    HW1 8225   3.550   2.156   0.680 -0.2869  1.1090  0.8368
 2509SOL    HW2 8226   3.453   2.196   0.571 -0.0901 -0.7213 -0.0589
 2510SOL     OW 8227   3.215   3.081   2.327 -0.1936 -0.2034 -0.2714
 2510SOL    HW1 8228   3.278   3.092   2.255 -0.8266  0.4210 -0.7410
 2510SOL    HW2 8229   3.153   3.152   2.315 -1.2205 -1.0407 -0.0533
 2511SOL     OW 8230   3.543   1.268   0.609  0.1536 -1.0133 -0.2917
 2511SOL    HW1 8231   3.451   1.243   0.622  0.3048 -0.8919  1.1770
 2511SOL    HW2 8232   3.565   1.318   0.688  1.0375  0.3009 -1.3259
 2512SOL     OW 8233   0.914   1.912   0.936 -0.1852  0.2890 -0.1551
 2512SOL    HW1 8234   0.979   1.885   0.872  1.4061 -0.3117  1.6128
 2512SOL    HW2 8235   0.899   1.834   0.990 -0.4714  1.1003  0.9884
 2513SOL     OW 8236   0.873   0.482   4.112 -0.3995  0.2383 -0.3694
 2513SOL    HW1 8237   0.931   0.556   4.131 -1.0228  0.4984  0.6250
 2513SOL    HW2 8238   0.930   0.416   4.073  0.7283  0.1882  1.2562
 2514SOL     OW 8239   3.328   1.847   0.448  0.0727 -0.2385 -0.4812
 2514SOL    HW1 8240   3.327   1.898   0.529 -0.6604 -1.1714  0.1278
 2514SOL    HW2 8241   3.331   1.913   0.378  0.5305  0.5869  0.2967
 2515SOL     OW 8242   3.856   4.777   4.528 -0.2478 -0.1844  0.1905
 2515SOL    HW1 8243   3.761   4.780   4.514 -0.1812 -0.3594 -0.3240
 2515SOL    HW2 8244   3.888   4.861   4.494 -0.0886 -0.5942 -0.6812
 2516SOL     OW 8245   2.010   0.604   0.768  0.4622  0.0326 -0.9314
 2516SOL    HW1 8246   1.932   0.549   0.774  1.4728 -1.4701 -0.8136
 2516SOL    HW2 8247   2.065   0.574   0.841  1.6768  0.1611 -1.7637
 2517SOL     OW 8248   2.811   0.456   4.573 -0.7244  0.0360 -0.0896
 2517SOL    HW1 8249   2.876   0.441   4.504  0.2006  2.2620  0.1972
 2517SOL    HW2 8250   2.762   0.375   4.578  1.9111 -1.7174 -0.4563
 2518SOL     OW 8251   4.924   4.768   0.783  0.5862  0.3366 -0.1614
 2518SOL    HW1 8252   4.855   4.752   0.719  1.3754 -0.1521 -0.9100
 2518SOL    HW2 8253   4.914   4.860   0.808  0.5748  0.6769 -1.3694
 2519SOL     OW 8254   1.759   1.094   3.373 -0.1555 -0.3716 -0.1944
 2519SOL    HW1 8255   1.848   1.073   3.345 -0.9382 -3.3333 -0.8321
 2519SOL    HW2 8256   1.704   1.072   3.297 -1.4973  1.3309  0.1951
 2520SOL     OW 8257   3.949   0.463   4.479  0.1332 -0.1121  0.2182
 2520SOL    HW1 8258   3.975   0.371   4.479 -0.5644 -0.3144  0.3779
 2520SOL    HW2 8259   3.854   0.462   4.496  0.3924  0.6947  1.9983
 2521SOL     OW 8260   4.733   3.506   0.057 -0.4959  0.0591  0.4185
 2521SOL    HW1 8261   4.753   3.582   0.002 -0.2750 -0.2440  0.0772
 2521SOL    HW2 8262   4.709   3.437  -0.005  0.3625 -0.4695  0.6689
 2522SOL     OW 8263   3.843   5.274   4.911  0.1240  0.0644 -0.2392
 2522SOL    HW1 8264   3.894   5.213   4.857 -0.0087  0.6868 -1.0763
 2522SOL    HW2 8265   3.878   5.261   5.000  1.1083 -0.1758 -0.6442
 2523SOL     OW 8266   4.116   3.152   1.359  0.3454 -0.3574  0.4898
 2523SOL    HW1 8267   4.145   3.130   1.448  1.4656 -2.0374 -0.2398
 2523SOL    HW2 8268   4.153   3.239   1.343 -1.1224  0.6536  2.1571
 2524SOL     OW 8269   4.427   0.518   0.425  0.3689  0.4696 -0.1356
 2524SOL    HW1 8270   4.388   0.603   0.405 -2.1088 -0.7688 -0.9473
 2524SOL    HW2 8271   4.427   0.512   0.520  0.3295  1.2569 -0.0838
 2525SOL     OW 8272   1.099   5.165   0.986  0.1984 -0.0347  0.1853
 2525SOL    HW1 8273   1.137   5.234   0.931  2.1074 -1.0257  0.1933
 2525SOL    HW2 8274   1.174   5.114   1.017 -0.9413 -0.5109  2.4007
 2526SOL     OW 8275   4.985   3.968   3.922  0.1576 -0.4036  0.6552
 2526SOL    HW1 8276   5.029   3.888   3.894 -0.9263 -0.6894 -0.3243
 2526SOL    HW2 8277   5.051   4.016   3.973  1.3628 -1.1131 -0.1992
 2527SOL     OW 8278   0.872   0.359   2.570 -0.1711  0.5417 -0.3359
 2527SOL    HW1 8279   0.962   0.359   2.603 -0.2376 -2.1142  0.0811
 2527SOL    HW2 8280   0.870   0.288   2.506 -2.2195 -0.2282  0.4936
 2528SOL     OW 8281   0.628   2.077   0.510 -0.2550 -0.3093 -0.0393
 2528SOL    HW1 8282   0.694   2.085   0.441  0.5056 -3.2323  0.2113
 2528SOL    HW2 8283   0.672   2.110   0.589 -0.0946  0.3422 -0.3983
 2529SOL     OW 8284   3.689   5.177   1.050  0.1357  0.0803 -0.5473
 2529SOL    HW1 8285   3.624   5.145   1.112  1.3780 -0.2748  0.6277
 2529SOL    HW2 8286   3.678   5.122   0.972 -0.4059 -0.5216 -0.0482
 2530SOL     OW 8287   2.507   0.240   3.879  0.1482 -0.0384 -0.7193
 2530SOL    HW1 8288   2.591   0.286   3.888  0.2083 -0.2503 -0.1727
 2530SOL    HW2 8289   2.523   0.154   3.918 -0.9641  0.7026  1.5963
 2531SOL     OW 8290   5.365   4.974   4.641  0.0000 -0.0792  0.2692
 2531SOL    HW1 8291   5.404   5.009   4.721  1.7305 -0.7729 -0.2200
 2531SOL    HW2 8292   5.407   5.024   4.571 -1.4195  0.4511 -0.2354
 2532SOL     OW 8293   1.966   1.177   2.840  0.1726 -0.2463  0.8684
 2532SOL    HW1 8294   1.963   1.257   2.786 -1.4843  0.0481  1.3221
 2532SOL    HW2 8295   2.057   1.148   2.835  0.4268  0.6719 -0.7667
 2533SOL     OW 8296   3.304   2.650   0.021 -0.5400  0.0004  0.1861
 2533SOL    HW1 8297   3.253   2.631   0.099 -1.6184  0.0142 -0.4923
 2533SOL    HW2 8298   3.365   2.576   0.013 -2.4569 -1.5782 -0.5916
 2534SOL     OW 8299   5.095   1.024   2.232 -0.4180 -0.0060  0.8000
 2534SOL    HW1 8300   5.183   1.021   2.193  0.0467 -0.1971  1.8194
 2534SOL    HW2 8301   5.050   0.949   2.193  0.4641 -0.9740  1.5727
 2535SOL     OW 8302   1.317   4.533   3.766  0.2870  0.7643 -0.3431
 2535SOL    HW1 8303   1.260   4.573   3.832 -1.1087 -2.7376  0.8050
 2535SOL    HW2 8304   1.383   4.486   3.817  0.8660  0.2179 -1.5631
 2536SOL     OW 8305   1.468   4.943   3.036 -0.4701 -0.1059  0.0813
 2536SOL    HW1 8306   1.447   4.851   3.018  0.2832 -0.5896  1.5081
 2536SOL    HW2 8307   1.482   4.982   2.949  0.5176 -1.6682 -0.5137
 2537SOL     OW 8308   0.524   2.705   5.279 -0.3784  0.6129 -0.3828
 2537SOL    HW1 8309   0.543   2.780   5.335  2.7220  0.4540 -1.0608
 2537SOL    HW2 8310   0.606   2.656   5.275 -0.6287  0.1940 -4.4025
 2538SOL     OW 8311   0.987   3.213   1.577  0.3833  0.2811  0.4428
 2538SOL    HW1 8312   1.025   3.290   1.620 -1.4946  0.7102  1.4423
 2538SOL    HW2 8313   0.895   3.236   1.565  0.7043  0.0857 -3.6851
 2539SOL     OW 8314   5.157   0.744   1.452  0.0706 -0.2342  0.0983
 2539SOL    HW1 8315   5.126   0.657   1.425  0.2645 -0.7564  1.5104
 2539SOL    HW2 8316   5.119   0.757   1.539  0.1131  1.0716 -0.0634
 2540SOL     OW 8317   4.524   2.347   1.198 -0.2727  0.2772  0.2020
 2540SOL    HW1 8318   4.561   2.322   1.283 -0.6845  0.3007  0.3876
 2540SOL    HW2 8319   4.510   2.441   1.205  1.5318  0.6601 -0.5921
 2541SOL     OW 8320   0.878   0.666   4.850  0.0052  0.0623 -0.1773
 2541SOL    HW1 8321   0.821   0.693   4.778 -0.0630 -0.8363 -0.4651
 2541SOL    HW2 8322   0.851   0.721   4.924  0.0684  0.9897 -0.8243
 2542SOL     OW 8323   2.488   0.286   2.204  0.4617 -0.3402  0.0200
 2542SOL    HW1 8324   2.485   0.343   2.281 -1.0177 -0.3061 -0.0336
 2542SOL    HW2 8325   2.582   0.268   2.190  0.8381  0.8231  0.9499
 2543SOL     OW 8326   4.305   1.419   0.382  0.3742 -0.1139  0.1651
 2543SOL    HW1 8327   4.280   1.350   0.443 -1.2366 -0.7693 -1.1534
 2543SOL    HW2 8328   4.382   1.386   0.337  0.5680 -0.3488  0.6707
 2544SOL     OW 8329   1.489   3.639   0.961 -0.0841  0.0436  0.0352
 2544SOL    HW1 8330   1.570   3.646   0.910 -0.5776  0.6180 -0.6809
 2544SOL    HW2 8331   1.497   3.555   1.006  0.4662 -0.3680 -0.8098
 2545SOL     OW 8332   3.582   0.997   0.674  0.1382 -0.0098 -0.5339
 2545SOL    HW1 8333   3.654   1.006   0.737 -1.1805 -1.3990  1.2762
 2545SOL    HW2 8334   3.574   1.084   0.635  2.2419  0.3975 -0.2025
 2546SOL     OW 8335   3.174   0.408   3.526 -0.0212 -0.5681  0.5212
 2546SOL    HW1 8336   3.221   0.333   3.492 -1.6463 -0.6834 -1.7546
 2546SOL    HW2 8337   3.218   0.484   3.488 -0.0442 -0.5330  0.5640
 2547SOL     OW 8338   1.524   0.813   2.403 -0.1409 -0.2737  0.4242
 2547SOL    HW1 8339   1.435   0.788   2.428 -0.9812 -1.3042 -3.1186
 2547SOL    HW2 8340   1.539   0.896   2.449 -2.9862  0.0053  1.0199
 2548SOL     OW 8341   2.151   0.440   2.590  0.1265 -0.1549  0.4391
 2548SOL    HW1 8342   2.072   0.492   2.606 -0.1373 -0.2362 -0.5594
 2548SOL    HW2 8343   2.144   0.412   2.499  1.7546  0.6139  0.0381
 2549SOL     OW 8344   0.198   0.140   1.112  0.3776  0.0812  0.3005
 2549SOL    HW1 8345   0.123   0.123   1.055  2.4156  1.8788 -3.2267
 2549SOL    HW2 8346   0.257   0.067   1.095  0.7358  0.2949  0.6224
 2550SOL     OW 8347   4.191   4.796   0.798 -0.0846 -0.3625 -0.8164
 2550SOL    HW1 8348   4.224   4.713   0.834  1.3343 -0.3056 -1.9088
 2550SOL    HW2 8349   4.139   4.833   0.869  1.7832 -0.7292  0.8537
 2551SOL     OW 8350   2.811   4.652   0.411 -0.1880  0.1430  0.1007
 2551SOL    HW1 8351   2.754   4.582   0.379 -1.1162  1.1321 -0.4875
 2551SOL    HW2 8352   2.776   4.732   0.371  1.5226  0.8167 -0.1693
 2552SOL     OW 8353   2.868   0.991   2.752  0.0294  0.0492  0.1767
 2552SOL    HW1 8354   2.932   1.044   2.705 -1.5845  1.8162 -0.1317
 2552SOL    HW2 8355   2.806   0.962   2.685  0.8805 -2.3353  0.3271
 2553SOL     OW 8356   2.864   4.977   1.970 -0.6168  0.0384 -0.3697
 2553SOL    HW1 8357   2.891   4.927   2.047 -0.6946 -2.0653 -1.6251
 2553SOL    HW2 8358   2.944   5.018   1.939  0.1390 -1.9046 -1.0909
 2554SOL     OW 8359   1.874   5.264   1.226 -0.0063 -0.5000 -0.2206
 2554SOL    HW1 8360   1.876   5.350   1.184 -1.3915 -0.1596  0.3589
 2554SOL    HW2 8361   1.965   5.234   1.224  0.5646  1.1327 -0.1178
 2555SOL     OW 8362   1.191   1.770   4.638 -0.0009 -0.2367 -0.7001
 2555SOL    HW1 8363   1.228   1.779   4.550 -0.3773  0.9714 -0.7471
 2555SOL    HW2 8364   1.178   1.859   4.668  0.0131 -0.6375  0.5513
 2556SOL     OW 8365   4.438   4.286   3.309 -0.1623 -0.2755  0.2546
 2556SOL    HW1 8366   4.521   4.330   3.289 -0.9215  1.2707  0.3497
 2556SOL    HW2 8367   4.376   4.357   3.323 -1.3175 -1.3937  1.0601
 2557SOL     OW 8368   1.923   5.388   0.578 -0.2848 -0.6294 -0.4684
 2557SOL    HW1 8369   1.926   5.307   0.629 -0.1331 -1.0671 -1.1627
 2557SOL    HW2 8370   1.888   5.361   0.493  1.4431 -0.2970 -1.3246
 2558SOL     OW 8371   2.613   2.077   2.240  0.1001  0.4220 -0.4504
 2558SOL    HW1 8372   2.579   2.143   2.301 -1.0760 -0.0666 -0.5505
 2558SOL    HW2 8373   2.574   1.995   2.270  1.3661 -0.1986 -0.4651
 2559SOL     OW 8374   2.027   2.346   2.089 -0.3094  0.3801 -0.2813
 2559SOL    HW1 8375   2.040   2.255   2.062  1.8480  0.4941  0.2210
 2559SOL    HW2 8376   2.029   2.343   2.184  2.4857  1.2323 -0.2444
 2560SOL     OW 8377   3.954   1.253   0.099  1.2043  0.0078  0.4906
 2560SOL    HW1 8378   4.029   1.194   0.111  0.2447 -1.4502 -0.3622
 2560SOL    HW2 8379   3.882   1.207   0.142  0.1422 -0.1094 -1.3143
 2561SOL     OW 8380   2.805   5.272   3.185  0.1296 -0.0696  0.3750
 2561SOL    HW1 8381   2.880   5.228   3.225 -0.9098 -0.5123  1.9087
 2561SOL    HW2 8382   2.733   5.210   3.192 -0.5693  0.6150 -0.4531
 2562SOL     OW 8383   1.167   2.845   0.216 -0.0311 -0.9909  0.2130
 2562SOL    HW1 8384   1.168   2.817   0.307  0.8697 -0.6814  0.3049
 2562SOL    HW2 8385   1.206   2.773   0.168  2.3247  0.0413  0.4548
 2563SOL     OW 8386   1.604   4.199   4.255 -0.3129  0.2260 -0.0049
 2563SOL    HW1 8387   1.621   4.163   4.342 -1.0894 -0.9070 -0.3015
 2563SOL    HW2 8388   1.683   4.178   4.204 -0.5267 -0.5481 -0.0166
 2564SOL     OW 8389   0.713   3.370   3.199 -0.4722 -0.0031  0.8456
 2564SOL    HW1 8390   0.695   3.291   3.148 -0.5630 -0.4381  1.5356
 2564SOL    HW2 8391   0.631   3.420   3.195  0.5850  1.7478 -2.4373
 2565SOL     OW 8392   1.957   3.129   1.057 -0.1213  0.2452 -0.0552
 2565SOL    HW1 8393   1.893   3.151   1.124 -0.4748 -1.5982  0.2444
 2565SOL    HW2 8394   2.029   3.088   1.105  0.6429  0.9536 -0.5605
 2566SOL     OW 8395   5.173   4.496   5.113  0.5142 -0.3012 -0.0015
 2566SOL    HW1 8396   5.210   4.583   5.096  1.1693 -0.3356  1.1309
 2566SOL    HW2 8397   5.205   4.473   5.201 -0.9845 -0.9750  0.4123
 2567SOL     OW 8398   1.811   3.475   3.948 -0.1698 -0.7721 -0.0428
 2567SOL    HW1 8399   1.869   3.466   3.872 -0.8287  1.5432 -0.9159
 2567SOL    HW2 8400   1.867   3.510   4.017 -0.5403  2.3044 -1.1390
 2568SOL     OW 8401   2.295   2.926   4.925  0.5858 -0.1765  0.3276
 2568SOL    HW1 8402   2.345   2.856   4.964 -0.3036 -0.7622  0.4430
 2568SOL    HW2 8403   2.238   2.958   4.995  1.0921  0.7783  0.3268
 2569SOL     OW 8404   5.363   3.099   4.655 -0.4938  0.1312  0.5772
 2569SOL    HW1 8405   5.272   3.124   4.641 -1.0586 -1.8433  0.3905
 2569SOL    HW2 8406   5.403   3.176   4.695 -1.7578  1.7268 -1.0352
 2570SOL     OW 8407   0.162   2.731   3.114 -0.1516  0.3463  0.4109
 2570SOL    HW1 8408   0.087   2.686   3.154 -0.1004  1.2318  1.5512
 2570SOL    HW2 8409   0.122   2.794   3.053 -0.2564 -0.4503 -0.3641
 2571SOL     OW 8410   3.159   4.632   1.862 -0.2200 -0.2208 -0.7244
 2571SOL    HW1 8411   3.200   4.718   1.856  1.6010 -0.9047  0.8724
 2571SOL    HW2 8412   3.220   4.573   1.818 -0.8313 -0.9006 -0.6860
 2572SOL     OW 8413   2.707   3.484   3.589  0.1046 -0.8846  0.3716
 2572SOL    HW1 8414   2.772   3.524   3.530  0.4501 -0.9125  0.7295
 2572SOL    HW2 8415   2.625   3.487   3.539  0.6319 -2.0544 -0.6301
 2573SOL     OW 8416   0.971   2.894   0.474  0.4485 -0.3158  0.0487
 2573SOL    HW1 8417   1.064   2.875   0.492  0.0171 -0.3467  2.7586
 2573SOL    HW2 8418   0.931   2.808   0.463  0.7934 -0.2835 -1.5974
 2574SOL     OW 8419   0.057   0.781   1.559 -0.0812 -0.5897 -0.1179
 2574SOL    HW1 8420  -0.010   0.713   1.567 -0.5621 -0.1567 -0.3884
 2574SOL    HW2 8421   0.011   0.856   1.520  0.8982 -0.7796 -1.7319
 2575SOL     OW 8422   4.808   0.959   1.286 -0.3999  0.4964 -0.3455
 2575SOL    HW1 8423   4.765   0.960   1.371 -1.2247  1.0838 -0.7541
 2575SOL    HW2 8424   4.762   1.026   1.235  0.1483  0.2248 -1.2202
 2576SOL     OW 8425   1.603   3.599   4.774  0.4730 -0.6662  0.4730
 2576SOL    HW1 8426   1.605   3.577   4.867 -0.8447 -1.8247  0.2647
 2576SOL    HW2 8427   1.553   3.680   4.769 -0.3750 -1.1626  0.7007
 2577SOL     OW 8428   0.541   4.591   1.538  0.3754  0.0103 -0.3504
 2577SOL    HW1 8429   0.536   4.685   1.553  0.9092  0.2839 -1.7285
 2577SOL    HW2 8430   0.514   4.552   1.622  0.8338  1.3696  0.4664
 2578SOL     OW 8431   1.247   4.851   3.571  0.2829 -0.2750  0.8327
 2578SOL    HW1 8432   1.243   4.857   3.476  0.3046  0.0663  0.8502
 2578SOL    HW2 8433   1.324   4.902   3.596 -1.5102  2.4626  1.2335
 2579SOL     OW 8434   2.769   4.306   2.423 -0.3215 -0.0987  0.1378
 2579SOL    HW1 8435   2.698   4.253   2.386 -0.2073 -0.3975  0.3355
 2579SOL    HW2 8436   2.844   4.290   2.365  1.0696 -3.7575  2.5832
 2580SOL     OW 8437   2.956   2.677   2.591 -0.0277 -0.1098  0.2610
 2580SOL    HW1 8438   2.925   2.632   2.670 -0.7805  2.0288  1.2729
 2580SOL    HW2 8439   2.888   2.662   2.526 -0.4264 -0.1870  0.6875
 2581SOL     OW 8440   1.958   2.096   2.453 -0.3640  0.5083 -0.8419
 2581SOL    HW1 8441   1.916   2.115   2.537  0.8774  1.5229 -0.4172
 2581SOL    HW2 8442   1.913   2.018   2.421 -1.7834  0.8969  0.1107
 2582SOL     OW 8443   4.155   2.483   1.646  0.1452  0.3809 -0.5769
 2582SOL    HW1 8444   4.226   2.497   1.584 -0.9657 -0.3814 -2.0774
 2582SOL    HW2 8445   4.078   2.523   1.605 -0.1063  2.2718  1.5576
 2583SOL     OW 8446   0.603   1.176   2.487  0.2838 -0.0603  0.2265
 2583SOL    HW1 8447   0.568   1.095   2.449  2.5361 -1.2763  0.5712
 2583SOL    HW2 8448   0.532   1.209   2.542 -1.0149 -1.3014 -0.6355
 2584SOL     OW 8449   2.848   4.124   5.026  0.0933 -0.3093  0.4377
 2584SOL    HW1 8450   2.777   4.156   5.083  0.0281  0.6403 -0.1491
 2584SOL    HW2 8451   2.835   4.172   4.944  1.9569  0.5744  0.6162
 2585SOL     OW 8452   2.118   3.968   2.510  0.3102 -0.7388  0.2379
 2585SOL    HW1 8453   2.146   3.877   2.520  2.6495 -0.1443 -0.2847
 2585SOL    HW2 8454   2.181   4.019   2.562 -0.4276  0.6632 -0.1698
 2586SOL     OW 8455   0.888   2.636   0.136 -0.2988  0.3766  0.3222
 2586SOL    HW1 8456   0.886   2.716   0.084  1.5750 -0.2540 -0.8433
 2586SOL    HW2 8457   0.962   2.647   0.196 -0.3595 -0.2350  0.5224
 2587SOL     OW 8458   4.584   2.561   4.643  0.0899 -1.0769 -0.4887
 2587SOL    HW1 8459   4.621   2.497   4.584 -0.0743 -2.1653  0.5501
 2587SOL    HW2 8460   4.572   2.514   4.726 -0.7164  0.0862  0.0916
 2588SOL     OW 8461   4.753   1.730   1.943 -0.4917 -0.5634  0.4894
 2588SOL    HW1 8462   4.685   1.796   1.943 -0.2793 -0.2173 -2.2710
 2588SOL    HW2 8463   4.833   1.778   1.920 -0.4625 -1.7395 -2.3501
 2589SOL     OW 8464   0.386   0.049   0.681  0.0672  0.6483 -0.0843
 2589SOL    HW1 8465   0.323   0.066   0.611 -0.7809  0.4909  0.6316
 2589SOL    HW2 8466   0.407  -0.044   0.672 -0.4638  0.4981  0.2084
 2590SOL     OW 8467   2.619   1.550   3.026 -0.3126  0.4174  0.6018
 2590SOL    HW1 8468   2.602   1.630   3.075  0.2319 -0.7303  2.7596
 2590SOL    HW2 8469   2.703   1.519   3.058  0.0494 -0.4465 -1.0476
 2591SOL     OW 8470   2.060   3.835   0.257  0.2372 -0.3882 -0.3786
 2591SOL    HW1 8471   2.123   3.766   0.234  0.9106  0.3051 -0.6859
 2591SOL    HW2 8472   2.115   3.911   0.277 -0.4507 -0.1873  0.8491
 2592SOL     OW 8473   1.063   5.336   1.968 -0.9613  0.3797  0.2872
 2592SOL    HW1 8474   1.084   5.306   1.880 -1.1388  0.3537  0.2550
 2592SOL    HW2 8475   0.968   5.346   1.969 -0.8204  2.0068 -0.0393
 2593SOL     OW 8476   3.365   4.378   0.618  0.1690 -0.4887 -0.0693
 2593SOL    HW1 8477   3.432   4.321   0.657  0.2214  0.1853  0.8596
 2593SOL    HW2 8478   3.288   4.323   0.612  0.3150 -0.7682  0.5120
 2594SOL     OW 8479   0.523   0.633   2.447 -0.4911 -0.1982  0.2607
 2594SOL    HW1 8480   0.577   0.609   2.372 -0.6640  1.3750 -0.4177
 2594SOL    HW2 8481   0.558   0.583   2.520  1.0117 -0.2095 -0.4459
 2595SOL     OW 8482   5.160   2.285   3.277  0.2372 -0.3091 -0.0673
 2595SOL    HW1 8483   5.195   2.321   3.358 -1.6529 -1.9737  1.6139
 2595SOL    HW2 8484   5.093   2.222   3.306  0.9929 -2.6214 -2.8604
 2596SOL     OW 8485   0.222   1.811   3.727 -1.2562 -0.4152  0.3847
 2596SOL    HW1 8486   0.253   1.902   3.727  1.2823 -1.1525  2.2787
 2596SOL    HW2 8487   0.128   1.817   3.710 -0.8000  2.3426 -2.1125
 2597SOL     OW 8488   0.383   0.339   1.888  0.2547  0.2497  0.3429
 2597SOL    HW1 8489   0.451   0.309   1.828  1.1333 -0.0272  1.4345
 2597SOL    HW2 8490   0.394   0.434   1.892 -0.2896  0.3574 -0.4789
 2598SOL     OW 8491   0.710   2.387   1.816 -0.1104 -0.5569  0.0789
 2598SOL    HW1 8492   0.623   2.365   1.848  0.2977 -2.1102  0.2254
 2598SOL    HW2 8493   0.753   2.302   1.803  1.5938  0.1694  0.6238
 2599SOL     OW 8494   3.088   0.371   2.900 -0.1202 -0.0733  0.1721
 2599SOL    HW1 8495   3.155   0.317   2.858 -0.2452 -0.6747  0.7230
 2599SOL    HW2 8496   3.022   0.308   2.929 -0.7978  0.4887 -0.1254
 2600SOL     OW 8497   3.179   3.131   1.477 -0.4692 -0.2569 -0.3400
 2600SOL    HW1 8498   3.149   3.049   1.439  1.6990 -1.5780  0.5852
 2600SOL    HW2 8499   3.232   3.172   1.408 -1.3238  0.2393 -0.7072
 2601SOL     OW 8500   3.908   5.230   2.644  0.1290  0.4998 -0.2777
 2601SOL    HW1 8501   3.822   5.245   2.604  0.3447 -0.1883 -1.0325
 2601SOL    HW2 8502   3.938   5.147   2.606  0.4534 -0.0631  1.1688
 2602SOL     OW 8503   3.290   3.979   2.915  1.4241  0.6158 -0.5279
 2602SOL    HW1 8504   3.332   3.907   2.961  0.4022 -0.6278 -1.4595
 2602SOL    HW2 8505   3.286   3.950   2.824 -0.0325  1.3577 -0.7257
 2603SOL     OW 8506   3.634   2.027   4.903 -0.1637 -0.1973 -0.0834
 2603SOL    HW1 8507   3.547   2.059   4.879  0.4489  0.8332 -1.0286
 2603SOL    HW2 8508   3.676   2.101   4.946  0.5756 -0.3594 -0.4925
 2604SOL     OW 8509   2.541   2.868   2.401 -0.7191  0.3171 -0.3495
 2604SOL    HW1 8510   2.447   2.885   2.408 -0.6857  0.6674 -0.7113
 2604SOL    HW2 8511   2.581   2.929   2.464 -0.5223  2.4467 -2.4025
 2605SOL     OW 8512   5.036   2.213   4.906  0.2751 -0.1814  0.2762
 2605SOL    HW1 8513   5.095   2.163   4.962  1.1482  0.3069 -0.1759
 2605SOL    HW2 8514   5.086   2.229   4.826 -0.9540 -0.8981 -0.6812
 2606SOL     OW 8515   1.079   3.930   3.957  0.2784  0.1135 -0.9132
 2606SOL    HW1 8516   1.111   4.018   3.942  1.8973 -0.2288  0.2305
 2606SOL    HW2 8517   0.991   3.942   3.994  1.0743  1.3361  0.7001
 2607SOL     OW 8518   0.809   5.386   1.920  0.2147 -0.1916 -0.2393
 2607SOL    HW1 8519   0.737   5.382   1.858 -1.1475 -2.6528  1.3504
 2607SOL    HW2 8520   0.784   5.454   1.983  0.2942  0.3736 -0.8065
 2608SOL     OW 8521   5.360   1.318   4.050  0.0439  0.4598 -0.4649
 2608SOL    HW1 8522   5.446   1.361   4.047 -0.0349  1.1004  2.5836
 2608SOL    HW2 8523   5.379   1.226   4.066  0.1611  0.3218 -1.3730
 2609SOL     OW 8524   2.653   4.541   3.526  0.5367  0.2808  0.7700
 2609SOL    HW1 8525   2.704   4.534   3.445 -1.4614 -2.4971 -0.3951
 2609SOL    HW2 8526   2.714   4.513   3.594  1.7725  1.0951  0.0507
 2610SOL     OW 8527   2.500   1.994   4.315 -0.8887 -0.1048 -0.0654
 2610SOL    HW1 8528   2.443   1.967   4.387 -0.4008 -0.0095  0.3539
 2610SOL    HW2 8529   2.445   1.984   4.237 -1.3581 -0.3838  0.2958
 2611SOL     OW 8530   3.764   1.458   2.091 -0.2283  0.2582  0.3232
 2611SOL    HW1 8531   3.703   1.426   2.158 -0.7358 -0.3893 -0.4336
 2611SOL    HW2 8532   3.841   1.487   2.140 -0.3384 -0.7869  1.1365
 2612SOL     OW 8533   1.967   1.395   1.372  0.2492  0.5719 -0.3990
 2612SOL    HW1 8534   2.059   1.385   1.394 -0.6554  1.5031  5.8634
 2612SOL    HW2 8535   1.923   1.325   1.420 -2.4645  2.4292  0.0969
 2613SOL     OW 8536   0.778   2.638   4.578  0.1660 -0.4685  0.4554
 2613SOL    HW1 8537   0.780   2.542   4.578 -0.2147 -0.4806  0.3332
 2613SOL    HW2 8538   0.725   2.660   4.655 -0.4256 -0.3813  0.0301
 2614SOL     OW 8539   3.075   1.110   3.160  0.6537 -0.2793  0.3853
 2614SOL    HW1 8540   3.138   1.141   3.225  1.8773  0.5229 -1.1125
 2614SOL    HW2 8541   3.076   1.015   3.170  2.6236 -0.3548  0.0117
 2615SOL     OW 8542   3.831   0.343   1.710 -0.0614 -0.0045 -0.3655
 2615SOL    HW1 8543   3.767   0.406   1.741 -1.0107 -1.1269  0.0286
 2615SOL    HW2 8544   3.915   0.389   1.715 -0.7586  1.3236 -0.4209
 2616SOL     OW 8545   3.972   4.175   2.867 -0.2507  0.2658  0.0307
 2616SOL    HW1 8546   4.023   4.256   2.871 -1.2498  0.9867 -1.1418
 2616SOL    HW2 8547   3.949   4.165   2.774  0.0093 -1.4711  0.1175
 2617SOL     OW 8548   3.030   4.013   5.230  0.0756  0.0784  0.3087
 2617SOL    HW1 8549   3.060   3.923   5.227 -2.1419 -0.7054 -0.4712
 2617SOL    HW2 8550   2.965   4.020   5.160  1.4497  2.8021 -0.8573
 2618SOL     OW 8551   4.416   4.793   1.578  0.3260 -0.0242 -0.2963
 2618SOL    HW1 8552   4.403   4.707   1.538  1.5695 -1.5294  2.2078
 2618SOL    HW2 8553   4.333   4.813   1.621  0.4216 -0.6712  0.2175
 2619SOL     OW 8554   1.938   4.293   4.130 -0.2655 -0.1474 -0.4882
 2619SOL    HW1 8555   1.864   4.232   4.131 -0.0958 -0.3555 -0.6794
 2619SOL    HW2 8556   1.997   4.259   4.063  0.6481 -0.7338  0.5886
 2620SOL     OW 8557   4.646   1.225   2.756 -0.2675  0.3420 -0.3529
 2620SOL    HW1 8558   4.629   1.193   2.667  3.4987 -2.6209 -0.2484
 2620SOL    HW2 8559   4.709   1.296   2.744  1.4116 -1.0450 -0.1000
 2621SOL     OW 8560   3.854   0.124   2.167 -0.2109  0.0375  0.4770
 2621SOL    HW1 8561   3.920   0.162   2.226 -0.0968  0.6726 -0.0580
 2621SOL    HW2 8562   3.856   0.180   2.090 -0.9749 -0.2865  0.2216
 2622SOL     OW 8563   0.704   2.973   0.605  0.1391 -0.4142  0.1723
 2622SOL    HW1 8564   0.782   2.923   0.579  0.5614  0.3540 -0.0490
 2622SOL    HW2 8565   0.690   3.035   0.534 -0.6225 -0.4656  0.2620
 2623SOL     OW 8566   1.642   2.158   4.456  0.3255 -0.0094  0.1282
 2623SOL    HW1 8567   1.633   2.077   4.407  0.3570 -0.1576  0.3635
 2623SOL    HW2 8568   1.559   2.167   4.503  0.8832 -0.7000  1.2852
 2624SOL     OW 8569   4.760   3.887   3.723  0.2921  0.4007 -0.1689
 2624SOL    HW1 8570   4.676   3.902   3.679  0.2905  0.5445 -0.1161
 2624SOL    HW2 8571   4.736   3.849   3.808  0.3498 -1.7035 -1.0132
 2625SOL     OW 8572   0.603   2.467   2.380  0.0634  0.1895 -0.3680
 2625SOL    HW1 8573   0.532   2.495   2.438  0.9374 -1.4638  1.6204
 2625SOL    HW2 8574   0.629   2.547   2.334 -1.2601  1.4003  0.8890
 2626SOL     OW 8575   0.376   0.942   4.910 -0.6810 -0.4279 -0.3038
 2626SOL    HW1 8576   0.321   0.991   4.971  0.1803  0.1289  0.0418
 2626SOL    HW2 8577   0.367   0.850   4.938 -1.8633 -0.4270 -0.6094
 2627SOL     OW 8578   2.673   2.612   3.391  0.6051  0.2174 -0.8253
 2627SOL    HW1 8579   2.579   2.598   3.379  0.5291 -0.0644 -0.0279
 2627SOL    HW2 8580   2.703   2.655   3.311 -0.3868  1.1824 -0.6965
 2628SOL     OW 8581   4.490   4.561   0.507 -0.4038 -0.0378  0.2074
 2628SOL    HW1 8582   4.512   4.636   0.452 -3.7515  2.6591  2.1870
 2628SOL    HW2 8583   4.436   4.505   0.450 -0.7076  0.7748 -0.3172
 2629SOL     OW 8584   0.224   0.535   3.838 -0.1527  0.5370  0.5692
 2629SOL    HW1 8585   0.147   0.503   3.887  0.2265 -1.4292 -0.0195
 2629SOL    HW2 8586   0.247   0.462   3.781  0.8514  1.9202 -0.8497
 2630SOL     OW 8587   1.931   2.938   4.264  0.1513 -0.2961 -0.2122
 2630SOL    HW1 8588   1.991   3.010   4.283  0.7251 -0.8007 -0.1198
 2630SOL    HW2 8589   1.847   2.982   4.248 -0.3652  0.2570  3.1189
 2631SOL     OW 8590   3.105   1.936   1.784 -0.0676 -0.6187  0.9731
 2631SOL    HW1 8591   3.079   2.024   1.812  1.3096 -0.4429  1.7803
 2631SOL    HW2 8592   3.076   1.879   1.856 -0.0079 -0.6814  0.9469
 2632SOL     OW 8593   1.681   3.533   1.573 -0.2989  0.4129  0.9543
 2632SOL    HW1 8594   1.588   3.556   1.566 -0.9301 -2.0380  0.3615
 2632SOL    HW2 8595   1.683   3.457   1.630  1.5478  1.2671  2.1235
 2633SOL     OW 8596   0.375   3.210   1.642 -0.2958  0.4534 -0.3502
 2633SOL    HW1 8597   0.317   3.135   1.630  0.5464 -0.3410  0.4025
 2633SOL    HW2 8598   0.461   3.172   1.659 -0.0258  1.5605  0.9641
 2634SOL     OW 8599   5.357   1.341   2.349 -0.0150  0.3014 -0.0026
 2634SOL    HW1 8600   5.322   1.430   2.342  0.3517  0.6132  1.7164
 2634SOL    HW2 8601   5.280   1.286   2.360 -0.1149  0.7643  1.8516
 2635SOL     OW 8602   1.186   4.324   2.146 -0.8350  0.6829  0.7988
 2635SOL    HW1 8603   1.119   4.321   2.078 -0.1446 -0.9058  0.1364
 2635SOL    HW2 8604   1.201   4.418   2.160  1.1592  1.2855 -3.5014
 2636SOL     OW 8605   2.044   2.761   0.525 -0.7813  0.3121 -0.1658
 2636SOL    HW1 8606   1.964   2.764   0.578  0.2439 -1.0888  1.5936
 2636SOL    HW2 8607   2.090   2.682   0.556  1.5748  1.4158 -0.6383
 2637SOL     OW 8608   4.874   1.184   2.249 -0.1510 -0.0898 -0.4113
 2637SOL    HW1 8609   4.825   1.164   2.169 -1.2912 -0.8648  0.4413
 2637SOL    HW2 8610   4.939   1.114   2.256 -1.1103 -0.9487  0.1581
 2638SOL     OW 8611   3.748   5.149   0.380 -0.1053 -0.0529 -0.0244
 2638SOL    HW1 8612   3.757   5.057   0.357  1.4071  0.0892 -0.0781
 2638SOL    HW2 8613   3.777   5.154   0.471 -1.9589  0.0943  0.6055
 2639SOL     OW 8614   4.200   1.772   2.408  0.0338 -0.4671 -0.5872
 2639SOL    HW1 8615   4.143   1.752   2.483 -1.9215  0.5973 -1.6869
 2639SOL    HW2 8616   4.282   1.800   2.448 -0.6560 -0.7515  1.1441
 2640SOL     OW 8617   4.410   3.402   4.939 -0.3696  0.2728 -0.0943
 2640SOL    HW1 8618   4.436   3.312   4.958 -1.0815  0.3381  1.2793
 2640SOL    HW2 8619   4.470   3.456   4.990 -0.5959  0.5464 -0.1157
 2641SOL     OW 8620   2.831   0.836   0.866  0.3837 -0.1188  0.3272
 2641SOL    HW1 8621   2.900   0.849   0.801  2.0266  0.2082  2.0449
 2641SOL    HW2 8622   2.787   0.921   0.872 -1.0881 -0.6643 -1.6813
 2642SOL     OW 8623   1.575   0.443   1.003 -0.8092  0.2116  0.5564
 2642SOL    HW1 8624   1.592   0.536   1.015  1.3586 -0.1651  0.8754
 2642SOL    HW2 8625   1.480   0.435   1.002 -1.0475  2.2270  2.1052
 2643SOL     OW 8626   1.072   5.077   2.259 -1.0318 -0.7618 -0.8003
 2643SOL    HW1 8627   1.159   5.103   2.286 -1.3283  0.0110 -0.5713
 2643SOL    HW2 8628   1.062   4.988   2.293 -0.8924 -0.3001  0.4875
 2644SOL     OW 8629   3.648   3.543   2.198 -0.3549 -0.5335 -0.7673
 2644SOL    HW1 8630   3.652   3.471   2.261 -0.9786 -0.2994 -0.4483
 2644SOL    HW2 8631   3.584   3.603   2.235  0.1520  0.1864 -1.0327
 2645SOL     OW 8632   4.481   0.538   4.608 -0.6439 -0.8119  0.1437
 2645SOL    HW1 8633   4.441   0.530   4.521 -1.1612 -0.4940  0.3491
 2645SOL    HW2 8634   4.570   0.569   4.590 -1.6309  2.1531 -0.1739
 2646SOL     OW 8635   3.317   1.735   4.000 -0.1213  0.2775  0.3727
 2646SOL    HW1 8636   3.244   1.783   4.040  1.4162  1.5142  1.8139
 2646SOL    HW2 8637   3.385   1.802   3.987  0.2461 -0.5154 -2.3779
 2647SOL     OW 8638   3.566   2.379   3.251  0.2480  0.0432  0.1729
 2647SOL    HW1 8639   3.480   2.338   3.249  0.8443 -1.4777  2.1572
 2647SOL    HW2 8640   3.628   2.305   3.247  1.3954  0.8337  2.0163
 2648SOL     OW 8641   1.257   4.375   0.713  0.1267  0.5168  0.3497
 2648SOL    HW1 8642   1.269   4.401   0.805  0.3213 -0.1129  0.5033
 2648SOL    HW2 8643   1.232   4.456   0.669  2.7698  1.4905  0.4304
 2649SOL     OW 8644   2.628   1.840   2.678 -0.3559 -0.1339  0.2564
 2649SOL    HW1 8645   2.653   1.915   2.732 -1.3992 -1.4302  2.6774
 2649SOL    HW2 8646   2.676   1.766   2.716 -1.4776 -1.1897 -0.3104
 2650SOL     OW 8647   2.913   3.904   0.405  0.3089 -0.2619 -0.0674
 2650SOL    HW1 8648   2.826   3.939   0.422  0.6094  0.7718 -0.5452
 2650SOL    HW2 8649   2.949   3.961   0.337  1.6533 -0.1630  0.6760
 2651SOL     OW 8650   0.121   5.325   0.787 -0.0067  0.1631 -0.9128
 2651SOL    HW1 8651   0.149   5.298   0.700  1.1992 -0.3019 -0.4028
 2651SOL    HW2 8652   0.045   5.381   0.772 -0.2037 -0.4355 -2.2142
 2652SOL     OW 8653   2.390   4.239   4.740  0.2473  0.3859  0.4103
 2652SOL    HW1 8654   2.405   4.316   4.794  0.5016  1.6922 -1.4452
 2652SOL    HW2 8655   2.411   4.267   4.651 -0.0333 -1.7170 -0.3747
 2653SOL     OW 8656   3.579   3.029   3.011  0.5459  0.4193 -0.3280
 2653SOL    HW1 8657   3.540   3.073   3.087 -0.3245  0.5435 -0.8379
 2653SOL    HW2 8658   3.504   3.002   2.958  1.0402 -1.6004 -0.0921
 2654SOL     OW 8659   0.626   3.920   3.606 -0.0548  0.0414  0.3323
 2654SOL    HW1 8660   0.636   3.869   3.687 -2.6990 -0.1098  0.6391
 2654SOL    HW2 8661   0.536   3.953   3.609  0.6755  2.4170 -1.2301
 2655SOL     OW 8662   2.998   4.176   2.741 -0.1151 -0.1813 -0.3096
 2655SOL    HW1 8663   3.052   4.209   2.670 -0.9255 -0.1089 -0.9009
 2655SOL    HW2 8664   3.005   4.081   2.734  2.3301 -0.2394  1.4782
 2656SOL     OW 8665   3.022   4.334   1.095  0.3807 -0.3553  0.0712
 2656SOL    HW1 8666   3.088   4.268   1.078  0.6267  0.3060 -1.6916
 2656SOL    HW2 8667   2.963   4.330   1.020 -1.3674 -0.6313  1.3913
 2657SOL     OW 8668   4.951   0.125   2.947 -0.1736 -0.2047 -0.4130
 2657SOL    HW1 8669   4.956   0.091   2.858 -1.7977 -0.4131 -0.4541
 2657SOL    HW2 8670   4.926   0.217   2.937 -0.3010 -0.2102 -0.1654
 2658SOL     OW 8671   2.011   1.705   4.452  0.5916 -0.9019 -0.0959
 2658SOL    HW1 8672   1.962   1.626   4.432  1.1593 -1.5264  0.8801
 2658SOL    HW2 8673   2.017   1.752   4.369 -2.4011 -0.3346 -0.0813
 2659SOL     OW 8674   0.602   4.112   5.080 -0.2671  0.0692 -0.2225
 2659SOL    HW1 8675   0.605   4.123   4.985 -0.9851 -0.5621 -0.3288
 2659SOL    HW2 8676   0.531   4.049   5.095  1.9312 -2.4273  0.4962
 2660SOL     OW 8677   4.782   2.551   1.256  0.0413  0.0621  0.2846
 2660SOL    HW1 8678   4.839   2.628   1.250 -1.9226  1.5235 -0.9095
 2660SOL    HW2 8679   4.758   2.533   1.165 -1.4080 -0.4829  0.7536
 2661SOL     OW 8680   4.431   2.611   1.188 -0.3463  0.3745 -0.3262
 2661SOL    HW1 8681   4.335   2.618   1.191 -0.2646  2.2913 -1.2759
 2661SOL    HW2 8682   4.462   2.697   1.217  1.0566  0.3132 -1.5510
 2662SOL     OW 8683   2.439   1.566   1.578  0.1885  0.0740 -0.4224
 2662SOL    HW1 8684   2.385   1.644   1.565  0.0461  0.0936  0.2913
 2662SOL    HW2 8685   2.521   1.586   1.531  0.1258  0.6217 -0.3045
 2663SOL     OW 8686   4.834   3.768   2.776 -0.2094  0.4044  0.6181
 2663SOL    HW1 8687   4.916   3.800   2.739 -0.6404  1.5973  0.6472
 2663SOL    HW2 8688   4.851   3.759   2.869  0.3032 -0.7461  0.4313
 2664SOL     OW 8689   3.954   3.310   1.868 -0.3790  0.3628  0.1616
 2664SOL    HW1 8690   3.929   3.224   1.836 -0.4691  1.0172 -1.6555
 2664SOL    HW2 8691   4.048   3.315   1.852 -0.8299  1.6974 -2.7445
 2665SOL     OW 8692   2.813   2.309   1.368  0.2620  0.0044 -0.5124
 2665SOL    HW1 8693   2.846   2.222   1.345 -0.2184 -0.5823  0.9098
 2665SOL    HW2 8694   2.724   2.310   1.333 -0.1670 -0.5576  0.5319
 2666SOL     OW 8695   5.011   0.655   5.238 -0.2434  0.1156  0.1800
 2666SOL    HW1 8696   5.081   0.694   5.186 -0.2912  0.8246  0.6318
 2666SOL    HW2 8697   4.979   0.726   5.293 -3.6544  0.8501 -2.3906
 2667SOL     OW 8698   4.607   0.870   4.195  0.1154  0.1384  0.3534
 2667SOL    HW1 8699   4.600   0.965   4.197 -0.0350  0.1307  0.2252
 2667SOL    HW2 8700   4.700   0.853   4.178 -0.0369  0.2807 -0.7256
 2668SOL     OW 8701   3.059   1.084   4.580 -0.1592 -0.6268  0.1398
 2668SOL    HW1 8702   3.129   1.135   4.621 -0.7199 -0.4330  0.8697
 2668SOL    HW2 8703   3.080   0.993   4.603  1.6385 -0.9767 -2.3304
 2669SOL     OW 8704   0.094   1.521   0.228  0.3402 -0.1660 -0.2475
 2669SOL    HW1 8705   0.057   1.476   0.304  0.2393 -2.1722 -1.4134
 2669SOL    HW2 8706   0.187   1.497   0.228  0.2683 -0.4786 -0.9361
 2670SOL     OW 8707   3.031   3.894   2.776  0.6122 -0.5074 -0.1990
 2670SOL    HW1 8708   2.996   3.913   2.863 -0.0502  0.1523 -0.5961
 2670SOL    HW2 8709   2.998   3.806   2.755  0.4310 -0.4974  0.0432
 2671SOL     OW 8710   4.119   0.742   0.059  0.5650 -0.5529  0.5737
 2671SOL    HW1 8711   4.130   0.789   0.142  2.6230 -0.8262  0.5128
 2671SOL    HW2 8712   4.025   0.728   0.052 -0.1644  3.0941  0.8367
 2672SOL     OW 8713   2.594   2.184   1.974  0.4506 -0.3405 -0.1245
 2672SOL    HW1 8714   2.540   2.115   1.936  1.3472 -0.6750 -0.8213
 2672SOL    HW2 8715   2.603   2.158   2.066 -0.4466 -0.3506 -0.0304
 2673SOL     OW 8716   3.007   2.835   4.451 -0.0570 -0.0929  0.7258
 2673SOL    HW1 8717   2.959   2.916   4.470 -0.8512  0.1969 -2.0224
 2673SOL    HW2 8718   2.939   2.769   4.438  0.5608 -1.0383  2.0598
 2674SOL     OW 8719   3.168   1.669   1.093 -0.2244  0.4242 -0.3753
 2674SOL    HW1 8720   3.148   1.706   1.007 -0.6280  0.2256 -0.3684
 2674SOL    HW2 8721   3.124   1.584   1.094  0.2746  0.1630 -0.1981
 2675SOL     OW 8722   3.367   1.435   3.094 -0.4494  0.4204 -0.4749
 2675SOL    HW1 8723   3.423   1.449   3.170  0.5298  2.2267 -1.4621
 2675SOL    HW2 8724   3.278   1.445   3.127  0.0035  3.8857  0.0415
 2676SOL     OW 8725   1.001   4.797   5.330 -0.3429 -0.6264 -0.4763
 2676SOL    HW1 8726   1.038   4.759   5.409  1.1031  0.5164 -0.5653
 2676SOL    HW2 8727   0.991   4.723   5.270 -0.9628 -1.4124  0.5701
 2677SOL     OW 8728   3.448   2.879   0.818  0.4236 -0.0426 -0.1582
 2677SOL    HW1 8729   3.429   2.950   0.880 -3.2980  0.3477 -1.4715
 2677SOL    HW2 8730   3.449   2.800   0.872 -0.0206  0.5487  0.7393
 2678SOL     OW 8731   0.799   4.460   1.492  0.8503  0.5540 -0.4778
 2678SOL    HW1 8732   0.873   4.481   1.549  0.3323 -0.6306  0.6958
 2678SOL    HW2 8733   0.728   4.516   1.524  0.7933  0.4943 -0.4990
 2679SOL     OW 8734   2.219   0.855   0.063  0.5839 -0.1301 -0.2505
 2679SOL    HW1 8735   2.226   0.900   0.147  1.1327  0.9510 -0.8567
 2679SOL    HW2 8736   2.136   0.885   0.027  0.0015 -1.1544  0.2130
 2680SOL     OW 8737   4.727   0.267   0.594 -0.2273  0.8991  0.2135
 2680SOL    HW1 8738   4.817   0.295   0.580 -0.1275  1.2032  1.3695
 2680SOL    HW2 8739   4.704   0.302   0.681 -0.3778 -1.8669  1.3834
 2681SOL     OW 8740   2.825   0.086   2.350  0.3992  0.0890  0.6083
 2681SOL    HW1 8741   2.865   0.140   2.419 -1.6182  0.5251  1.5276
 2681SOL    HW2 8742   2.788   0.011   2.397  0.2029 -0.3312 -0.2014
 2682SOL     OW 8743   3.729   3.542   5.314  0.2728 -0.4351  0.0190
 2682SOL    HW1 8744   3.688   3.517   5.231  2.3588 -2.2451 -0.5415
 2682SOL    HW2 8745   3.705   3.635   5.325 -3.2715 -1.1326 -0.5619
 2683SOL     OW 8746   3.750   0.266   4.139 -0.2866  0.3660  0.3154
 2683SOL    HW1 8747   3.815   0.292   4.073 -0.2080  0.1171  0.2952
 2683SOL    HW2 8748   3.750   0.338   4.202  0.5346  0.0319  0.7079
 2684SOL     OW 8749   2.353   1.938   3.587  0.0285 -0.1425 -0.1162
 2684SOL    HW1 8750   2.372   1.960   3.678  0.4545 -3.3171  0.6786
 2684SOL    HW2 8751   2.266   1.976   3.570  0.5527  1.7081  1.0983
 2685SOL     OW 8752   4.669   5.080   4.305 -0.2346 -0.3425 -0.3110
 2685SOL    HW1 8753   4.684   4.985   4.306  2.3098 -0.0185  1.4645
 2685SOL    HW2 8754   4.714   5.111   4.227 -1.1924 -0.5873 -0.9723
 2686SOL     OW 8755   0.592   4.534   0.851  0.2022  0.1322  0.4273
 2686SOL    HW1 8756   0.671   4.578   0.882  0.4493 -1.2009  1.7851
 2686SOL    HW2 8757   0.603   4.529   0.756  1.3204  0.7596  0.5089
 2687SOL     OW 8758   5.268   0.752   2.955 -0.3280 -0.4692  0.4382
 2687SOL    HW1 8759   5.174   0.738   2.967 -0.4946  1.3482  1.7893
 2687SOL    HW2 8760   5.284   0.838   2.994  1.9973 -0.9723  0.7522
 2688SOL     OW 8761   2.824   4.047   1.189  0.1786  0.0610  0.1350
 2688SOL    HW1 8762   2.754   4.007   1.241 -0.1176 -0.2839 -0.5139
 2688SOL    HW2 8763   2.782   4.121   1.145  0.3162  0.0921  0.0565
 2689SOL     OW 8764   2.553   1.248   4.503 -0.2003 -0.0131  0.2739
 2689SOL    HW1 8765   2.642   1.274   4.526 -0.4191  0.3672  0.7245
 2689SOL    HW2 8766   2.516   1.216   4.586 -1.1264  1.7141  0.5748
 2690SOL     OW 8767   4.086   4.713   3.368 -0.0071  0.0728  0.1014
 2690SOL    HW1 8768   4.095   4.771   3.292 -0.7161 -0.8105 -0.6952
 2690SOL    HW2 8769   4.107   4.767   3.443 -0.0344  1.1851 -0.6738
 2691SOL     OW 8770   1.383   2.970   0.909  0.0405 -0.1733  0.0624
 2691SOL    HW1 8771   1.300   2.924   0.901 -1.0468  1.6753  0.0815
 2691SOL    HW2 8772   1.362   3.061   0.886  1.9999  0.3982  0.3442
 2692SOL     OW 8773   5.308   2.620   2.466  0.0070  0.4769  0.0707
 2692SOL    HW1 8774   5.315   2.716   2.462  0.6044  0.4130 -0.5783
 2692SOL    HW2 8775   5.295   2.601   2.559  2.3526  1.0568  0.5853
 2693SOL     OW 8776   0.068   5.274   1.982  0.7536 -0.2537  0.3766
 2693SOL    HW1 8777   0.157   5.273   2.016  0.0858  0.1143  2.2989
 2693SOL    HW2 8778   0.015   5.237   2.053 -0.9410  1.9599  0.3822
 2694SOL     OW 8779   4.675   2.352   1.741  0.3323 -0.0156 -0.4078
 2694SOL    HW1 8780   4.642   2.360   1.652  0.0859  1.1651 -0.2376
 2694SOL    HW2 8781   4.596   2.354   1.796  0.5465  3.3610  0.0422
 2695SOL     OW 8782   0.925   0.258   3.557  0.7064 -0.0698  0.3204
 2695SOL    HW1 8783   0.984   0.316   3.508  0.9079 -0.8310 -0.3446
 2695SOL    HW2 8784   0.860   0.229   3.493  0.5050 -0.4434  0.6894
 2696SOL     OW 8785   1.982   2.712   4.761 -0.2508  0.1998  1.1984
 2696SOL    HW1 8786   1.908   2.689   4.705 -0.3321 -2.6736  2.2796
 2696SOL    HW2 8787   1.944   2.724   4.848  0.3327  0.4171  1.4295
 2697SOL     OW 8788   1.615   3.213   4.426  0.1245 -0.3917 -0.2054
 2697SOL    HW1 8789   1.646   3.154   4.495  0.8416 -0.9895 -1.0160
 2697SOL    HW2 8790   1.680   3.283   4.424  0.5917 -0.8252 -0.8361
 2698SOL     OW 8791   3.664   1.542   2.958 -0.2150  0.1281 -0.0868
 2698SOL    HW1 8792   3.654   1.450   2.983  1.7044  0.1706  1.0908
 2698SOL    HW2 8793   3.709   1.582   3.032 -1.5486  2.1883 -0.3126
 2699SOL     OW 8794   3.219   0.200   1.825 -0.4204 -0.4322  0.0185
 2699SOL    HW1 8795   3.252   0.290   1.832 -0.6087 -0.0964 -2.5950
 2699SOL    HW2 8796   3.136   0.209   1.778  0.0370 -2.0464 -1.1519
 2700SOL     OW 8797   2.198   3.212   0.659 -0.1104 -0.0743 -0.2012
 2700SOL    HW1 8798   2.158   3.299   0.663 -0.8771 -0.1527 -3.5723
 2700SOL    HW2 8799   2.292   3.228   0.665 -0.3198  0.7372  1.3205
 2701SOL     OW 8800   2.372   1.685   3.946 -0.1149 -0.0492 -0.5425
 2701SOL    HW1 8801   2.374   1.656   3.855 -0.6805  0.5262 -0.7493
 2701SOL    HW2 8802   2.372   1.603   3.997 -0.3995 -0.3902 -1.0749
 2702SOL     OW 8803   2.552   4.979   0.116 -0.1472  0.2000 -0.3107
 2702SOL    HW1 8804   2.537   5.073   0.115  3.0297  0.8267 -2.6649
 2702SOL    HW2 8805   2.467   4.941   0.093 -1.7243  2.3216  1.5698
 2703SOL     OW 8806   2.008   1.036   4.278 -0.0068  0.1061 -0.0157
 2703SOL    HW1 8807   1.925   1.078   4.299  0.2698  0.7909 -0.2700
 2703SOL    HW2 8808   2.018   0.968   4.345 -0.6093  0.2339  0.2115
 2704SOL     OW 8809   0.443   3.208   2.557  0.3077  0.0983  0.2040
 2704SOL    HW1 8810   0.456   3.153   2.480 -0.5411  1.7037 -1.1683
 2704SOL    HW2 8811   0.374   3.269   2.531 -0.8198 -0.0044  2.6502
 2705SOL     OW 8812   4.668   4.369   0.741 -0.2612  0.5075 -0.3055
 2705SOL    HW1 8813   4.754   4.406   0.758  0.3354 -0.8588 -0.2678
 2705SOL    HW2 8814   4.608   4.424   0.792  0.5526  1.5271 -0.4040
 2706SOL     OW 8815   4.509   3.465   0.733  0.0423  0.1187  0.3683
 2706SOL    HW1 8816   4.586   3.474   0.677 -0.0895 -0.4230  0.0921
 2706SOL    HW2 8817   4.513   3.375   0.764 -1.3445 -0.4368 -0.9330
 2707SOL     OW 8818   2.422   2.197   1.668  0.0748 -0.2670 -0.2557
 2707SOL    HW1 8819   2.348   2.225   1.613 -0.7520 -1.6250  0.1043
 2707SOL    HW2 8820   2.380   2.161   1.747  1.0614 -2.0417 -0.4993
 2708SOL     OW 8821   0.470   0.955   2.418  0.0107  0.3584 -0.0422
 2708SOL    HW1 8822   0.394   0.896   2.415  0.7748 -0.6447 -0.2753
 2708SOL    HW2 8823   0.536   0.911   2.365  0.2011  2.0462 -1.2537
 2709SOL     OW 8824   0.113   0.516   1.651 -1.4158 -0.8523  0.0123
 2709SOL    HW1 8825   0.080   0.511   1.741  1.2915 -2.7527  1.0290
 2709SOL    HW2 8826   0.199   0.556   1.659 -1.4769 -0.2448 -1.8912
 2710SOL     OW 8827   2.934   2.597   0.888  0.1583  0.2572  0.0529
 2710SOL    HW1 8828   3.020   2.620   0.851  0.0572 -0.0305 -0.3653
 2710SOL    HW2 8829   2.878   2.671   0.864  0.2713  0.4119  0.2632
 2711SOL     OW 8830   3.503   1.379   4.296 -0.0192 -0.4405 -0.3150
 2711SOL    HW1 8831   3.570   1.317   4.267 -0.9812 -1.1550 -1.0877
 2711SOL    HW2 8832   3.507   1.450   4.232  0.8513  0.1619  0.3772
 2712SOL     OW 8833   1.664   1.716   4.263 -0.3164  0.5374 -0.0111
 2712SOL    HW1 8834   1.614   1.677   4.192  0.3432  0.9007 -0.6912
 2712SOL    HW2 8835   1.651   1.657   4.337 -0.3177 -0.3136 -0.6778
 2713SOL     OW 8836   4.338   2.252   3.825 -0.1774 -0.3658 -0.0284
 2713SOL    HW1 8837   4.289   2.300   3.758 -1.1143 -1.1531  0.0705
 2713SOL    HW2 8838   4.294   2.167   3.831  2.4705 -1.9856 -1.4647
 2714SOL     OW 8839   4.472   3.253   0.159  0.8367 -0.2192  0.0254
 2714SOL    HW1 8840   4.420   3.188   0.206  0.4172  0.0836 -0.0179
 2714SOL    HW2 8841   4.464   3.229   0.067  1.7288 -0.8642  0.1033
 2715SOL     OW 8842   3.305   1.575   3.396  0.0134 -0.1674  0.1736
 2715SOL    HW1 8843   3.396   1.582   3.369 -0.0710  2.4390  0.3812
 2715SOL    HW2 8844   3.310   1.554   3.490  0.3955  0.3485  0.2691
 2716SOL     OW 8845   5.073   0.828   4.306  0.3540  0.3737  0.3454
 2716SOL    HW1 8846   5.110   0.917   4.300  0.5253  0.2494 -0.5419
 2716SOL    HW2 8847   5.021   0.830   4.386 -0.1706  1.4781  0.0057
 2717SOL     OW 8848   1.666   1.358   3.487 -0.2408  0.3144  0.2263
 2717SOL    HW1 8849   1.678   1.288   3.422 -2.7570 -0.4249  0.4509
 2717SOL    HW2 8850   1.668   1.439   3.436  0.7480 -0.0484 -0.3314
 2718SOL     OW 8851   0.238   4.915   0.511 -0.6792  0.0338 -0.0773
 2718SOL    HW1 8852   0.152   4.902   0.551 -1.0127  1.5951 -0.2285
 2718SOL    HW2 8853   0.263   5.004   0.535  1.0279 -0.4797  0.1766
 2719SOL     OW 8854   5.318   2.566   3.213 -0.0597 -0.1227 -0.3231
 2719SOL    HW1 8855   5.351   2.579   3.302 -1.3412 -1.8111  0.4700
 2719SOL    HW2 8856   5.335   2.474   3.195 -1.1477 -0.1616 -1.2318
 2720SOL     OW 8857   3.759   1.249   3.955  0.4407 -0.5517  0.6537
 2720SOL    HW1 8858   3.788   1.310   4.023 -1.4123 -0.7720  1.7131
 2720SOL    HW2 8859   3.822   1.177   3.959  1.4298  0.2974  0.8370
 2721SOL     OW 8860   3.479   0.244   0.554 -0.1629 -0.1950 -0.1427
 2721SOL    HW1 8861   3.463   0.298   0.631  0.9784 -0.9700  0.6696
 2721SOL    HW2 8862   3.393   0.207   0.532 -0.6586  0.7015  0.2201
 2722SOL     OW 8863   2.966   3.004   2.501  0.0103 -0.3095 -0.0355
 2722SOL    HW1 8864   3.002   3.046   2.423 -0.0237 -0.6434 -0.2359
 2722SOL    HW2 8865   3.003   2.915   2.499 -0.0553 -0.3467  0.2840
 2723SOL     OW 8866   1.293   2.534   1.412  0.0069  0.1223 -0.2828
 2723SOL    HW1 8867   1.364   2.481   1.446  0.5030  1.0770  0.2077
 2723SOL    HW2 8868   1.235   2.472   1.367  1.1941 -0.6502 -0.7728
 2724SOL     OW 8869   4.414   3.270   1.186  0.1184 -0.0657  0.0176
 2724SOL    HW1 8870   4.343   3.236   1.131 -0.9260  1.2792  0.4609
 2724SOL    HW2 8871   4.371   3.293   1.268  1.1997  0.1949  0.5226
 2725SOL     OW 8872   2.714   5.107   0.876 -0.5378  0.6055 -0.0125
 2725SOL    HW1 8873   2.726   5.124   0.783  1.3011  0.2041  0.1140
 2725SOL    HW2 8874   2.726   5.013   0.885 -1.1942  0.5682  0.5805
 2726SOL     OW 8875   5.349   1.206   3.383 -0.1373  0.6703  0.6468
 2726SOL    HW1 8876   5.415   1.265   3.347 -0.9598  1.2555  0.0567
 2726SOL    HW2 8877   5.304   1.171   3.307  0.5404 -1.0077  0.9651
 2727SOL     OW 8878   4.440   3.736   2.422 -0.4654  0.2869 -0.1124
 2727SOL    HW1 8879   4.360   3.777   2.457 -0.1157  1.8679 -1.0511
 2727SOL    HW2 8880   4.509   3.761   2.484 -0.6172 -0.8286  0.5358
 2728SOL     OW 8881   0.285   0.809   5.334  0.0549  0.1782 -0.2728
 2728SOL    HW1 8882   0.249   0.770   5.254 -0.3100  3.0233 -1.6025
 2728SOL    HW2 8883   0.211   0.857   5.372  0.6340  0.1108  0.9905
 2729SOL     OW 8884   4.609   1.952   1.903 -0.1065 -0.7332 -0.2189
 2729SOL    HW1 8885   4.624   2.043   1.876  1.2663 -0.8526  0.0886
 2729SOL    HW2 8886   4.525   1.929   1.863 -1.4720  1.2913  1.2983
 2730SOL     OW 8887   1.169   2.786   0.984 -0.3186 -0.2736  0.0690
 2730SOL    HW1 8888   1.125   2.711   0.944 -0.7381 -0.2975  0.5565
 2730SOL    HW2 8889   1.244   2.749   1.029 -0.0500 -0.2912 -0.3894
 2731SOL     OW 8890   1.100   3.061   1.374  0.1201  0.5372 -0.2066
 2731SOL    HW1 8891   1.066   3.093   1.458  0.9750  0.2503  0.2593
 2731SOL    HW2 8892   1.113   2.967   1.388 -0.3686  0.3645 -0.8842
 2732SOL     OW 8893   3.016   4.253   2.300 -0.0635 -0.2085 -0.1324
 2732SOL    HW1 8894   3.055   4.282   2.383 -2.2737 -1.3638  1.4174
 2732SOL    HW2 8895   3.082   4.195   2.263  0.5025 -0.6528  1.4612
 2733SOL     OW 8896   5.010   4.608   1.463 -0.3389 -0.1029 -0.2647
 2733SOL    HW1 8897   5.060   4.528   1.479 -2.7157 -1.5773  0.2099
 2733SOL    HW2 8898   4.924   4.591   1.501 -0.1379  3.7726  2.5186
 2734SOL     OW 8899   5.204   1.670   5.356 -0.1846 -0.3641  0.4204
 2734SOL    HW1 8900   5.254   1.688   5.276 -0.2482  0.0342  0.4687
 2734SOL    HW2 8901   5.230   1.739   5.417 -1.2659  0.2330  0.2276
 2735SOL     OW 8902   0.701   4.152   1.337 -0.6609  0.1576 -0.2871
 2735SOL    HW1 8903   0.734   4.180   1.252 -0.3274 -0.8146 -0.4912
 2735SOL    HW2 8904   0.771   4.172   1.398 -1.0607  1.2385 -0.1542
 2736SOL     OW 8905   4.007   3.862   1.482 -0.6573  0.5276 -0.6729
 2736SOL    HW1 8906   3.932   3.844   1.425 -1.9011  0.1424  1.0082
 2736SOL    HW2 8907   3.974   3.846   1.571  1.3209  0.7059  0.1433
 2737SOL     OW 8908   4.521   3.881   4.949 -0.1508  0.0205 -0.6080
 2737SOL    HW1 8909   4.464   3.857   5.022  0.2465 -0.8073 -0.5550
 2737SOL    HW2 8910   4.576   3.951   4.984  0.0433 -0.3745 -0.0988
 2738SOL     OW 8911   3.880   1.019   5.126  0.2303 -0.0346  0.1273
 2738SOL    HW1 8912   3.953   1.076   5.099 -1.1531  1.0414 -1.5600
 2738SOL    HW2 8913   3.807   1.046   5.071 -0.7217 -2.9750 -0.1955
 2739SOL     OW 8914   4.405   1.630   1.740  0.2213 -0.0668  0.7448
 2739SOL    HW1 8915   4.373   1.586   1.662  2.8234 -1.3984  0.3179
 2739SOL    HW2 8916   4.407   1.723   1.717 -0.5758 -0.2749 -0.1883
 2740SOL     OW 8917   0.475   0.395   3.066  0.2143 -0.1554 -0.8878
 2740SOL    HW1 8918   0.382   0.420   3.066  0.0619 -0.6853 -0.3086
 2740SOL    HW2 8919   0.506   0.416   2.978  0.4108  3.2057 -0.1642
 2741SOL     OW 8920   1.969   3.063   0.212  0.2259  0.0945 -0.1550
 2741SOL    HW1 8921   2.015   3.079   0.295  0.2094  0.6102 -0.2443
 2741SOL    HW2 8922   1.893   3.009   0.237 -0.0047  0.5886  0.2282
 2742SOL     OW 8923   1.666   0.988   2.857  0.2211  0.6681 -0.1643
 2742SOL    HW1 8924   1.745   0.934   2.847  1.1929  1.9939  0.0211
 2742SOL    HW2 8925   1.596   0.925   2.877  0.8426 -0.7292 -2.1189
 2743SOL     OW 8926   1.628   1.268   4.973 -0.7724  0.3193 -1.3014
 2743SOL    HW1 8927   1.603   1.300   5.060  0.6208  0.8791 -1.0785
 2743SOL    HW2 8928   1.644   1.347   4.922  1.5485  0.0462 -1.0989
 2744SOL     OW 8929   1.417   5.252   4.588  0.8461 -0.5849  0.0819
 2744SOL    HW1 8930   1.330   5.222   4.562 -0.2513  1.4157  1.2040
 2744SOL    HW2 8931   1.445   5.309   4.516  0.4774  0.1003  0.4727
 2745SOL     OW 8932   2.889   0.411   3.508  0.6237 -0.3504 -0.2575
 2745SOL    HW1 8933   2.884   0.367   3.592  1.8089  0.8069  0.4494
 2745SOL    HW2 8934   2.981   0.436   3.498  0.4814 -0.2943 -1.8133
 2746SOL     OW 8935   1.314   4.725   2.911 -0.0500  0.1265  0.0280
 2746SOL    HW1 8936   1.317   4.634   2.943 -0.2040  0.7885  2.1143
 2746SOL    HW2 8937   1.235   4.761   2.952  0.5699  1.4846  0.0440
 2747SOL     OW 8938   4.210   1.163   2.982 -0.2173 -0.1345  0.1475
 2747SOL    HW1 8939   4.295   1.204   2.967 -1.2473  1.6604 -1.2132
 2747SOL    HW2 8940   4.227   1.095   3.048  2.1386  0.5283  0.3096
 2748SOL     OW 8941   1.624   5.205   4.222 -0.4806  0.6800 -0.6687
 2748SOL    HW1 8942   1.569   5.147   4.275 -1.3424  1.6682 -0.4402
 2748SOL    HW2 8943   1.704   5.154   4.206 -0.0069  0.4594  1.9041
 2749SOL     OW 8944   1.099   1.469   3.578  0.3286 -0.2082 -0.5202
 2749SOL    HW1 8945   1.182   1.453   3.623  0.4295  0.4710 -0.4637
 2749SOL    HW2 8946   1.086   1.390   3.525  1.2971 -0.0711 -0.9778
 2750SOL     OW 8947   3.801   2.994   2.429 -0.3923  0.0119  0.5659
 2750SOL    HW1 8948   3.817   3.088   2.424 -0.8031  0.0306 -1.0570
 2750SOL    HW2 8949   3.705   2.986   2.436 -0.4132 -0.2924 -0.0203
 2751SOL     OW 8950   3.708   4.819   2.487  0.1778  0.4305  0.6652
 2751SOL    HW1 8951   3.653   4.866   2.549  1.4478  0.1100  2.1032
 2751SOL    HW2 8952   3.701   4.869   2.406 -0.7900  1.4105  1.3224
 2752SOL     OW 8953   0.790   2.153   3.798 -0.0601  0.0253 -0.1097
 2752SOL    HW1 8954   0.721   2.217   3.812 -0.0759  0.0475 -0.2957
 2752SOL    HW2 8955   0.810   2.158   3.705 -0.4917 -0.6769 -0.2494
 2753SOL     OW 8956   3.184   3.851   0.529  0.1893 -0.8403 -0.2979
 2753SOL    HW1 8957   3.094   3.855   0.495 -0.4273 -0.8526  1.2417
 2753SOL    HW2 8958   3.186   3.920   0.596  0.6433 -2.2814  1.2137
 2754SOL     OW 8959   4.250   4.946   3.961  1.2347  0.5216  0.4388
 2754SOL    HW1 8960   4.330   4.918   4.007  1.5893  1.3212  0.3158
 2754SOL    HW2 8961   4.185   4.955   4.031  1.2287 -0.1855  0.5339
 2755SOL     OW 8962   1.947   3.106   3.481  0.3886 -0.0481  0.1035
 2755SOL    HW1 8963   2.002   3.167   3.529  1.9074 -0.9503 -0.4115
 2755SOL    HW2 8964   1.891   3.162   3.427  0.8938  0.9019  0.5356
 2756SOL     OW 8965   3.898   2.846   5.079  0.2241 -0.3281  0.6376
 2756SOL    HW1 8966   3.978   2.861   5.029  0.3248 -0.3344  0.7949
 2756SOL    HW2 8967   3.893   2.751   5.088 -0.8101 -0.4610 -1.0024
 2757SOL     OW 8968   1.307   3.799   3.436  0.2109  0.0215 -0.2412
 2757SOL    HW1 8969   1.350   3.795   3.522 -1.8597  0.8992  0.9083
 2757SOL    HW2 8970   1.309   3.892   3.413 -1.7656  0.2368  0.2773
 2758SOL     OW 8971   4.762   3.560   1.405 -0.4896 -0.0699 -0.6115
 2758SOL    HW1 8972   4.809   3.488   1.447 -0.5008 -0.0490 -0.5632
 2758SOL    HW2 8973   4.728   3.612   1.478 -1.5418 -0.7093 -0.6185
 2759SOL     OW 8974   5.105   3.801   2.828 -0.5976 -0.5490 -0.0021
 2759SOL    HW1 8975   5.069   3.732   2.884  1.1746 -0.6626  1.0998
 2759SOL    HW2 8976   5.133   3.869   2.890 -0.3850  0.2087 -0.9118
 2760SOL     OW 8977   2.545   1.454   1.816  0.0924 -0.4076  0.3748
 2760SOL    HW1 8978   2.495   1.376   1.791 -1.1524 -0.3190  2.3742
 2760SOL    HW2 8979   2.544   1.509   1.738 -1.7100 -1.0563 -0.1014
 2761SOL     OW 8980   0.003   0.905   2.519  0.3045 -0.7891 -0.4756
 2761SOL    HW1 8981   0.051   0.982   2.488  2.9280 -1.1229  2.2919
 2761SOL    HW2 8982   0.063   0.832   2.503 -0.1591 -1.5530  1.1331
 2762SOL     OW 8983   2.687   4.230   3.973 -0.0678 -0.2781  0.0730
 2762SOL    HW1 8984   2.674   4.135   3.977 -0.3235 -0.2803 -0.6567
 2762SOL    HW2 8985   2.751   4.248   4.042 -0.3522 -0.9187  0.5169
 2763SOL     OW 8986   4.365   0.083   4.666  0.1360  0.1673 -0.0043
 2763SOL    HW1 8987   4.371   0.159   4.724  0.0984  0.5293 -0.4669
 2763SOL    HW2 8988   4.415   0.108   4.589  0.2931 -0.3600 -0.0790
 2764SOL     OW 8989   4.426   0.157   3.480  0.0914 -0.1099  0.3447
 2764SOL    HW1 8990   4.411   0.215   3.405 -0.9979  0.2602  0.8324
 2764SOL    HW2 8991   4.365   0.085   3.467  0.6241 -0.5760  0.3591
 2765SOL     OW 8992   0.349   3.825   0.825 -0.4027 -0.0395 -0.1619
 2765SOL    HW1 8993   0.399   3.845   0.905  3.7604 -1.0619 -2.2359
 2765SOL    HW2 8994   0.371   3.896   0.765 -0.6777 -1.0196 -1.4631
 2766SOL     OW 8995   0.915   1.243   4.835 -0.1438 -0.4085  0.2738
 2766SOL    HW1 8996   0.946   1.240   4.925 -2.3561 -1.1073  1.0727
 2766SOL    HW2 8997   0.940   1.330   4.804  0.9174 -0.2674  1.4258
 2767SOL     OW 8998   0.292   3.094   2.200 -0.1000  0.3196  0.1169
 2767SOL    HW1 8999   0.368   3.065   2.252  0.7137  1.0399 -0.6450
 2767SOL    HW2 9000   0.216   3.062   2.249  0.7107 -1.5727  0.2136
 2768SOL     OW 9001   1.496   5.234   2.767  0.4049 -0.1001  1.0142
 2768SOL    HW1 9002   1.532   5.250   2.680  0.2921  0.0688  0.9965
 2768SOL    HW2 9003   1.570   5.203   2.819  0.4242 -0.4187  0.7996
 2769SOL     OW 9004   0.615   3.508   2.089  0.1377 -0.3294 -0.0915
 2769SOL    HW1 9005   0.691   3.534   2.037  1.1143 -1.7845  0.5212
 2769SOL    HW2 9006   0.591   3.421   2.055 -1.7992  0.4209 -0.8119
 2770SOL     OW 9007   5.122   0.477   2.399 -0.0077 -0.1910 -0.4473
 2770SOL    HW1 9008   5.169   0.560   2.395  2.1920 -1.4336 -2.0073
 2770SOL    HW2 9009   5.073   0.473   2.316  0.7126 -0.8845 -0.8488
 2771SOL     OW 9010   3.624   0.465   0.737  0.3336  0.4467  0.1066
 2771SOL    HW1 9011   3.692   0.398   0.729 -0.8669 -0.7875 -0.1296
 2771SOL    HW2 9012   3.643   0.510   0.819  2.1587  0.9834 -0.5668
 2772SOL     OW 9013   4.978   3.934   1.846  0.3618  0.0539  0.1668
 2772SOL    HW1 9014   5.045   3.934   1.777  2.9500  1.8954  2.4549
 2772SOL    HW2 9015   4.931   4.017   1.833  1.1768  0.6409  0.8202
 2773SOL     OW 9016   0.485   3.540   2.536  0.0075  0.2335 -0.2139
 2773SOL    HW1 9017   0.467   3.446   2.543 -1.0351  0.4759  0.6400
 2773SOL    HW2 9018   0.499   3.555   2.443 -2.8263 -0.2765 -0.8070
 2774SOL     OW 9019   4.267   5.164   3.347  0.2571 -0.5361  0.4755
 2774SOL    HW1 9020   4.323   5.127   3.415  0.5919  0.2160  0.6162
 2774SOL    HW2 9021   4.328   5.204   3.284 -0.0857  3.1178  2.1886
 2775SOL     OW 9022   2.853   1.660   2.288  0.1063 -0.3126 -0.7449
 2775SOL    HW1 9023   2.942   1.669   2.320 -0.6717 -0.3129  1.6285
 2775SOL    HW2 9024   2.800   1.650   2.367 -2.3030  2.1533 -1.8862
 2776SOL     OW 9025   5.110   2.693   4.795 -0.6078 -0.0662  0.3748
 2776SOL    HW1 9026   5.122   2.657   4.883  1.6679 -1.1052 -0.2601
 2776SOL    HW2 9027   5.183   2.753   4.784 -1.6668  1.1267 -0.3323
 2777SOL     OW 9028   0.906   1.523   5.023 -0.1504  0.9299  0.4808
 2777SOL    HW1 9029   0.859   1.452   5.066  0.8582 -0.0655 -0.0048
 2777SOL    HW2 9030   0.838   1.573   4.978 -1.1941  1.8068  2.8895
 2778SOL     OW 9031   3.763   0.131   4.878  0.0768  0.5923  0.5955
 2778SOL    HW1 9032   3.678   0.128   4.834  0.4744  0.1586 -0.1581
 2778SOL    HW2 9033   3.796   0.041   4.873  0.2318  0.5829  1.5881
 2779SOL     OW 9034   1.938   4.255   5.204  0.0084 -0.1001 -0.3200
 2779SOL    HW1 9035   1.929   4.169   5.162  0.3342 -0.1744 -0.2438
 2779SOL    HW2 9036   1.849   4.286   5.215 -0.1055 -0.3627 -0.4902
 2780SOL     OW 9037   3.236   3.834   2.347  0.5535 -0.3288 -0.0012
 2780SOL    HW1 9038   3.218   3.907   2.288  1.2155 -0.3411 -0.2367
 2780SOL    HW2 9039   3.153   3.787   2.354 -0.1208  0.9374  0.8684
 2781SOL     OW 9040   3.475   3.482   3.884  0.0206 -0.2309  0.8239
 2781SOL    HW1 9041   3.484   3.420   3.957 -2.9908 -1.3968  0.3605
 2781SOL    HW2 9042   3.381   3.496   3.876  0.4220  1.9432 -1.1806
 2782SOL     OW 9043   1.374   0.155   5.082 -0.1461 -0.9704  0.2747
 2782SOL    HW1 9044   1.438   0.102   5.130  2.2575  1.0415 -0.5054
 2782SOL    HW2 9045   1.387   0.244   5.114 -1.7268 -0.2982 -0.8088
 2783SOL     OW 9046   3.062   0.053   1.506  0.4586 -0.5873  0.7709
 2783SOL    HW1 9047   3.076   0.147   1.496 -0.0377 -0.4706  1.1403
 2783SOL    HW2 9048   2.968   0.043   1.518 -0.2305 -1.5540 -3.7019
 2784SOL     OW 9049   0.414   1.650   3.639 -0.1490  0.5765 -0.9122
 2784SOL    HW1 9050   0.486   1.713   3.632  1.3642 -1.0697 -1.0301
 2784SOL    HW2 9051   0.341   1.700   3.675  1.3981  2.0744  0.3133
 2785SOL     OW 9052   5.175   2.250   2.722  0.6437  0.0149 -0.0392
 2785SOL    HW1 9053   5.210   2.220   2.806  2.0337  2.8624  0.5007
 2785SOL    HW2 9054   5.182   2.345   2.725 -1.5125  0.3684 -2.4715
 2786SOL     OW 9055   4.476   1.883   0.976  0.0767 -0.5232 -0.1967
 2786SOL    HW1 9056   4.408   1.819   0.952 -0.7306  0.0314  0.5505
 2786SOL    HW2 9057   4.495   1.929   0.895 -1.8738  0.6340 -0.0799
 2787SOL     OW 9058   5.212   1.139   0.939  0.6166 -0.2539 -0.5953
 2787SOL    HW1 9059   5.188   1.194   1.013 -0.0242 -0.4820 -0.6265
 2787SOL    HW2 9060   5.288   1.182   0.900  1.5688 -0.6319  0.7570
 2788SOL     OW 9061   2.521   1.497   0.587  0.4096  0.2711  0.8176
 2788SOL    HW1 9062   2.469   1.576   0.570  0.1583  0.5710  2.7309
 2788SOL    HW2 9063   2.506   1.441   0.510  0.2525  1.8859 -0.3752
 2789SOL     OW 9064   0.729   4.459   2.578  0.5203  0.2168  0.2722
 2789SOL    HW1 9065   0.695   4.415   2.656  1.9926 -0.1745  0.7272
 2789SOL    HW2 9066   0.751   4.387   2.518 -0.1243  0.4929 -0.3002
 2790SOL     OW 9067   0.347   0.890   0.330 -0.5539  0.1948 -0.0466
 2790SOL    HW1 9068   0.343   0.887   0.234  1.2239  1.4826 -0.2290
 2790SOL    HW2 9069   0.386   0.976   0.349 -0.6195 -0.1498  1.8317
 2791SOL     OW 9070   0.920   1.509   2.231 -0.0627 -0.0113 -0.2097
 2791SOL    HW1 9071   0.941   1.559   2.153  0.0693 -0.1478 -0.2623
 2791SOL    HW2 9072   0.865   1.568   2.284  0.3932  0.3261 -0.1033
 2792SOL     OW 9073   4.995   0.469   3.937  0.1478 -0.6192  0.1583
 2792SOL    HW1 9074   5.010   0.534   4.005 -1.5717 -0.8387  0.7812
 2792SOL    HW2 9075   4.916   0.499   3.892 -0.4844 -2.0925  0.2418
 2793SOL     OW 9076   2.204   3.622   0.190 -0.1347  0.0301 -0.2371
 2793SOL    HW1 9077   2.175   3.552   0.247 -0.0420  1.7387  2.0493
 2793SOL    HW2 9078   2.298   3.629   0.206 -0.0003  0.1891 -1.0374
 2794SOL     OW 9079   2.268   1.245   1.041  0.0304 -0.5229  0.3274
 2794SOL    HW1 9080   2.261   1.156   1.006  2.3976 -0.4673 -0.4496
 2794SOL    HW2 9081   2.342   1.242   1.101  0.4577  1.0400 -0.0746
 2795SOL     OW 9082   0.316   4.231   3.524 -0.0409  0.1703  0.1079
 2795SOL    HW1 9083   0.339   4.310   3.476  2.5753 -0.1425  0.7005
 2795SOL    HW2 9084   0.232   4.252   3.566 -0.2115  2.0032 -1.0240
 2796SOL     OW 9085   3.115   3.109   3.629  0.6772 -0.2134  0.2990
 2796SOL    HW1 9086   3.202   3.141   3.654  1.3100 -1.7880  0.2207
 2796SOL    HW2 9087   3.124   3.013   3.629 -0.9473 -0.3889 -0.1216
 2797SOL     OW 9088   1.911   1.345   1.720  0.6756  0.5029  0.0071
 2797SOL    HW1 9089   1.843   1.279   1.702 -0.6277  2.0346 -1.0205
 2797SOL    HW2 9090   1.988   1.312   1.674  0.3679 -0.8241  0.3962
 2798SOL     OW 9091   1.094   4.144   0.076  0.2218  0.3157  0.2512
 2798SOL    HW1 9092   1.080   4.235   0.103  1.0145  0.8956 -1.1768
 2798SOL    HW2 9093   1.189   4.138   0.062 -0.0959  0.0333 -2.1345
 2799SOL     OW 9094   0.848   0.865   1.544 -0.7980 -0.4934  0.4088
 2799SOL    HW1 9095   0.759   0.838   1.521 -1.5873  1.0733  1.5019
 2799SOL    HW2 9096   0.839   0.911   1.627  0.5325  2.4822 -0.9518
 2800SOL     OW 9097   3.260   2.587   2.727  0.3270  0.1867 -0.3862
 2800SOL    HW1 9098   3.247   2.642   2.649  1.3314  0.0163 -0.6839
 2800SOL    HW2 9099   3.310   2.513   2.695  2.3257  0.9750  0.7500
 2801SOL     OW 9100   3.878   4.345   1.507 -0.4059  0.2352  0.2865
 2801SOL    HW1 9101   3.802   4.291   1.533 -0.1533  0.1478  0.8620
 2801SOL    HW2 9102   3.933   4.348   1.585 -0.4659  1.4317  0.3008
 2802SOL     OW 9103   4.251   5.115   1.653 -0.1715 -0.5496 -0.1701
 2802SOL    HW1 9104   4.159   5.092   1.639 -0.1008 -2.1274  1.4499
 2802SOL    HW2 9105   4.286   5.041   1.703  1.1376  1.4604  2.1143
 2803SOL     OW 9106   2.749   0.028   3.408  0.1775 -0.0551 -0.1529
 2803SOL    HW1 9107   2.794   0.007   3.326  0.9262 -0.3064  0.3161
 2803SOL    HW2 9108   2.695  -0.050   3.425  0.0129  0.0004 -0.4048
 2804SOL     OW 9109   0.997   4.953   0.861 -0.3282 -1.1305 -0.5565
 2804SOL    HW1 9110   1.036   5.035   0.893 -1.8294 -0.6968  0.2604
 2804SOL    HW2 9111   1.070   4.907   0.819  0.8814 -0.0233  0.2292
 2805SOL     OW 9112   1.041   1.138   3.006 -0.2329  0.3984  0.3314
 2805SOL    HW1 9113   1.037   1.180   2.920  1.6450  0.9704  0.4672
 2805SOL    HW2 9114   0.998   1.054   2.994  0.1039  0.4231 -1.2108
 2806SOL     OW 9115   3.501   2.686   5.001 -1.0451 -0.4030  0.4061
 2806SOL    HW1 9116   3.569   2.744   4.967 -1.4824 -0.6478 -0.9826
 2806SOL    HW2 9117   3.478   2.722   5.086 -0.3971  0.6920  0.1365
 2807SOL     OW 9118   2.088   2.528   2.587  0.5343 -0.0830  0.2854
 2807SOL    HW1 9119   2.100   2.487   2.673  2.3846 -0.6835 -0.2240
 2807SOL    HW2 9120   2.052   2.614   2.606 -0.3152 -0.6992  1.5795
 2808SOL     OW 9121   1.158   0.718   1.440  0.1183  0.8360 -0.1071
 2808SOL    HW1 9122   1.138   0.779   1.369 -0.3340  1.0859  0.2267
 2808SOL    HW2 9123   1.218   0.654   1.401  2.2906  2.6466  0.0666
 2809SOL     OW 9124   0.182   4.380   3.180 -0.1166  0.0777  0.5052
 2809SOL    HW1 9125   0.105   4.341   3.221 -0.3686 -0.2942 -0.2891
 2809SOL    HW2 9126   0.245   4.308   3.175 -0.3151 -0.0536 -0.2997
 2810SOL     OW 9127   1.382   1.188   4.909 -0.2088 -0.5114  0.4891
 2810SOL    HW1 9128   1.476   1.199   4.923 -0.3567  0.0543  1.0922
 2810SOL    HW2 9129   1.371   1.094   4.895  0.3883 -0.6420  0.8541
 2811SOL     OW 9130   3.994   0.652   0.829 -0.3673  0.3756  0.2924
 2811SOL    HW1 9131   3.956   0.739   0.820  2.6954  1.7234 -1.1158
 2811SOL    HW2 9132   4.037   0.653   0.914  0.1034  0.4295  0.0540
 2812SOL     OW 9133   2.821   2.326   4.115 -0.0280 -0.4785 -0.6619
 2812SOL    HW1 9134   2.744   2.378   4.092  0.6764  0.9152  0.0355
 2812SOL    HW2 9135   2.884   2.343   4.045 -0.0559 -1.0126 -0.8260
 2813SOL     OW 9136   0.183   3.373   2.990 -0.0144  0.2125 -0.2248
 2813SOL    HW1 9137   0.146   3.310   3.051  1.0468  1.5538  1.9071
 2813SOL    HW2 9138   0.178   3.330   2.905 -1.4919 -1.7527  0.7882
 2814SOL     OW 9139   1.652   2.594   0.233 -0.5306  0.0652 -0.1062
 2814SOL    HW1 9140   1.613   2.680   0.221 -0.8201  0.0445  0.6394
 2814SOL    HW2 9141   1.720   2.606   0.299  1.2417  0.2379 -1.8775
 2815SOL     OW 9142   0.988   2.524   4.365  0.6779 -0.2808  0.1819
 2815SOL    HW1 9143   0.961   2.504   4.275  0.3783 -0.8519  0.3915
 2815SOL    HW2 9144   0.997   2.619   4.367 -0.6575 -0.1211 -0.1000
 2816SOL     OW 9145   3.389   0.376   4.178  0.1531  0.3513  0.4299
 2816SOL    HW1 9146   3.369   0.290   4.214  1.6149  0.2873  1.1874
 2816SOL    HW2 9147   3.410   0.360   4.086  1.8467 -0.3714  0.8959
 2817SOL     OW 9148   3.924   1.559   1.256  0.4751 -0.0456 -0.3005
 2817SOL    HW1 9149   3.998   1.550   1.196 -0.4043 -3.4114 -1.0725
 2817SOL    HW2 9150   3.847   1.550   1.200 -0.3726 -3.6058  1.1746
 2818SOL     OW 9151   1.085   0.834   2.318  0.0368 -0.3703  0.5198
 2818SOL    HW1 9152   1.053   0.745   2.325  1.2086 -0.9930 -1.1886
 2818SOL    HW2 9153   1.178   0.824   2.297  0.2903  1.2654  0.7354
 2819SOL     OW 9154   0.379   2.230   2.728  0.1705 -0.0673  0.3962
 2819SOL    HW1 9155   0.304   2.241   2.787 -0.2967 -1.0310 -0.0113
 2819SOL    HW2 9156   0.418   2.147   2.754  0.7710  0.1520  0.2214
 2820SOL     OW 9157   5.145   3.249   4.548  0.3614 -0.1055 -0.1050
 2820SOL    HW1 9158   5.066   3.243   4.494 -0.4523 -3.1934  1.2112
 2820SOL    HW2 9159   5.128   3.321   4.608  0.1781  1.6579 -2.1332
 2821SOL     OW 9160   0.877   0.941   4.145  0.4848 -0.3964 -0.0004
 2821SOL    HW1 9161   0.863   1.003   4.217  1.3598  0.5403 -0.6131
 2821SOL    HW2 9162   0.847   0.987   4.067  1.6970 -0.4935 -0.5499
 2822SOL     OW 9163   5.027   0.425   1.978  0.0775  0.5162 -0.5024
 2822SOL    HW1 9164   4.964   0.419   2.050 -0.6320  1.6525 -1.0022
 2822SOL    HW2 9165   5.072   0.341   1.979 -0.3066  0.2966  0.9105
 2823SOL     OW 9166   3.634   1.323   1.100 -0.5042  0.2096 -0.3533
 2823SOL    HW1 9167   3.638   1.296   1.192 -0.5446  0.4786 -0.2715
 2823SOL    HW2 9168   3.667   1.413   1.099  0.6597 -0.2040 -0.7834
 2824SOL     OW 9169   4.070   1.201   3.369 -0.1123 -0.9483 -0.0374
 2824SOL    HW1 9170   4.114   1.118   3.349  0.8286 -0.9926  1.9584
 2824SOL    HW2 9171   4.129   1.268   3.335  0.1210 -1.0647  0.1318
 2825SOL     OW 9172   0.025   0.892   4.812 -0.2877 -0.1628 -0.4222
 2825SOL    HW1 9173   0.099   0.935   4.770  1.2643 -0.9226  1.3966
 2825SOL    HW2 9174   0.059   0.807   4.840 -1.9625 -0.7036  0.1013
 2826SOL     OW 9175   0.779   0.576   0.452 -0.2123  0.3769  0.1674
 2826SOL    HW1 9176   0.874   0.582   0.442  0.0116  0.7824  2.1470
 2826SOL    HW2 9177   0.764   0.487   0.485 -0.6392 -0.0032 -0.9879
 2827SOL     OW 9178   1.846   0.275   1.569 -0.5995  0.1880  0.5876
 2827SOL    HW1 9179   1.750   0.270   1.564 -0.7404  1.0614  1.8268
 2827SOL    HW2 9180   1.863   0.352   1.623  0.8365  0.5440 -0.3132
 2828SOL     OW 9181   0.602   1.830   4.995  0.6988  0.2544  0.0397
 2828SOL    HW1 9182   0.656   1.775   4.939  0.1349  1.2479 -1.5378
 2828SOL    HW2 9183   0.651   1.912   5.003 -0.2651  0.9497 -0.9240
 2829SOL     OW 9184   3.298   2.294   3.251  0.5212 -0.0892 -0.0878
 2829SOL    HW1 9185   3.314   2.200   3.241  0.0507 -0.2037  0.2115
 2829SOL    HW2 9186   3.229   2.313   3.187 -1.4764 -0.5360  1.8284
 2830SOL     OW 9187   4.913   0.424   2.991  0.2170  0.2262  0.5858
 2830SOL    HW1 9188   4.876   0.508   2.965  2.3229  0.5963 -1.5836
 2830SOL    HW2 9189   4.994   0.447   3.037 -0.4362 -0.6303  2.2773
 2831SOL     OW 9190   5.213   5.027   0.397  0.0724 -0.4358 -1.0090
 2831SOL    HW1 9191   5.192   4.934   0.391 -1.3158 -0.1444 -0.8551
 2831SOL    HW2 9192   5.199   5.049   0.489 -1.5214  0.3389 -1.4050
 2832SOL     OW 9193   4.881   3.280   1.296 -0.2707  0.2879 -0.0078
 2832SOL    HW1 9194   4.918   3.300   1.382  1.3532 -1.0087 -0.3463
 2832SOL    HW2 9195   4.927   3.337   1.235 -0.3027  0.1104 -0.2004
 2833SOL     OW 9196   3.783   2.214   1.343  0.1364 -0.1891 -0.6619
 2833SOL    HW1 9197   3.855   2.199   1.404  0.4372 -2.0628 -1.4036
 2833SOL    HW2 9198   3.730   2.135   1.350 -1.1546  0.6066 -1.0869
 2834SOL     OW 9199   3.311   0.007   2.240 -0.1365 -0.0954  0.6894
 2834SOL    HW1 9200   3.354  -0.077   2.256  0.7406  0.4778  1.4561
 2834SOL    HW2 9201   3.222  -0.016   2.213  0.6543 -1.3055 -1.0161
 2835SOL     OW 9202   2.900   1.535   4.028 -0.5235  0.0621 -0.2652
 2835SOL    HW1 9203   2.905   1.590   4.106  0.0453  0.8664 -0.8448
 2835SOL    HW2 9204   2.807   1.516   4.019 -0.5940 -0.0704  0.6193
 2836SOL     OW 9205   0.526   2.353   3.807 -0.4497 -0.1259  0.2194
 2836SOL    HW1 9206   0.481   2.275   3.774 -0.6632 -0.5490  1.4729
 2836SOL    HW2 9207   0.590   2.374   3.739 -0.8507 -0.9939 -0.4450
 2837SOL     OW 9208   0.093   2.003   0.838 -0.0921 -0.0163 -0.1870
 2837SOL    HW1 9209   0.142   1.995   0.756  2.1228 -2.0614  1.2247
 2837SOL    HW2 9210   0.105   2.094   0.865  1.4078 -0.0008 -0.8207
 2838SOL     OW 9211   1.736   0.655   2.260 -0.4746  0.6793  0.3285
 2838SOL    HW1 9212   1.698   0.690   2.341 -0.3475  0.3246  0.5462
 2838SOL    HW2 9213   1.828   0.640   2.281 -0.4601  0.5053  0.1434
 2839SOL     OW 9214   4.643   0.897   2.085 -0.0868 -0.3202  0.1815
 2839SOL    HW1 9215   4.549   0.912   2.083  0.1039  1.0303 -0.3578
 2839SOL    HW2 9216   4.664   0.887   2.177 -0.4127  2.2739  0.6339
 2840SOL     OW 9217   1.207   5.198   2.658  0.2430  0.1371 -0.2082
 2840SOL    HW1 9218   1.154   5.165   2.730  0.4279  0.6233  0.1584
 2840SOL    HW2 9219   1.297   5.180   2.685  0.2791 -0.9300 -0.9463
 2841SOL     OW 9220   4.467   5.280   2.810  1.0378 -0.0455 -0.1161
 2841SOL    HW1 9221   4.552   5.284   2.765  1.7864  0.3598  1.2566
 2841SOL    HW2 9222   4.457   5.187   2.833  0.2956 -0.3925 -1.6976
 2842SOL     OW 9223   4.675   3.061   2.573  0.2267  0.1571  0.2193
 2842SOL    HW1 9224   4.680   3.053   2.478 -0.0771  2.4599 -0.0587
 2842SOL    HW2 9225   4.724   2.986   2.606  1.5640  0.0551 -1.7771
 2843SOL     OW 9226   5.394   4.272   2.583  0.8347 -0.0084 -0.2171
 2843SOL    HW1 9227   5.346   4.237   2.508  2.3216 -0.8503 -0.8274
 2843SOL    HW2 9228   5.361   4.361   2.594  1.8144  0.8105 -3.0439
 2844SOL     OW 9229   4.936   2.954   0.414 -0.0610  0.1626 -0.5668
 2844SOL    HW1 9230   4.918   2.883   0.475  0.3867  0.9254  0.4877
 2844SOL    HW2 9231   5.032   2.957   0.408 -0.0915  0.2682 -1.1132
 2845SOL     OW 9232   3.900   4.050   2.368  0.5233  0.2173 -0.1487
 2845SOL    HW1 9233   3.957   3.984   2.328 -0.3379  0.5534 -2.0450
 2845SOL    HW2 9234   3.812   4.013   2.362  0.4172 -0.0892  2.3181
 2846SOL     OW 9235   2.751   1.285   5.039 -0.0212  0.1940 -0.1883
 2846SOL    HW1 9236   2.702   1.322   5.113 -0.9970  0.5701 -1.0059
 2846SOL    HW2 9237   2.737   1.346   4.967  0.3532 -0.5173 -0.8888
 2847SOL     OW 9238   2.871   3.194   1.450  0.3667  0.7171  0.1515
 2847SOL    HW1 9239   2.778   3.177   1.434  0.6590 -0.5044 -0.3739
 2847SOL    HW2 9240   2.909   3.203   1.363  0.8811  0.4174  0.3402
 2848SOL     OW 9241   5.368   5.095   2.469  0.0596  0.0973  0.4253
 2848SOL    HW1 9242   5.424   5.026   2.505  0.4264  0.3695  0.3780
 2848SOL    HW2 9243   5.285   5.084   2.515 -0.2523 -1.0796 -0.3658
 2849SOL     OW 9244   3.574   5.171   4.876  0.2785 -0.0547  0.6200
 2849SOL    HW1 9245   3.574   5.117   4.797 -0.2338 -1.4098  1.5034
 2849SOL    HW2 9246   3.664   5.202   4.884  0.4238 -0.2080 -0.2748
 2850SOL     OW 9247   4.048   1.896   3.408 -0.2340  0.1707  0.3717
 2850SOL    HW1 9248   4.105   1.820   3.420 -0.2892  0.3038  1.6640
 2850SOL    HW2 9249   3.974   1.880   3.467 -0.1006  1.3443  0.8861
 2851SOL     OW 9250   3.719   2.787   4.501  0.2335  0.5448 -0.1119
 2851SOL    HW1 9251   3.717   2.880   4.480 -2.4109  0.5463 -0.1885
 2851SOL    HW2 9252   3.703   2.743   4.418  1.6110 -0.0280 -0.1039
 2852SOL     OW 9253   1.096   1.385   2.036  0.1464  0.6903 -0.3592
 2852SOL    HW1 9254   1.144   1.453   1.989  0.7845 -0.4050 -1.3546
 2852SOL    HW2 9255   1.064   1.428   2.115 -0.0792  2.3254 -1.2984
 2853SOL     OW 9256   2.800   3.947   1.553  0.0720 -0.0489  0.1927
 2853SOL    HW1 9257   2.829   4.038   1.554 -0.3465  0.0932 -0.1996
 2853SOL    HW2 9258   2.745   3.940   1.475 -0.8929 -0.3141  0.8712
 2854SOL     OW 9259   4.091   3.190   5.116  0.3526  0.0794 -0.1862
 2854SOL    HW1 9260   4.069   3.131   5.044 -0.0359 -0.7742  0.6024
 2854SOL    HW2 9261   4.035   3.267   5.102 -0.9142 -0.7562  0.0724
 2855SOL     OW 9262   3.451   2.836   4.410 -0.1314  0.1173 -0.4278
 2855SOL    HW1 9263   3.480   2.758   4.364  1.2588 -0.4579  1.3123
 2855SOL    HW2 9264   3.476   2.908   4.353  0.5799 -0.6163 -1.0739
 2856SOL     OW 9265   0.948   5.153   4.068 -0.0163  0.0387 -0.0128
 2856SOL    HW1 9266   1.035   5.169   4.031  0.8732  2.3716  2.7309
 2856SOL    HW2 9267   0.889   5.203   4.012  0.8844  1.1730  0.0182
 2857SOL     OW 9268   0.165   1.741   1.366 -0.6545 -0.3355 -0.3320
 2857SOL    HW1 9269   0.144   1.824   1.409 -0.8103 -0.0738 -0.9011
 2857SOL    HW2 9270   0.091   1.726   1.307 -0.3609 -0.6036 -0.6301
 2858SOL     OW 9271   4.034   3.875   5.055 -0.0183  0.2441 -0.0545
 2858SOL    HW1 9272   4.097   3.944   5.034 -1.0930  0.7212 -1.9472
 2858SOL    HW2 9273   3.962   3.921   5.098  0.3872 -0.1206  1.0438
 2859SOL     OW 9274   0.395   2.398   1.257 -0.1132 -0.2025  0.1913
 2859SOL    HW1 9275   0.380   2.405   1.351 -1.3436  1.7646 -0.1141
 2859SOL    HW2 9276   0.434   2.482   1.232 -0.4984 -0.4104 -1.1819
 2860SOL     OW 9277   3.952   1.362   4.813  0.4238 -0.5667 -0.4081
 2860SOL    HW1 9278   4.044   1.388   4.811  0.6343 -0.8897  2.1458
 2860SOL    HW2 9279   3.903   1.443   4.800  1.0387 -0.3503 -1.4930
 2861SOL     OW 9280   4.730   0.085   0.146 -0.5658  0.1203  0.2736
 2861SOL    HW1 9281   4.655   0.101   0.202 -1.2917  1.4248 -0.9777
 2861SOL    HW2 9282   4.800   0.139   0.183 -0.4404 -0.5582  1.0391
 2862SOL     OW 9283   3.966   3.573   0.179  0.2478  0.9028  0.0162
 2862SOL    HW1 9284   3.947   3.663   0.205  2.4187  0.9793  1.5248
 2862SOL    HW2 9285   4.058   3.573   0.155  0.1854 -0.8498 -0.4183
 2863SOL     OW 9286   0.682   0.702   4.595 -0.0609 -0.4407  0.6198
 2863SOL    HW1 9287   0.596   0.709   4.554 -0.7290 -1.6840  1.7089
 2863SOL    HW2 9288   0.744   0.697   4.522 -0.8669  0.7639 -0.1796
 2864SOL     OW 9289   0.020   1.130   1.626 -0.0352 -0.6867  0.1017
 2864SOL    HW1 9290  -0.074   1.118   1.607  0.0280 -1.8571  0.4302
 2864SOL    HW2 9291   0.025   1.134   1.721  0.1237  0.7366  0.0536
 2865SOL     OW 9292   3.868   3.966   0.544  0.0961 -0.1282 -0.0039
 2865SOL    HW1 9293   3.838   3.887   0.499 -0.1704 -0.5481  0.8897
 2865SOL    HW2 9294   3.805   4.033   0.520  0.6854  0.0109 -1.3020
 2866SOL     OW 9295   0.441   0.496   2.808  0.1693 -0.1408 -0.1127
 2866SOL    HW1 9296   0.396   0.413   2.792 -1.9446  1.4888 -3.5129
 2866SOL    HW2 9297   0.505   0.503   2.738  0.1174  1.2276 -0.0563
 2867SOL     OW 9298   2.074   1.490   3.829 -0.1721  0.3112  0.2383
 2867SOL    HW1 9299   2.048   1.582   3.826  3.4068  1.4357 -2.6674
 2867SOL    HW2 9300   2.037   1.452   3.749  0.2451 -0.1822  0.2708
 2868SOL     OW 9301   0.480   3.980   1.049  0.3312 -0.2282 -0.2473
 2868SOL    HW1 9302   0.426   4.001   1.125 -1.7825 -0.1170 -1.6950
 2868SOL    HW2 9303   0.486   4.062   1.000  2.2675 -0.1224  0.1155
 2869SOL     OW 9304   1.352   3.101   5.242  0.2442 -0.3526 -0.4054
 2869SOL    HW1 9305   1.345   3.097   5.147 -1.6068  0.9306 -0.3755
 2869SOL    HW2 9306   1.282   3.043   5.273 -0.3953  0.6893  0.1386
 2870SOL     OW 9307   1.356   1.043   1.562 -0.2757  0.2266 -0.4054
 2870SOL    HW1 9308   1.265   1.029   1.537  0.1735  0.0852 -2.0278
 2870SOL    HW2 9309   1.379   0.966   1.615 -1.0796  0.2678  0.0221
 2871SOL     OW 9310   2.990   3.907   4.912 -0.2041 -0.0148  0.3124
 2871SOL    HW1 9311   2.944   3.988   4.934 -0.1817  0.2166 -0.4535
 2871SOL    HW2 9312   2.927   3.837   4.934 -1.4812  0.3379 -1.9252
 2872SOL     OW 9313   3.455   3.905   4.803  0.1712  0.1608  0.4327
 2872SOL    HW1 9314   3.371   3.870   4.834  0.0446 -0.3832 -0.4709
 2872SOL    HW2 9315   3.435   3.939   4.715  1.4609 -2.6120 -1.0654
 2873SOL     OW 9316   3.866   3.541   2.544 -0.0964  0.6656  0.2330
 2873SOL    HW1 9317   3.890   3.621   2.497  2.8746  0.8834  1.8852
 2873SOL    HW2 9318   3.786   3.564   2.592  0.0073  2.2270 -0.2895
 2874SOL     OW 9319   1.719   4.393   0.115  0.2330  0.0202 -0.3176
 2874SOL    HW1 9320   1.626   4.385   0.132  0.1358 -0.3074 -0.9622
 2874SOL    HW2 9321   1.724   4.417   0.022  0.7683  0.5835 -0.1479
 2875SOL     OW 9322   0.514   3.174   3.439  0.0339 -0.0618 -0.5832
 2875SOL    HW1 9323   0.431   3.221   3.450 -1.3319 -2.1159 -1.3818
 2875SOL    HW2 9324   0.567   3.200   3.514 -2.4715 -0.8950  1.6367
 2876SOL     OW 9325   1.536   4.583   2.425 -0.3068  0.0759 -0.2219
 2876SOL    HW1 9326   1.496   4.554   2.506 -0.6979 -0.4042 -0.5821
 2876SOL    HW2 9327   1.582   4.506   2.391  2.5705  1.0547  1.1133
 2877SOL     OW 9328   4.856   2.195   1.877 -0.1999  0.6217 -0.1134
 2877SOL    HW1 9329   4.842   2.119   1.820 -0.8098  2.5962 -2.7893
 2877SOL    HW2 9330   4.801   2.263   1.840  0.8931  2.6128  1.7225
 2878SOL     OW 9331   1.742   4.592   1.606  0.1026  0.2027 -0.4259
 2878SOL    HW1 9332   1.771   4.519   1.551 -1.0062 -0.4398 -0.1843
 2878SOL    HW2 9333   1.823   4.637   1.630  0.8741 -1.2717 -0.1271
 2879SOL     OW 9334   2.325   1.337   3.206 -0.6531 -0.0938 -0.1496
 2879SOL    HW1 9335   2.280   1.281   3.142 -1.3311  0.2945 -0.0272
 2879SOL    HW2 9336   2.254   1.376   3.258 -0.2263  1.1918 -0.4868
 2880SOL     OW 9337   4.444   0.116   4.110 -0.0480  0.3906 -0.1395
 2880SOL    HW1 9338   4.517   0.170   4.078  0.7267 -0.8617 -0.5435
 2880SOL    HW2 9339   4.482   0.064   4.181 -0.7000  0.1580  0.0423
 2881SOL     OW 9340   4.178   1.771   4.000  0.1945 -0.3218  0.2002
 2881SOL    HW1 9341   4.228   1.758   3.919  1.1530  0.2124  0.6796
 2881SOL    HW2 9342   4.196   1.692   4.052 -0.4953 -0.7070 -0.1360
 2882SOL     OW 9343   4.023   5.184   4.292  0.2692  0.1754 -0.2042
 2882SOL    HW1 9344   4.099   5.176   4.235  0.3734 -1.3768  0.1096
 2882SOL    HW2 9345   4.051   5.242   4.362  0.4825  1.2418 -1.1356
 2883SOL     OW 9346   3.301   3.033   5.236 -0.4809 -0.0291 -0.5487
 2883SOL    HW1 9347   3.277   3.062   5.324  0.9388 -0.7721  0.1355
 2883SOL    HW2 9348   3.337   3.111   5.194 -0.0085  0.0530 -0.0076
 2884SOL     OW 9349   3.697   0.332   2.636  0.2839  0.3756  0.2918
 2884SOL    HW1 9350   3.752   0.341   2.713  2.9515 -0.1993 -1.4174
 2884SOL    HW2 9351   3.673   0.239   2.633 -0.8489  0.6236  1.0288
 2885SOL     OW 9352   1.543   4.369   4.812  0.2019  0.0366  0.3175
 2885SOL    HW1 9353   1.510   4.458   4.829 -0.4952 -0.1873  0.1911
 2885SOL    HW2 9354   1.587   4.375   4.727 -1.9486 -0.2333 -0.9006
 2886SOL     OW 9355   0.665   1.210   3.146  0.2279 -0.4577  0.0113
 2886SOL    HW1 9356   0.695   1.148   3.079 -0.4492 -1.0262  0.2221
 2886SOL    HW2 9357   0.638   1.154   3.219  0.1727  0.1235  0.4350
 2887SOL     OW 9358   0.782   4.406   0.227  0.0208  0.4188 -0.0784
 2887SOL    HW1 9359   0.787   4.424   0.133 -0.9961  1.0369 -0.0291
 2887SOL    HW2 9360   0.712   4.341   0.235 -1.0060  1.5462  0.3799
 2888SOL     OW 9361   4.698   3.041   0.656 -0.4209  0.6918 -0.3733
 2888SOL    HW1 9362   4.770   3.046   0.719 -1.1899  2.3752  0.4448
 2888SOL    HW2 9363   4.680   2.947   0.648  1.9773  0.2086 -0.7862
 2889SOL     OW 9364   2.357   2.531   5.294  0.2663 -0.3452  0.1746
 2889SOL    HW1 9365   2.327   2.566   5.210 -0.9993 -1.8814 -0.0526
 2889SOL    HW2 9366   2.278   2.505   5.340  1.0622 -2.3530  0.5444
 2890SOL     OW 9367   3.048   2.466   1.400 -0.0173 -0.0404 -0.0178
 2890SOL    HW1 9368   3.110   2.400   1.432  0.6349 -0.5004 -2.0585
 2890SOL    HW2 9369   2.965   2.419   1.393  0.0880 -0.2337  0.0146
 2891SOL     OW 9370   4.335   1.605   5.025 -0.3325 -0.0748  0.1211
 2891SOL    HW1 9371   4.247   1.594   4.990 -0.3317  1.8587 -0.6131
 2891SOL    HW2 9372   4.327   1.674   5.090  0.8926  1.3981 -1.2015
 2892SOL     OW 9373   0.108   2.274   0.786  0.1726  0.1725 -0.3116
 2892SOL    HW1 9374   0.062   2.346   0.829  2.3468  1.4855 -0.0127
 2892SOL    HW2 9375   0.196   2.276   0.823  0.5931 -2.0520 -1.0206
 2893SOL     OW 9376   4.467   4.676   3.210  0.2834  0.2628 -0.1085
 2893SOL    HW1 9377   4.550   4.679   3.258 -0.9376  2.6483  2.0997
 2893SOL    HW2 9378   4.460   4.763   3.169 -1.2403  0.2306  0.0328
 2894SOL     OW 9379   5.152   4.419   3.993 -0.4309  0.2336  0.5951
 2894SOL    HW1 9380   5.121   4.507   4.016 -0.9637 -0.4788  2.7938
 2894SOL    HW2 9381   5.075   4.363   4.004  0.2560 -0.7196  0.5918
 2895SOL     OW 9382   4.164   1.539   1.872 -0.1651 -0.0376  0.5498
 2895SOL    HW1 9383   4.235   1.570   1.816 -0.2368 -0.3503  0.2852
 2895SOL    HW2 9384   4.109   1.616   1.884 -0.2354 -0.0049  0.0582
 2896SOL     OW 9385   1.325   0.512   1.342 -0.4318  0.1334 -0.6105
 2896SOL    HW1 9386   1.286   0.472   1.419  0.0101 -0.7241 -0.8222
 2896SOL    HW2 9387   1.301   0.454   1.270  0.8148 -0.1635 -0.8144
 2897SOL     OW 9388   1.752   1.005   0.196 -0.2891 -0.3379  0.0735
 2897SOL    HW1 9389   1.668   1.030   0.157 -0.9623  1.2381  2.3713
 2897SOL    HW2 9390   1.769   1.071   0.263  2.7209 -0.7280 -0.1604
 2898SOL     OW 9391   1.382   2.368   1.068 -0.5614  0.0011  0.0734
 2898SOL    HW1 9392   1.374   2.275   1.090  0.0915 -0.3762 -1.2016
 2898SOL    HW2 9393   1.303   2.408   1.105 -1.3229 -1.2219 -0.1721
 2899SOL     OW 9394   3.253   1.080   3.399  0.5476  0.4368  0.0292
 2899SOL    HW1 9395   3.302   1.010   3.443  0.7579  1.5282  1.5827
 2899SOL    HW2 9396   3.320   1.128   3.350  0.4808 -0.1039 -0.6135
 2900SOL     OW 9397   1.671   3.824   1.883  0.1112  0.1044 -0.2332
 2900SOL    HW1 9398   1.747   3.858   1.835  0.1934  0.0201 -0.1640
 2900SOL    HW2 9399   1.698   3.826   1.975 -0.7411  2.0975  0.0176
 2901SOL     OW 9400   5.366   2.870   4.496 -0.1186 -0.2648  0.4051
 2901SOL    HW1 9401   5.452   2.837   4.521  0.0833 -0.3593 -0.4029
 2901SOL    HW2 9402   5.356   2.951   4.548  0.5707 -0.1003  0.2961
 2902SOL     OW 9403   3.382   5.368   2.510  0.3934 -0.9602  0.4904
 2902SOL    HW1 9404   3.358   5.387   2.419 -1.8975  0.4227  1.2970
 2902SOL    HW2 9405   3.299   5.343   2.552  1.1787 -0.4422  2.4524
 2903SOL     OW 9406   4.977   0.312   3.518 -0.6615 -0.2263  0.1835
 2903SOL    HW1 9407   4.932   0.248   3.464 -1.2575 -0.5202  1.0068
 2903SOL    HW2 9408   5.052   0.265   3.555  0.0248  0.1092 -0.7509
 2904SOL     OW 9409   2.302   0.710   2.490 -0.5683 -0.6760  0.4265
 2904SOL    HW1 9410   2.324   0.679   2.578 -1.3172  2.0173  1.6714
 2904SOL    HW2 9411   2.372   0.772   2.468 -0.8344 -0.7016 -0.5336
 2905SOL     OW 9412   0.945   3.726   4.563  0.2643  0.1446  0.3395
 2905SOL    HW1 9413   0.903   3.740   4.648  1.2632 -0.4692  0.9483
 2905SOL    HW2 9414   0.922   3.636   4.539  2.4015 -0.7592  1.4046
 2906SOL     OW 9415   3.468   0.114   1.713  0.7583 -0.4175  0.0137
 2906SOL    HW1 9416   3.374   0.124   1.726  0.9352  0.0267  1.0621
 2906SOL    HW2 9417   3.488   0.027   1.748  0.4320 -1.4471 -2.1598
 2907SOL     OW 9418   1.614   3.802   0.196  0.3388  0.3711  0.2921
 2907SOL    HW1 9419   1.576   3.785   0.282 -1.0360  1.8081  0.0214
 2907SOL    HW2 9420   1.559   3.871   0.159 -0.4911 -1.6717 -2.6384
 2908SOL     OW 9421   1.448   3.103   2.126  0.6341  0.0495  0.3952
 2908SOL    HW1 9422   1.514   3.038   2.149 -0.8724 -1.3966  0.8612
 2908SOL    HW2 9423   1.416   3.136   2.210  1.5402  1.6124  0.1634
 2909SOL     OW 9424   1.940   5.353   4.882  0.2154 -0.2288  0.1706
 2909SOL    HW1 9425   1.880   5.295   4.834 -1.3678  0.8979  0.6978
 2909SOL    HW2 9426   1.947   5.313   4.968 -1.2853  0.5695  0.7015
 2910SOL     OW 9427   2.677   0.447   3.201 -0.2923 -0.0231 -0.1978
 2910SOL    HW1 9428   2.584   0.429   3.212 -0.4882 -0.1408 -1.7944
 2910SOL    HW2 9429   2.705   0.388   3.131  0.2902  1.9886 -1.7665
 2911SOL     OW 9430   4.732   0.750   3.243  0.0000 -0.1614  0.1142
 2911SOL    HW1 9431   4.678   0.671   3.237  1.0779 -0.8439 -1.6170
 2911SOL    HW2 9432   4.717   0.783   3.331 -1.3454 -1.6663  0.5047
 2912SOL     OW 9433   0.041   0.973   5.274 -0.5743 -0.3790  0.6644
 2912SOL    HW1 9434  -0.023   0.971   5.345 -1.6977  1.1974 -0.2546
 2912SOL    HW2 9435  -0.009   0.952   5.196  0.0427  0.7043 -0.0443
 2913SOL     OW 9436   3.399   1.321   4.536 -0.0503  0.3068 -0.3592
 2913SOL    HW1 9437   3.468   1.344   4.599 -0.5437 -1.0040  0.7267
 2913SOL    HW2 9438   3.435   1.345   4.451  0.7583  1.8952  0.3912
 2914SOL     OW 9439   3.353   4.950   4.103  0.4512 -0.1200 -0.0392
 2914SOL    HW1 9440   3.381   4.990   4.186 -0.6529  1.2444 -0.2811
 2914SOL    HW2 9441   3.274   4.901   4.126  2.3019 -3.1137  0.4442
 2915SOL     OW 9442   0.510   3.207   1.195  0.1009  0.0564  0.3922
 2915SOL    HW1 9443   0.515   3.114   1.175 -2.3416 -0.0720  0.0512
 2915SOL    HW2 9444   0.591   3.226   1.242  0.2705 -2.4136  1.2406
 2916SOL     OW 9445   0.929   4.603   1.702  0.4411  0.0399  0.3058
 2916SOL    HW1 9446   0.849   4.597   1.753  0.1721 -0.1326 -0.1340
 2916SOL    HW2 9447   0.925   4.689   1.660 -0.7545 -0.9528 -1.7420
 2917SOL     OW 9448   4.684   3.780   3.965  0.2709 -0.1419 -0.0678
 2917SOL    HW1 9449   4.772   3.775   4.002  0.1057  0.2226  0.3917
 2917SOL    HW2 9450   4.639   3.844   4.020 -1.1180 -2.2715  1.4364
 2918SOL     OW 9451   1.680   4.318   5.201  0.4333 -0.2991 -0.5581
 2918SOL    HW1 9452   1.644   4.230   5.205 -0.2780 -0.0011 -0.1350
 2918SOL    HW2 9453   1.603   4.375   5.194  0.9035  0.2510 -1.5501
 2919SOL     OW 9454   4.160   3.081   2.759  0.0460 -0.0927 -0.0784
 2919SOL    HW1 9455   4.205   3.132   2.826 -0.7836  2.9030 -1.6234
 2919SOL    HW2 9456   4.073   3.120   2.754 -0.6808 -1.7631 -1.3344
 2920SOL     OW 9457   3.242   3.909   5.013 -0.0709  0.3260 -0.7825
 2920SOL    HW1 9458   3.149   3.901   4.990 -0.5619 -1.8566  1.5135
 2920SOL    HW2 9459   3.260   3.833   5.069  2.9366  1.0646 -0.5598
 2921SOL     OW 9460   2.215   4.684   3.855 -0.3086  1.2533  0.0966
 2921SOL    HW1 9461   2.139   4.704   3.801  0.2167 -0.6787 -1.4258
 2921SOL    HW2 9462   2.289   4.727   3.811 -0.2588  1.9636  0.8251
 2922SOL     OW 9463   3.326   0.435   1.879  0.1107 -0.0446 -0.1428
 2922SOL    HW1 9464   3.406   0.419   1.930  1.3100  0.7078 -1.7010
 2922SOL    HW2 9465   3.317   0.530   1.879  0.6522  0.0354 -2.0520
 2923SOL     OW 9466   1.193   4.875   4.267  0.1808  0.3079  0.1231
 2923SOL    HW1 9467   1.127   4.917   4.322 -0.6984 -0.0975 -0.5992
 2923SOL    HW2 9468   1.178   4.781   4.280  0.9704  0.2122  0.3630
 2924SOL     OW 9469   4.725   0.247   0.973  0.0704 -0.7958  0.1801
 2924SOL    HW1 9470   4.674   0.322   0.942 -0.0635 -1.3009 -0.8733
 2924SOL    HW2 9471   4.755   0.272   1.060 -1.6973 -0.3626  0.6918
 2925SOL     OW 9472   5.262   1.464   2.635 -0.1261 -0.3078 -0.2614
 2925SOL    HW1 9473   5.244   1.409   2.559  0.1084 -0.9816  0.1668
 2925SOL    HW2 9474   5.283   1.550   2.598  0.5863 -0.7860 -0.9864
 2926SOL     OW 9475   3.294   1.882   1.211 -0.2052 -0.0217  0.0784
 2926SOL    HW1 9476   3.251   1.798   1.195  0.2444 -0.7961  2.4252
 2926SOL    HW2 9477   3.251   1.915   1.290  0.5963  1.2761 -0.0127
 2927SOL     OW 9478   3.384   1.874   1.675  0.1859 -0.5468 -0.5558
 2927SOL    HW1 9479   3.294   1.892   1.704  0.5404 -0.6770  0.6873
 2927SOL    HW2 9480   3.379   1.875   1.580 -0.6840  1.7187 -0.5437
 2928SOL     OW 9481   4.339   2.849   0.967  0.4665 -0.2140  0.0400
 2928SOL    HW1 9482   4.286   2.813   1.038  1.5789 -0.7959  0.5936
 2928SOL    HW2 9483   4.317   2.795   0.891  0.7857 -0.8888  0.4304
 2929SOL     OW 9484   1.261   1.026   3.111 -0.1104 -0.5388 -0.3144
 2929SOL    HW1 9485   1.186   1.071   3.072 -1.2561 -0.8014  1.5147
 2929SOL    HW2 9486   1.244   0.933   3.096  0.1551 -0.5788 -0.3899
 2930SOL     OW 9487   2.090   1.777   1.039 -0.0688 -0.2624  0.2965
 2930SOL    HW1 9488   2.141   1.706   0.998  0.7822  0.0216  0.8433
 2930SOL    HW2 9489   2.001   1.763   1.007  0.4277 -0.4984 -1.0571
 2931SOL     OW 9490   1.801   1.891   2.369 -0.2962  0.3320 -0.4623
 2931SOL    HW1 9491   1.767   1.890   2.458 -0.3754  0.1821 -0.4932
 2931SOL    HW2 9492   1.731   1.853   2.316  0.5520 -1.5955 -0.2877
 2932SOL     OW 9493   1.206   3.471   3.333 -0.1583  0.9479  0.1661
 2932SOL    HW1 9494   1.245   3.445   3.249  1.0298  0.2872  0.8893
 2932SOL    HW2 9495   1.145   3.541   3.310 -1.8294 -0.9482 -1.5788
 2933SOL     OW 9496   3.147   4.081   4.559  0.1211 -0.1648  0.0420
 2933SOL    HW1 9497   3.233   4.041   4.546 -0.3287 -0.6325 -1.7657
 2933SOL    HW2 9498   3.089   4.007   4.578 -0.7751 -0.5755 -3.6082
 2934SOL     OW 9499   5.110   4.341   1.122 -0.3423 -0.5732 -0.4598
 2934SOL    HW1 9500   5.069   4.410   1.175  0.6705 -0.9606  0.8854
 2934SOL    HW2 9501   5.037   4.288   1.091 -0.9509 -0.6293  0.9908
 2935SOL     OW 9502   5.315   1.690   1.262 -0.6286  0.0228  0.3177
 2935SOL    HW1 9503   5.257   1.633   1.311  0.3265 -0.7849  0.5500
 2935SOL    HW2 9504   5.337   1.639   1.183 -1.8404  1.1431 -0.7992
 2936SOL     OW 9505   0.968   3.295   2.151  0.1821 -0.0578  0.0048
 2936SOL    HW1 9506   0.980   3.370   2.092 -1.2073  0.0884 -0.1240
 2936SOL    HW2 9507   0.965   3.334   2.238 -0.3107  0.0173 -0.0435
 2937SOL     OW 9508   1.364   1.054   5.266 -0.2636 -0.3880  0.1349
 2937SOL    HW1 9509   1.290   1.098   5.225  1.7149  0.2873 -2.9680
 2937SOL    HW2 9510   1.325   0.975   5.305 -2.5596 -0.3750 -1.8703
 2938SOL     OW 9511   4.489   0.818   1.828 -0.4061  0.0625 -0.2004
 2938SOL    HW1 9512   4.487   0.888   1.894  0.3616  1.0230 -1.1596
 2938SOL    HW2 9513   4.567   0.767   1.849 -0.5302 -0.0396  0.0218
 2939SOL     OW 9514   1.022   1.706   1.423  0.5395 -0.0757 -0.4197
 2939SOL    HW1 9515   0.967   1.776   1.457  1.3099 -0.2392  1.2663
 2939SOL    HW2 9516   0.967   1.661   1.360 -0.6792  0.7782 -0.0006
 2940SOL     OW 9517   4.172   3.117   0.741 -0.1378  0.3864  0.3073
 2940SOL    HW1 9518   4.128   3.196   0.773 -0.4639  0.9997 -1.5291
 2940SOL    HW2 9519   4.107   3.075   0.685  0.7013 -0.1258 -0.2997
 2941SOL     OW 9520   4.627   5.236   2.458  0.5375 -0.5529  0.7333
 2941SOL    HW1 9521   4.648   5.269   2.545 -1.2590 -1.2278  1.4724
 2941SOL    HW2 9522   4.646   5.142   2.462  0.0795 -0.6599  0.5424
 2942SOL     OW 9523   1.071   4.182   1.245  0.3724 -0.0966 -0.0059
 2942SOL    HW1 9524   1.078   4.091   1.271  0.1734  0.1739  1.0488
 2942SOL    HW2 9525   0.978   4.194   1.223  0.0732  0.1857  1.2773
 2943SOL     OW 9526   0.232   1.064   1.344  0.4185  0.1346 -0.3386
 2943SOL    HW1 9527   0.273   1.005   1.281  0.3871  2.2060 -2.4439
 2943SOL    HW2 9528   0.143   1.078   1.311  0.9179  2.5588 -0.8710
 2944SOL     OW 9529   4.756   1.666   0.252 -0.6414  0.0327 -0.2348
 2944SOL    HW1 9530   4.790   1.665   0.341 -0.5599 -1.0666 -0.2639
 2944SOL    HW2 9531   4.673   1.712   0.258 -1.5420 -1.6361  0.7693
 2945SOL     OW 9532   1.254   2.628   3.323  0.4880  0.6336  0.1864
 2945SOL    HW1 9533   1.312   2.704   3.336  0.6523  0.6466 -0.5930
 2945SOL    HW2 9534   1.263   2.607   3.230 -1.0306  0.8504 -0.0288
 2946SOL     OW 9535   1.765   4.935   1.540 -0.1810  0.2438  0.9003
 2946SOL    HW1 9536   1.734   5.017   1.502  2.0712  0.3728 -0.8563
 2946SOL    HW2 9537   1.693   4.873   1.525 -0.0764  0.7162 -2.2530
 2947SOL     OW 9538   0.407   3.408   0.359 -0.0333  0.3101  0.1307
 2947SOL    HW1 9539   0.375   3.497   0.352 -1.5371 -0.2986 -1.3230
 2947SOL    HW2 9540   0.331   3.358   0.390  0.5902 -0.5796  0.2680
 2948SOL     OW 9541   0.636   2.391   0.976 -0.2257  0.0274 -0.2259
 2948SOL    HW1 9542   0.615   2.475   1.017 -0.2957  0.2645 -0.7310
 2948SOL    HW2 9543   0.709   2.411   0.917 -2.3640  0.5485 -2.9476
 2949SOL     OW 9544   2.956   3.626   4.464 -0.2071 -0.7162  0.6815
 2949SOL    HW1 9545   2.990   3.662   4.382 -0.7449 -2.8794 -0.5644
 2949SOL    HW2 9546   2.951   3.701   4.523 -1.3288  1.2717 -1.7539
 2950SOL     OW 9547   4.289   0.054   3.889 -1.1363  0.1533 -0.1215
 2950SOL    HW1 9548   4.351   0.053   3.962 -0.6990  0.3780 -0.4873
 2950SOL    HW2 9549   4.289   0.145   3.859 -2.1356  0.3021  0.2857
 2951SOL     OW 9550   4.998   3.512   0.218  0.0832  0.1395 -0.3132
 2951SOL    HW1 9551   4.972   3.571   0.289  0.1498 -0.1257 -0.0651
 2951SOL    HW2 9552   4.917   3.493   0.172 -0.1861 -0.7486  0.5048
 2952SOL     OW 9553   2.831   4.320   4.494  0.1544 -0.0198 -0.3545
 2952SOL    HW1 9554   2.920   4.325   4.526  0.5764 -1.5348 -1.1782
 2952SOL    HW2 9555   2.813   4.226   4.485 -1.0873  0.2675 -1.3214
 2953SOL     OW 9556   2.926   0.324   0.888 -0.2196  0.2709  0.0207
 2953SOL    HW1 9557   2.836   0.321   0.920 -1.0473  1.2909 -2.0096
 2953SOL    HW2 9558   2.957   0.411   0.914 -1.1614  1.4178 -2.4033
 2954SOL     OW 9559   4.612   3.068   5.301  0.2045 -0.4733  0.2122
 2954SOL    HW1 9560   4.645   3.008   5.368  0.8490 -0.1549  0.1839
 2954SOL    HW2 9561   4.629   3.024   5.218  1.9528  0.3254  0.1061
 2955SOL     OW 9562   3.666   3.487   4.586  0.2320 -0.4978  0.0356
 2955SOL    HW1 9563   3.663   3.581   4.603 -0.1775 -0.9431  2.8885
 2955SOL    HW2 9564   3.589   3.471   4.532  0.7441  0.8795 -1.1721
 2956SOL     OW 9565   4.475   5.127   4.698  0.3616 -0.0932  0.3670
 2956SOL    HW1 9566   4.498   5.176   4.777  0.3078 -0.3621  0.5496
 2956SOL    HW2 9567   4.559   5.093   4.666  0.3542 -0.1660  0.4270
 2957SOL     OW 9568   4.088   0.436   3.522 -0.0356  0.4333  0.0765
 2957SOL    HW1 9569   4.029   0.416   3.596 -0.1301  1.7927  0.4072
 2957SOL    HW2 9570   4.033   0.487   3.462 -0.0961 -1.0775 -1.1975
 2958SOL     OW 9571   4.651   4.864   3.552 -0.1567 -0.2188  0.1718
 2958SOL    HW1 9572   4.705   4.791   3.523 -0.5985 -0.7667  0.7152
 2958SOL    HW2 9573   4.636   4.916   3.472  1.7567  0.3501  0.1408
 2959SOL     OW 9574   3.706   2.602   3.174 -0.5701  0.4019  0.5849
 2959SOL    HW1 9575   3.651   2.532   3.209 -0.1846 -0.5861 -0.7123
 2959SOL    HW2 9576   3.698   2.594   3.079  0.5856  1.2322  0.3933
 2960SOL     OW 9577   3.919   0.635   2.225  1.2994  0.5443 -0.3487
 2960SOL    HW1 9578   3.870   0.599   2.298  0.2197 -0.9531 -1.7202
 2960SOL    HW2 9579   3.866   0.707   2.193  0.7391 -0.0822 -0.8662
 2961SOL     OW 9580   3.136   1.492   1.561 -0.0833 -0.0658  0.1421
 2961SOL    HW1 9581   3.042   1.495   1.543 -0.0419  0.3443 -0.0138
 2961SOL    HW2 9582   3.177   1.492   1.475  0.0722  0.3401  0.2150
 2962SOL     OW 9583   3.455   3.175   3.222 -0.4244 -0.6507 -0.0686
 2962SOL    HW1 9584   3.483   3.215   3.304  0.8128  1.6410 -1.4674
 2962SOL    HW2 9585   3.366   3.207   3.208 -0.6035 -0.9724  0.3214
 2963SOL     OW 9586   3.447   1.212   1.982 -0.0757 -0.1899 -0.1312
 2963SOL    HW1 9587   3.385   1.234   2.052  0.3709  0.0475  0.1892
 2963SOL    HW2 9588   3.425   1.271   1.910  0.9502  1.1526  0.6276
 2964SOL     OW 9589   1.920   2.987   2.786  0.0733  0.1040 -0.2005
 2964SOL    HW1 9590   1.834   2.995   2.745  0.2869  2.3076 -0.3676
 2964SOL    HW2 9591   1.911   3.034   2.869  0.4685 -1.7694  0.9458
 2965SOL     OW 9592   4.217   4.856   4.567 -0.6381 -0.8118  1.1385
 2965SOL    HW1 9593   4.294   4.863   4.510 -0.6950 -0.8885  1.0536
 2965SOL    HW2 9594   4.233   4.922   4.635 -0.5807 -0.7054  1.0235
 2966SOL     OW 9595   1.261   4.276   2.623 -0.4666 -0.1584 -0.1277
 2966SOL    HW1 9596   1.303   4.193   2.645 -1.2067 -0.5020  0.0481
 2966SOL    HW2 9597   1.218   4.259   2.538  0.5442  0.4829 -0.7815
 2967SOL     OW 9598   3.582   1.444   4.698  0.2346 -0.4685  0.1568
 2967SOL    HW1 9599   3.555   1.421   4.787 -0.4687 -0.9938 -0.1776
 2967SOL    HW2 9600   3.644   1.516   4.709  0.2497 -0.6101  1.0753
 2968SOL     OW 9601   3.855   1.443   4.128  0.5207  0.2535 -0.1110
 2968SOL    HW1 9602   3.775   1.495   4.120 -0.4037 -0.8790  1.4207
 2968SOL    HW2 9603   3.897   1.476   4.208  0.8786 -0.1036 -0.1501
 2969SOL     OW 9604   1.010   3.256   4.518  0.3733 -0.2364 -0.1970
 2969SOL    HW1 9605   1.057   3.337   4.500  0.5701 -0.2092  0.4352
 2969SOL    HW2 9606   1.078   3.194   4.546 -0.0151 -0.0431  1.2436
 2970SOL     OW 9607   1.563   0.867   1.212  0.4321  0.4153  0.8608
 2970SOL    HW1 9608   1.474   0.891   1.237  0.2504  0.8112 -0.1077
 2970SOL    HW2 9609   1.596   0.943   1.164  1.7936  0.8222  2.3481
 2971SOL     OW 9610   1.585   5.322   0.087 -0.3218 -0.8026  0.0088
 2971SOL    HW1 9611   1.645   5.258   0.125  0.7388 -0.1173 -0.4726
 2971SOL    HW2 9612   1.554   5.373   0.161  1.4300  0.2719  0.0396
 2972SOL     OW 9613   2.748   1.771   0.401  0.0806  0.3238 -0.1541
 2972SOL    HW1 9614   2.813   1.739   0.339 -0.3361 -0.0469 -0.4044
 2972SOL    HW2 9615   2.764   1.720   0.481 -0.0670  0.0478 -0.2986
 2973SOL     OW 9616   0.446   2.976   3.987  0.1775 -0.5960  0.4906
 2973SOL    HW1 9617   0.467   3.061   3.948 -0.5287 -1.5400 -2.1602
 2973SOL    HW2 9618   0.491   2.912   3.933 -1.7691 -2.0867  0.4810
 2974SOL     OW 9619   3.121   0.323   1.501 -0.1584  0.8728 -0.1028
 2974SOL    HW1 9620   3.089   0.360   1.419 -0.4299 -3.8294 -2.4825
 2974SOL    HW2 9621   3.215   0.310   1.486 -0.1180  0.4319  0.5117
 2975SOL     OW 9622   4.043   4.999   2.479  0.4611 -0.5221 -0.1400
 2975SOL    HW1 9623   3.983   4.924   2.473  1.5845 -1.4910  0.3448
 2975SOL    HW2 9624   4.109   4.983   2.412  0.1294  0.6047 -0.7642
 2976SOL     OW 9625   0.276   2.039   0.644 -0.5271 -0.2494 -0.5820
 2976SOL    HW1 9626   0.311   1.955   0.613 -0.3022 -0.2965 -0.2061
 2976SOL    HW2 9627   0.288   2.099   0.571 -1.2516 -0.6983 -1.0795
 2977SOL     OW 9628   4.124   2.915   3.405  0.3273  0.6241  0.3808
 2977SOL    HW1 9629   4.086   2.915   3.493 -1.1097 -1.4294 -0.1763
 2977SOL    HW2 9630   4.188   2.843   3.406  1.0791  1.2693  0.0245
 2978SOL     OW 9631   0.813   4.245   5.160 -0.4267  0.0548  0.1323
 2978SOL    HW1 9632   0.734   4.202   5.127 -0.3019 -1.0659  1.2535
 2978SOL    HW2 9633   0.874   4.243   5.085 -1.6296  1.4956 -0.9482
 2979SOL     OW 9634   0.586   1.413   2.064 -0.5734 -0.0218  0.6911
 2979SOL    HW1 9635   0.599   1.505   2.041 -0.3019 -0.0611  0.6805
 2979SOL    HW2 9636   0.556   1.415   2.155 -0.6033  0.0798  0.6794
 2980SOL     OW 9637   4.237   1.447   1.203  0.1767  0.3737  0.1028
 2980SOL    HW1 9638   4.163   1.386   1.196 -0.3771  1.0072  0.3734
 2980SOL    HW2 9639   4.294   1.409   1.270 -1.1038  1.1016  1.6689
 2981SOL     OW 9640   5.129   4.414   3.384 -0.3309  0.0413 -0.1782
 2981SOL    HW1 9641   5.103   4.414   3.476  0.5443 -0.9437  0.0889
 2981SOL    HW2 9642   5.122   4.506   3.357 -0.5347  0.3475  0.8885
 2982SOL     OW 9643   1.477   2.346   1.486  0.0895  0.5028  0.6184
 2982SOL    HW1 9644   1.542   2.303   1.430 -0.7322  2.0808 -1.6674
 2982SOL    HW2 9645   1.401   2.288   1.485 -0.6258  1.3905 -1.5776
 2983SOL     OW 9646   1.794   2.682   2.356 -0.4447 -0.4797 -0.2561
 2983SOL    HW1 9647   1.772   2.692   2.449  0.2250  1.8517 -0.2875
 2983SOL    HW2 9648   1.729   2.620   2.323 -1.0612 -0.9189  1.6271
 2984SOL     OW 9649   2.201   5.112   4.683  0.6002  0.1577  0.3821
 2984SOL    HW1 9650   2.263   5.115   4.756  1.9473  0.5952 -0.7436
 2984SOL    HW2 9651   2.138   5.044   4.708  2.3245 -1.3164  0.9758
 2985SOL     OW 9652   4.243   1.907   4.943  0.6544 -0.2497  0.4316
 2985SOL    HW1 9653   4.291   1.904   4.860  1.2579  0.5710  0.7343
 2985SOL    HW2 9654   4.166   1.852   4.929  1.5607 -1.4277 -0.1522
 2986SOL     OW 9655   2.846   4.598   4.588  0.7377 -0.3159  0.2509
 2986SOL    HW1 9656   2.836   4.507   4.558  0.6832 -0.2016 -0.0828
 2986SOL    HW2 9657   2.890   4.642   4.515  0.5592 -0.0221  0.3199
 2987SOL     OW 9658   4.597   3.611   4.922  0.1059 -0.1480 -0.6367
 2987SOL    HW1 9659   4.573   3.703   4.915 -2.8304 -0.8038 -0.3413
 2987SOL    HW2 9660   4.649   3.605   5.002 -3.0729  0.7283  1.6834
 2988SOL     OW 9661   1.045   4.654   4.352  0.2943 -0.2003  0.3034
 2988SOL    HW1 9662   0.962   4.626   4.391  1.3453 -1.7978  1.5501
 2988SOL    HW2 9663   1.062   4.589   4.284  1.9502 -1.7956  2.1078
 2989SOL     OW 9664   1.995   2.663   1.260 -0.2003 -0.0722 -0.0628
 2989SOL    HW1 9665   1.942   2.740   1.240 -0.9645 -0.6947 -0.4695
 2989SOL    HW2 9666   1.953   2.624   1.336  0.8451  0.5183  0.8554
 2990SOL     OW 9667   0.038   4.037   3.387 -0.2448 -0.6132  0.4156
 2990SOL    HW1 9668   0.020   4.058   3.295 -2.0103  1.1570  1.1155
 2990SOL    HW2 9669  -0.029   3.973   3.410  1.6926 -2.9956 -0.1268
 2991SOL     OW 9670   3.927   1.216   0.784 -0.1657 -0.2845 -0.5596
 2991SOL    HW1 9671   3.946   1.304   0.752 -0.8185  0.0275 -0.1099
 2991SOL    HW2 9672   3.912   1.165   0.705  2.1345 -0.4789 -0.9355
 2992SOL     OW 9673   0.157   5.332   4.059  0.4073 -0.5039 -0.5485
 2992SOL    HW1 9674   0.220   5.398   4.088 -0.7761  0.2860  0.3480
 2992SOL    HW2 9675   0.204   5.280   3.994  1.2643  1.5184 -1.6300
 2993SOL     OW 9676   5.210   4.217   2.376  0.2256 -0.7247  0.5769
 2993SOL    HW1 9677   5.203   4.127   2.344 -0.2224 -0.4183 -0.2533
 2993SOL    HW2 9678   5.127   4.258   2.349 -0.6147 -0.6805  3.0058
 2994SOL     OW 9679   1.008   1.179   1.904  0.2773 -0.2938  0.3344
 2994SOL    HW1 9680   1.036   1.249   1.964 -4.0148  0.6696  1.5177
 2994SOL    HW2 9681   0.997   1.223   1.820  0.9142 -0.4027  0.1835
 2995SOL     OW 9682   4.136   1.390   5.361  0.1137  0.2722 -0.5257
 2995SOL    HW1 9683   4.057   1.357   5.404  0.3175  0.3531 -0.0876
 2995SOL    HW2 9684   4.169   1.457   5.421  2.2592 -1.8887  0.8726
 2996SOL     OW 9685   1.890   3.392   4.639 -0.0657  0.0186  0.0774
 2996SOL    HW1 9686   1.865   3.478   4.606  0.6980  0.8165  1.4993
 2996SOL    HW2 9687   1.976   3.376   4.602  0.7027  0.8235  1.4553
 2997SOL     OW 9688   4.634   2.161   3.123 -0.5665  0.2344 -0.1198
 2997SOL    HW1 9689   4.670   2.076   3.097  0.4688  0.3749  0.7598
 2997SOL    HW2 9690   4.610   2.203   3.041  0.2109 -0.3550 -0.6649
 2998SOL     OW 9691   5.058   5.378   1.182  0.5070 -0.1024  0.1947
 2998SOL    HW1 9692   5.137   5.395   1.233 -0.1513  1.2795  0.7828
 2998SOL    HW2 9693   4.995   5.345   1.246 -0.8372  3.1338  0.6886
 2999SOL     OW 9694   1.496   2.833   2.548 -0.4017  0.4499  0.0135
 2999SOL    HW1 9695   1.578   2.782   2.549 -0.5747  0.1577  1.3798
 2999SOL    HW2 9696   1.480   2.851   2.455  0.9170  0.0350 -0.3192
 3000SOL     OW 9697   0.327   2.695   3.653 -0.6573  0.3830  0.1894
 3000SOL    HW1 9698   0.291   2.609   3.635  0.5210 -0.0777 -0.0330
 3000SOL    HW2 9699   0.352   2.692   3.746 -1.4660  0.8174  0.4355
 3001SOL     OW 9700   0.235   3.370   2.463 -0.5927  0.0121 -0.2489
 3001SOL    HW1 9701   0.212   3.414   2.545 -0.5973  0.2758 -0.3917
 3001SOL    HW2 9702   0.178   3.411   2.397  0.1356  0.5252 -0.5690
 3002SOL     OW 9703   3.256   0.074   0.477 -0.0644 -0.3096  1.0023
 3002SOL    HW1 9704   3.230   0.031   0.558  0.6507  0.5772  1.7276
 3002SOL    HW2 9705   3.183   0.060   0.418 -0.3400 -1.5094  1.5874
 3003SOL     OW 9706   2.388   3.363   0.118 -0.2157 -0.0762 -0.4485
 3003SOL    HW1 9707   2.451   3.345   0.188 -0.7475  2.2229  0.6853
 3003SOL    HW2 9708   2.304   3.334   0.153 -0.3711  0.3750 -0.4539
 3004SOL     OW 9709   1.209   1.991   3.318  0.1378  0.3052 -0.2859
 3004SOL    HW1 9710   1.301   2.009   3.338 -0.4864  2.6184  0.8365
 3004SOL    HW2 9711   1.161   2.063   3.358 -2.6159 -2.8560  2.8087
 3005SOL     OW 9712   4.660   2.738   0.686  0.5238  0.0473  0.0779
 3005SOL    HW1 9713   4.665   2.747   0.782  1.1300 -0.6850  0.1214
 3005SOL    HW2 9714   4.571   2.706   0.670  0.8673 -1.1619  0.5161
 3006SOL     OW 9715   0.215   4.598   4.469  0.0327  0.2638  0.2786
 3006SOL    HW1 9716   0.134   4.647   4.484  0.2877  1.4326 -1.6904
 3006SOL    HW2 9717   0.187   4.507   4.458 -1.0802  0.6951 -0.6852
 3007SOL     OW 9718   4.889   1.986   3.472  0.2370  0.0826  0.3716
 3007SOL    HW1 9719   4.825   1.922   3.503  0.2209  0.4033  1.0058
 3007SOL    HW2 9720   4.974   1.947   3.493  0.2307  0.1578  0.5389
 3008SOL     OW 9721   3.116   2.877   1.359  0.3670  0.5828 -0.1053
 3008SOL    HW1 9722   3.069   2.807   1.313 -0.6749 -0.1862  2.0167
 3008SOL    HW2 9723   3.165   2.832   1.428  2.3587  1.6425 -0.7393
 3009SOL     OW 9724   4.412   4.259   0.061 -0.0681  0.3147 -0.1630
 3009SOL    HW1 9725   4.438   4.184   0.115 -0.3995 -0.1334 -0.6128
 3009SOL    HW2 9726   4.403   4.223  -0.027 -0.7223  0.7726 -0.2918
 3010SOL     OW 9727   4.697   4.784   4.342  0.5580 -0.1195  0.1990
 3010SOL    HW1 9728   4.750   4.731   4.401 -0.4213  0.0661  1.2958
 3010SOL    HW2 9729   4.717   4.750   4.255  2.2951 -0.1807  0.5800
 3011SOL     OW 9730   3.993   3.982   4.345  0.1476  0.1492 -0.0238
 3011SOL    HW1 9731   3.934   3.994   4.270  0.0439 -0.7715 -0.0969
 3011SOL    HW2 9732   4.033   4.068   4.357 -1.4995  0.9082  0.2787
 3012SOL     OW 9733   0.237   2.013   2.915  0.1137  0.6502 -0.4888
 3012SOL    HW1 9734   0.257   2.069   2.991  1.3516  1.2088 -1.1991
 3012SOL    HW2 9735   0.148   1.981   2.932  1.0331 -0.8419  2.1678
 3013SOL     OW 9736   3.447   2.807   5.232  0.5147  0.2475  0.9469
 3013SOL    HW1 9737   3.386   2.771   5.297  0.0615  0.2250  0.5133
 3013SOL    HW2 9738   3.436   2.902   5.240  2.5141  0.3959  2.8703
 3014SOL     OW 9739   2.529   3.253   2.422 -0.5020  0.0444  0.0661
 3014SOL    HW1 9740   2.588   3.180   2.442 -0.2340  0.0598 -0.6502
 3014SOL    HW2 9741   2.449   3.232   2.470  0.2162  0.2429  1.4113
 3015SOL     OW 9742   2.072   4.915   3.775 -0.2790  0.2119  0.3687
 3015SOL    HW1 9743   2.006   4.850   3.800  1.0981 -1.0478  0.9572
 3015SOL    HW2 9744   2.107   4.947   3.859  0.2070  0.4660  0.0756
 3016SOL     OW 9745   0.901   0.279   1.807  0.2199 -0.1089 -0.6363
 3016SOL    HW1 9746   0.890   0.223   1.883  0.7295 -1.3015 -1.4014
 3016SOL    HW2 9747   0.991   0.262   1.778  0.7837  1.9578 -0.2515
 3017SOL     OW 9748   3.467   1.723   0.194  0.5885  0.3392 -0.5203
 3017SOL    HW1 9749   3.434   1.778   0.123 -0.4846  0.6935  0.2225
 3017SOL    HW2 9750   3.442   1.770   0.274  0.6956 -0.6454  0.1040
 3018SOL     OW 9751   4.982   4.100   5.333  0.3132 -0.9266  0.0020
 3018SOL    HW1 9752   4.903   4.151   5.350 -0.1415 -1.0782 -1.4890
 3018SOL    HW2 9753   5.042   4.126   5.402  0.5573  2.5947 -1.3077
 3019SOL     OW 9754   0.306   3.646   1.815 -0.5818 -0.0925  0.4097
 3019SOL    HW1 9755   0.398   3.662   1.834 -0.2911 -0.7689 -0.3422
 3019SOL    HW2 9756   0.273   3.730   1.783 -0.0075 -0.0530 -0.1065
 3020SOL     OW 9757   1.544   2.893   4.233 -0.5379  0.3574  0.2202
 3020SOL    HW1 9758   1.608   2.962   4.216 -0.5652  0.3430  0.0560
 3020SOL    HW2 9759   1.518   2.906   4.324  1.9324 -1.4206  1.3204
 3021SOL     OW 9760   2.019   1.624   5.134 -0.7161  0.2424 -0.0455
 3021SOL    HW1 9761   2.011   1.691   5.202 -1.9421  0.5654 -0.4704
 3021SOL    HW2 9762   2.102   1.643   5.091  0.6853 -0.7215  2.1049
 3022SOL     OW 9763   1.615   3.240   1.968  0.3412  0.0279 -0.0494
 3022SOL    HW1 9764   1.703   3.212   1.991  0.2234 -0.3244 -0.0138
 3022SOL    HW2 9765   1.557   3.185   2.022  0.1037  0.2979 -0.0278
 3023SOL     OW 9766   0.023   3.168   2.507 -0.3677 -0.1236  0.1106
 3023SOL    HW1 9767   0.037   3.102   2.440 -2.1198  0.4461 -0.8524
 3023SOL    HW2 9768   0.081   3.240   2.482 -1.2498  0.2229 -1.0268
 3024SOL     OW 9769   1.659   1.487   1.516 -0.0280 -0.4704 -0.1140
 3024SOL    HW1 9770   1.723   1.558   1.515  0.7246 -1.1084 -1.5966
 3024SOL    HW2 9771   1.711   1.409   1.496 -0.8839 -1.3912  1.1325
 3025SOL     OW 9772   2.024   4.644   2.537 -0.9160  0.0049 -0.1797
 3025SOL    HW1 9773   2.098   4.595   2.500  1.7112  3.0123  0.6684
 3025SOL    HW2 9774   2.027   4.625   2.631 -0.1404  1.3514  0.0922
 3026SOL     OW 9775   1.571   3.698   2.723 -0.6595  0.2120 -0.0164
 3026SOL    HW1 9776   1.565   3.786   2.762 -0.9531  0.2362 -0.1134
 3026SOL    HW2 9777   1.487   3.686   2.678 -1.7033 -1.1168  2.0879
 3027SOL     OW 9778   1.558   3.110   2.916 -0.1169 -1.2396  0.7342
 3027SOL    HW1 9779   1.497   3.115   2.990  0.0290 -0.5122  0.8075
 3027SOL    HW2 9780   1.599   3.196   2.912 -0.4152 -1.1389 -0.4476
 3028SOL     OW 9781   0.732   3.376   3.673  0.0640  0.1633  0.1473
 3028SOL    HW1 9782   0.762   3.435   3.742 -0.1583  0.9004 -0.3707
 3028SOL    HW2 9783   0.712   3.434   3.599  0.7868 -0.6491 -0.7164
 3029SOL     OW 9784   3.857   4.874   1.290  0.4739 -0.2905  0.0220
 3029SOL    HW1 9785   3.922   4.812   1.258 -0.1433 -0.5332 -0.7926
 3029SOL    HW2 9786   3.874   4.955   1.243  0.8416 -0.0403  0.5774
 3030SOL     OW 9787   3.977   0.689   4.673  0.6724  0.8967 -0.4617
 3030SOL    HW1 9788   3.983   0.607   4.623 -0.1929  1.4177 -1.4650
 3030SOL    HW2 9789   4.012   0.756   4.613 -0.7887  1.6041 -0.5660
 3031SOL     OW 9790   1.057   2.597   3.530 -0.1434  0.2595  0.0324
 3031SOL    HW1 9791   1.139   2.583   3.483 -0.7523  1.1301 -1.3448
 3031SOL    HW2 9792   1.004   2.650   3.471 -1.4290  0.3352  1.2013
 3032SOL     OW 9793   2.321   4.453   5.094  0.3348 -0.3037 -0.3084
 3032SOL    HW1 9794   2.282   4.366   5.086  1.5819 -0.9585  0.3276
 3032SOL    HW2 9795   2.396   4.451   5.036 -0.4880  0.9121 -1.4631
 3033SOL     OW 9796   4.058   3.945   0.722  0.3004 -0.9938  0.1603
 3033SOL    HW1 9797   3.978   3.933   0.671  0.1244  2.1672 -0.5005
 3033SOL    HW2 9798   4.129   3.930   0.659  0.1178  0.2194 -0.3616
 3034SOL     OW 9799   1.595   2.082   2.182  0.2769  0.4685 -0.4977
 3034SOL    HW1 9800   1.513   2.125   2.158  0.4125  1.1601  0.2334
 3034SOL    HW2 9801   1.642   2.147   2.234  0.3461 -0.6771  0.9342
 3035SOL     OW 9802   0.695   1.480   2.760 -0.4083  0.0149 -0.1950
 3035SOL    HW1 9803   0.755   1.486   2.685  1.3236 -2.1247  0.9209
 3035SOL    HW2 9804   0.638   1.406   2.739 -0.0025 -0.5083  0.5375
 3036SOL     OW 9805   0.351   2.863   3.293  0.0775  0.1559 -0.1544
 3036SOL    HW1 9806   0.390   2.935   3.244  0.5471  0.2383  0.3213
 3036SOL    HW2 9807   0.288   2.824   3.233 -0.0297  0.8296 -0.4918
 3037SOL     OW 9808   3.011   3.697   3.007  0.0394  0.6648 -0.7847
 3037SOL    HW1 9809   3.069   3.620   3.010  0.8105  1.2477  1.9538
 3037SOL    HW2 9810   2.925   3.662   3.031 -0.5715  0.0352 -3.5464
 3038SOL     OW 9811   1.588   5.158   1.566  0.1924 -0.2297 -0.0506
 3038SOL    HW1 9812   1.677   5.193   1.557  0.5233 -1.2578 -0.9864
 3038SOL    HW2 9813   1.554   5.156   1.477  0.4952 -2.9568 -0.1966
 3039SOL     OW 9814   3.376   5.089   3.685 -0.4940 -0.5762 -0.0652
 3039SOL    HW1 9815   3.303   5.107   3.625  1.7467 -1.1479 -3.2359
 3039SOL    HW2 9816   3.424   5.171   3.690 -0.6469 -0.5362  1.0363
 3040SOL     OW 9817   3.007   3.362   3.832 -0.0535  0.1796  0.3171
 3040SOL    HW1 9818   2.930   3.306   3.842  0.8985 -0.9979  1.3391
 3040SOL    HW2 9819   2.971   3.448   3.810 -1.5307 -0.8996 -1.8150
 3041SOL     OW 9820   0.948   4.390   3.934  0.0358 -0.0846 -0.6427
 3041SOL    HW1 9821   0.882   4.331   3.897  1.6923 -1.2362 -1.9178
 3041SOL    HW2 9822   0.957   4.459   3.869  0.0054  0.1264 -0.4215
 3042SOL     OW 9823   5.096   0.043   2.727  0.0364  0.5406 -0.4653
 3042SOL    HW1 9824   5.094   0.074   2.636  0.5782 -0.9275 -1.0051
 3042SOL    HW2 9825   5.147   0.110   2.774 -0.2622  1.3212 -1.2194
 3043SOL     OW 9826   0.572   2.077   3.073 -0.7718 -0.2623  0.1609
 3043SOL    HW1 9827   0.558   2.024   3.152 -2.5647 -1.2775 -0.7736
 3043SOL    HW2 9828   0.495   2.133   3.068 -0.0160  0.7906 -0.1741
 3044SOL     OW 9829   4.307   3.691   3.438  0.5277  0.3508  0.1421
 3044SOL    HW1 9830   4.326   3.704   3.345  0.0242 -0.8031 -0.1318
 3044SOL    HW2 9831   4.257   3.770   3.463 -0.1270  0.2503 -0.7972
 3045SOL     OW 9832   1.007   2.345   3.618 -0.1511 -0.5898 -0.4109
 3045SOL    HW1 9833   1.019   2.440   3.617  2.5713 -0.6750  3.4040
 3045SOL    HW2 9834   1.092   2.310   3.589  0.0058 -1.7248  1.2645
 3046SOL     OW 9835   4.794   1.308   4.883  0.6784 -0.5267 -0.5781
 3046SOL    HW1 9836   4.839   1.334   4.963  0.3269 -0.2414 -0.4673
 3046SOL    HW2 9837   4.863   1.275   4.826  0.9025 -0.9425 -0.0760
 3047SOL     OW 9838   3.962   5.115   0.777  0.1327  0.6612  0.2052
 3047SOL    HW1 9839   4.006   5.200   0.780 -0.8714  1.2016  0.1378
 3047SOL    HW2 9840   3.873   5.135   0.746 -0.2372 -0.3613  0.5652
 3048SOL     OW 9841   4.033   1.979   2.528 -0.0949 -0.0482  0.0626
 3048SOL    HW1 9842   3.988   2.011   2.605  1.8220 -0.9320  1.6360
 3048SOL    HW2 9843   4.008   1.887   2.520  0.6707 -0.2954  0.4002
 3049SOL     OW 9844   1.107   4.944   1.369  0.0514 -0.0492 -0.5869
 3049SOL    HW1 9845   1.067   4.880   1.310  0.3769 -0.6877 -0.1263
 3049SOL    HW2 9846   1.033   4.992   1.406 -0.3773 -1.6184  0.7168
 3050SOL     OW 9847   4.429   0.818   1.366  0.4630 -0.3938  0.1820
 3050SOL    HW1 9848   4.434   0.765   1.446 -0.4951  1.0353  1.2412
 3050SOL    HW2 9849   4.335   0.834   1.353  0.7179  1.0461 -0.0798
 3051SOL     OW 9850   4.130   4.273   2.624 -0.0296 -0.3279 -0.4019
 3051SOL    HW1 9851   4.038   4.262   2.602  0.0307 -2.2461  0.0576
 3051SOL    HW2 9852   4.129   4.321   2.707 -0.8147 -2.7342  1.0795
 3052SOL     OW 9853   1.978   1.200   0.841 -0.2742  0.4510  0.2738
 3052SOL    HW1 9854   1.983   1.214   0.935  1.1871  1.0015  0.1362
 3052SOL    HW2 9855   2.065   1.223   0.808 -0.3583 -0.9541 -1.0571
 3053SOL     OW 9856   5.200   2.238   0.320 -0.7367 -0.0408  0.0360
 3053SOL    HW1 9857   5.244   2.322   0.333  0.6307 -1.0014  2.2117
 3053SOL    HW2 9858   5.223   2.213   0.230  0.6899  0.8898  0.1028
 3054SOL     OW 9859   3.898   2.552   1.540  0.2528 -0.5721  0.3383
 3054SOL    HW1 9860   3.830   2.555   1.472 -0.8268  0.1640  1.4086
 3054SOL    HW2 9861   3.852   2.523   1.619  0.9088  1.0800  1.3813
 3055SOL     OW 9862   1.342   4.147   5.381 -0.3114  0.2188 -0.1545
 3055SOL    HW1 9863   1.395   4.131   5.303 -1.5418 -3.2848 -0.4595
 3055SOL    HW2 9864   1.372   4.082   5.445 -1.7364  0.6069  0.9729
 3056SOL     OW 9865   2.748   2.026   0.439 -0.0268  0.3459 -0.1634
 3056SOL    HW1 9866   2.663   2.031   0.482 -0.9639 -1.0961 -1.7576
 3056SOL    HW2 9867   2.751   1.939   0.401  1.5045  0.9356 -1.4971
 3057SOL     OW 9868   2.093   1.798   3.821  0.0661  0.4277 -0.3254
 3057SOL    HW1 9869   2.017   1.854   3.836 -1.5478 -1.6743 -0.2740
 3057SOL    HW2 9870   2.141   1.800   3.903 -1.2041 -0.0321  0.4541
 3058SOL     OW 9871   3.119   3.233   5.337 -0.0827  0.6828 -0.1257
 3058SOL    HW1 9872   3.079   3.292   5.401  0.3436  0.8521 -0.0150
 3058SOL    HW2 9873   3.044   3.190   5.295 -0.4890  2.7907 -1.6695
 3059SOL     OW 9874   1.222   5.013   0.417  0.4059  0.4611 -0.2455
 3059SOL    HW1 9875   1.306   4.968   0.407  0.8465  1.4191 -1.0025
 3059SOL    HW2 9876   1.242   5.089   0.473 -0.0300  0.5061 -0.1481
 3060SOL     OW 9877   5.295   4.407   3.653 -0.0112 -0.8552  0.8167
 3060SOL    HW1 9878   5.210   4.367   3.637 -0.1247  0.1058 -1.2803
 3060SOL    HW2 9879   5.359   4.341   3.628 -0.1287 -1.1781  1.3434
 3061SOL     OW 9880   4.501   1.106   0.162 -0.4805 -0.4700 -0.3893
 3061SOL    HW1 9881   4.594   1.118   0.142 -0.6768  0.5871 -0.7137
 3061SOL    HW2 9882   4.467   1.058   0.087 -0.3402 -0.2254 -0.6128
 3062SOL     OW 9883   0.138   0.686   2.992 -0.1218  0.0680 -0.2808
 3062SOL    HW1 9884   0.201   0.691   2.921 -1.3600  0.2090 -1.3993
 3062SOL    HW2 9885   0.054   0.708   2.952 -0.7781  0.6851  1.3267
 3063SOL     OW 9886   4.143   2.672   1.170 -0.1963  0.0378  0.0674
 3063SOL    HW1 9887   4.173   2.750   1.217 -0.4344  0.0991  0.1199
 3063SOL    HW2 9888   4.048   2.682   1.166 -0.2879 -0.5443  0.6018
 3064SOL     OW 9889   1.932   1.082   1.360  0.2926  0.6384 -0.5874
 3064SOL    HW1 9890   1.847   1.118   1.384  0.5496  1.5852 -1.0483
 3064SOL    HW2 9891   1.954   1.124   1.277  0.9100 -0.0963 -0.8079
 3065SOL     OW 9892   3.713   2.439   2.586 -0.0437 -0.5044 -0.4673
 3065SOL    HW1 9893   3.665   2.417   2.666  1.8403  0.9164  1.1520
 3065SOL    HW2 9894   3.672   2.521   2.555  0.3264 -0.1172  0.0489
 3066SOL     OW 9895   4.442   1.763   4.497  0.1494  0.0963 -0.4955
 3066SOL    HW1 9896   4.503   1.802   4.434 -0.0350  0.0804 -0.6856
 3066SOL    HW2 9897   4.476   1.675   4.513 -0.0105 -0.0348 -0.8614
 3067SOL     OW 9898   4.829   5.388   0.620  0.1241  0.0477  0.1439
 3067SOL    HW1 9899   4.754   5.412   0.566  0.7343  2.1141  0.1293
 3067SOL    HW2 9900   4.899   5.371   0.557  0.4896  1.2052  0.2165
 3068SOL     OW 9901   1.736   0.933   1.586  0.3409 -0.0067  0.0498
 3068SOL    HW1 9902   1.737   0.841   1.560 -0.4253 -0.3167  1.0670
 3068SOL    HW2 9903   1.718   0.931   1.680 -2.5432  1.2450 -0.3690
 3069SOL     OW 9904   5.391   1.391   3.569  0.4790 -0.3429  0.0186
 3069SOL    HW1 9905   5.356   1.360   3.652  0.1344 -0.5850 -0.2160
 3069SOL    HW2 9906   5.388   1.314   3.512  0.7985 -0.2015 -0.1939
 3070SOL     OW 9907   3.471   2.611   3.372 -0.1848 -0.3902 -0.1193
 3070SOL    HW1 9908   3.486   2.656   3.289 -0.0725 -1.0773 -0.4796
 3070SOL    HW2 9909   3.480   2.518   3.351 -1.5392 -0.6493  0.3720
 3071SOL     OW 9910   2.293   0.873   2.776 -0.0774 -0.0119  0.2151
 3071SOL    HW1 9911   2.221   0.868   2.713  0.7218  1.1970 -0.8276
 3071SOL    HW2 9912   2.278   0.955   2.823 -1.9042 -1.8449  3.2556
 3072SOL     OW 9913   4.667   3.241   4.251  0.0302 -1.0258 -0.1346
 3072SOL    HW1 9914   4.681   3.173   4.186 -1.5886 -1.0759 -0.4893
 3072SOL    HW2 9915   4.659   3.194   4.334  3.1513 -0.8862  0.3664
 3073SOL     OW 9916   3.117   5.127   4.753  0.3936 -0.3767 -0.3222
 3073SOL    HW1 9917   3.135   5.111   4.660 -0.0130 -0.2378 -0.4291
 3073SOL    HW2 9918   3.022   5.125   4.759  0.4059  0.0375  0.0182
 3074SOL     OW 9919   1.182   4.340   4.624  0.3280 -0.3136 -0.6166
 3074SOL    HW1 9920   1.235   4.410   4.584 -1.3986  0.8490 -0.9614
 3074SOL    HW2 9921   1.092   4.366   4.607 -0.3977 -1.6594  0.9605
 3075SOL     OW 9922   4.400   2.565   1.559  0.1854 -0.2138  0.1544
 3075SOL    HW1 9923   4.358   2.630   1.503 -1.3989 -0.6143  0.8292
 3075SOL    HW2 9924   4.425   2.614   1.637 -0.0902 -0.2141  0.2427
 3076SOL     OW 9925   4.708   4.062   0.017 -0.1718  0.0999 -0.4044
 3076SOL    HW1 9926   4.694   4.138  -0.039 -0.5663  0.3493  0.0213
 3076SOL    HW2 9927   4.629   4.057   0.070 -0.6370 -1.2878 -1.1995
 3077SOL     OW 9928   2.895   3.662   5.223 -0.4586  0.1075 -0.3863
 3077SOL    HW1 9929   2.875   3.623   5.308 -0.1160 -0.4384 -0.5470
 3077SOL    HW2 9930   2.823   3.722   5.206 -0.9892 -0.4413 -0.1109
 3078SOL     OW 9931   3.776   3.228   4.948  0.1021  0.5168  0.2162
 3078SOL    HW1 9932   3.849   3.173   4.922  0.5202  0.9101  0.5463
 3078SOL    HW2 9933   3.737   3.182   5.023 -0.7812 -0.3454 -0.7472
 3079SOL     OW 9934   2.762   2.954   4.196  0.4860 -0.1953  0.6320
 3079SOL    HW1 9935   2.762   3.021   4.265 -4.0639 -0.3672  1.0887
 3079SOL    HW2 9936   2.736   3.002   4.117 -1.0190 -1.0881  0.5667
 3080SOL     OW 9937   4.947   3.369   3.850 -0.2225 -0.2464  0.4789
 3080SOL    HW1 9938   5.012   3.324   3.904  0.2762  0.5196  0.5261
 3080SOL    HW2 9939   4.907   3.433   3.908 -0.3022 -0.0215  0.1780
 3081SOL     OW 9940   3.197   2.387   3.506 -0.1087  0.8887  0.5167
 3081SOL    HW1 9941   3.120   2.343   3.541  0.8612 -1.6922 -0.3344
 3081SOL    HW2 9942   3.197   2.365   3.413  1.3317  1.3420  0.3887
 3082SOL     OW 9943   3.525   3.069   0.219 -0.2648 -0.3827 -0.4212
 3082SOL    HW1 9944   3.440   3.110   0.232  0.7446  2.3842 -1.6583
 3082SOL    HW2 9945   3.534   3.062   0.124  0.2295 -2.2327 -0.2681
 3083SOL     OW 9946   2.698   3.412   0.671  0.1702 -0.3417  0.6675
 3083SOL    HW1 9947   2.737   3.476   0.612 -0.2278 -0.7135 -0.0060
 3083SOL    HW2 9948   2.714   3.448   0.759 -0.9221  1.1920  0.2759
 3084SOL     OW 9949   5.184   1.265   2.912  0.3467  0.3394  0.2116
 3084SOL    HW1 9950   5.252   1.332   2.920  1.1067  0.0366 -2.6280
 3084SOL    HW2 9951   5.223   1.198   2.857 -1.6257 -0.7945  0.0885
 3085SOL     OW 9952   1.560   0.397   3.165 -0.4327 -0.0687  0.4034
 3085SOL    HW1 9953   1.595   0.312   3.141  1.0608  0.5053  0.4520
 3085SOL    HW2 9954   1.598   0.458   3.101 -0.6112  0.7189  1.0255
 3086SOL     OW 9955   0.908   2.809   1.521 -0.3274 -0.1616 -0.2303
 3086SOL    HW1 9956   0.869   2.893   1.500  0.2530  0.3676  0.7862
 3086SOL    HW2 9957   0.838   2.760   1.564 -0.7892 -0.3699 -1.1831
 3087SOL     OW 9958   5.168   3.262   1.995 -0.2929  0.4734 -0.3667
 3087SOL    HW1 9959   5.076   3.246   2.017  0.0476 -1.2662 -0.0292
 3087SOL    HW2 9960   5.167   3.286   1.902 -1.1088  0.7172 -0.3012
 3088SOL     OW 9961   2.350   0.033   2.142  0.5029  0.0668 -0.4732
 3088SOL    HW1 9962   2.437   0.004   2.114  1.3874 -0.1306  2.1936
 3088SOL    HW2 9963   2.364   0.122   2.175 -0.5123  0.3849 -0.8736
 3089SOL     OW 9964   0.352   3.389   5.246 -0.2074 -0.2244 -0.2938
 3089SOL    HW1 9965   0.340   3.323   5.177 -0.1411 -1.7772  1.1264
 3089SOL    HW2 9966   0.417   3.351   5.304 -0.6552  0.8182  0.9347
 3090SOL     OW 9967   0.541   0.093   3.779 -0.0354  0.2304 -0.2077
 3090SOL    HW1 9968   0.628   0.063   3.808 -0.1186  0.3896  0.2167
 3090SOL    HW2 9969   0.555   0.185   3.756  0.0580  0.0724 -0.8095
 3091SOL     OW 9970   4.114   1.983   0.993 -0.4064  0.1956 -0.2281
 3091SOL    HW1 9971   4.050   2.046   0.958 -1.7290 -1.1902 -0.3823
 3091SOL    HW2 9972   4.151   2.027   1.070 -1.9180  0.8536  0.1672
 3092SOL     OW 9973   3.075   3.961   1.260 -0.8848 -0.6551 -0.1656
 3092SOL    HW1 9974   3.062   3.893   1.326 -0.6002 -0.5911 -0.0448
 3092SOL    HW2 9975   2.991   4.007   1.256 -0.9444 -0.7460  0.0523
 3093SOL     OW 9976   2.836   4.443   3.747  0.4444  0.3800  0.0949
 3093SOL    HW1 9977   2.877   4.359   3.769  0.9272  0.2983 -1.0654
 3093SOL    HW2 9978   2.909   4.505   3.742  0.2732  0.5292 -0.6269
 3094SOL     OW 9979   2.950   1.684   0.204 -0.5604  0.3248  0.0321
 3094SOL    HW1 9980   3.027   1.652   0.158  0.7787 -0.7335  2.7815
 3094SOL    HW2 9981   2.932   1.770   0.165 -0.1650 -0.8272 -2.9866
 3095SOL     OW 9982   3.221   4.855   3.668 -0.1486  0.1770  0.3926
 3095SOL    HW1 9983   3.171   4.855   3.750  0.3544 -1.1542  0.7252
 3095SOL    HW2 9984   3.287   4.923   3.680 -0.4422  0.3858  0.8553
 3096SOL     OW 9985   3.632   4.468   4.330 -0.4664  0.8565  0.3507
 3096SOL    HW1 9986   3.627   4.491   4.422  0.9474  1.1240  0.3791
 3096SOL    HW2 9987   3.622   4.551   4.283  0.6911  1.0169  0.3432
 3097SOL     OW 9988   3.183   4.129   1.003 -0.0872  0.0200  0.2457
 3097SOL    HW1 9989   3.115   4.069   0.970 -0.9964  1.5488 -0.7834
 3097SOL    HW2 9990   3.260   4.110   0.949 -0.9088  0.9669 -1.3234
 3098SOL     OW 9991   1.573   1.026   3.140 -0.2067  0.2926 -0.1177
 3098SOL    HW1 9992   1.494   1.052   3.187 -0.3521 -1.3713  0.6332
 3098SOL    HW2 9993   1.543   0.961   3.077  0.5774 -0.5100  0.3186
 3099SOL     OW 9994   1.430   1.511   0.619 -0.1215  0.1376  0.1877
 3099SOL    HW1 9995   1.450   1.454   0.545  0.5451  1.1663 -0.4560
 3099SOL    HW2 9996   1.514   1.549   0.645 -0.2494 -0.6331  1.8681
 3100SOL     OW 9997   1.612   3.040   3.271 -0.0195 -0.4489  0.1645
 3100SOL    HW1 9998   1.689   3.060   3.324  0.7213  0.5797 -1.2609
 3100SOL    HW2 9999   1.559   3.119   3.273 -0.2473 -0.5856 -0.2023
 3101SOL     OW10000   1.395   3.974   1.308  0.4879  0.1182  0.2481
 3101SOL    HW110001   1.367   3.905   1.368  0.6858 -2.1167 -2.0451
 3101SOL    HW210002   1.484   3.995   1.335  0.5951 -0.8826  0.7284
 3102SOL     OW10003   4.848   0.450   0.160  0.0022  0.1068 -0.3321
 3102SOL    HW110004   4.857   0.536   0.202  0.6291 -0.2268  0.2330
 3102SOL    HW210005   4.822   0.391   0.230  3.1017 -0.8805  0.1307
 3103SOL     OW10006   3.402   0.382   1.091  0.1927 -0.2618  0.6471
 3103SOL    HW110007   3.377   0.469   1.060  0.3083 -0.0527  1.1266
 3103SOL    HW210008   3.413   0.330   1.012  0.2198  0.1874  0.3531
 3104SOL     OW10009   1.709   4.224   1.236 -0.3763  1.0582 -0.2492
 3104SOL    HW110010   1.716   4.165   1.160  0.4107  2.2696 -1.1714
 3104SOL    HW210011   1.698   4.166   1.311  0.2446 -0.2541 -1.1312
 3105SOL     OW10012   0.252   3.746   4.178 -0.2332  0.3420  0.0627
 3105SOL    HW110013   0.203   3.823   4.146 -0.3082  1.0998  1.8756
 3105SOL    HW210014   0.330   3.783   4.219 -0.4435 -0.5037  1.2827
 3106SOL     OW10015   2.129   2.982   0.818 -0.1851 -0.1356 -0.5005
 3106SOL    HW110016   2.148   3.074   0.796 -0.4082  0.3952  1.3533
 3106SOL    HW210017   2.034   2.975   0.811 -0.4401  0.4754  1.6447
 3107SOL     OW10018   2.163   0.639   2.021  0.2226  0.3139  0.2621
 3107SOL    HW110019   2.220   0.610   2.093 -0.1955 -0.8404  0.1409
 3107SOL    HW210020   2.163   0.735   2.028  1.3542  0.2836  0.8947
 3108SOL     OW10021   0.423   4.483   5.175  0.1468  0.0195  0.0983
 3108SOL    HW110022   0.392   4.558   5.124  0.9539 -0.4230 -1.1021
 3108SOL    HW210023   0.343   4.440   5.205 -0.3551  0.4194 -0.6190
 3109SOL     OW10024   3.148   4.781   1.550 -0.1151 -0.1490  0.1563
 3109SOL    HW110025   3.138   4.852   1.487 -0.5499  0.3248  0.7517
 3109SOL    HW210026   3.230   4.738   1.524 -0.5224 -0.2565 -1.0152
 3110SOL     OW10027   2.172   4.478   3.684 -0.4166  0.6257 -0.6044
 3110SOL    HW110028   2.211   4.504   3.767 -2.0091 -0.9954  0.7188
 3110SOL    HW210029   2.212   4.393   3.664 -3.1123 -1.1328  0.8461
 3111SOL     OW10030   3.192   2.901   3.028 -0.2178  0.4757 -0.2672
 3111SOL    HW110031   3.132   2.911   3.101  0.4804 -1.4316  0.6274
 3111SOL    HW210032   3.172   2.815   2.991  0.3432  0.8403 -1.4870
 3112SOL     OW10033   4.556   4.769   0.355 -0.1634  0.3301 -0.0984
 3112SOL    HW110034   4.588   4.825   0.425 -0.0333 -0.4291  0.4602
 3112SOL    HW210035   4.584   4.813   0.274  1.7673  0.0159  0.3559
 3113SOL     OW10036   5.379   1.415   5.156  0.4460 -0.2055 -0.1319
 3113SOL    HW110037   5.326   1.403   5.235 -0.0344 -0.6879 -0.5209
 3113SOL    HW210038   5.405   1.327   5.131  1.5009  0.0303  0.0898
 3114SOL     OW10039   1.829   1.444   0.821 -0.0283  0.4052 -0.2925
 3114SOL    HW110040   1.852   1.457   0.913  0.3737  2.2800 -0.6192
 3114SOL    HW210041   1.849   1.352   0.804 -1.0933 -0.2652  1.7494
 3115SOL     OW10042   1.581   4.189   3.283  0.0508 -0.2574 -0.2881
 3115SOL    HW110043   1.642   4.115   3.271 -0.1536 -0.2208 -1.7770
 3115SOL    HW210044   1.627   4.249   3.342 -0.2660 -2.0773  1.9545
 3116SOL     OW10045   5.329   0.177   2.098  0.6418  0.6237  0.8437
 3116SOL    HW110046   5.408   0.227   2.120  0.3593  0.6907  1.7463
 3116SOL    HW210047   5.358   0.086   2.096  1.0869  0.7773 -0.4736
 3117SOL     OW10048   3.677   3.754   3.913  0.0637  0.0301  0.3730
 3117SOL    HW110049   3.750   3.710   3.869 -1.0941 -1.2362 -0.3553
 3117SOL    HW210050   3.639   3.687   3.970  0.2890  1.0720  1.7721
 3118SOL     OW10051   2.143   0.102   2.988 -0.1194 -0.1995  0.1879
 3118SOL    HW110052   2.221   0.082   2.936  1.2086  1.6332  1.3412
 3118SOL    HW210053   2.092   0.161   2.932  0.1020 -0.1590  0.0276
 3119SOL     OW10054   3.853   1.243   1.730 -0.5321 -0.5754 -0.4097
 3119SOL    HW110055   3.846   1.210   1.819  1.9638 -0.3257 -0.0558
 3119SOL    HW210056   3.843   1.338   1.738  1.9931 -0.2806  0.0140
 3120SOL     OW10057   2.688   4.048   0.117  0.4269 -0.3135 -0.0618
 3120SOL    HW110058   2.666   3.971   0.065  1.0093 -1.8501  1.8865
 3120SOL    HW210059   2.752   4.095   0.063 -1.0393 -0.3235 -1.9387
 3121SOL     OW10060   0.158   2.634   1.154 -0.2577  0.2852 -0.5770
 3121SOL    HW110061   0.171   2.722   1.118 -1.4317  0.5782 -0.3229
 3121SOL    HW210062   0.227   2.625   1.220 -1.2758  1.7879  0.7828
 3122SOL     OW10063   5.304   0.266   2.495  0.5660  0.1136  0.6192
 3122SOL    HW110064   5.239   0.333   2.477  0.2217  0.4180  2.7556
 3122SOL    HW210065   5.259   0.183   2.479  0.9666  0.2997 -1.9454
 3123SOL     OW10066   2.704   1.343   4.777  0.6522 -0.3338 -0.0178
 3123SOL    HW110067   2.733   1.434   4.783  0.6739 -0.3542  0.1850
 3123SOL    HW210068   2.736   1.314   4.691  2.2567 -0.7056  0.6647
 3124SOL     OW10069   3.145   1.545   0.077  0.3660 -0.3509 -0.1901
 3124SOL    HW110070   3.185   1.460   0.096  0.7449  0.0004  0.6377
 3124SOL    HW210071   3.192   1.576  -0.001  0.5618 -0.6853 -0.2075
 3125SOL     OW10072   3.793   2.945   0.037 -0.2349 -0.5816 -0.1798
 3125SOL    HW110073   3.870   2.974  -0.012 -0.8455 -1.8373 -1.9811
 3125SOL    HW210074   3.729   3.014   0.022 -0.3461 -0.8500 -1.0143
 3126SOL     OW10075   4.852   2.713   1.795  0.2963  0.5340  0.4759
 3126SOL    HW110076   4.938   2.672   1.782 -0.5999 -1.2692 -0.2059
 3126SOL    HW210077   4.813   2.662   1.866 -0.7646  0.3424 -0.2261
 3127SOL     OW10078   0.412   5.213   0.196  0.7411 -0.0194  0.1837
 3127SOL    HW110079   0.341   5.206   0.260  0.3115 -0.1268 -0.2999
 3127SOL    HW210080   0.492   5.217   0.249  0.2598  2.6240  0.8532
 3128SOL     OW10081   2.822   0.957   1.625  0.6742 -0.1853 -0.5573
 3128SOL    HW110082   2.759   1.028   1.639  1.2507  0.4100 -0.8846
 3128SOL    HW210083   2.902   1.002   1.597  1.0321 -0.9748 -0.8283
 3129SOL     OW10084   4.249   3.137   4.211  0.1609  0.2476  0.1651
 3129SOL    HW110085   4.179   3.073   4.220 -0.6254  1.1574  0.6934
 3129SOL    HW210086   4.279   3.128   4.120 -0.7301 -0.0619 -0.1065
 3130SOL     OW10087   3.562   4.170   5.326 -0.6535 -0.1473 -0.8819
 3130SOL    HW110088   3.619   4.210   5.393 -0.2767  0.1604 -1.3800
 3130SOL    HW210089   3.551   4.080   5.356  0.7523 -0.4468 -1.1715
 3131SOL     OW10090   2.817   3.184   0.099 -0.1508  0.0593  0.3233
 3131SOL    HW110091   2.751   3.142   0.044 -1.0480  1.2123  0.4807
 3131SOL    HW210092   2.813   3.137   0.183 -1.1005  0.4206  0.4824
 3132SOL     OW10093   4.713   5.234   0.008  0.5676  0.7218 -0.1124
 3132SOL    HW110094   4.756   5.290   0.073  0.1234 -1.1044  1.8538
 3132SOL    HW210095   4.620   5.257   0.015  0.5184  0.5205 -0.0917
 3133SOL     OW10096   1.861   1.688   1.570  0.4101  0.0255  0.6757
 3133SOL    HW110097   1.880   1.771   1.527 -0.7712  0.5984  1.2194
 3133SOL    HW210098   1.942   1.666   1.617  0.8127  0.7281  0.3277
 3134SOL     OW10099   4.617   3.162   1.009 -0.3673 -0.2568 -0.3188
 3134SOL    HW110100   4.572   3.172   0.925 -1.3681  0.0136  0.2224
 3134SOL    HW210101   4.549   3.183   1.074  0.5978  0.2964  0.5293
 3135SOL     OW10102   0.850   2.264   4.795 -0.0466  0.0458 -0.0859
 3135SOL    HW110103   0.891   2.246   4.711  0.2008  0.1166  0.0170
 3135SOL    HW210104   0.865   2.185   4.847  1.1826  0.5793  0.4199
 3136SOL     OW10105   1.508   2.584   3.887 -0.2574  0.1565  0.3192
 3136SOL    HW110106   1.517   2.559   3.795 -1.2826  1.1830 -0.0702
 3136SOL    HW210107   1.452   2.661   3.887  1.6371  1.6608  1.6038
 3137SOL     OW10108   3.539   5.333   3.639  0.3884 -0.1801  0.2724
 3137SOL    HW110109   3.571   5.392   3.571  1.0579  0.3249  1.0004
 3137SOL    HW210110   3.615   5.318   3.695 -0.4203  0.3594  1.5741
 3138SOL     OW10111   2.558   5.298   2.701 -0.2745  0.0459  0.1626
 3138SOL    HW110112   2.513   5.213   2.700 -0.4101  0.1192 -0.0382
 3138SOL    HW210113   2.594   5.307   2.613 -0.2444  0.1898  0.1897
 3139SOL     OW10114   4.131   4.240   3.220 -0.3067  0.1204  0.2619
 3139SOL    HW110115   4.124   4.232   3.315 -0.7653  0.0280  0.2213
 3139SOL    HW210116   4.131   4.334   3.204  3.0760  0.3237  0.5870
 3140SOL     OW10117   3.577   4.903   3.779 -0.0328  0.1373 -0.3329
 3140SOL    HW110118   3.526   4.969   3.733  0.5213  0.1625 -0.9135
 3140SOL    HW210119   3.547   4.820   3.743 -1.5163 -0.0336  1.1598
 3141SOL     OW10120   0.405   4.920   3.361  0.0931 -0.7240 -0.2251
 3141SOL    HW110121   0.449   4.973   3.295 -0.1765 -0.3479 -0.1100
 3141SOL    HW210122   0.316   4.955   3.364 -0.4089 -1.8856 -0.9110
 3142SOL     OW10123   3.772   2.167   5.070  1.2146 -0.2155  0.8423
 3142SOL    HW110124   3.803   2.104   5.135  1.1023 -1.9737 -0.7342
 3142SOL    HW210125   3.851   2.214   5.043  1.2086  0.8421  2.4725
 3143SOL     OW10126   0.732   0.457   4.941  0.3948  0.3396 -0.3083
 3143SOL    HW110127   0.745   0.497   5.027  0.4249  0.2050 -0.2506
 3143SOL    HW210128   0.770   0.521   4.880 -1.0296  1.1651 -0.3614
 3144SOL     OW10129   3.847   0.419   2.868  0.4603  0.9758 -0.7140
 3144SOL    HW110130   3.790   0.495   2.879  0.0107  0.4368  0.8302
 3144SOL    HW210131   3.915   0.429   2.934  0.0261 -0.2859 -0.0458
 3145SOL     OW10132   0.406   1.714   4.366 -0.9092  0.4163 -0.2079
 3145SOL    HW110133   0.457   1.794   4.351 -1.8341  1.0652 -0.0201
 3145SOL    HW210134   0.471   1.645   4.373  0.1083  1.4919  1.9911
 3146SOL     OW10135   0.544   4.985   2.686  0.1105  0.2333 -0.4620
 3146SOL    HW110136   0.515   4.906   2.732  2.7738 -0.6899 -0.2208
 3146SOL    HW210137   0.514   5.057   2.741 -0.8234 -0.6512  0.2394
 3147SOL     OW10138   2.292   1.777   1.504 -0.2247  0.2423  0.2522
 3147SOL    HW110139   2.236   1.738   1.437 -0.7725  1.5217 -0.0719
 3147SOL    HW210140   2.351   1.835   1.455  0.1178  0.3353  0.7668
 3148SOL     OW10141   5.160   3.124   2.509  0.4003 -0.4225  0.3218
 3148SOL    HW110142   5.141   3.031   2.496  0.0444 -0.5069  1.3142
 3148SOL    HW210143   5.255   3.128   2.517  0.3357 -0.9120  1.6151
 3149SOL     OW10144   2.821   5.192   2.147  0.1227 -0.1693  0.3938
 3149SOL    HW110145   2.826   5.119   2.085  3.9198  1.5055 -1.6083
 3149SOL    HW210146   2.867   5.161   2.224 -0.3189 -0.6174  0.4859
 3150SOL     OW10147   2.443   1.741   0.507  0.5807 -0.2359 -0.0010
 3150SOL    HW110148   2.432   1.718   0.415 -1.2711  0.5457 -0.0173
 3150SOL    HW210149   2.457   1.836   0.507  0.5950 -0.2336  0.5141
 3151SOL     OW10150   5.391   1.017   3.039  0.6945  0.5305 -0.3665
 3151SOL    HW110151   5.449   0.997   3.112  1.2098  1.4980 -0.5000
 3151SOL    HW210152   5.319   1.066   3.078  0.3450 -0.0013 -0.3262
 3152SOL     OW10153   4.343   3.171   3.681 -0.2243 -0.4709  0.3663
 3152SOL    HW110154   4.337   3.257   3.641 -0.4678 -0.3849  0.5846
 3152SOL    HW210155   4.375   3.114   3.611 -1.3847 -0.4800 -0.1819
 3153SOL     OW10156   5.104   2.553   0.603 -0.4954 -0.4437  0.1256
 3153SOL    HW110157   5.151   2.592   0.676 -0.2512 -0.7923  0.1553
 3153SOL    HW210158   5.155   2.576   0.525  0.4923 -1.9661  0.2866
 3154SOL     OW10159   3.233   0.283   2.142  0.0008 -0.5789  0.1767
 3154SOL    HW110160   3.278   0.203   2.117 -2.0613 -1.4711 -0.9599
 3154SOL    HW210161   3.202   0.320   2.060 -0.6883  0.3797  0.8426
 3155SOL     OW10162   0.504   4.030   4.500 -0.6028  0.0967 -0.5893
 3155SOL    HW110163   0.489   4.090   4.573  0.7643  1.9343 -1.7248
 3155SOL    HW210164   0.595   4.001   4.510 -0.3011  0.5883 -1.6558
 3156SOL     OW10165   5.194   3.197   0.847 -0.2285 -0.3764  0.2250
 3156SOL    HW110166   5.196   3.142   0.925  0.1645  1.4486  1.5640
 3156SOL    HW210167   5.269   3.168   0.795  1.1098  0.0955  1.8061
 3157SOL     OW10168   1.037   0.223   4.333 -0.1833 -0.0616 -0.4037
 3157SOL    HW110169   0.971   0.164   4.369 -2.4804  2.3823 -0.2122
 3157SOL    HW210170   1.100   0.235   4.404 -1.6458  0.4243  0.8820
 3158SOL     OW10171   3.476   1.879   0.990 -0.3503 -0.1767 -0.6571
 3158SOL    HW110172   3.444   1.890   1.080  3.2657  1.0457  0.6923
 3158SOL    HW210173   3.411   1.923   0.936 -2.1096  0.0117  1.4699
 3159SOL     OW10174   3.865   2.579   5.121  0.2195  0.5526 -0.5840
 3159SOL    HW110175   3.906   2.518   5.060 -1.2310 -1.6014  0.4543
 3159SOL    HW210176   3.798   2.527   5.165 -0.2249  2.5849  1.3168
 3160SOL     OW10177   1.491   3.859   4.773 -0.0277 -0.4314  0.3336
 3160SOL    HW110178   1.471   3.904   4.691 -1.5109  0.0177  0.9075
 3160SOL    HW210179   1.405   3.837   4.810  0.5261  0.8446  2.5842
 3161SOL     OW10180   2.953   3.332   1.925 -0.3703 -0.2498  0.1119
 3161SOL    HW110181   2.984   3.249   1.889 -0.3215  0.7498 -2.3208
 3161SOL    HW210182   3.031   3.371   1.966  0.4054 -0.0039 -1.5385
 3162SOL     OW10183   3.911   0.952   1.182  0.6169  0.6556 -0.1308
 3162SOL    HW110184   3.872   0.916   1.102  0.3484  0.2696  0.1746
 3162SOL    HW210185   3.853   1.024   1.207 -0.8183 -0.8920  1.1987
 3163SOL     OW10186   2.985   1.341   5.241 -0.3225  0.0010 -0.0038
 3163SOL    HW110187   2.955   1.419   5.193 -0.7128  1.1035  1.9207
 3163SOL    HW210188   3.079   1.338   5.226 -0.4347  0.3476 -0.8063
 3164SOL     OW10189   0.759   3.266   1.321 -0.1048  0.0087  0.0838
 3164SOL    HW110190   0.840   3.263   1.270  1.2638  0.0308  2.1811
 3164SOL    HW210191   0.772   3.337   1.383 -0.4971 -1.8292  2.3818
 3165SOL     OW10192   0.455   4.753   3.545 -0.2568  0.2704  0.7551
 3165SOL    HW110193   0.430   4.812   3.473 -1.0527  0.8541  1.4937
 3165SOL    HW210194   0.550   4.751   3.542 -0.2740 -0.3769 -0.8350
 3166SOL     OW10195   4.140   2.879   0.211  0.5547 -0.0797 -0.0186
 3166SOL    HW110196   4.076   2.839   0.271 -0.9086  0.5864 -1.0671
 3166SOL    HW210197   4.140   2.822   0.135  0.9758  0.1112 -0.1631
 3167SOL     OW10198   3.921   2.348   1.148  0.1864 -0.3859 -0.3285
 3167SOL    HW110199   3.863   2.312   1.216  0.1189  0.2417 -0.0395
 3167SOL    HW210200   3.889   2.437   1.135  2.0466  0.5522  0.9805
 3168SOL     OW10201   4.683   2.404   4.463  0.7878 -0.3436  0.0042
 3168SOL    HW110202   4.688   2.309   4.474  1.2558 -0.2066  1.2034
 3168SOL    HW210203   4.645   2.417   4.376 -1.2029 -1.6329  0.6199
 3169SOL     OW10204   2.812   0.503   1.965 -0.2143  0.1252  0.3649
 3169SOL    HW110205   2.788   0.467   1.879 -0.5872 -1.4407  1.0907
 3169SOL    HW210206   2.728   0.520   2.008 -0.0393 -0.3440  0.9044
 3170SOL     OW10207   3.020   3.244   2.283  0.4289  0.3700 -0.2376
 3170SOL    HW110208   2.976   3.214   2.203 -0.2434 -0.2297  0.3454
 3170SOL    HW210209   2.952   3.292   2.331 -0.0546 -1.7779  1.3423
 3171SOL     OW10210   2.516   1.939   3.359 -0.4287 -0.3154 -0.6888
 3171SOL    HW110211   2.470   1.955   3.441 -0.6413 -0.3070 -0.8101
 3171SOL    HW210212   2.458   1.880   3.310 -1.0115  0.8734 -1.4667
 3172SOL     OW10213   4.057   4.783   0.057  0.0228 -0.5411  0.0779
 3172SOL    HW110214   4.027   4.820  -0.026 -0.0953 -0.1682  0.2837
 3172SOL    HW210215   4.121   4.717   0.032 -0.1800 -0.5904 -0.3210
 3173SOL     OW10216   3.709   3.828   5.367 -0.0209 -0.0426 -0.0207
 3173SOL    HW110217   3.736   3.883   5.294  1.2206 -0.4647  0.0880
 3173SOL    HW210218   3.783   3.832   5.428 -0.5184 -0.6868  0.6450
 3174SOL     OW10219   4.844   1.747   2.929 -0.5209 -0.0305  0.0666
 3174SOL    HW110220   4.885   1.750   2.843  0.1174 -0.2488  0.3580
 3174SOL    HW210221   4.828   1.654   2.946  2.1568 -0.3144  1.4618
 3175SOL     OW10222   3.625   0.674   3.966  0.3704  0.4963  0.6046
 3175SOL    HW110223   3.617   0.586   3.927  0.6182  0.9226 -0.4611
 3175SOL    HW210224   3.632   0.658   4.060 -0.0077 -0.6025  0.4686
 3176SOL     OW10225   1.382   1.068   0.202  0.0702 -0.6605  0.0227
 3176SOL    HW110226   1.469   1.091   0.169 -0.5100  0.6752 -0.6559
 3176SOL    HW210227   1.323   1.129   0.158 -1.2552 -1.7195  0.2668
 3177SOL     OW10228   4.524   5.142   0.636 -0.5951  0.0343 -0.3230
 3177SOL    HW110229   4.439   5.176   0.608 -0.7403 -1.7381 -2.2524
 3177SOL    HW210230   4.588   5.198   0.593 -0.8168 -0.1699 -0.9290
 3178SOL     OW10231   1.129   0.023   5.162  0.1158  0.1995  0.2388
 3178SOL    HW110232   1.075   0.102   5.161 -1.4189 -0.8165 -0.9224
 3178SOL    HW210233   1.217   0.055   5.140 -1.0538  1.2826 -3.7106
 3179SOL     OW10234   5.295   4.817   2.723 -0.0144  0.2166  0.0998
 3179SOL    HW110235   5.379   4.844   2.687 -0.7610  1.7779 -0.5559
 3179SOL    HW210236   5.283   4.872   2.800 -1.4263  1.6549 -1.0771
 3180SOL     OW10237   3.618   0.419   4.333  0.0693 -0.5535 -0.0538
 3180SOL    HW110238   3.637   0.492   4.392  1.4026  0.3811 -1.5528
 3180SOL    HW210239   3.540   0.446   4.284 -0.7588 -1.1301  0.9011
 3181SOL     OW10240   1.393   4.501   2.655 -0.0940 -0.3756 -0.2565
 3181SOL    HW110241   1.343   4.581   2.673  0.3792 -0.5723  2.2999
 3181SOL    HW210242   1.330   4.431   2.667 -0.0114 -0.4763 -0.4112
 3182SOL     OW10243   3.357   2.466   4.913 -0.2890 -0.2264  0.3946
 3182SOL    HW110244   3.357   2.551   4.958  0.6155 -0.3177  0.5830
 3182SOL    HW210245   3.447   2.454   4.885 -0.0991 -1.7760  1.5723
 3183SOL     OW10246   4.720   4.649   0.636  0.1220  0.0502  0.1508
 3183SOL    HW110247   4.643   4.594   0.625  1.0178 -1.2014 -0.1361
 3183SOL    HW210248   4.696   4.733   0.598 -1.1475 -0.2736  0.2177
 3184SOL     OW10249   5.249   4.566   2.988  0.1381 -0.3448  0.5186
 3184SOL    HW110250   5.330   4.575   3.037  1.1322 -0.3984 -1.0325
 3184SOL    HW210251   5.182   4.605   3.044  1.5280  1.3464  1.0784
 3185SOL     OW10252   4.378   0.341   4.279 -0.0387  0.7452  0.5258
 3185SOL    HW110253   4.390   0.278   4.351  0.5470  1.1762  0.8111
 3185SOL    HW210254   4.357   0.286   4.203 -1.4776  0.3383  1.1907
 3186SOL     OW10255   5.221   0.229   4.917 -0.3413  0.0435  0.1786
 3186SOL    HW110256   5.253   0.143   4.945  0.3484  0.8589  2.0660
 3186SOL    HW210257   5.127   0.216   4.903 -0.2592 -0.9960  0.5182
 3187SOL     OW10258   3.648   4.541   1.823 -1.1762  0.4962  0.1799
 3187SOL    HW110259   3.554   4.522   1.826 -1.1138  0.3150  2.6085
 3187SOL    HW210260   3.689   4.472   1.874  0.7287 -1.2757 -3.3308
 3188SOL     OW10261   0.858   1.131   4.312 -0.5410 -0.5973 -0.0631
 3188SOL    HW110262   0.764   1.146   4.308 -0.5142  0.5263  2.0567
 3188SOL    HW210263   0.873   1.097   4.401  0.9930 -1.2457 -0.5381
 3189SOL     OW10264   1.959   3.711   2.742 -0.1414  0.3414  0.0206
 3189SOL    HW110265   1.867   3.709   2.713 -0.6779  0.2157  1.6013
 3189SOL    HW210266   1.958   3.771   2.817  1.1221  0.5045 -0.0783
 3190SOL     OW10267   0.211   0.757   3.304 -0.3397  0.6810 -0.4472
 3190SOL    HW110268   0.186   0.673   3.345 -0.2404  0.5441 -0.6658
 3190SOL    HW210269   0.175   0.752   3.215  2.3017 -0.4583 -1.5427
 3191SOL     OW10270   0.893   3.741   3.137 -0.2195 -0.6839  0.0905
 3191SOL    HW110271   0.960   3.810   3.136 -1.1374  0.2473  0.5997
 3191SOL    HW210272   0.825   3.775   3.196 -1.4741 -1.2749 -0.9740
 3192SOL     OW10273   2.345   4.342   1.245 -0.3186  0.5904  0.2558
 3192SOL    HW110274   2.420   4.400   1.229 -0.8121  1.4845  1.0972
 3192SOL    HW210275   2.269   4.398   1.234 -0.8941 -0.3806 -0.8520
 3193SOL     OW10276   1.270   0.893   2.765  0.5569  0.6319  0.3893
 3193SOL    HW110277   1.178   0.881   2.788 -0.2085  0.7333 -2.2808
 3193SOL    HW210278   1.273   0.980   2.724  1.6836  0.3577 -0.1484
 3194SOL     OW10279   3.686   1.168   4.230  0.6079 -0.4055  0.1007
 3194SOL    HW110280   3.726   1.083   4.245  1.8042  0.2367  0.7458
 3194SOL    HW210281   3.696   1.184   4.136  1.3608 -0.5190  0.1535
 3195SOL     OW10282   3.040   0.897   3.424  0.1297  0.0445  0.0402
 3195SOL    HW110283   3.063   0.986   3.452 -1.4479 -0.1644  2.2722
 3195SOL    HW210284   3.092   0.883   3.345  0.6091  2.8494 -0.2642
 3196SOL     OW10285   3.315   1.987   0.807 -0.1809  0.2037  0.4290
 3196SOL    HW110286   3.376   2.032   0.748  1.0581  2.1520  2.9685
 3196SOL    HW210287   3.234   2.038   0.801 -0.3057 -0.0687 -0.1625
 3197SOL     OW10288   2.040   5.062   1.657 -0.0248 -0.0152  0.1035
 3197SOL    HW110289   2.019   5.033   1.746 -1.9819  0.0560 -0.3013
 3197SOL    HW210290   1.977   5.015   1.601 -1.0138  2.3861 -0.9155
 3198SOL     OW10291   2.422   4.881   4.051  0.3087  0.4985  0.1197
 3198SOL    HW110292   2.473   4.848   3.976 -1.1154 -2.0939  0.1784
 3198SOL    HW210293   2.451   4.827   4.125 -2.7167 -1.4702  0.0531
 3199SOL     OW10294   3.733   2.591   2.897  0.0775  0.3531  0.2745
 3199SOL    HW110295   3.652   2.642   2.900 -0.0331  0.5086 -2.4758
 3199SOL    HW210296   3.712   2.517   2.841  2.0399  0.8947 -1.2836
 3200SOL     OW10297   4.116   0.017   0.061 -0.3391  0.7267 -0.4064
 3200SOL    HW110298   4.086   0.060  -0.019 -1.1244  1.7145  0.3964
 3200SOL    HW210299   4.132  -0.073   0.035 -2.6512  0.4934 -1.2197
 3201SOL     OW10300   5.395   5.119   0.194 -0.0550  0.3049 -0.1132
 3201SOL    HW110301   5.462   5.159   0.249  0.5092  0.0782 -0.6229
 3201SOL    HW210302   5.345   5.063   0.254  0.4114  0.2239  0.2035
 3202SOL     OW10303   0.048   1.174   1.899  0.3416  0.1481 -0.6336
 3202SOL    HW110304   0.076   1.234   1.968  1.6654 -0.9640 -0.1462
 3202SOL    HW210305   0.121   1.113   1.889 -1.1228 -1.6916 -0.7268
 3203SOL     OW10306   2.801   1.884   3.477 -0.3963 -0.4753 -0.1071
 3203SOL    HW110307   2.784   1.855   3.567 -1.6539 -0.1831 -0.2330
 3203SOL    HW210308   2.753   1.966   3.469  1.2459  0.4949 -0.4740
 3204SOL     OW10309   5.329   5.177   1.302  0.0292 -0.6750  0.2456
 3204SOL    HW110310   5.310   5.260   1.345  0.6801 -0.1852 -0.3815
 3204SOL    HW210311   5.373   5.202   1.221 -1.6218 -1.5369 -0.9774
 3205SOL     OW10312   5.147   1.191   2.489 -0.2346  0.0833 -0.0524
 3205SOL    HW110313   5.067   1.182   2.541 -1.2275  1.6164 -1.2287
 3205SOL    HW210314   5.129   1.141   2.409  0.9259 -1.4980  0.6331
 3206SOL     OW10315   0.452   5.079   5.358 -0.0035  0.1451 -0.1805
 3206SOL    HW110316   0.423   5.139   5.427  0.5012 -0.2376  0.3726
 3206SOL    HW210317   0.542   5.057   5.381  0.5124  0.7732 -1.5031
 3207SOL     OW10318   4.572   0.702   2.936  0.3324  0.1476 -0.3282
 3207SOL    HW110319   4.556   0.622   2.886 -3.0124  1.0186 -0.9177
 3207SOL    HW210320   4.490   0.718   2.982  2.1233  1.3396  2.6914
 3208SOL     OW10321   5.386   1.222   2.667 -0.3549  0.2750 -0.6140
 3208SOL    HW110322   5.339   1.164   2.607 -1.3000 -0.2406  0.5657
 3208SOL    HW210323   5.354   1.310   2.646 -2.6303 -0.1330  0.7281
 3209SOL     OW10324   4.750   3.217   0.236  0.3658 -0.0010  0.3338
 3209SOL    HW110325   4.803   3.187   0.163  0.1452  1.1802 -0.3290
 3209SOL    HW210326   4.669   3.249   0.196 -0.6783 -1.2807  1.2729
 3210SOL     OW10327   3.339   5.304   4.170 -0.2099  0.5718  0.0031
 3210SOL    HW110328   3.281   5.259   4.108  1.1064  0.7846 -1.4666
 3210SOL    HW210329   3.422   5.313   4.122  0.7717  1.0385  1.7101
 3211SOL     OW10330   5.388   0.498   4.384 -0.5963 -0.0191 -0.5358
 3211SOL    HW110331   5.294   0.490   4.372 -0.4228  0.5127 -2.8295
 3211SOL    HW210332   5.419   0.408   4.398 -1.0955 -0.7418 -3.4566
 3212SOL     OW10333   4.077   1.036   4.538 -0.2214 -0.1669  0.2908
 3212SOL    HW110334   4.020   1.005   4.608  0.8231 -1.9633  0.3921
 3212SOL    HW210335   4.133   0.962   4.517  0.3870  0.7429 -1.5570
 3213SOL     OW10336   3.611   1.882   2.082  0.1930 -0.4370 -0.8813
 3213SOL    HW110337   3.688   1.863   2.135 -1.9699 -1.5002  2.1880
 3213SOL    HW210338   3.544   1.821   2.114 -2.6866  2.1530 -1.4370
 3214SOL     OW10339   1.882   1.700   4.862  0.2906  0.5868 -0.3640
 3214SOL    HW110340   1.946   1.711   4.932 -0.4895  0.8200  0.3298
 3214SOL    HW210341   1.896   1.775   4.805  1.1122  0.2513 -0.6218
 3215SOL     OW10342   3.326   1.566   3.689  0.2452  0.0874  0.3822
 3215SOL    HW110343   3.241   1.531   3.716  0.0637 -0.2059 -0.5420
 3215SOL    HW210344   3.319   1.660   3.706 -0.0033 -0.0252  0.9577
 3216SOL     OW10345   5.297   1.217   4.758  0.3710 -0.1547  0.3658
 3216SOL    HW110346   5.220   1.272   4.744  0.6034  0.6191  1.8734
 3216SOL    HW210347   5.269   1.129   4.731 -0.5010  0.4049 -0.6268
 3217SOL     OW10348   5.174   2.544   4.229 -0.0729 -0.1268  0.6752
 3217SOL    HW110349   5.084   2.513   4.228  0.0122 -0.3724  0.4149
 3217SOL    HW210350   5.180   2.606   4.156  0.1354 -0.5989  0.2874
 3218SOL     OW10351   2.327   3.879   1.168  0.2495  0.7791 -0.7414
 3218SOL    HW110352   2.401   3.876   1.107 -0.7004  1.6167 -1.9832
 3218SOL    HW210353   2.281   3.960   1.146 -1.3985 -0.0296 -0.4137
 3219SOL     OW10354   0.621   2.629   4.197 -0.3637  0.0485 -0.2371
 3219SOL    HW110355   0.690   2.566   4.176 -1.2752 -1.3514  0.7657
 3219SOL    HW210356   0.544   2.598   4.150 -1.0891 -0.1944  1.0712
 3220SOL     OW10357   1.816   2.658   0.960  0.3766  0.2019  0.4173
 3220SOL    HW110358   1.730   2.616   0.970  1.7265 -2.9612  0.0305
 3220SOL    HW210359   1.839   2.687   1.049 -0.6864  0.2491  0.6900
 3221SOL     OW10360   1.679   0.674   1.743  0.4025  0.1719  0.2728
 3221SOL    HW110361   1.665   0.650   1.835 -2.5456  0.3105 -0.0165
 3221SOL    HW210362   1.754   0.622   1.715  0.6577 -0.7497  2.4355
 3222SOL     OW10363   2.239   4.660   1.758  0.6889 -0.1072 -0.2642
 3222SOL    HW110364   2.280   4.738   1.721 -1.1961  0.8526 -0.4656
 3222SOL    HW210365   2.231   4.600   1.685  1.3611 -0.1555 -0.3046
 3223SOL     OW10366   0.194   2.245   1.098 -1.2788 -0.2873  0.5648
 3223SOL    HW110367   0.239   2.307   1.155 -0.9200 -1.1935  1.2947
 3223SOL    HW210368   0.245   2.245   1.017  0.6065 -1.9268  1.6668
 3224SOL     OW10369   4.740   3.654   2.074  0.0111 -0.2115 -0.2993
 3224SOL    HW110370   4.679   3.704   2.127 -0.6677 -1.7125  0.3778
 3224SOL    HW210371   4.826   3.690   2.095 -0.2524 -0.7152  1.7925
 3225SOL     OW10372   4.739   4.962   2.759 -0.1497 -0.8882 -0.6389
 3225SOL    HW110373   4.725   4.975   2.665 -2.2155 -0.4544 -0.3201
 3225SOL    HW210374   4.651   4.957   2.796  0.6181 -1.1806  1.2738
 3226SOL     OW10375   4.501   2.296   1.956 -0.1624 -0.1672 -0.4414
 3226SOL    HW110376   4.532   2.318   2.044  0.8271 -0.0666 -0.8070
 3226SOL    HW210377   4.430   2.234   1.970 -0.1130 -0.0360  0.4312
 3227SOL     OW10378   3.806   4.538   2.498 -0.3429  0.3171 -0.6838
 3227SOL    HW110379   3.885   4.543   2.445  0.2244  2.6520  0.2712
 3227SOL    HW210380   3.777   4.628   2.508 -0.1739  0.1124  3.2323
 3228SOL     OW10381   2.237   3.265   4.146 -0.3261 -0.3476  0.6985
 3228SOL    HW110382   2.235   3.324   4.222  1.0341 -0.8665  1.1565
 3228SOL    HW210383   2.144   3.245   4.129 -0.7376  0.9141  1.3032
 3229SOL     OW10384   1.070   1.617   5.224 -0.7683 -0.1894 -0.3017
 3229SOL    HW110385   1.027   1.618   5.310  0.4199 -1.2291  0.3400
 3229SOL    HW210386   1.003   1.588   5.164 -1.1919 -1.0059  0.5481
 3230SOL     OW10387   1.264   0.328   3.148  0.2280 -0.5510  0.9636
 3230SOL    HW110388   1.355   0.354   3.134 -0.1676 -0.0115 -0.8463
 3230SOL    HW210389   1.267   0.232   3.149  1.0301 -0.5540  2.7900
 3231SOL     OW10390   2.105   3.253   4.530 -0.2844  0.3078 -0.1461
 3231SOL    HW110391   2.189   3.217   4.554  0.1601  0.4621 -1.3895
 3231SOL    HW210392   2.041   3.187   4.556  0.2858 -0.1773  0.0223
 3232SOL     OW10393   0.214   3.947   3.108  0.1935  0.5212 -0.4657
 3232SOL    HW110394   0.175   3.885   3.169  1.3492  1.0717  0.8857
 3232SOL    HW210395   0.218   3.900   3.025 -3.4537  0.4998 -0.7673
 3233SOL     OW10396   0.799   4.868   1.327 -0.0982 -0.1208  0.3705
 3233SOL    HW110397   0.847   4.849   1.246 -1.2820 -0.0885 -0.3572
 3233SOL    HW210398   0.719   4.913   1.299 -2.0299 -2.7366  1.2208
 3234SOL     OW10399   3.715   3.509   2.923  0.2665  0.2993 -0.7139
 3234SOL    HW110400   3.773   3.433   2.932 -1.0126 -0.7907 -1.3840
 3234SOL    HW210401   3.774   3.584   2.933  1.4380 -0.7392  0.8981
 3235SOL     OW10402   2.239   0.967   0.996  0.2951  0.5080  0.3919
 3235SOL    HW110403   2.325   0.926   1.007 -0.1263 -0.4991  0.0744
 3235SOL    HW210404   2.203   0.926   0.917 -0.6800  0.5520  0.8040
 3236SOL     OW10405   0.431   2.412   4.076 -0.4120  0.1391 -0.4201
 3236SOL    HW110406   0.354   2.369   4.112  0.1093 -1.2916 -0.9419
 3236SOL    HW210407   0.433   2.384   3.985  0.5170  0.4786 -0.5104
 3237SOL     OW10408   2.934   1.666   4.302 -0.4138  0.2992 -0.2597
 3237SOL    HW110409   2.872   1.738   4.299 -0.6767  0.0590 -0.8439
 3237SOL    HW210410   3.020   1.708   4.309 -0.6683  0.6203  1.2807
 3238SOL     OW10411   4.550   2.026   1.482  0.0637 -0.0105  0.2042
 3238SOL    HW110412   4.526   2.118   1.493 -1.4629 -0.4476  0.9703
 3238SOL    HW210413   4.573   2.017   1.390  1.1856  1.3249  0.3324
 3239SOL     OW10414   2.199   1.530   0.035 -0.0279  0.0886  0.8417
 3239SOL    HW110415   2.254   1.608   0.044  0.7889 -0.6884  3.2247
 3239SOL    HW210416   2.109   1.564   0.034  0.3257  1.2828 -2.0994
 3240SOL     OW10417   2.594   0.634   1.037  0.1923 -0.2837  0.5637
 3240SOL    HW110418   2.612   0.654   1.129  0.1124  1.2997  0.2590
 3240SOL    HW210419   2.569   0.718   0.998 -0.6873 -1.0934 -0.7050
 3241SOL     OW10420   0.677   4.444   4.884 -1.0250  0.0317 -0.0861
 3241SOL    HW110421   0.707   4.525   4.842  1.1614 -0.1139  1.0327
 3241SOL    HW210422   0.738   4.377   4.854 -2.4778 -1.1447 -0.5589
 3242SOL     OW10423   4.805   2.019   1.648  0.3239  0.0125 -0.6814
 3242SOL    HW110424   4.721   2.018   1.602  0.9303 -1.2220 -1.8254
 3242SOL    HW210425   4.830   1.927   1.654  2.5811  0.4527 -2.2219
 3243SOL     OW10426   0.208   1.462   4.123  0.1817  0.0908 -0.1416
 3243SOL    HW110427   0.146   1.519   4.169  2.2344  0.9441  1.7324
 3243SOL    HW210428   0.262   1.522   4.071  1.2088 -0.3196  0.4334
 3244SOL     OW10429   1.202   3.744   0.163  0.2306 -0.2057  0.1189
 3244SOL    HW110430   1.212   3.738   0.068 -0.7387 -0.8652  0.0505
 3244SOL    HW210431   1.203   3.653   0.193  1.1646  0.0182  0.8240
 3245SOL     OW10432   3.447   2.375   0.860  0.1755 -0.3408  0.6588
 3245SOL    HW110433   3.466   2.286   0.831 -0.9600 -0.5554  0.5510
 3245SOL    HW210434   3.369   2.367   0.915  0.4458  0.4999  1.1900
 3246SOL     OW10435   4.535   0.857   1.114  0.7718  0.0996  0.1656
 3246SOL    HW110436   4.496   0.869   1.201 -2.7131  1.6540 -1.4057
 3246SOL    HW210437   4.554   0.764   1.109 -2.1062 -0.6663  1.4717
 3247SOL     OW10438   3.303   0.321   3.840  0.0599 -0.0463 -0.2552
 3247SOL    HW110439   3.293   0.311   3.745  0.4044  0.2720 -0.3273
 3247SOL    HW210440   3.345   0.240   3.868 -0.9752 -0.5942 -0.2179
 3248SOL     OW10441   5.216   3.427   0.985 -0.1854 -0.4056 -0.5922
 3248SOL    HW110442   5.204   3.395   1.075 -0.2698 -0.4821 -0.6308
 3248SOL    HW210443   5.203   3.350   0.930 -1.1033 -0.1686 -0.7268
 3249SOL     OW10444   2.007   4.160   3.702  0.2142 -0.4314  0.4984
 3249SOL    HW110445   2.050   4.153   3.616 -2.6554 -0.3975 -1.0665
 3249SOL    HW210446   2.080   4.163   3.765  2.4580  0.1114 -1.9296
 3250SOL     OW10447   5.051   1.359   3.581 -0.0240 -0.3934  0.4442
 3250SOL    HW110448   5.032   1.392   3.493  0.4335 -1.2786 -0.0009
 3250SOL    HW210449   5.130   1.406   3.608  0.1104 -0.4629  0.1802
 3251SOL     OW10450   1.742   4.805   1.891  0.1502 -0.3392 -0.5935
 3251SOL    HW110451   1.788   4.763   1.819 -0.9571 -2.1335 -0.3164
 3251SOL    HW210452   1.758   4.747   1.966  1.2395  1.4456  0.6490
 3252SOL     OW10453   4.898   0.554   4.282  0.1314  0.2232 -0.0804
 3252SOL    HW110454   4.840   0.487   4.245  1.2245  0.1744 -1.8288
 3252SOL    HW210455   4.876   0.634   4.234  0.1265  0.6943  0.6818
 3253SOL     OW10456   1.451   0.634   0.379 -0.1844 -0.3543  0.3894
 3253SOL    HW110457   1.494   0.581   0.312 -0.7642 -0.3798  0.0309
 3253SOL    HW210458   1.362   0.597   0.385 -1.0952  1.5063 -0.9125
 3254SOL     OW10459   3.766   2.565   0.271  0.8337  0.2939  0.3618
 3254SOL    HW110460   3.772   2.601   0.360  0.9065  1.2154 -0.0034
 3254SOL    HW210461   3.805   2.478   0.278 -0.1274 -0.0743  1.4535
 3255SOL     OW10462   4.411   4.288   1.385  0.1750 -0.0981  0.2631
 3255SOL    HW110463   4.359   4.217   1.422 -0.9142  1.0097  0.9075
 3255SOL    HW210464   4.502   4.265   1.406 -0.0476 -1.7544 -0.3601
 3256SOL     OW10465   1.288   1.764   0.625  0.0633  0.2991 -0.6255
 3256SOL    HW110466   1.214   1.719   0.584  0.4981 -0.1627 -0.9227
 3256SOL    HW210467   1.358   1.699   0.624 -0.2679 -0.2062  2.0541
 3257SOL     OW10468   0.377   5.093   4.364 -0.0757 -0.1257 -0.1799
 3257SOL    HW110469   0.378   5.114   4.271 -3.7328 -2.4084 -0.9618
 3257SOL    HW210470   0.444   5.025   4.374  2.5995  2.2970 -0.2969
 3258SOL     OW10471   0.923   4.366   4.328  0.5558 -0.2854 -0.7167
 3258SOL    HW110472   0.962   4.283   4.301 -0.4546 -0.8319 -0.5721
 3258SOL    HW210473   0.854   4.381   4.263 -0.4745 -0.5139  0.2984
 3259SOL     OW10474   4.698   0.291   2.449 -0.2578 -0.1975  0.3007
 3259SOL    HW110475   4.618   0.317   2.497 -1.1451 -1.4857 -0.4278
 3259SOL    HW210476   4.668   0.276   2.359  1.1397  0.9088 -0.3851
 3260SOL     OW10477   4.076   4.515   3.838  0.2767 -0.1120 -0.1634
 3260SOL    HW110478   4.000   4.574   3.831 -0.8741 -1.4364  0.5801
 3260SOL    HW210479   4.084   4.498   3.932  0.9271 -0.7123 -0.3185
 3261SOL     OW10480   2.315   2.889   1.478  0.3355 -0.0501 -0.2572
 3261SOL    HW110481   2.299   2.984   1.480 -1.4848 -0.3195  0.6652
 3261SOL    HW210482   2.408   2.880   1.494  0.4373  1.5804  0.3111
 3262SOL     OW10483   0.279   2.762   4.273 -0.4664 -0.1178  0.1830
 3262SOL    HW110484   0.200   2.802   4.237 -0.8738  0.0974  1.2725
 3262SOL    HW210485   0.349   2.825   4.257 -0.6057 -0.1026 -0.3670
 3263SOL     OW10486   3.474   0.181   4.000 -0.0589 -0.3192  0.6547
 3263SOL    HW110487   3.484   0.086   4.000 -0.1245 -0.3851 -1.9771
 3263SOL    HW210488   3.561   0.215   4.022 -0.1020 -0.9503  1.8795
 3264SOL     OW10489   3.467   2.797   3.166  0.0991  0.1444 -0.5600
 3264SOL    HW110490   3.374   2.821   3.158  0.7611  3.2516 -0.2053
 3264SOL    HW210491   3.498   2.792   3.076 -0.2081  0.0156 -0.6616
 3265SOL     OW10492   1.337   3.394   3.555 -0.3603 -0.0697 -0.2599
 3265SOL    HW110493   1.293   3.418   3.473  0.5840 -0.9605 -1.0495
 3265SOL    HW210494   1.346   3.477   3.602 -1.9189  0.2877 -0.5421
 3266SOL     OW10495   4.980   3.514   3.334 -0.6320  0.0323 -0.2848
 3266SOL    HW110496   4.895   3.480   3.306 -1.5798  1.0333  1.1914
 3266SOL    HW210497   4.993   3.594   3.282 -0.0687 -0.6649 -1.2507
 3267SOL     OW10498   1.278   3.713   3.075 -0.0264  0.7281 -1.0089
 3267SOL    HW110499   1.365   3.747   3.095 -0.4833 -0.1786  3.4111
 3267SOL    HW210500   1.218   3.780   3.106 -0.9940  0.7258 -2.7267
 3268SOL     OW10501   2.848   4.420   2.659 -0.4990  0.2986 -0.3149
 3268SOL    HW110502   2.892   4.357   2.716  3.6148  0.8745 -2.5443
 3268SOL    HW210503   2.812   4.367   2.588 -1.4326  0.0837  0.2872
 3269SOL     OW10504   3.204   4.748   5.371  0.5663 -0.7398  0.4036
 3269SOL    HW110505   3.213   4.692   5.294  0.2710 -1.6526  1.0171
 3269SOL    HW210506   3.266   4.712   5.434  2.1285  1.0795  0.0144
 3270SOL     OW10507   0.084   3.257   1.316 -0.3375 -0.3964  0.3636
 3270SOL    HW110508   0.128   3.177   1.288 -3.0857 -1.4064 -1.5988
 3270SOL    HW210509   0.125   3.326   1.265  0.7138 -0.8541  0.5630
 3271SOL     OW10510   0.919   1.278   3.188  0.0655  0.1056 -0.2381
 3271SOL    HW110511   0.957   1.211   3.131  0.4847 -0.7032  0.9460
 3271SOL    HW210512   0.833   1.296   3.150  1.0620  0.9792 -2.1980
 3272SOL     OW10513   1.683   3.145   0.181 -0.6758  0.2763 -0.2072
 3272SOL    HW110514   1.772   3.179   0.191 -0.9452  0.6491  1.0875
 3272SOL    HW210515   1.686   3.094   0.100  0.6541  0.4640 -0.3012
 3273SOL     OW10516   0.776   5.021   2.845 -0.1102 -0.1089 -0.1559
 3273SOL    HW110517   0.777   4.926   2.834  1.6020 -0.0434 -0.8984
 3273SOL    HW210518   0.707   5.051   2.786  0.3504 -0.7953 -1.0713
 3274SOL     OW10519   3.402   2.074   4.749 -0.8284  0.2631 -0.7558
 3274SOL    HW110520   3.441   2.147   4.703 -2.6211  0.6212 -1.7944
 3274SOL    HW210521   3.397   2.004   4.684 -2.7090  0.5350 -0.9645
 3275SOL     OW10522   0.154   0.977   3.521 -0.6940 -0.0950 -0.1923
 3275SOL    HW110523   0.212   1.047   3.491 -0.2414 -0.2734  0.2706
 3275SOL    HW210524   0.072   1.023   3.542 -0.5545  0.2269 -0.3388
 3276SOL     OW10525   2.891   2.114   4.944 -0.6798  0.6558  0.1883
 3276SOL    HW110526   2.857   2.144   5.029 -2.8808  0.6936 -0.6330
 3276SOL    HW210527   2.967   2.060   4.966 -2.3372 -0.9679  2.3676
 3277SOL     OW10528   0.666   3.860   3.280  0.0859 -0.1588  0.5751
 3277SOL    HW110529   0.665   3.903   3.366  0.0719 -0.5379  0.7667
 3277SOL    HW210530   0.623   3.922   3.222  0.1879  0.1457  0.8219
 3278SOL     OW10531   1.290   2.564   2.819  0.4607  0.1180 -0.6575
 3278SOL    HW110532   1.209   2.532   2.859  0.6940 -0.8410 -0.9196
 3278SOL    HW210533   1.262   2.635   2.761 -0.0659  0.4630  0.0099
 3279SOL     OW10534   0.689   5.391   1.674 -0.3442  0.2339 -0.3438
 3279SOL    HW110535   0.731   5.450   1.612 -1.1130  1.6524  0.4422
 3279SOL    HW210536   0.599   5.383   1.643 -1.4387  2.8325  1.7367
 3280SOL     OW10537   3.415   4.771   2.388  0.6691  0.3854 -0.0231
 3280SOL    HW110538   3.455   4.783   2.302  2.2358  2.2338  0.8982
 3280SOL    HW210539   3.474   4.815   2.449 -1.1192  0.3739  1.8426
 3281SOL     OW10540   4.782   3.810   4.597  0.7385  0.2372 -0.3156
 3281SOL    HW110541   4.747   3.813   4.507 -0.5519  0.7916  0.1764
 3281SOL    HW210542   4.857   3.869   4.595 -0.8731  2.4072 -0.4243
 3282SOL     OW10543   4.990   3.943   3.555  0.7627 -0.2482  0.2056
 3282SOL    HW110544   4.911   3.933   3.608 -0.0718 -3.2379 -1.3971
 3282SOL    HW210545   4.981   4.029   3.515 -0.8933  0.1225  1.2776
 3283SOL     OW10546   2.987   5.050   3.313 -0.4407  0.2753  0.0575
 3283SOL    HW110547   2.941   4.967   3.320 -0.5238  0.3375  0.2339
 3283SOL    HW210548   3.080   5.026   3.311 -0.4644  0.1798  0.1191
 3284SOL     OW10549   1.982   0.647   1.725 -0.1254  0.0878  0.5796
 3284SOL    HW110550   2.034   0.727   1.720  2.1399 -1.3378 -0.6708
 3284SOL    HW210551   1.955   0.631   1.635 -0.6094 -0.5119  0.8300
 3285SOL     OW10552   1.520   1.907   0.342  0.1903 -0.0356  0.7704
 3285SOL    HW110553   1.496   1.989   0.385  2.1827 -0.0881  2.0991
 3285SOL    HW210554   1.444   1.886   0.287 -0.6105  2.3846  0.8123
 3286SOL     OW10555   0.790   3.335   0.301  0.1704 -0.5865 -0.0225
 3286SOL    HW110556   0.823   3.404   0.243  2.1631 -0.6590  0.9264
 3286SOL    HW210557   0.830   3.255   0.268 -0.1629 -0.9097  0.3552
 3287SOL     OW10558   3.668   3.027   5.096 -0.7618  0.8229  0.1139
 3287SOL    HW110559   3.602   2.957   5.090 -0.8179  0.8791  0.0695
 3287SOL    HW210560   3.750   2.981   5.116 -0.8061  0.7483  0.1259
 3288SOL     OW10561   2.515   1.801   2.148  0.1806  0.5191 -0.0145
 3288SOL    HW110562   2.483   1.781   2.236  0.3822  0.6724  0.0940
 3288SOL    HW210563   2.516   1.716   2.103 -0.2489  0.4931  0.0220
 3289SOL     OW10564   1.797   4.395   1.429  0.1247 -0.0142 -0.0629
 3289SOL    HW110565   1.885   4.361   1.446  0.5020  0.1283 -1.6212
 3289SOL    HW210566   1.767   4.349   1.351 -0.4690  1.2090 -0.5938
 3290SOL     OW10567   4.763   3.538   0.576  0.7170  0.0950  0.2058
 3290SOL    HW110568   4.800   3.594   0.508  1.2002  0.1780  0.5339
 3290SOL    HW210569   4.828   3.539   0.646  1.4924 -2.1095 -0.4028
 3291SOL     OW10570   3.298   4.246   2.756 -0.5575 -0.2413 -0.0505
 3291SOL    HW110571   3.232   4.291   2.808 -1.2897 -1.2253 -0.1080
 3291SOL    HW210572   3.275   4.154   2.761  0.2250 -0.5049 -0.9027
 3292SOL     OW10573   1.699   4.774   2.500 -0.2620 -0.1132  0.2180
 3292SOL    HW110574   1.637   4.719   2.452 -0.8755  0.5863  0.1968
 3292SOL    HW210575   1.781   4.724   2.499 -0.6680 -0.7817 -0.2600
 3293SOL     OW10576   4.786   0.594   2.738  0.2021  0.4243 -0.7577
 3293SOL    HW110577   4.847   0.528   2.705  1.5379  1.2840 -0.1267
 3293SOL    HW210578   4.704   0.547   2.754  1.6686 -1.5688  1.5997
 3294SOL     OW10579   3.973   1.548   2.276  0.2749 -0.6472  0.3549
 3294SOL    HW110580   3.922   1.574   2.353  0.3792  2.0654 -0.4102
 3294SOL    HW210581   4.060   1.585   2.291  0.0811  0.6269 -1.3603
 3295SOL     OW10582   0.782   3.035   0.054  0.6778  0.0902  0.2264
 3295SOL    HW110583   0.826   3.068   0.132  0.2258 -0.1339  0.5866
 3295SOL    HW210584   0.766   3.113   0.000 -0.2001  0.4580  0.9750
 3296SOL     OW10585   0.141   2.057   1.756  0.4267 -0.0736  0.0693
 3296SOL    HW110586   0.149   1.980   1.812  0.8950 -1.3005 -1.6093
 3296SOL    HW210587   0.075   2.112   1.800 -0.4786 -1.7721  0.9187
 3297SOL     OW10588   1.013   2.662   1.197 -0.4751  0.1244  0.1758
 3297SOL    HW110589   1.056   2.715   1.129  0.7270 -0.8307  0.1547
 3297SOL    HW210590   0.973   2.726   1.256  0.6179  1.0356 -0.0474
 3298SOL     OW10591   5.151   1.997   4.030 -0.3635  0.6285 -0.0893
 3298SOL    HW110592   5.227   1.943   4.048 -1.4759 -1.2875 -0.8172
 3298SOL    HW210593   5.172   2.082   4.069  2.1403  0.1992 -0.3478
 3299SOL     OW10594   1.299   5.252   0.526  0.0666 -0.4017 -0.2641
 3299SOL    HW110595   1.348   5.249   0.608  1.4740 -0.0075 -1.0350
 3299SOL    HW210596   1.358   5.297   0.465 -0.7967 -0.9659 -1.5782
 3300SOL     OW10597   3.577   4.814   4.778  0.2661  0.3505  0.5170
 3300SOL    HW110598   3.573   4.735   4.724  2.1069  0.6297 -0.0763
 3300SOL    HW210599   3.521   4.877   4.732  1.0220  0.2656 -0.5408
 3301SOL     OW10600   1.101   1.333   1.164 -0.1285 -0.1122  0.0603
 3301SOL    HW110601   1.063   1.415   1.132  0.7228  0.9044  1.5047
 3301SOL    HW210602   1.026   1.274   1.173 -1.2728  1.4872  1.7908
 3302SOL     OW10603   1.452   1.293   2.341  0.1738 -0.1582 -0.2307
 3302SOL    HW110604   1.399   1.355   2.392  0.1288 -0.3464 -0.0462
 3302SOL    HW210605   1.387   1.236   2.299  0.2369 -0.7411  0.4392
 3303SOL     OW10606   2.557   2.366   1.203  0.1117  0.1528  0.2139
 3303SOL    HW110607   2.604   2.418   1.137  4.0177 -0.2014  2.3931
 3303SOL    HW210608   2.540   2.428   1.274  1.4655 -0.6679  1.3025
 3304SOL     OW10609   1.461   4.359   3.916  0.2626 -0.4133 -0.3744
 3304SOL    HW110610   1.430   4.360   4.006  0.9709 -2.2732 -0.0682
 3304SOL    HW210611   1.554   4.382   3.922  0.3901 -0.8681 -0.5860
 3305SOL     OW10612   1.163   4.214   2.889  0.1326  0.3493  0.1741
 3305SOL    HW110613   1.193   4.274   2.819  1.1433  1.8243  1.7815
 3305SOL    HW210614   1.182   4.127   2.855 -2.3234  0.7448 -2.7077
 3306SOL     OW10615   4.951   1.751   1.605 -0.5346 -0.2862  0.0118
 3306SOL    HW110616   5.037   1.714   1.628 -0.3052 -0.1592 -0.6295
 3306SOL    HW210617   4.960   1.778   1.514  0.3178  4.1695  1.1994
 3307SOL     OW10618   3.789   4.217   1.202  0.6072 -0.3032  0.0616
 3307SOL    HW110619   3.807   4.135   1.248 -0.3123 -0.8547 -0.5171
 3307SOL    HW210620   3.787   4.283   1.270 -1.9959 -1.2805  1.0659
 3308SOL     OW10621   4.478   1.242   1.882  0.0367  0.3700  0.0025
 3308SOL    HW110622   4.532   1.171   1.918 -0.8345 -0.7872 -0.8721
 3308SOL    HW210623   4.530   1.321   1.896  0.8661 -0.3662  1.3875
 3309SOL     OW10624   2.442   4.465   4.271  0.1040 -0.3059 -0.4895
 3309SOL    HW110625   2.521   4.489   4.223  0.4254 -1.9300 -0.8103
 3309SOL    HW210626   2.373   4.465   4.205 -0.0716  0.5702 -0.3159
 3310SOL     OW10627   3.008   2.573   1.922  0.0182 -0.4126  0.1233
 3310SOL    HW110628   2.999   2.487   1.881  0.5819 -0.4263  0.0264
 3310SOL    HW210629   2.964   2.563   2.006 -0.1217 -0.7270  0.0180
 3311SOL     OW10630   0.275   3.282   3.464  0.3050 -0.5548 -0.2991
 3311SOL    HW110631   0.195   3.230   3.461  1.2967 -2.1919 -3.8200
 3311SOL    HW210632   0.246   3.372   3.449 -1.0187 -0.8195  0.5450
 3312SOL     OW10633   3.049   1.991   3.458 -0.3007  0.6245 -0.4037
 3312SOL    HW110634   3.040   2.081   3.426 -0.8723  0.5865 -0.3592
 3312SOL    HW210635   2.963   1.970   3.495  0.0600  0.3274  0.2859
 3313SOL     OW10636   0.088   3.715   1.434  0.1113  0.4067 -0.2613
 3313SOL    HW110637   0.163   3.688   1.487  1.7144 -0.2079 -2.6588
 3313SOL    HW210638   0.024   3.645   1.447  0.7668 -0.1123  0.2699
 3314SOL     OW10639   5.267   4.873   0.895 -0.0601 -0.1787  0.0812
 3314SOL    HW110640   5.198   4.909   0.950  0.6293  1.1222  0.1369
 3314SOL    HW210641   5.220   4.823   0.828 -1.0849  0.8664 -0.0211
 3315SOL     OW10642   0.474   5.332   1.523  0.3308 -0.0459 -0.4902
 3315SOL    HW110643   0.441   5.380   1.447  0.4775 -2.4697 -2.2286
 3315SOL    HW210644   0.401   5.277   1.550  0.6396 -0.0275  0.4026
 3316SOL     OW10645   3.759   4.076   0.286  0.4355  0.0458 -0.1575
 3316SOL    HW110646   3.749   4.105   0.377  0.2283 -1.3240  0.2760
 3316SOL    HW210647   3.691   4.010   0.274  0.2846  0.3989 -1.3992
 3317SOL     OW10648   0.664   5.049   3.473 -1.0152  0.0020 -0.0126
 3317SOL    HW110649   0.578   5.040   3.431 -0.9500 -0.4730 -0.0497
 3317SOL    HW210650   0.685   4.960   3.503  0.6176 -0.4533 -2.2523
 3318SOL     OW10651   3.623   3.168   5.371  0.0918  0.1486 -0.5690
 3318SOL    HW110652   3.679   3.241   5.394 -0.3385  0.2329  0.2608
 3318SOL    HW210653   3.579   3.195   5.290  1.2894  0.0440 -1.2746
 3319SOL     OW10654   0.029   0.492   5.336 -0.2704  0.0436 -0.3603
 3319SOL    HW110655   0.013   0.527   5.249  0.0898  0.8108 -0.1219
 3319SOL    HW210656   0.025   0.397   5.324  1.4343  0.0775 -1.5424
 3320SOL     OW10657   0.342   0.749   2.792  0.0144 -0.3287 -0.4432
 3320SOL    HW110658   0.393   0.672   2.814 -3.1657 -2.6172 -0.4599
 3320SOL    HW210659   0.385   0.821   2.838  2.1762 -2.3744  0.8872
 3321SOL     OW10660   2.957   1.967   0.196 -0.1377  0.0602  0.2882
 3321SOL    HW110661   2.986   2.007   0.278  0.4460  0.8849 -0.2939
 3321SOL    HW210662   2.964   2.038   0.132 -1.2740 -0.3714 -0.3376
 3322SOL     OW10663   4.926   0.331   2.245  0.6758 -0.2531  0.7822
 3322SOL    HW110664   4.863   0.352   2.314  0.2086  1.2340 -0.0467
 3322SOL    HW210665   4.879   0.272   2.186 -0.8554  2.5538 -1.0320
 3323SOL     OW10666   5.381   2.647   5.121  0.3385 -0.2763  0.2708
 3323SOL    HW110667   5.433   2.714   5.078 -0.7143 -0.0995 -0.7605
 3323SOL    HW210668   5.388   2.668   5.214  2.0952 -0.2693  0.1767
 3324SOL     OW10669   2.139   2.922   2.217 -0.7081  1.2487  0.2450
 3324SOL    HW110670   2.174   2.908   2.129 -2.1233  0.3008 -0.1941
 3324SOL    HW210671   2.063   2.864   2.222  1.2967 -1.4391  3.2785
 3325SOL     OW10672   3.687   0.936   0.434 -0.1724  0.0221 -0.2271
 3325SOL    HW110673   3.610   0.990   0.421  1.2871  2.1314 -0.6579
 3325SOL    HW210674   3.663   0.876   0.504 -1.7308  1.5420  0.6209
 3326SOL     OW10675   0.130   2.379   0.539  0.2954  0.0803  0.0385
 3326SOL    HW110676   0.213   2.427   0.537 -0.3193  1.1453 -1.6945
 3326SOL    HW210677   0.116   2.360   0.632  1.1131  2.3344  0.6825
 3327SOL     OW10678   1.056   0.604   0.405 -0.4135 -0.1523  0.5217
 3327SOL    HW110679   1.086   0.690   0.375 -1.2902  1.1060  2.9336
 3327SOL    HW210680   1.125   0.543   0.379 -0.8999  0.7186 -3.5531
 3328SOL     OW10681   3.982   2.674   2.922 -0.1854 -0.5313 -0.4386
 3328SOL    HW110682   3.948   2.744   2.865  0.2948 -1.2753 -1.6922
 3328SOL    HW210683   3.905   2.622   2.945 -0.3191 -0.4978 -0.8006
 3329SOL     OW10684   2.276   2.291   3.808  0.0788 -0.0643 -0.0498
 3329SOL    HW110685   2.286   2.383   3.832  0.2461  0.0966 -0.7275
 3329SOL    HW210686   2.230   2.292   3.724 -2.0804 -0.6873  1.0506
 3330SOL     OW10687   3.259   2.383   4.115 -0.3656 -0.8831  0.0045
 3330SOL    HW110688   3.313   2.461   4.118  0.0859 -1.1107 -1.4998
 3330SOL    HW210689   3.257   2.352   4.205  0.6877  0.0202  0.3613
 3331SOL     OW10690   1.026   5.306   4.274  0.3313 -0.4408 -0.6419
 3331SOL    HW110691   0.944   5.338   4.312  0.4865 -1.6313  0.7851
 3331SOL    HW210692   0.999   5.247   4.204  0.0237  0.5469 -1.3881
 3332SOL     OW10693   5.122   1.578   2.855 -0.2440 -0.0242 -0.2984
 3332SOL    HW110694   5.055   1.632   2.814  0.7950  0.6592 -1.1559
 3332SOL    HW210695   5.179   1.552   2.783  1.1944  0.5604  0.5872
 3333SOL     OW10696   4.946   2.276   0.437  0.4691  0.4391 -0.1666
 3333SOL    HW110697   5.037   2.280   0.406  0.4072  1.2356 -0.2499
 3333SOL    HW210698   4.948   2.211   0.508  0.6754 -1.1921 -1.5903
 3334SOL     OW10699   2.534   4.761   4.263 -0.3145  0.4335 -0.3250
 3334SOL    HW110700   2.610   4.786   4.315 -0.3375  1.7556 -0.9134
 3334SOL    HW210701   2.474   4.722   4.327  0.5014  0.1239  0.2750
 3335SOL     OW10702   0.460   2.961   4.260 -0.3319 -0.3451  0.2988
 3335SOL    HW110703   0.432   2.979   4.171 -0.8166 -1.5938  0.1786
 3335SOL    HW210704   0.554   2.944   4.253 -0.4580 -0.9279 -0.0603
 3336SOL     OW10705   4.440   1.946   0.065 -0.7419 -0.3128  0.3729
 3336SOL    HW110706   4.416   1.866   0.112  0.1557 -0.6629  0.2477
 3336SOL    HW210707   4.438   2.014   0.132 -0.5659 -0.6116  0.6860
 3337SOL     OW10708   5.023   4.599   1.168  0.1016  0.2714  0.2021
 3337SOL    HW110709   4.950   4.652   1.136  0.4352  0.7113  0.1676
 3337SOL    HW210710   5.016   4.604   1.263 -1.2446 -1.5168  0.2503
 3338SOL     OW10711   3.882   3.613   3.423 -0.0337 -0.0242 -0.0786
 3338SOL    HW110712   3.929   3.641   3.345  0.7480 -1.3812 -0.1137
 3338SOL    HW210713   3.792   3.644   3.408  0.4649  1.1786 -0.7409
 3339SOL     OW10714   1.175   4.120   0.951  0.1224 -0.5874  0.3730
 3339SOL    HW110715   1.233   4.192   0.926 -0.9505 -0.0132 -0.5284
 3339SOL    HW210716   1.137   4.147   1.035 -1.4997  0.6896 -0.7092
 3340SOL     OW10717   3.206   2.300   4.377 -0.2710 -0.2858  0.0178
 3340SOL    HW110718   3.218   2.390   4.408 -1.3851 -0.2762  0.4601
 3340SOL    HW210719   3.112   2.286   4.381 -0.0749 -1.6115  0.3205
 3341SOL     OW10720   1.584   2.759   1.617 -0.2068  0.6545  0.6856
 3341SOL    HW110721   1.521   2.827   1.641 -1.0090 -0.0677  0.6716
 3341SOL    HW210722   1.550   2.679   1.658  0.3724  0.1331  0.1670
 3342SOL     OW10723   0.631   2.544   0.245 -0.2778  0.7672 -0.1534
 3342SOL    HW110724   0.716   2.579   0.218  1.2978 -3.0429 -0.7873
 3342SOL    HW210725   0.605   2.487   0.172 -3.2192  1.4368  0.2403
 3343SOL     OW10726   0.417   2.505   2.858 -0.3650 -0.4424  0.6508
 3343SOL    HW110727   0.471   2.444   2.808  1.0394  1.2013  0.0392
 3343SOL    HW210728   0.332   2.505   2.814  0.6252  0.4347 -1.3748
 3344SOL     OW10729   5.110   3.080   2.935  0.2020  0.3485  0.3036
 3344SOL    HW110730   5.188   3.029   2.957 -0.2961 -0.8920 -0.6929
 3344SOL    HW210731   5.050   3.016   2.896 -0.6422  1.6181 -0.5282
 3345SOL     OW10732   2.389   2.345   0.450 -0.0426 -0.1968 -0.3819
 3345SOL    HW110733   2.389   2.388   0.365 -0.8499  1.2437  0.2990
 3345SOL    HW210734   2.297   2.348   0.478  0.2923 -0.1546  0.7561
 3346SOL     OW10735   0.067   0.060   4.708  0.1136  0.7736 -0.0620
 3346SOL    HW110736   0.117   0.125   4.757 -1.5052  1.5564  0.6181
 3346SOL    HW210737   0.133   0.011   4.659  1.6166  1.1800  1.4604
 3347SOL     OW10738   3.845   1.401   3.213  0.0751 -0.2444 -0.0106
 3347SOL    HW110739   3.904   1.380   3.140  0.9144 -0.0692  0.5988
 3347SOL    HW210740   3.852   1.326   3.272 -1.7047 -1.0494 -0.7646
 3348SOL     OW10741   0.883   4.034   3.622  0.8781  0.1020  0.0951
 3348SOL    HW110742   0.902   4.096   3.552  1.6713 -1.4617 -1.1325
 3348SOL    HW210743   0.796   3.999   3.602  1.4116 -0.8906 -0.5614
 3349SOL     OW10744   2.508   2.938   3.457 -0.2364 -0.3049  0.1116
 3349SOL    HW110745   2.455   2.865   3.491 -0.3659 -0.2829 -0.0407
 3349SOL    HW210746   2.461   3.017   3.484  0.0598 -0.2723  0.5280
 3350SOL     OW10747   4.913   5.164   2.829 -0.2336  0.4595 -0.3091
 3350SOL    HW110748   4.858   5.089   2.807  0.1949  0.4181 -1.2919
 3350SOL    HW210749   4.969   5.133   2.900 -2.8306  1.1192  2.2161
 3351SOL     OW10750   4.218   4.511   1.785 -0.9789 -0.2105 -0.1558
 3351SOL    HW110751   4.221   4.606   1.772  2.4583 -0.2041 -0.0597
 3351SOL    HW210752   4.226   4.499   1.879 -1.7469 -0.6232 -0.1345
 3352SOL     OW10753   5.372   4.272   0.266  0.3482  0.1047 -0.3808
 3352SOL    HW110754   5.278   4.259   0.276  0.6631 -0.9005  1.6579
 3352SOL    HW210755   5.405   4.186   0.237  0.5828  0.6746 -1.9412
 3353SOL     OW10756   1.106   3.610   2.172  0.3135 -0.0646 -0.2543
 3353SOL    HW110757   1.154   3.622   2.253 -1.3330 -0.5584  0.8365
 3353SOL    HW210758   1.014   3.603   2.198 -0.1103 -2.0157 -1.9578
 3354SOL     OW10759   3.010   4.929   0.672 -0.5070  0.1248 -0.0144
 3354SOL    HW110760   3.024   4.908   0.580 -1.8291  0.6101 -0.3553
 3354SOL    HW210761   2.953   4.859   0.704  0.7247 -0.5863  0.7247
 3355SOL     OW10762   2.769   3.446   2.661  0.4138 -0.2903 -0.6498
 3355SOL    HW110763   2.714   3.371   2.681 -0.4834  0.4864 -0.1436
 3355SOL    HW210764   2.726   3.488   2.586  1.1881 -0.5550 -1.2570
 3356SOL     OW10765   5.330   1.992   4.466 -0.4459  0.0495  0.6953
 3356SOL    HW110766   5.389   2.031   4.531 -1.6683  0.4340  1.6198
 3356SOL    HW210767   5.270   2.063   4.442  0.2066  0.0315 -1.1823
 3357SOL     OW10768   4.084   1.902   0.213 -0.0772  0.2910  0.5555
 3357SOL    HW110769   4.170   1.904   0.173 -0.0732 -0.6361  0.4784
 3357SOL    HW210770   4.026   1.946   0.151 -0.2523 -1.9521 -0.9733
 3358SOL     OW10771   3.098   5.098   1.888 -0.4288  0.3342 -0.2552
 3358SOL    HW110772   3.045   5.107   1.809  1.1882  1.0017 -1.3231
 3358SOL    HW210773   3.132   5.186   1.904  1.3571 -0.2997 -0.3691
 3359SOL     OW10774   5.119   1.850   2.457  0.0386 -0.2487 -0.5968
 3359SOL    HW110775   5.116   1.830   2.364 -2.0590 -2.1652 -0.2357
 3359SOL    HW210776   5.151   1.940   2.462  0.5715 -0.2263 -3.1109
 3360SOL     OW10777   3.190   1.984   3.788 -0.3180 -0.2071 -0.1612
 3360SOL    HW110778   3.258   1.922   3.760 -2.2954 -2.2036 -0.8096
 3360SOL    HW210779   3.142   1.937   3.856  0.6328  2.2700  2.4063
 3361SOL     OW10780   2.572   0.506   2.903 -0.3731 -0.4475  0.0596
 3361SOL    HW110781   2.625   0.473   2.830 -1.8166  0.2768 -1.3759
 3361SOL    HW210782   2.542   0.428   2.948 -0.4310 -0.9616 -0.8433
 3362SOL     OW10783   4.116   4.655   4.119  0.0385  0.2090  0.2408
 3362SOL    HW110784   4.025   4.683   4.107  0.5191  1.1159 -1.7025
 3362SOL    HW210785   4.145   4.702   4.196 -1.2667 -0.5031  1.2145
 3363SOL     OW10786   1.609   2.022   3.206 -0.3743  0.0878  0.0813
 3363SOL    HW110787   1.678   1.987   3.262  0.3448  0.6309 -0.4431
 3363SOL    HW210788   1.553   1.947   3.188  0.5088 -0.5484 -0.1063
 3364SOL     OW10789   1.014   0.669   3.765 -0.3105  0.1623  0.0826
 3364SOL    HW110790   0.921   0.649   3.752 -0.5512  0.9122  0.5569
 3364SOL    HW210791   1.015   0.763   3.786  0.7034  0.5383 -1.4828
 3365SOL     OW10792   0.566   2.960   5.013 -0.1806 -0.1524  0.8225
 3365SOL    HW110793   0.556   3.042   5.061  0.3554 -0.6522  1.8023
 3365SOL    HW210794   0.610   2.986   4.932 -1.4352  0.7492  0.3933
 3366SOL     OW10795   4.972   0.824   2.470 -0.0713  0.5147  0.0428
 3366SOL    HW110796   4.937   0.910   2.494 -1.4105 -0.3141  1.2194
 3366SOL    HW210797   4.898   0.777   2.433  0.6203 -0.1941 -0.4834
 3367SOL     OW10798   4.469   1.359   4.984 -0.2234  1.2530 -0.0788
 3367SOL    HW110799   4.556   1.375   5.021 -0.4580  1.6255  0.3219
 3367SOL    HW210800   4.411   1.415   5.035 -0.7293  0.8530 -0.2107
 3368SOL     OW10801   2.786   3.737   4.921  0.2463  0.2138  0.2694
 3368SOL    HW110802   2.697   3.747   4.954  0.7541 -1.8978  2.5812
 3368SOL    HW210803   2.778   3.751   4.826 -2.4936  0.1455  0.4067
 3369SOL     OW10804   4.747   2.492   2.417 -0.0834  0.0721  0.1276
 3369SOL    HW110805   4.752   2.488   2.513  1.8937  1.4256  0.1328
 3369SOL    HW210806   4.838   2.499   2.388 -0.6272 -0.4620 -1.8786
 3370SOL     OW10807   1.561   1.611   0.910  0.2643 -0.3854  0.7090
 3370SOL    HW110808   1.470   1.634   0.890  0.6588  0.2010 -0.5577
 3370SOL    HW210809   1.563   1.516   0.908 -0.6149 -0.4653  2.2500
 3371SOL     OW10810   0.554   1.571   0.787 -0.3427  0.7175 -0.2453
 3371SOL    HW110811   0.470   1.527   0.776 -0.2477  0.1238  1.1663
 3371SOL    HW210812   0.549   1.647   0.729  0.3847 -2.2320 -4.6607
 3372SOL     OW10813   4.403   4.018   3.324 -0.1081 -0.0473 -0.1064
 3372SOL    HW110814   4.405   4.113   3.335 -1.0824 -0.0167 -0.0756
 3372SOL    HW210815   4.491   3.989   3.345  0.0751  0.8041  0.3348
 3373SOL     OW10816   3.721   0.855   4.499 -0.4264 -0.6789 -0.5962
 3373SOL    HW110817   3.746   0.943   4.471 -0.1568 -0.4254  0.3881
 3373SOL    HW210818   3.635   0.866   4.540 -0.4399 -0.8969 -0.5619
 3374SOL     OW10819   3.982   0.330   3.870 -0.2816  0.0207  0.3328
 3374SOL    HW110820   4.020   0.324   3.958 -1.9002 -5.9480  1.0579
 3374SOL    HW210821   4.048   0.290   3.813 -0.0228  2.1323 -0.9227
 3375SOL     OW10822   2.496   4.996   4.524  0.5646  0.0592 -0.5893
 3375SOL    HW110823   2.510   5.028   4.613  1.7436 -0.7260 -0.4668
 3375SOL    HW210824   2.427   5.052   4.488 -1.1242 -0.6388  1.3782
 3376SOL     OW10825   3.982   2.346   2.646 -0.1826  0.0470  0.6826
 3376SOL    HW110826   3.894   2.383   2.645  0.1269  0.8720 -0.9921
 3376SOL    HW210827   3.969   2.254   2.667 -1.5966 -0.1263 -0.7433
 3377SOL     OW10828   0.573   1.209   4.930  0.2978 -1.2535 -0.2244
 3377SOL    HW110829   0.558   1.182   5.020  1.6943 -1.5033 -0.0348
 3377SOL    HW210830   0.665   1.185   4.913  0.9661  1.3701 -0.7643
 3378SOL     OW10831   4.354   3.845   4.471  0.2114 -0.3185 -0.4642
 3378SOL    HW110832   4.357   3.938   4.494 -3.1026 -0.3371  0.6235
 3378SOL    HW210833   4.331   3.844   4.378  3.2770 -0.2032 -1.3552
 3379SOL     OW10834   1.585   2.926   4.897 -0.0707  0.1360 -0.1601
 3379SOL    HW110835   1.603   2.982   4.822 -0.2557  0.0435 -0.2750
 3379SOL    HW210836   1.668   2.920   4.943 -0.0796  0.5977 -0.0830
 3380SOL     OW10837   0.639   2.392   2.682  0.0863 -0.1498  0.0067
 3380SOL    HW110838   0.568   2.330   2.666 -0.9653  0.6028  1.4989
 3380SOL    HW210839   0.670   2.416   2.595  0.6562 -2.8515 -0.6309
 3381SOL     OW10840   3.540   4.249   0.770  0.1204 -0.0741  0.0995
 3381SOL    HW110841   3.630   4.236   0.740  0.0871 -0.3534  0.1195
 3381SOL    HW210842   3.505   4.161   0.781  0.4810 -0.0204  1.9916
 3382SOL     OW10843   0.266   4.617   0.709  0.5117 -0.4197 -0.2490
 3382SOL    HW110844   0.292   4.705   0.684 -0.3804 -0.3343 -0.9162
 3382SOL    HW210845   0.232   4.626   0.798 -0.3701  0.0680 -0.6303
 3383SOL     OW10846   4.759   2.495   3.056 -0.3554 -0.3826  0.3502
 3383SOL    HW110847   4.763   2.404   3.025 -0.5472 -0.4062  0.3937
 3383SOL    HW210848   4.744   2.487   3.150 -1.8690 -0.3029  0.1454
 3384SOL     OW10849   3.724   1.749   4.208 -0.1330 -0.2583  0.0097
 3384SOL    HW110850   3.638   1.790   4.214  0.4153  0.9174  0.1232
 3384SOL    HW210851   3.731   1.696   4.288 -0.0956  0.9787  0.8583
 3385SOL     OW10852   1.448   4.412   4.185  0.0360 -0.2927  0.3890
 3385SOL    HW110853   1.505   4.343   4.220  0.2125 -0.4747 -0.2332
 3385SOL    HW210854   1.476   4.492   4.231  0.6387 -0.4250  0.2655
 3386SOL     OW10855   4.307   0.143   5.213 -0.2098  0.6444 -0.0743
 3386SOL    HW110856   4.371   0.081   5.176 -0.8623  0.4149 -0.8491
 3386SOL    HW210857   4.330   0.227   5.174  0.6980  0.9222  1.0040
 3387SOL     OW10858   4.362   2.336   3.004 -0.0088  0.0336 -0.2487
 3387SOL    HW110859   4.291   2.332   2.941 -1.0762  0.3194  0.8946
 3387SOL    HW210860   4.353   2.256   3.056 -0.2517  0.6521  0.6775
 3388SOL     OW10861   0.970   3.119   0.265  0.0579 -0.4160 -0.0060
 3388SOL    HW110862   1.058   3.119   0.226  0.5108  1.1207  0.9041
 3388SOL    HW210863   0.975   3.052   0.333 -0.4337 -2.4158 -1.8502
 3389SOL     OW10864   2.419   4.499   3.351  0.0630  0.1002  0.4918
 3389SOL    HW110865   2.484   4.487   3.421 -1.8913 -1.4183  2.1585
 3389SOL    HW210866   2.396   4.410   3.325 -0.6880  0.6342 -0.7219
 3390SOL     OW10867   0.589   2.261   4.229 -0.4065 -0.4725 -0.1597
 3390SOL    HW110868   0.540   2.330   4.184  0.7074  1.1934  1.0286
 3390SOL    HW210869   0.581   2.282   4.322  2.4149 -0.1189  0.1028
 3391SOL     OW10870   1.281   4.381   0.992  0.5232  0.1833 -0.2261
 3391SOL    HW110871   1.188   4.400   0.979  0.4586 -1.0272 -1.8179
 3391SOL    HW210872   1.292   4.381   1.087 -1.2131 -0.1389  0.0153
 3392SOL     OW10873   0.203   4.658   1.692 -0.2343  0.2315  0.3274
 3392SOL    HW110874   0.188   4.602   1.616  0.4245  2.1469 -1.3087
 3392SOL    HW210875   0.288   4.630   1.726 -0.3856 -0.4388  0.1665
 3393SOL     OW10876   3.245   0.588   2.968  0.1797  0.0912 -0.4815
 3393SOL    HW110877   3.205   0.650   2.906 -1.6218  0.3893  0.9205
 3393SOL    HW210878   3.183   0.515   2.972 -0.8267  0.9872  2.4488
 3394SOL     OW10879   5.320   1.843   1.767  0.8405 -0.2361 -0.1179
 3394SOL    HW110880   5.296   1.881   1.852 -2.0379 -0.9595 -0.5119
 3394SOL    HW210881   5.376   1.909   1.727  0.9491  0.8419  1.6943
 3395SOL     OW10882   1.940   1.447   3.556 -0.2434  0.4094 -0.3545
 3395SOL    HW110883   1.856   1.477   3.591 -0.1861  0.9901 -0.7040
 3395SOL    HW210884   1.917   1.394   3.480 -0.3511 -0.5618  0.3377
 3396SOL     OW10885   2.691   0.359   0.996 -0.3392  0.0924  0.0713
 3396SOL    HW110886   2.665   0.445   1.029 -1.6081 -0.3211  0.1724
 3396SOL    HW210887   2.614   0.304   1.007  0.4035 -1.0261 -0.1561
 3397SOL     OW10888   3.760   0.044   1.397  0.1328  0.1703 -0.7669
 3397SOL    HW110889   3.853   0.061   1.380  0.1255  1.0656 -0.0070
 3397SOL    HW210890   3.716   0.068   1.315  0.4430  1.0896 -0.6796
 3398SOL     OW10891   1.652   3.261   2.565  0.1710  0.1081 -0.6255
 3398SOL    HW110892   1.637   3.177   2.607  0.4433  1.2230  1.8381
 3398SOL    HW210893   1.711   3.242   2.492 -0.6259 -1.9586 -0.7772
 3399SOL     OW10894   3.245   5.055   2.239  0.1731 -0.2335 -0.0754
 3399SOL    HW110895   3.188   5.000   2.185 -0.6397  1.5778 -1.1525
 3399SOL    HW210896   3.333   5.038   2.205  0.2732 -2.5789  1.1828
 3400SOL     OW10897   2.320   4.269   3.578 -0.4532  0.0903  0.1727
 3400SOL    HW110898   2.403   4.306   3.609 -0.4396  0.5201 -0.3563
 3400SOL    HW210899   2.329   4.268   3.483 -1.0377  0.0895  0.1182
 3401SOL     OW10900   4.886   0.731   1.164  0.1128  0.0144 -0.3754
 3401SOL    HW110901   4.863   0.816   1.201 -1.3401 -1.2961  1.9760
 3401SOL    HW210902   4.803   0.694   1.134  0.4727 -1.2239  0.1030
 3402SOL     OW10903   0.711   0.273   3.377 -0.4399  0.0069  0.2242
 3402SOL    HW110904   0.668   0.358   3.364  0.2663  0.4970  0.9588
 3402SOL    HW210905   0.639   0.210   3.381 -1.1794  0.8974  2.1209
 3403SOL     OW10906   3.307   4.113   1.236 -0.1396 -0.2737  0.5391
 3403SOL    HW110907   3.240   4.080   1.295 -0.2343 -1.0552  0.0054
 3403SOL    HW210908   3.260   4.133   1.155  0.4898 -2.2616 -0.3629
 3404SOL     OW10909   1.449   5.305   4.832 -0.2262 -1.1260  0.4125
 3404SOL    HW110910   1.404   5.389   4.837 -0.6680 -1.3488  0.2508
 3404SOL    HW210911   1.445   5.281   4.739 -0.9794 -1.7859  0.5947
 3405SOL     OW10912   3.194   1.420   4.383  0.1608 -0.2520  0.2175
 3405SOL    HW110913   3.207   1.512   4.406 -0.0889 -0.2149  0.2040
 3405SOL    HW210914   3.265   1.374   4.429  0.1592 -0.0810  0.3932
 3406SOL     OW10915   2.193   2.527   1.934 -0.1658  0.8176  0.2733
 3406SOL    HW110916   2.285   2.521   1.961  0.3415  1.1047 -1.2778
 3406SOL    HW210917   2.150   2.455   1.979  1.2937 -0.7589 -0.7049
 3407SOL     OW10918   3.055   4.054   1.810  0.0569 -0.5788  0.1915
 3407SOL    HW110919   3.025   4.145   1.807 -0.2322 -0.6907 -0.9575
 3407SOL    HW210920   3.131   4.056   1.868  0.8187  0.6304 -0.7901
 3408SOL     OW10921   3.374   5.114   1.524  0.5178 -0.0659  0.1800
 3408SOL    HW110922   3.425   5.076   1.596 -0.2561  0.2476  0.9158
 3408SOL    HW210923   3.361   5.042   1.463 -2.1736 -1.4861  2.2210
 3409SOL     OW10924   3.106   4.253   0.505  0.2195  0.4746  0.0564
 3409SOL    HW110925   3.076   4.204   0.428  1.2882 -0.0318 -0.0541
 3409SOL    HW210926   3.057   4.215   0.578  0.6001 -0.3625 -0.1116
 3410SOL     OW10927   3.133   1.773   0.825 -0.2336 -0.9318 -0.1242
 3410SOL    HW110928   3.062   1.802   0.768 -0.5941 -0.2754  0.6324
 3410SOL    HW210929   3.209   1.824   0.796 -0.6881  0.2663  0.7064
 3411SOL     OW10930   4.259   2.639   0.767  0.2277  0.3242 -0.1363
 3411SOL    HW110931   4.276   2.545   0.767 -0.4506  0.1262 -2.3214
 3411SOL    HW210932   4.297   2.670   0.684 -0.4399  1.7895  0.0701
 3412SOL     OW10933   2.382   2.981   0.933 -0.0740 -0.0038  0.6130
 3412SOL    HW110934   2.442   2.936   0.873 -0.6669  0.3104 -0.2513
 3412SOL    HW210935   2.299   2.985   0.884 -0.2611  1.2688  0.9962
 3413SOL     OW10936   1.849   4.211   0.763 -0.2470  0.0309  0.0736
 3413SOL    HW110937   1.767   4.214   0.713 -1.1736 -0.0012  1.5415
 3413SOL    HW210938   1.887   4.298   0.752 -1.5332  0.7565  1.0469
 3414SOL     OW10939   3.561   1.665   0.853 -0.1264  0.7703 -0.1390
 3414SOL    HW110940   3.533   1.658   0.762  0.4691  0.7216 -0.3245
 3414SOL    HW210941   3.529   1.751   0.882 -1.4343  0.2571  0.0100
 3415SOL     OW10942   4.068   0.394   3.059 -0.0107  0.6889 -0.9335
 3415SOL    HW110943   4.024   0.316   3.092  2.1517  0.3468  1.4563
 3415SOL    HW210944   4.148   0.361   3.018  1.5878  1.5685  1.2309
 3416SOL     OW10945   4.994   0.759   0.237 -0.0242 -0.6836 -0.1185
 3416SOL    HW110946   4.910   0.742   0.280 -0.8593  2.2748 -0.3336
 3416SOL    HW210947   5.049   0.793   0.307 -1.1528  3.4369 -0.9405
 3417SOL     OW10948   2.935   2.356   2.533 -0.1675 -0.3178  0.1698
 3417SOL    HW110949   2.986   2.283   2.498 -1.0872 -0.7647 -0.2613
 3417SOL    HW210950   2.977   2.434   2.496 -1.3429 -0.7790 -2.3304
 3418SOL     OW10951   0.522   3.393   0.096 -0.2116  0.8159 -0.1277
 3418SOL    HW110952   0.465   3.341   0.153 -0.3036  0.0517 -0.8990
 3418SOL    HW210953   0.556   3.462   0.153 -0.2496  0.0390  0.8731
 3419SOL     OW10954   5.029   0.945   3.044 -0.0512 -0.0053 -0.3065
 3419SOL    HW110955   5.016   1.020   2.987 -1.4630  0.5509  0.6730
 3419SOL    HW210956   4.959   0.885   3.021  0.3309 -0.4822 -0.2416
 3420SOL     OW10957   0.853   3.692   0.919 -0.0418  0.2367  0.2444
 3420SOL    HW110958   0.805   3.632   0.975  1.3161 -1.3997 -0.2578
 3420SOL    HW210959   0.793   3.764   0.903 -0.9491  0.0879  2.6642
 3421SOL     OW10960   0.932   3.386   0.531  0.0489  0.6482  0.2624
 3421SOL    HW110961   0.903   3.392   0.623 -0.8990 -1.1080  0.1319
 3421SOL    HW210962   0.859   3.342   0.487  1.5218 -0.8374 -0.8044
 3422SOL     OW10963   2.166   4.855   4.462 -0.4526 -0.4292  0.4855
 3422SOL    HW110964   2.209   4.878   4.544 -0.0045 -0.4541  0.2628
 3422SOL    HW210965   2.196   4.766   4.443 -0.7318 -0.5085  0.4093
 3423SOL     OW10966   4.047   4.189   5.313 -0.4193 -0.1252 -0.4194
 3423SOL    HW110967   4.009   4.125   5.373  1.2775 -0.8758 -0.0977
 3423SOL    HW210968   4.073   4.138   5.236  2.4577 -0.2326  0.4970
 3424SOL     OW10969   1.774   1.853   2.633 -0.1078 -0.3827 -0.4796
 3424SOL    HW110970   1.813   1.796   2.699 -0.1664 -0.3481 -0.4153
 3424SOL    HW210971   1.804   1.941   2.657 -0.4645 -0.3181 -0.2566
 3425SOL     OW10972   2.573   4.012   4.435  0.4281  0.0465 -0.5964
 3425SOL    HW110973   2.504   4.077   4.423  1.5118  1.0999 -1.3610
 3425SOL    HW210974   2.542   3.958   4.508 -1.6711 -0.2020 -1.6020
 3426SOL     OW10975   1.464   2.824   3.328  0.1964 -0.0653 -0.0203
 3426SOL    HW110976   1.520   2.782   3.394  0.3898  1.1453  0.6219
 3426SOL    HW210977   1.512   2.903   3.304 -1.7354  1.6794  1.4543
 3427SOL     OW10978   5.190   3.018   1.060 -0.3972 -0.0038  1.0143
 3427SOL    HW110979   5.272   2.968   1.052 -0.2657  0.4164 -0.7180
 3427SOL    HW210980   5.122   2.952   1.050 -0.2301  0.1541 -2.3121
 3428SOL     OW10981   5.124   1.103   1.521 -0.2688 -0.0236 -0.8686
 3428SOL    HW110982   5.036   1.122   1.552 -0.0726  0.2004 -0.4451
 3428SOL    HW210983   5.113   1.034   1.456 -0.4896 -1.9190  1.0774
 3429SOL     OW10984   3.600   3.440   5.075  0.0349 -0.2570  0.7949
 3429SOL    HW110985   3.561   3.484   4.999 -1.5629 -0.7002  1.3174
 3429SOL    HW210986   3.678   3.397   5.039 -0.1203  0.3859 -0.3791
 3430SOL     OW10987   4.060   1.099   4.270  0.1112  1.0974 -0.6251
 3430SOL    HW110988   3.984   1.047   4.246 -0.9615  2.7878 -1.0379
 3430SOL    HW210989   4.062   1.096   4.366  0.6628 -0.4725 -0.6577
 3431SOL     OW10990   4.983   4.500   4.644 -0.2952 -0.4038  0.6853
 3431SOL    HW110991   4.899   4.503   4.690  1.3772  1.0224  3.9634
 3431SOL    HW210992   5.047   4.529   4.709  2.9822 -2.7848 -1.1988
 3432SOL     OW10993   1.921   1.956   5.187  0.0981  0.4431 -0.1801
 3432SOL    HW110994   1.991   1.945   5.252 -0.3496  1.3609  0.4674
 3432SOL    HW210995   1.967   1.980   5.107  0.5530  0.8945  0.2062
 3433SOL     OW10996   1.014   2.193   0.545 -0.4505 -0.2816  0.3205
 3433SOL    HW110997   0.987   2.105   0.571  0.1201 -1.2985 -2.2257
 3433SOL    HW210998   0.933   2.244   0.542 -0.7383 -0.5684  2.1689
 3434SOL     OW10999   0.300   0.240   2.698 -0.4665 -0.1223 -0.2756
 3434SOL    HW111000   0.270   0.239   2.788  0.5468  2.6345  0.1909
 3434SOL    HW211001   0.355   0.162   2.690 -2.7745 -1.9397  0.5833
 3435SOL     OW11002   3.292   4.658   5.127 -0.0732  0.2035 -0.1716
 3435SOL    HW111003   3.336   4.730   5.083 -0.7836  0.4476 -0.4935
 3435SOL    HW211004   3.364   4.601   5.157  0.5210  1.2799  0.5232
 3436SOL     OW11005   4.621   1.612   3.578 -0.0109  0.2761  0.0121
 3436SOL    HW111006   4.537   1.652   3.602  0.4564  2.9996 -2.3425
 3436SOL    HW211007   4.686   1.679   3.601  1.0092  0.2182 -2.4619
 3437SOL     OW11008   1.813   2.921   3.908 -0.7533  0.1366 -0.1899
 3437SOL    HW111009   1.881   2.981   3.939  1.1340 -0.5188 -2.7648
 3437SOL    HW211010   1.795   2.864   3.983  1.8554  0.0784  0.4608
 3438SOL     OW11011   5.085   2.765   2.957  0.1518  0.3495 -0.1066
 3438SOL    HW111012   5.125   2.680   2.940 -0.3939 -1.3149  5.1424
 3438SOL    HW211013   5.001   2.761   2.912 -0.7775 -2.9430  1.5826
 3439SOL     OW11014   1.884   2.098   2.747 -0.0304 -0.3789 -0.6008
 3439SOL    HW111015   1.791   2.118   2.737 -0.3172 -0.6920  1.1970
 3439SOL    HW211016   1.925   2.182   2.765 -0.1457 -0.4021 -0.2279
 3440SOL     OW11017   3.647   0.032   4.261  0.0498 -0.5459 -0.2611
 3440SOL    HW111018   3.711   0.096   4.231  1.3484 -1.5677  0.2254
 3440SOL    HW211019   3.576   0.084   4.298 -0.6502  0.7006 -3.0734
 3441SOL     OW11020   2.569   2.810   1.518  0.6429 -0.0040 -0.1116
 3441SOL    HW111021   2.569   2.715   1.533 -1.9614 -0.6213 -2.9450
 3441SOL    HW211022   2.643   2.826   1.460 -1.1511 -1.1731 -2.9727
 3442SOL     OW11023   3.478   3.320   3.489  0.5732  0.0001  0.6565
 3442SOL    HW111024   3.434   3.257   3.547 -0.0479  0.8200  1.1038
 3442SOL    HW211025   3.563   3.334   3.531  0.2028  0.4430  1.2835
 3443SOL     OW11026   3.977   0.658   4.294  0.8678  0.1137 -0.2299
 3443SOL    HW111027   3.975   0.587   4.359 -1.5558 -0.0828 -0.4414
 3443SOL    HW211028   4.069   0.662   4.267  1.7868 -0.4216  2.4982
 3444SOL     OW11029   3.083   0.390   2.530  0.0864  0.1385 -0.5895
 3444SOL    HW111030   3.028   0.313   2.540 -0.7813  1.0265  2.4473
 3444SOL    HW211031   3.027   0.463   2.556  1.9800  1.3603  0.2914
 3445SOL     OW11032   0.320   2.797   2.376  0.2192 -0.0495 -0.0662
 3445SOL    HW111033   0.363   2.725   2.422 -0.1156 -0.9021 -1.0298
 3445SOL    HW211034   0.385   2.867   2.375  1.2360 -0.9557 -0.6064
 3446SOL     OW11035   1.463   1.187   0.646 -0.0499 -0.1083 -0.7046
 3446SOL    HW111036   1.450   1.109   0.593 -0.2535  1.7063 -3.5657
 3446SOL    HW211037   1.430   1.259   0.592  2.6656  2.3133  0.5237
 3447SOL     OW11038   4.509   4.973   1.395  0.1785 -0.1288 -0.1924
 3447SOL    HW111039   4.579   4.947   1.335 -1.0278 -0.2625 -1.6122
 3447SOL    HW211040   4.478   4.890   1.433 -0.8561 -0.3928 -1.5108
 3448SOL     OW11041   1.457   4.365   0.126 -0.2104  0.8096  0.2845
 3448SOL    HW111042   1.468   4.292   0.066  1.7474  2.0207 -0.9503
 3448SOL    HW211043   1.391   4.421   0.086 -0.1465  0.7739  0.1311
 3449SOL     OW11044   1.881   2.876   3.642 -0.3013 -0.2410  0.3036
 3449SOL    HW111045   1.853   2.899   3.731 -2.0339 -1.5534  0.1345
 3449SOL    HW211046   1.908   2.959   3.604 -2.1798  0.8117  1.1511
 3450SOL     OW11047   0.647   1.984   4.367 -0.0917 -0.6404  0.2696
 3450SOL    HW111048   0.573   1.987   4.306 -0.0691 -1.0168  0.2199
 3450SOL    HW211049   0.612   2.017   4.450  0.1585  0.9045 -0.2231
 3451SOL     OW11050   5.059   0.018   3.197 -0.5626 -0.1466 -0.1368
 3451SOL    HW111051   5.017   0.052   3.118  0.1985 -1.2562 -1.0512
 3451SOL    HW211052   5.003   0.048   3.269 -1.3290  0.7960 -1.0887
 3452SOL     OW11053   3.450   3.250   5.187  0.6298 -0.6190 -0.3692
 3452SOL    HW111054   3.485   3.320   5.132  0.1877 -0.1850 -0.1082
 3452SOL    HW211055   3.418   3.295   5.265  0.0111 -1.0692 -0.3580
 3453SOL     OW11056   3.984   1.321   1.049  0.3095  0.1268 -0.4334
 3453SOL    HW111057   3.891   1.341   1.060  0.3103 -0.3041  0.4677
 3453SOL    HW211058   3.992   1.289   0.960 -0.9711 -2.7606  0.3700
 3454SOL     OW11059   2.575   4.566   4.592 -0.1529  0.0682  0.6330
 3454SOL    HW111060   2.553   4.570   4.685 -0.6921 -1.4224  0.6024
 3454SOL    HW211061   2.668   4.591   4.588  0.0326 -0.4140  1.6539
 3455SOL     OW11062   1.547   4.028   0.918 -0.5694 -0.6832 -0.1065
 3455SOL    HW111063   1.505   4.090   0.858  0.4787  0.6357  0.4552
 3455SOL    HW211064   1.501   3.946   0.904 -4.4823  0.9431  1.5291
 3456SOL     OW11065   0.517   1.369   0.392 -0.0916 -0.4123  0.0199
 3456SOL    HW111066   0.473   1.425   0.328 -0.4514 -0.1789  0.4624
 3456SOL    HW211067   0.572   1.429   0.442 -0.6172 -0.4130  0.6166
 3457SOL     OW11068   3.550   3.996   1.290 -0.0865 -0.0663  0.0247
 3457SOL    HW111069   3.508   4.014   1.206  0.4732 -0.1229 -0.2772
 3457SOL    HW211070   3.479   3.968   1.348 -0.5540  0.4596 -0.2825
 3458SOL     OW11071   4.834   3.437   4.392 -0.5649 -0.3578 -0.4087
 3458SOL    HW111072   4.793   3.445   4.305  0.0264 -0.5933 -0.7114
 3458SOL    HW211073   4.795   3.358   4.429 -0.2856 -0.6625 -0.7564
 3459SOL     OW11074   3.043   4.781   4.874 -0.2619  0.0572  0.0530
 3459SOL    HW111075   2.948   4.790   4.864 -0.4476 -0.5477  1.1398
 3459SOL    HW211076   3.054   4.709   4.935  0.9065  0.1997  0.0305
 3460SOL     OW11077   1.149   1.089   4.450  0.2440  0.2068 -0.3718
 3460SOL    HW111078   1.160   1.146   4.374  1.2740  2.0641  1.0818
 3460SOL    HW211079   1.235   1.088   4.493 -0.2574 -0.9139  0.6970
 3461SOL     OW11080   1.245   1.410   4.053 -0.5748  0.6808 -0.1712
 3461SOL    HW111081   1.173   1.463   4.086 -1.7213 -0.0993 -1.3229
 3461SOL    HW211082   1.232   1.408   3.958  1.2804  0.9589 -0.4680
 3462SOL     OW11083   4.276   1.476   2.579  0.0880 -0.0384  0.1413
 3462SOL    HW111084   4.256   1.410   2.513 -1.4458 -1.4353  1.9132
 3462SOL    HW211085   4.371   1.470   2.592  0.1170 -1.1117 -0.5167
 3463SOL     OW11086   0.627   4.964   4.609  0.0070  0.7941 -0.2913
 3463SOL    HW111087   0.569   4.898   4.572  1.2367  0.0250 -0.9139
 3463SOL    HW211088   0.630   4.943   4.703  1.7184 -1.1858 -0.7082
 3464SOL     OW11089   4.085   4.056   4.722  0.0255  0.6100  0.5506
 3464SOL    HW111090   4.154   4.058   4.655  0.9087  0.9349  1.4397
 3464SOL    HW211091   4.006   4.084   4.676  0.0194 -1.6820 -0.9941
 3465SOL     OW11092   2.633   3.959   2.017 -0.2788 -0.4366  0.0321
 3465SOL    HW111093   2.671   4.037   2.057 -0.4438  0.1924 -1.0071
 3465SOL    HW211094   2.703   3.923   1.963 -0.7574  0.0327 -0.9232
 3466SOL     OW11095   3.190   4.203   3.045  0.0859  0.1450 -0.3457
 3466SOL    HW111096   3.246   4.145   2.994  0.4491  1.6661 -1.7724
 3466SOL    HW211097   3.240   4.223   3.124 -0.5519 -2.3843  0.7767
 3467SOL     OW11098   5.138   1.164   0.027 -0.1776  1.0705  0.2629
 3467SOL    HW111099   5.107   1.164   0.118  0.8755 -0.8807  0.6737
 3467SOL    HW211100   5.202   1.235   0.023  1.1591 -0.0039  1.5957
 3468SOL     OW11101   3.854   3.980   4.045  0.3155  0.2992 -0.0074
 3468SOL    HW111102   3.835   3.889   4.065 -0.3112  0.3986 -0.1233
 3468SOL    HW211103   3.795   4.002   3.972  0.5095  0.7712 -0.0284
 3469SOL     OW11104   1.990   0.934   2.256  0.1615 -0.0558  1.5298
 3469SOL    HW111105   1.982   1.003   2.322  0.3699  1.0189  0.4634
 3469SOL    HW211106   1.907   0.937   2.208  0.0817 -0.7088  1.6221
 3470SOL     OW11107   0.499   1.113   0.434 -0.7478 -0.4531  0.7808
 3470SOL    HW111108   0.594   1.107   0.439 -0.6893  0.1459  0.4529
 3470SOL    HW211109   0.479   1.205   0.455 -1.3232 -0.7924  1.8001
 3471SOL     OW11110   4.300   0.685   3.934 -0.1559  0.0928  0.0472
 3471SOL    HW111111   4.233   0.731   3.984 -0.3145 -0.1576  0.0653
 3471SOL    HW211112   4.381   0.703   3.983 -0.2347  0.2503  0.1227
 3472SOL     OW11113   4.486   4.245   0.429 -0.3130  0.3202 -0.2630
 3472SOL    HW111114   4.463   4.210   0.515 -0.7259 -0.5723 -0.7245
 3472SOL    HW211115   4.406   4.289   0.399 -0.4967 -0.2477 -0.6177
 3473SOL     OW11116   1.888   4.466   0.417 -0.5328  0.3017  0.1097
 3473SOL    HW111117   1.944   4.430   0.349  0.5240  2.9337 -0.5362
 3473SOL    HW211118   1.819   4.400   0.429  0.1510 -0.9770 -2.3145
 3474SOL     OW11119   2.787   2.967   3.318 -0.1956  0.1034 -0.1675
 3474SOL    HW111120   2.779   2.896   3.254 -1.2129 -0.4617  0.5466
 3474SOL    HW211121   2.746   3.042   3.274  0.9035  0.2759 -0.9346
 3475SOL     OW11122   1.936   1.333   3.293 -0.5211  0.4452 -0.5663
 3475SOL    HW111123   1.899   1.255   3.251  0.4639  0.6850 -1.9344
 3475SOL    HW211124   1.960   1.391   3.221 -0.3757  1.6338  0.3967
 3476SOL     OW11125   4.294   2.115   3.162 -0.2061  0.1418  0.4285
 3476SOL    HW111126   4.312   2.125   3.256  0.4123 -1.1780  0.4698
 3476SOL    HW211127   4.202   2.088   3.159 -0.4524  0.9468  0.6003
 3477SOL     OW11128   2.711   1.586   0.913  0.2332 -0.2887  0.7206
 3477SOL    HW111129   2.646   1.655   0.910  0.7305  0.2384 -2.9849
 3477SOL    HW211130   2.758   1.600   0.995 -2.3207  1.1235  2.0500
 3478SOL     OW11131   4.065   2.126   4.735  0.1285  0.1446 -0.0190
 3478SOL    HW111132   4.083   2.053   4.675 -0.3429  0.3504 -0.4166
 3478SOL    HW211133   4.033   2.084   4.815  0.4039 -0.1118 -0.0372
 3479SOL     OW11134   3.745   2.210   2.453  0.1173  0.0929 -0.2981
 3479SOL    HW111135   3.734   2.296   2.493  1.4098  0.8460 -1.4772
 3479SOL    HW211136   3.829   2.178   2.486 -0.5289 -0.9164  0.4317
 3480SOL     OW11137   4.960   0.339   4.742 -0.6209 -0.0918  0.4228
 3480SOL    HW111138   4.945   0.250   4.775  0.2106 -0.5659 -0.4070
 3480SOL    HW211139   5.055   0.343   4.730 -0.9015 -0.2308 -2.5666
 3481SOL     OW11140   3.138   5.182   3.551 -0.2423  0.1898  0.0492
 3481SOL    HW111141   3.145   5.177   3.455 -0.4442 -0.8422  0.0707
 3481SOL    HW211142   3.146   5.275   3.571 -0.7294  0.4787 -1.0120
 3482SOL     OW11143   3.978   2.025   2.895 -0.1406 -0.5537 -0.6617
 3482SOL    HW111144   3.927   1.945   2.881 -0.2734 -0.4349 -0.8589
 3482SOL    HW211145   4.001   2.023   2.988 -0.6624 -0.5124 -0.5296
 3483SOL     OW11146   2.670   3.622   0.896 -0.2983 -0.0310 -0.3431
 3483SOL    HW111147   2.733   3.608   0.967 -0.1554  1.2950 -0.1930
 3483SOL    HW211148   2.587   3.593   0.932  0.2534 -2.3208 -0.7197
 3484SOL     OW11149   2.258   3.165   2.544 -0.1394  0.1436 -0.2577
 3484SOL    HW111150   2.280   3.180   2.636 -1.1845 -0.7593  0.1453
 3484SOL    HW211151   2.166   3.191   2.536 -0.5111 -1.2106 -0.6847
 3485SOL     OW11152   2.313   4.985   0.820  0.4202  0.0792  0.2711
 3485SOL    HW111153   2.351   4.919   0.877  0.3923  0.4455  0.7199
 3485SOL    HW211154   2.336   5.068   0.861  0.8257  0.3655 -0.5164
 3486SOL     OW11155   1.440   1.639   3.907 -0.0500 -0.5079 -0.1978
 3486SOL    HW111156   1.467   1.564   3.853  2.2229  0.7072 -0.8763
 3486SOL    HW211157   1.476   1.620   3.994  1.2640  0.0972 -0.5704
 3487SOL     OW11158   4.690   2.748   3.963 -0.3984  0.0347  0.0768
 3487SOL    HW111159   4.613   2.695   3.983 -0.4154 -0.7605 -1.8052
 3487SOL    HW211160   4.756   2.719   4.024 -0.9798 -0.8120  0.3248
 3488SOL     OW11161   5.278   2.864   4.252 -0.0740  0.0381 -0.3687
 3488SOL    HW111162   5.364   2.857   4.212  0.1878 -0.8730  0.3314
 3488SOL    HW211163   5.294   2.861   4.346 -0.9365 -1.2641 -0.2340
 3489SOL     OW11164   1.429   0.797   1.662  0.2850 -0.5469  0.1563
 3489SOL    HW111165   1.516   0.757   1.665  1.0479  1.0922  0.6842
 3489SOL    HW211166   1.371   0.733   1.704  1.4544 -1.1134  0.9361
 3490SOL     OW11167   4.348   5.007   0.363 -0.9235 -0.0892  0.2676
 3490SOL    HW111168   4.322   4.997   0.455 -0.6720  0.0532  0.3531
 3490SOL    HW211169   4.336   4.920   0.325 -1.3801 -0.0619  0.3464
 3491SOL     OW11170   0.642   3.111   1.640 -0.0023 -0.0731 -0.6423
 3491SOL    HW111171   0.636   3.042   1.706 -0.5156 -0.1928 -0.8097
 3491SOL    HW211172   0.676   3.067   1.562  1.9973  0.3475 -0.0705
 3492SOL     OW11173   0.383   3.952   5.127  0.3018  0.2104  0.4716
 3492SOL    HW111174   0.326   3.965   5.204 -0.3155  0.1826  0.0271
 3492SOL    HW211175   0.395   3.857   5.121 -0.6647  0.1131 -0.1753
 3493SOL     OW11176   3.172   2.521   4.710 -0.3765 -0.2128 -0.0308
 3493SOL    HW111177   3.243   2.497   4.768 -1.1138 -1.6555  0.3239
 3493SOL    HW211178   3.139   2.604   4.745 -0.1453 -0.5414  0.9951
 3494SOL     OW11179   1.670   1.502   4.846  0.1073  0.0827  0.2004
 3494SOL    HW111180   1.729   1.572   4.873 -0.4721  0.9405 -0.6796
 3494SOL    HW211181   1.677   1.500   4.751 -0.6454 -0.3601  0.1491
 3495SOL     OW11182   1.304   1.974   2.969 -0.1982 -0.0881 -0.6862
 3495SOL    HW111183   1.229   2.003   2.917 -0.1663 -1.7868 -1.7324
 3495SOL    HW211184   1.270   1.901   3.022  0.8121 -1.2547 -1.5891
 3496SOL     OW11185   2.610   2.774   0.491  0.2063  0.0322  0.2668
 3496SOL    HW111186   2.674   2.758   0.422  1.7356  1.7183  1.2412
 3496SOL    HW211187   2.660   2.808   0.564 -1.8059  1.4969  1.0532
 3497SOL     OW11188   3.131   4.470   4.156 -0.0549  0.2191 -0.2876
 3497SOL    HW111189   3.158   4.391   4.203  1.3465 -0.0873 -1.5346
 3497SOL    HW211190   3.035   4.469   4.160 -0.3478 -3.3760 -3.1143
 3498SOL     OW11191   1.296   1.194   1.051  0.2842 -0.1675 -0.5291
 3498SOL    HW111192   1.241   1.251   1.104  1.0999 -1.1080  1.4199
 3498SOL    HW211193   1.234   1.133   1.010 -0.5401  1.6895 -2.2421
 3499SOL     OW11194   2.655   3.220   2.779 -0.6343  0.3407 -0.0148
 3499SOL    HW111195   2.573   3.242   2.823  0.0928  0.0599  1.5591
 3499SOL    HW211196   2.722   3.226   2.848  0.6024  0.0884 -1.1411
 3500SOL     OW11197   5.390   0.331   3.513 -0.2199 -0.0869  0.0812
 3500SOL    HW111198   5.404   0.412   3.465 -3.3132  1.4432  1.4426
 3500SOL    HW211199   5.460   0.328   3.577 -0.1100  1.6228  0.0816
 3501SOL     OW11200   4.059   1.421   1.483  0.3279  0.4037  0.0422
 3501SOL    HW111201   4.037   1.453   1.395 -0.9019  1.2394  0.6199
 3501SOL    HW211202   4.143   1.462   1.504 -0.3911  1.9357  0.0775
 3502SOL     OW11203   2.786   2.718   0.304  0.5515 -0.0791  0.1884
 3502SOL    HW111204   2.813   2.628   0.323  0.1278 -0.1793  0.3361
 3502SOL    HW211205   2.868   2.767   0.294  0.8019 -0.1815  1.5379
 3503SOL     OW11206   3.647   4.565   1.139 -0.5563 -0.3429 -0.1484
 3503SOL    HW111207   3.608   4.628   1.200  0.1361  0.3861 -0.4401
 3503SOL    HW211208   3.728   4.537   1.182  0.3231  0.7425 -1.0363
 3504SOL     OW11209   4.907   1.144   4.656 -0.2752  0.0723  0.0185
 3504SOL    HW111210   4.966   1.070   4.642 -1.1712 -0.5140 -0.7900
 3504SOL    HW211211   4.922   1.201   4.580  1.0665  1.1962  1.0895
 3505SOL     OW11212   2.750   1.592   4.690  0.2727 -0.1196 -0.0431
 3505SOL    HW111213   2.839   1.590   4.655  0.8524 -1.1984  1.3677
 3505SOL    HW211214   2.745   1.675   4.737  0.4418  0.0678 -0.3494
 3506SOL     OW11215   4.433   5.315   3.665  0.5352  0.0167  0.5233
 3506SOL    HW111216   4.481   5.390   3.631  0.9328 -0.8725 -0.9438
 3506SOL    HW211217   4.363   5.354   3.718  0.3307  1.4591 -0.7358
 3507SOL     OW11218   5.147   1.994   4.740 -0.1382 -0.3643  0.1099
 3507SOL    HW111219   5.214   1.951   4.793  0.4034 -1.6285 -1.5137
 3507SOL    HW211220   5.064   1.960   4.772  0.1580 -0.8451  0.3681
 3508SOL     OW11221   3.905   3.353   2.156 -0.3088  0.3352  0.6410
 3508SOL    HW111222   3.867   3.429   2.113  0.3087  2.1472  3.0793
 3508SOL    HW211223   3.920   3.290   2.085 -0.3243  2.6652 -1.5725
 3509SOL     OW11224   4.039   0.191   4.500 -0.6612  0.3031  0.3322
 3509SOL    HW111225   4.129   0.160   4.495 -0.5371  0.6576  0.3654
 3509SOL    HW211226   3.990   0.118   4.538 -0.2004  0.5018  1.3146
 3510SOL     OW11227   4.296   2.411   4.309 -0.2913 -0.0072 -0.0607
 3510SOL    HW111228   4.354   2.405   4.234  0.2685 -2.5239  0.4942
 3510SOL    HW211229   4.308   2.328   4.356  1.4447  2.3765  4.3124
 3511SOL     OW11230   2.496   3.340   0.393 -0.3103 -0.5004 -0.2995
 3511SOL    HW111231   2.437   3.359   0.465 -1.1416 -0.0193 -1.0917
 3511SOL    HW211232   2.524   3.250   0.409 -0.1494 -0.2696  0.8349
 3512SOL     OW11233   4.864   1.448   0.781 -0.2358  0.0135 -0.2542
 3512SOL    HW111234   4.877   1.354   0.787 -0.4659 -0.0048 -0.0410
 3512SOL    HW211235   4.775   1.463   0.813 -0.4420  0.2348 -0.9252
 3513SOL     OW11236   0.809   2.646   0.652 -0.5558  0.2854 -0.2003
 3513SOL    HW111237   0.888   2.630   0.704 -0.6406  1.8398  0.4682
 3513SOL    HW211238   0.741   2.665   0.717 -2.0949 -3.0832 -0.6240
 3514SOL     OW11239   4.333   0.811   2.617 -0.0728 -0.3243 -0.5176
 3514SOL    HW111240   4.361   0.902   2.607  0.3817 -0.4556 -0.4426
 3514SOL    HW211241   4.264   0.801   2.551  0.5889 -0.2225 -1.2420
 3515SOL     OW11242   2.131   4.035   0.993 -0.0865 -0.0414  0.6553
 3515SOL    HW111243   2.065   4.050   1.061 -0.4929  2.3152 -0.1762
 3515SOL    HW211244   2.083   3.992   0.922 -0.3552  0.2488  0.6611
 3516SOL     OW11245   2.869   4.105   3.504 -0.0497  0.2019  0.1621
 3516SOL    HW111246   2.845   4.013   3.512  1.2375 -0.2355 -0.6825
 3516SOL    HW211247   2.957   4.110   3.541  1.5505  0.2422 -3.2459
 3517SOL     OW11248   0.541   4.629   1.243  0.6771  0.4490 -0.1540
 3517SOL    HW111249   0.529   4.656   1.334 -1.0326  2.0458 -0.7974
 3517SOL    HW211250   0.548   4.712   1.195 -1.9673 -0.2328 -1.8907
 3518SOL     OW11251   0.155   5.231   5.113 -0.3031  0.1143 -0.1796
 3518SOL    HW111252   0.141   5.196   5.200  0.7492  0.4126  0.1171
 3518SOL    HW211253   0.227   5.293   5.123 -1.0561  1.1693 -0.9926
 3519SOL     OW11254   2.255   5.350   0.731 -0.3799 -0.0720 -0.8419
 3519SOL    HW111255   2.171   5.356   0.776 -0.5906 -2.9673 -0.6589
 3519SOL    HW211256   2.315   5.316   0.797  0.3743 -0.2061 -1.5875
 3520SOL     OW11257   2.715   2.236   0.237  0.2433 -0.5854  1.0091
 3520SOL    HW111258   2.638   2.205   0.188  1.3946 -2.1568  0.1086
 3520SOL    HW211259   2.716   2.181   0.316  1.0035 -1.2930  0.5172
 3521SOL     OW11260   3.972   4.971   0.235  0.5540 -0.1685  0.0467
 3521SOL    HW111261   4.035   4.913   0.193  1.3131  1.0374 -0.5102
 3521SOL    HW211262   3.918   4.912   0.289  0.9478 -1.4485 -0.9080
 3522SOL     OW11263   2.374   1.139   4.730 -0.0692 -0.4026 -0.1527
 3522SOL    HW111264   2.300   1.078   4.732  1.0599 -1.8373  0.7299
 3522SOL    HW211265   2.335   1.226   4.734 -1.7012 -1.1171  0.1703
 3523SOL     OW11266   3.171   0.064   3.462  0.2863  0.3243 -0.8408
 3523SOL    HW111267   3.156   0.108   3.378 -0.3086  0.0651 -0.8787
 3523SOL    HW211268   3.245   0.110   3.500  0.2722  0.7450 -1.3040
 3524SOL     OW11269   1.974   4.935   4.796  0.6064  0.3297  0.1562
 3524SOL    HW111270   2.013   4.983   4.869 -0.7847  1.6670  0.0682
 3524SOL    HW211271   2.040   4.870   4.772  2.2312  1.6539  0.8266
 3525SOL     OW11272   1.607   2.439   0.493 -0.2099 -0.4984 -0.1088
 3525SOL    HW111273   1.611   2.366   0.555  0.5093  0.1417  0.6317
 3525SOL    HW211274   1.699   2.463   0.478 -0.3879  2.0345  1.8948
 3526SOL     OW11275   1.791   3.599   0.837  0.1925  0.1522 -0.3068
 3526SOL    HW111276   1.857   3.531   0.828  0.2537  0.1022  0.4347
 3526SOL    HW211277   1.837   3.673   0.876 -0.3235 -0.1473  0.9441
 3527SOL     OW11278   5.320   3.047   2.039  0.3941  0.0779 -0.2952
 3527SOL    HW111279   5.261   3.118   2.016 -0.7676 -0.4261  1.0050
 3527SOL    HW211280   5.398   3.062   1.985 -0.7494  0.9637 -1.7742
 3528SOL     OW11281   0.305   1.605   3.083  0.2808  0.3659 -0.3969
 3528SOL    HW111282   0.212   1.624   3.094  0.1605  0.6351 -1.8144
 3528SOL    HW211283   0.308   1.511   3.065  0.2883  0.3488 -0.3073
 3529SOL     OW11284   2.062   3.591   2.081 -0.2190 -0.1331 -0.3363
 3529SOL    HW111285   1.987   3.610   2.024  0.7051  2.2308 -0.8628
 3529SOL    HW211286   2.024   3.584   2.169 -1.1409  0.3864 -0.6774
 3530SOL     OW11287   1.929   1.926   0.762  0.0915  0.5695  0.2072
 3530SOL    HW111288   1.920   1.860   0.831  0.3415 -1.7252 -1.8050
 3530SOL    HW211289   1.839   1.942   0.733  0.1238  0.2717 -0.0535
 3531SOL     OW11290   3.350   0.577   0.775 -0.2825  0.6239 -0.0684
 3531SOL    HW111291   3.432   0.534   0.750  0.9425  2.3207  0.8242
 3531SOL    HW211292   3.373   0.631   0.850 -1.4658  3.4846 -1.6137
 3532SOL     OW11293   1.229   0.978   5.005 -0.1301  0.4034  0.5447
 3532SOL    HW111294   1.163   0.927   5.051 -0.0679 -0.1823  0.0103
 3532SOL    HW211295   1.204   1.069   5.020  0.0365  0.2437  1.9282
 3533SOL     OW11296   3.061   4.728   1.140  0.1639 -0.0699 -0.0004
 3533SOL    HW111297   3.150   4.753   1.166  0.2342  1.5246 -1.5831
 3533SOL    HW211298   3.030   4.801   1.085 -1.4230 -1.4265 -1.0185
 3534SOL     OW11299   5.289   5.081   4.124  0.5228  0.5666 -0.2567
 3534SOL    HW111300   5.376   5.042   4.118  0.6684  0.9706 -0.8578
 3534SOL    HW211301   5.232   5.009   4.152  1.6615  1.1779  4.4113
 3535SOL     OW11302   4.931   3.666   4.842  0.0136 -0.4575 -1.0026
 3535SOL    HW111303   4.875   3.702   4.774 -0.7661 -0.6893 -0.4971
 3535SOL    HW211304   4.952   3.741   4.898 -3.2063 -0.9767  1.1819
 3536SOL     OW11305   4.806   1.361   2.477 -0.3874 -0.4160 -0.3741
 3536SOL    HW111306   4.809   1.290   2.413  0.5925  0.8457 -1.7966
 3536SOL    HW211307   4.874   1.422   2.448 -0.1438  0.3563  1.7086
 3537SOL     OW11308   2.579   2.130   0.771  0.3842  0.8617  0.3014
 3537SOL    HW111309   2.620   2.046   0.747  0.5966  1.2623 -0.7917
 3537SOL    HW211310   2.599   2.140   0.864 -1.4682 -1.3288  1.0150
 3538SOL     OW11311   4.951   3.874   5.009 -0.6941  0.2107  0.2912
 3538SOL    HW111312   5.023   3.916   4.962 -1.2366  0.3596 -0.4268
 3538SOL    HW211313   4.990   3.843   5.091 -0.0130  1.0284  0.2825
 3539SOL     OW11314   0.224   4.255   4.466 -0.0124  0.7105 -0.0680
 3539SOL    HW111315   0.171   4.175   4.468  0.1190  0.6379  1.0082
 3539SOL    HW211316   0.234   4.280   4.558 -0.1920  2.0660 -0.3916
 3540SOL     OW11317   1.792   3.854   3.495  0.0514 -0.0188  0.1571
 3540SOL    HW111318   1.772   3.762   3.476 -0.3422 -0.1134  0.9960
 3540SOL    HW211319   1.709   3.891   3.524  0.6109  0.1001  1.7175
 3541SOL     OW11320   3.839   2.299   0.326  0.1400 -0.4249 -0.1634
 3541SOL    HW111321   3.873   2.211   0.309  2.7755  0.6459 -0.9651
 3541SOL    HW211322   3.860   2.317   0.417  2.0696  0.3065 -0.7087
 3542SOL     OW11323   1.060   4.682   0.196 -0.3976 -0.1078  0.5808
 3542SOL    HW111324   1.105   4.632   0.264  1.8239 -0.0421 -0.7482
 3542SOL    HW211325   1.026   4.759   0.242  0.3951 -0.4340  1.7522
 3543SOL     OW11326   4.526   0.450   2.773 -0.0552 -0.0524 -0.2862
 3543SOL    HW111327   4.566   0.371   2.736  2.9971  1.5538 -0.6914
 3543SOL    HW211328   4.486   0.493   2.697 -0.5128 -0.5055 -0.3098
 3544SOL     OW11329   1.565   4.554   1.826  0.6581 -0.1710  0.6865
 3544SOL    HW111330   1.595   4.612   1.756 -0.9085  1.0466  0.9882
 3544SOL    HW211331   1.595   4.467   1.799  0.7545  0.3862 -1.0934
 3545SOL     OW11332   4.511   1.571   0.719 -0.3211 -0.2479 -0.1471
 3545SOL    HW111333   4.537   1.534   0.803  0.3775  0.2308 -0.1463
 3545SOL    HW211334   4.552   1.513   0.654 -1.2077 -0.8667 -0.1757
 3546SOL     OW11335   4.860   3.374   1.568  0.0261 -0.1166  0.5006
 3546SOL    HW111336   4.916   3.389   1.644 -0.7879 -0.2556  1.1341
 3546SOL    HW211337   4.787   3.322   1.601 -0.0908 -0.6150 -0.4819
 3547SOL     OW11338   4.090   4.151   0.443  0.3330 -0.0471  0.7221
 3547SOL    HW111339   4.119   4.204   0.517  2.3583 -2.1266  1.5462
 3547SOL    HW211340   4.039   4.080   0.484 -0.1275 -0.1893 -0.0800
 3548SOL     OW11341   3.845   4.152   4.629  0.0740 -0.3235 -0.2872
 3548SOL    HW111342   3.766   4.190   4.669  1.3900  1.0923  1.0878
 3548SOL    HW211343   3.827   4.154   4.535 -2.5298 -2.4122  0.0466
 3549SOL     OW11344   2.877   3.550   1.378 -0.1165  0.1990 -0.4820
 3549SOL    HW111345   2.914   3.632   1.413 -2.6887  0.7764  1.0923
 3549SOL    HW211346   2.941   3.483   1.402  1.4739  1.5396 -0.7479
 3550SOL     OW11347   3.747   0.555   1.008  0.1205 -0.0826  0.0334
 3550SOL    HW111348   3.762   0.566   1.102  2.2532 -0.4460 -0.2155
 3550SOL    HW211349   3.800   0.479   0.984 -1.2208 -0.6488 -1.2949
 3551SOL     OW11350   5.198   3.900   3.404  0.0430  0.4518  0.4858
 3551SOL    HW111351   5.143   3.921   3.329 -0.1874 -0.1520  0.4807
 3551SOL    HW211352   5.138   3.902   3.479  0.2729  1.0650  0.6607
 3552SOL     OW11353   3.868   3.027   4.395 -0.4832 -0.0715 -0.0718
 3552SOL    HW111354   3.917   2.982   4.325 -0.0451 -0.7176  0.6305
 3552SOL    HW211355   3.915   3.109   4.407  0.1912 -0.5002  0.3044
 3553SOL     OW11356   3.402   3.494   4.421  0.4505 -0.4114  0.2870
 3553SOL    HW111357   3.364   3.491   4.509 -2.3432  0.9422 -0.7621
 3553SOL    HW211358   3.403   3.402   4.392 -1.0361 -0.6232  0.8085
 3554SOL     OW11359   1.835   5.204   4.467 -0.7031 -0.2650 -0.2178
 3554SOL    HW111360   1.762   5.218   4.406  1.3345 -0.4949 -2.8994
 3554SOL    HW211361   1.855   5.111   4.457  0.1094 -0.1428  0.2818
 3555SOL     OW11362   2.418   3.913   1.773  0.2323  0.2947  0.1262
 3555SOL    HW111363   2.336   3.914   1.822  0.0238 -0.0651 -0.2110
 3555SOL    HW211364   2.485   3.932   1.838  0.3077 -3.1023  1.2344
 3556SOL     OW11365   3.780   2.221   4.690 -0.1513  0.1375  0.2891
 3556SOL    HW111366   3.753   2.138   4.651  1.1561 -0.1835  0.0328
 3556SOL    HW211367   3.874   2.224   4.677  0.0774  0.8244  1.9083
 3557SOL     OW11368   3.688   0.570   0.274  0.0037 -0.6460 -0.4518
 3557SOL    HW111369   3.753   0.506   0.302  1.3905  1.7318  2.4434
 3557SOL    HW211370   3.740   0.643   0.241 -1.1484  0.8692  0.8916
 3558SOL     OW11371   1.048   4.134   4.306 -0.0960  0.6199 -0.0138
 3558SOL    HW111372   1.113   4.172   4.247  0.3405  2.8825  1.7784
 3558SOL    HW211373   1.086   4.051   4.334  0.9612  0.8404 -0.7537
 3559SOL     OW11374   3.446   4.472   3.450 -0.0438  0.0816 -0.0541
 3559SOL    HW111375   3.513   4.405   3.437 -0.6671 -0.4432 -0.6397
 3559SOL    HW211376   3.412   4.456   3.538 -1.2172 -1.3575 -0.7118
 3560SOL     OW11377   0.461   3.516   3.153 -0.2134  0.3130  0.3343
 3560SOL    HW111378   0.446   3.495   3.061 -1.7474  0.2639  0.5825
 3560SOL    HW211379   0.392   3.578   3.176 -0.0457  0.0839  1.5358
 3561SOL     OW11380   4.187   4.769   0.340 -0.1343 -0.1050 -0.3926
 3561SOL    HW111381   4.175   4.838   0.406 -0.3066  0.2431 -0.7834
 3561SOL    HW211382   4.143   4.693   0.376 -2.1509  0.6801 -1.0677
 3562SOL     OW11383   0.227   0.261   4.844 -0.2472 -0.1609  0.1804
 3562SOL    HW111384   0.251   0.338   4.792 -1.4071  0.1133  0.0350
 3562SOL    HW211385   0.300   0.200   4.830  0.5198  0.7721  0.0271
 3563SOL     OW11386   1.670   3.704   3.737  0.0939 -0.4579  0.7812
 3563SOL    HW111387   1.638   3.792   3.720  0.5300 -0.7182 -1.8956
 3563SOL    HW211388   1.605   3.646   3.696  0.0946 -1.3684  2.0051
 3564SOL     OW11389   1.071   1.443   1.525 -0.4125 -0.2486 -0.0256
 3564SOL    HW111390   1.014   1.451   1.601 -1.9290 -2.3053 -0.8607
 3564SOL    HW211391   1.042   1.513   1.466  0.2742  0.8819  0.9358
 3565SOL     OW11392   3.864   2.875   2.750  0.2370 -0.1819 -0.4875
 3565SOL    HW111393   3.778   2.864   2.711  0.0046  0.0512 -0.0485
 3565SOL    HW211394   3.890   2.964   2.726 -0.3155  0.3153  0.6535
 3566SOL     OW11395   3.879   0.385   0.327 -0.0752 -0.2749  0.2607
 3566SOL    HW111396   3.912   0.352   0.244  2.4518 -0.3814  1.2263
 3566SOL    HW211397   3.881   0.310   0.387 -3.3636 -0.6262  0.1615
 3567SOL     OW11398   0.327   2.209   1.635  0.5638  0.3197  0.1637
 3567SOL    HW111399   0.387   2.159   1.579 -1.0241  0.7243 -2.0426
 3567SOL    HW211400   0.252   2.151   1.648  1.2384 -0.0881  2.6820
 3568SOL     OW11401   2.363   1.230   1.699 -0.0896 -0.5810 -0.4831
 3568SOL    HW111402   2.334   1.142   1.673 -0.9129 -0.3896 -0.2254
 3568SOL    HW211403   2.313   1.250   1.778  0.6324 -0.1698 -0.1191
 3569SOL     OW11404   1.537   4.818   5.044  0.0208  0.1837  0.5869
 3569SOL    HW111405   1.523   4.909   5.072 -1.8352 -0.4118  1.7629
 3569SOL    HW211406   1.554   4.825   4.950 -0.8375  1.7139  0.4996
 3570SOL     OW11407   1.377   0.878   1.960  0.1407 -0.2337  0.1636
 3570SOL    HW111408   1.426   0.830   1.893 -0.6972 -1.4489  0.3914
 3570SOL    HW211409   1.393   0.970   1.940  0.7151 -0.5851 -1.0987
 3571SOL     OW11410   5.338   1.758   0.770  0.2649 -0.1912 -0.8551
 3571SOL    HW111411   5.362   1.849   0.791  1.2541 -0.7327  0.5612
 3571SOL    HW211412   5.276   1.765   0.698 -0.3903  1.6661 -0.1716
 3572SOL     OW11413   0.823   3.109   3.620 -0.0826 -0.4274 -0.2964
 3572SOL    HW111414   0.805   3.196   3.657 -1.1113 -1.1043  0.8786
 3572SOL    HW211415   0.840   3.126   3.527 -1.7622  0.8813 -0.4122
 3573SOL     OW11416   4.740   2.753   1.523  0.8046  0.2770 -0.0830
 3573SOL    HW111417   4.782   2.727   1.605 -0.6185 -1.8312  0.0852
 3573SOL    HW211418   4.812   2.762   1.461  1.6946 -3.5584  0.0890
 3574SOL     OW11419   2.170   0.915   1.981 -0.1494 -0.0611 -0.3080
 3574SOL    HW111420   2.259   0.905   2.015 -0.2382 -0.1512 -0.1031
 3574SOL    HW211421   2.124   0.965   2.048 -0.0402  0.6866 -0.7770
 3575SOL     OW11422   5.180   2.473   5.008  0.1216 -0.7935 -0.2451
 3575SOL    HW111423   5.187   2.387   5.050  0.3718 -0.9754 -0.6489
 3575SOL    HW211424   5.251   2.525   5.047  0.7514 -1.1556 -0.8855
 3576SOL     OW11425   3.398   0.967   0.164  0.1329  0.2823 -0.1592
 3576SOL    HW111426   3.439   0.884   0.184 -1.6578 -0.5393  0.2882
 3576SOL    HW211427   3.431   1.027   0.231  0.6068 -0.3366  0.1705
 3577SOL     OW11428   5.039   1.893   3.112 -0.4393 -0.1695 -0.8275
 3577SOL    HW111429   5.071   1.814   3.157  0.8498  1.2843  0.9704
 3577SOL    HW211430   4.951   1.870   3.082  0.1118 -2.4551 -0.8660
 3578SOL     OW11431   3.743   4.227   0.537 -0.3179 -0.3544 -0.5903
 3578SOL    HW111432   3.794   4.247   0.615 -1.4233 -0.2371  0.1245
 3578SOL    HW211433   3.732   4.311   0.493  0.8435 -0.5191 -1.2260
 3579SOL     OW11434   0.424   4.735   2.750  0.1507  0.0294 -0.1462
 3579SOL    HW111435   0.450   4.670   2.816 -2.7763 -0.7505  0.4028
 3579SOL    HW211436   0.375   4.684   2.685 -0.6974  1.4287 -0.6379
 3580SOL     OW11437   3.292   3.936   2.638 -0.1100  0.0996 -0.0232
 3580SOL    HW111438   3.200   3.963   2.640 -0.0784  0.1817  0.5632
 3580SOL    HW211439   3.331   3.991   2.570 -0.0085  1.7276  1.2829
 3581SOL     OW11440   1.649   4.346   2.642  0.5248 -0.3883  0.6443
 3581SOL    HW111441   1.590   4.421   2.633  0.4638 -0.5327 -0.2264
 3581SOL    HW211442   1.591   4.272   2.661  0.4520 -0.4795  0.0655
 3582SOL     OW11443   0.542   1.743   3.111 -0.3265  0.3021 -0.3609
 3582SOL    HW111444   0.530   1.800   3.187  0.0533 -0.6754  0.4622
 3582SOL    HW211445   0.460   1.694   3.104 -1.0519  1.6227 -1.6910
 3583SOL     OW11446   4.665   5.143   1.578  0.1166 -0.7115  0.4998
 3583SOL    HW111447   4.602   5.088   1.532 -1.0950  0.7801  0.3166
 3583SOL    HW211448   4.733   5.081   1.608  0.3318 -1.9094 -2.1679
 3584SOL     OW11449   1.572   1.966   4.183  0.0554  0.4334 -0.0446
 3584SOL    HW111450   1.587   1.875   4.211 -1.8409  0.7635  2.3914
 3584SOL    HW211451   1.660   2.004   4.178  0.8963 -1.5281 -1.2387
 3585SOL     OW11452   5.307   2.837   2.632  0.4881  0.1391  0.2449
 3585SOL    HW111453   5.291   2.770   2.699  1.6513  0.0650  0.4585
 3585SOL    HW211454   5.362   2.902   2.676 -0.2483  1.0164 -0.1026
 3586SOL     OW11455   1.933   3.904   3.738 -0.6742  0.6337  0.2185
 3586SOL    HW111456   1.976   3.989   3.727 -0.6516  0.8398  1.6188
 3586SOL    HW211457   1.880   3.893   3.660 -0.2652  1.6956 -0.2243
 3587SOL     OW11458   2.449   2.602   0.792  0.2608 -0.3077  0.1972
 3587SOL    HW111459   2.506   2.679   0.789  0.6144 -0.6005 -0.8822
 3587SOL    HW211460   2.443   2.573   0.701  1.3939 -2.4706  0.7513
 3588SOL     OW11461   2.590   4.622   0.010 -0.0608  0.8635  0.9048
 3588SOL    HW111462   2.667   4.650  -0.039  0.1535  2.8009  2.2716
 3588SOL    HW211463   2.625   4.586   0.092 -0.5352 -0.2997  0.6272
 3589SOL     OW11464   2.963   0.782   1.776  0.3686 -0.0803 -0.0604
 3589SOL    HW111465   2.925   0.859   1.734  0.7895  0.8682  1.2007
 3589SOL    HW211466   3.026   0.749   1.713  1.0107  1.3240 -0.2039
 3590SOL     OW11467   4.762   0.461   4.589 -0.0725 -0.2816  0.1738
 3590SOL    HW111468   4.829   0.418   4.642  0.3650 -2.0545 -1.6696
 3590SOL    HW211469   4.811   0.512   4.525 -0.3498 -2.0570 -1.5669
 3591SOL     OW11470   2.096   3.941   2.226 -0.0445  0.0550 -0.0488
 3591SOL    HW111471   2.099   3.952   2.321 -0.4887 -0.7497  0.0726
 3591SOL    HW211472   2.028   4.001   2.197 -2.0283 -1.7737  0.5247
 3592SOL     OW11473   3.032   3.083   1.894  0.5735  0.0970 -0.2219
 3592SOL    HW111474   2.951   3.068   1.846  1.9635 -0.5575 -2.4814
 3592SOL    HW211475   3.061   2.995   1.920  1.3192  0.1871 -0.7415
 3593SOL     OW11476   3.625   3.468   0.872 -0.5312  0.3596 -0.0684
 3593SOL    HW111477   3.609   3.392   0.816  0.9348 -0.0803  0.0681
 3593SOL    HW211478   3.560   3.460   0.942  0.9351 -2.0236  1.1444
 3594SOL     OW11479   4.182   1.718   1.370 -0.3228  0.0317  1.0965
 3594SOL    HW111480   4.198   1.810   1.389  0.3064  0.0419  0.5387
 3594SOL    HW211481   4.124   1.718   1.295  1.0007 -0.0186  0.0443
 3595SOL     OW11482   3.613   4.957   2.270  0.8257  0.1912 -0.6514
 3595SOL    HW111483   3.574   4.951   2.183  0.6580  0.5396 -0.6027
 3595SOL    HW211484   3.662   5.039   2.269  1.2618 -0.0699 -0.5928
 3596SOL     OW11485   5.156   3.236   3.950  0.3766  0.0556 -0.3113
 3596SOL    HW111486   5.177   3.275   4.034 -2.0284 -0.7405  0.7420
 3596SOL    HW211487   5.207   3.155   3.947  0.2228 -0.0825  0.5599
 3597SOL     OW11488   0.378   1.159   4.015  0.3508 -0.6020  0.3748
 3597SOL    HW111489   0.396   1.083   4.070  2.0091  0.0238  0.7469
 3597SOL    HW211490   0.396   1.234   4.072  0.3925  0.0631 -0.4974
 3598SOL     OW11491   1.726   1.409   2.406  0.5109 -0.2585 -0.2205
 3598SOL    HW111492   1.760   1.491   2.442 -1.0314 -0.0836  0.9299
 3598SOL    HW211493   1.640   1.431   2.371  0.6698 -1.1034 -1.1978
 3599SOL     OW11494   2.668   2.480   3.863 -0.2341 -0.5008 -0.4456
 3599SOL    HW111495   2.582   2.493   3.823 -0.8009 -0.5052  0.7217
 3599SOL    HW211496   2.662   2.524   3.948 -0.1932 -3.2160  1.0802
 3600SOL     OW11497   3.107   5.213   1.601 -0.0130  0.1920 -0.3867
 3600SOL    HW111498   3.186   5.168   1.572 -0.6833 -1.3997  0.1719
 3600SOL    HW211499   3.104   5.292   1.546  2.4574  0.8248  0.2374
 3601SOL     OW11500   2.388   3.222   4.893  0.5796  0.4614 -0.6317
 3601SOL    HW111501   2.293   3.209   4.891  0.8798 -2.2372 -1.4730
 3601SOL    HW211502   2.418   3.171   4.968  1.6527 -1.9216 -2.5486
 3602SOL     OW11503   1.159   3.170   3.412 -0.4689 -0.3150  0.1549
 3602SOL    HW111504   1.127   3.247   3.364  0.3038  0.0703  0.2241
 3602SOL    HW211505   1.091   3.104   3.401 -1.2657  0.4568  0.2908
 3603SOL     OW11506   5.204   2.966   3.400  0.1584 -0.3063 -0.1040
 3603SOL    HW111507   5.223   2.926   3.316  1.2361 -1.0621  0.4767
 3603SOL    HW211508   5.224   2.899   3.465  0.4175  0.6208  0.8187
 3604SOL     OW11509   5.031   3.419   4.761 -0.3420 -0.5757 -0.3448
 3604SOL    HW111510   4.955   3.362   4.778 -0.0418 -1.2941 -1.3202
 3604SOL    HW211511   5.012   3.499   4.809 -0.1332 -1.9770  2.2852
 3605SOL     OW11512   0.355   2.782   1.315 -0.8201 -0.4171 -0.4618
 3605SOL    HW111513   0.421   2.762   1.248 -0.7941  3.0476 -1.6617
 3605SOL    HW211514   0.403   2.782   1.397  0.0417 -0.6723 -0.9535
 3606SOL     OW11515   1.112   3.711   0.811  0.0815 -0.6543 -0.1910
 3606SOL    HW111516   1.082   3.662   0.735 -0.8900 -1.8211  0.8931
 3606SOL    HW211517   1.032   3.732   0.860  0.6885 -0.0487  0.5874
 3607SOL     OW11518   0.618   1.172   3.423  0.2009  0.0958  0.1126
 3607SOL    HW111519   0.627   1.265   3.400  1.3072 -0.3274 -1.2844
 3607SOL    HW211520   0.668   1.163   3.504 -0.0735  0.7528  0.3633
 3608SOL     OW11521   0.781   3.952   4.496 -0.1150 -0.0664 -0.1628
 3608SOL    HW111522   0.833   3.873   4.481 -0.6410 -0.1610 -1.6335
 3608SOL    HW211523   0.844   4.017   4.527  0.6208 -0.5958 -0.5227
 3609SOL     OW11524   3.859   3.284   2.461 -0.0136  0.2344 -0.1685
 3609SOL    HW111525   3.862   3.376   2.488  0.6329  0.3473 -0.5837
 3609SOL    HW211526   3.840   3.288   2.367 -3.3704 -0.1829  0.3645
 3610SOL     OW11527   1.379   4.636   4.760 -1.2929 -0.3589  0.2256
 3610SOL    HW111528   1.345   4.578   4.692  3.0724 -1.0650 -1.7327
 3610SOL    HW211529   1.384   4.721   4.718 -2.0300  0.0922  1.0205
 3611SOL     OW11530   1.082   3.919   3.106  0.0945 -0.4870 -0.1570
 3611SOL    HW111531   1.104   4.011   3.122  3.0078 -1.1126 -0.0324
 3611SOL    HW211532   1.072   3.913   3.012 -3.4089  0.4952  0.0034
 3612SOL     OW11533   5.144   5.235   2.972 -0.2094 -0.4901 -0.0821
 3612SOL    HW111534   5.187   5.292   3.036  1.8310 -0.2498 -1.5478
 3612SOL    HW211535   5.104   5.295   2.909 -2.2798 -0.7230  0.9409
 3613SOL     OW11536   0.025   2.503   0.928 -0.4543  0.4916  0.0056
 3613SOL    HW111537   0.087   2.530   0.995  0.6958 -1.4578 -0.1854
 3613SOL    HW211538   0.024   2.575   0.865  0.1488  1.3814  0.9884
 3614SOL     OW11539   4.052   3.632   4.086  0.0823  0.5946 -0.2355
 3614SOL    HW111540   4.066   3.606   3.995  0.3768  0.9057 -0.2803
 3614SOL    HW211541   4.046   3.549   4.134  1.5429  0.4322 -0.3031
 3615SOL     OW11542   4.450   1.905   5.166  0.2772  0.8934  0.1799
 3615SOL    HW111543   4.439   1.974   5.231  0.6122  0.4641  0.7068
 3615SOL    HW211544   4.388   1.927   5.097  0.7252  1.9821  0.1027
 3616SOL     OW11545   3.706   5.094   1.400 -0.4246  0.2672 -0.1286
 3616SOL    HW111546   3.778   5.108   1.338 -1.3765  1.9271 -0.9151
 3616SOL    HW211547   3.721   5.158   1.469 -2.2513  2.1635 -1.3756
 3617SOL     OW11548   1.215   4.476   0.057 -1.1360 -0.1117  0.1011
 3617SOL    HW111549   1.163   4.546   0.098 -1.0036 -0.3188  0.6370
 3617SOL    HW211550   1.150   4.419   0.016 -1.2576  0.2181 -0.1691
 3618SOL     OW11551   0.194   1.798   1.835  1.0025 -0.1627  0.1420
 3618SOL    HW111552   0.194   1.733   1.765  0.2037  0.7637 -0.7477
 3618SOL    HW211553   0.280   1.791   1.875  0.4340 -2.7945  1.0546
 3619SOL     OW11554   2.219   1.365   1.441  0.3902  0.1227 -0.0538
 3619SOL    HW111555   2.278   1.412   1.499 -0.1396  0.5400  0.1608
 3619SOL    HW211556   2.178   1.299   1.497 -0.5854  0.9290  0.2297
 3620SOL     OW11557   4.625   0.614   1.117 -0.6250  0.1003  0.6027
 3620SOL    HW111558   4.612   0.552   1.045 -5.4017  0.9615  0.4006
 3620SOL    HW211559   4.568   0.582   1.187 -0.8209  2.5750  1.6715
 3621SOL     OW11560   4.853   5.227   1.367  0.2148  0.0161  0.4803
 3621SOL    HW111561   4.943   5.203   1.389  0.4870  1.5282  1.1695
 3621SOL    HW211562   4.802   5.199   1.443  0.2539  0.0008  0.5013
 3622SOL     OW11563   3.441   3.793   3.048 -0.2122 -0.4992 -0.0227
 3622SOL    HW111564   3.531   3.821   3.067 -0.3926 -1.0490  1.8031
 3622SOL    HW211565   3.443   3.698   3.057 -1.0414 -0.4894  0.3176
 3623SOL     OW11566   2.811   3.224   3.039  0.6994 -0.1948 -0.2434
 3623SOL    HW111567   2.782   3.233   3.130  1.3240 -0.9541  0.0357
 3623SOL    HW211568   2.906   3.220   3.044  0.8024  0.7843 -1.0341
 3624SOL     OW11569   0.194   2.068   4.144 -0.2403 -0.1416 -0.4480
 3624SOL    HW111570   0.112   2.033   4.180  0.0114  0.3750  0.6353
 3624SOL    HW211571   0.175   2.160   4.126  1.1173  1.0232  3.2689
 3625SOL     OW11572   3.163   5.143   2.909 -0.3990 -0.8049 -0.1086
 3625SOL    HW111573   3.183   5.234   2.886 -0.0589 -0.7447  0.4151
 3625SOL    HW211574   3.249   5.104   2.928 -0.5610 -1.1862 -0.1538
 3626SOL     OW11575   1.601   3.780   4.358 -0.0409 -0.3025 -0.0169
 3626SOL    HW111576   1.572   3.738   4.277  0.1616  0.3697 -0.4414
 3626SOL    HW211577   1.671   3.838   4.331  0.3578 -0.4358  0.7224
 3627SOL     OW11578   0.595   3.314   0.831  0.0974  0.0773 -0.4424
 3627SOL    HW111579   0.690   3.325   0.827  0.0867 -0.0272 -1.1496
 3627SOL    HW211580   0.560   3.404   0.835  0.1923  0.1600 -1.2686
 3628SOL     OW11581   4.545   1.671   1.148  0.2725 -0.1112  0.0781
 3628SOL    HW111582   4.541   1.701   1.239 -1.9181  0.0731 -0.0020
 3628SOL    HW211583   4.512   1.746   1.097  1.6016 -0.1631 -0.8965
 3629SOL     OW11584   3.565   5.316   2.106  0.2214  0.3820  0.0340
 3629SOL    HW111585   3.551   5.378   2.178 -0.4353 -0.1810  0.4079
 3629SOL    HW211586   3.636   5.260   2.136  1.3498  1.4095 -0.6282
 3630SOL     OW11587   3.198   3.597   0.436 -0.1456 -0.0407 -0.1989
 3630SOL    HW111588   3.196   3.684   0.475 -3.9948  0.8028 -1.8523
 3630SOL    HW211589   3.217   3.613   0.344  0.1515 -1.0979 -0.3343
 3631SOL     OW11590   2.560   2.504   0.233  0.0721 -0.7418  0.1326
 3631SOL    HW111591   2.633   2.446   0.254 -1.0664 -1.5958  2.0533
 3631SOL    HW211592   2.601   2.587   0.209  1.6739 -1.4538  0.2939
 3632SOL     OW11593   0.656   5.114   1.592 -0.2173  0.3177 -0.7947
 3632SOL    HW111594   0.680   5.144   1.680 -0.9810 -0.9369 -0.1511
 3632SOL    HW211595   0.614   5.190   1.552  1.4889  1.3977 -0.6493
 3633SOL     OW11596   3.236   4.848   0.454 -0.0539  0.3234 -0.3469
 3633SOL    HW111597   3.174   4.797   0.401 -0.4447  1.2081 -0.7603
 3633SOL    HW211598   3.257   4.791   0.528 -0.5607 -0.3929 -0.7446
 3634SOL     OW11599   4.684   3.356   5.251 -0.2995 -0.1057  0.5986
 3634SOL    HW111600   4.749   3.380   5.185  0.0150  0.9321  1.2529
 3634SOL    HW211601   4.700   3.263   5.268  0.5154 -0.0478  0.1927
 3635SOL     OW11602   1.039   1.574   2.903 -0.0582 -0.2434  0.3199
 3635SOL    HW111603   1.031   1.658   2.858  0.4825 -0.0707  0.5322
 3635SOL    HW211604   0.978   1.578   2.976 -0.7838 -0.4399 -0.2657
 3636SOL     OW11605   1.089   0.848   4.748 -0.3913 -0.5375 -0.3235
 3636SOL    HW111606   1.139   0.897   4.813 -0.8777 -0.1554 -0.2365
 3636SOL    HW211607   1.011   0.819   4.795 -1.4681  1.0004 -1.1219
 3637SOL     OW11608   2.393   5.349   1.516  0.1041  0.1475  0.0079
 3637SOL    HW111609   2.437   5.296   1.582  2.0204 -0.6328 -1.7827
 3637SOL    HW211610   2.320   5.295   1.487 -0.0710  0.0177  0.6881
 3638SOL     OW11611   1.895   5.065   0.866  0.8256  0.2733 -0.3618
 3638SOL    HW111612   1.944   5.005   0.810  2.2124  1.5357 -0.5715
 3638SOL    HW211613   1.872   5.013   0.943  3.7158 -0.0545  0.3859
 3639SOL     OW11614   3.814   4.840   0.773  0.3814  0.7357 -0.1873
 3639SOL    HW111615   3.863   4.916   0.803  0.3343  0.2893  1.1067
 3639SOL    HW211616   3.748   4.826   0.841 -0.5079  0.3681 -1.0995
 3640SOL     OW11617   0.908   0.672   0.047 -0.3967  0.1315  0.7157
 3640SOL    HW111618   0.994   0.699   0.013 -1.5423  1.6174 -1.2271
 3640SOL    HW211619   0.915   0.577   0.058  1.2657  0.1100 -0.1624
 3641SOL     OW11620   2.961   0.803   3.138  0.0777  0.3361 -0.3059
 3641SOL    HW111621   2.871   0.831   3.123  0.2872  0.8120 -0.7347
 3641SOL    HW211622   2.959   0.753   3.219 -0.1770  2.2854  0.9359
 3642SOL     OW11623   3.623   1.957   0.007  0.0699 -0.0600 -0.4202
 3642SOL    HW111624   3.644   1.880  -0.046  1.2260  0.1190 -0.2416
 3642SOL    HW211625   3.585   2.019  -0.055 -1.3076 -0.9180 -0.4850
 3643SOL     OW11626   4.551   5.058   2.092 -0.0840  0.0665  0.6635
 3643SOL    HW111627   4.506   5.103   2.164 -1.9963 -0.7142  0.0161
 3643SOL    HW211628   4.611   5.124   2.056 -1.5721  1.5646  0.8113
 3644SOL     OW11629   1.535   4.980   1.826  0.0708  0.1975 -0.1708
 3644SOL    HW111630   1.560   5.028   1.747  0.9905 -0.1132 -0.0857
 3644SOL    HW211631   1.608   4.920   1.841 -0.9382 -1.0679 -0.1465
 3645SOL     OW11632   0.393   0.494   5.215 -0.0422 -0.2117 -0.4153
 3645SOL    HW111633   0.474   0.514   5.261 -0.5329  4.2327 -1.0441
 3645SOL    HW211634   0.420   0.447   5.137  1.4769 -1.8032  0.9742
 3646SOL     OW11635   4.462   4.886   0.743  0.0935  0.1184 -0.0294
 3646SOL    HW111636   4.396   4.834   0.697  2.2710 -1.9338 -1.0807
 3646SOL    HW211637   4.448   4.975   0.712 -2.7579 -0.0246  0.5686
 3647SOL     OW11638   4.710   4.563   4.491  0.0809  0.0384  0.5332
 3647SOL    HW111639   4.640   4.498   4.483  0.3751 -0.2677  0.4008
 3647SOL    HW211640   4.678   4.625   4.556 -0.2701 -0.1537  0.5486
 3648SOL     OW11641   1.532   1.798   4.680 -0.1186  0.1090 -0.2367
 3648SOL    HW111642   1.521   1.885   4.641  0.1452 -0.0355 -0.6444
 3648SOL    HW211643   1.492   1.805   4.766 -0.3287  0.5624 -0.3674
 3649SOL     OW11644   1.426   3.325   4.253 -0.1196 -0.1479 -0.5304
 3649SOL    HW111645   1.472   3.389   4.199 -0.6989  0.7860  0.0518
 3649SOL    HW211646   1.485   3.309   4.327 -0.2215  0.1742 -0.3753
 3650SOL     OW11647   3.986   2.273   3.312  0.6687  0.4797  0.1282
 3650SOL    HW111648   4.035   2.353   3.293  0.0696  0.9818  0.6363
 3650SOL    HW211649   3.913   2.302   3.367  1.4698 -0.6481  1.9055
 3651SOL     OW11650   2.149   3.111   3.156  0.2388 -0.4886  0.3547
 3651SOL    HW111651   2.126   3.075   3.242 -0.4458 -2.8238 -0.7334
 3651SOL    HW211652   2.207   3.185   3.176  2.1831 -2.4804  2.7767
 3652SOL     OW11653   4.307   2.903   4.738 -0.0201  0.1181  0.8046
 3652SOL    HW111654   4.263   2.846   4.801 -1.3384  2.2778  1.9319
 3652SOL    HW211655   4.240   2.963   4.708  0.3582 -1.1922 -3.3145
 3653SOL     OW11656   0.902   3.912   1.873  0.1978  0.0325  0.5079
 3653SOL    HW111657   0.931   3.948   1.790  0.1117 -0.2167  0.3685
 3653SOL    HW211658   0.982   3.891   1.921  0.2496 -0.2184  0.3138
 3654SOL     OW11659   1.053   0.751   1.736 -0.0766 -0.3979 -0.2180
 3654SOL    HW111660   1.047   0.825   1.797  0.2016 -0.3498 -0.2485
 3654SOL    HW211661   1.130   0.703   1.765 -1.0744 -1.4912  0.7029
 3655SOL     OW11662   3.029   3.013   4.848  0.1358  0.5864 -0.5005
 3655SOL    HW111663   3.005   3.094   4.894 -0.4642 -0.4192  1.0397
 3655SOL    HW211664   3.123   3.003   4.866 -0.2784 -0.2851  1.3883
 3656SOL     OW11665   4.840   4.195   3.732 -0.2634  0.2897  0.0750
 3656SOL    HW111666   4.818   4.115   3.780 -2.4437 -0.1922 -1.5644
 3656SOL    HW211667   4.758   4.220   3.689  0.7616  2.5515 -0.7142
 3657SOL     OW11668   4.003   2.985   2.145  0.3614  0.2848 -0.2247
 3657SOL    HW111669   3.938   3.030   2.092  1.4758  1.2794 -0.8195
 3657SOL    HW211670   3.959   2.967   2.228 -1.0189 -0.1761 -1.0465
 3658SOL     OW11671   2.844   0.286   4.195 -0.3250 -0.4657 -0.4112
 3658SOL    HW111672   2.934   0.299   4.226  0.2349 -1.5828 -1.4591
 3658SOL    HW211673   2.843   0.195   4.164 -2.4608 -1.2430  1.6497
 3659SOL     OW11674   5.099   1.149   3.895 -0.6096  0.3501 -0.1793
 3659SOL    HW111675   5.009   1.162   3.866 -0.4399 -0.8682 -1.3104
 3659SOL    HW211676   5.113   1.054   3.890  0.7949  0.5348 -0.2062
 3660SOL     OW11677   0.359   3.134   4.782 -0.0576  0.9408  0.0575
 3660SOL    HW111678   0.450   3.108   4.767 -0.6709 -0.3284 -1.8041
 3660SOL    HW211679   0.315   3.116   4.699 -2.5129 -0.6932  1.5977
 3661SOL     OW11680   2.466   3.504   5.121 -0.3728 -0.8704  0.1232
 3661SOL    HW111681   2.461   3.569   5.051 -1.8961 -2.5557 -1.4306
 3661SOL    HW211682   2.375   3.485   5.143  0.0181 -2.7569  0.2461
 3662SOL     OW11683   5.097   1.393   4.770  0.2298 -0.1593 -0.3894
 3662SOL    HW111684   5.085   1.457   4.841 -0.1135 -0.1755 -0.4306
 3662SOL    HW211685   5.142   1.442   4.702 -0.6383  0.2375 -0.6925
 3663SOL     OW11686   2.512   1.872   5.178 -0.5086 -0.5058  0.2430
 3663SOL    HW111687   2.607   1.876   5.193 -0.5227 -0.3154  0.2854
 3663SOL    HW211688   2.503   1.824   5.096 -0.3715 -0.4456  0.1924
 3664SOL     OW11689   4.129   3.203   3.356  0.3854 -0.2171 -0.1628
 3664SOL    HW111690   4.204   3.260   3.342  1.3893 -0.7596  2.4685
 3664SOL    HW211691   4.066   3.258   3.402  0.6376 -0.7235  0.8040
 3665SOL     OW11692   4.038   2.528   0.392 -0.1113 -0.6030 -0.1439
 3665SOL    HW111693   4.013   2.619   0.406  1.1220 -0.2670 -0.0345
 3665SOL    HW211694   3.990   2.480   0.460  0.3363  0.1383  0.7203
 3666SOL     OW11695   3.780   3.796   1.343  0.0573 -0.3973 -0.2289
 3666SOL    HW111696   3.813   3.748   1.267 -0.0231  0.3835 -0.7805
 3666SOL    HW211697   3.735   3.872   1.305  0.6793  0.4316  0.6160
 3667SOL     OW11698   4.206   2.403   1.308 -0.4549 -0.1017 -0.0360
 3667SOL    HW111699   4.197   2.378   1.216  0.1205 -0.1978 -0.0678
 3667SOL    HW211700   4.219   2.498   1.305  0.7758 -0.2642 -0.1373
 3668SOL     OW11701   0.739   1.669   4.830 -0.0893 -0.1364  0.1126
 3668SOL    HW111702   0.781   1.609   4.768 -1.3093 -1.0731  0.1465
 3668SOL    HW211703   0.694   1.733   4.774  0.0263 -0.0995  0.0607
 3669SOL     OW11704   3.777   5.240   1.615  0.0244 -0.7129  0.0560
 3669SOL    HW111705   3.781   5.321   1.565 -0.5761 -0.6153  0.1558
 3669SOL    HW211706   3.826   5.259   1.695  2.0988 -1.2768 -1.0061
 3670SOL     OW11707   3.873   3.665   1.134  0.0152 -0.6286  0.4064
 3670SOL    HW111708   3.889   3.707   1.050  0.0957  1.9253  1.6055
 3670SOL    HW211709   3.914   3.579   1.127  1.2535  0.0804 -1.6516
 3671SOL     OW11710   4.637   0.469   3.293  0.4849 -0.4538 -0.1825
 3671SOL    HW111711   4.681   0.465   3.378 -1.1986 -3.1137  0.7130
 3671SOL    HW211712   4.666   0.389   3.248  0.2615  0.2110 -1.5479
 3672SOL     OW11713   1.487   1.774   4.979 -0.4643  0.1284  0.1437
 3672SOL    HW111714   1.426   1.782   5.053 -0.1436 -1.0511  0.5562
 3672SOL    HW211715   1.572   1.798   5.016 -0.3175 -0.3827  0.1358
 3673SOL     OW11716   2.634   0.867   2.598  0.7694 -0.8707 -0.3474
 3673SOL    HW111717   2.606   0.836   2.512  0.5412 -0.5670 -0.3845
 3673SOL    HW211718   2.586   0.813   2.660 -0.4822  0.1244 -0.4035
 3674SOL     OW11719   4.152   1.008   1.447  0.8587  0.4133 -0.7347
 3674SOL    HW111720   4.199   1.015   1.530 -0.6278 -1.4678  0.3352
 3674SOL    HW211721   4.088   1.080   1.449 -1.5247 -1.6003  1.4338
 3675SOL     OW11722   1.753   5.299   0.383  0.1973  0.1795  0.8909
 3675SOL    HW111723   1.671   5.346   0.367  0.2571  0.0944  0.3083
 3675SOL    HW211724   1.736   5.210   0.351  0.3978  0.0599  1.1117
 3676SOL     OW11725   4.539   1.694   4.855  0.5123 -0.3493  0.1182
 3676SOL    HW111726   4.488   1.648   4.921  0.2928 -1.3019 -0.6856
 3676SOL    HW211727   4.474   1.743   4.804  0.7588  1.0132  1.0627
 3677SOL     OW11728   4.285   0.747   0.373 -0.3801 -0.2069  0.2457
 3677SOL    HW111729   4.287   0.803   0.451 -0.6112 -0.5709  0.5134
 3677SOL    HW211730   4.197   0.710   0.372 -0.6456  0.3932 -0.6196
 3678SOL     OW11731   0.074   4.673   4.699  0.0546  0.4972  0.6195
 3678SOL    HW111732  -0.019   4.692   4.708  0.1860  1.0179  0.9122
 3678SOL    HW211733   0.078   4.578   4.683 -0.6347  0.7298 -1.1384
 3679SOL     OW11734   4.424   0.140   0.833  0.1126 -0.5191  0.2351
 3679SOL    HW111735   4.497   0.164   0.775 -0.4874  0.8961  0.0352
 3679SOL    HW211736   4.455   0.062   0.878  0.5768 -1.7461 -2.0528
 3680SOL     OW11737   3.132   2.655   0.709 -0.1855 -0.2025  0.2888
 3680SOL    HW111738   3.105   2.628   0.622  2.0637 -1.8044 -0.0097
 3680SOL    HW211739   3.164   2.744   0.698  1.9331 -1.0432 -1.0402
 3681SOL     OW11740   3.300   3.002   4.846 -0.0914 -0.2400 -0.6587
 3681SOL    HW111741   3.360   2.929   4.834 -0.8039 -0.8456 -0.5788
 3681SOL    HW211742   3.356   3.075   4.873  0.5383 -0.9545 -0.0112
 3682SOL     OW11743   1.029   2.401   5.380 -0.3449  0.2997  0.2696
 3682SOL    HW111744   0.999   2.469   5.319 -0.5642  1.3087  1.4435
 3682SOL    HW211745   0.990   2.320   5.347  0.0327  0.7094 -1.2462
 3683SOL     OW11746   4.355   2.774   3.412  0.2950 -0.6153  0.4758
 3683SOL    HW111747   4.437   2.727   3.395  0.4243  0.0974 -1.0200
 3683SOL    HW211748   4.373   2.824   3.492  1.8725  0.6527 -0.5931
 3684SOL     OW11749   1.826   0.942   4.616  0.2690  0.2435  0.5157
 3684SOL    HW111750   1.781   1.017   4.577  0.5255  1.3640  2.2876
 3684SOL    HW211751   1.912   0.975   4.641  0.5698 -0.7759  0.9056
 3685SOL     OW11752   2.060   0.437   1.870  0.1526  0.6606  0.2339
 3685SOL    HW111753   2.087   0.486   1.948 -0.7244 -0.2377  1.1399
 3685SOL    HW211754   2.040   0.504   1.805  0.5037  1.4470  0.9120
 3686SOL     OW11755   0.066   4.129   2.934  0.0336 -0.0338 -0.1817
 3686SOL    HW111756   0.125   4.130   3.010  0.1301 -1.2820 -0.2176
 3686SOL    HW211757   0.110   4.185   2.869  0.6864 -0.1375  0.1583
 3687SOL     OW11758   4.031   0.227   2.408  0.3891  0.6126 -0.0228
 3687SOL    HW111759   4.082   0.297   2.368  1.6514 -0.9975 -1.3952
 3687SOL    HW211760   4.021   0.253   2.499  0.5890  2.6740 -0.5585
 3688SOL     OW11761   0.798   1.265   5.161  0.5037 -0.4780 -0.2349
 3688SOL    HW111762   0.842   1.284   5.244 -0.9138  1.7231  0.0962
 3688SOL    HW211763   0.706   1.257   5.184  0.2046 -0.8258 -1.4727
 3689SOL     OW11764   2.424   2.777   4.181  0.2429  0.0114  0.8543
 3689SOL    HW111765   2.331   2.754   4.174  0.0361  0.9988  0.1252
 3689SOL    HW211766   2.424   2.873   4.193  1.2121  0.2209 -0.6378
 3690SOL     OW11767   4.995   2.288   1.597 -0.1937 -0.2059 -0.3887
 3690SOL    HW111768   4.943   2.218   1.635 -1.1371  0.3122 -0.6711
 3690SOL    HW211769   4.963   2.295   1.507  0.1728  0.3121 -0.4828
 3691SOL     OW11770   0.468   3.197   2.841 -0.5745  0.1060  0.1911
 3691SOL    HW111771   0.475   3.172   2.748  0.5632 -0.6358  0.4532
 3691SOL    HW211772   0.449   3.290   2.839  1.2199  0.4992 -0.7955
 3692SOL     OW11773   4.032   0.056   1.393 -0.3953  0.4677 -0.5998
 3692SOL    HW111774   4.063   0.079   1.481 -1.5047 -0.3546  0.0197
 3692SOL    HW211775   4.075  -0.028   1.373  0.8347  1.2454 -1.3864
 3693SOL     OW11776   4.583   3.829   2.225 -0.8851 -0.0616  0.1074
 3693SOL    HW111777   4.634   3.882   2.286 -0.6807  0.0813 -0.1858
 3693SOL    HW211778   4.513   3.792   2.278 -0.3412 -0.4507  0.5611
 3694SOL     OW11779   5.143   4.234   0.648  0.2363 -0.0740 -0.1178
 3694SOL    HW111780   5.098   4.157   0.683  0.4292 -0.4378 -0.6470
 3694SOL    HW211781   5.157   4.291   0.723 -1.4298  0.2164  0.0169
 3695SOL     OW11782   1.969   2.636   2.169 -0.1523  0.3332 -0.0323
 3695SOL    HW111783   1.928   2.633   2.256 -0.6999  0.0811 -0.2912
 3695SOL    HW211784   1.966   2.545   2.138  0.0749  0.4155 -0.3008
 3696SOL     OW11785   4.706   2.982   4.849 -0.1635 -0.2653  0.3429
 3696SOL    HW111786   4.670   2.937   4.772 -0.9133  0.2071  0.4121
 3696SOL    HW211787   4.765   2.917   4.888 -0.2203 -0.7210 -0.2948
 3697SOL     OW11788   0.353   3.938   2.157  0.1947  0.1091 -0.1253
 3697SOL    HW111789   0.413   3.864   2.166  0.4517  0.3404  0.0708
 3697SOL    HW211790   0.375   3.976   2.072 -1.1614 -1.1185 -1.0828
 3698SOL     OW11791   4.883   3.163   5.102  0.2347 -0.3006  0.5200
 3698SOL    HW111792   4.906   3.079   5.141  0.5114 -0.4831 -0.0356
 3698SOL    HW211793   4.960   3.218   5.117  0.3674 -0.3916  0.1704
 3699SOL     OW11794   1.375   2.707   1.147 -0.1708  0.4148 -0.0032
 3699SOL    HW111795   1.322   2.680   1.222  0.0737  0.0583  0.0396
 3699SOL    HW211796   1.430   2.778   1.181  1.7549 -1.3844  0.8550
 3700SOL     OW11797   1.184   1.084   3.965 -0.0828 -0.2614  0.1706
 3700SOL    HW111798   1.195   1.025   4.040  1.3000  0.0028  0.2107
 3700SOL    HW211799   1.137   1.159   4.001  2.5107  0.9076  1.4304
 3701SOL     OW11800   1.146   1.781   3.099  0.0660  0.1139  0.5403
 3701SOL    HW111801   1.112   1.699   3.134 -0.0004  0.0655  0.3646
 3701SOL    HW211802   1.149   1.840   3.174 -1.0196  0.3229  0.4270
 3702SOL     OW11803   3.334   4.632   0.922 -0.2717  0.0937  0.2342
 3702SOL    HW111804   3.274   4.616   0.995 -1.2730  0.5566 -0.4655
 3702SOL    HW211805   3.391   4.555   0.921 -2.2583 -1.4715 -0.4442
 3703SOL     OW11806   3.060   0.401   4.401  0.2535  0.3499 -0.5845
 3703SOL    HW111807   3.123   0.470   4.382 -0.7246  1.2845 -0.5193
 3703SOL    HW211808   3.096   0.355   4.477 -0.0793  2.1095  0.6829
 3704SOL     OW11809   0.680   1.804   3.991  0.1087 -0.1934  0.1951
 3704SOL    HW111810   0.597   1.849   4.006 -0.1068 -0.7274  0.6940
 3704SOL    HW211811   0.654   1.713   3.976  0.5156 -0.1255 -0.9979
 3705SOL     OW11812   3.090   2.874   5.393 -0.0603  0.7847 -0.1870
 3705SOL    HW111813   3.160   2.815   5.365 -0.6019  0.3080 -0.5668
 3705SOL    HW211814   3.054   2.907   5.311 -0.3469  0.9465  0.0052
 3706SOL     OW11815   0.008   3.668   5.099 -0.0225 -0.1725 -0.0802
 3706SOL    HW111816   0.042   3.600   5.157  0.7701  0.8186  0.6618
 3706SOL    HW211817  -0.058   3.624   5.046  0.8984 -1.6637 -0.0570
 3707SOL     OW11818   3.410   1.727   2.222 -0.0460  0.5442  0.5742
 3707SOL    HW111819   3.416   1.690   2.310 -1.5142  1.9857  1.3442
 3707SOL    HW211820   3.317   1.745   2.210  0.1717  0.6715 -1.1678
 3708SOL     OW11821   2.725   1.233   1.659  0.3210 -0.2681 -0.6752
 3708SOL    HW111822   2.749   1.320   1.627  0.6795 -0.2935 -0.4867
 3708SOL    HW211823   2.747   1.235   1.752 -1.2721  0.0105 -0.2736
 3709SOL     OW11824   5.147   3.405   2.612  0.3589  0.6334  0.2529
 3709SOL    HW111825   5.170   3.312   2.611 -0.6726  0.3654 -0.1775
 3709SOL    HW211826   5.101   3.417   2.695 -0.8129  0.4022 -0.3379
 3710SOL     OW11827   2.443   3.025   3.787 -0.0364 -0.5759  0.6308
 3710SOL    HW111828   2.396   3.067   3.715  0.2688 -1.6529 -0.2354
 3710SOL    HW211829   2.391   3.043   3.865 -1.2710 -0.7876 -0.1317
 3711SOL     OW11830   1.766   0.398   1.835 -0.1254 -0.1685  0.2787
 3711SOL    HW111831   1.771   0.308   1.865 -0.4585 -0.8648 -1.6623
 3711SOL    HW211832   1.800   0.450   1.909 -1.2220 -1.7341  1.9629
 3712SOL     OW11833   4.272   3.528   2.070 -0.9445  0.2478  0.6093
 3712SOL    HW111834   4.296   3.439   2.044 -0.8233  0.3376  0.4079
 3712SOL    HW211835   4.348   3.581   2.045 -1.7563  0.7044 -0.9832
 3713SOL     OW11836   1.255   0.407   0.410 -0.3160 -0.1813 -0.2103
 3713SOL    HW111837   1.267   0.351   0.333  0.1229 -1.3638  0.6809
 3713SOL    HW211838   1.277   0.350   0.485 -1.5662  0.6656  0.8531
 3714SOL     OW11839   4.474   2.331   4.769  0.1015 -0.1714 -0.3688
 3714SOL    HW111840   4.402   2.304   4.713  0.0498 -1.6373  0.3561
 3714SOL    HW211841   4.513   2.249   4.799  0.7555  0.5828  0.9312
 3715SOL     OW11842   1.522   0.968   5.054 -0.1977  0.1518  0.0840
 3715SOL    HW111843   1.526   1.027   5.129  0.1699  2.0946 -1.3861
 3715SOL    HW211844   1.428   0.950   5.043 -0.3568  0.8319  0.2841
 3716SOL     OW11845   2.783   3.366   2.390  0.0107  0.5175  0.2931
 3716SOL    HW111846   2.696   3.405   2.402 -0.4076 -0.6998  1.3805
 3716SOL    HW211847   2.805   3.329   2.475  0.8624 -0.6608 -0.4164
 3717SOL     OW11848   1.291   2.988   4.083 -0.1133 -0.2503  0.6671
 3717SOL    HW111849   1.296   2.940   4.001  1.3802  0.3654  0.3453
 3717SOL    HW211850   1.368   2.959   4.132 -0.2176  0.4137  1.2408
 3718SOL     OW11851   4.228   1.485   4.733  0.5810 -0.1095 -0.1791
 3718SOL    HW111852   4.304   1.435   4.764 -0.0616 -0.7080  0.4532
 3718SOL    HW211853   4.225   1.468   4.639 -0.5958 -2.6773  0.2464
 3719SOL     OW11854   3.672   3.896   2.305 -0.6097 -0.1453  0.0850
 3719SOL    HW111855   3.609   3.824   2.309 -1.2363  0.3687 -0.2396
 3719SOL    HW211856   3.635   3.963   2.363  0.7750 -0.6749  1.6565
 3720SOL     OW11857   0.856   3.523   2.983  0.5072 -0.3633  0.0631
 3720SOL    HW111858   0.858   3.600   3.041  0.7397  1.3637 -2.0809
 3720SOL    HW211859   0.804   3.458   3.031 -1.1721  1.7294  1.2886
 3721SOL     OW11860   0.173   4.873   1.266  0.3837 -0.1223  0.5258
 3721SOL    HW111861   0.136   4.959   1.245  0.5976 -0.5903 -2.2056
 3721SOL    HW211862   0.264   4.891   1.288  1.1964  0.2576 -2.6311
 3722SOL     OW11863   2.609   1.037   1.226 -0.4044 -0.0529  0.2368
 3722SOL    HW111864   2.574   1.094   1.294  0.8047  0.3023  0.5834
 3722SOL    HW211865   2.697   1.015   1.256  0.0795 -0.0452 -1.1279
 3723SOL     OW11866   0.832   1.000   3.304  0.1349  0.3076 -0.2936
 3723SOL    HW111867   0.897   1.053   3.257  0.6239 -0.0350 -0.0062
 3723SOL    HW211868   0.774   1.065   3.343 -0.9968  0.6083 -2.3122
 3724SOL     OW11869   4.750   1.027   5.297  0.0777  0.3895 -0.4320
 3724SOL    HW111870   4.790   1.071   5.372  0.4875 -0.5475 -0.0906
 3724SOL    HW211871   4.679   0.975   5.334  1.3134 -1.3740 -0.4491
 3725SOL     OW11872   2.250   0.095   1.317  0.1972  0.2803 -0.7118
 3725SOL    HW111873   2.196   0.164   1.356 -1.2733 -1.0477 -0.3150
 3725SOL    HW211874   2.307   0.066   1.389 -1.2039 -0.8688 -0.0155
 3726SOL     OW11875   2.455   3.478   3.524 -0.2273  1.2220 -0.4646
 3726SOL    HW111876   2.427   3.415   3.457 -0.7444  0.1930  0.6738
 3726SOL    HW211877   2.412   3.560   3.499 -1.2767  0.5927 -0.8082
 3727SOL     OW11878   2.859   2.051   1.182  0.3820  0.3285  0.0603
 3727SOL    HW111879   2.869   2.000   1.263  0.2427 -2.4431 -1.5461
 3727SOL    HW211880   2.769   2.034   1.154  1.0571 -0.5679 -1.7355
 3728SOL     OW11881   2.011   3.979   0.725  0.3084  0.3297  0.0450
 3728SOL    HW111882   1.969   4.066   0.728  1.0698  0.6953  0.4723
 3728SOL    HW211883   1.993   3.947   0.637 -0.6415  0.5874  0.1328
 3729SOL     OW11884   4.187   4.328   0.681  0.1495  0.3356 -0.5146
 3729SOL    HW111885   4.241   4.398   0.720  0.3882 -0.2264  0.1785
 3729SOL    HW211886   4.205   4.251   0.735  0.5522 -0.4890 -1.7843
 3730SOL     OW11887   3.933   1.785   0.794  0.5193  0.3126  0.1782
 3730SOL    HW111888   3.861   1.789   0.858 -1.6277 -0.3482 -2.0591
 3730SOL    HW211889   3.966   1.696   0.801 -0.3582 -0.0571 -0.2737
 3731SOL     OW11890   3.443   1.027   5.035 -0.5652  0.4986 -0.0797
 3731SOL    HW111891   3.520   1.057   4.986 -0.0684 -0.3712  0.1575
 3731SOL    HW211892   3.474   1.017   5.125 -0.7443 -0.5944 -0.1283
 3732SOL     OW11893   3.265   2.878   0.646  0.2091  0.4480  0.5151
 3732SOL    HW111894   3.275   2.955   0.590  1.4905 -0.2926 -0.3281
 3732SOL    HW211895   3.334   2.885   0.711  0.8777 -0.3978 -0.0855
 3733SOL     OW11896   4.657   4.045   4.723 -0.2899 -0.0381  0.0156
 3733SOL    HW111897   4.601   4.042   4.645 -3.4186  0.2149  2.0800
 3733SOL    HW211898   4.699   3.959   4.726  0.1276  0.0520 -2.0544
 3734SOL     OW11899   1.271   2.206   0.624  0.3130 -0.2804 -0.0861
 3734SOL    HW111900   1.301   2.124   0.584  0.8642  0.4347 -1.1569
 3734SOL    HW211901   1.178   2.210   0.603  0.7181  0.3854 -1.8712
 3735SOL     OW11902   4.942   4.920   0.511 -0.2322 -0.4874  0.2446
 3735SOL    HW111903   4.996   4.855   0.466 -1.2441  0.3135 -2.2973
 3735SOL    HW211904   4.913   4.979   0.442 -1.7214  0.9938  2.0247
 3736SOL     OW11905   2.853   1.354   3.171  0.2371  0.2169 -0.2266
 3736SOL    HW111906   2.805   1.283   3.127 -0.3355  0.0616  0.6266
 3736SOL    HW211907   2.913   1.309   3.231 -0.2410  0.4438  0.4330
 3737SOL     OW11908   0.280   5.099   3.120  0.4435 -0.4030 -0.1840
 3737SOL    HW111909   0.304   5.171   3.178 -1.7874  0.2855 -0.0306
 3737SOL    HW211910   0.185   5.097   3.122  0.4150 -2.7359 -0.9854
 3738SOL     OW11911   0.106   1.212   4.961 -0.0432  0.1158 -0.1472
 3738SOL    HW111912   0.039   1.157   4.920 -1.7453  0.6358  1.7855
 3738SOL    HW211913   0.115   1.287   4.901 -2.8052  1.1042  0.5174
 3739SOL     OW11914   2.547   3.300   2.141 -0.5525  0.2040 -0.1794
 3739SOL    HW111915   2.488   3.375   2.139 -1.4351 -0.4777 -0.9352
 3739SOL    HW211916   2.553   3.276   2.233 -0.9116  0.6930 -0.0247
 3740SOL     OW11917   1.026   3.629   0.559 -0.1157  0.3159  0.2342
 3740SOL    HW111918   0.997   3.541   0.535  0.9777  0.3881 -1.5402
 3740SOL    HW211919   0.960   3.687   0.523 -0.5901  0.2654  0.9957
 3741SOL     OW11920   2.292   3.894   5.051  0.3836  0.3957 -0.2849
 3741SOL    HW111921   2.282   3.847   5.134 -0.7182 -0.1887 -0.7214
 3741SOL    HW211922   2.265   3.830   4.985  2.0053  0.5862 -1.1751
 3742SOL     OW11923   4.635   4.258   1.537 -0.0476 -0.1660  0.5605
 3742SOL    HW111924   4.693   4.207   1.593 -1.7851 -1.2105  1.5027
 3742SOL    HW211925   4.581   4.308   1.598  0.6681  1.8054 -0.3181
 3743SOL     OW11926   3.527   4.652   3.705 -0.0429  0.3874  0.4887
 3743SOL    HW111927   3.575   4.604   3.638 -0.1914 -0.1374  0.7509
 3743SOL    HW211928   3.436   4.627   3.692 -0.3237  1.7306 -0.3003
 3744SOL     OW11929   1.287   2.308   5.154  0.7703  0.3242 -0.0271
 3744SOL    HW111930   1.338   2.328   5.232  0.3268  0.6139  0.1957
 3744SOL    HW211931   1.229   2.384   5.143  0.2324 -0.0919 -0.1357
 3745SOL     OW11932   4.916   1.843   3.888 -0.4489  0.0670  0.5577
 3745SOL    HW111933   4.933   1.772   3.827 -1.4759 -0.5652  0.9821
 3745SOL    HW211934   5.002   1.868   3.921  0.1060  0.3042 -0.9983
 3746SOL     OW11935   1.634   4.388   4.559 -0.0902  0.0630 -0.4310
 3746SOL    HW111936   1.549   4.367   4.520 -0.5634 -0.5956  0.8919
 3746SOL    HW211937   1.690   4.410   4.485 -1.0013 -0.9564 -1.4533
 3747SOL     OW11938   1.356   4.608   1.580  0.3440 -0.1056 -0.5485
 3747SOL    HW111939   1.303   4.578   1.653  1.3941 -0.5091  0.0664
 3747SOL    HW211940   1.343   4.542   1.512  0.1502 -0.2563 -0.3659
 3748SOL     OW11941   3.915   5.044   3.376 -0.7878 -0.2396 -0.1320
 3748SOL    HW111942   3.972   4.980   3.335  2.6236  1.2288  1.8439
 3748SOL    HW211943   3.864   4.994   3.439 -0.7250 -1.4367 -0.9987
 3749SOL     OW11944   4.832   5.365   2.296 -0.3873 -0.3135 -0.3972
 3749SOL    HW111945   4.805   5.430   2.231  0.1121 -1.1117 -1.4299
 3749SOL    HW211946   4.751   5.320   2.320 -0.4598 -0.5597 -1.0870
 3750SOL     OW11947   1.126   4.212   3.643  1.0788  0.0703  0.2781
 3750SOL    HW111948   1.177   4.189   3.565 -1.4497  0.3427 -1.5661
 3750SOL    HW211949   1.092   4.128   3.675  0.3017  0.1681 -0.2693
 3751SOL     OW11950   5.260   0.880   5.063  0.6144  0.0102  0.1503
 3751SOL    HW111951   5.277   0.790   5.089 -0.2359 -0.2638 -0.1991
 3751SOL    HW211952   5.290   0.884   4.972 -0.3192 -0.2287 -0.1799
 3752SOL     OW11953   4.817   3.898   2.351  0.0936  0.6225  0.1092
 3752SOL    HW111954   4.835   3.917   2.259  1.5584  0.4973  0.3343
 3752SOL    HW211955   4.843   3.807   2.363  0.1807  0.7151  0.6881
 3753SOL     OW11956   3.150   3.402   1.501  0.7768  0.1243  0.8782
 3753SOL    HW111957   3.141   3.307   1.510 -0.8945  0.0326 -1.0828
 3753SOL    HW211958   3.227   3.413   1.445  0.9123 -0.0644  1.0230
 3754SOL     OW11959   5.051   2.717   5.332 -0.2195  0.1499 -0.3605
 3754SOL    HW111960   5.113   2.645   5.323 -0.1354  0.2396 -0.5249
 3754SOL    HW211961   5.016   2.709   5.420 -0.4922 -0.3154 -0.5126
 3755SOL     OW11962   4.935   0.154   1.544 -0.1931  0.1669 -0.0027
 3755SOL    HW111963   4.918   0.127   1.635  0.5433 -2.3536 -0.5245
 3755SOL    HW211964   5.013   0.210   1.550 -1.0079  1.2452  1.0335
 3756SOL     OW11965   0.105   4.583   1.225  0.0842  0.4213 -0.6941
 3756SOL    HW111966   0.146   4.666   1.253 -1.5129  0.7699  0.7649
 3756SOL    HW211967   0.037   4.609   1.163  1.3007 -0.0749 -2.3116
 3757SOL     OW11968   0.051   0.423   0.949  0.0425 -0.2093  0.3281
 3757SOL    HW111969  -0.020   0.459   0.896  1.8972  0.6839 -1.7122
 3757SOL    HW211970   0.007   0.371   1.016 -2.5288  0.8797 -0.3985
 3758SOL     OW11971   4.298   4.617   0.130  0.0537  0.0102  0.0322
 3758SOL    HW111972   4.248   4.671   0.191 -2.5962 -0.6656 -1.3577
 3758SOL    HW211973   4.256   4.531   0.135  0.1273 -0.2249 -2.2128
 3759SOL     OW11974   3.822   2.460   0.587  0.7993 -0.2006  0.2945
 3759SOL    HW111975   3.859   2.462   0.676 -1.6454 -1.3529  1.4443
 3759SOL    HW211976   3.741   2.510   0.594  0.0971 -1.0982 -1.0142
 3760SOL     OW11977   0.774   2.147   1.183  0.5423  0.1589  0.1684
 3760SOL    HW111978   0.798   2.055   1.199 -0.2740  0.4084  3.9825
 3760SOL    HW211979   0.681   2.144   1.161  0.6869  0.0350 -0.4302
 3761SOL     OW11980   2.375   3.050   4.235  0.5426  0.2070  0.2205
 3761SOL    HW111981   2.336   3.051   4.322  0.0719  0.1312  0.0156
 3761SOL    HW211982   2.346   3.132   4.195 -1.5870 -0.9758 -0.8576
 3762SOL     OW11983   2.155   3.027   5.134  0.2943  0.2588 -0.0403
 3762SOL    HW111984   2.063   3.030   5.161  0.1875  1.7040 -0.4981
 3762SOL    HW211985   2.200   3.084   5.195  1.4603 -2.6033  2.0062
 3763SOL     OW11986   1.790   4.075   1.020  0.3137 -0.9155 -0.0900
 3763SOL    HW111987   1.703   4.041   0.998  1.7608 -3.3728 -2.6611
 3763SOL    HW211988   1.813   4.130   0.945  1.0721 -0.4011  0.5091
 3764SOL     OW11989   4.996   4.809   5.316 -0.2892  0.0411  0.2652
 3764SOL    HW111990   5.091   4.813   5.307 -0.2777 -0.1603  0.2905
 3764SOL    HW211991   4.981   4.747   5.388 -0.4413 -0.0026  0.1958
 3765SOL     OW11992   1.314   2.047   0.152  0.2085 -0.4340  0.1254
 3765SOL    HW111993   1.226   2.084   0.156 -0.2230 -1.4764  2.0499
 3765SOL    HW211994   1.369   2.113   0.194  0.0255 -0.5328  0.5265
 3766SOL     OW11995   1.219   3.401   3.943  0.2126  0.3842  0.4072
 3766SOL    HW111996   1.151   3.368   4.002 -1.4504 -0.2099 -1.7194
 3766SOL    HW211997   1.176   3.470   3.892  1.0852 -0.2486 -1.2546
 3767SOL     OW11998   1.807   4.991   2.641 -0.3064 -0.0992 -0.2360
 3767SOL    HW111999   1.895   4.972   2.609 -0.4693  0.6859 -1.2084
 3767SOL    HW212000   1.756   4.913   2.619  0.0652 -0.4244  0.0408
 3768SOL     OW12001   2.545   0.387   1.305  1.0618  0.1307  0.0320
 3768SOL    HW112002   2.538   0.344   1.390  3.2985  0.6372  0.5371
 3768SOL    HW212003   2.541   0.316   1.241 -1.2539 -0.2067  0.4533
 3769SOL     OW12004   3.098   0.846   2.470 -0.0022 -0.1615  0.4779
 3769SOL    HW112005   3.118   0.920   2.528 -0.9019 -0.2155  0.8688
 3769SOL    HW212006   3.021   0.805   2.508 -1.1542  0.3081 -1.2161
 3770SOL     OW12007   0.220   3.465   1.546 -0.6178 -0.2829  0.0594
 3770SOL    HW112008   0.152   3.433   1.487 -0.7572 -0.8661  0.5127
 3770SOL    HW212009   0.247   3.387   1.595 -0.2222  0.1084  0.4771
 3771SOL     OW12010   0.374   1.486   0.190  0.1121 -0.0824  0.1064
 3771SOL    HW112011   0.350   1.576   0.213  1.2474  0.1845  0.2752
 3771SOL    HW212012   0.369   1.483   0.095  2.6612  0.9540 -0.1232
 3772SOL     OW12013   4.470   2.100   0.296  0.6715 -0.3037 -0.0204
 3772SOL    HW112014   4.475   2.195   0.282 -0.9752  0.1978  2.2446
 3772SOL    HW212015   4.559   2.075   0.318  0.8429  1.0790  1.0473
 3773SOL     OW12016   1.504   1.136   1.355 -0.1162  0.1132  0.1145
 3773SOL    HW112017   1.463   1.097   1.432  0.9960  1.1079  1.2602
 3773SOL    HW212018   1.466   1.223   1.349  0.7216  0.5077  0.3232
 3774SOL     OW12019   4.561   2.840   4.655  0.0696  0.5039 -0.0179
 3774SOL    HW112020   4.468   2.856   4.675  0.0000  0.5191 -0.3553
 3774SOL    HW212021   4.568   2.745   4.650  0.1615  0.4833  0.4235
 3775SOL     OW12022   0.923   0.522   3.146  0.7312  0.3697  0.3134
 3775SOL    HW112023   0.848   0.548   3.093  0.4594  1.4239  1.1839
 3775SOL    HW212024   0.997   0.566   3.106  0.8401 -0.3512 -0.3051
 3776SOL     OW12025   1.254   5.291   0.224  0.5347  0.0181  0.0081
 3776SOL    HW112026   1.332   5.317   0.273 -0.3678  2.3422  0.3312
 3776SOL    HW212027   1.231   5.205   0.259  1.3456  0.5282  1.9031
 3777SOL     OW12028   4.278   1.926   3.694  0.6718  0.1040  0.1028
 3777SOL    HW112029   4.187   1.905   3.717  0.6370 -0.0717 -0.2008
 3777SOL    HW212030   4.271   1.981   3.617  0.7507  1.4414  1.0195
 3778SOL     OW12031   1.947   4.498   5.323 -0.0969 -0.4264 -0.4236
 3778SOL    HW112032   1.964   4.407   5.296 -0.2389 -0.5134 -0.2276
 3778SOL    HW212033   1.985   4.551   5.253 -0.9712 -0.6576 -1.0985
 3779SOL     OW12034   3.594   2.403   1.231  0.4870  0.1382 -0.0012
 3779SOL    HW112035   3.629   2.341   1.296 -1.1349  0.8343  1.6292
 3779SOL    HW212036   3.608   2.359   1.147 -0.0288 -2.1768  1.0376
 3780SOL     OW12037   4.568   3.250   0.453  0.4111 -0.1860 -0.1575
 3780SOL    HW112038   4.475   3.267   0.469  0.2961 -1.5165  0.7847
 3780SOL    HW212039   4.598   3.325   0.402 -0.6948  1.3038  1.2719
 3781SOL     OW12040   2.494   3.855   0.958  0.0411 -0.3446  0.1532
 3781SOL    HW112041   2.528   3.892   0.877 -3.0646  1.8514 -0.3391
 3781SOL    HW212042   2.436   3.784   0.930  0.7628 -1.1533  0.6528
 3782SOL     OW12043   4.102   5.205   0.339 -0.1170  0.6589  0.1960
 3782SOL    HW112044   4.150   5.213   0.257 -0.8282 -0.3083 -0.3435
 3782SOL    HW212045   4.064   5.117   0.336 -0.9864  0.9784  1.0989
 3783SOL     OW12046   3.522   1.597   2.447  0.2050 -0.2755 -0.3033
 3783SOL    HW112047   3.474   1.569   2.525 -0.1006 -1.0389 -0.7582
 3783SOL    HW212048   3.529   1.519   2.393  0.0124  0.3490 -1.2568
 3784SOL     OW12049   2.863   2.498   4.790 -0.2147 -0.5327 -0.2490
 3784SOL    HW112050   2.957   2.492   4.775 -0.2546 -0.1537 -0.6985
 3784SOL    HW212051   2.854   2.560   4.862 -0.0925 -1.0648  0.2263
 3785SOL     OW12052   4.966   2.270   3.537 -0.4174  0.0392 -0.3443
 3785SOL    HW112053   4.880   2.311   3.533 -0.6756 -0.5419 -1.0659
 3785SOL    HW212054   4.953   2.183   3.499  0.8266  0.5620 -2.1442
 3786SOL     OW12055   4.954   2.459   4.473 -0.0991 -0.7535  0.2498
 3786SOL    HW112056   4.859   2.445   4.477 -0.0785 -1.2621 -0.6636
 3786SOL    HW212057   4.979   2.428   4.386  1.1897 -2.4465  1.1585
 3787SOL     OW12058   2.357   4.174   1.001 -0.4621 -0.1585 -0.2266
 3787SOL    HW112059   2.332   4.233   1.072 -0.0104 -0.8503  0.5364
 3787SOL    HW212060   2.276   4.131   0.976 -0.4211 -0.8743  0.8010
 3788SOL     OW12061   4.883   0.587   0.803  0.3170  0.0652 -0.4500
 3788SOL    HW112062   4.913   0.666   0.849 -0.5542 -0.1665  0.5620
 3788SOL    HW212063   4.893   0.608   0.710  0.0262  1.4009 -0.2003
 3789SOL     OW12064   2.923   3.030   3.831 -0.1961 -0.0599 -0.2976
 3789SOL    HW112065   2.985   3.083   3.781 -0.2644  1.0967  0.8055
 3789SOL    HW212066   2.886   2.970   3.766 -0.7893  1.8424 -1.8254
 3790SOL     OW12067   4.741   0.966   0.439 -0.1151  0.2982 -0.3276
 3790SOL    HW112068   4.685   0.931   0.370 -0.4103 -1.3989  0.7037
 3790SOL    HW212069   4.788   0.890   0.472  0.0782  1.0741  1.2733
 3791SOL     OW12070   3.063   2.281   3.975  0.0601  0.5232 -0.4451
 3791SOL    HW112071   3.134   2.325   4.022 -1.0816  0.5754  1.3185
 3791SOL    HW212072   3.095   2.275   3.884  2.9864 -0.8715  0.5396
 3792SOL     OW12073   0.724   0.117   0.369 -0.0266 -0.1497 -0.1236
 3792SOL    HW112074   0.710   0.171   0.447 -1.2423 -1.0031  0.2815
 3792SOL    HW212075   0.794   0.161   0.322 -1.0666  1.8781  0.1047
 3793SOL     OW12076   2.486   4.823   1.648 -0.4397  0.4594  0.7991
 3793SOL    HW112077   2.539   4.865   1.716 -0.0030  1.2180 -0.0016
 3793SOL    HW212078   2.406   4.875   1.644  0.5062  1.8764 -0.8760
 3794SOL     OW12079   4.692   0.437   5.324 -0.1107  0.0960  0.0201
 3794SOL    HW112080   4.713   0.499   5.255 -1.5682  0.0037 -0.5502
 3794SOL    HW212081   4.739   0.469   5.401 -1.4693  2.4342 -0.0278
 3795SOL     OW12082   4.691   5.174   3.824  0.1951  0.7184  0.1925
 3795SOL    HW112083   4.665   5.084   3.803  0.9449 -0.0677  2.3535
 3795SOL    HW212084   4.614   5.226   3.804 -0.3808 -0.4511 -0.7918
 3796SOL     OW12085   4.934   3.787   4.204 -0.2281  0.2396  0.1788
 3796SOL    HW112086   4.992   3.857   4.172 -0.9804  0.1702 -1.3956
 3796SOL    HW212087   4.872   3.832   4.261  0.9302  0.4119  1.3718
 3797SOL     OW12088   2.952   2.263   1.043 -0.5637 -0.1552  0.0346
 3797SOL    HW112089   2.889   2.330   1.071 -0.8604 -0.7000  0.6809
 3797SOL    HW212090   2.919   2.182   1.081  0.6583 -0.4127  0.5652
 3798SOL     OW12091   2.517   1.935   1.420  0.0165 -0.0244  0.1161
 3798SOL    HW112092   2.555   1.985   1.492 -1.7762  0.9171  0.4731
 3798SOL    HW212093   2.544   1.982   1.341  1.8102 -0.9387  0.1557
 3799SOL     OW12094   2.733   3.303   3.786 -0.4744 -0.1912  0.0657
 3799SOL    HW112095   2.728   3.378   3.727  0.3091  1.2468  1.7235
 3799SOL    HW212096   2.693   3.334   3.868 -0.7480 -1.8216  0.5900
 3800SOL     OW12097   5.354   4.629   4.187  0.2735  0.4392  0.2548
 3800SOL    HW112098   5.314   4.553   4.229  0.4881 -0.8208 -1.6456
 3800SOL    HW212099   5.439   4.597   4.156 -0.4753  0.7318 -2.4178
 3801SOL     OW12100   0.024   5.257   1.063 -0.3390  0.1221  0.6953
 3801SOL    HW112101   0.080   5.226   0.992 -0.4406 -0.0872  0.7058
 3801SOL    HW212102  -0.065   5.240   1.032 -0.3641 -1.0762  1.3677
 3802SOL     OW12103   1.812   4.574   5.089 -0.1923  0.1798 -0.0052
 3802SOL    HW112104   1.803   4.533   5.175 -1.3918 -0.3312 -0.3505
 3802SOL    HW212105   1.735   4.630   5.080  1.2042  2.2550  0.2683
 3803SOL     OW12106   4.656   1.156   1.077  0.3373  0.0138 -0.2626
 3803SOL    HW112107   4.683   1.216   1.146 -1.1099  1.2446 -0.7000
 3803SOL    HW212108   4.580   1.111   1.112 -0.8933  1.2151 -1.2825
 3804SOL     OW12109   3.373   4.601   0.109 -0.5764  0.0073 -0.0444
 3804SOL    HW112110   3.468   4.598   0.120 -0.2862  0.2915 -1.9929
 3804SOL    HW212111   3.338   4.557   0.186  1.0751  0.9359  1.3086
 3805SOL     OW12112   3.764   2.004   3.780  0.2661  0.1446 -0.0481
 3805SOL    HW112113   3.778   2.089   3.823  0.0323 -0.3007  0.9343
 3805SOL    HW212114   3.757   1.942   3.852 -2.4198 -0.3238 -0.5967
 3806SOL     OW12115   0.792   3.021   4.539  0.4392  0.2792 -0.0786
 3806SOL    HW112116   0.785   2.944   4.483 -0.5211 -0.8645  1.5192
 3806SOL    HW212117   0.874   3.063   4.513 -1.4290  1.7410 -4.5862
 3807SOL     OW12118   0.793   2.075   2.509  0.8577  0.3103  0.2548
 3807SOL    HW112119   0.784   2.116   2.423  0.4452 -0.5775 -0.1333
 3807SOL    HW212120   0.841   2.140   2.562  1.8422  0.5213 -0.8667
 3808SOL     OW12121   1.757   2.518   4.764 -0.4158 -0.3692  0.2304
 3808SOL    HW112122   1.673   2.520   4.717 -0.4022 -1.3851  0.1349
 3808SOL    HW212123   1.797   2.435   4.737  0.4878 -0.0313  0.5075
 3809SOL     OW12124   2.123   5.169   1.138  0.3639 -0.0346 -0.6723
 3809SOL    HW112125   2.218   5.185   1.136  0.7741 -2.2675 -1.3684
 3809SOL    HW212126   2.115   5.078   1.164 -1.6343  0.2089 -0.3478
 3810SOL     OW12127   0.351   4.173   3.135 -0.5840 -0.6087 -0.8032
 3810SOL    HW112128   0.402   4.166   3.216 -1.8925  0.9344  0.2425
 3810SOL    HW212129   0.318   4.085   3.119 -0.6473 -0.8610  0.6033
 3811SOL     OW12130   3.608   0.997   2.020 -0.1186  0.2070 -0.1902
 3811SOL    HW112131   3.557   1.076   2.004  0.1857  0.4770  0.1487
 3811SOL    HW212132   3.544   0.926   2.018 -0.1046  0.1816 -2.7146
 3812SOL     OW12133   4.317   1.670   3.495 -0.0688 -1.1121  0.1499
 3812SOL    HW112134   4.395   1.711   3.458  0.1602 -1.4753  0.2180
 3812SOL    HW212135   4.307   1.589   3.445  0.5919 -1.9085  1.2396
 3813SOL     OW12136   3.880   0.398   1.373 -0.2764  0.0700  0.2221
 3813SOL    HW112137   3.933   0.348   1.435 -0.7174  0.7948  1.2117
 3813SOL    HW212138   3.791   0.364   1.384 -0.5421  0.8990  0.7511
 3814SOL     OW12139   1.996   2.615   3.217 -0.5139 -0.1114 -0.6489
 3814SOL    HW112140   1.985   2.692   3.161 -1.0632  0.5472  0.3354
 3814SOL    HW212141   1.926   2.556   3.190  0.1319 -0.4568 -1.6619
 3815SOL     OW12142   4.982   2.658   0.186  0.3245  0.3080 -0.0952
 3815SOL    HW112143   4.892   2.678   0.212  0.3195  0.5592 -0.2934
 3815SOL    HW212144   5.036   2.697   0.254  0.2450 -1.2942  0.9231
 3816SOL     OW12145   0.987   1.934   5.138  0.0752  0.2453  0.3214
 3816SOL    HW112146   1.060   1.976   5.183  0.1741  0.1419  0.2613
 3816SOL    HW212147   0.945   1.880   5.205  0.3157 -0.0279  0.2553
 3817SOL     OW12148   0.606   0.304   1.724 -0.2768  0.0192  0.6493
 3817SOL    HW112149   0.698   0.283   1.713 -0.4078 -0.5804  0.6178
 3817SOL    HW212150   0.585   0.361   1.650 -0.3275 -1.2068 -0.3121
 3818SOL     OW12151   3.534   3.306   4.072 -0.5623 -0.0545 -0.6008
 3818SOL    HW112152   3.470   3.235   4.068  0.0931 -0.7022  0.1508
 3818SOL    HW212153   3.612   3.271   4.029  0.0560 -0.1117  0.5537
 3819SOL     OW12154   2.016   4.817   3.232 -0.1231 -0.5877  0.8264
 3819SOL    HW112155   1.923   4.796   3.230 -0.3813  0.5663 -0.3881
 3819SOL    HW212156   2.034   4.858   3.147  1.6004 -1.2208  0.8309
 3820SOL     OW12157   3.627   3.559   1.798 -0.3349  0.4786 -0.1063
 3820SOL    HW112158   3.634   3.597   1.710 -1.1035 -0.1850 -0.4658
 3820SOL    HW212159   3.562   3.489   1.789  1.3485 -1.2386  0.4329
 3821SOL     OW12160   1.604   0.683   1.018 -0.0894  0.5106  0.0819
 3821SOL    HW112161   1.590   0.730   0.935  0.5443  1.8792  0.7175
 3821SOL    HW212162   1.592   0.750   1.085  0.7721 -0.2640  1.0318
 3822SOL     OW12163   2.313   2.756   3.523 -0.0569 -0.2940 -0.0350
 3822SOL    HW112164   2.274   2.765   3.436 -0.9199 -0.3654  0.3279
 3822SOL    HW212165   2.248   2.795   3.582  1.6495  2.1861  0.3550
 3823SOL     OW12166   3.153   4.361   2.493 -0.8361  0.3457 -0.6848
 3823SOL    HW112167   3.169   4.440   2.441 -1.1672  0.0116 -1.2929
 3823SOL    HW212168   3.235   4.348   2.541  0.0588 -0.2310 -2.2989
 3824SOL     OW12169   1.213   2.050   4.709 -0.3475  0.1779 -0.6192
 3824SOL    HW112170   1.194   2.119   4.772  1.8652 -0.3287  0.7072
 3824SOL    HW212171   1.258   2.094   4.638  0.4684  0.2312 -0.0839
 3825SOL     OW12172   3.238   2.035   4.323 -0.2633  0.5203 -0.1698
 3825SOL    HW112173   3.246   2.127   4.347  1.2064 -0.0038  1.6758
 3825SOL    HW212174   3.196   1.994   4.399  0.2441 -0.5082 -0.4169
 3826SOL     OW12175   2.174   3.452   4.351 -0.1961  0.1301 -0.3043
 3826SOL    HW112176   2.255   3.490   4.386  0.1296 -0.6361 -0.2119
 3826SOL    HW212177   2.147   3.388   4.417  0.7517 -1.7792 -1.6879
 3827SOL     OW12178   3.499   0.914   2.326 -0.3028 -0.7172  0.0696
 3827SOL    HW112179   3.457   0.909   2.240 -0.2336 -1.1879  0.0609
 3827SOL    HW212180   3.470   0.835   2.372 -0.2954 -0.4946  0.4612
 3828SOL     OW12181   4.737   1.145   3.375 -0.2044 -0.6792  0.4419
 3828SOL    HW112182   4.729   1.156   3.280  1.5678 -0.0420  0.3256
 3828SOL    HW212183   4.777   1.059   3.385 -2.0418 -1.5422  0.7344
 3829SOL     OW12184   4.873   1.403   2.730  0.0972  0.0452 -0.4629
 3829SOL    HW112185   4.964   1.433   2.726 -0.1901  1.0461  0.1506
 3829SOL    HW212186   4.856   1.369   2.642  0.8331  0.5491 -0.8193
 3830SOL     OW12187   4.926   4.255   4.034 -0.1373  0.0867  0.6588
 3830SOL    HW112188   4.946   4.261   4.127 -2.8063 -2.3693  1.5330
 3830SOL    HW212189   4.924   4.161   4.016  1.5652  0.4874 -2.2576
 3831SOL     OW12190   0.202   1.790   0.404  0.4819 -0.4827  0.6710
 3831SOL    HW112191   0.119   1.838   0.395  0.2459 -1.0298 -0.2660
 3831SOL    HW212192   0.233   1.781   0.314  1.1628 -0.9883  0.9519
 3832SOL     OW12193   2.621   3.929   1.330  0.2165 -0.1886 -0.1558
 3832SOL    HW112194   2.543   3.949   1.383 -0.4132  0.8695 -1.4273
 3832SOL    HW212195   2.596   3.851   1.281  0.5237 -0.7238  0.5188
 3833SOL     OW12196   2.694   0.594   2.435 -0.1734  0.1572 -0.4212
 3833SOL    HW112197   2.643   0.654   2.380 -0.0434  0.4712 -0.1998
 3833SOL    HW212198   2.703   0.515   2.382  1.9412  1.2593 -1.8347
 3834SOL     OW12199   2.417   2.724   2.987  0.1305 -0.3032 -0.0011
 3834SOL    HW112200   2.452   2.780   3.056  0.5361 -0.9533  0.3279
 3834SOL    HW212201   2.369   2.784   2.929 -2.2161 -0.0035  2.0717
 3835SOL     OW12202   3.642   0.118   3.444  0.0540  0.2480  0.4204
 3835SOL    HW112203   3.590   0.099   3.366 -0.2789 -0.0610  0.7111
 3835SOL    HW212204   3.723   0.068   3.431  0.0331  0.2601  0.2393
 3836SOL     OW12205   0.819   4.230   1.124  0.3152 -0.8474  0.2011
 3836SOL    HW112206   0.817   4.324   1.140 -0.4861 -0.9142  0.4848
 3836SOL    HW212207   0.812   4.222   1.028 -2.5226 -0.6923  0.3235
 3837SOL     OW12208   4.479   3.992   0.971 -0.8017 -0.0857  0.1891
 3837SOL    HW112209   4.557   4.043   0.947 -0.5082 -0.0292  1.2328
 3837SOL    HW212210   4.514   3.911   1.007 -1.1766  0.4909  1.9237
 3838SOL     OW12211   2.186   2.329   3.522  0.0308 -0.2961  0.1870
 3838SOL    HW112212   2.260   2.345   3.463  0.0095 -0.1628  0.1967
 3838SOL    HW212213   2.122   2.396   3.498  0.4120  0.3880  1.0278
 3839SOL     OW12214   3.216   3.772   3.977  0.2477  0.0822 -0.5660
 3839SOL    HW112215   3.303   3.809   3.965 -0.4297  1.8943 -0.2123
 3839SOL    HW212216   3.217   3.692   3.924  2.0515  0.1507 -0.7105
 3840SOL     OW12217   2.016   4.179   4.473 -0.0610  0.1725 -0.7104
 3840SOL    HW112218   1.925   4.165   4.501 -0.0152  0.1287 -0.5822
 3840SOL    HW212219   2.027   4.123   4.396  0.1953 -0.6969 -0.0530
 3841SOL     OW12220   0.746   3.188   2.976  0.3076  0.1450 -0.1666
 3841SOL    HW112221   0.651   3.198   2.971  0.1020 -1.1755  0.7386
 3841SOL    HW212222   0.774   3.181   2.885 -0.7989 -2.1660 -0.3803
 3842SOL     OW12223   1.884   2.155   1.502 -0.0375  0.2852 -0.6561
 3842SOL    HW112224   1.871   2.071   1.548  0.3638  1.5882  2.0269
 3842SOL    HW212225   1.833   2.218   1.552  1.3246  2.0306 -1.3540
 3843SOL     OW12226   1.878   4.950   2.193 -0.1200 -0.1462  0.0081
 3843SOL    HW112227   1.894   4.984   2.104 -0.5197 -3.2705 -1.3958
 3843SOL    HW212228   1.783   4.941   2.199 -0.2648  1.8600  1.5778
 3844SOL     OW12229   3.228   3.693   0.132 -0.1966  0.7171  0.5426
 3844SOL    HW112230   3.145   3.737   0.113  0.1613  1.0867 -0.1914
 3844SOL    HW212231   3.295   3.753   0.099  0.3452  0.1942  0.6753
 3845SOL     OW12232   4.699   1.889   4.996  0.0119 -0.3249 -0.3147
 3845SOL    HW112233   4.661   1.814   4.950  1.0754 -0.7602 -0.5064
 3845SOL    HW212234   4.635   1.911   5.064  0.5650 -2.6484  1.0513
 3846SOL     OW12235   0.232   4.893   0.022 -0.4827  0.8754 -0.4609
 3846SOL    HW112236   0.273   4.808   0.038 -1.1762  0.6149 -0.0241
 3846SOL    HW212237   0.300   4.944  -0.024  0.7167  0.8281  1.1779
 3847SOL     OW12238   3.604   0.297   1.300  0.0653  0.6046  0.2419
 3847SOL    HW112239   3.543   0.357   1.256  0.5693  0.9461  0.0013
 3847SOL    HW212240   3.606   0.220   1.244  0.9766  1.1760 -0.5565
 3848SOL     OW12241   2.545   0.572   2.099 -0.2496 -0.2311 -0.2611
 3848SOL    HW112242   2.460   0.587   2.140 -1.0410 -0.7023 -1.6630
 3848SOL    HW212243   2.527   0.510   2.028  1.0882  0.4012 -1.1910
 3849SOL     OW12244   3.708   1.021   1.714 -0.6772 -0.7028 -0.3865
 3849SOL    HW112245   3.753   1.105   1.724 -0.9182 -0.7901  2.0554
 3849SOL    HW212246   3.776   0.955   1.727 -0.8190 -0.8795 -0.5286
 3850SOL     OW12247   4.994   4.041   0.792  0.3232  0.3242 -0.2512
 3850SOL    HW112248   5.047   4.036   0.871 -1.1313 -1.0254  0.7154
 3850SOL    HW212249   4.975   3.949   0.771 -0.4415  0.7180 -1.3717
 3851SOL     OW12250   4.466   0.094   2.978  0.1839 -0.4115  0.6161
 3851SOL    HW112251   4.448   0.017   2.925  2.5018 -0.6180  0.0545
 3851SOL    HW212252   4.444   0.067   3.067 -2.1056 -0.6079  0.0593
 3852SOL     OW12253   0.113   0.245   2.933  0.0549  0.2787  0.7004
 3852SOL    HW112254   0.109   0.176   3.000  2.4942  0.1497  0.7801
 3852SOL    HW212255   0.026   0.242   2.892 -0.2485 -2.1912  1.3239
 3853SOL     OW12256   0.778   0.192   1.444  0.4083  0.1595  0.0393
 3853SOL    HW112257   0.717   0.263   1.463  1.3354  1.1684 -0.6208
 3853SOL    HW212258   0.862   0.236   1.430  1.3950 -1.2232  1.3417
 3854SOL     OW12259   0.977   1.761   2.104 -0.3805 -0.5642 -0.2291
 3854SOL    HW112260   1.012   1.753   2.015 -0.9537 -2.2022 -0.3445
 3854SOL    HW212261   0.930   1.844   2.104 -0.8664 -0.8023 -1.6637
 3855SOL     OW12262   1.891   4.001   5.130  0.2132  0.5399  0.4182
 3855SOL    HW112263   1.965   3.984   5.072  0.9386 -2.2938  1.9724
 3855SOL    HW212264   1.814   3.988   5.074  0.8802  0.5451 -0.5281
 3856SOL     OW12265   3.646   4.205   1.524 -0.1598 -0.4074 -0.2147
 3856SOL    HW112266   3.648   4.115   1.490 -0.8686 -0.2587 -0.6763
 3856SOL    HW212267   3.582   4.250   1.469  0.2435  0.4081 -0.0391
 3857SOL     OW12268   1.244   1.462   5.105 -0.4313 -0.9193 -0.6646
 3857SOL    HW112269   1.299   1.484   5.031  0.0529 -1.4380 -0.4607
 3857SOL    HW212270   1.174   1.528   5.104  0.5968  0.1977 -0.4818
 3858SOL     OW12271   5.179   4.430   0.866 -0.1612  0.1572  0.2099
 3858SOL    HW112272   5.183   4.401   0.957  0.8092  0.4201  0.2652
 3858SOL    HW212273   5.251   4.492   0.858 -0.6834  0.6764 -0.5562
 3859SOL     OW12274   3.539   2.210   0.388 -0.3425  0.8908 -0.2910
 3859SOL    HW112275   3.522   2.118   0.369 -1.5829  1.3955 -1.7424
 3859SOL    HW212276   3.635   2.218   0.386 -0.0626 -0.8037  2.1649
 3860SOL     OW12277   2.934   1.865   0.646 -0.0133 -0.4638  0.0409
 3860SOL    HW112278   2.847   1.905   0.652  0.1215  0.2148 -1.7325
 3860SOL    HW212279   2.917   1.777   0.610  0.1428  0.8106 -3.5850
 3861SOL     OW12280   3.095   1.569   3.846 -0.0603  0.0541  0.6364
 3861SOL    HW112281   3.170   1.599   3.897  1.4642 -1.6345 -0.4928
 3861SOL    HW212282   3.026   1.555   3.911  0.7775  1.0858  1.7786
 3862SOL     OW12283   4.135   2.041   1.687  0.0648  0.0413  0.3401
 3862SOL    HW112284   4.099   2.082   1.608 -1.0212 -1.7213 -0.1391
 3862SOL    HW212285   4.058   2.006   1.732  0.7649  0.2510  1.7247
 3863SOL     OW12286   0.136   2.466   3.789 -0.2975 -0.0902 -0.2206
 3863SOL    HW112287   0.098   2.400   3.847 -0.8627 -0.7506 -1.3108
 3863SOL    HW212288   0.132   2.547   3.839 -2.0728 -0.3706  0.1669
 3864SOL     OW12289   1.103   3.422   1.360  0.3902 -0.2933 -0.2039
 3864SOL    HW112290   1.104   3.327   1.358  1.8204 -0.4735  2.9623
 3864SOL    HW212291   1.111   3.444   1.453  1.0565  2.9173 -0.8983
 3865SOL     OW12292   0.059   0.656   4.131 -0.2528  0.1777 -0.1630
 3865SOL    HW112293   0.032   0.627   4.218 -0.1151 -0.8673 -0.4533
 3865SOL    HW212294   0.155   0.658   4.135 -0.2733  2.0227  0.2835
 3866SOL     OW12295   4.663   3.692   3.239  0.3604 -0.2659  0.0166
 3866SOL    HW112296   4.736   3.650   3.193 -1.0273 -2.2557 -0.5246
 3866SOL    HW212297   4.647   3.635   3.315 -0.0431  0.6632  0.6489
 3867SOL     OW12298   2.711   0.115   2.717  0.3148  0.0151 -0.4167
 3867SOL    HW112299   2.666   0.031   2.719 -0.1335  0.2358 -1.0070
 3867SOL    HW212300   2.644   0.178   2.690  0.6135  0.5882  0.1389
 3868SOL     OW12301   3.301   4.520   2.195 -0.1251 -0.0366 -0.1151
 3868SOL    HW112302   3.310   4.616   2.194  1.7057 -0.1735 -0.7190
 3868SOL    HW212303   3.362   4.492   2.264 -0.0210 -0.8086 -0.5134
 3869SOL     OW12304   4.734   4.025   5.066 -0.0276  0.0802  0.6259
 3869SOL    HW112305   4.746   4.082   5.142  1.2534 -0.4678  0.8657
 3869SOL    HW212306   4.816   3.976   5.059  0.3406  0.9065 -1.7842
 3870SOL     OW12307   4.450   4.081   5.244  0.9146 -0.3354  0.0384
 3870SOL    HW112308   4.476   3.990   5.237 -0.7154 -1.0748  2.5040
 3870SOL    HW212309   4.366   4.085   5.198  1.4063  0.1637 -0.8442
 3871SOL     OW12310   3.173   3.827   0.824 -0.3137  0.6034 -0.3035
 3871SOL    HW112311   3.144   3.820   0.915  0.1737  0.4823 -0.1517
 3871SOL    HW212312   3.207   3.740   0.803 -0.5732  0.5866 -0.6533
 3872SOL     OW12313   2.413   2.551   3.224 -0.2766 -0.2372 -0.0886
 3872SOL    HW112314   2.420   2.583   3.134  2.2459  0.0351  0.1146
 3872SOL    HW212315   2.373   2.465   3.216  2.3477 -1.4451 -1.8701
 3873SOL     OW12316   1.126   0.720   3.364  0.7359 -0.1462 -0.9092
 3873SOL    HW112317   1.044   0.672   3.354  0.4876  0.1417 -0.2745
 3873SOL    HW212318   1.132   0.738   3.458  0.6573  1.3476 -1.1676
 3874SOL     OW12319   1.307   0.460   0.971 -0.5008 -0.5271  0.2015
 3874SOL    HW112320   1.227   0.457   0.919  1.8912  0.6203 -3.9446
 3874SOL    HW212321   1.308   0.548   1.009 -0.0369  0.4658 -1.9843
 3875SOL     OW12322   0.708   4.642   1.880  0.5055 -0.2022 -0.0851
 3875SOL    HW112323   0.671   4.585   1.948  0.1514  0.2285  0.0812
 3875SOL    HW212324   0.636   4.698   1.853  0.3124 -1.1369 -1.6478
 3876SOL     OW12325   1.764   1.903   0.259  0.0438 -0.2655 -0.0288
 3876SOL    HW112326   1.786   1.983   0.213 -0.9596 -0.2403 -0.4891
 3876SOL    HW212327   1.673   1.915   0.286 -0.4535 -1.6304 -0.9754
 3877SOL     OW12328   5.135   2.296   0.687 -0.6272 -0.1670  0.1558
 3877SOL    HW112329   5.139   2.366   0.621 -0.4653  0.0314  0.3728
 3877SOL    HW212330   5.162   2.218   0.640 -1.5073 -0.2230 -0.2718
 3878SOL     OW12331   2.859   1.606   0.609  0.1858 -0.2239  0.0260
 3878SOL    HW112332   2.946   1.566   0.612  0.0184 -0.6281 -0.3534
 3878SOL    HW212333   2.810   1.561   0.677  1.0846  2.0302  2.3211
 3879SOL     OW12334   4.723   4.072   1.782  0.9683 -0.3412  0.1338
 3879SOL    HW112335   4.768   4.153   1.802  3.3907 -1.4658 -0.4380
 3879SOL    HW212336   4.656   4.064   1.850  1.1401  1.7333  0.6001
 3880SOL     OW12337   1.719   2.676   4.074  0.5477 -0.5458  0.3066
 3880SOL    HW112338   1.670   2.597   4.052  3.0315 -2.0370 -0.3617
 3880SOL    HW212339   1.663   2.723   4.136 -0.7737 -3.1641  1.2743
 3881SOL     OW12340   0.177   0.312   2.462  0.2680 -0.2694  0.2637
 3881SOL    HW112341   0.211   0.311   2.552 -0.9960 -0.5738  0.7595
 3881SOL    HW212342   0.085   0.287   2.471  0.6492 -2.6292 -1.3414
 3882SOL     OW12343   0.303   3.109   4.506 -0.2157  0.4157 -0.0964
 3882SOL    HW112344   0.327   3.073   4.420 -0.9602  0.9353 -0.5263
 3882SOL    HW212345   0.234   3.172   4.488  0.5187  1.5015  0.7368
 3883SOL     OW12346   4.617   2.582   0.998 -0.1831  0.0202  0.1516
 3883SOL    HW112347   4.633   2.670   1.033  0.8190 -0.4477  0.9169
 3883SOL    HW212348   4.534   2.555   1.037  0.6069 -0.2450  1.7674
 3884SOL     OW12349   4.838   3.266   4.841 -0.1556 -0.1220 -0.1340
 3884SOL    HW112350   4.853   3.274   4.935  0.8075 -2.3615 -0.0373
 3884SOL    HW212351   4.797   3.180   4.830  0.3699 -0.1973 -1.8093
 3885SOL     OW12352   3.470   4.144   4.370  0.1295 -0.0365 -0.2574
 3885SOL    HW112353   3.405   4.207   4.340 -0.7313 -0.5480  0.4662
 3885SOL    HW212354   3.549   4.196   4.385 -0.6538  0.9351  0.6446
 3886SOL     OW12355   5.148   2.190   4.562  0.9726  0.2030  0.1682
 3886SOL    HW112356   5.058   2.182   4.529  0.8388  0.3149  0.4893
 3886SOL    HW212357   5.154   2.124   4.631  1.1800  0.1091  0.0606
 3887SOL     OW12358   3.858   0.400   2.069  0.4991  0.0882  0.0003
 3887SOL    HW112359   3.870   0.480   2.120 -0.3966 -0.2134  0.7018
 3887SOL    HW212360   3.809   0.428   1.991 -2.9068 -0.2366  1.8363
 3888SOL     OW12361   1.043   1.556   1.016  0.0881  0.0791 -0.3538
 3888SOL    HW112362   1.109   1.557   0.947  0.1880 -0.2211 -0.2634
 3888SOL    HW212363   0.966   1.597   0.977  0.0645 -0.3060 -0.7210
 3889SOL     OW12364   5.280   5.195   3.781  0.2872 -1.0171 -0.1087
 3889SOL    HW112365   5.185   5.209   3.779  0.0487 -2.1197  1.5336
 3889SOL    HW212366   5.308   5.235   3.863  1.2743 -0.5998 -0.6403
 3890SOL     OW12367   1.251   3.764   4.189  0.0030  0.0937 -0.6153
 3890SOL    HW112368   1.234   3.755   4.095 -0.7594 -0.9699 -0.3960
 3890SOL    HW212369   1.344   3.744   4.199 -0.0945 -0.6088 -1.0558
 3891SOL     OW12370   0.527   1.318   1.818  0.1563  0.4587  0.0749
 3891SOL    HW112371   0.448   1.370   1.801  0.7578  1.8391  1.2109
 3891SOL    HW212372   0.539   1.325   1.913  1.0869 -0.5761  0.0499
 3892SOL     OW12373   2.761   1.911   4.276 -0.5321  0.1658  0.0963
 3892SOL    HW112374   2.670   1.937   4.284 -1.2265 -1.4361 -1.7874
 3892SOL    HW212375   2.781   1.919   4.183  0.8474 -0.7361  0.2794
 3893SOL     OW12376   2.219   0.555   2.866 -0.5339  0.2716 -0.2898
 3893SOL    HW112377   2.193   0.510   2.786 -1.4689 -0.1083  0.2042
 3893SOL    HW212378   2.307   0.522   2.886 -0.1134  0.6960 -1.3748
 3894SOL     OW12379   0.591   1.888   3.607 -0.4778  0.0466 -0.4673
 3894SOL    HW112380   0.676   1.921   3.633 -0.6157 -0.3266  0.4894
 3894SOL    HW212381   0.532   1.963   3.614  0.2468  1.1293 -3.9706
 3895SOL     OW12382   0.772   0.717   3.007 -0.3902 -0.2287 -0.0516
 3895SOL    HW112383   0.768   0.736   3.101  0.9066  1.2497 -0.2717
 3895SOL    HW212384   0.701   0.768   2.969 -0.3162 -0.0775  0.0126
 3896SOL     OW12385   4.962   3.504   0.753  0.1480  0.4154  0.0988
 3896SOL    HW112386   4.932   3.423   0.794 -1.1279 -0.2924 -2.0558
 3896SOL    HW212387   5.035   3.478   0.697 -1.5901  0.2596 -2.2381
 3897SOL     OW12388   4.958   4.170   3.390 -0.7686  0.2681  0.4740
 3897SOL    HW112389   4.941   4.160   3.296 -1.0857  0.3572  0.5213
 3897SOL    HW212390   5.013   4.249   3.396  0.2015 -0.3673  0.2661
 3898SOL     OW12391   5.256   4.720   0.186 -0.2285  0.2506  0.1644
 3898SOL    HW112392   5.254   4.702   0.280 -1.4850 -2.7403 -0.3105
 3898SOL    HW212393   5.349   4.714   0.163  0.0083  0.2283  1.0669
 3899SOL     OW12394   4.511   0.581   2.499  0.0448 -0.4333 -0.4350
 3899SOL    HW112395   4.482   0.582   2.407 -1.2845  0.2356 -0.0352
 3899SOL    HW212396   4.489   0.668   2.531 -0.2015 -0.9143  0.7254
 3900SOL     OW12397   4.623   4.694   2.264  0.2295  0.8778  0.1178
 3900SOL    HW112398   4.641   4.736   2.180  0.5147 -2.2063 -1.5112
 3900SOL    HW212399   4.701   4.713   2.317  0.4105  2.2054 -0.5898
 3901SOL     OW12400   3.734   1.939   1.499  0.3979  0.6536 -0.4995
 3901SOL    HW112401   3.645   1.963   1.526  0.8920  3.1527 -0.8812
 3901SOL    HW212402   3.745   1.850   1.532 -0.6262  1.8381  3.5880
 3902SOL     OW12403   4.748   1.264   1.320 -0.3805  0.1168  0.4450
 3902SOL    HW112404   4.823   1.323   1.323 -0.1096 -0.1863 -0.1978
 3902SOL    HW212405   4.739   1.232   1.409  0.0482  0.4099  0.5962
 3903SOL     OW12406   5.200   0.103   4.640  0.6274 -0.0889 -0.2680
 3903SOL    HW112407   5.161   0.113   4.726  0.0701 -0.8393 -0.4318
 3903SOL    HW212408   5.290   0.073   4.658  0.1404 -1.4323  0.0335
 3904SOL     OW12409   2.012   3.401   3.388  0.2366 -0.0792 -0.4298
 3904SOL    HW112410   1.997   3.431   3.478  0.6368  1.2843 -0.7985
 3904SOL    HW212411   2.107   3.397   3.380  0.2241  0.7236 -1.0742
 3905SOL     OW12412   4.454   2.279   5.351 -0.2171  0.4723  0.0220
 3905SOL    HW112413   4.477   2.297   5.442 -0.2380 -1.0063  0.3471
 3905SOL    HW212414   4.538   2.282   5.304  1.0382 -4.9048  1.2024
 3906SOL     OW12415   3.558   0.441   3.845 -0.0622 -0.2403  0.5653
 3906SOL    HW112416   3.463   0.428   3.849 -0.2670  0.6667 -0.5587
 3906SOL    HW212417   3.590   0.371   3.788 -0.1373 -0.2379  0.5201
 3907SOL     OW12418   4.770   3.927   4.359  0.1613 -0.1068  0.5081
 3907SOL    HW112419   4.792   4.002   4.414  0.6268  0.3395 -0.2844
 3907SOL    HW212420   4.687   3.952   4.317 -0.3085 -0.5366  1.1457
 3908SOL     OW12421   1.165   4.548   0.398  0.3141  0.0706  0.3934
 3908SOL    HW112422   1.234   4.483   0.382  1.1291  0.6934  1.3488
 3908SOL    HW212423   1.156   4.551   0.493 -0.8095  0.2434  0.2920
 3909SOL     OW12424   3.371   2.544   2.290 -0.2587 -0.2997 -0.3017
 3909SOL    HW112425   3.352   2.510   2.202  0.1681 -1.9976  0.2194
 3909SOL    HW212426   3.428   2.619   2.275  0.2054 -0.8586 -1.4809
 3910SOL     OW12427   2.428   4.852   3.728 -0.7006 -0.3915 -0.2348
 3910SOL    HW112428   2.372   4.860   3.651 -0.4371 -1.3884 -0.5452
 3910SOL    HW212429   2.442   4.942   3.757 -0.3407  0.0461 -1.6891
 3911SOL     OW12430   5.223   3.706   3.223 -0.1063  0.2007 -0.0149
 3911SOL    HW112431   5.138   3.723   3.182 -0.7519 -1.5184  0.5462
 3911SOL    HW212432   5.229   3.771   3.294 -0.8316  0.4908 -0.2134
 3912SOL     OW12433   1.941   2.590   4.252  0.5022 -0.2946  0.1136
 3912SOL    HW112434   1.888   2.642   4.192  1.3324 -2.2208 -2.4730
 3912SOL    HW212435   1.882   2.522   4.283  0.3353  0.1449  0.7987
 3913SOL     OW12436   3.945   2.200   0.903 -0.6834  0.7020  0.0373
 3913SOL    HW112437   4.007   2.240   0.842 -0.6873 -0.4043 -0.7185
 3913SOL    HW212438   3.945   2.258   0.979  1.5953  0.5152  0.2298
 3914SOL     OW12439   0.448   0.006   2.648  0.0644  0.3267  0.6240
 3914SOL    HW112440   0.542  -0.004   2.636  0.6852  3.4668  1.8514
 3914SOL    HW212441   0.410  -0.075   2.614  3.0307 -0.2208 -1.7277
 3915SOL     OW12442   3.350   0.523   2.211 -0.2108  0.2626 -0.0149
 3915SOL    HW112443   3.351   0.429   2.193 -0.9845  0.4126 -0.9050
 3915SOL    HW212444   3.257   0.548   2.208  0.0376  1.1845 -0.5261
 3916SOL     OW12445   5.195   4.031   1.696  0.8411 -0.0118 -0.0861
 3916SOL    HW112446   5.222   4.117   1.726  0.8135 -0.0232 -0.0285
 3916SOL    HW212447   5.271   3.997   1.649  1.1200 -0.2706  0.5513
 3917SOL     OW12448   1.516   4.643   4.331  0.6363 -0.6705 -0.1985
 3917SOL    HW112449   1.568   4.711   4.375  0.0783 -0.1790 -0.2785
 3917SOL    HW212450   1.538   4.653   4.239 -0.8734  0.7265 -0.4694
 3918SOL     OW12451   3.724   3.880   3.007 -0.2877 -0.1570 -0.1907
 3918SOL    HW112452   3.793   3.820   2.978 -0.3933 -0.4119  0.0848
 3918SOL    HW212453   3.769   3.943   3.063 -0.4925 -1.1247  1.1145
 3919SOL     OW12454   5.153   1.076   3.542  0.6845  0.4944  0.1644
 3919SOL    HW112455   5.215   1.094   3.471 -0.0881 -0.5774 -0.8337
 3919SOL    HW212456   5.101   1.156   3.548  0.3552  0.3839 -0.9300
 3920SOL     OW12457   4.824   4.101   0.331 -0.1366  0.2606  0.3755
 3920SOL    HW112458   4.796   4.190   0.351 -1.6299 -0.0485 -0.1650
 3920SOL    HW212459   4.798   4.049   0.407  0.6772  0.2543  0.6647
 3921SOL     OW12460   4.549   1.969   2.340 -0.2934  0.0892 -0.1351
 3921SOL    HW112461   4.538   1.898   2.404  2.0832  0.7592  1.1494
 3921SOL    HW212462   4.539   2.049   2.392 -0.2550  0.6827 -1.0191
 3922SOL     OW12463   3.952   1.413   5.145  0.1513  0.1018 -0.6018
 3922SOL    HW112464   4.019   1.432   5.211  0.0755 -1.5471  0.0068
 3922SOL    HW212465   3.995   1.353   5.084 -0.6607 -0.7334 -0.3726
 3923SOL     OW12466   0.407   4.117   2.881 -0.6559  0.6457 -0.4262
 3923SOL    HW112467   0.365   4.164   2.952  0.3504  1.0012 -0.0601
 3923SOL    HW212468   0.351   4.134   2.805 -2.3560 -0.6270  0.4584
 3924SOL     OW12469   1.025   3.494   4.847 -0.2523  0.2594 -0.1720
 3924SOL    HW112470   1.117   3.504   4.826 -0.1092 -1.2071 -0.3346
 3924SOL    HW212471   1.003   3.573   4.896  1.1568  0.4984  0.1187
 3925SOL     OW12472   2.263   4.741   3.067  0.2185 -0.1932  0.3947
 3925SOL    HW112473   2.353   4.751   3.097  0.2399  1.6471 -0.1188
 3925SOL    HW212474   2.266   4.769   2.975 -0.6400 -1.4237 -0.0324
 3926SOL     OW12475   4.366   3.961   4.102  0.8494  0.1998  0.4146
 3926SOL    HW112476   4.309   3.903   4.152 -0.6095  1.8481  0.7396
 3926SOL    HW212477   4.312   3.991   4.029  0.7581  2.9235  1.5144
 3927SOL     OW12478   3.556   5.309   3.994 -0.0896 -0.2779 -0.6041
 3927SOL    HW112479   3.639   5.353   4.010  0.3768 -0.6397 -1.8900
 3927SOL    HW212480   3.579   5.217   3.984 -0.5421 -0.2943 -1.6312
 3928SOL     OW12481   0.251   4.339   1.225 -0.5529  0.1710  0.7683
 3928SOL    HW112482   0.316   4.388   1.175 -1.1384  1.3002  1.0914
 3928SOL    HW212483   0.177   4.399   1.234 -2.1307 -1.4470 -0.5847
 3929SOL     OW12484   1.843   1.455   3.020 -0.2132  0.2130 -0.3069
 3929SOL    HW112485   1.800   1.374   3.047 -0.6875 -0.4084 -2.7588
 3929SOL    HW212486   1.785   1.493   2.955  1.4004  1.0439 -1.3278
 3930SOL     OW12487   2.845   1.971   4.565 -0.2560  0.5224 -0.2128
 3930SOL    HW112488   2.862   2.065   4.556  1.0727  0.2122 -1.1518
 3930SOL    HW212489   2.814   1.944   4.478  1.5529 -0.3261 -0.6306
 3931SOL     OW12490   0.105   1.080   4.071  0.2176 -0.0697  0.3814
 3931SOL    HW112491   0.100   0.993   4.029  0.2591 -1.7000  3.4822
 3931SOL    HW212492   0.196   1.108   4.057  0.6074 -1.1932  0.5550
 3932SOL     OW12493   4.870   1.442   3.805  0.0532 -0.2171  0.2725
 3932SOL    HW112494   4.791   1.408   3.764  0.0017 -2.5655  2.0786
 3932SOL    HW212495   4.942   1.403   3.756  0.0654  0.3921 -0.1968
 3933SOL     OW12496   3.602   3.933   2.037  0.2995 -0.0917 -0.1792
 3933SOL    HW112497   3.693   3.962   2.025  0.5482 -0.4462  0.7261
 3933SOL    HW212498   3.589   3.934   2.132 -0.7537  0.2649 -0.3151
 3934SOL     OW12499   4.337   4.125   4.579  0.3705 -0.7682  0.4628
 3934SOL    HW112500   4.366   4.153   4.666  0.4169  0.1066  0.1808
 3934SOL    HW212501   4.397   4.170   4.519 -0.9161  0.2818 -0.0921
 3935SOL     OW12502   2.111   3.055   0.466 -0.2154 -0.0065 -0.9866
 3935SOL    HW112503   2.134   2.965   0.490  2.0500  0.3678 -1.4708
 3935SOL    HW212504   2.139   3.107   0.541  1.0867  0.5391 -1.8255
 3936SOL     OW12505   4.828   3.529   2.610  0.9122 -0.1287 -0.2851
 3936SOL    HW112506   4.892   3.470   2.648  0.0386 -1.3656 -0.6711
 3936SOL    HW212507   4.796   3.581   2.684  0.4570 -1.3316  0.3836
 3937SOL     OW12508   2.354   1.643   3.640  0.6702 -0.3491  0.9613
 3937SOL    HW112509   2.321   1.599   3.562  0.6901  1.2419 -0.0043
 3937SOL    HW212510   2.285   1.705   3.664  1.9109  1.3413  0.3345
 3938SOL     OW12511   0.538   0.954   4.226  0.0568  0.6473 -0.3162
 3938SOL    HW112512   0.599   0.885   4.252  0.2128  0.7268 -0.4708
 3938SOL    HW212513   0.567   1.031   4.275 -0.4985  0.4529  0.3394
 3939SOL     OW12514   1.882   3.590   1.888 -0.1031 -0.6123  0.5617
 3939SOL    HW112515   1.879   3.503   1.927 -1.3659  0.1617  2.3294
 3939SOL    HW212516   1.807   3.593   1.828  0.9076 -1.2569 -0.7943
 3940SOL     OW12517   0.171   4.189   0.934 -0.5419  0.0275 -0.9605
 3940SOL    HW112518   0.266   4.197   0.943 -0.4736 -0.8682 -0.7252
 3940SOL    HW212519   0.159   4.156   0.845 -0.7172  1.3135 -1.4251
 3941SOL     OW12520   2.660   5.194   1.368  0.0587 -0.3289 -0.2112
 3941SOL    HW112521   2.678   5.129   1.436  0.6783 -0.3462 -0.3872
 3941SOL    HW212522   2.580   5.164   1.326 -0.1975 -0.4491  0.3489
 3942SOL     OW12523   3.502   2.962   3.410 -0.4577  0.4816 -0.4943
 3942SOL    HW112524   3.585   3.010   3.406 -0.8532  1.1310 -1.2709
 3942SOL    HW212525   3.484   2.936   3.320 -1.3244  0.7544 -0.4144
 3943SOL     OW12526   1.613   2.506   2.209 -0.1854 -0.6150 -0.0185
 3943SOL    HW112527   1.606   2.510   2.114 -1.2761  0.4365  0.0783
 3943SOL    HW212528   1.535   2.459   2.237 -0.4674  0.1031  0.4186
 3944SOL     OW12529   4.123   1.151   5.049  0.3012  0.6393 -0.6548
 3944SOL    HW112530   4.159   1.190   4.969 -1.0067  1.9184 -0.6757
 3944SOL    HW212531   4.198   1.146   5.109  0.5759  3.3111 -0.6428
 3945SOL     OW12532   0.286   2.299   2.443  0.6723  0.3747 -0.2428
 3945SOL    HW112533   0.294   2.287   2.538  0.9265 -1.2937 -0.4474
 3945SOL    HW212534   0.203   2.345   2.432  1.0046  1.2934  0.8132
 3946SOL     OW12535   2.035   3.739   0.850  0.3505  0.0810  0.1685
 3946SOL    HW112536   2.022   3.820   0.801 -2.3702 -0.7464 -0.6415
 3946SOL    HW212537   2.091   3.686   0.793  1.6984  1.1430  0.4617
 3947SOL     OW12538   1.359   1.416   5.376  0.4566  0.6074  0.5865
 3947SOL    HW112539   1.331   1.450   5.460 -1.3676 -0.0388  0.2838
 3947SOL    HW212540   1.325   1.479   5.312 -1.4063 -0.7690  0.1415
 3948SOL     OW12541   3.818   0.486   2.448 -0.0628  0.0396 -0.0335
 3948SOL    HW112542   3.768   0.424   2.501  1.4724 -0.5982  0.7616
 3948SOL    HW212543   3.910   0.466   2.468  0.5120  1.7961 -0.6501
 3949SOL     OW12544   5.362   0.218   5.306 -0.1444 -0.1178  0.0655
 3949SOL    HW112545   5.285   0.175   5.269 -1.2130  0.8010  1.1241
 3949SOL    HW212546   5.385   0.163   5.382  1.0984 -1.1288 -0.9764
 3950SOL     OW12547   0.119   5.044   2.716 -0.2977  0.2270  0.1548
 3950SOL    HW112548   0.155   5.132   2.723  0.3170  0.0266 -0.3835
 3950SOL    HW212549   0.043   5.044   2.774 -0.9479  1.4397 -0.6600
 3951SOL     OW12550   3.980   3.106   3.086 -0.4814  0.2530 -0.2055
 3951SOL    HW112551   3.930   3.094   3.006 -0.9994  0.7530  0.0325
 3951SOL    HW212552   3.938   3.181   3.130  1.8400  2.2082 -1.0844
 3952SOL     OW12553   3.087   4.123   1.508 -0.4327  0.5579  0.3581
 3952SOL    HW112554   3.090   4.184   1.582 -1.0233 -0.4840  1.2678
 3952SOL    HW212555   3.107   4.037   1.547 -0.6925  0.0018 -0.7057
 3953SOL     OW12556   5.095   4.038   4.182  0.5615 -0.1744 -0.1825
 3953SOL    HW112557   5.179   4.021   4.140  0.1327 -1.2787 -0.6298
 3953SOL    HW212558   5.117   4.087   4.261  1.4580  1.1328 -1.2031
 3954SOL     OW12559   3.830   0.682   0.015 -0.3537  0.1012 -0.6077
 3954SOL    HW112560   3.854   0.602  -0.033 -0.3250  0.4246 -1.1357
 3954SOL    HW212561   3.742   0.704  -0.018 -1.3109 -0.9164  1.1057
 3955SOL     OW12562   0.787   0.724   3.385  0.3016 -0.2966  0.1550
 3955SOL    HW112563   0.709   0.670   3.372  0.0742 -0.1371  0.8272
 3955SOL    HW212564   0.766   0.807   3.344  0.2433 -0.3564  0.0622
 3956SOL     OW12565   0.842   3.987   4.075  0.0469 -0.0998 -0.0405
 3956SOL    HW112566   0.825   3.893   4.074  0.7357 -0.2268 -1.3320
 3956SOL    HW212567   0.864   4.006   4.166 -1.4388 -0.9188  0.5271
 3957SOL     OW12568   0.986   2.204   0.981 -0.1448  0.4902  0.1067
 3957SOL    HW112569   0.932   2.132   1.015 -0.9625  0.5053 -1.1201
 3957SOL    HW212570   1.021   2.247   1.060  0.7156 -1.4821  0.8700
 3958SOL     OW12571   4.083   2.788   3.980  0.4025 -0.1536  0.8245
 3958SOL    HW112572   4.064   2.747   3.895  2.8350 -0.4604  0.3380
 3958SOL    HW212573   4.117   2.874   3.957 -1.3117  0.7924  1.6694
 3959SOL     OW12574   0.444   4.054   1.936  0.3134 -0.8242 -0.3759
 3959SOL    HW112575   0.518   4.043   1.876  0.6357 -0.4323 -0.0631
 3959SOL    HW212576   0.405   4.138   1.910  0.5303 -0.5935  0.0386
 3960SOL     OW12577   2.519   0.455   3.649 -0.0004  0.2663 -0.3892
 3960SOL    HW112578   2.592   0.403   3.614  0.5546  0.2039  0.7972
 3960SOL    HW212579   2.477   0.492   3.572  0.6716 -0.5246 -1.1595
 3961SOL     OW12580   0.730   4.776   3.499  0.5485 -0.1655 -0.1882
 3961SOL    HW112581   0.700   4.750   3.411  0.5305  1.1350 -0.5919
 3961SOL    HW212582   0.815   4.734   3.509  0.9896  0.4263 -1.2353
 3962SOL     OW12583   3.671   1.287   3.696  0.2625  0.1421  0.8062
 3962SOL    HW112584   3.685   1.205   3.649  0.5804  0.8934 -0.4550
 3962SOL    HW212585   3.711   1.273   3.782 -2.0201 -1.9343  1.6224
 3963SOL     OW12586   1.821   3.716   2.366  0.1176 -0.4409  0.3954
 3963SOL    HW112587   1.808   3.621   2.366 -1.5696 -0.2303  0.5953
 3963SOL    HW212588   1.910   3.728   2.400  0.1106 -1.9073  0.9838
 3964SOL     OW12589   2.119   4.628   5.171 -0.1585 -0.2028 -0.2698
 3964SOL    HW112590   2.142   4.708   5.124  0.9348 -0.6963 -0.6154
 3964SOL    HW212591   2.187   4.565   5.146 -0.5977 -1.0285  0.5398
 3965SOL     OW12592   3.554   3.185   0.468 -0.3975 -0.0110  0.2445
 3965SOL    HW112593   3.577   3.266   0.422 -1.2151  0.1636  0.1378
 3965SOL    HW212594   3.558   3.117   0.401 -1.5949  0.2430 -0.1110
 3966SOL     OW12595   2.558   2.393   1.495  0.1152  0.1651  1.0208
 3966SOL    HW112596   2.503   2.336   1.548 -0.0765  1.5794  2.4061
 3966SOL    HW212597   2.573   2.470   1.550  3.0890  0.0583  0.5076
 3967SOL     OW12598   2.550   5.136   3.120 -0.3995 -0.6035  0.2447
 3967SOL    HW112599   2.481   5.173   3.065  0.6387  0.5592 -0.3311
 3967SOL    HW212600   2.596   5.075   3.062  0.3810  0.2417 -0.0348
 3968SOL     OW12601   3.468   3.521   3.039  0.3211 -1.0135 -0.2228
 3968SOL    HW112602   3.546   3.503   2.985  0.4602 -0.5894 -0.1639
 3968SOL    HW212603   3.499   3.511   3.129  0.7085  0.6533 -0.1363
 3969SOL     OW12604   4.245   5.333   2.044  1.1156  0.6974 -0.2518
 3969SOL    HW112605   4.294   5.257   2.073  0.3787  0.2546 -0.1442
 3969SOL    HW212606   4.255   5.396   2.115  1.3879  0.5532 -0.1595
 3970SOL     OW12607   2.035   1.797   0.540  0.1462 -0.8573  0.4372
 3970SOL    HW112608   2.087   1.864   0.496  0.9868 -2.4789 -1.1396
 3970SOL    HW212609   1.987   1.845   0.608  0.3778  1.4008 -0.8987
 3971SOL     OW12610   2.117   2.581   2.877 -0.2177 -0.0654 -0.3146
 3971SOL    HW112611   2.112   2.664   2.828 -0.8465  0.1223  0.0609
 3971SOL    HW212612   2.134   2.608   2.967 -2.5774 -0.2013  0.2301
 3972SOL     OW12613   3.144   0.208   3.236  0.1270  0.0510  0.1476
 3972SOL    HW112614   3.192   0.161   3.168  0.5705  0.2493  0.3252
 3972SOL    HW212615   3.115   0.289   3.194  0.1440  0.0365  0.1083
 3973SOL     OW12616   2.097   4.660   3.466 -0.0484  0.6727  0.4675
 3973SOL    HW112617   2.027   4.710   3.508 -0.2864  0.1518  0.6991
 3973SOL    HW212618   2.147   4.622   3.538  1.7303  2.6678  0.3885
 3974SOL     OW12619   1.058   3.576   4.257  0.3554  0.0034  0.3969
 3974SOL    HW112620   1.097   3.657   4.222 -0.3397 -0.1059 -0.6508
 3974SOL    HW212621   1.131   3.532   4.300  1.4695 -0.2447 -1.6119
 3975SOL     OW12622   5.067   4.375   2.199 -0.1589  0.1823  0.1574
 3975SOL    HW112623   4.973   4.359   2.187 -0.0215  0.3514 -1.3389
 3975SOL    HW212624   5.076   4.470   2.197 -0.0661  0.2186  1.4185
 3976SOL     OW12625   3.717   4.347   3.657 -0.4629  0.7234 -0.4710
 3976SOL    HW112626   3.782   4.415   3.674 -0.6045  1.1116 -1.4253
 3976SOL    HW212627   3.716   4.338   3.561 -1.0822  0.0051 -0.4077
 3977SOL     OW12628   1.936   3.004   5.332 -0.6380 -0.1351  0.8881
 3977SOL    HW112629   1.955   3.050   5.413 -0.9827 -0.3868  1.1123
 3977SOL    HW212630   1.890   2.925   5.359  1.1218 -1.3131  0.6301
 3978SOL     OW12631   4.594   0.516   4.332  0.0405  0.1300 -0.0095
 3978SOL    HW112632   4.643   0.511   4.250 -0.3433  1.3800 -0.3478
 3978SOL    HW212633   4.533   0.442   4.329 -0.0022  0.1946 -0.8755
 3979SOL     OW12634   1.140   4.967   3.786 -0.4059  0.0338  1.0825
 3979SOL    HW112635   1.176   4.943   3.701 -0.7813 -0.0545  0.9457
 3979SOL    HW212636   1.212   4.952   3.848 -0.0626  0.3078  0.7547
 3980SOL     OW12637   0.132   4.743   0.923  0.5803  0.1880  0.0642
 3980SOL    HW112638   0.102   4.655   0.947  0.5015  0.8288  2.5458
 3980SOL    HW212639   0.053   4.788   0.894  0.7860 -0.8057 -2.2207
 3981SOL     OW12640   4.572   3.751   1.058 -0.0003 -0.4733 -0.9158
 3981SOL    HW112641   4.587   3.680   1.121 -1.9618 -0.1525  0.0071
 3981SOL    HW212642   4.487   3.731   1.019 -0.1511  0.8640 -1.3373
 3982SOL     OW12643   1.229   0.966   3.382 -0.3909 -0.8815 -0.4145
 3982SOL    HW112644   1.225   1.001   3.293 -1.5475 -2.0961 -0.8785
 3982SOL    HW212645   1.179   0.884   3.378 -0.6478 -0.8622  1.4107
 3983SOL     OW12646   2.507   1.111   2.576 -0.0430  0.0280  0.2996
 3983SOL    HW112647   2.552   1.147   2.652  1.1688  0.8553 -0.7481
 3983SOL    HW212648   2.547   1.024   2.564 -0.3256 -0.1551  0.6707
 3984SOL     OW12649   3.936   4.671   1.663 -0.4564 -0.3632 -0.1342
 3984SOL    HW112650   3.882   4.615   1.719  0.6066 -1.0818  0.2116
 3984SOL    HW212651   3.876   4.739   1.633 -1.6062 -1.2477  0.0484
 3985SOL     OW12652   2.132   0.220   0.897 -0.4241  1.1792  0.2917
 3985SOL    HW112653   2.141   0.312   0.923  0.2423  0.5359  2.5767
 3985SOL    HW212654   2.096   0.224   0.808  0.3471  3.6454 -0.0064
 3986SOL     OW12655   1.303   1.787   5.191 -0.2106  0.3805 -0.1154
 3986SOL    HW112656   1.233   1.724   5.175 -1.9998  1.9955  0.9503
 3986SOL    HW212657   1.258   1.870   5.208  1.9206  1.3472  1.3239
 3987SOL     OW12658   4.188   2.770   1.480 -0.1343 -0.2600  0.0392
 3987SOL    HW112659   4.211   2.781   1.572 -0.9520 -3.7408  0.7794
 3987SOL    HW212660   4.109   2.717   1.481 -0.2081 -0.3362 -2.7033
 3988SOL     OW12661   4.783   4.351   2.221 -0.5566  0.1900  0.8642
 3988SOL    HW112662   4.786   4.442   2.189 -2.3094  0.6739  1.8923
 3988SOL    HW212663   4.781   4.360   2.317  0.2097 -0.9920  0.9996
 3989SOL     OW12664   4.198   0.058   3.362  0.1939 -0.5724  0.4119
 3989SOL    HW112665   4.187  -0.037   3.355  1.8195 -0.7220 -0.5467
 3989SOL    HW212666   4.147   0.092   3.288  0.1529 -0.7398  0.3608
 3990SOL     OW12667   3.918   3.354   0.346  0.0918 -0.7164  0.0135
 3990SOL    HW112668   3.959   3.297   0.280  1.9410  1.4524 -0.8390
 3990SOL    HW212669   3.914   3.440   0.305 -0.7868  0.2372  1.9531
 3991SOL     OW12670   0.927   1.938   0.559  0.3618 -0.0519 -0.3120
 3991SOL    HW112671   0.962   1.854   0.588 -1.6706 -1.1335 -0.7697
 3991SOL    HW212672   0.860   1.915   0.495 -2.1310  1.6766  1.4563
 3992SOL     OW12673   0.334   4.429   0.507  0.1341 -0.2396  0.1497
 3992SOL    HW112674   0.319   4.476   0.590  3.4117  2.2433 -0.4631
 3992SOL    HW212675   0.270   4.466   0.447 -0.1270  0.3327  0.7621
 3993SOL     OW12676   1.982   4.136   3.231 -0.3627 -0.3047 -0.7424
 3993SOL    HW112677   2.034   4.197   3.178  0.7742 -0.3944  0.2280
 3993SOL    HW212678   1.923   4.193   3.280  0.3375  0.0091 -0.2307
 3994SOL     OW12679   0.106   3.925   2.615  0.6605  0.1395 -0.2060
 3994SOL    HW112680   0.188   3.897   2.657  0.5397 -1.1444 -0.7767
 3994SOL    HW212681   0.134   3.969   2.535  0.8001  0.0071 -0.2310
 3995SOL     OW12682   0.073   3.261   4.424  0.8621  0.0090  0.3928
 3995SOL    HW112683   0.090   3.191   4.362  0.4787 -0.9222  1.3044
 3995SOL    HW212684  -0.005   3.233   4.472  0.8899  0.8995  0.9929
 3996SOL     OW12685   2.159   4.201   3.919 -0.2344 -0.3461 -0.4972
 3996SOL    HW112686   2.236   4.145   3.932 -0.1894 -0.4863 -1.3030
 3996SOL    HW212687   2.179   4.281   3.967 -0.4705 -1.1598  1.0035
 3997SOL     OW12688   1.823   4.057   2.798  0.4202  0.1160 -0.4183
 3997SOL    HW112689   1.862   4.144   2.803  1.4442 -0.3811  1.2569
 3997SOL    HW212690   1.728   4.073   2.805  0.6104  1.0809  0.1929
 3998SOL     OW12691   4.665   2.413   3.307  0.4877 -0.1935  0.5573
 3998SOL    HW112692   4.689   2.334   3.258 -1.2747 -0.3784 -0.0976
 3998SOL    HW212693   4.635   2.380   3.391 -1.2614 -0.3925 -0.0876
 3999SOL     OW12694   1.256   1.881   3.869  0.5182  0.1762  0.0110
 3999SOL    HW112695   1.328   1.819   3.857  2.3689  2.1611  0.2811
 3999SOL    HW212696   1.263   1.941   3.796 -0.1708  1.0561  0.6426
 4000SOL     OW12697   4.619   4.738   0.921 -0.1542 -0.1473  0.5143
 4000SOL    HW112698   4.549   4.802   0.911 -0.9210 -0.8588  1.1601
 4000SOL    HW212699   4.632   4.701   0.834 -0.8743 -0.2975  0.4646
 4001SOL     OW12700   0.274   3.650   0.357 -0.3868  0.3055 -0.4760
 4001SOL    HW112701   0.300   3.733   0.397  0.4274  0.4956 -1.3553
 4001SOL    HW212702   0.180   3.644   0.374 -0.3159  1.0395  0.2468
 4002SOL     OW12703   4.950   2.546   2.654 -0.8942 -0.3970 -0.1716
 4002SOL    HW112704   4.996   2.603   2.592  0.0103 -0.8470  0.0681
 4002SOL    HW212705   5.015   2.524   2.720 -2.3294  1.6457  2.0877
 4003SOL     OW12706   4.421   0.921   0.573  0.1255  0.0254 -0.1566
 4003SOL    HW112707   4.482   0.991   0.549 -2.2966  2.3059 -0.1358
 4003SOL    HW212708   4.454   0.889   0.657  1.1720  1.3065 -0.0390
 4004SOL     OW12709   4.360   0.076   0.476 -0.0792  0.2715  0.3134
 4004SOL    HW112710   4.340   0.062   0.384 -0.8646  0.1423  0.4909
 4004SOL    HW212711   4.307   0.152   0.500  1.9563  1.8541  0.0730
 4005SOL     OW12712   0.561   4.463   2.003 -0.4515  0.2644 -0.1173
 4005SOL    HW112713   0.610   4.381   1.999 -1.3118 -0.2831  0.3404
 4005SOL    HW212714   0.545   4.476   2.097  0.0287  1.1763 -0.1469
 4006SOL     OW12715   5.209   3.252   1.254  0.2957 -0.1643  0.3858
 4006SOL    HW112716   5.300   3.225   1.265  0.4674 -0.7008 -1.8111
 4006SOL    HW212717   5.167   3.178   1.210 -0.2686  1.4197 -1.9438
 4007SOL     OW12718   1.933   1.691   0.319  0.0806 -0.4441  0.2265
 4007SOL    HW112719   1.860   1.751   0.306 -0.0950 -1.0424 -1.9851
 4007SOL    HW212720   1.977   1.722   0.398 -0.6402  1.9039 -0.2339
 4008SOL     OW12721   1.501   1.697   2.971  0.4835 -0.1899 -0.1014
 4008SOL    HW112722   1.426   1.701   2.912 -0.2103 -0.8860  0.7093
 4008SOL    HW212723   1.553   1.623   2.940 -0.8401 -1.7347  1.2292
 4009SOL     OW12724   3.837   3.412   1.653  0.1116 -0.6717  0.7188
 4009SOL    HW112725   3.926   3.401   1.685  0.5784 -0.6294 -0.5230
 4009SOL    HW212726   3.782   3.402   1.731  1.1716 -1.0354  1.4359
 4010SOL     OW12727   3.599   0.036   1.147  0.3750  0.4901  0.1993
 4010SOL    HW112728   3.638  -0.038   1.099  2.0928  0.2794  1.8218
 4010SOL    HW212729   3.536  -0.005   1.206 -0.2428  0.5460 -0.4160
 4011SOL     OW12730   1.419   4.221   2.041  0.4042 -0.2739  0.4009
 4011SOL    HW112731   1.460   4.198   2.124  0.3658  0.9489  0.7827
 4011SOL    HW212732   1.328   4.241   2.063 -0.0669 -1.6203 -0.2228
 4012SOL     OW12733   2.969   2.776   1.646 -0.3723 -0.1627 -0.3919
 4012SOL    HW112734   2.927   2.723   1.714  0.0937 -0.1974 -0.1285
 4012SOL    HW212735   2.937   2.865   1.662 -1.4816 -0.4199 -1.0935
 4013SOL     OW12736   2.966   2.793   3.999  0.5249  0.0613  0.4224
 4013SOL    HW112737   2.942   2.797   4.092 -0.7305  1.4761  0.0657
 4013SOL    HW212738   2.963   2.884   3.970  0.6305 -0.3995 -1.0868
 4014SOL     OW12739   4.597   0.847   3.482  0.1482 -0.3353 -0.3358
 4014SOL    HW112740   4.525   0.904   3.453 -0.7165 -1.6951 -0.9526
 4014SOL    HW212741   4.585   0.840   3.577 -0.7060 -0.7507 -0.4624
 4015SOL     OW12742   1.682   4.807   4.478 -0.0969 -0.0362  0.0781
 4015SOL    HW112743   1.755   4.867   4.463 -0.3176  0.5676  1.2822
 4015SOL    HW212744   1.717   4.741   4.537  0.6320 -2.1325 -2.4791
 4016SOL     OW12745   0.857   0.762   2.076  0.4922  0.1639  0.1776
 4016SOL    HW112746   0.829   0.712   2.000  0.8656 -1.7388  1.2379
 4016SOL    HW212747   0.922   0.823   2.041 -0.6695  0.6135 -1.3068
 4017SOL     OW12748   0.234   5.204   1.580 -0.6321  0.4558 -0.0075
 4017SOL    HW112749   0.173   5.245   1.519  0.7588 -0.3861 -2.0675
 4017SOL    HW212750   0.204   5.114   1.588 -0.7151  0.5205  0.4294
 4018SOL     OW12751   3.109   3.392   0.195 -0.2907 -0.7458  0.3757
 4018SOL    HW112752   3.107   3.483   0.164  0.4593  0.0068  2.3223
 4018SOL    HW212753   3.032   3.384   0.251  0.2985 -0.8924  1.1908
 4019SOL     OW12754   2.741   1.679   3.251  0.0975 -0.1106 -0.8520
 4019SOL    HW112755   2.764   1.614   3.317  0.1800 -1.5563 -2.2513
 4019SOL    HW212756   2.727   1.760   3.301  0.6207 -1.0291  0.8610
 4020SOL     OW12757   1.096   0.057   3.170  0.3750 -0.3579 -0.0708
 4020SOL    HW112758   1.008   0.094   3.175  0.4782 -0.2645  1.1167
 4020SOL    HW212759   1.115   0.053   3.076  0.1211  2.0238 -0.2649
 4021SOL     OW12760   3.899   3.237   3.680  0.2014  0.2469 -0.0690
 4021SOL    HW112761   3.945   3.309   3.637 -1.2517 -0.3042 -2.7765
 4021SOL    HW212762   3.815   3.273   3.706 -0.0367 -0.1589 -0.2650
 4022SOL     OW12763   3.447   3.812   0.028 -0.3670  0.1532 -0.1518
 4022SOL    HW112764   3.420   3.770  -0.054 -1.5123 -0.4693  0.5101
 4022SOL    HW212765   3.542   3.811   0.026 -0.3789 -0.8317 -0.9898
 4023SOL     OW12766   4.641   3.411   4.723 -0.6098 -0.4371 -0.6965
 4023SOL    HW112767   4.648   3.346   4.653 -1.4139 -2.5736  1.0969
 4023SOL    HW212768   4.714   3.391   4.781  1.6429  2.9457 -2.0283
 4024SOL     OW12769   2.341   5.218   2.511  0.0319  0.1172  0.4506
 4024SOL    HW112770   2.281   5.292   2.501  0.4448  0.5226  0.9265
 4024SOL    HW212771   2.313   5.155   2.445  1.5665  1.9281 -2.1056
 4025SOL     OW12772   3.091   2.665   2.920 -0.1060 -0.6851  0.1013
 4025SOL    HW112773   3.005   2.645   2.884 -0.5737  1.0160  0.1911
 4025SOL    HW212774   3.153   2.635   2.853 -0.7958 -0.9690 -0.4225
 4026SOL     OW12775   2.927   3.644   1.987 -0.1193 -0.4380 -0.1639
 4026SOL    HW112776   2.884   3.672   2.068 -0.1511  1.8387 -0.8913
 4026SOL    HW212777   3.019   3.670   1.998 -0.0179 -0.5803 -0.6384
 4027SOL     OW12778   3.770   2.298   3.058 -0.0494 -0.4759 -0.0044
 4027SOL    HW112779   3.747   2.207   3.077  0.4221 -0.4979  0.4989
 4027SOL    HW212780   3.847   2.315   3.112  0.1265  0.0922 -0.4222
 4028SOL     OW12781   5.036   1.644   0.875 -0.2504 -0.1878  0.2994
 4028SOL    HW112782   5.106   1.606   0.928 -0.7539 -0.4605  0.7737
 4028SOL    HW212783   4.980   1.570   0.852 -0.1228 -0.0513 -0.4940
 4029SOL     OW12784   5.211   0.745   2.392  0.8420  0.1831  0.6456
 4029SOL    HW112785   5.275   0.779   2.454  0.5481  2.2732 -0.1342
 4029SOL    HW212786   5.127   0.778   2.424  0.3294 -1.1312  0.7171
 4030SOL     OW12787   3.498   2.719   2.887  0.3751  0.2422 -0.3107
 4030SOL    HW112788   3.410   2.687   2.867 -0.4933  1.5513  1.1922
 4030SOL    HW212789   3.515   2.784   2.819  0.4782 -0.4872 -0.9968
 4031SOL     OW12790   3.122   5.397   2.756 -0.0587  0.1525 -0.2429
 4031SOL    HW112791   3.074   5.400   2.839 -1.5015  0.8226 -1.0736
 4031SOL    HW212792   3.175   5.476   2.756 -1.3513  1.0478 -0.6887
 4032SOL     OW12793   3.599   2.924   2.672  0.0476 -0.0057  0.3683
 4032SOL    HW112794   3.600   3.012   2.711  2.0402  1.0317 -1.8134
 4032SOL    HW212795   3.522   2.923   2.617  0.4621  0.7153 -0.2423
 4033SOL     OW12796   4.899   3.242   3.615  0.0521  0.3460  0.2124
 4033SOL    HW112797   4.926   3.284   3.697 -0.5071 -0.7204  0.9723
 4033SOL    HW212798   4.813   3.278   3.597  0.7172  1.5806 -0.6543
 4034SOL     OW12799   4.231   4.449   4.435  0.2859 -0.3099 -0.1625
 4034SOL    HW112800   4.171   4.519   4.409  0.0620 -0.4900 -0.1307
 4034SOL    HW212801   4.200   4.422   4.522  0.6998 -0.0822  0.0637
 4035SOL     OW12802   0.934   4.217   2.536 -0.2082 -0.1485 -0.1374
 4035SOL    HW112803   0.936   4.309   2.509  0.0108 -0.2672 -0.5306
 4035SOL    HW212804   1.014   4.180   2.500 -2.1146 -1.4617 -3.3980
 4036SOL     OW12805   0.688   2.945   2.576  0.7936 -0.6586 -0.1010
 4036SOL    HW112806   0.647   2.887   2.641  1.4959  0.1231  1.0822
 4036SOL    HW212807   0.777   2.959   2.609  0.7325  0.8717 -0.4963
 4037SOL     OW12808   2.972   3.372   4.607  0.3185  0.2838 -0.2662
 4037SOL    HW112809   2.955   3.414   4.522 -0.7769 -0.1966 -0.2985
 4037SOL    HW212810   2.908   3.301   4.612  1.2586 -0.5410  0.3833
 4038SOL     OW12811   3.185   3.796   1.713  0.0467  0.5016 -0.3599
 4038SOL    HW112812   3.274   3.818   1.740  0.0063 -2.1580  2.5745
 4038SOL    HW212813   3.129   3.858   1.760  0.2518 -0.3047  0.9979
 4039SOL     OW12814   1.146   2.112   2.808 -0.2554  0.4883 -0.4704
 4039SOL    HW112815   1.145   2.186   2.747 -1.0396  0.4173 -0.5633
 4039SOL    HW212816   1.055   2.081   2.808  0.3356 -1.3678 -1.5282
 4040SOL     OW12817   4.226   1.319   2.096  0.1372  0.1285 -0.2991
 4040SOL    HW112818   4.202   1.245   2.040 -0.4695 -1.5343  1.9858
 4040SOL    HW212819   4.222   1.395   2.039 -2.2655 -1.1923 -2.0704
 4041SOL     OW12820   3.339   3.898   1.930  0.1204  0.1096 -0.2060
 4041SOL    HW112821   3.314   3.962   1.997 -0.1472 -1.1514  0.9485
 4041SOL    HW212822   3.433   3.886   1.942  0.5697  1.6458 -1.6970
 4042SOL     OW12823   4.004   1.750   1.910  0.1118  0.3990  0.5358
 4042SOL    HW112824   3.954   1.825   1.877  0.5881  0.0352 -1.1306
 4042SOL    HW212825   3.998   1.757   2.005 -0.3581  2.2009  0.4134
 4043SOL     OW12826   0.843   2.880   5.098 -0.1543 -0.6286  0.0771
 4043SOL    HW112827   0.869   2.871   5.006  0.8992  0.2235  0.2695
 4043SOL    HW212828   0.748   2.891   5.094 -0.1792 -1.0347 -0.8758
 4044SOL     OW12829   0.280   1.808   2.140 -0.3847 -0.4868 -0.1706
 4044SOL    HW112830   0.228   1.880   2.105  0.6976  0.1506 -0.5099
 4044SOL    HW212831   0.364   1.814   2.094  0.3652 -0.8412  1.0828
 4045SOL     OW12832   2.603   0.029   0.717  0.3603 -0.4322 -0.1940
 4045SOL    HW112833   2.632  -0.057   0.686  0.8507  0.0818 -1.2259
 4045SOL    HW212834   2.651   0.043   0.798  0.1881 -1.1732  0.0511
 4046SOL     OW12835   0.984   2.161   4.575  0.5064  0.4863  0.0595
 4046SOL    HW112836   1.028   2.087   4.618 -0.6376 -0.1989  0.0990
 4046SOL    HW212837   1.029   2.168   4.490  1.3083  0.4158  0.4669
 4047SOL     OW12838   2.463   3.300   3.017  0.0637 -0.4279 -0.0730
 4047SOL    HW112839   2.537   3.244   3.041 -0.6596 -2.6512 -2.5662
 4047SOL    HW212840   2.411   3.305   3.097  1.2865 -1.4856  0.8464
 4048SOL     OW12841   0.666   4.663   5.111  0.0205  0.1600 -0.4628
 4048SOL    HW112842   0.619   4.642   5.192 -0.3005 -1.9198 -1.1350
 4048SOL    HW212843   0.646   4.590   5.052  0.9008  1.2258 -2.1486
 4049SOL     OW12844   0.878   3.176   1.936  0.3511  0.3905 -0.1615
 4049SOL    HW112845   0.898   3.218   2.020 -1.3645 -0.3845  0.6880
 4049SOL    HW212846   0.827   3.241   1.888  0.1887  0.3561 -0.0387
 4050SOL     OW12847   3.757   0.629   1.269 -0.1440  0.0251  0.5185
 4050SOL    HW112848   3.825   0.568   1.297  0.7174  0.3738 -0.7305
 4050SOL    HW212849   3.759   0.699   1.335 -0.7533 -0.9879  1.6416
 4051SOL     OW12850   1.117   3.870   4.430 -0.2708 -0.8534  0.3038
 4051SOL    HW112851   1.057   3.816   4.482  0.3141 -1.9264 -0.0991
 4051SOL    HW212852   1.151   3.810   4.363  0.6962 -0.0746  0.0794
 4052SOL     OW12853   1.068   3.208   5.336 -0.0265  0.2650  0.2473
 4052SOL    HW112854   1.079   3.258   5.255 -0.0987 -1.0077 -0.5623
 4052SOL    HW212855   0.995   3.149   5.318  0.8376 -0.9848  0.7589
 4053SOL     OW12856   4.098   2.617   3.485  0.0655  0.4150  0.3784
 4053SOL    HW112857   4.012   2.625   3.445  0.1401  2.4774  0.5163
 4053SOL    HW212858   4.159   2.633   3.413  0.3814 -1.0728  0.2735
 4054SOL     OW12859   2.612   4.531   0.749 -0.1428  0.5217  0.3288
 4054SOL    HW112860   2.562   4.450   0.744  0.2821  0.3357 -1.7827
 4054SOL    HW212861   2.559   4.589   0.804 -2.2362  0.0055 -1.0102
 4055SOL     OW12862   3.924   0.870   0.317 -0.1335  0.4770  0.5009
 4055SOL    HW112863   3.950   0.807   0.384  0.8690 -0.6929 -0.9160
 4055SOL    HW212864   3.841   0.906   0.348  0.6893  0.5933  2.7500
 4056SOL     OW12865   3.251   4.885   1.863 -0.0936  0.2821 -0.2545
 4056SOL    HW112866   3.255   4.864   1.956  2.9932  0.9082 -0.1563
 4056SOL    HW212867   3.204   4.968   1.859 -0.5000  0.1115  0.7047
 4057SOL     OW12868   2.674   3.411   1.129  0.2228 -0.3932  0.0817
 4057SOL    HW112869   2.629   3.351   1.189 -1.2365  1.6599  1.1932
 4057SOL    HW212870   2.735   3.459   1.185 -0.3256  0.7446 -0.2616
 4058SOL     OW12871   0.088   2.023   2.059  0.1171 -0.0202 -0.3376
 4058SOL    HW112872   0.063   2.093   1.998 -1.2213 -0.7863 -0.7278
 4058SOL    HW212873   0.052   2.051   2.143 -0.4110 -0.2097 -0.4916
 4059SOL     OW12874   1.633   4.835   0.052 -0.2541  0.2830  0.3818
 4059SOL    HW112875   1.681   4.806   0.130 -0.1444  0.6456  0.4554
 4059SOL    HW212876   1.599   4.921   0.077  2.8526  2.1395 -1.1806
 4060SOL     OW12877   0.412   2.776   0.248  0.1589  0.0717 -0.0114
 4060SOL    HW112878   0.399   2.687   0.214 -0.3972  0.1762 -0.0764
 4060SOL    HW212879   0.499   2.801   0.217  0.4190 -0.5446  0.2093
 4061SOL     OW12880   3.534   5.106   4.270  0.3302 -0.1325 -0.4047
 4061SOL    HW112881   3.582   5.189   4.268 -0.7443  0.5002 -0.9164
 4061SOL    HW212882   3.602   5.039   4.269  1.4040  0.6795  3.3550
 4062SOL     OW12883   5.010   0.498   1.327 -0.6362  0.4444 -0.2916
 4062SOL    HW112884   5.000   0.576   1.273 -1.0036  0.0599 -0.7872
 4062SOL    HW212885   4.921   0.464   1.335 -0.2135 -1.2355 -2.0445
 4063SOL     OW12886   1.364   3.872   0.700  0.1722 -0.8138 -0.2148
 4063SOL    HW112887   1.408   3.957   0.713  0.2902 -0.9609  0.4072
 4063SOL    HW212888   1.274   3.895   0.679  0.0327 -0.5395  0.6466
 4064SOL     OW12889   1.435   0.466   4.747  0.6701  0.1582  0.3938
 4064SOL    HW112890   1.424   0.534   4.813  0.1388  0.7441 -0.2781
 4064SOL    HW212891   1.394   0.502   4.668  0.6422 -0.8212 -0.0584
 4065SOL     OW12892   3.527   4.202   2.135 -0.0134 -0.5795 -0.2328
 4065SOL    HW112893   3.548   4.128   2.078  0.6802  1.6567 -3.1526
 4065SOL    HW212894   3.432   4.196   2.148  0.1934 -2.5976  0.6153
 4066SOL     OW12895   3.448   3.129   2.170 -0.2356 -0.1420  0.1936
 4066SOL    HW112896   3.435   3.186   2.094 -1.3356  1.0375  1.2257
 4066SOL    HW212897   3.481   3.187   2.238 -0.8748 -0.8331  1.1214
 4067SOL     OW12898   4.277   2.901   1.740  0.3762 -0.2040  0.0743
 4067SOL    HW112899   4.311   2.910   1.829  0.7946  1.0143 -0.1834
 4067SOL    HW212900   4.355   2.905   1.684 -0.0550  1.3906 -0.4623
 4068SOL     OW12901   2.720   4.549   2.939 -0.5992  0.0096 -0.0993
 4068SOL    HW112902   2.727   4.514   2.850  0.7088  0.1046 -0.0572
 4068SOL    HW212903   2.746   4.476   2.996 -0.5297  0.2255  0.1494
 4069SOL     OW12904   0.712   4.251   3.065 -0.1411 -0.2402  0.3014
 4069SOL    HW112905   0.798   4.245   3.108 -0.1392  2.2977  0.7697
 4069SOL    HW212906   0.649   4.252   3.138 -0.3898  0.3702  0.0815
 4070SOL     OW12907   0.742   2.031   5.114  0.0928  0.2809  0.3226
 4070SOL    HW112908   0.836   2.013   5.107 -0.4560 -2.5793 -1.6501
 4070SOL    HW212909   0.711   1.971   5.182 -0.4073  0.7566  0.5227
 4071SOL     OW12910   5.179   2.115   3.002  0.3001  0.1047 -0.1802
 4071SOL    HW112911   5.121   2.044   3.029 -1.2070  1.3790  0.0605
 4071SOL    HW212912   5.157   2.187   3.061  1.1754  1.0580 -0.9914
 4072SOL     OW12913   4.813   1.086   3.711 -0.3528  0.0008  0.5682
 4072SOL    HW112914   4.767   1.166   3.685 -0.0581 -0.6061 -2.1105
 4072SOL    HW212915   4.744   1.031   3.749 -0.8026  1.0004  1.2565
 4073SOL     OW12916   2.302   0.570   2.246  0.1394  0.1973 -0.5733
 4073SOL    HW112917   2.321   0.613   2.330 -0.3871  1.3207 -1.0079
 4073SOL    HW212918   2.323   0.477   2.261  1.3644  0.6028  0.3673
 4074SOL     OW12919   4.064   2.944   2.496 -0.6820 -0.3078  0.3361
 4074SOL    HW112920   4.058   2.849   2.486  0.8032 -0.1672 -3.3011
 4074SOL    HW212921   3.976   2.976   2.480 -0.9296 -0.9982  0.3105
 4075SOL     OW12922   4.356   1.864   3.025  0.2395 -0.3183  0.2414
 4075SOL    HW112923   4.316   1.925   3.088  0.2664 -0.5495  0.4866
 4075SOL    HW212924   4.323   1.892   2.940 -0.6946 -0.6917  0.4669
 4076SOL     OW12925   0.907   1.551   3.130 -0.2322  0.3403 -0.3772
 4076SOL    HW112926   0.933   1.471   3.176  2.2709  1.5810  0.5114
 4076SOL    HW212927   0.854   1.599   3.194  0.5699  0.6248  0.0783
 4077SOL     OW12928   1.212   4.049   0.525  0.2931 -0.0167  0.1287
 4077SOL    HW112929   1.135   4.049   0.582 -0.2872  2.5650 -0.5491
 4077SOL    HW212930   1.177   4.038   0.437  0.9803 -1.3957 -0.0123
 4078SOL     OW12931   4.902   3.270   0.530 -0.1976 -0.4386  0.0008
 4078SOL    HW112932   4.990   3.292   0.560  0.9741  0.5363 -3.6601
 4078SOL    HW212933   4.849   3.346   0.556  0.8156  0.5365 -0.6938
 4079SOL     OW12934   1.100   2.666   4.753  0.0715  0.6691 -0.2900
 4079SOL    HW112935   1.019   2.705   4.786 -0.0382  1.9788 -1.9706
 4079SOL    HW212936   1.099   2.684   4.659  1.3296 -1.1309 -0.7098
 4080SOL     OW12937   1.226   4.385   1.285  0.3429 -0.7489 -0.0938
 4080SOL    HW112938   1.290   4.373   1.355  0.5634  0.8843  0.0354
 4080SOL    HW212939   1.181   4.301   1.278 -0.3541 -0.7102  2.6642
 4081SOL     OW12940   1.174   4.321   3.297  0.6644 -0.0989  0.5461
 4081SOL    HW112941   1.241   4.367   3.348  0.4359  2.0078 -0.9274
 4081SOL    HW212942   1.222   4.253   3.250  1.3559 -0.1269  1.2677
 4082SOL     OW12943   2.638   2.921   5.019 -0.6023  0.1772 -0.0246
 4082SOL    HW112944   2.659   2.996   4.964 -2.3454  0.8123  0.0989
 4082SOL    HW212945   2.582   2.866   4.964 -1.0057 -0.0004  0.5483
 4083SOL     OW12946   5.055   3.676   1.820  0.0092  0.7880 -0.1826
 4083SOL    HW112947   5.020   3.764   1.816  1.5723  1.3982 -2.6542
 4083SOL    HW212948   5.149   3.688   1.835  0.1474 -0.4902  0.1105
 4084SOL     OW12949   2.841   4.575   1.134  0.0472 -0.2898  0.2553
 4084SOL    HW112950   2.905   4.646   1.129 -1.4589  1.1069  0.1081
 4084SOL    HW212951   2.865   4.526   1.212  0.2663  1.2560  1.1933
 4085SOL     OW12952   2.859   0.014   4.118 -0.2581  0.1483  0.0945
 4085SOL    HW112953   2.880  -0.004   4.026 -0.7482 -0.2460  0.0558
 4085SOL    HW212954   2.841  -0.072   4.156 -0.9214  0.3907  0.3380
 4086SOL     OW12955   4.112   4.933   3.214 -0.8676 -0.0717 -0.0555
 4086SOL    HW112956   4.137   4.956   3.124  0.7964 -1.8357 -0.1070
 4086SOL    HW212957   4.154   5.000   3.268 -0.4152  0.0007 -0.4899
 4087SOL     OW12958   0.574   2.663   4.794  0.0155  0.2223  0.1261
 4087SOL    HW112959   0.551   2.570   4.797 -0.5497  0.3799  2.1415
 4087SOL    HW212960   0.532   2.701   4.871  1.7353  1.8215  0.3463
 4088SOL     OW12961   4.737   0.409   4.073  0.0314  0.6751 -0.4411
 4088SOL    HW112962   4.764   0.322   4.044 -1.9529  0.0060 -0.4907
 4088SOL    HW212963   4.670   0.435   4.010 -1.3176  1.0376  1.0757
 4089SOL     OW12964   0.906   2.491   4.097 -0.7515  0.2794  0.0510
 4089SOL    HW112965   0.901   2.529   4.010 -1.6959 -0.1844 -0.1080
 4089SOL    HW212966   0.909   2.396   4.082  3.4603  0.1851  0.3372
 4090SOL     OW12967   2.052   3.704   3.327  0.3017  0.1934  0.1014
 4090SOL    HW112968   1.993   3.647   3.376 -2.6144  1.2534 -1.8614
 4090SOL    HW212969   2.027   3.691   3.235  2.9146  1.0381 -0.8232
 4091SOL     OW12970   3.232   2.298   5.337  0.0855 -0.0135  0.1529
 4091SOL    HW112971   3.312   2.337   5.374 -0.6789  1.2407  0.5763
 4091SOL    HW212972   3.196   2.367   5.282  0.0875 -1.1202 -1.2805
 4092SOL     OW12973   0.957   3.171   1.173  0.0692  0.3270 -0.4682
 4092SOL    HW112974   1.005   3.128   1.244 -1.3821 -1.1366 -0.3055
 4092SOL    HW212975   0.968   3.113   1.098  1.2586  1.6643 -1.3716
 4093SOL     OW12976   3.125   0.887   0.999  0.2382  0.0931  0.1759
 4093SOL    HW112977   3.099   0.837   0.921  1.4027  1.4285 -1.1561
 4093SOL    HW212978   3.207   0.846   1.027 -0.0925 -0.2801  0.6072
 4094SOL     OW12979   3.687   4.527   4.693 -0.0447 -0.1998  0.1108
 4094SOL    HW112980   3.683   4.437   4.725 -0.0456 -0.1681  0.1986
 4094SOL    HW212981   3.774   4.557   4.717  0.3849 -0.5655 -0.9361
 4095SOL     OW12982   5.141   2.067   0.903  0.3891  0.3526 -0.0786
 4095SOL    HW112983   5.191   2.004   0.954 -0.5460 -0.6257 -0.3155
 4095SOL    HW212984   5.166   2.152   0.938  1.7827 -0.1283  0.1650
 4096SOL     OW12985   0.017   5.025   3.634  0.2108  0.0407 -0.1683
 4096SOL    HW112986  -0.032   5.090   3.685  1.3456  0.7398  0.0690
 4096SOL    HW212987   0.022   4.949   3.692 -0.5603 -0.0404 -0.1892
 4097SOL     OW12988   2.501   2.766   0.030 -0.0454  0.1778 -0.5695
 4097SOL    HW112989   2.492   2.712  -0.049 -0.8981 -1.0058  0.3017
 4097SOL    HW212990   2.418   2.813   0.036 -0.2378 -0.2104 -0.0634
 4098SOL     OW12991   0.832   0.116   4.975 -0.1536 -0.2044 -0.2828
 4098SOL    HW112992   0.808   0.191   4.920 -0.4381  0.5818  0.8890
 4098SOL    HW212993   0.756   0.102   5.031  0.8688  0.2958  1.2836
 4099SOL     OW12994   3.642   2.189   1.028  0.0724 -0.1052 -0.0594
 4099SOL    HW112995   3.720   2.137   1.047  2.1610  2.5942 -0.6374
 4099SOL    HW212996   3.641   2.196   0.932 -1.6213 -1.0875 -0.1474
 4100SOL     OW12997   1.330   2.882   2.774 -0.4412  0.3074 -0.5748
 4100SOL    HW112998   1.377   2.950   2.822  2.1053 -0.5217 -1.6886
 4100SOL    HW212999   1.382   2.868   2.695 -2.0542 -1.4458 -1.4183
 4101SOL     OW13000   2.580   3.910   5.088  0.4229  0.5672  0.2208
 4101SOL    HW113001   2.487   3.919   5.069  0.1488  0.0607  1.2971
 4101SOL    HW213002   2.610   4.000   5.103 -0.3815  0.5767  2.0359
 4102SOL     OW13003   4.473   2.864   1.550  0.2069 -0.2019 -0.0245
 4102SOL    HW113004   4.542   2.797   1.550  1.1934  0.7478  1.2581
 4102SOL    HW213005   4.503   2.928   1.486  0.1823 -0.1042  0.0626
 4103SOL     OW13006   2.773   3.437   3.306  0.1180  0.4181 -0.0806
 4103SOL    HW113007   2.856   3.455   3.350  0.1651 -0.0975  0.0383
 4103SOL    HW213008   2.744   3.523   3.276  0.8532  0.5646 -0.4043
 4104SOL     OW13009   3.620   2.286   3.667 -0.4169  0.6692  0.2007
 4104SOL    HW113010   3.666   2.276   3.751  0.0769 -2.5296 -0.2934
 4104SOL    HW213011   3.527   2.280   3.690 -0.2737 -0.7415  0.5404
 4105SOL     OW13012   0.027   0.069   3.409  0.2318  0.0406  0.1791
 4105SOL    HW113013   0.020   0.160   3.437  0.7926 -0.0558  0.6504
 4105SOL    HW213014   0.027   0.019   3.491 -1.2805 -0.4785 -0.0986
 4106SOL     OW13015   4.492   3.817   0.065  0.5289 -0.2929 -0.0694
 4106SOL    HW113016   4.516   3.886   0.125 -0.4674  0.4377 -0.4795
 4106SOL    HW213017   4.531   3.738   0.102 -0.2468  0.0914  1.6676
 4107SOL     OW13018   0.524   0.627   0.442  0.4979  0.0535 -0.0531
 4107SOL    HW113019   0.615   0.596   0.445  0.7642  0.7742 -0.3482
 4107SOL    HW213020   0.496   0.608   0.353  0.8786  1.2278 -0.4354
 4108SOL     OW13021   0.360   2.060   4.362 -0.2977 -0.3374  0.6240
 4108SOL    HW113022   0.321   2.090   4.280 -0.5936 -2.2683  0.0067
 4108SOL    HW213023   0.361   2.138   4.418  1.8074  1.5876 -1.8446
 4109SOL     OW13024   1.933   1.666   3.271  0.7692  0.0450  0.3535
 4109SOL    HW113025   1.920   1.697   3.360  1.2608  1.1112  0.0699
 4109SOL    HW213026   1.862   1.604   3.256 -2.1521  3.2393 -0.0764
 4110SOL     OW13027   2.485   4.189   2.398  0.5605  0.1893  0.3606
 4110SOL    HW113028   2.427   4.214   2.326 -0.5288  0.0219  1.1531
 4110SOL    HW213029   2.443   4.224   2.476  0.9867 -0.8312  1.0704
 4111SOL     OW13030   0.655   4.310   2.813  0.1129  0.4434 -0.1521
 4111SOL    HW113031   0.693   4.291   2.899 -0.7705  1.4848  0.4961
 4111SOL    HW213032   0.630   4.224   2.778  1.3341 -0.0757  0.2131
 4112SOL     OW13033   5.316   3.621   0.707 -0.3760 -0.3479  0.6592
 4112SOL    HW113034   5.236   3.638   0.757 -1.1546  1.2849 -0.9971
 4112SOL    HW213035   5.387   3.651   0.765 -1.1193  0.1732  1.3251
 4113SOL     OW13036   1.684   4.860   4.805  0.4848  0.6453 -0.3578
 4113SOL    HW113037   1.765   4.904   4.828  0.6621  0.2338 -0.1830
 4113SOL    HW213038   1.712   4.783   4.755  0.1844  0.7050 -0.6233
 4114SOL     OW13039   0.414   3.679   4.512 -0.1710  0.0131  0.8128
 4114SOL    HW113040   0.380   3.733   4.583  2.0774  1.3874  0.9503
 4114SOL    HW213041   0.438   3.741   4.443 -0.7741 -1.1549 -0.5048
 4115SOL     OW13042   2.463   2.499   2.008  0.6445  0.4501  0.3540
 4115SOL    HW113043   2.481   2.566   2.074  1.5221  0.6302 -0.0474
 4115SOL    HW213044   2.540   2.443   2.008  0.7700  0.5944 -0.6765
 4116SOL     OW13045   3.171   3.722   2.061 -0.6673  0.6761  0.0884
 4116SOL    HW113046   3.183   3.748   2.153 -0.1991  0.2658  0.1518
 4116SOL    HW213047   3.214   3.791   2.011 -0.4883  0.6528  0.2048
 4117SOL     OW13048   5.391   5.323   2.277 -0.2617 -0.2492  0.2445
 4117SOL    HW113049   5.473   5.369   2.297  0.3080 -0.2946 -1.7820
 4117SOL    HW213050   5.382   5.260   2.348  0.5501  0.9068  1.4317
 4118SOL     OW13051   2.237   1.969   2.559 -0.1762 -0.5047  0.1340
 4118SOL    HW113052   2.172   2.022   2.514 -0.4854 -0.3198  0.7948
 4118SOL    HW213053   2.316   2.024   2.559 -0.5490  0.0460  0.9912
 4119SOL     OW13054   5.077   2.231   2.015  0.0926 -0.1726 -0.3280
 4119SOL    HW113055   5.002   2.211   1.960 -1.7239  0.4331  1.8074
 4119SOL    HW213056   5.126   2.297   1.965 -0.5696 -0.8016 -1.8958
 4120SOL     OW13057   0.340   1.820   2.415 -0.3435  0.0067 -0.1324
 4120SOL    HW113058   0.418   1.847   2.464 -0.6022  0.5037  0.0061
 4120SOL    HW213059   0.366   1.826   2.323 -0.7214  1.7709 -0.1528
 4121SOL     OW13060   3.404   0.823   2.073  0.2310  0.3963 -0.0855
 4121SOL    HW113061   3.414   0.738   2.116 -0.4675  0.9688  1.2851
 4121SOL    HW213062   3.310   0.840   2.077  0.1311  0.4324 -1.9932
 4122SOL     OW13063   1.540   0.410   2.322 -0.3568 -0.1041 -0.0395
 4122SOL    HW113064   1.464   0.360   2.292  0.4226 -0.4853 -1.4980
 4122SOL    HW213065   1.514   0.502   2.309 -0.9763 -0.1818  0.5693
 4123SOL     OW13066   1.396   3.356   1.634  0.1590 -0.0747  0.8822
 4123SOL    HW113067   1.375   3.320   1.720  0.6151 -2.8887 -0.0931
 4123SOL    HW213068   1.488   3.333   1.619 -0.0618 -0.1323 -0.5770
 4124SOL     OW13069   2.224   2.332   4.727 -0.1151 -0.0804  0.3196
 4124SOL    HW113070   2.210   2.416   4.684 -1.1089  0.3094  1.3434
 4124SOL    HW213071   2.291   2.289   4.675 -0.0057  1.1058 -0.5589
 4125SOL     OW13072   2.848   4.715   0.692 -0.0648  0.1784 -0.0688
 4125SOL    HW113073   2.887   4.630   0.710  0.2255  0.2576 -0.3102
 4125SOL    HW213074   2.788   4.699   0.620  0.0536  0.1929 -0.1715
 4126SOL     OW13075   4.746   2.789   2.580 -0.1079 -0.0300  0.3746
 4126SOL    HW113076   4.692   2.721   2.621 -1.7800 -0.5645 -2.4064
 4126SOL    HW213077   4.828   2.744   2.558 -0.3026 -0.5040  0.6075
 4127SOL     OW13078   0.141   4.904   4.224  0.7354 -0.5958 -0.8302
 4127SOL    HW113079   0.083   4.837   4.187  2.6118 -2.6452 -0.2958
 4127SOL    HW213080   0.228   4.863   4.223  1.6646  1.1383  1.2534
 4128SOL     OW13081   1.704   3.493   2.091  0.0532  0.2016 -0.2391
 4128SOL    HW113082   1.627   3.540   2.123  0.6007  2.0465 -1.4758
 4128SOL    HW213083   1.669   3.427   2.031 -0.6111  1.0217 -0.7865
 4129SOL     OW13084   1.299   0.682   4.906  0.0600 -0.0550  0.3249
 4129SOL    HW113085   1.311   0.698   5.000 -0.6327 -0.3321  0.4643
 4129SOL    HW213086   1.219   0.630   4.900  0.4730 -0.6405 -0.3675
 4130SOL     OW13087   0.015   4.417   4.646 -0.7681  0.1488  0.4208
 4130SOL    HW113088  -0.023   4.419   4.734 -2.6397  1.4397 -0.3559
 4130SOL    HW213089  -0.035   4.351   4.599  1.7544 -2.2795  0.8583
 4131SOL     OW13090   2.429   0.377   2.444 -0.5684  0.5640 -0.4753
 4131SOL    HW113091   2.416   0.417   2.530  2.9463 -0.2795  0.6171
 4131SOL    HW213092   2.429   0.283   2.460  0.1755  0.3941 -1.3644
 4132SOL     OW13093   2.146   3.751   1.608 -0.7176 -0.5112 -0.6482
 4132SOL    HW113094   2.185   3.708   1.533 -1.2995  0.3177 -1.4491
 4132SOL    HW213095   2.155   3.688   1.680  0.0481 -1.2187 -1.3483
 4133SOL     OW13096   4.281   2.046   2.442 -0.4258  0.1429 -0.2825
 4133SOL    HW113097   4.287   1.993   2.362  0.3294 -2.2354  1.2414
 4133SOL    HW213098   4.189   2.039   2.469 -0.2054 -0.8979  0.2186
 4134SOL     OW13099   2.999   4.506   4.996  0.1372  0.5105 -0.7001
 4134SOL    HW113100   3.031   4.461   4.917  0.5125 -6.2802  2.6603
 4134SOL    HW213101   3.073   4.502   5.057 -1.2709  2.1273  1.2332
 4135SOL     OW13102   5.314   3.706   4.421  0.1501 -0.2710  0.3595
 4135SOL    HW113103   5.248   3.638   4.430 -0.5689  0.0743 -1.8000
 4135SOL    HW213104   5.397   3.662   4.437 -0.4535 -1.0796  1.4132
 4136SOL     OW13105   4.315   1.124   0.365  0.3375 -0.9132 -1.0191
 4136SOL    HW113106   4.373   1.114   0.290  0.0692 -3.9984 -0.9475
 4136SOL    HW213107   4.372   1.148   0.437  0.8455  0.3619 -1.8145
 4137SOL     OW13108   0.597   2.964   1.158 -0.1180  0.3561  0.0612
 4137SOL    HW113109   0.561   2.876   1.154  2.0476 -0.6356  0.6964
 4137SOL    HW213110   0.650   2.971   1.078  1.6886  0.0896  1.1762
 4138SOL     OW13111   1.966   1.710   2.774  0.2202 -0.4712  0.2706
 4138SOL    HW113112   2.019   1.639   2.812  0.5110 -0.2617  0.2577
 4138SOL    HW213113   2.012   1.790   2.798  0.1335 -0.3107 -0.0979
 4139SOL     OW13114   1.854   4.961   1.145  0.1360  0.1336 -0.2399
 4139SOL    HW113115   1.802   5.017   1.203  0.4200 -1.1326  1.3179
 4139SOL    HW213116   1.937   4.951   1.190 -0.1899 -2.1818 -0.0204
 4140SOL     OW13117   1.128   3.404   5.140 -0.0805  0.0215  0.6544
 4140SOL    HW113118   1.037   3.426   5.160 -1.2167 -2.2331 -1.5070
 4140SOL    HW213119   1.171   3.489   5.131 -2.3906  1.2243 -0.0271
 4141SOL     OW13120   0.321   4.017   3.384 -0.7274 -0.5167 -0.1717
 4141SOL    HW113121   0.326   4.095   3.439 -0.1025 -0.3286 -0.4821
 4141SOL    HW213122   0.228   4.001   3.373 -0.8581 -0.2688  0.5385
 4142SOL     OW13123   0.433   2.327   1.873  0.2047  0.2668  0.3926
 4142SOL    HW113124   0.399   2.259   1.931 -0.2589 -0.5473 -0.7976
 4142SOL    HW213125   0.412   2.296   1.785  0.5680  1.6467 -0.2028
 4143SOL     OW13126   2.091   2.733   0.232  0.3524  0.1550 -0.1770
 4143SOL    HW113127   2.158   2.665   0.237 -1.0831 -1.3860 -0.7253
 4143SOL    HW213128   2.084   2.766   0.322  0.7945 -0.7248  0.1952
 4144SOL     OW13129   3.946   4.631   4.776  0.4859  0.3100  0.2386
 4144SOL    HW113130   4.023   4.577   4.760  0.7303  0.3926  1.0920
 4144SOL    HW213131   3.928   4.673   4.693  0.4356 -0.8998 -0.3872
 4145SOL     OW13132   2.911   1.345   0.890 -0.4633 -0.3990  0.2427
 4145SOL    HW113133   2.977   1.283   0.920  0.9384  0.6187 -0.6003
 4145SOL    HW213134   2.830   1.317   0.933  0.9442 -0.2980  3.2377
 4146SOL     OW13135   3.306   3.363   4.925 -0.3298 -0.0686  0.4025
 4146SOL    HW113136   3.230   3.306   4.916 -0.4411  0.3798 -2.3469
 4146SOL    HW213137   3.381   3.305   4.908 -0.1401 -0.1385  1.3890
 4147SOL     OW13138   4.905   4.044   4.587  0.3947 -0.1371  0.1312
 4147SOL    HW113139   4.998   4.031   4.600  0.4874  0.9933  0.7226
 4147SOL    HW213140   4.874   4.082   4.670 -0.1916  1.3830 -0.7449
 4148SOL     OW13141   5.080   5.011   1.821  0.2914 -0.4511  0.2716
 4148SOL    HW113142   5.062   5.105   1.824  0.0670 -0.5201  1.5014
 4148SOL    HW213143   5.162   5.004   1.772  1.5099  0.6030  2.0594
 4149SOL     OW13144   2.709   0.227   0.559  0.0508 -0.1865  0.7264
 4149SOL    HW113145   2.662   0.173   0.622  1.6225 -0.6890  1.5308
 4149SOL    HW213146   2.801   0.217   0.582  0.4712  2.3067  0.4789
 4150SOL     OW13147   2.296   0.628   1.783  0.2696  0.0614 -0.0857
 4150SOL    HW113148   2.240   0.646   1.858 -0.4429 -0.4192 -0.4968
 4150SOL    HW213149   2.368   0.691   1.791 -0.1555  0.4638  0.6212
 4151SOL     OW13150   3.611   2.458   5.127 -0.1004 -0.3859 -0.7713
 4151SOL    HW113151   3.567   2.532   5.085  1.0175  0.4516 -0.5157
 4151SOL    HW213152   3.627   2.396   5.056 -0.8835 -0.3136 -1.0224
 4152SOL     OW13153   4.894   0.843   4.491 -0.2260  0.2877  0.0812
 4152SOL    HW113154   4.921   0.847   4.583  3.1284 -1.2247 -0.6851
 4152SOL    HW213155   4.807   0.804   4.493  1.0298 -2.8328  2.5655
 4153SOL     OW13156   0.051   2.433   2.363  0.6683 -0.1959 -0.2009
 4153SOL    HW113157  -0.010   2.505   2.378 -1.5312 -2.0750  0.5097
 4153SOL    HW213158   0.076   2.442   2.271 -0.3395  0.8975 -0.4031
 4154SOL     OW13159   5.258   2.754   3.589 -0.3150 -0.0991 -0.3153
 4154SOL    HW113160   5.241   2.665   3.620  1.7747 -0.2141  0.6859
 4154SOL    HW213161   5.339   2.746   3.539 -0.0011  1.2700 -0.0606
 4155SOL     OW13162   0.929   2.840   2.815 -0.4536 -0.1911 -0.2676
 4155SOL    HW113163   0.892   2.775   2.875  1.7284 -0.2681  1.1092
 4155SOL    HW213164   0.976   2.788   2.749 -2.8328 -0.1090 -2.1702
 4156SOL     OW13165   1.208   2.685   2.375 -0.2021 -0.2491 -0.0092
 4156SOL    HW113166   1.194   2.752   2.308  0.3935  0.9235  0.9970
 4156SOL    HW213167   1.298   2.655   2.361 -0.3600 -0.6241 -0.2519
 4157SOL     OW13168   0.070   4.344   1.940  0.6722  0.0600 -0.2035
 4157SOL    HW113169  -0.000   4.399   1.975  0.5235 -0.0165 -0.3747
 4157SOL    HW213170   0.025   4.265   1.909  1.0253 -0.7171  1.1792
 4158SOL     OW13171   4.098   2.466   2.193  0.3507  0.1117 -0.0940
 4158SOL    HW113172   4.162   2.414   2.241  0.7324  0.4645 -0.2152
 4158SOL    HW213173   4.140   2.552   2.182  0.0387  0.2081 -0.5583
 4159SOL     OW13174   3.696   2.850   4.838  1.3020  0.3113 -0.9352
 4159SOL    HW113175   3.678   2.931   4.790 -0.9171  0.2193 -0.3388
 4159SOL    HW213176   3.775   2.870   4.888 -0.4392  3.0237  1.0295
 4160SOL     OW13177   5.006   5.274   1.748 -0.2653  0.0650  0.2155
 4160SOL    HW113178   4.943   5.337   1.784 -0.1942 -0.3553  1.1131
 4160SOL    HW213179   5.087   5.292   1.796  0.2370  0.4315 -0.7573
 4161SOL     OW13180   3.901   1.918   1.254  0.1030  0.3670  0.0943
 4161SOL    HW113181   3.910   1.853   1.324  0.3750  0.1691 -0.1242
 4161SOL    HW213182   3.989   1.956   1.244 -0.0259  0.6877  0.1392
 4162SOL     OW13183   2.509   1.463   3.349 -0.0138 -0.1240 -0.4477
 4162SOL    HW113184   2.518   1.552   3.315  0.4356 -0.1038 -0.2815
 4162SOL    HW213185   2.455   1.418   3.284  1.1438 -0.1940 -1.3960
 4163SOL     OW13186   1.551   3.860   3.053 -0.3653  0.2741  0.1521
 4163SOL    HW113187   1.619   3.884   3.116  0.4331 -0.4923 -0.3848
 4163SOL    HW213188   1.537   3.939   3.002 -0.6089  0.7360  0.9085
 4164SOL     OW13189   1.415   1.917   2.705  0.1712 -0.2376 -0.0173
 4164SOL    HW113190   1.435   1.916   2.799  1.9064 -0.2445 -0.3525
 4164SOL    HW213191   1.406   1.824   2.682  1.3588 -0.3460 -0.1372
 4165SOL     OW13192   1.091   3.624   3.837  0.5482 -0.1897  0.0869
 4165SOL    HW113193   1.038   3.645   3.760 -0.1061 -1.7268  0.0882
 4165SOL    HW213194   1.096   3.706   3.886  0.4256  0.6464 -1.2550
 4166SOL     OW13195   4.104   2.323   1.938 -0.0701 -0.5515  0.4132
 4166SOL    HW113196   4.133   2.399   1.888 -0.0841  0.3301  1.7103
 4166SOL    HW213197   4.082   2.358   2.025 -1.1858 -1.8394  0.6809
 4167SOL     OW13198   3.385   0.220   3.520  0.8915 -0.2900  0.0353
 4167SOL    HW113199   3.471   0.201   3.559  0.7058 -0.2207  0.4822
 4167SOL    HW213200   3.402   0.223   3.426  1.7953  1.8580  0.2233
 4168SOL     OW13201   1.352   2.630   5.118  0.1449  0.0755 -0.4130
 4168SOL    HW113202   1.280   2.679   5.077 -1.2159 -0.5717  1.1152
 4168SOL    HW213203   1.425   2.642   5.057 -1.6479 -0.5506 -2.8768
 4169SOL     OW13204   0.383   2.602   1.894 -0.3781  0.6650 -0.1145
 4169SOL    HW113205   0.466   2.620   1.939  0.6106  1.2206 -2.0467
 4169SOL    HW213206   0.391   2.512   1.863 -0.9269  0.3914  0.4992
 4170SOL     OW13207   4.863   3.752   0.387  0.3717 -0.5189 -0.0997
 4170SOL    HW113208   4.866   3.766   0.292  0.5773  1.4210  0.1622
 4170SOL    HW213209   4.951   3.774   0.418  0.6159 -2.1477  0.4442
 4171SOL     OW13210   2.466   2.073   3.821 -0.0750  0.6552  0.2171
 4171SOL    HW113211   2.420   2.156   3.815 -0.2337  0.5198 -0.4860
 4171SOL    HW213212   2.417   2.023   3.886 -0.1662  0.9843  0.4053
 4172SOL     OW13213   3.094   4.498   4.486 -0.5759  0.1774 -0.0060
 4172SOL    HW113214   3.187   4.504   4.465 -0.2681  1.6071  1.5468
 4172SOL    HW213215   3.054   4.570   4.436 -0.4388  1.1165  1.1966
 4173SOL     OW13216   2.045   0.025   1.865  0.6012  0.4828 -0.0266
 4173SOL    HW113217   2.015  -0.031   1.793 -0.5790  0.1509  0.6818
 4173SOL    HW213218   2.116   0.077   1.828 -0.2917  0.6682 -1.5657
 4174SOL     OW13219   4.740   2.035   0.397  0.5336  0.1264 -0.2828
 4174SOL    HW113220   4.748   2.089   0.476 -1.6435 -0.4432  0.3982
 4174SOL    HW213221   4.758   1.946   0.427  2.5630  0.2242 -1.0802
 4175SOL     OW13222   1.393   4.636   3.541  0.3432 -0.0788  0.3895
 4175SOL    HW113223   1.345   4.718   3.543  1.0899  0.4242 -0.8462
 4175SOL    HW213224   1.374   4.594   3.625 -0.4516  1.1130  0.8239
 4176SOL     OW13225   3.421   2.155   2.764 -0.1009  0.2702  0.1072
 4176SOL    HW113226   3.402   2.203   2.684  0.2323 -1.8068 -1.3054
 4176SOL    HW213227   3.335   2.133   2.799 -0.3330 -1.0839 -1.1883
 4177SOL     OW13228   0.407   2.582   2.551  0.1341  0.1111 -0.4273
 4177SOL    HW113229   0.439   2.663   2.589 -1.9830  1.1488 -0.7041
 4177SOL    HW213230   0.322   2.567   2.593 -0.4178 -0.8744 -1.8042
 4178SOL     OW13231   1.616   2.170   0.591  1.0937 -0.0054  0.3497
 4178SOL    HW113232   1.625   2.204   0.680  0.7309 -0.5636  0.6027
 4178SOL    HW213233   1.612   2.075   0.602  0.2497 -0.0412 -0.1923
 4179SOL     OW13234   1.080   3.955   0.306 -0.3490 -0.4379  0.1965
 4179SOL    HW113235   1.093   4.010   0.228 -1.5678  0.8227  0.8357
 4179SOL    HW213236   1.069   3.867   0.271 -0.8748  0.1040 -1.0762
 4180SOL     OW13237   5.010   2.089   4.300  0.2337 -0.3533 -0.1139
 4180SOL    HW113238   5.078   2.142   4.258 -0.5548 -0.2747 -1.3464
 4180SOL    HW213239   4.929   2.116   4.256 -0.9489  1.1067  2.7448
 4181SOL     OW13240   1.043   4.455   3.541  0.3902 -0.2664 -0.0014
 4181SOL    HW113241   0.956   4.445   3.581  1.4159 -1.3981  2.0824
 4181SOL    HW213242   1.089   4.374   3.562  1.8195  0.1005 -1.5120
 4182SOL     OW13243   3.828   2.527   2.227  0.0415 -0.4579  0.4875
 4182SOL    HW113244   3.908   2.475   2.235  0.6788  0.3572 -0.4483
 4182SOL    HW213245   3.816   2.565   2.314  0.9975 -0.1157  0.4750
 4183SOL     OW13246   0.900   2.170   5.313 -0.3216  0.7797 -0.0383
 4183SOL    HW113247   0.820   2.193   5.360 -0.2228 -0.7560  0.9590
 4183SOL    HW213248   0.934   2.094   5.360  1.1354  0.7233 -1.1192
 4184SOL     OW13249   2.963   4.532   2.210 -0.7503  0.3739 -0.1823
 4184SOL    HW113250   2.977   4.441   2.182 -0.7673  0.1804  0.4144
 4184SOL    HW213251   2.879   4.556   2.173  0.9254  1.4875 -3.6951
 4185SOL     OW13252   3.540   4.313   3.083 -0.1617 -0.7202 -0.5379
 4185SOL    HW113253   3.555   4.240   3.023 -0.1006 -0.9182 -0.2782
 4185SOL    HW213254   3.605   4.302   3.152 -0.4032 -0.6372 -0.2942
 4186SOL     OW13255   4.669   3.483   4.109 -0.4636  0.1840  0.3235
 4186SOL    HW113256   4.585   3.523   4.128 -0.7586  0.3045 -1.1382
 4186SOL    HW213257   4.659   3.392   4.137 -1.2939  0.0503 -0.3773
 4187SOL     OW13258   4.879   0.436   1.678  0.1937  0.0101 -0.1874
 4187SOL    HW113259   4.942   0.432   1.750  0.9561 -1.2832 -0.8971
 4187SOL    HW213260   4.931   0.424   1.599 -0.9073 -1.0150 -0.7982
 4188SOL     OW13261   3.170   3.461   3.556  0.0250  0.5286  0.3296
 4188SOL    HW113262   3.148   3.369   3.547 -1.9837  0.7357  2.2206
 4188SOL    HW213263   3.232   3.478   3.486  0.6636 -2.3068  0.1025
 4189SOL     OW13264   4.078   4.782   2.179  0.6740  0.0921 -0.0999
 4189SOL    HW113265   4.172   4.775   2.163  0.6917  0.8960 -0.3988
 4189SOL    HW213266   4.050   4.857   2.126 -0.2914 -0.6582 -0.6951
 4190SOL     OW13267   1.174   4.843   2.330 -0.0054  0.0146  0.4388
 4190SOL    HW113268   1.237   4.781   2.294  1.0886  0.4657  1.5092
 4190SOL    HW213269   1.172   4.823   2.424  1.4965  2.5122  1.0940
 4191SOL     OW13270   0.517   3.567   0.826 -0.0359 -0.0396  0.0514
 4191SOL    HW113271   0.429   3.582   0.860  0.1538  0.0359  0.5127
 4191SOL    HW213272   0.569   3.641   0.859  0.2520 -0.2051 -0.0263
 4192SOL     OW13273   3.510   3.623   4.863 -0.8016 -0.3969  0.5746
 4192SOL    HW113274   3.445   3.578   4.808  0.8916 -0.8571 -1.1366
 4192SOL    HW213275   3.509   3.713   4.832 -1.2555 -0.1803  1.1930
 4193SOL     OW13276   3.797   0.823   4.880 -0.1318 -0.0133  0.8140
 4193SOL    HW113277   3.789   0.751   4.943 -0.6139 -1.1348 -0.4771
 4193SOL    HW213278   3.845   0.784   4.806  0.5383  1.3059  0.5289
 4194SOL     OW13279   1.869   4.520   2.954  0.3554  0.3862 -0.5951
 4194SOL    HW113280   1.822   4.604   2.951  0.9186  0.6775 -2.1754
 4194SOL    HW213281   1.855   4.489   3.044 -1.0800  1.4659 -0.3887
 4195SOL     OW13282   2.796   0.041   0.946  0.1581 -0.0080  0.2960
 4195SOL    HW113283   2.802   0.047   1.042 -0.1147  0.5793  0.2788
 4195SOL    HW213284   2.849   0.114   0.915  0.1268 -0.1145 -0.0060
 4196SOL     OW13285   4.797   0.967   0.794  0.3101 -0.6289  0.0966
 4196SOL    HW113286   4.818   1.061   0.797  0.3611 -0.6622  0.9939
 4196SOL    HW213287   4.857   0.927   0.857  0.6878 -1.3580 -0.6964
 4197SOL     OW13288   1.380   1.819   2.102  0.3488 -0.1971  0.0632
 4197SOL    HW113289   1.307   1.767   2.068  0.7219 -1.2385  0.7865
 4197SOL    HW213290   1.341   1.901   2.131 -0.5822 -0.8330  0.6666
 4198SOL     OW13291   2.723   0.394   3.938  0.8237  0.1205 -0.2762
 4198SOL    HW113292   2.754   0.386   4.028  1.1897  0.9813 -0.3131
 4198SOL    HW213293   2.786   0.345   3.886 -0.4944 -2.1307  0.1053
 4199SOL     OW13294   4.830   1.649   2.414  0.7288 -0.4743  0.6060
 4199SOL    HW113295   4.777   1.692   2.346  2.8147  0.4803 -0.4934
 4199SOL    HW213296   4.865   1.571   2.371  0.5472 -0.8965  1.2112
 4200SOL     OW13297   0.563   0.243   0.166 -0.3187 -0.1887 -0.1430
 4200SOL    HW113298   0.593   0.166   0.213  0.2938  0.9658  1.4388
 4200SOL    HW213299   0.642   0.280   0.127 -0.0639  1.2397  1.5974
 4201SOL     OW13300   4.927   0.478   0.476  0.1727  0.2496  0.3378
 4201SOL    HW113301   5.023   0.474   0.475  0.1702 -0.1152  1.1869
 4201SOL    HW213302   4.907   0.571   0.470  0.5505  0.2661 -1.0442
 4202SOL     OW13303   4.934   2.552   5.124  0.3227 -0.2021 -0.4156
 4202SOL    HW113304   4.943   2.630   5.178  0.6630 -1.6028  1.6701
 4202SOL    HW213305   5.023   2.527   5.101  0.2307 -0.1265 -0.8652
 4203SOL     OW13306   2.269   0.927   1.258  0.3121  0.1194 -0.1920
 4203SOL    HW113307   2.218   0.935   1.177  0.8504 -1.1374 -0.6871
 4203SOL    HW213308   2.346   0.981   1.243 -0.1305  0.7975 -0.0556
 4204SOL     OW13309   4.219   0.597   5.246 -0.1976  0.2191  0.3347
 4204SOL    HW113310   4.166   0.656   5.191 -1.7456 -2.7207 -1.6209
 4204SOL    HW213311   4.185   0.609   5.334 -2.3731  0.3210 -0.4629
 4205SOL     OW13312   3.040   1.914   2.452 -0.4837 -0.0620  0.2946
 4205SOL    HW113313   2.959   1.950   2.489 -0.0530  0.6472  0.5619
 4205SOL    HW213314   3.060   1.838   2.506 -2.0074 -1.4279 -0.9562
 4206SOL     OW13315   2.798   3.202   2.119  0.1262  0.4334  0.3534
 4206SOL    HW113316   2.712   3.243   2.108 -0.0014 -0.0502 -0.5795
 4206SOL    HW213317   2.849   3.232   2.044 -0.2256 -1.6896 -0.8052
 4207SOL     OW13318   0.360   3.621   1.117 -0.5587  0.0729  0.4108
 4207SOL    HW113319   0.433   3.630   1.178 -1.2781  0.8589  1.1850
 4207SOL    HW213320   0.305   3.698   1.133 -0.3395  0.7675 -1.8389
 4208SOL     OW13321   1.581   2.555   1.037  0.0364  0.7616 -0.3374
 4208SOL    HW113322   1.516   2.619   1.066 -1.8405 -0.0503 -2.4414
 4208SOL    HW213323   1.535   2.471   1.041  1.2500  0.0375 -1.0691
 4209SOL     OW13324   5.163   4.640   2.194  0.2625 -0.1725 -0.4238
 4209SOL    HW113325   5.082   4.674   2.232 -0.1554 -1.1769 -0.3993
 4209SOL    HW213326   5.226   4.642   2.266  0.2433  0.4969 -0.4117
 4210SOL     OW13327   3.226   5.366   1.952  0.3251 -0.0536  0.7235
 4210SOL    HW113328   3.236   5.446   1.900 -1.1083 -0.4986 -0.3027
 4210SOL    HW213329   3.146   5.380   2.004 -0.4571 -1.1175 -0.1244
 4211SOL     OW13330   0.193   0.092   1.439 -0.1629  0.5341 -0.3741
 4211SOL    HW113331   0.282   0.081   1.406 -0.6681 -0.9923 -1.4029
 4211SOL    HW213332   0.138   0.085   1.360 -1.3212 -1.3009  0.5158
 4212SOL     OW13333   5.031   0.769   2.733  0.0791  0.7193 -0.2658
 4212SOL    HW113334   4.953   0.725   2.765  0.6469 -0.2781 -0.1923
 4212SOL    HW213335   5.013   0.787   2.641 -1.4621  3.3787  0.4424
 4213SOL     OW13336   4.448   3.131   4.955  1.0705 -0.1195  0.2576
 4213SOL    HW113337   4.526   3.085   4.987  1.5963  0.3597 -0.3213
 4213SOL    HW213338   4.393   3.062   4.919  1.9267 -0.2996 -0.7527
 4214SOL     OW13339   2.808   1.503   1.629 -0.0887 -0.1057 -0.1370
 4214SOL    HW113340   2.792   1.597   1.625  0.5677  0.0455  0.5632
 4214SOL    HW213341   2.857   1.490   1.710 -0.6471 -1.1275  0.0481
 4215SOL     OW13342   0.582   3.991   3.054 -0.1619  0.0935  0.1984
 4215SOL    HW113343   0.522   4.022   2.986 -0.0824  0.4090  0.2706
 4215SOL    HW213344   0.663   4.040   3.039  0.2316 -0.6385 -0.1658
 4216SOL     OW13345   3.362   2.770   1.211 -0.0285  0.0353  0.0371
 4216SOL    HW113346   3.284   2.823   1.225  1.5203  3.2022 -2.1080
 4216SOL    HW213347   3.356   2.741   1.120  1.2288  0.3124 -0.1567
 4217SOL     OW13348   3.502   1.526   1.522  0.0366  0.0639  0.3652
 4217SOL    HW113349   3.428   1.503   1.467  0.0493  0.6642  0.0894
 4217SOL    HW213350   3.556   1.584   1.468  1.1561 -1.0442  0.2525
 4218SOL     OW13351   0.209   5.118   3.485 -0.2170  0.0910  0.0973
 4218SOL    HW113352   0.232   5.211   3.490  1.1690 -0.2723  2.2806
 4218SOL    HW213353   0.146   5.106   3.557 -0.5323 -0.6204 -0.2952
 4219SOL     OW13354   2.922   3.684   2.658 -0.6497 -0.1699  0.5051
 4219SOL    HW113355   2.894   3.596   2.682 -0.0167 -0.4302  0.3089
 4219SOL    HW213356   2.843   3.726   2.624 -1.5222  0.1093  2.6703
 4220SOL     OW13357   5.375   0.466   1.392 -0.3308  0.3562 -0.3695
 4220SOL    HW113358   5.448   0.434   1.339 -0.7324  1.4176 -1.6262
 4220SOL    HW213359   5.416   0.506   1.468  0.2453 -1.5007  0.3519
 4221SOL     OW13360   4.217   3.964   2.091  0.0467  0.4235 -0.1477
 4221SOL    HW113361   4.249   4.003   2.173  1.1236  0.3337 -0.5158
 4221SOL    HW213362   4.153   3.899   2.120  0.7599  0.0579  0.6608
 4222SOL     OW13363   3.119   2.815   1.953 -0.8989  0.0242 -0.4713
 4222SOL    HW113364   3.210   2.792   1.939 -0.1957  2.1071  0.2678
 4222SOL    HW213365   3.070   2.734   1.938  1.3794 -2.2841  3.2823
 4223SOL     OW13366   0.259   0.555   3.501  0.4184  0.2407 -0.1310
 4223SOL    HW113367   0.210   0.605   3.567 -0.5359 -0.2215 -0.4590
 4223SOL    HW213368   0.275   0.471   3.543  0.2638  0.1292 -0.2938
 4224SOL     OW13369   1.728   2.292   1.708 -0.0515  0.1180  0.0431
 4224SOL    HW113370   1.804   2.303   1.765 -1.1207 -0.8725  1.7439
 4224SOL    HW213371   1.694   2.205   1.730 -0.5869 -0.2589 -2.0582
 4225SOL     OW13372   2.442   0.178   0.882 -0.4005 -0.0136  0.0143
 4225SOL    HW113373   2.347   0.165   0.892 -0.1489 -1.2666  1.0069
 4225SOL    HW213374   2.467   0.117   0.811 -0.3365  0.3438 -0.2728
 4226SOL     OW13375   4.643   2.399   3.593 -0.1253 -0.1611  0.2287
 4226SOL    HW113376   4.561   2.445   3.613  0.8876  1.7084  0.3578
 4226SOL    HW213377   4.691   2.400   3.676  0.5033 -0.1972 -0.1310
 4227SOL     OW13378   0.702   1.576   0.477 -0.2953 -0.1991  0.2260
 4227SOL    HW113379   0.654   1.652   0.508 -0.4489 -0.2966  0.2301
 4227SOL    HW213380   0.779   1.571   0.533 -0.5783 -0.3834  0.6069
 4228SOL     OW13381   5.366   3.893   4.720  0.2505 -0.3985 -0.3634
 4228SOL    HW113382   5.350   3.800   4.705  2.1268 -0.7150 -0.5631
 4228SOL    HW213383   5.454   3.908   4.687  0.2194  1.3201  0.2473
 4229SOL     OW13384   5.040   1.952   5.300 -0.4667 -0.3948  0.2848
 4229SOL    HW113385   5.008   1.936   5.389 -1.7557  0.3533 -0.0256
 4229SOL    HW213386   5.010   1.876   5.250  1.7172 -1.6842  0.7876
 4230SOL     OW13387   3.755   0.808   3.345 -0.0046  0.1501  0.4841
 4230SOL    HW113388   3.760   0.855   3.428 -1.7601 -1.4409  1.5539
 4230SOL    HW213389   3.810   0.731   3.358  0.0777  0.1188 -0.0211
 4231SOL     OW13390   4.451   1.416   1.063 -0.1968 -0.1355  0.2259
 4231SOL    HW113391   4.362   1.429   1.097 -0.1123  0.9810  0.0624
 4231SOL    HW213392   4.498   1.495   1.089  0.6407 -0.5360 -0.0438
 4232SOL     OW13393   5.031   1.281   5.178 -0.8592 -0.1303 -0.4630
 4232SOL    HW113394   5.064   1.240   5.258 -0.9705 -0.6922 -0.6971
 4232SOL    HW213395   5.017   1.208   5.118 -2.3356  0.0943 -0.4453
 4233SOL     OW13396   4.110   2.148   2.205 -0.1268  0.7700 -0.0741
 4233SOL    HW113397   4.098   2.125   2.114 -0.4708  0.5363  0.0311
 4233SOL    HW213398   4.022   2.150   2.242  0.1449 -2.1268  0.9915
 4234SOL     OW13399   2.856   2.800   3.610  0.5087 -0.3707  0.2026
 4234SOL    HW113400   2.834   2.753   3.690  1.8126  1.0567  1.4567
 4234SOL    HW213401   2.912   2.739   3.562 -0.6850 -1.4316  0.0895
 4235SOL     OW13402   5.356   3.327   0.406  0.2188  0.2177 -0.8039
 4235SOL    HW113403   5.264   3.303   0.391  0.6127 -1.6596 -0.4899
 4235SOL    HW213404   5.403   3.244   0.398  1.6947  0.8846  0.6417
 4236SOL     OW13405   0.234   3.663   3.004 -0.3049  0.3788  0.4000
 4236SOL    HW113406   0.209   3.571   3.012 -0.9218  0.4626 -0.4774
 4236SOL    HW213407   0.244   3.678   2.910 -1.4896  1.5239  0.4326
 4237SOL     OW13408   5.318   3.608   3.965  0.3693  0.7000 -0.4270
 4237SOL    HW113409   5.230   3.636   3.941  0.0807 -0.3515 -0.6420
 4237SOL    HW213410   5.365   3.598   3.882  0.4267  0.4508 -0.3684
 4238SOL     OW13411   4.894   4.648   1.732  0.0652  0.1283  0.3624
 4238SOL    HW113412   4.944   4.729   1.722  0.4340 -0.0261  0.8966
 4238SOL    HW213413   4.814   4.663   1.683  0.0302  0.9055  0.6433
 4239SOL     OW13414   0.676   1.676   2.066 -0.5046  0.2295  0.2271
 4239SOL    HW113415   0.644   1.740   2.129 -1.9958 -1.7433  1.5755
 4239SOL    HW213416   0.770   1.694   2.061 -1.0290  3.5420 -0.7541
 4240SOL     OW13417   4.436   0.287   2.200  0.9230 -0.6278  0.1646
 4240SOL    HW113418   4.503   0.221   2.181  0.0960 -1.1969 -0.8512
 4240SOL    HW213419   4.436   0.343   2.123 -1.1866 -1.8625 -0.8249
 4241SOL     OW13420   3.365   3.766   4.326 -0.7356  0.8835  0.3855
 4241SOL    HW113421   3.366   3.673   4.347 -1.2323  0.6509 -0.5923
 4241SOL    HW213422   3.456   3.786   4.304 -0.8317  0.3477 -0.5577
 4242SOL     OW13423   3.255   2.780   3.389 -0.0341 -0.4312 -0.2277
 4242SOL    HW113424   3.264   2.818   3.476  1.1524  0.5840 -0.7639
 4242SOL    HW213425   3.330   2.722   3.379 -0.3133 -0.7557 -0.4719
 4243SOL     OW13426   2.488   3.934   0.685  0.3366  0.6246  0.0410
 4243SOL    HW113427   2.449   3.999   0.743 -1.0062 -0.3985  0.3618
 4243SOL    HW213428   2.413   3.884   0.652  1.3143 -0.9236  0.0334
 4244SOL     OW13429   0.458   0.011   2.903 -0.1834 -0.2976 -0.2392
 4244SOL    HW113430   0.430   0.006   2.812 -0.3863 -0.0489 -0.1903
 4244SOL    HW213431   0.522   0.082   2.905 -0.6561  0.1292 -0.0667
 4245SOL     OW13432   2.556   3.104   4.450 -0.8313 -0.1599  0.1290
 4245SOL    HW113433   2.542   3.189   4.407 -2.2503  0.2824  1.3932
 4245SOL    HW213434   2.530   3.040   4.384  0.6165  0.3379 -0.9791
 4246SOL     OW13435   3.937   2.349   4.963 -0.4208 -0.2593 -0.1670
 4246SOL    HW113436   3.927   2.382   4.874  0.2485  1.4465  0.3462
 4246SOL    HW213437   4.029   2.321   4.968 -0.8794 -1.9393 -0.4773
 4247SOL     OW13438   2.818   3.669   0.531  0.6188 -1.0207  0.7808
 4247SOL    HW113439   2.813   3.715   0.616 -0.6341  0.2584  0.0499
 4247SOL    HW213440   2.879   3.722   0.480 -0.1606 -0.6561  0.2218
 4248SOL     OW13441   0.239   5.094   2.285 -0.0657 -0.4168 -0.8738
 4248SOL    HW113442   0.152   5.059   2.269 -1.5463  2.6294 -0.2359
 4248SOL    HW213443   0.248   5.166   2.223  0.8878  0.9617  0.7796
 4249SOL     OW13444   4.132   4.086   1.858 -0.3679  1.2354  0.2375
 4249SOL    HW113445   4.187   4.088   1.936  0.8797  0.2930 -0.5817
 4249SOL    HW213446   4.048   4.052   1.888 -0.5746  2.7719  1.5334
 4250SOL     OW13447   1.885   3.034   4.799 -1.1242  0.2992 -0.2900
 4250SOL    HW113448   1.956   2.985   4.756 -1.4331  1.1806 -1.9031
 4250SOL    HW213449   1.867   2.985   4.879  0.6888 -0.4466 -0.2876
 4251SOL     OW13450   0.395   2.563   0.774 -0.2191 -0.7965  0.4849
 4251SOL    HW113451   0.457   2.616   0.825  0.0022 -0.6172  0.0491
 4251SOL    HW213452   0.344   2.628   0.725  2.6284 -0.9301 -3.0736
 4252SOL     OW13453   2.173   3.817   1.971  0.4376 -0.1204 -0.1879
 4252SOL    HW113454   2.153   3.861   2.053  1.0196  0.0512 -0.1322
 4252SOL    HW213455   2.148   3.726   1.986  1.2132 -0.2423  0.4345
 4253SOL     OW13456   0.810   1.362   2.534  0.2121  0.1514  0.2899
 4253SOL    HW113457   0.746   1.300   2.499  1.0389  0.0545 -1.1052
 4253SOL    HW213458   0.822   1.427   2.465  1.3322  0.3839  0.6763
 4254SOL     OW13459   1.973   4.951   2.980  0.2788 -0.2989  0.0079
 4254SOL    HW113460   1.995   5.035   3.020  0.3572  0.5365 -1.6956
 4254SOL    HW213461   2.015   4.954   2.894  0.3877 -2.1480 -0.0402
 4255SOL     OW13462   0.044   1.421   3.227 -0.4390 -0.3155 -0.2969
 4255SOL    HW113463   0.021   1.395   3.138 -0.5232 -0.0019 -0.3669
 4255SOL    HW213464   0.050   1.517   3.224  0.5007 -0.3592 -0.1991
 4256SOL     OW13465   3.450   1.627   1.816  0.3348  0.8620  0.1567
 4256SOL    HW113466   3.540   1.603   1.796  0.4927  0.5514  1.1879
 4256SOL    HW213467   3.428   1.694   1.751  2.1024  2.7007  1.3411
 4257SOL     OW13468   5.322   1.947   1.065  0.2428 -0.2982  0.7043
 4257SOL    HW113469   5.350   1.864   1.105 -1.6811 -0.6663  1.4201
 4257SOL    HW213470   5.364   1.948   0.980 -0.3318 -2.4573  0.3186
 4258SOL     OW13471   5.108   2.411   3.010 -0.2808  0.2492  0.5740
 4258SOL    HW113472   5.168   2.456   2.950  1.0718  0.2958  1.8968
 4258SOL    HW213473   5.140   2.434   3.097 -0.7390 -1.7160  1.3118
 4259SOL     OW13474   4.506   1.141   2.545  0.3654 -0.1223 -0.1456
 4259SOL    HW113475   4.412   1.146   2.562  0.3807 -0.4371  0.0331
 4259SOL    HW213476   4.513   1.114   2.454  0.2727 -1.5127  0.2365
 4260SOL     OW13477   4.765   1.469   0.064 -0.9545  0.0335 -0.0627
 4260SOL    HW113478   4.734   1.537   0.124 -1.3804 -1.8742  1.9607
 4260SOL    HW213479   4.861   1.473   0.071 -0.8691  1.6687 -1.4694
 4261SOL     OW13480   4.095   0.876   4.035  0.1863 -0.0750 -0.6664
 4261SOL    HW113481   4.110   0.947   3.973 -2.0055 -1.4140 -2.9304
 4261SOL    HW213482   4.008   0.894   4.072  0.9623  0.0588  1.1629
 4262SOL     OW13483   0.840   0.843   1.029  0.1216 -0.4543 -0.1299
 4262SOL    HW113484   0.861   0.924   0.983  1.7105  0.1033  1.4679
 4262SOL    HW213485   0.753   0.858   1.066  0.4154  0.5690  0.1865
 4263SOL     OW13486   0.134   2.290   0.106  0.4162  0.2049  0.2398
 4263SOL    HW113487   0.068   2.344   0.151  0.2324 -0.8263  1.2685
 4263SOL    HW213488   0.082   2.226   0.057  0.6290  1.0329 -1.1083
 4264SOL     OW13489   2.944   0.154   2.580  0.3829 -0.3422  0.8328
 4264SOL    HW113490   2.869   0.144   2.638  0.0516 -0.4512  0.3902
 4264SOL    HW213491   3.006   0.087   2.610 -1.2369 -2.9506 -1.1895
 4265SOL     OW13492   1.126   3.787   1.718  0.0241  0.0472 -0.6277
 4265SOL    HW113493   1.171   3.866   1.749  1.4321 -0.6822 -0.7284
 4265SOL    HW213494   1.149   3.720   1.782 -2.1171 -0.0549  0.1049
 4266SOL     OW13495   2.417   1.330   1.240  0.3614 -0.4147 -0.1928
 4266SOL    HW113496   2.499   1.322   1.288  0.7504  1.1243 -0.5713
 4266SOL    HW213497   2.351   1.341   1.309  1.1932  4.3736  0.1468
 4267SOL     OW13498   1.595   1.586   4.520  0.1142 -0.2329 -0.5341
 4267SOL    HW113499   1.515   1.551   4.481  0.4188 -0.5575 -0.8702
 4267SOL    HW213500   1.564   1.653   4.582 -0.3936 -0.0294 -0.9965
 4268SOL     OW13501   2.249   2.947   2.949  0.3257 -0.3130 -0.4593
 4268SOL    HW113502   2.253   3.000   3.029  1.1961 -1.6809  0.4488
 4268SOL    HW213503   2.167   2.899   2.957  1.0426 -1.4639  0.3270
 4269SOL     OW13504   4.608   2.000   1.186  0.0023  0.2587 -0.0043
 4269SOL    HW113505   4.570   1.956   1.109  0.0783  0.7393 -0.3224
 4269SOL    HW213506   4.702   1.994   1.172  0.0115  1.2947 -0.5098
 4270SOL     OW13507   2.093   3.192   2.205 -0.4814 -0.5435 -0.2193
 4270SOL    HW113508   2.109   3.100   2.223  0.1918 -0.3535  0.1691
 4270SOL    HW213509   2.179   3.229   2.188 -0.8494 -0.2206 -1.5572
 4271SOL     OW13510   4.654   1.741   5.305  0.1375  0.7212  0.3750
 4271SOL    HW113511   4.621   1.660   5.267 -0.6962  1.0795  0.3080
 4271SOL    HW213512   4.581   1.802   5.299  0.3306  1.1045  1.5941
 4272SOL     OW13513   3.050   2.202   0.106 -0.4617 -0.1263 -0.4243
 4272SOL    HW113514   3.035   2.287   0.148  0.5007 -0.2079  0.1227
 4272SOL    HW213515   3.120   2.218   0.043 -1.0081 -0.2930 -1.0849
 4273SOL     OW13516   3.373   0.395   2.539  0.1590 -0.7510 -0.5624
 4273SOL    HW113517   3.436   0.339   2.494 -0.6566 -1.3797 -0.9302
 4273SOL    HW213518   3.291   0.383   2.491 -0.4409 -0.5414  0.3840
 4274SOL     OW13519   3.557   3.866   1.003  0.0259 -0.1174 -0.1737
 4274SOL    HW113520   3.640   3.914   0.999 -0.3860  0.6425  0.2732
 4274SOL    HW213521   3.493   3.924   0.964 -0.1343 -1.1174 -1.4662
 4275SOL     OW13522   3.363   2.650   0.980 -0.6176  0.4886 -0.4440
 4275SOL    HW113523   3.434   2.587   0.973  0.1446  1.0891  1.2736
 4275SOL    HW213524   3.318   2.645   0.896  0.9833 -0.4614 -1.2932
 4276SOL     OW13525   0.652   4.744   3.232 -0.0783 -0.8017  0.3855
 4276SOL    HW113526   0.628   4.837   3.230  0.3528 -0.6921 -1.6113
 4276SOL    HW213527   0.569   4.697   3.223 -0.5884 -0.7637  3.5631
 4277SOL     OW13528   4.218   5.068   2.688  0.0871 -0.4700  0.3867
 4277SOL    HW113529   4.242   5.149   2.644  1.6555 -1.8199 -1.4048
 4277SOL    HW213530   4.153   5.027   2.631 -0.6990 -0.5062  1.2757
 4278SOL     OW13531   5.335   5.035   2.920  0.0110  0.5389 -0.4406
 4278SOL    HW113532   5.381   5.042   3.003 -0.7337 -0.7407  0.0951
 4278SOL    HW213533   5.281   5.115   2.916  1.7115  1.7360 -0.7863
 4279SOL     OW13534   1.488   1.963   1.509  0.1693  0.2868  0.7605
 4279SOL    HW113535   1.429   1.889   1.499 -0.5810  1.0614 -0.8418
 4279SOL    HW213536   1.531   1.973   1.424  2.9753 -0.4928  1.9688
 4280SOL     OW13537   4.262   4.423   2.045 -0.3512  0.2336 -0.3394
 4280SOL    HW113538   4.208   4.441   2.122  1.7302 -0.0922  1.2674
 4280SOL    HW213539   4.343   4.387   2.080  1.9148  2.8550 -2.4688
 4281SOL     OW13540   4.956   1.581   4.918 -1.0106 -0.1280 -0.1171
 4281SOL    HW113541   4.890   1.589   4.987 -0.5693  0.0600  0.2894
 4281SOL    HW213542   4.905   1.566   4.838 -1.4535 -3.0250  0.5964
 4282SOL     OW13543   1.670   1.561   3.308  0.2783  0.5279  0.8089
 4282SOL    HW113544   1.605   1.631   3.312 -0.3926 -0.1061  1.2711
 4282SOL    HW213545   1.630   1.494   3.254  1.0536  0.6215  0.0991
 4283SOL     OW13546   1.967   0.756   3.324 -0.0736  0.1217 -0.3103
 4283SOL    HW113547   2.011   0.839   3.307 -1.5978  1.1313  0.3978
 4283SOL    HW213548   1.978   0.705   3.244  0.4774  1.1880 -0.9245
 4284SOL     OW13549   2.284   2.058   3.097 -0.0881 -1.1338  0.6095
 4284SOL    HW113550   2.330   1.975   3.085  0.3460 -1.0271  1.4898
 4284SOL    HW213551   2.219   2.040   3.165 -0.8631 -1.0834 -0.1023
 4285SOL     OW13552   4.415   0.271   2.504  0.7063  0.0730 -0.3208
 4285SOL    HW113553   4.451   0.184   2.525 -2.2708 -0.8977  1.4466
 4285SOL    HW213554   4.382   0.262   2.415  0.4950 -0.6102 -0.1836
 4286SOL     OW13555   3.967   2.934   4.649  0.1829  0.0213 -0.2266
 4286SOL    HW113556   4.030   2.903   4.584 -1.4834 -0.8479 -1.5148
 4286SOL    HW213557   3.898   2.975   4.598 -1.6794 -1.5687  0.8524
 4287SOL     OW13558   3.818   0.747   2.581  0.4146  0.0932 -0.1044
 4287SOL    HW113559   3.819   0.655   2.555 -0.4490 -0.4758  1.7150
 4287SOL    HW213560   3.731   0.778   2.556  0.0207 -0.1273  0.9437
 4288SOL     OW13561   1.370   3.954   0.199  0.5856 -0.2858  0.3685
 4288SOL    HW113562   1.288   3.904   0.201  1.1376 -1.1829  1.2480
 4288SOL    HW213563   1.408   3.941   0.286  0.2976  2.4534  0.9956
 4289SOL     OW13564   3.206   1.017   5.336 -0.1984  0.3378 -0.2178
 4289SOL    HW113565   3.269   1.039   5.404 -0.3902 -0.2753  0.1677
 4289SOL    HW213566   3.141   0.963   5.380  0.3610 -1.1716 -1.1495
 4290SOL     OW13567   0.857   1.892   0.287 -0.4402 -0.2088  0.1345
 4290SOL    HW113568   0.817   1.811   0.254 -1.1061  0.6960 -1.4244
 4290SOL    HW213569   0.793   1.960   0.266  0.4775  0.8441  0.6513
 4291SOL     OW13570   2.845   3.594   0.099 -0.1711  0.4501  0.1385
 4291SOL    HW113571   2.773   3.583   0.161 -1.4136 -0.2205 -1.3524
 4291SOL    HW213572   2.842   3.516   0.044 -0.1876  1.7353 -1.8072
 4292SOL     OW13573   4.000   1.330   2.995 -0.0814 -0.2476 -0.4623
 4292SOL    HW113574   4.030   1.400   2.937 -1.3938  1.1182  0.4086
 4292SOL    HW213575   4.073   1.269   2.999  1.6055  1.6476 -0.3867
 4293SOL     OW13576   2.690   5.193   3.722  0.0347 -0.2752 -0.2698
 4293SOL    HW113577   2.595   5.188   3.726 -0.0909 -0.0344 -2.0828
 4293SOL    HW213578   2.710   5.204   3.629  1.8536 -0.6283  0.0318
 4294SOL     OW13579   0.675   0.464   1.220  0.0248 -0.0339 -0.3265
 4294SOL    HW113580   0.663   0.536   1.159 -0.3115  0.5209  0.3756
 4294SOL    HW213581   0.757   0.422   1.193  0.8978  1.4008  0.0157
 4295SOL     OW13582   2.362   4.242   3.299 -0.2512 -0.0465 -0.3887
 4295SOL    HW113583   2.294   4.250   3.233 -1.5504 -0.1556  0.8964
 4295SOL    HW213584   2.403   4.157   3.281 -0.1815  0.1978 -1.4080
 4296SOL     OW13585   0.093   3.347   4.703 -0.1005  0.0475 -0.3967
 4296SOL    HW113586   0.093   3.361   4.608  1.4685 -0.9870 -0.5907
 4296SOL    HW213587   0.182   3.369   4.730 -0.0322 -1.2914  0.5581
 4297SOL     OW13588   2.375   3.503   2.649  0.2184 -0.4453 -0.3858
 4297SOL    HW113589   2.319   3.462   2.716  1.4321  0.1493  1.0458
 4297SOL    HW213590   2.447   3.541   2.698  0.3474  1.4067 -1.9014
 4298SOL     OW13591   2.324   4.783   5.375 -0.7530  0.2359  0.2623
 4298SOL    HW113592   2.386   4.715   5.402  1.1229  2.3216  1.5693
 4298SOL    HW213593   2.241   4.757   5.416 -0.5443 -2.0477 -0.6108
 4299SOL     OW13594   4.723   3.405   2.182 -0.5031 -0.5669 -0.0012
 4299SOL    HW113595   4.673   3.464   2.125  0.9703  0.8487  0.0800
 4299SOL    HW213596   4.697   3.430   2.271  0.1613  0.0339  0.0349
 4300SOL     OW13597   2.567   3.901   3.033 -0.2059 -0.2173  0.7266
 4300SOL    HW113598   2.525   3.970   2.981  0.7315 -0.1573  0.0281
 4300SOL    HW213599   2.630   3.948   3.087  0.3072 -0.5087  0.3796
 4301SOL     OW13600   2.214   4.803   4.742  0.2575  0.5532  1.0389
 4301SOL    HW113601   2.301   4.784   4.776  0.9198 -1.2509 -1.3709
 4301SOL    HW213602   2.193   4.728   4.686 -1.4118  2.4480 -1.0985
 4302SOL     OW13603   1.323   5.226   2.017  0.7922  0.0320  0.2288
 4302SOL    HW113604   1.235   5.263   2.013 -0.0337 -1.8747 -0.3717
 4302SOL    HW213605   1.315   5.139   1.978  3.3098  0.4262 -1.4054
 4303SOL     OW13606   2.362   3.376   1.447  0.3125  0.3392  0.4581
 4303SOL    HW113607   2.431   3.443   1.447  0.1943  0.4837 -0.7046
 4303SOL    HW213608   2.354   3.351   1.355 -1.1990  0.3450  0.5732
 4304SOL     OW13609   5.056   0.573   3.462 -0.1265  0.1143 -0.1914
 4304SOL    HW113610   5.044   0.590   3.368 -0.5645  1.2778  0.0549
 4304SOL    HW213611   5.024   0.484   3.475  1.3493 -0.6270 -1.4080
 4305SOL     OW13612   4.921   4.467   0.777 -0.3083  0.3184 -0.7529
 4305SOL    HW113613   5.016   4.460   0.792 -0.5593  0.0077  0.9955
 4305SOL    HW213614   4.906   4.559   0.758  0.4541  0.1893 -2.1158
 4306SOL     OW13615   5.075   2.745   1.026 -0.0693 -0.0204 -0.2803
 4306SOL    HW113616   5.010   2.683   0.994 -0.2594  0.2570 -0.4376
 4306SOL    HW213617   5.145   2.690   1.062 -0.4440 -0.3166  0.0060
 4307SOL     OW13618   2.968   0.444   1.682 -0.0624  0.4266 -0.1137
 4307SOL    HW113619   3.014   0.527   1.697  0.0871  0.2823  0.2270
 4307SOL    HW213620   3.026   0.394   1.624  1.2368 -0.6136  1.9836
 4308SOL     OW13621   2.167   2.296   1.586  0.0370 -0.2714  0.0825
 4308SOL    HW113622   2.085   2.321   1.543  0.8386  0.1357 -1.2838
 4308SOL    HW213623   2.219   2.377   1.586  0.9749 -0.8578 -0.3731
 4309SOL     OW13624   2.951   0.584   2.726 -0.6739  0.4034 -0.2176
 4309SOL    HW113625   3.018   0.529   2.765  0.4039  0.4635 -1.9068
 4309SOL    HW213626   2.947   0.661   2.783 -1.3298 -0.8254  1.4635
 4310SOL     OW13627   5.135   4.066   0.183  0.7153 -0.8231 -0.0643
 4310SOL    HW113628   5.219   4.028   0.210  0.9423 -1.2753 -1.3275
 4310SOL    HW213629   5.102   4.110   0.262  3.3756  1.7020 -0.1915
 4311SOL     OW13630   2.068   1.167   1.567 -0.1673 -0.3582 -0.6357
 4311SOL    HW113631   2.075   1.095   1.629 -0.7167 -0.0600 -0.2193
 4311SOL    HW213632   2.026   1.130   1.490  1.6717 -1.0541 -1.3751
 4312SOL     OW13633   3.593   2.345   2.837  0.0165  0.2219  0.2718
 4312SOL    HW113634   3.532   2.272   2.838  0.9907 -0.7464 -2.1459
 4312SOL    HW213635   3.648   2.333   2.914  1.2668 -2.6925 -0.9317
 4313SOL     OW13636   4.548   0.815   0.271 -0.0704 -0.1028  0.3011
 4313SOL    HW113637   4.463   0.822   0.314 -0.5543 -0.7879 -0.4854
 4313SOL    HW213638   4.529   0.769   0.189  0.9045  0.6287 -0.3612
 4314SOL     OW13639   3.723   1.579   1.090  0.3945 -0.0906  0.0338
 4314SOL    HW113640   3.697   1.589   0.998 -1.3965  0.4439  0.5443
 4314SOL    HW213641   3.709   1.666   1.128  0.9281 -0.3578  0.8479
 4315SOL     OW13642   1.174   2.768   4.240  0.6384  0.7488  0.0282
 4315SOL    HW113643   1.102   2.816   4.199 -1.7164 -1.7906  0.8493
 4315SOL    HW213644   1.201   2.703   4.175  0.2268 -0.1164  0.6940
 4316SOL     OW13645   0.193   0.348   1.284 -0.0093 -0.6003  0.5398
 4316SOL    HW113646   0.180   0.282   1.216  0.7503  0.4978 -0.7190
 4316SOL    HW213647   0.269   0.318   1.333  0.8554 -0.2527 -0.5615
 4317SOL     OW13648   0.259   3.349   2.141 -0.0162  0.0543 -0.2140
 4317SOL    HW113649   0.165   3.350   2.124 -0.2340  1.1209  0.8789
 4317SOL    HW213650   0.276   3.264   2.180 -0.6070  0.0141 -0.0399
 4318SOL     OW13651   2.408   5.099   3.803 -0.0456  0.3158 -0.3074
 4318SOL    HW113652   2.312   5.102   3.796 -0.0391  0.3171 -0.3991
 4318SOL    HW213653   2.427   5.147   3.883 -0.3646 -2.7676  1.7863
 4319SOL     OW13654   3.484   4.944   0.441 -0.1623  0.0135  0.0707
 4319SOL    HW113655   3.398   4.904   0.452 -0.3703  0.4447  0.0616
 4319SOL    HW213656   3.507   4.976   0.528 -0.1767  0.2234 -0.0022
 4320SOL     OW13657   1.441   3.794   1.745 -0.1208 -0.8401  0.3606
 4320SOL    HW113658   1.380   3.822   1.813 -0.3276 -3.9562  1.6084
 4320SOL    HW213659   1.525   3.786   1.790  0.1680 -1.1043 -0.2174
 4321SOL     OW13660   1.898   4.719   3.848 -0.1459  0.1068  0.1910
 4321SOL    HW113661   1.865   4.719   3.938  0.3572 -2.3523  0.4411
 4321SOL    HW213662   1.886   4.629   3.818  1.4258  0.4167 -1.5433
 4322SOL     OW13663   0.023   5.359   4.301 -0.8701 -0.4942 -0.0986
 4322SOL    HW113664  -0.050   5.420   4.296 -0.2972  0.3609  1.2924
 4322SOL    HW213665   0.056   5.353   4.211 -0.5196  1.8326 -0.1966
 4323SOL     OW13666   0.668   0.151   2.112  0.1032 -0.0435 -0.5719
 4323SOL    HW113667   0.643   0.237   2.078 -1.1242 -0.8276 -1.7232
 4323SOL    HW213668   0.586   0.111   2.140  0.7763 -0.4698  0.9433
 4324SOL     OW13669   0.894   2.716   3.331  0.5130 -0.5003 -0.1808
 4324SOL    HW113670   0.958   2.730   3.262 -0.7164 -0.1322 -1.2732
 4324SOL    HW213671   0.810   2.742   3.293 -0.5575 -2.4291  0.6704
 4325SOL     OW13672   1.401   0.717   5.149  0.3050  0.0517 -0.1165
 4325SOL    HW113673   1.478   0.773   5.150  1.5385 -1.5891  0.4367
 4325SOL    HW213674   1.338   0.761   5.207  1.1402  0.9830  0.0972
 4326SOL     OW13675   3.956   2.059   0.376  0.6637 -0.3316  0.2624
 4326SOL    HW113676   3.990   1.990   0.320  1.2367  0.7557 -0.7977
 4326SOL    HW213677   3.932   2.015   0.457  0.8585 -1.7809 -0.4328
 4327SOL     OW13678   1.648   4.564   3.606 -1.0565 -0.0155 -0.0611
 4327SOL    HW113679   1.567   4.602   3.573 -0.9835  0.7078  0.5506
 4327SOL    HW213680   1.628   4.471   3.620 -1.3783 -0.1167 -1.1604
 4328SOL     OW13681   0.725   4.244   2.200  0.0354  0.1815 -0.0817
 4328SOL    HW113682   0.784   4.320   2.203  0.3065 -0.0134 -0.4261
 4328SOL    HW213683   0.709   4.224   2.292 -0.2389  0.8109  0.0147
 4329SOL     OW13684   3.025   1.798   1.997  0.8616  0.5534 -0.3456
 4329SOL    HW113685   2.941   1.822   2.036  0.7149 -0.7470  0.1979
 4329SOL    HW213686   3.088   1.807   2.069  0.5704 -1.9769  0.3369
 4330SOL     OW13687   5.182   2.934   5.039 -0.4358 -0.6027  0.2458
 4330SOL    HW113688   5.228   2.960   5.120  1.0888 -1.8725 -0.1700
 4330SOL    HW213689   5.092   2.918   5.067 -0.4203  0.9373  1.2979
 4331SOL     OW13690   0.847   5.175   2.170  0.2566 -0.1117  0.4549
 4331SOL    HW113691   0.939   5.151   2.184  0.2847 -0.3737 -0.1816
 4331SOL    HW213692   0.798   5.099   2.203  0.2964 -0.3366  0.0040
 4332SOL     OW13693   4.470   4.890   4.447 -0.0574 -0.2985 -0.3268
 4332SOL    HW113694   4.550   4.846   4.419  0.4653 -0.1861  0.8997
 4332SOL    HW213695   4.469   4.971   4.397 -0.5019 -1.2058 -1.8653
 4333SOL     OW13696   1.621   0.110   3.089 -0.5505  0.1921  0.3008
 4333SOL    HW113697   1.535   0.076   3.065 -1.3143  1.7947  0.6032
 4333SOL    HW213698   1.661   0.137   3.006 -0.9434  0.7516  0.2882
 4334SOL     OW13699   5.237   5.234   3.322 -0.7363 -0.5923  0.2249
 4334SOL    HW113700   5.166   5.281   3.278 -0.1502 -0.4566 -0.6079
 4334SOL    HW213701   5.277   5.300   3.379 -1.4699 -0.7548  0.9402
 4335SOL     OW13702   4.339   5.187   4.453  0.5060 -0.0359 -0.4947
 4335SOL    HW113703   4.248   5.195   4.481  0.4742  1.1413 -0.9125
 4335SOL    HW213704   4.388   5.177   4.534 -0.0765 -1.8675 -0.3088
 4336SOL     OW13705   4.783   0.600   5.124 -0.2052  0.1973  0.2738
 4336SOL    HW113706   4.870   0.630   5.151 -0.2949 -0.1870  1.0434
 4336SOL    HW213707   4.744   0.674   5.078  0.6356  0.2785 -0.3197
 4337SOL     OW13708   1.904   4.523   2.315 -0.3686  0.4746 -0.2702
 4337SOL    HW113709   1.878   4.437   2.348  1.1341 -0.0503 -0.3831
 4337SOL    HW213710   1.946   4.566   2.389  2.3325 -0.4157 -1.1774
 4338SOL     OW13711   5.050   1.065   4.992 -0.4582  0.1369 -0.3636
 4338SOL    HW113712   5.065   1.116   4.913 -0.3555 -0.8301 -0.9783
 4338SOL    HW213713   5.127   1.010   5.000  0.2178  1.2484  1.2315
 4339SOL     OW13714   1.528   2.656   4.895  0.0517 -0.5495  0.4813
 4339SOL    HW113715   1.616   2.620   4.903 -0.2769 -1.1327  1.6909
 4339SOL    HW213716   1.541   2.749   4.880  0.8669 -0.3890  2.0235
 4340SOL     OW13717   2.507   2.757   2.109  0.1935  0.1545  0.3965
 4340SOL    HW113718   2.564   2.795   2.176  2.7487  0.0262 -1.5713
 4340SOL    HW213719   2.451   2.830   2.081  0.0778  0.5666  1.6446
 4341SOL     OW13720   1.236   2.112   1.850 -0.3632  0.5163 -0.2191
 4341SOL    HW113721   1.195   2.101   1.764  0.3884  1.1428 -0.6586
 4341SOL    HW213722   1.321   2.150   1.832 -0.3508  1.0229  0.8373
 4342SOL     OW13723   5.302   4.065   5.318  0.3592 -0.3100  0.1944
 4342SOL    HW113724   5.239   4.135   5.337 -0.2938 -1.0197  0.7006
 4342SOL    HW213725   5.357   4.061   5.396  1.8620  1.1415 -0.7345
 4343SOL     OW13726   5.114   4.992   3.445  0.7000 -0.2728 -0.2912
 4343SOL    HW113727   5.141   5.066   3.391  0.2830  0.2421  0.2017
 4343SOL    HW213728   5.118   5.025   3.535 -2.4809  0.1743 -0.1979
 4344SOL     OW13729   0.516   1.042   1.880  0.1997  0.7053 -0.0111
 4344SOL    HW113730   0.504   1.132   1.849  0.3341  1.6995  2.5420
 4344SOL    HW213731   0.533   1.052   1.974 -1.0306 -2.0747  0.5991
 4345SOL     OW13732   3.008   1.643   4.631 -0.0480  0.1749  0.2152
 4345SOL    HW113733   3.064   1.568   4.651  0.1360  0.6097  1.4447
 4345SOL    HW213734   3.048   1.683   4.554  0.9591  0.1044  0.6863
 4346SOL     OW13735   0.265   0.325   3.657 -0.4595 -0.1545  0.0030
 4346SOL    HW113736   0.247   0.260   3.725  0.1229 -0.5853 -0.2445
 4346SOL    HW213737   0.323   0.280   3.596  0.1504  0.6801 -0.0490
 4347SOL     OW13738   0.618   1.881   2.243  0.2470  0.7796  0.1774
 4347SOL    HW113739   0.677   1.950   2.212 -2.6798  1.8678 -3.6940
 4347SOL    HW213740   0.583   1.915   2.326  2.9332  1.2294  1.2560
 4348SOL     OW13741   1.741   4.257   4.930  0.4481  0.2819  0.3303
 4348SOL    HW113742   1.761   4.318   5.002  0.8260  1.3225 -0.6352
 4348SOL    HW213743   1.653   4.282   4.902 -0.0183 -0.6443  0.9297
 4349SOL     OW13744   0.186   2.924   0.176  0.1936 -0.1869  0.0245
 4349SOL    HW113745   0.128   2.859   0.136  1.9847 -3.3641  2.1348
 4349SOL    HW213746   0.274   2.889   0.162  1.1909  1.2183  2.2321
 4350SOL     OW13747   2.729   1.609   2.520 -0.4761  0.0555 -0.2168
 4350SOL    HW113748   2.728   1.611   2.616  1.0856 -0.2523 -0.1586
 4350SOL    HW213749   2.647   1.567   2.495 -0.6181 -0.4211  1.0024
 4351SOL     OW13750   3.840   2.126   2.226  0.2024 -0.0290 -0.1417
 4351SOL    HW113751   3.797   2.139   2.310 -0.1308 -0.6345 -0.2166
 4351SOL    HW213752   3.795   2.185   2.166 -0.3424 -0.4512 -0.1548
 4352SOL     OW13753   1.473   3.791   0.447 -0.9466  0.0746 -0.4612
 4352SOL    HW113754   1.424   3.823   0.523 -1.0244 -0.2002 -0.3924
 4352SOL    HW213755   1.534   3.726   0.484  1.9880  2.8630  0.0348
 4353SOL     OW13756   3.199   3.433   2.986  0.7750  0.0139  0.3294
 4353SOL    HW113757   3.275   3.464   3.035 -0.9125  1.2605  2.2950
 4353SOL    HW213758   3.168   3.357   3.036  0.5589 -0.3164 -0.2999
 4354SOL     OW13759   4.784   4.594   3.590 -0.8113  0.0871  0.0875
 4354SOL    HW113760   4.691   4.584   3.611 -0.7914 -0.2105  0.0413
 4354SOL    HW213761   4.796   4.540   3.512 -0.8746  1.1409 -0.6727
 4355SOL     OW13762   0.893   1.110   4.614 -0.4594  1.1975 -0.5645
 4355SOL    HW113763   0.875   1.142   4.702 -1.5793  0.1140 -0.3564
 4355SOL    HW213764   0.988   1.104   4.609 -0.3943  0.3578  0.9408
 4356SOL     OW13765   0.189   0.645   4.485 -0.3650  0.2814 -0.3756
 4356SOL    HW113766   0.160   0.735   4.467  0.3264  0.3305 -1.2758
 4356SOL    HW213767   0.122   0.590   4.446  0.2485  0.4003 -1.6238
 4357SOL     OW13768   3.625   3.508   1.226 -0.0767  0.0662 -0.1926
 4357SOL    HW113769   3.694   3.550   1.174 -0.2490  0.7765  0.1346
 4357SOL    HW213770   3.672   3.455   1.290  0.2967  2.2477  1.4763
 4358SOL     OW13771   0.882   3.657   1.684  0.2373  0.3897  0.0446
 4358SOL    HW113772   0.933   3.737   1.689  0.4372  0.3744 -1.2680
 4358SOL    HW213773   0.915   3.612   1.605  0.0559 -0.9211  0.6786
 4359SOL     OW13774   2.732   4.939   1.460  0.3397  0.1766 -0.1323
 4359SOL    HW113775   2.807   4.944   1.520 -0.4530  0.4348  0.8652
 4359SOL    HW213776   2.743   4.855   1.415  0.2385 -0.6796  1.3716
 4360SOL     OW13777   5.228   1.984   1.979  0.1046  0.5803  0.0811
 4360SOL    HW113778   5.282   1.979   2.059 -1.4752 -0.7661  1.1221
 4360SOL    HW213779   5.168   2.056   1.996  0.5233  1.0553 -0.4151
 4361SOL     OW13780   0.595   3.772   5.328  0.1560  0.5770 -0.0898
 4361SOL    HW113781   0.574   3.797   5.418  1.1356 -0.7189  0.5367
 4361SOL    HW213782   0.510   3.765   5.285 -0.2981  1.8992  0.5126
 4362SOL     OW13783   2.931   1.136   2.343  0.3056 -0.1326  0.2734
 4362SOL    HW113784   2.871   1.097   2.280  0.6846 -1.1891  0.5338
 4362SOL    HW213785   2.897   1.224   2.359  0.0714  0.0659 -1.2084
 4363SOL     OW13786   0.598   4.039   2.712  0.7094 -0.0293  0.1261
 4363SOL    HW113787   0.607   3.955   2.668 -0.8666  1.7154 -4.1275
 4363SOL    HW213788   0.513   4.035   2.756  0.5615 -0.6005 -0.2069
 4364SOL     OW13789   5.015   3.651   3.552  0.0987 -0.0827  0.5267
 4364SOL    HW113790   4.989   3.741   3.534  1.7975  0.4016  0.2852
 4364SOL    HW213791   4.994   3.603   3.472  2.2919  0.8530 -0.7212
 4365SOL     OW13792   3.783   2.486   1.772 -0.2694 -0.1216 -0.6051
 4365SOL    HW113793   3.696   2.526   1.774 -0.0052  0.4461  0.4031
 4365SOL    HW213794   3.832   2.532   1.841  0.9761 -0.0971 -1.4766
 4366SOL     OW13795   5.018   1.244   4.378 -0.2579 -0.1409 -0.2804
 4366SOL    HW113796   5.086   1.177   4.375  0.8667  1.0154 -1.5719
 4366SOL    HW213797   5.039   1.303   4.306 -1.6706  1.1794  0.3466
 4367SOL     OW13798   5.130   2.699   3.995 -0.4268  0.3139  0.5245
 4367SOL    HW113799   5.076   2.765   4.039 -1.9709 -0.6295  0.1140
 4367SOL    HW213800   5.070   2.655   3.935  0.8014 -0.8266  0.0881
 4368SOL     OW13801   3.432   2.600   4.265 -0.4433 -0.3571 -0.6583
 4368SOL    HW113802   3.380   2.653   4.204 -0.2195 -0.4013 -0.8886
 4368SOL    HW213803   3.378   2.595   4.344 -0.0184  1.1155 -0.2451
 4369SOL     OW13804   3.862   0.237   5.114 -0.0647 -0.0415  0.2098
 4369SOL    HW113805   3.934   0.175   5.117  0.5951  0.7279  0.6702
 4369SOL    HW213806   3.806   0.206   5.043  0.6252 -0.7481 -0.0340
 4370SOL     OW13807   1.956   0.973   0.441 -0.4348 -0.6779  0.4579
 4370SOL    HW113808   1.963   1.016   0.526  0.2801 -0.7129  0.4187
 4370SOL    HW213809   1.926   0.885   0.461 -1.8214 -0.2186  0.5455
 4371SOL     OW13810   2.748   3.670   1.690  0.1750 -0.4845  0.1869
 4371SOL    HW113811   2.653   3.663   1.688  0.1369  0.1048 -0.3904
 4371SOL    HW213812   2.766   3.762   1.670  0.7658  0.2158  3.3963
 4372SOL     OW13813   3.285   3.569   3.311 -0.1623  0.1903  0.0241
 4372SOL    HW113814   3.252   3.647   3.267 -1.3955 -0.7707 -0.8322
 4372SOL    HW213815   3.380   3.578   3.308 -0.2123  0.3822 -2.4644
 4373SOL     OW13816   4.446   4.845   2.443 -0.3655 -0.3413  0.0910
 4373SOL    HW113817   4.477   4.792   2.370 -2.1241 -0.6918 -0.4387
 4373SOL    HW213818   4.407   4.783   2.504 -1.1648  0.2022  0.1423
 4374SOL     OW13819   2.551   2.099   1.219  0.3117 -0.3680 -0.0388
 4374SOL    HW113820   2.557   2.193   1.207 -0.6656 -0.5625 -2.8649
 4374SOL    HW213821   2.457   2.080   1.210  0.5371 -1.6597  0.1424
 4375SOL     OW13822   0.428   2.342   4.818 -0.2271 -0.2279  0.1365
 4375SOL    HW113823   0.471   2.285   4.882  0.6383  1.0769  0.7310
 4375SOL    HW213824   0.365   2.392   4.869  0.5338  0.8902  0.0027
 4376SOL     OW13825   0.717   3.438   4.829 -0.0588  0.0646  0.1097
 4376SOL    HW113826   0.659   3.429   4.754  0.2722  1.7745 -0.3835
 4376SOL    HW213827   0.798   3.474   4.793  0.3636  0.2332  1.1848
 4377SOL     OW13828   1.032   1.850   2.874 -0.3284 -0.1378  0.2312
 4377SOL    HW113829   1.078   1.833   2.957 -2.0582 -0.1452  1.2201
 4377SOL    HW213830   0.957   1.903   2.899 -0.1027  1.0910 -1.5657
 4378SOL     OW13831   3.278   3.033   4.566 -0.2183  0.3206  0.1817
 4378SOL    HW113832   3.297   3.011   4.657 -1.6017 -1.0559  0.1719
 4378SOL    HW213833   3.302   2.955   4.517 -2.7014 -0.2941 -0.1937
 4379SOL     OW13834   3.059   0.852   4.905  0.1656  0.0286 -0.2502
 4379SOL    HW113835   3.128   0.844   4.970 -1.9546 -0.0288  2.1679
 4379SOL    HW213836   3.028   0.942   4.914 -0.5878 -0.1742 -0.6942
 4380SOL     OW13837   0.821   1.564   1.279  0.6963 -0.0723 -0.0822
 4380SOL    HW113838   0.751   1.508   1.312  0.9056 -0.8413 -0.9013
 4380SOL    HW213839   0.813   1.558   1.184  0.2380  1.9084 -0.2050
 4381SOL     OW13840   0.757   3.525   2.543  0.3482 -0.1015 -0.1938
 4381SOL    HW113841   0.672   3.554   2.576  0.4500  1.5263 -1.2148
 4381SOL    HW213842   0.820   3.566   2.602  0.4472 -1.1446  0.4429
 4382SOL     OW13843   1.673   0.213   2.845  0.4170 -0.1223 -0.0488
 4382SOL    HW113844   1.593   0.258   2.818  0.2289 -0.1622  0.4211
 4382SOL    HW213845   1.692   0.152   2.774  1.7661  2.0014 -1.6247
 4383SOL     OW13846   1.380   3.008   3.533  0.2318  0.2462 -0.5102
 4383SOL    HW113847   1.450   2.943   3.542  0.0757 -0.0158 -1.1419
 4383SOL    HW213848   1.317   2.968   3.473 -0.6702  0.3041  0.3762
 4384SOL     OW13849   3.897   2.953   3.663 -0.5831 -0.2270 -0.0568
 4384SOL    HW113850   3.918   3.046   3.671 -0.1674 -0.2300 -0.9783
 4384SOL    HW213851   3.843   2.947   3.584 -1.9704 -0.5624  0.8922
 4385SOL     OW13852   0.910   2.640   2.126 -0.6107  0.1706  0.3680
 4385SOL    HW113853   0.981   2.704   2.133  0.4811 -1.0318  0.6768
 4385SOL    HW213854   0.920   2.603   2.038 -0.9861  0.1374  0.3373
 4386SOL     OW13855   3.140   1.737   2.633 -0.2841  0.0206  0.5677
 4386SOL    HW113856   3.233   1.755   2.617 -0.1369  0.6574  1.9691
 4386SOL    HW213857   3.139   1.695   2.719 -1.1732 -1.4822 -0.1318
 4387SOL     OW13858   5.177   2.845   0.761 -0.2162 -0.2745  0.7700
 4387SOL    HW113859   5.111   2.868   0.826  1.7091  3.1482  1.7425
 4387SOL    HW213860   5.156   2.899   0.685  2.0225  1.9480  1.5741
 4388SOL     OW13861   4.515   3.283   3.134 -0.6083  0.3474 -0.1224
 4388SOL    HW113862   4.598   3.264   3.177 -0.6995 -0.5337 -0.3295
 4388SOL    HW213863   4.538   3.298   3.042 -0.4043  2.2947  0.2091
 4389SOL     OW13864   3.081   4.122   0.274  0.2624  0.6789 -0.5201
 4389SOL    HW113865   3.132   4.062   0.219 -0.7872  0.5125 -1.3432
 4389SOL    HW213866   3.005   4.146   0.220 -0.0672  1.6351  0.3320
 4390SOL     OW13867   0.404   1.319   2.633 -0.0383 -0.2649 -0.0933
 4390SOL    HW113868   0.332   1.339   2.574 -0.0855 -0.7216 -0.1980
 4390SOL    HW213869   0.361   1.282   2.710  0.1867 -3.2547 -1.2701
 4391SOL     OW13870   3.892   1.225   2.640 -0.1011  0.0499 -0.2019
 4391SOL    HW113871   3.915   1.172   2.716 -0.0717  1.1011  0.5328
 4391SOL    HW213872   3.836   1.294   2.674  0.0605  0.6459 -1.1010
 4392SOL     OW13873   0.302   5.156   0.654 -0.1830  0.5776  0.0542
 4392SOL    HW113874   0.391   5.131   0.632 -0.6452 -0.2447 -0.9878
 4392SOL    HW213875   0.284   5.111   0.736  0.0589 -0.0192 -0.2114
 4393SOL     OW13876   5.051   1.847   4.423 -0.0025  0.0772  0.0051
 4393SOL    HW113877   5.014   1.920   4.373 -0.3886 -0.2543 -0.2029
 4393SOL    HW213878   5.125   1.884   4.469 -0.1267  0.5754 -0.1938
 4394SOL     OW13879   3.885   1.783   3.966 -0.4180  0.4963  0.8470
 4394SOL    HW113880   3.980   1.780   3.964 -0.3354  1.0706  2.2881
 4394SOL    HW213881   3.863   1.770   4.059 -1.8328 -1.3642  0.3254
 4395SOL     OW13882   2.595   3.220   1.778  0.6705  0.6307 -0.1337
 4395SOL    HW113883   2.529   3.289   1.775  1.2415  1.1583 -2.3265
 4395SOL    HW213884   2.678   3.266   1.785  0.9499  0.0830  0.2579
 4396SOL     OW13885   2.843   2.201   5.188  1.0011  0.4543 -0.4746
 4396SOL    HW113886   2.756   2.238   5.201  0.7612 -0.1902 -0.2093
 4396SOL    HW213887   2.902   2.264   5.229  0.6421  0.7674 -0.4314
 4397SOL     OW13888   1.603   1.736   1.785  0.0444 -0.9931 -0.1271
 4397SOL    HW113889   1.669   1.728   1.717 -0.2587 -1.7867 -0.3320
 4397SOL    HW213890   1.651   1.770   1.861 -0.0075  2.0650 -1.3183
 4398SOL     OW13891   2.526   3.700   2.055  0.1646  0.4542  0.4582
 4398SOL    HW113892   2.554   3.791   2.059 -0.5913  0.6528  1.6614
 4398SOL    HW213893   2.464   3.690   2.128  0.9692 -1.2600  0.9772
 4399SOL     OW13894   3.892   0.179   0.510  0.2035 -0.1305  0.0925
 4399SOL    HW113895   3.846   0.105   0.548 -0.1796 -0.2637 -0.6099
 4399SOL    HW213896   3.941   0.217   0.583 -1.8486  0.6771  1.1327
 4400SOL     OW13897   4.322   0.025   0.213  0.1461  0.5203  0.4780
 4400SOL    HW113898   4.370   0.099   0.175  0.0789 -0.0640 -0.7950
 4400SOL    HW213899   4.248   0.012   0.154 -0.3369 -0.0134  1.1841
 4401SOL     OW13900   1.967   4.658   0.870  0.4400 -0.4722 -0.1925
 4401SOL    HW113901   1.988   4.729   0.811 -1.0374 -0.6135 -0.9393
 4401SOL    HW213902   1.941   4.586   0.813 -0.0673 -0.9355  0.5962
 4402SOL     OW13903   0.842   0.185   3.147  0.2549  0.6715 -0.2213
 4402SOL    HW113904   0.898   0.254   3.111  1.6944  0.9611  2.3382
 4402SOL    HW213905   0.798   0.225   3.222 -1.0236 -0.4441 -0.3313
 4403SOL     OW13906   5.360   5.298   1.745  0.7314  0.3910  0.0639
 4403SOL    HW113907   5.377   5.295   1.839  0.6346  1.9375  0.1587
 4403SOL    HW213908   5.411   5.372   1.714 -0.9432  1.2811 -0.7026
 4404SOL     OW13909   0.948   3.593   2.731 -0.1347 -0.3616  0.1046
 4404SOL    HW113910   1.040   3.602   2.756 -0.7460  2.1919  1.8048
 4404SOL    HW213911   0.910   3.540   2.800 -0.1035 -0.8052 -0.2135
 4405SOL     OW13912   1.263   5.178   1.449 -0.1396  0.3045  0.4634
 4405SOL    HW113913   1.187   5.121   1.444 -0.6150  0.9788 -0.3721
 4405SOL    HW213914   1.333   5.128   1.407 -0.7826  0.6515 -1.1031
 4406SOL     OW13915   3.474   1.958   3.970  0.4143 -0.2860  0.0098
 4406SOL    HW113916   3.504   2.048   3.961  1.9195 -0.7277  0.3504
 4406SOL    HW213917   3.444   1.934   3.882  3.4619 -0.6095 -1.0433
 4407SOL     OW13918   4.744   0.257   4.400 -0.1849 -0.2222 -0.0061
 4407SOL    HW113919   4.824   0.212   4.427 -1.7647 -2.4330  1.4192
 4407SOL    HW213920   4.743   0.336   4.453  0.4421 -0.8316  0.9637
 4408SOL     OW13921   5.120   3.278   5.176 -0.3563 -0.2328 -0.3068
 4408SOL    HW113922   5.128   3.298   5.083 -2.5234  1.1596 -0.2468
 4408SOL    HW213923   5.136   3.361   5.220  0.6857 -0.8904  0.5909
 4409SOL     OW13924   1.875   4.436   3.750 -0.2892 -0.2036 -0.1726
 4409SOL    HW113925   1.837   4.358   3.708 -0.5876  0.5979 -1.4613
 4409SOL    HW213926   1.970   4.423   3.742 -0.3377 -0.0515 -1.1701
 4410SOL     OW13927   2.619   4.726   3.896 -0.7248  0.7239  0.6973
 4410SOL    HW113928   2.694   4.766   3.852  0.8541  0.0947  2.6959
 4410SOL    HW213929   2.554   4.716   3.826 -0.2724  4.3052 -0.4767
 4411SOL     OW13930   1.465   4.892   0.419 -0.2713 -0.1593 -0.6051
 4411SOL    HW113931   1.549   4.889   0.373 -1.7586  1.4022 -3.7293
 4411SOL    HW213932   1.456   4.805   0.457  2.7269 -0.3767 -0.0950
 4412SOL     OW13933   3.142   3.785   1.086 -0.1829  0.0421 -0.4544
 4412SOL    HW113934   3.231   3.755   1.105 -1.0831 -2.5815 -0.0045
 4412SOL    HW213935   3.125   3.851   1.152  0.5884 -1.2010  1.0449
 4413SOL     OW13936   0.320   0.725   0.759 -0.2465  0.3424 -0.1197
 4413SOL    HW113937   0.271   0.715   0.677  0.9166  1.2088 -0.9477
 4413SOL    HW213938   0.392   0.784   0.738  1.9698 -1.8691  0.6918
 4414SOL     OW13939   1.631   0.863   4.845  0.3146 -0.2565  0.1325
 4414SOL    HW113940   1.596   0.911   4.920  0.1534 -1.1069  0.6171
 4414SOL    HW213941   1.683   0.928   4.797  0.6180  0.2455  1.1054
 4415SOL     OW13942   0.040   1.662   5.075  0.3563 -0.0601 -0.2028
 4415SOL    HW113943  -0.016   1.586   5.093  0.3100  0.2018  0.7929
 4415SOL    HW213944   0.089   1.636   4.997 -0.1007 -0.8679 -0.2469
 4416SOL     OW13945   4.876   3.480   1.832  0.0579  0.1257  0.2231
 4416SOL    HW113946   4.797   3.531   1.812  0.1484  1.2090  2.3884
 4416SOL    HW213947   4.947   3.544   1.828  0.7859 -0.7091 -1.0592
 4417SOL     OW13948   3.293   0.214   2.780 -0.5991 -0.7286 -0.2434
 4417SOL    HW113949   3.329   0.259   2.703 -0.5292 -1.6417 -0.7623
 4417SOL    HW213950   3.366   0.162   2.813 -0.6371 -0.3544  0.4336
 4418SOL     OW13951   4.499   4.432   0.966  0.3966  0.2675  0.0827
 4418SOL    HW113952   4.438   4.424   1.039 -1.4689  2.2905 -1.1346
 4418SOL    HW213953   4.585   4.414   1.004 -0.8561 -2.6039  1.8938
 4419SOL     OW13954   1.054   0.110   2.655  0.2915  0.1979  0.4299
 4419SOL    HW113955   1.065   0.020   2.625 -0.4608  0.0587  0.5575
 4419SOL    HW213956   1.052   0.163   2.575  1.0020  0.1348  0.3675
 4420SOL     OW13957   0.981   2.412   4.979  0.7079 -0.0880  0.0260
 4420SOL    HW113958   1.058   2.357   4.963  1.1760  0.5607  0.0143
 4420SOL    HW213959   0.922   2.390   4.907  1.8721  1.1375 -1.3961
 4421SOL     OW13960   2.978   2.115   2.141 -0.2805  0.8377 -0.2581
 4421SOL    HW113961   3.024   2.138   2.222  1.6278  0.5906 -1.2132
 4421SOL    HW213962   2.909   2.055   2.169  1.6219 -0.9105  1.0038
 4422SOL     OW13963   4.783   2.836   2.188  0.3602 -0.5777 -0.2504
 4422SOL    HW113964   4.696   2.811   2.218  0.5342 -2.0666 -0.9059
 4422SOL    HW213965   4.771   2.923   2.149 -1.1453 -1.3511 -1.6251
 4423SOL     OW13966   1.314   3.965   5.115 -0.0497 -0.2469  0.6044
 4423SOL    HW113967   1.378   3.987   5.047  0.2882 -0.1687  0.9449
 4423SOL    HW213968   1.292   4.049   5.155 -1.9489  0.0181 -0.8834
 4424SOL     OW13969   0.327   1.173   3.430 -0.1894  0.0070  0.1043
 4424SOL    HW113970   0.329   1.269   3.425  0.3489 -0.0600 -1.4945
 4424SOL    HW213971   0.419   1.148   3.438 -0.1759 -0.4240 -1.2421
 4425SOL     OW13972   4.607   1.042   3.894 -0.2895  0.4169  0.5632
 4425SOL    HW113973   4.535   1.068   3.836  1.5816  1.5837 -1.3617
 4425SOL    HW213974   4.569   1.049   3.982 -3.3272 -1.7364 -0.3979
 4426SOL     OW13975   4.290   3.630   1.271  0.0632 -0.0685 -0.3394
 4426SOL    HW113976   4.252   3.612   1.185  0.5373 -1.4069 -0.3011
 4426SOL    HW213977   4.375   3.585   1.270  0.0955 -0.0810  0.7983
 4427SOL     OW13978   2.292   3.912   3.584  0.3387 -0.2886 -0.0277
 4427SOL    HW113979   2.222   3.965   3.545 -0.2802 -0.2642  1.0601
 4427SOL    HW213980   2.370   3.968   3.579  0.1384 -0.0645 -0.6873
 4428SOL     OW13981   0.290   5.395   5.317  0.1058 -0.4864  0.1735
 4428SOL    HW113982   0.269   5.487   5.334 -0.7778 -0.3483 -1.3815
 4428SOL    HW213983   0.308   5.358   5.403 -0.5538  0.8957  0.9512
 4429SOL     OW13984   2.337   1.192   0.487  0.1326 -0.8401  0.6582
 4429SOL    HW113985   2.374   1.273   0.452 -0.3394 -1.2259 -0.7850
 4429SOL    HW213986   2.286   1.155   0.415 -2.8790 -0.4699  2.4081
 4430SOL     OW13987   2.668   3.664   3.230 -0.6207  0.6623 -0.2366
 4430SOL    HW113988   2.666   3.733   3.297 -1.5533 -0.6355  1.1369
 4430SOL    HW213989   2.577   3.657   3.200 -0.7696 -0.6510  0.4229
 4431SOL     OW13990   2.421   4.920   1.399 -0.5396  0.0765 -0.0770
 4431SOL    HW113991   2.502   4.905   1.446  0.8430  0.2684 -2.2552
 4431SOL    HW213992   2.353   4.916   1.466  1.2141 -0.4008  1.7642
 4432SOL     OW13993   5.307   3.263   1.532 -0.4015 -0.1485  0.4080
 4432SOL    HW113994   5.393   3.253   1.491  0.2155  2.2265  0.9874
 4432SOL    HW213995   5.247   3.276   1.460 -0.1847 -1.0684  0.0415
 4433SOL     OW13996   4.858   3.161   4.514  0.1310  0.1561 -0.0008
 4433SOL    HW113997   4.920   3.089   4.523 -0.4320 -0.3601 -0.1648
 4433SOL    HW213998   4.773   3.118   4.507 -0.1371  0.8109 -0.8705
 4434SOL     OW13999   3.247   1.301   0.576 -0.3057 -0.2474  0.0002
 4434SOL    HW114000   3.191   1.367   0.617 -2.0503 -1.7574  0.1659
 4434SOL    HW214001   3.242   1.322   0.482 -0.5615  0.0623  0.0784
 4435SOL     OW14002   2.256   2.873   0.062 -0.2560  0.4435 -0.5753
 4435SOL    HW114003   2.273   2.960   0.096  0.4557  0.2306 -0.3546
 4435SOL    HW214004   2.196   2.833   0.126 -0.4805  0.7247 -0.6103
 4436SOL     OW14005   1.578   3.409   1.129 -0.2510 -0.4687 -0.4479
 4436SOL    HW114006   1.529   3.449   1.200  0.2853  0.8185 -0.7701
 4436SOL    HW214007   1.642   3.352   1.172 -0.0455  0.1715  0.1090
 4437SOL     OW14008   4.334   0.562   3.521 -0.3927  0.0061 -0.1932
 4437SOL    HW114009   4.240   0.545   3.511 -0.2039 -1.4008  0.2687
 4437SOL    HW214010   4.372   0.534   3.437 -0.1525 -1.4207  0.3623
 4438SOL     OW14011   1.182   3.147   2.285 -0.0856  0.1082 -0.1059
 4438SOL    HW114012   1.120   3.193   2.228 -0.6693 -1.2847 -0.6396
 4438SOL    HW214013   1.172   3.055   2.262  0.0804 -0.4434  1.8542
 4439SOL     OW14014   2.915   3.320   0.381  0.0818  0.0730 -0.1421
 4439SOL    HW114015   2.885   3.230   0.380  0.9432 -0.2514  1.0537
 4439SOL    HW214016   2.842   3.371   0.345 -0.3088 -1.1072 -1.0650
 4440SOL     OW14017   5.197   2.934   0.456  0.0604  0.2512 -0.8516
 4440SOL    HW114018   5.245   3.017   0.462 -0.5770  0.5787  0.0745
 4440SOL    HW214019   5.251   2.872   0.505 -1.5781  1.2145  2.5351
 4441SOL     OW14020   0.096   2.013   1.434  0.8406  0.4997 -0.3278
 4441SOL    HW114021   0.065   2.049   1.517  2.7824 -0.4865  0.9108
 4441SOL    HW214022   0.041   2.054   1.368  0.0758  2.3110  1.3309
 4442SOL     OW14023   4.490   4.542   4.135 -0.5601 -0.3985  0.2040
 4442SOL    HW114024   4.447   4.595   4.067 -0.0432 -0.9259 -0.5409
 4442SOL    HW214025   4.582   4.569   4.132 -0.9926  2.0225  2.9760
 4443SOL     OW14026   5.096   1.765   2.165 -0.3366 -0.0864 -0.0672
 4443SOL    HW114027   5.155   1.705   2.120  1.6890  1.0766  0.8650
 4443SOL    HW214028   5.013   1.759   2.117  1.1524 -0.1963 -2.8413
 4444SOL     OW14029   2.480   5.201   1.734 -0.3172 -0.9430  0.1765
 4444SOL    HW114030   2.519   5.273   1.784  0.0209  0.4979 -2.0347
 4444SOL    HW214031   2.532   5.125   1.759  0.1931 -0.1713  1.5909
 4445SOL     OW14032   3.037   5.153   4.436  0.1986 -0.1063  0.5074
 4445SOL    HW114033   3.040   5.249   4.426  1.8195 -0.1927 -0.0863
 4445SOL    HW214034   2.954   5.128   4.395 -0.8718  1.1534  1.8370
 4446SOL     OW14035   1.841   0.977   0.744  0.4442 -0.0015  0.4730
 4446SOL    HW114036   1.804   1.040   0.681  1.7425 -0.0289 -0.3536
 4446SOL    HW214037   1.864   1.031   0.820 -1.4553 -0.0185  1.1308
 4447SOL     OW14038   4.025   2.039   3.159  0.1564 -0.2278 -0.0173
 4447SOL    HW114039   4.032   1.980   3.235  0.4743 -0.5058 -0.2567
 4447SOL    HW214040   3.965   2.108   3.187  1.5487  0.5912  1.0772
 4448SOL     OW14041   1.781   4.958   0.404 -0.5757 -0.2641 -0.1657
 4448SOL    HW114042   1.744   4.918   0.482 -0.0645  0.3663  0.4082
 4448SOL    HW214043   1.875   4.944   0.412 -0.2616  1.9857  0.6097
 4449SOL     OW14044   3.247   2.739   1.577 -0.1210 -0.1320 -0.1471
 4449SOL    HW114045   3.159   2.761   1.606  0.4427  0.2138  1.4171
 4449SOL    HW214046   3.244   2.645   1.558 -0.0781 -0.8840  3.0538
 4450SOL     OW14047   0.372   1.978   1.469 -0.4399  0.3808  0.3063
 4450SOL    HW114048   0.389   1.916   1.398 -0.8801 -1.0733  1.4230
 4450SOL    HW214049   0.277   1.992   1.467 -0.3776  0.7990  0.2351
 4451SOL     OW14050   5.091   3.970   4.753 -0.2394  0.4133  0.4262
 4451SOL    HW114051   5.169   3.919   4.730 -0.2829 -0.0959  1.3644
 4451SOL    HW214052   5.126   4.053   4.786 -0.0665  0.0824  1.1025
 4452SOL     OW14053   4.010   4.080   0.205 -0.3441 -0.1452  0.2281
 4452SOL    HW114054   4.050   4.102   0.290 -0.9236  1.8597  0.0296
 4452SOL    HW214055   3.916   4.080   0.222 -0.4993  1.0893 -0.5866
 4453SOL     OW14056   1.022   0.690   1.158  0.1032 -0.5719 -1.0866
 4453SOL    HW114057   1.097   0.677   1.100  0.0778  0.5066 -1.3870
 4453SOL    HW214058   0.965   0.750   1.111 -1.0049 -1.4277 -0.8957
 4454SOL     OW14059   1.043   0.933   3.789 -0.1273 -0.0055  0.0948
 4454SOL    HW114060   1.080   1.008   3.836 -0.7196  0.5519 -0.3115
 4454SOL    HW214061   0.958   0.964   3.758 -0.2675 -0.7677 -0.3054
 4455SOL     OW14062   3.601   4.193   3.835  0.3935  0.6650 -0.1025
 4455SOL    HW114063   3.653   4.245   3.774  0.2563  0.5830 -0.2912
 4455SOL    HW214064   3.590   4.250   3.912  1.5474  0.3322  0.3237
 4456SOL     OW14065   1.021   4.214   4.971  0.1170  0.2719  0.4304
 4456SOL    HW114066   0.959   4.198   4.899  0.0304 -1.2403  0.8278
 4456SOL    HW214067   1.086   4.273   4.932 -0.1017 -0.2554 -0.8002
 4457SOL     OW14068   2.669   2.088   1.621  0.1917 -0.2730 -0.1456
 4457SOL    HW114069   2.586   2.131   1.640  1.0319  1.1410  0.4856
 4457SOL    HW214070   2.736   2.147   1.657  1.4243 -1.9424  0.4133
 4458SOL     OW14071   0.674   3.530   3.444 -0.2730  0.1306 -0.1366
 4458SOL    HW114072   0.739   3.597   3.425 -0.3905  0.2773 -0.0193
 4458SOL    HW214073   0.687   3.464   3.376  0.1609  0.0446  0.0272
 4459SOL     OW14074   4.483   0.619   0.724  0.6755 -0.1295  0.0593
 4459SOL    HW114075   4.393   0.639   0.749  1.8240  2.0916  3.0361
 4459SOL    HW214076   4.527   0.704   0.723  3.0249 -1.2628  0.0430
 4460SOL     OW14077   5.370   2.994   5.296  0.1141  0.1338 -0.2289
 4460SOL    HW114078   5.296   3.038   5.338 -0.8180 -1.3037 -0.2954
 4460SOL    HW214079   5.364   2.903   5.325  1.8667 -0.0293 -0.2526
 4461SOL     OW14080   4.823   2.753   4.910 -0.5716  0.3724  0.1321
 4461SOL    HW114081   4.888   2.731   4.843  0.8162 -1.0074  1.8345
 4461SOL    HW214082   4.823   2.678   4.970 -3.9811  0.1541  0.0965
 4462SOL     OW14083   1.867   4.701   1.132  0.2048 -0.2931 -0.2711
 4462SOL    HW114084   1.864   4.795   1.150 -0.3906 -0.4892  0.7042
 4462SOL    HW214085   1.885   4.695   1.038  1.1798  0.7852 -0.1782
 4463SOL     OW14086   3.365   3.444   0.580 -0.4026  0.4787  0.4148
 4463SOL    HW114087   3.349   3.350   0.581  1.1269  0.0002 -3.1302
 4463SOL    HW214088   3.286   3.483   0.542  0.4788 -0.0212 -2.1842
 4464SOL     OW14089   0.406   5.219   4.944  0.0055 -0.2003 -0.0742
 4464SOL    HW114090   0.315   5.228   4.972  0.0069 -0.8907  0.1847
 4464SOL    HW214091   0.430   5.305   4.910 -0.6370  0.0819  0.1748
 4465SOL     OW14092   0.190   2.535   2.713 -0.2348 -0.1729  0.1028
 4465SOL    HW114093   0.154   2.466   2.657 -1.1677 -0.8333  1.4424
 4465SOL    HW214094   0.124   2.604   2.712 -1.3315 -1.1041  2.0352
 4466SOL     OW14095   0.548   1.630   2.556 -0.1405  0.3557  0.0567
 4466SOL    HW114096   0.524   1.720   2.579 -1.8941  0.1267 -0.7323
 4466SOL    HW214097   0.551   1.585   2.640 -0.6887  0.8257  0.3356
 4467SOL     OW14098   2.255   4.807   2.782 -0.4467 -0.2057 -0.6706
 4467SOL    HW114099   2.337   4.786   2.737 -0.0789  0.0186 -0.1148
 4467SOL    HW214100   2.207   4.725   2.786  0.0605 -0.4887 -0.3761
 4468SOL     OW14101   4.164   2.781   4.449  0.5169  0.3214  0.7301
 4468SOL    HW114102   4.255   2.758   4.468  0.8714  0.2377 -0.8931
 4468SOL    HW214103   4.112   2.726   4.508  1.4721 -1.2463  0.1775
 4469SOL     OW14104   4.852   4.693   4.861 -0.1789 -0.6431  0.2275
 4469SOL    HW114105   4.877   4.632   4.931  3.3342 -1.0853 -1.2078
 4469SOL    HW214106   4.924   4.756   4.857 -1.1314  0.4048 -1.8430
 4470SOL     OW14107   1.082   2.499   2.969  0.8216  0.5880  0.3246
 4470SOL    HW114108   1.010   2.476   2.911  2.2379  1.7804 -2.0966
 4470SOL    HW214109   1.045   2.561   3.032 -0.4089  0.6500 -0.4387
 4471SOL     OW14110   1.751   3.621   4.545 -0.0267 -0.1469 -0.4527
 4471SOL    HW114111   1.685   3.673   4.500 -0.2742  0.5046  0.6211
 4471SOL    HW214112   1.717   3.609   4.633  1.0025 -0.3223 -0.0553
 4472SOL     OW14113   3.626   0.945   1.474 -0.0486  0.4763  0.1119
 4472SOL    HW114114   3.591   0.951   1.563 -1.2371  2.5607 -0.4367
 4472SOL    HW214115   3.720   0.934   1.486 -0.1868  0.7397  1.6415
 4473SOL     OW14116   1.909   3.517   5.231 -0.0300  0.6406 -0.0242
 4473SOL    HW114117   1.907   3.461   5.308 -0.0007 -0.2213 -0.6323
 4473SOL    HW214118   1.914   3.606   5.266 -1.6347  0.3689  0.9839
 4474SOL     OW14119   1.690   2.227   4.057  0.2658 -0.1263 -0.0784
 4474SOL    HW114120   1.738   2.298   4.014  0.6460  0.6787  1.5802
 4474SOL    HW214121   1.757   2.174   4.099 -0.1663  0.1029  0.9435
 4475SOL     OW14122   2.661   1.859   0.717  0.0621  0.2910 -0.2205
 4475SOL    HW114123   2.585   1.821   0.672 -0.5195  1.0471  0.1100
 4475SOL    HW214124   2.700   1.785   0.764 -0.2908 -0.1678 -0.6338
 4476SOL     OW14125   5.252   3.436   3.110 -0.0222 -0.0598 -0.7529
 4476SOL    HW114126   5.258   3.531   3.121 -0.6198 -0.1226  0.2714
 4476SOL    HW214127   5.330   3.412   3.061  0.5818  0.8554 -0.2570
 4477SOL     OW14128   4.595   2.850   1.249  0.3141 -0.4561  0.3545
 4477SOL    HW114129   4.631   2.938   1.261 -0.7914 -0.2777  2.9232
 4477SOL    HW214130   4.655   2.793   1.297  0.4232 -0.9894 -0.3933
 4478SOL     OW14131   1.051   4.622   5.128  0.0904 -0.1974  0.0638
 4478SOL    HW114132   1.015   4.653   5.045  0.6238 -1.1967 -0.5616
 4478SOL    HW214133   1.143   4.607   5.110  0.2137 -0.4400  0.8450
 4479SOL     OW14134   3.090   1.463   0.725 -0.0221  0.4048 -0.1182
 4479SOL    HW114135   3.140   1.517   0.787  0.0100 -0.6170  0.7804
 4479SOL    HW214136   3.013   1.436   0.774  0.5414 -1.3318 -0.1108
 4480SOL     OW14137   3.989   5.023   1.651  0.0986  0.3522 -0.3023
 4480SOL    HW114138   4.012   4.976   1.571  0.0763  0.6162 -0.4637
 4480SOL    HW214139   3.899   5.052   1.636  0.3631  1.0959 -0.5146
 4481SOL     OW14140   2.020   2.353   2.364 -0.0933 -0.7064  0.0719
 4481SOL    HW114141   2.006   2.280   2.423 -2.6579  0.2628  0.7995
 4481SOL    HW214142   2.056   2.423   2.419  4.4347 -1.8542 -0.9971
 4482SOL     OW14143   4.063   3.746   2.153 -0.0761 -0.2059 -0.1733
 4482SOL    HW114144   3.999   3.758   2.083 -0.3983  0.2580  0.1972
 4482SOL    HW214145   4.110   3.666   2.129 -1.3184 -0.9955 -0.0518
 4483SOL     OW14146   5.150   1.542   1.394 -0.0513  0.0632 -0.3385
 4483SOL    HW114147   5.078   1.482   1.413 -0.7531  0.9839 -0.0074
 4483SOL    HW214148   5.159   1.596   1.473  1.7912 -0.7780  0.0901
 4484SOL     OW14149   0.719   3.703   3.806 -0.2226  0.1207  0.4570
 4484SOL    HW114150   0.763   3.674   3.886  0.8938 -0.0184 -0.1864
 4484SOL    HW214151   0.790   3.718   3.744 -1.1447 -1.3145 -1.0319
 4485SOL     OW14152   0.665   3.967   0.647  0.3400 -0.0678 -0.5804
 4485SOL    HW114153   0.593   3.966   0.585 -0.1564 -0.9740 -0.0140
 4485SOL    HW214154   0.732   3.911   0.607 -0.0461 -0.7884 -0.2412
 4486SOL     OW14155   3.162   1.619   0.382 -0.3333 -0.2218  0.1880
 4486SOL    HW114156   3.214   1.686   0.426 -0.9665  0.2639  0.2223
 4486SOL    HW214157   3.082   1.665   0.356 -0.6771 -0.9131  0.0090
 4487SOL     OW14158   2.666   0.688   1.687 -0.2041  0.2456 -0.0913
 4487SOL    HW114159   2.744   0.743   1.696 -0.4824  0.2415  3.7620
 4487SOL    HW214160   2.594   0.741   1.719 -0.8895 -1.3997  1.2909
 4488SOL     OW14161   5.155   3.430   3.672  0.1690 -0.0179  0.2062
 4488SOL    HW114162   5.108   3.493   3.618 -0.4151 -0.6960 -0.0942
 4488SOL    HW214163   5.091   3.401   3.737  0.2645 -0.6742  0.0217
 4489SOL     OW14164   1.001   4.704   3.463  0.1007  0.5539  0.0181
 4489SOL    HW114165   1.085   4.741   3.488  0.0447  0.7027 -0.0131
 4489SOL    HW214166   1.013   4.609   3.471 -0.2337  0.6295  1.5810
 4490SOL     OW14167   3.930   0.066   3.162  0.1760 -0.2595  0.2025
 4490SOL    HW114168   3.917   0.045   3.254  1.9333  0.2986  0.6337
 4490SOL    HW214169   3.844   0.056   3.122 -0.6710 -0.3150  1.9388
 4491SOL     OW14170   0.254   2.550   4.458  0.4037  0.0383 -0.2430
 4491SOL    HW114171   0.213   2.625   4.503 -2.4011  0.3795 -3.0065
 4491SOL    HW214172   0.315   2.590   4.397  0.5264 -0.0822 -0.1988
 4492SOL     OW14173   1.163   0.014   1.373  0.4030 -0.1462  0.1055
 4492SOL    HW114174   1.197  -0.071   1.402  1.1562 -0.7689 -2.3009
 4492SOL    HW214175   1.230   0.047   1.313 -0.1660  1.8910  0.5404
 4493SOL     OW14176   4.935   3.873   2.107  0.3310  0.1716 -0.0395
 4493SOL    HW114177   4.934   3.910   2.019 -1.9113  1.7183  0.5475
 4493SOL    HW214178   5.007   3.810   2.105 -0.1403 -0.4681 -3.2054
 4494SOL     OW14179   3.236   3.210   1.735  0.2085 -0.0040  0.3217
 4494SOL    HW114180   3.208   3.162   1.658  0.7617  0.6923 -0.3320
 4494SOL    HW214181   3.168   3.193   1.801 -1.2796  0.9405 -0.9170
 4495SOL     OW14182   3.343   5.198   4.472  0.5249  0.0750 -0.1660
 4495SOL    HW114183   3.381   5.170   4.389  1.5990  3.1180 -0.8250
 4495SOL    HW214184   3.291   5.275   4.450  1.4246  1.4016  2.0244
 4496SOL     OW14185   5.316   0.587   0.316  0.0224 -0.1705  0.7011
 4496SOL    HW114186   5.276   0.594   0.229  0.4521 -1.9444  0.3270
 4496SOL    HW214187   5.410   0.601   0.300 -0.0310  0.6407  1.0661
 4497SOL     OW14188   4.037   3.926   2.955  0.6076 -0.3033  0.4338
 4497SOL    HW114189   4.007   4.014   2.933 -1.2417 -0.9635  0.1124
 4497SOL    HW214190   4.094   3.938   3.031  0.2528  1.1378  0.4951
 4498SOL     OW14191   4.225   4.562   0.931 -0.0795  0.7779 -0.2803
 4498SOL    HW114192   4.170   4.512   0.992 -0.3006  1.5725  0.1869
 4498SOL    HW214193   4.309   4.517   0.934 -0.4793 -0.0067 -0.4295
 4499SOL     OW14194   1.546   4.682   4.062  0.5509 -0.3772  0.3497
 4499SOL    HW114195   1.604   4.616   4.022  0.3350  0.2820 -1.1260
 4499SOL    HW214196   1.586   4.766   4.038 -0.6814  0.0691 -0.2024
 4500SOL     OW14197   0.760   1.498   4.577 -0.1561 -0.1634  0.0828
 4500SOL    HW114198   0.854   1.488   4.595 -0.3280 -1.3957  0.3522
 4500SOL    HW214199   0.720   1.420   4.615 -1.2323  0.0890 -0.5125
 4501SOL     OW14200   0.971   4.868   4.097  0.1842  0.1061  0.0917
 4501SOL    HW114201   0.965   4.962   4.079 -0.2168  0.0396 -0.1163
 4501SOL    HW214202   1.053   4.859   4.146  0.4451  0.5084 -0.2564
 4502SOL     OW14203   3.402   1.148   1.084  0.0691 -0.2793 -0.2410
 4502SOL    HW114204   3.470   1.216   1.083 -1.2060  1.1633  2.0222
 4502SOL    HW214205   3.449   1.069   1.111  0.8615  0.7985  1.8460
 4503SOL     OW14206   2.222   1.711   1.999 -0.1656 -0.5727  0.2899
 4503SOL    HW114207   2.127   1.708   1.991 -0.0215 -0.8797 -2.1421
 4503SOL    HW214208   2.249   1.776   1.933  1.2758 -0.0183  1.3833
 4504SOL     OW14209   3.340   5.395   0.948 -0.4980 -0.3378  0.3287
 4504SOL    HW114210   3.255   5.412   0.907 -0.6293  0.9578  1.0839
 4504SOL    HW214211   3.319   5.354   1.032 -0.2470 -2.5567 -0.6408
 4505SOL     OW14212   1.089   2.579   0.827  0.0025 -0.4326 -0.0765
 4505SOL    HW114213   1.043   2.507   0.870  0.2803  0.3923  1.6972
 4505SOL    HW214214   1.136   2.537   0.754 -1.0880 -1.7663 -0.0555
 4506SOL     OW14215   1.957   1.893   1.447 -0.1108 -0.1569  0.1639
 4506SOL    HW114216   2.014   1.838   1.394  0.4545 -0.3920  0.9909
 4506SOL    HW214217   1.934   1.966   1.390 -1.1832 -1.4185 -1.0973
 4507SOL     OW14218   3.345   4.108   3.729  0.0133  0.1011  0.5587
 4507SOL    HW114219   3.419   4.065   3.772 -0.2471 -1.1905 -0.2197
 4507SOL    HW214220   3.279   4.039   3.720 -1.0409  1.0635  0.6503
 4508SOL     OW14221   5.116   5.203   5.015 -0.2894 -0.1288 -0.1761
 4508SOL    HW114222   5.199   5.251   5.019  0.7667 -1.9519  1.0489
 4508SOL    HW214223   5.061   5.243   5.082  0.0613  0.2418 -0.1105
 4509SOL     OW14224   1.203   2.047   5.266 -0.0269  0.1845 -0.3187
 4509SOL    HW114225   1.210   2.136   5.231  1.0146 -0.6248 -2.2548
 4509SOL    HW214226   1.270   2.043   5.334  0.5721  0.5983 -0.8695
 4510SOL     OW14227   0.964   4.840   1.117 -0.3129 -0.6372  0.1510
 4510SOL    HW114228   0.996   4.895   1.045 -0.6475  0.2481  0.6626
 4510SOL    HW214229   1.021   4.763   1.116  1.6068  0.7051  0.7759
 4511SOL     OW14230   3.974   1.029   2.213 -0.3789  0.1856 -0.3179
 4511SOL    HW114231   3.933   1.094   2.270  0.6225 -0.6101  1.3878
 4511SOL    HW214232   3.912   0.956   2.211  0.5334 -0.7471  1.7361
 4512SOL     OW14233   2.327   3.651   4.576 -0.1978 -0.4482 -0.4366
 4512SOL    HW114234   2.243   3.674   4.536  0.6889 -1.7361 -3.3034
 4512SOL    HW214235   2.304   3.596   4.650 -1.9478  1.9351  0.9249
 4513SOL     OW14236   0.118   0.468   2.063 -0.3357  0.2024 -0.2076
 4513SOL    HW114237   0.171   0.419   2.126 -1.6738 -0.4974  0.4069
 4513SOL    HW214238   0.180   0.527   2.020  1.3869 -2.1088 -1.0907
 4514SOL     OW14239   3.369   0.719   1.050 -0.2326 -0.0884 -0.2834
 4514SOL    HW114240   3.318   0.683   1.122  0.3769 -0.1256  0.1402
 4514SOL    HW214241   3.434   0.776   1.092 -0.1110  0.1895 -0.8295
 4515SOL     OW14242   4.179   2.456   2.798 -0.7360  0.5394 -0.2765
 4515SOL    HW114243   4.113   2.420   2.739 -0.4627 -0.5813  0.0698
 4515SOL    HW214244   4.152   2.546   2.812 -1.0216  0.7203 -1.8052
 4516SOL     OW14245   3.657   3.203   2.807  0.0578 -0.2785 -0.1251
 4516SOL    HW114246   3.632   3.169   2.893  0.4757  1.5761  0.7647
 4516SOL    HW214247   3.587   3.263   2.783  1.3646  1.5224  0.3401
 4517SOL     OW14248   5.332   1.587   1.010 -0.3845 -0.5808 -0.4349
 4517SOL    HW114249   5.410   1.533   0.998  0.4648 -0.6914  3.8295
 4517SOL    HW214250   5.321   1.633   0.927  2.5802 -2.6018 -2.1263
 4518SOL     OW14251   2.188   0.494   1.324  0.2541  0.5228 -0.1940
 4518SOL    HW114252   2.210   0.531   1.239 -0.9304  0.3822 -0.5699
 4518SOL    HW214253   2.117   0.432   1.306  0.5024 -0.0751  0.7877
 4519SOL     OW14254   1.093   1.670   3.402 -0.0443 -0.2343  0.4497
 4519SOL    HW114255   1.184   1.642   3.390 -0.6401 -1.6802 -1.0297
 4519SOL    HW214256   1.074   1.651   3.494  0.8908 -0.7110  0.5569
 4520SOL     OW14257   5.038   0.906   0.006 -0.0107 -0.4067  0.1413
 4520SOL    HW114258   5.007   0.876   0.091  0.4989 -0.6529  0.2447
 4520SOL    HW214259   5.043   1.001   0.014 -0.3777 -0.3950  0.2426
 4521SOL     OW14260   5.214   2.537   3.748  0.5917  0.3056  0.7881
 4521SOL    HW114261   5.132   2.563   3.789  0.5149 -0.1463  0.9292
 4521SOL    HW214262   5.191   2.458   3.699  0.6878  0.8104 -0.0925
 4522SOL     OW14263   5.241   0.199   3.712  0.4638  0.2594  0.0022
 4522SOL    HW114264   5.272   0.262   3.647  1.6007  0.3473  0.6031
 4522SOL    HW214265   5.285   0.117   3.688  1.6507  0.5160  1.1873
 4523SOL     OW14266   1.882   4.372   3.372 -0.7490 -0.4736 -0.0675
 4523SOL    HW114267   1.849   4.427   3.301 -0.4658 -1.3888 -0.9369
 4523SOL    HW214268   1.846   4.411   3.451 -0.3978  1.0846 -0.6263
 4524SOL     OW14269   1.224   1.517   0.793 -0.2565 -0.1718 -0.7396
 4524SOL    HW114270   1.150   1.537   0.737  0.3757  1.5059 -1.0354
 4524SOL    HW214271   1.298   1.508   0.734  0.9741  4.2093 -0.2107
 4525SOL     OW14272   2.225   4.214   5.179  0.0746 -0.3938  0.3637
 4525SOL    HW114273   2.236   4.139   5.121 -1.5805 -0.4816  0.1408
 4525SOL    HW214274   2.134   4.211   5.207  0.3354  0.7582  1.4452
 4526SOL     OW14275   4.107   1.028   0.189 -0.2281  0.1716  0.1383
 4526SOL    HW114276   4.050   0.966   0.235  0.0135 -0.1664 -0.0128
 4526SOL    HW214277   4.178   1.046   0.251 -0.5976  0.7449  0.4023
 4527SOL     OW14278   2.894   4.167   0.737  0.0092  0.4703  0.5979
 4527SOL    HW114279   2.890   4.253   0.777  1.8052  1.9155 -2.0159
 4527SOL    HW214280   2.921   4.108   0.808 -0.2292  2.2244  2.2113
 4528SOL     OW14281   3.161   2.016   1.451 -0.3196  0.8904  0.0767
 4528SOL    HW114282   3.066   2.004   1.444 -0.1535 -1.2557  0.7611
 4528SOL    HW214283   3.171   2.096   1.503 -1.8511 -0.2265  2.2774
 4529SOL     OW14284   4.902   1.995   2.821 -0.5181  0.4926  0.4385
 4529SOL    HW114285   4.836   1.943   2.865 -0.2462  1.5243  2.1466
 4529SOL    HW214286   4.863   2.017   2.736 -0.6969 -2.2876 -0.3139
 4530SOL     OW14287   2.337   4.770   3.367 -0.2296  0.1823  0.1004
 4530SOL    HW114288   2.379   4.684   3.365 -1.3376 -0.3709 -0.6020
 4530SOL    HW214289   2.407   4.831   3.342 -0.2135 -0.9204 -3.0498
 4531SOL     OW14290   0.260   1.432   3.809  0.0193 -0.7608 -0.2037
 4531SOL    HW114291   0.332   1.462   3.865  0.4088 -0.8813 -0.6298
 4531SOL    HW214292   0.225   1.512   3.770  1.4623 -0.8682 -1.8250
 4532SOL     OW14293   1.602   2.354   0.128  0.1441 -0.4863 -0.2410
 4532SOL    HW114294   1.624   2.428   0.185  0.7355 -0.9218  0.0993
 4532SOL    HW214295   1.524   2.384   0.079 -0.3182 -0.0802  0.7200
 4533SOL     OW14296   5.171   1.557   0.458 -0.4137 -0.0090 -0.3449
 4533SOL    HW114297   5.192   1.649   0.470 -1.6230  0.1664  0.6966
 4533SOL    HW214298   5.255   1.515   0.442  0.4481  0.9450  1.3956
 4534SOL     OW14299   0.488   0.803   1.748 -0.1782  0.0831  0.5102
 4534SOL    HW114300   0.503   0.879   1.804  1.9098 -0.2541  0.4917
 4534SOL    HW214301   0.441   0.838   1.672  0.6205  1.3308  0.5660
 4535SOL     OW14302   3.401   2.354   2.520 -0.0284  0.0834 -0.4901
 4535SOL    HW114303   3.380   2.272   2.475 -0.5342 -0.2124  0.2667
 4535SOL    HW214304   3.436   2.411   2.451  1.1788 -1.0668 -0.8638
 4536SOL     OW14305   4.846   4.661   3.835 -0.4575  0.2250 -0.2896
 4536SOL    HW114306   4.827   4.657   3.741  0.9743 -1.5108 -0.5543
 4536SOL    HW214307   4.922   4.718   3.842 -2.1187  2.4918  0.1500
 4537SOL     OW14308   2.679   3.255   5.088 -0.1969 -0.0599  0.0891
 4537SOL    HW114309   2.589   3.289   5.078 -0.1632 -0.2540 -1.0633
 4537SOL    HW214310   2.734   3.326   5.054  0.0147 -0.3684 -0.2131
 4538SOL     OW14311   0.977   3.326   4.120 -0.8491  0.4484 -0.4501
 4538SOL    HW114312   0.884   3.329   4.142 -0.4115 -2.3429  2.5550
 4538SOL    HW214313   1.018   3.386   4.182 -0.4293 -0.7276  0.4589
 4539SOL     OW14314   2.298   5.030   5.224 -0.1849 -0.2484 -0.1975
 4539SOL    HW114315   2.286   4.935   5.236  2.5736 -0.8124 -1.1168
 4539SOL    HW214316   2.385   5.048   5.258 -0.5255  1.9235 -0.3401
 4540SOL     OW14317   3.853   1.749   4.503  0.1908 -0.1398  0.7136
 4540SOL    HW114318   3.888   1.673   4.459 -1.7256 -0.9307  0.4480
 4540SOL    HW214319   3.826   1.717   4.590  2.4213  1.0255  1.9125
 4541SOL     OW14320   4.572   3.107   4.486 -0.7439  0.4673 -0.3191
 4541SOL    HW114321   4.547   3.024   4.526 -1.1459 -0.3461 -2.1568
 4541SOL    HW214322   4.490   3.156   4.479 -0.7452  0.4422 -0.4903
 4542SOL     OW14323   0.119   2.935   2.925  0.2500  0.1168 -0.2140
 4542SOL    HW114324   0.215   2.937   2.918  0.3868  1.9985  1.3562
 4542SOL    HW214325   0.090   3.005   2.867  0.0594  1.3597  1.3020
 4543SOL     OW14326   1.316   1.510   2.491 -0.4250 -0.1833  0.6649
 4543SOL    HW114327   1.270   1.575   2.438 -1.8404 -1.1633  0.6201
 4543SOL    HW214328   1.389   1.558   2.531  0.8820  0.5539 -2.3162
 4544SOL     OW14329   5.032   0.708   1.973  0.4375  0.2417  0.2257
 4544SOL    HW114330   5.036   0.613   1.979 -0.1658  0.3104  2.3380
 4544SOL    HW214331   5.036   0.726   1.879  0.6909 -1.8433 -0.2097
 4545SOL     OW14332   1.985   2.503   3.474  0.3045 -0.4135 -0.9485
 4545SOL    HW114333   1.923   2.433   3.453  0.5029 -0.8779  0.0118
 4545SOL    HW214334   2.012   2.536   3.388 -2.4029  0.8270 -1.4478
 4546SOL     OW14335   1.571   0.066   5.219 -0.5305  0.4458  0.8176
 4546SOL    HW114336   1.601   0.005   5.287 -1.1394 -0.1658  0.5518
 4546SOL    HW214337   1.646   0.075   5.160  0.4683  1.9975  2.2327
 4547SOL     OW14338   1.120   4.820   1.680 -0.3760  0.3158  0.2597
 4547SOL    HW114339   1.167   4.819   1.596 -3.6725 -1.2658 -1.7688
 4547SOL    HW214340   1.037   4.862   1.660 -1.0394  0.4739  2.9571
 4548SOL     OW14341   4.771   0.671   3.877 -0.1306 -0.1190 -0.7547
 4548SOL    HW114342   4.764   0.742   3.941 -1.8875 -1.5854  0.7962
 4548SOL    HW214343   4.820   0.710   3.804  1.9780  1.6495  1.4105
 4549SOL     OW14344   1.989   0.987   0.010 -0.0693  0.8744  0.6406
 4549SOL    HW114345   1.970   1.075  -0.023 -0.2344  0.9746  1.0003
 4549SOL    HW214346   1.924   0.973   0.079 -3.4965 -1.4551 -2.5973
 4550SOL     OW14347   5.194   1.280   1.183 -0.0505 -0.4774 -0.2643
 4550SOL    HW114348   5.172   1.195   1.222 -0.2218  0.1511  1.0529
 4550SOL    HW214349   5.181   1.343   1.253  0.6852  0.5778 -1.0421
 4551SOL     OW14350   0.778   3.827   5.166  0.0320 -0.3521  0.1830
 4551SOL    HW114351   0.843   3.889   5.200 -0.2546 -0.1601  0.3944
 4551SOL    HW214352   0.711   3.825   5.235 -0.6972  0.2480 -0.4948
 4552SOL     OW14353   0.741   0.642   3.664 -0.6228 -0.6389 -0.5810
 4552SOL    HW114354   0.650   0.658   3.686 -0.3535  0.6201 -0.2922
 4552SOL    HW214355   0.748   0.666   3.572 -1.0315 -2.7924 -1.2188
 4553SOL     OW14356   2.559   0.066   3.184 -0.1111 -0.2664 -0.0538
 4553SOL    HW114357   2.509   0.002   3.234  1.4592 -0.0587  1.9236
 4553SOL    HW214358   2.631   0.015   3.145 -1.5768 -0.5251 -2.6741
 4554SOL     OW14359   3.796   2.845   4.039  0.2409 -0.3634  0.6159
 4554SOL    HW114360   3.888   2.820   4.033  0.2795 -0.5175  1.6658
 4554SOL    HW214361   3.754   2.771   4.082 -0.6917 -0.9993 -1.2598
 4555SOL     OW14362   0.073   3.073   3.747 -0.8383 -0.4749 -0.5573
 4555SOL    HW114363   0.145   3.019   3.715  0.4946 -0.2499  1.8359
 4555SOL    HW214364   0.116   3.148   3.787 -2.2778 -0.9177  2.0262
 4556SOL     OW14365   4.595   5.380   1.678 -0.5128 -0.2118 -0.6661
 4556SOL    HW114366   4.517   5.359   1.729 -1.4278  0.6890 -1.6538
 4556SOL    HW214367   4.615   5.298   1.631  0.6576 -1.2230  1.4486
 4557SOL     OW14368   1.638   3.157   3.864 -0.3747  0.4442  0.1038
 4557SOL    HW114369   1.702   3.224   3.889 -0.4173  0.7340 -0.5342
 4557SOL    HW214370   1.678   3.074   3.893  0.1881  0.6442 -0.0749
 4558SOL     OW14371   3.763   0.571   1.880  0.2283  0.4754  0.0766
 4558SOL    HW114372   3.804   0.649   1.917  1.2750  0.6514 -1.3753
 4558SOL    HW214373   3.682   0.603   1.840  0.0707  0.6108  0.4983
 4559SOL     OW14374   3.560   2.019   2.517  0.3606 -0.7572 -0.7052
 4559SOL    HW114375   3.609   1.937   2.519  0.6755 -0.5685 -0.3302
 4559SOL    HW214376   3.628   2.087   2.511  0.0789 -0.5472 -1.6985
 4560SOL     OW14377   4.617   2.927   0.372  0.3250 -0.0468  0.0092
 4560SOL    HW114378   4.522   2.926   0.368  0.2939  0.1610  0.6646
 4560SOL    HW214379   4.642   2.836   0.357 -0.0040 -0.2205  0.5069
 4561SOL     OW14380   0.300   4.264   1.795 -0.2066  0.5265 -0.4119
 4561SOL    HW114381   0.262   4.245   1.709 -1.5671 -1.6505  0.6089
 4561SOL    HW214382   0.230   4.307   1.844 -0.5730 -1.1711  0.6316
 4562SOL     OW14383   4.217   1.586   0.601  0.6432  0.1597 -0.2605
 4562SOL    HW114384   4.267   1.537   0.536 -0.1419 -0.5457 -0.3490
 4562SOL    HW214385   4.282   1.618   0.663  1.1831 -0.8487 -0.2967
 4563SOL     OW14386   4.717   0.174   5.239 -0.3577  0.4607  0.2776
 4563SOL    HW114387   4.705   0.269   5.244 -0.6693  0.4134  0.4378
 4563SOL    HW214388   4.763   0.152   5.320  0.3075  0.5629 -0.0673
 4564SOL     OW14389   1.631   3.433   0.250 -0.3543 -0.0912  0.0743
 4564SOL    HW114390   1.583   3.351   0.262  0.5457 -0.9180 -1.5639
 4564SOL    HW214391   1.564   3.496   0.224 -0.7924 -0.8466 -0.7039
 4565SOL     OW14392   0.168   2.480   2.075  0.0548  0.4397  0.1792
 4565SOL    HW114393   0.241   2.424   2.101  1.5797  1.4711 -1.5902
 4565SOL    HW214394   0.205   2.536   2.006 -2.7376  0.1109 -1.7625
 4566SOL     OW14395   1.168   5.203   4.500 -0.1292 -0.1228 -0.3548
 4566SOL    HW114396   1.138   5.262   4.431 -0.2205  0.9698  0.5971
 4566SOL    HW214397   1.126   5.119   4.479 -1.7494  0.6942 -0.5349
 4567SOL     OW14398   1.471   1.151   3.974 -0.0601  0.1134  0.4760
 4567SOL    HW114399   1.462   1.128   4.066 -0.1299 -0.7910  0.2499
 4567SOL    HW214400   1.387   1.190   3.950 -0.2521 -0.1954  0.6424
 4568SOL     OW14401   5.358   1.345   0.040  0.3028 -1.1469 -0.3942
 4568SOL    HW114402   5.392   1.421   0.087 -1.0674 -1.3162  0.9896
 4568SOL    HW214403   5.427   1.279   0.048  1.6448  0.0130 -1.8973
 4569SOL     OW14404   0.459   0.586   2.061 -0.1532 -0.5747 -0.0705
 4569SOL    HW114405   0.431   0.677   2.055  1.4533 -0.1109 -1.6150
 4569SOL    HW214406   0.422   0.554   2.143 -1.8608  1.0541 -0.1454
 4570SOL     OW14407   3.379   4.619   2.601  0.5947 -0.0152  0.3158
 4570SOL    HW114408   3.461   4.594   2.643  0.9345 -0.0663 -0.3680
 4570SOL    HW214409   3.405   4.667   2.522  0.0514 -2.1063 -1.2345
 4571SOL     OW14410   2.490   0.697   2.720 -0.0488 -0.8697  0.1882
 4571SOL    HW114411   2.413   0.747   2.743 -0.9757 -0.9589 -2.3275
 4571SOL    HW214412   2.507   0.642   2.796 -0.9187  0.9424  1.7653
 4572SOL     OW14413   2.667   4.473   0.209  0.1248  0.4785  0.0393
 4572SOL    HW114414   2.660   4.381   0.235 -0.5782  0.2312 -0.9664
 4572SOL    HW214415   2.577   4.506   0.213  0.1586  0.7341 -0.9165
 4573SOL     OW14416   5.077   4.229   4.431  0.5245  0.3224  0.1419
 4573SOL    HW114417   5.092   4.323   4.420 -0.5044  0.4476 -0.3668
 4573SOL    HW214418   4.982   4.219   4.421  0.6009 -0.7522  0.3524
 4574SOL     OW14419   3.255   2.315   0.356  0.2176  0.1999  0.4904
 4574SOL    HW114420   3.210   2.242   0.312 -0.3740  1.4196 -1.0444
 4574SOL    HW214421   3.347   2.290   0.355 -0.0212 -0.7252  0.4028
 4575SOL     OW14422   0.555   1.289   3.755 -0.1932 -0.6394  0.7271
 4575SOL    HW114423   0.459   1.284   3.761 -0.1885 -0.0975  1.3640
 4575SOL    HW214424   0.584   1.199   3.768 -0.5517 -0.5819  2.2030
 4576SOL     OW14425   4.904   2.822   1.257 -0.2332 -0.0262 -0.4169
 4576SOL    HW114426   4.883   2.908   1.220 -0.1602  0.3957  0.4899
 4576SOL    HW214427   4.999   2.815   1.249 -0.2410 -0.0329 -0.5084
 4577SOL     OW14428   2.730   1.602   2.801  0.1550  0.0643  0.1200
 4577SOL    HW114429   2.819   1.594   2.836  0.1124  1.8083  0.7426
 4577SOL    HW214430   2.673   1.582   2.876  0.0570  1.5865  0.4804
 4578SOL     OW14431   0.996   3.057   0.672  0.2213  0.4339  0.2584
 4578SOL    HW114432   0.972   3.003   0.597 -0.8955  1.8736 -0.4589
 4578SOL    HW214433   1.070   3.108   0.642 -0.8299  1.7192 -0.2417
 4579SOL     OW14434   4.341   3.504   0.382  0.1378 -0.1451 -0.3961
 4579SOL    HW114435   4.360   3.573   0.446 -0.7189  0.5192 -0.8331
 4579SOL    HW214436   4.422   3.495   0.332  0.7095 -0.4399  0.5432
 4580SOL     OW14437   4.271   0.502   1.087  0.2684 -0.2840 -0.7039
 4580SOL    HW114438   4.275   0.500   1.182  1.1028 -0.3289 -0.7367
 4580SOL    HW214439   4.220   0.580   1.067  0.9560  0.2939 -0.2395
 4581SOL     OW14440   0.577   4.253   3.314 -0.2857  0.7067 -0.5566
 4581SOL    HW114441   0.545   4.338   3.344  0.4376  1.2654 -1.3345
 4581SOL    HW214442   0.628   4.220   3.389 -0.1249  1.2013 -0.4402
 4582SOL     OW14443   1.418   4.419   0.374 -0.0220 -0.0352  0.1285
 4582SOL    HW114444   1.427   4.384   0.285 -2.6306 -1.0809  0.1785
 4582SOL    HW214445   1.479   4.368   0.427 -0.2528 -1.1724 -0.6686
 4583SOL     OW14446   4.108   1.629   1.080 -0.0628  0.0761  0.3381
 4583SOL    HW114447   4.149   1.678   1.008 -0.7479  0.4389  0.1868
 4583SOL    HW214448   4.181   1.587   1.125  0.4225  0.2713 -0.2571
 4584SOL     OW14449   0.026   1.682   2.062 -0.6583  0.3326  0.1984
 4584SOL    HW114450   0.022   1.728   1.978 -1.0022  0.7145  0.4197
 4584SOL    HW214451   0.094   1.727   2.111  0.1471 -0.4380 -0.1914
 4585SOL     OW14452   5.356   0.719   0.715 -0.2428  0.0002  0.1614
 4585SOL    HW114453   5.366   0.790   0.778  2.0631 -0.1642  0.0558
 4585SOL    HW214454   5.388   0.641   0.761 -0.7931 -0.5829 -0.4218
 4586SOL     OW14455   3.687   0.041   2.362 -0.3277 -0.1664  0.1586
 4586SOL    HW114456   3.644   0.120   2.396  0.0279  0.6071 -1.0875
 4586SOL    HW214457   3.749   0.075   2.297  0.7068 -1.4015  0.4594
 4587SOL     OW14458   2.912   0.208   1.912 -0.0039 -0.2074  0.0716
 4587SOL    HW114459   2.892   0.196   2.005 -2.0781 -2.7905 -0.5919
 4587SOL    HW214460   2.874   0.294   1.891 -2.2750 -0.9059  1.0003
 4588SOL     OW14461   0.504   1.809   1.305  0.4376  0.3848 -0.2948
 4588SOL    HW114462   0.587   1.833   1.264  1.4491 -1.4874  0.5617
 4588SOL    HW214463   0.456   1.762   1.237  0.8946 -0.2067 -0.2098
 4589SOL     OW14464   5.018   2.489   2.319  0.1093 -0.3873  0.0424
 4589SOL    HW114465   5.017   2.394   2.321 -0.6710 -0.3891 -0.1785
 4589SOL    HW214466   5.101   2.513   2.359 -0.0941 -1.1419  0.9493
 4590SOL     OW14467   4.463   3.336   1.824 -0.1261  0.2168 -0.5248
 4590SOL    HW114468   4.504   3.423   1.826  0.1494  0.0841 -0.1309
 4590SOL    HW214469   4.523   3.283   1.771  0.6736 -0.1912  0.7381
 4591SOL     OW14470   1.103   4.640   0.659 -0.4960  0.7288  0.4760
 4591SOL    HW114471   1.159   4.706   0.701  2.0263 -1.1847  0.3352
 4591SOL    HW214472   1.025   4.689   0.633  1.0487  3.5702  0.7372
 4592SOL     OW14473   1.630   2.400   2.531 -0.1888 -0.5738 -0.1593
 4592SOL    HW114474   1.636   2.316   2.577 -1.4610 -1.1548 -0.9823
 4592SOL    HW214475   1.560   2.387   2.467  0.7402  0.5576 -1.4858
 4593SOL     OW14476   1.325   3.139   4.709 -0.1739  0.5516 -0.0722
 4593SOL    HW114477   1.254   3.103   4.656  0.2765  0.3163 -0.5253
 4593SOL    HW214478   1.296   3.227   4.732  0.7905  1.7636 -3.0752
 4594SOL     OW14479   0.017   4.858   3.366  0.2582  0.1086 -0.0019
 4594SOL    HW114480   0.039   4.923   3.434 -0.7115  0.9797 -0.4936
 4594SOL    HW214481   0.016   4.775   3.413 -0.6204  0.7141  1.1334
 4595SOL     OW14482   4.688   3.900   1.356 -0.3126 -0.1318  0.5332
 4595SOL    HW114483   4.698   3.919   1.263 -0.1329  0.4383  0.6689
 4595SOL    HW214484   4.608   3.847   1.361 -1.3029  1.3051  0.2538
 4596SOL     OW14485   2.526   2.711   1.115  0.3196  0.0909  0.6167
 4596SOL    HW114486   2.587   2.676   1.049 -0.0161 -0.6420  0.6862
 4596SOL    HW214487   2.535   2.806   1.107 -0.6690  0.0824 -1.4290
 4597SOL     OW14488   4.409   4.159   4.863  0.5144  0.2445 -0.4330
 4597SOL    HW114489   4.468   4.215   4.912  1.1285 -1.5492  0.9952
 4597SOL    HW214490   4.466   4.094   4.821 -0.1337  0.8400 -2.3581
 4598SOL     OW14491   5.348   4.531   2.717 -0.2907 -0.4527 -0.0652
 4598SOL    HW114492   5.338   4.510   2.810  2.2751 -0.3073  0.3286
 4598SOL    HW214493   5.346   4.626   2.713 -0.2015 -0.4531 -0.1319
 4599SOL     OW14494   4.235   2.435   2.489  0.1942  0.4084  0.3583
 4599SOL    HW114495   4.261   2.357   2.441 -1.0228  1.3056 -1.9144
 4599SOL    HW214496   4.251   2.413   2.581 -0.9957 -2.8555 -0.0777
 4600SOL     OW14497   5.244   3.148   3.636  0.4712  0.1514  0.0085
 4600SOL    HW114498   5.317   3.104   3.679  0.7761  1.0152  0.3912
 4600SOL    HW214499   5.263   3.241   3.645 -0.2498  0.3726 -0.6385
 4601SOL     OW14500   1.890   1.522   1.938 -0.0703  0.1781  0.0615
 4601SOL    HW114501   1.879   1.479   1.853 -0.5923 -0.0203  0.2247
 4601SOL    HW214502   1.946   1.462   1.987  2.5744  1.5813 -1.0539
 4602SOL     OW14503   5.318   1.524   4.336 -0.5663 -0.0414 -0.1802
 4602SOL    HW114504   5.383   1.594   4.338 -1.2935  0.6422  1.4935
 4602SOL    HW214505   5.254   1.549   4.403 -1.2342 -1.9323 -0.0567
 4603SOL     OW14506   1.395   3.393   2.638  0.2972 -0.1734 -0.3649
 4603SOL    HW114507   1.465   3.330   2.622 -1.3890 -2.7357  1.3242
 4603SOL    HW214508   1.315   3.346   2.612 -0.8882  2.3923 -1.6678
 4604SOL     OW14509   1.636   0.611   2.999  0.3765 -0.4718 -0.6099
 4604SOL    HW114510   1.681   0.599   2.916  0.3728 -0.4487 -0.6150
 4604SOL    HW214511   1.550   0.646   2.976 -0.4549 -2.4565 -0.7674
 4605SOL     OW14512   3.904   3.160   2.712 -0.1743  0.0383  0.1284
 4605SOL    HW114513   3.907   3.213   2.632 -2.4027  1.1341  0.6712
 4605SOL    HW214514   3.816   3.176   2.748 -0.0666 -2.2196  1.5931
 4606SOL     OW14515   0.211   0.982   1.830  0.1207 -0.4873  0.0216
 4606SOL    HW114516   0.225   0.917   1.761 -0.3029 -1.3396  0.7128
 4606SOL    HW214517   0.294   0.982   1.879 -0.9282 -3.0358  2.0534
 4607SOL     OW14518   1.136   0.494   4.311 -0.1875  0.0588  0.0186
 4607SOL    HW114519   1.077   0.536   4.248  0.6845  0.8710 -0.2789
 4607SOL    HW214520   1.101   0.406   4.322 -0.4046 -0.0743 -1.5489
 4608SOL     OW14521   1.889   3.447   2.274  0.1734  0.3709  0.4585
 4608SOL    HW114522   1.825   3.455   2.204 -1.3472  1.0731  1.8744
 4608SOL    HW214523   1.885   3.355   2.301  0.2640  0.2620  0.1065
 4609SOL     OW14524   3.890   5.341   3.402  0.0365  0.4548  0.0734
 4609SOL    HW114525   3.937   5.350   3.484 -1.5158 -0.4218  1.1168
 4609SOL    HW214526   3.880   5.246   3.390 -0.0213  0.5768 -0.9802
 4610SOL     OW14527   4.972   1.186   0.804 -0.1147 -0.0687  0.5328
 4610SOL    HW114528   5.031   1.237   0.748  0.4136  2.6951  3.3402
 4610SOL    HW214529   5.030   1.143   0.867 -0.9103  0.9546  2.0077
 4611SOL     OW14530   2.617   3.727   1.165 -0.2187  0.5729  0.2226
 4611SOL    HW114531   2.701   3.756   1.131 -1.0636  2.2526 -0.5364
 4611SOL    HW214532   2.554   3.754   1.098 -1.3643 -0.8379  0.6692
 4612SOL     OW14533   1.345   4.638   5.028  0.2104  0.6396 -0.2487
 4612SOL    HW114534   1.333   4.632   4.933 -1.1357  2.8695 -0.2803
 4612SOL    HW214535   1.427   4.685   5.039  0.9298 -0.5670 -0.2492
 4613SOL     OW14536   4.441   2.893   4.109 -0.0293 -0.5132 -0.4551
 4613SOL    HW114537   4.366   2.944   4.078  0.8759  0.1489 -1.6642
 4613SOL    HW214538   4.414   2.802   4.097 -0.1227 -0.2888 -2.3205
 4614SOL     OW14539   1.398   3.868   3.885  0.6636  0.4789  0.3405
 4614SOL    HW114540   1.313   3.903   3.908 -0.1880 -0.1740 -1.6005
 4614SOL    HW214541   1.438   3.935   3.830 -0.2317 -0.7415 -1.9028
 4615SOL     OW14542   3.514   2.078   5.176  0.2437  0.5779 -0.3063
 4615SOL    HW114543   3.568   2.050   5.103 -2.6166 -0.5886 -2.1201
 4615SOL    HW214544   3.462   2.151   5.142 -0.0207  1.0896  1.0934
 4616SOL     OW14545   0.405   4.800   4.517  0.0577  0.4538  0.3601
 4616SOL    HW114546   0.389   4.706   4.509 -1.0988  0.7100 -0.5342
 4616SOL    HW214547   0.380   4.837   4.433 -2.4332  1.9289  1.6033
 4617SOL     OW14548   0.805   5.096   0.748 -0.0724 -0.4833 -0.3632
 4617SOL    HW114549   0.869   5.035   0.787 -0.9219 -1.9729 -1.1926
 4617SOL    HW214550   0.771   5.146   0.822 -0.1289 -1.7846  0.5303
 4618SOL     OW14551   0.502   2.764   2.732 -0.3425  0.2515  0.0989
 4618SOL    HW114552   0.485   2.826   2.803 -0.6511 -0.6959  0.8776
 4618SOL    HW214553   0.468   2.681   2.764 -0.8183 -0.1359 -1.3178
 4619SOL     OW14554   0.290   0.714   5.075 -0.6535 -0.1635  0.3626
 4619SOL    HW114555   0.245   0.685   4.996 -0.6038 -0.4849  0.4501
 4619SOL    HW214556   0.339   0.637   5.104 -1.0972 -0.2137  1.0013
 4620SOL     OW14557   0.951   1.211   1.647 -0.0645  0.2712 -0.3116
 4620SOL    HW114558   0.946   1.125   1.606  0.0925 -0.4968  1.1935
 4620SOL    HW214559   1.020   1.256   1.599 -0.3278 -0.3343 -1.2930
 4621SOL     OW14560   4.359   4.678   2.638  0.7439 -0.3205  0.1173
 4621SOL    HW114561   4.359   4.607   2.703  1.4879 -0.5952 -0.1801
 4621SOL    HW214562   4.269   4.711   2.640  0.8110 -0.1437  1.4835
 4622SOL     OW14563   0.149   3.737   3.770  0.4904 -0.2748  0.0685
 4622SOL    HW114564   0.241   3.713   3.761  0.3491 -1.4654  1.3919
 4622SOL    HW214565   0.101   3.660   3.742 -0.0575 -0.2274  0.8396
 4623SOL     OW14566   2.741   4.980   0.503 -0.1045  0.1021  0.8917
 4623SOL    HW114567   2.828   4.959   0.471 -0.4712 -0.8162  0.4596
 4623SOL    HW214568   2.683   4.961   0.430 -0.9711 -2.1210  2.0762
 4624SOL     OW14569   0.652   0.807   4.881  0.5124  0.1276  0.3099
 4624SOL    HW114570   0.642   0.784   4.788  1.8433 -0.7620  0.3660
 4624SOL    HW214571   0.573   0.857   4.901 -1.2301 -2.1326 -0.5289
 4625SOL     OW14572   0.665   0.170   2.887 -0.3977 -0.0400 -0.1644
 4625SOL    HW114573   0.733   0.145   2.949 -1.1449  0.7542  1.0171
 4625SOL    HW214574   0.697   0.251   2.847 -0.4907  0.1413  0.1295
 4626SOL     OW14575   1.985   1.327   4.131 -0.0885 -0.1000  0.2583
 4626SOL    HW114576   1.951   1.409   4.094  1.3647 -0.5534 -2.2607
 4626SOL    HW214577   2.029   1.354   4.212 -0.7160  1.4073  0.1366
 4627SOL     OW14578   1.225   4.684   4.011  0.2838  0.3286 -0.3432
 4627SOL    HW114579   1.192   4.604   4.053 -0.3707  0.5958 -0.3361
 4627SOL    HW214580   1.320   4.678   4.019  0.4999 -1.9218 -2.9824
 4628SOL     OW14581   4.724   2.859   3.531 -0.1878  0.1664  0.1790
 4628SOL    HW114582   4.700   2.769   3.510 -1.0516  0.4455 -0.0671
 4628SOL    HW214583   4.680   2.877   3.615  0.5940  0.1181  0.6064
 4629SOL     OW14584   1.885   4.426   1.121  0.4582  0.8938  0.1739
 4629SOL    HW114585   1.822   4.354   1.116  1.0802  0.2965  0.9167
 4629SOL    HW214586   1.833   4.504   1.100 -0.4823  0.3793  0.5344
 4630SOL     OW14587   4.935   2.555   3.879 -0.3511 -0.1203  0.3432
 4630SOL    HW114588   4.849   2.575   3.844 -1.1456  0.1848  2.3426
 4630SOL    HW214589   4.929   2.463   3.906  0.0213 -0.1649  0.2768
 4631SOL     OW14590   0.183   1.184   3.746 -0.1965 -0.0633  0.2115
 4631SOL    HW114591   0.221   1.264   3.784  0.1617 -0.0896 -0.0889
 4631SOL    HW214592   0.093   1.184   3.778 -0.6100  1.1727 -0.8383
 4632SOL     OW14593   3.749   4.155   4.334  0.4344  0.1635  0.0546
 4632SOL    HW114594   3.760   4.124   4.244 -2.3828 -2.0261  0.3128
 4632SOL    HW214595   3.782   4.244   4.334  1.1775 -0.0354 -2.9685
 4633SOL     OW14596   4.014   2.122   4.141  0.4780 -0.7947  0.1286
 4633SOL    HW114597   4.031   2.070   4.063  0.5411 -0.8370  0.1702
 4633SOL    HW214598   4.101   2.141   4.176  0.7351  2.3477 -1.8390
 4634SOL     OW14599   1.780   0.423   0.749 -0.6803 -0.6346 -0.2118
 4634SOL    HW114600   1.709   0.384   0.799 -1.1384  1.3657  0.8196
 4634SOL    HW214601   1.738   0.492   0.697  0.6815  2.4892  2.4729
 4635SOL     OW14602   3.451   4.400   1.010  0.1737  0.0398  0.8255
 4635SOL    HW114603   3.499   4.339   0.954 -0.1102  0.5507  0.0015
 4635SOL    HW214604   3.519   4.451   1.053  0.4387  1.4813 -1.1320
 4636SOL     OW14605   3.186   1.285   2.160 -0.4709 -0.2258  0.1839
 4636SOL    HW114606   3.211   1.313   2.249  0.7921 -0.1296 -0.1715
 4636SOL    HW214607   3.170   1.367   2.114 -4.2560 -0.2881  1.0795
 4637SOL     OW14608   0.043   2.511   1.600 -0.2921 -0.3948 -0.4970
 4637SOL    HW114609  -0.005   2.509   1.683 -1.7799  0.9817 -1.2725
 4637SOL    HW214610   0.079   2.600   1.595 -0.7905 -0.2414 -1.6116
 4638SOL     OW14611   1.034   1.547   2.607 -0.3716 -0.2882 -0.3451
 4638SOL    HW114612   0.983   1.628   2.600  1.0176  0.6431 -0.1546
 4638SOL    HW214613   1.084   1.543   2.526  1.1598  0.2044  0.5277
 4639SOL     OW14614   4.762   4.362   0.426  0.1779  0.1982  0.1339
 4639SOL    HW114615   4.711   4.410   0.361 -1.2768 -0.7727  0.4944
 4639SOL    HW214616   4.696   4.327   0.487  1.1029 -2.3233 -0.1651
 4640SOL     OW14617   5.378   1.359   0.445  0.2987  0.1381 -0.2305
 4640SOL    HW114618   5.370   1.265   0.461  0.2395  0.2052  0.1347
 4640SOL    HW214619   5.423   1.393   0.522  1.4416  0.2240 -0.9114
 4641SOL     OW14620   1.331   1.282   3.013  0.2887  0.0610  0.1019
 4641SOL    HW114621   1.287   1.216   3.066  0.5301  0.5762  0.9620
 4641SOL    HW214622   1.266   1.352   3.004  0.4739  0.2593  0.2815
 4642SOL     OW14623   4.652   4.909   3.918  0.1362  1.0525  0.3505
 4642SOL    HW114624   4.714   4.882   3.985 -1.7874 -0.1238  1.7668
 4642SOL    HW214625   4.619   4.827   3.880 -2.5395  1.4356  1.6145
 4643SOL     OW14626   0.474   4.334   1.425  0.3959  0.0175  0.1034
 4643SOL    HW114627   0.492   4.428   1.426 -0.4194  0.1771  1.0087
 4643SOL    HW214628   0.529   4.300   1.354  0.3659  1.2403 -0.5380
 4644SOL     OW14629   3.100   1.409   1.172 -0.5310 -0.2238 -0.0045
 4644SOL    HW114630   3.116   1.353   1.097  0.6199 -0.6161  0.5077
 4644SOL    HW214631   3.027   1.367   1.219  1.1863 -2.1227  1.1215
 4645SOL     OW14632   2.379   4.210   1.486 -0.2103  0.0773 -0.1232
 4645SOL    HW114633   2.284   4.207   1.496 -0.3372 -0.9606 -1.3354
 4645SOL    HW214634   2.392   4.250   1.400  0.4951  0.9315  0.3654
 4646SOL     OW14635   2.202   1.831   4.771  0.1423 -0.4652  0.3786
 4646SOL    HW114636   2.127   1.838   4.711  1.3924 -0.6819 -1.2814
 4646SOL    HW214637   2.194   1.907   4.828 -0.0215  0.8770 -1.3577
 4647SOL     OW14638   0.886   0.297   1.060 -0.2422 -0.3815 -0.8887
 4647SOL    HW114639   0.929   0.215   1.035 -0.9466 -0.5112 -1.7276
 4647SOL    HW214640   0.908   0.358   0.990 -2.5301 -0.8462 -2.0816
 4648SOL     OW14641   4.565   0.305   3.693  0.1054 -0.0164 -0.1114
 4648SOL    HW114642   4.511   0.255   3.631 -0.8399  2.1241 -1.1407
 4648SOL    HW214643   4.611   0.368   3.638  0.9881  0.4651  1.1538
 4649SOL     OW14644   4.283   3.000   2.105  0.1915 -0.7464 -0.1420
 4649SOL    HW114645   4.188   2.992   2.115  0.0309  1.3194  0.3555
 4649SOL    HW214646   4.314   2.910   2.111 -1.5889 -1.3399  1.3536
 4650SOL     OW14647   2.257   5.144   0.565  0.3138  0.4160  0.0982
 4650SOL    HW114648   2.249   5.210   0.634 -0.3915  0.5464 -0.1003
 4650SOL    HW214649   2.275   5.062   0.612 -0.6226  0.4167  0.4810
 4651SOL     OW14650   4.331   3.069   3.160  0.0899  0.2923 -0.0661
 4651SOL    HW114651   4.391   3.140   3.142  1.3218 -1.4318 -3.7893
 4651SOL    HW214652   4.382   2.989   3.146 -1.9424 -1.3380  1.0866
 4652SOL     OW14653   1.152   4.597   3.171  0.7451 -0.1577 -0.3077
 4652SOL    HW114654   1.146   4.541   3.249 -2.2013 -2.0179 -1.6816
 4652SOL    HW214655   1.226   4.561   3.122  2.0054  0.4110  1.0940
 4653SOL     OW14656   1.645   2.156   3.670 -0.4748  0.7290 -0.1134
 4653SOL    HW114657   1.603   2.101   3.735  0.7789 -0.7034 -0.4694
 4653SOL    HW214658   1.682   2.229   3.721  0.7167 -0.5030  0.8490
 4654SOL     OW14659   2.224   1.034   3.091  0.4236  0.1203 -0.4588
 4654SOL    HW114660   2.173   0.978   3.032  0.8769 -0.1279 -0.6250
 4654SOL    HW214661   2.301   1.057   3.040  1.3906 -1.0332  0.4121
 4655SOL     OW14662   4.279   3.524   3.687  0.7957 -0.3250  0.3452
 4655SOL    HW114663   4.354   3.547   3.741  0.9281 -0.4941  0.2347
 4655SOL    HW214664   4.280   3.587   3.615  0.4981  0.0330  0.6469
 4656SOL     OW14665   1.720   3.522   2.573 -0.3285 -0.1435  0.0438
 4656SOL    HW114666   1.682   3.586   2.633 -0.6945  0.3455 -0.7017
 4656SOL    HW214667   1.670   3.442   2.588 -0.7677  0.1263  0.0189
 4657SOL     OW14668   1.339   0.754   0.724 -0.1898  0.0592 -0.0132
 4657SOL    HW114669   1.424   0.758   0.680 -0.8671 -0.2350 -1.3969
 4657SOL    HW214670   1.354   0.797   0.808  0.8583  1.7985 -1.0171
 4658SOL     OW14671   5.391   3.968   1.520  0.0898  0.0844  0.2871
 4658SOL    HW114672   5.426   3.885   1.490  1.3337  0.0677  1.6568
 4658SOL    HW214673   5.416   4.031   1.452 -1.5092 -0.7233 -1.1315
 4659SOL     OW14674   1.400   2.398   0.746 -0.1755  0.0888  0.5828
 4659SOL    HW114675   1.357   2.321   0.708 -0.5393  0.2429  0.6706
 4659SOL    HW214676   1.416   2.375   0.837  2.6240 -1.0856 -0.1292
 4660SOL     OW14677   2.040   4.898   0.724 -0.4596  0.4117  0.1383
 4660SOL    HW114678   2.018   4.927   0.636 -0.5993  2.3121  0.7704
 4660SOL    HW214679   2.136   4.904   0.729 -0.5722  2.2040  0.7090
 4661SOL     OW14680   4.304   2.527   4.933 -0.3671  0.0388 -0.6246
 4661SOL    HW114681   4.233   2.528   4.869  1.4437  1.8639 -2.8058
 4661SOL    HW214682   4.365   2.460   4.901  0.4515  0.8174 -0.7454
 4662SOL     OW14683   4.568   2.343   1.477  0.4220 -0.0494 -0.1468
 4662SOL    HW114684   4.518   2.422   1.497 -0.4716 -0.7905  0.6476
 4662SOL    HW214685   4.659   2.372   1.481  0.1012  1.0939 -0.5721
 4663SOL     OW14686   2.311   3.703   3.419 -0.3642  0.2694 -0.5042
 4663SOL    HW114687   2.224   3.682   3.385 -0.5174  0.7184 -0.4003
 4663SOL    HW214688   2.297   3.779   3.476  0.0928  0.3327 -0.4691
 4664SOL     OW14689   1.836   4.313   2.461 -0.0663  0.0388  0.3072
 4664SOL    HW114690   1.837   4.217   2.453  0.0478  0.1378 -1.1201
 4664SOL    HW214691   1.781   4.330   2.537 -0.7025 -1.1448  0.1375
 4665SOL     OW14692   5.170   1.287   1.908 -0.0206  0.0257 -0.1325
 4665SOL    HW114693   5.094   1.229   1.911  0.4285 -0.6248 -1.0035
 4665SOL    HW214694   5.245   1.228   1.900  0.4972  0.7077 -0.4294
 4666SOL     OW14695   1.578   1.814   3.681  0.0343  0.0222 -0.5326
 4666SOL    HW114696   1.549   1.885   3.624  0.9018  1.6346  0.9509
 4666SOL    HW214697   1.500   1.788   3.729  0.0148  1.0879  0.0440
 4667SOL     OW14698   1.285   4.316   1.798  0.4937  0.1822  0.5198
 4667SOL    HW114699   1.351   4.294   1.865 -0.4795  0.4022  1.5689
 4667SOL    HW214700   1.228   4.380   1.839 -1.2960 -1.1093  0.1953
 4668SOL     OW14701   2.668   4.225   1.094 -0.2140 -0.6859 -0.2670
 4668SOL    HW114702   2.651   4.292   1.160  0.5570 -0.3957 -0.3543
 4668SOL    HW214703   2.582   4.202   1.060 -0.4984  0.0995 -0.0790
 4669SOL     OW14704   0.526   1.162   1.288  0.1141 -0.2023 -0.4603
 4669SOL    HW114705   0.548   1.253   1.308  1.5333 -0.7548  0.7484
 4669SOL    HW214706   0.442   1.148   1.331 -0.4388  0.7129 -1.2224
 4670SOL     OW14707   2.224   1.274   0.729  0.6555  0.1377  0.3286
 4670SOL    HW114708   2.295   1.302   0.787  0.9861  0.9690 -0.4447
 4670SOL    HW214709   2.269   1.241   0.651  0.2069  0.3229 -0.0128
 4671SOL     OW14710   1.752   5.090   0.153  0.7062 -0.2404 -0.3801
 4671SOL    HW114711   1.783   5.034   0.224 -1.0745 -1.8758 -0.7894
 4671SOL    HW214712   1.823   5.089   0.089  0.4211 -2.8456 -0.7665
 4672SOL     OW14713   0.410   1.922   3.980 -0.6439  0.5262  0.1686
 4672SOL    HW114714   0.415   1.992   3.916 -1.9593  0.2237 -0.2818
 4672SOL    HW214715   0.364   1.960   4.055 -1.7798  0.0419 -0.2588
 4673SOL     OW14716   1.264   3.236   0.764 -0.4515  0.2202  0.5076
 4673SOL    HW114717   1.252   3.325   0.730  0.3743  0.3603  0.5410
 4673SOL    HW214718   1.355   3.236   0.795 -0.2363 -0.8317 -0.0834
 4674SOL     OW14719   4.688   1.591   4.437 -0.4878 -0.0153 -0.2137
 4674SOL    HW114720   4.761   1.627   4.387 -0.2984 -1.3479 -0.9420
 4674SOL    HW214721   4.630   1.554   4.370 -1.2147 -0.0690  0.4389
 4675SOL     OW14722   4.430   4.903   4.903  0.2155  0.8222 -0.1352
 4675SOL    HW114723   4.489   4.949   4.844  1.5800 -0.4792  0.1385
 4675SOL    HW214724   4.452   4.810   4.892 -1.7540  0.2825  0.0390
 4676SOL     OW14725   2.263   2.579   1.673  0.6232 -0.0813  0.0415
 4676SOL    HW114726   2.358   2.591   1.683  0.2665  1.0854  3.2119
 4676SOL    HW214727   2.234   2.548   1.758 -1.7569 -1.5787 -1.2142
 4677SOL     OW14728   4.087   2.473   3.970  0.7828  0.1898 -0.0230
 4677SOL    HW114729   4.047   2.496   4.054 -0.6010 -0.0584 -0.5813
 4677SOL    HW214730   4.132   2.391   3.987  0.3403  0.0339  0.4308
 4678SOL     OW14731   2.527   3.092   0.489 -0.1314  0.0934 -0.0075
 4678SOL    HW114732   2.496   3.079   0.399 -2.7899 -0.7494  0.9470
 4678SOL    HW214733   2.547   3.004   0.521 -0.4551  0.2536  0.6451
 4679SOL     OW14734   4.325   1.027   3.367  0.7027 -0.3854  0.3453
 4679SOL    HW114735   4.261   0.958   3.387 -0.6747  0.6266 -0.4151
 4679SOL    HW214736   4.343   1.016   3.274 -0.1510  0.7520  0.0232
 4680SOL     OW14737   1.710   2.671   2.618  0.0568 -0.1665 -0.2697
 4680SOL    HW114738   1.676   2.585   2.595 -3.4326  0.6719  1.1147
 4680SOL    HW214739   1.735   2.663   2.710 -2.3329  0.6994  0.5420
 4681SOL     OW14740   0.140   3.200   0.934  0.5969 -0.2839  0.4029
 4681SOL    HW114741   0.222   3.176   0.891  0.0909  0.0957 -0.7963
 4681SOL    HW214742   0.163   3.275   0.989  0.8385  0.5600 -0.8105
 4682SOL     OW14743   0.578   1.447   3.012 -0.0160  0.0494 -0.6835
 4682SOL    HW114744   0.630   1.383   3.062 -1.0058 -0.0972  0.1929
 4682SOL    HW214745   0.489   1.413   3.015 -0.3872  0.9598 -1.0747
 4683SOL     OW14746   0.624   0.416   1.470 -0.1228  0.1131  0.6631
 4683SOL    HW114747   0.639   0.417   1.376 -0.5360 -0.1577  0.5897
 4683SOL    HW214748   0.625   0.508   1.496  1.3536  0.1329  0.6269
 4684SOL     OW14749   3.646   3.336   2.006  0.3416  0.1383 -0.3423
 4684SOL    HW114750   3.647   3.432   2.002 -1.5003  0.2542  0.7869
 4684SOL    HW214751   3.554   3.312   1.996  0.4026 -1.3444  1.8106
 4685SOL     OW14752   0.187   2.139   5.250 -0.0357 -0.1019 -0.1901
 4685SOL    HW114753   0.282   2.149   5.256 -0.3291  2.7269  1.2218
 4685SOL    HW214754   0.170   2.127   5.157  1.6986 -1.2016 -0.4190
 4686SOL     OW14755   4.532   5.328   4.301 -0.3674 -0.0561  0.0000
 4686SOL    HW114756   4.600   5.260   4.294 -1.0136 -0.6824 -0.2635
 4686SOL    HW214757   4.468   5.292   4.362 -1.1148 -0.0369 -0.7495
 4687SOL     OW14758   3.665   4.160   1.802  0.1482  0.1170  0.1977
 4687SOL    HW114759   3.661   4.209   1.884  0.7025 -0.4455  0.5676
 4687SOL    HW214760   3.656   4.227   1.734 -0.2632  0.5935  0.7162
 4688SOL     OW14761   3.803   1.146   3.341  0.5437  0.2929  0.2176
 4688SOL    HW114762   3.894   1.152   3.371  0.3713 -0.1143  0.8485
 4688SOL    HW214763   3.757   1.104   3.414  0.0252 -0.3621 -0.4775
 4689SOL     OW14764   1.779   2.380   4.313 -0.5692  0.4092 -0.1769
 4689SOL    HW114765   1.711   2.447   4.319 -1.0504 -0.1700  1.8871
 4689SOL    HW214766   1.734   2.299   4.337  0.9746  0.1639  2.2467
 4690SOL     OW14767   2.919   0.093   3.616 -0.3862  0.1037  0.4419
 4690SOL    HW114768   3.003   0.063   3.580 -0.6655  0.0619 -0.1961
 4690SOL    HW214769   2.860   0.093   3.540 -0.6460  1.3062  0.6312
 4691SOL     OW14770   4.459   2.167   3.426 -0.2285  0.5232  0.3449
 4691SOL    HW114771   4.527   2.166   3.358 -0.3269 -0.8333  0.2433
 4691SOL    HW214772   4.506   2.149   3.507 -0.3393  0.4674  0.3964
 4692SOL     OW14773   1.671   3.551   2.953  0.1759 -0.1329  0.2098
 4692SOL    HW114774   1.648   3.616   2.886  0.5769  2.6764  2.5983
 4692SOL    HW214775   1.616   3.574   3.028 -0.0869 -3.0119  0.9937
 4693SOL     OW14776   4.075   4.665   4.422  0.0327  0.3302 -0.6642
 4693SOL    HW114777   4.130   4.736   4.455 -2.3835  1.0808  2.1739
 4693SOL    HW214778   3.988   4.686   4.454 -1.0049 -3.3358 -0.6729
 4694SOL     OW14779   5.189   0.981   2.761  0.0832 -0.2474  0.3038
 4694SOL    HW114780   5.258   0.962   2.697 -0.7758 -1.5136 -0.2637
 4694SOL    HW214781   5.130   0.906   2.756 -1.6699  1.0723  0.3432
 4695SOL     OW14782   4.308   4.468   1.185  0.1310  0.0899  0.2551
 4695SOL    HW114783   4.338   4.414   1.258  1.5823  0.7719  0.1910
 4695SOL    HW214784   4.212   4.466   1.192  0.0259 -3.2375 -0.3079
 4696SOL     OW14785   4.485   3.188   0.784  0.1697 -0.1953  0.8530
 4696SOL    HW114786   4.536   3.130   0.728  0.2470  0.3333  0.3559
 4696SOL    HW214787   4.394   3.163   0.769  0.0250  1.1512 -0.9989
 4697SOL     OW14788   1.476   5.132   5.043  0.1753 -0.0659 -1.1870
 4697SOL    HW114789   1.396   5.079   5.040 -0.3401  0.7281 -1.8761
 4697SOL    HW214790   1.478   5.179   4.959  1.6212 -0.4271 -1.3855
 4698SOL     OW14791   4.605   1.502   1.885 -0.2786 -0.3034  0.1984
 4698SOL    HW114792   4.530   1.527   1.832  0.3038  0.4194 -0.3115
 4698SOL    HW214793   4.648   1.585   1.906  1.2983 -0.7987 -0.9073
 4699SOL     OW14794   0.876   2.052   1.684 -0.0990  0.2410 -0.1163
 4699SOL    HW114795   0.805   2.034   1.746  1.1000 -2.4094  0.6479
 4699SOL    HW214796   0.861   1.988   1.613  1.6584 -0.6167  0.2401
 4700SOL     OW14797   0.522   0.876   5.225  0.4513  0.0812 -0.0507
 4700SOL    HW114798   0.476   0.958   5.244  0.7191 -0.1536  1.7957
 4700SOL    HW214799   0.467   0.808   5.262 -0.2335 -0.7317 -2.3772
 4701SOL     OW14800   3.773   2.879   1.889  0.2974  0.1217 -0.1060
 4701SOL    HW114801   3.785   2.789   1.919  0.4610 -0.0481 -0.6805
 4701SOL    HW214802   3.770   2.930   1.970 -0.2819 -0.4546  0.2485
 4702SOL     OW14803   4.475   1.771   2.526 -0.2325 -0.2239  0.2808
 4702SOL    HW114804   4.484   1.800   2.617 -0.7963 -0.3734  0.3882
 4702SOL    HW214805   4.481   1.676   2.530  0.8394 -0.1752  0.0228
 4703SOL     OW14806   5.176   0.966   4.716  0.2950  0.2968 -0.2129
 4703SOL    HW114807   5.262   0.929   4.736  0.4241  1.2437  1.1100
 4703SOL    HW214808   5.115   0.894   4.726  0.9225 -0.3919 -1.1803
 4704SOL     OW14809   0.010   1.920   3.069  1.1386 -0.4362 -0.1224
 4704SOL    HW114810   0.057   1.935   3.151  1.5334 -0.3813 -0.3587
 4704SOL    HW214811  -0.049   1.995   3.061  0.6244 -0.7714  0.4414
 4705SOL     OW14812   5.358   3.573   2.856 -0.2887 -0.1597 -0.1418
 4705SOL    HW114813   5.374   3.665   2.877  0.7749 -0.5322  0.7148
 4705SOL    HW214814   5.270   3.573   2.818 -0.2760  1.2172 -0.2264
 4706SOL     OW14815   5.363   2.451   0.339 -0.1003  0.6443 -0.1510
 4706SOL    HW114816   5.416   2.421   0.413 -1.2158 -0.5695  0.1772
 4706SOL    HW214817   5.350   2.544   0.356  0.7097  0.6545  0.4997
 4707SOL     OW14818   2.932   3.596   3.490 -0.3972  0.3871  0.3514
 4707SOL    HW114819   2.991   3.550   3.550 -0.6219 -0.5233 -0.1074
 4707SOL    HW214820   2.977   3.678   3.470 -1.3715  1.8652  3.6341
 4708SOL     OW14821   3.402   3.323   2.690  0.4261  0.8289  0.0500
 4708SOL    HW114822   3.357   3.248   2.729  3.4633 -0.2837  1.7323
 4708SOL    HW214823   3.337   3.393   2.691 -1.4341 -0.8033  1.7832
 4709SOL     OW14824   3.839   4.278   2.615  0.6915 -0.5671  0.8825
 4709SOL    HW114825   3.796   4.361   2.591 -1.0506 -1.2621  1.4619
 4709SOL    HW214826   3.789   4.211   2.569  0.3206 -1.5216  2.5887
 4710SOL     OW14827   1.952   4.770   1.675 -0.6388 -0.3558 -1.1222
 4710SOL    HW114828   1.902   4.834   1.625  0.2657  0.6598 -0.7438
 4710SOL    HW214829   2.009   4.728   1.611 -3.7460 -3.5250 -2.1794
 4711SOL     OW14830   4.726   4.732   3.244  0.1570  0.1908 -0.0766
 4711SOL    HW114831   4.800   4.789   3.263  2.3525 -2.7780  0.9382
 4711SOL    HW214832   4.739   4.705   3.153 -0.8207  1.1400 -0.5230
 4712SOL     OW14833   0.804   4.001   2.142 -0.4318 -0.0574 -0.2419
 4712SOL    HW114834   0.765   4.088   2.142 -0.4504 -0.0601 -0.9314
 4712SOL    HW214835   0.844   3.992   2.056  1.2007 -0.0151  0.4740
 4713SOL     OW14836   1.471   2.947   1.824  0.4205 -0.1552  0.5884
 4713SOL    HW114837   1.411   2.982   1.890 -1.8673 -0.4989 -1.1834
 4713SOL    HW214838   1.431   2.969   1.740  1.7564 -2.1298 -0.6725
 4714SOL     OW14839   0.464   3.115   3.168  0.3653 -0.1082 -0.1070
 4714SOL    HW114840   0.383   3.162   3.146 -1.4082 -1.9823  1.9885
 4714SOL    HW214841   0.466   3.115   3.263  2.4076 -0.8968 -0.1147
 4715SOL     OW14842   4.639   4.106   2.581  0.0480  0.1291 -0.0282
 4715SOL    HW114843   4.721   4.064   2.606 -0.1016 -0.8078 -1.0115
 4715SOL    HW214844   4.580   4.032   2.561 -0.6124  0.8002 -0.6124
 4716SOL     OW14845   2.741   5.205   0.617 -0.4500 -0.6434  0.2557
 4716SOL    HW114846   2.790   5.258   0.554 -1.0887  1.1286  1.1885
 4716SOL    HW214847   2.735   5.119   0.576 -1.1793  0.5321 -2.3058
 4717SOL     OW14848   5.020   0.081   0.381 -0.2519  0.5604  0.7007
 4717SOL    HW114849   5.059  -0.005   0.364  2.7949  2.0074 -0.4471
 4717SOL    HW214850   5.023   0.126   0.296  1.8059  3.0575  1.9645
 4718SOL     OW14851   1.422   1.324   4.469  0.5686 -0.0116  0.6019
 4718SOL    HW114852   1.389   1.353   4.555 -1.6128  0.3658 -0.2849
 4718SOL    HW214853   1.464   1.240   4.486 -1.2799 -0.7532  1.8340
 4719SOL     OW14854   1.837   2.281   4.629  0.2401 -0.5546  0.3100
 4719SOL    HW114855   1.911   2.292   4.569  0.0747 -0.1718  0.1715
 4719SOL    HW214856   1.761   2.266   4.572  0.0937 -0.2584  0.4239
 4720SOL     OW14857   2.978   5.381   2.998 -0.3008  0.8188  0.1380
 4720SOL    HW114858   2.907   5.368   3.061  0.5072 -0.6173  0.7985
 4720SOL    HW214859   3.057   5.367   3.049  0.3983  0.3544 -1.0410
 4721SOL     OW14860   2.185   3.452   5.136 -0.1103 -0.1108 -0.2779
 4721SOL    HW114861   2.172   3.404   5.054  2.1745 -1.7248  0.2174
 4721SOL    HW214862   2.096   3.469   5.168 -1.0184 -1.7196 -1.7841
 4722SOL     OW14863   1.472   2.277   1.886  0.0872 -0.0269 -0.3319
 4722SOL    HW114864   1.530   2.213   1.845 -0.6105 -0.3766 -0.7917
 4722SOL    HW214865   1.509   2.362   1.862  0.8632 -0.2531  0.0542
 4723SOL     OW14866   3.044   2.252   3.691 -0.0307 -0.0237  0.6427
 4723SOL    HW114867   2.953   2.273   3.711 -0.0189  0.2856  0.3715
 4723SOL    HW214868   3.046   2.156   3.685 -0.5473  0.0123 -0.3606
 4724SOL     OW14869   1.029   2.111   2.041  0.0376  0.3908 -0.4090
 4724SOL    HW114870   1.117   2.127   2.007  0.0934  0.2586 -0.3293
 4724SOL    HW214871   1.012   2.185   2.100  1.4507 -1.2066  2.2479
 4725SOL     OW14872   0.926   3.571   5.188  0.5341 -0.2027 -0.0392
 4725SOL    HW114873   0.925   3.666   5.192  1.3591 -0.0708 -1.8074
 4725SOL    HW214874   0.840   3.544   5.220  0.2479  1.1420  0.3546
 4726SOL     OW14875   1.631   1.091   1.081  0.5066  0.0223  0.1777
 4726SOL    HW114876   1.679   1.167   1.048  1.5077 -0.8029 -0.3280
 4726SOL    HW214877   1.579   1.125   1.154  0.2587  1.3591 -0.6038
 4727SOL     OW14878   3.601   1.732   2.771  0.4403  0.4582  0.2403
 4727SOL    HW114879   3.656   1.750   2.694  2.3285  1.4001  1.6967
 4727SOL    HW214880   3.650   1.665   2.819  0.7438  1.8660  1.9608
 4728SOL     OW14881   0.167   0.590   0.214  0.1941 -0.4122  0.1417
 4728SOL    HW114882   0.129   0.580   0.127 -1.2826  0.5314  0.6425
 4728SOL    HW214883   0.261   0.581   0.200 -0.0303 -0.5967 -1.4928
 4729SOL     OW14884   4.495   0.160   4.437 -0.6464 -0.6375 -0.3183
 4729SOL    HW114885   4.519   0.074   4.403  0.2164 -0.7642  0.5542
 4729SOL    HW214886   4.577   0.210   4.438 -0.8566 -0.2821  0.5059
 4730SOL     OW14887   4.527   4.227   4.030  0.1485  0.2572 -0.0360
 4730SOL    HW114888   4.538   4.291   3.960 -2.0294 -0.1056 -0.7584
 4730SOL    HW214889   4.448   4.179   4.008  0.7414 -1.5308  1.4159
 4731SOL     OW14890   4.749   0.652   0.334  0.2287 -0.0308  0.2256
 4731SOL    HW114891   4.676   0.706   0.304  0.0863 -0.8006 -0.9016
 4731SOL    HW214892   4.718   0.611   0.414 -0.1876  0.4484  0.3150
 4732SOL     OW14893   0.845   5.120   3.121 -0.0908 -0.4408 -0.5647
 4732SOL    HW114894   0.851   5.081   3.033  0.9533  0.0403 -0.7272
 4732SOL    HW214895   0.906   5.067   3.174  1.4009  0.9541 -0.8038
 4733SOL     OW14896   4.151   0.788   2.302 -0.0063  0.7866 -0.5415
 4733SOL    HW114897   4.128   0.881   2.299 -1.4200  0.4596 -0.4855
 4733SOL    HW214898   4.067   0.742   2.300  0.5719 -0.4620  1.0742
 4734SOL     OW14899   1.579   4.325   2.943 -0.1683  0.6407 -0.4625
 4734SOL    HW114900   1.534   4.248   2.908 -0.7281  1.4963 -1.7023
 4734SOL    HW214901   1.638   4.352   2.873  0.7728  0.7810  0.3490
 4735SOL     OW14902   2.315   2.233   4.354 -0.4097  0.5660 -0.0094
 4735SOL    HW114903   2.310   2.244   4.259  1.5824  0.6653 -0.1502
 4735SOL    HW214904   2.245   2.288   4.389  0.6177  2.8780 -1.3389
 4736SOL     OW14905   0.125   4.459   0.954 -0.2100 -0.4034 -0.2767
 4736SOL    HW114906   0.211   4.481   0.990 -0.0555 -0.0258 -0.8581
 4736SOL    HW214907   0.128   4.364   0.943  0.5521 -0.2873 -1.2899
 4737SOL     OW14908   3.072   2.093   0.714 -0.2305  0.4028  0.1553
 4737SOL    HW114909   3.024   2.010   0.716  0.1131  0.0457 -2.5697
 4737SOL    HW214910   3.005   2.159   0.698 -0.2317  0.3309 -0.1472
 4738SOL     OW14911   3.468   3.082   1.039  0.0373  0.2552  0.4119
 4738SOL    HW114912   3.436   3.124   0.959 -0.5222  0.2435  0.6193
 4738SOL    HW214913   3.431   3.136   1.110  1.5831  1.0262  0.6610
 4739SOL     OW14914   4.364   0.827   4.292  0.4992  0.4205 -0.0027
 4739SOL    HW114915   4.298   0.886   4.256  0.1212 -0.1529 -0.2648
 4739SOL    HW214916   4.448   0.862   4.261  0.1364 -0.5961 -2.3059
 4740SOL     OW14917   4.351   2.533   3.183  0.0191  0.4139  0.5919
 4740SOL    HW114918   4.356   2.478   3.261  0.4670 -2.5268 -1.3270
 4740SOL    HW214919   4.355   2.471   3.110 -0.1547  3.0070 -1.7958
 4741SOL     OW14920   2.158   3.508   0.431  0.2995  0.3490 -0.6280
 4741SOL    HW114921   2.103   3.442   0.387  0.0206  1.0910 -1.4157
 4741SOL    HW214922   2.095   3.567   0.473  0.5532 -1.1071  2.0208
 4742SOL     OW14923   1.798   1.572   3.848  0.3710 -0.4260  0.1831
 4742SOL    HW114924   1.854   1.584   3.925  1.0075 -0.6964 -0.2285
 4742SOL    HW214925   1.794   1.659   3.808 -0.0048 -0.2734  0.5472
 4743SOL     OW14926   5.066   4.956   4.906 -0.8829  0.1308 -0.0639
 4743SOL    HW114927   5.098   5.043   4.929 -1.4285  0.2626  0.2304
 4743SOL    HW214928   5.132   4.920   4.847 -0.3369  0.4885  0.3241
 4744SOL     OW14929   0.086   1.609   3.473 -0.5681 -0.0817 -0.0879
 4744SOL    HW114930   0.050   1.530   3.514  0.1383  0.7146  2.2508
 4744SOL    HW214931   0.045   1.682   3.520  0.1477  0.9215 -0.9563
 4745SOL     OW14932   3.959   1.064   2.862 -0.3912  0.5775  0.0892
 4745SOL    HW114933   4.026   1.126   2.890 -0.5451  0.3007  1.0897
 4745SOL    HW214934   3.933   1.018   2.942 -1.1950  0.1144 -0.4227
 4746SOL     OW14935   2.446   1.399   0.337 -0.1735 -0.7116  0.2876
 4746SOL    HW114936   2.498   1.474   0.308 -2.1056  1.3340  1.8316
 4746SOL    HW214937   2.355   1.425   0.321 -0.8845 -3.2993 -0.3431
 4747SOL     OW14938   5.344   3.288   2.196  0.0031 -0.2822 -0.0654
 4747SOL    HW114939   5.282   3.293   2.123  1.3531 -0.2277 -1.2376
 4747SOL    HW214940   5.343   3.195   2.221  0.0510 -0.4387 -0.6205
 4748SOL     OW14941   1.017   3.103   2.823  0.0810  0.0792 -0.6914
 4748SOL    HW114942   0.961   3.147   2.758 -0.8972  0.0290  0.0966
 4748SOL    HW214943   1.008   3.010   2.802  1.1387  0.1493 -1.5514
 4749SOL     OW14944   0.183   3.496   2.697 -0.0099 -0.0583  0.4862
 4749SOL    HW114945   0.104   3.509   2.750  0.0363  0.3711  0.4523
 4749SOL    HW214946   0.204   3.583   2.663 -0.5879 -0.4888 -1.0431
 4750SOL     OW14947   2.384   0.075   0.500 -0.0448 -0.7372  0.2689
 4750SOL    HW114948   2.349   0.018   0.568 -0.5548  0.1058  0.7331
 4750SOL    HW214949   2.479   0.065   0.506 -0.1402 -1.9834 -0.0655
 4751SOL     OW14950   0.700   5.366   1.290 -0.4047  0.3200 -0.3693
 4751SOL    HW114951   0.780   5.357   1.239 -0.2254  0.1052 -0.0517
 4751SOL    HW214952   0.716   5.440   1.348 -0.2605 -0.0060  0.0125
 4752SOL     OW14953   2.664   5.142   4.939  0.2764  0.5929 -0.4017
 4752SOL    HW114954   2.654   5.048   4.948  1.1124  0.5199 -0.1632
 4752SOL    HW214955   2.740   5.153   4.882  0.3033  1.1233 -0.2685
 4753SOL     OW14956   3.154   2.333   0.865 -0.3064 -0.0601 -0.2499
 4753SOL    HW114957   3.143   2.264   0.800  1.3444  0.9469 -1.6862
 4753SOL    HW214958   3.085   2.316   0.929 -0.7881 -2.2384 -1.2268
 4754SOL     OW14959   3.157   1.333   4.901  0.1352  0.5955  0.2461
 4754SOL    HW114960   3.208   1.310   4.978 -0.7616  0.7088  0.8944
 4754SOL    HW214961   3.074   1.288   4.913 -0.7830  2.2261  0.3795
 4755SOL     OW14962   0.400   4.682   0.087 -0.5734  0.1407  0.0024
 4755SOL    HW114963   0.478   4.720   0.046 -1.6996  1.6062 -0.8788
 4755SOL    HW214964   0.391   4.729   0.170 -0.1633 -0.5035  0.4229
 4756SOL     OW14965   4.913   1.167   1.901 -0.1391 -0.7614 -0.4794
 4756SOL    HW114966   4.860   1.238   1.938  0.8285  0.1526 -0.8257
 4756SOL    HW214967   4.910   1.098   1.968  0.7067  0.4454  0.8581
 4757SOL     OW14968   1.871   4.481   0.695 -0.2501 -0.0386 -0.2610
 4757SOL    HW114969   1.889   4.491   0.601 -0.1345  0.7325 -0.1627
 4757SOL    HW214970   1.777   4.466   0.700 -0.3669  0.6050 -0.4593
 4758SOL     OW14971   0.316   2.469   1.554  0.3617 -0.7728  0.4191
 4758SOL    HW114972   0.227   2.504   1.561 -0.4654 -2.1208 -1.9282
 4758SOL    HW214973   0.311   2.382   1.593  0.8646 -0.5390  1.0070
 4759SOL     OW14974   5.304   4.720   1.424 -0.2707  0.2664 -0.9554
 4759SOL    HW114975   5.347   4.657   1.367 -0.4484 -1.0234  0.2692
 4759SOL    HW214976   5.280   4.793   1.367  0.2311 -0.6345 -2.3524
 4760SOL     OW14977   4.044   0.546   1.880 -0.0163 -0.0934  0.2351
 4760SOL    HW114978   4.014   0.637   1.893 -0.5030 -0.1858 -0.2349
 4760SOL    HW214979   3.991   0.495   1.942  1.5922  0.1620  1.9091
 4761SOL     OW14980   2.617   4.481   4.055 -0.4172  0.2720 -0.0935
 4761SOL    HW114981   2.622   4.403   4.000 -0.0092  0.2217  0.0123
 4761SOL    HW214982   2.596   4.552   3.994  0.2376  0.2542 -0.3572
 4762SOL     OW14983   4.020   3.466   2.767 -0.3559 -0.2558  0.0956
 4762SOL    HW114984   4.107   3.472   2.726 -0.7069 -0.8872 -0.7829
 4762SOL    HW214985   3.960   3.459   2.693 -1.6244  4.1770  0.4152
 4763SOL     OW14986   0.172   0.062   0.499 -0.5912  0.2061  0.1215
 4763SOL    HW114987   0.169   0.144   0.450 -0.1848  0.4313  0.4660
 4763SOL    HW214988   0.107   0.074   0.569 -1.3254 -0.1983 -0.4803
 4764SOL     OW14989   2.984   3.251   1.193 -0.0296 -0.5190  0.1385
 4764SOL    HW114990   2.941   3.211   1.118  0.3440 -0.0878 -0.3097
 4764SOL    HW214991   3.022   3.331   1.159 -0.8816  0.3025  1.0497
 4765SOL     OW14992   3.848   2.102   2.693 -0.3616  0.5371  0.5304
 4765SOL    HW114993   3.766   2.058   2.713  1.2617 -2.9860  0.1615
 4765SOL    HW214994   3.901   2.092   2.772  1.0019 -0.7109 -0.4757
 4766SOL     OW14995   2.800   3.701   2.235 -0.6434 -0.9265 -0.1787
 4766SOL    HW114996   2.769   3.791   2.248  0.4908 -0.5850  0.3240
 4766SOL    HW214997   2.722   3.647   2.249 -1.5772  0.0162 -1.4964
 4767SOL     OW14998   2.700   1.905   3.735  0.2694 -0.3354 -0.7057
 4767SOL    HW114999   2.645   1.976   3.767 -0.9685 -1.3806 -0.4464
 4767SOL    HW215000   2.718   1.851   3.812 -1.1753 -1.8366 -1.3418
 4768SOL     OW15001   4.626   2.271   2.816 -0.0264 -0.0370  0.0005
 4768SOL    HW115002   4.719   2.254   2.833  0.1558 -0.5410 -1.4311
 4768SOL    HW215003   4.626   2.344   2.754 -0.6111  0.3138  0.4098
 4769SOL     OW15004   0.788   2.411   0.497 -0.0149 -0.2055  0.0378
 4769SOL    HW115005   0.849   2.483   0.510 -1.4214  1.0783 -0.1697
 4769SOL    HW215006   0.703   2.447   0.522 -0.6800 -1.9843  0.4759
 4770SOL     OW15007   1.863   4.042   2.519 -0.5991  0.4215  0.1217
 4770SOL    HW115008   1.856   4.060   2.613 -0.8217 -1.1187  0.4234
 4770SOL    HW215009   1.950   4.001   2.509  0.1097  2.0154 -0.6139
 4771SOL     OW15010   0.386   4.401   0.168 -0.2364  0.1975  0.2862
 4771SOL    HW115011   0.395   4.496   0.157 -1.7877  0.3730  0.2935
 4771SOL    HW215012   0.445   4.364   0.103 -0.4152  1.1822 -0.4667
 4772SOL     OW15013   4.239   0.626   2.788 -0.2366 -0.1707  0.4012
 4772SOL    HW115014   4.256   0.708   2.741 -0.2505  0.3263  1.2552
 4772SOL    HW215015   4.254   0.558   2.722 -1.4807  0.5620 -0.6787
 4773SOL     OW15016   0.084   0.345   4.059 -0.0203 -0.6168 -0.1501
 4773SOL    HW115017   0.008   0.396   4.086  1.2176  0.4375  1.5752
 4773SOL    HW215018   0.069   0.258   4.095  0.2930  0.0257  1.6518
 4774SOL     OW15019   3.930   4.130   3.449 -0.6962  0.1779  0.0747
 4774SOL    HW115020   3.980   4.191   3.503  0.6462 -1.3089  0.5692
 4774SOL    HW215021   3.853   4.180   3.421  0.5522  2.2105  0.1185
 4775SOL     OW15022   4.259   2.806   2.853  0.0670  0.7064 -0.1434
 4775SOL    HW115023   4.260   2.807   2.949 -1.2018 -0.5296 -0.0685
 4775SOL    HW215024   4.191   2.870   2.829 -0.1772  0.4418 -0.1699
 4776SOL     OW15025   3.373   2.211   4.984  0.7230  0.4682 -0.2894
 4776SOL    HW115026   3.358   2.168   4.900 -0.4849 -0.8194  0.5531
 4776SOL    HW215027   3.361   2.305   4.965 -1.4885  0.0674 -1.1727
 4777SOL     OW15028   4.058   0.044   5.184 -0.4452 -0.2183  0.2654
 4777SOL    HW115029   4.086  -0.041   5.148 -0.5003  0.3035 -1.0627
 4777SOL    HW215030   4.129   0.104   5.161 -1.0092  0.3706  0.0414
 4778SOL     OW15031   4.427   3.091   2.676 -0.0860 -0.1683  0.2049
 4778SOL    HW115032   4.494   3.067   2.612 -0.6461  1.3015 -1.0113
 4778SOL    HW215033   4.469   3.158   2.731  0.4599 -1.5701  1.5641
 4779SOL     OW15034   2.528   0.897   0.987  0.2726 -0.0118  0.1919
 4779SOL    HW115035   2.547   0.938   1.071 -0.4100 -0.7110  0.7017
 4779SOL    HW215036   2.575   0.950   0.923  2.1526 -0.4017  1.1727
 4780SOL     OW15037   1.601   4.284   3.578 -0.2533  0.2632  0.7951
 4780SOL    HW115038   1.569   4.199   3.550  0.7747 -0.0655  0.5978
 4780SOL    HW215039   1.638   4.268   3.665  0.3429  0.4139  0.5711
 4781SOL     OW15040   3.468   5.037   2.021  0.1286 -0.1762 -0.1684
 4781SOL    HW115041   3.466   5.098   1.947  0.5988 -0.2942 -0.2827
 4781SOL    HW215042   3.464   4.950   1.980 -1.3059 -0.2295  0.0234
 4782SOL     OW15043   0.113   2.136   4.973 -0.2455  0.2810 -0.2536
 4782SOL    HW115044   0.056   2.060   4.964  0.6962 -0.4029 -0.5357
 4782SOL    HW215045   0.063   2.208   4.935 -2.2673  0.4250  2.3985
 4783SOL     OW15046   5.021   1.837   1.340 -0.3614  0.5830 -0.0514
 4783SOL    HW115047   5.090   1.806   1.281 -0.1694 -0.1429  0.5397
 4783SOL    HW215048   4.947   1.858   1.283 -0.1132  0.0651 -0.5682
 4784SOL     OW15049   4.691   4.316   3.143  0.4737 -0.3670 -0.1347
 4784SOL    HW115050   4.639   4.337   3.066  0.8026  0.1734 -0.2164
 4784SOL    HW215051   4.754   4.250   3.113  1.2852  0.5898 -0.6118
 4785SOL     OW15052   2.280   3.865   4.118 -0.6436  0.0670 -0.1713
 4785SOL    HW115053   2.216   3.797   4.098  0.2238 -0.7831 -0.1470
 4785SOL    HW215054   2.286   3.917   4.037 -1.4896  0.2829 -0.1083
 4786SOL     OW15055   2.327   2.067   5.284  0.3871  0.1087  0.0402
 4786SOL    HW115056   2.368   2.008   5.221 -0.5233 -2.7063  1.9051
 4786SOL    HW215057   2.392   2.076   5.354 -0.7239 -1.4679  1.3267
 4787SOL     OW15058   1.322   3.878   1.027 -0.4211  0.4882  0.0992
 4787SOL    HW115059   1.354   3.908   1.113 -2.3054 -1.2005  1.4829
 4787SOL    HW215060   1.268   3.951   0.996 -0.4832  0.7558  0.8048
 4788SOL     OW15061   2.838   4.785   2.813 -0.0628  0.0891 -0.3520
 4788SOL    HW115062   2.778   4.723   2.855  0.3936 -1.2551 -1.6460
 4788SOL    HW215063   2.851   4.752   2.725 -0.4164  2.4617 -1.3831
 4789SOL     OW15064   5.119   3.469   2.349  0.6711 -0.1442 -0.2636
 4789SOL    HW115065   5.134   3.440   2.438  0.4933  1.1851  0.2267
 4789SOL    HW215066   5.201   3.450   2.303  1.1614  0.1802  0.4671
 4790SOL     OW15067   2.055   1.009   3.307 -0.2975 -0.0338 -0.3810
 4790SOL    HW115068   2.094   1.038   3.225 -0.5877  1.0588 -0.1599
 4790SOL    HW215069   2.104   1.056   3.375 -0.8754  0.0562 -0.0111
 4791SOL     OW15070   1.911   1.620   4.123  0.5492  0.6515 -0.0022
 4791SOL    HW115071   1.842   1.632   4.188 -0.8991 -1.4121 -1.0436
 4791SOL    HW215072   1.971   1.693   4.138  0.2706  0.3292  3.5739
 4792SOL     OW15073   0.350   3.106   5.380 -0.1232 -0.2641  0.2182
 4792SOL    HW115074   0.341   3.093   5.285  0.7865  1.1440 -0.0794
 4792SOL    HW215075   0.290   3.177   5.400 -0.5519 -0.7734  0.7698
 4793SOL     OW15076   2.703   4.074   0.539  0.1850 -0.2533 -0.7139
 4793SOL    HW115077   2.625   4.045   0.586 -0.2305  0.3054 -1.0380
 4793SOL    HW215078   2.775   4.059   0.600 -0.2790 -0.0343 -0.0989
 4794SOL     OW15079   5.277   2.471   0.006  0.0668  0.4764 -0.4592
 4794SOL    HW115080   5.321   2.414  -0.058  0.6669 -2.1129  2.0188
 4794SOL    HW215081   5.200   2.421   0.034 -0.9227  2.1217 -0.1034
 4795SOL     OW15082   0.911   5.222   2.485 -0.2573  0.2162 -0.0793
 4795SOL    HW115083   0.946   5.195   2.400 -0.8965  0.3837 -0.4014
 4795SOL    HW215084   0.863   5.146   2.517 -0.7753  0.4448 -0.2899
 4796SOL     OW15085   3.449   2.410   0.039 -0.3921 -0.2299 -0.1341
 4796SOL    HW115086   3.490   2.414   0.126  1.4649  1.5657 -1.0125
 4796SOL    HW215087   3.516   2.369  -0.016 -0.7589  0.4827 -1.1229
 4797SOL     OW15088   5.233   2.503   1.418  0.1697  0.5424  0.0282
 4797SOL    HW115089   5.320   2.479   1.451 -0.5592  0.1413  1.7376
 4797SOL    HW215090   5.197   2.420   1.385 -0.7306  0.0003  2.1724
 4798SOL     OW15091   3.351   0.852   0.603  0.2946  0.5292 -0.5272
 4798SOL    HW115092   3.405   0.773   0.605  0.6108  0.7347  1.3471
 4798SOL    HW215093   3.405   0.919   0.645 -0.6473  1.2683 -0.4573
 4799SOL     OW15094   1.994   5.053   1.958  0.2155 -0.0168 -0.2996
 4799SOL    HW115095   2.022   5.113   2.028 -2.3472 -0.3552  1.1257
 4799SOL    HW215096   1.945   5.107   1.897  2.7163  0.3413 -2.1422
 4800SOL     OW15097   1.121   3.011   4.551  0.2671 -0.3044  0.1639
 4800SOL    HW115098   1.117   2.916   4.541 -0.1376 -0.3012  0.2503
 4800SOL    HW215099   1.172   3.041   4.476 -0.5668 -0.5032 -0.5046
 4801SOL     OW15100   1.917   3.906   1.551 -0.6632 -0.4488  0.5210
 4801SOL    HW115101   1.886   3.838   1.492 -0.0322  1.2803 -2.0064
 4801SOL    HW215102   2.002   3.874   1.582  0.0880 -0.4869 -1.4069
 4802SOL     OW15103   3.781   0.991   0.010  0.0868 -0.1208 -0.0194
 4802SOL    HW115104   3.775   0.909   0.059  1.2680  0.0346  0.4012
 4802SOL    HW215105   3.829   0.968  -0.070 -0.8499 -0.1305 -0.6035
 4803SOL     OW15106   2.733   4.943   3.049 -0.3957  0.1283  0.5432
 4803SOL    HW115107   2.757   4.925   2.958 -1.2483  0.8820  0.1481
 4803SOL    HW215108   2.816   4.948   3.095  0.2622  2.3333 -0.7063
 4804SOL     OW15109   1.587   1.052   2.494 -0.2388  0.5377 -0.1822
 4804SOL    HW115110   1.596   1.102   2.413  0.5010  0.3178 -0.2372
 4804SOL    HW215111   1.551   1.115   2.557  0.8129  1.1820 -0.2162
 4805SOL     OW15112   3.052   4.413   4.747  0.0009 -0.1272 -0.0802
 4805SOL    HW115113   3.142   4.381   4.755  0.0315  0.3152  1.9134
 4805SOL    HW215114   3.052   4.466   4.668  1.3408 -0.6078 -0.4248
 4806SOL     OW15115   1.786   1.243   0.332  0.1136  0.3919  0.4772
 4806SOL    HW115116   1.878   1.268   0.318 -0.4650  1.2999 -2.2086
 4806SOL    HW215117   1.736   1.303   0.278 -2.0239 -0.7474  1.0758
 4807SOL     OW15118   4.542   4.045   2.011  0.0929  0.4271  0.2279
 4807SOL    HW115119   4.500   3.962   1.988 -0.1283  0.4933  0.3924
 4807SOL    HW215120   4.582   4.028   2.096  0.7661  0.2341 -0.1140
 4808SOL     OW15121   0.378   3.005   0.423  0.5241  0.1210 -0.5101
 4808SOL    HW115122   0.408   2.942   0.358  0.4144 -0.6103  0.1268
 4808SOL    HW215123   0.457   3.052   0.450  0.8513 -0.7150  0.0238
 4809SOL     OW15124   4.398   0.349   4.822 -0.0858 -0.2072  0.2714
 4809SOL    HW115125   4.479   0.298   4.819 -0.6838 -1.2006  0.3876
 4809SOL    HW215126   4.410   0.417   4.755  1.8724  1.3203  2.0499
 4810SOL     OW15127   1.920   3.768   4.186  0.0014 -0.4116 -0.2459
 4810SOL    HW115128   1.830   3.758   4.155 -0.6220 -1.9937  1.8380
 4810SOL    HW215129   1.974   3.755   4.108 -1.5353  0.8106 -1.5966
 4811SOL     OW15130   5.095   0.969   1.274 -0.6753  0.3673  0.0378
 4811SOL    HW115131   5.118   0.880   1.299 -1.8126 -0.0024 -0.1591
 4811SOL    HW215132   5.011   0.960   1.228 -0.4393  1.4481 -0.6416
 4812SOL     OW15133   2.919   0.095   4.696  0.3094  0.3263  0.3172
 4812SOL    HW115134   2.937   0.185   4.723  1.5524  0.1581  0.1244
 4812SOL    HW215135   2.934   0.095   4.602 -2.7511  0.6121 -0.2650
 4813SOL     OW15136   5.048   0.287   0.125 -0.5342 -0.2765  0.5596
 4813SOL    HW115137   5.051   0.285   0.029  0.8504  0.3183  0.5708
 4813SOL    HW215138   4.989   0.359   0.145 -0.6642 -0.2628  0.1480
 4814SOL     OW15139   2.792   3.825   0.755  0.6351 -0.0424 -0.5235
 4814SOL    HW115140   2.742   3.761   0.806  0.4029 -0.1159 -0.8372
 4814SOL    HW215141   2.726   3.888   0.725  0.7750  0.0163 -0.7063
 4815SOL     OW15142   1.623   1.216   2.142  0.0083 -0.1132 -0.1000
 4815SOL    HW115143   1.550   1.228   2.203  0.0110  1.4698 -0.3409
 4815SOL    HW215144   1.699   1.197   2.198 -0.2039  0.2640  0.3283
 4816SOL     OW15145   3.355   3.047   2.846 -0.3066 -0.0481 -0.9171
 4816SOL    HW115146   3.299   2.992   2.900 -1.1748 -0.3651 -2.0889
 4816SOL    HW215147   3.298   3.077   2.775  0.5286  1.1782 -1.1056
 4817SOL     OW15148   3.912   1.072   0.548 -0.0898  0.3820 -0.8601
 4817SOL    HW115149   3.902   1.159   0.508 -0.9240  0.7655  0.1417
 4817SOL    HW215150   3.849   1.017   0.502  0.6339  0.2209 -1.6868
 4818SOL     OW15151   4.324   3.312   3.943 -0.1157 -0.2551 -0.0034
 4818SOL    HW115152   4.300   3.263   3.865  1.0739  0.7915 -1.0584
 4818SOL    HW215153   4.402   3.361   3.918 -1.8253  3.0736  0.5703
 4819SOL     OW15154   3.373   3.942   4.536 -0.5455 -0.3515  0.1198
 4819SOL    HW115155   3.394   3.856   4.499  2.2974 -0.6893  2.1189
 4819SOL    HW215156   3.416   4.004   4.477 -1.2975 -0.4107 -0.4943
 4820SOL     OW15157   0.257   1.075   5.149  0.2762  0.1207 -0.9495
 4820SOL    HW115158   0.197   1.010   5.185 -0.6985  2.0980  1.2190
 4820SOL    HW215159   0.202   1.132   5.095  0.4655  1.0459 -0.1934
 4821SOL     OW15160   3.651   5.121   2.610  0.1116 -0.3895  0.0721
 4821SOL    HW115161   3.569   5.105   2.563 -1.0016  4.6102 -0.2214
 4821SOL    HW215162   3.624   5.142   2.699  0.8220  2.0584 -0.2080
 4822SOL     OW15163   2.744   4.032   3.159 -0.5387 -0.0490  0.0891
 4822SOL    HW115164   2.817   3.974   3.136  0.0936  0.7883 -0.0247
 4822SOL    HW215165   2.784   4.106   3.203 -1.4635 -0.2249  1.2885
 4823SOL     OW15166   1.621   4.905   2.173  0.3631  0.5356 -0.3316
 4823SOL    HW115167   1.571   4.927   2.094  0.7477  0.9144 -0.4725
 4823SOL    HW215168   1.646   4.813   2.161  0.7417  0.6982 -0.8333
 4824SOL     OW15169   2.689   3.072   3.662 -0.1786 -0.4094 -0.0417
 4824SOL    HW115170   2.700   3.158   3.703 -2.0681  0.2071 -0.6801
 4824SOL    HW215171   2.594   3.058   3.663 -0.0666 -1.5714 -1.7660
 4825SOL     OW15172   5.179   2.380   0.952  0.4788 -0.2424 -0.3158
 4825SOL    HW115173   5.164   2.354   0.861  1.8381 -2.6816  0.0963
 4825SOL    HW215174   5.271   2.406   0.955  0.7198 -1.1673  0.5690
 4826SOL     OW15175   1.829   2.293   3.798 -0.4209 -0.5623 -0.0383
 4826SOL    HW115176   1.832   2.386   3.777 -1.4042 -0.5614 -0.2033
 4826SOL    HW215177   1.865   2.288   3.887 -0.3746 -0.0308 -0.0203
 4827SOL     OW15178   5.069   0.219   3.968 -0.1214  0.0811 -0.2866
 4827SOL    HW115179   5.019   0.298   3.949 -0.7975 -0.5630 -1.3092
 4827SOL    HW215180   5.146   0.224   3.912  0.2729  0.4102  0.2741
 4828SOL     OW15181   5.074   5.203   2.355  0.3750  0.0763  0.2711
 4828SOL    HW115182   5.133   5.253   2.299  2.3862 -0.0470  2.1342
 4828SOL    HW215183   4.992   5.251   2.353  0.8499  0.8928 -1.5390
 4829SOL     OW15184   4.139   3.100   1.612  0.1900 -0.1950 -0.1286
 4829SOL    HW115185   4.182   3.024   1.651  1.0626  0.0708 -0.5401
 4829SOL    HW215186   4.046   3.079   1.614  0.5363 -2.9179 -3.5206
 4830SOL     OW15187   3.010   1.652   5.152  0.0728 -0.6165 -0.1723
 4830SOL    HW115188   3.087   1.664   5.097 -0.0783  0.2173 -0.2028
 4830SOL    HW215189   2.987   1.740   5.182 -0.2023 -0.9875  0.7443
 4831SOL     OW15190   3.471   5.326   1.352 -0.4185  0.4772 -0.0143
 4831SOL    HW115191   3.537   5.287   1.410 -0.9952 -1.0942 -0.3591
 4831SOL    HW215192   3.393   5.336   1.407 -0.6013  0.1182 -0.2061
 4832SOL     OW15193   4.511   0.417   1.984  0.3410  0.4733 -0.1277
 4832SOL    HW115194   4.516   0.410   1.889  0.1532 -1.4218 -0.0399
 4832SOL    HW215195   4.570   0.349   2.017 -0.9094 -0.0776  1.0792
 4833SOL     OW15196   3.822   2.578   1.084 -0.0290  0.5176 -0.2053
 4833SOL    HW115197   3.758   2.606   1.019  0.5794  0.9371 -0.6361
 4833SOL    HW215198   3.810   2.638   1.157 -0.0755  0.6463 -0.3186
 4834SOL     OW15199   4.148   1.318   4.510  0.7047 -0.2794 -0.0501
 4834SOL    HW115200   4.232   1.334   4.468  0.0768 -1.7748 -2.0515
 4834SOL    HW215201   4.148   1.224   4.529 -0.0720 -0.0858  0.9673
 4835SOL     OW15202   4.048   3.546   1.417  0.1568 -0.0428 -0.2291
 4835SOL    HW115203   4.010   3.613   1.474 -2.2252  0.4383 -2.2247
 4835SOL    HW215204   4.085   3.595   1.343 -1.6601 -0.8382 -1.7460
 4836SOL     OW15205   1.804   3.227   0.589 -0.0842 -0.0989  0.5227
 4836SOL    HW115206   1.842   3.173   0.520 -1.0261  0.7168 -0.6847
 4836SOL    HW215207   1.791   3.167   0.663  0.6060 -1.0701 -0.1252
 4837SOL     OW15208   0.080   0.251   4.474 -0.0924 -0.4443 -0.7252
 4837SOL    HW115209   0.071   0.158   4.451  1.1320 -0.6635 -0.3830
 4837SOL    HW215210   0.174   0.265   4.482 -0.3266  0.0455  2.3636
 4838SOL     OW15211   1.328   1.209   2.104 -0.1638 -0.2034  0.1855
 4838SOL    HW115212   1.280   1.281   2.064 -0.1768 -0.3564 -0.0753
 4838SOL    HW215213   1.379   1.171   2.033 -1.2737 -1.3883 -0.0276
 4839SOL     OW15214   5.194   4.950   1.272 -0.0305 -0.0250  0.0500
 4839SOL    HW115215   5.186   4.943   1.177  0.7580 -0.1671 -0.0175
 4839SOL    HW215216   5.229   5.038   1.286 -0.3082  0.0570  0.2159
 4840SOL     OW15217   5.053   2.798   2.566  0.0417  0.1867 -0.4056
 4840SOL    HW115218   5.145   2.810   2.590 -0.2312  0.7591  0.4228
 4840SOL    HW215219   5.053   2.792   2.470  0.6275  3.7115 -0.7694
 4841SOL     OW15220   5.380   2.929   1.748  0.2985 -0.5068  0.5229
 4841SOL    HW115221   5.385   3.021   1.722 -0.7873  0.1138  2.3462
 4841SOL    HW215222   5.470   2.906   1.772  0.9344 -0.5160 -1.6008
 4842SOL     OW15223   3.057   0.611   2.082 -0.4310 -0.0139 -0.2805
 4842SOL    HW115224   3.094   0.650   2.002 -0.1073  0.4336  0.0835
 4842SOL    HW215225   2.994   0.547   2.050  0.3075 -0.4397 -0.9029
 4843SOL     OW15226   4.048   0.808   5.137  0.0674 -0.0462 -0.2613
 4843SOL    HW115227   4.057   0.808   5.041 -0.9879 -0.7113 -0.3811
 4843SOL    HW215228   3.993   0.883   5.156  1.3646  0.8851 -0.0251
 4844SOL     OW15229   3.141   4.984   1.352 -0.3774  0.0347 -0.6885
 4844SOL    HW115230   3.129   5.055   1.289 -3.6249 -1.5681 -2.0714
 4844SOL    HW215231   3.153   4.906   1.298 -1.0796 -1.0773  0.6964
 4845SOL     OW15232   5.330   1.747   2.600 -0.1618 -0.1425  0.5558
 4845SOL    HW115233   5.250   1.782   2.561 -0.8933 -1.0693  1.1747
 4845SOL    HW215234   5.376   1.825   2.634 -0.8975  0.3852  0.3700
 4846SOL     OW15235   0.987   3.071   3.077 -0.4391  0.2766  0.1786
 4846SOL    HW115236   0.917   3.136   3.088 -1.0125 -0.1794 -0.6967
 4846SOL    HW215237   1.007   3.073   2.983  0.1355 -0.2072  0.2834
 4847SOL     OW15238   1.914   4.090   2.115  0.2519  0.2612 -0.0320
 4847SOL    HW115239   1.874   4.177   2.106  1.1161  0.7866  0.9430
 4847SOL    HW215240   1.917   4.056   2.026 -0.7878  0.9074 -0.3419
 4848SOL     OW15241   0.600   2.384   5.397  0.4095 -0.1724 -0.5427
 4848SOL    HW115242   0.667   2.431   5.348  0.7517 -0.2584 -0.1627
 4848SOL    HW215243   0.540   2.352   5.330  0.1421  0.8421 -0.8004
 4849SOL     OW15244   4.851   4.752   1.054 -0.2570 -0.1009  0.1261
 4849SOL    HW115245   4.758   4.750   1.033  0.0486  1.3157 -1.5384
 4849SOL    HW215246   4.894   4.724   0.973  0.8771  3.1152 -0.5124
 4850SOL     OW15247   4.715   4.415   3.896  0.1209 -0.1538 -1.0230
 4850SOL    HW115248   4.744   4.504   3.880 -0.8819  0.2625 -0.5940
 4850SOL    HW215249   4.796   4.366   3.915  0.7818  0.4277 -2.2337
 4851SOL     OW15250   1.274   1.798   1.420 -0.2008 -0.1402  0.1622
 4851SOL    HW115251   1.264   1.808   1.325 -2.6841  0.3618  0.4211
 4851SOL    HW215252   1.208   1.733   1.444  1.2200 -1.1932  1.4266
 4852SOL     OW15253   5.359   1.449   1.719  0.1755 -0.6319 -0.2776
 4852SOL    HW115254   5.378   1.388   1.791  1.4948 -0.0811 -0.1145
 4852SOL    HW215255   5.316   1.395   1.653  2.1137 -1.9877 -0.5231
 4853SOL     OW15256   4.113   0.668   1.573  0.0046  0.0710  0.6800
 4853SOL    HW115257   4.119   0.580   1.612 -0.1884  0.2837  1.2006
 4853SOL    HW215258   4.132   0.727   1.646  1.1329  0.4376  0.1032
 4854SOL     OW15259   2.710   2.377   3.004 -0.3728  0.1969 -0.3301
 4854SOL    HW115260   2.649   2.424   2.947  1.6475  0.6465 -2.2560
 4854SOL    HW215261   2.761   2.323   2.945 -0.2889 -1.8366  1.4700
 4855SOL     OW15262   2.810   1.886   2.115  0.4445 -0.1302  0.0538
 4855SOL    HW115263   2.719   1.909   2.132 -0.0264 -1.0370 -1.2049
 4855SOL    HW215264   2.825   1.807   2.167  0.9276  0.7513  1.3054
 4856SOL     OW15265   1.066   3.711   3.395  0.3001 -0.6226 -0.4995
 4856SOL    HW115266   1.155   3.739   3.419 -0.4568  0.9581  0.6185
 4856SOL    HW215267   1.064   3.720   3.300  1.1297 -0.0298 -0.4772
 4857SOL     OW15268   0.318   1.849   0.899 -1.0749  0.1279  0.0710
 4857SOL    HW115269   0.249   1.915   0.889 -0.2849  0.6322 -3.6408
 4857SOL    HW215270   0.299   1.784   0.831  0.7537 -1.0144  0.5845
 4858SOL     OW15271   4.091   2.233   0.160 -0.4199  0.2277 -0.5542
 4858SOL    HW115272   4.079   2.267   0.249  2.1900 -1.6584  0.6602
 4858SOL    HW215273   4.033   2.157   0.155  0.5066 -0.5532  0.1444
 4859SOL     OW15274   0.392   4.040   0.666 -0.0059  0.2876  0.1587
 4859SOL    HW115275   0.304   4.079   0.669  0.7359  2.1262 -0.4994
 4859SOL    HW215276   0.451   4.115   0.656  1.7228 -0.8364  1.3906
 4860SOL     OW15277   0.839   3.876   2.678  0.4362  0.2217 -0.2855
 4860SOL    HW115278   0.896   3.940   2.719 -1.5036  0.8546  1.6234
 4860SOL    HW215279   0.899   3.809   2.644  2.3070  0.8869  1.4811
 4861SOL     OW15280   0.799   5.307   3.859 -0.4975 -0.5067 -0.2020
 4861SOL    HW115281   0.835   5.228   3.818 -1.2485 -0.6266 -0.6660
 4861SOL    HW215282   0.871   5.370   3.858  0.4283 -1.4980  1.0997
 4862SOL     OW15283   3.475   4.031   0.562  0.3057 -0.4596  0.2906
 4862SOL    HW115284   3.409   4.016   0.494 -2.1082 -2.8106  2.8950
 4862SOL    HW215285   3.535   3.957   0.553  2.1202  1.1226 -1.4072
 4863SOL     OW15286   0.873   3.561   1.976 -0.2641  0.0224 -0.1346
 4863SOL    HW115287   0.960   3.600   1.985 -0.1571  0.4758 -2.4799
 4863SOL    HW215288   0.854   3.568   1.883 -2.9288  0.1474  0.3571
 4864SOL     OW15289   0.304   0.908   1.566 -0.1283  0.5043  0.2137
 4864SOL    HW115290   0.228   0.852   1.582  0.3752 -0.0353  0.7263
 4864SOL    HW215291   0.271   0.975   1.506 -0.3572 -1.2428 -1.7463
 4865SOL     OW15292   2.851   2.293   1.655  0.1540 -0.1492  0.7546
 4865SOL    HW115293   2.944   2.274   1.645  0.3748  1.3897 -0.4509
 4865SOL    HW215294   2.816   2.289   1.566 -1.0764 -1.3264  1.2656
 4866SOL     OW15295   1.553   2.502   1.701  0.1986  0.6900  0.0422
 4866SOL    HW115296   1.509   2.457   1.629 -0.6291 -0.6301  1.3153
 4866SOL    HW215297   1.623   2.443   1.728 -0.1766  0.6726  1.0068
 4867SOL     OW15298   4.453   3.684   0.581 -0.4723 -0.0187 -0.2541
 4867SOL    HW115299   4.542   3.710   0.557 -1.0624  1.7747 -0.6876
 4867SOL    HW215300   4.464   3.620   0.651  1.1506  1.8935  1.3298
 4868SOL     OW15301   1.645   3.289   1.704  0.4929  0.3791 -0.3655
 4868SOL    HW115302   1.710   3.225   1.674  2.0492  1.7667 -0.0827
 4868SOL    HW215303   1.645   3.282   1.799  0.8312  0.9158 -0.3175
 4869SOL     OW15304   3.385   3.320   1.984 -0.0155  0.1384  0.4248
 4869SOL    HW115305   3.351   3.288   1.901  1.7686  0.4732 -0.4674
 4869SOL    HW215306   3.320   3.383   2.014 -1.3351 -0.9581 -0.0355
 4870SOL     OW15307   1.296   0.710   3.155 -0.2837  0.3431 -0.0280
 4870SOL    HW115308   1.231   0.705   3.226 -0.3581 -0.7536 -0.1640
 4870SOL    HW215309   1.252   0.671   3.080  0.0201  0.9369 -0.5182
 4871SOL     OW15310   4.899   0.945   2.059 -0.2834  1.1087  0.5237
 4871SOL    HW115311   4.805   0.930   2.064  0.0379 -1.7969  0.0539
 4871SOL    HW215312   4.935   0.858   2.038  2.4853  2.1496  0.6118
 4872SOL     OW15313   2.349   4.632   0.818  0.5444  0.0700 -0.2169
 4872SOL    HW115314   2.348   4.584   0.735  2.2181 -0.8838  0.2574
 4872SOL    HW215315   2.289   4.583   0.875  1.1417 -0.6360 -0.1801
 4873SOL     OW15316   1.631   1.516   2.824  0.0679  0.3605 -0.2912
 4873SOL    HW115317   1.598   1.551   2.741  2.5576  1.4071 -0.9437
 4873SOL    HW215318   1.615   1.422   2.819 -0.0617  0.4445 -1.8545
 4874SOL     OW15319   0.404   3.681   5.148  0.4994 -0.1192  0.4111
 4874SOL    HW115320   0.422   3.658   5.057 -2.4745  1.8714 -0.8212
 4874SOL    HW215321   0.352   3.609   5.182 -3.2443  1.4511 -1.4034
 4875SOL     OW15322   1.208   2.553   0.152 -0.5211  0.7315 -0.5083
 4875SOL    HW115323   1.133   2.503   0.120  0.3844 -0.3271 -1.0313
 4875SOL    HW215324   1.246   2.499   0.222 -0.3745  1.3609 -0.0936
 4876SOL     OW15325   3.347   4.228   1.699 -0.4445  0.2873 -0.1719
 4876SOL    HW115326   3.375   4.233   1.608 -0.2522 -0.9529 -0.1993
 4876SOL    HW215327   3.410   4.169   1.740 -1.5314 -0.5478  0.3550
 4877SOL     OW15328   2.217   3.005   3.961 -0.5684 -0.1215  0.1611
 4877SOL    HW115329   2.146   3.069   3.958 -0.7675 -0.3444  0.0569
 4877SOL    HW215330   2.237   2.996   4.055  0.7054  1.4386  0.0763
 4878SOL     OW15331   1.319   3.409   0.281 -0.4670  0.3615  0.6409
 4878SOL    HW115332   1.264   3.368   0.347 -2.9186  0.5388 -1.1755
 4878SOL    HW215333   1.258   3.448   0.219  1.7219  0.6836 -1.4626
 4879SOL     OW15334   4.404   2.548   2.286  0.3447 -0.3242 -0.4306
 4879SOL    HW115335   4.371   2.539   2.376  0.1286 -1.3104 -0.5922
 4879SOL    HW215336   4.415   2.458   2.256  2.5305 -0.0305 -0.6463
 4880SOL     OW15337   2.544   3.939   3.712  0.0636 -0.4775 -0.1729
 4880SOL    HW115338   2.550   3.844   3.709  1.6127 -0.4241 -3.3657
 4880SOL    HW215339   2.628   3.969   3.675 -0.7500  2.0835 -0.1238
 4881SOL     OW15340   4.710   2.857   0.084 -0.1082 -0.4615 -0.0631
 4881SOL    HW115341   4.685   2.768   0.059  1.1082 -0.9708  0.4775
 4881SOL    HW215342   4.680   2.866   0.174  1.1333 -0.9027  0.4208
 4882SOL     OW15343   3.715   3.119   0.720  0.3737 -0.3122  0.0138
 4882SOL    HW115344   3.649   3.158   0.778  0.2028 -0.1578 -0.2825
 4882SOL    HW215345   3.684   3.139   0.632  1.1159  0.2703 -0.1261
 4883SOL     OW15346   5.286   4.189   4.583 -0.4130 -0.4917  0.3003
 4883SOL    HW115347   5.312   4.107   4.542 -0.1468 -0.5598  0.6006
 4883SOL    HW215348   5.205   4.214   4.537 -0.7949 -1.1930  0.5696
 4884SOL     OW15349   0.900   1.915   4.454  0.3699 -0.2155 -0.4496
 4884SOL    HW115350   0.812   1.941   4.426  0.5366 -0.8040 -1.5877
 4884SOL    HW215351   0.954   1.993   4.438 -0.0589  0.3922  0.9377
 4885SOL     OW15352   3.563   4.699   2.833  0.5566  0.2495 -0.1703
 4885SOL    HW115353   3.643   4.656   2.864  0.4322 -1.3710 -1.9298
 4885SOL    HW215354   3.497   4.677   2.899  0.9369 -0.7357 -0.1009
 4886SOL     OW15355   0.061   2.259   2.651 -0.1896 -0.4534 -0.7868
 4886SOL    HW115356   0.068   2.165   2.633 -0.2495 -0.5382 -0.3716
 4886SOL    HW215357  -0.029   2.281   2.625 -0.3840 -0.6437 -0.2903
 4887SOL     OW15358   2.175   2.016   1.157 -0.5592 -0.4197  0.0881
 4887SOL    HW115359   2.199   2.085   1.094 -0.2258 -0.6861 -0.0778
 4887SOL    HW215360   2.166   1.937   1.104  1.3948 -1.0314  0.5838
 4888SOL     OW15361   0.800   1.401   1.914  0.1925  0.2830  0.1924
 4888SOL    HW115362   0.721   1.391   1.967 -0.0797  0.1554 -0.2293
 4888SOL    HW215363   0.853   1.324   1.935 -1.1443 -1.2891 -1.7595
 4889SOL     OW15364   2.182   1.921   0.338 -0.1361  0.0829 -0.3389
 4889SOL    HW115365   2.180   1.878   0.253  0.3532  0.8558 -0.7492
 4889SOL    HW215366   2.266   1.966   0.341 -0.8507  1.4693 -0.1634
 4890SOL     OW15367   1.483   3.149   0.361  0.4454 -0.2416 -0.0755
 4890SOL    HW115368   1.427   3.173   0.287  0.4466  1.5839  0.4850
 4890SOL    HW215369   1.572   3.151   0.325  0.4035  0.0741 -0.1616
 4891SOL     OW15370   4.533   4.003   3.662 -0.0677  0.3409  0.0618
 4891SOL    HW115371   4.505   3.937   3.598  0.5525 -0.1085  0.2432
 4891SOL    HW215372   4.457   4.015   3.719 -0.9827  1.4524 -1.3075
 4892SOL     OW15373   4.078   5.257   3.023 -0.6085  0.9176  0.7207
 4892SOL    HW115374   4.076   5.324   2.954  1.7472  0.4919  0.1398
 4892SOL    HW215375   4.085   5.307   3.104 -2.0617  1.4004  0.5695
 4893SOL     OW15376   5.312   4.631   0.693  0.3130  0.2642  0.0005
 4893SOL    HW115377   5.302   4.560   0.629 -0.2105  0.2553  0.0913
 4893SOL    HW215378   5.403   4.658   0.684  1.2455 -2.0116  1.5931
 4894SOL     OW15379   3.254   0.839   3.169  0.0231  0.1895  0.2292
 4894SOL    HW115380   3.226   0.769   3.111 -0.5537 -1.2755  2.1651
 4894SOL    HW215381   3.350   0.829   3.174  0.3732  1.7772 -2.1693
 4895SOL     OW15382   2.043   4.495   2.066  0.0609 -1.0517 -0.3067
 4895SOL    HW115383   1.971   4.520   2.124  0.2855  0.2676 -0.5671
 4895SOL    HW215384   2.089   4.576   2.048  2.6828 -2.0729  1.2229
 4896SOL     OW15385   2.909   0.559   1.074 -0.0849 -0.0433 -0.4036
 4896SOL    HW115386   2.982   0.549   1.013 -0.5026 -1.6357 -0.7141
 4896SOL    HW215387   2.865   0.639   1.046  1.5797  1.0143 -0.1295
 4897SOL     OW15388   2.709   3.246   4.276  0.0243 -0.4377  0.0414
 4897SOL    HW115389   2.717   3.336   4.308 -0.4478  0.8341 -3.0721
 4897SOL    HW215390   2.671   3.255   4.188  1.0895 -3.6075 -0.8724
 4898SOL     OW15391   1.308   3.557   4.868 -0.4102  0.6495  0.1579
 4898SOL    HW115392   1.290   3.648   4.846 -4.2964  0.2063  0.8160
 4898SOL    HW215393   1.324   3.558   4.963  2.5458  0.8865 -0.2518
 4899SOL     OW15394   1.011   1.767   3.885  0.2511  0.2158 -0.1463
 4899SOL    HW115395   1.096   1.805   3.865 -0.0426  0.9768  0.0153
 4899SOL    HW215396   0.989   1.800   3.972  0.1299 -0.5917  0.1387
 4900SOL     OW15397   0.683   1.327   1.599  0.9407  1.2424 -0.2803
 4900SOL    HW115398   0.637   1.319   1.682 -0.4176  1.0899 -1.0172
 4900SOL    HW215399   0.772   1.296   1.617  0.2160 -0.3697  0.7191
 4901SOL     OW15400   1.655   4.634   1.322 -0.2606 -0.1058  1.0471
 4901SOL    HW115401   1.660   4.556   1.377  1.4810 -1.3565 -0.7397
 4901SOL    HW215402   1.745   4.650   1.294 -1.0681  0.2155 -1.6998
 4902SOL     OW15403   1.915   1.774   1.977 -0.0196 -0.0779 -0.7773
 4902SOL    HW115404   1.900   1.683   1.953  1.3586 -0.0713 -1.7841
 4902SOL    HW215405   1.828   1.808   1.999 -0.5101 -1.7026 -0.0382
 4903SOL     OW15406   1.113   4.479   4.132 -0.0720 -0.2919  0.3532
 4903SOL    HW115407   1.155   4.395   4.149  0.1695 -0.2783 -0.1422
 4903SOL    HW215408   1.048   4.459   4.064  0.8326  0.1376 -0.6746
 4904SOL     OW15409   0.725   1.607   1.606  0.2910 -0.3368 -0.6215
 4904SOL    HW115410   0.658   1.539   1.611 -0.5382  0.5335  1.2030
 4904SOL    HW215411   0.802   1.569   1.648  0.2558 -0.6094 -0.8061
 4905SOL     OW15412   1.343   3.034   4.952 -0.1109  0.7471  0.2111
 4905SOL    HW115413   1.434   3.004   4.956 -0.6270 -0.9022  0.4075
 4905SOL    HW215414   1.332   3.068   4.864  1.1196  2.4842  0.6809
 4906SOL     OW15415   1.078   2.088   4.309  0.6495 -0.1617 -0.6893
 4906SOL    HW115416   1.120   2.012   4.270 -1.1742 -0.8683 -1.3992
 4906SOL    HW215417   1.016   2.119   4.243 -0.8434  0.0422  0.7192
 4907SOL     OW15418   2.688   2.662   4.608  0.2500  0.2115  0.7119
 4907SOL    HW115419   2.706   2.669   4.514  1.6542  1.5205  1.0387
 4907SOL    HW215420   2.766   2.622   4.645  0.7426  1.8675  1.5994
 4908SOL     OW15421   0.444   3.452   3.934 -0.1021 -0.0434  0.1849
 4908SOL    HW115422   0.357   3.464   3.972  0.1166  2.3760  0.0712
 4908SOL    HW215423   0.486   3.537   3.942  1.1933 -0.3275 -2.4161
 4909SOL     OW15424   5.231   0.205   2.883 -0.1440 -0.0144 -0.0369
 4909SOL    HW115425   5.223   0.296   2.858 -0.4116 -0.3226 -1.1013
 4909SOL    HW215426   5.205   0.203   2.975  0.6810  1.1009  0.2458
 4910SOL     OW15427   4.669   1.441   0.510 -0.0224  0.3142  0.0594
 4910SOL    HW115428   4.627   1.485   0.435  0.2980  0.9120  0.2249
 4910SOL    HW215429   4.752   1.488   0.522  0.7730 -0.9451 -0.3502
 4911SOL     OW15430   3.639   0.691   3.659  0.0894 -0.5589 -0.3940
 4911SOL    HW115431   3.676   0.779   3.658 -0.1030 -0.4590  0.6605
 4911SOL    HW215432   3.665   0.655   3.744 -1.3359 -0.8694 -0.0665
 4912SOL     OW15433   0.548   4.555   3.803  0.7775  0.2013 -0.5771
 4912SOL    HW115434   0.554   4.559   3.898  0.8473  1.2185 -0.6174
 4912SOL    HW215435   0.461   4.518   3.786 -0.0268  1.8324 -0.1292
 4913SOL     OW15436   4.548   0.005   5.123  0.2140 -1.0570 -0.0060
 4913SOL    HW115437   4.610   0.076   5.136  0.3030 -1.0202 -0.5804
 4913SOL    HW215438   4.591  -0.054   5.061  0.4430 -1.9945  1.0078
 4914SOL     OW15439   4.200   5.310   4.806 -0.1013 -0.1804 -0.4359
 4914SOL    HW115440   4.168   5.388   4.852  0.6718  0.4734 -0.9816
 4914SOL    HW215441   4.292   5.330   4.787  0.5505 -1.8444  0.7657
 4915SOL     OW15442   4.523   3.601   1.867  0.1121 -0.1845  0.0071
 4915SOL    HW115443   4.592   3.631   1.927 -1.4809 -0.2738  2.0015
 4915SOL    HW215444   4.452   3.664   1.878 -1.0624 -1.4427 -0.1197
 4916SOL     OW15445   2.246   3.795   5.298 -0.6541  0.0641  0.1111
 4916SOL    HW115446   2.155   3.772   5.281 -0.0367 -2.6701 -0.0413
 4916SOL    HW215447   2.276   3.729   5.361  1.4106  0.4499 -0.3973
 4917SOL     OW15448   4.148   4.685   2.889 -0.3032 -0.0157 -0.0423
 4917SOL    HW115449   4.231   4.639   2.902 -0.7418 -0.5472  0.9676
 4917SOL    HW215450   4.096   4.664   2.967 -0.2883  2.7076  0.8208
 4918SOL     OW15451   0.933   1.246   0.015 -0.2742 -0.5007  0.5629
 4918SOL    HW115452   0.931   1.150   0.021  0.8986 -0.5093  1.3002
 4918SOL    HW215453   0.874   1.275   0.084  0.7136 -0.7139  1.5383
 4919SOL     OW15454   1.216   3.433   0.595  0.0780 -0.7171  0.3526
 4919SOL    HW115455   1.232   3.524   0.569  1.7185 -1.3053 -0.8595
 4919SOL    HW215456   1.137   3.408   0.547 -0.3158  0.0108  0.6009
 4920SOL     OW15457   4.306   1.661   0.891  0.5254 -0.6632  0.0864
 4920SOL    HW115458   4.386   1.672   0.840 -1.2968 -0.1736 -2.9323
 4920SOL    HW215459   4.278   1.571   0.872 -1.3733  0.2396 -1.8437
 4921SOL     OW15460   4.707   3.840   0.759  0.6423 -0.0597  0.0299
 4921SOL    HW115461   4.712   3.897   0.836 -0.0268 -1.0808  0.8647
 4921SOL    HW215462   4.679   3.756   0.794 -1.7808 -0.0215 -1.5649
 4922SOL     OW15463   0.744   0.378   3.756 -0.1183  0.2508  0.0738
 4922SOL    HW115464   0.731   0.461   3.709  0.2858  1.0293  1.2879
 4922SOL    HW215465   0.815   0.335   3.709 -0.3862  0.5409 -0.6238
 4923SOL     OW15466   2.330   3.185   3.579 -0.6546 -0.2085 -0.3102
 4923SOL    HW115467   2.247   3.222   3.607 -1.3521 -1.5382 -0.5640
 4923SOL    HW215468   2.333   3.201   3.485  0.0511  1.0804 -0.0986
 4924SOL     OW15469   2.044   4.527   4.221 -0.7127 -0.1174 -0.1117
 4924SOL    HW115470   2.028   4.439   4.189  2.5284 -0.8506  0.0445
 4924SOL    HW215471   2.081   4.515   4.308  1.0768  1.2932 -0.6189
 4925SOL     OW15472   4.318   0.303   2.952  0.2545  0.3959 -0.1430
 4925SOL    HW115473   4.387   0.237   2.954  0.7302  0.8412 -1.1808
 4925SOL    HW215474   4.333   0.352   2.871 -0.6200  1.2090  0.1586
 4926SOL     OW15475   5.236   0.295   1.082  0.3292  0.6591  0.4049
 4926SOL    HW115476   5.196   0.215   1.047 -1.0506  1.2608  0.5189
 4926SOL    HW215477   5.190   0.309   1.165  1.9847  0.4773  1.4111
 4927SOL     OW15478   3.137   1.139   1.754 -0.2744  0.1215  0.4013
 4927SOL    HW115479   3.219   1.186   1.771 -0.3362 -0.1751  1.5498
 4927SOL    HW215480   3.114   1.098   1.837  0.4257 -2.9676 -0.7668
 4928SOL     OW15481   1.625   3.019   1.044 -1.1192  0.0525  0.0061
 4928SOL    HW115482   1.549   2.964   1.063 -2.7434  1.7579 -1.2083
 4928SOL    HW215483   1.593   3.084   0.981  1.5411  0.4093 -1.1266
 4929SOL     OW15484   1.187   2.874   5.312 -0.1663  0.3842  0.2567
 4929SOL    HW115485   1.101   2.858   5.349 -0.6347  1.4902 -0.3084
 4929SOL    HW215486   1.177   2.856   5.219 -0.0964  1.5853 -0.0007
 4930SOL     OW15487   2.796   0.814   1.366  0.3916 -0.1436  0.2424
 4930SOL    HW115488   2.730   0.745   1.358 -0.1447  0.5375 -2.0156
 4930SOL    HW215489   2.788   0.845   1.457 -1.5245 -0.9354  0.3987
 4931SOL     OW15490   0.988   0.976   0.034 -0.7253  0.8879  0.3045
 4931SOL    HW115491   0.915   0.915   0.042  0.0052  0.0900  1.1367
 4931SOL    HW215492   1.066   0.920   0.029 -0.1494  1.7226 -0.3960
 4932SOL     OW15493   1.766   2.627   2.920  0.3459 -0.1578  0.1202
 4932SOL    HW115494   1.725   2.707   2.954 -1.9016 -1.1649 -0.0819
 4932SOL    HW215495   1.693   2.573   2.891  1.9251 -1.4619 -1.6680
 4933SOL     OW15496   0.099   3.467   0.577  0.4403  0.2615  0.4734
 4933SOL    HW115497   0.048   3.532   0.624  2.1423  3.0129 -1.2311
 4933SOL    HW215498   0.033   3.413   0.532 -1.0110  1.5992  0.9199
 4934SOL     OW15499   2.032   4.215   1.477  0.9572  0.4224  0.1710
 4934SOL    HW115500   2.026   4.133   1.526 -0.8622  0.2581 -0.2518
 4934SOL    HW215501   2.008   4.191   1.388  2.6589  1.0229 -0.4837
 4935SOL     OW15502   4.933   2.935   2.776 -0.3237  0.3214  0.4323
 4935SOL    HW115503   4.860   2.900   2.826 -0.5683  1.2874  0.7758
 4935SOL    HW215504   4.934   2.883   2.695  0.2709 -1.4613  1.5234
 4936SOL     OW15505   1.506   3.705   2.447  0.2834  0.1710  0.0463
 4936SOL    HW115506   1.597   3.679   2.440  0.1322 -0.0573 -1.3956
 4936SOL    HW215507   1.508   3.800   2.460  0.7322  0.0074  1.3151
 4937SOL     OW15508   4.472   4.293   3.648 -0.3398 -0.2400 -0.5261
 4937SOL    HW115509   4.510   4.268   3.564  1.3317  0.9153 -0.1482
 4937SOL    HW215510   4.487   4.387   3.654 -0.3586 -0.3198  1.1148
 4938SOL     OW15511   4.839   2.107   3.882 -0.2343 -0.7016 -0.2665
 4938SOL    HW115512   4.833   2.132   3.974 -2.9023 -0.8215 -0.3220
 4938SOL    HW215513   4.843   2.011   3.884  0.1653 -0.6843 -0.2618
 4939SOL     OW15514   3.515   3.311   2.397  1.0281  0.0033 -0.4138
 4939SOL    HW115515   3.576   3.326   2.469  0.6177  1.5405 -0.3571
 4939SOL    HW215516   3.447   3.377   2.409 -2.2580 -3.2661  1.1744
 4940SOL     OW15517   4.383   1.557   2.919  1.0980 -0.1631 -0.4758
 4940SOL    HW115518   4.415   1.638   2.879  1.4676 -0.4037 -0.6771
 4940SOL    HW215519   4.294   1.577   2.946  1.1998  0.3244 -0.4855
 4941SOL     OW15520   1.592   1.320   5.230  0.6813 -0.4910 -0.5224
 4941SOL    HW115521   1.505   1.351   5.254  1.5493  0.5965  1.4105
 4941SOL    HW215522   1.642   1.399   5.212  1.9512 -0.9399  0.8727
 4942SOL     OW15523   4.692   1.853   3.682  0.0569 -0.3525  0.3158
 4942SOL    HW115524   4.663   1.945   3.679 -0.0628 -0.4082 -0.7481
 4942SOL    HW215525   4.766   1.853   3.741  2.4269  1.1424 -2.4036
 4943SOL     OW15526   0.785   2.355   4.456 -0.4586  0.6166  0.3416
 4943SOL    HW115527   0.816   2.279   4.504  0.7718  1.4083  0.8449
 4943SOL    HW215528   0.864   2.399   4.425 -1.1520  1.3812 -0.4461
 4944SOL     OW15529   4.253   5.015   2.298 -0.1656  0.4287  0.2869
 4944SOL    HW115530   4.297   5.099   2.311 -0.8166  0.8131  0.0916
 4944SOL    HW215531   4.305   4.952   2.346  0.3031  0.9606  0.4802
 4945SOL     OW15532   3.141   3.412   2.085 -0.2420  0.0892 -0.7662
 4945SOL    HW115533   3.139   3.507   2.091  0.4771  0.0741 -0.1430
 4945SOL    HW215534   3.079   3.383   2.152 -0.1910  0.1145 -0.7078
 4946SOL     OW15535   3.129   3.812   3.442 -0.1470  0.5076 -0.1159
 4946SOL    HW115536   3.165   3.841   3.358 -2.4482  1.8060 -0.7636
 4946SOL    HW215537   3.164   3.875   3.505 -0.9810  1.5746 -0.6791
 4947SOL     OW15538   3.117   2.747   4.819 -0.4026 -0.1536 -0.6274
 4947SOL    HW115539   3.077   2.832   4.801  0.7555  1.3270  2.9490
 4947SOL    HW215540   3.210   2.760   4.800 -0.3466 -0.9322 -0.9204
 4948SOL     OW15541   4.541   2.211   2.461  0.1975  0.1742 -0.4942
 4948SOL    HW115542   4.473   2.198   2.528  0.3385  0.0732 -0.3683
 4948SOL    HW215543   4.588   2.288   2.490  0.5629 -0.1491 -0.2157
 4949SOL     OW15544   3.183   4.308   3.507 -0.2449  0.0927 -0.0186
 4949SOL    HW115545   3.158   4.397   3.481  0.3218  0.6019  1.0823
 4949SOL    HW215546   3.248   4.321   3.576 -0.1455 -1.1848  0.1540
 4950SOL     OW15547   1.853   5.257   2.614  0.1259  0.1096  0.1088
 4950SOL    HW115548   1.895   5.230   2.533  0.1996  0.4216  0.0401
 4950SOL    HW215549   1.820   5.176   2.653 -0.4475  0.0193 -0.5361
 4951SOL     OW15550   0.160   3.541   4.375  0.2844  0.2838  1.0289
 4951SOL    HW115551   0.200   3.579   4.297 -0.1562  1.9925  1.5809
 4951SOL    HW215552   0.149   3.448   4.354  2.8497  0.0867  0.1866
 4952SOL     OW15553   1.517   3.689   4.113  0.0764 -0.1232 -0.1930
 4952SOL    HW115554   1.503   3.743   4.034  1.9011 -1.3364 -1.4254
 4952SOL    HW215555   1.525   3.600   4.080  0.8080 -0.6749  1.3832
 4953SOL     OW15556   0.405   1.687   2.849  0.0462 -0.7662  0.3243
 4953SOL    HW115557   0.352   1.666   2.926  0.6542  0.6957  1.1843
 4953SOL    HW215558   0.349   1.666   2.775 -1.4489 -0.0150  1.1975
 4954SOL     OW15559   0.081   2.066   3.882 -0.0373  0.6108 -0.3013
 4954SOL    HW115560   0.135   2.082   3.805 -1.3293  0.3985 -1.2908
 4954SOL    HW215561   0.142   2.070   3.956  1.0154  2.1435 -1.2005
 4955SOL     OW15562   1.496   5.037   1.329 -0.7052  0.4590  0.0839
 4955SOL    HW115563   1.466   4.963   1.381  0.1253  0.0869  0.0486
 4955SOL    HW215564   1.461   5.021   1.241  1.5774 -1.2763 -0.6003
 4956SOL     OW15565   3.999   3.087   4.875  0.3610  0.0910 -0.0633
 4956SOL    HW115566   4.046   3.164   4.844  0.5091  0.0749  0.1189
 4956SOL    HW215567   4.008   3.023   4.805  0.9410 -0.0476  0.1368
 4957SOL     OW15568   1.293   4.550   4.494  0.0165  0.2595 -0.5579
 4957SOL    HW115569   1.216   4.602   4.473 -0.9112 -1.4847 -1.6780
 4957SOL    HW215570   1.358   4.576   4.430 -1.0533 -1.2014 -2.3330
 4958SOL     OW15571   1.023   0.028   0.495 -0.3499 -0.1558 -0.1034
 4958SOL    HW115572   0.969  -0.047   0.471 -0.8563  1.1095 -3.3859
 4958SOL    HW215573   1.113  -0.003   0.485 -0.5449 -0.5936 -0.5349
 4959SOL     OW15574   4.045   0.293   0.097 -0.3666  0.7360 -0.7336
 4959SOL    HW115575   4.082   0.212   0.131 -1.4784 -0.5770 -2.4672
 4959SOL    HW215576   4.117   0.356   0.100  0.4277 -0.1771  0.9629
 4960SOL     OW15577   2.670   0.207   0.034 -0.3859 -0.0876 -0.1022
 4960SOL    HW115578   2.654   0.244   0.121  0.6507 -0.7084  0.3565
 4960SOL    HW215579   2.620   0.125   0.033  0.5036 -0.6467  0.3307
 4961SOL     OW15580   2.095   1.700   1.318  0.1874  0.1481  0.2546
 4961SOL    HW115581   2.052   1.615   1.328 -0.9671  0.8481  1.5381
 4961SOL    HW215582   2.094   1.716   1.223  0.1738 -1.1412  0.0265
 4962SOL     OW15583   0.591   2.040   1.848 -0.1746  0.2333  0.1550
 4962SOL    HW115584   0.513   2.057   1.901 -1.4882  0.6295 -1.8021
 4962SOL    HW215585   0.562   1.975   1.784  1.4015 -0.3494  0.0015
 4963SOL     OW15586   4.076   0.045   2.803  0.4719  1.0270  0.1490
 4963SOL    HW115587   4.061   0.135   2.776 -0.3234  1.8292  2.9485
 4963SOL    HW215588   4.003  -0.004   2.765 -0.4436  2.0238  0.5828
 4964SOL     OW15589   1.735   4.147   0.335 -0.2414  0.0255 -0.5179
 4964SOL    HW115590   1.755   4.228   0.287 -0.6220  0.3743 -0.0940
 4964SOL    HW215591   1.663   4.171   0.393 -0.3777 -0.6300 -0.4106
 4965SOL     OW15592   0.580   3.190   0.473  0.0498 -0.3319 -0.0273
 4965SOL    HW115593   0.641   3.243   0.422  2.0842 -0.8712  1.6936
 4965SOL    HW215594   0.502   3.245   0.482  1.3636  1.6094  0.1009
 4966SOL     OW15595   2.480   5.394   4.421 -0.1742  0.2844 -0.2364
 4966SOL    HW115596   2.427   5.321   4.390 -1.9099  0.9191  1.0653
 4966SOL    HW215597   2.495   5.448   4.343  1.3103 -1.5082 -1.2572
 4967SOL     OW15598   4.989   0.028   4.251  0.4216 -0.3302  0.3691
 4967SOL    HW115599   5.066   0.032   4.193  1.3106  1.1830  1.5603
 4967SOL    HW215600   4.996  -0.056   4.294  1.4195 -0.2352  0.4311
 4968SOL     OW15601   4.773   0.360   4.938 -0.2787  0.5487  0.0183
 4968SOL    HW115602   4.764   0.430   5.003 -1.2417  1.5549 -1.1539
 4968SOL    HW215603   4.862   0.368   4.906  0.6082 -0.6802  1.9600
 4969SOL     OW15604   3.071   4.125   3.677 -0.4767  0.3072 -0.1864
 4969SOL    HW115605   3.115   4.194   3.628  1.3164  0.2999  1.3200
 4969SOL    HW215606   3.062   4.159   3.766  0.7717 -1.4846  0.6849
 4970SOL     OW15607   1.293   1.906   4.164 -0.3712 -0.5215  0.0796
 4970SOL    HW115608   1.376   1.952   4.154 -0.7446  0.0764 -0.3071
 4970SOL    HW215609   1.260   1.896   4.075 -1.0062 -0.2093  0.2780
 4971SOL     OW15610   0.539   1.413   4.208 -0.5441 -0.3824  0.1590
 4971SOL    HW115611   0.518   1.465   4.130  0.1241 -0.1386  0.1408
 4971SOL    HW215612   0.615   1.456   4.246 -1.6670  0.2995  1.7127
 4972SOL     OW15613   4.199   0.823   1.801  0.1012  0.2161  0.3297
 4972SOL    HW115614   4.161   0.901   1.841 -0.7320 -0.2842  0.5215
 4972SOL    HW215615   4.293   0.831   1.818  0.1347  1.6225 -0.4304
 4973SOL     OW15616   1.735   2.958   2.193  0.6897  0.7164 -0.5218
 4973SOL    HW115617   1.715   2.945   2.101  2.1335  0.1746 -0.7821
 4973SOL    HW215618   1.768   2.874   2.223 -1.3024  0.3986  0.9419
 4974SOL     OW15619   4.336   2.978   0.343 -0.4702 -0.3618  0.4235
 4974SOL    HW115620   4.303   3.062   0.376  0.5600  0.0686  0.3897
 4974SOL    HW215621   4.266   2.946   0.285 -0.4730  0.9372 -0.3305
 4975SOL     OW15622   4.667   2.632   2.044  0.3516 -0.1533  0.2620
 4975SOL    HW115623   4.652   2.539   2.062 -1.4342  0.3474  1.6532
 4975SOL    HW215624   4.731   2.660   2.110 -0.5311  0.0024  1.0686
 4976SOL     OW15625   2.629   3.969   4.078  0.6442 -0.5963 -0.5331
 4976SOL    HW115626   2.717   3.936   4.060  1.1248  0.7701 -0.8049
 4976SOL    HW215627   2.629   3.988   4.172 -0.0358 -2.4445 -0.1143
 4977SOL     OW15628   0.947   3.764   3.648 -0.3454  0.1575 -0.3062
 4977SOL    HW115629   0.980   3.768   3.558 -0.8226 -0.4256 -0.5149
 4977SOL    HW215630   0.941   3.855   3.675  0.9325  0.3135 -0.4449
 4978SOL     OW15631   5.334   3.816   4.157 -0.0151  0.2967 -0.1374
 4978SOL    HW115632   5.343   3.755   4.084  0.9180 -1.2904  1.2339
 4978SOL    HW215633   5.330   3.760   4.235 -1.1382  1.9184  1.0403
 4979SOL     OW15634   3.257   4.488   1.174 -0.0400  0.2656  0.4732
 4979SOL    HW115635   3.302   4.431   1.112 -1.8003  1.3626 -1.9966
 4979SOL    HW215636   3.165   4.461   1.168 -0.6203  2.0847  0.6395
 4980SOL     OW15637   4.269   4.263   3.830 -0.5134  0.4851 -0.3013
 4980SOL    HW115638   4.243   4.347   3.869 -0.2403 -0.5879  2.4174
 4980SOL    HW215639   4.341   4.286   3.772  0.0289  2.0901  0.9045
 4981SOL     OW15640   2.283   2.331   3.251 -0.4858 -0.4775  0.2584
 4981SOL    HW115641   2.189   2.330   3.233 -0.5694 -0.3435  0.6617
 4981SOL    HW215642   2.311   2.241   3.236 -0.1165  0.0393 -2.6510
 4982SOL     OW15643   5.378   4.379   4.930 -0.7727  0.5200 -0.3708
 4982SOL    HW115644   5.394   4.287   4.911 -1.8870  0.1548  0.4106
 4982SOL    HW215645   5.284   4.385   4.947 -0.5237  1.5712  0.8114
 4983SOL     OW15646   2.291   1.849   1.751 -0.0937  0.2455  0.1950
 4983SOL    HW115647   2.315   1.798   1.673  0.4591 -0.1421  0.6050
 4983SOL    HW215648   2.208   1.889   1.729  0.1854  0.3548 -0.6996
 4984SOL     OW15649   4.426   0.727   2.297  0.4155  0.0756  0.1232
 4984SOL    HW115650   4.336   0.753   2.315  0.5116 -0.6504  1.7947
 4984SOL    HW215651   4.418   0.652   2.238 -0.0107  0.7504 -0.6983
 4985SOL     OW15652   1.516   1.138   1.897 -0.0051  0.0816  0.2606
 4985SOL    HW115653   1.505   1.202   1.826 -0.9675 -1.5280 -1.1226
 4985SOL    HW215654   1.583   1.176   1.953  3.9403 -0.2765 -3.6346
 4986NA      NA15655   3.781   2.743   0.128 -0.0241 -0.1347 -0.1266
 4987NA      NA15656   4.470   3.520   4.761  0.7188 -0.4137  0.1114
 4988NA      NA15657   5.045   2.550   4.630 -0.4682 -0.1761 -0.2066
 4989NA      NA15658   4.739   3.102   0.456 -0.0569 -0.6507  0.1277
 4990NA      NA15659   0.607   1.632   2.932 -0.3859  0.0419 -0.0964
 4991NA      NA15660   2.171   2.604   1.129 -0.0625 -0.0986  0.1501
 4992NA      NA15661   4.129   3.042   3.228 -0.2672  0.3732  0.2413
 4993NA      NA15662   4.253   3.036   2.557 -0.3262  0.4747  0.3149
 4994NA      NA15663   5.060   3.119   3.521 -0.4526 -0.5335  0.0220
 4995NA      NA15664   1.294   3.697   0.941 -1.0039  0.4484 -0.2910
 4996NA      NA15665   0.993   0.627   1.544 -0.0203 -0.0120  0.5375
 4997NA      NA15666   1.277   3.182   3.618 -0.2125 -0.1080  0.5504
 4998NA      NA15667   2.181   4.681   3.267 -0.6355 -0.3218 -0.4024
 4999NA      NA15668   2.855   3.524   1.812 -0.0426 -0.4313  0.4607
 5000NA      NA15669   2.720   2.921   3.509 -0.2781 -0.0324  0.4192
 5001CL      CL15670   5.235   2.568   2.757 -0.8335  0.1042  0.4565
 5002CL      CL15671   4.926   3.682   3.059  0.0217 -0.3256  0.5181
 5003CL      CL15672   1.651   4.328   0.550 -0.0693 -0.0304 -0.1771
 5004CL      CL15673   2.123   1.858   4.195  0.0329  0.4084 -0.1856
 5005CL      CL15674   3.666   4.273   3.379  0.3318  0.1386  0.3178
 5006CL      CL15675   2.810   5.116   4.221 -0.1004  0.1266  0.2410
 5007CL      CL15676   1.544   3.989   3.645  0.1739 -0.2365 -0.3903
 5008CL      CL15677   3.232   4.082   2.148 -0.0873  0.0778 -0.0548
 5009CL      CL15678   3.792   1.653   4.784 -0.2286  0.1079  0.0552
 5010CL      CL15679   1.873   5.051   4.131 -0.1882  0.0087 -0.1076
 5011CL      CL15680   0.540   2.654   1.125  0.3058 -0.2269  0.1557
 5012CL      CL15681   3.864   4.831   4.092  0.2179  0.2663 -0.3305
 5013CL      CL15682   2.667   2.824   0.806 -0.4555  0.4085  0.3100
 5014CL      CL15683   1.187   0.456   2.665  0.0365 -0.2342 -0.0071
 5015CL      CL15684   1.761   1.189   4.445 -0.0295  0.0866 -0.1941
 5016CL      CL15685   2.562   4.454   4.897 -0.2540  0.0008  0.0294
 5017CL      CL15686   1.482   0.065   0.354 -0.0348 -0.4777  0.0707
 5018CL      CL15687   1.970   3.175   3.973  0.2057 -0.9225  0.3510
 5019CL      CL15688   1.196   0.773   5.380  0.0791  0.2535  0.1665
 5020CL      CL15689   1.138   2.877   2.145  0.3111 -0.0795 -0.0106
 5021CL      CL15690   2.169   4.274   3.012  0.0404  0.3252  0.4406
 5022CL      CL15691   0.977   1.645   0.604 -0.0935 -0.0868 -0.0108
 5023CL      CL15692   2.363   3.299   3.303 -0.2255  0.1069  0.2095
 5024CL      CL15693   2.442   2.060   0.185  0.3854 -0.3292 -0.1916
 5025CL      CL15694   3.778   0.991   3.625  0.0707  0.2383  0.1645
 5026CL      CL15695   1.489   4.043   2.780  0.2053  0.0093 -0.0696
 5027CL      CL15696   4.717   2.183   4.157 -0.2124 -0.1687 -0.1828
 5028CL      CL15697   0.341   2.094   3.703  0.1117  0.0765 -0.0147
 5029CL      CL15698   4.688   0.169   2.098  0.0716 -0.3784  0.1457
   5.39803   5.39803   5.39803
